1000 SPC/Fw water molecules t=   1.18000 step= 1180
 2931
    1SOL     OW    1   2.557   0.351   2.592 -0.5433  0.1085 -0.2797
    1SOL    HW1    2   2.540   0.248   2.581  2.3172  0.9712  0.0535
    1SOL    HW2    3   2.605   0.367   2.681 -1.3784 -0.0494 -0.3735
    2SOL     OW    4   2.765   3.006   1.379  0.1412 -0.6287  0.2230
    2SOL    HW1    5   2.836   3.044   1.311 -3.0164 -0.5652 -1.8974
    2SOL    HW2    6   2.739   3.075   1.452  0.1135 -0.0037 -2.3960
    3SOL     OW    7   2.626   2.611   0.429  0.2366  0.1595 -0.1464
    3SOL    HW1    8   2.619   2.512   0.403  2.4901 -1.2410 -1.3060
    3SOL    HW2    9   2.711   2.630   0.483 -0.8370  0.1747  0.0132
    4SOL     OW   10   1.238   1.531   2.366  0.1273  0.1911 -0.0056
    4SOL    HW1   11   1.178   1.563   2.289  1.7660 -0.6028  4.0103
    4SOL    HW2   12   1.222   1.432   2.392  2.5446 -0.4406 -0.6483
    5SOL     OW   13   1.138   1.572   3.029  0.7080  0.1708 -0.3765
    5SOL    HW1   14   1.208   1.647   3.018 -0.0711  1.1145  2.3112
    5SOL    HW2   15   1.054   1.604   3.083 -0.1851 -0.6789 -2.7597
    6SOL     OW   16   0.212   1.770   3.010  0.2762  0.8805  0.5188
    6SOL    HW1   17   0.122   1.809   3.043  0.3208 -1.3670  2.8304
    6SOL    HW2   18   0.279   1.761   3.082 -2.7301  0.2811 -1.8851
    7SOL     OW   19   2.541   0.869   1.053 -0.4845 -0.5255  0.0098
    7SOL    HW1   20   2.456   0.838   1.102 -1.1977 -0.3422  0.6956
    7SOL    HW2   21   2.534   0.858   0.951  1.2706 -3.6200 -0.1404
    8SOL     OW   22   0.440   0.604   1.468  0.1941 -0.1280 -0.0432
    8SOL    HW1   23   0.522   0.549   1.487  1.1030 -0.9096 -1.1457
    8SOL    HW2   24   0.408   0.592   1.367 -1.1477  0.6798 -1.2449
    9SOL     OW   25   1.195   0.895   2.423 -0.5371 -0.7464 -0.6198
    9SOL    HW1   26   1.223   0.910   2.327 -1.4455 -2.2291  2.1127
    9SOL    HW2   27   1.139   0.806   2.426 -0.2701  0.0362 -0.6923
   10SOL     OW   28   0.670   1.365   1.318  0.2844  0.1310 -0.1824
   10SOL    HW1   29   0.592   1.366   1.251 -0.9015 -1.1734 -1.2664
   10SOL    HW2   30   0.716   1.465   1.320 -0.0973  2.3185 -1.3397
   11SOL     OW   31   2.310   2.808   0.855 -0.3565 -0.2283 -0.2823
   11SOL    HW1   32   2.275   2.825   0.958  0.1222 -1.5085 -0.3836
   11SOL    HW2   33   2.409   2.775   0.850 -1.0489 -0.2147  1.1699
   12SOL     OW   34   1.461   0.843   0.413 -0.5510 -0.3226 -0.1711
   12SOL    HW1   35   1.442   0.921   0.348  1.3584 -1.4099  0.2640
   12SOL    HW2   36   1.488   0.755   0.368 -0.4980 -0.4367  1.4155
   13SOL     OW   37   2.452   0.734   1.773 -0.5679  0.5207 -0.8732
   13SOL    HW1   38   2.362   0.702   1.818 -3.5732  0.8859  1.6935
   13SOL    HW2   39   2.467   0.675   1.688  1.4302 -1.4281  0.9432
   14SOL     OW   40   1.858   0.081   0.693  0.1953 -0.5261  0.2148
   14SOL    HW1   41   1.769   0.079   0.639  0.7663  0.7870 -0.6511
   14SOL    HW2   42   1.861   0.019   0.775  1.0305 -1.0549  0.1938
   15SOL     OW   43   1.866   2.103   2.729 -0.0870  0.0153 -0.3436
   15SOL    HW1   44   1.802   2.185   2.714  0.2152  0.2659 -1.9252
   15SOL    HW2   45   1.847   2.020   2.669 -1.2639  0.3366  1.7442
   16SOL     OW   46   1.587   1.684   3.006 -0.3543 -0.2048 -0.1961
   16SOL    HW1   47   1.577   1.602   3.077 -1.8917  0.0885  0.6400
   16SOL    HW2   48   1.671   1.745   3.025 -0.4547  1.0469 -1.4249
   17SOL     OW   49   0.065   0.464   0.149  0.4067  0.0096  0.2628
   17SOL    HW1   50   0.152   0.508   0.102  1.6170  4.3676  1.0919
   17SOL    HW2   51  -0.021   0.468   0.087 -1.6112  0.2851 -3.0777
   18SOL     OW   52   0.936   2.965   2.148  0.1656  0.0615  0.5638
   18SOL    HW1   53   0.842   2.921   2.142 -0.3405  0.9554 -1.3034
   18SOL    HW2   54   0.998   2.959   2.057  2.1930  0.2148 -0.9754
   19SOL     OW   55   0.487   0.833   1.879 -0.2517  0.6106  0.3002
   19SOL    HW1   56   0.530   0.807   1.974 -0.2369 -1.9908  1.6719
   19SOL    HW2   57   0.540   0.911   1.838 -2.0061  0.1455 -1.0219
   20SOL     OW   58   0.195   2.815   0.861  0.0564  0.3596  0.3518
   20SOL    HW1   59   0.127   2.876   0.805  0.5861  0.8567 -2.6088
   20SOL    HW2   60   0.233   2.735   0.805  1.3370 -0.1996 -0.0313
   21SOL     OW   61   2.716   0.251   1.978  0.6702  0.1005 -0.1193
   21SOL    HW1   62   2.676   0.190   1.907  3.2376  1.7206 -2.0459
   21SOL    HW2   63   2.789   0.202   2.040 -0.0253 -1.0614 -1.2338
   22SOL     OW   64   2.322   0.196   0.131  0.0386 -0.2408  0.5576
   22SOL    HW1   65   2.320   0.099   0.088 -2.0399 -1.6477  1.1010
   22SOL    HW2   66   2.257   0.266   0.082 -2.1502  2.8239  0.4456
   23SOL     OW   67   2.788   0.592   0.665  0.2091  0.0130  0.6365
   23SOL    HW1   68   2.788   0.494   0.622  1.4286 -2.8422 -0.8028
   23SOL    HW2   69   2.816   0.668   0.600 -1.2815  2.5458  1.1620
   24SOL     OW   70   0.223   1.920   0.440 -0.4497 -0.1079  0.1596
   24SOL    HW1   71   0.174   1.974   0.365  0.9423 -0.4970 -1.7747
   24SOL    HW2   72   0.324   1.898   0.403  4.0804 -3.0265  0.9273
   25SOL     OW   73   2.234   0.643   0.205 -0.4920 -0.2463 -0.4436
   25SOL    HW1   74   2.240   0.662   0.103 -0.0718  0.5568  0.6420
   25SOL    HW2   75   2.278   0.552   0.231  1.0583 -1.5322  0.6428
   26SOL     OW   76   2.447   2.180   2.032 -0.3531  0.0183 -0.3038
   26SOL    HW1   77   2.538   2.212   2.078 -1.1651  3.3786  2.3952
   26SOL    HW2   78   2.455   2.080   1.997  0.4020 -1.7134 -1.0128
   27SOL     OW   79   0.630   2.910   0.266  0.8504  0.2672  0.5721
   27SOL    HW1   80   0.727   2.940   0.253  0.8922  1.4002  3.1970
   27SOL    HW2   81   0.578   2.912   0.176  0.3793 -1.6415 -0.9859
   28SOL     OW   82   1.585   0.169   0.279  0.2819 -0.1017 -0.1179
   28SOL    HW1   83   1.649   0.146   0.200  1.8926 -0.3132  0.6289
   28SOL    HW2   84   1.604   0.260   0.322 -3.3226  0.2181 -0.2758
   29SOL     OW   85   1.973   0.573   0.310 -0.0696 -0.6511 -0.4046
   29SOL    HW1   86   1.896   0.630   0.349 -0.9874  3.5286 -0.8140
   29SOL    HW2   87   2.043   0.618   0.249  1.6598 -1.1631 -1.6621
   30SOL     OW   88   0.189   2.077   0.915  0.5771  0.4061 -0.0415
   30SOL    HW1   89   0.153   2.023   0.832  0.7257  0.5742 -0.5484
   30SOL    HW2   90   0.123   2.142   0.963  0.4126 -0.8836  0.5969
   31SOL     OW   91   2.118   0.072   2.398 -0.3462  1.2571 -0.2941
   31SOL    HW1   92   2.071   0.047   2.488  3.0067 -0.4146  0.8131
   31SOL    HW2   93   2.073   0.029   2.318  0.8644  0.7675  2.1466
   32SOL     OW   94   2.993   0.026   0.221 -0.5201  0.3621  0.3704
   32SOL    HW1   95   2.967  -0.073   0.257  1.3996 -0.8820  0.3444
   32SOL    HW2   96   3.076   0.062   0.269  1.0005 -0.4046  2.4972
   33SOL     OW   97   0.892   0.327   0.629  0.0421 -0.4004  0.2895
   33SOL    HW1   98   0.870   0.251   0.563  1.1901  0.0007  0.9212
   33SOL    HW2   99   0.992   0.356   0.618  2.3070 -0.3702  0.5308
   34SOL     OW  100   0.342   2.715   1.085 -0.0438  0.0335  0.3035
   34SOL    HW1  101   0.278   2.729   1.004  0.1069  0.9670  1.6557
   34SOL    HW2  102   0.430   2.773   1.076  0.4202 -0.1792 -3.0387
   35SOL     OW  103   0.055   0.119   1.886 -0.2237  0.6201 -0.1750
   35SOL    HW1  104   0.106   0.034   1.912 -3.7723  0.3524 -0.6696
   35SOL    HW2  105  -0.019   0.097   1.817  1.3164  0.6545 -1.7999
   36SOL     OW  106   1.883   1.253   1.604 -1.0827 -0.2895 -0.1703
   36SOL    HW1  107   1.961   1.184   1.617 -2.1971  2.2787 -2.9279
   36SOL    HW2  108   1.907   1.336   1.545 -0.6024 -1.5031 -1.5278
   37SOL     OW  109   1.182   0.247   0.959  0.0389 -0.0982 -0.4390
   37SOL    HW1  110   1.229   0.323   1.010 -0.2647  0.4850  1.2577
   37SOL    HW2  111   1.247   0.206   0.891  3.4694  0.5613 -1.8090
   38SOL     OW  112   1.152   2.813   2.391  0.4699 -0.0284 -0.0688
   38SOL    HW1  113   1.111   2.716   2.405 -1.3408 -0.1078  0.1045
   38SOL    HW2  114   1.096   2.877   2.336 -2.9157  1.4961  1.2330
   39SOL     OW  115   2.335   1.410   3.055 -0.1179 -0.4520 -0.4656
   39SOL    HW1  116   2.407   1.331   3.057  1.2407  1.0134  0.5509
   39SOL    HW2  117   2.293   1.429   3.153 -0.6785 -0.8811  0.5231
   40SOL     OW  118   2.004   2.456   2.637 -0.2799  0.1169  0.5403
   40SOL    HW1  119   2.007   2.557   2.604 -2.4618  0.7359  0.3332
   40SOL    HW2  120   1.957   2.390   2.576  0.9778  0.1540  1.6392
   41SOL     OW  121   3.011   0.649   2.797 -0.3948  0.1027  0.0059
   41SOL    HW1  122   2.920   0.700   2.792  0.2210  2.1003  0.5758
   41SOL    HW2  123   2.993   0.547   2.772 -1.6270 -3.6860  2.0763
   42SOL     OW  124   1.740   1.794   0.489 -0.6563 -0.1195 -0.1125
   42SOL    HW1  125   1.703   1.700   0.471  1.7261  1.7528  3.7802
   42SOL    HW2  126   1.740   1.850   0.404 -0.6502 -1.1703 -2.1356
   43SOL     OW  127   0.423   1.689   1.172  0.3097 -0.0312  0.1668
   43SOL    HW1  128   0.430   1.588   1.204  0.6575  1.0704 -0.9797
   43SOL    HW2  129   0.330   1.729   1.171 -0.1630  0.3681  2.8362
   44SOL     OW  130   1.693   2.339   2.989 -0.0338 -0.5103  0.1332
   44SOL    HW1  131   1.626   2.417   3.014 -1.1168  0.1423  0.6342
   44SOL    HW2  132   1.739   2.355   2.892 -0.3315  0.2678 -0.0224
   45SOL     OW  133   0.347   1.876   2.602  0.1184 -0.3880 -0.3672
   45SOL    HW1  134   0.319   1.863   2.501 -0.4084  0.0193 -0.3494
   45SOL    HW2  135   0.415   1.806   2.639 -1.6501 -1.0815 -0.7696
   46SOL     OW  136   1.284   0.619   0.145 -0.3419  0.0764  0.1731
   46SOL    HW1  137   1.298   0.723   0.129 -1.3411  0.5524 -0.0620
   46SOL    HW2  138   1.187   0.592   0.158  0.9318 -0.6157 -1.9399
   47SOL     OW  139   0.218   2.510   1.575 -0.2649  0.0544  0.1398
   47SOL    HW1  140   0.238   2.409   1.582 -1.3684 -0.4118 -0.0691
   47SOL    HW2  141   0.222   2.552   1.478  0.7818 -3.7024  1.4673
   48SOL     OW  142   2.622   0.631   0.137 -0.3833 -0.0046 -0.3117
   48SOL    HW1  143   2.614   0.620   0.244 -0.3104 -1.0047  2.3448
   48SOL    HW2  144   2.715   0.669   0.109  0.7792 -1.8309  1.9305
   49SOL     OW  145   0.332   0.741   1.664 -0.3935 -0.0648 -0.9580
   49SOL    HW1  146   0.396   0.747   1.748  1.0331 -1.2905 -2.7316
   49SOL    HW2  147   0.384   0.699   1.583  2.3849  0.2682 -0.7608
   50SOL     OW  148   1.680   1.105   0.343  0.4607 -0.3816 -0.1785
   50SOL    HW1  149   1.680   1.022   0.274 -1.6515 -0.2497 -2.6474
   50SOL    HW2  150   1.636   1.082   0.438 -1.3423 -0.0484 -0.3210
   51SOL     OW  151   2.987   1.731   0.267  0.0933 -0.1114 -0.1716
   51SOL    HW1  152   2.929   1.650   0.236 -2.0377 -1.9809  0.5273
   51SOL    HW2  153   3.058   1.714   0.343 -0.6971  0.9398 -0.8833
   52SOL     OW  154   0.802   2.135   0.611  0.2222 -0.0906  0.4535
   52SOL    HW1  155   0.722   2.182   0.652 -0.6460  1.7978  0.9023
   52SOL    HW2  156   0.832   2.045   0.661 -1.5460  0.6396  1.2858
   53SOL     OW  157   0.196   0.465   1.591 -0.6448  0.4023 -0.2042
   53SOL    HW1  158   0.245   0.558   1.603 -1.2336  0.2530  0.5539
   53SOL    HW2  159   0.100   0.483   1.556  0.5442  1.3594 -1.4042
   54SOL     OW  160   1.807   0.498   3.026 -0.1391  0.3431 -0.3087
   54SOL    HW1  161   1.864   0.453   3.100 -1.7763 -1.5648  1.2108
   54SOL    HW2  162   1.705   0.487   3.054 -4.6007 -1.4024 -1.1713
   55SOL     OW  163   0.766   2.887   0.662 -0.6692 -0.1936 -0.1091
   55SOL    HW1  164   0.725   2.982   0.675 -1.1722 -0.2366 -1.1680
   55SOL    HW2  165   0.862   2.900   0.620  0.2926 -4.3450 -0.5512
   56SOL     OW  166   0.597   1.609   0.023  0.1270 -0.1523 -0.1059
   56SOL    HW1  167   0.502   1.641   0.060 -0.0391 -0.1224  0.7621
   56SOL    HW2  168   0.590   1.524  -0.037 -2.5195 -1.4141  1.4772
   57SOL     OW  169   1.710   2.523   2.353  0.1157  0.1370  0.1515
   57SOL    HW1  170   1.778   2.439   2.350 -0.4741  3.2493 -0.7499
   57SOL    HW2  171   1.635   2.511   2.424 -0.8968 -0.7065  0.8382
   58SOL     OW  172   0.688   0.289   1.066 -0.1351 -0.6018  0.2650
   58SOL    HW1  173   0.607   0.308   1.127 -0.2001  0.2638 -0.7282
   58SOL    HW2  174   0.684   0.194   1.031  0.8244  2.1542  0.0317
   59SOL     OW  175   0.391   2.330   2.723 -0.6532  0.4713 -0.3211
   59SOL    HW1  176   0.403   2.235   2.689  0.2625  2.9158  1.5679
   59SOL    HW2  177   0.474   2.357   2.780  1.4396 -1.4698  0.1678
   60SOL     OW  178   2.319   2.095   2.307  0.2196  0.0487  0.2420
   60SOL    HW1  179   2.396   2.133   2.244  0.1055  0.5012 -0.0963
   60SOL    HW2  180   2.296   2.156   2.392 -3.6897  1.9227  0.9651
   61SOL     OW  181   1.261   0.592   0.420  0.3338  0.1677 -0.3729
   61SOL    HW1  182   1.162   0.613   0.444 -2.7813 -1.0681  0.5923
   61SOL    HW2  183   1.288   0.587   0.316 -1.4658  1.5798 -2.8488
   62SOL     OW  184   2.728   1.749   2.908  0.2007 -0.3804 -0.3186
   62SOL    HW1  185   2.706   1.774   2.809  2.2849 -1.7581 -2.3828
   62SOL    HW2  186   2.818   1.701   2.918  0.3759  2.1235 -0.8110
   63SOL     OW  187   0.542   0.820   0.203  0.7114  0.1634 -0.4683
   63SOL    HW1  188   0.580   0.901   0.150 -0.3608  2.0195  0.4026
   63SOL    HW2  189   0.564   0.815   0.302  0.4219 -0.9279 -0.1610
   64SOL     OW  190   0.007   0.478   2.469 -0.5710  1.2086  0.1075
   64SOL    HW1  191  -0.004   0.528   2.559 -1.7270 -1.3560  1.6873
   64SOL    HW2  192  -0.017   0.538   2.384 -0.6120 -2.0613  0.4096
   65SOL     OW  193   0.196   1.507   0.639  0.7369  0.0688  0.4742
   65SOL    HW1  194   0.207   1.550   0.729 -2.4083  0.0410 -0.7358
   65SOL    HW2  195   0.286   1.475   0.595 -0.9420 -0.6470 -0.2378
   66SOL     OW  196   2.530   0.378   0.561  0.0263  0.1565 -0.0315
   66SOL    HW1  197   2.630   0.361   0.552 -2.1049 -0.8030  0.3152
   66SOL    HW2  198   2.478   0.311   0.617 -1.1447 -1.7446 -0.7417
   67SOL     OW  199   0.597   2.464   1.406  0.9316 -0.0480 -0.0485
   67SOL    HW1  200   0.673   2.438   1.468 -1.0963 -1.7643 -0.2647
   67SOL    HW2  201   0.527   2.388   1.391  0.2930 -0.2492 -1.0976
   68SOL     OW  202   0.968   1.033   2.524  0.0130  0.1080 -0.2064
   68SOL    HW1  203   1.042   0.955   2.520  1.1078 -1.2333  0.0199
   68SOL    HW2  204   0.930   1.064   2.427 -0.9995  1.3983 -0.9039
   69SOL     OW  205   0.700   2.799   2.177 -0.1673 -0.5537  0.6891
   69SOL    HW1  206   0.762   2.715   2.166 -0.4347 -0.4286 -0.6853
   69SOL    HW2  207   0.601   2.768   2.171  3.1700  2.4730  1.3456
   70SOL     OW  208   0.481   0.160   2.576 -0.5690 -0.4672 -0.2396
   70SOL    HW1  209   0.387   0.142   2.617  0.4388 -0.5418  0.4345
   70SOL    HW2  210   0.549   0.096   2.613  0.6312 -0.0236 -0.7065
   71SOL     OW  211   1.104   1.816   0.380  0.1292 -0.0083  0.2775
   71SOL    HW1  212   1.071   1.753   0.458 -1.5870 -0.3118 -2.9027
   71SOL    HW2  213   1.060   1.790   0.290  0.0416 -1.7446 -1.9242
   72SOL     OW  214   1.816   0.202   2.164  0.3374 -0.6258  0.1316
   72SOL    HW1  215   1.884   0.282   2.171  2.8131  3.4606  2.3814
   72SOL    HW2  216   1.871   0.117   2.140 -0.6491  0.6683 -1.7398
   73SOL     OW  217   2.813   2.193   2.381 -0.3841 -0.4721 -0.8361
   73SOL    HW1  218   2.834   2.097   2.355  1.0306  1.3099 -1.6972
   73SOL    HW2  219   2.844   2.214   2.481  0.8682  1.4469  0.5855
   74SOL     OW  220   2.641   2.855   2.194 -0.2415  0.1049  0.1308
   74SOL    HW1  221   2.586   2.855   2.285 -3.0257  0.2715  1.8858
   74SOL    HW2  222   2.732   2.900   2.197 -3.2789  2.4136 -2.2455
   75SOL     OW  223   0.964   0.847   1.072 -0.1848  0.2796 -0.7834
   75SOL    HW1  224   0.892   0.867   1.000  1.8284  0.0594  0.4937
   75SOL    HW2  225   0.959   0.895   1.165 -0.0886 -0.3199 -0.6433
   76SOL     OW  226   1.774   1.210   2.478  0.2627  0.5936 -0.2562
   76SOL    HW1  227   1.673   1.202   2.507 -2.3063 -1.7106  1.4020
   76SOL    HW2  228   1.822   1.298   2.504  0.4993  1.1675  1.6203
   77SOL     OW  229   2.943   0.940   1.023  0.0870 -0.0145  0.0992
   77SOL    HW1  230   2.907   0.845   1.001  1.1549  1.2269 -0.9413
   77SOL    HW2  231   2.997   0.942   1.110  0.8654 -1.6657 -0.8720
   78SOL     OW  232   1.991   1.483   1.484 -0.2111 -0.5532 -0.9129
   78SOL    HW1  233   2.089   1.459   1.457  1.1418  2.3641 -0.0702
   78SOL    HW2  234   1.928   1.515   1.409 -1.9674 -2.2350  0.9131
   79SOL     OW  235   0.635   1.421   0.794  0.2069  0.4243  0.3034
   79SOL    HW1  236   0.540   1.428   0.834  1.1558  0.4851 -0.7019
   79SOL    HW2  237   0.654   1.363   0.705  0.2888 -0.5507 -2.5584
   80SOL     OW  238   0.661   0.454   1.537 -0.2779  0.2378  0.0020
   80SOL    HW1  239   0.705   0.496   1.456  1.4306 -0.4102  1.7874
   80SOL    HW2  240   0.667   0.350   1.541  0.3571  0.2377 -0.5465
   81SOL     OW  241   1.030   1.287   2.616 -0.6332 -0.5414 -0.3794
   81SOL    HW1  242   1.015   1.189   2.587 -0.7287  1.7899 -2.7829
   81SOL    HW2  243   0.993   1.356   2.553 -0.0611 -0.4409  0.2938
   82SOL     OW  244   0.923   2.999   1.511 -0.3883 -0.3645 -0.3659
   82SOL    HW1  245   0.826   2.973   1.528 -1.1606  1.3920  0.9523
   82SOL    HW2  246   0.948   2.986   1.413 -0.8093  0.6153  0.1475
   83SOL     OW  247   2.613   2.382   0.854 -0.7641 -0.2680 -0.2438
   83SOL    HW1  248   2.539   2.428   0.912  0.8007  1.1045  4.2464
   83SOL    HW2  249   2.572   2.350   0.770 -2.3125  0.8724  3.5467
   84SOL     OW  250   0.707   3.083   2.379  1.1227 -0.1451  0.3246
   84SOL    HW1  251   0.624   3.086   2.443 -0.9198  2.2091 -0.0375
   84SOL    HW2  252   0.759   2.995   2.390  1.1515  3.5448  0.1447
   85SOL     OW  253   0.268   1.627   1.445 -0.2895  0.7691  0.4044
   85SOL    HW1  254   0.267   1.731   1.424 -1.2501  3.5237 -1.5014
   85SOL    HW2  255   0.310   1.600   1.541 -0.4946  0.2341  2.2460
   86SOL     OW  256   0.472   1.087   1.467 -0.0431  0.2924 -0.0962
   86SOL    HW1  257   0.422   1.016   1.410  2.5683  0.1844  0.2755
   86SOL    HW2  258   0.557   1.051   1.513 -1.1921  2.5692 -1.1696
   87SOL     OW  259   1.653   0.663   0.271  0.3797  0.0321  0.1623
   87SOL    HW1  260   1.700   0.752   0.244 -0.9283  1.0079 -0.9124
   87SOL    HW2  261   1.659   0.602   0.194  2.4360  0.8305  3.3120
   88SOL     OW  262   1.592   1.363   0.269  0.5066 -0.1700 -0.0032
   88SOL    HW1  263   1.604   1.263   0.296 -2.4525 -2.4369 -2.8806
   88SOL    HW2  264   1.497   1.392   0.290 -1.7694 -0.3035 -2.1853
   89SOL     OW  265   3.097   0.397   0.591 -0.2217 -0.6069  0.2861
   89SOL    HW1  266   3.147   0.309   0.579  0.3833  2.6931  1.2452
   89SOL    HW2  267   2.992   0.387   0.595  1.9426 -0.3402 -1.5028
   90SOL     OW  268   0.874   1.577   0.069 -0.8787  0.0334  0.4610
   90SOL    HW1  269   0.897   1.478   0.063 -2.0345 -0.4460 -0.5833
   90SOL    HW2  270   0.781   1.601   0.028 -0.4336 -0.4276 -2.1101
   91SOL     OW  271   1.220   1.458   1.782 -0.0351 -0.6051 -0.0331
   91SOL    HW1  272   1.190   1.545   1.833  0.3397  1.3538  1.5537
   91SOL    HW2  273   1.324   1.435   1.789 -0.2775 -0.5954  0.6859
   92SOL     OW  274  -0.002   0.954   1.248  0.1175 -0.0399  0.3843
   92SOL    HW1  275   0.047   1.039   1.215 -0.4253 -0.1837  3.5587
   92SOL    HW2  276  -0.016   0.964   1.351  1.3234 -0.1974 -0.2448
   93SOL     OW  277   3.061   2.723   0.048 -0.7543  0.0186 -0.4174
   93SOL    HW1  278   3.007   2.723  -0.044  0.0209 -2.1332  0.8210
   93SOL    HW2  279   3.098   2.628   0.076 -0.6226  0.9925 -1.0738
   94SOL     OW  280   1.501   1.469   1.817 -0.6921 -0.1036 -0.6356
   94SOL    HW1  281   1.582   1.402   1.804  0.1018  0.6029  2.5931
   94SOL    HW2  282   1.532   1.557   1.855  2.1588 -2.4707 -0.0711
   95SOL     OW  283   1.485   2.507   2.966  0.0515  0.2279 -0.1594
   95SOL    HW1  284   1.426   2.550   3.039  1.6229 -0.1782 -0.8974
   95SOL    HW2  285   1.441   2.418   2.926 -2.4251 -1.4344 -1.8617
   96SOL     OW  286   0.559   2.095   1.301 -0.2629  0.2034 -0.0882
   96SOL    HW1  287   0.521   2.062   1.209  2.6733  1.2457 -1.3397
   96SOL    HW2  288   0.634   2.034   1.340 -0.0000 -1.1381  0.4893
   97SOL     OW  289   0.308   1.624   2.449  0.2089 -0.3590  0.2740
   97SOL    HW1  290   0.236   1.672   2.395 -0.4878  1.1209  0.9928
   97SOL    HW2  291   0.287   1.626   2.548 -0.1885 -0.9080 -2.2065
   98SOL     OW  292   2.097   1.597   1.202 -0.0783 -0.3239  0.4681
   98SOL    HW1  293   2.007   1.548   1.217 -1.3610 -0.6605  0.8220
   98SOL    HW2  294   2.153   1.545   1.136 -1.3566 -0.9943  0.4743
   99SOL     OW  295   2.553   2.068   1.293  0.0689  0.0900 -0.5202
   99SOL    HW1  296   2.632   2.082   1.355  0.0730  2.2353  0.7083
   99SOL    HW2  297   2.486   1.993   1.322  0.7106 -2.0273  0.9953
  100SOL     OW  298   2.296   0.412   2.078 -0.3107 -0.6105 -0.5742
  100SOL    HW1  299   2.236   0.387   2.155 -0.8037  3.2348  0.1146
  100SOL    HW2  300   2.390   0.439   2.111  1.7581  1.0284 -3.3288
  101SOL     OW  301   0.449   1.507   0.460  0.4463 -0.0086 -0.4000
  101SOL    HW1  302   0.445   1.595   0.518 -3.2120  1.8613 -1.5521
  101SOL    HW2  303   0.536   1.497   0.406 -0.1130  1.8684  2.5921
  102SOL     OW  304   2.268   1.078   0.831  0.3728  0.5125  0.3689
  102SOL    HW1  305   2.178   1.036   0.786  1.3043  0.9295  0.9888
  102SOL    HW2  306   2.342   1.089   0.759 -0.2056  1.4715 -0.6118
  103SOL     OW  307   2.219   0.115   0.383  0.0975  0.3233 -0.0067
  103SOL    HW1  308   2.276   0.120   0.298  2.8861  1.3475  1.6086
  103SOL    HW2  309   2.270   0.074   0.465  0.2563  0.0783 -1.0016
  104SOL     OW  310   0.074   1.865   2.118 -0.7206  0.7992  0.0867
  104SOL    HW1  311   0.106   1.831   2.023  1.0350  1.2563 -1.7868
  104SOL    HW2  312  -0.029   1.861   2.135  1.5381  0.3088 -1.6137
  105SOL     OW  313   1.276   2.116   0.799  0.0151  0.3565  0.3845
  105SOL    HW1  314   1.319   2.203   0.768 -1.9511 -0.4556 -0.1607
  105SOL    HW2  315   1.212   2.070   0.732  1.4425 -0.7238  0.6047
  106SOL     OW  316   2.131   0.351   1.414 -0.2264 -0.4199  0.7211
  106SOL    HW1  317   2.125   0.251   1.440  0.4398  1.6900  1.0264
  106SOL    HW2  318   2.130   0.412   1.498  0.3065 -1.7431 -0.5292
  107SOL     OW  319   1.912   2.942   1.233  0.2133 -0.0954  0.1745
  107SOL    HW1  320   1.844   3.020   1.245 -1.3794  2.1481 -1.6605
  107SOL    HW2  321   1.869   2.856   1.190 -0.7050 -2.2080 -0.4214
  108SOL     OW  322   0.819   2.806   1.254  0.3299  0.1299 -0.4920
  108SOL    HW1  323   0.856   2.718   1.300  3.3338  0.9994 -1.1358
  108SOL    HW2  324   0.900   2.858   1.211 -1.1939 -0.1752 -0.0280
  109SOL     OW  325   2.111   0.134   0.749  0.5161  0.0742 -0.2101
  109SOL    HW1  326   2.009   0.136   0.723 -0.0213 -0.1614  0.2082
  109SOL    HW2  327   2.126   0.111   0.849  0.1234  1.9790  0.8582
  110SOL     OW  328   0.464   2.799   2.764 -0.7751 -0.2046  0.2039
  110SOL    HW1  329   0.442   2.764   2.671 -1.2636  1.9638  1.2168
  110SOL    HW2  330   0.545   2.744   2.808  1.1283 -2.8067  1.0648
  111SOL     OW  331   1.256   0.464   2.338  0.5230 -0.3211 -0.4684
  111SOL    HW1  332   1.186   0.518   2.398 -2.2508 -0.2548  0.7953
  111SOL    HW2  333   1.332   0.425   2.394 -0.4997 -0.4762 -0.7811
  112SOL     OW  334   1.765   0.473   1.494  0.5115 -0.1970  0.0234
  112SOL    HW1  335   1.736   0.461   1.394 -2.3520 -0.9629 -0.6381
  112SOL    HW2  336   1.694   0.441   1.571 -1.2574  1.0156  1.7443
  113SOL     OW  337   2.374   1.623   1.736 -0.6865  0.2637 -0.3277
  113SOL    HW1  338   2.422   1.533   1.750 -2.6183  1.6518 -0.6135
  113SOL    HW2  339   2.391   1.685   1.811 -1.4648 -0.8156 -2.7529
  114SOL     OW  340   0.333   0.553   1.216  0.1678  0.5820 -0.7399
  114SOL    HW1  341   0.377   0.604   1.138  2.2118 -1.2007  2.4168
  114SOL    HW2  342   0.240   0.598   1.253 -0.8775  1.2123  2.3401
  115SOL     OW  343   2.760   1.616   1.269  0.1016 -0.0280  1.1363
  115SOL    HW1  344   2.716   1.526   1.275 -1.2247 -1.4064  0.5912
  115SOL    HW2  345   2.860   1.609   1.233  1.4572 -3.0250  2.3210
  116SOL     OW  346   1.818   1.039   0.627  0.2068  0.1115  0.3528
  116SOL    HW1  347   1.720   1.008   0.640  3.3499 -0.7480 -1.4600
  116SOL    HW2  348   1.828   1.133   0.670 -2.0019 -2.5504 -2.4494
  117SOL     OW  349   1.144   0.359   0.581 -0.3975 -0.4083  0.3435
  117SOL    HW1  350   1.210   0.438   0.590 -2.3458 -3.2260  1.1588
  117SOL    HW2  351   1.144   0.320   0.482 -0.0298 -0.4932 -3.1320
  118SOL     OW  352   1.069   1.184   1.134 -0.1596  0.2472  0.0027
  118SOL    HW1  353   1.045   1.119   1.207 -1.4842 -0.3173 -2.1869
  118SOL    HW2  354   1.090   1.277   1.168 -0.3885 -1.7065 -0.2540
  119SOL     OW  355   1.824   1.575   2.175  0.2410  0.2628  0.1878
  119SOL    HW1  356   1.799   1.675   2.185 -1.0469 -0.3787  2.3314
  119SOL    HW2  357   1.923   1.564   2.150  2.2196  1.6357  2.9594
  120SOL     OW  358   2.899   2.846   0.235 -0.3774  0.1183 -0.4112
  120SOL    HW1  359   2.976   2.826   0.168  1.5833 -2.4120  0.1891
  120SOL    HW2  360   2.813   2.781   0.221 -0.2033 -3.2194  0.6288
  121SOL     OW  361   1.908   0.716   2.214 -0.6122 -0.5567  0.0847
  121SOL    HW1  362   1.928   0.788   2.140 -0.1731  1.7135  1.6866
  121SOL    HW2  363   1.926   0.619   2.186 -0.1030 -0.4826 -2.3884
  122SOL     OW  364   2.658   2.569   1.327 -0.6536 -0.1216  0.0600
  122SOL    HW1  365   2.667   2.527   1.230 -1.6609 -0.8082 -1.7189
  122SOL    HW2  366   2.636   2.495   1.393  0.6001 -3.5569 -1.6059
  123SOL     OW  367   1.728   0.055   1.700 -0.2135  0.6027 -0.2265
  123SOL    HW1  368   1.774  -0.025   1.650 -0.3008  1.8653 -0.8534
  123SOL    HW2  369   1.794   0.108   1.749 -1.5595 -0.3238  3.0761
  124SOL     OW  370   0.019   0.440   1.083 -0.6603 -0.5206 -0.4818
  124SOL    HW1  371   0.028   0.507   1.158 -1.9997  1.3268 -0.5183
  124SOL    HW2  372   0.033   0.481   0.986 -0.1655 -0.5462 -0.1499
  125SOL     OW  373   0.908   1.912   0.748  0.1621  0.7944  0.0606
  125SOL    HW1  374   0.990   1.849   0.756 -0.0421 -1.1438  0.0498
  125SOL    HW2  375   0.824   1.876   0.804 -0.5399  1.0287  0.0323
  126SOL     OW  376   1.842   2.281   2.409  0.4530 -0.2764 -0.2311
  126SOL    HW1  377   1.929   2.260   2.354  2.0869  2.7481 -0.7831
  126SOL    HW2  378   1.782   2.201   2.432  0.6897  2.0380  1.6082
  127SOL     OW  379   0.923   0.955   0.179 -0.0797  0.0057  0.3451
  127SOL    HW1  380   0.937   0.998   0.274 -1.1819 -0.5337  1.0360
  127SOL    HW2  381   0.899   0.853   0.189 -0.2425  2.4179 -0.4385
  128SOL     OW  382   0.916   0.275   1.416  0.4969  0.6937  0.5092
  128SOL    HW1  383   0.901   0.357   1.352  0.6232 -1.0955 -0.6526
  128SOL    HW2  384   0.862   0.182   1.392  1.3678 -2.2974  0.9390
  129SOL     OW  385   1.859   0.672   1.860 -0.1113  0.2107 -0.3948
  129SOL    HW1  386   1.879   0.694   1.759 -0.6683 -1.0065  2.2371
  129SOL    HW2  387   1.897   0.744   1.922 -0.9769 -1.3547 -1.7712
  130SOL     OW  388   1.424   2.155   1.027  0.2593  0.4174 -0.2386
  130SOL    HW1  389   1.357   2.119   0.952 -0.5502 -1.2681 -2.0524
  130SOL    HW2  390   1.489   2.228   0.985 -0.2908 -0.6380 -2.7418
  131SOL     OW  391   3.028   1.342   1.385 -0.2227 -0.2753 -0.2714
  131SOL    HW1  392   2.971   1.263   1.430  0.8875 -3.6761  1.6603
  131SOL    HW2  393   3.133   1.332   1.380  1.6323 -0.3656  0.6174
  132SOL     OW  394   2.033   2.418   0.461 -0.3666  0.0481  0.0425
  132SOL    HW1  395   1.935   2.459   0.464  1.8196 -0.4652  0.9847
  132SOL    HW2  396   2.039   2.326   0.508 -0.9659 -3.1969 -1.7812
  133SOL     OW  397   1.752   2.349   2.722 -0.2869  0.3303 -0.3604
  133SOL    HW1  398   1.659   2.357   2.672 -1.0835  1.0668  0.0488
  133SOL    HW2  399   1.822   2.418   2.681  0.4803  0.5264  0.8543
  134SOL     OW  400   2.678   2.277   1.598 -0.2418  0.5494  0.0158
  134SOL    HW1  401   2.599   2.311   1.656  0.5968  0.9530  0.5171
  134SOL    HW2  402   2.759   2.342   1.593  0.2475  0.0284  3.2009
  135SOL     OW  403   0.724   1.472   2.669 -0.0597  0.4034 -0.2798
  135SOL    HW1  404   0.708   1.379   2.711  2.1953  0.1818 -0.7568
  135SOL    HW2  405   0.722   1.461   2.568 -1.6745 -2.1085 -0.9037
  136SOL     OW  406   1.229   2.029   0.490  0.0384 -0.0811  0.0892
  136SOL    HW1  407   1.163   2.112   0.502  3.2049  1.5231 -0.1940
  136SOL    HW2  408   1.181   1.943   0.457 -2.1985  1.2900 -1.1066
  137SOL     OW  409   0.427   1.199   2.247 -0.1007 -0.1499  0.1512
  137SOL    HW1  410   0.337   1.162   2.225  0.5306  2.0845 -3.4945
  137SOL    HW2  411   0.506   1.130   2.262  0.8404  2.0076 -3.3272
  138SOL     OW  412   2.507   1.500   0.268 -0.0026 -0.3635  0.1052
  138SOL    HW1  413   2.416   1.455   0.272 -0.2679  0.2441  0.5378
  138SOL    HW2  414   2.582   1.447   0.310  0.6790  2.1204  2.1664
  139SOL     OW  415   1.913   2.617   1.473 -0.0698 -0.2808  1.2548
  139SOL    HW1  416   1.818   2.657   1.448 -1.8734 -0.2573  1.7513
  139SOL    HW2  417   1.915   2.514   1.441  0.2236 -0.5534 -1.5211
  140SOL     OW  418   3.021   2.990   2.543 -0.1598 -0.3528  0.1288
  140SOL    HW1  419   3.079   2.906   2.569 -1.8916  2.0682 -0.5137
  140SOL    HW2  420   3.079   3.074   2.515 -1.3674 -1.6615  1.0596
  141SOL     OW  421   1.312   1.703   1.648  0.2792  0.1634 -0.1031
  141SOL    HW1  422   1.235   1.773   1.641 -0.0395 -1.0067 -1.0654
  141SOL    HW2  423   1.294   1.625   1.715 -1.3380 -1.4108 -1.7597
  142SOL     OW  424   1.544   0.581   2.245 -0.2398  0.0139  0.2387
  142SOL    HW1  425   1.577   0.565   2.148 -1.9109 -1.7500  1.7138
  142SOL    HW2  426   1.445   0.560   2.254  0.0042 -1.8898 -2.5049
  143SOL     OW  427   2.777   0.904   0.506  0.2806 -0.0772 -0.1131
  143SOL    HW1  428   2.815   0.952   0.423 -0.5965 -0.9486  0.2240
  143SOL    HW2  429   2.838   0.921   0.582  1.2330 -0.2052 -3.0392
  144SOL     OW  430   2.899   1.151   1.514  0.2520 -0.2952 -0.0893
  144SOL    HW1  431   2.852   1.147   1.608  2.4703 -0.0713 -0.1617
  144SOL    HW2  432   2.959   1.064   1.494 -0.8112 -2.4403 -0.3530
  145SOL     OW  433   1.015   1.799   0.114 -0.3746  0.1284 -0.0719
  145SOL    HW1  434   1.056   1.834   0.023 -1.5117  1.4946 -1.5074
  145SOL    HW2  435   0.950   1.716   0.106  2.5007 -1.4900  1.5641
  146SOL     OW  436   2.446   0.661   1.503 -0.3220  0.0940 -0.5844
  146SOL    HW1  437   2.424   0.579   1.444  1.3955  0.9880  1.5002
  146SOL    HW2  438   2.399   0.748   1.468 -1.3043 -3.6949 -1.4344
  147SOL     OW  439   1.090   2.568   0.603 -0.5523 -0.4025 -0.9792
  147SOL    HW1  440   1.030   2.607   0.527  1.1725 -0.0561 -2.0481
  147SOL    HW2  441   1.175   2.517   0.573 -3.3637  1.3900  0.7484
  148SOL     OW  442   1.628   1.440   0.010 -0.1970  0.0852 -0.0132
  148SOL    HW1  443   1.599   1.371  -0.061  1.4148  0.2056  0.5708
  148SOL    HW2  444   1.602   1.410   0.108  0.0093 -2.1300 -0.5728
  149SOL     OW  445   0.641   1.467   1.925 -0.5594 -0.3255  0.3391
  149SOL    HW1  446   0.549   1.419   1.936 -1.1528 -1.3365 -0.0304
  149SOL    HW2  447   0.708   1.418   1.856  2.1748  1.7318 -2.1212
  150SOL     OW  448   3.017   1.229   0.992 -0.3344  0.0900  0.1946
  150SOL    HW1  449   3.110   1.233   1.036 -0.1825 -0.0780  0.0931
  150SOL    HW2  450   2.994   1.128   0.993  1.0272  1.0164 -0.0889
  151SOL     OW  451   0.177   0.715   2.094  0.5766  0.6595 -0.5035
  151SOL    HW1  452   0.197   0.786   2.019  1.9614  0.7749 -1.6331
  151SOL    HW2  453   0.230   0.627   2.077 -0.2682 -0.4974 -0.8477
  152SOL     OW  454   1.464   1.784   1.162  0.3467  0.3539  0.1433
  152SOL    HW1  455   1.490   1.876   1.195  0.1527 -3.0582 -0.2382
  152SOL    HW2  456   1.365   1.775   1.128 -0.4835 -0.2927 -1.0159
  153SOL     OW  457   0.163   1.549   0.224  0.3110 -0.4605  0.1201
  153SOL    HW1  458   0.115   1.455   0.209  0.6787 -1.8679 -0.0327
  153SOL    HW2  459   0.148   1.586   0.321  0.2513  0.2377  2.0917
  154SOL     OW  460   2.363   1.910   2.836  0.1301 -0.1141 -0.4854
  154SOL    HW1  461   2.411   1.814   2.839 -0.8111  0.6313  0.4396
  154SOL    HW2  462   2.404   1.971   2.764  0.0494  0.0574  0.3289
  155SOL     OW  463   2.524   1.147   0.405 -0.1754  0.7932  0.2123
  155SOL    HW1  464   2.573   1.163   0.314  1.2214 -0.2077  0.6934
  155SOL    HW2  465   2.437   1.095   0.397  2.0346  2.4313  1.5589
  156SOL     OW  466   2.470   0.838   0.741 -0.0411 -0.1823 -0.3563
  156SOL    HW1  467   2.378   0.882   0.740  1.3474 -1.3616 -0.6685
  156SOL    HW2  468   2.548   0.892   0.699  2.1758 -0.2710  1.4647
  157SOL     OW  469   1.229   3.003   2.990  0.0814  0.3223  0.0615
  157SOL    HW1  470   1.304   2.954   2.931  3.6032 -0.8370 -0.8597
  157SOL    HW2  471   1.244   3.105   2.999 -1.4169 -1.6643 -0.2900
  158SOL     OW  472   0.980   1.862   1.860 -0.1410 -0.0230 -0.6732
  158SOL    HW1  473   0.995   1.956   1.817 -0.3826 -0.1403 -2.0296
  158SOL    HW2  474   0.894   1.866   1.918 -0.8973  0.0812 -0.8624
  159SOL     OW  475   0.880   0.447   1.197 -0.4779 -0.2629  0.0957
  159SOL    HW1  476   0.814   0.522   1.246 -2.7219 -0.3307  0.8015
  159SOL    HW2  477   0.832   0.373   1.143  0.9146  0.1008  0.7125
  160SOL     OW  478   1.365   2.452   1.567 -0.2056 -0.1876 -0.2419
  160SOL    HW1  479   1.333   2.369   1.625 -1.8862 -0.6901  1.2498
  160SOL    HW2  480   1.468   2.480   1.574  1.3149 -1.3781 -1.0543
  161SOL     OW  481   3.077   2.844   0.459 -0.6028 -1.4734  0.0088
  161SOL    HW1  482   3.064   2.780   0.535  0.6220  1.3460  2.1977
  161SOL    HW2  483   3.022   2.819   0.378 -1.5746 -2.0189 -1.4891
  162SOL     OW  484   2.579   1.830   0.487 -0.3491 -0.1151 -0.3690
  162SOL    HW1  485   2.565   1.802   0.388 -0.5941 -1.9275  1.5060
  162SOL    HW2  486   2.648   1.763   0.528 -0.6093  1.5590 -1.8020
  163SOL     OW  487   1.967   2.710   0.724 -0.2545 -0.5745 -0.1024
  163SOL    HW1  488   1.949   2.747   0.629  0.5001  2.5582  2.2829
  163SOL    HW2  489   2.043   2.636   0.730  1.1085 -0.8951  0.4177
  164SOL     OW  490   3.073   0.214   1.279  0.1813  0.9948 -0.0190
  164SOL    HW1  491   3.096   0.299   1.216  3.4604  3.5633 -1.4377
  164SOL    HW2  492   3.143   0.212   1.360  0.7966 -0.5121  2.9957
  165SOL     OW  493   1.031   1.404   0.741  0.4604  0.2017 -0.7320
  165SOL    HW1  494   1.058   1.431   0.836  1.5351  0.0755 -0.4840
  165SOL    HW2  495   0.992   1.478   0.676 -1.8806 -0.0956  2.2141
  166SOL     OW  496   1.597   1.006   1.799 -0.1740  0.1864 -0.3385
  166SOL    HW1  497   1.498   1.024   1.832 -0.4982 -2.3025 -1.2346
  166SOL    HW2  498   1.664   1.087   1.807 -0.1118 -1.4939 -1.4015
  167SOL     OW  499   0.740   1.973   1.454 -0.0155 -0.0458 -0.5352
  167SOL    HW1  500   0.768   2.030   1.537  0.1789 -0.1014  2.3279
  167SOL    HW2  501   0.707   1.873   1.480 -2.2974 -3.1000 -0.5910
  168SOL     OW  502   1.607   2.343   0.181  0.1777 -0.3179  0.6804
  168SOL    HW1  503   1.681   2.346   0.106 -1.0604  1.9652 -2.3118
  168SOL    HW2  504   1.637   2.293   0.269 -1.5748 -0.0129  1.8097
  169SOL     OW  505   0.182   2.564   2.240 -0.2215 -0.1933  0.3553
  169SOL    HW1  506   0.219   2.489   2.178 -1.7095 -0.7486 -3.2333
  169SOL    HW2  507   0.196   2.551   2.341 -1.0957  0.8980 -0.6846
  170SOL     OW  508   1.106   0.250   2.009 -0.1681  0.3548  0.0077
  170SOL    HW1  509   1.173   0.220   2.081 -0.9367 -1.8410 -1.0112
  170SOL    HW2  510   1.124   0.198   1.920 -0.6567  1.9098  3.5604
  171SOL     OW  511   0.178   0.800   2.371  0.4333  0.2686  0.0076
  171SOL    HW1  512   0.096   0.826   2.425  0.6320 -1.9358 -0.1760
  171SOL    HW2  513   0.155   0.775   2.274  0.1203  1.4977  3.4303
  172SOL     OW  514   0.992   0.984   2.892  0.8650  0.2355  0.3738
  172SOL    HW1  515   0.955   1.063   2.949  0.1964  0.1579  1.5595
  172SOL    HW2  516   0.918   0.931   2.840 -1.1804 -2.5510  0.5881
  173SOL     OW  517   0.546   2.511   0.116 -0.1537 -0.4860  0.1062
  173SOL    HW1  518   0.529   2.419   0.069 -3.2997 -1.0623  0.9377
  173SOL    HW2  519   0.452   2.560   0.129 -2.8896 -2.5968 -2.3339
  174SOL     OW  520   1.514   2.814   1.028 -0.3838  0.5342  0.3658
  174SOL    HW1  521   1.551   2.889   0.971  0.0515  1.5609  1.0473
  174SOL    HW2  522   1.458   2.737   0.975 -1.7378 -0.4424  1.2660
  175SOL     OW  523   0.470   3.046   1.711 -0.5381 -0.5445 -0.5665
  175SOL    HW1  524   0.523   2.997   1.788  0.9957 -1.2231 -0.0038
  175SOL    HW2  525   0.444   3.145   1.735 -0.7596  0.5921  1.3579
  176SOL     OW  526   2.545   0.380   0.016  0.3507 -0.0599 -0.2829
  176SOL    HW1  527   2.558   0.464   0.069 -1.9742 -0.9158 -0.4047
  176SOL    HW2  528   2.474   0.317   0.054  2.7899  1.5068 -0.8945
  177SOL     OW  529   0.299   0.303   0.938 -0.3610 -0.6236  0.1494
  177SOL    HW1  530   0.305   0.198   0.934  4.6545 -0.9841 -0.2512
  177SOL    HW2  531   0.226   0.343   0.999  1.6257 -0.3239  1.3443
  178SOL     OW  532   0.033   2.730   2.605 -0.3363 -0.1901  0.4555
  178SOL    HW1  533  -0.004   2.638   2.575 -0.0696 -1.6572 -1.3308
  178SOL    HW2  534   0.101   2.725   2.681  0.7492  0.5234 -2.3394
  179SOL     OW  535   3.025   1.569   1.156  0.2780 -0.3548 -0.1359
  179SOL    HW1  536   3.066   1.540   1.063  2.0108 -1.2026 -0.5248
  179SOL    HW2  537   3.064   1.518   1.235  0.9541  1.5254 -0.1187
  180SOL     OW  538   0.194   1.302   1.799  0.3767  0.1410 -0.1264
  180SOL    HW1  539   0.276   1.247   1.838  0.6920  0.8716  1.1686
  180SOL    HW2  540   0.171   1.376   1.865  0.9744 -4.1430 -0.6367
  181SOL     OW  541   3.054   1.921   2.496 -0.5472  0.2157  1.0330
  181SOL    HW1  542   3.120   1.996   2.464 -1.2054 -2.9924 -0.2320
  181SOL    HW2  543   2.975   1.906   2.430  2.3490  0.3963 -2.6243
  182SOL     OW  544   2.340   1.220   1.227 -0.2634 -0.1913  0.1350
  182SOL    HW1  545   2.271   1.170   1.173 -1.7655  1.9188  3.1269
  182SOL    HW2  546   2.338   1.319   1.194  1.6284  2.8323 -1.2884
  183SOL     OW  547   1.419   2.251   2.539  0.2700 -0.2997 -0.1829
  183SOL    HW1  548   1.343   2.206   2.595 -1.3105 -2.2570  0.5986
  183SOL    HW2  549   1.485   2.189   2.487 -0.9091  1.0336  1.2156
  184SOL     OW  550   2.053   0.945   0.730  0.4409 -0.5877 -0.2647
  184SOL    HW1  551   1.958   0.977   0.691  2.0831  2.3191  2.4593
  184SOL    HW2  552   2.070   0.843   0.725  0.7899  0.6349  0.9671
  185SOL     OW  553   1.574   2.734   1.961 -0.0431  0.0184  0.5281
  185SOL    HW1  554   1.492   2.797   1.962 -0.7293 -0.4026  1.4105
  185SOL    HW2  555   1.622   2.734   2.052 -0.2206 -0.1157 -0.7907
  186SOL     OW  556   0.102   2.210   1.632 -0.4236  0.2038 -0.2377
  186SOL    HW1  557   0.076   2.267   1.715  2.6781 -3.1277 -1.0456
  186SOL    HW2  558   0.188   2.150   1.647  0.2788 -0.6405  0.1869
  187SOL     OW  559   1.390   0.638   1.656  0.5624 -0.2672  0.3136
  187SOL    HW1  560   1.476   0.685   1.634 -2.7252 -2.0446 -1.9047
  187SOL    HW2  561   1.393   0.578   1.739 -1.0164 -2.3433 -1.8806
  188SOL     OW  562   2.841   2.759   1.475  0.5221  0.0222  0.6219
  188SOL    HW1  563   2.820   2.860   1.456  2.8559 -2.8583 -0.3785
  188SOL    HW2  564   2.782   2.703   1.409 -0.9193 -1.0399  0.9071
  189SOL     OW  565   0.872   1.217   1.428 -0.3053  0.2292 -0.2311
  189SOL    HW1  566   0.938   1.254   1.501  0.2625 -2.3395 -1.0631
  189SOL    HW2  567   0.802   1.286   1.392 -5.2483 -3.4049  1.3721
  190SOL     OW  568   1.473   1.915   1.591  0.0284 -0.3140 -0.3881
  190SOL    HW1  569   1.426   1.822   1.587  2.7165  0.4082 -3.5843
  190SOL    HW2  570   1.488   1.955   1.690  0.8692 -1.3502  1.4237
  191SOL     OW  571   0.925   0.762   1.495  0.0756  0.2173  0.1030
  191SOL    HW1  572   0.987   0.726   1.569  1.8793  0.1163 -0.7205
  191SOL    HW2  573   0.982   0.822   1.431  3.3930  0.3673 -0.5500
  192SOL     OW  574   1.836   2.353   1.116 -0.0838  0.5574  0.0867
  192SOL    HW1  575   1.747   2.354   1.064  0.7696  0.8880 -0.1544
  192SOL    HW2  576   1.926   2.348   1.058  0.4051  1.5145 -2.2895
  193SOL     OW  577   0.510   0.501   0.412  0.3049 -0.1316 -0.4531
  193SOL    HW1  578   0.443   0.423   0.417  0.9821  1.8104  0.5478
  193SOL    HW2  579   0.576   0.495   0.332  2.6456 -1.8474 -2.5876
  194SOL     OW  580   0.344   0.912   1.321 -0.4494  0.0331  0.0101
  194SOL    HW1  581   0.284   0.828   1.330 -1.7349  0.0360  0.2157
  194SOL    HW2  582   0.330   0.963   1.235  1.1649 -2.0865 -0.9457
  195SOL     OW  583   1.009   2.905   0.542  0.2996 -0.1106 -0.5058
  195SOL    HW1  584   0.987   2.817   0.488 -4.0157  0.4576  0.5732
  195SOL    HW2  585   1.107   2.934   0.511 -1.4050 -0.1321 -1.7569
  196SOL     OW  586   0.195   1.366   1.361  0.0258 -0.3396 -0.3075
  196SOL    HW1  587   0.236   1.462   1.378  2.3809 -0.1606  0.4329
  196SOL    HW2  588   0.205   1.300   1.442 -0.4208 -1.7694 -1.8586
  197SOL     OW  589   0.812   2.031   0.249 -0.0848 -0.4192  0.1143
  197SOL    HW1  590   0.869   2.004   0.327  0.3931  2.7039  1.8007
  197SOL    HW2  591   0.809   1.954   0.181 -0.0087 -0.6716  0.6614
  198SOL     OW  592   0.340   1.262   0.351  0.3219 -0.2291 -0.2568
  198SOL    HW1  593   0.250   1.277   0.308  1.4054 -2.6045  0.0202
  198SOL    HW2  594   0.369   1.344   0.405  1.0191  1.0723 -0.0336
  199SOL     OW  595   2.291   0.444   2.588  0.2468  0.3080  0.0827
  199SOL    HW1  596   2.210   0.399   2.648 -2.3478 -0.3834  0.0868
  199SOL    HW2  597   2.386   0.402   2.604  2.2232  1.0654  1.6723
  200SOL     OW  598   3.082   2.969   0.734  0.3947  0.4655 -0.2858
  200SOL    HW1  599   3.093   3.054   0.790  0.0156  0.9991  1.5985
  200SOL    HW2  600   3.003   2.975   0.668 -2.9729  3.2284  0.6850
  201SOL     OW  601   1.013   0.689   0.526 -0.6529  0.0210  0.0050
  201SOL    HW1  602   1.015   0.757   0.606  1.1012  2.6675  0.5472
  201SOL    HW2  603   0.934   0.621   0.529  2.1617  0.5816 -3.2998
  202SOL     OW  604   0.419   1.155   1.910  0.5714  0.8193 -0.7659
  202SOL    HW1  605   0.511   1.121   1.889 -0.7815 -2.0899 -1.1805
  202SOL    HW2  606   0.424   1.235   1.974 -1.6185 -0.5172 -0.4458
  203SOL     OW  607   0.618   0.185   1.500 -0.7196 -0.4758  0.5630
  203SOL    HW1  608   0.675   0.137   1.427  1.4969  1.1096 -1.2645
  203SOL    HW2  609   0.668   0.166   1.590  1.2688  2.3147  2.1788
  204SOL     OW  610   2.109   1.812   2.933  0.2747  0.1664  0.7364
  204SOL    HW1  611   2.094   1.714   2.898  1.2414 -0.3125 -2.7522
  204SOL    HW2  612   2.200   1.856   2.891 -0.1768 -2.2046 -2.0869
  205SOL     OW  613   1.843   1.827   3.042 -0.2420  0.2466 -0.1608
  205SOL    HW1  614   1.935   1.816   2.997  0.4647  2.5911 -0.5664
  205SOL    HW2  615   1.798   1.917   3.010 -0.4020  0.8964 -0.2624
  206SOL     OW  616   2.413   2.813   0.356 -0.0007  0.1888  0.1934
  206SOL    HW1  617   2.464   2.730   0.397  0.0003  1.2831  1.6818
  206SOL    HW2  618   2.476   2.889   0.327 -1.7090 -1.4333  1.0669
  207SOL     OW  619   0.684   1.794   2.949  0.0172 -0.5662  0.1607
  207SOL    HW1  620   0.773   1.762   2.903 -0.7018 -0.6838 -1.4572
  207SOL    HW2  621   0.650   1.722   3.021  1.8300  0.4749  3.7647
  208SOL     OW  622   1.167   1.645   1.347  0.0324  0.4131 -0.4978
  208SOL    HW1  623   1.179   1.701   1.259  0.8505  2.6896 -0.3256
  208SOL    HW2  624   1.127   1.700   1.426  0.8130 -1.3223  0.2805
  209SOL     OW  625   0.258   0.956   3.082  0.1462  0.0800  0.3141
  209SOL    HW1  626   0.225   0.881   3.020  1.3706  1.0628  1.1283
  209SOL    HW2  627   0.241   0.938   3.180 -0.1971  1.6251 -1.2048
  210SOL     OW  628   1.702   0.501   1.189 -0.2548  0.1186  0.4576
  210SOL    HW1  629   1.671   0.601   1.169 -2.4895 -2.1385  0.4037
  210SOL    HW2  630   1.804   0.486   1.174  0.5330 -3.0906  1.1143
  211SOL     OW  631   2.091   1.007   1.596 -0.0568 -0.4158 -0.1831
  211SOL    HW1  632   2.103   0.945   1.675 -1.9780  0.9121  0.0285
  211SOL    HW2  633   2.176   1.056   1.563 -1.0261 -0.9492  1.8632
  212SOL     OW  634  -0.002   0.986   1.517 -0.1451  0.2533  0.1791
  212SOL    HW1  635   0.049   1.074   1.541  0.5628  0.5789  0.6980
  212SOL    HW2  636   0.041   0.903   1.565  0.8394 -0.5364 -1.1589
  213SOL     OW  637   2.715   0.158   0.373 -0.7635 -0.1357 -0.1961
  213SOL    HW1  638   2.782   0.106   0.320  0.2096 -2.6041 -2.2200
  213SOL    HW2  639   2.619   0.132   0.358  1.7648  0.5709 -2.0331
  214SOL     OW  640   2.195   0.321   2.330 -0.1542  0.1794  0.7590
  214SOL    HW1  641   2.204   0.383   2.411 -1.2309 -1.3384 -0.1566
  214SOL    HW2  642   2.204   0.220   2.352  2.0985 -1.3164 -3.3000
  215SOL     OW  643   1.627   2.283   2.092  0.0056 -0.7391  0.3032
  215SOL    HW1  644   1.728   2.300   2.077 -0.9163  0.9472 -1.4709
  215SOL    HW2  645   1.579   2.368   2.126 -0.0459 -2.8619 -0.5820
  216SOL     OW  646   2.231   0.632   0.675  0.1633 -0.3805  0.3734
  216SOL    HW1  647   2.178   0.551   0.628  2.0913 -1.2350 -0.0294
  216SOL    HW2  648   2.252   0.706   0.603  3.2131  1.1229  1.0955
  217SOL     OW  649   0.782   2.794   2.445  0.4076  0.3455  0.2511
  217SOL    HW1  650   0.735   2.719   2.500 -2.3169  3.6571 -1.4846
  217SOL    HW2  651   0.745   2.805   2.348  0.8686 -0.0174 -0.6181
  218SOL     OW  652   1.901   1.451   0.046  0.6247  0.5984  0.3448
  218SOL    HW1  653   1.809   1.448  -0.004 -0.5055 -1.0903 -1.2905
  218SOL    HW2  654   1.906   1.380   0.128 -0.6994 -1.7555  1.1872
  219SOL     OW  655   2.447   1.298   2.506 -0.0554 -0.1709 -0.4627
  219SOL    HW1  656   2.508   1.276   2.429  0.3733 -0.3735  2.2375
  219SOL    HW2  657   2.461   1.225   2.578  0.6639  1.6552  0.2187
  220SOL     OW  658   1.450   1.023   1.326 -0.2302 -0.3750  0.1955
  220SOL    HW1  659   1.553   1.000   1.329  1.4243 -3.7267 -0.2229
  220SOL    HW2  660   1.428   1.072   1.236  0.4639 -0.8683 -0.7985
  221SOL     OW  661   1.281   0.996   2.178  0.4607  0.1259  0.0715
  221SOL    HW1  662   1.246   1.003   2.080 -1.0778  3.2945  0.3132
  221SOL    HW2  663   1.382   1.017   2.182 -1.8914 -1.6372  1.2697
  222SOL     OW  664   1.135   0.103   1.200  0.2018  0.0386  0.1952
  222SOL    HW1  665   1.057   0.133   1.263 -2.3299  0.9967 -0.9627
  222SOL    HW2  666   1.168   0.175   1.131 -1.3053 -0.0869 -0.0980
  223SOL     OW  667   2.706   0.937   2.140  0.0809  0.3264  0.1967
  223SOL    HW1  668   2.676   1.022   2.193  1.4339  1.6496 -0.0236
  223SOL    HW2  669   2.796   0.903   2.179 -0.2515  1.0988 -1.2712
  224SOL     OW  670   1.497   1.072   2.727 -0.4542  0.1167 -0.3216
  224SOL    HW1  671   1.556   0.999   2.690 -1.5641  0.2013  0.2160
  224SOL    HW2  672   1.446   1.126   2.647  1.4209 -2.3479 -1.2656
  225SOL     OW  673   2.971   2.712   2.887  0.0153 -0.2907  0.5207
  225SOL    HW1  674   2.907   2.699   2.813 -0.9461 -0.2130  1.6393
  225SOL    HW2  675   3.064   2.743   2.856 -2.5229  1.2454 -1.3997
  226SOL     OW  676   2.432   1.630   2.887 -1.1241  0.2614 -0.2222
  226SOL    HW1  677   2.423   1.621   2.781  0.9289 -1.7447 -4.3848
  226SOL    HW2  678   2.385   1.560   2.943  0.0671  0.3586 -1.5096
  227SOL     OW  679   0.829   0.191   3.082  0.0103  0.1980 -0.6393
  227SOL    HW1  680   0.862   0.285   3.053  1.3353  2.7764  0.9361
  227SOL    HW2  681   0.791   0.134   3.003 -0.0442 -1.8500 -2.6498
  228SOL     OW  682   2.451   0.571   2.866  0.4975 -0.2041 -0.2936
  228SOL    HW1  683   2.454   0.627   2.781 -0.3783  3.3847 -1.9575
  228SOL    HW2  684   2.525   0.502   2.870  0.3338  1.5254 -0.1405
  229SOL     OW  685   0.568   0.487   1.813  0.5199 -0.9526 -0.2109
  229SOL    HW1  686   0.574   0.388   1.841 -2.7581  0.5352  1.0592
  229SOL    HW2  687   0.619   0.499   1.722 -0.5163  0.4334 -2.5509
  230SOL     OW  688   1.925   1.163   2.063 -0.3154  0.2238 -0.8281
  230SOL    HW1  689   1.980   1.243   2.020  0.6413  2.5858  0.7611
  230SOL    HW2  690   1.837   1.198   2.107  0.2409 -1.0170  1.0936
  231SOL     OW  691   0.624   1.045   0.027 -0.3735  0.1488 -0.4902
  231SOL    HW1  692   0.713   1.089   0.036 -1.2247 -1.0734  0.3635
  231SOL    HW2  693   0.543   1.114   0.028 -1.1867 -1.0596  0.8097
  232SOL     OW  694   2.443   3.073   2.868 -0.3111 -0.4987 -0.0559
  232SOL    HW1  695   2.484   2.978   2.887 -0.6909 -1.4617 -0.5096
  232SOL    HW2  696   2.495   3.130   2.795 -0.5645  3.0436 -0.1998
  233SOL     OW  697   1.770   1.210   1.142  0.6519  0.2179  0.3560
  233SOL    HW1  698   1.813   1.161   1.060  0.9703  0.5224  0.3477
  233SOL    HW2  699   1.768   1.151   1.226  2.3255  3.1184  0.1185
  234SOL     OW  700   1.590   2.475   1.837  0.1490 -0.1606 -0.0600
  234SOL    HW1  701   1.578   2.573   1.873  1.9409 -1.7174  1.4434
  234SOL    HW2  702   1.549   2.401   1.892 -0.2745  0.2816 -0.7537
  235SOL     OW  703   3.097   3.037   2.804  0.7847 -0.0820  0.3716
  235SOL    HW1  704   3.047   3.028   2.713 -0.6418  1.1095 -1.6073
  235SOL    HW2  705   3.035   3.084   2.878 -2.0864 -1.0931  0.2009
  236SOL     OW  706   2.875   0.744   0.052  0.0201  0.0661 -0.2093
  236SOL    HW1  707   2.947   0.774   0.122  1.0723 -0.5484  2.4761
  236SOL    HW2  708   2.896   0.645   0.015  0.3569  0.9593 -0.8820
  237SOL     OW  709   1.557   1.631   0.967 -0.3937 -0.0316 -0.1959
  237SOL    HW1  710   1.657   1.616   0.948 -2.2901 -1.7321  2.3050
  237SOL    HW2  711   1.542   1.701   1.046  2.1679  2.4062 -0.5534
  238SOL     OW  712   1.831   1.254   0.781  1.1521  0.4051 -0.4368
  238SOL    HW1  713   1.876   1.278   0.874  0.9003 -0.3056 -0.7925
  238SOL    HW2  714   1.750   1.311   0.755  0.2424  2.8917  3.9703
  239SOL     OW  715   2.112   0.291   2.744 -0.1390 -0.2201 -0.4473
  239SOL    HW1  716   2.124   0.235   2.827 -0.4655 -1.7108  0.3748
  239SOL    HW2  717   2.032   0.357   2.758  1.2040  0.2971  1.5447
  240SOL     OW  718   0.935   0.686   0.249 -0.0836  0.0985 -0.6123
  240SOL    HW1  719   0.966   0.583   0.241 -0.2507 -1.7491 -0.9527
  240SOL    HW2  720   0.945   0.718   0.351  2.3457 -1.0896  1.7326
  241SOL     OW  721   0.606   0.046   0.392 -0.3230  0.3288 -0.1657
  241SOL    HW1  722   0.631   0.123   0.324  3.4060  1.3762  1.2816
  241SOL    HW2  723   0.615  -0.043   0.346  0.9914  2.2555  0.4295
  242SOL     OW  724   0.595   2.482   1.150  0.0214  0.3734 -0.2536
  242SOL    HW1  725   0.574   2.484   1.253 -1.2455  0.0221 -1.6164
  242SOL    HW2  726   0.600   2.572   1.101  0.5241  0.3039  0.4430
  243SOL     OW  727   1.068   0.604   2.486 -0.2103  0.3745  0.0546
  243SOL    HW1  728   0.989   0.642   2.430 -1.4309 -2.0118  1.0855
  243SOL    HW2  729   1.039   0.545   2.569 -1.2833  0.6957  0.1568
  244SOL     OW  730   2.836   1.862   2.351 -1.0056 -0.1135  0.3556
  244SOL    HW1  731   2.822   1.872   2.249  0.6444 -1.5529  1.8502
  244SOL    HW2  732   2.754   1.826   2.401  1.3327  1.6140 -3.0092
  245SOL     OW  733   2.205   0.879   2.136 -0.4579  0.6400  0.2178
  245SOL    HW1  734   2.281   0.888   2.211  0.4254 -1.4935 -0.3447
  245SOL    HW2  735   2.137   0.953   2.150  0.6131 -2.2477 -1.5585
  246SOL     OW  736   0.232   2.914   1.695  0.0476  0.3110 -0.3280
  246SOL    HW1  737   0.156   2.931   1.631  3.0976 -1.9761  0.4711
  246SOL    HW2  738   0.315   2.976   1.676 -0.4857 -2.3953  0.0446
  247SOL     OW  739   2.202   0.639   2.996 -0.2284  0.4480 -0.1980
  247SOL    HW1  740   2.278   0.619   2.930 -0.0392 -1.4453 -1.0044
  247SOL    HW2  741   2.161   0.727   2.966  0.6284 -1.5966 -2.3767
  248SOL     OW  742   2.182   1.830   1.579 -0.0076 -0.0547 -0.2406
  248SOL    HW1  743   2.248   1.774   1.639  1.0648 -0.0115 -0.4018
  248SOL    HW2  744   2.098   1.847   1.630 -0.2893  1.0764  0.4916
  249SOL     OW  745   1.898   1.967   1.921 -0.3061 -0.3436 -0.0974
  249SOL    HW1  746   1.896   1.887   1.854  1.5238 -1.8145  1.9112
  249SOL    HW2  747   1.991   2.012   1.914  1.8694 -0.3541 -0.3190
  250SOL     OW  748   1.080   0.681   1.874  0.1601 -0.2488  0.3322
  250SOL    HW1  749   1.113   0.629   1.958 -0.1609 -0.0206 -2.0483
  250SOL    HW2  750   1.101   0.636   1.785 -0.9090  0.0250  1.6544
  251SOL     OW  751   3.104   1.651   2.543 -0.8890  0.6147 -0.2321
  251SOL    HW1  752   3.101   1.753   2.524  1.3058  1.7522  0.6656
  251SOL    HW2  753   3.015   1.600   2.554  0.5909  0.6189 -1.5225
  252SOL     OW  754   1.613   0.800   1.630 -0.1373 -0.2391  1.0609
  252SOL    HW1  755   1.690   0.800   1.568  0.2169 -0.1180  1.7466
  252SOL    HW2  756   1.602   0.885   1.687 -1.0326 -1.6218  2.3174
  253SOL     OW  757   0.990   1.577   0.521  0.5204 -0.1418 -1.0666
  253SOL    HW1  758   0.996   1.500   0.447 -0.9191 -1.1709 -0.2391
  253SOL    HW2  759   0.893   1.602   0.542  0.2870  1.4691  0.5983
  254SOL     OW  760   2.036   2.172   1.625  0.2799  0.0260  0.4172
  254SOL    HW1  761   2.006   2.110   1.548  0.8878  0.8178  0.2314
  254SOL    HW2  762   1.952   2.198   1.683 -0.7924 -0.5790  0.2324
  255SOL     OW  763   0.139   1.152   2.924 -0.1485  0.2274 -0.0860
  255SOL    HW1  764   0.193   1.240   2.896  0.5660  0.6670 -0.5483
  255SOL    HW2  765   0.183   1.081   2.981 -0.4413  0.2384  0.8385
  256SOL     OW  766   2.871   1.425   1.788  0.5499  0.0378  0.2640
  256SOL    HW1  767   2.790   1.486   1.768 -0.2549  0.0505 -0.3741
  256SOL    HW2  768   2.842   1.327   1.784 -1.2268  3.8490  4.2758
  257SOL     OW  769   0.770   0.138   1.706  0.3060  0.1500  0.0058
  257SOL    HW1  770   0.840   0.216   1.704 -0.9493 -1.4980  1.1436
  257SOL    HW2  771   0.815   0.047   1.721  2.9302 -0.2543 -1.5400
  258SOL     OW  772   3.012   1.221   0.432  0.0108 -0.2785  0.1187
  258SOL    HW1  773   2.911   1.245   0.432  1.3904  0.8970  0.8221
  258SOL    HW2  774   3.051   1.218   0.525 -2.4795  3.4687  0.4278
  259SOL     OW  775   0.460   2.915   3.051  0.0748 -0.1495  0.0594
  259SOL    HW1  776   0.370   2.865   3.088 -1.2679 -2.4364  1.4083
  259SOL    HW2  777   0.501   2.865   2.972 -2.2917  0.8699  1.1737
  260SOL     OW  778   2.743   0.695   2.802  0.1539 -0.4038  0.0928
  260SOL    HW1  779   2.644   0.727   2.804  0.8083 -2.8314  1.2022
  260SOL    HW2  780   2.744   0.604   2.856  0.9970 -2.3393 -1.8094
  261SOL     OW  781   2.679   1.353   1.306  0.0799 -0.2873  0.0347
  261SOL    HW1  782   2.640   1.296   1.226  2.8533 -1.5919  0.9069
  261SOL    HW2  783   2.780   1.346   1.314 -0.7863 -2.5979 -0.0530
  262SOL     OW  784   1.392   2.962   1.954  0.2204 -0.3501 -0.5959
  262SOL    HW1  785   1.422   3.057   1.927 -3.3238  0.1654 -0.6211
  262SOL    HW2  786   1.291   2.945   1.940  1.3663  2.0447 -1.2991
  263SOL     OW  787   0.869   0.664   2.320  0.5335  0.3493 -0.7039
  263SOL    HW1  788   0.798   0.594   2.284  0.2162  1.3593 -4.0343
  263SOL    HW2  789   0.886   0.730   2.241 -0.3833  0.0019  0.6560
  264SOL     OW  790   2.227   0.804   0.460 -0.6459  0.0638 -0.5462
  264SOL    HW1  791   2.229   0.734   0.380  0.6458 -2.1381 -0.4325
  264SOL    HW2  792   2.328   0.826   0.485  1.8166  0.1999 -0.4441
  265SOL     OW  793   0.936   2.459   2.627 -0.3935  0.5821  0.9838
  265SOL    HW1  794   0.987   2.493   2.709 -1.7186  0.3294  2.2135
  265SOL    HW2  795   0.940   2.356   2.620  2.3950 -3.5467 -0.1698
  266SOL     OW  796   1.337   1.806   3.022  0.0949  0.7123 -0.3938
  266SOL    HW1  797   1.337   1.859   3.112 -4.8513  3.6915 -1.5158
  266SOL    HW2  798   1.426   1.757   3.000 -0.5680  0.8350  2.0379
  267SOL     OW  799   1.031   0.027   2.353 -0.3022  0.2023  0.1881
  267SOL    HW1  800   0.969  -0.041   2.300 -1.9345  0.9229 -1.6412
  267SOL    HW2  801   0.993   0.125   2.340  1.7460  0.5169 -0.2557
  268SOL     OW  802   0.597   1.153   1.054  0.0009  0.4219 -0.0238
  268SOL    HW1  803   0.653   1.158   1.138  0.4248 -2.5259  1.1530
  268SOL    HW2  804   0.578   1.244   1.005  1.8633 -1.8168  1.6879
  269SOL     OW  805   2.285   2.543   1.616  0.1225 -0.4226 -0.1457
  269SOL    HW1  806   2.359   2.481   1.645  0.7437  2.6243  0.9478
  269SOL    HW2  807   2.236   2.578   1.700  1.8120 -2.6784  2.1550
  270SOL     OW  808   0.153   2.968   1.963  0.1333 -0.5273 -0.0703
  270SOL    HW1  809   0.183   2.938   1.870  0.3278 -0.2912  0.8416
  270SOL    HW2  810   0.068   2.921   1.996 -0.1188 -0.3354  0.0555
  271SOL     OW  811   0.412   1.387   1.193 -0.3540 -0.3801  0.0635
  271SOL    HW1  812   0.391   1.392   1.092  1.9865 -1.3130  0.3908
  271SOL    HW2  813   0.333   1.363   1.254  0.5274  0.4422 -2.0746
  272SOL     OW  814   2.031   2.931   1.931 -0.3308  0.4955  0.0368
  272SOL    HW1  815   1.959   2.877   1.881  1.0841 -1.9076  2.4350
  272SOL    HW2  816   2.115   2.972   1.873  1.9250 -0.3690  0.0493
  273SOL     OW  817   1.489   1.459   2.741 -0.0844  0.2691 -0.0169
  273SOL    HW1  818   1.391   1.451   2.778 -0.5339 -0.2383 -0.3207
  273SOL    HW2  819   1.564   1.431   2.810  0.8657 -1.8530  0.3264
  274SOL     OW  820   1.193   0.500   2.069 -0.2926 -0.0310  0.1740
  274SOL    HW1  821   1.153   0.407   2.043 -0.9106  0.2381 -0.3398
  274SOL    HW2  822   1.186   0.512   2.173  1.2603  2.6360  0.7134
  275SOL     OW  823   0.619   2.101   1.883  0.2716  0.6639 -0.3996
  275SOL    HW1  824   0.622   2.199   1.924  0.7270  0.8498  0.7252
  275SOL    HW2  825   0.527   2.054   1.902 -1.8729  0.2290  1.6902
  276SOL     OW  826   2.218   1.061   2.766  0.2670  0.5887  0.5707
  276SOL    HW1  827   2.139   1.122   2.737 -1.5659 -0.7320 -1.5077
  276SOL    HW2  828   2.180   0.992   2.834  0.3516  1.4765 -2.0095
  277SOL     OW  829   3.075   0.774   0.244 -0.0138 -0.6122  0.1686
  277SOL    HW1  830   3.157   0.827   0.210 -2.2651  0.0700  1.8209
  277SOL    HW2  831   3.105   0.703   0.312  0.1937  1.7921 -0.5235
  278SOL     OW  832   0.232   0.300   2.946 -0.8205 -0.1244 -0.6156
  278SOL    HW1  833   0.291   0.215   2.939 -1.3773  2.8876  0.5553
  278SOL    HW2  834   0.282   0.381   2.988  1.4293  0.3151 -1.7274
  279SOL     OW  835   0.232   0.028   0.891  0.2886 -0.2501 -0.1086
  279SOL    HW1  836   0.236  -0.028   0.977  0.4724 -1.2640 -2.5183
  279SOL    HW2  837   0.267  -0.025   0.805  2.4565  1.0134 -1.2497
  280SOL     OW  838   1.597   2.934   2.419  0.3207 -0.4033 -0.4784
  280SOL    HW1  839   1.650   3.004   2.475 -0.1970 -0.4856 -4.7505
  280SOL    HW2  840   1.539   2.984   2.348  0.1584  1.3194  1.0600
  281SOL     OW  841   0.592   0.960   2.294  0.1171 -0.0082 -0.0034
  281SOL    HW1  842   0.588   0.887   2.221  1.7264  2.4725  0.9863
  281SOL    HW2  843   0.514   0.956   2.363 -1.3070 -0.1995 -1.3138
  282SOL     OW  844   1.778   2.491   0.502  0.4891 -0.1860 -0.2996
  282SOL    HW1  845   1.717   2.420   0.460 -0.0205 -2.9943  0.8386
  282SOL    HW2  846   1.733   2.585   0.514 -2.1441 -0.0425  2.7534
  283SOL     OW  847   1.228   0.940   0.806 -0.1592  0.0376 -0.3408
  283SOL    HW1  848   1.231   0.884   0.892  1.2631  0.0708 -1.2796
  283SOL    HW2  849   1.149   1.007   0.815 -0.0385 -0.4881  4.1223
  284SOL     OW  850   2.229   2.848   2.514  0.2251 -0.1592 -0.3930
  284SOL    HW1  851   2.315   2.818   2.473  0.1146  1.4296  0.3597
  284SOL    HW2  852   2.238   2.924   2.585 -0.4494 -1.0630 -1.4762
  285SOL     OW  853   1.357   3.034   2.584  0.3729 -0.0416  0.2615
  285SOL    HW1  854   1.379   3.038   2.488 -0.6774  1.7200  2.0679
  285SOL    HW2  855   1.271   3.091   2.604  2.1634  0.9968 -0.1097
  286SOL     OW  856   0.443   0.434   0.734  0.2629  0.2436  0.4644
  286SOL    HW1  857   0.395   0.372   0.808 -2.5434 -1.7864  1.5991
  286SOL    HW2  858   0.423   0.399   0.638 -0.3936 -1.5171  1.9915
  287SOL     OW  859   0.083   1.257   2.494 -0.5696 -0.0385  0.1038
  287SOL    HW1  860   0.075   1.184   2.565  1.9343  0.8576  2.9606
  287SOL    HW2  861   0.123   1.346   2.539  1.6189 -0.9039  1.3138
  288SOL     OW  862   1.582   2.659   1.607 -0.1458  0.9241  0.0105
  288SOL    HW1  863   1.592   2.601   1.685  2.8565  3.1660 -3.0282
  288SOL    HW2  864   1.610   2.608   1.520 -0.3110  0.8247 -1.7942
  289SOL     OW  865   0.604   2.747   0.857 -0.5447  0.0192 -0.2031
  289SOL    HW1  866   0.671   2.783   0.787  2.8377 -2.8318 -0.3012
  289SOL    HW2  867   0.607   2.798   0.948  2.3400 -1.0354 -1.6381
  290SOL     OW  868   2.810   1.135   1.810  0.8319 -0.0711  0.0886
  290SOL    HW1  869   2.748   1.056   1.781  0.8137  1.3568  1.0824
  290SOL    HW2  870   2.896   1.099   1.848 -0.5662  2.3029  1.3832
  291SOL     OW  871   1.980   0.011   0.032 -0.4542 -0.5635  0.0514
  291SOL    HW1  872   2.002   0.081   0.107 -1.4532  0.7022  0.6100
  291SOL    HW2  873   2.058   0.019  -0.035 -1.8804  1.3634  2.0813
  292SOL     OW  874   3.013   1.216   3.073  0.1536  0.2719 -0.3050
  292SOL    HW1  875   2.944   1.255   3.008  3.5244 -2.5323  0.6790
  292SOL    HW2  876   3.100   1.192   3.024  0.1546  3.0327  2.1842
  293SOL     OW  877   0.553   2.177   0.286 -0.1634  0.2988 -0.1361
  293SOL    HW1  878   0.519   2.255   0.342 -1.6107  0.5960  3.9157
  293SOL    HW2  879   0.653   2.158   0.290 -1.5716 -0.5822 -0.8789
  294SOL     OW  880   1.814   2.293   1.776  0.3370  0.1032  0.1558
  294SOL    HW1  881   1.839   2.333   1.870 -3.7119  1.5702  0.2079
  294SOL    HW2  882   1.754   2.365   1.725 -2.9175  3.0158  0.3866
  295SOL     OW  883   0.978   1.049   0.419 -0.1940  0.0450  0.1497
  295SOL    HW1  884   1.075   1.036   0.459 -0.0564  1.9367  1.0059
  295SOL    HW2  885   0.908   1.026   0.484 -0.2750 -0.4400 -1.0875
  296SOL     OW  886   1.191   2.126   2.644  0.0835  0.1947  0.8005
  296SOL    HW1  887   1.092   2.143   2.658 -0.5826  2.5882  1.8836
  296SOL    HW2  888   1.212   2.044   2.583  2.2606  0.9655 -0.1540
  297SOL     OW  889   1.353   0.619   1.304 -0.6355 -0.6193 -0.0785
  297SOL    HW1  890   1.394   0.546   1.361 -0.8246  1.9686 -0.8202
  297SOL    HW2  891   1.427   0.686   1.273  0.4769  1.7052  1.9067
  298SOL     OW  892   0.485   1.376   2.986  0.1570  0.1240  0.0153
  298SOL    HW1  893   0.456   1.323   3.074 -0.4641 -1.1232  2.5833
  298SOL    HW2  894   0.530   1.310   2.917  0.5562  0.7173  4.5940
  299SOL     OW  895   0.459   0.288   1.252  0.0219  0.0625  0.8154
  299SOL    HW1  896   0.414   0.380   1.226 -0.9285  2.1893  0.7052
  299SOL    HW2  897   0.481   0.274   1.349  1.3920 -1.7693 -1.5386
  300SOL     OW  898   1.273   1.687   2.644 -0.1791  0.0937 -1.0619
  300SOL    HW1  899   1.276   1.591   2.609  0.1863  1.5879  0.8344
  300SOL    HW2  900   1.343   1.704   2.720  3.6699  1.4058 -0.3619
  301SOL     OW  901   0.364   0.295   0.480 -0.0550 -0.5500  0.1861
  301SOL    HW1  902   0.272   0.253   0.477  0.2310 -0.3909  1.8623
  301SOL    HW2  903   0.430   0.224   0.452  0.0147 -0.6584 -2.3056
  302SOL     OW  904   1.250   2.424   2.362 -0.2448 -0.0961 -0.0944
  302SOL    HW1  905   1.156   2.474   2.369 -1.7347  3.7228 -0.4430
  302SOL    HW2  906   1.265   2.347   2.428 -3.2783 -0.3786 -2.2850
  303SOL     OW  907   0.918   2.422   0.784 -0.3835  0.5816 -0.0507
  303SOL    HW1  908   0.973   2.463   0.706 -1.8580 -2.9233  0.3148
  303SOL    HW2  909   0.975   2.422   0.876  0.1550 -0.3871  1.6135
  304SOL     OW  910   0.091   1.949   0.694 -0.3173 -0.4036  0.3156
  304SOL    HW1  911   0.153   1.930   0.611 -0.4368 -2.0730 -2.0156
  304SOL    HW2  912   0.005   1.986   0.655  1.2919  0.9385 -0.2984
  305SOL     OW  913   1.587   0.849   0.676  0.1882  0.1113  0.2979
  305SOL    HW1  914   1.518   0.848   0.600 -2.4179  3.2859 -1.0868
  305SOL    HW2  915   1.632   0.755   0.693  2.7082  1.9814  1.8466
  306SOL     OW  916   0.417   1.878   1.866 -0.6089  0.4043 -0.2557
  306SOL    HW1  917   0.500   1.828   1.837 -1.0547  1.7544 -0.9131
  306SOL    HW2  918   0.423   1.915   1.959 -1.2087 -0.4022 -0.1549
  307SOL     OW  919   3.074   0.886   2.520 -0.6907  0.0595  0.2035
  307SOL    HW1  920   3.087   0.975   2.578 -0.8087  1.6487 -0.8821
  307SOL    HW2  921   2.989   0.830   2.545  0.1472  0.6643  0.7936
  308SOL     OW  922   1.600   2.692   2.798  0.3567 -0.6035  0.0429
  308SOL    HW1  923   1.610   2.668   2.700  0.7368  2.4222 -1.0888
  308SOL    HW2  924   1.576   2.614   2.865  3.3130 -0.1037 -0.2282
  309SOL     OW  925   1.252   0.182   1.775  0.2502 -0.2101  0.0604
  309SOL    HW1  926   1.349   0.145   1.777  0.4100 -0.8267  0.8362
  309SOL    HW2  927   1.206   0.188   1.678 -0.8518 -0.3647 -0.4914
  310SOL     OW  928   1.546   2.568   0.688 -0.0914 -0.2174 -0.1397
  310SOL    HW1  929   1.499   2.573   0.782  1.3042 -1.1081 -1.4079
  310SOL    HW2  930   1.604   2.651   0.657  2.3930  3.3877 -0.4380
  311SOL     OW  931   1.135   0.916   1.737 -0.5966  0.5691  0.2209
  311SOL    HW1  932   1.115   0.829   1.791 -1.2138 -1.5904  1.1694
  311SOL    HW2  933   1.174   0.898   1.641  2.1243  0.9101  0.0158
  312SOL     OW  934   1.565   0.739   1.125 -0.1820 -0.3791 -0.5837
  312SOL    HW1  935   1.577   0.836   1.108 -2.4471 -0.4709 -0.8873
  312SOL    HW2  936   1.529   0.688   1.045  2.0569 -1.8912  0.3950
  313SOL     OW  937   1.598   1.396   0.709  0.4948  0.0014 -0.0578
  313SOL    HW1  938   1.564   1.449   0.789 -0.2653 -0.1843 -0.7021
  313SOL    HW2  939   1.556   1.294   0.704 -1.6649 -2.4822  1.5610
  314SOL     OW  940   2.970   0.021   3.038  0.1933 -0.7198 -0.3358
  314SOL    HW1  941   2.984   0.055   3.137 -0.4005 -1.9285  0.1712
  314SOL    HW2  942   2.893  -0.049   3.029  0.9712  1.0323  1.0573
  315SOL     OW  943   1.119   0.241   2.795  0.6730  0.3619 -0.0306
  315SOL    HW1  944   1.105   0.166   2.726 -1.6370  1.9180 -0.4377
  315SOL    HW2  945   1.119   0.200   2.891 -1.4106 -1.3721  0.9122
  316SOL     OW  946   1.735   2.062   0.927 -0.7873  0.3083 -0.3512
  316SOL    HW1  947   1.708   2.068   1.024  0.9818 -2.1410 -2.1962
  316SOL    HW2  948   1.707   2.148   0.872 -0.0122  2.5774 -1.6496
  317SOL     OW  949   1.208   0.643   2.830  0.2903 -0.7797 -0.5088
  317SOL    HW1  950   1.139   0.696   2.888 -2.2333  2.7955  0.8237
  317SOL    HW2  951   1.159   0.564   2.782 -0.0422  2.1319 -0.6676
  318SOL     OW  952   1.430   3.061   2.240  0.1320  1.0793 -0.0653
  318SOL    HW1  953   1.371   3.145   2.230 -2.1457 -0.2490  0.4620
  318SOL    HW2  954   1.438   3.012   2.151  0.2687 -0.6514  1.3707
  319SOL     OW  955   0.581   2.376   2.918  0.2497 -0.9092  0.4159
  319SOL    HW1  956   0.551   2.292   2.965  1.7471  2.3592  0.0374
  319SOL    HW2  957   0.667   2.366   2.870 -1.4145 -2.1370  3.6402
  320SOL     OW  958   1.714   2.240   0.410 -0.1522  0.0865 -0.4340
  320SOL    HW1  959   1.794   2.180   0.388  2.6598  0.0400 -0.9103
  320SOL    HW2  960   1.648   2.192   0.471  3.0164  2.3756 -1.6195
  321SOL     OW  961   1.675   2.767   0.554 -0.1909 -0.3606 -0.2488
  321SOL    HW1  962   1.598   2.781   0.486  0.6942 -3.2001  1.8183
  321SOL    HW2  963   1.765   2.822   0.531  0.8258 -0.4260 -0.0528
  322SOL     OW  964   2.603   1.117   2.340  0.1806 -0.4195  0.8574
  322SOL    HW1  965   2.678   1.136   2.404  2.2930 -1.7840 -1.3133
  322SOL    HW2  966   2.545   1.033   2.359 -0.1337  0.4312  0.8698
  323SOL     OW  967   1.162   2.681   0.852  0.1154  0.0965  0.4100
  323SOL    HW1  968   1.141   2.649   0.754 -2.5252  0.5336  0.9031
  323SOL    HW2  969   1.127   2.783   0.870 -0.6761 -0.8268  0.1517
  324SOL     OW  970   0.272   2.495   2.505  0.1644  0.2910 -0.3079
  324SOL    HW1  971   0.255   2.456   2.601  0.0512  1.6255 -1.7596
  324SOL    HW2  972   0.282   2.598   2.511 -0.0890 -1.5525  0.5728
  325SOL     OW  973   1.247   2.994   0.455  0.2173 -0.3503  0.7500
  325SOL    HW1  974   1.279   3.043   0.366 -0.6549 -1.9222 -0.1397
  325SOL    HW2  975   1.256   3.058   0.537  0.6987  0.0826 -1.5412
  326SOL     OW  976   2.444   0.779   3.099  0.2478 -0.0831  0.3004
  326SOL    HW1  977   2.392   0.711   3.041  0.3086  1.4876  0.2602
  326SOL    HW2  978   2.513   0.736   3.172 -0.1074 -0.0029 -0.7115
  327SOL     OW  979   2.819   0.323   0.570  0.1700 -0.2206 -0.1074
  327SOL    HW1  980   2.817   0.272   0.483 -0.8986  3.5107 -3.7272
  327SOL    HW2  981   2.816   0.262   0.653  0.0168  1.9835  0.3679
  328SOL     OW  982   2.600   0.612   0.410  0.1464  0.6172  0.2090
  328SOL    HW1  983   2.578   0.709   0.442  2.1225  2.4179 -1.4389
  328SOL    HW2  984   2.547   0.539   0.464 -2.6004  2.6585 -0.8612
  329SOL     OW  985   2.921   2.951   2.159 -0.0612 -0.1576 -0.0154
  329SOL    HW1  986   3.005   2.896   2.189  1.0666 -0.4809  1.4442
  329SOL    HW2  987   2.924   3.052   2.193  1.0317  2.1696 -1.1983
  330SOL     OW  988   0.566   0.199   1.915  0.4816  0.2197  0.2641
  330SOL    HW1  989   0.639   0.163   1.856  1.4482 -3.0928  1.5163
  330SOL    HW2  990   0.574   0.160   2.008 -1.1946 -3.3753  1.3374
  331SOL     OW  991   3.009   1.943   1.097  0.1281  0.0688  0.0709
  331SOL    HW1  992   2.976   1.922   1.001 -1.7428 -2.2145  0.7779
  331SOL    HW2  993   2.940   1.917   1.169  0.0125 -0.7119 -0.2233
  332SOL     OW  994   0.402   1.200   0.090 -0.0518  0.0940  0.0932
  332SOL    HW1  995   0.324   1.135   0.090  2.0447  1.4573 -4.8060
  332SOL    HW2  996   0.425   1.237   0.186  0.4231  0.4007 -0.6172
  333SOL     OW  997   2.940   1.011   0.267 -0.0219 -0.7476  0.7999
  333SOL    HW1  998   3.004   1.055   0.334  0.4982 -1.8961 -3.7052
  333SOL    HW2  999   2.984   0.925   0.233 -1.4672  1.6309 -1.2773
  334SOL     OW 1000   1.694   1.268   1.799 -0.0131 -0.3167 -0.4519
  334SOL    HW1 1001   1.757   1.252   1.715  2.3276  1.9571 -1.7210
  334SOL    HW2 1002   1.744   1.286   1.887  1.1592  0.3889  1.8372
  335SOL     OW 1003   1.969   2.734   2.572 -0.0613 -0.0008  0.4064
  335SOL    HW1 1004   1.913   2.738   2.659 -2.2441 -0.9086 -2.0686
  335SOL    HW2 1005   2.052   2.791   2.580 -3.2558  1.9087 -0.5059
  336SOL     OW 1006   0.240   0.069   2.731 -0.0847 -0.4972  0.1800
  336SOL    HW1 1007   0.311   0.080   2.806  0.6957  0.0526 -0.9662
  336SOL    HW2 1008   0.141   0.054   2.765 -3.2431  1.8891 -0.5860
  337SOL     OW 1009   0.978   2.883   2.907 -0.0556  0.6546  0.2890
  337SOL    HW1 1010   0.950   2.796   2.951  0.5595 -0.2087 -2.4027
  337SOL    HW2 1011   1.073   2.922   2.937 -1.3244 -0.5033 -2.1080
  338SOL     OW 1012   0.076   1.004   0.681  0.2454 -0.9131 -0.0430
  338SOL    HW1 1013  -0.019   0.971   0.707  1.0167  0.2610  1.8501
  338SOL    HW2 1014   0.079   1.109   0.684 -2.2055  0.7438 -0.7189
  339SOL     OW 1015   1.701   1.308   2.124 -0.4030  0.2179  0.3773
  339SOL    HW1 1016   1.604   1.339   2.114 -1.8255  0.1293  0.1009
  339SOL    HW2 1017   1.749   1.398   2.130  1.1719 -0.2692 -0.8974
  340SOL     OW 1018   2.288   0.748   1.161  0.0273 -0.3432  0.0802
  340SOL    HW1 1019   2.189   0.759   1.145  2.3173  0.5312  0.9138
  340SOL    HW2 1020   2.332   0.660   1.122 -0.4800 -0.0658 -1.4388
  341SOL     OW 1021   1.927   2.092   0.298  0.3210  0.1493  0.3274
  341SOL    HW1 1022   1.939   2.138   0.208 -1.5917  0.9196 -0.2608
  341SOL    HW2 1023   2.012   2.091   0.356  1.0410  0.1908 -1.5696
  342SOL     OW 1024   2.171   2.146   2.792 -0.4984 -0.0585  0.2799
  342SOL    HW1 1025   2.217   2.058   2.818  0.7290  2.2062 -1.9522
  342SOL    HW2 1026   2.067   2.134   2.777  0.2459 -1.2165 -4.1035
  343SOL     OW 1027   0.393   0.816   2.790  0.4997 -0.2783 -0.0040
  343SOL    HW1 1028   0.423   0.840   2.693 -1.5704 -0.4842 -2.0684
  343SOL    HW2 1029   0.463   0.822   2.864 -0.2966 -0.0104 -2.3098
  344SOL     OW 1030   1.906   1.488   0.444  0.0403  0.4115  0.2147
  344SOL    HW1 1031   1.901   1.406   0.378 -0.1367 -1.2802  0.8370
  344SOL    HW2 1032   1.809   1.518   0.464  1.1448  2.0341  0.5479
  345SOL     OW 1033   1.389   2.254   2.878 -0.2721  0.1167 -0.1630
  345SOL    HW1 1034   1.320   2.279   2.805 -0.2617 -0.6490 -0.8632
  345SOL    HW2 1035   1.459   2.191   2.840 -2.8805  0.1468 -3.4981
  346SOL     OW 1036   2.350   0.893   1.386 -0.4568  0.0897 -0.2476
  346SOL    HW1 1037   2.291   0.981   1.395 -0.6110  2.3283  0.2262
  346SOL    HW2 1038   2.324   0.835   1.305  1.1077 -1.3092  1.2034
  347SOL     OW 1039   0.754   2.737   1.616 -0.1502  0.1256 -0.0128
  347SOL    HW1 1040   0.700   2.721   1.701  0.5946 -0.2517  1.3882
  347SOL    HW2 1041   0.707   2.798   1.543  1.4016  0.8636  0.6019
  348SOL     OW 1042   0.150   0.726   2.925 -0.3820  0.4789  0.1152
  348SOL    HW1 1043   0.063   0.693   2.881  2.7163  0.0232 -0.8987
  348SOL    HW2 1044   0.216   0.766   2.853 -1.6918  0.2414  2.3498
  349SOL     OW 1045   1.867   0.444   2.772 -0.1194 -0.1274 -0.0001
  349SOL    HW1 1046   1.856   0.537   2.719 -1.4883  0.7176 -0.6964
  349SOL    HW2 1047   1.833   0.445   2.871 -1.4864  0.7774 -1.3310
  350SOL     OW 1048   1.646   0.408   0.394  0.0363 -0.1821  0.0534
  350SOL    HW1 1049   1.728   0.378   0.449  3.6222  0.7475 -1.5534
  350SOL    HW2 1050   1.653   0.503   0.357 -2.5210 -0.8126 -0.6696
  351SOL     OW 1051   0.977   0.822   2.103 -0.5195  0.2515  0.1892
  351SOL    HW1 1052   0.972   0.922   2.118  3.2192  0.1195 -1.7164
  351SOL    HW2 1053   1.020   0.795   2.010  0.3422 -0.3089 -0.4431
  352SOL     OW 1054   2.079   1.336   0.646  0.1886 -0.0252 -0.5704
  352SOL    HW1 1055   2.032   1.394   0.572 -1.1769 -3.5186  0.2816
  352SOL    HW2 1056   2.032   1.329   0.741 -2.0519 -1.2517  0.0344
  353SOL     OW 1057   2.183   2.804   1.088  0.7611 -0.0690 -0.3438
  353SOL    HW1 1058   2.232   2.754   1.167  0.2405 -2.4164  0.2571
  353SOL    HW2 1059   2.093   2.766   1.056  0.6092 -0.2575  0.1027
  354SOL     OW 1060   0.260   1.386   2.854  0.7673  0.5159 -0.3217
  354SOL    HW1 1061   0.240   1.466   2.793  2.3230 -1.6940  0.7642
  354SOL    HW2 1062   0.347   1.408   2.904 -0.0607  0.5211 -0.4081
  355SOL     OW 1063   0.725   1.604   0.574 -0.3474  0.1586  0.9108
  355SOL    HW1 1064   0.695   1.542   0.651 -1.1532 -1.5453 -1.0907
  355SOL    HW2 1065   0.719   1.564   0.476 -0.5485  0.1985  0.5402
  356SOL     OW 1066   0.808   0.322   2.046  0.3451 -0.3779  0.1062
  356SOL    HW1 1067   0.874   0.244   2.064  2.7222 -1.3755  0.1692
  356SOL    HW2 1068   0.839   0.380   1.964  1.9791  2.1755 -4.3492
  357SOL     OW 1069   0.967   1.322   0.335 -0.3058 -0.0647  0.5670
  357SOL    HW1 1070   1.056   1.335   0.289 -1.5515 -0.8063  1.3680
  357SOL    HW2 1071   0.967   1.230   0.376  1.4029  0.5934  0.4255
  358SOL     OW 1072   1.641   1.547   0.472 -0.3650 -0.0417  0.4032
  358SOL    HW1 1073   1.630   1.498   0.562 -0.5320  0.4016 -3.1135
  358SOL    HW2 1074   1.633   1.483   0.394 -0.2379  2.3724  1.6948
  359SOL     OW 1075   1.583   2.615   0.226  0.3393 -0.0970  0.3794
  359SOL    HW1 1076   1.587   2.513   0.220 -0.6488 -0.3162  1.1450
  359SOL    HW2 1077   1.528   2.644   0.309  1.3970  0.1705 -1.9271
  360SOL     OW 1078   0.762   0.567   0.532 -0.3527 -0.1133  0.3372
  360SOL    HW1 1079   0.657   0.581   0.539 -1.9549 -0.8402 -1.5046
  360SOL    HW2 1080   0.798   0.476   0.580 -1.8926  0.6698 -1.6620
  361SOL     OW 1081   1.290   1.295   0.667  0.3385 -0.0320  0.0222
  361SOL    HW1 1082   1.335   1.333   0.754  1.3320 -1.4696  0.5057
  361SOL    HW2 1083   1.188   1.319   0.662  0.9375 -1.4862  0.0153
  362SOL     OW 1084   1.383   1.775   0.788 -0.1139 -0.4794 -0.4880
  362SOL    HW1 1085   1.468   1.724   0.823  0.0342 -0.4274 -1.0464
  362SOL    HW2 1086   1.403   1.864   0.739  0.1007 -0.4136 -0.9254
  363SOL     OW 1087   1.248   1.348   2.054  0.3309  0.0395  0.4897
  363SOL    HW1 1088   1.346   1.381   2.041  3.4079 -1.7057 -1.5120
  363SOL    HW2 1089   1.177   1.424   2.042 -2.5217  0.0919  1.3126
  364SOL     OW 1090   0.515   2.360   1.992  0.2811  0.1872 -0.0583
  364SOL    HW1 1091   0.417   2.388   1.999  1.1020  0.8284  0.5318
  364SOL    HW2 1092   0.554   2.384   1.896 -1.1103  1.3835 -1.8435
  365SOL     OW 1093   1.005   1.973   1.324  0.7052 -0.3600  0.0477
  365SOL    HW1 1094   0.909   1.967   1.367 -0.2985  1.2559 -0.8790
  365SOL    HW2 1095   1.003   1.989   1.221  1.4203 -0.6197  1.6907
  366SOL     OW 1096   2.849   1.961   0.393 -0.2039 -0.1221 -0.1688
  366SOL    HW1 1097   2.754   1.960   0.350  1.6985  1.0595 -1.0271
  366SOL    HW2 1098   2.896   1.864   0.385  1.3058 -2.9322 -1.2783
  367SOL     OW 1099   0.913   1.142   0.009  0.8672  0.3047  0.3124
  367SOL    HW1 1100   0.928   1.061   0.076 -1.2232  2.8453 -0.6685
  367SOL    HW2 1101   1.003   1.189  -0.012  0.8194  0.5963 -0.0496
  368SOL     OW 1102   1.446   0.553   0.631 -0.2788  0.3361 -0.1373
  368SOL    HW1 1103   1.412   0.598   0.540 -1.4936 -1.3100  0.3154
  368SOL    HW2 1104   1.554   0.553   0.632 -1.5591  0.4946 -1.2581
  369SOL     OW 1105   0.372   1.685   0.136 -0.2203  0.7631  0.3662
  369SOL    HW1 1106   0.403   1.759   0.202  0.2673  0.6965  3.0598
  369SOL    HW2 1107   0.308   1.613   0.175  1.2109 -1.8137  0.0920
  370SOL     OW 1108   0.440   2.055   1.073 -0.4875  0.5119  0.4708
  370SOL    HW1 1109   0.467   2.153   1.047  1.7624  1.7050 -2.5708
  370SOL    HW2 1110   0.345   2.040   1.029  0.6670 -2.2923  1.0805
  371SOL     OW 1111   2.916   2.221   2.628  0.2325  0.0395 -0.0076
  371SOL    HW1 1112   2.858   2.176   2.703 -1.4060  1.2175 -1.1695
  371SOL    HW2 1113   3.021   2.207   2.643  0.0335  1.5470 -0.1223
  372SOL     OW 1114   1.026   2.025   1.050 -0.1688  0.2748 -0.4946
  372SOL    HW1 1115   0.944   2.073   1.006 -1.4263  0.1539 -1.3724
  372SOL    HW2 1116   1.092   1.989   0.981 -0.3574  0.4776 -1.1809
  373SOL     OW 1117   1.965   1.946   0.854 -0.0046  0.3759  1.0285
  373SOL    HW1 1118   2.052   1.958   0.912  1.8626 -2.0613  0.0562
  373SOL    HW2 1119   1.877   1.999   0.879 -2.5702 -1.5793  2.0145
  374SOL     OW 1120   1.861   0.384   0.564 -0.3136 -0.0003 -0.4451
  374SOL    HW1 1121   1.883   0.352   0.661  0.0974  0.6102  4.4822
  374SOL    HW2 1122   1.952   0.407   0.511  1.9952 -0.6163  1.0808
  375SOL     OW 1123   2.415   2.148   1.077  0.3001 -0.1844  0.2182
  375SOL    HW1 1124   2.471   2.147   0.989  1.0110  0.4082 -0.2736
  375SOL    HW2 1125   2.474   2.121   1.163  1.1016 -0.1222  1.6592
  376SOL     OW 1126   3.023   0.544   1.491 -0.0243 -0.5810 -0.4253
  376SOL    HW1 1127   3.035   0.614   1.564 -1.2401  0.9673 -4.2971
  376SOL    HW2 1128   2.924   0.516   1.484 -2.0413 -0.7209  0.8192
  377SOL     OW 1129   2.156   2.906   0.296 -0.1297 -0.3039  0.2427
  377SOL    HW1 1130   2.122   2.999   0.314  1.1013 -0.7907  1.7516
  377SOL    HW2 1131   2.229   2.872   0.363 -0.8423 -1.4024 -1.2373
  378SOL     OW 1132   1.756   1.837   2.579 -0.7618 -0.1961 -0.8776
  378SOL    HW1 1133   1.801   1.802   2.666  1.4866 -3.7551 -2.4298
  378SOL    HW2 1134   1.744   1.756   2.512 -0.4383 -0.6320  0.6125
  379SOL     OW 1135   0.687   0.113   2.853 -0.1958  0.9992 -0.0832
  379SOL    HW1 1136   0.639   0.046   2.794  2.1663  1.0482  0.2808
  379SOL    HW2 1137   0.732   0.192   2.799 -1.5256  0.4186 -1.7280
  380SOL     OW 1138   1.515   1.152   0.621 -0.2757  0.0184 -0.2914
  380SOL    HW1 1139   1.434   1.216   0.618  2.3851 -0.9598  1.4424
  380SOL    HW2 1140   1.493   1.055   0.649 -0.4470 -0.2265  0.4669
  381SOL     OW 1141   1.347   1.167   1.542 -0.0336  0.2354  0.7271
  381SOL    HW1 1142   1.394   1.105   1.471  0.5717  0.0974 -0.6428
  381SOL    HW2 1143   1.407   1.232   1.593 -3.1313  1.5320  0.2180
  382SOL     OW 1144   1.792   0.883   0.186  0.2521  0.6062  0.1592
  382SOL    HW1 1145   1.816   0.893   0.087 -1.1870 -1.2499 -0.8679
  382SOL    HW2 1146   1.878   0.874   0.243  0.9062 -0.2596 -0.5149
  383SOL     OW 1147   2.586   1.005   1.474  0.1297  0.2185  0.1010
  383SOL    HW1 1148   2.495   0.987   1.428  1.4481 -1.3343 -0.2046
  383SOL    HW2 1149   2.661   0.977   1.417 -1.7504 -1.5684  2.9839
  384SOL     OW 1150   0.975   2.236   0.156 -0.3499 -0.4277  0.1473
  384SOL    HW1 1151   0.964   2.317   0.219  0.0335  0.3350  2.7843
  384SOL    HW2 1152   0.905   2.161   0.178 -0.3990 -1.5745  1.2919
  385SOL     OW 1153   2.984   2.037   1.642 -0.5390 -0.2996 -0.1717
  385SOL    HW1 1154   3.056   2.111   1.634 -2.5357  0.7577  1.8131
  385SOL    HW2 1155   3.022   1.937   1.636 -4.5763 -1.4488 -0.3004
  386SOL     OW 1156   0.508   1.072   0.431  0.5310 -0.0290  0.1819
  386SOL    HW1 1157   0.473   0.979   0.467 -0.7148 -0.4365  0.4449
  386SOL    HW2 1158   0.431   1.133   0.395  2.2823 -3.1366 -1.4062
  387SOL     OW 1159   0.967   0.325   1.677 -0.4143  1.0764 -0.2054
  387SOL    HW1 1160   1.044   0.387   1.696 -0.2528 -1.1251 -0.6306
  387SOL    HW2 1161   0.953   0.312   1.572  0.6685  2.1360 -1.9637
  388SOL     OW 1162   1.214   2.692   1.748  0.2756  0.4651  0.1384
  388SOL    HW1 1163   1.254   2.716   1.654  0.5195 -1.2938 -0.1418
  388SOL    HW2 1164   1.260   2.604   1.787  0.2996  0.8288  1.1294
  389SOL     OW 1165   0.170   3.032   1.159 -0.4688  0.1604  0.7208
  389SOL    HW1 1166   0.131   3.103   1.215 -1.6534  0.2687 -1.8489
  389SOL    HW2 1167   0.113   2.946   1.151 -2.6493 -0.4981  3.6139
  390SOL     OW 1168   1.032   0.999   1.320  0.3608  0.1359 -0.0834
  390SOL    HW1 1169   1.106   0.961   1.378 -0.4627 -1.3943 -0.0699
  390SOL    HW2 1170   0.955   1.047   1.375 -0.4101 -0.9031  1.6836
  391SOL     OW 1171   2.157   1.103   1.066  0.1689  0.4247 -0.2715
  391SOL    HW1 1172   2.098   1.024   1.086  0.6181 -1.0990 -0.8945
  391SOL    HW2 1173   2.221   1.085   0.982 -0.0334 -0.2412  2.6039
  392SOL     OW 1174   0.844   2.717  -0.004 -0.0255 -0.5019  0.4174
  392SOL    HW1 1175   0.936   2.675   0.022 -1.4372  1.1291 -2.6016
  392SOL    HW2 1176   0.814   2.786   0.060  0.9869 -1.5814  0.1389
  393SOL     OW 1177   0.365   0.547   2.001 -0.1150  0.2507 -0.3449
  393SOL    HW1 1178   0.291   0.483   1.976 -3.1356  0.8204  1.6629
  393SOL    HW2 1179   0.448   0.528   1.938 -0.5340  1.3777  0.1918
  394SOL     OW 1180   3.015   1.842   2.781 -0.7399  0.8237 -0.7363
  394SOL    HW1 1181   3.053   1.932   2.814  0.0177  0.4137 -0.5780
  394SOL    HW2 1182   3.015   1.833   2.674 -2.6647  0.7087 -2.1034
  395SOL     OW 1183   1.648   1.970   0.678 -0.2237  0.4321 -0.0917
  395SOL    HW1 1184   1.693   1.901   0.614 -0.7276 -1.7819  0.3919
  395SOL    HW2 1185   1.705   1.992   0.764  1.3347 -0.0852  1.1586
  396SOL     OW 1186   2.842   1.884   1.293  0.0759 -0.0842 -0.7344
  396SOL    HW1 1187   2.787   1.794   1.295 -2.1680 -2.6049  1.6335
  396SOL    HW2 1188   2.820   1.952   1.375  1.2508  0.3266 -1.1669
  397SOL     OW 1189   1.042   2.220   0.501  0.0815 -0.3073 -0.1712
  397SOL    HW1 1190   0.947   2.195   0.535 -1.2593  0.5145  1.1921
  397SOL    HW2 1191   1.056   2.323   0.482  0.1872 -0.3549  0.0102
  398SOL     OW 1192   2.126   3.092   1.011  0.1534  0.5865 -0.0404
  398SOL    HW1 1193   2.125   3.001   1.060  0.5854 -2.5133  0.2580
  398SOL    HW2 1194   2.060   3.165   1.053  0.2335 -0.8984 -0.5612
  399SOL     OW 1195   3.042   2.475   2.515 -0.0172 -0.1758 -0.0652
  399SOL    HW1 1196   2.941   2.465   2.525 -0.0366 -0.4484  1.2737
  399SOL    HW2 1197   3.094   2.382   2.531  1.5197 -3.2007 -3.6617
  400SOL     OW 1198   0.764   1.611   1.328 -0.1034 -0.4915  0.0720
  400SOL    HW1 1199   0.737   1.628   1.423  0.4804  3.8922 -1.2534
  400SOL    HW2 1200   0.712   1.671   1.256  2.0694  1.1047 -1.6040
  401SOL     OW 1201   1.793   0.089   1.325  0.5324 -0.2193 -0.4202
  401SOL    HW1 1202   1.866   0.097   1.398  1.1187 -0.4750 -1.2220
  401SOL    HW2 1203   1.696   0.120   1.355 -1.5434  1.0751  0.8081
  402SOL     OW 1204   1.323   0.166   3.063  0.0980  0.4127  0.1612
  402SOL    HW1 1205   1.410   0.131   3.016 -2.5262 -0.1727 -0.2668
  402SOL    HW2 1206   1.312   0.267   3.073  1.3438  1.7871 -1.8254
  403SOL     OW 1207   2.321   1.769   0.901 -0.5393 -0.0414  0.6524
  403SOL    HW1 1208   2.416   1.762   0.939  0.6634 -1.4790 -2.0349
  403SOL    HW2 1209   2.269   1.839   0.959  0.6385 -2.4890  0.5113
  404SOL     OW 1210   0.179   2.529   2.783 -0.3450 -0.0683 -0.1264
  404SOL    HW1 1211   0.257   2.461   2.799  3.2762 -0.2415 -1.1652
  404SOL    HW2 1212   0.183   2.614   2.840  0.3965 -0.9034  1.1704
  405SOL     OW 1213   0.149   2.379   0.675 -0.4447 -0.1008  0.4167
  405SOL    HW1 1214   0.117   2.337   0.579  1.9331  1.9965 -4.7203
  405SOL    HW2 1215   0.196   2.471   0.667 -1.3382 -1.4578  5.0053
  406SOL     OW 1216   0.047   1.520   3.026  0.3482  0.3925  0.0285
  406SOL    HW1 1217   0.144   1.489   2.989  3.0119  1.9151 -0.6213
  406SOL    HW2 1218   0.053   1.618   3.051 -0.7118 -2.6739  1.3845
  407SOL     OW 1219   1.567   0.957   0.926 -0.5846 -0.0781  1.2292
  407SOL    HW1 1220   1.554   0.925   0.822 -1.1155  3.3938 -0.9156
  407SOL    HW2 1221   1.491   1.016   0.959  2.7010  0.3033 -1.2569
  408SOL     OW 1222   1.618   2.353   0.942  0.6450  0.3620  0.3695
  408SOL    HW1 1223   1.686   2.347   0.861  1.5335  2.2087  1.2653
  408SOL    HW2 1224   1.546   2.431   0.928 -2.9047  0.4607 -0.8805
  409SOL     OW 1225   0.634   0.846   0.716 -0.1677  0.0912  0.6311
  409SOL    HW1 1226   0.557   0.856   0.654  1.4533  1.6094  2.9845
  409SOL    HW2 1227   0.629   0.755   0.768  1.7018 -1.4835  2.1897
  410SOL     OW 1228   1.300   2.046   1.425  1.0025  0.0353  0.1266
  410SOL    HW1 1229   1.350   1.980   1.484 -0.5657  1.0187  0.3550
  410SOL    HW2 1230   1.210   2.013   1.385 -3.6904 -1.4934 -0.9048
  411SOL     OW 1231   2.554   1.881   3.072  0.6910  0.6662 -0.6995
  411SOL    HW1 1232   2.469   1.900   3.020  0.5493 -2.3955  0.1072
  411SOL    HW2 1233   2.617   1.814   3.023  1.3188  0.4557 -0.0136
  412SOL     OW 1234   1.468   2.497   2.181 -0.0337  0.0604 -0.4456
  412SOL    HW1 1235   1.465   2.600   2.184 -0.4716 -0.0987  0.8983
  412SOL    HW2 1236   1.412   2.451   2.260 -0.1149 -1.3826 -0.0876
  413SOL     OW 1237   3.069   0.258   2.986  0.0011  0.4173 -0.1373
  413SOL    HW1 1238   3.037   0.158   2.993 -3.7028 -0.4684 -0.1364
  413SOL    HW2 1239   3.174   0.265   2.974  0.0891  1.6544 -2.2950
  414SOL     OW 1240   1.843   1.527   1.232  0.4593  0.0540 -0.3109
  414SOL    HW1 1241   1.820   1.615   1.174  1.9768  1.9138 -3.8764
  414SOL    HW2 1242   1.806   1.444   1.187  0.2745  0.6130  0.3543
  415SOL     OW 1243   0.349   2.187   0.705  0.3633  0.6539 -0.2727
  415SOL    HW1 1244   0.275   2.249   0.668  0.4523 -3.7075 -0.5360
  415SOL    HW2 1245   0.319   2.135   0.790  1.8998 -1.9680  0.2717
  416SOL     OW 1246   0.375   1.020   1.044  0.5918  0.0688 -0.1497
  416SOL    HW1 1247   0.371   0.952   0.961  0.1530 -0.5203  2.3177
  416SOL    HW2 1248   0.468   1.070   1.055  0.2049 -0.8203 -0.5105
  417SOL     OW 1249   2.230   2.294   1.968  0.9590  0.4867  0.7225
  417SOL    HW1 1250   2.321   2.261   2.005  0.7791 -0.1124  1.8418
  417SOL    HW2 1251   2.185   2.211   1.922 -0.7163  1.0656  0.9850
  418SOL     OW 1252   1.099   0.513   1.372 -0.0199  0.1360  0.0554
  418SOL    HW1 1253   1.021   0.509   1.306 -2.1920 -1.3465 -0.9349
  418SOL    HW2 1254   1.185   0.556   1.325  0.9054  0.0684 -1.9970
  419SOL     OW 1255   0.921   0.449   3.001 -0.3354  0.4039 -0.2251
  419SOL    HW1 1256   0.946   0.514   2.926 -1.7662  0.8204  1.0869
  419SOL    HW2 1257   0.846   0.479   3.061  3.0786  0.0125  0.7694
  420SOL     OW 1258   0.079   2.268   0.456  0.4640  0.3487  0.1689
  420SOL    HW1 1259   0.128   2.217   0.382 -0.3609  0.8667  1.9597
  420SOL    HW2 1260   0.004   2.208   0.497  0.9697 -0.5194  1.2324
  421SOL     OW 1261   0.349   3.004   0.675 -0.0502  0.4800 -0.0771
  421SOL    HW1 1262   0.390   2.917   0.712 -0.3911  0.5854  0.6893
  421SOL    HW2 1263   0.424   3.075   0.666 -2.6985 -0.8905 -0.8207
  422SOL     OW 1264   1.067   2.489   1.012  0.3221  0.0165  0.0126
  422SOL    HW1 1265   1.111   2.555   0.943 -2.2178 -1.3537  1.0891
  422SOL    HW2 1266   1.035   2.527   1.103  0.6636 -0.7792  0.0105
  423SOL     OW 1267   0.072   0.667   1.290  0.0791 -0.0053  0.4804
  423SOL    HW1 1268   0.020   0.630   1.371 -1.2779 -2.8426  1.7813
  423SOL    HW2 1269   0.056   0.772   1.277 -0.6619  2.6263  3.2755
  424SOL     OW 1270   0.988   2.204   2.047 -0.2778 -0.3961 -0.0314
  424SOL    HW1 1271   0.989   2.309   2.030 -1.7594  2.1413  2.3759
  424SOL    HW2 1272   0.959   2.184   2.145  1.4879  0.0245  1.0839
  425SOL     OW 1273   2.008   1.331   0.985  0.0895 -0.7570  0.1599
  425SOL    HW1 1274   2.052   1.252   1.036  0.4732 -0.9068 -2.1294
  425SOL    HW2 1275   2.075   1.398   0.940  1.6374  0.4508 -2.2269
  426SOL     OW 1276   1.499   1.614   1.375 -0.5914 -0.1918 -0.1174
  426SOL    HW1 1277   1.458   1.670   1.293 -1.9216  0.0870  2.7605
  426SOL    HW2 1278   1.440   1.606   1.460 -0.3246 -0.9488  2.9752
  427SOL     OW 1279   1.894   2.367   2.037  0.0487 -0.2570 -0.3498
  427SOL    HW1 1280   1.957   2.304   2.092 -0.6376 -0.6879  0.4723
  427SOL    HW2 1281   1.918   2.466   2.045  1.3520  0.5856  1.9847
  428SOL     OW 1282   0.872   3.020   0.205 -0.0714  0.3822 -0.5969
  428SOL    HW1 1283   0.858   3.113   0.161 -0.5101  0.0141  1.7416
  428SOL    HW2 1284   0.957   2.966   0.170 -0.6709  0.8347 -0.9859
  429SOL     OW 1285   1.328   0.058   0.255 -0.7760 -0.1170  0.5182
  429SOL    HW1 1286   1.420   0.102   0.283 -2.9184 -0.5326  2.4486
  429SOL    HW2 1287   1.307   0.084   0.156  0.2898 -0.4537  0.6816
  430SOL     OW 1288   2.787   1.416   0.319 -0.4880  0.7435  0.0230
  430SOL    HW1 1289   2.826   1.457   0.230 -1.0945  0.8540  0.8669
  430SOL    HW2 1290   2.808   1.471   0.405 -1.1854  0.5685  2.4290
  431SOL     OW 1291   2.120   1.560   0.864 -0.2054 -0.0661  0.2918
  431SOL    HW1 1292   2.203   1.617   0.887 -0.9117  0.4632 -0.5241
  431SOL    HW2 1293   2.061   1.618   0.804 -0.8781  2.4010  0.2629
  432SOL     OW 1294   2.851   2.240   1.271 -0.7506  0.1638  0.0256
  432SOL    HW1 1295   2.794   2.153   1.273  1.5651 -1.3567 -1.0837
  432SOL    HW2 1296   2.923   2.246   1.349  1.2298 -2.7670  0.8774
  433SOL     OW 1297   1.910   0.379   0.831 -0.7043 -0.4098 -0.0159
  433SOL    HW1 1298   1.817   0.349   0.867 -1.1403 -0.2533 -0.6238
  433SOL    HW2 1299   1.982   0.356   0.895 -2.6655  0.6068 -1.6317
  434SOL     OW 1300   1.492   0.263   0.743  0.0915 -0.6892  0.4171
  434SOL    HW1 1301   1.505   0.350   0.685  1.0966 -3.6412  0.7154
  434SOL    HW2 1302   1.534   0.263   0.834 -0.5778  0.4722 -0.7533
  435SOL     OW 1303   1.492   1.480   2.117  0.0254 -0.3850  0.0016
  435SOL    HW1 1304   1.477   1.523   2.209  0.9002  3.2488  2.2815
  435SOL    HW2 1305   1.517   1.554   2.044 -1.3475  2.3988  2.3324
  436SOL     OW 1306   1.684   2.754   2.218  0.5610 -0.2135  0.5497
  436SOL    HW1 1307   1.649   2.825   2.289 -3.6286  0.2826 -1.1788
  436SOL    HW2 1308   1.693   2.658   2.257 -2.6543  0.1100  1.5325
  437SOL     OW 1309   1.045   2.929   0.933  0.6849  0.2372 -0.2406
  437SOL    HW1 1310   1.027   3.025   0.900 -0.2913 -2.7595 -0.4463
  437SOL    HW2 1311   1.057   2.915   1.035 -2.0710  4.1304  0.0921
  438SOL     OW 1312   1.007   2.598   1.295 -0.3352 -0.3827  0.3952
  438SOL    HW1 1313   1.090   2.630   1.347  2.0249 -0.3972 -0.8942
  438SOL    HW2 1314   1.001   2.493   1.294 -2.0076  0.4838 -2.8885
  439SOL     OW 1315   0.691   1.743   1.090 -0.2129  0.2585  0.0043
  439SOL    HW1 1316   0.703   1.822   1.026  1.9247 -0.3811 -0.2462
  439SOL    HW2 1317   0.593   1.716   1.109  0.0406  1.3791  0.3707
  440SOL     OW 1318   0.996   2.497   1.985  0.4096  0.3172  0.5361
  440SOL    HW1 1319   0.962   2.537   1.892  1.2845  1.2490 -0.7532
  440SOL    HW2 1320   1.098   2.487   1.981 -0.7833 -0.2578 -2.3215
  441SOL     OW 1321   0.497   2.733   1.411 -0.1686  0.0892  0.4157
  441SOL    HW1 1322   0.556   2.648   1.446  2.2606 -1.1484  0.2263
  441SOL    HW2 1323   0.431   2.705   1.340  2.0611 -0.8196  1.5088
  442SOL     OW 1324   2.334   0.672   2.436 -0.3106  0.4668  0.6663
  442SOL    HW1 1325   2.338   0.583   2.489  1.7161  1.5167  0.2897
  442SOL    HW2 1326   2.237   0.688   2.408 -0.3587  0.3649 -1.3505
  443SOL     OW 1327   1.253   2.720   2.146  0.3920 -0.5925 -0.0198
  443SOL    HW1 1328   1.269   2.806   2.197  1.3678  1.4942  0.8558
  443SOL    HW2 1329   1.206   2.640   2.200 -1.7753 -0.1469  2.1739
  444SOL     OW 1330   1.085   1.287   1.608  0.2684 -0.2202 -0.0497
  444SOL    HW1 1331   1.170   1.226   1.608  1.9331 -0.3492  1.0216
  444SOL    HW2 1332   1.107   1.380   1.648 -2.7428  2.4809  0.2964
  445SOL     OW 1333   0.014   2.390   1.845  0.0657 -0.2162 -0.0051
  445SOL    HW1 1334   0.002   2.485   1.808 -0.3908 -3.1796  1.6493
  445SOL    HW2 1335  -0.074   2.352   1.882  0.6592 -1.4425  0.0844
  446SOL     OW 1336   0.251   1.919   2.323 -0.2192 -0.2681 -0.6334
  446SOL    HW1 1337   0.234   2.003   2.385  1.4979 -2.2705  0.0621
  446SOL    HW2 1338   0.174   1.893   2.259  4.0943 -3.2095 -1.3769
  447SOL     OW 1339   1.178   1.705   1.915  0.1214 -0.4034  0.1179
  447SOL    HW1 1340   1.104   1.767   1.873 -0.6842 -0.8303  1.6923
  447SOL    HW2 1341   1.244   1.753   1.976 -0.2127 -0.7114 -0.7593
  448SOL     OW 1342   0.136   1.532   1.975  0.5017  0.3095  0.4585
  448SOL    HW1 1343   0.160   1.604   1.904 -0.0681 -1.6557  3.0563
  448SOL    HW2 1344   0.087   1.575   2.058 -0.6924  2.5521 -1.6926
  449SOL     OW 1345   1.944   2.950   0.844 -0.0358  0.2394 -0.2614
  449SOL    HW1 1346   2.033   2.972   0.895  1.2394  0.8214  2.2934
  449SOL    HW2 1347   1.942   2.855   0.799 -0.8959 -1.2638 -2.4678
  450SOL     OW 1348   2.327   1.379   0.736 -0.1618  0.0054  0.2708
  450SOL    HW1 1349   2.227   1.359   0.731  0.5477 -2.6832 -1.0098
  450SOL    HW2 1350   2.346   1.472   0.688 -1.2143 -1.1057 -1.9875
  451SOL     OW 1351   1.334   3.035   1.459 -0.5864  0.5136  0.1069
  451SOL    HW1 1352   1.260   3.102   1.474  1.7000  1.5558 -0.4158
  451SOL    HW2 1353   1.375   2.993   1.544 -1.4582  1.2806 -0.2177
  452SOL     OW 1354   2.677   2.300   2.152 -0.2623  0.0919 -0.1959
  452SOL    HW1 1355   2.615   2.377   2.190 -1.8852 -1.3555  2.1337
  452SOL    HW2 1356   2.740   2.265   2.232 -2.5103 -1.9642  1.0135
  453SOL     OW 1357   2.490   2.648   3.087  0.0882  0.2006  0.4440
  453SOL    HW1 1358   2.404   2.711   3.112 -2.6160 -1.2070 -0.5241
  453SOL    HW2 1359   2.463   2.568   3.019  1.2207 -0.3805  1.0585
  454SOL     OW 1360   1.027   1.151   2.080 -0.0182 -0.4090 -0.2073
  454SOL    HW1 1361   0.986   1.137   1.986  0.2172  0.5221 -0.3121
  454SOL    HW2 1362   1.104   1.218   2.072 -0.3052 -0.4080 -0.7159
  455SOL     OW 1363   0.641   2.656   2.908  0.0170 -0.7143 -0.7559
  455SOL    HW1 1364   0.718   2.669   2.975 -1.0481 -0.9959 -1.9982
  455SOL    HW2 1365   0.597   2.563   2.920 -3.1326 -0.9605 -0.1323
  456SOL     OW 1366   0.473   1.879   0.314  0.5550  0.7263  0.1346
  456SOL    HW1 1367   0.560   1.856   0.363  0.4139  2.2420  0.4004
  456SOL    HW2 1368   0.474   1.976   0.286 -0.2101 -0.7706  2.6526
  457SOL     OW 1369   0.286   2.630   0.664  0.6746 -0.4222  0.2584
  457SOL    HW1 1370   0.275   2.700   0.589  1.3925 -3.8936  1.4332
  457SOL    HW2 1371   0.378   2.625   0.702  0.3876 -0.6244  0.2643
  458SOL     OW 1372   2.971   3.064   1.213  0.1468  0.4237 -0.0498
  458SOL    HW1 1373   3.041   3.137   1.232 -0.2533  1.4101 -0.7410
  458SOL    HW2 1374   2.994   3.015   1.123  1.6286  2.2050  1.7518
  459SOL     OW 1375   2.188   2.547   0.787  0.6631  0.2815  0.0353
  459SOL    HW1 1376   2.194   2.636   0.845  2.7304  1.6957  2.0642
  459SOL    HW2 1377   2.275   2.536   0.728  0.1815  3.1423 -1.0923
  460SOL     OW 1378   1.162   1.984   2.881 -0.1233 -0.6763  0.6612
  460SOL    HW1 1379   1.201   2.039   2.797 -0.0919  0.0296 -0.5275
  460SOL    HW2 1380   1.235   1.920   2.923  0.1324 -1.7598  0.2003
  461SOL     OW 1381   0.535   2.077   2.672 -0.2037  0.2451 -0.7047
  461SOL    HW1 1382   0.472   2.001   2.647 -0.9172  2.0474  2.5411
  461SOL    HW2 1383   0.567   2.060   2.769 -1.4472 -0.1981  0.1316
  462SOL     OW 1384   0.939   1.095   1.833 -0.6327 -0.9888 -0.1265
  462SOL    HW1 1385   1.005   1.030   1.787  0.3237 -1.4408  0.4573
  462SOL    HW2 1386   0.941   1.198   1.799 -0.2472  2.4928 -2.9189
  463SOL     OW 1387   0.457   0.768   0.492  0.1726 -0.2333  0.0323
  463SOL    HW1 1388   0.471   0.671   0.461 -0.6935  2.4127  1.1018
  463SOL    HW2 1389   0.350   0.780   0.505  0.0755  0.4830  3.3175
  464SOL     OW 1390   0.599   2.275   2.235 -0.3916  0.0066  0.1236
  464SOL    HW1 1391   0.563   2.351   2.299 -2.6481  3.3168 -0.8448
  464SOL    HW2 1392   0.565   2.296   2.137  1.3278 -2.3041 -0.7778
  465SOL     OW 1393   0.316   0.923   0.797  0.3375 -0.0451  0.6722
  465SOL    HW1 1394   0.231   0.968   0.755 -0.7245  2.9832  0.8967
  465SOL    HW2 1395   0.308   0.825   0.812 -1.5622  3.2557 -2.2173
  466SOL     OW 1396   1.337   1.135   1.070 -0.3267  0.2485 -0.0665
  466SOL    HW1 1397   1.388   1.224   1.069 -0.4506 -0.8757  4.5387
  466SOL    HW2 1398   1.244   1.146   1.119 -0.2316  1.3845 -1.1835
  467SOL     OW 1399   0.466   0.342   2.370  0.6725 -0.8914 -0.2688
  467SOL    HW1 1400   0.428   0.439   2.396 -0.8178  1.4275 -2.1917
  467SOL    HW2 1401   0.468   0.267   2.445  1.7842 -1.6343 -0.1024
  468SOL     OW 1402   0.459   2.292   1.668  0.3054  0.2187  0.3829
  468SOL    HW1 1403   0.499   2.384   1.676  1.1722 -2.3628 -0.9269
  468SOL    HW2 1404   0.439   2.269   1.570 -0.7698 -1.8908  0.4064
  469SOL     OW 1405   1.511   1.372   1.206  0.1643 -0.2913  0.5469
  469SOL    HW1 1406   1.603   1.335   1.166  0.9557 -3.2061 -1.0310
  469SOL    HW2 1407   1.514   1.465   1.247 -0.4042  1.4974 -1.8064
  470SOL     OW 1408   3.039   1.670   0.787  0.0395  0.0916  0.3036
  470SOL    HW1 1409   3.129   1.713   0.760 -0.9312 -0.4135  0.5897
  470SOL    HW2 1410   2.980   1.725   0.857 -1.5866  1.1942 -0.1528
  471SOL     OW 1411   2.652   1.316   2.141 -0.1530  0.2071 -0.2116
  471SOL    HW1 1412   2.647   1.238   2.209 -1.0481  0.9041  1.2027
  471SOL    HW2 1413   2.713   1.394   2.181 -0.2911  1.1276  0.1964
  472SOL     OW 1414   1.140   2.485   3.071  0.0778  0.7158 -0.1208
  472SOL    HW1 1415   1.173   2.447   3.162  2.6923 -1.8121  0.8885
  472SOL    HW2 1416   1.087   2.412   3.017 -0.9855 -2.5261  0.4015
  473SOL     OW 1417   1.112   1.525   1.000  0.7016 -0.6253  0.2810
  473SOL    HW1 1418   1.004   1.532   1.009 -3.2979  2.7950  1.9081
  473SOL    HW2 1419   1.157   1.471   1.075 -2.3335  1.4176  0.4332
  474SOL     OW 1420   0.702   1.279   0.571 -0.2402 -0.3054  0.3602
  474SOL    HW1 1421   0.724   1.293   0.473  0.7453 -0.1585  0.3225
  474SOL    HW2 1422   0.734   1.185   0.605  1.3735 -0.9947  1.0827
  475SOL     OW 1423   2.831   0.101   0.796  0.3595  0.1234 -0.6776
  475SOL    HW1 1424   2.906   0.162   0.842  1.8272  2.1064  0.6847
  475SOL    HW2 1425   2.737   0.117   0.838 -1.1101  0.9257  2.4437
  476SOL     OW 1426   0.914   3.033   1.774 -0.9531 -0.2520 -0.9845
  476SOL    HW1 1427   0.986   2.986   1.833 -0.2083 -0.1465  0.3579
  476SOL    HW2 1428   0.926   3.019   1.672 -1.1386 -3.5009 -1.3041
  477SOL     OW 1429   1.447   0.342   2.476 -0.6369  0.2881  0.3169
  477SOL    HW1 1430   1.444   0.365   2.581 -2.0555  1.9252  2.6507
  477SOL    HW2 1431   1.527   0.288   2.447 -0.4748  1.3288 -3.7726
  478SOL     OW 1432   2.209   1.853   0.255  0.0685  0.4344 -0.1988
  478SOL    HW1 1433   2.133   1.777   0.247 -1.9452 -0.9330 -2.6274
  478SOL    HW2 1434   2.302   1.821   0.236 -0.0724  0.0521  2.1452
  479SOL     OW 1435   1.231   1.078   2.922 -0.0641  0.1237  0.3994
  479SOL    HW1 1436   1.299   1.079   2.849 -3.5737 -2.0900 -1.6495
  479SOL    HW2 1437   1.132   1.049   2.899  0.6573  0.9333 -0.3458
  480SOL     OW 1438   2.525   2.327   0.362 -0.9138 -0.7312 -0.0787
  480SOL    HW1 1439   2.484   2.245   0.413  0.0009 -1.3726  1.6142
  480SOL    HW2 1440   2.464   2.379   0.294  1.6541  2.2918  0.5819
  481SOL     OW 1441   1.034   1.133   0.814  0.2370  0.1895 -0.2461
  481SOL    HW1 1442   1.024   1.234   0.786  1.3433  0.3135 -1.6949
  481SOL    HW2 1443   1.035   1.114   0.916  1.0305  2.8837  1.1248
  482SOL     OW 1444   1.577   0.279   2.041 -0.0469 -0.0213 -0.3915
  482SOL    HW1 1445   1.601   0.366   1.997 -0.0994 -0.7535 -0.9615
  482SOL    HW2 1446   1.660   0.238   2.094 -0.8981  1.6734  0.6902
  483SOL     OW 1447   0.127   2.311   1.269  0.2798  0.2718 -0.7738
  483SOL    HW1 1448   0.042   2.333   1.322  1.2204 -0.1522  0.0445
  483SOL    HW2 1449   0.135   2.359   1.179  0.0819  2.4373  1.7301
  484SOL     OW 1450   1.746   1.066   1.375  0.2032  0.0874  0.5334
  484SOL    HW1 1451   1.824   1.000   1.390  1.3164 -0.6208  0.5771
  484SOL    HW2 1452   1.730   1.121   1.461 -1.8629  0.4930  1.4364
  485SOL     OW 1453   0.652   1.047   1.821 -0.4199  0.5242  0.9982
  485SOL    HW1 1454   0.658   1.035   1.717 -0.8152 -1.3320  2.0131
  485SOL    HW2 1455   0.742   1.058   1.865  0.6082 -0.7744 -2.9461
  486SOL     OW 1456   0.869   1.941   2.452  0.2348 -0.5554  0.1900
  486SOL    HW1 1457   0.907   1.900   2.534  0.4673 -2.6798 -3.7356
  486SOL    HW2 1458   0.831   2.031   2.474 -0.6783 -0.8138 -0.0020
  487SOL     OW 1459   1.814   1.612   0.936 -0.2874 -0.3713 -0.2656
  487SOL    HW1 1460   1.898   1.560   0.974 -1.0075 -1.0751  0.5926
  487SOL    HW2 1461   1.827   1.649   0.843 -0.6342  1.6678 -1.6680
  488SOL     OW 1462   2.948   0.868   2.261 -0.2379 -0.1708  0.2242
  488SOL    HW1 1463   2.961   0.766   2.263  2.4758  0.6348 -0.9548
  488SOL    HW2 1464   2.974   0.907   2.355 -0.0644 -0.3528  1.5591
  489SOL     OW 1465   2.764   0.232   1.307  0.2708  0.4985 -0.1494
  489SOL    HW1 1466   2.719   0.175   1.376 -1.5941  0.2876  0.8090
  489SOL    HW2 1467   2.867   0.210   1.296  0.6152  0.2068 -2.4904
  490SOL     OW 1468   1.461   2.928   2.806 -0.0127  0.2462 -0.3285
  490SOL    HW1 1469   1.497   2.827   2.800 -1.0560 -1.9687 -0.3833
  490SOL    HW2 1470   1.418   2.958   2.715 -0.2002  0.2962  0.5275
  491SOL     OW 1471   1.833   1.462   2.592 -0.0046 -0.0267 -0.2393
  491SOL    HW1 1472   1.781   1.404   2.658  0.2497  0.5538 -2.6034
  491SOL    HW2 1473   1.928   1.483   2.625 -0.6188  0.5252  0.5580
  492SOL     OW 1474   0.530   1.969   0.662 -0.2268  0.0816 -0.8654
  492SOL    HW1 1475   0.591   1.964   0.751  1.1540  2.0473  1.1481
  492SOL    HW2 1476   0.468   2.050   0.646 -0.5764 -1.4080 -1.4849
  493SOL     OW 1477   0.385   1.406   2.069  0.2713  0.0810  0.2132
  493SOL    HW1 1478   0.292   1.454   2.070 -0.8395 -1.2858  0.8531
  493SOL    HW2 1479   0.397   1.342   2.149  1.1999  1.2034 -3.4942
  494SOL     OW 1480   2.679   2.712   0.181 -1.1733  0.3566  0.5105
  494SOL    HW1 1481   2.641   2.691   0.277  0.7784 -0.3183 -1.0002
  494SOL    HW2 1482   2.626   2.663   0.104 -0.0096  1.3585 -0.3218
  495SOL     OW 1483   2.781   2.658   2.702  0.6838 -0.2053 -0.6078
  495SOL    HW1 1484   2.700   2.599   2.680  1.9885 -0.1629 -0.7822
  495SOL    HW2 1485   2.806   2.716   2.619  0.0577  2.6979  0.0962
  496SOL     OW 1486   2.056   2.237   0.707  0.0179 -0.4370  0.2196
  496SOL    HW1 1487   2.080   2.279   0.801  0.5010  2.3069 -1.0501
  496SOL    HW2 1488   2.094   2.144   0.696 -1.1863  1.1188 -1.1588
  497SOL     OW 1489   0.253   2.963   2.466 -0.0641  0.2686  0.3927
  497SOL    HW1 1490   0.240   3.034   2.538 -0.2101 -0.9311  1.6818
  497SOL    HW2 1491   0.274   3.002   2.372 -0.1307 -0.6243 -0.5272
  498SOL     OW 1492   1.240   1.408   1.221  0.2352  0.0532 -0.0114
  498SOL    HW1 1493   1.333   1.370   1.225 -0.6407  0.2134  0.1949
  498SOL    HW2 1494   1.223   1.489   1.287 -1.6130  0.6825 -0.3464
  499SOL     OW 1495   0.706   1.864   0.457 -0.0239  0.3055  0.4324
  499SOL    HW1 1496   0.705   1.783   0.519  1.7827  1.3480  1.6720
  499SOL    HW2 1497   0.686   1.956   0.502  0.3104 -1.2317 -0.5282
  500SOL     OW 1498   1.460   2.889   1.668  0.2281  0.3543 -0.4175
  500SOL    HW1 1499   1.459   2.893   1.773  2.2602  2.1720 -1.1672
  500SOL    HW2 1500   1.502   2.795   1.642 -0.8398 -1.8545 -1.7664
  501SOL     OW 1501   0.827   1.119   2.291  0.7147  0.0462  0.2957
  501SOL    HW1 1502   0.745   1.056   2.276 -1.5837 -2.6122  0.5844
  501SOL    HW2 1503   0.886   1.130   2.206  0.9247  1.0514  1.4032
  502SOL     OW 1504   2.628   0.945   1.726  0.0642 -0.4282  0.1059
  502SOL    HW1 1505   2.631   0.968   1.623 -0.2150  0.9723 -0.8272
  502SOL    HW2 1506   2.547   0.888   1.750  1.0868  1.7687 -0.0551
  503SOL     OW 1507   1.274   0.131   0.659 -0.6788  0.2011 -0.0905
  503SOL    HW1 1508   1.203   0.205   0.642 -0.2730  2.3038  1.4002
  503SOL    HW2 1509   1.362   0.182   0.694  3.2700 -3.1861 -1.1983
  504SOL     OW 1510   3.033   2.340   1.450  0.2603  0.4857 -0.0378
  504SOL    HW1 1511   2.967   2.410   1.482  0.9660  2.0405 -2.6930
  504SOL    HW2 1512   3.105   2.306   1.524  1.7016 -3.4492  0.4807
  505SOL     OW 1513   2.273   1.164   1.493 -0.3061 -0.0285  0.1429
  505SOL    HW1 1514   2.298   1.197   1.396  1.0267  2.5019 -0.7301
  505SOL    HW2 1515   2.281   1.238   1.560 -1.0025  1.6436  2.8752
  506SOL     OW 1516   1.992   0.162   1.806  0.2591 -0.4143 -0.0565
  506SOL    HW1 1517   2.054   0.099   1.861  0.9671 -2.3560 -0.1683
  506SOL    HW2 1518   1.978   0.254   1.851  0.5111  2.0812  1.8877
  507SOL     OW 1519   0.538   0.705   2.145  0.3000  0.3153  0.1440
  507SOL    HW1 1520   0.444   0.661   2.116 -1.0805  2.3774  0.8347
  507SOL    HW2 1521   0.605   0.627   2.171  4.8803 -1.2843 -1.0141
  508SOL     OW 1522   0.233   1.656   0.870 -0.5493  0.7324  0.6212
  508SOL    HW1 1523   0.270   1.731   0.810  1.0059 -1.6190  0.2483
  508SOL    HW2 1524   0.207   1.692   0.969  0.7825 -0.8624  3.2410
  509SOL     OW 1525   1.260   1.252   2.328  0.7910  0.1258 -0.2897
  509SOL    HW1 1526   1.287   1.286   2.237  2.4331 -1.6007 -1.3912
  509SOL    HW2 1527   1.257   1.142   2.315  1.5854 -2.6239 -0.8895
  510SOL     OW 1528   1.283   2.015   2.085  0.4053  0.1391 -0.4388
  510SOL    HW1 1529   1.296   2.118   2.083 -0.5711 -0.7378 -0.0533
  510SOL    HW2 1530   1.214   1.979   2.159 -2.1964  0.1424  0.8351
  511SOL     OW 1531   3.059   2.786   1.305  0.3105 -0.7302 -0.1993
  511SOL    HW1 1532   3.038   2.756   1.209 -0.5232  2.3436 -1.0077
  511SOL    HW2 1533   2.976   2.794   1.359  1.0930  0.7024 -1.5913
  512SOL     OW 1534   2.376   0.456   1.348 -0.5427 -0.2585  0.0839
  512SOL    HW1 1535   2.281   0.422   1.353  1.3559  4.1798  0.2394
  512SOL    HW2 1536   2.436   0.402   1.284 -0.0121 -1.2683  1.1285
  513SOL     OW 1537   2.532   2.046   0.837 -0.7086  0.5887  0.1645
  513SOL    HW1 1538   2.488   2.100   0.759  3.3092  1.1328  0.1307
  513SOL    HW2 1539   2.615   1.994   0.802 -0.3855 -0.9090 -2.4055
  514SOL     OW 1540   0.593   2.764   0.501  0.0928  0.1693  0.7422
  514SOL    HW1 1541   0.587   2.810   0.407 -0.6427  2.4263  1.3021
  514SOL    HW2 1542   0.657   2.813   0.568 -2.4272  0.2912  1.6811
  515SOL     OW 1543   2.017   1.128   2.323  0.5489 -0.4215 -0.5181
  515SOL    HW1 1544   2.007   1.126   2.218  0.0810 -0.8234  4.0475
  515SOL    HW2 1545   1.927   1.135   2.378  2.6560 -0.9975 -3.3675
  516SOL     OW 1546   0.211   0.332   1.900  0.5946  0.1773  0.0756
  516SOL    HW1 1547   0.279   0.309   1.826 -1.3047 -1.0109  2.7573
  516SOL    HW2 1548   0.135   0.263   1.904 -0.3805  2.8255 -0.7295
  517SOL     OW 1549   0.464   3.086   1.170  0.1320 -0.3031 -0.0687
  517SOL    HW1 1550   0.484   3.178   1.216 -1.6794  0.0898 -0.8776
  517SOL    HW2 1551   0.373   3.046   1.181  1.6989  0.9296 -0.3863
  518SOL     OW 1552   2.247   0.006   1.823 -0.2256  0.4892 -0.1683
  518SOL    HW1 1553   2.281   0.097   1.848  0.4993  1.3971 -0.0402
  518SOL    HW2 1554   2.272  -0.025   1.726  2.7527 -3.2813  0.1425
  519SOL     OW 1555   2.355   2.221   2.578  0.4889  0.3404  0.0146
  519SOL    HW1 1556   2.291   2.210   2.662 -1.5881 -0.5178  1.1201
  519SOL    HW2 1557   2.350   2.321   2.545  0.0499  0.4369 -1.6305
  520SOL     OW 1558   1.813   2.801   1.832 -0.0689  0.2132  0.9307
  520SOL    HW1 1559   1.712   2.798   1.861 -3.0086 -0.0764 -0.0830
  520SOL    HW2 1560   1.853   2.702   1.811  1.6805  0.0234 -0.2265
  521SOL     OW 1561   0.589   0.012   2.143 -0.0779  0.4826 -0.2082
  521SOL    HW1 1562   0.489  -0.017   2.153  0.2115 -0.8722 -0.0450
  521SOL    HW2 1563   0.636   0.003   2.232 -0.9126  0.3241 -0.8793
  522SOL     OW 1564   0.199   1.892   1.458  0.1725 -0.1831 -0.3691
  522SOL    HW1 1565   0.261   1.940   1.526  2.1677 -1.0830 -1.5815
  522SOL    HW2 1566   0.177   1.946   1.370  0.1019  0.2530 -1.4471
  523SOL     OW 1567   2.246   3.006   1.558  0.3275 -0.2803  0.0404
  523SOL    HW1 1568   2.343   2.961   1.555  1.1885 -0.4702  0.4996
  523SOL    HW2 1569   2.172   2.931   1.545 -0.8894 -0.3746  0.5334
  524SOL     OW 1570   0.169   2.819   2.844  0.4494  0.1135 -0.2827
  524SOL    HW1 1571   0.121   2.913   2.845  0.7762  1.1161 -1.4404
  524SOL    HW2 1572   0.274   2.815   2.836  0.5419  2.5992  1.1497
  525SOL     OW 1573   2.161   2.031   0.471  0.0022 -0.1277  0.3705
  525SOL    HW1 1574   2.171   1.971   0.559  0.7165  0.3217  1.7341
  525SOL    HW2 1575   2.168   1.982   0.380  1.1290 -0.2429 -0.8496
  526SOL     OW 1576   0.424   1.564   1.666 -0.3796 -0.3398  0.0839
  526SOL    HW1 1577   0.454   1.605   1.754 -0.3368 -1.3826 -0.3806
  526SOL    HW2 1578   0.467   1.470   1.639  0.1816  0.6766  0.3637
  527SOL     OW 1579   1.075   2.930   1.230  0.6713  0.3957  0.2787
  527SOL    HW1 1580   1.163   2.877   1.245  0.5886  1.2818  0.0997
  527SOL    HW2 1581   1.098   3.029   1.214  1.2118  0.1950 -0.7903
  528SOL     OW 1582   1.325   2.420   0.552  0.2164 -0.2601 -0.0677
  528SOL    HW1 1583   1.332   2.314   0.544 -0.3514 -0.4859 -0.9238
  528SOL    HW2 1584   1.412   2.463   0.591  0.0371 -1.4047 -2.6267
  529SOL     OW 1585   1.945   1.729   0.674  0.3706 -0.7054  0.2478
  529SOL    HW1 1586   1.886   1.740   0.582 -2.2097  0.9109  1.0692
  529SOL    HW2 1587   1.933   1.816   0.732  2.5327 -0.1476 -2.3780
  530SOL     OW 1588   0.301   2.610   0.297  0.0426 -0.6030 -0.1730
  530SOL    HW1 1589   0.284   2.681   0.372 -0.4779  0.6397  0.7833
  530SOL    HW2 1590   0.350   2.521   0.326 -0.6030  1.9672  1.2422
  531SOL     OW 1591   1.830   0.996   0.985 -0.3054  0.2246  0.4544
  531SOL    HW1 1592   1.893   0.974   0.910 -1.8274 -1.9019  2.3051
  531SOL    HW2 1593   1.732   0.975   0.958 -1.2988  0.0681 -0.0408
  532SOL     OW 1594   0.434   1.164   0.721  0.3448 -0.3511  0.7644
  532SOL    HW1 1595   0.475   1.165   0.621  0.4154 -0.3003 -1.8528
  532SOL    HW2 1596   0.396   1.072   0.753  0.0406 -1.1843 -0.9508
  533SOL     OW 1597   1.738   0.019   2.596  0.5717  0.5255  0.4836
  533SOL    HW1 1598   1.837  -0.009   2.600 -1.3511 -1.8310 -0.1110
  533SOL    HW2 1599   1.705   0.076   2.674  1.3586 -1.8906  0.1534
  534SOL     OW 1600   0.364   0.208   1.646 -0.3210  0.1578 -0.0334
  534SOL    HW1 1601   0.451   0.180   1.592  1.5865 -0.2038 -2.0204
  534SOL    HW2 1602   0.337   0.311   1.633 -1.7589  2.5674  0.7593
  535SOL     OW 1603   1.973   0.353   0.141  0.2563 -0.2788  0.3734
  535SOL    HW1 1604   1.984   0.420   0.220  0.9503 -1.2926 -2.4619
  535SOL    HW2 1605   1.936   0.260   0.170  1.3652  0.1925 -0.4983
  536SOL     OW 1606   1.400   2.569   0.929 -0.4189  0.4772 -0.3507
  536SOL    HW1 1607   1.389   2.522   1.023  0.0912 -0.5427  1.0267
  536SOL    HW2 1608   1.315   2.621   0.902  1.0910  0.3157 -0.0000
  537SOL     OW 1609   0.792   0.246   2.402  0.3798 -0.0657 -0.1065
  537SOL    HW1 1610   0.726   0.296   2.338 -1.5453  1.2634  1.2466
  537SOL    HW2 1611   0.754   0.148   2.422 -0.4206 -1.2769 -0.5877
  538SOL     OW 1612   1.647   2.373   1.562 -0.0874  0.2660  0.2508
  538SOL    HW1 1613   1.619   2.274   1.557 -1.5521 -1.0366 -0.6318
  538SOL    HW2 1614   1.726   2.386   1.494  2.1400 -3.3531 -1.1995
  539SOL     OW 1615   0.210   1.616   2.732 -0.3893  0.3999 -0.0048
  539SOL    HW1 1616   0.140   1.649   2.657  1.0311  2.3876  0.2827
  539SOL    HW2 1617   0.230   1.683   2.809  1.7751  0.9591 -1.3548
  540SOL     OW 1618   2.675   1.725   1.917 -0.2776  0.0804 -0.5667
  540SOL    HW1 1619   2.633   1.671   1.995 -2.3957  1.9394  2.8091
  540SOL    HW2 1620   2.634   1.825   1.912 -2.2923  4.1397  0.5180
  541SOL     OW 1621   0.470   2.199   0.020  0.2595 -0.0304  0.0249
  541SOL    HW1 1622   0.496   2.182   0.121 -3.3085  1.3762  0.6044
  541SOL    HW2 1623   0.371   2.179   0.008  1.6937 -0.4904  0.1200
  542SOL     OW 1624   2.251   2.588   0.444 -0.3989  0.2743 -0.2492
  542SOL    HW1 1625   2.240   2.688   0.432 -0.9442 -0.8082 -1.4749
  542SOL    HW2 1626   2.158   2.543   0.444  0.1874 -0.2210  1.0562
  543SOL     OW 1627   1.081   1.855   1.560 -0.1022  0.2059  0.4030
  543SOL    HW1 1628   1.088   1.919   1.638  0.2038 -1.4554 -1.2636
  543SOL    HW2 1629   1.068   1.905   1.469 -0.6529  0.9158  0.0682
  544SOL     OW 1630   1.025   0.424   0.185  0.8589  0.3770  0.6207
  544SOL    HW1 1631   1.074   0.355   0.249 -1.2002  1.4050  1.1094
  544SOL    HW2 1632   1.020   0.397   0.084  0.5114  0.7489  3.6382
  545SOL     OW 1633   1.100   1.724   0.809  0.2171  0.2019  0.1094
  545SOL    HW1 1634   1.201   1.757   0.794  1.1729  1.5941  2.3336
  545SOL    HW2 1635   1.098   1.636   0.864 -1.2487 -1.7490  1.1018
  546SOL     OW 1636   2.615   1.469   3.020 -0.6394 -0.1862  0.4090
  546SOL    HW1 1637   2.557   1.540   2.966 -1.2355  2.2521 -0.8425
  546SOL    HW2 1638   2.567   1.415   3.091 -3.2168  0.9823 -0.9449
  547SOL     OW 1639   0.612   3.030   2.674  0.3894 -0.5062 -0.4946
  547SOL    HW1 1640   0.716   3.004   2.651  1.0280  0.8072 -1.5293
  547SOL    HW2 1641   0.559   2.954   2.724  0.0338 -1.0336  1.7230
  548SOL     OW 1642   2.082   0.923   2.944 -0.0395  0.4345 -0.0614
  548SOL    HW1 1643   1.995   0.875   2.960  0.2049  0.2356  0.7884
  548SOL    HW2 1644   2.095   1.001   3.009 -2.2080 -0.6149 -3.7677
  549SOL     OW 1645   0.696   0.526   0.197  0.1174  0.0736 -0.1694
  549SOL    HW1 1646   0.618   0.560   0.130 -1.8417  1.6590 -1.3090
  549SOL    HW2 1647   0.785   0.587   0.198 -2.1319 -0.4908  0.2391
  550SOL     OW 1648   2.590   2.836   2.903  0.4479  0.0980 -0.0638
  550SOL    HW1 1649   2.560   2.771   2.981  0.2888  1.0075 -2.0025
  550SOL    HW2 1650   2.650   2.800   2.826 -0.4687  1.0827 -2.3283
  551SOL     OW 1651   0.272   0.866   0.229  0.1639 -0.4255 -0.0815
  551SOL    HW1 1652   0.371   0.836   0.217  0.0181  1.8448  1.5326
  551SOL    HW2 1653   0.252   0.886   0.329  0.7955 -0.4510  0.0713
  552SOL     OW 1654   0.643   2.954   1.908 -0.4899  0.2953  0.4537
  552SOL    HW1 1655   0.628   2.995   2.006  0.3600  2.1027  3.5945
  552SOL    HW2 1656   0.734   2.983   1.870 -0.1889  2.3163 -0.9885
  553SOL     OW 1657   2.953   2.504   0.367 -0.1057  0.1481  0.1342
  553SOL    HW1 1658   2.884   2.422   0.366 -2.9805 -1.7867 -0.2130
  553SOL    HW2 1659   2.968   2.534   0.462  0.6917 -2.0512  0.4469
  554SOL     OW 1660   2.145   0.390   0.568 -0.1699 -0.0704 -0.1204
  554SOL    HW1 1661   2.192   0.381   0.476 -0.4164  0.4968 -2.5981
  554SOL    HW2 1662   2.136   0.305   0.625 -1.2159  1.5032  2.0609
  555SOL     OW 1663   0.380   2.737   2.501 -0.0740  0.4425 -0.6721
  555SOL    HW1 1664   0.313   2.820   2.515 -1.8339  1.5102  0.3892
  555SOL    HW2 1665   0.415   2.732   2.404  1.0632 -0.3382 -3.1694
  556SOL     OW 1666   0.838   2.389   1.518 -0.0707 -0.1551  0.4020
  556SOL    HW1 1667   0.901   2.446   1.583  0.5025  0.6144 -1.5155
  556SOL    HW2 1668   0.894   2.354   1.437  2.2538 -1.5332  0.4030
  557SOL     OW 1669   0.126   2.098   0.230  0.6083 -0.1390  0.3169
  557SOL    HW1 1670   0.026   2.120   0.232  0.7865 -1.1830 -0.7226
  557SOL    HW2 1671   0.172   2.097   0.138  0.5957  0.8211  1.6176
  558SOL     OW 1672   2.807   2.282   0.351 -0.2833 -0.2499  0.3338
  558SOL    HW1 1673   2.707   2.279   0.365  1.6046  0.1317  2.5378
  558SOL    HW2 1674   2.841   2.196   0.310  0.5938 -1.5045  1.7470
  559SOL     OW 1675   0.373   2.276   1.406  0.3069 -0.0312  0.0583
  559SOL    HW1 1676   0.283   2.295   1.355 -1.6415 -1.7472 -0.7649
  559SOL    HW2 1677   0.424   2.196   1.366 -0.9538 -0.0141 -1.4995
  560SOL     OW 1678   2.121   1.191   3.073  0.1090  0.2840  0.3322
  560SOL    HW1 1679   2.121   1.189   3.177  0.8329 -1.0960 -0.7802
  560SOL    HW2 1680   2.175   1.272   3.034  1.1078  0.2614 -1.2441
  561SOL     OW 1681   3.073   1.853   0.022  0.6348 -0.1536 -0.4593
  561SOL    HW1 1682   3.024   1.807   0.099  0.2967  0.0481 -0.2495
  561SOL    HW2 1683   3.040   1.948   0.006  2.1357  0.1625 -2.6516
  562SOL     OW 1684   0.957   2.223   2.330 -0.0001  0.1900 -0.2096
  562SOL    HW1 1685   0.865   2.252   2.379 -0.6641 -2.3500  1.3442
  562SOL    HW2 1686   1.010   2.164   2.391 -4.7105 -2.2617  1.7526
  563SOL     OW 1687   0.693   2.585   2.624 -0.1951 -0.2453  0.1684
  563SOL    HW1 1688   0.781   2.528   2.617 -1.4030  0.3784  0.7616
  563SOL    HW2 1689   0.671   2.617   2.719 -0.7118  1.6693 -0.4183
  564SOL     OW 1690   2.828   1.336   2.903  0.2307  0.1940  0.1069
  564SOL    HW1 1691   2.737   1.374   2.928  0.8484  1.3442 -2.7175
  564SOL    HW2 1692   2.895   1.412   2.873 -0.5241  0.4895 -0.8203
  565SOL     OW 1693   2.531   1.999   2.643 -0.3145 -0.5275 -0.1847
  565SOL    HW1 1694   2.480   2.088   2.610 -0.5451  2.1606  1.4159
  565SOL    HW2 1695   2.623   2.026   2.684  1.6118  0.1962  1.4347
  566SOL     OW 1696   2.078   2.818   1.413 -0.1066  0.1373 -0.4616
  566SOL    HW1 1697   2.003   2.745   1.428 -3.0340 -0.4570 -1.7322
  566SOL    HW2 1698   2.053   2.878   1.332  1.9811 -0.5225 -0.4834
  567SOL     OW 1699   2.426   3.053   2.394  0.0420 -0.1692  0.4784
  567SOL    HW1 1700   2.329   3.076   2.383  0.8658  1.8113  2.9134
  567SOL    HW2 1701   2.482   3.096   2.316  2.1837 -0.8413  1.1500
  568SOL     OW 1702   1.538   1.739   0.208  0.1129 -0.1184  0.0709
  568SOL    HW1 1703   1.460   1.806   0.195  1.7968  2.6085  0.2007
  568SOL    HW2 1704   1.628   1.785   0.197  0.7124 -1.2320 -3.8270
  569SOL     OW 1705   0.276   0.635   0.843 -0.7687  0.2379 -0.0386
  569SOL    HW1 1706   0.344   0.571   0.799 -0.6551  2.1081 -2.9551
  569SOL    HW2 1707   0.185   0.620   0.804  3.4927  0.8706 -0.5923
  570SOL     OW 1708   0.634   0.863   2.936  0.6244 -0.1323  0.2730
  570SOL    HW1 1709   0.673   0.908   2.847  0.5119 -0.3960 -2.6180
  570SOL    HW2 1710   0.627   0.928   3.015 -0.0104  1.3462 -0.2618
  571SOL     OW 1711   0.790   3.069   1.054  0.0947  0.4708  0.6624
  571SOL    HW1 1712   0.860   3.113   0.983 -0.8598 -1.2925 -1.4303
  571SOL    HW2 1713   0.742   2.984   1.017 -1.2992  0.0604 -0.5668
  572SOL     OW 1714   1.640   2.591   1.338  0.0148  0.3340  0.3327
  572SOL    HW1 1715   1.569   2.544   1.281  4.1207  3.7471 -0.7688
  572SOL    HW2 1716   1.627   2.694   1.341 -0.1673  0.0911 -0.2632
  573SOL     OW 1717   2.899   0.493   2.003 -0.4901 -0.3787  0.2265
  573SOL    HW1 1718   2.824   0.432   1.979 -0.6437 -1.7139  0.2445
  573SOL    HW2 1719   2.975   0.499   1.928 -0.7103  0.9322 -1.2137
  574SOL     OW 1720   0.140   1.781   1.084  0.1133 -0.1497  0.1953
  574SOL    HW1 1721   0.182   1.878   1.104  4.1806  0.4910 -1.4135
  574SOL    HW2 1722   0.038   1.780   1.110 -1.5168  1.5537 -1.2851
  575SOL     OW 1723   0.830   2.187   0.922 -0.0494  0.2484  0.1387
  575SOL    HW1 1724   0.806   2.235   1.015 -0.7075  0.4968 -1.3554
  575SOL    HW2 1725   0.867   2.247   0.845 -0.0259 -0.5416 -1.1865
  576SOL     OW 1726   2.864   3.001   1.682 -0.3246  0.2904  0.0786
  576SOL    HW1 1727   2.762   3.001   1.678 -1.4348 -2.1608 -1.8299
  576SOL    HW2 1728   2.905   3.099   1.674  1.6072  0.9060 -2.2917
  577SOL     OW 1729   2.507   1.208   3.101  1.0354 -0.3872 -0.1532
  577SOL    HW1 1730   2.501   1.144   3.018 -2.6726  0.9184 -0.6216
  577SOL    HW2 1731   2.601   1.211   3.146 -0.1704 -0.2873  1.8363
  578SOL     OW 1732   1.460   2.710   2.441  0.7620 -0.3797  0.3715
  578SOL    HW1 1733   1.354   2.712   2.448 -0.0308 -1.8257  1.5762
  578SOL    HW2 1734   1.499   2.805   2.448 -3.3441 -0.9888 -1.4264
  579SOL     OW 1735   0.059   2.494   0.176 -0.0225 -0.5437  0.5860
  579SOL    HW1 1736  -0.031   2.500   0.229 -1.1239 -0.4979  0.3555
  579SOL    HW2 1737   0.143   2.501   0.237 -0.7898  2.5831 -0.1136
  580SOL     OW 1738   0.956   2.671   0.384  0.1806 -0.2209  0.2236
  580SOL    HW1 1739   1.014   2.713   0.303  0.1262 -2.4390 -1.6927
  580SOL    HW2 1740   0.897   2.598   0.349  0.8830  1.0872  2.2244
  581SOL     OW 1741   1.223   2.669   1.454  0.0797 -0.0526 -0.1546
  581SOL    HW1 1742   1.276   2.589   1.492 -3.0252 -0.4054  1.8575
  581SOL    HW2 1743   1.272   2.742   1.397  0.1967  2.3100  0.6039
  582SOL     OW 1744   1.504   0.095   1.856 -0.5617  0.6374  0.3401
  582SOL    HW1 1745   1.530   0.174   1.922  1.4416  0.2850 -0.9307
  582SOL    HW2 1746   1.581   0.056   1.795 -1.3146  0.5555  0.0382
  583SOL     OW 1747   2.444   3.071   0.525 -0.3174  0.5232 -0.7745
  583SOL    HW1 1748   2.531   3.018   0.512 -1.5798 -1.4654 -2.3881
  583SOL    HW2 1749   2.367   3.012   0.549  0.6349 -1.9927  1.0613
  584SOL     OW 1750   1.538   1.088   2.177 -0.5161  0.9177  0.5546
  584SOL    HW1 1751   1.600   1.162   2.145  3.0751 -3.9537  2.5127
  584SOL    HW2 1752   1.589   1.021   2.240  1.5411 -1.1029  0.6241
  585SOL     OW 1753   2.152   2.687   2.933 -0.6097  0.4405 -0.1517
  585SOL    HW1 1754   2.173   2.590   2.898  0.7493 -1.0329 -1.1149
  585SOL    HW2 1755   2.052   2.709   2.938  1.7471 -0.9998 -0.3562
  586SOL     OW 1756   2.823   0.351   1.628  0.2295 -0.2510  0.0380
  586SOL    HW1 1757   2.808   0.447   1.678 -2.7793 -1.4614  0.4981
  586SOL    HW2 1758   2.735   0.303   1.599 -2.0672 -0.6030  1.8361
  587SOL     OW 1759   2.091   1.539   2.658  0.1860 -0.4870  0.3821
  587SOL    HW1 1760   2.117   1.449   2.610  0.8002  0.4034 -0.2443
  587SOL    HW2 1761   2.103   1.527   2.759  0.3099  1.2601  0.1541
  588SOL     OW 1762   0.449   2.657   2.230  0.2018  0.5353 -0.3927
  588SOL    HW1 1763   0.354   2.651   2.190  1.6088  1.6803  1.3102
  588SOL    HW2 1764   0.487   2.571   2.280  0.4060 -2.9375 -0.3679
  589SOL     OW 1765   2.141   1.340   2.469  0.2333  0.0243 -0.0813
  589SOL    HW1 1766   2.102   1.258   2.414  1.4144 -1.8524 -1.5436
  589SOL    HW2 1767   2.245   1.327   2.479  0.0223 -0.6750  2.8672
  590SOL     OW 1768   2.335   1.712   2.041 -0.2500  0.4752 -0.1802
  590SOL    HW1 1769   2.372   1.618   2.040 -0.0089  0.4044  1.4612
  590SOL    HW2 1770   2.356   1.755   2.130  2.0131 -1.7878  0.9941
  591SOL     OW 1771   1.261   2.422   0.205 -0.5274 -0.0071  0.1495
  591SOL    HW1 1772   1.306   2.348   0.143  2.5746  1.7258 -1.5862
  591SOL    HW2 1773   1.294   2.414   0.299 -0.5243  0.8689  0.8065
  592SOL     OW 1774   1.762   2.296   0.733 -0.4665  0.6112 -0.3211
  592SOL    HW1 1775   1.707   2.338   0.658  1.1801 -2.1061 -0.2963
  592SOL    HW2 1776   1.864   2.295   0.709  1.0029  1.5874  0.6227
  593SOL     OW 1777   0.704   0.232   0.219 -0.2521 -0.0290  0.1797
  593SOL    HW1 1778   0.744   0.214   0.125  1.1700  4.2244  1.4872
  593SOL    HW2 1779   0.701   0.337   0.225 -1.0282 -0.0201 -0.7466
  594SOL     OW 1780   1.013   1.823   2.688  0.0422  0.2331  0.3625
  594SOL    HW1 1781   1.089   1.778   2.635 -2.9754 -2.9537  0.1561
  594SOL    HW2 1782   1.045   1.889   2.761 -1.0376 -1.7148 -2.3171
  595SOL     OW 1783   1.550   0.040   1.077 -0.0109  0.1968 -0.5158
  595SOL    HW1 1784   1.610  -0.013   1.014  1.4743 -0.4561  0.1861
  595SOL    HW2 1785   1.449   0.021   1.064 -0.1213 -0.1379 -0.7511
  596SOL     OW 1786   0.044   1.521   2.268  0.2892  0.8421  0.2087
  596SOL    HW1 1787   0.082   1.423   2.252 -1.1270  1.1719 -0.1707
  596SOL    HW2 1788   0.016   1.543   2.367 -1.0452  1.9887 -2.3151
  597SOL     OW 1789   1.927   2.591   1.730  0.0187  0.6315  0.3387
  597SOL    HW1 1790   1.926   2.594   1.624 -0.7611 -1.8183  0.8805
  597SOL    HW2 1791   2.019   2.556   1.755 -0.2170  3.8018 -1.7415
  598SOL     OW 1792   2.550   2.921   1.219 -0.0844 -0.3280 -0.1351
  598SOL    HW1 1793   2.625   2.941   1.289 -1.6698  0.6318  0.6695
  598SOL    HW2 1794   2.579   2.925   1.119 -0.6646 -0.9107 -1.3877
  599SOL     OW 1795   2.878   0.322   2.483  0.1433 -0.4489 -0.5466
  599SOL    HW1 1796   2.949   0.383   2.439 -0.5688 -1.3912 -0.4596
  599SOL    HW2 1797   2.787   0.370   2.470  2.1064  1.6276  3.0041
  600SOL     OW 1798   2.802   1.107   2.733  0.4852 -0.6381 -0.0347
  600SOL    HW1 1799   2.779   1.018   2.779 -0.3922 -1.0066  0.5563
  600SOL    HW2 1800   2.777   1.197   2.783  0.4694  0.5621 -2.8690
  601SOL     OW 1801   3.035   1.317   2.007  0.4243  0.1592  0.1212
  601SOL    HW1 1802   2.958   1.339   1.947  1.7645 -1.7866 -0.3039
  601SOL    HW2 1803   3.112   1.390   2.001 -0.5384  2.4657  1.3515
  602SOL     OW 1804   1.438   1.732   2.285  0.4624 -0.7234 -0.1343
  602SOL    HW1 1805   1.368   1.671   2.341 -0.2126 -2.0228 -0.7829
  602SOL    HW2 1806   1.522   1.755   2.339 -0.5909  0.9347  1.1950
  603SOL     OW 1807   0.611   1.211   2.798  0.0356  0.1698  0.3522
  603SOL    HW1 1808   0.527   1.208   2.740 -0.4020 -0.8273  1.3276
  603SOL    HW2 1809   0.683   1.135   2.788  0.5210 -1.8810 -0.4955
  604SOL     OW 1810   2.399   1.000   0.165  0.0794 -0.3362  0.0210
  604SOL    HW1 1811   2.432   1.075   0.102  0.0145  0.1549  0.1670
  604SOL    HW2 1812   2.378   0.915   0.116  1.0872  0.8280  3.2776
  605SOL     OW 1813   2.509   1.129   1.921 -0.2592  0.1450 -0.3204
  605SOL    HW1 1814   2.563   1.079   1.842  0.5892 -1.2230  0.3547
  605SOL    HW2 1815   2.566   1.144   2.005 -0.2929  0.5449 -1.3057
  606SOL     OW 1816   1.561   2.480   2.573 -0.0414  0.5132  0.2820
  606SOL    HW1 1817   1.520   2.567   2.534 -1.4454 -1.3169  3.3924
  606SOL    HW2 1818   1.498   2.397   2.549  3.8069 -2.9200 -1.5314
  607SOL     OW 1819   1.330   1.582   0.319  0.2191  0.3391 -0.4332
  607SOL    HW1 1820   1.274   1.652   0.363  0.4838  0.6251  0.6843
  607SOL    HW2 1821   1.423   1.620   0.293  0.5504 -0.0554 -1.4495
  608SOL     OW 1822   1.448   2.815   0.402  0.4053  0.2005 -0.0563
  608SOL    HW1 1823   1.490   2.862   0.320  0.1366  3.2036 -0.1397
  608SOL    HW2 1824   1.373   2.871   0.446 -1.8893 -0.7556  0.3931
  609SOL     OW 1825   1.275   1.320   0.270  0.1486 -0.3983  0.2443
  609SOL    HW1 1826   1.289   1.419   0.298 -0.7762 -2.6063  2.7975
  609SOL    HW2 1827   1.219   1.316   0.183 -2.8393  0.3775 -2.0764
  610SOL     OW 1828   2.945   1.149   2.220  0.1420 -0.3504 -0.3310
  610SOL    HW1 1829   2.930   1.047   2.212 -1.7108 -0.4457 -2.0321
  610SOL    HW2 1830   2.977   1.192   2.131  0.4101  1.3617  0.6518
  611SOL     OW 1831   2.515   0.293   1.166 -0.2707  0.0823  0.1936
  611SOL    HW1 1832   2.458   0.208   1.185 -0.3256  0.3641 -0.0809
  611SOL    HW2 1833   2.606   0.296   1.214  0.2504  0.7682 -1.9532
  612SOL     OW 1834   0.753   2.254   1.184 -0.1646  0.2038  0.4544
  612SOL    HW1 1835   0.689   2.182   1.229  0.2259 -4.5049 -1.1020
  612SOL    HW2 1836   0.713   2.347   1.154  0.0288 -2.4926  1.4838
  613SOL     OW 1837   0.801   1.371   2.394 -0.2903 -0.3962 -0.1297
  613SOL    HW1 1838   0.794   1.443   2.321 -0.6871  0.3384 -0.6864
  613SOL    HW2 1839   0.787   1.271   2.367  0.8001 -1.0671 -0.4238
  614SOL     OW 1840   1.561   1.693   1.975  0.2018  0.5186  0.0540
  614SOL    HW1 1841   1.496   1.757   1.933  0.8452  0.2928 -0.7906
  614SOL    HW2 1842   1.641   1.740   2.021  1.1231  1.8035 -2.9683
  615SOL     OW 1843   0.789   1.360   1.741 -0.9626 -0.1670  0.4329
  615SOL    HW1 1844   0.729   1.307   1.673  0.9613 -2.6506  0.0934
  615SOL    HW2 1845   0.867   1.411   1.691  2.1307  1.1906 -2.5653
  616SOL     OW 1846   1.072   1.628   2.157  0.4547  0.0523  0.4860
  616SOL    HW1 1847   0.972   1.607   2.160 -0.7167  3.2774  0.0412
  616SOL    HW2 1848   1.100   1.654   2.061 -1.7833 -1.7195  2.0465
  617SOL     OW 1849   2.961   1.577   1.547  0.0005 -0.4259 -0.6045
  617SOL    HW1 1850   2.957   1.516   1.632 -0.6194  1.3919 -1.1595
  617SOL    HW2 1851   2.962   1.519   1.465  0.7040  2.4938  1.3724
  618SOL     OW 1852   1.919   2.045   1.424 -0.1487  0.0540 -0.3059
  618SOL    HW1 1853   1.974   2.022   1.341  2.6135 -0.2927 -0.7272
  618SOL    HW2 1854   1.861   1.967   1.456  0.1736 -1.0889 -0.4483
  619SOL     OW 1855   1.745   0.501   2.405  0.1761 -0.0590 -0.3503
  619SOL    HW1 1856   1.670   0.542   2.349  2.2452  2.9604  0.2181
  619SOL    HW2 1857   1.737   0.398   2.416  1.3378 -0.4353  0.2399
  620SOL     OW 1858   2.203   2.981   0.618 -0.3120 -0.0569 -0.3295
  620SOL    HW1 1859   2.150   3.073   0.635 -1.0818 -1.2665 -2.2477
  620SOL    HW2 1860   2.216   2.923   0.702 -1.4731 -1.2505 -0.6431
  621SOL     OW 1861   2.133   1.857   1.306 -0.0747 -0.0220 -0.2844
  621SOL    HW1 1862   2.129   1.864   1.410  0.7002 -1.1754 -1.0516
  621SOL    HW2 1863   2.106   1.764   1.280 -0.0480 -0.8490  0.7845
  622SOL     OW 1864   2.213   0.873   1.786 -0.7252 -0.5750  0.0959
  622SOL    HW1 1865   2.316   0.860   1.762 -0.3332 -0.1916  1.1630
  622SOL    HW2 1866   2.185   0.795   1.852 -0.6580 -0.5102  0.9856
  623SOL     OW 1867   1.372   0.803   2.629  0.5601 -0.2856  0.2527
  623SOL    HW1 1868   1.319   0.748   2.705  0.0331 -0.2684  0.5193
  623SOL    HW2 1869   1.314   0.833   2.546  0.1005 -1.5423  0.1016
  624SOL     OW 1870   0.551   0.638   0.001 -0.6867  0.5015  0.6890
  624SOL    HW1 1871   0.591   0.692  -0.073 -2.6568 -1.9116  2.9994
  624SOL    HW2 1872   0.526   0.707   0.077 -0.1855 -0.0166  0.5657
  625SOL     OW 1873   2.815   1.752   0.950 -0.2529 -0.1994 -0.1122
  625SOL    HW1 1874   2.716   1.735   0.966  1.0261 -0.0254  1.0131
  625SOL    HW2 1875   2.871   1.726   1.032  0.6546 -2.3764 -0.8205
  626SOL     OW 1876   0.587   2.673   1.858 -0.5894 -0.0337 -0.3773
  626SOL    HW1 1877   0.613   2.762   1.907 -0.0148 -1.4644  0.3217
  626SOL    HW2 1878   0.486   2.675   1.831 -0.0842 -0.8005  2.3642
  627SOL     OW 1879   0.715   0.980   1.550  0.4751 -0.0417 -0.2838
  627SOL    HW1 1880   0.775   0.911   1.590 -0.4067  1.5284  1.4365
  627SOL    HW2 1881   0.765   1.038   1.481 -2.2258 -0.6328 -1.4889
  628SOL     OW 1882   2.393   0.167   0.727 -0.1991  0.0872 -0.1268
  628SOL    HW1 1883   2.429   0.083   0.682  0.7240  0.6454 -1.6382
  628SOL    HW2 1884   2.289   0.152   0.751  0.3439 -1.3515  2.3682
  629SOL     OW 1885   1.972   0.900   2.013  0.0193  0.2512 -0.3437
  629SOL    HW1 1886   2.076   0.910   2.006  0.7246  1.2750  3.3247
  629SOL    HW2 1887   1.933   0.998   2.027  0.8625 -0.1927 -1.0317
  630SOL     OW 1888   2.832   2.211   0.781  0.1591  0.2140 -0.5443
  630SOL    HW1 1889   2.764   2.283   0.793  1.3615 -1.2459 -1.1510
  630SOL    HW2 1890   2.797   2.112   0.791  0.7382 -1.8745 -4.1758
  631SOL     OW 1891   2.942   0.141   2.117  0.2890  0.1872  0.2058
  631SOL    HW1 1892   2.960   0.196   2.202 -0.9772 -0.1943 -1.8717
  631SOL    HW2 1893   3.031   0.128   2.057  1.9277  1.8078 -1.0370
  632SOL     OW 1894   2.424   2.518   0.658  0.4322 -0.2862 -0.1205
  632SOL    HW1 1895   2.474   2.610   0.675 -2.6704  3.1610 -2.0034
  632SOL    HW2 1896   2.405   2.512   0.556 -1.6583 -1.5497  0.6397
  633SOL     OW 1897   1.475   1.280   2.521  0.1854  0.0588  0.2701
  633SOL    HW1 1898   1.478   1.357   2.590 -0.2105  0.7373  0.8462
  633SOL    HW2 1899   1.395   1.296   2.457 -1.0696  0.2728 -0.6165
  634SOL     OW 1900   0.653   1.979   0.914  0.2521  0.0345  0.1037
  634SOL    HW1 1901   0.576   1.988   0.985 -1.3012  1.0278  0.2608
  634SOL    HW2 1902   0.720   2.058   0.909  1.2705 -0.4225 -0.4921
  635SOL     OW 1903   3.093   2.322   3.054  0.2424 -0.1159  0.1490
  635SOL    HW1 1904   3.028   2.384   2.994 -1.9034  0.1808 -2.5436
  635SOL    HW2 1905   3.131   2.372   3.139  0.9109  3.2072 -0.6916
  636SOL     OW 1906   2.288   2.716   2.075  0.2937 -0.0325 -0.3295
  636SOL    HW1 1907   2.291   2.825   2.079 -1.7638  1.1938  2.1582
  636SOL    HW2 1908   2.275   2.673   2.168  1.9729 -0.9789  2.0032
  637SOL     OW 1909   2.583   0.712   2.025  0.0766 -0.8880  0.5646
  637SOL    HW1 1910   2.541   0.712   1.928  0.0426 -0.9125  0.4118
  637SOL    HW2 1911   2.622   0.804   2.057  0.4294  1.0498  2.0128
  638SOL     OW 1912   2.392   1.828   1.274  0.1761  0.7018 -0.0059
  638SOL    HW1 1913   2.290   1.852   1.281  2.3239 -0.9442 -2.4647
  638SOL    HW2 1914   2.421   1.769   1.354  0.1046  0.6314 -1.6076
  639SOL     OW 1915   1.320   2.215   1.699  0.1448  0.4381 -0.6329
  639SOL    HW1 1916   1.359   2.191   1.608 -0.4718  0.8304  1.3400
  639SOL    HW2 1917   1.222   2.185   1.719  0.2049  1.4244 -0.8718
  640SOL     OW 1918   0.198   1.186   1.558 -0.1771  0.5999  0.0308
  640SOL    HW1 1919   0.184   1.236   1.648 -1.0973  0.6090 -1.6611
  640SOL    HW2 1920   0.276   1.120   1.554 -1.3526 -1.3188  3.2901
  641SOL     OW 1921   2.046   0.105   1.535  0.1188 -0.4765 -0.7008
  641SOL    HW1 1922   2.005   0.107   1.629  2.3035 -0.0812  0.1572
  641SOL    HW2 1923   2.129   0.040   1.536  0.5381  2.0629 -1.2975
  642SOL     OW 1924   1.953   0.117   0.289  0.2310 -0.1535 -0.1180
  642SOL    HW1 1925   2.038   0.122   0.346 -2.6090  1.4976 -1.1627
  642SOL    HW2 1926   1.882   0.062   0.332  2.4789  1.6666 -1.1803
  643SOL     OW 1927   2.884   1.867   2.071  0.2217  0.2701 -0.3435
  643SOL    HW1 1928   2.834   1.779   2.048  0.2929  1.5365  1.2958
  643SOL    HW2 1929   2.893   1.935   1.993 -0.6793  2.0897  2.2530
  644SOL     OW 1930   2.262   2.352   1.201 -0.2605  0.0343 -0.1364
  644SOL    HW1 1931   2.317   2.269   1.165  2.4630 -3.2335  1.4512
  644SOL    HW2 1932   2.234   2.349   1.301 -0.2224 -3.8870 -0.0710
  645SOL     OW 1933   0.636   0.870   1.224 -0.1100 -0.0695 -0.9966
  645SOL    HW1 1934   0.534   0.858   1.224 -0.3872  2.3360 -1.4790
  645SOL    HW2 1935   0.679   0.880   1.129 -0.7575  2.1056  0.8268
  646SOL     OW 1936   1.428   1.935   1.879  0.1977 -0.3040 -0.2705
  646SOL    HW1 1937   1.517   1.989   1.878 -0.8247 -1.1488 -0.6612
  646SOL    HW2 1938   1.365   1.963   1.956 -2.0438 -0.0366 -0.2425
  647SOL     OW 1939   0.811   1.042   0.649 -0.0536 -0.8898  0.0807
  647SOL    HW1 1940   0.885   1.047   0.721  3.0362 -0.6405  0.1506
  647SOL    HW2 1941   0.744   0.963   0.666 -0.2487 -2.2750 -3.1429
  648SOL     OW 1942   0.139   0.181   0.233  0.0909  0.0514  0.4672
  648SOL    HW1 1943   0.183   0.115   0.160  0.3977 -1.7568 -0.2895
  648SOL    HW2 1944   0.103   0.268   0.192 -0.0348 -0.9690 -1.4160
  649SOL     OW 1945   3.056   0.242   0.893 -0.0241 -0.3568  0.3311
  649SOL    HW1 1946   3.125   0.164   0.893  0.1692 -0.6348  0.9850
  649SOL    HW2 1947   3.093   0.320   0.948  0.5251  1.2580 -1.7118
  650SOL     OW 1948   2.721   0.667   1.434 -0.0510  0.4538 -0.4084
  650SOL    HW1 1949   2.629   0.628   1.459  1.6793  1.0309  1.4084
  650SOL    HW2 1950   2.709   0.765   1.391  2.2251  0.5830 -2.1451
  651SOL     OW 1951   0.948   1.558   1.606  0.1808  0.5762  0.3045
  651SOL    HW1 1952   0.956   1.658   1.618 -0.8015 -2.2293  1.5742
  651SOL    HW2 1953   0.980   1.531   1.513  1.4555 -0.8623 -0.5793
  652SOL     OW 1954   2.261   2.487   2.512  0.1432  0.6165  0.0173
  652SOL    HW1 1955   2.191   2.480   2.588  2.0451  1.4175 -2.1782
  652SOL    HW2 1956   2.225   2.548   2.437 -2.4064 -2.3604 -0.5709
  653SOL     OW 1957   2.714   1.198   0.171  0.3707 -0.3893 -0.0278
  653SOL    HW1 1958   2.739   1.286   0.223 -0.0732  2.0039 -0.5105
  653SOL    HW2 1959   2.781   1.121   0.200 -0.7947 -0.6419 -1.4113
  654SOL     OW 1960   1.277   2.265   1.233 -0.6427 -0.0062 -0.2925
  654SOL    HW1 1961   1.280   2.199   1.318 -0.8050 -0.5374  0.8109
  654SOL    HW2 1962   1.318   2.226   1.144 -0.4228  1.3543  0.8177
  655SOL     OW 1963   0.210   0.955   1.857  0.1967 -0.5502  0.0254
  655SOL    HW1 1964   0.259   0.882   1.804  2.9413  2.1078 -2.5116
  655SOL    HW2 1965   0.276   1.035   1.872  0.9663 -1.9664  0.7730
  656SOL     OW 1966   2.540   2.510   2.628 -0.0537 -0.3072 -0.9459
  656SOL    HW1 1967   2.613   2.475   2.560 -2.5648  0.8716  1.0047
  656SOL    HW2 1968   2.454   2.523   2.571  2.4336  1.8108 -4.7887
  657SOL     OW 1969   3.062   1.050   1.923 -0.0742 -0.2904 -0.6645
  657SOL    HW1 1970   3.056   1.155   1.941 -0.6138 -2.0716  1.4776
  657SOL    HW2 1971   3.158   1.013   1.905  0.0353 -1.2945 -0.1094
  658SOL     OW 1972   1.718   0.229   2.430 -0.0654 -0.4246 -0.1159
  658SOL    HW1 1973   1.729   0.155   2.505 -3.5458 -0.1425 -0.3837
  658SOL    HW2 1974   1.765   0.199   2.340  1.1495  0.1038  1.7160
  659SOL     OW 1975   1.454   0.646   2.946  0.1629 -0.0986  0.0243
  659SOL    HW1 1976   1.494   0.737   2.920 -1.8272 -1.6906 -0.2681
  659SOL    HW2 1977   1.354   0.637   2.915  0.2345  1.2003 -1.7804
  660SOL     OW 1978   1.432   0.326   1.452  0.3692 -0.0439 -0.1567
  660SOL    HW1 1979   1.488   0.334   1.537  2.8688  1.8868  0.0693
  660SOL    HW2 1980   1.467   0.256   1.386 -2.5275 -0.2148  3.1425
  661SOL     OW 1981   2.493   1.164   0.683 -0.0398 -0.8143 -0.2336
  661SOL    HW1 1982   2.502   1.140   0.582 -0.3441  0.1493 -2.3028
  661SOL    HW2 1983   2.431   1.250   0.700 -0.3840  0.4207  2.0638
  662SOL     OW 1984   1.373   0.438   1.839 -0.3366 -0.4618 -0.3077
  662SOL    HW1 1985   1.307   0.365   1.805 -0.5306  1.0373  0.3678
  662SOL    HW2 1986   1.342   0.481   1.929  1.7868 -0.7594 -1.0198
  663SOL     OW 1987   0.786   1.563   2.157  0.7670  0.0869 -0.5338
  663SOL    HW1 1988   0.747   1.655   2.189 -3.5093  2.8842  1.0196
  663SOL    HW2 1989   0.729   1.510   2.086  1.8832 -0.1543 -0.6950
  664SOL     OW 1990   1.634   2.114   1.469 -0.0800 -0.1285 -0.6411
  664SOL    HW1 1991   1.594   2.038   1.531  0.9838  0.6837 -0.9918
  664SOL    HW2 1992   1.736   2.133   1.481  0.3292 -0.4074  1.6878
  665SOL     OW 1993   2.245   0.656   1.950 -0.3232  0.6595 -0.0732
  665SOL    HW1 1994   2.265   0.558   1.978 -1.7626  1.4959  1.0689
  665SOL    HW2 1995   2.234   0.722   2.026 -0.7433  0.6286 -1.6778
  666SOL     OW 1996   0.397   2.351   0.436  0.2934  0.0883  0.1399
  666SOL    HW1 1997   0.469   2.414   0.482 -1.1355 -0.3149  2.2949
  666SOL    HW2 1998   0.358   2.280   0.492  0.5887  1.2799 -1.9748
  667SOL     OW 1999   2.006   0.188   1.140 -0.1122  1.2692 -0.4286
  667SOL    HW1 2000   2.029   0.287   1.175 -1.2910  1.1324  2.1617
  667SOL    HW2 2001   1.913   0.148   1.169  0.9474 -1.5290  0.7706
  668SOL     OW 2002   1.996   0.464   1.185  0.2253 -0.4567 -0.8470
  668SOL    HW1 2003   2.070   0.491   1.121 -1.2871 -1.9232  1.0223
  668SOL    HW2 2004   2.035   0.434   1.274 -0.3899  1.2261  1.3062
  669SOL     OW 2005   3.024   2.259   0.996 -0.1146  0.6805 -0.0648
  669SOL    HW1 2006   2.966   2.223   0.917 -4.1832  0.9055 -0.7149
  669SOL    HW2 2007   2.991   2.247   1.094 -1.8123 -1.4634  1.9142
  670SOL     OW 2008   2.867   2.344   1.959  0.0059  0.1715  0.3566
  670SOL    HW1 2009   2.823   2.305   2.044 -0.2550 -0.0617  1.4677
  670SOL    HW2 2010   2.832   2.445   1.945  1.6943  1.2398  0.7893
  671SOL     OW 2011   1.782   1.736   1.449  0.2835  0.2225  0.1939
  671SOL    HW1 2012   1.788   1.764   1.346  2.0117  0.1300 -2.8084
  671SOL    HW2 2013   1.695   1.685   1.475  1.3292  2.8846  2.0309
  672SOL     OW 2014   0.376   0.600   2.373  0.1153 -0.2714  0.3342
  672SOL    HW1 2015   0.444   0.654   2.318  1.3802  1.1061  0.1079
  672SOL    HW2 2016   0.284   0.653   2.391 -0.3543  2.3720  1.3100
  673SOL     OW 2017   0.150   1.170   1.132  0.1365  0.0923 -0.4542
  673SOL    HW1 2018   0.187   1.241   1.198 -0.1458  0.1346  1.7906
  673SOL    HW2 2019   0.221   1.113   1.087 -1.2575  4.0783 -3.0567
  674SOL     OW 2020   1.601   2.936   0.209 -0.2431 -0.3069 -0.3832
  674SOL    HW1 2021   1.617   3.034   0.180  1.0807 -1.3697  0.0831
  674SOL    HW2 2022   1.586   2.863   0.131  1.0009 -0.9952  1.0399
  675SOL     OW 2023   1.667   0.868   2.295  0.1637  0.6328 -0.7813
  675SOL    HW1 2024   1.758   0.817   2.267  1.0232 -4.2346  0.4193
  675SOL    HW2 2025   1.586   0.804   2.305  1.9148 -0.9609  0.7026
  676SOL     OW 2026   2.483   1.492   2.039 -0.0636  1.1298 -0.0952
  676SOL    HW1 2027   2.486   1.460   1.944 -0.8945 -0.1160  1.8927
  676SOL    HW2 2028   2.539   1.431   2.104 -0.7247  2.3908  2.5714
  677SOL     OW 2029   1.930   0.673   0.828 -0.6125 -0.1285  0.6078
  677SOL    HW1 2030   1.942   0.701   0.929  0.3757 -0.9987  2.3049
  677SOL    HW2 2031   1.949   0.569   0.821  0.4795 -1.6728 -0.6929
  678SOL     OW 2032   0.047   0.738   1.661  0.0188 -0.0076  0.1941
  678SOL    HW1 2033   0.146   0.730   1.674 -0.6944  0.9152 -0.9445
  678SOL    HW2 2034  -0.011   0.737   1.748  2.1268  0.7604 -0.1164
  679SOL     OW 2035   2.603   1.157   1.130 -0.2849  0.0581  0.4189
  679SOL    HW1 2036   2.506   1.178   1.161 -1.3699  0.9377  1.5946
  679SOL    HW2 2037   2.623   1.062   1.097  1.4528  1.6126 -2.4823
  680SOL     OW 2038   2.788   0.633   1.704  0.6724  0.3011  0.1280
  680SOL    HW1 2039   2.770   0.647   1.602 -2.2562 -1.4147  0.3932
  680SOL    HW2 2040   2.840   0.713   1.748  3.2325  0.4321  0.4532
  681SOL     OW 2041   2.990   0.132   1.613  0.0664 -0.4214 -0.4960
  681SOL    HW1 2042   3.076   0.131   1.553 -2.5630 -2.1471  1.1722
  681SOL    HW2 2043   2.937   0.219   1.599  1.0160 -1.9994  1.1392
  682SOL     OW 2044   0.750   0.038   1.304  0.9685 -0.1228 -0.0014
  682SOL    HW1 2045   0.702  -0.032   1.365  4.2761  1.0327 -0.1679
  682SOL    HW2 2046   0.767  -0.001   1.207  0.0144 -1.9169  2.4305
  683SOL     OW 2047   1.333   0.213   2.174  0.5167 -0.0267 -0.3192
  683SOL    HW1 2048   1.291   0.295   2.222  0.5869  1.7876  1.3674
  683SOL    HW2 2049   1.432   0.231   2.143  0.2561 -2.2919 -1.6562
  684SOL     OW 2050   1.476   2.169   0.573  0.1401  0.5835  0.3311
  684SOL    HW1 2051   1.552   2.121   0.628 -0.0835 -1.2054 -0.6084
  684SOL    HW2 2052   1.395   2.104   0.552 -0.1905  0.3314  0.1537
  685SOL     OW 2053   2.165   2.005   1.931  0.6731 -0.0850 -0.7459
  685SOL    HW1 2054   2.234   2.034   1.858  1.1217  1.7916  2.6283
  685SOL    HW2 2055   2.195   1.914   1.973 -0.2026 -2.4964  0.8614
  686SOL     OW 2056   1.509   1.785   2.763  0.1655 -0.4583  0.0468
  686SOL    HW1 2057   1.533   1.742   2.855  0.0444  1.1929  2.4334
  686SOL    HW2 2058   1.541   1.728   2.683 -0.3383 -0.5041 -2.1158
  687SOL     OW 2059   1.271   2.502   1.941  0.2843 -0.5742 -0.2770
  687SOL    HW1 2060   1.339   2.422   1.953  0.8543  2.0744 -0.5163
  687SOL    HW2 2061   1.289   2.567   2.016 -0.0314 -1.4289 -2.7305
  688SOL     OW 2062   2.083   1.541   1.719  0.8110  0.0674  0.3167
  688SOL    HW1 2063   2.181   1.579   1.720  1.0823 -0.5332  0.8060
  688SOL    HW2 2064   2.045   1.515   1.626  2.6051  2.6889  1.2506
  689SOL     OW 2065   2.483   1.085   2.707  0.2467  0.2677  0.8672
  689SOL    HW1 2066   2.376   1.067   2.713 -4.1003 -2.2509 -2.7621
  689SOL    HW2 2067   2.531   1.074   2.798  0.7114 -2.9677  0.4325
  690SOL     OW 2068   2.254   2.794   0.055  0.0047 -0.0105  0.4413
  690SOL    HW1 2069   2.207   2.766  -0.032  1.0065  2.9757  1.2029
  690SOL    HW2 2070   2.191   2.822   0.133 -3.5710  1.1003 -2.5110
  691SOL     OW 2071   2.556   0.457   2.109  0.4351 -0.6049  0.3040
  691SOL    HW1 2072   2.603   0.379   2.057 -0.5808  1.4526 -0.0353
  691SOL    HW2 2073   2.569   0.551   2.060 -0.9700  1.9009  0.1918
  692SOL     OW 2074   2.778   1.218   0.720  0.0625 -0.4536 -0.3106
  692SOL    HW1 2075   2.677   1.211   0.691 -0.2921  2.1233  0.9871
  692SOL    HW2 2076   2.802   1.311   0.753  0.0866 -1.6671  0.7856
  693SOL     OW 2077   2.785   2.936   0.641  0.1248  0.3576  0.2519
  693SOL    HW1 2078   2.791   3.025   0.693 -0.1085  1.4878  0.2842
  693SOL    HW2 2079   2.728   2.947   0.556  2.6552 -0.8739  1.3001
  694SOL     OW 2080   2.431   2.221   0.089  0.1750  0.2957  0.0017
  694SOL    HW1 2081   2.392   2.312   0.106 -0.7563 -1.7427  0.2602
  694SOL    HW2 2082   2.362   2.144   0.074  1.9965  0.0982  0.9940
  695SOL     OW 2083   0.616   2.962   1.473  0.5622  0.3725 -0.1031
  695SOL    HW1 2084   0.553   2.886   1.432 -0.9376  1.4295  0.0250
  695SOL    HW2 2085   0.573   3.005   1.561 -0.9604  0.9403 -0.5150
  696SOL     OW 2086   2.758   1.933   0.746 -1.0658 -0.6708 -0.0684
  696SOL    HW1 2087   2.753   1.849   0.808  0.5467  1.4533  1.0262
  696SOL    HW2 2088   2.822   1.924   0.662 -0.9236 -0.8692 -2.5009
  697SOL     OW 2089   1.660   2.074   1.848  0.2085 -0.2892  0.4679
  697SOL    HW1 2090   1.747   2.030   1.891  0.0583 -1.6390  0.5527
  697SOL    HW2 2091   1.696   2.155   1.797  3.2775  2.7817  1.5810
  698SOL     OW 2092   2.963   0.397   2.740 -0.0745 -0.4016 -0.1304
  698SOL    HW1 2093   2.935   0.357   2.645 -1.8532 -0.9459 -0.7083
  698SOL    HW2 2094   3.014   0.334   2.800  1.5424 -0.1978  0.7398
  699SOL     OW 2095   1.559   0.049   2.927 -0.4732 -0.7193  0.2157
  699SOL    HW1 2096   1.541  -0.044   2.879  0.7892 -1.2635 -3.1220
  699SOL    HW2 2097   1.622   0.107   2.860 -0.0099 -0.9111  0.8572
  700SOL     OW 2098   1.007   2.311   1.309 -0.2517  0.6269 -0.1527
  700SOL    HW1 2099   1.102   2.284   1.280  0.3370  0.4342 -0.3847
  700SOL    HW2 2100   0.935   2.274   1.240 -1.2609  0.9818  1.4414
  701SOL     OW 2101   1.927   2.837   3.062 -0.1018 -0.0157  0.1246
  701SOL    HW1 2102   1.891   2.780   3.142 -0.0645 -1.7709  0.5953
  701SOL    HW2 2103   1.951   2.930   3.096  2.6229 -0.1592  0.8052
  702SOL     OW 2104   2.081   1.346   1.908  0.1157 -0.5512 -0.2766
  702SOL    HW1 2105   2.149   1.268   1.899  1.1162 -2.9721  0.7612
  702SOL    HW2 2106   2.072   1.403   1.826  0.9361 -1.2805  3.9056
  703SOL     OW 2107   1.967   0.879   1.393 -0.2566 -0.1788 -0.2620
  703SOL    HW1 2108   1.949   0.786   1.435 -0.6745  1.2801 -0.0552
  703SOL    HW2 2109   2.024   0.935   1.458  0.4030  0.2428  0.8947
  704SOL     OW 2110   0.327   2.051   1.670  0.1192  0.2305  0.1427
  704SOL    HW1 2111   0.370   1.984   1.742 -1.2790 -2.9568 -0.1649
  704SOL    HW2 2112   0.379   2.135   1.646 -2.5156  1.2945  2.8481
  705SOL     OW 2113   2.516   1.378   0.951  0.1443 -0.0861 -0.3878
  705SOL    HW1 2114   2.447   1.360   0.879 -0.2227 -0.2437 -0.9968
  705SOL    HW2 2115   2.572   1.292   0.977  2.7631  0.0902  0.6375
  706SOL     OW 2116   0.664   1.717   1.837  0.2612  0.6195 -0.1764
  706SOL    HW1 2117   0.673   1.619   1.871  5.0680  2.3195  2.6271
  706SOL    HW2 2118   0.701   1.782   1.914 -1.8063  1.4411  0.6967
  707SOL     OW 2119   2.246   1.129   1.891 -0.3564 -0.5608  0.0984
  707SOL    HW1 2120   2.344   1.117   1.932  1.4935 -1.0485  0.0715
  707SOL    HW2 2121   2.208   1.041   1.859 -1.2161 -1.7394  0.9076
  708SOL     OW 2122   2.964   0.509   3.052  0.1805 -0.7270 -0.2806
  708SOL    HW1 2123   3.007   0.577   2.986 -2.5737  0.0581  0.9477
  708SOL    HW2 2124   2.988   0.415   3.026 -2.1019  3.1953  2.6185
  709SOL     OW 2125   1.773   1.888   0.199 -0.0466  0.3154  0.6230
  709SOL    HW1 2126   1.817   1.967   0.254 -1.5687  1.5248  1.8720
  709SOL    HW2 2127   1.803   1.880   0.101 -2.9287  1.9222  0.9857
  710SOL     OW 2128   1.677   1.624   2.425 -0.1442  0.0337  0.2086
  710SOL    HW1 2129   1.714   1.581   2.339  1.1512 -0.0827 -1.8893
  710SOL    HW2 2130   1.694   1.561   2.501  0.0877  0.6360  1.3292
  711SOL     OW 2131   2.624   2.973   0.953 -0.4954 -0.0942  0.0352
  711SOL    HW1 2132   2.592   3.073   0.939  0.0806  0.0642 -0.5070
  711SOL    HW2 2133   2.725   2.970   0.940 -1.4103  2.7253  2.5325
  712SOL     OW 2134   1.378   2.244   1.967  0.3825  0.8344 -0.5284
  712SOL    HW1 2135   1.476   2.220   1.987  0.6317  0.2537 -0.3731
  712SOL    HW2 2136   1.349   2.240   1.866 -2.5804 -0.9568 -1.2727
  713SOL     OW 2137   2.899   1.473   2.560 -0.8167  0.2369  0.1131
  713SOL    HW1 2138   2.865   1.383   2.523 -0.1849  1.8961 -3.2160
  713SOL    HW2 2139   2.850   1.507   2.641  0.9893  2.4694 -2.0903
  714SOL     OW 2140   2.664   0.477   2.369  0.2002 -0.2333 -0.9161
  714SOL    HW1 2141   2.609   0.457   2.456 -2.8815  1.0443 -0.0261
  714SOL    HW2 2142   2.608   0.474   2.280 -0.6719  0.6187 -2.3464
  715SOL     OW 2143   1.606   2.038   1.214 -0.0724 -0.1323 -0.2945
  715SOL    HW1 2144   1.551   2.077   1.136 -1.7037  1.2204  0.4430
  715SOL    HW2 2145   1.590   2.082   1.310  0.1242  0.3388  3.0331
  716SOL     OW 2146   1.193   0.180   1.501  0.2219  0.1884  0.1368
  716SOL    HW1 2147   1.094   0.202   1.473 -0.5609 -0.3112  1.1728
  716SOL    HW2 2148   1.265   0.252   1.479  0.0056 -0.0586 -0.3036
  717SOL     OW 2149   1.130   0.597   1.615  0.0227  0.4282  0.4187
  717SOL    HW1 2150   1.231   0.598   1.619 -1.7405 -1.3504 -0.5845
  717SOL    HW2 2151   1.107   0.551   1.523  2.6874 -1.3594 -0.5530
  718SOL     OW 2152   0.753   0.932   0.954  0.0473  0.2340  0.5576
  718SOL    HW1 2153   0.713   0.903   0.862  0.9008  1.1324  0.8793
  718SOL    HW2 2154   0.692   1.011   0.986  0.9665 -0.7985 -1.0221
  719SOL     OW 2155   0.672   1.813   2.278  0.0658  0.2209  0.5280
  719SOL    HW1 2156   0.739   1.844   2.352  0.6774 -2.6992 -1.2331
  719SOL    HW2 2157   0.574   1.837   2.287  3.4407  0.8536  0.5772
  720SOL     OW 2158   2.166   1.155   0.240  0.0872  0.2202 -0.5068
  720SOL    HW1 2159   2.236   1.090   0.205 -1.3962 -0.1395  0.3931
  720SOL    HW2 2160   2.176   1.166   0.343 -0.2597 -1.1156 -0.0371
  721SOL     OW 2161   2.287   2.989   2.085  0.5622  0.0461  0.2117
  721SOL    HW1 2162   2.326   3.000   1.988 -4.0073 -1.4246 -1.0658
  721SOL    HW2 2163   2.192   3.026   2.089 -0.9672 -1.7611 -1.2410
  722SOL     OW 2164   2.374   1.613   0.589  0.3688 -0.0656  0.4775
  722SOL    HW1 2165   2.383   1.569   0.494  1.0081 -1.0579  1.2812
  722SOL    HW2 2166   2.299   1.685   0.596  0.3899 -1.8145 -1.2062
  723SOL     OW 2167   2.550   2.675   2.016 -1.1100 -0.1319  0.0554
  723SOL    HW1 2168   2.593   2.749   2.080  0.9954  0.2262  0.6524
  723SOL    HW2 2169   2.447   2.676   2.021 -0.8552 -1.3301 -0.0138
  724SOL     OW 2170   0.540   2.462   2.418  0.0233 -0.0748  0.1237
  724SOL    HW1 2171   0.440   2.472   2.459  0.3905  1.8290  0.3199
  724SOL    HW2 2172   0.615   2.499   2.486  1.7241 -0.2588  1.9583
  725SOL     OW 2173   2.429   2.778   1.518  0.1747  0.0044  0.1339
  725SOL    HW1 2174   2.444   2.781   1.415 -0.2453 -0.6014  2.9572
  725SOL    HW2 2175   2.400   2.683   1.548 -0.3746  0.8887 -0.4117
  726SOL     OW 2176   2.386   2.222   0.679 -0.3365 -0.3767  0.1366
  726SOL    HW1 2177   2.355   2.322   0.675 -0.5510  2.2203  1.0428
  726SOL    HW2 2178   2.388   2.175   0.592  0.5758  3.1635  1.8085
  727SOL     OW 2179   0.157   3.075   0.052  0.1886  0.2459  0.0035
  727SOL    HW1 2180   0.201   2.984   0.065  1.9746  1.6814  0.1921
  727SOL    HW2 2181   0.059   3.072   0.019 -2.0906 -0.3142 -1.0457
  728SOL     OW 2182   2.881   0.679   0.981 -0.2767 -0.6714 -0.1420
  728SOL    HW1 2183   2.785   0.678   0.937  1.5627  0.3468 -0.6652
  728SOL    HW2 2184   2.875   0.611   1.063 -0.6443  0.4275  0.4494
  729SOL     OW 2185   2.961   2.510   0.745 -0.1518 -0.8597  0.2157
  729SOL    HW1 2186   2.930   2.423   0.783  1.6733  3.6144 -1.1560
  729SOL    HW2 2187   3.066   2.512   0.733 -1.2581  1.6353 -0.6491
  730SOL     OW 2188   2.607   0.631   0.858  0.0925 -0.3746  0.2424
  730SOL    HW1 2189   2.541   0.693   0.812 -1.8228  0.9264 -0.9601
  730SOL    HW2 2190   2.679   0.591   0.790  3.7760 -2.8588 -0.9186
  731SOL     OW 2191   0.135   2.148   2.438 -0.2580 -0.1836  0.1802
  731SOL    HW1 2192   0.117   2.186   2.534  1.4657  3.3527 -0.3332
  731SOL    HW2 2193   0.150   2.221   2.364 -1.5735  2.0444 -3.0833
  732SOL     OW 2194   1.096   2.868   1.932 -0.3567  0.6593 -0.7491
  732SOL    HW1 2195   1.111   2.818   2.023 -0.1498  0.7346 -0.3685
  732SOL    HW2 2196   1.136   2.815   1.852 -1.9185 -1.5608  2.1051
  733SOL     OW 2197   3.049   0.593   2.214  0.0608  0.7393  0.0608
  733SOL    HW1 2198   3.121   0.643   2.147  1.0854  0.2043  0.0465
  733SOL    HW2 2199   2.988   0.531   2.158  1.5706  0.7548 -1.9616
  734SOL     OW 2200   1.415   0.385   2.751  0.0568  0.2820 -0.1633
  734SOL    HW1 2201   1.449   0.453   2.818  0.2436 -0.7893  0.5729
  734SOL    HW2 2202   1.326   0.340   2.786  0.9807  1.3358  0.1342
  735SOL     OW 2203   2.906   2.611   2.236  0.7537 -0.2409 -0.3243
  735SOL    HW1 2204   2.882   2.610   2.134 -0.9949 -1.1661  0.7183
  735SOL    HW2 2205   3.009   2.601   2.260  0.0012 -1.6552 -0.5726
  736SOL     OW 2206   0.747   0.318   2.653 -0.2584  0.5265  0.5482
  736SOL    HW1 2207   0.645   0.328   2.674 -1.6491 -0.7418  2.6069
  736SOL    HW2 2208   0.763   0.285   2.559  0.6925 -0.6741 -1.9644
  737SOL     OW 2209   2.665   0.377   2.860 -0.4986 -0.1195 -0.0363
  737SOL    HW1 2210   2.617   0.360   2.952  1.5213  0.7696  1.5571
  737SOL    HW2 2211   2.769   0.361   2.874  0.1990  2.5946  2.1016
  738SOL     OW 2212   1.615   1.238   2.918  0.2755 -0.3684  0.0735
  738SOL    HW1 2213   1.711   1.204   2.903  2.0022 -0.8391 -1.1774
  738SOL    HW2 2214   1.550   1.199   2.844 -1.0302 -0.4162 -1.8173
  739SOL     OW 2215   1.717   0.589   0.679 -0.3215 -0.0336 -0.7271
  739SOL    HW1 2216   1.799   0.638   0.716 -0.7077 -0.4096  0.0999
  739SOL    HW2 2217   1.746   0.508   0.618 -0.2661  0.3500  0.1267
  740SOL     OW 2218   1.981   1.929   2.304 -0.7521 -0.4892  0.4331
  740SOL    HW1 2219   2.039   1.854   2.340 -2.1223  3.8578  1.3722
  740SOL    HW2 2220   1.885   1.902   2.267 -1.3458 -1.5078 -0.8876
  741SOL     OW 2221   2.536   0.062   2.627 -0.6465  0.0181 -0.7753
  741SOL    HW1 2222   2.640   0.060   2.627 -0.6807 -2.5398  1.1449
  741SOL    HW2 2223   2.491   0.021   2.542  2.2704 -1.8736  1.0740
  742SOL     OW 2224   2.214   1.458   0.196  0.1777 -0.5474 -0.2707
  742SOL    HW1 2225   2.145   1.535   0.195 -0.4819 -0.8948 -1.4623
  742SOL    HW2 2226   2.179   1.368   0.231 -2.9367 -0.2568 -0.0630
  743SOL     OW 2227   1.848   0.657   2.617  0.2791  0.0755 -0.0645
  743SOL    HW1 2228   1.810   0.599   2.536  1.4668 -2.5513 -0.4741
  743SOL    HW2 2229   1.801   0.745   2.632  1.4744 -1.3134 -0.4333
  744SOL     OW 2230   2.678   2.097   0.068  0.4649  0.2788  0.1896
  744SOL    HW1 2231   2.607   2.163   0.105 -1.3337 -1.7169  0.6026
  744SOL    HW2 2232   2.647   2.003   0.031 -1.4617 -2.6104 -2.4583
  745SOL     OW 2233   2.165   2.641   2.313  0.1552  0.6075 -0.8620
  745SOL    HW1 2234   2.079   2.626   2.257  0.5095  1.0282  1.2948
  745SOL    HW2 2235   2.143   2.717   2.382 -0.8950 -2.4490 -1.1249
  746SOL     OW 2236   3.065   2.627   1.727  0.1579  0.0389 -0.1286
  746SOL    HW1 2237   3.153   2.627   1.671  1.6438  1.3593 -0.5385
  746SOL    HW2 2238   3.033   2.722   1.748 -0.5402 -0.1381  1.7348
  747SOL     OW 2239   3.097   1.793   1.630  0.3035 -0.2740 -0.2088
  747SOL    HW1 2240   3.031   1.713   1.617 -0.8386 -2.6178  2.4131
  747SOL    HW2 2241   3.174   1.790   1.562 -3.2658 -0.4622 -0.0392
  748SOL     OW 2242   1.862   2.733   2.803  0.0047  0.3294  0.4936
  748SOL    HW1 2243   1.879   2.791   2.887  3.5894 -0.2052 -0.2610
  748SOL    HW2 2244   1.759   2.731   2.786  1.1863 -1.2178 -3.5720
  749SOL     OW 2245   1.311   3.068   0.903 -0.0708  0.4747 -0.9133
  749SOL    HW1 2246   1.223   3.009   0.904  0.8530 -2.7413  1.8785
  749SOL    HW2 2247   1.326   3.131   0.825 -1.6800 -0.9864 -0.8564
  750SOL     OW 2248   2.411   0.238   1.895 -0.0190  0.6198  0.3151
  750SOL    HW1 2249   2.414   0.293   1.808  2.4266  1.2276  0.4962
  750SOL    HW2 2250   2.383   0.296   1.977  0.1687 -0.9660  0.1160
  751SOL     OW 2251   0.946   2.190   2.703 -0.0042 -0.5724  0.0476
  751SOL    HW1 2252   0.977   2.196   2.802  0.7317 -2.1952  0.2361
  751SOL    HW2 2253   0.844   2.169   2.695  0.5643 -2.1444  1.5130
  752SOL     OW 2254   1.258   0.881   1.454  0.0255 -0.1458  0.6489
  752SOL    HW1 2255   1.336   0.943   1.419 -1.9256  1.4196 -1.2674
  752SOL    HW2 2256   1.284   0.780   1.464 -4.2772  0.5790  2.0885
  753SOL     OW 2257   0.957   2.584   1.714 -0.0948 -0.4966 -0.2552
  753SOL    HW1 2258   1.054   2.606   1.698 -0.7998  2.8081 -1.7599
  753SOL    HW2 2259   0.899   2.654   1.660 -0.5144  1.8715  0.2023
  754SOL     OW 2260   1.192   1.316   0.010  0.5942  0.3827  0.0088
  754SOL    HW1 2261   1.244   1.247  -0.050  0.8422 -0.2701 -1.5688
  754SOL    HW2 2262   1.175   1.410  -0.030  0.5587  1.2418 -1.0716
  755SOL     OW 2263   1.976   0.430   2.191 -0.3733 -0.1722 -0.2283
  755SOL    HW1 2264   2.068   0.409   2.234 -1.4283 -1.1404  1.3138
  755SOL    HW2 2265   1.899   0.465   2.256 -1.1825  1.3801  0.3514
  756SOL     OW 2266   2.563   0.975   2.942  0.7136 -0.0913 -0.2495
  756SOL    HW1 2267   2.659   0.983   2.995  0.2992  0.5571  0.5772
  756SOL    HW2 2268   2.523   0.881   2.950 -0.0167  1.1144 -1.1224
  757SOL     OW 2269   3.085   0.430   1.809 -0.1525  0.0584 -0.0968
  757SOL    HW1 2270   3.180   0.399   1.784  2.4295  1.4923 -0.2762
  757SOL    HW2 2271   3.022   0.416   1.732  1.0996 -0.9308  0.6692
  758SOL     OW 2272   2.388   0.104   1.405  0.3111  0.5381  0.2712
  758SOL    HW1 2273   2.327   0.034   1.451 -2.5502 -1.0165 -1.9286
  758SOL    HW2 2274   2.381   0.092   1.306 -1.7790  0.8020 -1.9654
  759SOL     OW 2275   1.715   0.045   0.079 -0.1851 -0.3103 -0.2497
  759SOL    HW1 2276   1.666   0.074  -0.007  2.2157  0.9771  0.3383
  759SOL    HW2 2277   1.813   0.010   0.063  1.2088 -0.6735  0.0437
  760SOL     OW 2278   2.742   2.076   2.813  0.5200 -0.2759  0.2776
  760SOL    HW1 2279   2.760   1.995   2.875 -1.5939 -1.5264  1.7278
  760SOL    HW2 2280   2.714   2.165   2.864 -0.7371  1.8456  0.2376
  761SOL     OW 2281   1.908   1.778   1.714  0.2621 -0.3624 -0.5392
  761SOL    HW1 2282   1.965   1.693   1.741  0.5574  2.0264 -1.8078
  761SOL    HW2 2283   1.854   1.762   1.624  0.6493  0.1485 -1.1479
  762SOL     OW 2284   0.456   2.306   0.986  0.1487 -0.0658  0.0745
  762SOL    HW1 2285   0.500   2.323   0.895 -0.7794  0.3579  0.3592
  762SOL    HW2 2286   0.490   2.363   1.069 -3.6790 -0.8917  1.3356
  763SOL     OW 2287   2.085   1.510   2.930  0.2761  0.3070  0.3010
  763SOL    HW1 2288   2.169   1.477   2.976 -1.7844 -1.7627 -1.0863
  763SOL    HW2 2289   2.007   1.498   2.994  1.7767 -0.1260  0.5650
  764SOL     OW 2290   0.639   0.618   0.826  0.1896  0.2653 -0.5012
  764SOL    HW1 2291   0.568   0.550   0.786 -0.0665 -0.4644 -2.2363
  764SOL    HW2 2292   0.734   0.585   0.844 -0.0963  1.2861 -0.5954
  765SOL     OW 2293   0.721   0.234   0.802  0.1680  0.1618  0.4989
  765SOL    HW1 2294   0.797   0.284   0.743  1.6864  2.2577 -0.6236
  765SOL    HW2 2295   0.697   0.295   0.882 -0.4530  0.4254 -0.7401
  766SOL     OW 2296   2.945   2.092   3.086  0.1994  0.2431 -0.1977
  766SOL    HW1 2297   2.847   2.116   3.119  1.0788  0.9850  0.2567
  766SOL    HW2 2298   2.999   2.175   3.060  2.7212 -1.1050  1.2603
  767SOL     OW 2299   2.841   1.561   0.545  0.1061 -0.0723 -0.4730
  767SOL    HW1 2300   2.749   1.540   0.585  1.7349 -2.2954 -0.2129
  767SOL    HW2 2301   2.925   1.559   0.613  2.9078  0.8352 -1.7933
  768SOL     OW 2302   1.108   0.192   0.342 -0.3758  0.0253 -0.3936
  768SOL    HW1 2303   1.023   0.144   0.374  1.7809  0.6487  1.6333
  768SOL    HW2 2304   1.188   0.130   0.312  3.3924 -1.1368 -0.9263
  769SOL     OW 2305   1.077   1.882   2.228  0.5235 -0.4282 -0.1010
  769SOL    HW1 2306   0.984   1.920   2.219  1.8983  1.3352  0.4077
  769SOL    HW2 2307   1.075   1.784   2.208  3.0501  3.0264  0.6387
  770SOL     OW 2308   0.155   1.211   2.229 -0.3669  0.5911 -0.3495
  770SOL    HW1 2309   0.119   1.215   2.325  0.9832  0.5962  0.0658
  770SOL    HW2 2310   0.079   1.182   2.161 -0.0150  1.5736  1.0857
  771SOL     OW 2311   2.945   2.851   1.883 -0.4615 -0.4404 -0.4285
  771SOL    HW1 2312   2.901   2.899   1.801 -0.4855 -1.7837  2.4021
  771SOL    HW2 2313   2.932   2.903   1.971 -0.3545  0.7880 -1.7545
  772SOL     OW 2314   2.176   0.117   2.958  0.2883 -0.6267  0.6118
  772SOL    HW1 2315   2.261   0.084   2.906 -1.0334 -1.6458 -0.5410
  772SOL    HW2 2316   2.187   0.215   2.987 -0.4586  1.9831 -0.3213
  773SOL     OW 2317   0.712   2.199   2.503  0.7608 -0.3729  0.4750
  773SOL    HW1 2318   0.670   2.219   2.413  0.5956 -0.3027 -0.7006
  773SOL    HW2 2319   0.642   2.155   2.568 -0.3477 -1.6588  0.4653
  774SOL     OW 2320   2.025   0.046   2.651 -0.1880  0.5841  0.4380
  774SOL    HW1 2321   2.044   0.150   2.652  0.5367 -2.6789 -0.0362
  774SOL    HW2 2322   2.088   0.001   2.722  1.6066 -1.8232  0.0828
  775SOL     OW 2323   2.531   2.810   2.450  0.2246 -0.4410  0.4610
  775SOL    HW1 2324   2.496   2.905   2.457 -1.3171 -0.3284 -1.4002
  775SOL    HW2 2325   2.634   2.807   2.464  0.3905  0.9009  3.1783
  776SOL     OW 2326   0.059   1.263   0.215 -0.1537 -0.3065  0.2403
  776SOL    HW1 2327   0.004   1.251   0.127 -0.9137 -1.0804  0.4931
  776SOL    HW2 2328   0.009   1.235   0.309 -0.2654  0.5757  1.5366
  777SOL     OW 2329   0.249   2.837   0.472 -0.1839  0.1399  0.2786
  777SOL    HW1 2330   0.158   2.856   0.428 -1.6949  1.2168  1.9003
  777SOL    HW2 2331   0.279   2.909   0.538  3.6953 -1.1240 -2.3181
  778SOL     OW 2332   1.350   1.950   0.173  0.6023 -0.1137 -0.2806
  778SOL    HW1 2333   1.276   1.943   0.247  0.2652 -0.5441 -2.7006
  778SOL    HW2 2334   1.356   2.049   0.138 -2.8986  1.1635 -1.1399
  779SOL     OW 2335   0.194   0.846   0.494 -0.5010 -0.1401  0.1792
  779SOL    HW1 2336   0.156   0.750   0.480 -0.7239 -1.2072  1.1903
  779SOL    HW2 2337   0.145   0.906   0.563  0.2032 -1.5644  1.2325
  780SOL     OW 2338   0.067   0.251   2.239 -0.8702 -0.4173 -0.1110
  780SOL    HW1 2339   0.073   0.353   2.215  1.0425 -1.2103 -1.4550
  780SOL    HW2 2340   0.155   0.201   2.214 -2.9613  0.3375 -0.8737
  781SOL     OW 2341   0.643   1.740   1.557  0.3809 -0.2498  0.3969
  781SOL    HW1 2342   0.667   1.722   1.657  1.4657 -0.5296  1.1110
  781SOL    HW2 2343   0.545   1.705   1.543  0.2043  1.9539 -2.3396
  782SOL     OW 2344   2.586   0.128   0.912 -0.5909 -0.5675 -0.0525
  782SOL    HW1 2345   2.514   0.161   0.843  1.1489  0.6920 -0.8397
  782SOL    HW2 2346   2.612   0.198   0.986  1.8646  0.5249  2.3085
  783SOL     OW 2347   2.837   0.681   2.520 -0.2609 -0.4757 -0.2170
  783SOL    HW1 2348   2.795   0.699   2.617 -0.5346 -0.6411 -0.4335
  783SOL    HW2 2349   2.781   0.616   2.458 -4.0526 -0.6843 -0.1795
  784SOL     OW 2350   1.392   2.211   0.059 -0.3113 -0.0127 -0.3121
  784SOL    HW1 2351   1.476   2.231   0.115  2.1915 -1.5182 -0.0443
  784SOL    HW2 2352   1.408   2.227  -0.040 -0.1770 -1.0259 -0.4192
  785SOL     OW 2353   2.180   0.362   3.057  0.0562 -0.5140  0.1410
  785SOL    HW1 2354   2.092   0.365   3.110  2.0759 -2.1182 -2.7583
  785SOL    HW2 2355   2.193   0.459   3.016 -0.3526  0.0417  0.4817
  786SOL     OW 2356   2.025   2.185   2.201  0.6050  0.1083 -0.1716
  786SOL    HW1 2357   1.996   2.085   2.217  0.1233 -1.9107  1.1931
  786SOL    HW2 2358   2.122   2.200   2.217  1.9025 -1.7621 -3.2393
  787SOL     OW 2359   1.411   0.619   0.911  0.0888  0.1944 -0.7059
  787SOL    HW1 2360   1.335   0.685   0.924 -0.0664 -0.1766 -1.4316
  787SOL    HW2 2361   1.428   0.592   0.813  0.7113 -0.0540  0.6823
  788SOL     OW 2362   1.226   0.429   3.047 -0.2237  0.1770 -0.1804
  788SOL    HW1 2363   1.130   0.455   3.030 -1.2246 -2.2040 -0.1024
  788SOL    HW2 2364   1.272   0.502   3.109  3.6636  2.3209  0.5553
  789SOL     OW 2365   2.598   0.049   1.794 -0.1206  0.6791  0.3756
  789SOL    HW1 2366   2.523   0.114   1.815  1.4992 -1.1951  0.6201
  789SOL    HW2 2367   2.572  -0.056   1.818 -1.8078 -0.3396  1.2730
  790SOL     OW 2368   2.587   2.719   0.864 -0.4219 -0.3221  0.2658
  790SOL    HW1 2369   2.609   2.810   0.907 -0.6190 -0.0126  0.9532
  790SOL    HW2 2370   2.664   2.649   0.872  5.1436 -0.5047  0.5175
  791SOL     OW 2371   1.908   1.272   0.257 -0.0426  0.1598 -0.3461
  791SOL    HW1 2372   1.827   1.207   0.278 -0.5662 -0.0638  0.4549
  791SOL    HW2 2373   2.002   1.226   0.239  1.5411  0.0273 -3.0231
  792SOL     OW 2374   0.463   2.004   2.139  0.1060  0.2400 -0.0130
  792SOL    HW1 2375   0.534   2.052   2.199 -2.0271 -0.6011  0.8378
  792SOL    HW2 2376   0.379   1.979   2.201  0.5333 -0.8208  2.6796
  793SOL     OW 2377   2.097   1.559   2.073  0.0894  0.0500  0.3506
  793SOL    HW1 2378   2.174   1.626   2.051 -2.5544  1.9100  2.4673
  793SOL    HW2 2379   2.082   1.484   1.996  1.5543 -2.0950 -0.8197
  794SOL     OW 2380   0.474   1.376   2.481 -0.0135  0.5994  0.1614
  794SOL    HW1 2381   0.490   1.311   2.400  0.4203 -0.4241  2.0069
  794SOL    HW2 2382   0.428   1.467   2.455 -0.0986 -1.0006  0.0466
  795SOL     OW 2383   2.470   2.364   1.764  0.1784  0.1237  0.5827
  795SOL    HW1 2384   2.465   2.396   1.863  2.2729 -0.6590  0.9557
  795SOL    HW2 2385   2.445   2.267   1.752  1.2122  3.2275  0.6437
  796SOL     OW 2386   3.090   1.089   2.708 -0.6875 -0.0088  0.2412
  796SOL    HW1 2387   2.993   1.130   2.721 -1.5060 -1.1359 -3.6795
  796SOL    HW2 2388   3.151   1.105   2.793  0.6973 -1.7224  0.5958
  797SOL     OW 2389   0.724   0.632   1.336  0.0545  0.1170 -0.1728
  797SOL    HW1 2390   0.797   0.672   1.401  1.2073  2.4705 -1.1822
  797SOL    HW2 2391   0.679   0.709   1.279  1.3398  0.8504  0.0911
  798SOL     OW 2392   1.335   0.424   1.092  0.3678  0.3354  0.5659
  798SOL    HW1 2393   1.346   0.460   1.187 -0.4927 -1.8228 -1.8547
  798SOL    HW2 2394   1.379   0.486   1.021 -0.8050  1.3578 -2.6456
  799SOL     OW 2395   1.940   2.623   1.049 -0.0953  0.5475  0.0953
  799SOL    HW1 2396   1.898   2.556   1.108 -1.7982  1.7863 -0.8107
  799SOL    HW2 2397   1.935   2.592   0.950  3.5341 -0.0204 -1.6126
  800SOL     OW 2398   2.908   0.838   1.841 -0.2331  0.3839 -0.3975
  800SOL    HW1 2399   2.960   0.923   1.874  0.6005 -0.7402  2.1626
  800SOL    HW2 2400   2.874   0.791   1.924 -0.2427 -0.1646 -0.8812
  801SOL     OW 2401   1.997   2.188   0.033 -0.5203  0.0230  0.1990
  801SOL    HW1 2402   1.925   2.143  -0.032  0.7441 -2.6387  2.0001
  801SOL    HW2 2403   2.083   2.130   0.034  1.6550 -0.6521 -1.0959
  802SOL     OW 2404   0.654   0.815   2.557  0.4875 -0.4240 -0.7512
  802SOL    HW1 2405   0.697   0.728   2.512  1.2276 -2.6201  0.4746
  802SOL    HW2 2406   0.572   0.851   2.502 -0.1406 -2.6963  0.2351
  803SOL     OW 2407   0.976   0.086   0.878 -0.6298 -0.4871  0.7251
  803SOL    HW1 2408   1.042   0.158   0.914 -0.8272 -0.6165  0.7955
  803SOL    HW2 2409   0.895   0.120   0.822  0.3254  0.2178  2.5474
  804SOL     OW 2410   0.313   3.060   2.202  0.0253  0.0507 -0.0247
  804SOL    HW1 2411   0.302   3.166   2.203 -2.1017  1.5398 -0.4474
  804SOL    HW2 2412   0.272   3.020   2.114 -0.6030  0.2408 -1.1286
  805SOL     OW 2413   2.348   0.404   0.338 -0.2866 -0.1136 -0.4241
  805SOL    HW1 2414   2.417   0.422   0.413 -1.6732  1.8563 -5.2744
  805SOL    HW2 2415   2.375   0.326   0.274 -0.2947  0.3218  0.0480
  806SOL     OW 2416   0.718   2.436   1.806 -0.3985  0.0771  0.5757
  806SOL    HW1 2417   0.694   2.527   1.850  1.2979  0.4341  0.8704
  806SOL    HW2 2418   0.778   2.452   1.720 -1.3738 -1.3440 -1.0662
  807SOL     OW 2419   2.505   0.876   0.444  0.3559  0.1233  0.5823
  807SOL    HW1 2420   2.596   0.924   0.467  2.9553  0.5987 -1.5623
  807SOL    HW2 2421   2.495   0.875   0.346  3.9439 -0.9120  1.0400
  808SOL     OW 2422   0.660   2.086   2.944  0.3233 -0.2730  0.2790
  808SOL    HW1 2423   0.594   2.114   3.017  1.5456 -2.1837 -2.8049
  808SOL    HW2 2424   0.673   1.983   2.946  0.5732  0.9814 -0.3676
  809SOL     OW 2425   2.576   1.975   1.862 -0.0703 -0.1080 -0.0811
  809SOL    HW1 2426   2.662   2.035   1.850 -0.3088  1.3334  0.7032
  809SOL    HW2 2427   2.550   1.942   1.769  1.0370 -1.1264  0.3405
  810SOL     OW 2428   2.204   1.134   0.508 -0.4964  0.5042  0.1108
  810SOL    HW1 2429   2.179   1.042   0.535  2.6547  2.9043  0.8319
  810SOL    HW2 2430   2.161   1.203   0.568  0.4231 -0.7555 -1.7706
  811SOL     OW 2431   1.395   2.515   1.199  0.3151  0.2208 -0.0209
  811SOL    HW1 2432   1.345   2.425   1.226  1.3494  1.1991  0.4014
  811SOL    HW2 2433   1.349   2.602   1.235 -1.1124  0.0154  2.5257
  812SOL     OW 2434   1.416   0.730   1.987 -0.1258 -0.0346 -0.0461
  812SOL    HW1 2435   1.346   0.768   2.050 -0.1546  0.6836 -0.7436
  812SOL    HW2 2436   1.428   0.778   1.895  0.7435  2.6932  1.1737
  813SOL     OW 2437   1.644   2.066   2.466 -0.6591  0.4220 -0.3822
  813SOL    HW1 2438   1.663   1.968   2.496  1.3143 -0.5053 -0.7988
  813SOL    HW2 2439   1.619   2.070   2.367  0.5423 -0.2970  1.5590
  814SOL     OW 2440   2.948   1.567   2.858  0.0655 -0.2625  0.3180
  814SOL    HW1 2441   3.010   1.536   2.938  1.0257 -1.3376 -1.3871
  814SOL    HW2 2442   2.983   1.661   2.821  1.2612 -3.6401 -0.7685
  815SOL     OW 2443   2.181   2.960   2.807  0.1869 -0.4161  0.4512
  815SOL    HW1 2444   2.192   2.869   2.850 -0.1061  2.7064 -2.3736
  815SOL    HW2 2445   2.268   3.013   2.801  0.3253 -1.6342  0.6881
  816SOL     OW 2446   1.581   0.370   1.688 -0.1019  0.3248  0.2670
  816SOL    HW1 2447   1.622   0.276   1.701 -0.8808 -1.5612 -0.5245
  816SOL    HW2 2448   1.503   0.389   1.750  0.0416  2.4740 -2.2391
  817SOL     OW 2449   0.358   1.165   2.643  0.1982  0.4319  0.1485
  817SOL    HW1 2450   0.303   1.207   2.719 -0.1199  0.7228 -0.5394
  817SOL    HW2 2451   0.386   1.235   2.571 -2.4267 -0.2539  2.7290
  818SOL     OW 2452   1.957   0.849   0.396  0.1506 -0.5250  0.4649
  818SOL    HW1 2453   2.055   0.830   0.425 -0.7023 -1.4257  0.9066
  818SOL    HW2 2454   1.898   0.897   0.465 -2.0115 -0.0570  1.1311
  819SOL     OW 2455   2.765   2.949   3.066 -0.1942 -0.1405  1.1470
  819SOL    HW1 2456   2.788   2.874   3.134  1.5006 -0.1961  3.4132
  819SOL    HW2 2457   2.704   2.920   2.984  0.1587 -1.6897 -0.2698
  820SOL     OW 2458   1.224   1.044   0.557  0.3431  0.1840 -0.3756
  820SOL    HW1 2459   1.248   1.145   0.584  0.4414 -1.6897  0.3067
  820SOL    HW2 2460   1.227   0.980   0.638  0.5969  0.6036 -0.6010
  821SOL     OW 2461   0.038   1.272   0.708  0.1714 -0.2871  0.3516
  821SOL    HW1 2462  -0.024   1.270   0.793 -2.0647  2.6022  0.9357
  821SOL    HW2 2463   0.082   1.358   0.681 -1.0574 -1.6463 -0.0824
  822SOL     OW 2464   2.581   1.807   2.454 -0.5446  0.6917 -0.1329
  822SOL    HW1 2465   2.564   1.882   2.524  0.0528 -0.3246 -1.4698
  822SOL    HW2 2466   2.503   1.803   2.386 -1.0344 -0.9188  1.4747
  823SOL     OW 2467   2.006   0.860   1.128  0.3211  0.9341 -0.1439
  823SOL    HW1 2468   2.018   0.877   1.227  1.8079 -1.8472 -0.8818
  823SOL    HW2 2469   1.914   0.901   1.090 -1.1652  2.0815 -0.7758
  824SOL     OW 2470   0.190   1.995   2.811  0.4333 -0.6931 -0.0836
  824SOL    HW1 2471   0.189   1.914   2.876  0.3889 -0.4069  3.3778
  824SOL    HW2 2472   0.235   1.971   2.719  0.6209  2.9601 -0.4023
  825SOL     OW 2473   1.315   1.029   0.291  0.5208  0.0080  0.0296
  825SOL    HW1 2474   1.284   1.132   0.273 -3.2432 -0.1469 -2.6044
  825SOL    HW2 2475   1.296   1.006   0.389  0.5780  0.4509 -1.0662
  826SOL     OW 2476   1.958   0.656   1.566 -0.3026 -0.5219  0.5395
  826SOL    HW1 2477   2.032   0.600   1.609 -0.2170  0.4528 -0.8221
  826SOL    HW2 2478   1.877   0.600   1.538 -0.6327 -0.5044 -0.6807
  827SOL     OW 2479   0.692   1.217   0.287 -0.8879  0.2958  0.3650
  827SOL    HW1 2480   0.768   1.155   0.267 -2.3533 -1.0686 -2.3989
  827SOL    HW2 2481   0.618   1.175   0.344 -1.6731  1.5332  2.6617
  828SOL     OW 2482   2.637   0.094   1.534 -0.0082 -0.1816 -0.4432
  828SOL    HW1 2483   2.541   0.105   1.493 -0.4206 -0.3457 -0.3979
  828SOL    HW2 2484   2.640   0.067   1.634  2.0373  0.4604  0.3247
  829SOL     OW 2485   2.912   2.438   2.864  0.8277 -0.3518 -0.6717
  829SOL    HW1 2486   2.826   2.399   2.908 -0.7708 -1.2966 -3.2910
  829SOL    HW2 2487   2.902   2.524   2.810 -0.9476 -0.5758  0.4285
  830SOL     OW 2488   2.825   1.008   3.043  0.1425  0.1945 -0.0202
  830SOL    HW1 2489   2.881   1.089   3.074 -1.8105  1.6286 -1.5462
  830SOL    HW2 2490   2.872   0.918   3.056  0.4003 -1.1026 -2.4676
  831SOL     OW 2491   0.129   0.584   0.414 -0.3914 -0.2296  0.1482
  831SOL    HW1 2492   0.090   0.521   0.488  1.3732  1.1184  2.0233
  831SOL    HW2 2493   0.138   0.538   0.321  1.8120 -0.0240  0.4205
  832SOL     OW 2494   1.843   0.784   3.011  0.0031  0.0435  0.1094
  832SOL    HW1 2495   1.758   0.829   2.975  0.0098 -1.4866  2.2940
  832SOL    HW2 2496   1.832   0.681   3.011 -1.9774 -0.8312 -1.3046
  833SOL     OW 2497   2.433   2.065   0.454 -0.6717 -0.3296 -0.0303
  833SOL    HW1 2498   2.329   2.053   0.448  0.3881 -0.1889 -2.9753
  833SOL    HW2 2499   2.494   1.975   0.467  2.3194 -0.7577  0.4869
  834SOL     OW 2500   0.121   0.169   0.507  0.1031 -0.5343 -0.0625
  834SOL    HW1 2501   0.089   0.077   0.542  0.8267 -3.3988 -1.1392
  834SOL    HW2 2502   0.128   0.172   0.399  0.5521 -1.3580  0.4557
  835SOL     OW 2503   2.386   1.507   1.163  0.3433 -0.1355  0.2764
  835SOL    HW1 2504   2.371   1.607   1.176  2.6563  1.6856 -1.0927
  835SOL    HW2 2505   2.437   1.482   1.077 -1.8947  3.1737 -0.5156
  836SOL     OW 2506   1.630   0.880   2.582 -0.5749  0.3758  0.0836
  836SOL    HW1 2507   1.533   0.838   2.583  1.0064 -0.0278  1.7064
  836SOL    HW2 2508   1.658   0.915   2.489  0.2491 -0.6534  0.7165
  837SOL     OW 2509   1.619   0.091   0.561  0.2347 -0.4708  0.1699
  837SOL    HW1 2510   1.560   0.142   0.632 -0.3969 -0.2180  0.2752
  837SOL    HW2 2511   1.584   0.097   0.465  0.0170 -2.0882 -0.2456
  838SOL     OW 2512   1.223   1.419   2.782  0.6202 -0.7517  0.0492
  838SOL    HW1 2513   1.172   1.472   2.857 -0.7367 -0.3279  0.0892
  838SOL    HW2 2514   1.156   1.378   2.715 -1.4524  0.0149  1.6018
  839SOL     OW 2515   1.664   0.283   0.995 -0.3368  1.0283  0.2185
  839SOL    HW1 2516   1.683   0.357   1.068  2.3019  1.3804 -1.9188
  839SOL    HW2 2517   1.614   0.200   1.033 -0.2657 -0.0748  0.7384
  840SOL     OW 2518   2.521   2.869   1.762  0.2713 -0.0814  0.0525
  840SOL    HW1 2519   2.483   2.836   1.675 -1.3626  0.2571  2.6257
  840SOL    HW2 2520   2.559   2.796   1.821 -0.0037  2.0726 -0.4619
  841SOL     OW 2521   1.583   0.913   2.975 -0.0922 -0.6353  0.2515
  841SOL    HW1 2522   1.531   0.930   3.059  0.1948  2.2815  0.1729
  841SOL    HW2 2523   1.585   1.000   2.917  0.5028  0.1056 -1.1742
  842SOL     OW 2524   0.821   1.510   0.968 -0.6491 -0.0668  0.3126
  842SOL    HW1 2525   0.778   1.590   1.022 -2.4729  1.9801 -1.1589
  842SOL    HW2 2526   0.755   1.470   0.894 -2.7594 -0.9602 -0.2326
  843SOL     OW 2527   0.134   0.120   1.472 -0.0901  0.0360  0.0019
  843SOL    HW1 2528   0.229   0.131   1.512  0.5393 -1.4446 -1.9000
  843SOL    HW2 2529   0.100   0.026   1.466 -0.1593  1.6866  3.1433
  844SOL     OW 2530   0.770   2.477   0.292  0.3116 -0.3481 -0.1093
  844SOL    HW1 2531   0.731   2.492   0.387 -1.8597  2.4476  0.6643
  844SOL    HW2 2532   0.696   2.500   0.224 -0.6065  0.7418 -0.2069
  845SOL     OW 2533   1.660   2.882   1.380  0.4516  0.2260  0.3292
  845SOL    HW1 2534   1.723   2.881   1.460  0.2125  2.8605 -0.9607
  845SOL    HW2 2535   1.627   2.976   1.353  1.8600  0.3514 -0.2484
  846SOL     OW 2536   1.667   2.973   0.864  0.5149 -0.1317  0.4226
  846SOL    HW1 2537   1.649   2.970   0.763  1.8483 -0.3688  2.3618
  846SOL    HW2 2538   1.772   2.953   0.877  2.3720  2.1797 -1.9228
  847SOL     OW 2539   2.025   1.650   0.223 -0.1753 -0.0809 -0.1107
  847SOL    HW1 2540   1.981   1.620   0.316  1.8595 -1.1324  0.2459
  847SOL    HW2 2541   1.961   1.649   0.142 -0.8818 -0.3976 -0.1488
  848SOL     OW 2542   2.503   0.787   2.671 -0.6638 -0.1038 -0.1168
  848SOL    HW1 2543   2.527   0.885   2.673 -2.0795 -0.8500  0.6883
  848SOL    HW2 2544   2.458   0.750   2.582 -0.2154 -0.5129 -2.1333
  849SOL     OW 2545   2.474   0.877   2.347 -0.4380 -0.2736 -0.2617
  849SOL    HW1 2546   2.537   0.833   2.281 -1.1030 -0.4674 -0.5795
  849SOL    HW2 2547   2.413   0.805   2.395  0.0543  0.6300 -0.5071
  850SOL     OW 2548   1.511   0.097   1.334  0.7130 -0.1540 -0.3256
  850SOL    HW1 2549   1.535   0.080   1.231  1.2479  1.3307  0.0528
  850SOL    HW2 2550   1.434   0.031   1.373 -3.5725  0.5088 -1.7240
  851SOL     OW 2551   0.468   1.698   0.659  0.3756  0.0610  0.5533
  851SOL    HW1 2552   0.478   1.799   0.662  1.4500 -0.8941 -1.0468
  851SOL    HW2 2553   0.554   1.651   0.691 -1.7341 -0.4077  0.8196
  852SOL     OW 2554   0.816   2.164   1.670  0.3372  0.1275  0.1878
  852SOL    HW1 2555   0.817   2.248   1.614  2.5000 -1.5264 -1.3766
  852SOL    HW2 2556   0.736   2.166   1.740 -1.0796 -0.1239 -0.4356
  853SOL     OW 2557   2.479   1.562   2.620  0.1459 -0.2426  0.4738
  853SOL    HW1 2558   2.474   1.472   2.571 -2.6251  3.3977 -0.3716
  853SOL    HW2 2559   2.518   1.638   2.565 -0.2461 -0.1468 -1.0077
  854SOL     OW 2560   2.518   1.394   1.781 -0.0266  0.2096  0.3331
  854SOL    HW1 2561   2.550   1.365   1.683  0.4582  0.1920  1.0034
  854SOL    HW2 2562   2.499   1.310   1.839  0.8011  0.6763  1.1488
  855SOL     OW 2563   2.105   2.361   0.958 -0.7255 -0.9099  0.0245
  855SOL    HW1 2564   2.143   2.436   0.897 -0.2120 -1.0475  1.7582
  855SOL    HW2 2565   2.154   2.365   1.048 -0.4363  1.0658  1.8187
  856SOL     OW 2566   1.387   1.442   0.880  0.2201 -0.7971  0.1454
  856SOL    HW1 2567   1.463   1.501   0.930  3.0052 -3.6761  1.2625
  856SOL    HW2 2568   1.294   1.469   0.910  1.8607 -0.9606 -3.0675
  857SOL     OW 2569   2.970   2.635   1.038  0.2998 -1.2639  0.5167
  857SOL    HW1 2570   2.895   2.560   1.045  0.5222  0.3805  1.5634
  857SOL    HW2 2571   3.061   2.597   1.018 -1.2523 -1.7525  1.2635
  858SOL     OW 2572   2.318   2.118   1.698 -0.1028  0.9902 -0.1196
  858SOL    HW1 2573   2.219   2.141   1.675  1.7113 -0.7929 -1.0422
  858SOL    HW2 2574   2.370   2.058   1.629 -1.3538 -1.7810 -0.5406
  859SOL     OW 2575   2.447   0.541   1.056  0.2467 -0.5074  0.5111
  859SOL    HW1 2576   2.521   0.560   0.991 -1.8316 -0.7110  4.2631
  859SOL    HW2 2577   2.461   0.450   1.108  1.6618 -0.6779 -1.4810
  860SOL     OW 2578   1.941   2.818   0.471  0.0642  0.0525 -0.3050
  860SOL    HW1 2579   1.945   2.797   0.371  0.6383 -1.1559 -2.7407
  860SOL    HW2 2580   2.024   2.876   0.489 -2.0966 -0.4842 -1.6569
  861SOL     OW 2581   1.100   2.587   2.811  0.2269  0.1482 -0.6574
  861SOL    HW1 2582   1.147   2.667   2.760 -1.2863  0.2576  0.3644
  861SOL    HW2 2583   1.096   2.608   2.912  2.2567  1.2543 -2.1134
  862SOL     OW 2584   2.847   2.500   1.603  0.2886 -0.0660  0.0579
  862SOL    HW1 2585   2.918   2.525   1.669  0.1246 -0.5622  1.6026
  862SOL    HW2 2586   2.819   2.590   1.555 -1.4132  0.6168 -1.3769
  863SOL     OW 2587   1.858   2.680   0.193  0.5139  0.0951 -0.0663
  863SOL    HW1 2588   1.884   2.581   0.193 -3.4262 -0.5695  0.9669
  863SOL    HW2 2589   1.758   2.693   0.224 -1.1565  0.7570 -0.3401
  864SOL     OW 2590   1.857   1.144   2.892 -0.1267 -0.0600  0.3829
  864SOL    HW1 2591   1.899   1.088   2.811  1.6326  0.1945  1.5785
  864SOL    HW2 2592   1.930   1.167   2.961 -3.0769  3.0975 -0.0404
  865SOL     OW 2593   2.190   1.861   0.674 -0.1939  0.2795  0.6883
  865SOL    HW1 2594   2.238   1.834   0.766  0.2832  0.0735  0.1642
  865SOL    HW2 2595   2.090   1.826   0.668 -1.2768  0.3008 -0.0222
  866SOL     OW 2596   2.960   2.901   0.985 -0.1475  0.0144  0.0234
  866SOL    HW1 2597   3.013   2.910   0.893  0.1473  1.8524 -2.2234
  866SOL    HW2 2598   2.954   2.802   1.016  0.3799  0.9070  0.3796
  867SOL     OW 2599   0.329   1.374   0.931  0.2122 -0.4624 -0.2158
  867SOL    HW1 2600   0.341   1.299   0.859  0.4781 -2.0105 -2.0975
  867SOL    HW2 2601   0.265   1.449   0.899  1.4002 -1.7252 -1.1944
  868SOL     OW 2602   0.759   1.908   2.027  0.3312  0.0299  0.0163
  868SOL    HW1 2603   0.726   1.900   2.127 -0.6060 -1.0347 -2.0636
  868SOL    HW2 2604   0.733   1.998   1.984 -0.9874  0.8392 -0.1269
  869SOL     OW 2605   2.507   1.925   1.601 -0.2602 -0.1659 -0.2721
  869SOL    HW1 2606   2.589   1.969   1.552 -0.6399 -0.0330  1.3599
  869SOL    HW2 2607   2.505   1.821   1.594 -0.2691 -1.0641  1.5141
  870SOL     OW 2608   2.294   2.623   1.280 -0.3667 -0.0090 -0.1484
  870SOL    HW1 2609   2.312   2.530   1.234 -1.4680 -4.1425 -3.5123
  870SOL    HW2 2610   2.244   2.608   1.370  0.1131 -0.9509 -0.5662
  871SOL     OW 2611   2.989   2.090   0.572  0.0577 -0.0901  0.4280
  871SOL    HW1 2612   2.921   2.133   0.638 -3.6844  1.0373 -0.3273
  871SOL    HW2 2613   2.936   2.041   0.493 -1.8282 -0.9790  0.4508
  872SOL     OW 2614   2.131   0.481   1.689  0.2447  0.0590 -0.1898
  872SOL    HW1 2615   2.071   0.449   1.768 -0.1690  0.3534  0.8668
  872SOL    HW2 2616   2.218   0.427   1.691 -0.5216 -0.7902 -0.0117
  873SOL     OW 2617   1.735   2.081   2.996  0.1843 -0.0163 -0.2619
  873SOL    HW1 2618   1.725   2.184   3.020  0.2043  0.1209  0.9192
  873SOL    HW2 2619   1.693   2.070   2.900  0.9236  1.2120  0.5261
  874SOL     OW 2620   0.658   2.461   0.807  0.0643 -0.2943 -0.0148
  874SOL    HW1 2621   0.659   2.566   0.831  0.1386  1.7599  3.0770
  874SOL    HW2 2622   0.752   2.422   0.792 -0.7745  1.1276  0.2447
  875SOL     OW 2623   2.296   1.468   1.431  0.0739 -0.0841  0.1537
  875SOL    HW1 2624   2.373   1.518   1.479  0.3845 -2.6206 -0.6362
  875SOL    HW2 2625   2.300   1.474   1.325 -0.6856  0.1755 -3.1872
  876SOL     OW 2626   0.077   2.242   2.688  0.1771  0.0627  0.5953
  876SOL    HW1 2627   0.122   2.157   2.723 -3.1420  0.8087 -2.6612
  876SOL    HW2 2628   0.106   2.332   2.735 -1.0823  0.3994  0.0169
  877SOL     OW 2629   2.863   2.688   0.581 -0.4629 -0.1794  0.1322
  877SOL    HW1 2630   2.831   2.774   0.623  0.8074 -0.4048  1.0444
  877SOL    HW2 2631   2.912   2.621   0.650  0.0365 -0.3771 -2.1080
  878SOL     OW 2632   2.832   1.596   2.187  0.4195 -0.3296  0.3087
  878SOL    HW1 2633   2.911   1.539   2.157  0.1822  0.4012 -2.9789
  878SOL    HW2 2634   2.841   1.629   2.284  0.4187  0.2190  0.4803
  879SOL     OW 2635   2.377   0.041   1.138  0.5905  0.1005 -0.1622
  879SOL    HW1 2636   2.426  -0.049   1.151 -0.7871  0.0554  0.4254
  879SOL    HW2 2637   2.291   0.021   1.085 -0.5700  1.1729  1.5837
  880SOL     OW 2638   0.680   0.479   2.233 -0.5043 -0.3424  0.1234
  880SOL    HW1 2639   0.600   0.426   2.276 -0.3116 -0.9666  1.5211
  880SOL    HW2 2640   0.723   0.422   2.157  0.5266 -2.3109 -0.2112
  881SOL     OW 2641   0.886   0.076   0.508  0.5575  0.0818  0.1079
  881SOL    HW1 2642   0.945  -0.011   0.508 -1.8180 -1.6698 -0.2035
  881SOL    HW2 2643   0.807   0.070   0.448  2.6169 -1.6057 -1.1709
  882SOL     OW 2644   2.713   1.658   1.641  0.3218 -0.1971  0.9879
  882SOL    HW1 2645   2.814   1.663   1.607  1.3949  0.1773  0.2857
  882SOL    HW2 2646   2.699   1.682   1.741 -2.4081 -2.3477 -0.3295
  883SOL     OW 2647   0.888   0.588   0.959  0.6610  0.0670 -0.3398
  883SOL    HW1 2648   0.930   0.677   0.994  2.3247 -0.5977  0.6924
  883SOL    HW2 2649   0.903   0.509   1.023  0.4483 -2.8804  0.4909
  884SOL     OW 2650   1.178   1.786   1.133 -0.1195  0.2023 -0.9852
  884SOL    HW1 2651   1.144   1.714   1.071 -1.7951  1.2383  2.9007
  884SOL    HW2 2652   1.114   1.864   1.140 -2.9887  0.4255 -0.4874
  885SOL     OW 2653   2.351   1.824   2.305  0.0115  0.0365  0.1677
  885SOL    HW1 2654   2.267   1.764   2.313 -0.6105 -1.5751  0.4862
  885SOL    HW2 2655   2.322   1.931   2.305 -1.9844  3.1705 -1.4382
  886SOL     OW 2656   2.606   0.464   1.811  0.5177 -0.1304 -0.2038
  886SOL    HW1 2657   2.645   0.374   1.838 -0.6861  0.6083  1.1267
  886SOL    HW2 2658   2.681   0.531   1.792 -0.2825 -1.1677 -0.6913
  887SOL     OW 2659   0.149   2.037   1.224  0.1153 -0.3469 -0.3041
  887SOL    HW1 2660   0.053   2.008   1.195 -3.2618  2.3278 -0.9804
  887SOL    HW2 2661   0.164   2.143   1.211  2.8903  0.5592 -2.1520
  888SOL     OW 2662   0.546   1.322   1.561  0.1477  0.2831  0.3025
  888SOL    HW1 2663   0.598   1.348   1.475  0.5602  1.0385  1.4160
  888SOL    HW2 2664   0.497   1.235   1.546 -0.9697  2.1961  0.9818
  889SOL     OW 2665   0.806   2.541   2.181 -0.2990 -0.2175 -0.1956
  889SOL    HW1 2666   0.753   2.455   2.199  0.2930  0.2957 -3.8476
  889SOL    HW2 2667   0.875   2.524   2.102 -1.5855 -4.1492 -1.2649
  890SOL     OW 2668   2.359   2.484   0.214 -0.1506  0.1523 -0.5179
  890SOL    HW1 2669   2.405   2.555   0.154 -1.2586  1.8786 -1.4333
  890SOL    HW2 2670   2.312   2.526   0.299 -0.9731 -0.0941  1.3130
  891SOL     OW 2671   2.603   1.608   0.745 -0.1382 -0.7207 -0.7215
  891SOL    HW1 2672   2.571   1.535   0.812  0.0304 -1.0809  2.3985
  891SOL    HW2 2673   2.525   1.646   0.688  2.6936  0.4632 -2.3214
  892SOL     OW 2674   0.328   0.222   2.152 -0.3991 -0.4833  0.3406
  892SOL    HW1 2675   0.296   0.270   2.068  0.8400  0.6521  1.3878
  892SOL    HW2 2676   0.375   0.289   2.219  1.4328 -1.4667 -1.8718
  893SOL     OW 2677   1.660   0.237   2.760 -0.4541 -0.0722  0.1826
  893SOL    HW1 2678   1.741   0.306   2.754 -0.2079  0.4903 -0.9050
  893SOL    HW2 2679   1.566   0.278   2.738 -1.5126  0.9077  0.3315
  894SOL     OW 2680   2.225   2.003   0.028  0.5525 -0.6655  0.4047
  894SOL    HW1 2681   2.207   1.922  -0.027  1.9137  1.4210 -1.2004
  894SOL    HW2 2682   2.238   1.981   0.131  2.6204  0.3742  0.6373
  895SOL     OW 2683   2.867   1.430   0.882  0.0163  0.4116  0.1118
  895SOL    HW1 2684   2.935   1.367   0.924 -2.4877  0.0662 -0.0783
  895SOL    HW2 2685   2.898   1.528   0.862  4.1763  1.2123 -1.9087
  896SOL     OW 2686   1.808   1.856   1.178  0.1233 -0.5163 -0.1615
  896SOL    HW1 2687   1.805   1.834   1.077 -1.8123 -1.2900 -0.5609
  896SOL    HW2 2688   1.734   1.924   1.202  0.5159  0.6600 -0.5016
  897SOL     OW 2689   0.288   0.543   3.082  0.0903 -0.5897  0.0193
  897SOL    HW1 2690   0.249   0.621   3.021  1.1839  2.6722 -3.6163
  897SOL    HW2 2691   0.385   0.574   3.108  2.7543 -0.1164 -2.9955
  898SOL     OW 2692   0.590   2.858   1.121 -0.1121 -0.4282  0.0538
  898SOL    HW1 2693   0.548   2.948   1.156  0.5339 -1.3795 -0.5005
  898SOL    HW2 2694   0.680   2.831   1.172  0.7208  0.7512  1.3382
  899SOL     OW 2695   2.748   0.881   1.272 -0.4487 -0.1151 -0.6165
  899SOL    HW1 2696   2.678   0.862   1.197  1.0092  0.2186  0.5061
  899SOL    HW2 2697   2.836   0.909   1.226 -2.1245 -1.0237  0.8917
  900SOL     OW 2698   1.022   2.567   2.382  0.4647  0.6411 -0.6428
  900SOL    HW1 2699   0.942   2.561   2.317  1.3270 -0.2840  1.7593
  900SOL    HW2 2700   0.996   2.535   2.478  0.6801  0.6310  1.0237
  901SOL     OW 2701   1.875   2.371   1.396 -0.5505  0.3013  0.4298
  901SOL    HW1 2702   1.840   2.358   1.297  0.7800 -0.1371 -2.5017
  901SOL    HW2 2703   1.975   2.341   1.411 -0.4525 -1.6347  0.3669
  902SOL     OW 2704   2.531   1.658   1.424  0.4847 -0.1838 -0.4661
  902SOL    HW1 2705   2.584   1.627   1.506 -2.4269 -1.3733  0.1443
  902SOL    HW2 2706   2.580   1.636   1.337  0.0417 -2.3285 -2.0082
  903SOL     OW 2707   0.277   2.480   1.970 -0.3757 -0.3619  0.3188
  903SOL    HW1 2708   0.194   2.436   1.934  2.1258  0.2175 -0.2933
  903SOL    HW2 2709   0.304   2.556   1.901  0.0014  1.3067  1.6971
  904SOL     OW 2710   2.062   0.693   2.442 -0.6355 -0.2949 -0.5533
  904SOL    HW1 2711   1.999   0.675   2.523 -2.3879  1.8903  0.2289
  904SOL    HW2 2712   2.005   0.717   2.356  1.2720 -0.1946  0.5683
  905SOL     OW 2713   2.799   0.065   2.590  0.3844  0.2338 -0.0569
  905SOL    HW1 2714   2.852  -0.025   2.597 -2.7729 -1.1924  2.0002
  905SOL    HW2 2715   2.858   0.149   2.576  1.9101  1.0155  1.6487
  906SOL     OW 2716   0.157   1.789   1.864  0.2902 -0.1138  0.3552
  906SOL    HW1 2717   0.121   1.790   1.766  1.5864  1.7049 -0.6613
  906SOL    HW2 2718   0.254   1.835   1.865  2.4594  0.2016 -0.4954
  907SOL     OW 2719   0.145   2.466   1.003  0.0010  0.4374  0.1088
  907SOL    HW1 2720   0.245   2.467   0.985 -2.5788  0.2815  3.4926
  907SOL    HW2 2721   0.095   2.404   0.939  0.3200  2.8937  0.8806
  908SOL     OW 2722   2.664   2.964   0.400  0.2773  0.0494  0.2722
  908SOL    HW1 2723   2.641   3.016   0.311 -0.8677  0.4993 -0.3149
  908SOL    HW2 2724   2.743   2.897   0.385 -1.7028  0.2695  2.1893
  909SOL     OW 2725   0.770   0.984   2.724 -0.2649 -0.4293  0.3404
  909SOL    HW1 2726   0.736   0.908   2.662  0.9115 -0.2075  1.3601
  909SOL    HW2 2727   0.839   1.044   2.675 -0.0602 -1.7977  2.0328
  910SOL     OW 2728   1.748   1.863   2.145  0.5422  0.2548 -0.3924
  910SOL    HW1 2729   1.804   1.892   2.061  0.4803 -0.3979  1.4800
  910SOL    HW2 2730   1.662   1.922   2.158  1.8992 -2.4247 -0.5933
  911SOL     OW 2731   1.865   2.937   1.588 -0.3719  0.3091  0.1784
  911SOL    HW1 2732   1.935   2.901   1.518  1.1313  0.5841  0.6006
  911SOL    HW2 2733   1.855   2.881   1.672 -2.2501 -2.0702 -0.6879
  912SOL     OW 2734   2.915   0.982   0.741 -0.0376  0.0539  0.2379
  912SOL    HW1 2735   2.917   0.962   0.844 -0.5027 -0.5273  0.8865
  912SOL    HW2 2736   2.879   1.076   0.719 -0.4158  0.6371 -1.7165
  913SOL     OW 2737   2.553   1.288   1.537 -0.0256 -0.4739  0.5747
  913SOL    HW1 2738   2.559   1.188   1.531  0.9282 -0.4430  3.4578
  913SOL    HW2 2739   2.600   1.332   1.451  2.6590 -0.3171 -0.0453
  914SOL     OW 2740   2.835   0.551   1.216 -0.6738 -0.4770 -0.4390
  914SOL    HW1 2741   2.894   0.474   1.240 -3.4072  0.8435  1.3132
  914SOL    HW2 2742   2.778   0.593   1.293  2.7426  1.2125  0.1200
  915SOL     OW 2743   1.243   0.788   1.038 -0.3672  0.3579 -0.2639
  915SOL    HW1 2744   1.295   0.761   1.123  0.7450  1.4424  0.4403
  915SOL    HW2 2745   1.151   0.819   1.067  0.1325 -2.1497  0.8048
  916SOL     OW 2746   0.636   0.009   0.675 -0.3234 -0.1810 -0.0176
  916SOL    HW1 2747   0.665   0.096   0.724 -0.5111  1.3261  0.5518
  916SOL    HW2 2748   0.626   0.018   0.574  1.6330 -1.8633 -0.0091
  917SOL     OW 2749   2.816   2.623   1.976  0.6224 -0.4387 -0.1549
  917SOL    HW1 2750   2.711   2.624   1.979 -0.0332  1.3615  1.7675
  917SOL    HW2 2751   2.861   2.715   1.953  0.7451  3.2406  3.1599
  918SOL     OW 2752   1.062   2.232   2.973 -0.1980  0.0347  0.1692
  918SOL    HW1 2753   1.034   2.231   3.072  0.0449 -0.4663 -0.3721
  918SOL    HW2 2754   1.126   2.151   2.952 -0.4360 -0.9790  3.0396
  919SOL     OW 2755   0.874   1.645   2.837 -0.0517 -0.2658  0.0116
  919SOL    HW1 2756   0.936   1.701   2.780 -0.2501 -0.5979  1.5603
  919SOL    HW2 2757   0.820   1.575   2.784  0.7711 -1.9805 -0.0800
  920SOL     OW 2758   1.266   1.903   2.467  0.4675 -0.0107 -0.1441
  920SOL    HW1 2759   1.236   1.883   2.373 -1.5394  0.8514  1.6924
  920SOL    HW2 2760   1.291   1.818   2.524 -0.1766  0.8056 -0.5416
  921SOL     OW 2761   1.091   0.040   2.615  0.0102 -0.0837 -0.7264
  921SOL    HW1 2762   1.096   0.062   2.513 -2.2127  0.6507  0.5272
  921SOL    HW2 2763   1.012  -0.017   2.636  2.0870 -0.1886 -0.2365
  922SOL     OW 2764   2.162   2.415   2.840 -0.5984  0.0705  0.8479
  922SOL    HW1 2765   2.183   2.316   2.837  0.4122 -0.8358  0.5592
  922SOL    HW2 2766   2.088   2.432   2.769 -2.4462  0.4406  1.1174
  923SOL     OW 2767   1.243   2.725   0.249  0.5707  0.0140  0.4164
  923SOL    HW1 2768   1.308   2.756   0.322 -0.1383 -0.2649  1.3894
  923SOL    HW2 2769   1.252   2.622   0.234  0.0639 -1.7132  0.9817
  924SOL     OW 2770   2.875   1.526   0.066 -0.2876  0.0049  0.1189
  924SOL    HW1 2771   2.802   1.510  -0.007 -1.1975  2.3251 -1.7685
  924SOL    HW2 2772   2.959   1.474   0.047  0.9595  1.7033 -1.4154
  925SOL     OW 2773   0.018   2.966   1.498 -0.6640 -0.5702  0.0111
  925SOL    HW1 2774  -0.059   2.989   1.567 -1.5412 -0.0556  0.6733
  925SOL    HW2 2775  -0.010   2.896   1.427  1.5356  2.8233 -1.1835
  926SOL     OW 2776   1.347   2.820   1.254 -0.1187 -0.0793  0.1525
  926SOL    HW1 2777   1.421   2.816   1.177  1.0272 -1.2332 -0.5353
  926SOL    HW2 2778   1.385   2.864   1.341  1.7256  0.8246  0.1767
  927SOL     OW 2779   0.321   2.675   1.784 -0.2529  0.1007 -0.1469
  927SOL    HW1 2780   0.280   2.610   1.711 -3.2290 -0.3223 -1.3087
  927SOL    HW2 2781   0.289   2.775   1.776  1.9073 -0.7279  0.3165
  928SOL     OW 2782   1.549   2.027   2.194 -0.1398  0.0459 -0.4994
  928SOL    HW1 2783   1.573   2.122   2.148  1.4036  0.3981  1.0841
  928SOL    HW2 2784   1.458   1.984   2.167  1.4368  2.9395  1.0349
  929SOL     OW 2785   2.435   2.472   2.899  0.5317 -0.1025  0.4181
  929SOL    HW1 2786   2.338   2.438   2.873 -2.2613 -1.5653  1.3563
  929SOL    HW2 2787   2.490   2.494   2.816 -1.8732 -1.9491 -1.2907
  930SOL     OW 2788   2.190   1.962   1.048  0.2223  0.2607 -0.1381
  930SOL    HW1 2789   2.136   1.951   1.137 -0.4008 -0.0790 -0.7427
  930SOL    HW2 2790   2.256   2.040   1.056  0.2773 -1.8983  0.5709
  931SOL     OW 2791   0.535   1.713   2.703 -0.3021  0.1236 -0.2243
  931SOL    HW1 2792   0.596   1.719   2.786 -0.5747 -0.4365 -3.8411
  931SOL    HW2 2793   0.572   1.630   2.653 -2.2548  0.7430  1.3374
  932SOL     OW 2794   0.417   0.099   2.947  1.1428 -0.4977 -0.3858
  932SOL    HW1 2795   0.512   0.136   2.942 -2.9160  0.7507  0.6523
  932SOL    HW2 2796   0.419  -0.001   2.986 -0.5275 -3.3348  0.2773
  933SOL     OW 2797   1.031   0.729   3.029  0.1154 -0.1252 -0.0271
  933SOL    HW1 2798   1.105   0.778   3.085 -0.0810 -0.3273  2.2867
  933SOL    HW2 2799   0.953   0.794   3.011 -1.2974 -1.0755  0.5823
  934SOL     OW 2800   0.882   2.984   2.660  0.1186  0.2922  0.2805
  934SOL    HW1 2801   0.854   2.915   2.591  2.1920  1.0734  0.5623
  934SOL    HW2 2802   0.912   2.952   2.755 -2.2528 -0.7099  1.4448
  935SOL     OW 2803   0.015   0.558   0.840 -0.1322 -0.0997  0.0228
  935SOL    HW1 2804   0.001   0.499   0.759 -1.6701  0.5551  1.5714
  935SOL    HW2 2805  -0.073   0.617   0.854 -1.0809  2.2925 -0.5359
  936SOL     OW 2806   1.109   2.900   0.099 -0.8131  0.8031  0.5521
  936SOL    HW1 2807   1.169   2.954   0.030  0.6112  1.8873 -2.1228
  936SOL    HW2 2808   1.152   2.823   0.149 -1.7215  1.7309 -0.0386
  937SOL     OW 2809   1.972   2.656   2.110 -0.1112  0.2563 -0.2731
  937SOL    HW1 2810   1.878   2.696   2.093  4.2752  0.2328 -0.2529
  937SOL    HW2 2811   2.047   2.722   2.076 -1.0951  1.6076 -1.2399
  938SOL     OW 2812   2.775   2.051   1.484 -0.4801  0.0358 -0.0521
  938SOL    HW1 2813   2.715   2.123   1.534 -0.9696 -0.3305  1.2927
  938SOL    HW2 2814   2.865   2.037   1.543  2.0432 -1.9351  0.7642
  939SOL     OW 2815   2.819   1.230   2.477  0.0641  0.1514 -0.3502
  939SOL    HW1 2816   2.900   1.205   2.420  0.5593 -1.2767 -1.0876
  939SOL    HW2 2817   2.817   1.197   2.576 -0.6696  1.1211  0.1880
  940SOL     OW 2818   0.974   0.452   2.703 -0.4538 -0.4237 -0.5144
  940SOL    HW1 2819   1.032   0.369   2.742  4.1306  1.0796  0.6264
  940SOL    HW2 2820   0.872   0.433   2.675 -2.5860  0.4339 -2.6605
  941SOL     OW 2821   0.076   2.835   2.237 -0.1801  0.1213 -0.8208
  941SOL    HW1 2822   0.116   2.739   2.215 -1.6585 -2.7663 -1.3547
  941SOL    HW2 2823   0.130   2.872   2.313  0.3965  0.3731  2.7603
  942SOL     OW 2824   0.058   0.114   2.485  0.2686  0.6076  0.3172
  942SOL    HW1 2825   0.106   0.167   2.559  1.4352 -2.7808 -0.4600
  942SOL    HW2 2826   0.049   0.163   2.395 -0.3436 -1.1687  1.7381
  943SOL     OW 2827   2.109   1.661   2.352  0.3823 -0.3550 -0.5190
  943SOL    HW1 2828   2.085   1.614   2.269  0.8201  2.3286  1.2743
  943SOL    HW2 2829   2.105   1.603   2.438 -0.7786 -3.5336 -2.3787
  944SOL     OW 2830   2.147   2.365   1.467  0.1631 -0.1506 -0.4435
  944SOL    HW1 2831   2.214   2.434   1.514 -0.3999  0.3556 -0.2403
  944SOL    HW2 2832   2.106   2.289   1.528  1.1443 -0.0599 -0.8999
  945SOL     OW 2833   0.696   1.491   0.314 -0.7199 -0.2287 -0.7395
  945SOL    HW1 2834   0.682   1.549   0.230 -0.2318  1.1699  1.8586
  945SOL    HW2 2835   0.738   1.400   0.298 -2.5754  1.5653  0.0521
  946SOL     OW 2836   0.405   0.933   2.495 -0.0126  0.1168  0.3472
  946SOL    HW1 2837   0.323   0.892   2.442  1.0466 -2.1302  0.4937
  946SOL    HW2 2838   0.383   1.004   2.565  0.0425  1.6083 -1.3045
  947SOL     OW 2839   1.552   0.501   0.045  0.2789  0.8998 -0.1487
  947SOL    HW1 2840   1.520   0.547  -0.039  2.9536 -0.9975  1.2287
  947SOL    HW2 2841   1.473   0.495   0.114 -3.2714  0.6944  1.8194
  948SOL     OW 2842   1.983   3.047   2.172  0.2928  0.0311 -0.0287
  948SOL    HW1 2843   1.965   3.016   2.074  2.2593 -1.4725  0.8524
  948SOL    HW2 2844   1.944   2.980   2.246 -3.7766 -2.9215  0.1146
  949SOL     OW 2845   0.606   2.494   0.523  0.5021  0.0054 -0.7203
  949SOL    HW1 2846   0.596   2.600   0.519 -0.3116  1.0265  2.7106
  949SOL    HW2 2847   0.639   2.458   0.615  0.7583  3.2319  2.1989
  950SOL     OW 2848   0.212   2.134   3.068 -0.0686  0.1057 -0.1467
  950SOL    HW1 2849   0.164   2.226   3.067  0.3291 -1.8668 -1.2747
  950SOL    HW2 2850   0.185   2.072   2.989  0.5876 -0.2045  0.7296
  951SOL     OW 2851   1.189   2.786   2.655 -0.2940  0.2716 -0.5065
  951SOL    HW1 2852   1.189   2.801   2.551 -4.0511 -1.3342 -0.5750
  951SOL    HW2 2853   1.165   2.873   2.708  0.8376  2.6890  1.1148
  952SOL     OW 2854   0.098   1.686   0.451  0.9591 -0.3952 -0.0537
  952SOL    HW1 2855   0.124   1.783   0.478  1.2446  2.1478  4.4839
  952SOL    HW2 2856   0.136   1.620   0.530  1.6074  0.0901  1.9301
  953SOL     OW 2857   2.500   1.775   0.227  0.2407 -0.1480  0.0323
  953SOL    HW1 2858   2.498   1.673   0.232  2.3754 -1.8198 -1.9087
  953SOL    HW2 2859   2.525   1.814   0.130  0.7785  3.1234  2.1707
  954SOL     OW 2860   2.176   0.537   0.965  0.0138 -0.0009  0.2965
  954SOL    HW1 2861   2.168   0.603   0.887  0.0892 -1.7383 -1.5387
  954SOL    HW2 2862   2.276   0.519   0.991 -0.9626 -0.1800 -0.8173
  955SOL     OW 2863   0.200   2.620   1.323  0.3577 -0.0292  0.8651
  955SOL    HW1 2864   0.105   2.667   1.318  1.5799 -0.4907 -1.8164
  955SOL    HW2 2865   0.251   2.624   1.233  1.8252 -2.0750  0.8832
  956SOL     OW 2866   2.757   2.460   2.434 -0.1142 -0.3474  0.6869
  956SOL    HW1 2867   2.757   2.360   2.408  0.9335  2.2481  2.2741
  956SOL    HW2 2868   2.791   2.528   2.358 -2.3259  1.1190 -4.4296
  957SOL     OW 2869   1.568   2.058   2.763 -0.3218 -0.3087 -0.6547
  957SOL    HW1 2870   1.554   1.957   2.784 -1.9208 -0.3386 -1.5068
  957SOL    HW2 2871   1.589   2.082   2.666 -3.2841 -1.6481 -0.2905
  958SOL     OW 2872   2.688   2.331   2.979 -0.5214  0.6762 -0.0937
  958SOL    HW1 2873   2.608   2.393   2.956 -1.4727 -0.3818 -0.8127
  958SOL    HW2 2874   2.666   2.278   3.065  1.9549  0.8161 -0.9170
  959SOL     OW 2875   0.233   2.785   0.058  0.5393 -0.4787  0.5485
  959SOL    HW1 2876   0.133   2.763   0.036 -1.1404  0.1367 -1.3282
  959SOL    HW2 2877   0.271   2.728   0.135 -0.3641 -1.0014 -0.1258
  960SOL     OW 2878   1.949   0.426   1.909 -0.0544  0.5396  0.3666
  960SOL    HW1 2879   1.915   0.524   1.900  0.0475  1.2922  0.4775
  960SOL    HW2 2880   1.968   0.409   2.010  1.9884 -0.2730 -1.4611
  961SOL     OW 2881   2.544   1.847   1.024 -0.8438  0.4029  0.0072
  961SOL    HW1 2882   2.524   1.933   0.970 -0.0022  0.4987 -0.9952
  961SOL    HW2 2883   2.496   1.835   1.115  0.8158  2.7016  2.6251
  962SOL     OW 2884   1.269   0.904   0.044  0.0792  0.0681 -0.2974
  962SOL    HW1 2885   1.260   0.974  -0.032 -2.1616  2.0941  0.3941
  962SOL    HW2 2886   1.273   0.953   0.136 -2.3611 -0.2203 -0.9728
  963SOL     OW 2887   2.189   2.557   1.869 -0.7311  0.0365  0.0636
  963SOL    HW1 2888   2.200   2.461   1.911  3.0984 -1.7259 -0.5861
  963SOL    HW2 2889   2.219   2.631   1.943  0.6650  1.3883 -1.2783
  964SOL     OW 2890   2.395   0.392   1.657 -0.0641 -0.0983  0.1542
  964SOL    HW1 2891   2.465   0.458   1.705  0.0079  0.8136 -0.7606
  964SOL    HW2 2892   2.398   0.403   1.553  0.9226  1.3279  0.5586
  965SOL     OW 2893   2.586   3.047   0.170  0.3001 -0.0880  0.1619
  965SOL    HW1 2894   2.663   3.050   0.102 -2.1061  0.2760  0.2676
  965SOL    HW2 2895   2.499   3.072   0.131  1.8701  0.4671  0.0333
  966SOL     OW 2896   2.484   2.477   2.207  0.1373 -0.2144 -0.1439
  966SOL    HW1 2897   2.390   2.511   2.232 -0.0981 -0.2750  0.2930
  966SOL    HW2 2898   2.525   2.534   2.134  1.3318  1.3739  1.6067
  967SOL     OW 2899   2.819   2.797   2.459  0.0240  0.7683 -0.0515
  967SOL    HW1 2900   2.851   2.733   2.387 -0.4727  2.5038  1.0146
  967SOL    HW2 2901   2.882   2.878   2.469  0.9049  0.1791 -1.8754
  968SOL     OW 2902   1.951   1.059   2.644 -0.2582  0.2950  0.4964
  968SOL    HW1 2903   1.879   1.094   2.572  1.7499 -0.4740  1.8595
  968SOL    HW2 2904   2.019   0.986   2.613  0.4453  1.2129  1.4453
  969SOL     OW 2905   2.764   2.437   1.079  0.2370 -0.1747  0.0948
  969SOL    HW1 2906   2.711   2.400   0.997  3.1217  0.0120 -0.5793
  969SOL    HW2 2907   2.787   2.362   1.146  0.2121 -2.5800 -0.4551
  970SOL     OW 2908   1.066   2.130   1.762  0.1244  0.4536 -0.2302
  970SOL    HW1 2909   0.974   2.142   1.715 -2.0967 -1.7337  0.4790
  970SOL    HW2 2910   1.054   2.138   1.863 -1.4579  0.5803  0.0066
  971SOL     OW 2911   2.834   2.086   1.871 -0.1226  0.3525  0.3471
  971SOL    HW1 2912   2.866   2.176   1.907  0.4161 -1.8359 -1.4124
  971SOL    HW2 2913   2.864   2.057   1.776 -3.4309 -0.2669  0.6374
  972SOL     OW 2914   1.944   2.422   0.179 -0.0308  0.0229  0.4256
  972SOL    HW1 2915   1.968   2.352   0.105 -1.1258  0.8288 -2.4272
  972SOL    HW2 2916   1.998   2.413   0.270 -0.4198 -0.8875  3.3569
  973SOL     OW 2917   1.330   1.062   1.862  0.8338 -0.1064  0.1619
  973SOL    HW1 2918   1.267   1.010   1.798  0.3484 -0.5226 -0.3836
  973SOL    HW2 2919   1.289   1.148   1.899 -1.8769  0.3853  0.5741
  974SOL     OW 2920   1.626   0.554   1.992  0.1586  0.0468  0.1400
  974SOL    HW1 2921   1.705   0.600   1.941  0.5695 -0.8149 -4.5056
  974SOL    HW2 2922   1.537   0.604   1.971 -3.3470 -0.2863  1.5224
  975SOL     OW 2923   2.349   3.053   0.044 -0.0994 -1.1093 -0.6667
  975SOL    HW1 2924   2.301   2.958   0.043  1.8633 -0.7023  0.0977
  975SOL    HW2 2925   2.382   3.079  -0.053 -0.8202 -0.4463 -3.0922
  976SOL     OW 2926   1.917   2.849   2.343 -0.0857  0.9124  0.2842
  976SOL    HW1 2927   1.841   2.796   2.295 -0.4383 -0.8430 -0.9177
  976SOL    HW2 2928   1.937   2.803   2.432  0.3676 -2.4623 -4.2534
  977SOL     OW 2929   0.465   0.715   1.046 -0.1030 -0.1793 -0.1028
  977SOL    HW1 2930   0.394   0.718   0.977  0.7072  1.2990  0.4207
  977SOL    HW2 2931   0.544   0.656   1.014  0.5364 -1.7201  1.4642
   3.10000   3.10000   3.10000
