1000 SPC/Fw water molecules t=   1.48000 step= 1480
 2931
    1SOL     OW    1   2.436   0.344   2.655  0.1679  0.2802 -0.0849
    1SOL    HW1    2   2.430   0.242   2.642 -0.8567 -0.1686  0.0663
    1SOL    HW2    3   2.493   0.378   2.741  1.4099  0.8928  3.3046
    2SOL     OW    4   2.727   2.984   1.395 -0.5843  0.1166  0.3536
    2SOL    HW1    5   2.826   3.004   1.370  0.6255 -0.6575  1.3715
    2SOL    HW2    6   2.690   3.054   1.456 -0.5068 -0.6082 -1.7082
    3SOL     OW    7   2.647   2.554   0.388  0.3840 -0.4912  0.1633
    3SOL    HW1    8   2.614   2.453   0.399 -0.8092  1.5667  1.8251
    3SOL    HW2    9   2.686   2.596   0.475 -3.8546  2.1149  1.2501
    4SOL     OW   10   1.219   1.515   2.412  0.2314  0.1093  0.0209
    4SOL    HW1   11   1.169   1.494   2.327  0.8354  1.6367 -0.7068
    4SOL    HW2   12   1.245   1.435   2.472  0.0925  0.9377  0.6441
    5SOL     OW   13   1.190   1.556   2.921 -0.2864 -0.2738  0.5630
    5SOL    HW1   14   1.248   1.621   2.984  3.0314 -2.2038  1.8233
    5SOL    HW2   15   1.099   1.602   2.904  1.0637  3.2547  0.3109
    6SOL     OW   16   0.284   1.783   3.014  0.0211 -0.2917 -0.2191
    6SOL    HW1   17   0.185   1.774   2.995 -0.0563  0.9312 -0.1890
    6SOL    HW2   18   0.301   1.785   3.114  2.7166  1.1184  3.0376
    7SOL     OW   19   2.475   0.905   1.044 -0.2394 -0.0047 -0.7750
    7SOL    HW1   20   2.395   0.846   1.069  2.7090 -0.6054  0.5379
    7SOL    HW2   21   2.527   0.870   0.962 -1.2422 -1.7153 -0.7847
    8SOL     OW   22   0.343   0.680   1.519  1.2478  0.1991 -0.3214
    8SOL    HW1   23   0.429   0.620   1.539  0.6019  0.3578  1.6718
    8SOL    HW2   24   0.357   0.744   1.438 -0.4119 -1.4839 -1.0077
    9SOL     OW   25   1.165   0.840   2.354 -0.4152  0.6996 -0.2750
    9SOL    HW1   26   1.246   0.880   2.294  1.6323  2.1378 -1.3097
    9SOL    HW2   27   1.150   0.739   2.342 -0.2464  1.2103  0.8038
   10SOL     OW   28   0.727   1.393   1.280  0.5948  0.4698 -1.0234
   10SOL    HW1   29   0.633   1.403   1.228 -2.2079 -0.2255  1.0864
   10SOL    HW2   30   0.758   1.481   1.320 -1.1305 -4.2088 -0.2873
   11SOL     OW   31   2.299   2.827   0.854 -0.1249 -0.0155  0.6394
   11SOL    HW1   32   2.272   2.815   0.949 -0.6546 -0.4602 -2.1540
   11SOL    HW2   33   2.403   2.827   0.843  2.7009  1.6034  0.4428
   12SOL     OW   34   1.517   0.927   0.397  0.0302  0.4412 -0.3023
   12SOL    HW1   35   1.441   0.962   0.334 -2.0581 -1.5594  0.1175
   12SOL    HW2   36   1.551   0.834   0.369 -1.3824 -0.5454 -2.2002
   13SOL     OW   37   2.422   0.699   1.789  0.0786  0.5176  0.1387
   13SOL    HW1   38   2.345   0.648   1.840  0.3578  2.8991  1.9373
   13SOL    HW2   39   2.440   0.663   1.690  0.5056  2.0158 -1.8972
   14SOL     OW   40   1.968   3.092   0.596  0.4738 -0.3819 -0.5890
   14SOL    HW1   41   1.877   3.144   0.606  0.3617 -2.1361  0.8390
   14SOL    HW2   42   1.983   3.034   0.680  0.5663  0.5410  1.7712
   15SOL     OW   43   1.879   2.062   2.672  0.1563  0.1814 -0.2103
   15SOL    HW1   44   1.815   2.041   2.750  2.4962 -0.7477 -0.0048
   15SOL    HW2   45   1.852   2.009   2.588  1.3102 -2.5910  1.5685
   16SOL     OW   46   1.609   1.753   3.024 -0.3684 -0.1372  0.3391
   16SOL    HW1   47   1.612   1.653   3.014  1.2946  1.9233 -1.2492
   16SOL    HW2   48   1.708   1.788   3.042 -1.2770  1.8357  0.6260
   17SOL     OW   49   0.109   0.430   0.173  0.0994  0.0599  0.0230
   17SOL    HW1   50   0.190   0.459   0.113 -1.3356  0.8778 -2.3082
   17SOL    HW2   51   0.031   0.395   0.116  3.6140 -0.2267 -0.3938
   18SOL     OW   52   0.906   2.979   2.140  0.1551 -0.8659 -0.5146
   18SOL    HW1   53   0.846   2.896   2.174 -2.5010 -0.4002  0.0081
   18SOL    HW2   54   0.945   2.955   2.048 -1.8949  0.7702  1.7666
   19SOL     OW   55   0.590   0.859   1.895  0.5454 -0.1177  0.6195
   19SOL    HW1   56   0.658   0.825   1.963  0.9246  0.3221 -1.7579
   19SOL    HW2   57   0.621   0.947   1.845  0.0028 -0.0553 -0.7698
   20SOL     OW   58   0.231   2.847   0.841 -0.6448  0.0992 -0.1941
   20SOL    HW1   59   0.134   2.838   0.816 -0.3341  2.0992 -0.2164
   20SOL    HW2   60   0.298   2.777   0.794  1.3608  0.3248  0.4392
   21SOL     OW   61   2.765   0.285   1.981 -0.0548  0.5014  0.4926
   21SOL    HW1   62   2.719   0.201   1.937  1.9380 -0.0660 -1.3159
   21SOL    HW2   63   2.861   0.265   2.011 -2.1856  1.0264  1.1710
   22SOL     OW   64   2.366   0.187   0.134 -0.1667  0.2344  0.4456
   22SOL    HW1   65   2.389   0.093   0.086 -1.4325 -0.1783 -1.5577
   22SOL    HW2   66   2.316   0.249   0.065  2.0891 -3.1336  1.9085
   23SOL     OW   67   2.831   0.527   0.682 -0.0325 -0.4920 -0.0956
   23SOL    HW1   68   2.853   0.450   0.613 -1.4557 -0.2693 -3.9718
   23SOL    HW2   69   2.844   0.619   0.634  0.9710  0.1037 -1.0612
   24SOL     OW   70   0.246   1.848   0.432  0.3171 -0.0375 -0.5541
   24SOL    HW1   71   0.178   1.901   0.371 -1.3929  1.6610 -0.3612
   24SOL    HW2   72   0.342   1.849   0.404 -1.8709 -3.7949 -1.0270
   25SOL     OW   73   2.265   0.610   0.216  0.1124 -0.2196 -0.2495
   25SOL    HW1   74   2.280   0.628   0.116 -1.1392 -2.8788 -0.3995
   25SOL    HW2   75   2.308   0.521   0.253  2.1783  0.3594 -0.6941
   26SOL     OW   76   2.445   2.137   2.103 -0.4563  0.1917 -0.0249
   26SOL    HW1   77   2.518   2.200   2.141  0.0778  0.3214 -0.9553
   26SOL    HW2   78   2.478   2.073   2.025 -2.6764  0.4393 -1.2357
   27SOL     OW   79   0.566   2.929   0.160 -0.7940 -0.2888 -0.3265
   27SOL    HW1   80   0.650   2.987   0.139 -1.3530 -0.5228 -2.3891
   27SOL    HW2   81   0.505   2.930   0.081  3.2863 -2.1158 -1.7932
   28SOL     OW   82   1.632   0.109   0.324 -0.0864  0.0777 -0.0215
   28SOL    HW1   83   1.661   0.052   0.243 -0.8813  2.9065  0.0174
   28SOL    HW2   84   1.646   0.213   0.313  0.1369  3.4279  0.6627
   29SOL     OW   85   1.990   0.604   0.284  0.7399  0.5726  0.0927
   29SOL    HW1   86   1.978   0.659   0.370  3.0670  0.6625  0.2903
   29SOL    HW2   87   2.084   0.611   0.243  0.5484 -0.7586  3.3843
   30SOL     OW   88   0.202   2.061   0.900 -0.1337  0.1299  0.4184
   30SOL    HW1   89   0.204   2.003   0.813  1.7728  0.9296  0.3131
   30SOL    HW2   90   0.101   2.078   0.920 -0.9530  1.8211 -0.3870
   31SOL     OW   91   2.191   0.072   2.382  0.3285 -0.5021 -0.6482
   31SOL    HW1   92   2.169   0.016   2.466 -1.5176 -0.5498 -0.3284
   31SOL    HW2   93   2.129   0.043   2.303  0.1562 -0.7854 -4.2998
   32SOL     OW   94   2.984   3.054   0.264  0.4807  0.2262  0.1040
   32SOL    HW1   95   2.927   2.969   0.260 -0.6927 -0.0622 -0.8308
   32SOL    HW2   96   3.079   3.034   0.305  2.0711  1.7440 -0.3016
   33SOL     OW   97   0.892   0.203   0.625  0.2794 -0.0450  0.0887
   33SOL    HW1   98   0.887   0.149   0.535 -1.0384 -1.1962 -1.1853
   33SOL    HW2   99   0.979   0.263   0.634 -0.6721 -2.3149  0.2999
   34SOL     OW  100   0.330   2.712   1.084 -0.4004 -0.8208 -0.2971
   34SOL    HW1  101   0.287   2.767   1.006  2.2806  2.1992  0.2348
   34SOL    HW2  102   0.427   2.751   1.102 -1.0621  0.6526  0.7224
   35SOL     OW  103   0.010   0.109   1.869  0.6451  0.2143  0.3822
   35SOL    HW1  104   0.052   0.016   1.893  2.7116 -0.2326  0.2174
   35SOL    HW2  105  -0.023   0.130   1.772  0.2209  2.4883  2.2948
   36SOL     OW  106   1.883   1.193   1.516  0.8568 -0.4409 -0.3864
   36SOL    HW1  107   1.936   1.112   1.547  1.5133  2.1863  1.1947
   36SOL    HW2  108   1.926   1.235   1.431 -0.4045  0.3052  0.6654
   37SOL     OW  109   1.130   0.191   0.970 -0.6424  0.3742 -0.1593
   37SOL    HW1  110   1.152   0.291   0.966  1.6582 -1.3022 -1.0805
   37SOL    HW2  111   1.215   0.130   0.948  0.7421  0.8683 -0.9866
   38SOL     OW  112   1.177   2.904   2.436  0.5449 -0.6915  1.0170
   38SOL    HW1  113   1.086   2.892   2.482 -4.0808 -0.1530  1.4766
   38SOL    HW2  114   1.176   2.997   2.386  0.0866  0.8842  3.0305
   39SOL     OW  115   2.460   1.405   3.046  0.5612  0.0674  0.0238
   39SOL    HW1  116   2.538   1.344   3.076  0.8698 -0.3057  1.4340
   39SOL    HW2  117   2.379   1.383   3.107  1.8615  0.7409 -1.4378
   40SOL     OW  118   2.031   2.518   2.612  0.2435  0.5506  0.3266
   40SOL    HW1  119   2.025   2.619   2.596 -1.4718 -0.8715 -2.3725
   40SOL    HW2  120   1.973   2.460   2.551 -2.3226 -0.0409 -0.7789
   41SOL     OW  121   3.022   0.672   2.820  0.1000  1.0292 -0.8434
   41SOL    HW1  122   2.970   0.757   2.845  0.7103 -0.4989  3.4658
   41SOL    HW2  123   2.980   0.616   2.744  0.6337  2.1637  2.5542
   42SOL     OW  124   1.788   1.735   0.574  0.4402 -0.5243 -0.2508
   42SOL    HW1  125   1.739   1.645   0.569 -1.4154 -1.2724 -0.4075
   42SOL    HW2  126   1.842   1.755   0.486  0.8626  2.1205  1.0147
   43SOL     OW  127   0.496   1.665   1.224 -0.3557  0.3503 -0.8172
   43SOL    HW1  128   0.496   1.577   1.176 -2.2583 -0.3457 -0.0747
   43SOL    HW2  129   0.406   1.675   1.280 -1.8113 -0.2145  1.0819
   44SOL     OW  130   1.657   2.386   2.979 -0.3491 -0.6521  0.1713
   44SOL    HW1  131   1.569   2.445   2.976 -0.1461 -0.5545 -1.4877
   44SOL    HW2  132   1.698   2.380   2.880 -2.9478  1.4650 -1.3293
   45SOL     OW  133   0.369   1.914   2.559 -0.2341  0.1119  0.2019
   45SOL    HW1  134   0.302   1.907   2.480  2.3352  0.6648  0.6487
   45SOL    HW2  135   0.439   1.831   2.556 -0.9338 -0.0473  0.2174
   46SOL     OW  136   1.279   0.703   0.273 -0.7850  0.5293  0.3222
   46SOL    HW1  137   1.295   0.767   0.197 -0.4671  2.1279  2.7947
   46SOL    HW2  138   1.209   0.631   0.246 -2.1011  0.7083 -1.6361
   47SOL     OW  139   0.178   2.452   1.564 -0.3177 -0.4505 -0.1709
   47SOL    HW1  140   0.115   2.366   1.558 -0.1461  1.5548 -0.4623
   47SOL    HW2  141   0.199   2.493   1.469 -0.1974  0.4391 -0.7263
   48SOL     OW  142   2.679   0.633   0.153  0.3618  0.0843  0.2221
   48SOL    HW1  143   2.649   0.675   0.247 -0.7883 -0.9688 -2.0398
   48SOL    HW2  144   2.782   0.638   0.127  0.6386 -2.8335  0.1451
   49SOL     OW  145   0.334   0.806   1.755 -0.0047  0.7659 -0.1937
   49SOL    HW1  146   0.417   0.813   1.816  0.6240  1.3444 -0.3590
   49SOL    HW2  147   0.344   0.748   1.666 -0.5517 -0.0119 -1.6751
   50SOL     OW  148   1.743   1.144   0.313  0.4718  0.1911 -0.1374
   50SOL    HW1  149   1.753   1.049   0.275 -1.4239  1.4075 -1.2398
   50SOL    HW2  150   1.687   1.144   0.399  0.2977  0.4697 -0.1039
   51SOL     OW  151   3.007   1.743   0.266 -0.3146 -0.1172 -0.2953
   51SOL    HW1  152   2.949   1.683   0.203  0.5385 -0.1876  1.3899
   51SOL    HW2  153   3.064   1.684   0.326 -2.9669 -0.9135  2.4656
   52SOL     OW  154   0.798   2.150   0.645 -0.4681 -0.0567 -0.1907
   52SOL    HW1  155   0.698   2.175   0.664  0.6130  0.7143 -1.3118
   52SOL    HW2  156   0.823   2.064   0.694 -2.8218 -0.4093  1.7093
   53SOL     OW  157   0.228   0.442   1.498  0.4093 -0.0977 -0.7577
   53SOL    HW1  158   0.259   0.540   1.502 -1.7477  1.2693  0.2273
   53SOL    HW2  159   0.125   0.437   1.478 -0.6115 -2.8852  0.5347
   54SOL     OW  160   1.768   0.500   3.086 -1.1124 -0.3674  0.1498
   54SOL    HW1  161   1.838   0.435   3.131  2.7412  0.4095  0.4100
   54SOL    HW2  162   1.667   0.491   3.114 -0.2883 -0.2075 -1.6864
   55SOL     OW  163   0.727   2.938   0.693 -0.3409  0.5994 -0.8780
   55SOL    HW1  164   0.665   3.024   0.680 -0.8914  0.8321 -2.0780
   55SOL    HW2  165   0.820   2.935   0.644 -0.0449  0.8658 -1.7548
   56SOL     OW  166   0.584   1.584   3.068 -0.0412 -0.7375 -0.2399
   56SOL    HW1  167   0.502   1.639   3.110  1.8019  1.8514  1.5040
   56SOL    HW2  168   0.555   1.496   3.019 -1.0192  1.1176 -2.8080
   57SOL     OW  169   1.739   2.503   2.398 -0.8996  0.0551 -0.1966
   57SOL    HW1  170   1.790   2.418   2.417 -1.5498  1.4439 -1.1337
   57SOL    HW2  171   1.654   2.521   2.457  1.8469  2.1963  2.2861
   58SOL     OW  172   0.664   0.243   1.085 -0.0772 -0.2740 -0.2552
   58SOL    HW1  173   0.587   0.246   1.153 -0.3556 -0.8162  0.1902
   58SOL    HW2  174   0.730   0.163   1.105  0.0588 -1.5384  2.6849
   59SOL     OW  175   0.456   2.406   2.721  0.3909 -0.4653 -0.1070
   59SOL    HW1  176   0.438   2.307   2.696 -0.5448 -1.4089 -1.3653
   59SOL    HW2  177   0.552   2.417   2.742 -3.0114 -1.2470 -0.9389
   60SOL     OW  178   2.282   2.108   2.347  0.6190 -0.3038  0.0188
   60SOL    HW1  179   2.362   2.103   2.279  0.8980 -1.1156  2.2935
   60SOL    HW2  180   2.311   2.160   2.436 -0.7026 -0.6180 -0.5136
   61SOL     OW  181   1.207   0.646   0.534  0.0682 -0.0594  0.4753
   61SOL    HW1  182   1.107   0.660   0.576 -2.4834 -0.5082 -3.0828
   61SOL    HW2  183   1.207   0.678   0.435 -3.8610  0.3457 -0.2135
   62SOL     OW  184   2.726   1.707   2.750  0.3499  0.1244 -0.3362
   62SOL    HW1  185   2.645   1.649   2.757  2.0145  0.8703 -2.4785
   62SOL    HW2  186   2.801   1.677   2.813  0.0679 -0.3203 -0.1396
   63SOL     OW  187   0.526   0.908   0.196 -0.7310  0.2322 -0.1959
   63SOL    HW1  188   0.599   0.939   0.129 -0.1009  0.9275  1.0333
   63SOL    HW2  189   0.558   0.923   0.293 -0.3634 -0.4081  0.7440
   64SOL     OW  190   3.031   0.577   2.318 -0.2899  0.3393 -0.4663
   64SOL    HW1  191   2.954   0.612   2.385 -0.8841  2.5430 -1.9237
   64SOL    HW2  192   3.025   0.627   2.226 -1.8763  3.9654 -0.9448
   65SOL     OW  193   0.200   1.433   0.719  0.4855  0.1396  0.1142
   65SOL    HW1  194   0.198   1.503   0.800 -0.9028  1.4228  1.3098
   65SOL    HW2  195   0.272   1.468   0.654  1.3758  0.2956  3.1663
   66SOL     OW  196   2.540   0.370   0.528 -0.0582 -0.5584  0.0539
   66SOL    HW1  197   2.638   0.345   0.516  1.6986 -0.6672 -2.4563
   66SOL    HW2  198   2.492   0.306   0.599  0.9629  0.1844  1.2105
   67SOL     OW  199   0.628   2.491   1.473 -0.6273  0.0843  0.0480
   67SOL    HW1  200   0.720   2.445   1.502  2.1415  1.1302  0.5275
   67SOL    HW2  201   0.557   2.419   1.449  0.6335  0.4779 -1.5059
   68SOL     OW  202   0.977   1.005   2.454  0.4230 -0.4952 -1.2438
   68SOL    HW1  203   1.020   0.932   2.396 -1.7315  1.7129  0.6515
   68SOL    HW2  204   0.917   1.062   2.392 -3.0072 -2.0906  2.0918
   69SOL     OW  205   0.804   2.743   2.296  0.5712  0.2607  0.9599
   69SOL    HW1  206   0.839   2.663   2.239  0.1853 -0.4591  1.5489
   69SOL    HW2  207   0.703   2.733   2.320  0.9287 -2.7320  1.3232
   70SOL     OW  208   0.430   0.112   2.489 -0.2110  0.6226 -0.0520
   70SOL    HW1  209   0.344   0.060   2.502  1.5767 -1.7009  0.6710
   70SOL    HW2  210   0.516   0.059   2.515 -1.0249 -2.6050  0.3576
   71SOL     OW  211   1.088   1.729   0.313 -0.6711  0.1245 -0.0364
   71SOL    HW1  212   1.042   1.678   0.386 -1.6348  3.2702 -0.6033
   71SOL    HW2  213   1.021   1.746   0.232 -0.8403  1.3489  0.6407
   72SOL     OW  214   1.820   0.217   2.165  0.1162  0.5705  0.0682
   72SOL    HW1  215   1.873   0.308   2.188 -0.4608 -0.6667  0.8615
   72SOL    HW2  216   1.882   0.130   2.164 -0.3881 -3.2883  1.1338
   73SOL     OW  217   2.773   2.190   2.431 -0.2280  0.0885  0.0782
   73SOL    HW1  218   2.775   2.086   2.419 -1.1596  0.2651  1.4325
   73SOL    HW2  219   2.782   2.218   2.532 -0.4479 -2.0146 -0.4075
   74SOL     OW  220   2.726   2.877   2.160 -0.0124 -0.0125  0.2344
   74SOL    HW1  221   2.707   2.872   2.258 -0.5525 -0.2040 -3.0796
   74SOL    HW2  222   2.807   2.939   2.134  2.7746  0.9416  3.1225
   75SOL     OW  223   0.995   0.868   1.109  0.4987 -0.3515  0.1221
   75SOL    HW1  224   0.896   0.887   1.092 -0.9633 -1.3795 -2.3559
   75SOL    HW2  225   1.034   0.899   1.201  2.3555 -3.1102  0.0068
   76SOL     OW  226   1.874   1.270   2.514  0.2466 -0.5765  0.5733
   76SOL    HW1  227   1.774   1.268   2.550 -2.2301  1.8896  0.5649
   76SOL    HW2  228   1.917   1.364   2.529 -1.5746  1.4430  2.7127
   77SOL     OW  229   2.885   0.940   1.058 -0.4248 -0.4387 -0.0223
   77SOL    HW1  230   2.840   0.848   1.031  1.2812  1.1367 -0.5636
   77SOL    HW2  231   2.972   0.938   1.114  0.8483  1.9258 -2.3572
   78SOL     OW  232   2.004   1.332   1.336 -0.4369  0.1842 -0.8332
   78SOL    HW1  233   2.078   1.291   1.278  2.2047 -0.8422 -1.7343
   78SOL    HW2  234   1.947   1.401   1.281  0.6421 -0.2838 -4.7551
   79SOL     OW  235   0.679   1.413   0.820  0.0632  1.0045  0.5832
   79SOL    HW1  236   0.579   1.383   0.833 -2.8984 -1.2104  4.3002
   79SOL    HW2  237   0.729   1.351   0.747  2.3161 -0.5315  0.5067
   80SOL     OW  238   0.563   0.533   1.536 -0.5250 -0.2408 -0.0993
   80SOL    HW1  239   0.614   0.597   1.467 -1.4603  3.0286 -1.1344
   80SOL    HW2  240   0.595   0.435   1.519 -1.3741 -1.8940 -0.0127
   81SOL     OW  241   0.989   1.279   2.605  0.3594 -0.3049 -0.2655
   81SOL    HW1  242   0.983   1.177   2.586  1.7677 -0.6796 -4.1765
   81SOL    HW2  243   0.937   1.336   2.530 -1.5881  0.9423 -0.6278
   82SOL     OW  244   0.966   2.867   1.532 -0.7712 -0.2986 -0.3107
   82SOL    HW1  245   0.889   2.805   1.502 -1.6790 -0.0678 -0.2581
   82SOL    HW2  246   1.023   2.895   1.452  1.7728  1.2287  0.4789
   83SOL     OW  247   2.552   2.355   0.885  0.1741 -0.1812  0.4774
   83SOL    HW1  248   2.488   2.312   0.816  0.5244  1.5931  0.0643
   83SOL    HW2  249   2.562   2.464   0.869  1.3535  1.0104 -0.3172
   84SOL     OW  250   0.738   0.025   2.343 -0.4355 -0.3382  0.0063
   84SOL    HW1  251   0.707  -0.023   2.432 -1.3967  1.3832 -1.2420
   84SOL    HW2  252   0.816  -0.023   2.292 -0.6910 -2.0574 -1.6766
   85SOL     OW  253   0.269   1.654   1.427  0.5230  0.2323  0.0293
   85SOL    HW1  254   0.241   1.759   1.440  1.6274  0.2555  0.4707
   85SOL    HW2  255   0.312   1.623   1.517 -3.7213 -1.1262  0.3634
   86SOL     OW  256   0.406   1.021   1.572 -0.3880 -0.0550  0.1452
   86SOL    HW1  257   0.385   0.985   1.478  1.9092 -0.8471 -0.7078
   86SOL    HW2  258   0.384   0.957   1.647 -1.3586 -0.9106  1.9829
   87SOL     OW  259   1.620   0.654   0.305 -0.1198 -0.4331  1.0505
   87SOL    HW1  260   1.702   0.711   0.297 -1.1965 -1.2650  0.5875
   87SOL    HW2  261   1.565   0.633   0.221 -0.5225 -0.6218 -1.4862
   88SOL     OW  262   1.601   1.399   0.279 -0.1799 -0.2087 -0.4379
   88SOL    HW1  263   1.681   1.334   0.272  0.7292  1.7663  0.2401
   88SOL    HW2  264   1.512   1.358   0.246  0.9661 -0.6606 -0.1999
   89SOL     OW  265   0.005   0.346   0.584 -0.1426  0.6455 -0.5838
   89SOL    HW1  266   0.080   0.277   0.600  0.6604  0.8793  0.2450
   89SOL    HW2  267  -0.075   0.301   0.547  1.5395  1.1079  0.1631
   90SOL     OW  268   0.777   1.594   0.162  0.1833  0.0072 -0.1441
   90SOL    HW1  269   0.855   1.523   0.169 -1.2099 -1.2419  1.0643
   90SOL    HW2  270   0.718   1.579   0.078  0.3475  1.8231  0.2197
   91SOL     OW  271   1.184   1.482   1.779  0.1496  0.6542  0.2279
   91SOL    HW1  272   1.179   1.569   1.841 -0.7841 -0.1990  0.0566
   91SOL    HW2  273   1.230   1.400   1.822 -0.6638  1.7375  2.0633
   92SOL     OW  274   0.019   0.986   1.207  0.3716 -0.0966  0.3934
   92SOL    HW1  275   0.070   1.076   1.205 -0.8457 -0.3120 -0.7214
   92SOL    HW2  276   0.009   0.951   1.303  0.5341 -1.4586 -0.9490
   93SOL     OW  277   3.038   2.710   0.034  0.1186 -0.1677  0.0236
   93SOL    HW1  278   3.027   2.721  -0.067 -5.3680 -1.5894 -0.5672
   93SOL    HW2  279   3.068   2.616   0.060  0.9487 -1.0400  0.4654
   94SOL     OW  280   1.512   1.360   1.722  0.1845 -1.0029 -0.5582
   94SOL    HW1  281   1.586   1.290   1.744  0.4434  0.5468 -0.7316
   94SOL    HW2  282   1.526   1.457   1.760 -1.9668  0.4996  0.4766
   95SOL     OW  283   1.389   2.480   2.940  0.3199 -0.5902 -0.4902
   95SOL    HW1  284   1.293   2.473   2.981 -1.2486 -2.2477  1.3216
   95SOL    HW2  285   1.416   2.392   2.893 -2.1817  1.5089  1.0343
   96SOL     OW  286   0.591   2.109   1.275  0.0697  0.4628  0.1855
   96SOL    HW1  287   0.513   2.059   1.226 -0.9912 -1.0141  2.7541
   96SOL    HW2  288   0.631   2.047   1.355  1.1036  1.8660  1.4080
   97SOL     OW  289   0.290   1.640   2.428 -0.5495  0.2587 -0.0247
   97SOL    HW1  290   0.253   1.720   2.376  0.7411 -2.3272 -2.0281
   97SOL    HW2  291   0.276   1.648   2.533  0.8519  0.4515  2.2566
   98SOL     OW  292   2.226   1.646   1.242 -0.0609  0.1870 -0.5364
   98SOL    HW1  293   2.128   1.623   1.219  0.6265 -1.4585  3.0211
   98SOL    HW2  294   2.292   1.604   1.178  1.9358  1.7950 -0.6790
   99SOL     OW  295   2.564   2.138   1.298  0.0556 -0.4325 -0.4022
   99SOL    HW1  296   2.666   2.166   1.318  2.1549  0.5256 -0.9506
   99SOL    HW2  297   2.545   2.039   1.310  0.2296  0.7089 -1.9267
  100SOL     OW  298   2.309   0.402   2.111 -0.0960 -0.1632  0.0268
  100SOL    HW1  299   2.263   0.394   2.206  1.2527 -0.1834  2.2931
  100SOL    HW2  300   2.407   0.438   2.112 -0.9560  0.4411 -0.2497
  101SOL     OW  301   0.406   1.549   0.528 -0.2241  0.0302  0.3047
  101SOL    HW1  302   0.432   1.634   0.579  1.2680  0.2792 -1.8546
  101SOL    HW2  303   0.476   1.526   0.458  1.1237 -1.7148 -2.6032
  102SOL     OW  304   2.297   1.083   0.866 -0.4988 -0.3736 -0.3949
  102SOL    HW1  305   2.284   0.983   0.873  0.2196  3.1596  1.3175
  102SOL    HW2  306   2.382   1.110   0.807  0.7181 -0.9098 -0.2496
  103SOL     OW  307   2.246   0.064   0.347  0.2129 -0.2231  0.0749
  103SOL    HW1  308   2.285   0.119   0.266 -2.1192  1.5182  0.4477
  103SOL    HW2  309   2.313   0.037   0.424  2.0189  0.1049 -1.4282
  104SOL     OW  310   0.030   1.798   2.129 -0.2380 -0.7599  0.2424
  104SOL    HW1  311   0.071   1.805   2.031  2.1966  0.9595  2.4039
  104SOL    HW2  312  -0.072   1.807   2.127  2.3733 -2.3190  1.5004
  105SOL     OW  313   1.378   2.091   0.787  0.5355 -0.0043 -0.0068
  105SOL    HW1  314   1.422   2.100   0.692  0.4380  0.0900  0.5051
  105SOL    HW2  315   1.332   2.001   0.808  1.2863 -1.1060 -0.9555
  106SOL     OW  316   2.136   0.389   1.447  0.8804  0.5340  0.2207
  106SOL    HW1  317   2.108   0.291   1.422  0.2286 -1.1705  0.1598
  106SOL    HW2  318   2.121   0.393   1.549  0.5079 -2.1667  0.2121
  107SOL     OW  319   1.957   2.940   1.175 -0.1285 -0.4239 -0.4128
  107SOL    HW1  320   1.912   3.033   1.198 -2.9986 -0.5208 -1.8079
  107SOL    HW2  321   1.898   2.874   1.124  1.7647 -0.6367 -3.0832
  108SOL     OW  322   0.832   2.861   1.198 -0.0432 -0.0194  0.5064
  108SOL    HW1  323   0.838   2.786   1.127  0.0203  1.2415  0.0600
  108SOL    HW2  324   0.920   2.865   1.254 -0.9378 -0.5670 -0.1465
  109SOL     OW  325   2.151   0.174   0.711  0.2197  0.5132 -0.0710
  109SOL    HW1  326   2.093   0.104   0.662  0.1403  0.4937  0.7058
  109SOL    HW2  327   2.101   0.225   0.784 -0.0291 -1.1129 -0.8630
  110SOL     OW  328   0.462   2.782   2.787  0.0782 -0.1590 -0.2712
  110SOL    HW1  329   0.441   2.776   2.685 -0.9134  0.0671 -3.8714
  110SOL    HW2  330   0.534   2.708   2.814  0.4197  0.3077 -2.1457
  111SOL     OW  331   1.274   0.492   2.306  0.1278 -0.2986 -0.0964
  111SOL    HW1  332   1.183   0.518   2.355 -1.9883  0.4377 -1.1376
  111SOL    HW2  333   1.337   0.440   2.370  2.8241  0.4186  1.5166
  112SOL     OW  334   1.771   0.382   1.487 -0.1057 -0.4285  0.0579
  112SOL    HW1  335   1.756   0.437   1.396 -1.0440  0.3405 -2.1439
  112SOL    HW2  336   1.689   0.378   1.545  0.9785  0.4447 -3.1314
  113SOL     OW  337   2.382   1.703   1.748  0.0850  0.3200  0.8561
  113SOL    HW1  338   2.352   1.601   1.742  0.2200 -2.0650  1.6826
  113SOL    HW2  339   2.430   1.724   1.839  0.5240  1.7752  2.0861
  114SOL     OW  340   0.300   0.478   1.223  0.2162 -0.2560  0.1540
  114SOL    HW1  341   0.357   0.517   1.147  0.6863  0.3116  1.3825
  114SOL    HW2  342   0.228   0.543   1.247  3.0249 -2.4633 -0.1299
  115SOL     OW  343   2.701   1.548   1.193 -0.6779  0.4986 -0.4200
  115SOL    HW1  344   2.688   1.458   1.250 -0.5033 -1.9018  1.5454
  115SOL    HW2  345   2.800   1.558   1.156 -0.0567  0.2764  1.9649
  116SOL     OW  346   1.886   0.923   0.747  0.7230 -0.0170  0.5138
  116SOL    HW1  347   1.826   0.845   0.723  4.1152  1.5536 -0.2538
  116SOL    HW2  348   1.851   1.017   0.732  1.8216 -4.5149 -1.8528
  117SOL     OW  349   1.107   0.349   0.577  0.1696 -0.4921  0.6859
  117SOL    HW1  350   1.114   0.454   0.580  1.6446  4.1101 -0.8062
  117SOL    HW2  351   1.116   0.307   0.478 -1.6681  1.6998 -0.4801
  118SOL     OW  352   1.114   1.212   1.082  0.1189  0.1947 -0.3587
  118SOL    HW1  353   1.018   1.207   1.117  1.1209 -0.5571  2.5347
  118SOL    HW2  354   1.163   1.300   1.110 -0.8849  0.5862  0.0638
  119SOL     OW  355   1.861   1.548   2.212  0.2909 -0.0680 -0.8580
  119SOL    HW1  356   1.827   1.635   2.169 -1.8911  0.5503  2.3122
  119SOL    HW2  357   1.965   1.560   2.234  0.7751  1.3666  2.8394
  120SOL     OW  358   2.906   2.789   0.245 -0.1656 -0.5519 -0.2857
  120SOL    HW1  359   2.970   2.753   0.170  2.8870  1.1010  0.8699
  120SOL    HW2  360   2.803   2.764   0.227 -0.9286  0.0478  1.5981
  121SOL     OW  361   1.946   0.746   2.244  0.6845  0.1209  0.7256
  121SOL    HW1  362   1.965   0.797   2.155 -0.1761 -0.1359  1.4065
  121SOL    HW2  363   1.973   0.647   2.230  1.0589 -1.1792 -0.8202
  122SOL     OW  364   2.584   2.492   1.327  0.3858 -0.5471 -0.0962
  122SOL    HW1  365   2.656   2.437   1.284  3.2680  1.9471 -2.6677
  122SOL    HW2  366   2.564   2.468   1.424  3.3785  0.8198 -0.4026
  123SOL     OW  367   1.691   0.165   1.740 -0.2367 -0.3715  0.4264
  123SOL    HW1  368   1.701   0.066   1.703  0.5810 -2.3499 -1.9885
  123SOL    HW2  369   1.782   0.223   1.743  3.0003  0.4811  1.7338
  124SOL     OW  370   3.071   0.441   1.083 -0.1181 -0.0471  0.2405
  124SOL    HW1  371   2.989   0.492   1.120 -1.2993 -1.4808  1.3539
  124SOL    HW2  372   3.101   0.470   0.987  1.7191 -0.2852  0.4850
  125SOL     OW  373   0.866   1.912   0.828 -0.1898  0.6557  0.2927
  125SOL    HW1  374   0.960   1.860   0.807  1.1903  1.3603  0.0041
  125SOL    HW2  375   0.875   2.008   0.856 -0.5985 -0.8849  1.8705
  126SOL     OW  376   1.908   2.299   2.454 -0.7918  0.0036  0.7170
  126SOL    HW1  377   1.955   2.268   2.367 -1.5396 -1.2914  3.4285
  126SOL    HW2  378   1.926   2.235   2.531  0.4940  0.9063 -1.1098
  127SOL     OW  379   0.879   0.994   0.230 -0.1608  0.1285  0.1346
  127SOL    HW1  380   0.944   1.021   0.307 -0.3858  0.2461 -1.4958
  127SOL    HW2  381   0.879   0.894   0.209 -0.0041 -1.6362 -0.2178
  128SOL     OW  382   0.955   0.258   1.445 -0.0158 -0.7361  0.3441
  128SOL    HW1  383   0.937   0.298   1.347 -0.1881  4.7148  0.6808
  128SOL    HW2  384   0.923   0.159   1.450  1.4583 -0.7272  3.7065
  129SOL     OW  385   1.854   0.696   1.854 -0.3286  0.1452  0.6736
  129SOL    HW1  386   1.879   0.680   1.760 -0.8503  0.0642  0.8555
  129SOL    HW2  387   1.876   0.794   1.879  0.8974  1.4542  0.7760
  130SOL     OW  388   1.372   2.295   0.970 -0.4502  0.4809 -0.0926
  130SOL    HW1  389   1.351   2.222   0.895  0.6158  1.9740 -1.0259
  130SOL    HW2  390   1.460   2.347   0.953 -0.7122  2.0583 -0.2199
  131SOL     OW  391   3.085   1.425   1.361  0.1340 -0.5079  0.1130
  131SOL    HW1  392   3.091   1.322   1.386  1.5552  1.1791 -0.8312
  131SOL    HW2  393   3.177   1.475   1.354  2.3921 -0.9989 -0.2934
  132SOL     OW  394   2.052   2.359   0.506  0.0424 -0.1719  0.4762
  132SOL    HW1  395   1.961   2.401   0.521  0.7105 -0.4116  0.7770
  132SOL    HW2  396   2.062   2.270   0.562  1.5703 -0.5932  1.8465
  133SOL     OW  397   1.757   2.422   2.733 -0.6602  0.9220  0.1553
  133SOL    HW1  398   1.689   2.437   2.655 -1.2149  2.5094  2.3008
  133SOL    HW2  399   1.857   2.459   2.715  1.8731  0.4668  1.3229
  134SOL     OW  400   2.699   2.396   1.586 -0.1749  0.1864 -0.1777
  134SOL    HW1  401   2.642   2.380   1.669 -1.7147  0.4899  0.9316
  134SOL    HW2  402   2.787   2.442   1.613  1.2136 -1.4698  0.5741
  135SOL     OW  403   0.730   1.426   2.674  0.3244  0.0134 -0.9625
  135SOL    HW1  404   0.705   1.328   2.694 -0.3428 -2.3968  2.1641
  135SOL    HW2  405   0.751   1.450   2.577 -0.7946 -0.5715 -2.1395
  136SOL     OW  406   1.178   2.041   0.389  0.0851  0.1997 -0.1700
  136SOL    HW1  407   1.108   2.094   0.445 -1.2231 -1.8515 -1.8954
  136SOL    HW2  408   1.158   1.936   0.387  1.5975 -0.9427  1.5433
  137SOL     OW  409   0.403   1.221   2.243  0.1331 -0.1369 -0.0215
  137SOL    HW1  410   0.317   1.201   2.297  0.0361 -0.7637 -1.4062
  137SOL    HW2  411   0.466   1.145   2.235 -1.1473  1.1793 -0.2821
  138SOL     OW  412   2.447   1.530   0.264 -0.2860  0.0963 -0.2444
  138SOL    HW1  413   2.349   1.536   0.232  0.8595 -1.0294  0.0898
  138SOL    HW2  414   2.473   1.437   0.306 -0.2473 -0.2240  1.8320
  139SOL     OW  415   1.849   2.662   1.583 -0.4888  0.4171  0.2731
  139SOL    HW1  416   1.765   2.702   1.543 -0.6448  0.4612 -0.6965
  139SOL    HW2  417   1.861   2.568   1.542 -2.2559  1.2751  0.0745
  140SOL     OW  418   2.984   2.964   2.615  0.0865  0.2698 -0.2488
  140SOL    HW1  419   3.014   2.868   2.604  0.5257  1.7338 -0.1615
  140SOL    HW2  420   3.043   3.035   2.567 -2.3611 -0.3146 -1.5466
  141SOL     OW  421   1.295   1.620   1.542  0.4136 -0.5353 -0.0514
  141SOL    HW1  422   1.212   1.681   1.547  0.3705 -1.0885 -1.3716
  141SOL    HW2  423   1.296   1.557   1.624 -1.3620  2.2482  0.3525
  142SOL     OW  424   1.500   0.653   2.213  0.4357  0.3223 -0.2880
  142SOL    HW1  425   1.470   0.711   2.133  0.5676  2.1778 -0.0205
  142SOL    HW2  426   1.422   0.610   2.268 -1.1070 -1.9558 -0.7981
  143SOL     OW  427   2.770   0.806   0.554  0.0807  0.1357  0.0100
  143SOL    HW1  428   2.816   0.847   0.475 -0.8089  3.4922  2.1550
  143SOL    HW2  429   2.796   0.854   0.645  0.2573  2.5168  3.6751
  144SOL     OW  430   2.930   1.179   1.448  0.1510 -0.1915  0.5676
  144SOL    HW1  431   2.861   1.167   1.525  0.0533  2.1889  0.3268
  144SOL    HW2  432   2.999   1.100   1.454 -0.9956  1.2591  1.3167
  145SOL     OW  433   0.869   1.843   0.102 -0.4999 -0.4679 -0.0128
  145SOL    HW1  434   0.871   1.881   0.009  1.5681 -2.4868 -0.1940
  145SOL    HW2  435   0.818   1.750   0.105 -2.9997 -1.6407  0.8892
  146SOL     OW  436   2.456   0.689   1.515  0.1067  0.0660 -0.0915
  146SOL    HW1  437   2.424   0.592   1.495 -0.9927 -0.0586  1.4445
  146SOL    HW2  438   2.398   0.759   1.466  0.6547  1.2561  1.0399
  147SOL     OW  439   1.103   2.506   0.607 -0.2131 -0.1327 -0.4907
  147SOL    HW1  440   1.041   2.549   0.534 -1.0476 -1.7872  0.9508
  147SOL    HW2  441   1.198   2.489   0.572 -1.0411  0.8267 -0.2991
  148SOL     OW  442   1.615   1.473   3.070  0.4718  0.2968 -0.0704
  148SOL    HW1  443   1.613   1.374   3.030 -0.1133 -2.9390  0.6752
  148SOL    HW2  444   1.608   1.481   3.175 -1.0105  0.0587  1.5489
  149SOL     OW  445   0.666   1.516   1.961  0.1007 -0.4569  0.3191
  149SOL    HW1  446   0.574   1.496   2.011 -0.6298  3.1508  2.9356
  149SOL    HW2  447   0.685   1.448   1.883 -0.7884  0.6228 -0.6679
  150SOL     OW  448   3.034   1.174   0.966  0.3747  0.4220 -0.5117
  150SOL    HW1  449   3.119   1.164   1.025  1.0428  1.9581  0.1375
  150SOL    HW2  450   2.958   1.114   0.999 -3.3299 -0.6435  1.4697
  151SOL     OW  451   0.267   0.829   2.094  0.0259  0.9284 -0.4938
  151SOL    HW1  452   0.318   0.915   2.083 -0.1101 -0.2709  0.5469
  151SOL    HW2  453   0.294   0.754   2.028 -1.1592 -1.4302 -0.1024
  152SOL     OW  454   1.453   1.838   1.111  0.2692 -0.4001 -0.4426
  152SOL    HW1  455   1.496   1.931   1.127  3.5714  1.7329 -0.0100
  152SOL    HW2  456   1.352   1.844   1.094 -0.2961  1.5659 -0.0207
  153SOL     OW  457   0.144   1.526   0.211  0.0925  0.2198  0.0297
  153SOL    HW1  458   0.119   1.424   0.206 -1.8211  4.0343 -2.5806
  153SOL    HW2  459   0.122   1.564   0.308  0.2230 -0.3648 -0.0529
  154SOL     OW  460   2.264   1.793   2.771  0.0743 -0.8179  0.0757
  154SOL    HW1  461   2.296   1.696   2.784 -1.8862 -1.6967 -1.5968
  154SOL    HW2  462   2.341   1.847   2.723  2.6625 -0.1322 -1.0852
  155SOL     OW  463   2.445   1.271   0.355 -0.5802  0.5899  0.2909
  155SOL    HW1  464   2.543   1.261   0.321 -2.3916 -0.5439  0.3618
  155SOL    HW2  465   2.393   1.181   0.365 -1.7642 -0.4347  1.8449
  156SOL     OW  466   2.417   0.837   0.696 -0.4295  0.1158 -0.0415
  156SOL    HW1  467   2.315   0.824   0.715 -0.5939 -0.0386 -0.8263
  156SOL    HW2  468   2.441   0.899   0.619 -0.8598 -1.8668 -0.5430
  157SOL     OW  469   1.201   2.983   3.006 -0.0015  0.1167  0.2446
  157SOL    HW1  470   1.234   2.931   2.926 -0.4263  1.9820  3.3589
  157SOL    HW2  471   1.251   3.072   3.008  0.4279  0.4086 -1.3936
  158SOL     OW  472   1.072   1.859   1.839  0.2228  0.0974 -0.2963
  158SOL    HW1  473   1.083   1.964   1.825  1.3936 -0.2336  2.3578
  158SOL    HW2  474   0.986   1.835   1.891  0.0555  0.4785  1.2880
  159SOL     OW  475   0.853   0.427   1.231 -0.1671  0.1262  0.2467
  159SOL    HW1  476   0.772   0.478   1.272  1.5602  0.2485 -0.6871
  159SOL    HW2  477   0.828   0.368   1.146 -0.3830 -2.4047 -1.5031
  160SOL     OW  478   1.445   2.455   1.456 -0.3788 -0.2065 -0.2753
  160SOL    HW1  479   1.409   2.381   1.521 -0.0558  1.5937 -0.1272
  160SOL    HW2  480   1.528   2.416   1.408 -1.5831  2.4134 -2.0292
  161SOL     OW  481   3.044   2.653   0.435  0.6627  0.6068  0.0697
  161SOL    HW1  482   3.021   2.551   0.426 -2.1841 -2.5121 -2.6251
  161SOL    HW2  483   2.978   2.715   0.386 -0.1648 -1.2311 -2.2371
  162SOL     OW  484   2.573   1.864   0.464 -0.9542 -0.0387 -0.1348
  162SOL    HW1  485   2.564   1.847   0.361  2.4785 -0.9493  0.3750
  162SOL    HW2  486   2.521   1.808   0.536 -1.9392  0.9846 -0.1062
  163SOL     OW  487   1.955   2.706   0.763 -0.5188 -0.0910  0.6658
  163SOL    HW1  488   1.953   2.734   0.663  2.5212  0.7882 -0.8803
  163SOL    HW2  489   2.002   2.618   0.776 -0.0149  1.1861 -0.2244
  164SOL     OW  490   3.082   0.207   1.202  0.4693 -0.9789  0.2522
  164SOL    HW1  491   3.085   0.299   1.148  2.2010  1.7834  0.0236
  164SOL    HW2  492   3.138   0.199   1.293  0.8014 -2.9479  3.5903
  165SOL     OW  493   1.125   1.401   0.673  0.6575  0.2063  0.0281
  165SOL    HW1  494   1.124   1.452   0.764 -0.6709 -1.0054 -0.0139
  165SOL    HW2  495   1.087   1.460   0.599  0.1394 -2.0865 -2.3601
  166SOL     OW  496   1.504   1.003   1.798  0.0873 -0.0035  0.3623
  166SOL    HW1  497   1.423   1.040   1.851 -1.4808  1.7516 -0.9344
  166SOL    HW2  498   1.579   1.074   1.800  2.1414 -0.4972  1.2867
  167SOL     OW  499   0.690   1.968   1.466 -1.0215  0.0121  0.5233
  167SOL    HW1  500   0.703   2.029   1.551  1.7861  0.0468  1.7049
  167SOL    HW2  501   0.660   1.869   1.496 -0.6794 -0.0018 -2.6921
  168SOL     OW  502   1.551   2.330   0.146  0.6851 -0.0565 -0.1632
  168SOL    HW1  503   1.566   2.358   0.049 -1.6089  1.8237 -0.7550
  168SOL    HW2  504   1.635   2.325   0.207  0.7708 -0.1377  0.1292
  169SOL     OW  505   0.061   2.549   2.187 -0.1884 -0.0940 -0.1236
  169SOL    HW1  506   0.107   2.478   2.125 -1.0591 -0.5398  1.7568
  169SOL    HW2  507   0.107   2.541   2.277 -0.0579 -0.8906  0.7428
  170SOL     OW  508   1.171   0.171   2.043  0.2116 -0.6416 -0.1069
  170SOL    HW1  509   1.262   0.197   2.094  1.6892  1.1184  0.2441
  170SOL    HW2  510   1.182   0.170   1.941 -2.1095  0.0090 -1.2560
  171SOL     OW  511   0.237   0.863   2.343 -0.8788 -0.1272  0.6602
  171SOL    HW1  512   0.136   0.871   2.364  1.5077  0.1119  0.6304
  171SOL    HW2  513   0.251   0.849   2.240  3.0685  2.6418 -1.5346
  172SOL     OW  514   0.963   1.054   2.859  0.0204  0.4459  0.2995
  172SOL    HW1  515   0.914   1.129   2.909  0.0926 -1.1439 -2.1804
  172SOL    HW2  516   0.903   1.001   2.792  0.2678 -0.5564  1.8202
  173SOL     OW  517   0.485   2.484   0.091  0.0275  0.9651  0.3828
  173SOL    HW1  518   0.492   2.470  -0.011 -1.0220 -1.4096  1.0202
  173SOL    HW2  519   0.416   2.420   0.133  0.0574 -1.4005 -4.9807
  174SOL     OW  520   1.522   2.861   1.085 -0.4076  0.1322 -0.3749
  174SOL    HW1  521   1.579   2.881   0.997 -1.0877 -0.1712 -1.2191
  174SOL    HW2  522   1.471   2.773   1.069 -0.4710  1.3004 -0.0633
  175SOL     OW  523   0.399   3.063   1.728 -0.1556  0.1389 -0.2458
  175SOL    HW1  524   0.494   3.066   1.776  1.0002  1.3275  1.1008
  175SOL    HW2  525   0.363   3.163   1.716  0.4812  0.8689  1.4004
  176SOL     OW  526   2.638   0.382   0.027  0.0427  0.5712  0.2572
  176SOL    HW1  527   2.643   0.470   0.086 -0.0673  1.2015 -0.5328
  176SOL    HW2  528   2.694   0.308   0.072  3.3879  0.0840 -1.6569
  177SOL     OW  529   0.383   0.314   0.959  0.6659 -0.0296 -0.6246
  177SOL    HW1  530   0.359   0.217   0.920 -0.4459 -0.6061  0.2947
  177SOL    HW2  531   0.315   0.336   1.035 -2.9211  0.4633 -2.4617
  178SOL     OW  532   0.030   2.728   2.557  0.6604  0.2059  0.3123
  178SOL    HW1  533  -0.014   2.632   2.541 -2.4040  0.6876  0.2514
  178SOL    HW2  534   0.090   2.724   2.644  0.4445 -0.6076  1.2609
  179SOL     OW  535   2.973   1.542   1.126 -0.4681  0.2271  0.0153
  179SOL    HW1  536   3.059   1.565   1.077  1.8147  2.2220  0.4479
  179SOL    HW2  537   2.995   1.471   1.205  1.2586 -1.2946  1.4823
  180SOL     OW  538   0.203   1.369   1.794  0.4207 -0.1609 -0.2425
  180SOL    HW1  539   0.293   1.333   1.825 -0.6964  1.2428  1.2200
  180SOL    HW2  540   0.153   1.415   1.869 -1.2202  3.4648 -0.3379
  181SOL     OW  541   2.967   1.903   2.541 -0.2439  0.3781 -0.2715
  181SOL    HW1  542   3.033   1.968   2.495  1.3081 -2.0610  0.0905
  181SOL    HW2  543   2.870   1.896   2.495 -1.4429 -2.0580  1.6856
  182SOL     OW  544   2.296   1.334   1.251 -0.3574  0.7983  0.2245
  182SOL    HW1  545   2.245   1.270   1.186 -1.0141 -2.9946 -1.1684
  182SOL    HW2  546   2.349   1.414   1.206 -0.5898  0.7130  0.2404
  183SOL     OW  547   1.401   2.291   2.464  0.0166 -1.0276 -0.2374
  183SOL    HW1  548   1.344   2.205   2.486  0.0925 -0.9225 -1.1993
  183SOL    HW2  549   1.502   2.269   2.461  0.5847  0.3126  1.2631
  184SOL     OW  550   2.133   0.813   0.756 -0.5423  0.2034 -0.1678
  184SOL    HW1  551   2.039   0.853   0.742  2.3206 -1.5445 -0.6286
  184SOL    HW2  552   2.146   0.712   0.723  2.6800  1.4598  1.2952
  185SOL     OW  553   1.571   2.780   2.030  1.0729  0.2469 -0.5342
  185SOL    HW1  554   1.493   2.850   2.028  0.6154  0.2275 -2.4292
  185SOL    HW2  555   1.622   2.779   2.122 -0.8426  0.4996  2.2083
  186SOL     OW  556   0.078   2.215   1.674  0.7036 -0.2291  0.9001
  186SOL    HW1  557   0.026   2.253   1.753 -0.4666 -1.9486 -2.2761
  186SOL    HW2  558   0.150   2.147   1.707 -2.1067  0.6710 -1.3725
  187SOL     OW  559   1.344   0.646   1.653  0.3461  0.1676 -0.3834
  187SOL    HW1  560   1.432   0.692   1.644  1.1083 -0.1439  0.2270
  187SOL    HW2  561   1.349   0.571   1.723  1.2295  1.8571 -2.8715
  188SOL     OW  562   2.744   2.712   1.451 -0.1369 -0.2983  0.8746
  188SOL    HW1  563   2.728   2.810   1.428  1.8436  0.4632 -4.3205
  188SOL    HW2  564   2.683   2.646   1.398  0.9539  0.5710 -0.5514
  189SOL     OW  565   0.914   1.207   1.369  0.1942  0.4932  0.1002
  189SOL    HW1  566   0.973   1.265   1.431 -1.4659  2.3346  0.7228
  189SOL    HW2  567   0.828   1.262   1.345 -0.7002 -2.0687 -0.3368
  190SOL     OW  568   1.459   1.893   1.522  0.1146 -0.5492 -0.2640
  190SOL    HW1  569   1.414   1.802   1.536  0.5472 -0.8480  3.3927
  190SOL    HW2  570   1.489   1.926   1.615 -1.9736  2.6577  0.4811
  191SOL     OW  571   0.878   0.808   1.517 -0.0862 -0.7425  0.5173
  191SOL    HW1  572   0.919   0.775   1.607 -0.8002 -2.4032  1.1960
  191SOL    HW2  573   0.946   0.862   1.458  0.0256  2.3839 -1.8779
  192SOL     OW  574   1.832   2.466   1.102  0.0665 -0.4746  0.1813
  192SOL    HW1  575   1.745   2.435   1.049 -4.0533 -0.2541 -0.5281
  192SOL    HW2  576   1.913   2.429   1.052 -0.6838 -0.5263 -1.8104
  193SOL     OW  577   0.561   0.575   0.476  0.5967  0.2545 -0.3118
  193SOL    HW1  578   0.490   0.499   0.488 -4.9725 -0.1735 -0.0560
  193SOL    HW2  579   0.609   0.575   0.380 -0.2978  0.6249  0.6614
  194SOL     OW  580   0.355   0.879   1.329 -0.2214 -0.6280  0.8631
  194SOL    HW1  581   0.273   0.827   1.296  1.1174 -2.4132  3.9580
  194SOL    HW2  582   0.403   0.917   1.242  1.0467 -1.7346  0.0091
  195SOL     OW  583   0.983   2.900   0.534 -0.1415  0.8051  0.4435
  195SOL    HW1  584   0.960   2.805   0.496  1.1444  0.0483  1.5246
  195SOL    HW2  585   1.086   2.922   0.530 -0.4024 -1.5782 -0.4786
  196SOL     OW  586   0.280   1.398   1.335  0.2541  0.3605 -0.1212
  196SOL    HW1  587   0.264   1.493   1.381 -0.8882  1.8136 -0.4669
  196SOL    HW2  588   0.254   1.322   1.400  0.1790  0.0480  2.3254
  197SOL     OW  589   0.848   2.023   0.313 -0.3945  0.6086  0.1807
  197SOL    HW1  590   0.842   1.982   0.411  0.5002 -2.6683 -0.1634
  197SOL    HW2  591   0.858   1.952   0.238  0.4247  0.4241  0.5182
  198SOL     OW  592   0.305   1.255   0.341  0.3027 -0.2711 -0.2545
  198SOL    HW1  593   0.205   1.228   0.331  0.3293  2.8149 -0.5185
  198SOL    HW2  594   0.328   1.351   0.371 -2.3048 -0.2075 -0.1422
  199SOL     OW  595   2.206   0.470   2.584 -1.2022  0.2408 -0.0843
  199SOL    HW1  596   2.129   0.421   2.626  0.1271  1.8778 -0.1956
  199SOL    HW2  597   2.294   0.438   2.633 -2.2710 -0.8068  0.6892
  200SOL     OW  598   3.073   2.966   0.821 -0.7773 -0.9769 -0.1186
  200SOL    HW1  599   3.067   3.060   0.869  3.1516 -0.8295 -0.3443
  200SOL    HW2  600   3.012   2.962   0.734  2.7466  0.8027 -0.7714
  201SOL     OW  601   0.931   0.711   0.521  0.2862 -0.6457  0.2096
  201SOL    HW1  602   0.884   0.792   0.573  0.0269 -2.7602 -0.0574
  201SOL    HW2  603   0.879   0.619   0.536 -2.6857 -0.5176  0.0266
  202SOL     OW  604   0.438   1.249   1.824  0.0480 -0.1366  0.0790
  202SOL    HW1  605   0.516   1.212   1.762  0.2135 -1.2233  1.1798
  202SOL    HW2  606   0.485   1.286   1.907  1.1463 -0.5764 -0.8210
  203SOL     OW  607   0.659   0.234   1.566  0.2327  0.9481  0.4993
  203SOL    HW1  608   0.682   0.189   1.473 -0.0680  1.3130 -0.1210
  203SOL    HW2  609   0.726   0.206   1.643 -1.0147 -1.6680 -0.7433
  204SOL     OW  610   2.065   1.796   2.962  0.2008 -0.1333 -0.5502
  204SOL    HW1  611   2.057   1.692   2.982  1.8164  1.1675 -2.5433
  204SOL    HW2  612   2.140   1.807   2.893 -0.2430 -0.3687  2.7316
  205SOL     OW  613   1.837   1.876   3.084 -0.3321  0.2021 -0.1858
  205SOL    HW1  614   1.931   1.851   3.035  0.1642  2.4587 -0.4009
  205SOL    HW2  615   1.786   1.960   3.045 -0.2920  1.9821  1.1372
  206SOL     OW  616   2.417   2.754   0.299 -0.1355 -0.2136 -0.7716
  206SOL    HW1  617   2.424   2.679   0.369  0.3274 -1.9866 -1.8516
  206SOL    HW2  618   2.507   2.750   0.244  1.7544 -1.7230 -2.0719
  207SOL     OW  619   0.724   1.771   2.839 -0.0718  0.1184 -0.3169
  207SOL    HW1  620   0.816   1.727   2.834 -1.0199  0.3453  2.5255
  207SOL    HW2  621   0.658   1.709   2.883  1.2053  2.9486  0.2804
  208SOL     OW  622   1.027   1.612   1.231 -0.1013 -0.4709 -0.1651
  208SOL    HW1  623   0.979   1.653   1.151 -1.8695 -3.1460 -0.3611
  208SOL    HW2  624   0.964   1.597   1.310 -0.0136 -3.3528  0.4691
  209SOL     OW  625   0.253   0.972   3.086  0.5350 -0.7184 -0.0356
  209SOL    HW1  626   0.206   0.900   3.032 -0.2041  0.0036  3.4328
  209SOL    HW2  627   0.238   0.962   3.188 -0.8327  0.3647  1.4463
  210SOL     OW  628   1.716   0.487   1.248 -0.1839  0.3259  0.0436
  210SOL    HW1  629   1.657   0.562   1.215  1.4598  0.2167  0.4997
  210SOL    HW2  630   1.819   0.509   1.223 -0.0406  2.3491  0.7127
  211SOL     OW  631   2.069   1.011   1.583  0.6714  0.0752  0.1211
  211SOL    HW1  632   2.127   0.956   1.651 -0.1498 -0.5517  1.1803
  211SOL    HW2  633   2.121   1.093   1.558  0.1603  3.1255  0.8695
  212SOL     OW  634   0.017   0.990   1.485 -0.0502  0.1891  0.3992
  212SOL    HW1  635   0.087   1.055   1.524 -1.8024 -0.0705 -1.2480
  212SOL    HW2  636   0.026   0.892   1.516  0.2449  0.9754 -1.1958
  213SOL     OW  637   2.785   0.201   0.265  0.7963 -0.4046  0.5116
  213SOL    HW1  638   2.876   0.151   0.255  0.2478  2.1513  2.7748
  213SOL    HW2  639   2.711   0.129   0.259  0.1236  0.4099 -0.3203
  214SOL     OW  640   2.160   0.341   2.333  0.3064 -0.0545 -0.1668
  214SOL    HW1  641   2.202   0.392   2.409  0.6678  0.3828  1.7097
  214SOL    HW2  642   2.171   0.238   2.351  0.5753  0.2240 -0.6282
  215SOL     OW  643   1.658   2.247   2.072 -0.1182 -0.6638 -0.5118
  215SOL    HW1  644   1.762   2.274   2.074  0.3635  2.0553  0.5168
  215SOL    HW2  645   1.602   2.324   2.113  0.2156  0.4369  0.0772
  216SOL     OW  646   2.149   0.565   0.652  0.4480 -0.3295  0.7289
  216SOL    HW1  647   2.099   0.477   0.633 -0.0761  0.8002 -0.5474
  216SOL    HW2  648   2.218   0.595   0.574 -1.7590 -1.3221  3.5298
  217SOL     OW  649   0.920   2.802   2.546 -0.5394 -0.4980 -0.6650
  217SOL    HW1  650   0.923   2.737   2.626  2.2779 -3.3374 -0.5326
  217SOL    HW2  651   0.866   2.758   2.469 -0.6844  0.2847  1.2976
  218SOL     OW  652   1.880   1.463   0.015 -0.2241 -0.4451  0.5632
  218SOL    HW1  653   1.782   1.482  -0.015 -0.7094  0.2412 -1.0990
  218SOL    HW2  654   1.883   1.392   0.088 -3.7971  1.6295  0.3591
  219SOL     OW  655   2.459   1.259   2.511 -0.2075 -0.0135 -0.0600
  219SOL    HW1  656   2.517   1.211   2.438  1.9250 -1.6780 -0.4108
  219SOL    HW2  657   2.461   1.208   2.604  0.2976 -0.1323  1.9151
  220SOL     OW  658   1.426   1.005   1.389  0.0184  0.2685 -0.3937
  220SOL    HW1  659   1.526   0.975   1.381 -1.6674 -1.2610 -0.7084
  220SOL    HW2  660   1.396   1.067   1.312 -1.8646 -0.1691  0.4491
  221SOL     OW  661   1.362   0.969   2.231  0.1934  0.3956 -0.8756
  221SOL    HW1  662   1.348   0.988   2.131  1.9939  0.8881  3.4349
  221SOL    HW2  663   1.450   1.009   2.269  1.1783  0.6436  0.2031
  222SOL     OW  664   1.120   0.086   1.237  0.2782 -0.5412  0.2118
  222SOL    HW1  665   1.118   0.165   1.306  1.0617 -1.7814  0.9078
  222SOL    HW2  666   1.103   0.116   1.139  0.2389  0.4274 -1.2044
  223SOL     OW  667   2.700   0.924   2.090 -0.1183  0.3250 -0.0329
  223SOL    HW1  668   2.667   1.018   2.062  0.0456  0.4982  0.8880
  223SOL    HW2  669   2.788   0.926   2.148  0.7796  0.5919  2.9086
  224SOL     OW  670   1.585   1.050   2.747  0.5996 -0.7936  0.0302
  224SOL    HW1  671   1.590   0.967   2.682 -0.5279 -2.4576 -0.9344
  224SOL    HW2  672   1.615   1.134   2.703  1.7101  0.1749  1.4310
  225SOL     OW  673   2.960   2.683   2.867  0.0343 -0.6440  0.5179
  225SOL    HW1  674   2.867   2.688   2.809 -0.1729  1.0319  1.3022
  225SOL    HW2  675   3.004   2.780   2.878  1.6632  0.3250  3.2457
  226SOL     OW  676   2.354   1.519   2.817  0.2238 -0.4701 -0.4776
  226SOL    HW1  677   2.419   1.506   2.734  1.8462 -2.1097 -0.5442
  226SOL    HW2  678   2.408   1.487   2.903  1.2202  0.2247  2.7606
  227SOL     OW  679   0.843   0.262   3.071 -0.1183 -0.0140  0.1687
  227SOL    HW1  680   0.890   0.349   3.043  0.0447 -2.5122  0.3265
  227SOL    HW2  681   0.792   0.221   2.989  2.7756 -0.3161  0.1690
  228SOL     OW  682   2.418   0.628   2.828  0.1100  0.6845 -0.1106
  228SOL    HW1  683   2.443   0.715   2.773  2.6891  1.6407 -0.7856
  228SOL    HW2  684   2.500   0.571   2.840  1.4895  1.0971 -1.1591
  229SOL     OW  685   0.496   0.488   1.798 -0.7205  0.4485  0.2221
  229SOL    HW1  686   0.538   0.404   1.838 -0.3794 -1.4494  1.3661
  229SOL    HW2  687   0.510   0.498   1.695 -0.2784  0.1346  2.3155
  230SOL     OW  688   1.879   1.233   2.007 -0.0102 -0.2796 -0.4769
  230SOL    HW1  689   1.955   1.301   1.989  0.9042 -2.4176 -0.5977
  230SOL    HW2  690   1.797   1.263   2.068 -2.1580  0.3523 -1.2794
  231SOL     OW  691   0.643   1.065   3.086 -0.6067 -0.2380 -0.0022
  231SOL    HW1  692   0.737   1.114   3.111 -0.5080  2.5813  0.6236
  231SOL    HW2  693   0.562   1.114   3.115  3.3488 -2.4234 -1.2166
  232SOL     OW  694   2.412   3.013   2.851  0.1019  0.4037 -0.7560
  232SOL    HW1  695   2.466   2.921   2.854  0.1987  1.1833  0.4725
  232SOL    HW2  696   2.437   3.062   2.762  1.7068 -3.0413 -0.3535
  233SOL     OW  697   1.729   1.220   1.167 -0.5898 -0.3160 -0.4187
  233SOL    HW1  698   1.801   1.242   1.094  0.9632 -0.0243 -1.8047
  233SOL    HW2  699   1.710   1.118   1.179  1.0726 -2.0596 -0.3505
  234SOL     OW  700   1.651   2.567   1.819 -0.3075  0.0185 -0.0317
  234SOL    HW1  701   1.610   2.639   1.875  0.4699 -1.1386 -3.4435
  234SOL    HW2  702   1.601   2.477   1.815 -1.5605 -1.2678  0.2967
  235SOL     OW  703   3.087   2.935   2.900 -0.3958  0.0128  0.3381
  235SOL    HW1  704   3.060   2.983   2.810  0.5110  1.6822  2.1883
  235SOL    HW2  705   3.069   2.998   2.979  0.1259 -2.8872 -0.5248
  236SOL     OW  706   2.926   0.656   0.068 -0.2667  0.4915 -0.5076
  236SOL    HW1  707   2.979   0.673   0.161  0.1305  1.1296  0.6072
  236SOL    HW2  708   2.969   0.585   0.004  0.0897  2.2643  0.2007
  237SOL     OW  709   1.421   1.626   0.913 -0.5096  0.0485 -0.1995
  237SOL    HW1  710   1.508   1.569   0.914 -0.9401 -1.0650 -1.4471
  237SOL    HW2  711   1.420   1.695   0.992  1.3062 -0.6216 -0.8814
  238SOL     OW  712   1.892   1.195   0.787  0.2653  0.2412  0.3524
  238SOL    HW1  713   1.934   1.221   0.881  2.1993 -1.9052 -1.9837
  238SOL    HW2  714   1.793   1.239   0.769 -2.6958  3.4169  0.7547
  239SOL     OW  715   2.063   0.258   2.731  0.2578 -0.4897 -0.2135
  239SOL    HW1  716   2.096   0.202   2.815  1.1602  1.0357 -0.7633
  239SOL    HW2  717   1.993   0.329   2.759 -3.8032  0.6879 -3.2205
  240SOL     OW  718   0.912   0.693   0.230 -0.3640  0.0221 -0.0498
  240SOL    HW1  719   0.989   0.624   0.198 -0.6020 -0.0752 -1.2686
  240SOL    HW2  720   0.904   0.704   0.338 -0.3935  0.4598 -0.3641
  241SOL     OW  721   0.572   0.117   0.389 -0.1474  0.6598 -0.0959
  241SOL    HW1  722   0.644   0.177   0.342 -1.8190  1.6576 -2.6094
  241SOL    HW2  723   0.520   0.061   0.322 -2.2420 -2.2636 -1.1588
  242SOL     OW  724   0.631   2.550   1.169 -0.0168 -0.1375 -0.1090
  242SOL    HW1  725   0.636   2.542   1.272 -0.3729  2.3071 -0.1822
  242SOL    HW2  726   0.607   2.650   1.146  1.6518 -1.0629  0.4498
  243SOL     OW  727   1.042   0.601   2.394 -0.6152  0.1560 -0.0227
  243SOL    HW1  728   0.948   0.625   2.362  0.6275  0.8070  0.1274
  243SOL    HW2  729   1.055   0.559   2.491  2.6314 -2.2792 -1.3550
  244SOL     OW  730   2.767   1.909   2.355  0.2264  0.4681 -0.1516
  244SOL    HW1  731   2.800   1.916   2.256 -0.8964 -0.2918 -1.6595
  244SOL    HW2  732   2.683   1.851   2.363 -0.2705 -0.6078  1.6749
  245SOL     OW  733   2.180   0.940   2.144  0.0972  0.7588 -0.2611
  245SOL    HW1  734   2.279   0.921   2.164 -1.0336  2.3412  1.1271
  245SOL    HW2  735   2.144   1.006   2.214  0.9093 -1.0955  0.6028
  246SOL     OW  736   0.246   2.832   1.784  0.2928 -0.5136  0.8996
  246SOL    HW1  737   0.165   2.818   1.718 -1.9228  1.2088  0.3784
  246SOL    HW2  738   0.291   2.920   1.772 -0.8927 -1.4829 -1.0329
  247SOL     OW  739   2.232   0.620   3.035  0.0653 -0.2458  0.0266
  247SOL    HW1  740   2.282   0.612   2.946 -3.5396  2.4846  0.6817
  247SOL    HW2  741   2.159   0.692   3.032 -0.7538  0.3570  0.0957
  248SOL     OW  742   2.195   1.850   1.627  0.0722  0.3252  0.0979
  248SOL    HW1  743   2.260   1.803   1.687 -3.3486  0.3726 -1.6527
  248SOL    HW2  744   2.099   1.805   1.634 -1.1522 -1.1981  2.7541
  249SOL     OW  745   1.919   1.888   1.834 -0.7160  0.3107  0.2515
  249SOL    HW1  746   1.931   1.806   1.770 -0.4232  1.5175 -0.4511
  249SOL    HW2  747   2.012   1.927   1.867 -0.3642 -1.7204  1.2741
  250SOL     OW  748   1.071   0.702   1.860 -1.1558 -0.1267  0.2382
  250SOL    HW1  749   1.098   0.633   1.928  0.9218  0.5747  0.0083
  250SOL    HW2  750   1.055   0.655   1.766 -1.5504  1.1193 -0.9090
  251SOL     OW  751   3.028   1.639   2.549  0.6605 -0.5795 -0.6798
  251SOL    HW1  752   2.996   1.740   2.528 -2.5705 -1.2245  1.9153
  251SOL    HW2  753   2.960   1.571   2.508  1.0883 -1.4344  1.4634
  252SOL     OW  754   1.578   0.794   1.615 -0.5781  0.2531 -1.4437
  252SOL    HW1  755   1.609   0.839   1.526 -1.6090  2.4146 -0.9964
  252SOL    HW2  756   1.538   0.866   1.679 -1.7742  1.5062 -2.4517
  253SOL     OW  757   0.969   1.529   0.485 -0.3693 -0.5444 -0.5672
  253SOL    HW1  758   0.965   1.473   0.400 -2.0780  2.5879  0.6233
  253SOL    HW2  759   0.878   1.565   0.522  0.1691 -2.4355 -0.3378
  254SOL     OW  760   2.026   2.208   1.635  0.3022  0.1963 -0.3376
  254SOL    HW1  761   1.973   2.130   1.585 -0.0875 -1.7052 -1.2773
  254SOL    HW2  762   1.962   2.280   1.677 -1.5703 -1.4815 -2.7154
  255SOL     OW  763   0.145   1.161   2.922 -0.1073 -0.3156  0.2186
  255SOL    HW1  764   0.173   1.254   2.937  1.1326 -1.0333 -0.0398
  255SOL    HW2  765   0.216   1.095   2.966  0.8879 -0.1767  3.3569
  256SOL     OW  766   2.831   1.380   1.846 -0.0440  0.3533 -0.5510
  256SOL    HW1  767   2.753   1.435   1.806  0.8731 -1.3134  0.4023
  256SOL    HW2  768   2.828   1.286   1.809  0.8742 -0.8165 -1.0496
  257SOL     OW  769   0.798   0.152   1.816  0.1129  0.7290  0.4408
  257SOL    HW1  770   0.855   0.233   1.804  2.2687 -0.0041  0.3714
  257SOL    HW2  771   0.847   0.063   1.778  2.0502 -3.5082  1.3280
  258SOL     OW  772   2.984   1.175   0.522  0.1310 -0.5984  0.5672
  258SOL    HW1  773   2.904   1.192   0.579  0.7119 -2.8521 -1.5833
  258SOL    HW2  774   3.069   1.209   0.567  0.7293  0.1634 -1.1304
  259SOL     OW  775   0.429   2.908   3.008  0.8757  0.2616 -0.0916
  259SOL    HW1  776   0.367   2.843   3.065  0.6381  3.4174 -1.2148
  259SOL    HW2  777   0.464   2.870   2.917  2.8677 -0.8050 -0.4010
  260SOL     OW  778   2.728   0.760   2.737 -0.8436  0.2946 -0.3615
  260SOL    HW1  779   2.639   0.797   2.702 -0.8863  0.2500 -0.6428
  260SOL    HW2  780   2.706   0.667   2.773  0.6909  0.6713  1.0320
  261SOL     OW  781   2.720   1.299   1.332  0.0489 -0.1861  0.2019
  261SOL    HW1  782   2.670   1.246   1.262 -2.7955  1.7615 -1.4801
  261SOL    HW2  783   2.815   1.261   1.355  0.6205  2.2295  1.2510
  262SOL     OW  784   1.370   2.960   2.035 -0.3718  0.0380  0.1944
  262SOL    HW1  785   1.406   3.051   1.998 -0.2441 -2.0453  0.6401
  262SOL    HW2  786   1.276   2.941   1.999 -2.1177 -0.4623  3.5611
  263SOL     OW  787   0.797   0.683   2.281  0.0303 -0.4600 -0.5228
  263SOL    HW1  788   0.715   0.633   2.242  1.3527  0.3191  2.1150
  263SOL    HW2  789   0.848   0.747   2.213 -0.2324  0.3678 -1.7098
  264SOL     OW  790   2.292   0.812   0.407 -0.0524  0.5395 -0.4325
  264SOL    HW1  791   2.263   0.735   0.342 -0.9381  1.2557  2.5380
  264SOL    HW2  792   2.390   0.842   0.402 -1.2162 -2.3836 -1.0349
  265SOL     OW  793   0.954   2.388   2.612 -0.4107 -0.4739  0.1585
  265SOL    HW1  794   1.018   2.454   2.657  1.5976 -0.0464  1.9293
  265SOL    HW2  795   0.910   2.318   2.681 -2.6924  1.1721 -1.1364
  266SOL     OW  796   1.320   1.763   3.059  0.1327 -0.1884 -0.0222
  266SOL    HW1  797   1.291   1.826   3.140  0.9131 -0.7969  1.1948
  266SOL    HW2  798   1.425   1.755   3.062  0.9698  1.5721  1.4380
  267SOL     OW  799   1.092   0.024   2.262 -0.3951  0.4724 -0.3871
  267SOL    HW1  800   1.031  -0.050   2.223  0.8120  2.7191  0.9050
  267SOL    HW2  801   1.116   0.095   2.196 -1.2009 -0.2791 -0.7494
  268SOL     OW  802   0.847   1.242   1.061  0.3279  0.0709  0.0335
  268SOL    HW1  803   0.817   1.333   1.098  2.9984 -2.0556 -1.3773
  268SOL    HW2  804   0.898   1.248   0.975  1.1385  1.0303 -0.9818
  269SOL     OW  805   2.375   2.483   1.654  0.0231 -0.3551 -0.2706
  269SOL    HW1  806   2.448   2.416   1.690  2.2396 -2.7371 -1.6092
  269SOL    HW2  807   2.312   2.533   1.723  0.0220  2.5159  1.2219
  270SOL     OW  808   0.124   2.979   2.009  0.0736  0.2681  0.0047
  270SOL    HW1  809   0.160   2.913   1.938  1.0367 -1.7395  0.7708
  270SOL    HW2  810   0.076   2.932   2.086 -0.6750  0.5258 -1.6977
  271SOL     OW  811   0.506   1.399   1.117  0.0624 -0.1933  0.2171
  271SOL    HW1  812   0.516   1.374   1.014  2.8724 -3.2565  0.2074
  271SOL    HW2  813   0.413   1.379   1.152 -0.9860 -1.1981  0.7438
  272SOL     OW  814   1.917   3.061   1.954 -0.6846  0.6935  0.2665
  272SOL    HW1  815   1.853   2.991   1.906 -3.1416  0.7889  1.9880
  272SOL    HW2  816   1.999   3.075   1.892  0.6023 -0.7139 -0.8090
  273SOL     OW  817   1.530   1.459   2.781  0.2154  0.1750  1.0844
  273SOL    HW1  818   1.426   1.454   2.765 -0.7219  4.3299  1.6844
  273SOL    HW2  819   1.554   1.445   2.881  0.3657 -1.3726  0.0392
  274SOL     OW  820   1.155   0.519   2.041 -0.4752 -0.0295  0.2881
  274SOL    HW1  821   1.065   0.469   2.060 -1.1206  2.1142  2.1430
  274SOL    HW2  822   1.200   0.534   2.130 -2.0418  0.4015 -0.5855
  275SOL     OW  823   0.628   2.115   1.942  0.4130 -0.2808  0.4003
  275SOL    HW1  824   0.574   2.203   1.933  0.7529  0.0387 -0.2169
  275SOL    HW2  825   0.562   2.038   1.935 -0.1541  1.4262  1.6059
  276SOL     OW  826   2.205   1.003   2.788  0.3664 -0.5481  0.1342
  276SOL    HW1  827   2.126   1.051   2.742  1.3263 -1.9199 -0.9226
  276SOL    HW2  828   2.199   0.901   2.797  4.1074 -1.2334 -2.2765
  277SOL     OW  829   3.073   0.793   0.289  0.2189 -0.2048 -0.1300
  277SOL    HW1  830   3.153   0.856   0.273 -0.2700  1.2536  0.5038
  277SOL    HW2  831   3.089   0.726   0.365  1.1439  0.1289  0.8282
  278SOL     OW  832   0.257   0.252   2.993  1.0117  0.4999  0.5568
  278SOL    HW1  833   0.340   0.192   2.973  1.4582 -1.8021 -0.3694
  278SOL    HW2  834   0.285   0.352   3.013  0.4846 -1.0856  3.4393
  279SOL     OW  835   0.265   0.051   0.924 -0.1831 -0.5191  0.1232
  279SOL    HW1  836   0.316  -0.003   0.999  0.2562 -2.9413  0.8815
  279SOL    HW2  837   0.229  -0.014   0.856  1.9687 -0.0201 -0.0873
  280SOL     OW  838   1.627   2.954   2.412  0.1744  0.2609 -0.0137
  280SOL    HW1  839   1.683   3.019   2.466  0.7324 -0.3592 -0.1021
  280SOL    HW2  840   1.546   3.008   2.370  2.3433 -3.1968  2.8118
  281SOL     OW  841   0.534   0.940   2.258 -0.1917 -0.0017 -0.0876
  281SOL    HW1  842   0.512   0.853   2.206 -2.5148 -0.4441 -1.8339
  281SOL    HW2  843   0.504   0.930   2.359 -0.8355 -1.9253 -0.4940
  282SOL     OW  844   1.776   2.455   0.550  0.0562 -0.1562  0.1433
  282SOL    HW1  845   1.731   2.399   0.473 -2.0258 -1.4464  2.1428
  282SOL    HW2  846   1.732   2.542   0.570 -0.4384 -1.2502  0.0425
  283SOL     OW  847   1.135   0.895   0.770  0.0038 -0.7910  0.1157
  283SOL    HW1  848   1.169   0.861   0.861  1.5691  1.5298 -0.2277
  283SOL    HW2  849   1.106   0.994   0.765  2.3601 -1.3841 -2.8234
  284SOL     OW  850   2.247   2.832   2.464 -0.2166 -0.0022 -0.1040
  284SOL    HW1  851   2.349   2.818   2.444  1.3259 -0.9146  0.3198
  284SOL    HW2  852   2.234   2.855   2.557 -1.5658  1.7271 -2.5296
  285SOL     OW  853   1.386   0.023   2.589  0.0155 -0.0453 -0.1312
  285SOL    HW1  854   1.415  -0.002   2.490 -0.7413 -0.6622 -0.4313
  285SOL    HW2  855   1.286   0.050   2.582 -0.8450 -1.9875  1.6262
  286SOL     OW  856   0.427   0.484   0.744 -0.2053  0.5168 -0.0430
  286SOL    HW1  857   0.423   0.429   0.833 -1.4505  2.3582 -2.1366
  286SOL    HW2  858   0.428   0.434   0.651 -0.5749 -0.3772 -0.9906
  287SOL     OW  859   0.081   1.324   2.657 -0.2472 -0.0969 -0.2378
  287SOL    HW1  860   0.030   1.236   2.655  1.8940  0.6294 -2.3226
  287SOL    HW2  861   0.142   1.337   2.734 -0.0753  4.3207 -0.6916
  288SOL     OW  862   1.515   2.735   1.636 -0.5590  0.0133  0.0807
  288SOL    HW1  863   1.549   2.662   1.701  0.3830 -2.6293  1.9187
  288SOL    HW2  864   1.541   2.719   1.539  0.1851  3.9768  0.2738
  289SOL     OW  865   0.614   2.738   0.870 -0.0026  0.1009  0.1247
  289SOL    HW1  866   0.650   2.807   0.794  2.3051  2.0613 -2.4840
  289SOL    HW2  867   0.599   2.777   0.963 -2.3050 -2.1804  2.1969
  290SOL     OW  868   2.803   1.118   1.729 -0.1527  0.1374 -0.6454
  290SOL    HW1  869   2.723   1.059   1.749  3.8446 -1.1413  0.4849
  290SOL    HW2  870   2.891   1.069   1.763 -0.5195 -0.1061  0.2812
  291SOL     OW  871   1.953   0.004   0.067  0.3365 -0.1860  0.1985
  291SOL    HW1  872   1.949   0.060   0.157  1.1792  2.1266 -2.9898
  291SOL    HW2  873   2.004   0.040  -0.016 -0.3678 -2.7277 -1.8247
  292SOL     OW  874   3.005   1.179   3.074 -0.2443 -0.9616 -0.2086
  292SOL    HW1  875   2.964   1.261   3.019 -2.9946  3.1876 -0.2247
  292SOL    HW2  876   3.094   1.146   3.028  0.9717  0.9922 -2.3428
  293SOL     OW  877   0.564   2.097   0.304 -0.0229 -0.5727  0.6509
  293SOL    HW1  878   0.527   2.172   0.366  2.2571  0.2199 -2.3921
  293SOL    HW2  879   0.667   2.089   0.310  1.0404  1.9929 -1.3939
  294SOL     OW  880   1.854   2.383   1.778  0.1551  0.5042 -0.1579
  294SOL    HW1  881   1.896   2.379   1.870  1.6474 -0.6602 -1.8838
  294SOL    HW2  882   1.793   2.463   1.765  2.0199 -1.7202 -0.2461
  295SOL     OW  883   1.011   1.057   0.444  0.5370 -0.4639 -0.1599
  295SOL    HW1  884   1.113   1.068   0.465 -2.7289 -0.1415  2.3082
  295SOL    HW2  885   0.958   1.029   0.528 -0.0521  1.7564  2.1353
  296SOL     OW  886   1.154   2.140   2.740 -0.0739  0.2204  0.6394
  296SOL    HW1  887   1.048   2.129   2.747 -1.5017  1.2004  0.3390
  296SOL    HW2  888   1.184   2.107   2.644 -1.1298 -1.6548 -1.3932
  297SOL     OW  889   1.323   0.560   1.237 -0.1519 -0.1591 -1.3583
  297SOL    HW1  890   1.359   0.494   1.305 -1.4000 -0.6496  0.1036
  297SOL    HW2  891   1.391   0.618   1.186 -0.0557  2.7673  1.0973
  298SOL     OW  892   0.500   1.341   2.956 -0.7626 -0.1860 -0.2255
  298SOL    HW1  893   0.476   1.292   3.043  0.2691  0.3061 -2.0293
  298SOL    HW2  894   0.538   1.285   2.879 -0.7570  1.8996 -0.0455
  299SOL     OW  895   0.412   0.201   1.268  0.1333 -0.4640 -1.1732
  299SOL    HW1  896   0.378   0.286   1.225 -0.2162 -0.7286  1.2337
  299SOL    HW2  897   0.417   0.214   1.371  0.3732  0.9936  0.3066
  300SOL     OW  898   1.277   1.756   2.565  0.3125  0.4131 -0.0659
  300SOL    HW1  899   1.284   1.674   2.503  0.0704  2.3441 -0.0274
  300SOL    HW2  900   1.351   1.759   2.638 -1.0682  0.1912 -2.3222
  301SOL     OW  901   0.426   0.337   0.494  0.2760  0.1825 -0.7675
  301SOL    HW1  902   0.328   0.294   0.492 -0.8314 -2.1782 -1.1757
  301SOL    HW2  903   0.496   0.290   0.429  1.2366 -1.1383 -0.0172
  302SOL     OW  904   1.272   2.465   2.240  0.1049 -0.2154 -0.0232
  302SOL    HW1  905   1.171   2.480   2.262  0.3733  0.0675 -2.0109
  302SOL    HW2  906   1.310   2.392   2.303  0.1972 -0.0794  1.2223
  303SOL     OW  907   0.972   2.405   0.823  0.2958 -0.3675  0.3685
  303SOL    HW1  908   1.029   2.432   0.738  4.3155  2.8822  0.6818
  303SOL    HW2  909   0.985   2.485   0.894 -0.2336  1.7169 -0.5836
  304SOL     OW  910   0.112   1.895   0.676  0.6513  0.3843 -0.0020
  304SOL    HW1  911   0.182   1.857   0.607 -0.3761 -0.2615  2.6458
  304SOL    HW2  912   0.022   1.923   0.624 -4.0653 -1.8970 -2.8363
  305SOL     OW  913   1.578   0.856   0.708  0.0307 -1.0408 -0.2097
  305SOL    HW1  914   1.512   0.855   0.626 -0.6288  2.7444  3.4019
  305SOL    HW2  915   1.641   0.777   0.697 -0.3156  0.9596  0.3737
  306SOL     OW  916   0.432   1.904   1.913 -0.5849 -0.7153  0.4701
  306SOL    HW1  917   0.517   1.845   1.885 -0.1021 -2.9918  1.1136
  306SOL    HW2  918   0.420   1.909   2.020  1.3479  0.1042  1.7867
  307SOL     OW  919   3.056   0.884   2.460 -0.2978 -0.0641 -0.2920
  307SOL    HW1  920   3.089   0.950   2.532 -1.1331 -1.5734  1.2337
  307SOL    HW2  921   2.981   0.820   2.494 -0.2172 -0.2551  0.5104
  308SOL     OW  922   1.490   2.705   2.792 -0.2529  0.5599  0.3469
  308SOL    HW1  923   1.496   2.678   2.688 -2.5171  0.5221  0.0912
  308SOL    HW2  924   1.466   2.621   2.851  2.2030 -1.7438  2.1716
  309SOL     OW  925   1.241   0.141   1.778  0.5009  0.2265 -0.1540
  309SOL    HW1  926   1.337   0.111   1.802 -1.2205 -0.9783  0.1482
  309SOL    HW2  927   1.227   0.166   1.679 -0.4607 -2.7370  0.7752
  310SOL     OW  928   1.468   2.608   0.659 -0.0376  0.0302 -0.5630
  310SOL    HW1  929   1.432   2.649   0.744 -0.2786  1.4627 -0.3600
  310SOL    HW2  930   1.544   2.673   0.614 -2.1495 -1.6790 -1.6084
  311SOL     OW  931   1.098   0.971   1.781 -0.8894  0.0142  0.2028
  311SOL    HW1  932   1.069   0.873   1.807  1.5564  0.1865  0.1333
  311SOL    HW2  933   1.140   0.971   1.684 -0.4541 -2.4558  1.0319
  312SOL     OW  934   1.524   0.661   1.070 -0.1689 -0.3709 -0.2603
  312SOL    HW1  935   1.513   0.767   1.082 -1.5855 -0.2346 -0.3961
  312SOL    HW2  936   1.486   0.629   0.977 -2.4500  1.4458 -2.1689
  313SOL     OW  937   1.653   1.286   0.733  0.0223 -0.6689 -0.1262
  313SOL    HW1  938   1.567   1.300   0.793 -2.0546 -0.8101 -2.7791
  313SOL    HW2  939   1.634   1.227   0.652  0.5643 -1.1169  3.2549
  314SOL     OW  940   2.988   3.077  -0.003 -0.1177 -0.3340  0.2459
  314SOL    HW1  941   2.996   3.091   0.103  2.1237  0.2679 -1.0031
  314SOL    HW2  942   2.905   3.012  -0.024 -1.0901 -2.6183 -0.8117
  315SOL     OW  943   1.176   0.200   2.788  0.4889 -0.0147  0.8253
  315SOL    HW1  944   1.149   0.150   2.699 -1.6274 -0.9400 -0.7410
  315SOL    HW2  945   1.229   0.138   2.851  1.0872  0.4789 -1.3164
  316SOL     OW  946   1.683   2.091   0.866  0.2491  0.2380  0.0983
  316SOL    HW1  947   1.626   2.091   0.959 -0.5983 -1.6742  4.1755
  316SOL    HW2  948   1.700   2.181   0.818 -0.8941 -0.1188 -0.2024
  317SOL     OW  949   1.165   0.688   2.767 -0.0473  0.2976  0.4052
  317SOL    HW1  950   1.109   0.739   2.844  0.0381 -0.7670 -0.3294
  317SOL    HW2  951   1.114   0.606   2.727 -0.4529 -1.3440  1.1406
  318SOL     OW  952   1.426   3.068   2.288  0.5234  0.2174  1.4324
  318SOL    HW1  953   1.418   3.170   2.264  0.2791 -1.2226  0.6721
  318SOL    HW2  954   1.405   3.008   2.205  3.0787  2.2596 -0.4137
  319SOL     OW  955   0.663   2.393   2.963  0.1569  0.1392  0.4217
  319SOL    HW1  956   0.621   2.341   3.039 -1.5089  2.0512  1.3347
  319SOL    HW2  957   0.718   2.331   2.904  0.4096 -0.1113 -0.1153
  320SOL     OW  958   1.700   2.244   0.382 -0.1769  0.1480  0.1939
  320SOL    HW1  959   1.778   2.171   0.374 -1.3426 -1.6932 -1.3968
  320SOL    HW2  960   1.599   2.204   0.386 -3.2261 -3.3401 -0.9112
  321SOL     OW  961   1.668   2.768   0.526 -0.6893 -0.6189  0.0800
  321SOL    HW1  962   1.578   2.805   0.484 -2.6376  1.3518 -2.1449
  321SOL    HW2  963   1.738   2.839   0.520 -1.3007 -0.4375 -1.6558
  322SOL     OW  964   2.559   1.107   2.320 -0.2370  0.5663  0.3193
  322SOL    HW1  965   2.646   1.092   2.376 -0.0887 -0.3079  1.3192
  322SOL    HW2  966   2.510   1.022   2.298  2.1320  0.3467  0.9735
  323SOL     OW  967   1.183   2.692   0.821  0.2239 -0.0015  0.2853
  323SOL    HW1  968   1.139   2.647   0.736 -1.2098  3.0413  1.0403
  323SOL    HW2  969   1.152   2.786   0.826 -0.4276 -2.7790  0.9621
  324SOL     OW  970   0.220   2.528   2.433 -0.5980  0.1781  0.2271
  324SOL    HW1  971   0.160   2.462   2.484  0.7500 -0.3939  0.7046
  324SOL    HW2  972   0.194   2.626   2.462  0.1685 -0.9754  1.5610
  325SOL     OW  973   1.240   3.030   0.458  0.1661  0.8622  0.2761
  325SOL    HW1  974   1.176   3.041   0.376  0.2327  0.2680 -0.1540
  325SOL    HW2  975   1.291   3.115   0.498  1.8325  1.5617  0.0309
  326SOL     OW  976   2.507   0.772   3.088  0.0529  0.2876  0.0321
  326SOL    HW1  977   2.439   0.703   3.051  1.3958 -1.9961 -0.3877
  326SOL    HW2  978   2.574   0.726   3.148 -1.0245  3.3409 -2.0897
  327SOL     OW  979   2.834   0.302   0.527  0.6892  0.4583  0.7318
  327SOL    HW1  980   2.828   0.271   0.423  0.9672 -0.7113 -2.8274
  327SOL    HW2  981   2.835   0.217   0.585  1.2213 -1.4994  2.4518
  328SOL     OW  982   2.556   0.662   0.387 -0.2471 -0.0365 -0.4426
  328SOL    HW1  983   2.612   0.661   0.472  0.9173  1.4020 -0.9374
  328SOL    HW2  984   2.521   0.567   0.364  0.1909 -0.8518 -0.8330
  329SOL     OW  985   2.943   3.041   2.130  0.0664  1.0544  0.1288
  329SOL    HW1  986   3.021   2.996   2.184  1.2319 -1.4415 -0.4972
  329SOL    HW2  987   2.955   3.140   2.107 -2.0702 -0.1028 -0.8674
  330SOL     OW  988   0.545   0.230   1.900 -0.6171 -0.0791 -0.6764
  330SOL    HW1  989   0.639   0.215   1.859  1.8269  2.6195 -0.8573
  330SOL    HW2  990   0.529   0.170   1.982 -0.3241  0.3695 -1.7647
  331SOL     OW  991   3.006   1.895   1.125  0.4317  0.3150  0.1933
  331SOL    HW1  992   2.961   1.885   1.033 -0.5969  2.2787 -0.5500
  331SOL    HW2  993   2.950   1.848   1.204  2.9611 -0.4196  3.4757
  332SOL     OW  994   0.392   1.199   0.077 -0.1189  0.5130  0.1543
  332SOL    HW1  995   0.334   1.129   0.027 -1.9001  1.7012  2.5768
  332SOL    HW2  996   0.355   1.210   0.172 -0.9405  2.3334 -0.2699
  333SOL     OW  997   2.868   0.981   0.342 -0.3099 -0.5288 -0.1673
  333SOL    HW1  998   2.906   1.035   0.418  0.9518  0.0572  1.1526
  333SOL    HW2  999   2.932   0.925   0.285 -0.8638  3.1502  0.3212
  334SOL     OW 1000   1.721   1.200   1.768 -0.2387 -0.6212  0.1741
  334SOL    HW1 1001   1.775   1.193   1.680  2.1242  1.2693  2.4864
  334SOL    HW2 1002   1.784   1.230   1.847  0.6700  0.0059 -1.5623
  335SOL     OW 1003   1.930   2.806   2.628 -0.3708  0.5671  0.4194
  335SOL    HW1 1004   1.873   2.786   2.716  0.0078 -0.8155  3.0842
  335SOL    HW2 1005   1.972   2.901   2.629  0.1400  1.3021  0.3681
  336SOL     OW 1006   0.241   3.091   2.702 -0.3704 -0.3354 -0.2800
  336SOL    HW1 1007   0.293   3.157   2.766  0.3953  2.8050 -2.4094
  336SOL    HW2 1008   0.273   2.993   2.710  1.3939  2.5334 -0.7900
  337SOL     OW 1009   0.960   2.903   2.956  0.0076 -0.0814  0.0762
  337SOL    HW1 1010   0.966   2.817   3.018  2.8958 -1.4417  1.1280
  337SOL    HW2 1011   1.043   2.955   2.951 -1.0331  0.5419 -2.4690
  338SOL     OW 1012   0.011   0.927   0.667 -0.4797 -0.3435  0.2155
  338SOL    HW1 1013  -0.091   0.917   0.652 -1.9470  0.1410 -0.6067
  338SOL    HW2 1014   0.034   1.024   0.699  1.0634 -1.2108  0.5808
  339SOL     OW 1015   1.669   1.346   2.149  0.9670 -0.2879 -0.1489
  339SOL    HW1 1016   1.577   1.373   2.109 -1.4175 -0.4321 -1.6856
  339SOL    HW2 1017   1.726   1.434   2.155  5.6383 -0.2410  3.0589
  340SOL     OW 1018   2.232   0.794   1.150  0.1520 -0.0805  0.0398
  340SOL    HW1 1019   2.152   0.863   1.167  0.1756  0.1695  0.4761
  340SOL    HW2 1020   2.204   0.733   1.071 -0.0702  2.8276 -2.1674
  341SOL     OW 1021   1.915   2.050   0.413  0.1108  0.3095  0.0751
  341SOL    HW1 1022   1.948   2.118   0.341  0.8854  3.5641  0.8103
  341SOL    HW2 1023   1.996   2.009   0.460 -0.0672  0.2133  2.7248
  342SOL     OW 1024   2.140   2.115   2.712 -0.1920  0.1298 -0.1531
  342SOL    HW1 1025   2.181   2.023   2.688  1.8250 -2.4231 -1.1474
  342SOL    HW2 1026   2.035   2.111   2.704 -0.4686 -1.2567 -0.5371
  343SOL     OW 1027   0.396   0.788   2.747 -0.4021  0.2425 -0.1713
  343SOL    HW1 1028   0.406   0.824   2.651  0.2633  1.0789  1.8090
  343SOL    HW2 1029   0.485   0.806   2.800 -0.6992  2.1837  0.8713
  344SOL     OW 1030   1.926   1.477   0.419 -0.0316 -0.1654  0.4971
  344SOL    HW1 1031   1.929   1.408   0.340  0.5657  0.7436  1.0219
  344SOL    HW2 1032   1.829   1.505   0.449 -0.6776 -0.8770  0.6488
  345SOL     OW 1033   1.392   2.208   2.849 -0.6881 -0.4246 -0.4783
  345SOL    HW1 1034   1.307   2.197   2.797 -0.5004  0.1495 -2.6314
  345SOL    HW2 1035   1.475   2.152   2.816  1.1384 -0.1216  2.7948
  346SOL     OW 1036   2.330   0.894   1.403 -0.4015 -0.4979 -0.3562
  346SOL    HW1 1037   2.289   0.986   1.424 -1.9267 -2.9235 -0.9029
  346SOL    HW2 1038   2.297   0.855   1.314  1.1499  0.5345 -0.4625
  347SOL     OW 1039   0.722   2.762   1.659 -0.3980  0.3309  0.1638
  347SOL    HW1 1040   0.687   2.822   1.740  2.8434  5.5528 -1.6244
  347SOL    HW2 1041   0.653   2.749   1.585 -0.9465  1.4652 -0.4455
  348SOL     OW 1042   0.169   0.776   2.919  0.1765 -0.4551  0.3350
  348SOL    HW1 1043   0.080   0.743   2.881 -0.3684 -2.1717  1.0653
  348SOL    HW2 1044   0.245   0.789   2.852 -0.2158  0.1272  2.3328
  349SOL     OW 1045   1.857   0.436   2.808  0.0045 -0.0306 -0.1946
  349SOL    HW1 1046   1.823   0.504   2.735  1.1164 -0.3163  1.0759
  349SOL    HW2 1047   1.824   0.462   2.905  1.2717 -1.6028  2.5387
  350SOL     OW 1048   1.690   0.383   0.358 -0.1826  0.6101 -0.3141
  350SOL    HW1 1049   1.737   0.380   0.454 -0.4660 -2.7358  1.6536
  350SOL    HW2 1050   1.661   0.478   0.331 -2.3176  0.7058  1.8829
  351SOL     OW 1051   0.889   0.835   2.069 -0.1623  0.6435 -0.2684
  351SOL    HW1 1052   0.911   0.938   2.051  0.6507  1.2413 -1.2053
  351SOL    HW2 1053   0.932   0.771   2.005 -1.9442 -0.5016  6.0993
  352SOL     OW 1054   2.070   1.348   0.616 -0.2604 -0.0227  0.1177
  352SOL    HW1 1055   2.005   1.398   0.554  1.0730 -0.3603 -1.1996
  352SOL    HW2 1056   2.016   1.288   0.681  1.7551 -0.8680 -1.2772
  353SOL     OW 1057   2.200   2.761   1.113 -0.2297 -0.3733 -0.7472
  353SOL    HW1 1058   2.255   2.672   1.146  2.0388 -1.4770 -0.6881
  353SOL    HW2 1059   2.125   2.792   1.182  0.3950  0.7554  2.7984
  354SOL     OW 1060   0.237   1.435   2.874  0.4276 -0.1121  0.2418
  354SOL    HW1 1061   0.213   1.519   2.816  0.7109  1.8371  1.6168
  354SOL    HW2 1062   0.333   1.437   2.919 -0.0689 -1.4223  3.3466
  355SOL     OW 1063   0.707   1.579   0.602 -0.3991 -0.3948  0.3102
  355SOL    HW1 1064   0.702   1.517   0.684 -0.9326  0.3555  1.5538
  355SOL    HW2 1065   0.676   1.535   0.516 -1.6124  1.7230  1.2272
  356SOL     OW 1066   0.903   0.283   2.040  0.2314  0.0181  0.2207
  356SOL    HW1 1067   1.006   0.276   2.044 -0.0772  0.2853  1.2499
  356SOL    HW2 1068   0.861   0.213   1.975  1.8310  1.2638  1.6539
  357SOL     OW 1069   1.014   1.343   0.293  0.1711  0.2057 -0.7494
  357SOL    HW1 1070   1.111   1.364   0.316  1.2712  4.2669  0.8077
  357SOL    HW2 1071   0.984   1.262   0.349 -0.2546 -0.1345 -1.3241
  358SOL     OW 1072   1.678   1.488   0.538  0.8061 -0.4328  0.1589
  358SOL    HW1 1073   1.682   1.408   0.600  0.1086 -0.0591 -1.0186
  358SOL    HW2 1074   1.621   1.483   0.454 -0.3044 -1.7212  0.1244
  359SOL     OW 1075   1.615   2.597   0.305  0.3700  0.2935 -0.3273
  359SOL    HW1 1076   1.524   2.545   0.291 -0.1182 -1.9534  0.4831
  359SOL    HW2 1077   1.619   2.657   0.389  0.1739 -0.3071  1.9110
  360SOL     OW 1078   0.803   0.477   0.582  0.3980 -0.4135  0.1280
  360SOL    HW1 1079   0.701   0.501   0.569  1.3736 -0.3222 -0.6147
  360SOL    HW2 1080   0.813   0.382   0.610  2.3836 -0.5188 -0.2160
  361SOL     OW 1081   1.376   1.313   0.607  0.1459  0.2959 -0.0566
  361SOL    HW1 1082   1.409   1.302   0.704  0.7509  0.4259 -2.4963
  361SOL    HW2 1083   1.283   1.360   0.606 -1.0723  2.0647  1.0514
  362SOL     OW 1084   1.381   1.822   0.720 -0.7019  0.1855  0.2414
  362SOL    HW1 1085   1.389   1.749   0.794 -2.3806 -0.5957  1.1699
  362SOL    HW2 1086   1.472   1.862   0.690  0.1627  0.8021  2.5065
  363SOL     OW 1087   1.271   1.322   2.104  0.5630  0.1740  0.1966
  363SOL    HW1 1088   1.354   1.379   2.071 -0.5972  1.3704  1.2545
  363SOL    HW2 1089   1.182   1.378   2.098  0.2023 -1.7548  1.2197
  364SOL     OW 1090   0.543   2.367   2.058 -0.3681  0.6929 -0.4291
  364SOL    HW1 1091   0.437   2.377   2.057 -1.3344 -2.2824 -3.0361
  364SOL    HW2 1092   0.591   2.418   1.981  2.6255 -0.5164  1.3044
  365SOL     OW 1093   0.976   1.944   1.357 -0.6005  0.0071 -0.0560
  365SOL    HW1 1094   0.877   1.968   1.381 -1.9449  1.4146 -1.1486
  365SOL    HW2 1095   1.007   2.000   1.273 -2.4406  0.3251 -3.7854
  366SOL     OW 1096   2.825   1.956   0.308 -0.1047 -0.1733 -0.3752
  366SOL    HW1 1097   2.788   1.861   0.317 -2.3244 -1.7550 -1.0256
  366SOL    HW2 1098   2.919   1.955   0.270 -1.0625  0.8273  2.4481
  367SOL     OW 1099   0.893   1.211   0.034  0.0319 -0.1091 -0.5036
  367SOL    HW1 1100   0.905   1.134   0.098  0.0589  0.6447 -0.3796
  367SOL    HW2 1101   0.980   1.255   0.009 -0.6557 -2.8131  1.2232
  368SOL     OW 1102   1.476   0.586   0.574 -0.4561  0.5234 -0.2179
  368SOL    HW1 1103   1.374   0.599   0.547 -0.3529 -1.1548  0.6374
  368SOL    HW2 1104   1.550   0.598   0.506 -0.0718 -1.8715 -0.5689
  369SOL     OW 1105   0.393   1.689   0.148 -0.1717 -0.8324  0.3149
  369SOL    HW1 1106   0.438   1.730   0.230  2.0645 -2.0217 -0.6116
  369SOL    HW2 1107   0.330   1.609   0.177 -1.7154 -0.0931  0.5949
  370SOL     OW 1108   0.375   2.194   1.072 -0.1388  0.3922  0.1959
  370SOL    HW1 1109   0.403   2.292   1.038 -1.8347  0.1391 -1.3659
  370SOL    HW2 1110   0.316   2.144   1.003  0.6474  1.6445  0.3586
  371SOL     OW 1111   2.903   2.259   2.687  0.2199 -0.1690  0.5698
  371SOL    HW1 1112   2.958   2.172   2.704  3.0333  1.4380  1.8976
  371SOL    HW2 1113   2.908   2.315   2.772  2.3290  2.1792 -0.8056
  372SOL     OW 1114   1.043   2.135   1.139 -0.8852 -0.8053  0.1225
  372SOL    HW1 1115   0.973   2.155   1.061 -0.8107  1.0781 -0.4932
  372SOL    HW2 1116   1.125   2.199   1.132 -0.5812 -1.6106 -1.0121
  373SOL     OW 1117   1.901   1.928   0.982 -0.2329  0.0062 -0.4209
  373SOL    HW1 1118   1.987   1.982   1.006  0.5589 -2.7410  2.4696
  373SOL    HW2 1119   1.834   1.986   0.934 -0.7817 -2.4101  0.2393
  374SOL     OW 1120   1.878   0.432   0.569 -0.1715 -0.2192  0.3610
  374SOL    HW1 1121   1.856   0.362   0.649  1.2999 -0.4732 -1.5407
  374SOL    HW2 1122   1.958   0.414   0.509  1.2657  1.5026  2.4539
  375SOL     OW 1123   2.419   2.217   1.084  0.0423  0.1614 -0.3527
  375SOL    HW1 1124   2.469   2.256   0.998 -0.0747  3.6690 -2.4520
  375SOL    HW2 1125   2.477   2.220   1.171 -0.6525 -1.3505  0.8753
  376SOL     OW 1126   0.021   0.644   1.419  0.1941  0.1111 -0.3992
  376SOL    HW1 1127   0.037   0.684   1.513 -0.6667  1.3044  2.0014
  376SOL    HW2 1128  -0.026   0.557   1.423 -0.1795  2.9680 -4.4031
  377SOL     OW 1129   2.158   2.860   0.279 -0.0546 -0.0458 -0.4789
  377SOL    HW1 1130   2.174   2.962   0.291  0.3114  1.0276 -0.2260
  377SOL    HW2 1131   2.245   2.802   0.282  0.4273  0.4609 -1.7667
  378SOL     OW 1132   1.805   1.891   2.461 -0.0306  0.0055 -0.3358
  378SOL    HW1 1133   1.859   1.894   2.373 -0.6476 -0.1850 -0.0760
  378SOL    HW2 1134   1.763   1.802   2.488 -1.7966  1.2429  1.3794
  379SOL     OW 1135   0.742   0.203   2.837 -0.3977 -0.4706  0.0188
  379SOL    HW1 1136   0.775   0.121   2.782 -0.0407 -2.9745  3.9769
  379SOL    HW2 1137   0.749   0.289   2.784 -1.8158 -0.0027 -0.2422
  380SOL     OW 1138   1.575   1.147   0.517 -0.3235  0.1658 -0.1234
  380SOL    HW1 1139   1.501   1.225   0.529 -1.1207  1.0734 -1.2639
  380SOL    HW2 1140   1.543   1.060   0.466  0.5315  2.7842  0.6943
  381SOL     OW 1141   1.320   1.205   1.572 -0.3756 -0.5224 -0.5749
  381SOL    HW1 1142   1.361   1.125   1.525 -1.1200  0.3612  1.6176
  381SOL    HW2 1143   1.394   1.262   1.618  1.3898  0.9889 -0.5885
  382SOL     OW 1144   1.810   0.878   0.241  0.0523  0.3763  0.0657
  382SOL    HW1 1145   1.841   0.833   0.152 -0.3522  0.7316  0.2807
  382SOL    HW2 1146   1.884   0.888   0.315 -0.8715 -1.4843  2.3565
  383SOL     OW 1147   2.567   1.022   1.481 -0.4326 -0.1238  0.0443
  383SOL    HW1 1148   2.478   0.989   1.436  0.4053  1.2528 -1.3924
  383SOL    HW2 1149   2.652   0.997   1.421  3.2228  1.8511 -2.9631
  384SOL     OW 1150   0.860   2.255   0.143  0.3554  0.4639  0.0322
  384SOL    HW1 1151   0.840   2.353   0.166  1.2076 -0.5436  1.2262
  384SOL    HW2 1152   0.873   2.196   0.228  0.5126 -1.3932  1.0380
  385SOL     OW 1153   2.957   2.039   1.677  0.0149  0.0891  0.1395
  385SOL    HW1 1154   3.029   2.102   1.636  1.6625 -1.1951 -0.6252
  385SOL    HW2 1155   2.997   1.943   1.678  1.0656  3.1028  0.8258
  386SOL     OW 1156   0.487   1.051   0.478  0.2294 -0.1147  0.2492
  386SOL    HW1 1157   0.461   0.956   0.518 -2.5939  2.0730 -1.1464
  386SOL    HW2 1158   0.403   1.108   0.464 -0.5041  3.3634 -0.9385
  387SOL     OW 1159   0.947   0.363   1.697  0.5193  0.0344 -0.2949
  387SOL    HW1 1160   1.000   0.454   1.706 -1.8658  2.7703  2.3354
  387SOL    HW2 1161   0.914   0.344   1.602  0.1665 -2.3348  0.5958
  388SOL     OW 1162   1.187   2.720   1.765  0.4268 -0.8594 -0.3792
  388SOL    HW1 1163   1.222   2.758   1.678 -0.3118  0.2076 -1.0230
  388SOL    HW2 1164   1.256   2.657   1.806  0.8397  0.7215 -1.2759
  389SOL     OW 1165   0.134   2.967   1.367 -0.1754  0.1980  0.1069
  389SOL    HW1 1166   0.034   2.952   1.337 -1.2517  1.6371 -1.7067
  389SOL    HW2 1167   0.188   2.881   1.370 -0.4189  1.4073 -0.1136
  390SOL     OW 1168   1.042   0.975   1.355  0.0135 -0.0048 -0.0010
  390SOL    HW1 1169   1.118   0.970   1.429 -0.8078 -2.5425  0.1962
  390SOL    HW2 1170   1.007   1.069   1.335  0.6126 -0.4368  0.0328
  391SOL     OW 1171   2.174   1.163   1.093  0.0877  0.5013 -0.1985
  391SOL    HW1 1172   2.112   1.086   1.133 -1.6685  0.0312 -1.6555
  391SOL    HW2 1173   2.241   1.125   1.029 -1.2088  0.1927 -0.8377
  392SOL     OW 1174   0.909   2.637   3.085 -0.1701  0.1059  0.9044
  392SOL    HW1 1175   0.968   2.556   3.058 -0.9564 -2.7341 -1.2166
  392SOL    HW2 1176   0.846   2.620   3.170 -1.0860 -2.5236 -1.5070
  393SOL     OW 1177   0.315   0.568   1.989 -0.0529  0.0017  0.2242
  393SOL    HW1 1178   0.233   0.503   2.000 -0.2781  0.9354 -0.6796
  393SOL    HW2 1179   0.386   0.532   1.925 -2.2806 -2.0226  0.3091
  394SOL     OW 1180   3.029   1.975   2.799 -0.1629  0.8889 -0.8210
  394SOL    HW1 1181   3.136   1.974   2.810  1.7142 -2.3355 -2.4519
  394SOL    HW2 1182   3.001   1.937   2.708 -0.0690 -0.3633  2.2140
  395SOL     OW 1183   1.614   1.960   0.640  0.1817 -0.2551 -1.4072
  395SOL    HW1 1184   1.678   1.882   0.613  1.0556  0.6893 -0.5372
  395SOL    HW2 1185   1.626   1.993   0.739  0.5772 -0.0829 -1.9620
  396SOL     OW 1186   2.831   1.802   1.303  0.2305  0.1509  0.0664
  396SOL    HW1 1187   2.774   1.740   1.241  1.0980  1.3624  0.0429
  396SOL    HW2 1188   2.773   1.838   1.382 -2.1629 -1.3373  1.0204
  397SOL     OW 1189   1.020   2.244   0.516  0.4465  0.4336 -0.0256
  397SOL    HW1 1190   0.930   2.216   0.565  1.4996 -0.1420  1.6931
  397SOL    HW2 1191   1.051   2.338   0.532 -1.0750 -0.7085 -1.1127
  398SOL     OW 1192   2.156   3.093   1.052 -0.0438  0.1159  0.4381
  398SOL    HW1 1193   2.080   3.047   1.110 -0.2366  0.0399  1.7338
  398SOL    HW2 1194   2.129   3.184   1.011  0.4951  0.1067  0.2334
  399SOL     OW 1195   3.065   2.471   2.571 -0.2552  0.0719 -0.0213
  399SOL    HW1 1196   2.980   2.426   2.528  1.1442 -0.8187 -2.1702
  399SOL    HW2 1197   3.095   2.425   2.654 -0.8181  0.5573 -0.5397
  400SOL     OW 1198   0.772   1.650   1.376  0.4626  0.5480  0.5755
  400SOL    HW1 1199   0.670   1.657   1.411 -0.4240  0.1457  1.4136
  400SOL    HW2 1200   0.790   1.730   1.313 -0.1098  1.2856 -0.2125
  401SOL     OW 1201   1.864   0.118   1.200  0.2808  0.4201 -0.0578
  401SOL    HW1 1202   1.932   0.105   1.280  0.7578 -0.9123  1.2035
  401SOL    HW2 1203   1.769   0.165   1.228 -1.1397  0.4710 -2.0444
  402SOL     OW 1204   1.309   0.142   3.046  0.6496  0.7793  0.0385
  402SOL    HW1 1205   1.409   0.141   3.011  1.4108 -0.2022 -0.2627
  402SOL    HW2 1206   1.292   0.238   3.085  0.3648  1.8189 -1.1504
  403SOL     OW 1207   2.284   1.776   0.912  0.0557 -0.3856 -0.2371
  403SOL    HW1 1208   2.390   1.771   0.913  1.0692 -0.4743 -0.7816
  403SOL    HW2 1209   2.248   1.855   0.969 -2.1565  2.8767 -1.5403
  404SOL     OW 1210   0.209   2.455   2.829 -0.0098 -0.7338 -0.5760
  404SOL    HW1 1211   0.310   2.444   2.795 -1.3239 -0.1157 -0.2121
  404SOL    HW2 1212   0.172   2.551   2.800 -2.1320 -0.1330  0.5838
  405SOL     OW 1213   0.088   2.461   0.735  0.0941 -0.6341  0.3858
  405SOL    HW1 1214   0.065   2.384   0.670 -2.2802  2.6988  3.1734
  405SOL    HW2 1215   0.139   2.545   0.702  1.5873 -1.4010  2.9684
  406SOL     OW 1216   0.054   1.549   3.045 -0.0607  0.5629 -0.0595
  406SOL    HW1 1217   0.110   1.489   2.986 -3.3568  0.4145  1.3778
  406SOL    HW2 1218   0.095   1.561   3.141  2.6181 -0.0274  0.6016
  407SOL     OW 1219   1.548   0.951   0.956  0.0874 -0.1301 -0.0344
  407SOL    HW1 1220   1.554   0.911   0.865  2.4193  2.5115  1.1797
  407SOL    HW2 1221   1.467   1.015   0.965 -1.4957  0.3050 -1.0480
  408SOL     OW 1222   1.581   2.439   0.952 -0.3113 -0.0653  0.3202
  408SOL    HW1 1223   1.634   2.408   0.870 -1.7542  1.2806  0.0477
  408SOL    HW2 1224   1.527   2.527   0.934 -1.1141 -1.1340  0.9079
  409SOL     OW 1225   0.682   0.772   0.760  0.3886 -0.0913  0.0463
  409SOL    HW1 1226   0.587   0.780   0.719  0.2326 -0.0255 -0.3505
  409SOL    HW2 1227   0.681   0.684   0.819  0.6459 -1.5224  0.8867
  410SOL     OW 1228   1.274   2.052   1.372 -0.8673 -0.3020 -0.2458
  410SOL    HW1 1229   1.333   1.983   1.425  0.8369  0.7767  0.7442
  410SOL    HW2 1230   1.181   2.019   1.353  3.6958  1.5717 -0.6682
  411SOL     OW 1231   2.635   1.822   3.025 -0.5355  0.2614  0.2065
  411SOL    HW1 1232   2.544   1.875   3.021  0.0983  1.5861 -1.2505
  411SOL    HW2 1233   2.697   1.846   2.945 -0.6215 -1.4443 -0.8097
  412SOL     OW 1234   1.533   2.483   2.153 -0.0818 -0.0474 -0.3555
  412SOL    HW1 1235   1.564   2.578   2.119  2.9658 -0.3024  5.4733
  412SOL    HW2 1236   1.438   2.490   2.194 -0.0657 -0.4513 -4.0824
  413SOL     OW 1237   3.083   0.203   2.919  0.2141 -0.1948 -0.7109
  413SOL    HW1 1238   3.026   0.140   2.979 -0.8096  2.5125  1.7894
  413SOL    HW2 1239   3.174   0.229   2.962 -0.2913 -1.6423  0.1802
  414SOL     OW 1240   1.893   1.539   1.171 -0.4249  0.1433  0.3479
  414SOL    HW1 1241   1.839   1.624   1.181 -1.4660 -1.0883 -1.1062
  414SOL    HW2 1242   1.846   1.458   1.119 -0.0800 -1.8568 -0.8599
  415SOL     OW 1243   0.386   2.292   0.723  0.0357 -0.3978 -1.3812
  415SOL    HW1 1244   0.408   2.326   0.815 -1.3694 -1.1309  0.9837
  415SOL    HW2 1245   0.287   2.263   0.727 -0.6439  1.0423 -0.1384
  416SOL     OW 1246   0.363   1.018   1.085  0.2220  0.1970 -0.5077
  416SOL    HW1 1247   0.307   1.003   1.001 -0.6275 -2.7235 -1.7900
  416SOL    HW2 1248   0.463   1.000   1.066  2.1620 -0.7290 -0.8871
  417SOL     OW 1249   2.275   2.353   2.028  0.3494  0.4554  0.6543
  417SOL    HW1 1250   2.341   2.294   2.087  0.7875  2.6108  1.1237
  417SOL    HW2 1251   2.253   2.302   1.939  1.4110  1.7206 -1.4412
  418SOL     OW 1252   1.079   0.598   1.352 -0.4268 -0.0479 -0.2233
  418SOL    HW1 1253   0.993   0.574   1.293 -2.1818 -2.2096  2.8219
  418SOL    HW2 1254   1.175   0.589   1.311  2.4595 -2.4322  1.8624
  419SOL     OW 1255   0.944   0.483   2.951 -0.2475  0.1287  0.3642
  419SOL    HW1 1256   0.903   0.483   2.857  1.4061  1.1696 -1.8044
  419SOL    HW2 1257   0.992   0.565   2.988 -0.6647  0.7912 -2.1432
  420SOL     OW 1258   0.077   2.261   0.550  0.0772  0.1003  0.3821
  420SOL    HW1 1259   0.136   2.254   0.464 -0.7255 -0.3457 -0.9032
  420SOL    HW2 1260   0.011   2.180   0.562 -0.3830  1.3505  3.4959
  421SOL     OW 1261   0.330   2.957   0.611 -0.2350 -0.4158 -0.2150
  421SOL    HW1 1262   0.290   2.926   0.703 -1.1028  0.5590 -0.6494
  421SOL    HW2 1263   0.414   3.016   0.619  1.5409 -1.0906 -0.5535
  422SOL     OW 1264   0.998   2.580   1.006 -0.3220  0.1801  0.3348
  422SOL    HW1 1265   1.085   2.624   0.963  0.3854  2.1110 -0.0919
  422SOL    HW2 1266   1.009   2.559   1.106  2.1915 -0.5672 -1.3189
  423SOL     OW 1267   0.155   0.744   1.203 -0.5654  0.1838 -0.6386
  423SOL    HW1 1268   0.110   0.688   1.286 -0.1890  0.6456  1.1015
  423SOL    HW2 1269   0.104   0.833   1.175  1.6108 -0.4486 -2.4626
  424SOL     OW 1270   1.129   2.213   2.040  0.2778  0.4628 -0.0039
  424SOL    HW1 1271   1.100   2.309   2.014 -1.1341 -1.4645 -2.1858
  424SOL    HW2 1272   1.097   2.183   2.135  1.8192 -1.3804 -0.7256
  425SOL     OW 1273   1.958   1.308   1.023 -0.2320  0.6792  0.5364
  425SOL    HW1 1274   2.035   1.243   1.046 -0.7996 -1.4606  1.0560
  425SOL    HW2 1275   2.005   1.402   1.012 -0.2644  0.0060  1.3361
  426SOL     OW 1276   1.477   1.582   1.348 -0.5855 -0.2072 -0.9107
  426SOL    HW1 1277   1.497   1.654   1.284  0.5781  0.0382 -0.6628
  426SOL    HW2 1278   1.386   1.594   1.405 -0.0488  0.2045 -0.2437
  427SOL     OW 1279   1.902   2.336   2.093 -0.2142  0.4523 -0.0357
  427SOL    HW1 1280   1.974   2.277   2.145  0.8062 -0.3364  1.7842
  427SOL    HW2 1281   1.934   2.439   2.080  0.2340 -1.4112 -0.8181
  428SOL     OW 1282   0.817   3.081   0.141 -0.3601  0.6223  0.0656
  428SOL    HW1 1283   0.847   3.172   0.101  2.4227  1.6419 -1.8174
  428SOL    HW2 1284   0.893   3.014   0.141  0.9655 -1.3381 -1.3921
  429SOL     OW 1285   1.343   0.112   0.233  0.6964  0.1442 -0.6256
  429SOL    HW1 1286   1.429   0.088   0.280  0.7043  0.0449  0.2813
  429SOL    HW2 1287   1.324   0.069   0.141 -1.1798 -1.5705 -0.6928
  430SOL     OW 1288   2.853   1.396   0.286  0.4100  0.3989 -0.4901
  430SOL    HW1 1289   2.889   1.460   0.216  2.6057  1.0495  0.9474
  430SOL    HW2 1290   2.850   1.448   0.382 -0.6639 -0.1751  3.5397
  431SOL     OW 1291   2.099   1.561   0.964 -0.2413  0.2088  0.3389
  431SOL    HW1 1292   2.185   1.614   0.938  1.0024  4.6625  1.9227
  431SOL    HW2 1293   2.012   1.591   0.916  0.7360  0.0444  0.0040
  432SOL     OW 1294   2.951   2.216   1.156  0.1127 -0.5532 -0.1235
  432SOL    HW1 1295   2.947   2.122   1.202  0.1514 -0.2301  2.3892
  432SOL    HW2 1296   2.976   2.295   1.222 -0.0295 -0.7075  0.7466
  433SOL     OW 1297   1.840   0.263   0.805 -0.0666  0.2460 -0.4401
  433SOL    HW1 1298   1.747   0.278   0.840  1.1040  0.8076  0.3024
  433SOL    HW2 1299   1.918   0.278   0.882  1.2840 -1.4961  6.4631
  434SOL     OW 1300   1.540   0.344   0.690  0.1016  0.2885  0.1181
  434SOL    HW1 1301   1.522   0.432   0.642  0.9829 -0.8559 -2.5743
  434SOL    HW2 1302   1.544   0.358   0.794  0.4046 -1.8043  0.6333
  435SOL     OW 1303   1.479   1.498   2.027  0.3865 -0.5857 -0.5335
  435SOL    HW1 1304   1.490   1.548   2.124  0.0463  1.0835 -0.4470
  435SOL    HW2 1305   1.467   1.566   1.951 -1.5537  0.3938  0.8885
  436SOL     OW 1306   1.713   2.726   2.258 -0.2339  0.1263 -0.5432
  436SOL    HW1 1307   1.664   2.807   2.309  3.6753  0.2791 -1.6955
  436SOL    HW2 1308   1.725   2.640   2.319 -0.8830 -1.0347  1.1543
  437SOL     OW 1309   1.099   2.945   0.908  0.7305 -0.4610 -0.0042
  437SOL    HW1 1310   1.037   3.025   0.884 -0.0504 -0.1017  0.1429
  437SOL    HW2 1311   1.136   2.951   1.003  0.0779 -1.5852 -0.6953
  438SOL     OW 1312   1.003   2.645   1.320  0.2057  0.1541 -0.1901
  438SOL    HW1 1313   1.083   2.717   1.327  2.4264  1.6093 -0.6847
  438SOL    HW2 1314   1.024   2.563   1.381  1.9088  1.8582 -0.9813
  439SOL     OW 1315   0.710   1.814   1.150 -0.4045  0.0516  0.0239
  439SOL    HW1 1316   0.696   1.878   1.069  0.9639  0.6284 -0.5938
  439SOL    HW2 1317   0.619   1.772   1.182 -2.5726  2.4134  0.3965
  440SOL     OW 1318   1.070   2.466   1.938  0.1477 -1.0232 -0.1591
  440SOL    HW1 1319   1.008   2.503   1.865 -1.2321 -2.0495  1.2892
  440SOL    HW2 1320   1.168   2.506   1.937  1.5212 -2.0351  1.6864
  441SOL     OW 1321   0.507   2.725   1.464 -0.4852 -0.8235  0.6374
  441SOL    HW1 1322   0.556   2.635   1.470 -1.9986  2.0676  0.5289
  441SOL    HW2 1323   0.412   2.717   1.415 -3.0017  1.4231 -0.6996
  442SOL     OW 1324   2.272   0.737   2.493  0.2891  0.1626  0.1721
  442SOL    HW1 1325   2.255   0.640   2.526 -0.9943  1.1792  0.4616
  442SOL    HW2 1326   2.186   0.796   2.488 -0.5760 -1.0138 -1.3213
  443SOL     OW 1327   1.187   2.748   2.206  0.3297 -0.2939 -0.1554
  443SOL    HW1 1328   1.163   2.782   2.305 -0.4874  1.1324  1.2107
  443SOL    HW2 1329   1.248   2.664   2.214 -1.6534 -4.1973 -0.3617
  444SOL     OW 1330   1.059   1.332   1.565 -0.4528  0.3101 -0.4478
  444SOL    HW1 1331   1.156   1.296   1.574  0.4739  2.7779  2.2632
  444SOL    HW2 1332   1.052   1.416   1.627 -0.0196 -1.7772  1.6699
  445SOL     OW 1333   3.099   2.314   1.925 -0.3450  0.1306  0.1744
  445SOL    HW1 1334   3.075   2.410   1.887  0.4406  1.8146 -0.9106
  445SOL    HW2 1335   3.026   2.270   1.984 -0.3475  0.0463  0.0741
  446SOL     OW 1336   0.152   1.894   2.351 -0.1011  0.1874  0.4545
  446SOL    HW1 1337   0.107   1.982   2.391 -1.7785  1.6603 -1.4905
  446SOL    HW2 1338   0.090   1.866   2.269  1.3258  2.1612 -0.0180
  447SOL     OW 1339   1.256   1.691   1.957 -0.4718  0.4302  0.2005
  447SOL    HW1 1340   1.194   1.770   1.933 -1.0292  0.2946  1.5999
  447SOL    HW2 1341   1.356   1.721   1.948  0.2908 -0.4850 -2.8547
  448SOL     OW 1342   0.158   1.537   2.032 -0.5060 -0.1760 -0.1154
  448SOL    HW1 1343   0.174   1.623   1.979 -3.5109 -1.5888 -1.5099
  448SOL    HW2 1344   0.124   1.546   2.134  1.3317 -4.0826 -0.5795
  449SOL     OW 1345   2.033   2.958   0.834 -0.1602  0.7013  0.1050
  449SOL    HW1 1346   2.115   2.985   0.897 -0.5703  0.2256  2.3448
  449SOL    HW2 1347   2.014   2.853   0.845  1.7477 -2.9108  1.3858
  450SOL     OW 1348   2.287   1.363   0.767  0.4743 -0.0480  0.3201
  450SOL    HW1 1349   2.272   1.284   0.840 -0.9664 -0.6089 -0.7254
  450SOL    HW2 1350   2.197   1.376   0.714  1.3016  2.9186  2.6548
  451SOL     OW 1351   1.451   0.037   1.475  0.6998 -0.0695 -0.2613
  451SOL    HW1 1352   1.363   0.094   1.480 -2.0565  0.4063 -0.8013
  451SOL    HW2 1353   1.469  -0.013   1.565 -0.4682 -1.2033 -0.0139
  452SOL     OW 1354   2.653   2.293   2.216 -0.3038  0.2773  0.0533
  452SOL    HW1 1355   2.609   2.388   2.234  1.0681  1.3136  1.6239
  452SOL    HW2 1356   2.709   2.255   2.299 -1.1759 -1.5895  2.0067
  453SOL     OW 1357   2.442   2.645   3.092 -0.0656  0.6825 -0.1908
  453SOL    HW1 1358   2.356   2.707   3.089  3.3354  0.8355 -2.2835
  453SOL    HW2 1359   2.442   2.577   3.011  1.0496 -0.0968  2.1274
  454SOL     OW 1360   0.972   1.117   2.090 -0.1970 -0.2005 -0.0776
  454SOL    HW1 1361   0.958   1.154   1.991 -0.6174  0.4539 -2.7429
  454SOL    HW2 1362   1.049   1.166   2.140 -1.0427  2.4392  0.4584
  455SOL     OW 1363   0.706   2.644   2.864  0.5108  0.2300 -0.2017
  455SOL    HW1 1364   0.767   2.707   2.923  1.5564  1.8848  1.3579
  455SOL    HW2 1365   0.683   2.558   2.914 -0.3528  0.6606  1.6965
  456SOL     OW 1366   0.511   1.836   0.352  0.3685 -0.4639 -0.6866
  456SOL    HW1 1367   0.582   1.816   0.428 -0.9498  0.7327  2.0212
  456SOL    HW2 1368   0.523   1.935   0.324  1.3212  1.8942 -3.1858
  457SOL     OW 1369   0.359   2.632   0.730 -0.3799  0.9331  0.3711
  457SOL    HW1 1370   0.349   2.643   0.629  1.3427 -0.0030 -0.9314
  457SOL    HW2 1371   0.454   2.618   0.771 -2.3141 -1.5750  0.0605
  458SOL     OW 1372   2.986   2.992   1.255  0.3716 -0.7001 -0.2335
  458SOL    HW1 1373   3.035   3.069   1.206 -0.6592 -2.8545 -3.6662
  458SOL    HW2 1374   2.919   2.938   1.204 -1.4815  0.1899  3.0370
  459SOL     OW 1375   2.134   2.558   0.910 -0.0570 -0.2337  0.6073
  459SOL    HW1 1376   2.136   2.638   0.974  0.1489 -0.5771 -2.2535
  459SOL    HW2 1377   2.224   2.546   0.864  0.4340 -0.7678  1.3291
  460SOL     OW 1378   1.139   1.950   2.977  0.1626 -0.2916 -0.5540
  460SOL    HW1 1379   1.165   2.025   2.915 -1.5241 -0.8234  1.8758
  460SOL    HW2 1380   1.212   1.878   2.995 -0.8529  1.3876 -1.3108
  461SOL     OW 1381   0.491   2.125   2.662 -0.3829 -0.3301  0.6821
  461SOL    HW1 1382   0.432   2.050   2.620 -2.5090  2.4355  2.1295
  461SOL    HW2 1383   0.515   2.097   2.758  0.1748  1.0451 -2.9351
  462SOL     OW 1384   0.928   1.213   1.854  0.0882  0.3197  0.7473
  462SOL    HW1 1385   0.996   1.153   1.796  1.5056 -1.3674 -2.3918
  462SOL    HW2 1386   0.902   1.298   1.808  0.9523 -1.5665 -0.5699
  463SOL     OW 1387   0.444   0.795   0.588 -0.2932 -0.0765  0.9984
  463SOL    HW1 1388   0.509   0.724   0.556 -0.6601  0.0395 -2.8021
  463SOL    HW2 1389   0.348   0.773   0.562  2.3877 -1.0457  0.1158
  464SOL     OW 1390   0.595   2.251   2.300 -0.0676 -0.3150 -0.5455
  464SOL    HW1 1391   0.554   2.324   2.368 -0.1460 -0.9058 -1.6667
  464SOL    HW2 1392   0.586   2.286   2.202  2.7098 -0.3269  0.2988
  465SOL     OW 1393   0.236   0.897   0.827 -0.0723 -0.2232  0.1521
  465SOL    HW1 1394   0.166   0.903   0.753  1.7032  0.3155  2.1324
  465SOL    HW2 1395   0.246   0.798   0.858  1.4250  0.0988 -0.3681
  466SOL     OW 1396   1.357   1.119   1.139 -0.1223 -0.1234 -0.2057
  466SOL    HW1 1397   1.408   1.204   1.176  1.4309 -0.2072  0.6560
  466SOL    HW2 1398   1.270   1.139   1.091  0.7304 -0.7695  0.1981
  467SOL     OW 1399   0.485   0.380   2.375 -0.5263  0.2032 -0.3326
  467SOL    HW1 1400   0.445   0.464   2.427 -1.2472  0.7228  0.9711
  467SOL    HW2 1401   0.456   0.290   2.420 -1.1808 -0.9201 -2.6308
  468SOL     OW 1402   0.425   2.279   1.671  0.5354 -0.0654 -0.0191
  468SOL    HW1 1403   0.472   2.359   1.718 -0.9704  1.7289 -0.0494
  468SOL    HW2 1404   0.390   2.299   1.576  1.8766  0.2536 -0.1694
  469SOL     OW 1405   1.498   1.348   1.208  0.4987  0.3723 -0.9996
  469SOL    HW1 1406   1.590   1.308   1.178  0.0712  4.2152 -1.8872
  469SOL    HW2 1407   1.521   1.427   1.278  0.7545  0.4516  1.5539
  470SOL     OW 1408   3.015   1.687   0.737 -0.0077  0.1008  0.0635
  470SOL    HW1 1409   3.095   1.740   0.774  1.9086 -1.5701  0.6049
  470SOL    HW2 1410   2.928   1.732   0.762  0.9045 -1.3630 -2.1434
  471SOL     OW 1411   2.615   1.340   2.152  0.1922  0.1746 -0.4600
  471SOL    HW1 1412   2.578   1.261   2.210  0.0021 -1.3926 -0.7902
  471SOL    HW2 1413   2.712   1.369   2.169 -0.4540 -2.6674 -2.1894
  472SOL     OW 1414   1.104   2.424   3.046 -0.2765 -0.0963  0.0896
  472SOL    HW1 1415   1.131   2.435   3.148  0.7517  0.6022 -0.0342
  472SOL    HW2 1416   1.047   2.339   3.024 -0.2002  1.4753  1.4021
  473SOL     OW 1417   1.097   1.536   0.915  0.0966  0.8468  0.0549
  473SOL    HW1 1418   0.994   1.527   0.925  2.5748 -2.9018 -0.2599
  473SOL    HW2 1419   1.147   1.500   1.000  2.5740  2.7241  4.3756
  474SOL     OW 1420   0.811   1.227   0.641  0.4471 -0.5956  0.0350
  474SOL    HW1 1421   0.792   1.212   0.538  1.1067 -1.7964 -1.6313
  474SOL    HW2 1422   0.874   1.155   0.680  0.3395  0.6515  3.6015
  475SOL     OW 1423   2.853   0.114   0.780  0.6648 -0.2279 -0.6230
  475SOL    HW1 1424   2.938   0.142   0.833 -0.4131 -1.9115  1.5211
  475SOL    HW2 1425   2.763   0.134   0.830  0.0597 -1.4987  1.8493
  476SOL     OW 1426   0.929   3.001   1.769 -0.3375  0.7421  1.1374
  476SOL    HW1 1427   1.009   2.950   1.811  2.1967  1.7476  0.3784
  476SOL    HW2 1428   0.917   2.967   1.670  0.0059 -0.2708 -1.1597
  477SOL     OW 1429   1.426   0.326   2.462 -0.3655  0.0548 -0.6483
  477SOL    HW1 1430   1.453   0.341   2.562  0.9395  0.8140 -0.8776
  477SOL    HW2 1431   1.501   0.268   2.416  2.5188  1.5780 -0.9755
  478SOL     OW 1432   2.256   1.808   0.241 -0.2061 -0.6255 -0.3363
  478SOL    HW1 1433   2.190   1.729   0.216  1.4589 -0.5416 -1.9590
  478SOL    HW2 1434   2.354   1.786   0.212  2.6108 -2.0411 -0.7019
  479SOL     OW 1435   1.266   1.024   2.881  0.8066 -0.1193  0.3252
  479SOL    HW1 1436   1.356   1.028   2.825  4.5947 -0.4045  1.2266
  479SOL    HW2 1437   1.180   1.043   2.828 -2.4108 -2.7997  0.4923
  480SOL     OW 1438   2.513   2.320   0.369  0.1123 -0.0850  0.5295
  480SOL    HW1 1439   2.455   2.244   0.420 -0.1999 -0.5297  1.5655
  480SOL    HW2 1440   2.460   2.353   0.287  1.8766  1.4407  0.1519
  481SOL     OW 1441   1.080   1.165   0.804  0.4567 -0.6524 -0.4250
  481SOL    HW1 1442   1.080   1.261   0.762 -3.6395  1.2455 -0.6568
  481SOL    HW2 1443   1.096   1.178   0.906 -0.9120  0.7733  0.6364
  482SOL     OW 1444   1.613   0.359   2.047 -0.1967 -0.1795  0.2562
  482SOL    HW1 1445   1.621   0.456   1.999  1.1154  2.4528 -1.1481
  482SOL    HW2 1446   1.702   0.317   2.068 -1.8797 -1.1796  2.1000
  483SOL     OW 1447   0.159   2.379   1.266  0.2782 -0.4811 -0.5224
  483SOL    HW1 1448   0.064   2.373   1.305 -1.2690 -1.8040  1.1202
  483SOL    HW2 1449   0.166   2.418   1.168 -2.6530  3.1378  0.1855
  484SOL     OW 1450   1.703   0.970   1.394  0.1447 -0.0749  0.1767
  484SOL    HW1 1451   1.779   0.900   1.422  0.6048  0.2439  1.4035
  484SOL    HW2 1452   1.730   1.071   1.409 -0.2030  1.3477 -1.5184
  485SOL     OW 1453   0.686   1.081   1.787  0.2138  0.1542 -0.1804
  485SOL    HW1 1454   0.711   1.069   1.688 -3.4014  3.0179 -0.8825
  485SOL    HW2 1455   0.773   1.100   1.847  1.9745 -0.5308  1.3836
  486SOL     OW 1456   0.937   1.967   2.477  0.1662  0.1976 -0.1018
  486SOL    HW1 1457   0.961   1.895   2.547  0.7075 -0.6436  2.4678
  486SOL    HW2 1458   0.842   2.006   2.504 -1.7801  0.4018  2.6903
  487SOL     OW 1459   1.707   1.507   0.894  0.2466 -0.1234  0.0901
  487SOL    HW1 1460   1.710   1.428   0.826  0.1357 -2.3950  3.6105
  487SOL    HW2 1461   1.767   1.593   0.866 -0.6337 -0.3454  0.9149
  488SOL     OW 1462   2.990   0.942   2.202  0.0164  0.7143  0.8162
  488SOL    HW1 1463   3.027   0.864   2.140 -3.3828 -1.8700 -2.0908
  488SOL    HW2 1464   3.022   0.937   2.300  0.3844  2.6849 -1.2431
  489SOL     OW 1465   2.732   0.267   1.324 -0.8158  0.1745  0.4810
  489SOL    HW1 1466   2.701   0.206   1.408 -1.0955 -2.5591  3.2144
  489SOL    HW2 1467   2.820   0.235   1.286  1.4423  2.5019  1.7579
  490SOL     OW 1468   1.416   2.976   2.805  0.1144  0.1574 -0.1109
  490SOL    HW1 1469   1.474   2.890   2.792 -2.8028  2.1517 -0.7315
  490SOL    HW2 1470   1.408   3.040   2.719  0.7274 -1.0307  0.2156
  491SOL     OW 1471   1.835   1.519   2.689  0.5691  0.6543  0.0856
  491SOL    HW1 1472   1.777   1.476   2.763 -0.7599  0.6117  2.9197
  491SOL    HW2 1473   1.938   1.503   2.694  1.3130  0.9392  2.7817
  492SOL     OW 1474   0.519   2.055   0.755 -0.4808 -0.1097  0.3261
  492SOL    HW1 1475   0.533   2.049   0.856  0.5337 -0.2756  0.0189
  492SOL    HW2 1476   0.456   2.131   0.731  0.4122  0.5008 -0.8289
  493SOL     OW 1477   0.425   1.456   2.060 -0.1162 -0.6662  0.2104
  493SOL    HW1 1478   0.326   1.489   2.056  1.3475 -1.7378 -0.2199
  493SOL    HW2 1479   0.440   1.381   2.128 -1.4766  0.5124  2.3630
  494SOL     OW 1480   2.648   2.695   0.161 -0.0835  0.1699 -0.0421
  494SOL    HW1 1481   2.653   2.624   0.236 -1.3337  0.7558 -0.1521
  494SOL    HW2 1482   2.589   2.664   0.079 -0.9110 -0.3267 -0.2189
  495SOL     OW 1483   2.729   2.660   2.725  0.2114  0.6603  0.0242
  495SOL    HW1 1484   2.706   2.559   2.710 -0.6925 -0.7319  0.1001
  495SOL    HW2 1485   2.724   2.708   2.634 -0.3588 -1.1689 -0.1858
  496SOL     OW 1486   2.033   2.168   0.721  0.4699 -0.0801 -0.0777
  496SOL    HW1 1487   2.055   2.219   0.804  1.9131 -0.2034 -2.9797
  496SOL    HW2 1488   2.031   2.062   0.728 -0.6262  0.4886 -0.8899
  497SOL     OW 1489   0.205   2.984   2.405  0.5307 -0.6597  0.0022
  497SOL    HW1 1490   0.140   3.054   2.451 -1.9740  1.2940 -1.2758
  497SOL    HW2 1491   0.245   3.017   2.315  1.1277 -0.0839 -0.4998
  498SOL     OW 1492   1.237   1.452   1.144  0.1068  0.1634 -0.0006
  498SOL    HW1 1493   1.329   1.437   1.195  0.1379 -2.1123  1.2551
  498SOL    HW2 1494   1.196   1.539   1.175 -0.1500  0.4210 -0.6704
  499SOL     OW 1495   0.790   1.825   0.527  0.4079 -0.4221 -0.3320
  499SOL    HW1 1496   0.731   1.742   0.542  0.8039  0.0809 -0.9485
  499SOL    HW2 1497   0.833   1.846   0.615  1.5909  0.5713  0.2572
  500SOL     OW 1498   1.414   2.990   1.700 -0.4551  0.2380 -0.1727
  500SOL    HW1 1499   1.364   2.974   1.787  0.2469  0.0457 -0.4964
  500SOL    HW2 1500   1.454   2.905   1.655 -0.5983 -0.1812 -0.0813
  501SOL     OW 1501   0.776   1.133   2.301 -0.4550  0.3026  0.1002
  501SOL    HW1 1502   0.707   1.059   2.319  0.3980  1.7716 -2.3561
  501SOL    HW2 1503   0.816   1.121   2.205  2.2120 -0.6639  2.1051
  502SOL     OW 1504   2.567   0.978   1.761 -0.0830  0.2881 -0.2062
  502SOL    HW1 1505   2.563   1.003   1.661 -0.1501  0.2357  1.1467
  502SOL    HW2 1506   2.544   0.878   1.767 -0.0872 -1.7389 -0.3899
  503SOL     OW 1507   1.337   0.169   0.614  0.1383  0.5352 -0.0492
  503SOL    HW1 1508   1.250   0.227   0.606  1.5692 -2.3509 -0.7818
  503SOL    HW2 1509   1.421   0.223   0.635 -3.9394 -0.0341  3.5863
  504SOL     OW 1510   3.021   2.330   1.407 -0.3998 -0.1635 -0.0516
  504SOL    HW1 1511   2.989   2.405   1.480 -1.5934  2.9345  2.8276
  504SOL    HW2 1512   2.989   2.242   1.440 -2.1238  1.9710  2.2743
  505SOL     OW 1513   2.282   1.152   1.470  0.0980  0.1337 -0.3331
  505SOL    HW1 1514   2.280   1.213   1.388 -1.5898  1.0740  1.0549
  505SOL    HW2 1515   2.370   1.168   1.527 -2.4680  0.2644 -2.2768
  506SOL     OW 1516   1.998   0.244   1.763 -0.2112  0.9825  0.3813
  506SOL    HW1 1517   2.025   0.154   1.806 -0.3490 -1.7867  3.4597
  506SOL    HW2 1518   1.973   0.315   1.835 -0.6670 -0.9821  1.6819
  507SOL     OW 1519   0.512   0.658   2.181  0.0204 -0.4559  0.1995
  507SOL    HW1 1520   0.430   0.662   2.120 -1.1076 -1.9692  0.2139
  507SOL    HW2 1521   0.569   0.567   2.177 -0.7681  1.3630 -2.2314
  508SOL     OW 1522   0.273   1.635   0.908 -0.0240  0.4709 -0.3980
  508SOL    HW1 1523   0.361   1.671   0.872  1.3785  0.6200  1.6221
  508SOL    HW2 1524   0.247   1.677   0.999  2.0412 -0.8108 -1.5869
  509SOL     OW 1525   1.340   1.203   2.455  0.1457 -0.6578  0.0706
  509SOL    HW1 1526   1.243   1.163   2.488 -2.1423  1.0573  0.8652
  509SOL    HW2 1527   1.395   1.156   2.384 -0.9497 -0.5675 -1.2214
  510SOL     OW 1528   1.298   1.982   2.044  0.0504 -0.7787 -0.4226
  510SOL    HW1 1529   1.232   2.069   2.048 -1.6448  1.1488  5.2955
  510SOL    HW2 1530   1.271   1.918   2.121  2.2299 -0.4521 -3.0144
  511SOL     OW 1531   3.063   2.642   1.290  0.3294  0.0425 -0.3894
  511SOL    HW1 1532   3.011   2.633   1.202  1.2555 -0.9918 -0.2933
  511SOL    HW2 1533   3.002   2.629   1.376  0.1291 -0.1357  3.0547
  512SOL     OW 1534   2.408   0.422   1.390  0.0613  0.0455  0.0629
  512SOL    HW1 1535   2.307   0.392   1.394  0.8839 -4.7624 -1.3187
  512SOL    HW2 1536   2.457   0.373   1.318  1.2363  0.3982  0.7919
  513SOL     OW 1537   2.468   2.003   0.834 -0.1244 -0.5827  0.4670
  513SOL    HW1 1538   2.430   2.084   0.784 -1.4208 -2.4346  0.8266
  513SOL    HW2 1539   2.538   1.944   0.780  0.9937  0.9062  0.5961
  514SOL     OW 1540   0.656   2.793   0.406  0.5964 -0.2839 -0.3856
  514SOL    HW1 1541   0.626   2.843   0.320  0.2014 -1.4513 -2.4191
  514SOL    HW2 1542   0.654   2.859   0.485  0.4622 -0.0462 -0.0890
  515SOL     OW 1543   2.021   1.172   2.309 -0.4704  0.2353  0.0237
  515SOL    HW1 1544   1.993   1.220   2.222  2.3100  0.2211 -1.8066
  515SOL    HW2 1545   1.957   1.182   2.395  3.2409  1.4194  5.2994
  516SOL     OW 1546   0.273   0.251   1.963 -0.6238 -0.1226  0.1472
  516SOL    HW1 1547   0.361   0.263   1.910  1.8249  0.0028 -0.3988
  516SOL    HW2 1548   0.204   0.193   1.911  0.2281  2.1889 -0.4603
  517SOL     OW 1549   0.373   3.048   1.211  0.3388  0.4442 -0.5691
  517SOL    HW1 1550   0.398   3.146   1.232  1.8780  0.1585 -1.2496
  517SOL    HW2 1551   0.281   3.031   1.261  0.7026 -2.7016 -1.0970
  518SOL     OW 1552   2.144   3.094   1.763  0.5771  0.6019 -0.0378
  518SOL    HW1 1553   2.220   3.168   1.781  0.5312  0.8740 -0.8909
  518SOL    HW2 1554   2.183   3.013   1.710  0.6644 -0.6207  1.4163
  519SOL     OW 1555   2.404   2.218   2.591 -0.0358  0.0269  0.5411
  519SOL    HW1 1556   2.318   2.222   2.651 -2.0171 -2.0324 -2.3936
  519SOL    HW2 1557   2.450   2.312   2.586  0.1791 -0.7251 -1.3768
  520SOL     OW 1558   1.754   2.853   1.858  0.3666 -0.4970 -0.3592
  520SOL    HW1 1559   1.676   2.817   1.915  0.7458  1.1525  0.7511
  520SOL    HW2 1560   1.814   2.781   1.822 -1.3624 -0.3002  0.4668
  521SOL     OW 1561   0.559   0.054   2.092 -0.4133  0.6861  0.3565
  521SOL    HW1 1562   0.469   0.024   2.132 -2.4555  0.2668  0.7832
  521SOL    HW2 1563   0.622   0.082   2.169  1.8628  2.0394  0.5230
  522SOL     OW 1564   0.177   1.905   1.486 -0.5106  0.1536  0.6266
  522SOL    HW1 1565   0.227   1.955   1.566  2.3624  0.1076  1.6125
  522SOL    HW2 1566   0.134   1.975   1.418  1.4785 -0.2056 -1.3649
  523SOL     OW 1567   2.239   2.897   1.597 -0.2981  0.1449  0.6043
  523SOL    HW1 1568   2.303   2.844   1.537 -0.9584  2.2821  2.7655
  523SOL    HW2 1569   2.142   2.906   1.561 -1.1705  0.5253  0.3713
  524SOL     OW 1570   0.189   2.763   2.795 -0.0012  0.1281  0.2475
  524SOL    HW1 1571   0.122   2.832   2.829 -1.9764  1.7626 -0.9164
  524SOL    HW2 1572   0.288   2.782   2.825  2.6480 -2.0873 -0.0455
  525SOL     OW 1573   2.147   1.943   0.472  0.5321 -0.6023  0.6556
  525SOL    HW1 1574   2.174   1.878   0.551  0.9295  2.0013  1.9970
  525SOL    HW2 1575   2.157   1.899   0.376 -0.5813 -1.4206 -2.7188
  526SOL     OW 1576   0.431   1.520   1.597 -0.3423 -0.3434 -0.3497
  526SOL    HW1 1577   0.425   1.489   1.697  1.1985  1.4969  2.1148
  526SOL    HW2 1578   0.472   1.443   1.541  0.7030 -0.6462 -0.5472
  527SOL     OW 1579   1.087   2.922   1.261  0.4533  0.0078 -0.7767
  527SOL    HW1 1580   1.185   2.897   1.280  0.2082 -0.1709  3.2040
  527SOL    HW2 1581   1.082   3.029   1.249  1.3749  1.5878  0.0398
  528SOL     OW 1582   1.354   2.409   0.487  0.1285  0.0622  0.0254
  528SOL    HW1 1583   1.394   2.315   0.483 -2.2212  0.6873  0.1084
  528SOL    HW2 1584   1.407   2.472   0.551  2.7463 -0.6212 -0.7931
  529SOL     OW 1585   1.888   1.708   0.818 -0.0905  0.3948  0.6689
  529SOL    HW1 1586   1.828   1.730   0.738  2.6978  0.5675  2.3436
  529SOL    HW2 1587   1.899   1.789   0.885 -1.7436  1.0564  1.5702
  530SOL     OW 1588   0.283   2.456   0.340  0.2585 -0.8082 -0.3000
  530SOL    HW1 1589   0.273   2.555   0.381 -1.7728  0.3706  1.2482
  530SOL    HW2 1590   0.355   2.398   0.379 -0.2997  0.3615 -0.8495
  531SOL     OW 1591   1.817   0.984   1.001 -0.4014 -0.9288  0.5615
  531SOL    HW1 1592   1.864   0.956   0.909  1.4149 -2.5423 -0.8651
  531SOL    HW2 1593   1.712   0.984   0.991  1.3259 -4.7930 -2.7071
  532SOL     OW 1594   0.490   1.061   0.777 -0.3402 -0.0232 -0.5417
  532SOL    HW1 1595   0.505   1.047   0.678 -0.3790 -2.5639  0.6565
  532SOL    HW2 1596   0.409   1.002   0.811 -2.3275  0.2124 -1.9124
  533SOL     OW 1597   1.760   0.039   2.575 -0.2395  0.2306 -0.0087
  533SOL    HW1 1598   1.861   0.012   2.586 -0.6166 -2.0336  0.5406
  533SOL    HW2 1599   1.725   0.088   2.663 -0.8823  2.1410  0.7589
  534SOL     OW 1600   0.374   0.219   1.568  0.5213 -0.3757 -0.2594
  534SOL    HW1 1601   0.476   0.215   1.588 -2.2002  0.0563  1.5260
  534SOL    HW2 1602   0.341   0.316   1.558  0.0729 -2.8873 -0.8554
  535SOL     OW 1603   1.957   0.360   0.160  0.0673 -0.0612  0.2828
  535SOL    HW1 1604   1.959   0.457   0.189  0.3007  1.2315 -2.0755
  535SOL    HW2 1605   1.945   0.294   0.234 -0.7585  1.4699  0.2222
  536SOL     OW 1606   1.418   2.652   0.960  0.0167 -0.4305 -0.3223
  536SOL    HW1 1607   1.379   2.619   1.060 -2.1107 -2.0282  0.8223
  536SOL    HW2 1608   1.332   2.675   0.902 -0.7775  0.8959 -1.4045
  537SOL     OW 1609   0.809   0.280   2.422  0.3802  0.0900  0.5266
  537SOL    HW1 1610   0.824   0.348   2.344  0.3338  2.3346 -1.3630
  537SOL    HW2 1611   0.776   0.185   2.390  1.2397 -0.6605 -2.7657
  538SOL     OW 1612   1.661   2.296   1.385 -0.0491 -0.0369 -0.7849
  538SOL    HW1 1613   1.670   2.191   1.403 -0.1397 -0.3441 -2.2205
  538SOL    HW2 1614   1.754   2.344   1.374 -1.0739  1.7903  0.1730
  539SOL     OW 1615   0.190   1.637   2.693 -0.1713  0.1216  0.2696
  539SOL    HW1 1616   0.094   1.625   2.655  0.9781  1.2491  0.1161
  539SOL    HW2 1617   0.198   1.729   2.742  0.2723 -0.9614 -1.2369
  540SOL     OW 1618   2.653   1.743   1.929 -0.1477 -0.0562  0.1651
  540SOL    HW1 1619   2.608   1.649   1.955 -0.4796 -1.5677  1.0312
  540SOL    HW2 1620   2.593   1.831   1.941 -0.4602  0.2872  1.7202
  541SOL     OW 1621   0.578   2.171   0.021  0.2614 -0.2813  0.3637
  541SOL    HW1 1622   0.586   2.160   0.121 -0.6973  0.1944 -1.0799
  541SOL    HW2 1623   0.480   2.168  -0.012  0.8366  1.4220  0.0043
  542SOL     OW 1624   2.207   2.595   0.449  0.4731 -0.0996  0.7945
  542SOL    HW1 1625   2.166   2.690   0.458  3.5407  3.0356  0.5270
  542SOL    HW2 1626   2.140   2.518   0.462 -0.9532  1.3051  1.6708
  543SOL     OW 1627   1.091   1.792   1.570 -1.0156  0.2456  0.3288
  543SOL    HW1 1628   1.087   1.832   1.671 -0.4017 -0.3459  1.7116
  543SOL    HW2 1629   1.056   1.855   1.499  2.9126  0.8084  1.3279
  544SOL     OW 1630   1.102   0.495   0.165  0.1407  0.3204  0.2882
  544SOL    HW1 1631   1.097   0.416   0.230 -2.0371  0.8359  0.3706
  544SOL    HW2 1632   1.121   0.454   0.071  2.1731  0.4324 -2.1940
  545SOL     OW 1633   1.102   1.769   0.781  0.0942  0.0719  0.2602
  545SOL    HW1 1634   1.186   1.773   0.718 -1.1251  2.4968  0.1591
  545SOL    HW2 1635   1.088   1.672   0.819 -2.2425  1.0757 -1.4001
  546SOL     OW 1636   2.686   1.558   3.018  0.4495 -0.0398  0.2595
  546SOL    HW1 1637   2.675   1.662   3.031 -1.3457 -0.3740 -0.6251
  546SOL    HW2 1638   2.587   1.511   3.013  1.7711 -2.8026  3.6786
  547SOL     OW 1639   0.628   3.011   2.561  0.4512  0.2016 -0.4849
  547SOL    HW1 1640   0.671   3.016   2.651 -1.2138 -2.8117 -1.2593
  547SOL    HW2 1641   0.579   2.917   2.551  1.3578 -2.3861 -0.6374
  548SOL     OW 1642   2.059   0.842   3.020 -0.2085 -0.0787  0.8059
  548SOL    HW1 1643   1.962   0.806   3.023  0.4226 -1.3238 -1.9145
  548SOL    HW2 1644   2.068   0.936   3.055 -0.6804 -0.5470 -0.9179
  549SOL     OW 1645   0.647   0.592   0.227  0.0257 -0.4443  0.3121
  549SOL    HW1 1646   0.602   0.624   0.134  1.6225 -0.1967  2.2222
  549SOL    HW2 1647   0.745   0.632   0.228 -0.2847  1.1732 -0.7783
  550SOL     OW 1648   2.572   2.806   2.896 -0.6328 -0.2551 -0.0922
  550SOL    HW1 1649   2.518   2.746   2.962  0.0960  0.1939  1.9844
  550SOL    HW2 1650   2.615   2.747   2.819  0.1963  0.7409 -0.0169
  551SOL     OW 1651   0.244   0.930   0.260 -0.4279 -0.1886 -0.1083
  551SOL    HW1 1652   0.341   0.906   0.230  1.3707 -0.5108 -0.9818
  551SOL    HW2 1653   0.203   0.881   0.343 -3.2461 -0.0765 -1.5439
  552SOL     OW 1654   0.664   2.975   1.870 -0.1515 -0.8013  0.4438
  552SOL    HW1 1655   0.640   3.036   1.954  0.3932 -2.1823  0.3061
  552SOL    HW2 1656   0.762   2.992   1.828  1.4762 -0.8800 -0.2324
  553SOL     OW 1657   2.894   2.414   0.346  0.3148 -0.3870 -0.4632
  553SOL    HW1 1658   2.883   2.316   0.380  1.1870  1.1039 -0.3137
  553SOL    HW2 1659   2.805   2.477   0.352 -2.7682  0.9452  0.4219
  554SOL     OW 1660   2.124   0.351   0.469 -0.3003  0.2717 -0.4694
  554SOL    HW1 1661   2.204   0.381   0.409 -1.3902 -0.4830  1.7276
  554SOL    HW2 1662   2.156   0.275   0.533  0.8928 -0.8184 -1.3720
  555SOL     OW 1663   0.399   2.815   2.517  0.1958  0.8077  0.2474
  555SOL    HW1 1664   0.331   2.879   2.478  2.1591 -0.2908 -1.1887
  555SOL    HW2 1665   0.453   2.764   2.440 -0.1727 -0.0734 -3.7669
  556SOL     OW 1666   0.871   2.372   1.586 -0.3621 -0.1042  0.1869
  556SOL    HW1 1667   0.893   2.444   1.653  1.6174  0.4640 -1.8895
  556SOL    HW2 1668   0.930   2.382   1.499 -1.2746  0.8992 -1.2822
  557SOL     OW 1669   0.137   2.044   0.204  0.2254  0.1729 -0.1258
  557SOL    HW1 1670   0.100   1.989   0.122 -0.9018  0.5875 -0.9369
  557SOL    HW2 1671   0.225   2.099   0.176  0.9446 -0.3733  0.0872
  558SOL     OW 1672   2.758   2.202   0.437 -0.4193 -0.3472 -0.2655
  558SOL    HW1 1673   2.656   2.230   0.443 -2.3559  4.0922  1.1107
  558SOL    HW2 1674   2.763   2.116   0.379 -0.3171 -1.5767  0.1195
  559SOL     OW 1675   0.437   2.319   1.371  0.2141  0.3601  0.2860
  559SOL    HW1 1676   0.336   2.320   1.341 -1.8693 -0.3074  0.1394
  559SOL    HW2 1677   0.491   2.243   1.328  0.9264 -0.1869 -0.3875
  560SOL     OW 1678   2.105   1.100   3.075  0.5826 -0.3295 -0.1433
  560SOL    HW1 1679   2.148   1.141   3.160 -2.0475 -1.6794  1.3348
  560SOL    HW2 1680   2.165   1.093   2.992 -3.0058 -0.8827  1.8363
  561SOL     OW 1681   0.021   1.882   3.094  0.1624  0.3387  0.4669
  561SOL    HW1 1682  -0.012   1.816   3.165 -1.1856  0.2629  1.4644
  561SOL    HW2 1683  -0.047   1.962   3.102 -0.1114  1.8488  2.3281
  562SOL     OW 1684   1.066   2.174   2.343  0.5091  0.2580 -0.4541
  562SOL    HW1 1685   1.048   2.276   2.339 -1.0262 -1.1177  0.9628
  562SOL    HW2 1686   0.992   2.127   2.407  1.1480  3.0813 -1.2425
  563SOL     OW 1687   0.699   2.521   2.620  0.0955 -0.0248 -0.0526
  563SOL    HW1 1688   0.789   2.470   2.611 -0.3959 -1.7782 -1.8375
  563SOL    HW2 1689   0.702   2.583   2.704 -0.7071 -0.5705  1.3441
  564SOL     OW 1690   2.908   1.421   2.924  0.7820 -0.5688 -0.9309
  564SOL    HW1 1691   2.821   1.449   2.977  0.4023 -1.2685  1.2000
  564SOL    HW2 1692   2.945   1.505   2.881 -2.5152 -0.8243  1.5857
  565SOL     OW 1693   2.491   1.948   2.649 -0.0182 -0.1003  0.0037
  565SOL    HW1 1694   2.441   2.038   2.647  1.6132 -1.9709 -0.8398
  565SOL    HW2 1695   2.595   1.954   2.665 -0.6817  0.6591 -0.7941
  566SOL     OW 1696   1.994   2.887   1.468 -0.4488  0.0353 -0.0145
  566SOL    HW1 1697   1.947   2.798   1.501  1.2787  0.1272  1.5507
  566SOL    HW2 1698   1.975   2.907   1.368 -1.2320  2.0117 -0.8682
  567SOL     OW 1699   2.443   0.004   2.325  0.0805 -0.0273  0.3241
  567SOL    HW1 1700   2.343   0.035   2.336 -0.0748  0.7269 -0.2983
  567SOL    HW2 1701   2.479   0.015   2.231 -2.0396  0.5543  0.2953
  568SOL     OW 1702   1.543   1.788   0.301 -0.0841 -0.4138  0.5850
  568SOL    HW1 1703   1.500   1.866   0.250  0.0903 -0.8751 -0.1420
  568SOL    HW2 1704   1.646   1.797   0.308  0.3772 -2.1442 -0.3968
  569SOL     OW 1705   0.245   0.639   0.831  0.3148  0.8126  1.1634
  569SOL    HW1 1706   0.318   0.590   0.775 -1.3582  0.6613  0.9505
  569SOL    HW2 1707   0.147   0.611   0.815 -2.0518 -1.7743 -0.5312
  570SOL     OW 1708   0.630   0.865   2.873 -0.2384 -0.3372  0.4936
  570SOL    HW1 1709   0.686   0.865   2.788 -4.2695 -1.4079  0.0850
  570SOL    HW2 1710   0.633   0.959   2.923 -1.3587  1.5122 -0.8783
  571SOL     OW 1711   0.831   0.008   1.116 -0.0398 -0.2526 -0.3198
  571SOL    HW1 1712   0.872   0.011   1.022 -3.0793 -0.0840  0.4896
  571SOL    HW2 1713   0.841  -0.088   1.151  1.7006  2.6743 -1.8491
  572SOL     OW 1714   1.611   2.689   1.375  0.4271  1.1603  0.1159
  572SOL    HW1 1715   1.623   2.609   1.309  2.4610 -1.2725 -1.3871
  572SOL    HW2 1716   1.623   2.776   1.323  1.3978 -0.4366 -0.7579
  573SOL     OW 1717   3.051   0.487   2.030  1.1957  0.2128 -0.3012
  573SOL    HW1 1718   3.029   0.387   2.066  2.5056 -1.4079  0.6754
  573SOL    HW2 1719   3.092   0.486   1.934 -1.1940  1.1081  0.2006
  574SOL     OW 1720   0.170   1.760   1.135 -0.3617  0.0341  0.1072
  574SOL    HW1 1721   0.200   1.775   1.231 -1.5247 -2.2578 -0.4598
  574SOL    HW2 1722   0.075   1.795   1.114  1.3907  1.1015 -0.6949
  575SOL     OW 1723   0.873   2.185   0.949  0.6534 -0.0850 -0.3539
  575SOL    HW1 1724   0.822   2.234   1.022  1.3699 -0.5774 -1.8850
  575SOL    HW2 1725   0.918   2.260   0.883  0.9142  0.3069  0.5860
  576SOL     OW 1726   2.900   3.024   1.695  0.3749  0.4785  0.1971
  576SOL    HW1 1727   2.808   3.007   1.650  1.2717  0.9152 -1.2063
  576SOL    HW2 1728   2.934   3.117   1.667 -3.5705 -1.9599  1.5128
  577SOL     OW 1729   2.669   1.242   0.025  0.0248  0.6140  0.1154
  577SOL    HW1 1730   2.682   1.154  -0.031 -2.1027 -0.5006  2.9135
  577SOL    HW2 1731   2.685   1.216   0.126  0.3970 -1.7764  0.0416
  578SOL     OW 1732   1.406   2.796   2.513 -0.2157  0.1400  0.2787
  578SOL    HW1 1733   1.317   2.839   2.480  0.1428 -1.1465  1.9214
  578SOL    HW2 1734   1.490   2.856   2.493  0.3000  0.9514 -2.0392
  579SOL     OW 1735   0.030   2.455   0.202  0.9215 -0.1141  0.1652
  579SOL    HW1 1736  -0.056   2.431   0.260  0.3984 -1.4778 -1.6835
  579SOL    HW2 1737   0.117   2.443   0.255  0.5042 -4.3684 -0.5682
  580SOL     OW 1738   0.976   2.646   0.398  0.1164 -0.5439  0.3665
  580SOL    HW1 1739   1.072   2.665   0.362  1.1885 -2.5420 -0.2965
  580SOL    HW2 1740   0.898   2.664   0.329 -3.3867 -0.4782 -2.1499
  581SOL     OW 1741   1.294   2.684   1.455  0.4544  0.4764 -0.1483
  581SOL    HW1 1742   1.360   2.602   1.460 -0.3526 -0.7230 -1.5728
  581SOL    HW2 1743   1.346   2.769   1.435 -1.4264  1.5943  2.4450
  582SOL     OW 1744   1.482   0.099   1.919 -0.2727 -0.0120  0.6537
  582SOL    HW1 1745   1.473   0.169   1.996 -1.3953 -0.4088 -1.4029
  582SOL    HW2 1746   1.570   0.116   1.870 -0.7731 -1.8199 -0.4944
  583SOL     OW 1747   2.440   3.094   0.532  0.6817  0.0691  0.0049
  583SOL    HW1 1748   2.518   3.035   0.499  0.2674 -0.2492 -0.4799
  583SOL    HW2 1749   2.350   3.040   0.548 -0.4935  2.1296  0.8130
  584SOL     OW 1750   1.550   1.124   2.311 -0.2820  0.1128  0.9747
  584SOL    HW1 1751   1.551   1.199   2.240 -0.6676 -0.4597 -0.5419
  584SOL    HW2 1752   1.634   1.090   2.359 -2.8304 -0.6508  0.1805
  585SOL     OW 1753   2.068   2.679   2.898 -0.3024 -0.4616 -0.2424
  585SOL    HW1 1754   2.095   2.587   2.862 -0.4644  1.8972  0.8181
  585SOL    HW2 1755   1.964   2.686   2.891 -1.6703 -0.3836 -0.2483
  586SOL     OW 1756   2.894   0.400   1.523  0.1618  0.1385 -0.3933
  586SOL    HW1 1757   2.882   0.468   1.599 -2.1679  1.0573  1.6421
  586SOL    HW2 1758   2.816   0.392   1.458  0.7980  2.1100  2.9321
  587SOL     OW 1759   2.095   1.458   2.687  0.3067 -0.0367  0.5844
  587SOL    HW1 1760   2.126   1.375   2.634  2.5589 -0.5307  1.6126
  587SOL    HW2 1761   2.158   1.479   2.769  1.9736  2.4399  0.3701
  588SOL     OW 1762   0.536   2.692   2.321  0.3111  0.3629  0.1811
  588SOL    HW1 1763   0.493   2.678   2.224 -0.7620 -0.0722 -3.0526
  588SOL    HW2 1764   0.542   2.598   2.368 -1.6044  3.0471 -1.0908
  589SOL     OW 1765   2.187   1.288   2.497 -0.3393 -0.0496 -0.1486
  589SOL    HW1 1766   2.131   1.262   2.415  0.9952  2.9016  2.4349
  589SOL    HW2 1767   2.288   1.270   2.489 -0.0726 -0.9239  0.1466
  590SOL     OW 1768   2.371   1.762   2.067 -0.0313 -0.5311 -0.0196
  590SOL    HW1 1769   2.444   1.689   2.059  2.1872 -2.0900 -0.9129
  590SOL    HW2 1770   2.347   1.810   2.156  0.1907  1.4583 -0.9981
  591SOL     OW 1771   1.223   2.387   0.229 -0.1382 -0.3600  0.0199
  591SOL    HW1 1772   1.268   2.325   0.161 -1.2110  0.5714  0.0182
  591SOL    HW2 1773   1.277   2.388   0.324  2.8566 -3.2825  3.1055
  592SOL     OW 1774   1.779   2.336   0.788  0.1603  0.2074  0.0850
  592SOL    HW1 1775   1.777   2.377   0.687 -2.2188 -0.0900 -3.1352
  592SOL    HW2 1776   1.863   2.281   0.807 -1.0615  0.4971 -1.8245
  593SOL     OW 1777   0.735   0.296   0.218  0.1362  0.8525  0.2704
  593SOL    HW1 1778   0.772   0.277   0.121 -1.1720 -0.6173  0.0800
  593SOL    HW2 1779   0.712   0.394   0.245  1.6410  0.2883 -0.2971
  594SOL     OW 1780   1.047   1.848   2.701 -0.1523  0.6685 -0.5048
  594SOL    HW1 1781   1.129   1.809   2.651 -0.3729  1.8673  1.7982
  594SOL    HW2 1782   1.069   1.877   2.793  2.5209 -1.5583 -2.2363
  595SOL     OW 1783   1.534   0.056   1.002 -0.5677  0.1915  0.1978
  595SOL    HW1 1784   1.618   0.002   0.965 -0.2908  1.0100  3.6224
  595SOL    HW2 1785   1.448   0.027   0.952  0.2418  0.6332  0.8847
  596SOL     OW 1786   0.060   1.492   2.287  0.2413 -0.8592 -0.0106
  596SOL    HW1 1787   0.132   1.428   2.313 -2.0808  1.2966 -0.3412
  596SOL    HW2 1788   0.046   1.571   2.353  0.2541 -1.4633  0.3532
  597SOL     OW 1789   1.981   2.671   1.843 -0.6935  0.6561  0.2089
  597SOL    HW1 1790   1.947   2.644   1.746 -1.5191 -1.0274 -0.9537
  597SOL    HW2 1791   2.090   2.664   1.852  1.6354 -1.7542  0.9195
  598SOL     OW 1792   2.528   2.885   1.218 -0.3004 -0.0089 -0.2079
  598SOL    HW1 1793   2.585   2.901   1.298 -2.1440  0.1663 -0.5456
  598SOL    HW2 1794   2.581   2.900   1.131  0.5944 -2.2879  2.3129
  599SOL     OW 1795   2.816   0.261   2.500 -0.4817 -0.1827  0.1856
  599SOL    HW1 1796   2.898   0.242   2.438 -0.0682  0.1329 -2.4540
  599SOL    HW2 1797   2.745   0.336   2.468 -0.7329  2.8225 -0.2923
  600SOL     OW 1798   2.812   1.210   2.759 -0.3714  0.1918 -0.3868
  600SOL    HW1 1799   2.728   1.169   2.806  1.2345 -0.5106  0.6809
  600SOL    HW2 1800   2.851   1.284   2.823  2.9003 -1.6311  3.2460
  601SOL     OW 1801   3.060   1.351   2.008 -0.3998 -0.2159  0.0833
  601SOL    HW1 1802   2.986   1.379   1.934 -2.3201 -0.2196 -0.9090
  601SOL    HW2 1803   3.127   1.424   2.035 -2.2783 -2.0920  2.0006
  602SOL     OW 1804   1.482   1.586   2.277  0.0519 -0.3802 -0.3905
  602SOL    HW1 1805   1.400   1.559   2.330  0.8129  0.5275 -0.8868
  602SOL    HW2 1806   1.563   1.582   2.340 -0.1033  0.8623  1.5802
  603SOL     OW 1807   0.674   1.136   2.717 -0.1172  0.4634 -0.3549
  603SOL    HW1 1808   0.575   1.106   2.709  0.6229  1.3069 -1.4471
  603SOL    HW2 1809   0.734   1.066   2.670  0.9348  1.4850  2.1218
  604SOL     OW 1810   2.465   0.973   0.167  0.0490  0.0369  0.4693
  604SOL    HW1 1811   2.526   1.048   0.134  1.6428 -1.5674  1.5574
  604SOL    HW2 1812   2.475   0.887   0.107 -0.0531 -0.1916 -0.0288
  605SOL     OW 1813   2.506   1.146   1.955 -0.1546 -0.8379 -0.4183
  605SOL    HW1 1814   2.539   1.086   1.879  0.2577  0.9508  0.5846
  605SOL    HW2 1815   2.580   1.215   1.981 -0.0749 -1.3147 -1.0818
  606SOL     OW 1816   1.497   2.545   2.540  0.5580 -0.4980 -0.3739
  606SOL    HW1 1817   1.449   2.630   2.510  0.8520 -1.8008 -1.0634
  606SOL    HW2 1818   1.437   2.459   2.521  1.9399 -0.9761 -1.2904
  607SOL     OW 1819   1.314   1.603   0.269 -0.0315 -0.1616 -0.6407
  607SOL    HW1 1820   1.224   1.659   0.291 -2.3014  1.5699  2.4385
  607SOL    HW2 1821   1.399   1.662   0.276 -0.2835  0.6674 -0.1894
  608SOL     OW 1822   1.437   2.848   0.401  0.6561 -0.2821  0.1373
  608SOL    HW1 1823   1.479   2.866   0.307  0.5668 -1.3094  1.6033
  608SOL    HW2 1824   1.365   2.917   0.434  1.0081  0.4512  1.7727
  609SOL     OW 1825   1.351   1.362   0.173  0.4075 -0.3054 -0.3847
  609SOL    HW1 1826   1.338   1.458   0.204 -2.4005  2.7280 -0.3634
  609SOL    HW2 1827   1.309   1.343   0.076  1.1294 -2.1351 -1.0704
  610SOL     OW 1828   3.012   1.198   2.272  0.5863  0.3688 -0.0189
  610SOL    HW1 1829   3.004   1.099   2.234 -1.0928 -0.1809 -0.6042
  610SOL    HW2 1830   3.025   1.271   2.198 -1.8541  2.6206 -1.5615
  611SOL     OW 1831   2.495   0.258   1.187 -0.3846 -0.3297  0.1305
  611SOL    HW1 1832   2.453   0.165   1.192  2.9861  0.7244 -1.3204
  611SOL    HW2 1833   2.586   0.255   1.239  1.2042 -0.0842 -3.1248
  612SOL     OW 1834   0.762   2.297   1.167  0.2885  0.0939  0.0674
  612SOL    HW1 1835   0.706   2.232   1.227  0.2628  2.0815 -0.9392
  612SOL    HW2 1836   0.711   2.386   1.155  1.7074  2.7728 -0.2390
  613SOL     OW 1837   0.842   1.386   2.394 -0.3903 -0.1064  0.7057
  613SOL    HW1 1838   0.857   1.454   2.316  0.2433  2.4864  0.3394
  613SOL    HW2 1839   0.812   1.296   2.349  1.3990 -2.8728 -0.4443
  614SOL     OW 1840   1.564   1.685   1.810  0.5183  0.5017 -0.0743
  614SOL    HW1 1841   1.544   1.787   1.804 -0.3455 -0.2120  0.8465
  614SOL    HW2 1842   1.663   1.676   1.831  0.6703 -1.9875 -0.9284
  615SOL     OW 1843   0.757   1.386   1.730  0.3052  0.5203 -0.1498
  615SOL    HW1 1844   0.727   1.332   1.649 -3.3525 -1.3666 -0.6003
  615SOL    HW2 1845   0.805   1.477   1.704 -1.0875 -0.7115 -0.8074
  616SOL     OW 1846   1.126   1.532   2.138 -0.1313 -0.0110 -0.1815
  616SOL    HW1 1847   1.025   1.550   2.160 -0.4613  0.2939 -1.2431
  616SOL    HW2 1848   1.169   1.595   2.069  1.8971  0.9121  2.9423
  617SOL     OW 1849   3.004   1.528   1.651  0.0369  0.7423  0.5620
  617SOL    HW1 1850   3.021   1.457   1.722  1.3169  2.9011  1.1493
  617SOL    HW2 1851   3.008   1.497   1.550  2.1337 -1.0776 -0.5506
  618SOL     OW 1852   1.935   1.945   1.434  0.2882  0.1664  0.1154
  618SOL    HW1 1853   2.029   1.963   1.392 -1.3578  1.5007 -0.8191
  618SOL    HW2 1854   1.924   1.845   1.465  0.5997  1.6486 -2.0994
  619SOL     OW 1855   1.699   0.461   2.357  0.6993  0.5657 -0.0828
  619SOL    HW1 1856   1.623   0.505   2.301 -2.5466  0.0431 -3.4768
  619SOL    HW2 1857   1.695   0.359   2.351  1.1591  1.5097 -2.4655
  620SOL     OW 1858   2.212   2.942   0.581  0.2073 -0.0809  0.6509
  620SOL    HW1 1859   2.119   2.981   0.570  0.8443  0.1175  0.2014
  620SOL    HW2 1860   2.219   2.881   0.667 -0.1690 -0.1558 -0.7416
  621SOL     OW 1861   2.230   1.894   1.368  0.0640  0.1406  0.6632
  621SOL    HW1 1862   2.216   1.881   1.470  1.3583 -1.5031 -0.6259
  621SOL    HW2 1863   2.213   1.809   1.313  0.7824  0.1144 -2.4558
  622SOL     OW 1864   2.217   0.907   1.782  0.8262  0.2636  0.7326
  622SOL    HW1 1865   2.298   0.851   1.745  1.7731 -0.7150 -0.9276
  622SOL    HW2 1866   2.172   0.877   1.869 -2.1021  0.1638 -0.6416
  623SOL     OW 1867   1.335   0.794   2.569 -0.4898  0.4448 -0.2420
  623SOL    HW1 1868   1.269   0.756   2.639  1.4605  2.3607 -2.3805
  623SOL    HW2 1869   1.278   0.831   2.489  0.1784 -2.7611 -0.0188
  624SOL     OW 1870   0.514   0.719   0.003  0.0721 -0.6432  0.5681
  624SOL    HW1 1871   0.543   0.752  -0.098 -0.7686  1.8785 -5.3561
  624SOL    HW2 1872   0.508   0.795   0.076  1.5125  0.5692  2.0660
  625SOL     OW 1873   2.754   1.690   0.890 -0.3855 -0.3242  0.0445
  625SOL    HW1 1874   2.694   1.725   0.970 -0.9654 -1.2011 -0.0249
  625SOL    HW2 1875   2.768   1.588   0.886 -1.6852  0.6805 -1.9938
  626SOL     OW 1876   0.507   2.760   1.914 -0.0851  0.3258  0.8289
  626SOL    HW1 1877   0.572   2.842   1.908 -0.2057  0.5784 -1.8157
  626SOL    HW2 1878   0.430   2.762   1.846  0.0476 -1.8185 -1.6828
  627SOL     OW 1879   0.741   1.039   1.514  0.3398  0.6754 -0.0863
  627SOL    HW1 1880   0.747   0.939   1.546 -1.7441  2.0587 -2.6771
  627SOL    HW2 1881   0.821   1.080   1.464  1.4730  0.1026  0.6334
  628SOL     OW 1882   2.430   0.185   0.708 -0.3090 -0.3454  0.2321
  628SOL    HW1 1883   2.432   0.110   0.633 -1.8941 -1.8047 -3.2325
  628SOL    HW2 1884   2.332   0.182   0.744  0.9037 -1.5097 -0.1105
  629SOL     OW 1885   1.972   0.938   1.977  0.0127  0.1931 -0.0071
  629SOL    HW1 1886   2.058   0.932   2.035 -1.6483 -1.1687 -1.8566
  629SOL    HW2 1887   1.925   1.034   1.967 -1.1718  1.9049  2.7774
  630SOL     OW 1888   2.737   2.181   0.770  0.9202 -0.0026 -0.0790
  630SOL    HW1 1889   2.671   2.247   0.816 -4.0384  1.5223 -0.0263
  630SOL    HW2 1890   2.697   2.091   0.757 -0.2154  1.8765 -0.1238
  631SOL     OW 1891   3.003   0.219   2.098  0.1207 -0.2858 -0.0243
  631SOL    HW1 1892   3.051   0.230   2.193  1.5669 -1.3590  0.2130
  631SOL    HW2 1893   3.068   0.183   2.025 -0.3807  2.4694  0.9129
  632SOL     OW 1894   2.313   2.510   0.673 -0.4781  0.6601  0.9899
  632SOL    HW1 1895   2.378   2.570   0.725 -3.2443  2.1429 -1.4138
  632SOL    HW2 1896   2.267   2.546   0.584 -2.4252 -0.2548 -0.2043
  633SOL     OW 1897   1.603   1.277   2.580  0.1702  0.2032 -0.1802
  633SOL    HW1 1898   1.593   1.372   2.626  3.2502  0.2912 -0.5804
  633SOL    HW2 1899   1.525   1.251   2.516 -0.8681  1.0876  1.4641
  634SOL     OW 1900   0.634   2.032   1.002  0.0930  0.3426  0.4262
  634SOL    HW1 1901   0.587   2.093   1.071 -0.6982 -0.3805 -0.6431
  634SOL    HW2 1902   0.732   2.066   0.973  2.4041  1.6776 -1.5097
  635SOL     OW 1903   0.053   2.298   3.061  0.2201 -0.3615  0.7013
  635SOL    HW1 1904   0.024   2.370   2.993 -0.5193 -3.0974  0.0090
  635SOL    HW2 1905   0.048   2.325   3.162 -0.9926 -2.0499  1.0281
  636SOL     OW 1906   2.282   2.812   2.006 -0.5040  0.5713  0.9813
  636SOL    HW1 1907   2.287   2.913   2.007 -2.0866 -0.7472  1.9970
  636SOL    HW2 1908   2.219   2.777   2.084  2.1319  2.8648 -2.0086
  637SOL     OW 1909   2.542   0.713   2.050 -0.0951  0.5028  0.3146
  637SOL    HW1 1910   2.498   0.710   1.956  0.4064  2.9283 -1.1915
  637SOL    HW2 1911   2.622   0.780   2.047  0.2446  0.6365 -0.4350
  638SOL     OW 1912   2.517   1.865   1.327 -0.1309 -0.1514  0.5366
  638SOL    HW1 1913   2.422   1.889   1.324  1.4759 -0.1772 -1.3636
  638SOL    HW2 1914   2.542   1.781   1.385  0.2355 -1.1928  0.3533
  639SOL     OW 1915   1.311   2.232   1.617  0.0435  0.5459  0.1547
  639SOL    HW1 1916   1.322   2.167   1.537 -0.6471 -0.7790 -2.3377
  639SOL    HW2 1917   1.232   2.198   1.679 -1.7656 -0.5740  0.7344
  640SOL     OW 1918   0.171   1.201   1.559  0.5858  0.2596 -0.4877
  640SOL    HW1 1919   0.161   1.268   1.635 -1.3539 -3.5677  1.0093
  640SOL    HW2 1920   0.267   1.158   1.547 -1.1176 -0.2640 -0.9138
  641SOL     OW 1921   1.982   0.161   1.472 -0.5575  0.4689 -0.6598
  641SOL    HW1 1922   1.909   0.236   1.477  1.3287  2.0765 -3.2470
  641SOL    HW2 1923   2.026   0.146   1.567  1.0009  1.3313  2.9972
  642SOL     OW 1924   1.991   0.098   0.310  0.3993 -0.4784 -0.0706
  642SOL    HW1 1925   2.085   0.089   0.351  1.9537 -0.9287 -0.3550
  642SOL    HW2 1926   1.913   0.065   0.371 -1.6345 -0.8319  1.0792
  643SOL     OW 1927   2.863   1.867   2.087 -0.4094  0.2922  0.3742
  643SOL    HW1 1928   2.813   1.799   2.028 -1.9261 -0.2988  0.4247
  643SOL    HW2 1929   2.841   1.960   2.049 -1.0497 -0.9242 -1.4105
  644SOL     OW 1930   2.192   2.293   1.211  0.0504 -0.1802  0.4530
  644SOL    HW1 1931   2.281   2.258   1.164  1.8701 -3.2160  0.9668
  644SOL    HW2 1932   2.196   2.321   1.310  1.7436  0.4453  1.9739
  645SOL     OW 1933   0.592   0.808   1.161  0.1782  0.6924 -0.2451
  645SOL    HW1 1934   0.537   0.744   1.100 -0.1111 -0.0386  1.2452
  645SOL    HW2 1935   0.629   0.880   1.098  1.3682 -0.8150  0.8819
  646SOL     OW 1936   1.513   1.952   1.813 -0.1828  0.1529 -0.2725
  646SOL    HW1 1937   1.593   2.017   1.802  0.8277  1.0311 -0.6493
  646SOL    HW2 1938   1.448   1.980   1.891 -0.8898  1.5634  1.6838
  647SOL     OW 1939   0.860   0.931   0.662 -0.0406  0.1255 -0.3800
  647SOL    HW1 1940   0.938   0.902   0.725 -0.6864 -2.4322 -0.1716
  647SOL    HW2 1941   0.772   0.883   0.690 -0.2385 -4.1559  0.3975
  648SOL     OW 1942   0.195   0.176   0.319  0.4940  0.1780 -0.1396
  648SOL    HW1 1943   0.221   0.105   0.244  0.4570  0.1784  1.9129
  648SOL    HW2 1944   0.177   0.274   0.277 -0.6127  3.3541  0.9283
  649SOL     OW 1945  -0.001   0.119   0.932 -0.0020  0.0680  0.0928
  649SOL    HW1 1946   0.100   0.141   0.930 -0.4559 -0.8533 -1.6731
  649SOL    HW2 1947  -0.044   0.162   1.016 -1.1835 -2.0799  2.8324
  650SOL     OW 1948   2.719   0.720   1.412 -0.0107  0.3362  0.4429
  650SOL    HW1 1949   2.631   0.680   1.459  0.2032 -0.5812  2.0860
  650SOL    HW2 1950   2.704   0.804   1.351  3.0104 -1.4465  1.2918
  651SOL     OW 1951   0.909   1.598   1.613 -0.0465 -0.0668 -0.4911
  651SOL    HW1 1952   0.985   1.672   1.617  0.4240  1.3604  2.6893
  651SOL    HW2 1953   0.848   1.626   1.537 -1.5197 -1.5151 -0.5920
  652SOL     OW 1954   2.245   2.503   2.385  0.6277  0.0579 -0.5700
  652SOL    HW1 1955   2.218   2.524   2.479  2.0387  1.2841  2.0983
  652SOL    HW2 1956   2.205   2.569   2.314  0.9710  0.2965  1.3295
  653SOL     OW 1957   2.697   1.183   0.293 -0.0653 -0.4242 -0.2629
  653SOL    HW1 1958   2.762   1.271   0.295 -0.9990  1.7024  0.3055
  653SOL    HW2 1959   2.745   1.093   0.310  0.2710  1.4273  2.9879
  654SOL     OW 1960   1.284   2.278   1.230  0.0134 -0.4158 -0.2343
  654SOL    HW1 1961   1.307   2.189   1.283 -3.9993 -0.2726 -0.7446
  654SOL    HW2 1962   1.310   2.278   1.127 -0.0291  1.4685 -2.0876
  655SOL     OW 1963   0.209   1.031   1.852  0.1518  0.3722  0.1170
  655SOL    HW1 1964   0.236   0.939   1.802 -0.9570  0.1445  1.0161
  655SOL    HW2 1965   0.285   1.100   1.866 -1.4445  0.0937  0.7316
  656SOL     OW 1966   2.517   2.492   2.573 -0.2545 -0.1594 -0.7577
  656SOL    HW1 1967   2.609   2.485   2.534 -0.2260 -1.9513  0.5729
  656SOL    HW2 1968   2.448   2.508   2.496  1.2377  3.3253 -0.4828
  657SOL     OW 1969   3.043   1.092   1.863  0.7126 -0.0889 -0.0509
  657SOL    HW1 1970   3.038   1.166   1.931 -0.5985 -1.7820 -1.2476
  657SOL    HW2 1971   3.143   1.065   1.846  0.6905  2.0750 -3.0284
  658SOL     OW 1972   1.639   0.179   2.378  0.0096  0.0637 -0.3492
  658SOL    HW1 1973   1.680   0.140   2.466  2.0565  1.9703 -2.2179
  658SOL    HW2 1974   1.682   0.146   2.295  0.3780 -0.3941  2.9228
  659SOL     OW 1975   1.407   0.571   2.897  0.3239 -0.3798 -0.2137
  659SOL    HW1 1976   1.482   0.635   2.871  0.2964  0.3386  0.6290
  659SOL    HW2 1977   1.316   0.602   2.860 -1.0141 -2.2906  1.8591
  660SOL     OW 1978   1.433   0.369   1.405 -0.6654  0.1990  0.2835
  660SOL    HW1 1979   1.467   0.383   1.501 -0.0182  0.4491 -1.4321
  660SOL    HW2 1980   1.495   0.312   1.346 -0.2648  1.8802 -4.6883
  661SOL     OW 1981   2.483   1.177   0.673 -0.2383 -0.0334 -0.1398
  661SOL    HW1 1982   2.519   1.123   0.592 -0.9608 -1.4640  1.2649
  661SOL    HW2 1983   2.430   1.257   0.643  0.7507 -2.6250 -1.6647
  662SOL     OW 1984   1.320   0.425   1.839  0.0115  0.2783 -0.2282
  662SOL    HW1 1985   1.306   0.326   1.816 -0.5919  1.6699  1.0046
  662SOL    HW2 1986   1.254   0.454   1.912  1.8078 -2.6857 -0.4113
  663SOL     OW 1987   0.840   1.598   2.174 -0.2038 -0.1296 -0.6242
  663SOL    HW1 1988   0.797   1.681   2.223 -0.9816 -0.9830 -1.3059
  663SOL    HW2 1989   0.780   1.569   2.097 -0.2028 -0.4854  2.0290
  664SOL     OW 1990   1.677   2.021   1.379  0.4638 -0.2309  0.2923
  664SOL    HW1 1991   1.623   1.939   1.414 -1.0979  0.7303  1.0316
  664SOL    HW2 1992   1.779   2.001   1.382 -0.1627 -2.0792  0.0037
  665SOL     OW 1993   2.222   0.642   1.959  0.3822 -0.7298  0.2847
  665SOL    HW1 1994   2.200   0.546   1.998  0.2397 -2.3358  1.3473
  665SOL    HW2 1995   2.265   0.699   2.036 -0.6033  0.8523  1.1876
  666SOL     OW 1996   0.504   2.294   0.477 -0.3667 -0.1115  0.1490
  666SOL    HW1 1997   0.569   2.371   0.465 -0.8737 -0.6415 -2.5452
  666SOL    HW2 1998   0.464   2.299   0.577 -1.5831 -0.0100  2.1410
  667SOL     OW 1999   2.036   0.265   1.011  1.0361  1.0549 -0.1374
  667SOL    HW1 2000   2.058   0.354   1.054  0.3511 -0.0878 -1.1238
  667SOL    HW2 2001   1.966   0.215   1.074  1.6934  1.1870  0.1404
  668SOL     OW 2002   1.994   0.521   1.186 -0.0139 -0.8977  0.2768
  668SOL    HW1 2003   2.056   0.549   1.110 -0.6861 -0.6274 -1.0700
  668SOL    HW2 2004   2.043   0.517   1.280 -1.1285 -0.5055  0.6109
  669SOL     OW 2005   2.997   2.098   0.911  0.3240 -0.7895  0.1639
  669SOL    HW1 2006   2.954   2.118   0.821 -2.4033  2.0809 -0.4916
  669SOL    HW2 2007   2.956   2.145   0.992 -3.1883 -1.2152  0.2642
  670SOL     OW 2008   2.820   2.336   2.020 -0.2087 -0.5370 -0.2049
  670SOL    HW1 2009   2.760   2.326   2.109 -3.0161  2.8780  0.5862
  670SOL    HW2 2010   2.796   2.421   1.971  1.7991 -2.8408 -0.4660
  671SOL     OW 2011   1.747   1.658   1.455  0.3889 -0.8521  0.0170
  671SOL    HW1 2012   1.769   1.701   1.366 -1.9679  0.5433  0.3020
  671SOL    HW2 2013   1.647   1.624   1.449 -0.8233  1.0883 -2.8583
  672SOL     OW 2014   0.435   0.631   2.435 -0.2301  0.5389  0.0700
  672SOL    HW1 2015   0.466   0.642   2.331 -1.1925  0.9619 -0.2246
  672SOL    HW2 2016   0.345   0.674   2.453  0.9407  0.8888 -2.2037
  673SOL     OW 2017   0.176   1.206   1.157  0.4610  0.1043 -0.4904
  673SOL    HW1 2018   0.201   1.296   1.199  0.0803 -2.7315 -1.3388
  673SOL    HW2 2019   0.258   1.152   1.128  0.0316  0.4396  2.0705
  674SOL     OW 2020   1.526   2.879   0.143 -0.0952 -0.4143 -0.2149
  674SOL    HW1 2021   1.580   2.964   0.113  0.6478 -0.8114  0.0640
  674SOL    HW2 2022   1.583   2.801   0.121 -0.9519 -1.3623 -0.1922
  675SOL     OW 2023   1.695   0.824   2.335  0.4986 -0.5600  0.0622
  675SOL    HW1 2024   1.786   0.836   2.282  0.8018  0.0297 -2.2954
  675SOL    HW2 2025   1.621   0.776   2.270 -1.8151  1.7794 -2.9480
  676SOL     OW 2026   2.500   1.531   1.990 -0.1432 -0.4458  0.0821
  676SOL    HW1 2027   2.463   1.481   1.908 -0.2994 -2.3654 -3.0450
  676SOL    HW2 2028   2.550   1.466   2.054  0.0281  2.0305  1.4321
  677SOL     OW 2029   1.790   0.581   0.974 -0.2506 -0.7775  0.5580
  677SOL    HW1 2030   1.864   0.573   1.048  0.6588  0.0039  1.8671
  677SOL    HW2 2031   1.704   0.528   0.993 -1.8600 -2.0548 -0.5485
  678SOL     OW 2032   0.067   0.746   1.660  0.2178  0.5979  0.4342
  678SOL    HW1 2033   0.167   0.753   1.693  2.0570  0.3056  1.0772
  678SOL    HW2 2034   0.005   0.791   1.726 -0.1879  2.0585 -0.1611
  679SOL     OW 2035   2.515   1.193   1.053  0.2662  0.3890 -0.3025
  679SOL    HW1 2036   2.461   1.225   1.135  2.3307  1.1443  2.7203
  679SOL    HW2 2037   2.506   1.093   1.039  2.1485 -0.4023  2.5243
  680SOL     OW 2038   2.842   0.634   1.668  0.1424 -0.3352 -0.0318
  680SOL    HW1 2039   2.822   0.665   1.570  0.2969 -0.2617 -0.0275
  680SOL    HW2 2040   2.883   0.715   1.724 -0.9568  2.1117 -0.6127
  681SOL     OW 2041   3.018   0.163   1.608  0.2847  0.0128  0.3102
  681SOL    HW1 2042   3.090   0.151   1.535 -1.1493 -0.1239  0.1446
  681SOL    HW2 2043   2.956   0.246   1.590 -2.4411 -0.3714 -0.2770
  682SOL     OW 2044   0.775   0.044   1.403 -0.5235  0.2271 -0.2551
  682SOL    HW1 2045   0.694  -0.020   1.424  0.3031 -2.5824 -0.4973
  682SOL    HW2 2046   0.810   0.030   1.302  3.6178  1.0365 -0.2125
  683SOL     OW 2047   1.397   0.242   2.176  0.6651 -0.3111  0.1687
  683SOL    HW1 2048   1.346   0.303   2.245 -0.3873  0.0224 -1.5363
  683SOL    HW2 2049   1.473   0.286   2.122 -0.8455 -0.4684 -2.7469
  684SOL     OW 2050   1.438   2.137   0.493  0.0154  0.3354 -0.0396
  684SOL    HW1 2051   1.510   2.069   0.523  0.0884  1.1314 -1.1234
  684SOL    HW2 2052   1.347   2.092   0.467 -0.1982  1.3652 -0.6980
  685SOL     OW 2053   2.182   1.915   1.921 -0.3080 -1.0298  0.1406
  685SOL    HW1 2054   2.222   1.970   1.842 -0.8727 -0.9416 -0.1535
  685SOL    HW2 2055   2.242   1.837   1.964  0.2267  0.4431 -0.7018
  686SOL     OW 2056   1.566   1.746   2.705  0.3063  0.1720  0.5080
  686SOL    HW1 2057   1.537   1.643   2.705  4.0780 -1.1309  1.0772
  686SOL    HW2 2058   1.652   1.755   2.762  0.7229 -0.9806  1.7875
  687SOL     OW 2059   1.345   2.522   1.903  0.2008 -0.1756  0.4266
  687SOL    HW1 2060   1.404   2.461   1.842 -1.6752  0.5219  0.6983
  687SOL    HW2 2061   1.397   2.526   1.996  3.1471 -0.3905 -0.2118
  688SOL     OW 2062   2.082   1.396   1.627  0.2130 -0.5388  0.3324
  688SOL    HW1 2063   2.162   1.426   1.571 -0.2471 -1.7386  0.5250
  688SOL    HW2 2064   2.010   1.348   1.568 -0.5508 -1.9149  0.5554
  689SOL     OW 2065   2.464   1.113   2.763 -0.4703  0.3126  0.0473
  689SOL    HW1 2066   2.365   1.092   2.796  1.0850  0.0618 -1.9415
  689SOL    HW2 2067   2.530   1.079   2.837 -1.8726 -1.8226  1.7385
  690SOL     OW 2068   2.218   2.820   3.075 -0.1154 -0.2540 -0.5754
  690SOL    HW1 2069   2.171   2.769   2.997 -1.0481  2.6086 -2.4521
  690SOL    HW2 2070   2.156   2.823   3.156  5.0841  1.1712  1.2303
  691SOL     OW 2071   2.575   0.469   2.152 -0.5628  0.5500  1.1135
  691SOL    HW1 2072   2.638   0.404   2.098 -2.7072 -1.8721 -1.6245
  691SOL    HW2 2073   2.579   0.570   2.117  0.9443  1.1626  0.3533
  692SOL     OW 2074   2.778   1.230   0.717 -0.7752  0.0065  0.0909
  692SOL    HW1 2075   2.676   1.247   0.720  0.3264 -0.5122 -1.0908
  692SOL    HW2 2076   2.829   1.315   0.758  1.9736  2.0521 -1.6269
  693SOL     OW 2077   2.882   2.999   0.608  0.1353 -0.2631 -0.4129
  693SOL    HW1 2078   2.839   3.078   0.665 -0.1818  1.1087  3.7718
  693SOL    HW2 2079   2.813   2.962   0.541 -0.6058 -2.5032 -1.4880
  694SOL     OW 2080   2.396   2.209   0.065 -0.8548 -0.5504  0.0800
  694SOL    HW1 2081   2.358   2.303   0.092 -1.1340  3.6323  1.5432
  694SOL    HW2 2082   2.323   2.142   0.057  0.6741 -0.5966 -0.9006
  695SOL     OW 2083   0.531   3.014   1.459 -0.2880 -0.0482  0.2189
  695SOL    HW1 2084   0.529   2.908   1.449  0.6693 -0.0305  0.5244
  695SOL    HW2 2085   0.474   3.044   1.541  1.2585  1.7215 -1.3553
  696SOL     OW 2086   2.685   1.901   0.722  0.1830  0.0289 -0.1282
  696SOL    HW1 2087   2.725   1.830   0.783 -1.0336  0.2387  1.5523
  696SOL    HW2 2088   2.690   1.873   0.625  1.9181  1.2369  2.5789
  697SOL     OW 2089   1.746   2.091   1.749 -0.5700  0.0053 -0.0127
  697SOL    HW1 2090   1.822   2.025   1.777  1.9320  0.0964 -2.0711
  697SOL    HW2 2091   1.777   2.192   1.764  3.4165  0.0998 -1.8018
  698SOL     OW 2092   2.912   0.393   2.732  0.5424 -0.8241 -0.2941
  698SOL    HW1 2093   2.893   0.325   2.657  2.3323  1.2227  1.1707
  698SOL    HW2 2094   2.991   0.362   2.799  3.0917  2.1764  1.1230
  699SOL     OW 2095   1.563   0.068   2.934 -0.1856 -0.1787  0.0615
  699SOL    HW1 2096   1.518  -0.022   2.911  3.6808 -1.0949 -1.8239
  699SOL    HW2 2097   1.618   0.107   2.857 -1.2654 -2.4508 -1.4538
  700SOL     OW 2098   1.013   2.364   1.347  0.5187  0.4193  0.7820
  700SOL    HW1 2099   1.116   2.354   1.323 -1.8809 -0.9736  1.5138
  700SOL    HW2 2100   0.950   2.307   1.288  1.1971  0.4131  0.6945
  701SOL     OW 2101   1.881   2.820   0.049 -0.4605  0.4040  0.0468
  701SOL    HW1 2102   1.904   2.748   0.118  1.2258  0.5480 -1.9341
  701SOL    HW2 2103   1.890   2.921   0.081  1.9801  0.0944  3.0652
  702SOL     OW 2104   2.097   1.370   1.922 -0.2526  0.6556 -0.4564
  702SOL    HW1 2105   2.143   1.275   1.913 -0.4874  1.3698  0.7586
  702SOL    HW2 2106   2.106   1.415   1.829 -0.2973  2.7263 -2.6015
  703SOL     OW 2107   1.949   0.819   1.424  0.1669 -0.3774 -0.1000
  703SOL    HW1 2108   1.930   0.729   1.466 -0.2454 -1.0028 -1.8095
  703SOL    HW2 2109   2.006   0.882   1.485  0.1071  0.7663  1.9805
  704SOL     OW 2110   0.325   2.035   1.692 -0.4492 -0.5370 -0.0150
  704SOL    HW1 2111   0.393   1.988   1.747 -1.2881 -0.5911 -0.9911
  704SOL    HW2 2112   0.365   2.131   1.673 -0.1879  1.6861  0.0156
  705SOL     OW 2113   2.541   1.408   0.893 -0.6950 -0.2994 -0.1048
  705SOL    HW1 2114   2.460   1.394   0.823 -2.7167 -0.2627 -0.0522
  705SOL    HW2 2115   2.542   1.328   0.958 -1.9542  3.0611  4.0743
  706SOL     OW 2116   0.651   1.759   1.847  0.3484  0.1095 -0.7416
  706SOL    HW1 2117   0.639   1.662   1.894  0.3732 -3.9985  1.8684
  706SOL    HW2 2118   0.736   1.809   1.875 -1.4498  0.7719  1.2518
  707SOL     OW 2119   2.266   1.166   1.829  0.5200  0.6230  0.5694
  707SOL    HW1 2120   2.351   1.169   1.888  0.0668  2.8442 -0.8467
  707SOL    HW2 2121   2.238   1.064   1.805 -0.5076 -1.6697 -0.1159
  708SOL     OW 2122   3.066   0.471   3.018  0.5034  0.0466  0.5842
  708SOL    HW1 2123   3.053   0.534   2.936 -0.0130 -5.3023 -0.5074
  708SOL    HW2 2124   3.063   0.369   2.996  2.5465 -0.6908 -1.0054
  709SOL     OW 2125   1.821   1.802   0.297 -0.0319  0.2146  0.2093
  709SOL    HW1 2126   1.854   1.882   0.349  1.2610 -0.1427 -1.1486
  709SOL    HW2 2127   1.869   1.797   0.202 -0.0589 -0.3946 -3.0738
  710SOL     OW 2128   1.717   1.598   2.450  0.1832  0.8700  0.3418
  710SOL    HW1 2129   1.788   1.586   2.370  1.5777  0.9548  1.2771
  710SOL    HW2 2130   1.757   1.575   2.547 -0.3902 -0.3432  3.8985
  711SOL     OW 2131   2.644   2.924   0.961  0.1321  0.0435  0.3994
  711SOL    HW1 2132   2.619   3.026   0.957 -4.0614  0.1914  1.1600
  711SOL    HW2 2133   2.747   2.900   0.937  2.3537  2.4555 -2.6155
  712SOL     OW 2134   1.507   2.355   1.767  0.3807  0.6869  0.2748
  712SOL    HW1 2135   1.580   2.282   1.776  0.7473  0.2521  0.5132
  712SOL    HW2 2136   1.434   2.320   1.703  1.4984 -0.7117  2.7425
  713SOL     OW 2137   2.806   1.450   2.456  0.1889 -0.6521 -0.2795
  713SOL    HW1 2138   2.805   1.358   2.500 -1.6599  1.2635  0.0848
  713SOL    HW2 2139   2.730   1.511   2.490  0.5928 -0.4907  4.0954
  714SOL     OW 2140   2.605   0.479   2.426  0.0788  0.0999  0.1094
  714SOL    HW1 2141   2.523   0.442   2.482  0.7492 -3.1217 -1.2449
  714SOL    HW2 2142   2.584   0.482   2.322 -1.3253 -0.8548  0.7840
  715SOL     OW 2143   1.566   2.089   1.134  0.1025  0.3707  0.3510
  715SOL    HW1 2144   1.540   2.190   1.116 -0.7184  0.9290 -3.3510
  715SOL    HW2 2145   1.613   2.079   1.230 -0.5724  0.2345 -0.3773
  716SOL     OW 2146   1.216   0.227   1.506  0.6913  0.0448 -0.1684
  716SOL    HW1 2147   1.118   0.258   1.494  0.8857 -2.8175 -1.9935
  716SOL    HW2 2148   1.286   0.302   1.477 -0.5391  1.7680  0.6350
  717SOL     OW 2149   1.089   0.581   1.614  0.2275  0.3505 -0.3784
  717SOL    HW1 2150   1.186   0.614   1.627 -1.7455  0.4218  1.8563
  717SOL    HW2 2151   1.058   0.577   1.516  2.5403 -1.3304 -0.1525
  718SOL     OW 2152   0.654   1.018   1.011 -0.8728  0.5982  0.1040
  718SOL    HW1 2153   0.610   1.040   0.919  0.5611 -2.4178  0.7718
  718SOL    HW2 2154   0.719   1.086   1.050 -3.4719 -0.0443 -0.5385
  719SOL     OW 2155   0.790   1.873   2.262  0.2591  0.4913 -0.6643
  719SOL    HW1 2156   0.872   1.918   2.302  0.0880 -0.7258  0.8201
  719SOL    HW2 2157   0.692   1.908   2.287 -1.5725  0.8448 -1.0272
  720SOL     OW 2158   2.205   1.080   0.256  0.0580 -0.2032 -0.3455
  720SOL    HW1 2159   2.283   1.026   0.219  0.8858 -0.7456 -1.1888
  720SOL    HW2 2160   2.194   1.076   0.358  0.5420 -0.6773  0.4028
  721SOL     OW 2161   2.316   0.014   2.043 -0.6836 -0.1230 -0.5882
  721SOL    HW1 2162   2.350   0.109   2.022  0.5515  0.5507  0.6346
  721SOL    HW2 2163   2.213   0.015   2.056  0.2160  0.5667 -0.4394
  722SOL     OW 2164   2.394   1.656   0.564  0.1815  0.7954 -1.1156
  722SOL    HW1 2165   2.395   1.615   0.471 -0.0056  1.4916  0.3006
  722SOL    HW2 2166   2.299   1.653   0.605  0.5182 -2.2458  1.6817
  723SOL     OW 2167   2.550   2.819   1.948  0.1319  0.6939 -0.7002
  723SOL    HW1 2168   2.616   2.840   2.029 -0.1556 -0.3140 -0.5091
  723SOL    HW2 2169   2.455   2.786   1.980 -2.4857 -0.1682  1.2252
  724SOL     OW 2170   0.483   2.454   2.430 -0.0539 -0.5930  0.5384
  724SOL    HW1 2171   0.382   2.478   2.433  0.0999 -0.7104  0.4761
  724SOL    HW2 2172   0.530   2.482   2.515 -4.0621 -0.2372  0.3663
  725SOL     OW 2173   2.414   2.755   1.459 -1.0884  0.1368 -0.6195
  725SOL    HW1 2174   2.435   2.770   1.359  0.8939  0.5513  0.8913
  725SOL    HW2 2175   2.417   2.654   1.474  0.3281  3.0682 -1.0828
  726SOL     OW 2176   2.393   2.249   0.708  0.2421  0.9427  0.2157
  726SOL    HW1 2177   2.325   2.333   0.699 -2.8539 -2.5715 -0.0782
  726SOL    HW2 2178   2.404   2.205   0.613 -1.3202 -2.0934 -1.5603
  727SOL     OW 2179   0.225   3.100   0.118 -0.1045  0.3096  0.1736
  727SOL    HW1 2180   0.234   2.998   0.091 -0.6890 -1.5038  0.3946
  727SOL    HW2 2181   0.262   3.165   0.046 -2.0291  1.1322  0.6475
  728SOL     OW 2182   2.787   0.684   1.000 -0.5320  0.0666  0.0133
  728SOL    HW1 2183   2.718   0.655   0.925 -1.7053 -0.9206  0.8759
  728SOL    HW2 2184   2.802   0.616   1.078 -1.7549  2.3695 -2.8346
  729SOL     OW 2185   2.917   2.453   0.686  0.1578  0.2912  0.3091
  729SOL    HW1 2186   2.860   2.372   0.723 -1.2341 -0.3532 -1.7009
  729SOL    HW2 2187   3.019   2.449   0.691 -1.8925  0.3939 -1.9996
  730SOL     OW 2188   2.583   0.574   0.778  0.2078  0.3328  0.3609
  730SOL    HW1 2189   2.523   0.653   0.732 -2.0202  0.5552  2.6961
  730SOL    HW2 2190   2.672   0.554   0.725 -2.3309 -1.9952 -1.0394
  731SOL     OW 2191   0.008   2.115   2.458 -0.1234 -0.5334  0.1691
  731SOL    HW1 2192   0.063   2.153   2.546 -2.2955  1.9595  2.8140
  731SOL    HW2 2193  -0.089   2.154   2.451  3.3013 -1.9168  0.7881
  732SOL     OW 2194   1.105   2.883   1.957 -0.0518  0.7273 -0.4160
  732SOL    HW1 2195   1.136   2.844   2.049  1.3514  1.8089 -0.8027
  732SOL    HW2 2196   1.125   2.821   1.877 -1.6750  2.2695 -2.9589
  733SOL     OW 2197  -0.004   0.746   2.065 -0.5978 -0.1644 -0.6604
  733SOL    HW1 2198   0.086   0.793   2.056 -2.0509 -1.8570 -0.9586
  733SOL    HW2 2199  -0.008   0.638   2.052 -2.1903 -0.7144 -1.9489
  734SOL     OW 2200   1.414   0.332   2.743 -0.5122 -0.4323 -0.3421
  734SOL    HW1 2201   1.422   0.421   2.802  0.1525  1.7328  0.0076
  734SOL    HW2 2202   1.321   0.291   2.748 -1.4074  1.5789  1.8033
  735SOL     OW 2203   2.874   2.616   2.248 -0.4370 -0.2284  0.1816
  735SOL    HW1 2204   2.804   2.665   2.188  2.3493 -0.8963 -0.1139
  735SOL    HW2 2205   2.955   2.586   2.192  1.3906 -0.8909  1.3907
  736SOL     OW 2206   0.765   0.395   2.662  0.2763 -0.3988  0.1925
  736SOL    HW1 2207   0.690   0.455   2.627  2.6786  1.1037  0.2564
  736SOL    HW2 2208   0.799   0.328   2.581  0.3628  1.2896 -0.7163
  737SOL     OW 2209   2.646   0.503   2.861  0.1367  0.3380 -0.2115
  737SOL    HW1 2210   2.622   0.467   2.955 -1.4832 -0.8013 -2.3871
  737SOL    HW2 2211   2.736   0.475   2.828 -0.8333 -0.2790  1.6580
  738SOL     OW 2212   1.598   1.224   2.969  0.3664  0.0081  0.4952
  738SOL    HW1 2213   1.704   1.229   2.989  1.3664 -2.5744  0.0762
  738SOL    HW2 2214   1.572   1.152   2.895 -0.4343  1.4639  0.5668
  739SOL     OW 2215   1.805   0.671   0.717  0.3306 -0.1635 -0.7340
  739SOL    HW1 2216   1.814   0.650   0.821  0.3847  1.3031  0.9406
  739SOL    HW2 2217   1.829   0.590   0.655 -0.4887  0.0385  0.2615
  740SOL     OW 2218   1.952   1.879   2.207  0.2643 -0.5793 -0.8772
  740SOL    HW1 2219   2.049   1.839   2.199  1.3456 -0.6643 -1.6120
  740SOL    HW2 2220   1.886   1.845   2.136  1.2801  1.3166  0.0599
  741SOL     OW 2221   2.483   0.036   2.626 -0.2896  0.2277 -0.0034
  741SOL    HW1 2222   2.590   0.027   2.633  1.4085 -1.8404  1.0428
  741SOL    HW2 2223   2.454   0.036   2.527 -0.8710  1.1248  0.8474
  742SOL     OW 2224   2.245   1.369   0.131 -0.5029 -0.0299  0.1370
  742SOL    HW1 2225   2.168   1.435   0.158  0.1323  1.2496 -1.1284
  742SOL    HW2 2226   2.255   1.293   0.202 -1.1823  0.5417 -1.0535
  743SOL     OW 2227   1.755   0.596   2.606 -0.4577 -0.0207  0.6138
  743SOL    HW1 2228   1.744   0.555   2.512 -0.4724  1.5276  1.1036
  743SOL    HW2 2229   1.707   0.691   2.608 -0.2147  1.5875 -0.9379
  744SOL     OW 2230   2.660   2.104   0.031  0.4086 -0.4693 -0.2037
  744SOL    HW1 2231   2.564   2.139   0.033 -1.4516 -0.3691 -1.9666
  744SOL    HW2 2232   2.677   2.050   0.121  2.2675  0.1619  1.2824
  745SOL     OW 2233   2.139   2.698   2.211  0.0147  0.8060 -0.9982
  745SOL    HW1 2234   2.062   2.648   2.162  0.6318 -0.2702 -0.3382
  745SOL    HW2 2235   2.112   2.761   2.290  0.4146 -0.2715  3.4779
  746SOL     OW 2236   3.073   2.563   1.822  0.2221  0.4512 -0.2878
  746SOL    HW1 2237   3.175   2.554   1.817  0.2067  1.3463 -0.1310
  746SOL    HW2 2238   3.036   2.654   1.856 -1.8206  0.2957  3.3798
  747SOL     OW 2239   3.096   1.794   1.674 -0.4924  0.1347  0.4995
  747SOL    HW1 2240   3.064   1.698   1.648 -1.0416  2.9231 -1.2731
  747SOL    HW2 2241   3.160   1.841   1.604  0.2235  0.9063 -0.1802
  748SOL     OW 2242   1.794   2.698   2.880 -0.5673 -0.6397 -0.0463
  748SOL    HW1 2243   1.806   2.749   2.969 -0.7201  0.4121 -2.2449
  748SOL    HW2 2244   1.695   2.677   2.871  1.7368 -0.4969 -0.0958
  749SOL     OW 2245   1.319   0.019   0.842 -0.2265  0.3916 -0.3737
  749SOL    HW1 2246   1.245  -0.050   0.828 -3.3667  0.4689 -2.6954
  749SOL    HW2 2247   1.325   0.078   0.755  0.4471  4.3533 -0.5739
  750SOL     OW 2248   2.306   0.239   1.891  0.2732 -0.5450  0.1308
  750SOL    HW1 2249   2.352   0.274   1.800  0.1916  0.9081  1.9241
  750SOL    HW2 2250   2.300   0.314   1.963 -2.2271  0.4783  0.4104
  751SOL     OW 2251   0.816   2.198   2.791  0.1267 -0.0329 -0.0825
  751SOL    HW1 2252   0.870   2.174   2.879 -0.2954  0.7571  1.8994
  751SOL    HW2 2253   0.745   2.131   2.762 -1.2359  0.0302  1.3019
  752SOL     OW 2254   1.243   0.892   1.549  0.5020  0.2406  0.5831
  752SOL    HW1 2255   1.309   0.916   1.471 -0.0133 -0.8942  2.1018
  752SOL    HW2 2256   1.266   0.796   1.584 -1.1386 -0.4778  0.1218
  753SOL     OW 2257   0.934   2.611   1.731  0.3360  0.4105  0.7866
  753SOL    HW1 2258   1.036   2.649   1.716  2.4470  1.2631  1.4052
  753SOL    HW2 2259   0.862   2.680   1.698  0.7971  1.2039  0.9490
  754SOL     OW 2260   1.191   1.268   3.038 -0.3944 -0.3279  0.1908
  754SOL    HW1 2261   1.202   1.176   2.998 -2.2062 -0.4022  2.4344
  754SOL    HW2 2262   1.209   1.349   2.973  0.2217  0.9568  0.9396
  755SOL     OW 2263   1.944   0.460   2.220 -0.1543  0.2539 -0.2248
  755SOL    HW1 2264   2.026   0.419   2.277  2.6685  1.5981  0.6634
  755SOL    HW2 2265   1.863   0.478   2.285  0.5032 -0.3448 -0.6884
  756SOL     OW 2266   2.631   0.987   2.966  1.0931 -0.2595 -0.2906
  756SOL    HW1 2267   2.729   0.972   2.976 -3.4493 -0.6137  0.0206
  756SOL    HW2 2268   2.580   0.901   3.002  1.5861  0.2947  1.5839
  757SOL     OW 2269   0.069   0.490   1.790  0.4766  0.6369 -0.1162
  757SOL    HW1 2270   0.052   0.565   1.722  1.7443  0.8423  1.8338
  757SOL    HW2 2271   0.163   0.447   1.775  2.2889 -1.7306  1.1826
  758SOL     OW 2272   2.416   3.101   1.475 -0.1847 -0.3742 -0.1087
  758SOL    HW1 2273   2.356   3.035   1.528 -2.0161 -1.7454  1.1427
  758SOL    HW2 2274   2.386   3.113   1.373  1.2004 -0.5950 -2.4243
  759SOL     OW 2275   1.680   3.095   0.078 -0.0198 -0.3160 -0.4730
  759SOL    HW1 2276   1.632   3.125  -0.010 -0.3332 -0.8331 -0.6174
  759SOL    HW2 2277   1.782   3.091   0.061 -3.3712  1.6582  1.2842
  760SOL     OW 2278   2.749   2.030   2.755  0.1850 -0.3798  0.1749
  760SOL    HW1 2279   2.832   1.985   2.803  3.0132  0.8667  1.4281
  760SOL    HW2 2280   2.729   2.123   2.789  3.2677  0.3583  0.5128
  761SOL     OW 2281   1.967   1.698   1.622 -0.5254  0.1148 -0.3829
  761SOL    HW1 2282   2.018   1.610   1.627 -0.2928  1.6711  0.3141
  761SOL    HW2 2283   1.879   1.687   1.567 -0.0972 -1.3015  4.2139
  762SOL     OW 2284   0.512   2.407   0.963  0.2829 -0.1071  0.2387
  762SOL    HW1 2285   0.554   2.441   0.876 -0.5362 -0.5683  0.6608
  762SOL    HW2 2286   0.546   2.469   1.036  3.1897  2.2251 -1.2178
  763SOL     OW 2287   2.107   1.516   2.984  0.0960  0.1739 -0.1678
  763SOL    HW1 2288   2.190   1.469   3.031  2.0309 -1.0433 -0.0724
  763SOL    HW2 2289   2.017   1.469   3.016 -2.3431 -0.3973 -0.7719
  764SOL     OW 2290   0.699   0.524   0.907 -0.6759 -0.3715  0.2263
  764SOL    HW1 2291   0.671   0.440   0.857  2.7036 -1.1243 -0.5527
  764SOL    HW2 2292   0.800   0.541   0.924  0.3454 -0.3762  0.6175
  765SOL     OW 2293   0.659   0.234   0.823  0.3921  0.0042 -0.4640
  765SOL    HW1 2294   0.758   0.223   0.799  1.9980  1.5447  0.4092
  765SOL    HW2 2295   0.640   0.255   0.922 -3.0274 -2.9321  1.4289
  766SOL     OW 2296   2.955   2.089   0.034 -0.2467 -0.3066  0.1310
  766SOL    HW1 2297   2.860   2.109   0.008  1.0910  0.5692 -0.9827
  766SOL    HW2 2298   3.024   2.163   0.006  0.7355  2.0991  2.6943
  767SOL     OW 2299   2.883   1.543   0.510 -0.6140 -0.1764 -0.1434
  767SOL    HW1 2300   2.790   1.516   0.555 -2.3171  0.2272 -0.5667
  767SOL    HW2 2301   2.953   1.570   0.576 -1.5072  0.6085  1.0810
  768SOL     OW 2302   1.097   0.254   0.313 -0.0504  0.2362 -0.4248
  768SOL    HW1 2303   1.022   0.192   0.350 -0.4238 -1.4558  0.0337
  768SOL    HW2 2304   1.182   0.198   0.286 -0.7290  1.7922  2.6023
  769SOL     OW 2305   1.181   1.812   2.258 -0.0436  0.3891  0.3961
  769SOL    HW1 2306   1.130   1.833   2.338  3.0488 -3.5394  0.4418
  769SOL    HW2 2307   1.210   1.713   2.254  0.3035 -3.7207  1.0098
  770SOL     OW 2308   0.178   1.239   2.414 -0.2169 -0.3270  0.3294
  770SOL    HW1 2309   0.171   1.282   2.512 -2.0480 -2.2422  0.2128
  770SOL    HW2 2310   0.083   1.220   2.377  0.3935 -0.4210  1.3561
  771SOL     OW 2311   2.970   2.808   1.901  0.2825  0.1413  0.2333
  771SOL    HW1 2312   2.937   2.874   1.831 -1.1085  1.5711 -1.5378
  771SOL    HW2 2313   3.002   2.853   1.993 -0.6514  1.0541  0.0899
  772SOL     OW 2314   2.125   0.103   2.966 -0.2277  0.2098  0.6311
  772SOL    HW1 2315   2.177   0.019   2.979 -0.5953 -1.8400 -1.1927
  772SOL    HW2 2316   2.163   0.181   3.018 -2.6208  1.1702 -0.3282
  773SOL     OW 2317   0.677   2.061   2.477  0.0411 -0.1813 -0.2964
  773SOL    HW1 2318   0.668   2.139   2.406  1.0592  1.6239 -0.7388
  773SOL    HW2 2319   0.605   2.072   2.549 -1.0695  0.2096 -1.9545
  774SOL     OW 2320   2.035   3.079   2.625  0.2315 -0.4593 -0.2809
  774SOL    HW1 2321   2.039   3.177   2.656  0.9102 -1.2242  0.0033
  774SOL    HW2 2322   2.085   3.006   2.689 -2.9770  0.4046 -0.6700
  775SOL     OW 2323   2.518   2.839   2.401  0.1127 -0.0574 -0.7421
  775SOL    HW1 2324   2.487   2.926   2.347 -0.6395  1.9064 -2.8944
  775SOL    HW2 2325   2.604   2.846   2.459 -0.0393 -0.9480  0.1712
  776SOL     OW 2326   3.105   1.264   0.214 -0.0894 -0.5971 -0.4024
  776SOL    HW1 2327   3.068   1.211   0.129  0.7619 -0.5190 -1.7238
  776SOL    HW2 2328   3.028   1.284   0.276  3.6196 -0.2158 -0.2519
  777SOL     OW 2329   0.206   2.696   0.487 -0.2981 -0.3169  0.2772
  777SOL    HW1 2330   0.108   2.679   0.449  0.1759  1.4888 -2.3289
  777SOL    HW2 2331   0.231   2.797   0.484  2.9574  0.7791  1.5643
  778SOL     OW 2332   1.325   1.958   0.157 -0.1014 -0.0621 -0.4037
  778SOL    HW1 2333   1.261   1.992   0.231 -0.0830  0.4880  0.6244
  778SOL    HW2 2334   1.367   2.035   0.102  0.4385 -0.0572 -1.3518
  779SOL     OW 2335   0.181   0.787   0.500 -0.0116  0.5076 -0.5824
  779SOL    HW1 2336   0.133   0.691   0.492  0.8385  0.8666  2.0033
  779SOL    HW2 2337   0.123   0.854   0.553  1.5706 -0.3096 -0.1845
  780SOL     OW 2338   0.010   0.329   2.377  0.8413 -0.3093  0.7141
  780SOL    HW1 2339  -0.037   0.421   2.363 -0.2684 -1.8796  0.3128
  780SOL    HW2 2340   0.111   0.327   2.351  0.9790 -2.7216 -0.0044
  781SOL     OW 2341   0.597   1.746   1.587  0.2575 -0.0709  0.8525
  781SOL    HW1 2342   0.628   1.767   1.687  0.2215  3.3522 -0.1702
  781SOL    HW2 2343   0.523   1.674   1.584  0.4882 -2.3929 -2.2815
  782SOL     OW 2344   2.586   0.152   0.926  0.7331 -0.1377  0.0710
  782SOL    HW1 2345   2.523   0.181   0.845  0.1433  3.1190 -1.5329
  782SOL    HW2 2346   2.558   0.197   1.015 -2.0835 -1.3458 -0.7794
  783SOL     OW 2347   2.861   0.679   2.504 -0.1528  0.2780 -0.2892
  783SOL    HW1 2348   2.826   0.721   2.594  1.9659  0.5919  0.0333
  783SOL    HW2 2349   2.785   0.629   2.454  4.0488 -0.7279 -0.9276
  784SOL     OW 2350   1.340   2.218   0.044  0.4668 -0.3004 -0.2893
  784SOL    HW1 2351   1.438   2.231   0.088  0.1086 -0.4925  1.7959
  784SOL    HW2 2352   1.338   2.211  -0.061  0.1480 -3.8328 -3.6763
  785SOL     OW 2353   2.176   0.346   0.005 -0.2197 -0.1157  0.2885
  785SOL    HW1 2354   2.095   0.337   0.067 -0.1055  2.2686 -0.1498
  785SOL    HW2 2355   2.205   0.441  -0.009 -0.8821 -3.5304 -0.3246
  786SOL     OW 2356   2.050   2.149   2.236 -0.0359  0.4521  0.2579
  786SOL    HW1 2357   1.999   2.056   2.234 -2.9411  1.6660 -0.8218
  786SOL    HW2 2358   2.155   2.143   2.262  2.4632  1.9891 -1.4543
  787SOL     OW 2359   1.382   0.626   0.835 -0.1806  0.1789  0.1303
  787SOL    HW1 2360   1.311   0.699   0.841 -0.1187 -0.7597 -0.0525
  787SOL    HW2 2361   1.424   0.617   0.742  0.3704  2.4369 -1.4143
  788SOL     OW 2362   1.220   0.414   3.032 -0.0770  0.5482 -0.0903
  788SOL    HW1 2363   1.139   0.394   2.963 -1.5501  1.2838 -1.6502
  788SOL    HW2 2364   1.291   0.479   2.996 -0.2200 -1.6133  0.5335
  789SOL     OW 2365   2.623   0.095   1.823  0.0171 -0.4070 -0.3502
  789SOL    HW1 2366   2.534   0.119   1.868 -1.6246 -0.9208  0.9181
  789SOL    HW2 2367   2.618   0.007   1.776  2.5900  3.2831  1.9970
  790SOL     OW 2368   2.592   2.638   0.841  0.2498  0.0909 -0.9753
  790SOL    HW1 2369   2.641   2.635   0.750 -0.5490 -0.7479 -0.0810
  790SOL    HW2 2370   2.616   2.718   0.897 -2.6538 -5.0071 -0.6189
  791SOL     OW 2371   1.950   1.282   0.236  0.0971  0.2682 -0.1751
  791SOL    HW1 2372   1.860   1.230   0.261 -0.6097  1.5347 -1.7464
  791SOL    HW2 2373   2.023   1.206   0.216 -2.4232 -0.1325  0.5031
  792SOL     OW 2374   0.414   1.976   2.208 -0.1151 -0.1975  0.4098
  792SOL    HW1 2375   0.482   2.049   2.235  0.0619  1.8859 -1.4037
  792SOL    HW2 2376   0.334   1.962   2.271 -0.5565  0.6727  1.2021
  793SOL     OW 2377   2.135   1.545   2.138 -0.0245 -0.1923  0.1334
  793SOL    HW1 2378   2.206   1.611   2.114  2.0596  1.4901 -0.8303
  793SOL    HW2 2379   2.112   1.487   2.061  0.6042  1.0972  3.1750
  794SOL     OW 2380   0.433   1.419   2.479  0.6908  0.9802  0.1696
  794SOL    HW1 2381   0.458   1.373   2.391  0.0510 -0.6243  2.2388
  794SOL    HW2 2382   0.379   1.503   2.464  0.3276 -3.3529  0.6015
  795SOL     OW 2383   2.534   2.321   1.803  0.2866  0.2859  0.1070
  795SOL    HW1 2384   2.525   2.371   1.891 -1.0355 -0.8297  0.4075
  795SOL    HW2 2385   2.462   2.242   1.796 -1.5925 -1.0914 -0.5527
  796SOL     OW 2386   3.061   1.050   2.691 -0.1385 -0.1311 -0.4090
  796SOL    HW1 2387   2.959   1.074   2.696 -1.8439  4.4019  2.8026
  796SOL    HW2 2388   3.110   1.079   2.776 -1.7203 -0.0457  2.3335
  797SOL     OW 2389   0.703   0.659   1.365 -1.3828 -0.1469  0.2964
  797SOL    HW1 2390   0.774   0.716   1.420  0.6072 -0.4597  0.6646
  797SOL    HW2 2391   0.670   0.704   1.275  2.5061 -2.2894 -2.2098
  798SOL     OW 2392   1.204   0.451   0.991 -0.1667  0.1975 -0.6410
  798SOL    HW1 2393   1.246   0.438   1.084  3.6984 -0.0837  1.3264
  798SOL    HW2 2394   1.239   0.538   0.948 -0.6886  0.8826  0.4717
  799SOL     OW 2395   1.828   2.733   1.016  0.0502  0.0508 -0.4169
  799SOL    HW1 2396   1.844   2.644   1.077  0.1936 -2.9406  1.7279
  799SOL    HW2 2397   1.842   2.722   0.912 -0.6128 -0.3437 -0.8645
  800SOL     OW 2398   2.954   0.830   1.818  0.1076  0.3154 -0.3856
  800SOL    HW1 2399   2.985   0.925   1.842 -3.0836  2.1963  0.0325
  800SOL    HW2 2400   2.961   0.768   1.902 -0.9780 -0.6554  1.0265
  801SOL     OW 2401   1.970   2.163   0.144  0.3295 -0.0847 -0.2262
  801SOL    HW1 2402   1.892   2.182   0.081 -2.6634 -1.1356  1.3807
  801SOL    HW2 2403   2.017   2.072   0.131 -1.7070  0.5657  1.5422
  802SOL     OW 2404   0.712   0.696   2.537 -0.5837 -0.5970  0.1483
  802SOL    HW1 2405   0.748   0.702   2.440  1.3027 -3.3308  0.2028
  802SOL    HW2 2406   0.610   0.686   2.545 -1.4994 -1.1186 -1.3892
  803SOL     OW 2407   0.918   0.049   0.865 -0.5992  0.9738  0.1627
  803SOL    HW1 2408   0.994   0.117   0.897  0.8697  1.0669  0.7312
  803SOL    HW2 2409   0.892   0.069   0.765  1.5966  0.0391 -2.5456
  804SOL     OW 2410   0.304   0.030   2.190  0.7495  0.0568  0.0663
  804SOL    HW1 2411   0.287   0.128   2.220  1.0426 -0.5413  2.1621
  804SOL    HW2 2412   0.253  -0.005   2.109  1.1333 -1.9940  0.1900
  805SOL     OW 2413   2.349   0.376   0.327  0.5841 -0.4044 -0.2319
  805SOL    HW1 2414   2.400   0.357   0.414  1.7300 -2.9247  2.9758
  805SOL    HW2 2415   2.367   0.306   0.250  0.0684  0.2700 -1.6855
  806SOL     OW 2416   0.636   2.491   1.841 -0.0969  0.2067  0.1741
  806SOL    HW1 2417   0.578   2.575   1.835 -0.8782 -1.2131  0.5450
  806SOL    HW2 2418   0.717   2.494   1.779  0.0012  0.1221 -1.7563
  807SOL     OW 2419   2.543   0.979   0.434 -0.1377  0.5122  0.3397
  807SOL    HW1 2420   2.619   0.926   0.475  0.7597  1.9361  2.8994
  807SOL    HW2 2421   2.519   0.959   0.328 -1.1935 -0.7807 -2.9917
  808SOL     OW 2422   0.602   2.031   2.887  0.1699  0.2615 -0.4863
  808SOL    HW1 2423   0.621   2.070   2.982  3.4375 -0.4681  0.8245
  808SOL    HW2 2424   0.663   1.948   2.867 -0.6930 -0.6558 -0.0605
  809SOL     OW 2425   2.544   1.999   1.897  0.2735 -0.4435  0.7885
  809SOL    HW1 2426   2.633   2.054   1.901  1.2567 -0.1942 -1.3731
  809SOL    HW2 2427   2.506   1.977   1.801 -1.4845 -1.8720 -3.0344
  810SOL     OW 2428   2.157   1.079   0.538  0.6205 -0.1504  0.1123
  810SOL    HW1 2429   2.143   1.006   0.614 -1.2736  0.0790  3.4500
  810SOL    HW2 2430   2.162   1.179   0.567 -2.6479  0.9435 -1.0799
  811SOL     OW 2431   1.287   2.566   1.181 -0.4688  1.1091 -0.0211
  811SOL    HW1 2432   1.285   2.459   1.190 -0.8551 -0.7658  0.7350
  811SOL    HW2 2433   1.287   2.604   1.279  0.5961  1.1338  1.7067
  812SOL     OW 2434   1.406   0.786   1.943  0.3553 -0.1546  0.6316
  812SOL    HW1 2435   1.310   0.776   1.901  1.4663  1.7822 -3.6135
  812SOL    HW2 2436   1.467   0.859   1.904  0.0769  1.8496  1.3200
  813SOL     OW 2437   1.569   2.062   2.419  0.1860  0.4426  0.1643
  813SOL    HW1 2438   1.653   1.999   2.423 -1.2815 -1.5700 -0.0183
  813SOL    HW2 2439   1.510   2.038   2.339 -0.5406 -0.9043  1.0888
  814SOL     OW 2440   2.969   1.691   2.903  0.3281  0.1715 -0.0613
  814SOL    HW1 2441   3.052   1.646   2.947 -0.7087 -0.7969 -0.8962
  814SOL    HW2 2442   2.973   1.791   2.897  1.3391 -1.4567  0.2078
  815SOL     OW 2443   2.165   2.908   2.772 -0.1964 -0.0474 -0.0907
  815SOL    HW1 2444   2.127   2.822   2.811 -0.3047 -0.5070  2.6770
  815SOL    HW2 2445   2.247   2.949   2.820 -0.1195  1.2409 -2.2377
  816SOL     OW 2446   1.534   0.354   1.674 -0.0645  0.4977 -0.0555
  816SOL    HW1 2447   1.589   0.270   1.708 -2.3417 -3.4385 -0.5801
  816SOL    HW2 2448   1.466   0.394   1.746 -4.6248 -0.8750 -0.6990
  817SOL     OW 2449   0.392   1.218   2.649 -0.3428  0.7609  0.0335
  817SOL    HW1 2450   0.313   1.251   2.705 -0.1753 -0.5085 -2.7857
  817SOL    HW2 2451   0.409   1.290   2.574  1.4137 -2.4277  1.4646
  818SOL     OW 2452   1.996   0.819   0.461  0.2157 -0.2030  0.0688
  818SOL    HW1 2453   2.098   0.829   0.444  1.5480  0.2387 -0.9968
  818SOL    HW2 2454   1.971   0.801   0.561  3.0752  0.9732  1.0887
  819SOL     OW 2455   2.756   2.915   3.097  0.3496 -0.4641  0.2869
  819SOL    HW1 2456   2.763   2.820   3.143 -2.1625 -4.8192 -1.7549
  819SOL    HW2 2457   2.696   2.909   3.013  0.3083  0.8540 -0.8126
  820SOL     OW 2458   1.268   1.057   0.542  0.1993 -0.3884  0.5014
  820SOL    HW1 2459   1.335   1.122   0.582 -1.8287  2.2386 -4.1171
  820SOL    HW2 2460   1.256   0.964   0.588  0.2181  1.9302  0.9096
  821SOL     OW 2461   0.067   1.191   0.739  0.0855 -0.5160  0.0150
  821SOL    HW1 2462  -0.001   1.186   0.821  1.0406  0.0579 -0.5855
  821SOL    HW2 2463   0.112   1.282   0.718  1.5484  2.1165 -1.8596
  822SOL     OW 2464   2.510   1.788   2.429  0.4926 -0.4323 -0.2382
  822SOL    HW1 2465   2.512   1.848   2.514  0.2519  0.1686  1.3713
  822SOL    HW2 2466   2.416   1.785   2.385 -1.3576 -1.9674 -0.2981
  823SOL     OW 2467   2.014   0.957   1.177 -0.1397 -0.0927  0.4954
  823SOL    HW1 2468   1.987   0.905   1.262 -1.8870  1.2627  2.3702
  823SOL    HW2 2469   1.928   0.979   1.130  4.0140  0.2344 -0.3129
  824SOL     OW 2470   0.212   1.919   2.789 -0.1317 -0.3940 -0.3578
  824SOL    HW1 2471   0.268   1.881   2.872 -1.0628 -1.4579 -1.3293
  824SOL    HW2 2472   0.277   1.908   2.703  1.4204 -0.7847  0.8847
  825SOL     OW 2473   1.329   1.071   0.260  0.2120 -0.1319 -0.0707
  825SOL    HW1 2474   1.335   1.168   0.226 -1.5689 -2.6206  0.9586
  825SOL    HW2 2475   1.279   1.067   0.350  0.4289  1.7263  1.2411
  826SOL     OW 2476   1.926   0.596   1.586  0.1059  0.2548 -0.2037
  826SOL    HW1 2477   2.024   0.581   1.618  0.7404 -0.5200 -1.9386
  826SOL    HW2 2478   1.881   0.513   1.538 -1.2737 -0.0931 -0.2986
  827SOL     OW 2479   0.725   1.166   0.373  0.0934  0.1039  0.3613
  827SOL    HW1 2480   0.785   1.097   0.318  1.8792  3.3866 -0.5447
  827SOL    HW2 2481   0.636   1.124   0.411  0.9032 -1.2529 -0.0422
  828SOL     OW 2482   2.635   0.123   1.528  0.2600  0.4637  0.1768
  828SOL    HW1 2483   2.541   0.086   1.504  0.4839 -1.1029  0.8888
  828SOL    HW2 2484   2.636   0.158   1.628 -0.0094 -1.0956 -0.1502
  829SOL     OW 2485   2.941   2.421   2.904 -0.8479  0.7467  0.5107
  829SOL    HW1 2486   2.839   2.397   2.927  0.3765  0.2954  3.5844
  829SOL    HW2 2487   2.959   2.524   2.881 -0.0662  2.1869  0.2355
  830SOL     OW 2488   2.876   0.910   3.050 -0.3406 -0.0527 -0.1232
  830SOL    HW1 2489   2.923   1.000   3.061 -2.5736 -0.7852  0.6049
  830SOL    HW2 2490   2.912   0.832   3.111 -3.5817  3.1956  1.7412
  831SOL     OW 2491   0.048   0.555   0.421  0.5314 -0.2551  0.5315
  831SOL    HW1 2492   0.041   0.471   0.484  1.7353 -2.2410 -1.5467
  831SOL    HW2 2493   0.076   0.526   0.326  0.5199 -0.5878 -0.2565
  832SOL     OW 2494   1.801   0.763   3.038 -0.5932  0.1998 -0.7415
  832SOL    HW1 2495   1.718   0.817   3.053 -1.7334  2.3105 -0.8796
  832SOL    HW2 2496   1.786   0.661   3.049  0.7483 -0.2894  1.4454
  833SOL     OW 2497   2.402   2.098   0.473  0.0997 -0.2255  0.1018
  833SOL    HW1 2498   2.305   2.069   0.481 -1.0597  0.5013  0.8085
  833SOL    HW2 2499   2.466   2.019   0.486 -2.6924  1.9828 -0.4487
  834SOL     OW 2500   0.207   0.110   0.573 -0.4238  0.0260  0.1519
  834SOL    HW1 2501   0.240   0.017   0.602  2.4577  0.3336  0.0233
  834SOL    HW2 2502   0.201   0.123   0.472 -1.6357  0.4448  3.3175
  835SOL     OW 2503   2.419   1.515   1.112 -0.5277  0.5166 -0.5340
  835SOL    HW1 2504   2.497   1.556   1.168 -1.0762 -0.0635 -0.2918
  835SOL    HW2 2505   2.444   1.488   1.013  0.6676 -2.6960 -3.4995
  836SOL     OW 2506   1.599   0.818   2.596 -0.1258 -0.0207  0.5470
  836SOL    HW1 2507   1.500   0.789   2.580 -0.7132  0.5994 -1.0528
  836SOL    HW2 2508   1.643   0.838   2.506  0.7642  0.2956 -0.3735
  837SOL     OW 2509   1.704   0.108   0.578 -0.3325  0.3967 -0.6618
  837SOL    HW1 2510   1.675   0.194   0.620  2.3798 -0.9249  0.2057
  837SOL    HW2 2511   1.659   0.089   0.485 -2.8009  1.1743 -0.7629
  838SOL     OW 2512   1.219   1.390   2.701 -0.3911  0.2116  0.2298
  838SOL    HW1 2513   1.189   1.456   2.775 -0.5461  0.7980 -1.5325
  838SOL    HW2 2514   1.142   1.325   2.673 -2.4394  0.5552  0.4188
  839SOL     OW 2515   1.571   0.355   0.973  0.1267 -0.1884 -0.0711
  839SOL    HW1 2516   1.513   0.411   1.031 -0.1932 -0.6899 -0.2510
  839SOL    HW2 2517   1.582   0.256   0.998 -2.1601  1.3777  0.0899
  840SOL     OW 2518   2.580   2.953   1.709  0.0610 -0.1226 -0.0947
  840SOL    HW1 2519   2.534   2.913   1.624 -1.4533  1.4790 -0.7058
  840SOL    HW2 2520   2.553   2.911   1.801 -1.1163 -2.6815 -1.3023
  841SOL     OW 2521   1.534   0.826   2.942  0.3236 -0.6885 -0.0132
  841SOL    HW1 2522   1.456   0.892   2.952  1.0169 -2.2116 -0.4122
  841SOL    HW2 2523   1.591   0.857   2.868 -1.9209  0.1147  2.6501
  842SOL     OW 2524   0.830   1.558   1.005  0.5288 -0.0254 -0.0125
  842SOL    HW1 2525   0.776   1.639   1.038  1.0977  0.4636  0.0056
  842SOL    HW2 2526   0.776   1.503   0.930  0.3215 -0.9706  2.1804
  843SOL     OW 2527   0.122   0.136   1.446  0.1392  0.8379 -0.0477
  843SOL    HW1 2528   0.204   0.188   1.486  0.2130 -0.2537  3.2393
  843SOL    HW2 2529   0.141   0.035   1.414  1.7472 -1.5313  0.4353
  844SOL     OW 2530   0.747   2.535   0.209 -0.7614  0.1142 -0.3758
  844SOL    HW1 2531   0.750   2.552   0.313  0.0043  3.0067 -0.9082
  844SOL    HW2 2532   0.648   2.523   0.177 -0.5802  1.5516 -2.1214
  845SOL     OW 2533   1.680   2.933   1.290  0.3778 -0.3671  0.2328
  845SOL    HW1 2534   1.681   3.021   1.340  0.9179 -0.3096  1.9578
  845SOL    HW2 2535   1.637   2.939   1.195  1.4244 -0.7047 -0.1041
  846SOL     OW 2536   1.711   2.973   0.893  0.0358  0.3245 -0.3406
  846SOL    HW1 2537   1.739   3.000   0.797  0.0040  1.7225 -1.1999
  846SOL    HW2 2538   1.787   2.930   0.945 -0.2393 -0.8925  0.6447
  847SOL     OW 2539   2.057   1.612   0.201  0.3523  0.1676 -0.4758
  847SOL    HW1 2540   1.998   1.597   0.283 -0.2216 -3.2324  1.4410
  847SOL    HW2 2541   2.004   1.583   0.112 -1.5601  2.2002 -1.1697
  848SOL     OW 2542   2.465   0.848   2.660  0.3214 -0.9692 -0.0457
  848SOL    HW1 2543   2.454   0.955   2.673 -0.8282  2.8356  2.0467
  848SOL    HW2 2544   2.389   0.814   2.598 -0.2644 -0.2858  0.9234
  849SOL     OW 2545   2.420   0.885   2.273 -0.1437 -0.8351 -0.8734
  849SOL    HW1 2546   2.465   0.837   2.189 -0.2339 -1.1076  0.3633
  849SOL    HW2 2547   2.380   0.825   2.345 -0.5577 -0.1306  0.9792
  850SOL     OW 2548   1.570   0.148   1.248 -0.8529 -0.5155  0.0700
  850SOL    HW1 2549   1.528   0.104   1.163 -2.1723 -0.6709  0.9404
  850SOL    HW2 2550   1.522   0.106   1.331 -0.9019 -0.0747 -0.8023
  851SOL     OW 2551   0.484   1.777   0.682  0.1068 -0.0513  0.1036
  851SOL    HW1 2552   0.487   1.878   0.708 -1.0054 -1.5866  0.7512
  851SOL    HW2 2553   0.571   1.724   0.696  1.9891  2.7484 -1.3505
  852SOL     OW 2554   0.780   2.137   1.686  0.3257  0.0120 -0.0185
  852SOL    HW1 2555   0.823   2.234   1.660  2.0681  4.2425  1.1865
  852SOL    HW2 2556   0.713   2.139   1.763  1.4464  1.8311 -1.3524
  853SOL     OW 2557   2.517   1.525   2.578 -0.2213 -0.3408  0.2180
  853SOL    HW1 2558   2.497   1.430   2.542  0.1250 -2.4484 -1.6966
  853SOL    HW2 2559   2.526   1.604   2.508  2.7090 -0.0475 -0.4663
  854SOL     OW 2560   2.364   1.417   1.764 -0.2960  0.8052 -0.4216
  854SOL    HW1 2561   2.403   1.410   1.670  3.6469 -0.3649  1.3556
  854SOL    HW2 2562   2.317   1.331   1.796  0.9115  0.6327  0.3692
  855SOL     OW 2563   2.052   2.303   0.966  0.1575  0.2627  0.3106
  855SOL    HW1 2564   2.080   2.394   0.927 -2.1660  1.5865 -2.5437
  855SOL    HW2 2565   2.088   2.301   1.066  1.0195  0.6883  1.4866
  856SOL     OW 2566   1.413   1.347   0.887 -0.4788 -0.1691  0.1858
  856SOL    HW1 2567   1.391   1.443   0.873  4.2842 -3.3293  0.4751
  856SOL    HW2 2568   1.408   1.320   0.987  1.0739  1.4352 -0.1331
  857SOL     OW 2569   2.964   2.577   1.054 -0.8123  0.6799 -0.5983
  857SOL    HW1 2570   2.869   2.542   1.062 -0.4769  0.0914  0.9921
  857SOL    HW2 2571   3.044   2.508   1.051 -0.1575  1.4547  0.2985
  858SOL     OW 2572   2.281   2.136   1.746 -0.4662 -0.7248 -0.4547
  858SOL    HW1 2573   2.190   2.173   1.725  0.0815 -0.6438  1.9227
  858SOL    HW2 2574   2.329   2.098   1.662  3.4264  3.4360  1.2955
  859SOL     OW 2575   2.430   0.499   1.017 -0.2625 -0.4984 -0.1740
  859SOL    HW1 2576   2.494   0.508   0.934  1.5665  0.8653 -1.4271
  859SOL    HW2 2577   2.470   0.431   1.077  0.9967  4.1975 -1.8810
  860SOL     OW 2578   1.958   2.757   0.493  0.2004  0.5086  0.5571
  860SOL    HW1 2579   1.930   2.700   0.410  1.0375 -2.7875  0.9821
  860SOL    HW2 2580   2.023   2.830   0.467  0.6584  3.4904 -0.1227
  861SOL     OW 2581   1.083   2.571   2.764 -0.4592 -0.0196 -0.2391
  861SOL    HW1 2582   1.105   2.672   2.759 -0.9083  0.7585  1.2782
  861SOL    HW2 2583   1.101   2.521   2.855  2.1545 -2.3875  0.7147
  862SOL     OW 2584   2.949   2.549   1.544  0.0164  0.1248 -0.1271
  862SOL    HW1 2585   3.007   2.588   1.627 -0.6436  0.2407  3.8147
  862SOL    HW2 2586   2.865   2.609   1.516  0.8193  1.5304  0.5609
  863SOL     OW 2587   1.901   2.627   0.240 -0.6698 -0.0982 -0.1439
  863SOL    HW1 2588   1.957   2.537   0.236 -0.0053 -4.3567 -0.6812
  863SOL    HW2 2589   1.800   2.618   0.264 -1.2225  4.9162  1.7697
  864SOL     OW 2590   1.878   1.170   2.943  0.1314 -0.4492 -0.5659
  864SOL    HW1 2591   1.895   1.144   2.848 -1.4694 -1.4455  2.4404
  864SOL    HW2 2592   1.947   1.132   3.011  1.3996  0.0443 -1.2721
  865SOL     OW 2593   2.130   1.739   0.690 -0.2755 -0.1017  0.0589
  865SOL    HW1 2594   2.201   1.739   0.764 -0.6658  1.4400 -3.4721
  865SOL    HW2 2595   2.036   1.723   0.723  3.2700 -0.6116 -0.2449
  866SOL     OW 2596   2.906   2.842   1.022 -0.0873 -0.2435 -0.2965
  866SOL    HW1 2597   2.961   2.897   0.953  0.1982 -2.5065  2.7504
  866SOL    HW2 2598   2.954   2.751   1.042  1.9491 -0.6341  3.0503
  867SOL     OW 2599   0.434   1.308   0.863  0.0024 -0.5999 -0.7103
  867SOL    HW1 2600   0.454   1.215   0.820  0.6778  0.7924  0.2652
  867SOL    HW2 2601   0.343   1.349   0.835 -2.5216 -0.2572  1.6355
  868SOL     OW 2602   0.845   1.923   1.975  0.0940  0.5285  0.2714
  868SOL    HW1 2603   0.829   1.885   2.064 -0.2404 -0.4194 -3.3788
  868SOL    HW2 2604   0.792   2.012   1.959  1.4577  1.5201  0.2492
  869SOL     OW 2605   2.494   2.026   1.612  0.1705  0.2525 -0.2394
  869SOL    HW1 2606   2.583   2.078   1.593  0.8913  0.9416  0.9820
  869SOL    HW2 2607   2.469   1.952   1.544 -0.4302 -1.8878 -1.0533
  870SOL     OW 2608   2.335   2.565   1.201  0.3621 -0.4750 -0.4646
  870SOL    HW1 2609   2.274   2.483   1.221 -0.8120  3.3361 -0.0658
  870SOL    HW2 2610   2.432   2.553   1.238  0.4289 -2.3992  1.4670
  871SOL     OW 2611   2.995   2.037   0.563  0.0215 -0.5422  0.0197
  871SOL    HW1 2612   2.937   2.118   0.599  4.4410  1.4268  0.6519
  871SOL    HW2 2613   2.979   2.017   0.463  1.8787 -1.5521 -2.3758
  872SOL     OW 2614   2.165   0.501   1.702  0.0464 -0.1562 -0.0943
  872SOL    HW1 2615   2.143   0.516   1.801  2.3078  0.4350 -1.9931
  872SOL    HW2 2616   2.263   0.520   1.681 -1.4439 -1.1249 -0.6480
  873SOL     OW 2617   1.729   2.123   2.950  0.0912 -0.0930  0.1887
  873SOL    HW1 2618   1.712   2.224   2.977  0.3852  2.1614  1.1066
  873SOL    HW2 2619   1.682   2.095   2.861 -1.3619 -1.1480 -1.2445
  874SOL     OW 2620   0.699   2.483   0.774  0.2863  0.3983 -0.2232
  874SOL    HW1 2621   0.693   2.579   0.814 -4.0228 -2.4421 -0.5935
  874SOL    HW2 2622   0.783   2.432   0.811  0.2755 -1.1199  2.2289
  875SOL     OW 2623   2.315   1.517   1.488  0.6773 -0.5795  0.2782
  875SOL    HW1 2624   2.403   1.573   1.471  3.4560  0.5534 -2.7350
  875SOL    HW2 2625   2.256   1.538   1.403  2.5632 -0.0328 -0.0741
  876SOL     OW 2626   0.141   2.207   2.686  0.2643  0.4174  0.3521
  876SOL    HW1 2627   0.160   2.122   2.745 -0.8247 -1.7453  2.3651
  876SOL    HW2 2628   0.140   2.295   2.737  0.1209 -1.2728  1.2545
  877SOL     OW 2629   2.777   2.687   0.616 -0.2427 -0.3471 -0.4041
  877SOL    HW1 2630   2.825   2.771   0.662 -1.0034  0.4576  2.0384
  877SOL    HW2 2631   2.836   2.606   0.627 -1.5967 -0.1808 -1.9840
  878SOL     OW 2632   2.854   1.514   2.198 -0.7767  0.8881  0.5235
  878SOL    HW1 2633   2.954   1.520   2.167 -1.4937  0.5123  0.9082
  878SOL    HW2 2634   2.840   1.466   2.289 -0.2520 -0.2565 -2.5121
  879SOL     OW 2635   2.373   0.009   1.201  0.2086 -0.0363  0.8145
  879SOL    HW1 2636   2.437  -0.072   1.194 -0.9007 -0.6151 -2.6807
  879SOL    HW2 2637   2.287  -0.000   1.144  0.1183 -0.0531  0.1791
  880SOL     OW 2638   0.683   0.440   2.149 -0.7329 -0.2066  0.1430
  880SOL    HW1 2639   0.634   0.374   2.220 -0.7412  0.7366  2.9463
  880SOL    HW2 2640   0.766   0.385   2.103  2.2353 -1.5568 -0.1026
  881SOL     OW 2641   0.911   0.041   0.404 -0.0244 -0.3732 -0.3271
  881SOL    HW1 2642   0.919  -0.048   0.456 -1.4244  2.6522  0.5271
  881SOL    HW2 2643   0.868   0.024   0.307 -0.8742  0.9236 -2.1241
  882SOL     OW 2644   2.746   1.639   1.680  0.6269 -0.1836 -0.6995
  882SOL    HW1 2645   2.839   1.603   1.663 -2.2062  0.8792  0.2624
  882SOL    HW2 2646   2.727   1.677   1.777 -1.8679 -0.9759  2.6952
  883SOL     OW 2647   0.958   0.581   0.943 -0.4322  0.2698 -0.4524
  883SOL    HW1 2648   0.982   0.668   0.987  2.1702 -1.4861  0.2919
  883SOL    HW2 2649   1.028   0.505   0.963 -0.5946  2.1674  0.3821
  884SOL     OW 2650   1.186   1.921   1.004  0.2676 -0.0084 -0.3138
  884SOL    HW1 2651   1.147   1.883   0.914 -1.7696 -1.3868 -2.1483
  884SOL    HW2 2652   1.122   1.992   1.051  0.4641 -0.1469  2.8347
  885SOL     OW 2653   2.251   1.834   2.313 -0.6086  0.1246  0.1701
  885SOL    HW1 2654   2.191   1.778   2.381 -1.4077 -0.4202 -0.9906
  885SOL    HW2 2655   2.241   1.937   2.317  2.6930 -2.7164 -2.5792
  886SOL     OW 2656   2.654   0.460   1.778 -0.8082 -0.2188 -0.2253
  886SOL    HW1 2657   2.681   0.404   1.863 -0.2571  1.3382 -0.9773
  886SOL    HW2 2658   2.726   0.531   1.743  2.9509  0.6157 -2.1221
  887SOL     OW 2659   0.096   2.060   1.280  0.1033 -0.2590  0.0321
  887SOL    HW1 2660   0.072   1.998   1.198  0.5351  0.9314 -0.6441
  887SOL    HW2 2661   0.115   2.156   1.255 -1.8323  0.6885  2.0346
  888SOL     OW 2662   0.562   1.290   1.503  0.0088  0.3788 -0.0712
  888SOL    HW1 2663   0.622   1.329   1.428  1.1238 -1.0887  0.3136
  888SOL    HW2 2664   0.560   1.183   1.506  0.7218 -1.9403 -1.9612
  889SOL     OW 2665   0.836   2.530   2.128  0.1336  0.3563  0.0965
  889SOL    HW1 2666   0.755   2.464   2.129 -2.1776  2.4618  2.0263
  889SOL    HW2 2667   0.906   2.511   2.057 -0.6422  2.0424  2.8669
  890SOL     OW 2668   2.347   2.458   0.181 -0.8405 -0.2266 -0.1327
  890SOL    HW1 2669   2.405   2.534   0.141 -1.2283 -1.1823  2.0867
  890SOL    HW2 2670   2.267   2.491   0.235 -1.4924  1.0037 -2.5930
  891SOL     OW 2671   2.618   1.497   0.661 -0.0506  0.2269 -0.1594
  891SOL    HW1 2672   2.593   1.465   0.759  2.9971  0.5649 -1.2933
  891SOL    HW2 2673   2.540   1.540   0.604  0.6136 -2.6180 -1.6181
  892SOL     OW 2674   0.257   0.303   2.230 -0.3340  0.2529  0.1351
  892SOL    HW1 2675   0.259   0.298   2.125  0.6705  0.5476  0.8253
  892SOL    HW2 2676   0.342   0.348   2.261 -0.6434  1.1533 -1.7508
  893SOL     OW 2677   1.680   0.241   2.732 -0.2597  0.1282 -0.2390
  893SOL    HW1 2678   1.757   0.311   2.726  0.5457 -2.2196 -2.9884
  893SOL    HW2 2679   1.583   0.278   2.746  0.6773 -0.3770  0.3750
  894SOL     OW 2680   2.201   2.000   0.028 -0.6386 -0.0698 -0.1326
  894SOL    HW1 2681   2.141   1.936  -0.032 -1.5448 -1.9318  1.5703
  894SOL    HW2 2682   2.241   1.951   0.105 -1.6842  0.0921 -0.4807
  895SOL     OW 2683   2.916   1.442   0.802  0.2171 -0.3901 -0.2350
  895SOL    HW1 2684   2.939   1.418   0.900 -1.0550 -1.3010  1.0634
  895SOL    HW2 2685   2.948   1.535   0.770 -3.1727 -1.2852  1.0922
  896SOL     OW 2686   1.734   1.782   1.164  0.6323 -0.2877  0.2260
  896SOL    HW1 2687   1.801   1.825   1.097  0.1219 -0.5866  1.5129
  896SOL    HW2 2688   1.632   1.806   1.146 -0.3497  0.9344 -0.4337
  897SOL     OW 2689   0.277   0.539   3.092  0.3705 -0.1419  0.2711
  897SOL    HW1 2690   0.184   0.586   3.066  0.5611  1.3513 -0.2344
  897SOL    HW2 2691   0.366   0.594   3.065  2.1597 -0.4288  0.7421
  898SOL     OW 2692   0.568   2.852   1.127 -0.4756  0.4210  0.3444
  898SOL    HW1 2693   0.491   2.914   1.155  1.3484  0.4056  0.6218
  898SOL    HW2 2694   0.652   2.869   1.186 -0.7983  0.9463 -0.4046
  899SOL     OW 2695   2.669   0.933   1.223 -0.1737 -0.4501  0.5659
  899SOL    HW1 2696   2.587   0.928   1.158  0.3257 -0.1653  3.1072
  899SOL    HW2 2697   2.762   0.953   1.183 -1.7042  1.3996 -1.6718
  900SOL     OW 2698   1.014   2.450   2.354  0.0187 -1.6922 -0.0659
  900SOL    HW1 2699   0.941   2.505   2.304 -0.2263  0.9852 -0.0259
  900SOL    HW2 2700   0.997   2.447   2.463  1.0274  1.6206  1.7572
  901SOL     OW 2701   1.898   2.431   1.371  0.1716 -0.1291 -0.0631
  901SOL    HW1 2702   1.873   2.457   1.267 -0.3481  0.3778  0.6157
  901SOL    HW2 2703   2.002   2.408   1.377 -0.2024 -1.0951  0.1490
  902SOL     OW 2704   2.577   1.628   1.459 -0.1211  0.0991  0.2551
  902SOL    HW1 2705   2.632   1.635   1.549  1.9852  1.1929  1.6716
  902SOL    HW2 2706   2.640   1.608   1.380 -0.9776  1.5401  1.7928
  903SOL     OW 2707   0.270   2.393   2.008  0.4603 -0.3470 -0.4378
  903SOL    HW1 2708   0.211   2.312   1.985 -1.3901 -1.7709 -1.4500
  903SOL    HW2 2709   0.298   2.450   1.928 -2.0097 -2.5690 -0.1709
  904SOL     OW 2710   1.972   0.817   2.520 -0.1100  0.8734  1.0451
  904SOL    HW1 2711   1.895   0.788   2.586  1.9435 -1.5177  2.7323
  904SOL    HW2 2712   1.960   0.791   2.421 -0.1084 -1.2899  0.5707
  905SOL     OW 2713   2.757   0.016   2.605 -0.2458 -0.5710  0.4991
  905SOL    HW1 2714   2.845  -0.034   2.603 -2.6411  2.0086 -0.1173
  905SOL    HW2 2715   2.769   0.111   2.563 -0.0585  0.0145  0.5239
  906SOL     OW 2716   0.167   1.773   1.870 -0.4094 -0.2898  0.2951
  906SOL    HW1 2717   0.097   1.784   1.791 -2.4257 -0.5660  0.6476
  906SOL    HW2 2718   0.258   1.819   1.852 -1.3589  1.5028  0.6448
  907SOL     OW 2719   0.160   2.482   1.005  0.2320 -0.4247 -0.5005
  907SOL    HW1 2720   0.239   2.547   1.017  1.0747 -1.9066 -2.5011
  907SOL    HW2 2721   0.133   2.454   0.910 -1.6226  1.9597 -0.6400
  908SOL     OW 2722   2.650   2.936   0.424 -0.6949 -0.2102 -0.0256
  908SOL    HW1 2723   2.630   3.005   0.349  1.7158 -3.2843  1.2562
  908SOL    HW2 2724   2.625   2.838   0.405  0.0715  0.3818  3.2586
  909SOL     OW 2725   0.823   0.903   2.661 -0.1376 -0.3038 -0.1471
  909SOL    HW1 2726   0.790   0.807   2.626 -1.4657 -2.4979  2.9534
  909SOL    HW2 2727   0.892   0.954   2.595 -0.4128  0.3141 -2.6055
  910SOL     OW 2728   1.757   1.799   2.030 -0.3395  0.0816 -0.7759
  910SOL    HW1 2729   1.808   1.834   1.945  0.8741 -1.2696 -1.4837
  910SOL    HW2 2730   1.690   1.868   2.069 -0.4987 -0.5802 -1.8416
  911SOL     OW 2731   1.758   3.024   1.618 -0.0410  0.2001 -0.1597
  911SOL    HW1 2732   1.840   3.007   1.558  1.6548  2.4573 -1.9814
  911SOL    HW2 2733   1.763   2.968   1.704 -2.1185  0.3199  1.2463
  912SOL     OW 2734   2.839   0.948   0.772 -0.1099  0.2536 -0.3429
  912SOL    HW1 2735   2.868   0.928   0.868  0.8965  0.4192 -2.0264
  912SOL    HW2 2736   2.798   1.046   0.765 -3.9642 -0.9270  0.1611
  913SOL     OW 2737   2.530   1.286   1.544 -0.0441  0.2501 -0.2632
  913SOL    HW1 2738   2.569   1.188   1.557 -0.3180 -2.1148  0.4537
  913SOL    HW2 2739   2.575   1.336   1.470 -0.2142 -2.5800  2.0285
  914SOL     OW 2740   2.830   0.520   1.230  0.4285  0.0945  0.1072
  914SOL    HW1 2741   2.776   0.440   1.273 -0.1076 -3.9812 -0.3640
  914SOL    HW2 2742   2.805   0.609   1.279  0.4614  1.6031 -0.8694
  915SOL     OW 2743   1.221   0.796   1.002 -0.1178  0.3401 -0.0755
  915SOL    HW1 2744   1.289   0.772   1.072 -0.8422 -1.6117 -1.4595
  915SOL    HW2 2745   1.125   0.815   1.041 -2.2755 -1.6063 -0.2672
  916SOL     OW 2746   0.553   0.035   0.643  0.3947  0.1456 -0.3627
  916SOL    HW1 2747   0.585   0.092   0.725 -0.8281 -3.3880  2.3593
  916SOL    HW2 2748   0.551   0.092   0.557 -0.3295  1.2525  0.7461
  917SOL     OW 2749   2.751   2.625   1.953 -0.5151 -0.1116 -0.2476
  917SOL    HW1 2750   2.662   2.677   1.954  0.4662  2.0952 -0.9587
  917SOL    HW2 2751   2.828   2.678   1.903 -2.0383  1.7776  2.3286
  918SOL     OW 2752   0.976   2.169   3.031 -0.2942  0.3900  0.0324
  918SOL    HW1 2753   0.930   2.207   3.120 -2.4410  0.1251  2.1901
  918SOL    HW2 2754   1.042   2.090   3.048  0.1052 -0.1806 -0.2462
  919SOL     OW 2755   0.949   1.607   2.791  0.2396 -0.0511  0.6801
  919SOL    HW1 2756   0.998   1.666   2.718 -1.7281 -0.2009  1.1251
  919SOL    HW2 2757   0.890   1.529   2.753  2.1344  0.2808  0.6139
  920SOL     OW 2758   1.246   2.059   2.497  0.6699  0.5907  0.2305
  920SOL    HW1 2759   1.178   2.096   2.423 -2.0803  0.5280 -1.6188
  920SOL    HW2 2760   1.275   1.961   2.498  0.0086 -1.3383  0.6014
  921SOL     OW 2761   1.082   0.065   2.565 -0.6388  1.2807 -0.1445
  921SOL    HW1 2762   1.047   0.075   2.471  2.3558 -0.1273  1.6631
  921SOL    HW2 2763   0.997   0.050   2.629 -2.3009 -0.2594  0.2708
  922SOL     OW 2764   2.206   2.367   2.778  0.3387  0.2245 -0.2107
  922SOL    HW1 2765   2.178   2.265   2.793 -0.4937 -0.4511 -0.8714
  922SOL    HW2 2766   2.155   2.414   2.698 -0.4311 -0.8871 -1.5217
  923SOL     OW 2767   1.250   2.669   0.299 -0.7030 -0.2974  0.1084
  923SOL    HW1 2768   1.343   2.713   0.318  1.3985 -1.0660  1.9526
  923SOL    HW2 2769   1.250   2.570   0.270  0.2615  0.7533  0.6511
  924SOL     OW 2770   2.895   1.577   0.083 -0.6585  0.4220  0.2871
  924SOL    HW1 2771   2.817   1.555   0.014 -0.7968 -0.1452  0.7690
  924SOL    HW2 2772   2.993   1.558   0.043 -0.4057 -1.2354 -0.5924
  925SOL     OW 2773   0.028   2.840   1.617 -0.1978 -0.5430  1.3012
  925SOL    HW1 2774  -0.049   2.892   1.655  0.5623 -1.7259 -0.1564
  925SOL    HW2 2775   0.064   2.879   1.528  0.8108 -1.8920  0.8601
  926SOL     OW 2776   1.365   2.915   1.315  0.3507  0.4116  0.2984
  926SOL    HW1 2777   1.423   2.907   1.226 -1.5890 -1.6028 -2.3099
  926SOL    HW2 2778   1.384   2.998   1.377 -1.3869  0.7643 -0.3227
  927SOL     OW 2779   0.274   2.553   1.778 -0.1423 -0.3427  0.0080
  927SOL    HW1 2780   0.234   2.525   1.682  1.3827 -1.2597 -0.2417
  927SOL    HW2 2781   0.293   2.653   1.782  2.4739 -1.1316  0.4848
  928SOL     OW 2782   1.560   1.998   2.141  0.4315 -0.4184  0.2300
  928SOL    HW1 2783   1.592   2.099   2.143  1.0901 -3.5692 -0.2533
  928SOL    HW2 2784   1.464   1.989   2.108  3.6187 -2.7635  0.7256
  929SOL     OW 2785   2.449   2.471   2.859  0.2491 -0.2810  0.2590
  929SOL    HW1 2786   2.356   2.425   2.840  2.1532 -0.7019 -1.8442
  929SOL    HW2 2787   2.500   2.490   2.765 -0.2593 -2.9698 -5.0272
  930SOL     OW 2788   2.200   1.990   1.076  0.4056 -0.3828  0.1885
  930SOL    HW1 2789   2.233   1.943   1.161  0.0918  1.5104 -2.2003
  930SOL    HW2 2790   2.249   2.074   1.041 -2.4577 -1.5621  0.5221
  931SOL     OW 2791   0.536   1.716   2.622  0.1793  0.4765 -0.1626
  931SOL    HW1 2792   0.592   1.728   2.709  0.9242 -2.0016  1.2589
  931SOL    HW2 2793   0.553   1.618   2.592 -0.7874 -0.5578 -0.8714
  932SOL     OW 2794   0.471   0.098   2.927 -0.0518  0.5608  0.3267
  932SOL    HW1 2795   0.553   0.151   2.896  3.3443 -1.3604  0.6999
  932SOL    HW2 2796   0.499   0.002   2.953 -0.0814  2.6164  0.1741
  933SOL     OW 2797   1.037   0.804   2.990  0.0100  0.0534 -0.2247
  933SOL    HW1 2798   1.103   0.814   3.069 -0.1073 -1.4844  2.0200
  933SOL    HW2 2799   1.020   0.895   2.942 -0.8779  0.9068 -1.2775
  934SOL     OW 2800   0.876   3.043   2.728 -0.6889 -0.1201 -0.0185
  934SOL    HW1 2801   0.880   2.966   2.659 -1.5604  1.3722 -2.4320
  934SOL    HW2 2802   0.893   3.011   2.824  0.5937  2.3212 -1.5854
  935SOL     OW 2803   3.085   0.512   0.805 -0.3721 -0.4458 -0.4795
  935SOL    HW1 2804   3.133   0.445   0.742  0.2177 -0.7666 -0.1816
  935SOL    HW2 2805   2.986   0.516   0.799  2.9518 -0.1139 -0.4119
  936SOL     OW 2806   1.086   2.907   0.167 -0.3216  0.3713  0.3481
  936SOL    HW1 2807   1.114   2.947   0.072 -1.0717 -0.8145 -0.9001
  936SOL    HW2 2808   1.133   2.817   0.182  1.4771 -1.7627 -0.1088
  937SOL     OW 2809   1.917   2.609   2.088  0.4582 -0.2333  0.0771
  937SOL    HW1 2810   1.831   2.649   2.121  0.2728 -0.2539 -2.6154
  937SOL    HW2 2811   1.931   2.634   1.987  2.3391 -1.3635  2.3380
  938SOL     OW 2812   2.785   2.152   1.502  0.8659 -0.0662 -0.1264
  938SOL    HW1 2813   2.750   2.251   1.524 -1.6115 -0.5534 -0.2150
  938SOL    HW2 2814   2.840   2.104   1.578  0.8440  2.3818 -1.7766
  939SOL     OW 2815   2.819   1.124   2.481 -0.1471 -0.9658  0.4801
  939SOL    HW1 2816   2.904   1.156   2.432  1.9390 -0.0705  1.7174
  939SOL    HW2 2817   2.821   1.135   2.585 -0.7388  0.7754  1.1205
  940SOL     OW 2818   1.049   0.461   2.637 -0.0425  0.4403  0.0234
  940SOL    HW1 2819   1.094   0.378   2.674  5.0798  1.1804 -2.1023
  940SOL    HW2 2820   0.950   0.444   2.647  0.6683  2.2108  0.2822
  941SOL     OW 2821   0.022   2.826   2.225  0.4267 -0.2093  0.2188
  941SOL    HW1 2822   0.022   2.728   2.189  0.2823 -1.9495 -0.6187
  941SOL    HW2 2823   0.087   2.840   2.314  3.1031  0.9757  1.1533
  942SOL     OW 2824   0.052   0.075   2.524  0.0023  0.3324  0.0320
  942SOL    HW1 2825   0.131   0.065   2.591 -0.3240 -0.5976  1.2892
  942SOL    HW2 2826   0.030   0.168   2.490  1.5935 -2.0958 -0.7156
  943SOL     OW 2827   2.097   1.644   2.429 -0.1228 -1.2109 -0.2447
  943SOL    HW1 2828   2.107   1.595   2.340 -2.0812  0.0556  0.1537
  943SOL    HW2 2829   2.100   1.577   2.502 -0.7066  3.5959  0.2936
  944SOL     OW 2830   2.178   2.379   1.478 -0.0214  0.9022  0.1462
  944SOL    HW1 2831   2.242   2.419   1.544  1.4465 -2.3022  0.9016
  944SOL    HW2 2832   2.125   2.299   1.525 -2.8303 -1.2026 -0.6516
  945SOL     OW 2833   0.615   1.406   0.363 -0.2975 -0.6231 -0.2816
  945SOL    HW1 2834   0.647   1.457   0.281 -1.8062 -2.4739 -2.3971
  945SOL    HW2 2835   0.655   1.310   0.375  2.0225 -0.6745  0.3243
  946SOL     OW 2836   0.412   0.947   2.507  0.0658  0.5862  0.2972
  946SOL    HW1 2837   0.340   0.909   2.444  3.6317 -0.4311  0.7068
  946SOL    HW2 2838   0.368   1.033   2.553 -0.7935 -0.5835 -0.4189
  947SOL     OW 2839   1.478   0.550   0.093 -0.3327 -0.6399  0.4329
  947SOL    HW1 2840   1.435   0.595   0.010 -2.2050  0.1431 -0.7060
  947SOL    HW2 2841   1.410   0.517   0.162  1.8045  0.7808 -1.0082
  948SOL     OW 2842   1.983   3.083   2.208 -0.5244 -0.0260  0.0471
  948SOL    HW1 2843   1.956   3.062   2.110 -1.3214 -2.5782  1.0974
  948SOL    HW2 2844   1.970   3.003   2.274  0.2378  2.2338 -1.0506
  949SOL     OW 2845   0.629   2.526   0.494 -0.3135  0.0853 -0.0288
  949SOL    HW1 2846   0.613   2.629   0.481 -2.1649  1.8753 -0.4565
  949SOL    HW2 2847   0.671   2.497   0.587  2.1260 -1.9437 -0.3778
  950SOL     OW 2848   0.302   2.151   3.095 -0.0334 -0.6876  0.1570
  950SOL    HW1 2849   0.225   2.209   3.058  3.1942  0.8088 -0.8177
  950SOL    HW2 2850   0.300   2.057   3.055  1.4190  0.9683  0.8538
  951SOL     OW 2851   1.178   2.871   2.723  0.4587 -0.2885  0.0744
  951SOL    HW1 2852   1.162   2.861   2.622  0.8688 -2.3769 -0.7593
  951SOL    HW2 2853   1.267   2.911   2.744 -0.3634 -3.8325  0.5810
  952SOL     OW 2854   0.075   1.620   0.469  0.6950  0.3972  0.3456
  952SOL    HW1 2855   0.143   1.704   0.477  2.8706  1.2614 -0.1487
  952SOL    HW2 2856   0.038   1.588   0.560 -2.6695 -1.3574  1.6468
  953SOL     OW 2857   2.568   1.756   0.179  0.1460 -0.0269 -0.0228
  953SOL    HW1 2858   2.525   1.658   0.191  1.0214 -1.9785  0.8861
  953SOL    HW2 2859   2.626   1.759   0.098  0.8492 -0.2009 -1.6666
  954SOL     OW 2860   2.182   0.582   0.990 -0.0651  0.4170 -0.0646
  954SOL    HW1 2861   2.170   0.603   0.887 -1.4999  2.4322  0.4505
  954SOL    HW2 2862   2.275   0.548   1.011 -0.8811 -0.2021 -0.6153
  955SOL     OW 2863   0.231   2.661   1.361  0.7616 -0.5953 -0.7429
  955SOL    HW1 2864   0.129   2.660   1.346  1.8929 -0.9397 -0.1277
  955SOL    HW2 2865   0.284   2.631   1.274  3.1713 -0.5333 -1.3477
  956SOL     OW 2866   2.766   2.465   2.472  0.2839  0.3120 -0.0712
  956SOL    HW1 2867   2.776   2.366   2.442 -1.7693 -1.2219 -0.2275
  956SOL    HW2 2868   2.804   2.530   2.401 -1.5182 -2.6865  3.4540
  957SOL     OW 2869   1.573   2.049   2.707 -0.4179  0.2837 -0.6249
  957SOL    HW1 2870   1.539   1.954   2.734 -2.3946  1.9381  1.8727
  957SOL    HW2 2871   1.573   2.056   2.598 -2.7112  1.9334 -2.0165
  958SOL     OW 2872   2.677   2.337   2.978 -0.2282  0.5579 -0.2204
  958SOL    HW1 2873   2.585   2.378   2.953  0.0149 -3.8231 -0.9404
  958SOL    HW2 2874   2.680   2.258   3.045 -1.5362 -0.8834 -0.7361
  959SOL     OW 2875   0.287   2.761   0.088  0.0258  0.4162 -0.4293
  959SOL    HW1 2876   0.187   2.732   0.078  1.3263 -2.3586  0.5311
  959SOL    HW2 2877   0.348   2.680   0.112  0.1884 -2.0513 -1.0878
  960SOL     OW 2878   1.986   0.472   1.931  0.2332  0.4292 -0.0920
  960SOL    HW1 2879   1.937   0.550   1.879  0.8806  1.5713 -0.7259
  960SOL    HW2 2880   1.964   0.465   2.029 -0.7566 -1.4721 -2.6195
  961SOL     OW 2881   2.571   1.850   1.050  0.2811 -0.2605 -0.0209
  961SOL    HW1 2882   2.524   1.933   1.005 -1.3079  0.3906 -1.7783
  961SOL    HW2 2883   2.568   1.861   1.152 -2.2284  3.6894 -0.4274
  962SOL     OW 2884   1.309   0.908   0.033 -0.2797  0.2713 -0.3585
  962SOL    HW1 2885   1.288   0.939  -0.064  2.0887 -1.6408 -0.7985
  962SOL    HW2 2886   1.324   0.992   0.093  0.2817  1.2023  0.7281
  963SOL     OW 2887   2.236   2.591   1.863  1.0541 -0.1709  0.6694
  963SOL    HW1 2888   2.230   2.509   1.929  2.0085  1.3920  0.8887
  963SOL    HW2 2889   2.267   2.679   1.906  1.3980  0.2388 -3.2668
  964SOL     OW 2890   2.417   0.379   1.661  0.7132 -0.2518 -0.2889
  964SOL    HW1 2891   2.479   0.413   1.737 -1.9162 -0.4156 -1.5092
  964SOL    HW2 2892   2.450   0.382   1.563 -1.3497 -0.4190 -1.0750
  965SOL     OW 2893   2.582   3.061   0.195 -0.3543 -0.7523 -0.7014
  965SOL    HW1 2894   2.625   3.036   0.109 -0.2051 -2.8224  0.9333
  965SOL    HW2 2895   2.478   3.050   0.171  1.5480  1.9673 -1.2915
  966SOL     OW 2896   2.498   2.506   2.262  0.4771  0.3800 -0.4863
  966SOL    HW1 2897   2.408   2.465   2.291  2.8982 -0.6035  1.4080
  966SOL    HW2 2898   2.494   2.612   2.275  0.2523  0.9927  0.0067
  967SOL     OW 2899   2.771   2.793   2.493 -1.0759 -0.1915  0.1171
  967SOL    HW1 2900   2.844   2.749   2.436 -1.9926 -0.7758 -1.8947
  967SOL    HW2 2901   2.812   2.872   2.549 -2.5575  0.1770 -3.6835
  968SOL     OW 2902   1.941   1.066   2.681  0.7452 -0.0764  0.2754
  968SOL    HW1 2903   1.917   1.147   2.623 -0.3960  2.7362 -3.1647
  968SOL    HW2 2904   1.959   0.978   2.631 -2.1215 -1.2730  1.8020
  969SOL     OW 2905   2.729   2.392   1.084  0.0617 -1.2616  0.1471
  969SOL    HW1 2906   2.650   2.372   1.020 -1.7285  0.5853  1.6780
  969SOL    HW2 2907   2.777   2.309   1.122 -1.2216 -1.3801  2.7929
  970SOL     OW 2908   1.062   2.124   1.764  0.3689  0.3687 -0.1254
  970SOL    HW1 2909   0.964   2.119   1.732 -1.0328  1.2692  1.0051
  970SOL    HW2 2910   1.070   2.158   1.862  1.7987  1.3069  1.6519
  971SOL     OW 2911   2.804   2.103   1.905  0.4918 -0.0840  0.5520
  971SOL    HW1 2912   2.794   2.202   1.938  0.4868  0.5212 -0.4334
  971SOL    HW2 2913   2.869   2.100   1.826  1.4077 -1.7497  1.0243
  972SOL     OW 2914   2.066   2.391   0.234  0.5533 -0.0485  0.0420
  972SOL    HW1 2915   2.045   2.300   0.184  0.8939  1.5413  1.0971
  972SOL    HW2 2916   2.053   2.378   0.337 -0.3859 -0.1984 -1.2984
  973SOL     OW 2917   1.299   1.071   1.982 -0.5550 -0.4447  0.5090
  973SOL    HW1 2918   1.206   1.035   1.946 -1.2122  0.2237 -0.8987
  973SOL    HW2 2919   1.301   1.158   2.049 -1.3842  2.4142  1.1552
  974SOL     OW 2920   1.609   0.598   1.932  0.3522 -0.1623 -0.4366
  974SOL    HW1 2921   1.699   0.634   1.903 -1.2195 -1.7705  0.5702
  974SOL    HW2 2922   1.538   0.675   1.937  3.4812  0.7745  3.6713
  975SOL     OW 2923   2.368   3.040   0.023 -0.2279  0.5098  0.6967
  975SOL    HW1 2924   2.326   2.946   0.031  0.0313 -0.3740 -1.3564
  975SOL    HW2 2925   2.411   3.057  -0.075  0.5186  1.3856  0.4909
  976SOL     OW 2926   1.941   2.841   2.349  0.2231 -0.2080 -0.4884
  976SOL    HW1 2927   1.864   2.789   2.299  0.6280  0.1971 -0.5306
  976SOL    HW2 2928   1.941   2.825   2.448  1.5910 -1.3216  2.1913
  977SOL     OW 2929   0.452   0.607   1.023  0.9697 -0.0975  0.0973
  977SOL    HW1 2930   0.389   0.632   0.939 -1.8831  2.2583  0.2532
  977SOL    HW2 2931   0.541   0.570   0.993 -2.6542  1.4941 -1.3714
   3.10000   3.10000   3.10000
