1000 SPC/Fw water molecules t=   0.21000 step= 210
 2931
    1SOL     OW    1   2.546   0.327   2.541  0.1964 -0.2305 -0.3504
    1SOL    HW1    2   2.524   0.228   2.528  3.0603  0.4886 -0.8204
    1SOL    HW2    3   2.550   0.360   2.636  2.8902 -1.8359 -0.4217
    2SOL     OW    4   2.714   3.020   1.409 -0.0745 -0.1736 -0.2458
    2SOL    HW1    5   2.808   3.047   1.380 -0.0621 -0.9598 -3.2729
    2SOL    HW2    6   2.663   3.101   1.453 -1.7329 -0.3598  2.2295
    3SOL     OW    7   2.745   2.590   0.401 -0.1046 -0.0228  0.6181
    3SOL    HW1    8   2.736   2.487   0.411  1.2662  0.5702  0.9175
    3SOL    HW2    9   2.795   2.619   0.489  1.1679  1.2867 -2.1033
    4SOL     OW   10   1.343   1.470   2.362  0.0475  0.1590  0.6209
    4SOL    HW1   11   1.265   1.534   2.386 -0.1655  0.7094  0.5814
    4SOL    HW2   12   1.321   1.368   2.374  0.1675  1.9939  2.2811
    5SOL     OW   13   1.195   1.499   3.059  0.4322  0.2190 -0.5446
    5SOL    HW1   14   1.244   1.570   3.119 -2.6512 -1.2504  0.7062
    5SOL    HW2   15   1.094   1.524   3.045  0.1368 -1.4710  0.3001
    6SOL     OW   16   0.082   1.849   2.942 -0.8245 -0.5564  0.0373
    6SOL    HW1   17   0.080   1.888   3.042 -0.8776  2.0745  1.9605
    6SOL    HW2   18   0.057   1.746   2.944  0.8717 -1.2746 -0.0393
    7SOL     OW   19   2.602   0.799   1.155  0.2924 -0.0109 -0.0753
    7SOL    HW1   20   2.508   0.794   1.196 -0.9647 -2.3825  1.8316
    7SOL    HW2   21   2.598   0.767   1.052  2.5102 -4.7303 -1.7609
    8SOL     OW   22   0.459   0.674   1.534  0.1184 -0.2577  0.2404
    8SOL    HW1   23   0.509   0.592   1.581 -0.6954  1.9027  0.8075
    8SOL    HW2   24   0.400   0.647   1.451 -0.7409  0.6763 -0.5217
    9SOL     OW   25   1.181   0.942   2.276 -0.1181  0.4072  0.1234
    9SOL    HW1   26   1.209   1.032   2.229 -1.1497  4.4944  1.2436
    9SOL    HW2   27   1.146   0.874   2.206  1.3565  1.8913  2.5799
   10SOL     OW   28   0.660   1.344   1.260  0.8382 -0.2636  0.2564
   10SOL    HW1   29   0.568   1.366   1.215  2.0256  0.3656  0.3957
   10SOL    HW2   30   0.728   1.429   1.253  2.3186  2.5359  0.2598
   11SOL     OW   31   2.327   2.580   0.938  0.6473 -0.3482  0.1114
   11SOL    HW1   32   2.332   2.632   1.030 -0.9088  2.4408  0.8907
   11SOL    HW2   33   2.391   2.502   0.939  0.9572  3.0616 -0.9632
   12SOL     OW   34   1.471   0.903   0.478 -0.1372 -0.2870 -0.3631
   12SOL    HW1   35   1.382   0.930   0.434  0.5479  0.9130 -0.7589
   12SOL    HW2   36   1.497   0.805   0.464  1.7652 -0.3926 -1.3837
   13SOL     OW   37   2.482   0.647   1.813  0.2640 -0.1487  0.3251
   13SOL    HW1   38   2.402   0.622   1.874  1.3696  0.4497  0.8910
   13SOL    HW2   39   2.489   0.592   1.727  1.9165 -0.2882 -0.4293
   14SOL     OW   40   1.877   3.077   0.586  0.5388  0.3056  0.3112
   14SOL    HW1   41   1.787   3.111   0.539 -0.5382 -1.5195 -1.5378
   14SOL    HW2   42   1.862   3.036   0.684 -0.1361  0.5427 -0.0714
   15SOL     OW   43   1.954   2.038   2.857 -0.0868 -0.2825  0.4569
   15SOL    HW1   44   1.907   2.129   2.852 -0.8252  0.2517  2.2438
   15SOL    HW2   45   1.921   1.963   2.788  0.6335 -0.7861 -0.8416
   16SOL     OW   46   1.595   1.705   0.060  0.3492 -0.6065 -0.2653
   16SOL    HW1   47   1.635   1.635  -0.004  1.4236  0.9245 -0.2812
   16SOL    HW2   48   1.628   1.692   0.159  1.3050  1.6243 -1.0201
   17SOL     OW   49   0.131   0.429   0.166 -0.0506  0.1524 -0.3007
   17SOL    HW1   50   0.206   0.470   0.106  1.3620  1.7502  2.5289
   17SOL    HW2   51   0.033   0.433   0.130 -0.8410  2.0486 -0.5256
   18SOL     OW   52   1.099   2.880   2.153 -0.7396  0.5582  0.6415
   18SOL    HW1   53   1.005   2.844   2.121 -0.6827 -2.6790  1.0040
   18SOL    HW2   54   1.177   2.847   2.097  0.4494  2.2424 -0.2793
   19SOL     OW   55   0.504   0.989   1.933 -0.2632 -0.5315  0.2820
   19SOL    HW1   56   0.472   1.007   2.028 -0.2588 -1.5250 -1.5216
   19SOL    HW2   57   0.595   0.940   1.935 -1.5975 -1.8890  1.2305
   20SOL     OW   58   0.247   2.761   0.880 -0.4372  0.5677  0.1267
   20SOL    HW1   59   0.150   2.761   0.846  0.9026 -3.2238  1.9991
   20SOL    HW2   60   0.312   2.746   0.797 -1.8168 -0.0100  1.0752
   21SOL     OW   61   2.788   0.198   2.146  0.2660 -1.0190 -0.0751
   21SOL    HW1   62   2.880   0.171   2.105 -3.3427 -2.2476 -0.0222
   21SOL    HW2   63   2.778   0.161   2.242 -0.4127  0.2048 -1.6887
   22SOL     OW   64   2.368   0.199   0.020 -0.8803 -0.3227 -0.0727
   22SOL    HW1   65   2.367   0.100  -0.001 -0.0491  0.0716  1.3321
   22SOL    HW2   66   2.274   0.239   0.020 -2.9040  1.0640  1.0111
   23SOL     OW   67   2.783   0.655   0.697 -0.1466 -0.3700 -0.3511
   23SOL    HW1   68   2.779   0.566   0.640 -1.9077  0.3051  0.0368
   23SOL    HW2   69   2.771   0.733   0.628  1.5247  0.7995 -1.9991
   24SOL     OW   70   0.179   1.886   0.483  0.2798 -0.3470  0.3353
   24SOL    HW1   71   0.079   1.894   0.455  0.2672 -2.1172 -2.3185
   24SOL    HW2   72   0.242   1.884   0.399 -2.2923 -1.1792 -3.4863
   25SOL     OW   73   2.254   0.522   0.187  0.3511 -0.3839 -0.0332
   25SOL    HW1   74   2.292   0.459   0.259 -1.0105  2.1196 -0.0932
   25SOL    HW2   75   2.293   0.498   0.089 -1.7187  1.2123  0.3835
   26SOL     OW   76   2.535   2.184   2.093 -0.2451 -0.1009  0.5887
   26SOL    HW1   77   2.609   2.233   2.148 -1.2263  0.9501 -0.2639
   26SOL    HW2   78   2.570   2.098   2.052 -0.9832  0.7020 -0.0136
   27SOL     OW   79   0.673   2.982   0.109 -0.4537 -0.0540  0.2940
   27SOL    HW1   80   0.764   3.033   0.099 -0.3388 -2.1006 -1.4693
   27SOL    HW2   81   0.643   2.950   0.015 -1.8128  0.0775 -1.1236
   28SOL     OW   82   1.505   0.222   0.222  0.2946 -0.8384  0.2238
   28SOL    HW1   83   1.585   0.170   0.173  1.3373  1.3654  0.7617
   28SOL    HW2   84   1.541   0.286   0.296  0.2240  3.4625  0.8646
   29SOL     OW   85   2.014   0.637   0.238  0.1003  0.6572  0.2639
   29SOL    HW1   86   2.030   0.724   0.289  1.4352 -0.1436 -0.0706
   29SOL    HW2   87   2.103   0.586   0.216  1.7416 -0.7680 -0.6991
   30SOL     OW   88   0.189   2.057   0.939 -0.2310  0.2644 -0.4145
   30SOL    HW1   89   0.151   2.063   0.840  0.5703 -0.8316  2.1952
   30SOL    HW2   90   0.118   2.102   1.003  4.2874  1.9866 -0.2141
   31SOL     OW   91   2.036   0.051   2.320  0.6388  0.1506 -0.0783
   31SOL    HW1   92   2.057   0.007   2.414  0.7046 -1.3925 -1.3280
   31SOL    HW2   93   1.982  -0.017   2.259  0.7548  0.2334 -0.4588
   32SOL     OW   94   2.949   0.115   0.183 -0.4969  0.4077 -0.9160
   32SOL    HW1   95   2.909   0.053   0.255 -0.6378  2.5430 -0.4799
   32SOL    HW2   96   3.044   0.091   0.151 -4.7513 -2.5498 -1.6407
   33SOL     OW   97   0.968   0.314   0.423 -0.6097 -0.1844 -0.1100
   33SOL    HW1   98   0.914   0.228   0.415  1.5879 -1.9372  1.8563
   33SOL    HW2   99   1.047   0.315   0.497 -0.7199 -0.3747  1.6801
   34SOL     OW  100   0.412   2.916   1.061 -0.1136 -0.1792 -0.1303
   34SOL    HW1  101   0.345   2.862   0.999 -0.0692 -0.2592  0.6711
   34SOL    HW2  102   0.513   2.922   1.030  1.1779 -1.7082 -0.5860
   35SOL     OW  103   0.072   0.011   1.813 -0.2908  0.4540  0.3162
   35SOL    HW1  104   0.123  -0.075   1.794  1.8440 -0.5578  1.8405
   35SOL    HW2  105   0.013   0.034   1.737  1.0666 -0.1253 -0.5827
   36SOL     OW  106   1.908   1.169   1.829  0.2229  0.1017  0.0854
   36SOL    HW1  107   1.970   1.115   1.768 -0.7437 -1.7301 -2.3645
   36SOL    HW2  108   1.947   1.247   1.883  2.0766 -0.8065 -0.2647
   37SOL     OW  109   1.128   0.305   0.973  0.1857 -0.6895 -0.1808
   37SOL    HW1  110   1.141   0.398   1.020 -1.6232  0.6272 -1.3268
   37SOL    HW2  111   1.186   0.231   1.014  0.6494  1.5289 -1.5626
   38SOL     OW  112   1.139   2.697   2.409 -0.2255  0.4063 -0.0453
   38SOL    HW1  113   1.094   2.607   2.435  1.1802 -1.8319  1.6337
   38SOL    HW2  114   1.082   2.755   2.341  1.4824 -0.0971  1.8094
   39SOL     OW  115   2.351   1.443   3.047 -0.1234 -0.5934  0.0480
   39SOL    HW1  116   2.424   1.369   3.037 -2.8882 -0.5880 -0.3035
   39SOL    HW2  117   2.289   1.427   3.124  2.0172  2.2678 -2.9822
   40SOL     OW  118   2.066   2.523   2.542 -0.0518 -0.0733 -0.0955
   40SOL    HW1  119   2.021   2.610   2.561  2.3094 -1.6554  3.0583
   40SOL    HW2  120   2.015   2.453   2.489  0.6639  1.1105  0.3911
   41SOL     OW  121   2.924   0.683   2.761  0.3469  0.4841 -0.0833
   41SOL    HW1  122   2.830   0.702   2.802  2.6278 -1.6956  1.9884
   41SOL    HW2  123   2.923   0.591   2.706 -1.6290  1.7725 -0.6234
   42SOL     OW  124   1.780   1.746   0.590  0.6485 -0.2840  0.0181
   42SOL    HW1  125   1.765   1.656   0.542 -0.6223  2.7891  0.6792
   42SOL    HW2  126   1.811   1.823   0.524 -1.3841  1.4240  0.8170
   43SOL     OW  127   0.459   1.746   1.193  1.3773  0.1570  0.1820
   43SOL    HW1  128   0.421   1.701   1.276  0.4132  0.1644  0.4438
   43SOL    HW2  129   0.382   1.760   1.120 -0.0842 -2.2772 -1.1845
   44SOL     OW  130   1.724   2.512   0.023  0.3312 -0.1422  0.2826
   44SOL    HW1  131   1.738   2.575  -0.059 -3.6239  0.0905  0.1222
   44SOL    HW2  132   1.799   2.504   0.096  2.1149 -1.7032  0.8025
   45SOL     OW  133   0.362   1.916   2.501 -0.0418  0.1707  0.5138
   45SOL    HW1  134   0.269   1.927   2.453 -0.2644 -0.2133 -2.2033
   45SOL    HW2  135   0.388   1.820   2.519  0.0776 -0.1965  1.5364
   46SOL     OW  136   1.151   0.637   0.168  0.1265 -0.5950 -0.1223
   46SOL    HW1  137   1.196   0.716   0.116  1.7565 -0.2996 -2.0173
   46SOL    HW2  138   1.061   0.656   0.216 -0.8788 -0.5877  0.7552
   47SOL     OW  139   0.238   2.469   1.623 -0.1028 -0.3678 -0.3253
   47SOL    HW1  140   0.317   2.397   1.611  1.2605  1.8341 -1.0986
   47SOL    HW2  141   0.212   2.510   1.533 -0.1231  1.8315  0.4190
   48SOL     OW  142   2.585   0.553   0.143 -0.6151  0.1385  0.7919
   48SOL    HW1  143   2.552   0.580   0.234 -2.7237 -2.6386  1.4775
   48SOL    HW2  144   2.650   0.627   0.103  2.2202  1.0791 -1.7161
   49SOL     OW  145   0.338   0.864   1.744 -0.0816  0.6647 -0.4748
   49SOL    HW1  146   0.408   0.907   1.806 -0.8266 -0.4726 -0.2849
   49SOL    HW2  147   0.378   0.799   1.673 -0.4134 -1.5595 -1.0775
   50SOL     OW  148   1.747   1.071   0.359 -0.2252  0.1509  0.1287
   50SOL    HW1  149   1.762   0.972   0.344  0.4295  3.9232  1.6471
   50SOL    HW2  150   1.698   1.090   0.450 -0.1307 -0.5276 -2.0632
   51SOL     OW  151   3.006   1.905   0.393  0.3318  0.0967 -0.0411
   51SOL    HW1  152   3.016   1.952   0.301 -0.1251 -0.5829 -0.9546
   51SOL    HW2  153   2.987   1.804   0.382  0.2447 -1.2389  0.8705
   52SOL     OW  154   0.817   1.964   0.502  0.1403 -0.0770  0.2963
   52SOL    HW1  155   0.733   2.016   0.529  1.1973 -0.4762  1.8008
   52SOL    HW2  156   0.841   1.887   0.572 -0.2170 -1.0729  0.7765
   53SOL     OW  157   3.073   0.352   1.518 -0.4941  0.1784  0.5078
   53SOL    HW1  158   2.974   0.323   1.495  0.0634  0.1920  3.0608
   53SOL    HW2  159   3.079   0.454   1.521 -1.9314 -0.8023 -0.3087
   54SOL     OW  160   1.738   0.479   3.008  0.1735 -0.4412 -0.2030
   54SOL    HW1  161   1.785   0.437   3.086 -0.4170 -0.5078 -1.1934
   54SOL    HW2  162   1.636   0.475   3.020 -1.8772  0.9918 -0.4541
   55SOL     OW  163   0.711   2.928   0.627 -0.0835  0.1408 -0.3657
   55SOL    HW1  164   0.675   3.026   0.619  0.7993 -1.6048  1.4725
   55SOL    HW2  165   0.813   2.932   0.592  1.8747  0.4625  0.0127
   56SOL     OW  166   0.494   1.554   3.052 -0.2827  0.1938  0.0321
   56SOL    HW1  167   0.415   1.610   3.096 -2.2414  1.0470 -1.4329
   56SOL    HW2  168   0.456   1.466   3.010  3.1965  1.9953  0.9606
   57SOL     OW  169   1.776   2.378   2.633  0.2383  0.0601  0.5089
   57SOL    HW1  170   1.827   2.359   2.545  0.4663 -0.4944  2.3964
   57SOL    HW2  171   1.685   2.426   2.608 -0.5008  0.4882  0.1694
   58SOL     OW  172   0.593   0.452   1.103 -1.0319 -0.4345  0.0160
   58SOL    HW1  173   0.531   0.534   1.099  5.1507 -0.0158  0.1273
   58SOL    HW2  174   0.538   0.363   1.123  3.6228 -1.3054 -0.3226
   59SOL     OW  175   0.470   2.415   2.666  0.1559 -0.0642  0.5117
   59SOL    HW1  176   0.485   2.318   2.680  0.5001  0.6249 -0.4611
   59SOL    HW2  177   0.561   2.463   2.665  0.1786 -0.2413  1.8805
   60SOL     OW  178   2.333   2.188   2.262 -0.0876 -0.2292  0.5745
   60SOL    HW1  179   2.413   2.212   2.201 -2.8263 -2.1452 -0.6884
   60SOL    HW2  180   2.340   2.207   2.364 -0.0898 -2.4058  1.0257
   61SOL     OW  181   1.383   0.578   0.436  0.5991 -0.0295  0.4044
   61SOL    HW1  182   1.294   0.621   0.462 -0.0070 -0.2641  1.2083
   61SOL    HW2  183   1.391   0.572   0.334 -0.4009  0.6571  1.1285
   62SOL     OW  184   2.660   1.867   3.092 -0.1863 -0.1517 -0.0673
   62SOL    HW1  185   2.675   1.764   3.091 -1.3854  0.3370 -3.2959
   62SOL    HW2  186   2.708   1.912   3.014  4.4164 -0.8971  0.2883
   63SOL     OW  187   0.524   0.804   0.163  0.4198  0.6502 -0.2386
   63SOL    HW1  188   0.512   0.907   0.151 -0.9950  0.5204  3.1109
   63SOL    HW2  189   0.604   0.777   0.222 -3.1371 -1.7560  1.0262
   64SOL     OW  190   0.095   0.502   2.523  0.2297 -0.2884 -0.1480
   64SOL    HW1  191   0.055   0.530   2.615 -0.4197 -2.6569  2.7649
   64SOL    HW2  192   0.084   0.566   2.439  2.3339 -1.5313  0.2541
   65SOL     OW  193   0.184   1.469   0.629  0.0031  0.4849  0.0037
   65SOL    HW1  194   0.197   1.543   0.701  1.9492  0.8750  0.3937
   65SOL    HW2  195   0.280   1.431   0.598  1.7472  0.8380 -2.2613
   66SOL     OW  196   2.470   0.382   0.703 -0.2797  0.4156  0.5002
   66SOL    HW1  197   2.389   0.453   0.697  1.5291 -0.7134 -0.5865
   66SOL    HW2  198   2.439   0.283   0.715 -0.5145 -0.7162 -0.6693
   67SOL     OW  199   0.498   2.535   1.338  0.1616  0.2399  0.1237
   67SOL    HW1  200   0.597   2.567   1.341  2.0632 -1.1229  1.0949
   67SOL    HW2  201   0.483   2.430   1.319  0.4652 -0.9931 -1.2954
   68SOL     OW  202   1.019   1.097   2.445  0.3746 -0.1389 -0.1926
   68SOL    HW1  203   1.084   1.034   2.392  1.6840 -1.1004 -3.4488
   68SOL    HW2  204   0.952   1.148   2.382 -3.7748 -0.5935 -0.5068
   69SOL     OW  205   0.779   2.701   2.158 -0.3065  0.0435  0.0593
   69SOL    HW1  206   0.816   2.614   2.189 -1.7130 -1.5016 -1.4749
   69SOL    HW2  207   0.672   2.698   2.160 -1.1397  0.4303 -0.0078
   70SOL     OW  208   0.606   0.255   2.711 -0.0091  0.0865 -0.0094
   70SOL    HW1  209   0.572   0.300   2.798  1.0468 -1.3575  0.5987
   70SOL    HW2  210   0.580   0.157   2.701 -1.2453  0.5187  0.6455
   71SOL     OW  211   1.073   1.783   0.366 -0.1006  0.0563 -0.7072
   71SOL    HW1  212   1.041   1.682   0.375  1.1489 -1.7537  0.2761
   71SOL    HW2  213   1.072   1.822   0.267 -1.1660 -1.4449 -0.7751
   72SOL     OW  214   1.812   0.074   2.083  0.5523  0.5375 -0.2020
   72SOL    HW1  215   1.863   0.108   2.001 -2.4911 -0.7937  1.8933
   72SOL    HW2  216   1.838  -0.027   2.106 -0.5493  0.4521  1.0476
   73SOL     OW  217   2.824   2.223   2.522 -0.4714  0.2261 -0.2163
   73SOL    HW1  218   2.814   2.130   2.471  0.4215  0.1906 -1.1274
   73SOL    HW2  219   2.834   2.221   2.625  1.1771 -0.5785  2.7474
   74SOL     OW  220   2.746   3.017   2.045  0.2825 -0.3251 -0.2771
   74SOL    HW1  221   2.674   3.004   2.116 -0.1625  1.6999  0.6887
   74SOL    HW2  222   2.843   2.995   2.079  1.6247  1.9928 -0.4287
   75SOL     OW  223   0.914   0.757   0.994  0.2436  0.5389  0.1573
   75SOL    HW1  224   0.838   0.826   0.993  0.7301 -0.2791 -0.4838
   75SOL    HW2  225   0.974   0.760   1.086 -0.3991 -1.9430  0.4764
   76SOL     OW  226   1.748   1.232   2.557 -0.2349  0.1923  0.3269
   76SOL    HW1  227   1.654   1.207   2.584  1.6063  2.6492 -0.3967
   76SOL    HW2  228   1.780   1.320   2.611 -2.5202  2.6884 -2.8961
   77SOL     OW  229   2.992   0.978   0.984  0.0183 -0.0495  0.5556
   77SOL    HW1  230   2.961   0.878   0.972  0.2383  0.6640  0.9883
   77SOL    HW2  231   3.070   1.001   1.049  0.2424  1.0010  1.4445
   78SOL     OW  232   1.971   1.402   1.479 -0.1711  0.1634  0.1302
   78SOL    HW1  233   2.058   1.391   1.425  4.7137  0.7893  1.8060
   78SOL    HW2  234   1.896   1.341   1.442  0.1697 -0.9682 -0.6424
   79SOL     OW  235   0.607   1.323   0.852 -0.8564 -0.0975 -0.3985
   79SOL    HW1  236   0.517   1.353   0.893  0.4077 -0.3885  1.3410
   79SOL    HW2  237   0.591   1.270   0.761 -1.5042  0.8476  1.1668
   80SOL     OW  238   0.659   0.487   1.610  0.3834 -0.0660  0.1170
   80SOL    HW1  239   0.738   0.530   1.554 -1.3648  0.6054 -0.0908
   80SOL    HW2  240   0.632   0.392   1.578  0.1883 -0.3169  1.1718
   81SOL     OW  241   1.069   1.393   2.633 -0.3074 -0.1930  0.3476
   81SOL    HW1  242   1.009   1.358   2.710 -1.5265 -0.6466 -2.8063
   81SOL    HW2  243   1.031   1.380   2.540  1.3123 -1.1257  0.5327
   82SOL     OW  244   0.900   2.999   1.518  0.0988 -0.6162  0.0048
   82SOL    HW1  245   0.936   2.989   1.426 -3.0517 -2.8550  1.9730
   82SOL    HW2  246   0.828   2.929   1.537  0.5566  2.0022  3.0836
   83SOL     OW  247   2.756   2.442   0.797  0.0157  0.3690 -0.0502
   83SOL    HW1  248   2.669   2.414   0.751  0.5783  1.7307 -2.1669
   83SOL    HW2  249   2.818   2.496   0.731 -2.6596  1.4358 -0.7785
   84SOL     OW  250   0.693   0.011   2.403  0.8105 -0.1671 -0.1444
   84SOL    HW1  251   0.611  -0.058   2.416 -2.4612  2.3719  0.5657
   84SOL    HW2  252   0.770  -0.013   2.465 -1.2876 -0.6076  1.6664
   85SOL     OW  253   0.396   1.646   1.479 -0.4109  0.0178  0.0834
   85SOL    HW1  254   0.360   1.744   1.485  0.1049  2.8011  0.6754
   85SOL    HW2  255   0.397   1.603   1.578 -1.4219  0.5266  2.3645
   86SOL     OW  256   0.349   1.010   1.478 -0.0175 -0.4610  0.0949
   86SOL    HW1  257   0.336   0.932   1.409  0.6084 -0.5999 -0.1720
   86SOL    HW2  258   0.360   0.981   1.577 -4.5045  1.5411  1.7435
   87SOL     OW  259   1.588   0.597   0.202 -0.1243  0.1902 -0.1157
   87SOL    HW1  260   1.644   0.684   0.207 -0.4174  1.3515  0.4062
   87SOL    HW2  261   1.553   0.572   0.106 -1.0876  3.9089 -1.2230
   88SOL     OW  262   1.583   1.245   0.191 -0.2863  0.0999 -0.0025
   88SOL    HW1  263   1.615   1.156   0.238 -0.5207 -0.6072 -0.6498
   88SOL    HW2  264   1.487   1.273   0.224  2.0729 -0.6213  3.6359
   89SOL     OW  265   3.009   0.456   0.573 -0.1747 -0.4330  0.1841
   89SOL    HW1  266   3.069   0.375   0.602  2.4100 -1.5688  2.8526
   89SOL    HW2  267   2.904   0.430   0.581 -2.1366  0.4199 -1.5905
   90SOL     OW  268   0.966   1.657   3.066  0.4955  0.0809 -0.4396
   90SOL    HW1  269   0.876   1.632   3.117  0.5796 -0.5442 -1.4909
   90SOL    HW2  270   0.942   1.665   2.966  1.9692  1.4258  0.1998
   91SOL     OW  271   1.278   1.441   1.779 -0.1698  0.4664  0.0752
   91SOL    HW1  272   1.281   1.531   1.827  0.6012  1.1632 -0.4478
   91SOL    HW2  273   1.369   1.393   1.760 -0.8785  1.2130  1.2541
   92SOL     OW  274   0.091   1.050   1.170 -0.0170 -0.3955 -0.4298
   92SOL    HW1  275   0.176   1.059   1.113  1.1681  0.3517 -1.8725
   92SOL    HW2  276   0.108   1.019   1.270  0.6705  1.1405  2.7176
   93SOL     OW  277   0.048   2.844   0.046 -0.4276 -0.0541  0.8350
   93SOL    HW1  278   0.006   2.819  -0.045  1.0464  2.1657  2.0845
   93SOL    HW2  279   0.074   2.764   0.103 -0.1217  1.6624 -0.2289
   94SOL     OW  280   1.510   1.337   1.685  0.3647  0.3849  0.0380
   94SOL    HW1  281   1.540   1.238   1.689  3.7587  1.1683  2.0689
   94SOL    HW2  282   1.574   1.400   1.733 -0.7793  0.3180 -1.2430
   95SOL     OW  283   1.360   2.475   2.923 -0.5355 -0.2533  0.4308
   95SOL    HW1  284   1.287   2.475   2.994 -1.1756  0.4835  0.7380
   95SOL    HW2  285   1.384   2.382   2.888 -1.4938  0.4269 -0.1041
   96SOL     OW  286   0.511   2.010   1.226 -0.3826 -0.7252 -0.3126
   96SOL    HW1  287   0.469   2.043   1.140 -1.5981 -2.7644 -0.2205
   96SOL    HW2  288   0.493   1.909   1.235 -0.8610 -0.8634 -1.5575
   97SOL     OW  289   0.319   1.446   2.484  1.0587 -0.1445  0.1650
   97SOL    HW1  290   0.216   1.433   2.502 -1.8356 -1.8520 -2.4409
   97SOL    HW2  291   0.351   1.523   2.543 -0.3918  0.4927  1.3292
   98SOL     OW  292   2.037   1.704   1.307 -0.9724 -0.0911  0.1426
   98SOL    HW1  293   2.044   1.654   1.220  2.6497  0.2454  2.8322
   98SOL    HW2  294   2.075   1.643   1.386 -0.6671 -0.7430  0.9978
   99SOL     OW  295   2.464   2.143   1.321 -0.0169 -0.5210 -0.0321
   99SOL    HW1  296   2.506   2.176   1.407  0.1532 -0.2489 -0.2815
   99SOL    HW2  297   2.448   2.039   1.315 -0.4944 -1.7463  2.0747
  100SOL     OW  298   2.283   0.390   2.031 -0.1276 -0.5701 -0.1046
  100SOL    HW1  299   2.248   0.336   2.113 -2.9793 -2.0033  2.9968
  100SOL    HW2  300   2.378   0.426   2.057 -1.2086  0.1871  1.7894
  101SOL     OW  301   0.416   1.442   0.279 -0.0424  0.3308 -0.1916
  101SOL    HW1  302   0.446   1.475   0.374 -2.0719 -1.1720  2.3925
  101SOL    HW2  303   0.489   1.450   0.207 -0.4785  1.4928  1.2925
  102SOL     OW  304   2.280   1.061   0.798  0.2754 -0.1167 -0.0627
  102SOL    HW1  305   2.199   1.005   0.771 -0.6782 -1.1528 -2.2793
  102SOL    HW2  306   2.312   1.134   0.728  1.6924 -1.3432 -1.2600
  103SOL     OW  307   2.301   0.088   0.413 -0.1380  0.0923  0.2825
  103SOL    HW1  308   2.366   0.153   0.367  1.6018 -0.8098  0.9736
  103SOL    HW2  309   2.344   0.023   0.481  2.0242  0.3014  2.8155
  104SOL     OW  310   0.078   1.876   2.139  0.2095 -0.0435 -0.7891
  104SOL    HW1  311   0.123   1.829   2.057  3.0722 -4.4161 -0.4071
  104SOL    HW2  312  -0.028   1.879   2.141 -0.2777  0.5048  2.2418
  105SOL     OW  313   1.119   1.964   0.842  0.1823 -0.6868 -0.2664
  105SOL    HW1  314   1.065   2.037   0.790 -0.6366  0.1784  1.4097
  105SOL    HW2  315   1.120   1.872   0.791  1.1522 -0.5228 -2.0774
  106SOL     OW  316   2.051   0.451   1.339  0.2311 -0.4579  0.0423
  106SOL    HW1  317   2.017   0.363   1.385 -1.4146  0.9887  0.3769
  106SOL    HW2  318   2.023   0.530   1.401  2.3412 -2.3767  1.9947
  107SOL     OW  319   1.816   3.021   1.096  0.1723 -0.1927 -0.4757
  107SOL    HW1  320   1.863   3.088   1.161  1.4871 -1.5172  1.1220
  107SOL    HW2  321   1.771   2.938   1.143 -1.1648  2.4769 -0.1264
  108SOL     OW  322   0.748   2.643   1.309 -0.1145 -0.3181 -0.1151
  108SOL    HW1  323   0.745   2.718   1.379 -0.3230  3.2125 -1.9215
  108SOL    HW2  324   0.843   2.597   1.308  0.8742  0.2697  2.3324
  109SOL     OW  325   2.097   0.094   0.705 -0.0221  0.0921  0.2537
  109SOL    HW1  326   2.024   0.065   0.637 -0.0924 -2.1131  1.8444
  109SOL    HW2  327   2.067   0.078   0.804  0.2258 -1.8576  1.5104
  110SOL     OW  328   0.488   2.778   2.729 -0.3441  0.8008 -0.7548
  110SOL    HW1  329   0.498   2.812   2.629 -0.0089  1.4288  0.7862
  110SOL    HW2  330   0.561   2.705   2.756  1.4737 -1.4661 -1.4170
  111SOL     OW  331   1.298   0.516   2.299  0.3272 -0.2396 -0.1327
  111SOL    HW1  332   1.220   0.562   2.353  0.5817 -1.3611 -1.9281
  111SOL    HW2  333   1.340   0.437   2.347 -2.1638  3.4060 -0.8320
  112SOL     OW  334   1.713   0.488   1.434 -0.1403 -0.1235 -0.7553
  112SOL    HW1  335   1.690   0.442   1.346  1.0261  0.2481 -1.8467
  112SOL    HW2  336   1.727   0.424   1.515  2.1325  0.5559  1.9734
  113SOL     OW  337   2.312   1.663   1.742  0.0228 -0.1707 -0.2941
  113SOL    HW1  338   2.349   1.562   1.729  0.1917 -2.4384 -0.6536
  113SOL    HW2  339   2.322   1.702   1.837 -0.1069  2.1432 -1.4256
  114SOL     OW  340   0.364   0.582   1.285 -0.8349  0.3141  0.0850
  114SOL    HW1  341   0.381   0.682   1.265  1.4304 -0.7415  1.3129
  114SOL    HW2  342   0.323   0.532   1.207 -1.2527 -0.4763  0.8576
  115SOL     OW  343   2.643   1.589   1.239 -0.8757 -0.1231 -0.0113
  115SOL    HW1  344   2.691   1.504   1.271  0.3950 -1.2221 -0.8675
  115SOL    HW2  345   2.689   1.630   1.155  0.0890  0.6065  0.0845
  116SOL     OW  346   1.826   1.057   0.771  0.0502  0.2244  0.4227
  116SOL    HW1  347   1.757   0.997   0.718 -1.3765  1.1335 -2.7217
  116SOL    HW2  348   1.824   1.159   0.752 -0.5171 -0.1429  0.5261
  117SOL     OW  349   1.148   0.363   0.652  0.3220 -0.4929  0.3067
  117SOL    HW1  350   1.161   0.368   0.753  1.0435  2.3162 -0.1926
  117SOL    HW2  351   1.154   0.456   0.603 -2.4971 -0.6895 -1.7357
  118SOL     OW  352   1.062   1.089   1.102  0.4784  0.0561  1.1674
  118SOL    HW1  353   1.041   0.995   1.135 -0.6796  2.7814 -2.7660
  118SOL    HW2  354   1.073   1.158   1.182 -1.4691 -0.4391 -0.4941
  119SOL     OW  355   1.822   1.611   2.020 -0.2536  0.7112  0.3581
  119SOL    HW1  356   1.795   1.704   2.055  3.5680 -3.5467  1.1185
  119SOL    HW2  357   1.922   1.589   2.031  0.6762 -0.6730 -0.9449
  120SOL     OW  358   2.953   2.787   0.323  0.5676  0.2265  0.1079
  120SOL    HW1  359   2.872   2.766   0.260 -0.4834 -2.0202  1.4474
  120SOL    HW2  360   2.984   2.698   0.360 -2.5393  0.5012  2.0349
  121SOL     OW  361   2.021   0.756   2.180 -0.3428 -0.3104  0.1403
  121SOL    HW1  362   2.072   0.760   2.089  0.9531 -1.2508 -1.1487
  121SOL    HW2  363   1.997   0.660   2.207  0.9092  2.9928  1.7568
  122SOL     OW  364   2.735   2.546   1.369  0.6450  0.1665  0.2045
  122SOL    HW1  365   2.751   2.549   1.269 -0.0943  1.0065  1.7288
  122SOL    HW2  366   2.702   2.451   1.402 -2.8163 -3.7437  0.2119
  123SOL     OW  367   1.718   0.034   1.690 -0.4264  0.1544  0.4308
  123SOL    HW1  368   1.724  -0.035   1.610  0.7569 -0.8173 -1.3070
  123SOL    HW2  369   1.809   0.056   1.733 -1.8362 -1.7164  0.8787
  124SOL     OW  370   0.179   0.488   1.043 -0.2303 -0.4129  0.4615
  124SOL    HW1  371   0.157   0.563   1.106  2.3459 -1.8624  0.2201
  124SOL    HW2  372   0.125   0.482   0.958  1.9586 -0.6721 -1.8433
  125SOL     OW  373   0.871   1.769   0.677  0.2908  0.5464 -0.3005
  125SOL    HW1  374   0.974   1.760   0.664 -2.2663  0.8799 -1.1985
  125SOL    HW2  375   0.836   1.703   0.752 -0.5215 -0.6310  0.9789
  126SOL     OW  376   1.909   2.372   2.391  0.5308 -0.1822 -0.0835
  126SOL    HW1  377   1.973   2.303   2.347  0.5367  1.6452 -1.8144
  126SOL    HW2  378   1.824   2.392   2.336 -0.1455  1.1537  2.4798
  127SOL     OW  379   0.878   0.983   0.182 -0.7218 -0.0386  0.0796
  127SOL    HW1  380   0.887   1.025   0.276 -2.3676  0.9381  0.3391
  127SOL    HW2  381   0.879   0.880   0.189 -2.7742  1.0932 -1.2910
  128SOL     OW  382   0.995   0.160   1.479 -0.0418 -0.0141  0.3678
  128SOL    HW1  383   0.953   0.222   1.407 -0.4864  0.3561 -0.4014
  128SOL    HW2  384   0.940   0.083   1.516  0.6160 -1.0728 -1.6731
  129SOL     OW  385   1.807   0.705   1.868  0.5697 -0.4239  0.7765
  129SOL    HW1  386   1.816   0.702   1.761  2.3303  0.0957 -3.0557
  129SOL    HW2  387   1.846   0.800   1.903 -0.2448  1.3358 -1.2568
  130SOL     OW  388   1.321   2.074   0.993  0.5546 -0.7243  0.0007
  130SOL    HW1  389   1.265   2.028   0.921 -0.7667  0.8074  2.4512
  130SOL    HW2  390   1.362   2.167   0.968 -1.1825  3.0756  1.6337
  131SOL     OW  391   0.007   1.517   1.361  0.1459  0.3832  0.5638
  131SOL    HW1  392  -0.041   1.424   1.341  0.0192 -0.9758 -0.2268
  131SOL    HW2  393   0.111   1.507   1.371  0.5788 -1.0962  3.6922
  132SOL     OW  394   1.932   2.505   0.528  0.5482  0.0550  0.0629
  132SOL    HW1  395   1.828   2.519   0.532  1.7239 -2.3815 -1.9484
  132SOL    HW2  396   1.979   2.503   0.620  1.4139 -0.4836 -1.2786
  133SOL     OW  397   1.818   2.280   2.913 -0.0307 -0.2932 -0.0517
  133SOL    HW1  398   1.772   2.331   2.987  0.0687  0.4705 -2.7349
  133SOL    HW2  399   1.820   2.329   2.818  2.2445 -0.9662  0.5010
  134SOL     OW  400   2.649   2.354   1.613  0.4386  0.0879  0.0450
  134SOL    HW1  401   2.585   2.332   1.693  1.5771 -2.4202  1.3348
  134SOL    HW2  402   2.723   2.425   1.639  0.3847 -2.0036 -0.6929
  135SOL     OW  403   0.722   1.532   2.558 -0.1808  0.6061 -0.0836
  135SOL    HW1  404   0.708   1.429   2.579  2.1654 -3.2911 -1.0862
  135SOL    HW2  405   0.785   1.537   2.478 -2.3411 -1.1011  4.3690
  136SOL     OW  406   1.184   2.062   0.471  0.3112 -0.3360  0.2991
  136SOL    HW1  407   1.120   2.090   0.551 -0.2046  0.5574 -1.1206
  136SOL    HW2  408   1.174   1.960   0.452  2.9435  0.3792  2.1497
  137SOL     OW  409   0.380   1.059   2.208 -0.1662  0.6116  0.0554
  137SOL    HW1  410   0.296   1.099   2.252  0.7973  0.9846  0.4976
  137SOL    HW2  411   0.419   0.975   2.261  0.0261  2.5197  1.2554
  138SOL     OW  412   2.450   1.473   0.269 -0.4432 -0.4428 -0.5192
  138SOL    HW1  413   2.349   1.459   0.243  1.7763 -0.8886  0.3477
  138SOL    HW2  414   2.500   1.389   0.303 -0.1496  1.9072 -1.3356
  139SOL     OW  415   1.786   2.584   1.226  0.4465  0.5568 -0.2515
  139SOL    HW1  416   1.691   2.571   1.191  0.6643 -0.0518 -1.3091
  139SOL    HW2  417   1.802   2.530   1.315  1.3491  3.1433  0.8366
  140SOL     OW  418   3.002   2.980   2.541  0.1284 -0.3386 -0.2506
  140SOL    HW1  419   3.022   2.881   2.558 -3.3085 -0.3361 -2.8855
  140SOL    HW2  420   3.090   3.037   2.542  0.7688  1.3519  1.2961
  141SOL     OW  421   1.158   1.619   1.572  0.8633  0.6554 -0.2893
  141SOL    HW1  422   1.131   1.710   1.621  1.3648  0.5110 -1.6297
  141SOL    HW2  423   1.238   1.569   1.621 -1.4901 -0.5481 -0.3794
  142SOL     OW  424   1.552   0.614   2.268 -0.1141  0.0299  0.0275
  142SOL    HW1  425   1.575   0.594   2.168 -2.6083  1.2031  1.1489
  142SOL    HW2  426   1.453   0.593   2.290  0.8667 -0.8665 -2.4691
  143SOL     OW  427   2.786   0.869   0.511 -0.4282 -0.1218 -0.5788
  143SOL    HW1  428   2.800   0.893   0.413 -0.0326 -2.7654 -1.7326
  143SOL    HW2  429   2.810   0.942   0.584 -1.0439 -0.9547  1.1025
  144SOL     OW  430   2.988   1.259   1.362 -0.6224 -0.4645 -0.1469
  144SOL    HW1  431   3.014   1.246   1.463 -2.9202  2.1284  1.1041
  144SOL    HW2  432   3.039   1.190   1.304  1.4137  2.1711 -1.2415
  145SOL     OW  433   1.075   1.885   0.079  0.1009  0.3481  0.2977
  145SOL    HW1  434   1.065   1.964   0.010  1.5175  0.6866 -1.4784
  145SOL    HW2  435   1.046   1.793   0.040  0.9349 -0.2126 -2.0728
  146SOL     OW  436   2.539   0.657   1.458 -0.5501 -0.2791  0.0794
  146SOL    HW1  437   2.465   0.583   1.464  1.9098  0.0702 -0.9518
  146SOL    HW2  438   2.495   0.749   1.457  0.4016 -3.0863 -2.3693
  147SOL     OW  439   1.046   2.564   0.606 -0.3971 -0.8124  0.2544
  147SOL    HW1  440   1.029   2.628   0.526  0.2806 -0.4900 -0.7536
  147SOL    HW2  441   1.135   2.507   0.601 -2.3819 -0.5334  0.7583
  148SOL     OW  442   1.625   1.439   3.064 -0.0758 -0.0034  0.9157
  148SOL    HW1  443   1.664   1.360   3.006 -0.7898  1.1410 -0.0533
  148SOL    HW2  444   1.601   1.400   3.159 -2.2719 -0.2717  2.5671
  149SOL     OW  445   0.664   1.406   1.964  0.4692  0.0490  0.0155
  149SOL    HW1  446   0.579   1.366   2.009  0.5113  0.9319 -0.3674
  149SOL    HW2  447   0.724   1.341   1.910  0.2303 -0.2509  1.5022
  150SOL     OW  448   2.975   1.286   0.931 -0.0483 -0.3647 -0.4091
  150SOL    HW1  449   3.064   1.306   0.981  1.1302  2.2597  0.3769
  150SOL    HW2  450   2.955   1.184   0.927  2.9751  0.0963  0.7604
  151SOL     OW  451   0.169   0.767   2.093 -0.1778 -0.0074  0.3827
  151SOL    HW1  452   0.162   0.868   2.057 -1.0093  2.0933  2.7485
  151SOL    HW2  453   0.241   0.711   2.043  3.8345  0.4587 -0.9655
  152SOL     OW  454   1.405   1.755   1.281 -0.0490  0.0093 -0.0627
  152SOL    HW1  455   1.417   1.848   1.326  0.9476  0.4734 -0.2158
  152SOL    HW2  456   1.323   1.758   1.214  1.7767  0.5804  0.6904
  153SOL     OW  457   0.078   1.524   0.173  0.3720  0.4559 -0.4855
  153SOL    HW1  458   0.058   1.422   0.188  1.0932 -2.5472 -1.9821
  153SOL    HW2  459   0.087   1.568   0.267 -2.6711  0.9800 -2.4201
  154SOL     OW  460   2.405   1.941   2.830  0.1625 -0.7984  0.2066
  154SOL    HW1  461   2.401   1.840   2.849 -1.1128  1.8178  0.4536
  154SOL    HW2  462   2.433   1.951   2.732  0.6896 -2.1748  2.5883
  155SOL     OW  463   2.519   1.211   0.397 -0.1574 -0.1596 -0.3429
  155SOL    HW1  464   2.591   1.212   0.320  1.2018  1.5268 -3.5431
  155SOL    HW2  465   2.487   1.113   0.425  2.5960 -1.7287  3.1977
  156SOL     OW  466   2.540   0.960   0.875 -0.3197 -0.4729 -0.0020
  156SOL    HW1  467   2.455   1.008   0.896  1.6701  0.7203 -3.1263
  156SOL    HW2  468   2.627   1.005   0.904  2.3579 -0.8936  0.1860
  157SOL     OW  469   1.330   3.024   3.059 -0.4843  0.9894 -1.0688
  157SOL    HW1  470   1.383   2.987   2.978  0.8072 -2.3499  1.2285
  157SOL    HW2  471   1.344   3.126   3.055  1.2847 -1.8240 -1.7544
  158SOL     OW  472   1.048   1.894   2.010 -0.0756  0.5723  0.3187
  158SOL    HW1  473   1.117   1.870   2.081 -0.0823  0.3486  1.5306
  158SOL    HW2  474   0.954   1.924   2.049 -2.4681  0.2313 -0.1718
  159SOL     OW  475   0.872   0.361   1.321 -0.2494  0.2113 -0.4459
  159SOL    HW1  476   0.855   0.461   1.332 -0.3583 -0.9048  0.9301
  159SOL    HW2  477   0.820   0.323   1.244 -1.0204  0.5364  2.0746
  160SOL     OW  478   1.465   2.391   1.664  0.4291 -0.0149  0.1855
  160SOL    HW1  479   1.450   2.471   1.597  0.3341  2.1801 -1.8380
  160SOL    HW2  480   1.562   2.351   1.660 -0.4146  1.0600 -2.9520
  161SOL     OW  481   0.117   2.937   0.345  0.2127 -0.2988 -0.1221
  161SOL    HW1  482   0.034   2.882   0.366  2.2972  1.3396 -1.9362
  161SOL    HW2  483   0.105   3.000   0.258 -0.2574 -1.8773  1.2665
  162SOL     OW  484   2.589   1.892   0.515 -0.5895 -0.0250  0.3595
  162SOL    HW1  485   2.595   1.834   0.428 -2.7102  1.5309 -2.0560
  162SOL    HW2  486   2.588   1.834   0.601  1.8500 -2.5750  1.1315
  163SOL     OW  487   1.982   2.728   0.765 -0.2752 -0.2675  0.2087
  163SOL    HW1  488   1.943   2.749   0.667 -1.8262  0.8899  0.2181
  163SOL    HW2  489   2.059   2.653   0.761  1.0472 -1.5419 -0.8502
  164SOL     OW  490   3.078   0.280   1.252 -0.4212  0.5472 -0.5512
  164SOL    HW1  491   3.169   0.282   1.202  0.6871 -1.6570 -0.0087
  164SOL    HW2  492   3.090   0.287   1.357  0.0066 -0.2463 -0.6265
  165SOL     OW  493   0.979   1.437   0.664 -0.0042  0.9827  0.1689
  165SOL    HW1  494   0.909   1.479   0.732 -1.8723 -0.0056  0.2432
  165SOL    HW2  495   0.999   1.488   0.579  0.1711 -2.0574  0.9194
  166SOL     OW  496   1.427   1.045   1.765  0.6874 -0.0176 -0.2370
  166SOL    HW1  497   1.333   1.029   1.819 -2.7685 -1.2063 -1.0287
  166SOL    HW2  498   1.510   1.078   1.821 -0.6712  1.7672 -1.9702
  167SOL     OW  499   0.882   1.895   1.557 -0.1175  0.7582  0.1516
  167SOL    HW1  500   0.860   1.977   1.619  1.1150 -0.2607 -1.0390
  167SOL    HW2  501   0.803   1.830   1.544 -0.2930  1.5130 -0.4362
  168SOL     OW  502   1.499   2.368   0.135  0.0968  0.0559 -0.0159
  168SOL    HW1  503   1.584   2.405   0.090 -0.1346 -0.2382  0.5743
  168SOL    HW2  504   1.524   2.310   0.217  0.0880  1.4680  0.4577
  169SOL     OW  505   0.175   2.573   2.177  0.1152  0.0507  0.2188
  169SOL    HW1  506   0.236   2.518   2.116 -0.0348 -0.0443  0.7817
  169SOL    HW2  507   0.111   2.508   2.227  1.4560  0.7535 -0.4197
  170SOL     OW  508   1.262   0.298   1.880 -0.2246  0.3602  0.1239
  170SOL    HW1  509   1.310   0.275   1.970  1.4888 -0.1862  0.6020
  170SOL    HW2  510   1.230   0.213   1.822 -1.7911  0.1249  0.7890
  171SOL     OW  511   0.266   0.812   2.427 -0.1224 -0.4826  0.2845
  171SOL    HW1  512   0.169   0.844   2.467  1.0065 -1.5466  0.7941
  171SOL    HW2  513   0.262   0.766   2.335  1.5550  1.0313 -0.6999
  172SOL     OW  514   0.911   1.122   2.923  0.0169  0.1285  0.2109
  172SOL    HW1  515   1.010   1.124   2.946 -2.7088  1.0843 -0.7299
  172SOL    HW2  516   0.889   1.097   2.823  1.7811  0.0372  2.7142
  173SOL     OW  517   0.670   2.710   0.150  0.1914 -0.0271  0.1677
  173SOL    HW1  518   0.668   2.812   0.140  0.8718 -0.7217 -0.2589
  173SOL    HW2  519   0.578   2.667   0.150  0.4397  0.9898 -2.6033
  174SOL     OW  520   1.336   2.754   1.044  0.4870  0.3649 -0.2173
  174SOL    HW1  521   1.319   2.839   0.987 -1.1927  1.1368  1.3206
  174SOL    HW2  522   1.294   2.671   1.002 -1.5909 -0.1300 -0.5624
  175SOL     OW  523   0.366   0.010   1.707  0.0144 -0.0377 -0.2678
  175SOL    HW1  524   0.452   0.046   1.751 -1.8516 -1.4085  1.3963
  175SOL    HW2  525   0.312   0.082   1.650 -0.0598 -1.2797 -2.8926
  176SOL     OW  526   2.581   0.367   3.052 -0.6760  0.1876  0.1505
  176SOL    HW1  527   2.574   0.455   3.108  1.2388  0.7671 -1.9068
  176SOL    HW2  528   2.519   0.285   3.078  0.8876 -2.1548 -0.6547
  177SOL     OW  529   0.381   0.390   0.885 -0.0921  0.6035  0.5508
  177SOL    HW1  530   0.446   0.336   0.944 -0.4208  1.0772  0.8713
  177SOL    HW2  531   0.301   0.425   0.938  0.9146  2.7729 -1.1776
  178SOL     OW  532   3.074   2.712   2.610 -0.0559  0.6212 -0.5774
  178SOL    HW1  533   2.985   2.684   2.654  0.6625  3.2143  2.6113
  178SOL    HW2  534   3.146   2.706   2.686  1.5838  0.3814 -0.1345
  179SOL     OW  535   0.019   1.712   1.160 -0.1586 -0.2042 -0.4071
  179SOL    HW1  536  -0.047   1.788   1.173  1.5489 -3.6774  1.1055
  179SOL    HW2  537  -0.003   1.632   1.220  0.3974  0.1409  3.4114
  180SOL     OW  538   0.193   1.252   1.838 -0.2259  0.1437  0.1448
  180SOL    HW1  539   0.291   1.233   1.818  1.3923 -1.3167 -0.4109
  180SOL    HW2  540   0.170   1.330   1.899 -0.7633 -2.1403 -2.9826
  181SOL     OW  541   2.989   1.818   2.529  0.5880 -0.2433  0.3557
  181SOL    HW1  542   3.091   1.819   2.522 -2.6748 -0.7947  0.1016
  181SOL    HW2  543   2.931   1.888   2.473 -2.4586  5.5967 -0.5959
  182SOL     OW  544   2.310   1.232   1.242  0.4097  0.5186 -0.6153
  182SOL    HW1  545   2.239   1.192   1.183  1.3889 -0.4378 -1.5626
  182SOL    HW2  546   2.342   1.324   1.202 -0.7150  2.1292 -1.5131
  183SOL     OW  547   1.508   2.250   2.508 -0.8181  0.3504  0.4942
  183SOL    HW1  548   1.417   2.202   2.509  1.0296  0.2162  2.5011
  183SOL    HW2  549   1.589   2.182   2.520 -2.1087 -3.4702 -1.6936
  184SOL     OW  550   2.055   0.918   0.754  0.4252  0.3505  0.0409
  184SOL    HW1  551   1.976   0.987   0.762 -0.9736  2.4830  1.6553
  184SOL    HW2  552   2.047   0.832   0.817  0.3794 -2.5906  0.1718
  185SOL     OW  553   1.679   2.736   2.105 -0.2000  0.0687 -0.3935
  185SOL    HW1  554   1.600   2.799   2.077  0.3662 -1.5373 -0.1585
  185SOL    HW2  555   1.672   2.712   2.207  0.6150 -0.4535  1.7955
  186SOL     OW  556   0.117   2.246   1.740 -0.3812 -0.3150  0.3101
  186SOL    HW1  557   0.134   2.346   1.714  0.9286  0.7639  1.3700
  186SOL    HW2  558   0.203   2.185   1.736 -3.1646 -0.6964  0.4545
  187SOL     OW  559   1.414   0.660   1.710  0.3498 -0.1035  0.0195
  187SOL    HW1  560   1.479   0.726   1.656  2.1098  1.5298 -0.4567
  187SOL    HW2  561   1.386   0.704   1.801 -0.6806  0.0292  0.8496
  188SOL     OW  562   2.754   2.755   1.526 -0.4743  0.1633 -0.0290
  188SOL    HW1  563   2.702   2.841   1.503  0.9519 -0.7237 -0.2395
  188SOL    HW2  564   2.711   2.670   1.479 -0.6780  1.5861 -1.2293
  189SOL     OW  565   0.758   0.999   1.480  0.1057 -0.2010  0.1661
  189SOL    HW1  566   0.842   1.061   1.482 -2.0554 -0.2833 -0.6109
  189SOL    HW2  567   0.741   0.948   1.388 -0.4530 -1.7271 -1.0396
  190SOL     OW  568   1.460   1.723   1.640  0.1366 -0.2624 -0.4604
  190SOL    HW1  569   1.378   1.775   1.616 -0.9246 -3.4230  0.6097
  190SOL    HW2  570   1.521   1.769   1.709 -2.8030 -0.7788 -1.3126
  191SOL     OW  571   1.017   0.804   1.541 -0.4633  0.1274 -0.0534
  191SOL    HW1  572   1.046   0.727   1.603  1.9381  0.1424  1.0022
  191SOL    HW2  573   1.099   0.855   1.498  1.1518 -0.1608  0.0666
  192SOL     OW  574   1.882   2.262   1.228 -0.6591  0.4241 -0.0294
  192SOL    HW1  575   1.796   2.248   1.179  2.5279  0.5766  0.9418
  192SOL    HW2  576   1.956   2.300   1.167  0.5405 -0.8163  1.9197
  193SOL     OW  577   0.526   0.561   0.319  0.1388  0.0964  0.3024
  193SOL    HW1  578   0.504   0.480   0.374  0.7935  1.9730 -0.6743
  193SOL    HW2  579   0.534   0.538   0.217  0.6962 -1.5584 -2.0647
  194SOL     OW  580   0.289   0.846   1.270 -0.7080  0.0169 -0.0450
  194SOL    HW1  581   0.206   0.786   1.253  1.5681 -0.3094  0.5342
  194SOL    HW2  582   0.317   0.889   1.179  0.0478  0.2823  0.2470
  195SOL     OW  583   0.948   2.940   0.480  0.1034  0.4216 -0.0306
  195SOL    HW1  584   0.954   2.846   0.441 -1.5124  2.4302  0.4998
  195SOL    HW2  585   1.036   2.988   0.478  0.5563 -1.6968 -1.4972
  196SOL     OW  586   0.261   1.433   1.385  0.7317 -0.0461  0.2557
  196SOL    HW1  587   0.317   1.510   1.430  0.3911  0.4096 -1.7664
  196SOL    HW2  588   0.249   1.350   1.448  0.7169 -1.5997  0.8606
  197SOL     OW  589   0.845   2.005   0.194  0.7721 -0.0290  0.3117
  197SOL    HW1  590   0.844   1.986   0.295  1.8552 -0.5767 -0.5639
  197SOL    HW2  591   0.917   1.946   0.144  1.2559 -0.2632 -1.0379
  198SOL     OW  592   0.278   1.217   0.243  0.2127  0.4007 -0.0032
  198SOL    HW1  593   0.177   1.230   0.214 -1.8479 -2.0811 -2.2124
  198SOL    HW2  594   0.329   1.306   0.252 -0.6368  1.4543 -3.1278
  199SOL     OW  595   2.271   0.391   2.522 -0.2288  0.2327  0.2987
  199SOL    HW1  596   2.225   0.347   2.602 -1.4667 -0.2392 -2.0805
  199SOL    HW2  597   2.375   0.391   2.536 -2.5024 -0.2952  1.9391
  200SOL     OW  598   3.092   2.877   0.792  0.0077  0.2042 -0.4350
  200SOL    HW1  599   3.022   2.902   0.719  0.4648 -1.6098  2.7274
  200SOL    HW2  600   3.146   2.960   0.819  0.2005 -1.8964  0.7289
  201SOL     OW  601   1.144   0.691   0.536  0.1383  0.1617 -0.1598
  201SOL    HW1  602   1.136   0.793   0.572 -0.3028  2.4275 -1.1368
  201SOL    HW2  603   1.048   0.652   0.516 -1.0546 -0.0856  1.8036
  202SOL     OW  604   0.439   1.229   1.758  0.1973  0.9434 -0.5401
  202SOL    HW1  605   0.502   1.232   1.672  0.6670  1.5677 -3.5275
  202SOL    HW2  606   0.477   1.170   1.837 -2.4643  0.9417 -2.0767
  203SOL     OW  607   0.627   0.235   1.514  0.3609  0.5143  0.1376
  203SOL    HW1  608   0.625   0.183   1.423  3.4441 -1.8771  1.1804
  203SOL    HW2  609   0.644   0.178   1.597  2.7490  0.0581 -3.0114
  204SOL     OW  610   2.078   1.875   3.028  0.1840  0.2803  0.0299
  204SOL    HW1  611   2.099   1.775   3.003  1.8241 -0.6536  2.5655
  204SOL    HW2  612   2.027   1.926   2.952  0.6445  2.9404  1.7733
  205SOL     OW  613   1.853   1.855   0.104 -0.2289 -0.1233  0.0100
  205SOL    HW1  614   1.925   1.831   0.027  0.8513 -0.5465 -2.5456
  205SOL    HW2  615   1.787   1.931   0.074  1.2767 -0.9764  0.7618
  206SOL     OW  616   2.506   2.823   0.395  0.2519 -0.1100  0.7611
  206SOL    HW1  617   2.564   2.749   0.439  0.4331  0.2144 -0.4297
  206SOL    HW2  618   2.553   2.880   0.318 -0.6437 -0.5297  1.4032
  207SOL     OW  619   0.568   1.722   2.865  0.4657 -0.1273  0.2948
  207SOL    HW1  620   0.665   1.685   2.857 -1.8075 -0.0172 -0.4792
  207SOL    HW2  621   0.509   1.661   2.924  1.7481 -0.0140 -0.6319
  208SOL     OW  622   1.016   1.462   1.408 -0.4350 -0.3797  0.6733
  208SOL    HW1  623   0.939   1.515   1.360 -2.0026  0.3832 -1.3522
  208SOL    HW2  624   1.083   1.527   1.458 -0.5167  1.3739 -0.8032
  209SOL     OW  625   0.153   0.932   3.075  0.5857 -0.0558 -0.4489
  209SOL    HW1  626   0.186   0.888   2.985  0.8201  0.0913 -0.2565
  209SOL    HW2  627   0.182   0.877   3.157 -3.2550 -1.5009  1.1820
  210SOL     OW  628   1.709   0.483   1.144 -0.0203  0.6198 -0.1195
  210SOL    HW1  629   1.653   0.568   1.123 -0.2582 -2.8894  0.0938
  210SOL    HW2  630   1.809   0.498   1.135  1.0725  2.3431  0.3780
  211SOL     OW  631   2.110   1.030   1.683  0.0738 -0.0191 -0.4357
  211SOL    HW1  632   2.193   1.012   1.745 -0.9752 -2.5583  1.8610
  211SOL    HW2  633   2.136   1.072   1.594 -3.1615 -0.1875  3.6072
  212SOL     OW  634   0.030   1.020   1.449 -0.0466  0.3358  0.0007
  212SOL    HW1  635   0.066   1.106   1.491 -0.5958 -2.4598  0.6239
  212SOL    HW2  636   0.032   0.945   1.522 -0.7461  0.9256  1.7229
  213SOL     OW  637   2.701   0.314   0.255 -0.5600  0.5700 -0.1098
  213SOL    HW1  638   2.775   0.257   0.213  0.7728 -0.4346 -0.6928
  213SOL    HW2  639   2.661   0.376   0.187  0.8213 -2.6962 -0.0058
  214SOL     OW  640   2.186   0.273   2.286  0.3104 -0.2726 -0.1015
  214SOL    HW1  641   2.216   0.313   2.380 -1.6005 -1.2389 -1.3437
  214SOL    HW2  642   2.118   0.194   2.297 -0.9658  0.3259 -0.0690
  215SOL     OW  643   1.663   2.306   2.057 -0.3988  0.4576  0.3710
  215SOL    HW1  644   1.762   2.333   2.044  0.5776  0.0907  5.0241
  215SOL    HW2  645   1.633   2.362   2.142  1.2621 -1.1977  0.9018
  216SOL     OW  646   2.242   0.522   0.642  0.0417  0.2733 -0.1915
  216SOL    HW1  647   2.214   0.447   0.581  1.0682  1.7968  0.4275
  216SOL    HW2  648   2.243   0.617   0.595 -0.2795 -0.6312  1.6853
  217SOL     OW  649   0.759   2.810   2.415  0.1783 -0.1223  0.1956
  217SOL    HW1  650   0.758   2.714   2.459 -0.7340  1.4075 -2.7959
  217SOL    HW2  651   0.742   2.801   2.313 -0.6216  0.4654  0.6947
  218SOL     OW  652   1.923   1.448   0.052  0.2990  0.2148  0.5958
  218SOL    HW1  653   1.825   1.474   0.031 -2.9053 -1.0842  1.5280
  218SOL    HW2  654   1.924   1.353   0.090 -0.2216 -2.5013 -0.5051
  219SOL     OW  655   2.386   1.321   2.561 -0.4483  0.1535 -0.1190
  219SOL    HW1  656   2.473   1.292   2.507  3.7519  0.4564 -0.6940
  219SOL    HW2  657   2.375   1.257   2.641  1.4690  3.1770 -0.4903
  220SOL     OW  658   1.417   1.042   1.263  0.2004  0.2071  0.3278
  220SOL    HW1  659   1.516   1.040   1.245  1.8911 -0.3718 -1.1888
  220SOL    HW2  660   1.372   1.131   1.249 -0.4660  0.4872 -1.3330
  221SOL     OW  661   1.301   1.162   2.136 -0.2084  0.6289  0.0336
  221SOL    HW1  662   1.270   1.241   2.077 -0.7872  0.1442 -0.9537
  221SOL    HW2  663   1.383   1.109   2.099  0.1761 -0.6596 -0.6024
  222SOL     OW  664   1.277   0.092   1.146  0.1321 -0.4907 -0.1743
  222SOL    HW1  665   1.361   0.070   1.090  1.4893 -1.9949  3.0723
  222SOL    HW2  666   1.296   0.167   1.213 -2.9145 -0.4930 -2.1262
  223SOL     OW  667   2.900   0.805   1.977  0.2527 -0.3888 -0.4573
  223SOL    HW1  668   2.912   0.820   2.081 -1.6162  0.2906 -0.1415
  223SOL    HW2  669   2.938   0.883   1.918 -1.8722  0.5061 -1.2657
  224SOL     OW  670   1.568   1.004   2.786 -0.3405 -0.4289  0.3495
  224SOL    HW1  671   1.592   0.931   2.715 -1.5043 -3.9447 -3.1772
  224SOL    HW2  672   1.558   1.103   2.747  1.5623 -0.3742  0.8922
  225SOL     OW  673   2.993   2.800   2.928 -0.2001 -0.1477 -0.4044
  225SOL    HW1  674   2.942   2.736   2.862  0.3716 -0.7150  0.1062
  225SOL    HW2  675   3.058   2.860   2.870  0.4918  3.8798 -0.5878
  226SOL     OW  676   2.452   1.660   2.859  0.0245 -0.6753  0.2199
  226SOL    HW1  677   2.499   1.623   2.776 -0.7371 -3.3657  2.0502
  226SOL    HW2  678   2.441   1.585   2.926  0.1194  1.4419 -0.1521
  227SOL     OW  679   0.799   0.135   2.975 -0.0515  0.0469  0.1719
  227SOL    HW1  680   0.831   0.062   3.040 -0.1181  1.0488  0.7633
  227SOL    HW2  681   0.820   0.106   2.874  1.0588 -1.8345 -0.4135
  228SOL     OW  682   2.358   0.567   2.792 -0.0184  0.2840  0.2205
  228SOL    HW1  683   2.335   0.637   2.719 -0.6512 -2.1893 -1.4307
  228SOL    HW2  684   2.452   0.522   2.776  1.4082 -1.8717  0.0655
  229SOL     OW  685   0.589   0.499   1.877 -0.2475  0.0352 -0.5095
  229SOL    HW1  686   0.619   0.484   1.783  0.3573  2.0472  2.8439
  229SOL    HW2  687   0.659   0.568   1.912  1.2805 -1.5721 -0.5561
  230SOL     OW  688   1.922   1.241   2.147 -0.1500  0.4127  0.1817
  230SOL    HW1  689   1.991   1.293   2.094 -0.3498 -0.0357  2.8074
  230SOL    HW2  690   1.828   1.257   2.105 -1.3369  1.3798  1.6940
  231SOL     OW  691   0.627   1.041   2.951  0.3280 -0.5163 -0.1051
  231SOL    HW1  692   0.732   1.036   2.970  2.7708  0.6620  0.3656
  231SOL    HW2  693   0.576   1.045   3.045 -0.4862  1.1523  0.0567
  232SOL     OW  694   2.540   0.044   2.750 -0.4530  0.2588  0.3200
  232SOL    HW1  695   2.576  -0.040   2.796  0.4445  1.9604 -0.5362
  232SOL    HW2  696   2.543   0.040   2.647 -1.1321 -0.8727  0.9158
  233SOL     OW  697   1.739   1.274   1.050 -0.2877  0.1742  0.2086
  233SOL    HW1  698   1.721   1.328   0.963  2.6181 -1.8606  0.5688
  233SOL    HW2  699   1.777   1.180   1.029 -1.2126 -1.0615 -1.9547
  234SOL     OW  700   1.624   2.642   1.852 -0.1329  0.0207 -0.3505
  234SOL    HW1  701   1.646   2.657   1.953 -0.8819 -0.8527 -1.5802
  234SOL    HW2  702   1.565   2.557   1.837 -1.1713  1.9836 -1.3946
  235SOL     OW  703   0.039   3.001   2.823  0.1883 -0.0003  0.3826
  235SOL    HW1  704   0.101   3.062   2.767  3.1409 -0.0212  2.0437
  235SOL    HW2  705  -0.028   3.051   2.882  1.1722 -1.5927  0.3233
  236SOL     OW  706   2.815   0.705   0.037 -0.2904  0.6132  0.1439
  236SOL    HW1  707   2.871   0.741   0.116  1.4349 -0.5501  1.2401
  236SOL    HW2  708   2.845   0.610   0.006 -0.0544 -0.8323  1.1457
  237SOL     OW  709   1.497   1.651   1.026 -0.1558 -0.4344  0.1967
  237SOL    HW1  710   1.591   1.604   1.030  0.8034  0.0988  0.5492
  237SOL    HW2  711   1.476   1.700   1.111 -1.2618  0.6958 -2.4632
  238SOL     OW  712   1.768   1.355   0.763 -0.2987  0.1123 -0.2330
  238SOL    HW1  713   1.854   1.380   0.708 -0.7627  0.9421 -1.0966
  238SOL    HW2  714   1.697   1.427   0.752  3.9522  1.1283 -1.0207
  239SOL     OW  715   2.114   0.263   2.717 -0.3732 -0.5242  0.2462
  239SOL    HW1  716   2.210   0.273   2.761 -0.2116  1.1733 -2.6207
  239SOL    HW2  717   2.041   0.325   2.757  0.2981 -3.5549 -1.7170
  240SOL     OW  718   0.857   0.695   0.202 -0.2381  0.1105 -0.2556
  240SOL    HW1  719   0.862   0.612   0.142  1.4949  1.0658  1.7203
  240SOL    HW2  720   0.858   0.654   0.300 -0.5034 -2.7991  1.8000
  241SOL     OW  721   0.573   0.030   0.311 -0.1797 -0.3062 -0.1572
  241SOL    HW1  722   0.602  -0.030   0.227  4.2949 -2.4198 -2.1302
  241SOL    HW2  723   0.530  -0.019   0.389  2.8223  1.1110 -3.3405
  242SOL     OW  724   0.694   2.398   1.103 -0.1365 -0.1400  0.0028
  242SOL    HW1  725   0.684   2.475   1.176  0.2854  1.2460  0.2607
  242SOL    HW2  726   0.784   2.399   1.053 -1.3302  1.7190  1.2566
  243SOL     OW  727   1.081   0.609   2.458  0.0959  0.2815 -0.7886
  243SOL    HW1  728   1.012   0.671   2.405 -1.6130  0.6659 -0.4861
  243SOL    HW2  729   1.038   0.517   2.486 -0.3707 -0.9005 -0.1084
  244SOL     OW  730   2.793   1.950   2.382 -0.5788 -0.7265  0.1498
  244SOL    HW1  731   2.843   1.969   2.294 -2.5719  0.8516  1.1220
  244SOL    HW2  732   2.722   1.870   2.367  0.4759 -0.8702 -0.7109
  245SOL     OW  733   2.461   0.737   2.167  0.0548  0.6375 -0.1325
  245SOL    HW1  734   2.444   0.804   2.245  1.8006 -1.2519  0.2284
  245SOL    HW2  735   2.558   0.733   2.144  0.1441 -0.0523 -0.1485
  246SOL     OW  736   0.210   2.874   1.733  0.2325  0.3884 -0.1812
  246SOL    HW1  737   0.168   2.851   1.640 -0.1148 -0.2094 -1.6168
  246SOL    HW2  738   0.276   2.952   1.719 -0.0134 -1.6406  0.5064
  247SOL     OW  739   2.194   0.528   3.002 -0.3443 -0.0517 -0.1193
  247SOL    HW1  740   2.251   0.525   2.912  2.0101  2.0720  0.9269
  247SOL    HW2  741   2.156   0.620   3.022  1.8407 -0.1384  1.3123
  248SOL     OW  742   2.177   1.903   1.624  0.1673 -0.1214  0.5364
  248SOL    HW1  743   2.238   1.825   1.650 -0.4485 -0.0793  0.6584
  248SOL    HW2  744   2.077   1.880   1.636 -0.0085  0.8608  0.9895
  249SOL     OW  745   1.999   1.919   1.943 -0.3775  0.0721 -0.0287
  249SOL    HW1  746   1.998   1.870   1.851 -0.0462 -1.5873 -0.0241
  249SOL    HW2  747   2.087   1.961   1.971  1.4478 -0.7196 -0.8897
  250SOL     OW  748   1.002   0.640   1.871 -0.4175 -0.3114  0.2955
  250SOL    HW1  749   1.048   0.580   1.937  1.4809 -0.9006 -1.7695
  250SOL    HW2  750   0.981   0.589   1.783  1.9591 -0.4129  1.4616
  251SOL     OW  751   3.013   1.550   2.569 -0.0574  0.0048 -0.0471
  251SOL    HW1  752   3.001   1.650   2.548  0.4092  0.0224  0.9621
  251SOL    HW2  753   2.923   1.499   2.568 -0.7481  2.5045  3.0107
  252SOL     OW  754   1.549   0.883   1.588 -0.2425  0.5568 -0.1507
  252SOL    HW1  755   1.630   0.934   1.543  0.5404  1.0124  0.7728
  252SOL    HW2  756   1.492   0.952   1.641  1.8109  2.2126 -0.1763
  253SOL     OW  757   0.995   1.522   0.385 -0.1036 -0.6525 -0.4622
  253SOL    HW1  758   1.051   1.462   0.320 -1.3663  1.5696  3.1256
  253SOL    HW2  759   0.893   1.494   0.381 -3.6632  0.8493  3.1373
  254SOL     OW  760   1.988   2.148   1.599  0.2018  0.1439  0.1553
  254SOL    HW1  761   1.951   2.098   1.516 -1.2598  0.8057 -0.5577
  254SOL    HW2  762   1.928   2.141   1.683  2.4070 -0.6342 -0.6339
  255SOL     OW  763   0.102   1.156   2.892 -0.7043  0.2797 -0.4148
  255SOL    HW1  764   0.184   1.221   2.875 -2.8036 -0.8275  1.1450
  255SOL    HW2  765   0.133   1.086   2.958 -2.4900 -0.2066 -1.6990
  256SOL     OW  766   2.742   1.321   1.863  0.4280  0.1349  0.3308
  256SOL    HW1  767   2.684   1.381   1.806  1.9838  0.2453  2.1830
  256SOL    HW2  768   2.690   1.243   1.913  0.9047  1.0407 -0.5271
  257SOL     OW  769   0.838   0.240   1.885 -0.1392 -0.1945  0.3876
  257SOL    HW1  770   0.877   0.293   1.802  1.9957 -1.1825 -0.2984
  257SOL    HW2  771   0.882   0.146   1.898  1.4378  0.7168  2.6211
  258SOL     OW  772   2.950   1.248   0.417  0.1272 -0.1887 -0.1675
  258SOL    HW1  773   2.902   1.335   0.391  1.1799 -0.3486  0.5562
  258SOL    HW2  774   2.981   1.251   0.520 -0.6935 -1.0635 -2.3404
  259SOL     OW  775   0.505   2.888   2.992 -0.3336  0.8100  0.2471
  259SOL    HW1  776   0.436   2.829   3.044 -2.2675 -0.4293 -0.7073
  259SOL    HW2  777   0.535   2.834   2.905 -0.0264 -1.9143 -0.1693
  260SOL     OW  778   2.643   0.727   2.723  0.0628 -0.3581  0.7368
  260SOL    HW1  779   2.547   0.765   2.729  0.9532 -1.2946  1.0470
  260SOL    HW2  780   2.646   0.624   2.741 -1.8622 -0.5145  1.4222
  261SOL     OW  781   2.704   1.316   1.300  0.0909 -0.0220 -0.0513
  261SOL    HW1  782   2.654   1.243   1.248 -0.2336  1.3392  0.5207
  261SOL    HW2  783   2.802   1.289   1.318 -1.4583 -0.5592 -0.5415
  262SOL     OW  784   1.479   2.934   2.034 -0.4035 -0.4551 -0.0645
  262SOL    HW1  785   1.511   3.007   1.966  1.0858  0.9622  0.1048
  262SOL    HW2  786   1.386   2.896   2.007  0.5091  1.5219 -0.3255
  263SOL     OW  787   0.857   0.754   2.351  0.0504  0.5562  0.1530
  263SOL    HW1  788   0.799   0.676   2.303  1.0996  1.0179 -1.5064
  263SOL    HW2  789   0.899   0.824   2.283  1.4263  0.2254 -0.0455
  264SOL     OW  790   2.270   0.769   0.518 -0.2673 -0.1854 -0.0408
  264SOL    HW1  791   2.174   0.798   0.491  1.4520 -1.4894  2.1537
  264SOL    HW2  792   2.344   0.835   0.504  0.2440 -2.1418  0.8427
  265SOL     OW  793   0.858   2.331   2.700 -0.2922  0.0793  0.4852
  265SOL    HW1  794   0.905   2.403   2.762 -1.4440  0.8108  0.5225
  265SOL    HW2  795   0.817   2.260   2.756 -0.3868 -1.2722 -0.9756
  266SOL     OW  796   1.319   1.732   0.024  0.3785 -0.4674  0.0924
  266SOL    HW1  797   1.256   1.803   0.075  1.9400  3.5613  1.3691
  266SOL    HW2  798   1.424   1.739   0.046  2.0949  0.7743 -2.1740
  267SOL     OW  799   1.088   0.030   2.333 -0.3867  0.0375  0.4498
  267SOL    HW1  800   1.074  -0.042   2.261 -0.3812  1.9419  0.5841
  267SOL    HW2  801   1.019   0.107   2.328 -0.5296 -0.3421 -1.9963
  268SOL     OW  802   0.594   1.126   1.066  0.3950 -0.0055 -0.6322
  268SOL    HW1  803   0.624   1.154   1.163 -0.7851  0.1257 -2.9498
  268SOL    HW2  804   0.585   1.202   0.999  1.9348 -1.4416 -1.3119
  269SOL     OW  805   2.465   2.564   1.574  0.0449 -0.1343  0.2488
  269SOL    HW1  806   2.533   2.488   1.584 -0.0758  0.2679 -1.0404
  269SOL    HW2  807   2.398   2.562   1.651  1.2329 -1.4635 -1.8227
  270SOL     OW  808   0.273   2.789   2.026 -1.1862  0.6838  0.3412
  270SOL    HW1  809   0.225   2.834   1.946  1.2524 -1.2403 -2.0604
  270SOL    HW2  810   0.230   2.701   2.059 -2.2924  0.8426  1.2840
  271SOL     OW  811   0.414   1.380   1.158 -0.1501  0.2796  0.3209
  271SOL    HW1  812   0.366   1.384   1.065 -2.8252  0.7449 -0.1722
  271SOL    HW2  813   0.339   1.365   1.233 -0.8177  0.8151 -1.3578
  272SOL     OW  814   1.978   2.851   1.916 -0.4930  0.2584  0.0381
  272SOL    HW1  815   1.912   2.828   1.837  0.9215  0.1032  1.8118
  272SOL    HW2  816   2.044   2.928   1.893  0.2793 -1.4007 -0.5237
  273SOL     OW  817   1.406   1.450   2.871  0.0179  0.1668 -0.6256
  273SOL    HW1  818   1.486   1.466   2.938  0.1558 -0.6581 -0.3704
  273SOL    HW2  819   1.318   1.460   2.926  1.5492 -1.8132  0.8970
  274SOL     OW  820   1.157   0.487   2.048  0.3591  0.1503 -0.2882
  274SOL    HW1  821   1.206   0.448   1.966  3.4577 -0.2978 -2.6681
  274SOL    HW2  822   1.219   0.505   2.127 -1.5505 -2.0454 -1.3716
  275SOL     OW  823   0.642   2.077   1.923 -0.2181 -0.0534 -0.0538
  275SOL    HW1  824   0.631   2.184   1.932 -1.4550  1.8221 -0.1694
  275SOL    HW2  825   0.550   2.032   1.952  0.5544  1.2377  2.4761
  276SOL     OW  826   2.153   0.992   2.790  0.3223  0.5837  0.5654
  276SOL    HW1  827   2.075   0.975   2.721  1.3530 -2.1132 -1.0155
  276SOL    HW2  828   2.121   0.986   2.885  0.9694 -1.4281 -3.1746
  277SOL     OW  829   2.991   0.821   0.207  0.3344 -0.1519 -0.4340
  277SOL    HW1  830   3.052   0.861   0.134  0.2945  3.2714 -1.0369
  277SOL    HW2  831   3.028   0.746   0.271 -3.6356  0.5061  3.6172
  278SOL     OW  832   0.199   0.277   2.926 -0.2648 -0.6261 -0.0882
  278SOL    HW1  833   0.252   0.247   3.013  0.0174  2.4330  0.0900
  278SOL    HW2  834   0.214   0.380   2.904  1.1363  2.5797  0.6207
  279SOL     OW  835   0.140   3.094   0.878  0.2830 -0.3288 -0.1481
  279SOL    HW1  836   0.157   3.119   0.976  1.2553 -0.6040  0.4710
  279SOL    HW2  837   0.222   3.108   0.815  0.4292  0.0158  2.0468
  280SOL     OW  838   1.646   2.931   2.506 -0.0219  0.1689  0.3019
  280SOL    HW1  839   1.737   2.982   2.528  0.8120  1.6920  1.4858
  280SOL    HW2  840   1.554   2.985   2.533 -2.5862 -1.2629 -2.6111
  281SOL     OW  841   0.634   0.953   2.334  0.0134 -1.1072  0.5513
  281SOL    HW1  842   0.587   0.887   2.271  1.3716  0.5477  1.2396
  281SOL    HW2  843   0.698   0.902   2.398 -1.0548 -3.5260 -0.8048
  282SOL     OW  844   1.636   2.480   0.552 -0.2499 -0.0840  0.2397
  282SOL    HW1  845   1.601   2.417   0.476  1.0798 -1.3687 -0.1946
  282SOL    HW2  846   1.605   2.581   0.544  2.9430 -0.3967 -1.0837
  283SOL     OW  847   1.128   0.934   0.701  0.6855  0.2415  0.3093
  283SOL    HW1  848   1.174   0.858   0.763  0.6731  0.6663  0.0818
  283SOL    HW2  849   1.069   0.995   0.754  0.2128 -1.5201 -2.5719
  284SOL     OW  850   2.261   2.822   2.410  0.2404 -0.2927 -0.2798
  284SOL    HW1  851   2.322   2.888   2.468  2.2101  0.2634  0.6082
  284SOL    HW2  852   2.283   2.822   2.310 -0.5234 -1.9221  2.2649
  285SOL     OW  853   1.406   3.057   2.544  0.1237  0.2479 -0.2379
  285SOL    HW1  854   1.408   3.062   2.438  0.1568 -0.4653  1.8133
  285SOL    HW2  855   1.314   3.078   2.582 -0.1504  0.4989  0.5727
  286SOL     OW  856   0.421   0.496   0.637  0.0675  0.1369  0.0712
  286SOL    HW1  857   0.393   0.456   0.732 -1.1160 -2.0747  2.0217
  286SOL    HW2  858   0.443   0.426   0.562  0.6573 -1.3850 -0.9768
  287SOL     OW  859   0.078   1.336   2.515  0.1720  0.3457  0.0273
  287SOL    HW1  860   0.039   1.242   2.551 -0.8782 -1.1613  0.0610
  287SOL    HW2  861   0.018   1.417   2.539 -0.2114  1.0995 -1.0710
  288SOL     OW  862   1.587   2.610   1.460 -0.1848  0.8309  0.5073
  288SOL    HW1  863   1.685   2.625   1.471 -0.1066  1.9609  1.3785
  288SOL    HW2  864   1.560   2.599   1.356  0.3105 -2.2454 -3.8086
  289SOL     OW  865   0.663   2.724   0.826  0.6749 -0.3588  0.1092
  289SOL    HW1  866   0.688   2.790   0.748 -1.6502  1.5374 -1.2816
  289SOL    HW2  867   0.661   2.775   0.917  2.4162  0.7717 -1.7616
  290SOL     OW  868   2.968   1.228   1.676  0.1712  0.0060 -0.4294
  290SOL    HW1  869   2.888   1.278   1.717  1.7677 -1.7062 -0.4303
  290SOL    HW2  870   2.998   1.148   1.729 -1.9014 -0.9576 -2.4072
  291SOL     OW  871   1.966   0.047   0.060  0.0741  0.0407  0.1049
  291SOL    HW1  872   1.997   0.045   0.161  0.7209  0.6262  0.9417
  291SOL    HW2  873   2.000   0.133   0.015  0.2823  0.3646 -0.4344
  292SOL     OW  874   2.968   1.166   3.061  0.0517  0.4660 -0.3202
  292SOL    HW1  875   2.889   1.190   2.997  0.2049 -0.3137 -0.1378
  292SOL    HW2  876   3.055   1.153   3.006 -1.0819 -1.9017 -1.5822
  293SOL     OW  877   0.577   2.055   0.165 -0.3100  0.0562 -0.4023
  293SOL    HW1  878   0.546   2.113   0.245  1.9876 -0.5509  2.4529
  293SOL    HW2  879   0.681   2.046   0.167  1.6366  0.0000 -0.4514
  294SOL     OW  880   1.682   2.133   1.844  0.1390 -0.1738 -0.1640
  294SOL    HW1  881   1.668   2.194   1.929  0.8034  1.2100 -1.6511
  294SOL    HW2  882   1.701   2.193   1.762  1.6854  2.1288 -0.8744
  295SOL     OW  883   0.951   1.181   0.413 -0.1786 -0.7490 -0.0871
  295SOL    HW1  884   1.048   1.156   0.428 -3.1660  0.8986 -1.9396
  295SOL    HW2  885   0.880   1.134   0.475  1.3719 -0.6062 -2.0623
  296SOL     OW  886   1.277   2.082   2.536  0.2055 -0.5527  0.0070
  296SOL    HW1  887   1.266   2.139   2.448 -1.8218  2.4510  0.5063
  296SOL    HW2  888   1.286   1.978   2.530 -0.7292  2.1505  2.1414
  297SOL     OW  889   1.523   0.707   1.340 -0.0790 -0.1753  0.1193
  297SOL    HW1  890   1.582   0.630   1.378  1.6876 -0.5009 -2.7190
  297SOL    HW2  891   1.523   0.787   1.408  1.5725  0.2201  2.1504
  298SOL     OW  892   0.526   1.275   2.839  0.2795 -0.5464 -0.0060
  298SOL    HW1  893   0.555   1.183   2.881 -1.1395 -1.2953 -0.2648
  298SOL    HW2  894   0.570   1.289   2.746  1.1472 -2.3294 -1.4462
  299SOL     OW  895   0.387   0.347   1.457  0.0004 -0.2500 -0.5040
  299SOL    HW1  896   0.377   0.429   1.396  0.4753 -2.2693 -0.7053
  299SOL    HW2  897   0.486   0.311   1.469  0.5533  1.1913 -1.6392
  300SOL     OW  898   1.222   1.787   2.857 -0.0982  0.2460  0.0737
  300SOL    HW1  899   1.232   1.711   2.785 -0.7247  1.0924 -3.1479
  300SOL    HW2  900   1.251   1.759   2.952 -2.1852 -0.9225 -1.7405
  301SOL     OW  901   0.459   0.274   0.437 -0.0603  0.1160  0.7265
  301SOL    HW1  902   0.367   0.240   0.458  1.3894  1.7437 -1.3524
  301SOL    HW2  903   0.503   0.213   0.364 -0.2827  1.2251  1.4560
  302SOL     OW  904   1.207   2.294   2.343  0.3251  0.1982 -0.3263
  302SOL    HW1  905   1.133   2.329   2.412  3.1851 -0.4698 -0.7049
  302SOL    HW2  906   1.174   2.216   2.283  0.8628 -1.1268 -2.2082
  303SOL     OW  907   0.925   2.386   0.796 -0.0228  0.1271  0.1426
  303SOL    HW1  908   0.976   2.451   0.729  3.0602 -2.5721 -0.2603
  303SOL    HW2  909   0.927   2.423   0.892 -0.2071 -1.1993 -0.2248
  304SOL     OW  910   0.087   2.049   0.678  0.2948  0.3634 -0.0009
  304SOL    HW1  911   0.152   1.988   0.624  2.8004 -0.6115 -1.3010
  304SOL    HW2  912   0.000   2.074   0.636  1.8921  0.4487  2.9991
  305SOL     OW  913   1.627   0.882   0.696 -0.0814 -0.2405 -0.2752
  305SOL    HW1  914   1.567   0.907   0.618  0.4556  1.5923  1.3565
  305SOL    HW2  915   1.672   0.790   0.678  0.3404 -0.6393  2.8941
  306SOL     OW  916   0.428   1.859   1.925  0.2589 -0.3037 -0.1681
  306SOL    HW1  917   0.501   1.796   1.884  3.7148 -1.1085  1.1407
  306SOL    HW2  918   0.417   1.832   2.027  3.4549 -0.8035 -0.9701
  307SOL     OW  919   0.020   0.861   2.534  0.4101 -0.1708  0.1198
  307SOL    HW1  920   0.014   0.959   2.572  0.6647  1.2571  0.6130
  307SOL    HW2  921  -0.035   0.781   2.575  1.4085 -1.3328 -0.3309
  308SOL     OW  922   1.568   2.696   2.817 -0.0443 -0.2847  0.0227
  308SOL    HW1  923   1.564   2.668   2.715  0.5400 -1.4130 -1.8175
  308SOL    HW2  924   1.529   2.625   2.873  3.7419 -0.4506 -1.2928
  309SOL     OW  925   1.242   0.021   1.791 -0.1132 -0.1875 -1.0137
  309SOL    HW1  926   1.342   0.013   1.827 -1.2211  1.1862  0.4631
  309SOL    HW2  927   1.243   0.056   1.694 -1.7249 -0.8731  2.9885
  310SOL     OW  928   1.308   2.682   0.731 -0.0471 -0.2839 -0.1330
  310SOL    HW1  929   1.309   2.758   0.801 -1.9205  1.8079 -0.0994
  310SOL    HW2  930   1.383   2.703   0.667  1.5101  0.8700 -0.4160
  311SOL     OW  931   1.211   0.946   1.438 -0.5422 -0.3658  0.3733
  311SOL    HW1  932   1.280   0.920   1.365  2.1829 -0.1325 -0.9976
  311SOL    HW2  933   1.236   1.034   1.477  0.1017 -0.5009 -2.8958
  312SOL     OW  934   1.564   0.685   1.018  0.1144 -0.0755 -0.5102
  312SOL    HW1  935   1.549   0.787   1.010  1.7070 -0.4839 -0.9451
  312SOL    HW2  936   1.496   0.628   0.964  1.7854  1.5920  0.3311
  313SOL     OW  937   1.576   1.452   0.555 -0.4754 -0.3852  0.6761
  313SOL    HW1  938   1.484   1.493   0.548 -0.2199 -1.3003  1.9414
  313SOL    HW2  939   1.569   1.352   0.529 -0.6643  1.5202  0.4581
  314SOL     OW  940   2.931   0.052   3.003  0.7444 -0.1195 -0.3552
  314SOL    HW1  941   2.961   0.085   3.097 -0.8222 -0.9095  2.4810
  314SOL    HW2  942   2.839   0.007   3.010  0.6030 -1.2621 -1.8381
  315SOL     OW  943   1.246   0.227   2.775  0.3601 -0.1459  0.1848
  315SOL    HW1  944   1.215   0.145   2.716 -1.0326  1.0081  0.6254
  315SOL    HW2  945   1.292   0.199   2.862 -3.1116  0.0087  2.1947
  316SOL     OW  946   1.674   2.067   0.910 -0.3025  0.3503  0.0994
  316SOL    HW1  947   1.634   2.079   1.006  0.3913 -1.2263 -3.2539
  316SOL    HW2  948   1.667   2.148   0.846 -1.2352 -0.0037 -2.7003
  317SOL     OW  949   1.147   0.713   2.834 -0.0257 -0.2481  0.2688
  317SOL    HW1  950   1.068   0.753   2.889 -0.4417  0.7834  0.9967
  317SOL    HW2  951   1.130   0.615   2.801  2.1087  0.2087 -0.2950
  318SOL     OW  952   1.406   3.072   2.274  0.3708 -0.4382  0.7341
  318SOL    HW1  953   1.333   3.144   2.247 -0.6651  2.5881 -1.4204
  318SOL    HW2  954   1.430   3.015   2.187 -2.5229  0.0317 -0.4076
  319SOL     OW  955   0.627   2.375   2.938 -0.2142 -0.4321  0.4020
  319SOL    HW1  956   0.542   2.353   2.995  1.5670  0.7932  0.9799
  319SOL    HW2  957   0.677   2.285   2.912 -1.8180  0.2238 -2.2839
  320SOL     OW  958   1.604   2.272   0.385  0.3912  0.1110 -0.7124
  320SOL    HW1  959   1.693   2.224   0.363  0.9261  0.1388 -1.3644
  320SOL    HW2  960   1.540   2.220   0.448 -1.5965 -1.0644  1.1859
  321SOL     OW  961   1.594   2.752   0.528 -0.6216 -0.4852 -0.2409
  321SOL    HW1  962   1.527   2.815   0.487  2.3698  0.8224  1.6166
  321SOL    HW2  963   1.681   2.795   0.564  0.6742 -2.0309  1.0725
  322SOL     OW  964   2.673   1.090   2.242 -0.6673  0.5266 -0.2251
  322SOL    HW1  965   2.731   1.117   2.319 -1.3863  0.2481 -3.1693
  322SOL    HW2  966   2.610   1.016   2.280  1.6269  0.2017  1.6102
  323SOL     OW  967   1.030   2.698   0.856 -0.0980  0.0975 -0.1625
  323SOL    HW1  968   1.062   2.656   0.767  0.0740 -0.1542  0.3452
  323SOL    HW2  969   1.009   2.801   0.853 -0.3309 -2.1383  0.0510
  324SOL     OW  970   0.102   2.500   2.447  0.5237 -0.5515 -0.1110
  324SOL    HW1  971   0.098   2.410   2.496 -0.4521  1.2779  0.1590
  324SOL    HW2  972   0.070   2.572   2.512  0.6891 -0.0206 -1.1933
  325SOL     OW  973   1.195   3.068   0.469 -0.4833 -0.5070 -0.1912
  325SOL    HW1  974   1.228   3.113   0.378  2.7016  2.4994  0.0288
  325SOL    HW2  975   1.219   3.130   0.555  2.3337  0.9343 -0.8576
  326SOL     OW  976   2.360   0.757   0.020  0.7769 -0.1229 -0.2705
  326SOL    HW1  977   2.260   0.728   0.025 -0.7834 -0.9725 -0.7593
  326SOL    HW2  978   2.425   0.679   0.044  0.8586 -2.1113 -1.5961
  327SOL     OW  979   2.703   0.402   0.533  0.8697  0.3987  0.0453
  327SOL    HW1  980   2.697   0.360   0.438  0.3424  1.0749 -0.2433
  327SOL    HW2  981   2.617   0.383   0.587 -0.1839 -0.9455 -0.8930
  328SOL     OW  982   2.481   0.622   0.397 -0.2810 -0.6009  0.3702
  328SOL    HW1  983   2.387   0.654   0.430 -2.0267 -0.0710  2.4634
  328SOL    HW2  984   2.556   0.610   0.468  0.2409  1.0843  2.6149
  329SOL     OW  985   2.986   2.970   2.157  0.4783 -0.0607  0.2547
  329SOL    HW1  986   3.053   2.899   2.198  2.2208 -0.5212 -0.9988
  329SOL    HW2  987   3.025   3.063   2.140 -1.7027  2.4328 -1.8571
  330SOL     OW  988   0.562   0.187   1.857  0.3296 -0.2549  0.3057
  330SOL    HW1  989   0.553   0.290   1.868 -1.1006 -0.6801 -0.8325
  330SOL    HW2  990   0.643   0.154   1.913 -3.2938 -0.7086  2.3357
  331SOL     OW  991   2.932   1.903   1.112  0.3815  0.1729  0.3525
  331SOL    HW1  992   2.977   1.992   1.069 -1.3268  1.2162 -0.9225
  331SOL    HW2  993   2.870   1.925   1.193 -1.3092  1.0717  0.9259
  332SOL     OW  994   0.441   1.048   0.055 -0.3810 -0.0857  0.2876
  332SOL    HW1  995   0.377   1.005  -0.013 -0.8236  2.1208  0.7330
  332SOL    HW2  996   0.386   1.114   0.121 -2.1370  1.3232  0.8488
  333SOL     OW  997   2.856   1.057   0.260 -0.1464  0.0429  0.3306
  333SOL    HW1  998   2.896   1.129   0.322 -0.3836 -0.9075 -1.9540
  333SOL    HW2  999   2.917   0.973   0.256 -1.6881  0.3827  1.1826
  334SOL     OW 1000   1.630   1.151   1.902 -0.0126 -0.1430 -0.2165
  334SOL    HW1 1001   1.727   1.160   1.861  3.8860  2.0232 -0.7311
  334SOL    HW2 1002   1.621   1.233   1.961 -1.4294 -0.6773 -0.7276
  335SOL     OW 1003   1.976   2.803   2.620 -0.3852  0.1903 -0.0700
  335SOL    HW1 1004   1.914   2.845   2.685  1.8197 -0.0460 -1.9144
  335SOL    HW2 1005   2.062   2.856   2.616 -1.2635 -1.9046  3.1423
  336SOL     OW 1006   0.229   0.088   2.730 -0.1262  0.5083  0.0750
  336SOL    HW1 1007   0.320   0.040   2.748  1.4139  1.0612  2.7375
  336SOL    HW2 1008   0.224   0.167   2.799  0.4119 -0.7179  0.6946
  337SOL     OW 1009   0.945   2.819   2.840 -0.3679 -0.0663 -0.3986
  337SOL    HW1 1010   0.921   2.820   2.943 -0.8944  1.5290  2.0052
  337SOL    HW2 1011   1.041   2.783   2.820  1.7433 -0.6133  0.8534
  338SOL     OW 1012   0.042   1.012   0.606  0.0876  0.2238  0.1953
  338SOL    HW1 1013  -0.033   0.967   0.656  1.3948  1.2182 -1.2553
  338SOL    HW2 1014   0.010   1.108   0.587 -0.2981  0.4987  0.2748
  339SOL     OW 1015   1.684   1.361   2.079  0.0261 -0.0845 -0.0349
  339SOL    HW1 1016   1.584   1.385   2.099  0.8558  0.4148  0.7349
  339SOL    HW2 1017   1.735   1.450   2.065 -2.5563 -2.0403 -0.2616
  340SOL     OW 1018   2.332   0.740   1.207 -0.0221  0.5104 -0.3025
  340SOL    HW1 1019   2.239   0.765   1.169 -0.4530 -0.0121  0.2541
  340SOL    HW2 1020   2.366   0.654   1.159 -0.1311  0.4214 -1.2630
  341SOL     OW 1021   1.884   2.163   0.449 -0.0574 -0.9366 -0.1400
  341SOL    HW1 1022   1.896   2.192   0.348 -0.6170  0.2045  0.8036
  341SOL    HW2 1023   1.963   2.198   0.514  1.5949  2.2438  1.9384
  342SOL     OW 1024   2.204   2.158   2.785 -0.4087 -0.0634 -0.7525
  342SOL    HW1 1025   2.271   2.092   2.826  2.3373  0.5611 -0.3519
  342SOL    HW2 1026   2.106   2.119   2.797  1.6137  0.4302 -0.5681
  343SOL     OW 1027   0.341   0.891   2.851  0.0070  0.2768 -0.4268
  343SOL    HW1 1028   0.316   0.951   2.772 -1.9850 -3.2744  0.5536
  343SOL    HW2 1029   0.440   0.864   2.858  1.9127 -0.4270 -2.6736
  344SOL     OW 1030   1.894   1.504   0.356  1.2520  0.0518  0.4433
  344SOL    HW1 1031   1.861   1.417   0.309  1.6167  1.3317 -1.6808
  344SOL    HW2 1032   1.843   1.589   0.326  1.1563  0.9426 -1.5826
  345SOL     OW 1033   1.404   2.193   2.847 -0.0187 -0.0485 -0.5833
  345SOL    HW1 1034   1.321   2.146   2.807  0.4999 -1.3790 -0.7180
  345SOL    HW2 1035   1.494   2.163   2.803  0.7900 -1.5381  1.4010
  346SOL     OW 1036   2.421   0.898   1.408 -0.3868  0.0898  0.5599
  346SOL    HW1 1037   2.354   0.973   1.437 -2.6525 -0.2787 -0.8507
  346SOL    HW2 1038   2.376   0.820   1.355  1.6111  1.3214 -1.2566
  347SOL     OW 1039   0.709   2.817   1.514  0.4483 -0.0207  0.5767
  347SOL    HW1 1040   0.693   2.759   1.601  0.1602 -2.2852 -0.2011
  347SOL    HW2 1041   0.618   2.855   1.483  0.5036  1.9121 -1.0297
  348SOL     OW 1042   0.082   0.697   2.843  0.1697  0.3040  0.4974
  348SOL    HW1 1043  -0.020   0.682   2.820  1.3332  1.5791  1.0738
  348SOL    HW2 1044   0.112   0.786   2.800 -0.0693 -1.4038 -1.9652
  349SOL     OW 1045   1.917   0.422   2.811 -0.3563 -0.2862  0.5669
  349SOL    HW1 1046   1.895   0.476   2.725  0.0013 -1.9547  0.8297
  349SOL    HW2 1047   1.864   0.461   2.893  0.1195 -1.0448  1.9479
  350SOL     OW 1048   1.645   0.380   0.382 -0.0394 -0.2621  0.2194
  350SOL    HW1 1049   1.715   0.398   0.452  1.1678  1.0820 -1.5985
  350SOL    HW2 1050   1.628   0.458   0.317  2.3097 -0.3864  0.6765
  351SOL     OW 1051   0.898   0.936   2.138 -0.5115 -0.6149 -0.3522
  351SOL    HW1 1052   0.939   1.027   2.109 -0.7585  1.1294 -0.9616
  351SOL    HW2 1053   0.833   0.894   2.068  1.0176  2.3114 -1.7332
  352SOL     OW 1054   1.981   1.378   0.587  0.0459 -0.0079  0.5016
  352SOL    HW1 1055   1.946   1.435   0.500 -0.4591  0.5435 -1.7679
  352SOL    HW2 1056   2.054   1.430   0.638 -0.7383  1.5188  3.8077
  353SOL     OW 1057   2.133   2.834   1.167  0.1849 -0.0354 -0.3553
  353SOL    HW1 1058   2.226   2.792   1.184 -0.1891 -1.1986  1.8381
  353SOL    HW2 1059   2.071   2.772   1.111  2.0612  2.1086 -1.4208
  354SOL     OW 1060   0.277   1.369   2.907 -0.0967  0.6964 -0.2678
  354SOL    HW1 1061   0.233   1.438   2.842  0.0361 -0.5016 -1.1854
  354SOL    HW2 1062   0.370   1.339   2.880 -2.7587  0.6010  0.6086
  355SOL     OW 1063   0.466   1.491   0.577 -0.1527  0.3508  0.2403
  355SOL    HW1 1064   0.503   1.578   0.619  1.9513  0.7152  1.8110
  355SOL    HW2 1065   0.541   1.428   0.542 -1.3430 -2.3042 -1.3218
  356SOL     OW 1066   0.884   0.453   2.086  0.1058  0.0643 -0.0221
  356SOL    HW1 1067   0.988   0.472   2.086  1.5049  0.5530  0.9578
  356SOL    HW2 1068   0.860   0.379   2.016  2.3216  1.1539  0.5144
  357SOL     OW 1069   1.057   1.284   0.191 -0.6564  0.2063  0.7977
  357SOL    HW1 1070   1.036   1.235   0.100  0.0361  0.3315 -2.2801
  357SOL    HW2 1071   1.000   1.252   0.277  0.6114 -2.2051  0.3486
  358SOL     OW 1072   1.641   1.644   0.338  0.1644 -0.4247  0.3875
  358SOL    HW1 1073   1.646   1.557   0.396 -1.9213 -1.3320  2.5828
  358SOL    HW2 1074   1.588   1.719   0.385  1.5407  1.6403  1.9354
  359SOL     OW 1075   1.566   2.716   0.169 -0.4503  0.3306  0.5212
  359SOL    HW1 1076   1.581   2.633   0.110  0.8909 -0.7844  0.2097
  359SOL    HW2 1077   1.467   2.726   0.193  3.4929  1.2033  0.1097
  360SOL     OW 1078   0.895   0.603   0.486 -0.0884  0.0361  0.3958
  360SOL    HW1 1079   0.827   0.606   0.562  0.2450  0.3432  0.8812
  360SOL    HW2 1080   0.903   0.505   0.440  0.5038  0.4337 -1.0437
  361SOL     OW 1081   1.252   1.388   0.647 -0.0975  0.3822  0.0299
  361SOL    HW1 1082   1.288   1.407   0.745  0.5454  2.0955  2.2189
  361SOL    HW2 1083   1.148   1.400   0.645  0.5838  1.2201  1.5018
  362SOL     OW 1084   1.390   1.762   0.784 -0.1064  0.2257  0.8136
  362SOL    HW1 1085   1.433   1.723   0.868  1.1094 -1.3035 -2.4361
  362SOL    HW2 1086   1.433   1.849   0.752 -0.3548 -2.1010 -0.8929
  363SOL     OW 1087   1.140   1.366   2.007 -0.0412  0.4395 -0.4989
  363SOL    HW1 1088   1.120   1.442   2.072  1.7519  0.1280  0.7087
  363SOL    HW2 1089   1.204   1.389   1.927 -0.8909  1.0875 -1.3060
  364SOL     OW 1090   0.595   2.334   1.973  0.1197  0.4879 -0.5362
  364SOL    HW1 1091   0.503   2.377   2.003  1.0961 -0.3473  1.8261
  364SOL    HW2 1092   0.631   2.381   1.888 -0.6411 -0.7533 -1.6886
  365SOL     OW 1093   1.131   1.885   1.418 -0.0867  0.2189 -0.3017
  365SOL    HW1 1094   1.034   1.903   1.448 -0.6279  0.8454 -1.2846
  365SOL    HW2 1095   1.136   1.803   1.353 -0.8980  1.8246 -2.4371
  366SOL     OW 1096   2.797   2.056   0.466  0.3613  0.3727  0.1972
  366SOL    HW1 1097   2.708   1.996   0.476 -0.3253 -0.8867  0.1034
  366SOL    HW2 1098   2.877   2.001   0.434  0.2951  0.9513  1.1736
  367SOL     OW 1099   0.779   1.214   0.065  0.1790  0.4014  0.4895
  367SOL    HW1 1100   0.823   1.133   0.115 -0.9828 -2.5319 -0.7466
  367SOL    HW2 1101   0.803   1.238  -0.032 -2.8253  1.8130  0.0790
  368SOL     OW 1102   1.556   0.517   0.668  0.4047 -0.2001  0.3077
  368SOL    HW1 1103   1.517   0.525   0.572  2.1418 -1.4796 -0.2019
  368SOL    HW2 1104   1.659   0.529   0.671  1.3987  0.4726 -0.6288
  369SOL     OW 1105   0.297   1.677   0.094 -0.3646 -0.0204  0.1134
  369SOL    HW1 1106   0.285   1.762   0.150  0.8284 -4.9058 -0.4281
  369SOL    HW2 1107   0.237   1.599   0.116  0.9458 -0.0039  1.6425
  370SOL     OW 1108   0.453   2.129   0.971 -0.5978 -0.0696 -0.1369
  370SOL    HW1 1109   0.448   2.233   0.963 -0.0404  1.1358  0.7993
  370SOL    HW2 1110   0.363   2.082   0.950  0.5693 -0.7381 -1.0596
  371SOL     OW 1111   2.918   2.226   2.781 -0.0389 -0.2149 -0.2907
  371SOL    HW1 1112   2.938   2.184   2.877 -1.7343  0.3636 -1.4718
  371SOL    HW2 1113   3.004   2.243   2.728  0.8354  0.8658  0.2084
  372SOL     OW 1114   0.895   1.881   0.993 -0.1263 -0.6144 -0.2173
  372SOL    HW1 1115   0.840   1.965   0.963 -2.0381  0.5316  0.0755
  372SOL    HW2 1116   0.989   1.882   0.948  0.6326  0.5922  1.2480
  373SOL     OW 1117   1.948   1.986   0.939  0.4557  0.6110  0.0562
  373SOL    HW1 1118   2.022   2.041   0.986 -0.9603 -0.1913  0.4214
  373SOL    HW2 1119   1.850   2.021   0.948  1.0142  0.8535 -1.2119
  374SOL     OW 1120   1.822   0.407   0.579  0.3123  0.0343  0.2365
  374SOL    HW1 1121   1.819   0.353   0.670 -0.7804  1.2328  1.3970
  374SOL    HW2 1122   1.903   0.396   0.523 -2.1759  2.2765 -0.9016
  375SOL     OW 1123   2.463   2.281   1.075 -0.0888 -0.0690 -0.2498
  375SOL    HW1 1124   2.507   2.241   0.992 -0.4642 -0.2278  2.7148
  375SOL    HW2 1125   2.509   2.238   1.159 -1.1692  1.5625  0.8771
  376SOL     OW 1126   3.082   0.634   1.423  0.0381  0.0181 -0.0924
  376SOL    HW1 1127   3.137   0.702   1.478 -0.5942 -2.5967  0.5134
  376SOL    HW2 1128   2.980   0.650   1.428 -1.9226  0.4003  0.9505
  377SOL     OW 1129   2.244   2.844   0.352  0.3590  0.6491 -0.0018
  377SOL    HW1 1130   2.219   2.897   0.265 -0.8980  2.1281  0.2032
  377SOL    HW2 1131   2.345   2.834   0.374 -1.4028 -1.1426  0.0367
  378SOL     OW 1132   1.898   1.853   2.669  0.2912 -0.4273 -0.1120
  378SOL    HW1 1133   1.940   1.762   2.689  0.5244  1.3394  0.1980
  378SOL    HW2 1134   1.889   1.879   2.568 -0.5692  3.0166  2.1787
  379SOL     OW 1135   0.878   0.110   2.727 -0.1178 -0.5787 -0.4035
  379SOL    HW1 1136   0.870   0.020   2.669  0.0222 -1.1411 -2.4997
  379SOL    HW2 1137   0.806   0.180   2.699  0.2800 -0.6916 -0.9458
  380SOL     OW 1138   1.545   1.177   0.546 -0.4260  0.2086  0.0932
  380SOL    HW1 1139   1.518   1.088   0.500  0.1970  1.2648  2.1796
  380SOL    HW2 1140   1.494   1.199   0.636  2.2396  3.6782  1.8764
  381SOL     OW 1141   1.276   1.218   1.489 -0.2680  0.0696  0.1299
  381SOL    HW1 1142   1.338   1.243   1.409  1.0410 -1.5575 -0.3961
  381SOL    HW2 1143   1.319   1.224   1.580 -0.6979 -1.5511 -2.2809
  382SOL     OW 1144   1.783   0.804   0.274 -0.4731 -0.0579  0.1212
  382SOL    HW1 1145   1.811   0.756   0.185  3.7870  1.3018  2.7444
  382SOL    HW2 1146   1.847   0.772   0.352  0.4787  0.5587  1.3963
  383SOL     OW 1147   2.666   0.999   1.559 -1.0673 -0.0387 -0.5924
  383SOL    HW1 1148   2.585   0.962   1.510  1.3607  0.9014  1.5003
  383SOL    HW2 1149   2.755   0.988   1.505  1.3024  2.4721 -1.3577
  384SOL     OW 1150   1.020   2.285   0.163 -0.2084 -0.3758  0.0873
  384SOL    HW1 1151   0.952   2.347   0.220 -0.7187  1.1492  2.5809
  384SOL    HW2 1152   1.056   2.207   0.213  2.1721 -0.5984 -2.6069
  385SOL     OW 1153   3.015   2.061   1.701 -0.1446  0.1073 -0.6438
  385SOL    HW1 1154   3.097   2.104   1.743  1.8582 -2.0158  1.6031
  385SOL    HW2 1155   3.024   1.965   1.671  0.4999  1.2744  3.8715
  386SOL     OW 1156   0.461   1.077   0.428 -0.0034  0.1387 -0.0076
  386SOL    HW1 1157   0.450   0.970   0.437  0.2578 -3.0504  1.8529
  386SOL    HW2 1158   0.385   1.115   0.364  1.3553 -0.7557 -1.7067
  387SOL     OW 1159   0.971   0.373   1.674  0.0096  0.1451 -0.0211
  387SOL    HW1 1160   1.039   0.445   1.651 -4.3578 -1.4752 -0.0055
  387SOL    HW2 1161   0.971   0.286   1.612 -1.1594 -2.0527 -0.3859
  388SOL     OW 1162   1.255   2.589   1.775 -0.1081 -0.3742 -0.2597
  388SOL    HW1 1163   1.272   2.584   1.674 -1.7057  1.6047 -0.8887
  388SOL    HW2 1164   1.304   2.510   1.823  0.1853 -1.9323  0.4681
  389SOL     OW 1165   0.269   0.038   1.147 -0.7289 -0.4607  0.4765
  389SOL    HW1 1166   0.231   0.006   1.241 -0.3818 -0.0204 -0.1900
  389SOL    HW2 1167   0.332  -0.037   1.107  1.1785 -0.9329 -1.7257
  390SOL     OW 1168   1.053   0.831   1.216 -0.5243  0.0773  0.5768
  390SOL    HW1 1169   1.149   0.809   1.185 -2.7492 -0.4367  0.0176
  390SOL    HW2 1170   1.040   0.843   1.320 -0.2831 -1.8748  4.6918
  391SOL     OW 1171   2.140   1.180   1.014  0.0923  0.2348 -0.1003
  391SOL    HW1 1172   2.084   1.095   1.043  0.4405 -0.2183 -1.4001
  391SOL    HW2 1173   2.194   1.165   0.927  0.8150  1.7946  1.7618
  392SOL     OW 1174   0.915   2.686   0.015 -0.1402 -0.5385 -0.1536
  392SOL    HW1 1175   0.830   2.698   0.070 -1.3874  1.6798 -2.5900
  392SOL    HW2 1176   0.993   2.741   0.050 -0.1980  1.8842 -1.3909
  393SOL     OW 1177   0.348   0.564   1.984  0.2732 -0.2953 -0.0157
  393SOL    HW1 1178   0.254   0.526   1.956 -0.2442 -0.3687  4.4848
  393SOL    HW2 1179   0.427   0.529   1.929 -1.7049  0.7872 -0.6019
  394SOL     OW 1180   2.840   1.754   2.751 -0.1187 -0.1079  0.1403
  394SOL    HW1 1181   2.883   1.785   2.656  0.0175 -1.3634  0.0862
  394SOL    HW2 1182   2.784   1.832   2.793  0.7590 -1.1996 -0.4687
  395SOL     OW 1183   1.586   1.940   0.679  1.0937  0.0079 -0.5267
  395SOL    HW1 1184   1.653   1.879   0.636 -1.4041  1.3962  1.4759
  395SOL    HW2 1185   1.613   1.976   0.772 -2.4762  1.3071 -1.9084
  396SOL     OW 1186   2.775   2.028   1.302  0.0315  0.1249 -0.4188
  396SOL    HW1 1187   2.777   2.082   1.394  2.3370 -1.9913  2.7625
  396SOL    HW2 1188   2.693   1.966   1.296 -0.1038 -0.4712 -0.0545
  397SOL     OW 1189   0.989   2.134   0.674  0.1195 -0.1668 -0.3636
  397SOL    HW1 1190   0.927   2.076   0.612  0.5623 -0.9793 -0.1984
  397SOL    HW2 1191   0.944   2.200   0.735  0.4942  0.5732 -0.8036
  398SOL     OW 1192   2.189   0.013   1.082 -1.1077  0.5554  0.0046
  398SOL    HW1 1193   2.164  -0.074   1.130 -0.6005 -1.9474 -0.3964
  398SOL    HW2 1194   2.108   0.068   1.043 -0.2018 -0.9814  0.9323
  399SOL     OW 1195   2.876   2.602   2.750 -0.3020 -0.1692  0.1013
  399SOL    HW1 1196   2.855   2.568   2.650  1.6954 -1.0179 -0.6151
  399SOL    HW2 1197   2.830   2.548   2.826  0.6273  2.5504 -0.0569
  400SOL     OW 1198   0.801   1.586   1.282 -0.5655  0.0572 -0.3636
  400SOL    HW1 1199   0.759   1.640   1.363  0.9508  0.9283 -1.7283
  400SOL    HW2 1200   0.766   1.611   1.187  2.7226  1.1746 -1.1716
  401SOL     OW 1201   1.865   0.098   1.297 -0.2395 -0.3680  0.3004
  401SOL    HW1 1202   1.909   0.149   1.377  0.3615  0.0091  0.1143
  401SOL    HW2 1203   1.767   0.072   1.306  1.4007  0.2711 -1.8513
  402SOL     OW 1204   1.353   0.193   3.032  0.0803  0.0051 -0.0489
  402SOL    HW1 1205   1.447   0.166   3.024 -0.6354  1.3811 -0.9935
  402SOL    HW2 1206   1.318   0.278   3.078  0.3759  0.1843 -0.8672
  403SOL     OW 1207   2.263   1.795   1.006  0.0058 -0.2019  0.2369
  403SOL    HW1 1208   2.360   1.763   1.029 -2.4399 -1.2363 -0.9730
  403SOL    HW2 1209   2.245   1.892   1.034  1.7504  0.0033  2.6949
  404SOL     OW 1210   0.221   2.449   2.748 -0.2001 -0.0278 -0.0785
  404SOL    HW1 1211   0.318   2.442   2.717 -3.5754  1.2191 -0.6166
  404SOL    HW2 1212   0.208   2.530   2.812  2.9557 -0.8172 -0.0990
  405SOL     OW 1213   0.213   2.512   0.573  0.4687 -0.5839  0.1917
  405SOL    HW1 1214   0.259   2.457   0.497  1.1126  0.1289 -2.7612
  405SOL    HW2 1215   0.273   2.586   0.610  0.7484  0.3410 -0.5052
  406SOL     OW 1216   0.013   1.574   2.987 -0.2407 -0.5875 -0.1132
  406SOL    HW1 1217   0.084   1.533   2.923  0.8891  0.5305 -1.8162
  406SOL    HW2 1218   0.048   1.572   3.086 -0.3000  2.0093 -1.6899
  407SOL     OW 1219   1.557   0.975   0.953  0.0791 -0.3649 -0.0669
  407SOL    HW1 1220   1.596   0.932   0.866  0.8934  0.7653 -1.6443
  407SOL    HW2 1221   1.477   1.040   0.936 -1.0417  1.4705  1.7488
  408SOL     OW 1222   1.440   2.337   0.943  0.0368  0.9033 -0.0112
  408SOL    HW1 1223   1.520   2.328   0.873  1.3022  2.2253 -3.0150
  408SOL    HW2 1224   1.452   2.420   1.000  0.0906  2.4420 -2.0162
  409SOL     OW 1225   0.625   0.869   0.676 -0.2489 -0.3318 -0.0141
  409SOL    HW1 1226   0.548   0.906   0.622 -0.1134 -0.3460  1.7707
  409SOL    HW2 1227   0.630   0.769   0.663 -2.0688 -0.5060  2.1722
  410SOL     OW 1228   1.353   1.996   1.499 -0.7441 -0.2635 -0.2942
  410SOL    HW1 1229   1.325   2.072   1.565  0.6586  1.0481 -1.0541
  410SOL    HW2 1230   1.277   1.930   1.470  1.0351  3.6495  0.9254
  411SOL     OW 1231   2.377   1.847   0.062 -0.7915  0.2456  0.1095
  411SOL    HW1 1232   2.295   1.876   0.010  0.6291 -1.3062  0.0721
  411SOL    HW2 1233   2.467   1.877   0.015 -0.6095  0.4050 -2.8637
  412SOL     OW 1234   1.568   2.410   2.291 -0.3579 -0.0029 -0.7080
  412SOL    HW1 1235   1.541   2.492   2.348 -0.9674 -2.4050 -0.1596
  412SOL    HW2 1236   1.545   2.330   2.350 -1.3566  0.8293 -1.8861
  413SOL     OW 1237   3.031   0.295   2.863  0.0248 -0.3109  0.7463
  413SOL    HW1 1238   2.994   0.201   2.884  0.9491  2.4227 -1.6644
  413SOL    HW2 1239   3.134   0.293   2.881 -0.4953 -0.6366 -1.7110
  414SOL     OW 1240   1.764   1.306   1.318  0.2870 -0.4823 -0.1085
  414SOL    HW1 1241   1.711   1.398   1.342 -0.8822  2.2172  1.6793
  414SOL    HW2 1242   1.763   1.290   1.216 -0.5824  1.8506  2.7046
  415SOL     OW 1243   0.286   2.263   0.720  0.6708  0.0144  0.0696
  415SOL    HW1 1244   0.243   2.362   0.724 -1.6248 -0.1042 -0.7327
  415SOL    HW2 1245   0.216   2.186   0.713  0.4165  2.8422  2.1503
  416SOL     OW 1246   0.329   1.024   1.033 -0.7246 -0.2491 -0.3154
  416SOL    HW1 1247   0.290   1.012   0.939 -0.4262  2.0123 -1.5001
  416SOL    HW2 1248   0.435   1.030   1.039  0.2253  0.0535  1.5710
  417SOL     OW 1249   2.175   2.340   1.880  0.2048 -0.4603 -0.0358
  417SOL    HW1 1250   2.210   2.243   1.887  0.6471  0.7659 -1.8507
  417SOL    HW2 1251   2.089   2.362   1.934  0.1848  2.4819 -0.8001
  418SOL     OW 1252   1.116   0.487   1.380  0.2853 -0.5304 -0.1287
  418SOL    HW1 1253   1.031   0.429   1.372 -1.6691 -0.2063 -0.0284
  418SOL    HW2 1254   1.174   0.475   1.302 -3.0937 -2.3284  2.4003
  419SOL     OW 1255   0.960   0.365   2.976  0.3404 -0.1137 -0.3176
  419SOL    HW1 1256   0.966   0.419   2.888 -0.3747 -1.1777 -0.7753
  419SOL    HW2 1257   0.909   0.274   2.967 -1.3297  0.9896 -0.1246
  420SOL     OW 1258   0.182   2.275   0.359 -0.3777  0.1080  0.0992
  420SOL    HW1 1259   0.194   2.236   0.260  1.8860 -2.1455 -1.8403
  420SOL    HW2 1260   0.100   2.233   0.414  1.8030 -0.8086  2.2298
  421SOL     OW 1261   0.331   0.071   0.687  0.0305  0.0543 -0.1295
  421SOL    HW1 1262   0.340   0.010   0.606 -0.1366  0.9817 -0.5679
  421SOL    HW2 1263   0.420   0.094   0.731 -1.1691 -0.7804  1.1308
  422SOL     OW 1264   0.941   2.523   1.053 -0.0488 -0.1892 -0.1659
  422SOL    HW1 1265   0.963   2.611   1.001 -0.5876 -1.7190  1.3243
  422SOL    HW2 1266   0.951   2.536   1.154  2.7741  1.9751 -1.1215
  423SOL     OW 1267   0.047   0.725   1.169 -0.0521  0.4433  0.2464
  423SOL    HW1 1268   0.010   0.675   1.253  1.6081  2.7633  3.0136
  423SOL    HW2 1269  -0.018   0.788   1.132  2.1164 -1.2190  1.6442
  424SOL     OW 1270   0.971   2.131   2.229  0.0430  0.1112 -0.3968
  424SOL    HW1 1271   0.929   2.185   2.152 -0.1471 -2.1463  0.8817
  424SOL    HW2 1272   0.923   2.151   2.321  0.1475  0.2686 -0.4481
  425SOL     OW 1273   1.998   1.437   1.093  0.2350 -0.1515 -0.4334
  425SOL    HW1 1274   2.008   1.336   1.092 -2.3565  1.8075  1.2332
  425SOL    HW2 1275   2.053   1.469   1.010  1.9751 -0.3326 -1.3453
  426SOL     OW 1276   1.560   1.545   1.390  0.4766  0.0384  0.2231
  426SOL    HW1 1277   1.510   1.629   1.351  0.9092 -1.1402  0.2938
  426SOL    HW2 1278   1.543   1.538   1.494  0.2455  0.0235  1.0166
  427SOL     OW 1279   1.932   2.347   2.034 -0.5815 -0.0117  0.0072
  427SOL    HW1 1280   1.967   2.293   2.117 -1.6195 -1.2006 -0.5503
  427SOL    HW2 1281   1.935   2.447   2.040  0.8668 -2.5957 -1.5765
  428SOL     OW 1282   0.918   3.082   0.072  0.4367 -0.1616  0.5032
  428SOL    HW1 1283   0.967   3.171   0.097 -1.7426 -1.3365  0.7382
  428SOL    HW2 1284   0.987   3.002   0.057  1.9282  0.2875 -0.2769
  429SOL     OW 1285   1.288   0.060   0.238  0.7169 -0.1374 -0.2378
  429SOL    HW1 1286   1.370   0.128   0.231  2.6266  2.6564  3.6823
  429SOL    HW2 1287   1.292  -0.013   0.168  1.6239  1.9031  0.1140
  430SOL     OW 1288   2.783   1.494   0.338  0.2375 -0.0002  0.3387
  430SOL    HW1 1289   2.719   1.558   0.281  0.1514  1.6153 -1.1282
  430SOL    HW2 1290   2.816   1.529   0.429 -0.6744 -1.0565 -1.4894
  431SOL     OW 1291   2.116   1.607   0.888  0.2751 -0.2975 -0.6517
  431SOL    HW1 1292   2.174   1.678   0.934 -0.6559 -0.8804 -1.2952
  431SOL    HW2 1293   2.028   1.648   0.850 -1.2960 -1.7201 -0.8676
  432SOL     OW 1294   2.887   2.280   1.214 -0.3420  1.1508 -0.2182
  432SOL    HW1 1295   2.861   2.179   1.219 -1.9810 -1.3421  0.7198
  432SOL    HW2 1296   2.925   2.311   1.302  0.1541 -1.0720  1.8242
  433SOL     OW 1297   1.856   0.257   0.812  0.3503  0.1776  0.0969
  433SOL    HW1 1298   1.778   0.265   0.879 -2.3478  0.3223  0.0110
  433SOL    HW2 1299   1.947   0.271   0.852 -0.4592 -1.6519 -0.4763
  434SOL     OW 1300   1.508   0.245   0.715  0.6931 -0.0978  0.0866
  434SOL    HW1 1301   1.494   0.335   0.666 -1.0873  2.6543 -1.7973
  434SOL    HW2 1302   1.559   0.260   0.807 -0.0017  2.5894 -3.3989
  435SOL     OW 1303   1.422   1.469   2.092  0.1997 -0.0327  0.0590
  435SOL    HW1 1304   1.387   1.476   2.189 -0.2955  0.6903  1.4394
  435SOL    HW2 1305   1.381   1.541   2.029 -0.7721  2.6550 -1.0995
  436SOL     OW 1306   1.643   2.689   2.390 -0.2565 -0.0996 -0.3143
  436SOL    HW1 1307   1.646   2.791   2.426 -1.5143 -0.8708  0.8674
  436SOL    HW2 1308   1.589   2.624   2.450  2.6929 -0.0642 -0.0777
  437SOL     OW 1309   0.988   2.966   0.881  0.0884  0.4353 -0.8058
  437SOL    HW1 1310   0.968   3.065   0.863  0.2433  0.0485 -0.8732
  437SOL    HW2 1311   1.024   2.952   0.978  2.0124 -0.6042  0.8636
  438SOL     OW 1312   0.997   2.519   1.321  0.1744 -0.0524  0.3201
  438SOL    HW1 1313   1.081   2.577   1.342  0.6928  0.7496 -0.0310
  438SOL    HW2 1314   1.002   2.414   1.341 -1.5801  0.3655 -2.2948
  439SOL     OW 1315   0.712   1.693   1.040  0.3192  0.4980  0.0455
  439SOL    HW1 1316   0.772   1.777   1.030 -0.6233 -0.1785 -0.1236
  439SOL    HW2 1317   0.617   1.718   1.070 -0.7210  1.2941 -0.6481
  440SOL     OW 1318   0.949   2.375   1.998 -0.0658 -0.2329 -0.1717
  440SOL    HW1 1319   0.946   2.440   1.913  2.0369  0.8178 -0.0682
  440SOL    HW2 1320   1.040   2.327   2.007  2.7223  1.3477  3.7125
  441SOL     OW 1321   0.368   2.779   1.317  0.5698 -0.6080 -0.4879
  441SOL    HW1 1322   0.428   2.693   1.319  1.2729 -1.9072  1.7341
  441SOL    HW2 1323   0.392   2.847   1.246  0.7687 -0.7605  0.0818
  442SOL     OW 1324   2.236   0.677   2.558  0.2386 -0.5291 -0.0688
  442SOL    HW1 1325   2.236   0.575   2.543 -3.0398  0.4674  1.0855
  442SOL    HW2 1326   2.155   0.731   2.514 -0.4978  0.9559  0.0959
  443SOL     OW 1327   1.256   2.562   2.182 -0.3771 -0.3224 -0.2570
  443SOL    HW1 1328   1.266   2.462   2.207  1.3812 -1.2704  0.5477
  443SOL    HW2 1329   1.215   2.617   2.257  1.1794 -1.4396  0.0492
  444SOL     OW 1330   0.962   1.198   1.483  0.7443  0.5833 -0.1246
  444SOL    HW1 1331   1.060   1.172   1.499 -1.1025  1.9200  0.2215
  444SOL    HW2 1332   0.958   1.299   1.467  1.2952 -1.7298 -0.4159
  445SOL     OW 1333   0.152   2.236   2.110  0.2286  0.4758  0.5402
  445SOL    HW1 1334   0.186   2.150   2.064 -1.1748  0.0208 -0.9637
  445SOL    HW2 1335   0.090   2.209   2.190  0.2694  0.1643 -3.3919
  446SOL     OW 1336   0.117   1.947   2.406 -0.1302  0.0885 -0.2005
  446SOL    HW1 1337   0.069   2.040   2.394 -2.1792  0.2247 -0.1925
  446SOL    HW2 1338   0.130   1.906   2.307  1.1098  1.3417  0.2745
  447SOL     OW 1339   1.307   1.689   1.906  0.3342  0.8251  0.0630
  447SOL    HW1 1340   1.243   1.766   1.880 -0.3103  0.0798 -1.5641
  447SOL    HW2 1341   1.387   1.732   1.959 -0.6692  3.5385 -0.8853
  448SOL     OW 1342   0.173   1.471   2.000  0.4494 -0.0823  0.1929
  448SOL    HW1 1343   0.184   1.570   1.971  0.0812 -2.1047  0.3350
  448SOL    HW2 1344   0.102   1.465   2.071 -0.7964  2.0894  0.8006
  449SOL     OW 1345   1.846   2.956   0.820 -0.0175 -1.0392 -0.1389
  449SOL    HW1 1346   1.844   2.981   0.920 -0.7146 -1.0959  0.8018
  449SOL    HW2 1347   1.891   2.868   0.797 -2.7463  3.3903 -3.0882
  450SOL     OW 1348   2.240   1.485   0.687 -0.0087 -0.5411 -0.0059
  450SOL    HW1 1349   2.220   1.527   0.779 -1.4220 -1.0139 -1.0497
  450SOL    HW2 1350   2.293   1.547   0.625 -2.6890 -0.5794  0.4795
  451SOL     OW 1351   1.421   2.980   1.462  0.2186  0.0984 -0.3009
  451SOL    HW1 1352   1.349   3.049   1.492  0.3148 -0.5768 -2.3853
  451SOL    HW2 1353   1.466   2.940   1.549 -1.7872  1.8629 -1.5877
  452SOL     OW 1354   2.698   2.306   2.272  0.0779 -0.1658 -0.0733
  452SOL    HW1 1355   2.623   2.382   2.278 -1.0615 -2.2391  0.5604
  452SOL    HW2 1356   2.750   2.285   2.361  1.8684 -0.9599 -0.4228
  453SOL     OW 1357   2.450   2.651   0.009 -0.0466  0.0458 -0.2173
  453SOL    HW1 1358   2.359   2.688   0.035 -2.4845 -0.9025 -1.4266
  453SOL    HW2 1359   2.455   2.605  -0.086  0.4204 -0.0395 -2.0458
  454SOL     OW 1360   0.923   1.194   2.000  0.6534  0.3818  0.0167
  454SOL    HW1 1361   0.897   1.182   1.900 -1.9837 -0.4210  0.9472
  454SOL    HW2 1362   1.007   1.252   2.011  0.3315 -1.0905 -0.3366
  455SOL     OW 1363   0.703   2.620   2.815  0.5146 -0.2021 -0.0426
  455SOL    HW1 1364   0.799   2.653   2.821 -1.4605  2.5129  0.4697
  455SOL    HW2 1365   0.683   2.539   2.880 -3.9451  0.4266 -2.2435
  456SOL     OW 1366   0.302   1.932   0.217 -0.0289  0.0931 -0.0160
  456SOL    HW1 1367   0.406   1.929   0.218  0.3049  1.8914  1.7111
  456SOL    HW2 1368   0.267   2.017   0.170 -0.5928 -0.6499 -0.3357
  457SOL     OW 1369   0.409   2.687   0.658 -0.4131  0.4741  0.2011
  457SOL    HW1 1370   0.464   2.747   0.594 -0.4987  3.7873 -0.8108
  457SOL    HW2 1371   0.470   2.648   0.734 -1.6182  2.5085  1.2585
  458SOL     OW 1372   2.925   0.021   1.278  0.2199  0.0674  0.0360
  458SOL    HW1 1373   2.985   0.108   1.264 -0.1330  1.0012 -0.6400
  458SOL    HW2 1374   2.921  -0.031   1.186  0.0926  2.3609 -3.0884
  459SOL     OW 1375   2.144   2.527   0.718  0.0410 -0.1618 -0.0889
  459SOL    HW1 1376   2.208   2.541   0.798 -1.3583  0.5290  0.9721
  459SOL    HW2 1377   2.179   2.555   0.624 -2.4112 -3.4333  0.2334
  460SOL     OW 1378   1.152   2.033   2.771  0.0956 -0.2165 -0.4081
  460SOL    HW1 1379   1.187   2.065   2.677  0.0966 -1.8506  0.2944
  460SOL    HW2 1380   1.183   1.938   2.798 -1.0110 -0.5584 -1.4019
  461SOL     OW 1381   0.471   2.135   2.720 -0.2355 -0.1284 -0.4444
  461SOL    HW1 1382   0.391   2.097   2.679  3.3341  1.5656  0.9710
  461SOL    HW2 1383   0.487   2.104   2.815  1.0257  1.2678 -1.3022
  462SOL     OW 1384   0.935   1.025   1.744 -0.0170  0.0206  0.3601
  462SOL    HW1 1385   0.956   0.956   1.672  1.0005 -0.6489  1.3897
  462SOL    HW2 1386   0.913   1.115   1.702 -0.1427 -2.2347 -1.2820
  463SOL     OW 1387   0.419   0.804   0.474  0.0362  0.1088 -0.2871
  463SOL    HW1 1388   0.465   0.727   0.429  1.8907  1.9489 -0.2143
  463SOL    HW2 1389   0.316   0.792   0.485 -1.7385 -0.1579  1.4634
  464SOL     OW 1390   0.594   2.367   2.284  0.7301  0.2803 -0.3624
  464SOL    HW1 1391   0.511   2.423   2.318 -0.2566 -2.0959 -0.6848
  464SOL    HW2 1392   0.592   2.345   2.181  0.4625 -4.2106  1.6398
  465SOL     OW 1393   0.234   0.976   0.789  0.0705  0.2210  0.2516
  465SOL    HW1 1394   0.148   1.005   0.737  0.0060 -0.1515  0.4105
  465SOL    HW2 1395   0.259   0.879   0.770 -2.3910 -0.1089 -1.5859
  466SOL     OW 1396   1.330   1.140   0.975 -0.0704  0.2718  0.7746
  466SOL    HW1 1397   1.339   1.237   0.946  1.8675  0.4353 -0.0884
  466SOL    HW2 1398   1.230   1.109   0.987 -0.5715  0.2533  2.7910
  467SOL     OW 1399   0.634   0.471   2.546 -0.0575 -0.1070 -0.4887
  467SOL    HW1 1400   0.554   0.534   2.549 -1.0221 -1.7381  0.2439
  467SOL    HW2 1401   0.623   0.394   2.616 -1.8257 -0.4247 -0.7657
  468SOL     OW 1402   0.453   2.265   1.571  0.4860 -0.0749  0.4834
  468SOL    HW1 1403   0.536   2.313   1.610  0.6477 -1.4432  1.0508
  468SOL    HW2 1404   0.462   2.235   1.472 -0.2398 -0.1085  0.5701
  469SOL     OW 1405   1.446   1.343   1.237 -0.2621  0.1220 -0.5603
  469SOL    HW1 1406   1.498   1.359   1.151 -0.2952  1.4728 -1.7293
  469SOL    HW2 1407   1.472   1.423   1.305  1.7784 -0.6603 -0.5916
  470SOL     OW 1408   2.999   1.812   0.805  0.1773  0.1396 -0.4953
  470SOL    HW1 1409   3.064   1.888   0.789  1.6334  0.2144  2.1233
  470SOL    HW2 1410   3.009   1.779   0.905 -0.9012 -3.0442 -0.3943
  471SOL     OW 1411   2.657   1.380   2.195 -0.2987  0.0781 -0.0967
  471SOL    HW1 1412   2.635   1.278   2.199 -1.5620 -1.8230  0.5232
  471SOL    HW2 1413   2.747   1.398   2.241 -0.6587  0.4794 -0.0444
  472SOL     OW 1414   1.206   2.450   0.029 -0.8103  0.6323  0.0286
  472SOL    HW1 1415   1.255   2.496   0.107 -0.6521  0.6344 -0.4596
  472SOL    HW2 1416   1.130   2.385   0.063 -0.6482 -0.4207 -0.8755
  473SOL     OW 1417   1.083   1.523   0.998  0.3702  0.1863  0.0977
  473SOL    HW1 1418   0.996   1.528   0.938 -0.4266 -0.0251  0.0852
  473SOL    HW2 1419   1.083   1.446   1.067  0.6364  0.9514 -0.8635
  474SOL     OW 1420   0.626   1.285   0.495  0.1533  0.0781  0.3466
  474SOL    HW1 1421   0.573   1.214   0.441 -0.6708  0.8894 -1.8891
  474SOL    HW2 1422   0.694   1.248   0.566  0.7266  1.3274  1.4871
  475SOL     OW 1423   2.825   0.060   0.823 -0.1749 -0.1311 -0.0315
  475SOL    HW1 1424   2.876   0.131   0.880 -0.6875 -0.2905  1.4039
  475SOL    HW2 1425   2.722   0.070   0.844 -1.4017  3.1754 -0.2557
  476SOL     OW 1426   0.947   3.058   1.823  0.1297  0.4802 -0.0978
  476SOL    HW1 1427   1.042   3.097   1.824 -1.8268 -0.8309 -0.8690
  476SOL    HW2 1428   0.926   3.018   1.730  1.0220 -0.6413  0.7007
  477SOL     OW 1429   1.434   0.330   2.431 -0.1578  0.0560 -0.5423
  477SOL    HW1 1430   1.434   0.365   2.530  0.7688  1.3481 -0.3332
  477SOL    HW2 1431   1.516   0.273   2.403 -0.9480  0.2679  0.7205
  478SOL     OW 1432   2.220   1.902   0.289 -0.8476 -0.5882  0.0093
  478SOL    HW1 1433   2.170   1.828   0.340  1.4341  0.9398 -3.1346
  478SOL    HW2 1434   2.292   1.860   0.224  1.8969  1.0647 -1.4625
  479SOL     OW 1435   1.314   0.944   2.883  0.8007 -0.3128  0.3872
  479SOL    HW1 1436   1.411   0.938   2.844  0.7305  0.9616 -0.3980
  479SOL    HW2 1437   1.250   0.870   2.840 -1.5208 -2.6770  1.3765
  480SOL     OW 1438   2.691   2.299   0.414 -0.5111 -0.1981 -0.4116
  480SOL    HW1 1439   2.744   2.209   0.438 -0.0029 -0.4654  2.8257
  480SOL    HW2 1440   2.589   2.297   0.440  0.7001 -1.3461 -0.7229
  481SOL     OW 1441   0.969   1.152   0.831  0.5170  0.2629  0.7907
  481SOL    HW1 1442   0.960   1.254   0.811  1.2956 -0.1059  0.4003
  481SOL    HW2 1443   0.994   1.130   0.928 -0.6558 -1.2955  2.0847
  482SOL     OW 1444   1.623   0.300   2.032  0.4413  0.0725 -0.3294
  482SOL    HW1 1445   1.631   0.404   2.020 -0.7405  1.1670  0.0866
  482SOL    HW2 1446   1.710   0.251   2.055  0.7411 -1.1677 -1.0831
  483SOL     OW 1447   0.132   2.354   1.195  0.9015 -0.6978 -0.0384
  483SOL    HW1 1448   0.124   2.422   1.273 -0.6565  0.4444 -3.1954
  483SOL    HW2 1449   0.160   2.410   1.111  0.5629  1.2529 -2.7833
  484SOL     OW 1450   1.711   1.059   1.467  0.1504  0.0174 -0.5992
  484SOL    HW1 1451   1.797   1.004   1.462 -0.8875 -1.2525 -0.8953
  484SOL    HW2 1452   1.724   1.155   1.434  0.2863 -3.1705 -0.5244
  485SOL     OW 1453   0.751   0.755   1.926  0.1913  0.3882 -0.9997
  485SOL    HW1 1454   0.711   0.784   1.838 -1.2191 -0.5939 -1.3172
  485SOL    HW2 1455   0.842   0.708   1.915  0.2433  1.0189 -0.7445
  486SOL     OW 1456   0.879   1.893   2.443 -0.2491  0.1038 -0.0253
  486SOL    HW1 1457   0.919   1.869   2.536  2.5337 -0.0086  1.7432
  486SOL    HW2 1458   0.846   1.993   2.434 -1.1476 -0.7618  0.4688
  487SOL     OW 1459   1.769   1.585   1.066  0.0144 -0.1166  0.5177
  487SOL    HW1 1460   1.841   1.511   1.077  0.1859  1.2050  0.0102
  487SOL    HW2 1461   1.790   1.659   0.993  0.5030  0.6031  1.6865
  488SOL     OW 1462   2.934   0.799   2.229 -0.1460  0.2406  0.1326
  488SOL    HW1 1463   3.011   0.729   2.240 -2.6495 -0.9495 -1.5768
  488SOL    HW2 1464   2.861   0.782   2.301 -0.0622 -0.0814  1.0641
  489SOL     OW 1465   2.784   0.350   1.313 -0.2559 -0.3127 -0.0287
  489SOL    HW1 1466   2.792   0.310   1.408  0.7592  0.7798  0.9715
  489SOL    HW2 1467   2.838   0.296   1.245 -1.7608  0.9782 -0.4985
  490SOL     OW 1468   1.485   2.942   2.821 -0.1663  0.1316  0.1060
  490SOL    HW1 1469   1.516   2.842   2.836 -1.2820  0.2101  2.7009
  490SOL    HW2 1470   1.438   2.950   2.727  0.6318 -1.6295 -0.9056
  491SOL     OW 1471   1.798   1.445   2.722 -0.6043 -0.0148 -0.1507
  491SOL    HW1 1472   1.794   1.390   2.811  2.5374 -0.2209 -0.8898
  491SOL    HW2 1473   1.870   1.522   2.723  1.3788 -0.6819  1.6033
  492SOL     OW 1474   0.601   2.092   0.584 -1.0255  0.3804 -0.0110
  492SOL    HW1 1475   0.628   2.089   0.688 -0.1793 -1.3697  2.5913
  492SOL    HW2 1476   0.499   2.123   0.565  1.1696  0.1736 -0.1263
  493SOL     OW 1477   0.402   1.327   2.082 -0.1921 -0.0980  0.2313
  493SOL    HW1 1478   0.314   1.370   2.051 -1.4130 -0.2409  3.2126
  493SOL    HW2 1479   0.397   1.240   2.136  1.7226 -0.5238 -2.5995
  494SOL     OW 1480   2.700   2.646   0.143  0.4334  0.3497 -0.7354
  494SOL    HW1 1481   2.714   2.613   0.242  0.5355 -1.2099 -0.6508
  494SOL    HW2 1482   2.598   2.659   0.112 -2.0670 -0.7781 -1.0299
  495SOL     OW 1483   2.525   2.805   2.631  0.2115  0.3407  0.1772
  495SOL    HW1 1484   2.539   2.704   2.632  0.5644  0.1216 -0.3170
  495SOL    HW2 1485   2.594   2.853   2.574  2.5938  0.4155 -2.3088
  496SOL     OW 1486   1.948   2.321   0.821  0.1889  0.1152  0.6363
  496SOL    HW1 1487   1.988   2.345   0.915  0.0819  1.7647 -0.1174
  496SOL    HW2 1488   2.003   2.260   0.767 -0.7153 -0.9437  3.1235
  497SOL     OW 1489   0.263   2.992   2.352 -0.4514 -0.1530 -0.0831
  497SOL    HW1 1490   0.206   3.070   2.385 -3.8146  2.0576 -1.6432
  497SOL    HW2 1491   0.328   3.024   2.276 -0.5410 -0.0112 -4.7026
  498SOL     OW 1492   1.154   1.337   1.213 -0.1374  0.2042 -0.1561
  498SOL    HW1 1493   1.258   1.329   1.211 -3.5525 -2.8028  1.0180
  498SOL    HW2 1494   1.109   1.382   1.299  0.5797 -1.0580  1.2680
  499SOL     OW 1495   0.594   1.820   0.366  0.1581  0.6203 -0.4689
  499SOL    HW1 1496   0.610   1.807   0.263 -0.8235 -1.4542 -2.1499
  499SOL    HW2 1497   0.676   1.869   0.407 -1.4260  2.4136 -1.6878
  500SOL     OW 1498   1.527   2.808   1.663  0.6577  0.2588  0.0236
  500SOL    HW1 1499   1.567   2.769   1.747 -0.2037  0.3494 -1.7695
  500SOL    HW2 1500   1.521   2.737   1.590  0.3132 -2.8160 -1.7159
  501SOL     OW 1501   0.789   1.180   2.265  0.3687 -0.4624 -0.2938
  501SOL    HW1 1502   0.737   1.098   2.295 -0.0295  1.2210 -1.8327
  501SOL    HW2 1503   0.798   1.170   2.162  0.9346 -0.7556 -0.0490
  502SOL     OW 1504   2.576   0.919   1.800  0.2181 -0.1679  0.1042
  502SOL    HW1 1505   2.619   0.964   1.709  0.0611 -0.4278  1.1528
  502SOL    HW2 1506   2.560   0.818   1.791  2.2090  0.2650 -0.4293
  503SOL     OW 1507   1.259   0.119   0.686  0.4032  0.0176  0.2074
  503SOL    HW1 1508   1.194   0.202   0.680 -1.1188 -0.4661 -0.7740
  503SOL    HW2 1509   1.349   0.150   0.723  0.6172  0.0761 -2.4995
  504SOL     OW 1510   2.991   2.368   1.494  0.1066  0.0789  0.0961
  504SOL    HW1 1511   2.951   2.437   1.557  1.3416 -0.0486 -1.8127
  504SOL    HW2 1512   3.064   2.313   1.544  1.8963 -2.0683  1.0185
  505SOL     OW 1513   2.315   1.140   1.496  0.1107 -0.0168  0.1078
  505SOL    HW1 1514   2.306   1.188   1.404 -3.2741 -1.3801 -2.1444
  505SOL    HW2 1515   2.371   1.190   1.565 -1.1653 -2.2040  2.1071
  506SOL     OW 1516   1.954   0.171   1.880  0.2951 -0.4867  0.3914
  506SOL    HW1 1517   2.053   0.155   1.857 -1.2185  0.2344 -3.7392
  506SOL    HW2 1518   1.931   0.269   1.901 -0.1026 -2.4830 -0.7781
  507SOL     OW 1519   0.502   0.753   2.209  0.2686  0.3461  0.7396
  507SOL    HW1 1520   0.471   0.724   2.117 -1.2349 -2.2317  0.0206
  507SOL    HW2 1521   0.555   0.674   2.255  0.0722  0.2877  2.0052
  508SOL     OW 1522   0.276   1.663   0.816 -0.2807 -0.2642 -0.3981
  508SOL    HW1 1523   0.335   1.710   0.744 -0.2662 -0.9213  0.1274
  508SOL    HW2 1524   0.273   1.716   0.908 -2.2376  0.1294  3.9738
  509SOL     OW 1525   1.296   1.222   2.465  0.6275  0.3046  0.1292
  509SOL    HW1 1526   1.337   1.145   2.412 -2.4752 -0.3640 -3.9113
  509SOL    HW2 1527   1.214   1.195   2.521 -1.5163 -2.6296 -0.7820
  510SOL     OW 1528   1.308   2.031   2.239 -0.9251 -0.4396  0.0550
  510SOL    HW1 1529   1.339   2.069   2.146 -0.6259 -0.3667 -1.0353
  510SOL    HW2 1530   1.242   1.954   2.232  1.5055  1.3173 -1.1241
  511SOL     OW 1531   2.999   2.666   1.342  0.1725  0.5533 -0.3697
  511SOL    HW1 1532   3.017   2.677   1.240 -0.1803  0.1116  0.0256
  511SOL    HW2 1533   2.905   2.620   1.357 -0.9186  1.1069 -3.0965
  512SOL     OW 1534   2.325   0.445   1.419  0.3523  0.1083  0.6417
  512SOL    HW1 1535   2.228   0.460   1.389  1.1439 -1.4445 -1.0028
  512SOL    HW2 1536   2.390   0.407   1.346  0.0689  2.5068 -0.8216
  513SOL     OW 1537   2.527   2.081   0.866  0.1449 -0.2576 -0.6009
  513SOL    HW1 1538   2.509   2.172   0.819  1.3246  0.0219 -0.7532
  513SOL    HW2 1539   2.606   2.026   0.826  2.4086 -0.9284 -0.6983
  514SOL     OW 1540   0.610   2.738   0.464  0.2952 -0.5076 -0.0714
  514SOL    HW1 1541   0.672   2.723   0.386  2.5778 -1.0212  0.5394
  514SOL    HW2 1542   0.649   2.807   0.537 -0.8720  0.3875  3.4096
  515SOL     OW 1543   1.944   1.336   2.400 -0.0261  0.0441 -0.6050
  515SOL    HW1 1544   1.934   1.300   2.301  0.1486 -2.2674 -2.3585
  515SOL    HW2 1545   1.870   1.292   2.457 -0.3577  1.9940  0.8861
  516SOL     OW 1546   0.269   0.150   1.940 -0.0777 -0.3034 -0.1028
  516SOL    HW1 1547   0.357   0.164   1.890 -1.2682  1.8296 -1.7354
  516SOL    HW2 1548   0.197   0.109   1.873  0.7466 -0.5927  1.1848
  517SOL     OW 1549   0.461   0.215   1.135  0.4716  0.2543  0.4894
  517SOL    HW1 1550   0.539   0.161   1.170  0.2021 -1.1600  2.1760
  517SOL    HW2 1551   0.373   0.164   1.149 -0.3018 -0.8521 -0.5409
  518SOL     OW 1552   2.167   3.016   1.824  0.0696 -0.7344 -0.3114
  518SOL    HW1 1553   2.209   3.108   1.848 -0.8688  1.9618  0.3506
  518SOL    HW2 1554   2.210   2.975   1.737  0.1122 -0.6474 -1.4160
  519SOL     OW 1555   2.329   2.243   2.540  0.4350 -0.4330 -0.0145
  519SOL    HW1 1556   2.269   2.210   2.619  0.5572  1.2235 -0.5478
  519SOL    HW2 1557   2.341   2.348   2.544 -0.6317 -0.4891 -0.4382
  520SOL     OW 1558   1.813   2.684   1.652  0.7355  0.9069 -0.4380
  520SOL    HW1 1559   1.756   2.663   1.735  0.8631  1.0431  1.0578
  520SOL    HW2 1560   1.913   2.644   1.651  0.9240  1.0166  0.2856
  521SOL     OW 1561   0.646   0.066   2.145 -0.2347  0.0670  0.5402
  521SOL    HW1 1562   0.554   0.030   2.129  1.6699  0.3149 -0.5644
  521SOL    HW2 1563   0.665   0.050   2.249  0.7231 -2.3224  1.8494
  522SOL     OW 1564   0.229   1.938   1.481  0.0813 -0.0728 -0.1971
  522SOL    HW1 1565   0.272   1.989   1.562 -0.5334 -1.3569 -0.1613
  522SOL    HW2 1566   0.216   1.990   1.392 -2.6239  1.3710 -0.0786
  523SOL     OW 1567   2.215   2.916   1.572 -0.6076  0.3278  0.4908
  523SOL    HW1 1568   2.301   2.901   1.513  3.9461  0.1854 -0.4576
  523SOL    HW2 1569   2.124   2.877   1.533  0.1517 -0.4484  4.3194
  524SOL     OW 1570   0.214   2.758   2.783 -0.2880  0.3801  0.8106
  524SOL    HW1 1571   0.168   2.842   2.813 -0.6525 -3.4628 -1.9364
  524SOL    HW2 1572   0.319   2.763   2.762  0.6202  0.8316 -1.7986
  525SOL     OW 1573   2.205   2.086   0.501 -0.0347 -0.3487 -0.1981
  525SOL    HW1 1574   2.195   2.029   0.591  0.4668 -1.1921 -0.1032
  525SOL    HW2 1575   2.199   2.026   0.419 -1.1919 -0.8480 -1.9166
  526SOL     OW 1576   0.398   1.533   1.733  0.3055 -0.3939  0.2866
  526SOL    HW1 1577   0.474   1.578   1.789  5.3680  0.7012  0.7345
  526SOL    HW2 1578   0.386   1.432   1.742 -0.0641  0.9822 -1.3591
  527SOL     OW 1579   1.117   2.978   1.120 -1.1510 -0.6681  0.2268
  527SOL    HW1 1580   1.169   2.896   1.152  1.6669 -0.8898  4.3551
  527SOL    HW2 1581   1.170   3.064   1.135 -1.2129 -0.9350  1.4585
  528SOL     OW 1582   1.283   2.413   0.625  0.1654 -0.1659 -0.2766
  528SOL    HW1 1583   1.323   2.321   0.633  0.6601 -0.9900 -0.1016
  528SOL    HW2 1584   1.333   2.487   0.682 -0.7083 -1.0126 -2.1959
  529SOL     OW 1585   1.851   1.733   0.853  0.5025  0.4038 -0.0052
  529SOL    HW1 1586   1.819   1.745   0.754  1.3918  3.9799 -2.5834
  529SOL    HW2 1587   1.885   1.822   0.896  1.2235  0.1487  2.5578
  530SOL     OW 1588   0.403   2.474   0.194  0.3980 -0.5446  0.3118
  530SOL    HW1 1589   0.415   2.407   0.272  0.2194 -1.6154 -2.9063
  530SOL    HW2 1590   0.404   2.429   0.101  0.1496  2.3121 -2.4316
  531SOL     OW 1591   1.845   1.023   1.034 -0.2864 -0.3899 -0.8040
  531SOL    HW1 1592   1.846   1.032   0.930  1.7375 -1.5375 -1.3030
  531SOL    HW2 1593   1.750   0.998   1.068 -1.3177  1.7536  0.5241
  532SOL     OW 1594   0.389   1.186   0.716 -0.0470 -0.3986  0.4942
  532SOL    HW1 1595   0.415   1.160   0.620 -0.4961 -0.8735 -2.2343
  532SOL    HW2 1596   0.312   1.121   0.746 -2.2706  0.5037 -2.6243
  533SOL     OW 1597   1.816   0.062   2.566 -0.1988  1.0991 -0.5482
  533SOL    HW1 1598   1.920   0.074   2.550  0.4426 -1.3419 -0.4217
  533SOL    HW2 1599   1.774   0.124   2.636 -0.5215 -0.2194 -0.0566
  534SOL     OW 1600   0.205   0.176   1.573  0.1304  0.0861  0.3807
  534SOL    HW1 1601   0.274   0.231   1.524  0.1678 -2.6690  2.3416
  534SOL    HW2 1602   0.114   0.222   1.576  2.3516 -0.6200 -2.4117
  535SOL     OW 1603   1.868   0.403   0.137 -0.0713  0.0011  0.3179
  535SOL    HW1 1604   1.906   0.499   0.158 -0.3384 -2.6007 -6.3999
  535SOL    HW2 1605   1.802   0.375   0.210 -0.2368 -0.6477  1.7152
  536SOL     OW 1606   1.211   2.501   0.985  0.2530  0.0670  0.1121
  536SOL    HW1 1607   1.210   2.488   0.883 -1.0717  0.3114  1.4311
  536SOL    HW2 1608   1.115   2.528   1.019 -1.0121  0.2645  1.5377
  537SOL     OW 1609   0.872   0.259   2.288 -0.0584 -0.0660  0.3450
  537SOL    HW1 1610   0.932   0.310   2.216  1.0710 -0.9213  0.4860
  537SOL    HW2 1611   0.784   0.225   2.239  1.0196 -4.0705 -0.3490
  538SOL     OW 1612   1.709   2.272   1.610 -0.5654  0.8713 -0.3494
  538SOL    HW1 1613   1.657   2.223   1.537 -2.6955  0.9574  2.4080
  538SOL    HW2 1614   1.767   2.348   1.577  0.2702  2.5816  0.6946
  539SOL     OW 1615   0.166   1.555   2.734 -0.0798 -0.0357 -0.6423
  539SOL    HW1 1616   0.073   1.576   2.695  3.0772  3.0645  0.5318
  539SOL    HW2 1617   0.222   1.641   2.725 -1.3352  0.9717  0.4490
  540SOL     OW 1618   2.666   1.787   2.148  0.2651 -0.1041 -0.6602
  540SOL    HW1 1619   2.621   1.701   2.126 -1.1746 -0.1483  1.6752
  540SOL    HW2 1620   2.644   1.857   2.079  0.2196  0.0652  2.7168
  541SOL     OW 1621   0.412   2.281   3.083  0.0506 -0.1231  0.4321
  541SOL    HW1 1622   0.433   2.200   3.145  0.6442 -0.4870 -0.0513
  541SOL    HW2 1623   0.338   2.270   3.010  3.1231  1.2138  0.6176
  542SOL     OW 1624   2.185   2.605   0.448 -0.5236  0.0428 -0.0375
  542SOL    HW1 1625   2.192   2.704   0.426  0.9442 -1.7038  1.8072
  542SOL    HW2 1626   2.085   2.570   0.445  0.1311  0.5494 -0.4039
  543SOL     OW 1627   1.078   1.810   1.742 -0.6193 -0.2447 -0.0705
  543SOL    HW1 1628   1.044   1.824   1.835 -0.1603  2.4563 -0.8565
  543SOL    HW2 1629   1.012   1.837   1.663 -1.2879 -0.5102 -0.7455
  544SOL     OW 1630   0.845   0.429   0.115  0.3618 -0.2993  0.3958
  544SOL    HW1 1631   0.879   0.360   0.185  0.1390  0.1004  0.4254
  544SOL    HW2 1632   0.888   0.409   0.022  3.4345 -0.7363  2.8061
  545SOL     OW 1633   1.160   1.769   0.632 -0.2066  0.3366  0.1030
  545SOL    HW1 1634   1.248   1.730   0.667 -1.1280 -1.2926  1.2991
  545SOL    HW2 1635   1.152   1.773   0.528  0.4017 -0.3322  0.1255
  546SOL     OW 1636   2.692   1.603   0.046 -0.3804  0.1946 -0.1485
  546SOL    HW1 1637   2.745   1.566  -0.038 -2.9562 -0.8601  3.1619
  546SOL    HW2 1638   2.595   1.569   0.063 -1.1807  1.1986  3.5695
  547SOL     OW 1639   0.483   3.082   2.741  0.2554  0.9951  0.0668
  547SOL    HW1 1640   0.488   3.008   2.674  0.6033 -0.2139  1.4705
  547SOL    HW2 1641   0.495   3.042   2.840 -2.0851 -3.3861  0.4183
  548SOL     OW 1642   2.069   0.781   3.087 -0.1632  0.2827  0.4854
  548SOL    HW1 1643   1.974   0.762   3.121 -0.3114 -3.4645  0.4188
  548SOL    HW2 1644   2.082   0.886   3.068  1.7567  0.8647  1.9627
  549SOL     OW 1645   0.568   0.438   0.073 -0.2422 -0.1100 -0.1087
  549SOL    HW1 1646   0.547   0.524   0.022 -2.7066 -1.3526  1.4327
  549SOL    HW2 1647   0.664   0.418   0.096 -3.2430 -1.8984 -1.4391
  550SOL     OW 1648   2.526   2.868   2.911  0.4457 -0.3212  0.0022
  550SOL    HW1 1649   2.517   2.788   2.973  0.2183  1.1495  2.2416
  550SOL    HW2 1650   2.541   2.841   2.813  0.6158  1.2052  1.1739
  551SOL     OW 1651   0.234   0.793   0.203 -0.1760 -0.4145  0.2214
  551SOL    HW1 1652   0.336   0.766   0.200  1.2059 -2.4037 -0.0506
  551SOL    HW2 1653   0.194   0.791   0.299 -3.0026 -1.8476 -1.5750
  552SOL     OW 1654   0.842   2.796   1.909  0.0168 -0.1151 -0.3409
  552SOL    HW1 1655   0.819   2.770   2.007 -1.7483 -1.2737  3.0627
  552SOL    HW2 1656   0.884   2.894   1.898 -0.1006  2.2408  2.2979
  553SOL     OW 1657   3.079   2.540   0.368 -0.3241 -0.3238  0.3589
  553SOL    HW1 1658   3.019   2.466   0.323 -1.0473 -0.5251 -0.3079
  553SOL    HW2 1659   3.148   2.501   0.437 -0.8368  1.7440  0.9691
  554SOL     OW 1660   2.141   0.319   0.503  0.3953 -0.1605  0.1936
  554SOL    HW1 1661   2.173   0.259   0.424  0.7703 -3.8276 -0.9881
  554SOL    HW2 1662   2.164   0.270   0.594  2.5766  2.3001 -0.3134
  555SOL     OW 1663   0.486   2.899   2.469 -0.5411  0.2853 -0.0348
  555SOL    HW1 1664   0.390   2.942   2.459  1.1307  0.8894 -0.6948
  555SOL    HW2 1665   0.512   2.839   2.387  0.2160  1.4894 -1.2729
  556SOL     OW 1666   0.942   2.322   1.629 -1.0265 -1.0527 -0.1278
  556SOL    HW1 1667   0.996   2.411   1.648 -0.4057  1.0251  0.5568
  556SOL    HW2 1668   0.973   2.279   1.539 -3.6399 -0.3064 -1.0808
  557SOL     OW 1669   0.161   2.149   0.114 -0.4073 -0.3361  0.3236
  557SOL    HW1 1670   0.059   2.124   0.122 -0.1321  1.2990  2.4648
  557SOL    HW2 1671   0.196   2.168   0.013 -0.5861  0.5518 -1.8120
  558SOL     OW 1672   2.921   2.350   0.273  0.2591  0.2739  0.8102
  558SOL    HW1 1673   2.832   2.327   0.321  0.6239 -0.2687  0.9002
  558SOL    HW2 1674   2.917   2.353   0.168 -1.7819  1.2406 -1.8990
  559SOL     OW 1675   0.428   2.276   1.282 -0.3130 -0.1985 -0.1024
  559SOL    HW1 1676   0.335   2.279   1.239  0.6009 -1.3748 -2.4073
  559SOL    HW2 1677   0.476   2.184   1.273  1.5685 -0.6964  2.2955
  560SOL     OW 1678   2.023   1.072   3.024 -0.2113  0.7426  0.5209
  560SOL    HW1 1679   2.013   1.136   2.942  0.1146  1.3741 -0.0604
  560SOL    HW2 1680   1.968   1.114   3.102 -1.6790  1.0664  1.1475
  561SOL     OW 1681   3.043   1.955   0.109  0.3216  0.4337 -0.3948
  561SOL    HW1 1682   2.996   1.861   0.106  0.4105 -1.1390  0.3702
  561SOL    HW2 1683   2.991   2.026   0.058  1.6110  0.8926  1.0623
  562SOL     OW 1684   0.818   2.185   2.447  0.3434  0.1313  0.0022
  562SOL    HW1 1685   0.728   2.136   2.435 -0.4135 -1.4637  0.8401
  562SOL    HW2 1686   0.840   2.240   2.535 -1.3232 -0.0948  0.5796
  563SOL     OW 1687   0.739   2.533   2.529  0.5726  0.0742  0.0670
  563SOL    HW1 1688   0.790   2.454   2.492  0.4731  1.4321 -1.2110
  563SOL    HW2 1689   0.769   2.552   2.625 -2.1690 -0.7135 -1.9365
  564SOL     OW 1690   2.753   1.281   2.877  0.0805 -0.3958 -0.1163
  564SOL    HW1 1691   2.669   1.284   2.941  0.0844 -2.0395  0.4816
  564SOL    HW2 1692   2.793   1.378   2.865 -1.2393  0.7426  0.3903
  565SOL     OW 1693   2.526   2.020   2.591 -0.1038 -0.0159 -0.3523
  565SOL    HW1 1694   2.487   2.115   2.570 -0.0931 -0.6423 -2.4404
  565SOL    HW2 1695   2.616   2.024   2.638 -1.0690 -0.0389 -2.3263
  566SOL     OW 1696   2.018   2.810   1.412  0.1419 -0.0039 -0.7934
  566SOL    HW1 1697   2.007   2.715   1.449 -2.0701 -0.2501 -0.3877
  566SOL    HW2 1698   2.063   2.815   1.318 -2.5200 -0.3730 -0.1747
  567SOL     OW 1699   2.457   0.146   2.229  0.3798  0.2122  0.4045
  567SOL    HW1 1700   2.492   0.146   2.133  1.8235 -0.0164  2.9094
  567SOL    HW2 1701   2.357   0.170   2.233 -0.1720 -0.5736  0.3438
  568SOL     OW 1702   1.413   1.800   0.443 -0.3245  0.2305 -1.2000
  568SOL    HW1 1703   1.403   1.868   0.362  0.6500 -0.4152  2.1056
  568SOL    HW2 1704   1.411   1.849   0.532 -1.4201  0.6860  0.5166
  569SOL     OW 1705   0.280   0.706   0.793  0.2776 -0.7533  0.2532
  569SOL    HW1 1706   0.328   0.642   0.727  0.8646 -4.5127 -0.2453
  569SOL    HW2 1707   0.180   0.676   0.813 -6.4004 -1.7099 -0.8145
  570SOL     OW 1708   0.629   0.791   2.831  0.3941 -0.3395  0.4179
  570SOL    HW1 1709   0.683   0.779   2.744 -1.8886  0.4350 -0.1410
  570SOL    HW2 1710   0.629   0.889   2.864 -4.0269  1.9586 -0.6281
  571SOL     OW 1711   0.855   3.045   1.135 -0.3882  0.3817  0.1415
  571SOL    HW1 1712   0.848   3.101   1.047 -1.3996 -0.3074  1.2576
  571SOL    HW2 1713   0.950   3.023   1.168  0.1566  0.4779 -1.0405
  572SOL     OW 1714   1.513   2.555   1.191 -0.0156 -0.4655 -0.1753
  572SOL    HW1 1715   1.425   2.506   1.224  0.5556 -2.2485  1.2749
  572SOL    HW2 1716   1.487   2.653   1.155  0.0546  2.0059 -2.3458
  573SOL     OW 1717   2.950   0.429   2.106  0.1871 -0.1165  0.3545
  573SOL    HW1 1718   2.891   0.357   2.152 -1.6017 -2.3900 -0.4239
  573SOL    HW2 1719   2.882   0.492   2.056  1.1734 -0.0780  0.3731
  574SOL     OW 1720   0.247   1.807   1.050  0.0419  0.5473 -0.1451
  574SOL    HW1 1721   0.225   1.909   1.025  0.8366  2.1789  0.5778
  574SOL    HW2 1722   0.168   1.759   1.106 -1.9964  0.3746 -0.8431
  575SOL     OW 1723   0.914   2.161   1.012  0.1538 -0.8197 -0.4194
  575SOL    HW1 1724   0.904   2.155   1.115 -0.8685  0.4401  0.6938
  575SOL    HW2 1725   1.009   2.192   0.981  0.2015 -0.2699  0.9665
  576SOL     OW 1726   2.908   2.899   1.705  0.8723 -0.0213  0.0104
  576SOL    HW1 1727   2.862   2.835   1.638 -0.3287 -0.7116  3.4383
  576SOL    HW2 1728   2.876   2.995   1.690 -1.1874  0.7762  0.7300
  577SOL     OW 1729   2.546   1.257   3.048  0.3303  0.2182 -0.4420
  577SOL    HW1 1730   2.517   1.154   3.041 -0.3390  0.2699 -2.5427
  577SOL    HW2 1731   2.609   1.274   3.129  2.2243  2.1933 -0.7317
  578SOL     OW 1732   1.337   2.776   2.572  0.0040 -0.6036 -0.4147
  578SOL    HW1 1733   1.263   2.736   2.509  1.2943 -0.8480  2.1727
  578SOL    HW2 1734   1.357   2.871   2.548 -1.7439 -3.1477 -0.7807
  579SOL     OW 1735   0.125   2.566   0.152 -0.4327 -0.4187  0.0993
  579SOL    HW1 1736   0.064   2.566   0.236  0.1702  1.4098 -1.6623
  579SOL    HW2 1737   0.224   2.547   0.173  0.1828 -2.1591  0.9282
  580SOL     OW 1738   0.976   2.698   0.361  0.8559 -0.1092 -0.4102
  580SOL    HW1 1739   1.074   2.711   0.322 -0.3295 -1.3358 -0.9176
  580SOL    HW2 1740   0.937   2.603   0.341  0.2241 -1.0105 -1.3757
  581SOL     OW 1741   1.277   2.574   1.480 -0.6876  0.1602  0.0048
  581SOL    HW1 1742   1.299   2.496   1.414  0.1136 -1.9313  4.0000
  581SOL    HW2 1743   1.275   2.671   1.443  1.3723  1.0652 -1.1409
  582SOL     OW 1744   1.523   0.060   1.870  0.2812 -0.2316 -0.1304
  582SOL    HW1 1745   1.552   0.149   1.920 -0.7081 -3.0126 -1.3130
  582SOL    HW2 1746   1.584   0.042   1.791 -3.7679  0.1586  1.4903
  583SOL     OW 1747   2.407   2.991   0.596  0.6428 -0.1492  0.0146
  583SOL    HW1 1748   2.460   2.930   0.531  1.5014  1.4332  0.5642
  583SOL    HW2 1749   2.333   2.940   0.650  0.9641 -0.8053 -2.8676
  584SOL     OW 1750   1.543   0.975   2.101 -0.0505 -0.3964  0.4286
  584SOL    HW1 1751   1.590   1.022   2.019  0.7044 -0.2383 -1.2933
  584SOL    HW2 1752   1.612   0.940   2.174 -0.2012 -2.0380  0.9873
  585SOL     OW 1753   2.120   2.665   2.913  1.0555 -0.6970  0.3519
  585SOL    HW1 1754   2.143   2.570   2.873 -1.8183  1.2217  2.4777
  585SOL    HW2 1755   2.016   2.686   2.915  0.2392  1.1538  1.2620
  586SOL     OW 1756   2.788   0.223   1.545  0.1719  0.0729  0.2818
  586SOL    HW1 1757   2.798   0.289   1.625  0.5251  1.1527 -1.0772
  586SOL    HW2 1758   2.705   0.171   1.557  4.0375 -1.2361  0.0787
  587SOL     OW 1759   2.012   1.617   2.734 -0.1234  0.3563 -0.1128
  587SOL    HW1 1760   2.053   1.578   2.651 -2.0087  1.2301  0.5143
  587SOL    HW2 1761   2.064   1.612   2.825 -1.7291 -0.2388  2.9138
  588SOL     OW 1762   0.482   2.694   2.230  0.4000  0.0719 -0.0600
  588SOL    HW1 1763   0.436   2.723   2.143  0.8089 -1.5272 -0.0756
  588SOL    HW2 1764   0.419   2.639   2.297 -2.1189  0.9353  0.6534
  589SOL     OW 1765   2.125   1.469   2.548  0.1209 -0.2470 -0.1088
  589SOL    HW1 1766   2.045   1.426   2.497 -0.1707  2.3637  1.6262
  589SOL    HW2 1767   2.217   1.425   2.531  0.3788 -0.1678 -0.2034
  590SOL     OW 1768   2.352   1.747   2.002  0.1095 -0.4898 -0.1819
  590SOL    HW1 1769   2.423   1.671   2.028 -2.4084 -2.2970 -0.6631
  590SOL    HW2 1770   2.352   1.824   2.073  2.3762 -0.7569 -1.0668
  591SOL     OW 1771   1.331   2.494   0.311  0.5260  0.1255  0.0876
  591SOL    HW1 1772   1.382   2.430   0.249 -1.9595  0.1656 -0.0203
  591SOL    HW2 1773   1.295   2.449   0.398  1.7896 -2.9658 -0.7646
  592SOL     OW 1774   1.680   2.319   0.776  0.3061  0.0273 -0.0852
  592SOL    HW1 1775   1.665   2.355   0.679 -0.0351  0.0317 -2.5770
  592SOL    HW2 1776   1.786   2.311   0.796 -1.8997 -2.0670  2.8551
  593SOL     OW 1777   0.535   0.218   3.009  0.4102 -0.3975  0.0649
  593SOL    HW1 1778   0.625   0.169   2.990  0.7348  0.7509  2.3864
  593SOL    HW2 1779   0.561   0.307   3.062  0.0683 -3.0537  1.0717
  594SOL     OW 1780   0.903   1.917   2.739 -0.5101  0.6200 -0.6980
  594SOL    HW1 1781   0.986   1.962   2.782 -2.1765  2.7229  0.5189
  594SOL    HW2 1782   0.813   1.967   2.761  0.0062  0.1900 -1.0086
  595SOL     OW 1783   1.554   3.098   1.020  0.1732  0.7341  0.5888
  595SOL    HW1 1784   1.649   3.056   1.039 -0.5030  0.0302  0.2849
  595SOL    HW2 1785   1.522   3.073   0.923 -3.6132  0.7748  0.6971
  596SOL     OW 1786   3.069   1.469   2.212 -0.0861  0.5489  0.0748
  596SOL    HW1 1787   3.000   1.540   2.244 -2.0372  1.0122  0.0564
  596SOL    HW2 1788   3.102   1.394   2.281  2.7774 -3.4793  2.8610
  597SOL     OW 1789   2.074   2.632   1.624  0.5293  0.2740  0.2050
  597SOL    HW1 1790   2.115   2.560   1.568 -0.7212  3.0353  2.0296
  597SOL    HW2 1791   2.138   2.639   1.701  0.2993 -2.5797 -0.2604
  598SOL     OW 1792   2.585   2.904   1.193 -0.4844  0.4677 -0.0682
  598SOL    HW1 1793   2.668   2.938   1.248  0.9510  1.5811  0.0487
  598SOL    HW2 1794   2.619   2.871   1.097  0.0447 -1.9957 -1.5894
  599SOL     OW 1795   2.928   0.339   2.403  0.4870  0.4400 -0.3626
  599SOL    HW1 1796   3.027   0.342   2.367  0.1987  0.9898 -0.1206
  599SOL    HW2 1797   2.857   0.395   2.354  1.1540  0.4889  1.8750
  600SOL     OW 1798   2.818   1.042   2.767 -0.0662 -0.1331 -0.4734
  600SOL    HW1 1799   2.812   0.997   2.856  1.4659  0.2574  0.8501
  600SOL    HW2 1800   2.805   1.145   2.782  1.9558 -0.3035 -0.2573
  601SOL     OW 1801   2.931   1.271   2.061 -0.1809 -0.9657  0.0609
  601SOL    HW1 1802   2.878   1.301   1.976  2.1230 -1.6995  0.7365
  601SOL    HW2 1803   2.995   1.346   2.103  1.3429  0.0567 -0.1633
  602SOL     OW 1804   1.533   1.670   2.362 -0.4697  0.2386 -0.1730
  602SOL    HW1 1805   1.469   1.585   2.362 -1.7100 -4.1124  2.5922
  602SOL    HW2 1806   1.629   1.646   2.386  1.7388 -0.2353  0.4533
  603SOL     OW 1807   0.698   1.267   2.596 -0.6369  0.2129  0.2378
  603SOL    HW1 1808   0.624   1.223   2.541  0.4934 -0.5115 -2.4641
  603SOL    HW2 1809   0.772   1.204   2.622 -2.3255  2.9428 -1.2497
  604SOL     OW 1810   2.385   0.987   0.176  0.5142 -0.7030 -0.2838
  604SOL    HW1 1811   2.396   1.049   0.094 -0.5294 -0.9420  1.6228
  604SOL    HW2 1812   2.362   0.891   0.142 -0.0364 -2.5661  0.7051
  605SOL     OW 1813   2.611   1.135   1.976  0.6842  0.2156 -0.2238
  605SOL    HW1 1814   2.598   1.051   1.913  1.2383  0.6751  0.6211
  605SOL    HW2 1815   2.655   1.106   2.067 -1.3714 -1.6010  1.8609
  606SOL     OW 1816   1.533   2.515   2.589 -0.0123  0.0600 -0.0912
  606SOL    HW1 1817   1.454   2.583   2.603  1.6495  3.0350  0.2219
  606SOL    HW2 1818   1.501   2.420   2.573  1.0562  2.0232  0.8097
  607SOL     OW 1819   1.346   1.540   0.430  0.0709  0.3018  1.2426
  607SOL    HW1 1820   1.283   1.514   0.507  1.5673  0.0465 -1.7571
  607SOL    HW2 1821   1.386   1.633   0.440 -1.0304 -1.0746 -0.6813
  608SOL     OW 1822   1.394   2.901   0.426  0.0738  0.2014  0.0657
  608SOL    HW1 1823   1.466   2.953   0.373 -1.6600 -2.2087 -1.0069
  608SOL    HW2 1824   1.317   2.961   0.465  3.9468 -0.6274  2.9969
  609SOL     OW 1825   1.314   1.333   0.254  0.3964 -0.0499  0.0865
  609SOL    HW1 1826   1.324   1.423   0.308 -0.0038 -0.6120  0.1987
  609SOL    HW2 1827   1.218   1.319   0.220  3.8216 -0.7756 -3.2223
  610SOL     OW 1828   2.991   1.059   2.255 -0.0211  0.1381 -0.4644
  610SOL    HW1 1829   2.976   0.956   2.244 -0.0379  0.8427  0.6129
  610SOL    HW2 1830   2.958   1.120   2.176  0.8115  2.1187  0.2366
  611SOL     OW 1831   2.516   0.339   1.238 -0.3668  0.2466 -0.0372
  611SOL    HW1 1832   2.491   0.237   1.237  0.4341  0.3989  0.4633
  611SOL    HW2 1833   2.616   0.349   1.260  0.1601 -0.2201 -0.0144
  612SOL     OW 1834   0.750   2.129   1.258  0.0559  0.2870  0.0770
  612SOL    HW1 1835   0.679   2.054   1.260 -0.6895 -0.9644 -0.0231
  612SOL    HW2 1836   0.706   2.219   1.236  0.6579 -2.0860  2.1886
  613SOL     OW 1837   0.917   1.404   2.391 -0.7329  0.4796  0.3107
  613SOL    HW1 1838   0.955   1.457   2.312  1.8561 -1.2872  2.1514
  613SOL    HW2 1839   0.859   1.327   2.353 -3.6422  0.6585  1.0833
  614SOL     OW 1840   1.664   1.535   1.781 -0.0566 -0.4930  0.3545
  614SOL    HW1 1841   1.603   1.610   1.746  0.6324  0.0173  1.8457
  614SOL    HW2 1842   1.720   1.562   1.864  1.9069  0.1899  0.7476
  615SOL     OW 1843   0.789   1.272   1.753 -0.1175  0.1851  0.1339
  615SOL    HW1 1844   0.717   1.248   1.688  1.5848  1.0074  2.8777
  615SOL    HW2 1845   0.839   1.353   1.721  0.8523  0.6870 -0.8735
  616SOL     OW 1846   1.021   1.572   2.177  0.5399 -0.5552  0.7387
  616SOL    HW1 1847   0.943   1.559   2.113 -2.7839  0.9098  2.2902
  616SOL    HW2 1848   1.054   1.668   2.182  0.3150 -1.2283  0.0543
  617SOL     OW 1849   2.957   1.513   1.604 -0.1556 -0.0319  0.2565
  617SOL    HW1 1850   2.963   1.414   1.622 -0.2461  0.3818  3.3628
  617SOL    HW2 1851   3.024   1.540   1.531  0.9411  0.3391  0.1352
  618SOL     OW 1852   1.864   2.034   1.382 -0.2820  0.5854 -0.1696
  618SOL    HW1 1853   1.879   2.116   1.317 -3.1179  0.4234  0.1011
  618SOL    HW2 1854   1.838   1.949   1.330  2.5518  0.1020 -2.4891
  619SOL     OW 1855   1.747   0.441   2.376  0.8055  0.4085  0.0890
  619SOL    HW1 1856   1.656   0.498   2.365 -2.0167 -2.2635 -1.0397
  619SOL    HW2 1857   1.722   0.341   2.380 -0.4341  3.1475 -0.3157
  620SOL     OW 1858   2.261   2.814   0.752 -0.1742  0.2385  0.3388
  620SOL    HW1 1859   2.161   2.822   0.771  1.1522  0.3239 -0.2531
  620SOL    HW2 1860   2.309   2.740   0.811  0.9333 -1.3397  1.2871
  621SOL     OW 1861   2.203   1.923   1.344  0.2455 -0.3158 -0.1356
  621SOL    HW1 1862   2.181   1.958   1.439  0.8662  0.3577  0.0582
  621SOL    HW2 1863   2.139   1.846   1.316 -0.8705  1.2495  1.6674
  622SOL     OW 1864   2.313   0.955   1.859  0.5785  0.5565  0.0835
  622SOL    HW1 1865   2.415   0.946   1.853 -2.4425 -1.5373  0.2246
  622SOL    HW2 1866   2.269   0.864   1.884  0.9179 -1.6062  2.5593
  623SOL     OW 1867   1.245   0.830   2.531 -0.3287  0.0123 -0.1589
  623SOL    HW1 1868   1.180   0.754   2.542  3.2219 -0.6264  1.6883
  623SOL    HW2 1869   1.238   0.886   2.447  0.5927  0.6359  0.0746
  624SOL     OW 1870   0.497   0.662   3.027 -0.0788  0.1069  0.5145
  624SOL    HW1 1871   0.526   0.710   2.937  1.2793  0.5615  0.7923
  624SOL    HW2 1872   0.525   0.719   3.111 -0.9211  0.1174  0.2275
  625SOL     OW 1873   2.741   1.713   0.996  0.4248  0.2061 -0.0119
  625SOL    HW1 1874   2.653   1.770   1.002 -0.9182 -0.6594  0.2816
  625SOL    HW2 1875   2.826   1.775   1.014  1.3365  0.1986  0.9565
  626SOL     OW 1876   0.651   2.676   1.739  0.4480 -0.1015 -1.1156
  626SOL    HW1 1877   0.712   2.720   1.815 -1.2442 -2.3374  1.2944
  626SOL    HW2 1878   0.557   2.639   1.773 -0.7299  0.7341 -1.6063
  627SOL     OW 1879   0.681   0.829   1.676  0.5119  0.4753  0.0041
  627SOL    HW1 1880   0.623   0.766   1.617 -1.2823 -2.1602 -1.3208
  627SOL    HW2 1881   0.720   0.903   1.615  1.9969 -1.0981 -0.8141
  628SOL     OW 1882   2.378   0.124   0.748  0.8012  0.3375 -0.3958
  628SOL    HW1 1883   2.398   0.037   0.694  1.8249  1.8404 -2.0986
  628SOL    HW2 1884   2.273   0.131   0.758 -2.1702 -0.7541  1.2686
  629SOL     OW 1885   1.913   0.932   1.985  0.1390  0.0845 -0.1372
  629SOL    HW1 1886   1.913   1.031   1.949  1.5615  1.3444 -2.4829
  629SOL    HW2 1887   1.933   0.919   2.087 -2.5241 -2.3214  2.1067
  630SOL     OW 1888   2.901   2.206   0.806  0.2032  0.2265  0.4129
  630SOL    HW1 1889   2.853   2.298   0.808 -3.5922 -1.5591  2.3746
  630SOL    HW2 1890   2.835   2.130   0.777  0.6455  1.3227  2.4352
  631SOL     OW 1891   3.057   0.109   2.081  0.6228  0.4727  0.0073
  631SOL    HW1 1892   3.115   0.176   2.135  2.5076  1.1286  1.5066
  631SOL    HW2 1893   3.101   0.081   1.991  1.9577  0.8650  0.9292
  632SOL     OW 1894   2.400   2.577   0.649  0.0528 -0.3036 -0.2545
  632SOL    HW1 1895   2.484   2.639   0.664  1.7678  0.5970  0.9929
  632SOL    HW2 1896   2.344   2.587   0.562  2.0981  0.9513  1.6045
  633SOL     OW 1897   1.498   1.260   2.669 -0.1817 -0.0829  0.4193
  633SOL    HW1 1898   1.478   1.330   2.742 -1.0895  2.3692 -0.4434
  633SOL    HW2 1899   1.431   1.267   2.593 -0.2090  1.4675  2.1359
  634SOL     OW 1900   0.700   2.080   0.845 -0.3897 -0.1717  0.2229
  634SOL    HW1 1901   0.608   2.102   0.887 -0.6620 -2.4617 -0.5431
  634SOL    HW2 1902   0.776   2.128   0.894 -0.1764  0.2016 -2.5952
  635SOL     OW 1903   3.076   2.384   0.023  0.0049 -0.0581 -0.1886
  635SOL    HW1 1904   2.995   2.431  -0.021 -0.5534 -1.3395  0.2960
  635SOL    HW2 1905   3.133   2.452   0.076 -1.9508  0.1808  0.2728
  636SOL     OW 1906   2.368   2.692   2.069  0.1255 -0.5465 -0.1534
  636SOL    HW1 1907   2.319   2.780   2.063 -1.1942  0.7188  0.3900
  636SOL    HW2 1908   2.312   2.618   2.118 -2.6484 -0.1635  0.6433
  637SOL     OW 1909   2.711   0.605   1.984  0.6043  1.0102  0.5100
  637SOL    HW1 1910   2.632   0.610   1.913 -1.6374 -0.7178 -2.0210
  637SOL    HW2 1911   2.768   0.690   1.986  2.8981  1.1842  0.6787
  638SOL     OW 1912   2.453   1.868   1.314 -0.1964  0.0798 -0.0728
  638SOL    HW1 1913   2.347   1.868   1.319 -0.5182 -0.1782 -1.7562
  638SOL    HW2 1914   2.498   1.782   1.351  3.0101  0.4242 -0.9560
  639SOL     OW 1915   1.250   2.208   1.641  0.3306  0.2474  0.2809
  639SOL    HW1 1916   1.326   2.272   1.676  0.6268  1.3967  0.8401
  639SOL    HW2 1917   1.192   2.169   1.722 -0.5208  0.3118  1.0408
  640SOL     OW 1918   0.180   1.227   1.543  0.1077 -1.0277  0.2083
  640SOL    HW1 1919   0.165   1.227   1.644  0.3935  1.1094 -1.5975
  640SOL    HW2 1920   0.256   1.165   1.511  0.1424 -0.9006 -0.6511
  641SOL     OW 1921   1.972   0.241   1.529 -0.1797 -0.3684 -0.0328
  641SOL    HW1 1922   1.900   0.262   1.602 -0.2905 -0.5311  3.1811
  641SOL    HW2 1923   2.060   0.201   1.566 -1.4484  0.9733 -1.2329
  642SOL     OW 1924   2.041   3.100   0.334 -0.4007  0.5777 -0.5601
  642SOL    HW1 1925   2.141   3.134   0.348  1.5180 -1.6419 -0.8997
  642SOL    HW2 1926   1.993   3.066   0.423 -0.1914  0.0015  0.0364
  643SOL     OW 1927   2.899   1.940   2.145 -0.4773  0.4065  0.7359
  643SOL    HW1 1928   2.832   1.863   2.131  2.0174 -2.2625  0.3461
  643SOL    HW2 1929   2.878   2.018   2.081 -2.2685 -1.2274 -1.0525
  644SOL     OW 1930   2.291   2.421   1.242 -0.2494  0.4842 -0.2054
  644SOL    HW1 1931   2.353   2.357   1.182  1.1090 -0.5099 -2.5399
  644SOL    HW2 1932   2.279   2.379   1.339  0.4495  1.6547  1.5168
  645SOL     OW 1933   0.688   0.849   1.252 -0.2335  0.2030 -0.3673
  645SOL    HW1 1934   0.584   0.856   1.268 -2.2485  0.8132  1.1703
  645SOL    HW2 1935   0.714   0.829   1.153  1.9810 -2.7086  1.2240
  646SOL     OW 1936   1.520   1.802   2.037 -0.1863  0.2681  0.1107
  646SOL    HW1 1937   1.594   1.817   1.966 -1.5470  0.0210 -0.1281
  646SOL    HW2 1938   1.564   1.787   2.130 -0.6794  0.3854  0.4061
  647SOL     OW 1939   0.775   1.089   0.641  0.6190  0.3873  0.5724
  647SOL    HW1 1940   0.844   1.098   0.718 -0.5191  0.2971 -0.5179
  647SOL    HW2 1941   0.716   1.004   0.649  1.2129  1.0968 -1.0273
  648SOL     OW 1942   0.182   0.214   0.373  0.0434 -0.2911 -0.5504
  648SOL    HW1 1943   0.174   0.121   0.338  0.7897 -0.6897  1.3841
  648SOL    HW2 1944   0.180   0.286   0.300 -0.3397  0.4070 -0.0633
  649SOL     OW 1945   2.995   0.271   0.894 -0.2393 -0.0315 -0.6733
  649SOL    HW1 1946   3.043   0.269   0.804 -0.2488 -1.6200  0.9588
  649SOL    HW2 1947   3.009   0.358   0.946  0.7895  0.1300 -3.1426
  650SOL     OW 1948   2.813   0.715   1.502  0.5947 -0.5480  0.6375
  650SOL    HW1 1949   2.714   0.694   1.479 -1.1012  0.2547 -1.5786
  650SOL    HW2 1950   2.842   0.816   1.483 -2.7184  2.1595  0.4862
  651SOL     OW 1951   0.873   1.511   1.675 -0.3518 -0.5286  0.2511
  651SOL    HW1 1952   0.885   1.515   1.780 -0.8704 -0.2086  1.2188
  651SOL    HW2 1953   0.963   1.520   1.622 -0.6288  1.2052  0.6691
  652SOL     OW 1954   2.358   2.512   2.499 -0.0400 -0.3558 -0.4008
  652SOL    HW1 1955   2.274   2.567   2.513  2.6855 -0.9362  0.0683
  652SOL    HW2 1956   2.401   2.524   2.405  3.2191 -1.3903  0.5857
  653SOL     OW 1957   2.693   1.274   0.188 -0.0349 -0.1934  0.3010
  653SOL    HW1 1958   2.724   1.354   0.250 -0.6689 -1.1030  0.0448
  653SOL    HW2 1959   2.753   1.187   0.200  2.4682 -0.0413 -2.6757
  654SOL     OW 1960   1.233   2.128   1.262  0.3681  1.0066  0.6684
  654SOL    HW1 1961   1.268   2.056   1.334 -1.6743  1.0020  0.4217
  654SOL    HW2 1962   1.253   2.095   1.163 -0.0082  1.3106 -0.1456
  655SOL     OW 1963   0.185   0.990   1.937 -0.5368  0.2082  0.1641
  655SOL    HW1 1964   0.252   0.941   1.870 -0.8288 -0.9521  0.4060
  655SOL    HW2 1965   0.188   1.092   1.911 -0.0336 -1.1207 -1.8687
  656SOL     OW 1966   2.580   2.537   2.633  0.1429  0.2136 -0.2609
  656SOL    HW1 1967   2.667   2.517   2.581  1.6345  1.5210  2.5497
  656SOL    HW2 1968   2.492   2.527   2.575  1.9161 -0.4386  0.9823
  657SOL     OW 1969   3.024   1.056   1.886  0.0387  0.1298 -0.7937
  657SOL    HW1 1970   3.016   1.155   1.926  0.4070 -0.8672  2.1670
  657SOL    HW2 1971   3.118   1.012   1.899  1.6964 -1.0885 -1.0879
  658SOL     OW 1972   1.658   0.181   2.380  0.3790 -0.1074  0.4520
  658SOL    HW1 1973   1.710   0.125   2.452  2.7199 -0.4529 -0.6437
  658SOL    HW2 1974   1.657   0.128   2.296 -2.1269 -0.5161  2.3694
  659SOL     OW 1975   1.451   0.660   2.799 -0.6717 -0.0978 -0.1228
  659SOL    HW1 1976   1.492   0.729   2.740  2.5921 -0.4033  0.5867
  659SOL    HW2 1977   1.349   0.668   2.809  1.1639  2.6541 -0.1062
  660SOL     OW 1978   1.445   0.306   1.412  0.7201  0.1889 -0.2406
  660SOL    HW1 1979   1.446   0.373   1.492  1.2493  0.3214  1.5176
  660SOL    HW2 1980   1.519   0.231   1.402 -2.1285 -1.9950  3.0878
  661SOL     OW 1981   2.402   1.273   0.642  0.2177  0.1591 -0.1688
  661SOL    HW1 1982   2.433   1.267   0.542 -1.5071 -0.1155 -2.9289
  661SOL    HW2 1983   2.335   1.359   0.653  1.2759  0.0411  1.6972
  662SOL     OW 1984   1.464   0.372   1.709  0.0645  0.2731  0.0776
  662SOL    HW1 1985   1.409   0.333   1.787  2.0876  1.7734 -2.2757
  662SOL    HW2 1986   1.441   0.471   1.700 -1.8142  1.0848  1.6555
  663SOL     OW 1987   0.849   1.595   1.947  0.2578 -0.0828 -0.2690
  663SOL    HW1 1988   0.824   1.697   1.963  1.4285 -0.8389 -0.6204
  663SOL    HW2 1989   0.773   1.528   1.982 -1.2726 -2.6954  0.0056
  664SOL     OW 1990   1.590   2.106   1.415 -0.5852 -0.3692  0.1731
  664SOL    HW1 1991   1.507   2.053   1.442 -0.1916  0.7446  0.8851
  664SOL    HW2 1992   1.681   2.067   1.454  0.0652  0.2544  2.7024
  665SOL     OW 1993   2.258   0.681   1.983 -0.1741  0.1514 -0.5838
  665SOL    HW1 1994   2.229   0.584   1.983 -0.4916  0.4456  0.8964
  665SOL    HW2 1995   2.335   0.702   2.056  0.6560 -1.6088  0.3697
  666SOL     OW 1996   0.450   2.232   0.350  0.0504 -0.0222 -0.3533
  666SOL    HW1 1997   0.514   2.281   0.413  1.0174 -0.5948  1.2339
  666SOL    HW2 1998   0.349   2.250   0.377  0.3872  4.5638  0.2591
  667SOL     OW 1999   1.993   0.216   1.074 -0.3825 -0.0626 -0.5514
  667SOL    HW1 2000   1.985   0.318   1.075 -2.4890 -1.5119 -0.3860
  667SOL    HW2 2001   1.973   0.172   1.163  1.4434 -2.3183 -1.3552
  668SOL     OW 2002   1.988   0.505   1.090  0.0041  0.3243 -0.0756
  668SOL    HW1 2003   2.063   0.538   1.019 -2.0792 -0.2305  0.7098
  668SOL    HW2 2004   2.033   0.478   1.179 -1.8882 -1.5403  0.4963
  669SOL     OW 2005   3.056   2.151   1.029 -0.4670 -0.0423 -0.0113
  669SOL    HW1 2006   3.015   2.176   0.936 -0.5961  1.5731 -2.4817
  669SOL    HW2 2007   3.054   2.231   1.093  0.0421 -0.1436 -0.5662
  670SOL     OW 2008   2.921   2.327   2.108  0.1715  0.0283 -0.2814
  670SOL    HW1 2009   2.831   2.329   2.159 -0.1935  1.9012 -1.7381
  670SOL    HW2 2010   2.934   2.426   2.082 -1.6107 -0.5919 -0.3862
  671SOL     OW 2011   1.775   1.696   1.494  0.5095  0.5582 -0.3346
  671SOL    HW1 2012   1.776   1.772   1.422  3.5269  2.6000 -1.6949
  671SOL    HW2 2013   1.755   1.600   1.462 -2.4128 -0.6775  0.2955
  672SOL     OW 2014   0.429   0.661   2.587 -0.1925 -0.2081 -0.0819
  672SOL    HW1 2015   0.361   0.722   2.528 -0.9903 -0.4845 -0.4441
  672SOL    HW2 2016   0.421   0.679   2.686  1.9037 -0.8975 -3.3204
  673SOL     OW 2017   0.096   1.383   1.074  0.4390 -0.2820 -0.1641
  673SOL    HW1 2018   0.137   1.404   1.166  0.3210 -0.4854  2.0490
  673SOL    HW2 2019   0.151   1.422   0.994  1.2908  0.8492 -0.6900
  674SOL     OW 2020   1.596   2.983   0.255  0.3230 -0.4259  0.0445
  674SOL    HW1 2021   1.642   3.051   0.195  1.1300 -2.1282 -0.8061
  674SOL    HW2 2022   1.612   2.887   0.218  3.1843  0.7458  1.5580
  675SOL     OW 2023   1.667   0.864   2.334  0.5088  0.3187  0.0167
  675SOL    HW1 2024   1.766   0.863   2.315  1.5485  0.5525 -1.1211
  675SOL    HW2 2025   1.618   0.778   2.302  2.0601  0.1673  1.1346
  676SOL     OW 2026   2.553   1.548   2.000  0.0204  0.0043 -0.2790
  676SOL    HW1 2027   2.519   1.510   1.908  0.3684  1.1638  1.2992
  676SOL    HW2 2028   2.609   1.482   2.059 -1.7239 -4.7779  1.8903
  677SOL     OW 2029   1.862   0.721   0.888  0.2106 -0.2659  0.3087
  677SOL    HW1 2030   1.784   0.759   0.941  0.0069 -0.8658 -2.1269
  677SOL    HW2 2031   1.894   0.627   0.917  1.5203 -0.4285 -0.8427
  678SOL     OW 2032   0.082   0.812   1.646  0.1341 -0.7663  0.0701
  678SOL    HW1 2033   0.176   0.842   1.677  0.5496 -3.3402 -2.9745
  678SOL    HW2 2034   0.030   0.750   1.713 -0.9583 -0.3768 -0.4060
  679SOL     OW 2035   2.570   1.101   1.203  0.6333  1.0110 -0.1872
  679SOL    HW1 2036   2.473   1.126   1.201  1.1446  1.6674 -0.8241
  679SOL    HW2 2037   2.589   0.997   1.186 -0.3328 -0.2899 -0.6924
  680SOL     OW 2038   2.835   0.514   1.685  0.5411 -0.9150 -0.0634
  680SOL    HW1 2039   2.805   0.590   1.619  0.0445  0.4876 -0.3056
  680SOL    HW2 2040   2.896   0.556   1.757 -3.7025 -2.3356  2.1265
  681SOL     OW 2041   2.990   0.018   1.558  0.2145  0.1040  0.4639
  681SOL    HW1 2042   2.993  -0.021   1.465 -3.5306  0.6586  2.6399
  681SOL    HW2 2043   2.937   0.105   1.553  0.2801 -0.6493 -0.8899
  682SOL     OW 2044   0.642   0.053   1.278  0.4752 -0.6277 -0.1488
  682SOL    HW1 2045   0.593  -0.016   1.338  2.3066 -2.0345  2.4164
  682SOL    HW2 2046   0.724   0.012   1.225  0.4243 -1.4738  0.1077
  683SOL     OW 2047   1.383   0.240   2.141 -0.0330 -0.3721 -0.2859
  683SOL    HW1 2048   1.374   0.256   2.248 -0.6182 -1.9087  0.1197
  683SOL    HW2 2049   1.477   0.268   2.102  0.4088 -1.6123 -0.7338
  684SOL     OW 2050   1.423   2.176   0.577 -0.1644 -0.2009 -0.0890
  684SOL    HW1 2051   1.497   2.110   0.610 -0.8157  1.6393  1.0475
  684SOL    HW2 2052   1.339   2.132   0.538 -0.9829 -1.2908  1.8782
  685SOL     OW 2053   2.263   2.075   1.978 -0.0083  0.2174  0.0227
  685SOL    HW1 2054   2.344   2.011   1.981  0.3290  0.6896 -1.9981
  685SOL    HW2 2055   2.242   2.121   2.068  0.4721  1.6201 -2.0339
  686SOL     OW 2056   1.548   1.883   2.947 -0.4487  0.0392 -0.4460
  686SOL    HW1 2057   1.581   1.829   3.030 -0.1759  0.7410  2.3329
  686SOL    HW2 2058   1.448   1.869   2.927 -0.7792 -0.0175  1.4162
  687SOL     OW 2059   1.360   2.393   1.953 -0.3115 -0.3089  0.1057
  687SOL    HW1 2060   1.401   2.301   1.976 -1.4999  2.5857 -1.1092
  687SOL    HW2 2061   1.386   2.467   2.021 -0.7555  1.3111  0.1968
  688SOL     OW 2062   2.088   1.484   1.733  0.3230  0.0834  0.3728
  688SOL    HW1 2063   2.157   1.559   1.725  0.3867 -0.7415 -0.1472
  688SOL    HW2 2064   2.055   1.450   1.640  1.3464  0.9948 -0.7264
  689SOL     OW 2065   2.375   1.128   2.776  0.1162  0.1217 -0.5175
  689SOL    HW1 2066   2.285   1.081   2.787  1.9440 -0.1431  2.7620
  689SOL    HW2 2067   2.451   1.071   2.815  0.0662 -0.2312  0.5389
  690SOL     OW 2068   2.201   2.748   0.069  0.1882  0.2270 -0.2616
  690SOL    HW1 2069   2.150   2.719  -0.015 -0.6562 -1.0001 -1.2829
  690SOL    HW2 2070   2.129   2.771   0.145 -5.3692  1.2032  1.4452
  691SOL     OW 2071   2.567   0.410   2.128 -0.0592  0.6403 -0.1974
  691SOL    HW1 2072   2.592   0.309   2.135  0.2446 -0.6135  1.4242
  691SOL    HW2 2073   2.641   0.465   2.072  2.0688  0.2386 -1.7990
  692SOL     OW 2074   2.668   1.224   0.772  0.2263  0.1869  0.2661
  692SOL    HW1 2075   2.574   1.209   0.725 -1.4802 -0.0528  1.7939
  692SOL    HW2 2076   2.676   1.313   0.826  0.5400  0.2277 -0.5225
  693SOL     OW 2077   2.863   2.930   0.606 -0.8253  0.0549  0.0580
  693SOL    HW1 2078   2.825   3.008   0.665  3.0883  0.8737  1.0773
  693SOL    HW2 2079   2.854   2.954   0.505  1.7873  0.6277  1.0752
  694SOL     OW 2080   2.384   2.241   0.158  0.0663  0.5319  0.4569
  694SOL    HW1 2081   2.374   2.340   0.197 -0.6805 -3.1555 -0.6909
  694SOL    HW2 2082   2.296   2.202   0.119  0.9473  0.9599 -0.5703
  695SOL     OW 2083   0.476   2.998   1.464 -0.2141  0.1938 -0.2146
  695SOL    HW1 2084   0.408   2.955   1.395 -0.1452 -1.0656 -3.3737
  695SOL    HW2 2085   0.426   3.028   1.553 -2.4201 -0.9643  1.1864
  696SOL     OW 2086   2.767   1.976   0.753  0.1518 -0.2770 -0.6481
  696SOL    HW1 2087   2.835   1.903   0.788 -1.0392  2.6079  1.8126
  696SOL    HW2 2088   2.766   1.980   0.650  0.8146 -0.4358  0.0384
  697SOL     OW 2089   1.679   1.870   1.813  0.0182  0.2278  0.1461
  697SOL    HW1 2090   1.770   1.837   1.777  1.0371 -0.6234 -0.9916
  697SOL    HW2 2091   1.679   1.972   1.827 -0.6065 -0.9007 -0.6562
  698SOL     OW 2092   2.914   0.431   2.653 -0.3791  0.1792  0.0118
  698SOL    HW1 2093   2.893   0.375   2.567  0.0647  1.6156  0.9487
  698SOL    HW2 2094   2.973   0.378   2.724 -0.9935 -1.6516 -0.7889
  699SOL     OW 2095   1.571   0.083   2.925 -0.7356 -0.0393 -0.3543
  699SOL    HW1 2096   1.537  -0.007   2.883 -2.0128  1.4178 -0.6968
  699SOL    HW2 2097   1.611   0.145   2.849 -0.1499  1.1812  0.2160
  700SOL     OW 2098   0.995   2.234   1.350  0.2221 -0.0499  0.3346
  700SOL    HW1 2099   1.077   2.177   1.319 -3.4930  1.8618 -0.3233
  700SOL    HW2 2100   0.900   2.202   1.324  1.1873 -2.7662 -1.1102
  701SOL     OW 2101   1.912   2.850   0.054 -0.2007 -0.3247  0.1973
  701SOL    HW1 2102   1.864   2.829   0.146  1.0387 -0.4506  1.2961
  701SOL    HW2 2103   1.921   2.953   0.056 -0.4221 -1.9748  1.0993
  702SOL     OW 2104   2.102   1.355   1.961  0.1116  0.3052 -0.0334
  702SOL    HW1 2105   2.195   1.302   1.970  0.1760 -0.5629 -0.2999
  702SOL    HW2 2106   2.098   1.411   1.868  0.8380  0.0429 -1.1115
  703SOL     OW 2107   1.936   0.900   1.507 -0.3455  0.6254  0.7607
  703SOL    HW1 2108   1.914   0.800   1.523  0.8482  0.2165  0.1180
  703SOL    HW2 2109   1.998   0.940   1.583 -2.2566  1.0659  0.5942
  704SOL     OW 2110   0.316   2.060   1.712  0.0666 -0.1282 -0.5761
  704SOL    HW1 2111   0.358   1.981   1.769  0.3595 -2.4557  0.0504
  704SOL    HW2 2112   0.382   2.133   1.687 -0.0668 -1.5277 -1.7933
  705SOL     OW 2113   2.435   1.442   0.922 -0.3932  0.5230  0.4040
  705SOL    HW1 2114   2.383   1.380   0.860  0.0639  0.3960  1.6949
  705SOL    HW2 2115   2.538   1.433   0.907  0.6034 -1.0438  0.7115
  706SOL     OW 2116   0.621   1.705   1.815  0.0033  0.1822 -0.1079
  706SOL    HW1 2117   0.639   1.760   1.732  0.3651  0.6550  0.9599
  706SOL    HW2 2118   0.706   1.646   1.846  3.1237 -3.6270 -0.2379
  707SOL     OW 2119   2.332   1.220   1.990  0.0281 -0.0545  0.0945
  707SOL    HW1 2120   2.413   1.199   2.053 -3.4940 -0.7750  3.0333
  707SOL    HW2 2121   2.308   1.136   1.932 -0.5662 -0.6333 -1.2497
  708SOL     OW 2122   3.018   0.481   3.076  0.4768 -0.6379  0.2438
  708SOL    HW1 2123   3.088   0.555   3.043 -1.9791  0.5641 -0.4576
  708SOL    HW2 2124   2.999   0.403   3.003 -0.0928 -1.5601 -1.3677
  709SOL     OW 2125   1.879   1.900   0.380  0.3032  0.1459  0.1988
  709SOL    HW1 2126   1.886   1.997   0.410 -1.4815 -1.2934 -2.1448
  709SOL    HW2 2127   1.855   1.889   0.280 -0.2901 -2.0762  0.7659
  710SOL     OW 2128   1.789   1.571   2.454  1.1533 -0.0291  0.0855
  710SOL    HW1 2129   1.848   1.512   2.398 -1.3492  1.2453  2.1783
  710SOL    HW2 2130   1.782   1.550   2.555 -1.0084  0.9353  0.9926
  711SOL     OW 2131   2.699   2.881   0.942  0.1524  0.6418 -0.3704
  711SOL    HW1 2132   2.655   2.974   0.911 -0.3281  1.2485 -2.4496
  711SOL    HW2 2133   2.795   2.901   0.982  1.8264 -1.2366 -1.2424
  712SOL     OW 2134   1.400   2.117   1.976  0.1799  0.0314  0.5224
  712SOL    HW1 2135   1.466   2.127   1.897 -0.4033  2.0949  0.9434
  712SOL    HW2 2136   1.304   2.094   1.941  4.1325  0.6573  1.8262
  713SOL     OW 2137   2.787   1.411   2.509 -0.4160  0.0552 -0.2887
  713SOL    HW1 2138   2.786   1.307   2.501 -0.2368  0.5090  0.6382
  713SOL    HW2 2139   2.705   1.439   2.566  1.8453 -2.1199  0.2091
  714SOL     OW 2140   2.689   0.496   2.372  0.0596  0.2583  0.0413
  714SOL    HW1 2141   2.628   0.464   2.449 -0.8419 -0.1245 -0.2567
  714SOL    HW2 2142   2.635   0.480   2.289  3.4961 -1.2915  2.1386
  715SOL     OW 2143   1.578   2.161   1.150  0.3686  0.1766 -0.3228
  715SOL    HW1 2144   1.500   2.230   1.147 -3.3507  0.1203  1.5469
  715SOL    HW2 2145   1.593   2.135   1.249  0.1752  0.1729 -1.5284
  716SOL     OW 2146   1.268   0.119   1.522 -0.2087 -0.4859  0.2001
  716SOL    HW1 2147   1.172   0.151   1.491  2.0771 -0.0112 -0.8326
  716SOL    HW2 2148   1.349   0.181   1.489 -2.8889  2.0113 -2.7699
  717SOL     OW 2149   1.163   0.578   1.632 -0.3632 -0.0328 -0.1411
  717SOL    HW1 2150   1.256   0.615   1.660 -0.9776  0.5008 -1.1517
  717SOL    HW2 2151   1.159   0.568   1.530 -2.5096 -1.6461 -0.4794
  718SOL     OW 2152   0.664   0.872   0.963  0.2280  0.1799  0.0451
  718SOL    HW1 2153   0.650   0.851   0.861 -0.3487 -0.9173  0.3480
  718SOL    HW2 2154   0.645   0.976   0.981  3.1763 -1.6055  0.7308
  719SOL     OW 2155   0.683   1.727   2.276 -0.0851  0.3016  1.0621
  719SOL    HW1 2156   0.737   1.748   2.358 -1.2880 -2.1855 -0.3082
  719SOL    HW2 2157   0.649   1.626   2.272 -0.5537 -2.0094 -0.1446
  720SOL     OW 2158   2.190   1.167   0.278 -0.4825  0.0431  0.8440
  720SOL    HW1 2159   2.264   1.098   0.252  1.4470 -1.3704  0.8128
  720SOL    HW2 2160   2.158   1.158   0.378  0.5202 -1.0664  1.2131
  721SOL     OW 2161   2.248   3.017   2.127  0.1392  0.2150 -0.4845
  721SOL    HW1 2162   2.220   3.017   2.025 -4.3663  0.8758  0.4302
  721SOL    HW2 2163   2.187   3.073   2.193 -2.3030  1.4930  1.7879
  722SOL     OW 2164   2.355   1.682   0.546  0.1264  0.3039 -0.2245
  722SOL    HW1 2165   2.408   1.673   0.461 -1.4570 -0.8904  1.5236
  722SOL    HW2 2166   2.259   1.712   0.525  1.5411 -2.9843 -1.1619
  723SOL     OW 2167   2.646   2.777   1.947 -0.1900  0.2052  0.0722
  723SOL    HW1 2168   2.692   2.864   1.975 -0.6629 -1.7432 -1.4113
  723SOL    HW2 2169   2.559   2.758   1.994  0.4676 -0.9617 -0.2029
  724SOL     OW 2170   0.377   2.516   2.407  0.0784  0.1703 -0.0868
  724SOL    HW1 2171   0.275   2.528   2.426 -0.6792  0.8772  0.2305
  724SOL    HW2 2172   0.435   2.480   2.486 -0.3855 -0.2001 -2.9536
  725SOL     OW 2173   2.452   2.851   1.462 -0.5599  0.3284  1.0716
  725SOL    HW1 2174   2.525   2.864   1.389 -1.7337 -2.2684  0.1122
  725SOL    HW2 2175   2.450   2.752   1.497 -0.4192 -3.4631  1.2556
  726SOL     OW 2176   2.535   2.334   0.687  0.1881 -0.0415  0.0507
  726SOL    HW1 2177   2.466   2.418   0.678 -1.3442 -0.0495  0.0440
  726SOL    HW2 2178   2.513   2.255   0.626 -0.8163  1.3876  3.7571
  727SOL     OW 2179   0.107   3.103   0.097 -0.1146 -0.0793  0.0450
  727SOL    HW1 2180   0.209   3.123   0.081  0.5324  1.0470  0.5032
  727SOL    HW2 2181   0.072   3.012   0.065  0.8626  3.7954 -0.7353
  728SOL     OW 2182   2.907   0.707   0.944  0.7551 -0.6677 -0.1886
  728SOL    HW1 2183   2.857   0.688   0.851  1.4885 -0.0443 -3.3363
  728SOL    HW2 2184   2.868   0.653   1.025  0.4815 -0.6517  0.0148
  729SOL     OW 2185   0.032   2.554   0.782  0.2411 -0.6756  0.1514
  729SOL    HW1 2186   0.102   2.527   0.853 -1.8734  0.7649  0.6724
  729SOL    HW2 2187   0.065   2.547   0.688 -1.4048  1.2961  2.2417
  730SOL     OW 2188   2.572   0.695   0.895  0.2723 -0.4064  0.0968
  730SOL    HW1 2189   2.556   0.798   0.884  0.1568 -2.4063  1.0675
  730SOL    HW2 2190   2.646   0.666   0.829 -0.8658 -0.2194  0.2520
  731SOL     OW 2191   3.088   2.196   2.332  0.1373 -0.5319  0.5176
  731SOL    HW1 2192   3.062   2.240   2.423 -1.4938 -0.0647 -0.3605
  731SOL    HW2 2193   3.013   2.203   2.261 -0.0665  1.2359 -2.1510
  732SOL     OW 2194   1.278   2.744   1.997  0.2938 -0.0160  0.7508
  732SOL    HW1 2195   1.279   2.668   2.071  0.1788  1.1116  0.0313
  732SOL    HW2 2196   1.269   2.706   1.900 -1.2299  0.7914  0.2562
  733SOL     OW 2197   0.029   0.597   2.256  0.1903 -0.4223  0.3154
  733SOL    HW1 2198   0.083   0.658   2.191  0.2634  0.6298 -0.3989
  733SOL    HW2 2199  -0.033   0.531   2.207 -0.2138 -0.5126  0.8790
  734SOL     OW 2200   1.462   0.403   2.718 -0.0893 -0.5707 -0.1814
  734SOL    HW1 2201   1.440   0.503   2.734  1.8583  0.9948 -1.3750
  734SOL    HW2 2202   1.399   0.335   2.766 -1.9040 -1.1994 -0.7797
  735SOL     OW 2203   2.958   2.641   2.299 -0.1264  0.4718 -0.1729
  735SOL    HW1 2204   2.923   2.657   2.204  1.3861  0.8963 -0.5727
  735SOL    HW2 2205   3.050   2.690   2.305 -2.9610 -0.8328 -1.2646
  736SOL     OW 2206   0.925   0.412   2.552 -0.0751  0.1268 -0.1786
  736SOL    HW1 2207   0.838   0.467   2.557  0.8059 -2.3743 -0.6936
  736SOL    HW2 2208   0.912   0.314   2.520 -1.6905  0.2086  0.3985
  737SOL     OW 2209   2.629   0.446   2.777 -0.9480 -0.3326  0.4299
  737SOL    HW1 2210   2.618   0.408   2.874  0.9559  2.7595 -1.1898
  737SOL    HW2 2211   2.717   0.424   2.724  0.7421  0.6893 -1.2006
  738SOL     OW 2212   1.744   1.226   2.945 -0.0794  0.0433  0.0319
  738SOL    HW1 2213   1.816   1.212   2.868  1.6450  0.9182 -0.3072
  738SOL    HW2 2214   1.705   1.141   2.991  0.6314  0.4972  1.5798
  739SOL     OW 2215   1.838   0.696   0.602  0.0707 -0.6776  0.1403
  739SOL    HW1 2216   1.864   0.709   0.703 -0.3675 -2.5018  3.6196
  739SOL    HW2 2217   1.841   0.595   0.574 -0.3466  2.8515 -0.2447
  740SOL     OW 2218   1.969   1.942   2.339 -0.4648  0.4881 -0.2215
  740SOL    HW1 2219   2.030   1.854   2.336  1.9475 -3.9211 -0.0222
  740SOL    HW2 2220   1.889   1.930   2.269  0.0279 -1.8730  0.4400
  741SOL     OW 2221   2.528   0.019   2.463 -0.2093 -1.1729 -0.1071
  741SOL    HW1 2222   2.630   0.038   2.455 -0.7612  1.1180  1.9229
  741SOL    HW2 2223   2.477   0.082   2.398 -1.8020 -0.3941  0.8342
  742SOL     OW 2224   2.184   1.406   0.187 -0.2912  0.0404 -0.3661
  742SOL    HW1 2225   2.096   1.455   0.158  1.3472  2.7234 -2.7686
  742SOL    HW2 2226   2.171   1.306   0.216  0.7156  2.8493  0.1058
  743SOL     OW 2227   1.833   0.615   2.617  0.1225 -0.1470  0.0041
  743SOL    HW1 2228   1.786   0.543   2.558 -1.4842 -1.4699  1.1742
  743SOL    HW2 2229   1.775   0.698   2.646 -1.2555  1.6342  0.2275
  744SOL     OW 2230   2.649   2.169   0.087  0.2321  0.1583 -1.5602
  744SOL    HW1 2231   2.561   2.206   0.126  3.9633  1.1298  4.8018
  744SOL    HW2 2232   2.671   2.071   0.116  1.5080  0.5463  0.5557
  745SOL     OW 2233   2.198   2.545   2.219  0.5125  0.5404 -0.0768
  745SOL    HW1 2234   2.116   2.560   2.155  1.6647  1.0392 -2.1529
  745SOL    HW2 2235   2.168   2.531   2.314 -0.3690  1.4231  1.5724
  746SOL     OW 2236   0.023   2.584   1.754  0.3037  0.4880 -0.2029
  746SOL    HW1 2237   0.094   2.553   1.684 -0.0588 -0.7085  0.9350
  746SOL    HW2 2238   0.030   2.682   1.789  0.5864  0.4880 -0.8307
  747SOL     OW 2239   0.031   1.793   1.645  0.5990 -0.1208 -0.1409
  747SOL    HW1 2240  -0.019   1.708   1.618  3.5130  2.5351 -2.1615
  747SOL    HW2 2241   0.089   1.820   1.565 -0.5686  0.9185  0.7228
  748SOL     OW 2242   1.837   2.721   2.912 -0.0431  0.2594 -0.3404
  748SOL    HW1 2243   1.846   2.770   2.998  1.6401  2.4078  0.7885
  748SOL    HW2 2244   1.739   2.722   2.881 -1.6099  0.4130  0.8035
  749SOL     OW 2245   1.311   2.956   0.848  0.0396  0.7565  0.5571
  749SOL    HW1 2246   1.248   3.013   0.796  3.9130 -1.3589  2.5034
  749SOL    HW2 2247   1.405   2.952   0.796  2.0896 -3.0641 -1.5674
  750SOL     OW 2248   2.225   0.177   1.855 -0.5311 -0.0324  0.1433
  750SOL    HW1 2249   2.268   0.205   1.763  0.5584 -0.7246  1.9112
  750SOL    HW2 2250   2.256   0.244   1.933  0.2322  0.6704 -2.7183
  751SOL     OW 2251   0.781   2.139   2.885  0.1252  0.0514 -0.6003
  751SOL    HW1 2252   0.873   2.137   2.935  1.5915 -2.1080 -1.7333
  751SOL    HW2 2253   0.711   2.076   2.929  1.5375  0.2861 -2.4586
  752SOL     OW 2254   1.321   0.800   1.169 -0.5970 -0.2033 -0.2345
  752SOL    HW1 2255   1.360   0.896   1.182  0.4399  0.6434  0.5768
  752SOL    HW2 2256   1.390   0.730   1.201 -4.0083 -1.0639  0.4622
  753SOL     OW 2257   0.963   2.565   1.785 -0.2455  0.0496  0.2960
  753SOL    HW1 2258   1.067   2.592   1.806 -0.0755  2.3613  0.3777
  753SOL    HW2 2259   0.895   2.642   1.819 -0.7896  1.7773 -0.7299
  754SOL     OW 2260   1.179   1.149   2.989 -0.1055  0.1122  0.0713
  754SOL    HW1 2261   1.238   1.076   2.947  0.9064 -0.2961 -0.3619
  754SOL    HW2 2262   1.223   1.242   2.992  0.0444  0.4779  1.3829
  755SOL     OW 2263   1.965   0.465   2.213 -0.3991  0.0092 -0.0826
  755SOL    HW1 2264   2.038   0.404   2.254  2.9079 -0.5164  1.7617
  755SOL    HW2 2265   1.876   0.468   2.264  2.2934 -2.5117 -1.6941
  756SOL     OW 2266   2.495   0.973   3.002  0.0468  0.3708  0.0847
  756SOL    HW1 2267   2.598   0.954   3.011  1.2616 -1.5092  1.5267
  756SOL    HW2 2268   2.447   0.892   3.045  0.1665  0.6728 -0.5914
  757SOL     OW 2269   0.089   0.421   1.966 -0.0501 -0.5430 -0.2667
  757SOL    HW1 2270   0.113   0.328   1.930 -0.7593  3.1766  0.3487
  757SOL    HW2 2271  -0.003   0.427   2.021 -3.7699 -0.6634  0.3064
  758SOL     OW 2272   2.261   0.080   1.497 -0.8847  0.0963  0.3698
  758SOL    HW1 2273   2.253  -0.008   1.551  0.0963  2.0931  0.1496
  758SOL    HW2 2274   2.303   0.064   1.401  0.9966  1.9649  0.2131
  759SOL     OW 2275   1.698   0.070   0.060 -0.3330 -0.6360  0.0349
  759SOL    HW1 2276   1.653   0.081  -0.030 -1.3578 -0.1975  2.6118
  759SOL    HW2 2277   1.801   0.070   0.049 -1.6768 -3.3193 -1.8645
  760SOL     OW 2278   2.700   2.014   2.844 -0.1303  0.0526 -0.4221
  760SOL    HW1 2279   2.602   1.998   2.876 -1.9241 -1.8265 -0.8593
  760SOL    HW2 2280   2.744   2.105   2.864 -1.6630 -0.8398  2.0552
  761SOL     OW 2281   1.918   1.756   1.716  0.1374 -0.3902  0.6661
  761SOL    HW1 2282   1.949   1.668   1.762  2.4938 -0.8727 -0.1929
  761SOL    HW2 2283   1.853   1.739   1.633  0.0779  1.7633 -2.4451
  762SOL     OW 2284   0.488   2.417   0.928 -0.2546 -0.3806 -0.0624
  762SOL    HW1 2285   0.536   2.415   0.833  1.4489 -0.3771 -0.8062
  762SOL    HW2 2286   0.556   2.424   1.009  0.9193 -0.1433 -0.5559
  763SOL     OW 2287   2.119   1.594   2.981 -0.3815 -0.5971  0.0561
  763SOL    HW1 2288   2.212   1.552   2.983 -1.6541 -0.3482 -1.0018
  763SOL    HW2 2289   2.047   1.545   3.038 -0.1228  0.8226 -3.1080
  764SOL     OW 2290   0.672   0.602   0.673  0.3703  0.0551 -0.0248
  764SOL    HW1 2291   0.580   0.574   0.642  1.7794  0.8102  1.1455
  764SOL    HW2 2292   0.700   0.564   0.764 -0.5528  1.9764  2.1948
  765SOL     OW 2293   0.813   0.333   0.708  0.0212 -0.0539 -0.6380
  765SOL    HW1 2294   0.872   0.347   0.629 -0.4191  0.0225  4.1358
  765SOL    HW2 2295   0.813   0.416   0.776 -0.8964  3.0180  3.1112
  766SOL     OW 2296   2.918   2.160   3.063  0.5440 -0.2713  0.3810
  766SOL    HW1 2297   2.815   2.187   3.057 -1.4066 -0.5134  1.2569
  766SOL    HW2 2298   2.987   2.235   3.079 -0.2672 -1.1270 -1.7181
  767SOL     OW 2299   2.833   1.601   0.584 -0.1896  0.3634  0.6931
  767SOL    HW1 2300   2.739   1.621   0.624  0.2214 -1.4585  0.2961
  767SOL    HW2 2301   2.909   1.627   0.648 -0.0291 -1.9289  1.2175
  768SOL     OW 2302   1.061   0.194   0.183  0.3868  0.0498  0.0993
  768SOL    HW1 2303   1.050   0.239   0.274  0.8422 -0.1039  0.0052
  768SOL    HW2 2304   1.163   0.169   0.173  1.5736  0.8924  1.0145
  769SOL     OW 2305   1.135   1.821   2.287 -0.1509  0.2094 -0.0282
  769SOL    HW1 2306   1.039   1.840   2.332 -0.8835  1.7404  0.2191
  769SOL    HW2 2307   1.212   1.807   2.356  2.7215  0.4528  1.7780
  770SOL     OW 2308   0.170   1.151   2.340 -0.5378 -0.3431 -0.0733
  770SOL    HW1 2309   0.154   1.237   2.397 -3.3896  1.3437 -0.5423
  770SOL    HW2 2310   0.084   1.107   2.305  1.4305 -1.3657  0.4874
  771SOL     OW 2311   3.041   2.820   1.929 -0.5633  0.4209  0.2618
  771SOL    HW1 2312   2.987   2.860   1.851  2.1061  0.3741  2.4823
  771SOL    HW2 2313   3.015   2.871   2.014 -2.4527 -2.5580 -0.0940
  772SOL     OW 2314   2.354   0.237   2.829  0.1929 -0.0273 -0.6473
  772SOL    HW1 2315   2.443   0.185   2.813  1.5918  2.6773  0.1844
  772SOL    HW2 2316   2.329   0.243   2.924  1.6504 -0.2721 -3.4177
  773SOL     OW 2317   0.586   2.058   2.419 -0.1737 -0.2606 -0.0986
  773SOL    HW1 2318   0.549   2.148   2.377  1.8143  0.6711  0.3766
  773SOL    HW2 2319   0.510   1.990   2.437  1.2650  2.0329 -0.9355
  774SOL     OW 2320   2.131   0.020   2.587  0.1089  0.3129 -0.1824
  774SOL    HW1 2321   2.121   0.104   2.647 -3.0060  1.3872  1.8318
  774SOL    HW2 2322   2.189  -0.057   2.627 -0.7170 -1.7065 -2.9142
  775SOL     OW 2323   2.549   2.927   2.238 -0.5187  0.9238  0.0631
  775SOL    HW1 2324   2.497   3.011   2.253  2.6174 -1.7995 -0.4558
  775SOL    HW2 2325   2.606   2.903   2.325  0.3099  0.3811  0.2834
  776SOL     OW 2326   0.020   1.244   0.200 -0.8220  0.2160  0.1076
  776SOL    HW1 2327  -0.043   1.222   0.119  2.2763  2.6571 -1.7281
  776SOL    HW2 2328  -0.027   1.225   0.287  0.8204 -0.4213 -2.5269
  777SOL     OW 2329   0.397   2.962   0.482 -0.2051 -0.4888 -0.7617
  777SOL    HW1 2330   0.300   2.952   0.459  0.9960  2.4375  0.7006
  777SOL    HW2 2331   0.453   2.905   0.420 -1.7861 -1.1937 -0.3417
  778SOL     OW 2332   1.385   2.011   0.268 -0.3382 -0.2520  0.2458
  778SOL    HW1 2333   1.307   2.057   0.314  1.2086  0.7959 -0.7952
  778SOL    HW2 2334   1.398   2.042   0.169 -1.1135  2.1139  1.4872
  779SOL     OW 2335   0.155   0.802   0.470  0.4655  0.1863  0.3834
  779SOL    HW1 2336   0.088   0.719   0.463 -2.0905 -1.1798 -3.7194
  779SOL    HW2 2337   0.108   0.883   0.519  0.3020 -1.7201 -1.3543
  780SOL     OW 2338   0.119   0.312   2.333 -0.1645 -0.7218  0.0311
  780SOL    HW1 2339   0.113   0.372   2.418 -3.5780 -0.2867 -1.7996
  780SOL    HW2 2340   0.208   0.328   2.284  0.0192  2.0507  0.8445
  781SOL     OW 2341   0.703   1.673   1.516  0.6324  0.6022 -0.2647
  781SOL    HW1 2342   0.746   1.598   1.577  0.7855  1.0891  0.7286
  781SOL    HW2 2343   0.607   1.655   1.482  0.5762  1.5194  0.7111
  782SOL     OW 2344   2.572   0.054   0.919 -0.2357  0.2348  0.2245
  782SOL    HW1 2345   2.501   0.094   0.855  2.0629  3.1838  1.1748
  782SOL    HW2 2346   2.529   0.039   1.014 -2.1134 -1.2611 -1.2977
  783SOL     OW 2347   2.753   0.730   2.462  0.0595  0.0360  0.2018
  783SOL    HW1 2348   2.721   0.743   2.564 -0.1377  3.1628  0.0137
  783SOL    HW2 2349   2.733   0.630   2.433  0.9075  0.7723 -0.0657
  784SOL     OW 2350   1.427   2.135   0.024  0.0063  0.3715 -0.4133
  784SOL    HW1 2351   1.466   2.228   0.049  0.2815  1.9197  3.6078
  784SOL    HW2 2352   1.407   2.132  -0.081  0.0232  2.7151  0.1644
  785SOL     OW 2353   2.087   0.300   3.087 -0.0601  0.3591  0.2753
  785SOL    HW1 2354   1.998   0.318   3.142  2.4672  0.8855 -0.9289
  785SOL    HW2 2355   2.120   0.389   3.044  0.9939 -0.2949 -0.8530
  786SOL     OW 2356   2.058   2.187   2.270 -0.3352 -0.4187 -0.0695
  786SOL    HW1 2357   2.031   2.096   2.310  2.8583  1.9197 -2.6996
  786SOL    HW2 2358   2.164   2.189   2.256  2.6875 -0.7566  0.7346
  787SOL     OW 2359   1.374   0.547   0.871 -0.4765  0.4629  0.1199
  787SOL    HW1 2360   1.301   0.618   0.858  2.0661 -2.3891  2.7792
  787SOL    HW2 2361   1.441   0.533   0.792 -1.2554 -1.1573 -0.1517
  788SOL     OW 2362   1.233   0.419   0.010  0.1998 -0.0471  0.0004
  788SOL    HW1 2363   1.138   0.389  -0.009  0.9298  0.8476  2.6401
  788SOL    HW2 2364   1.227   0.488   0.087  1.0206 -0.3976 -0.0589
  789SOL     OW 2365   2.528   0.120   1.957 -0.1915 -0.3111 -0.2994
  789SOL    HW1 2366   2.470   0.114   1.871 -0.6770 -0.0560  0.0360
  789SOL    HW2 2367   2.609   0.057   1.957 -3.3384  3.9575 -1.0322
  790SOL     OW 2368   2.616   2.765   0.697 -0.2763 -0.0409 -0.6341
  790SOL    HW1 2369   2.666   2.823   0.632 -2.5282 -1.8659  0.2902
  790SOL    HW2 2370   2.637   2.786   0.798 -2.5604  2.1048  2.5353
  791SOL     OW 2371   1.931   1.199   0.181  0.3489  0.0695  0.4749
  791SOL    HW1 2372   1.859   1.161   0.243 -0.7828  2.4364  1.3145
  791SOL    HW2 2373   2.029   1.170   0.190  1.1751 -1.1829 -0.2914
  792SOL     OW 2374   0.424   1.767   2.174 -0.3749 -0.5385 -0.2937
  792SOL    HW1 2375   0.477   1.807   2.249 -0.9992 -0.6153 -1.0468
  792SOL    HW2 2376   0.417   1.664   2.185 -2.7233 -1.3817 -2.5310
  793SOL     OW 2377   2.125   1.604   2.076 -0.0567 -0.2130  0.4582
  793SOL    HW1 2378   2.205   1.663   2.053 -1.0721 -1.1637  2.0189
  793SOL    HW2 2379   2.140   1.508   2.040  0.4018 -1.5215 -0.0186
  794SOL     OW 2380   0.501   1.492   2.286  0.2493 -0.2269 -0.2480
  794SOL    HW1 2381   0.493   1.418   2.211  0.8288 -0.6429  1.3221
  794SOL    HW2 2382   0.437   1.479   2.369  2.3210  1.4730  1.1774
  795SOL     OW 2383   2.498   2.249   1.808  0.1446  0.5467 -0.5787
  795SOL    HW1 2384   2.451   2.256   1.900  0.5674  0.5404  3.7605
  795SOL    HW2 2385   2.454   2.180   1.743 -0.8593 -1.7739  1.6871
  796SOL     OW 2386   3.081   1.096   2.651  0.1678  0.2013 -0.7729
  796SOL    HW1 2387   2.992   1.052   2.679 -1.4067 -1.5273  1.2109
  796SOL    HW2 2388   3.127   1.137   2.735  1.4757 -0.7344 -0.1395
  797SOL     OW 2389   0.822   0.635   1.417  0.2953 -0.1618 -0.5036
  797SOL    HW1 2390   0.900   0.676   1.474 -0.7358 -0.1867 -0.1601
  797SOL    HW2 2391   0.781   0.704   1.348  1.7837 -0.3600 -0.3223
  798SOL     OW 2392   1.316   0.437   1.186  0.0036  0.1138 -0.1386
  798SOL    HW1 2393   1.362   0.406   1.272 -1.3130 -0.4820  0.7723
  798SOL    HW2 2394   1.374   0.489   1.122 -1.9454  1.3608  1.7130
  799SOL     OW 2395   1.961   2.644   1.036  0.0853 -0.1323 -0.1268
  799SOL    HW1 2396   1.888   2.616   1.106 -3.0376  0.1299 -1.1244
  799SOL    HW2 2397   1.928   2.672   0.940  0.7213  2.0434  0.7381
  800SOL     OW 2398   3.039   0.629   1.847 -0.2071  0.3845  0.5273
  800SOL    HW1 2399   2.987   0.702   1.901 -0.7666 -1.0840  0.0772
  800SOL    HW2 2400   3.109   0.576   1.906  1.4797 -1.6026 -0.8439
  801SOL     OW 2401   1.901   2.211   0.151 -0.0700  0.7368 -0.4941
  801SOL    HW1 2402   1.830   2.156   0.099 -0.0381  3.1965 -0.9778
  801SOL    HW2 2403   1.991   2.202   0.104  0.8286  3.0348  0.0409
  802SOL     OW 2404   0.737   0.778   2.587 -0.2693 -0.4517 -0.2334
  802SOL    HW1 2405   0.801   0.788   2.508  0.2392 -0.5839 -2.4183
  802SOL    HW2 2406   0.665   0.704   2.562 -0.6414 -0.3163 -1.8404
  803SOL     OW 2407   0.899   0.159   0.932  0.3495 -0.5957 -0.2096
  803SOL    HW1 2408   0.994   0.208   0.945 -1.1549  0.8602  0.4807
  803SOL    HW2 2409   0.841   0.210   0.862 -0.2929  0.3737  1.8539
  804SOL     OW 2410   0.406   3.038   2.118 -0.4890  0.9524  0.2839
  804SOL    HW1 2411   0.356   3.106   2.055  1.5664  1.7842  1.2665
  804SOL    HW2 2412   0.397   2.938   2.085 -3.0445  1.8680 -0.6599
  805SOL     OW 2413   2.434   0.257   0.265  0.1715 -0.3716 -0.5356
  805SOL    HW1 2414   2.537   0.272   0.278  1.7478  1.7233  2.1952
  805SOL    HW2 2415   2.409   0.237   0.170  0.7658 -0.5375 -1.5500
  806SOL     OW 2416   0.667   2.417   1.684 -0.3793  0.1086  0.0323
  806SOL    HW1 2417   0.667   2.520   1.689  1.1912 -0.3789  2.6319
  806SOL    HW2 2418   0.763   2.384   1.668 -0.0242  1.9703  1.5663
  807SOL     OW 2419   2.464   0.954   0.432 -0.6126  0.7385  0.4587
  807SOL    HW1 2420   2.543   0.890   0.450 -0.1720 -0.3014 -1.1066
  807SOL    HW2 2421   2.441   0.976   0.331 -0.5717  2.6571 -1.7257
  808SOL     OW 2422   0.567   2.010   2.980 -0.6909 -0.1328  0.0736
  808SOL    HW1 2423   0.557   2.016   3.083  0.2144 -3.3221 -0.6090
  808SOL    HW2 2424   0.580   1.913   2.951  2.9278 -0.4051 -2.3771
  809SOL     OW 2425   2.639   1.974   1.952 -0.8039 -0.3688  0.2413
  809SOL    HW1 2426   2.712   2.052   1.945 -1.7701 -1.3252 -1.8885
  809SOL    HW2 2427   2.601   1.952   1.859  0.4370 -1.6522  1.4099
  810SOL     OW 2428   2.062   1.124   0.512 -0.2017 -0.5441 -0.6141
  810SOL    HW1 2429   2.091   1.065   0.595 -0.6546 -1.1856 -1.0135
  810SOL    HW2 2430   2.017   1.216   0.542 -0.2707  3.4663  0.6728
  811SOL     OW 2431   1.277   2.415   1.248  0.3221  0.4225  0.6705
  811SOL    HW1 2432   1.243   2.322   1.278  1.8665  0.4493 -0.0931
  811SOL    HW2 2433   1.250   2.441   1.150 -0.9455 -1.5858  0.6575
  812SOL     OW 2434   1.380   0.781   1.948  0.2223  0.2019 -0.4815
  812SOL    HW1 2435   1.453   0.847   1.984 -0.2214 -0.8906 -1.3156
  812SOL    HW2 2436   1.287   0.830   1.940 -0.0585 -0.2176  1.1980
  813SOL     OW 2437   1.752   2.079   2.469  0.4452  0.5746 -0.3125
  813SOL    HW1 2438   1.853   2.052   2.442  1.8504  0.8084 -0.9324
  813SOL    HW2 2439   1.686   2.067   2.390 -0.9533  0.3429 -2.0087
  814SOL     OW 2440   2.849   1.538   2.901 -0.0227  0.0012  0.1784
  814SOL    HW1 2441   2.946   1.536   2.944  1.7908 -2.3224  0.4202
  814SOL    HW2 2442   2.833   1.621   2.840 -1.0381  1.9908 -0.3362
  815SOL     OW 2443   2.244   2.906   2.724  0.0825  0.2152 -0.1331
  815SOL    HW1 2444   2.210   2.863   2.811  2.5880  2.9369  1.7434
  815SOL    HW2 2445   2.347   2.892   2.704  0.3191 -2.0386 -0.6591
  816SOL     OW 2446   1.751   0.357   1.696  0.1329  0.0509  0.0007
  816SOL    HW1 2447   1.662   0.303   1.694  0.0319 -2.0797 -0.3418
  816SOL    HW2 2448   1.759   0.419   1.775 -2.9935  0.2962 -2.7162
  817SOL     OW 2449   0.476   1.201   2.452  0.2604 -0.5750 -0.2173
  817SOL    HW1 2450   0.444   1.299   2.457  0.5891  1.6629 -2.5366
  817SOL    HW2 2451   0.454   1.154   2.364 -0.0659  2.0209  0.3945
  818SOL     OW 2452   2.033   0.857   0.424  0.3698 -0.4692  0.1850
  818SOL    HW1 2453   2.028   0.957   0.389  0.4038  1.4394  0.0964
  818SOL    HW2 2454   1.971   0.827   0.500  0.5383 -3.0769 -1.0366
  819SOL     OW 2455   2.765   2.946   3.046 -0.3194 -0.4871  0.3065
  819SOL    HW1 2456   2.854   2.890   3.027  0.2722  1.2522  0.3007
  819SOL    HW2 2457   2.690   2.909   2.988 -0.5453 -0.8578 -0.3394
  820SOL     OW 2458   1.218   1.118   0.512  0.3950 -0.3818 -0.4017
  820SOL    HW1 2459   1.274   1.202   0.545  2.3133  3.2893 -2.6713
  820SOL    HW2 2460   1.195   1.052   0.593  1.6850 -0.2748 -1.5625
  821SOL     OW 2461   3.061   1.281   0.665  0.1415  0.1324  0.3452
  821SOL    HW1 2462   3.024   1.291   0.765 -1.4371 -1.3583  2.4535
  821SOL    HW2 2463   3.151   1.334   0.647 -2.1598  1.1421 -1.2363
  822SOL     OW 2464   2.524   1.777   2.421 -0.0545  0.4937  0.1977
  822SOL    HW1 2465   2.518   1.859   2.488  0.1613  0.8719 -1.4648
  822SOL    HW2 2466   2.490   1.803   2.327 -1.6558 -0.0425  0.2039
  823SOL     OW 2467   2.037   0.894   1.214  0.2810 -0.1894  0.3720
  823SOL    HW1 2468   1.989   0.862   1.300 -0.7897 -0.7408  1.6716
  823SOL    HW2 2469   1.975   0.930   1.140 -0.8927  2.1429  1.7582
  824SOL     OW 2470   0.162   2.017   2.729 -0.4638  0.2362  0.2026
  824SOL    HW1 2471   0.123   1.956   2.807 -0.3857 -2.2401 -1.7342
  824SOL    HW2 2472   0.164   1.961   2.643  0.6230 -0.1515 -0.2340
  825SOL     OW 2473   1.236   1.040   0.240 -0.0532 -0.4261 -0.2872
  825SOL    HW1 2474   1.229   1.068   0.344 -1.3389  0.8932 -1.2077
  825SOL    HW2 2475   1.228   1.129   0.188  0.4495  0.8455 -0.1140
  826SOL     OW 2476   1.940   0.622   1.523  0.0017  0.2341 -0.4540
  826SOL    HW1 2477   1.991   0.570   1.597  0.9695  2.5295  0.9251
  826SOL    HW2 2478   1.849   0.585   1.494 -0.0105 -1.7050 -0.4406
  827SOL     OW 2479   0.759   1.425   0.299  0.3008  0.4391 -0.0749
  827SOL    HW1 2480   0.783   1.360   0.221  0.1109 -0.4377  1.5475
  827SOL    HW2 2481   0.700   1.377   0.370  0.0344 -0.0391  1.2620
  828SOL     OW 2482   2.555   0.082   1.573 -0.1773 -0.0801 -0.2528
  828SOL    HW1 2483   2.463   0.120   1.547 -0.5073  0.4020 -1.4296
  828SOL    HW2 2484   2.559  -0.001   1.632  1.9349  0.7072  0.1878
  829SOL     OW 2485   2.843   2.481   3.035  0.4655 -0.0462  0.3103
  829SOL    HW1 2486   2.776   2.411   3.004  0.6471  0.1387 -3.2009
  829SOL    HW2 2487   2.812   2.551   3.107  0.6182  1.7984  2.0819
  830SOL     OW 2488   2.778   0.964   3.043 -0.2772 -0.1877  0.2691
  830SOL    HW1 2489   2.841   1.019   3.100 -1.0677 -1.5994 -0.0750
  830SOL    HW2 2490   2.810   0.865   3.048 -1.9056 -1.3467  1.2177
  831SOL     OW 2491   0.010   0.586   0.353  0.3847  0.0790 -0.5633
  831SOL    HW1 2492  -0.044   0.528   0.421 -0.1386  2.6753 -1.5275
  831SOL    HW2 2493   0.076   0.527   0.296  1.1203 -0.9043 -2.4875
  832SOL     OW 2494   1.771   0.739   3.087 -0.1096 -0.0075 -0.0684
  832SOL    HW1 2495   1.686   0.802   3.066 -1.1501  1.6142  1.0634
  832SOL    HW2 2496   1.763   0.652   3.031 -1.6177 -0.8861  0.1256
  833SOL     OW 2497   2.471   2.158   0.495  0.1538  0.1718 -0.1971
  833SOL    HW1 2498   2.368   2.167   0.502  1.6021 -0.8625 -1.5167
  833SOL    HW2 2499   2.493   2.070   0.450 -0.6777  0.9924 -0.9825
  834SOL     OW 2500   0.073   0.256   0.640  0.2142  0.0350  0.0434
  834SOL    HW1 2501   0.141   0.196   0.686 -2.4280  2.7667 -1.4636
  834SOL    HW2 2502   0.093   0.245   0.541  1.1241 -1.3280  1.3788
  835SOL     OW 2503   2.361   1.492   1.170 -0.3754 -0.4140  0.1269
  835SOL    HW1 2504   2.440   1.533   1.220 -2.5751 -0.5256  0.9625
  835SOL    HW2 2505   2.384   1.473   1.072 -1.9006 -0.7527 -2.1189
  836SOL     OW 2506   1.517   0.804   2.580  0.0726 -0.4626  0.3984
  836SOL    HW1 2507   1.416   0.824   2.566  1.5633 -0.2337 -1.1766
  836SOL    HW2 2508   1.570   0.811   2.490  1.4522  0.0397  1.8978
  837SOL     OW 2509   1.598   0.049   0.520  1.0675  0.6767  0.7990
  837SOL    HW1 2510   1.553   0.122   0.578  1.0389 -0.2026 -0.0812
  837SOL    HW2 2511   1.601   0.068   0.416  2.1020 -1.5694  1.2457
  838SOL     OW 2512   1.287   1.595   2.674 -0.3410 -0.0818  0.0971
  838SOL    HW1 2513   1.352   1.546   2.744  1.7891 -0.2009  2.1315
  838SOL    HW2 2514   1.212   1.536   2.631 -2.6555 -0.8938  1.4508
  839SOL     OW 2515   1.638   0.275   0.984  0.2267  0.2806  0.1364
  839SOL    HW1 2516   1.663   0.349   1.054 -1.1246  1.3404 -3.1246
  839SOL    HW2 2517   1.602   0.184   1.021 -1.3989 -0.5741 -1.0112
  840SOL     OW 2518   2.541   2.962   1.723 -0.0966  0.0093  0.0094
  840SOL    HW1 2519   2.519   2.913   1.632  1.4077 -1.8229  0.5667
  840SOL    HW2 2520   2.580   2.895   1.796  0.3224 -4.7333  0.0643
  841SOL     OW 2521   1.567   0.901   3.050 -0.1040 -0.3483 -0.1627
  841SOL    HW1 2522   1.474   0.877   3.095 -0.3752  1.4365 -2.0309
  841SOL    HW2 2523   1.553   0.960   2.972 -1.2538 -1.6887  0.4871
  842SOL     OW 2524   0.829   1.543   0.850 -0.1944  0.2957  0.7099
  842SOL    HW1 2525   0.806   1.608   0.932 -1.0005  1.6862  1.5031
  842SOL    HW2 2526   0.758   1.464   0.841 -1.1259 -1.8210  1.1120
  843SOL     OW 2527   0.193   3.059   1.390 -0.2708  0.1869 -0.0441
  843SOL    HW1 2528   0.201   3.134   1.457 -0.7363  1.8646 -2.3103
  843SOL    HW2 2529   0.151   2.970   1.424 -1.8691  0.5926 -2.0966
  844SOL     OW 2530   0.815   2.459   0.254 -0.3881 -0.4270 -0.0892
  844SOL    HW1 2531   0.738   2.433   0.318 -0.3684 -0.8321 -0.3986
  844SOL    HW2 2532   0.790   2.519   0.175 -0.6875  0.6047  0.6418
  845SOL     OW 2533   1.660   2.835   1.246  0.4966  0.0386 -0.5401
  845SOL    HW1 2534   1.712   2.745   1.246 -0.0453  0.0970  2.4323
  845SOL    HW2 2535   1.676   2.892   1.335  1.6495  0.5303  3.2026
  846SOL     OW 2536   1.568   2.969   0.739  0.0669 -0.2600 -1.0620
  846SOL    HW1 2537   1.569   3.032   0.659 -3.0705 -0.1119 -0.0238
  846SOL    HW2 2538   1.662   2.951   0.777  0.2813  2.7250  1.9935
  847SOL     OW 2539   2.095   1.723   0.441  0.4723 -0.6510 -0.5307
  847SOL    HW1 2540   2.082   1.643   0.381 -1.0146  3.2291 -1.3077
  847SOL    HW2 2541   1.998   1.763   0.454 -3.2966  2.4484 -1.7385
  848SOL     OW 2542   2.405   0.889   2.614 -0.2528  0.0547 -0.5399
  848SOL    HW1 2543   2.371   0.974   2.661  0.8789  0.0635  0.2628
  848SOL    HW2 2544   2.329   0.820   2.599  0.8820 -0.1558  0.2626
  849SOL     OW 2545   2.534   0.884   2.372  0.6295 -0.5817 -0.1558
  849SOL    HW1 2546   2.626   0.834   2.377 -2.8991  0.6752 -0.8633
  849SOL    HW2 2547   2.483   0.888   2.463  1.0883 -0.3814  0.8550
  850SOL     OW 2548   1.558   0.044   1.318 -0.3873  0.1986  0.7082
  850SOL    HW1 2549   1.556   0.006   1.217 -1.1926  0.7151 -2.4656
  850SOL    HW2 2550   1.518  -0.019   1.393 -0.0452 -0.6908  3.9713
  851SOL     OW 2551   0.515   1.756   0.640 -0.5977  0.3738 -0.7748
  851SOL    HW1 2552   0.603   1.811   0.667 -0.5239  0.1519  0.7494
  851SOL    HW2 2553   0.499   1.768   0.535 -1.7367  1.5486  0.2500
  852SOL     OW 2554   0.854   2.090   1.740  0.3911 -0.5055  0.4800
  852SOL    HW1 2555   0.855   2.185   1.699 -4.0997 -0.9314 -0.9823
  852SOL    HW2 2556   0.782   2.086   1.815 -1.3667 -1.4302  2.0019
  853SOL     OW 2557   2.547   1.555   2.607  0.4295  0.2018 -0.1681
  853SOL    HW1 2558   2.456   1.505   2.609 -1.3851 -0.4221 -0.1409
  853SOL    HW2 2559   2.552   1.630   2.532 -1.6323  0.2471 -0.1083
  854SOL     OW 2560   2.464   1.397   1.767 -0.5187  0.1063  0.0572
  854SOL    HW1 2561   2.523   1.343   1.696  1.5194 -3.7364 -0.0706
  854SOL    HW2 2562   2.402   1.337   1.822 -0.4316  0.6092  1.4434
  855SOL     OW 2563   2.078   2.398   1.056 -0.3392 -0.0255 -0.8018
  855SOL    HW1 2564   2.058   2.495   1.024  0.0095 -0.6733  1.3498
  855SOL    HW2 2565   2.163   2.393   1.118 -0.9259 -0.6010  0.9954
  856SOL     OW 2566   1.330   1.429   0.919 -0.0234 -0.2990  0.1924
  856SOL    HW1 2567   1.397   1.504   0.942 -3.3797  1.0102 -0.6149
  856SOL    HW2 2568   1.240   1.456   0.958 -2.1729 -0.7939 -1.1400
  857SOL     OW 2569  -0.003   2.750   1.067 -0.0699 -0.0323 -0.6098
  857SOL    HW1 2570  -0.006   2.709   0.973  1.9961  0.5518  1.3556
  857SOL    HW2 2571   0.086   2.802   1.086  2.7674  1.2978 -0.2068
  858SOL     OW 2572   2.404   2.076   1.632 -0.1613 -0.0017  0.9702
  858SOL    HW1 2573   2.305   2.044   1.645  0.1896 -0.9811 -1.3936
  858SOL    HW2 2574   2.474   1.999   1.602  0.4139  3.2539  0.1616
  859SOL     OW 2575   2.438   0.527   1.060  0.1018 -0.4117 -0.7002
  859SOL    HW1 2576   2.493   0.579   0.992 -0.8945  0.7735  1.5591
  859SOL    HW2 2577   2.484   0.448   1.108 -1.2043  0.0925 -3.4002
  860SOL     OW 2578   1.894   2.801   0.526 -0.1818 -0.1982  0.2293
  860SOL    HW1 2579   1.864   2.761   0.435 -1.9152  3.3486  0.7249
  860SOL    HW2 2580   1.915   2.901   0.519  0.2717  1.5530  0.9580
  861SOL     OW 2581   0.981   2.507   2.877 -0.4148  0.0643  0.2689
  861SOL    HW1 2582   1.050   2.580   2.841 -1.9447  1.5909 -0.2892
  861SOL    HW2 2583   0.961   2.522   2.978 -1.7469 -1.5688 -0.1481
  862SOL     OW 2584   2.857   2.525   1.665  0.2239  0.0677 -0.6987
  862SOL    HW1 2585   2.932   2.513   1.737  1.4145 -1.9384  1.2958
  862SOL    HW2 2586   2.823   2.621   1.640  0.4584 -0.8839 -1.6949
  863SOL     OW 2587   1.826   2.708   0.270  0.1137  0.1516 -0.0737
  863SOL    HW1 2588   1.868   2.612   0.265  1.0626  0.3757  3.6823
  863SOL    HW2 2589   1.718   2.709   0.278 -2.2406 -1.2942 -0.0117
  864SOL     OW 2590   2.028   1.247   2.822 -0.2793  0.0802  0.5862
  864SOL    HW1 2591   2.033   1.190   2.735  2.6562 -0.2386  0.1041
  864SOL    HW2 2592   2.085   1.331   2.829 -0.8176 -2.1247 -0.5264
  865SOL     OW 2593   2.148   1.940   0.742  0.1800 -0.1010  0.1818
  865SOL    HW1 2594   2.220   1.890   0.794  0.2020  0.2697 -0.5552
  865SOL    HW2 2595   2.073   1.961   0.806  0.8280  0.3209 -1.1134
  866SOL     OW 2596   2.945   2.994   1.022 -0.3853 -0.0046 -0.3913
  866SOL    HW1 2597   2.951   3.061   0.943  1.3692  2.0658 -2.1613
  866SOL    HW2 2598   2.982   2.902   0.994 -2.7472  1.7086  0.4829
  867SOL     OW 2599   0.339   1.396   0.890  0.5834  0.1968  0.7870
  867SOL    HW1 2600   0.348   1.336   0.807  0.9890 -2.3358  2.4112
  867SOL    HW2 2601   0.311   1.493   0.863 -1.8467  1.2159 -2.1963
  868SOL     OW 2602   0.789   1.840   2.046  0.5958 -0.2040 -0.2746
  868SOL    HW1 2603   0.752   1.807   2.143 -2.8890 -2.1732  1.0620
  868SOL    HW2 2604   0.729   1.910   2.001  0.0243  1.4472  0.4143
  869SOL     OW 2605   2.620   1.903   1.668 -0.1995  0.0631  0.2623
  869SOL    HW1 2606   2.680   1.972   1.617  0.5810  3.4628 -0.9847
  869SOL    HW2 2607   2.618   1.808   1.634 -0.2340  2.0890  1.6870
  870SOL     OW 2608   2.364   2.684   1.196 -0.3895  0.4984  0.8808
  870SOL    HW1 2609   2.346   2.582   1.220  0.5746  0.1433  0.7473
  870SOL    HW2 2610   2.438   2.729   1.244 -2.7559 -4.5897  0.5447
  871SOL     OW 2611   3.052   2.239   0.511  0.2856 -0.0561 -0.6683
  871SOL    HW1 2612   3.015   2.264   0.602  0.6324  1.2390 -0.2488
  871SOL    HW2 2613   2.989   2.246   0.428  0.0881  1.0206 -2.3076
  872SOL     OW 2614   2.106   0.494   1.701  0.0731 -0.1486  0.3098
  872SOL    HW1 2615   2.060   0.480   1.793 -2.0099  1.3466  2.1665
  872SOL    HW2 2616   2.194   0.439   1.681  1.4260  1.4910  0.6066
  873SOL     OW 2617   1.709   2.086   3.098 -0.2084  0.6903  0.0098
  873SOL    HW1 2618   1.605   2.072   3.108 -0.5246 -0.2331  1.3912
  873SOL    HW2 2619   1.734   2.103   2.998 -0.3080  0.7375 -1.9209
  874SOL     OW 2620   0.670   2.450   0.728 -0.0938 -0.2324  0.1753
  874SOL    HW1 2621   0.684   2.548   0.757 -0.1703  2.1593  1.9913
  874SOL    HW2 2622   0.756   2.392   0.740 -2.2212 -0.5571 -2.4566
  875SOL     OW 2623   2.247   1.508   1.427 -0.6022 -0.6420 -0.7570
  875SOL    HW1 2624   2.332   1.548   1.470  0.5543  0.7095  0.8535
  875SOL    HW2 2625   2.251   1.483   1.327 -0.5210 -0.9565 -0.1509
  876SOL     OW 2626   0.053   2.254   2.639 -0.7315 -0.3568 -0.2113
  876SOL    HW1 2627   0.094   2.164   2.658 -1.3212  0.9554 -0.5488
  876SOL    HW2 2628   0.124   2.331   2.660  3.0676  0.9590  1.6581
  877SOL     OW 2629   2.904   2.640   0.631  0.5085  0.6328 -0.4619
  877SOL    HW1 2630   2.909   2.741   0.623  3.0109 -2.3438 -0.1415
  877SOL    HW2 2631   2.987   2.595   0.672 -1.0208  0.6930 -2.8912
  878SOL     OW 2632   2.845   1.606   2.297  0.2581 -0.6026 -0.5159
  878SOL    HW1 2633   2.761   1.658   2.267 -1.7435  0.0428  0.6354
  878SOL    HW2 2634   2.827   1.549   2.382 -0.9345 -0.5476  0.9400
  879SOL     OW 2635   2.448   0.046   1.181  0.4242  0.2313  0.5074
  879SOL    HW1 2636   2.489  -0.051   1.178 -2.5083 -1.2169  0.3326
  879SOL    HW2 2637   2.347   0.051   1.148 -0.6140  0.0481  3.5191
  880SOL     OW 2638   0.705   0.561   2.286  0.5034 -0.2269  0.0882
  880SOL    HW1 2639   0.689   0.512   2.378 -2.0357 -0.9985 -0.9496
  880SOL    HW2 2640   0.726   0.494   2.209  0.6210  1.1558 -0.0956
  881SOL     OW 2641   0.824   0.073   0.387  0.0963  0.4938  0.3272
  881SOL    HW1 2642   0.868  -0.020   0.414 -0.2997 -0.3577  0.2827
  881SOL    HW2 2643   0.727   0.065   0.347 -2.5234 -3.4457 -0.3787
  882SOL     OW 2644   2.702   1.619   1.707  0.4484  0.2719 -0.3057
  882SOL    HW1 2645   2.797   1.592   1.669 -0.6147 -1.4305 -0.0793
  882SOL    HW2 2646   2.704   1.660   1.800  2.2556  2.1071  1.4783
  883SOL     OW 2647   0.789   0.523   0.934  0.1078  0.1804  0.4280
  883SOL    HW1 2648   0.853   0.588   0.982 -0.0034 -0.2656  1.4067
  883SOL    HW2 2649   0.704   0.499   0.992  1.0265 -1.6071 -2.7968
  884SOL     OW 2650   1.185   1.760   1.121 -0.9491  0.7034  0.0099
  884SOL    HW1 2651   1.151   1.681   1.060  0.1598  1.0724 -1.6967
  884SOL    HW2 2652   1.129   1.841   1.116  3.1552 -2.1518  3.2966
  885SOL     OW 2653   2.359   1.896   2.212  0.1436  0.2734  0.0423
  885SOL    HW1 2654   2.274   1.855   2.254 -0.7462 -1.4777 -1.8281
  885SOL    HW2 2655   2.376   1.996   2.244  2.0934  1.0658  1.7216
  886SOL     OW 2656   2.617   0.369   1.774 -0.1577  0.2844 -0.3012
  886SOL    HW1 2657   2.635   0.306   1.853 -2.5246  3.1852 -1.0723
  886SOL    HW2 2658   2.694   0.436   1.750  2.7425 -1.0733 -1.1323
  887SOL     OW 2659   0.159   2.089   1.253 -0.0756  0.5430 -0.0347
  887SOL    HW1 2660   0.080   2.034   1.221  1.4576  0.4638 -2.1851
  887SOL    HW2 2661   0.153   2.190   1.240  1.2764 -1.7953  2.1837
  888SOL     OW 2662   0.594   1.248   1.506  0.0291 -0.4349 -0.6794
  888SOL    HW1 2663   0.602   1.318   1.432  0.7520  2.3100 -2.6348
  888SOL    HW2 2664   0.614   1.153   1.476  2.4295  1.6059  1.6178
  889SOL     OW 2665   0.853   2.424   2.237  0.5477  0.0751  0.1879
  889SOL    HW1 2666   0.755   2.387   2.257 -0.7145  0.7966  0.7955
  889SOL    HW2 2667   0.886   2.394   2.142 -2.5288  1.4700  0.0068
  890SOL     OW 2668   2.360   2.486   0.214 -0.4453 -0.4031 -0.4831
  890SOL    HW1 2669   2.396   2.546   0.133  1.6103 -1.8924 -0.2813
  890SOL    HW2 2670   2.330   2.537   0.303  0.8699 -0.3740  1.7203
  891SOL     OW 2671   2.580   1.688   0.708 -0.2746  0.1173 -0.1906
  891SOL    HW1 2672   2.574   1.633   0.797 -1.4861 -1.3190  0.5516
  891SOL    HW2 2673   2.489   1.700   0.655 -1.3537 -1.2957  2.1375
  892SOL     OW 2674   0.352   0.377   2.197 -0.0946  0.7635 -0.2386
  892SOL    HW1 2675   0.348   0.457   2.130 -2.0450  1.1167  0.7848
  892SOL    HW2 2676   0.446   0.343   2.211  1.7871  1.5297 -2.6035
  893SOL     OW 2677   1.698   0.256   2.750 -0.5477 -0.4678  0.4972
  893SOL    HW1 2678   1.774   0.312   2.796 -2.4619  2.4997 -1.1315
  893SOL    HW2 2679   1.617   0.320   2.730  3.0209  0.5088  1.2799
  894SOL     OW 2680   2.153   2.081   0.093  0.1811 -0.6106  0.1120
  894SOL    HW1 2681   2.089   2.033   0.030 -0.4004  1.4731  0.1289
  894SOL    HW2 2682   2.178   2.024   0.175  0.2610 -0.9774 -2.5741
  895SOL     OW 2683   2.727   1.432   0.924 -0.2754 -0.4547  0.4258
  895SOL    HW1 2684   2.810   1.376   0.956 -1.6743 -0.5351 -1.5063
  895SOL    HW2 2685   2.744   1.533   0.920 -1.2701  1.0336 -0.4208
  896SOL     OW 2686   1.785   1.818   1.248 -0.0039  0.2390  0.0199
  896SOL    HW1 2687   1.883   1.783   1.267  0.4132 -2.1476 -1.1805
  896SOL    HW2 2688   1.738   1.777   1.166 -0.3297  1.5823  1.3800
  897SOL     OW 2689   0.231   0.547   3.002 -0.2866 -0.3235 -0.2177
  897SOL    HW1 2690   0.171   0.582   2.926  0.8862 -3.2084  1.0659
  897SOL    HW2 2691   0.317   0.608   3.009 -2.3526 -1.7885  0.0315
  898SOL     OW 2692   0.701   2.817   1.077  0.0654  0.1793 -0.1710
  898SOL    HW1 2693   0.771   2.891   1.098  0.0104  1.0525 -0.0579
  898SOL    HW2 2694   0.714   2.727   1.125  1.0439 -2.0373 -0.8199
  899SOL     OW 2695   2.865   0.951   1.357  0.3857 -0.0216  0.3378
  899SOL    HW1 2696   2.834   0.927   1.263  0.9415  3.4770  3.2208
  899SOL    HW2 2697   2.964   0.967   1.371 -2.2513 -0.7161 -0.5016
  900SOL     OW 2698   1.005   2.447   2.463 -0.2015 -0.2336 -0.0924
  900SOL    HW1 2699   0.944   2.439   2.376  0.3392 -1.3264 -3.1413
  900SOL    HW2 2700   0.968   2.392   2.541  0.7371 -1.6596  1.2718
  901SOL     OW 2701   1.879   2.429   1.444  0.3511  0.6009 -0.4611
  901SOL    HW1 2702   1.882   2.367   1.358  1.9164  2.0389  0.7818
  901SOL    HW2 2703   1.977   2.433   1.488 -0.6378  1.0148  0.5154
  902SOL     OW 2704   2.536   1.655   1.480 -0.2301  0.3000 -0.5957
  902SOL    HW1 2705   2.581   1.619   1.569  0.8969  1.3017 -1.9171
  902SOL    HW2 2706   2.573   1.611   1.392 -0.1396  1.2477 -2.6398
  903SOL     OW 2707   0.326   2.413   2.002  0.1368  0.5863  0.1147
  903SOL    HW1 2708   0.252   2.341   2.014  0.5840 -0.8773  0.6182
  903SOL    HW2 2709   0.311   2.466   1.916 -3.1877  0.6049  1.7256
  904SOL     OW 2710   2.010   0.814   2.462  0.5305 -0.7308 -0.6665
  904SOL    HW1 2711   1.961   0.736   2.512  0.5186  0.0012 -0.2601
  904SOL    HW2 2712   2.001   0.809   2.356 -2.5416 -2.3690 -0.7447
  905SOL     OW 2713   2.810   0.088   2.406  0.3848 -0.2242 -0.2014
  905SOL    HW1 2714   2.875   0.020   2.454  0.5356 -2.5757  1.7900
  905SOL    HW2 2715   2.836   0.189   2.420 -0.8200  1.1871 -0.3761
  906SOL     OW 2716   0.184   1.738   1.903 -0.5098 -0.0131  0.2520
  906SOL    HW1 2717   0.135   1.767   1.812 -1.5284  0.7206 -0.0852
  906SOL    HW2 2718   0.288   1.763   1.899  2.3192 -2.3416 -1.7646
  907SOL     OW 2719   0.234   2.506   0.983  0.0243  0.4958  0.2352
  907SOL    HW1 2720   0.330   2.469   0.965 -0.6005  0.9367  0.2544
  907SOL    HW2 2721   0.231   2.607   0.970 -1.9432 -0.6485  2.3502
  908SOL     OW 2722   2.807   3.016   0.349  0.2074  0.2168 -0.0194
  908SOL    HW1 2723   2.713   3.011   0.303 -0.5290 -2.8589 -0.7530
  908SOL    HW2 2724   2.868   2.930   0.337 -0.4915  0.6353 -0.1738
  909SOL     OW 2725   0.857   1.030   2.670 -0.5571 -0.2265  0.1090
  909SOL    HW1 2726   0.830   0.935   2.651 -0.7309  0.8805 -0.3125
  909SOL    HW2 2727   0.936   1.058   2.608 -1.5869 -0.4795  1.3212
  910SOL     OW 2728   1.780   1.899   2.140 -0.1912 -0.3805  0.5389
  910SOL    HW1 2729   1.842   1.939   2.066  0.1631  3.8072 -1.4718
  910SOL    HW2 2730   1.717   1.976   2.170 -0.3162  1.8767  1.0863
  911SOL     OW 2731   1.757   2.915   1.479 -0.0145  0.2747  0.0670
  911SOL    HW1 2732   1.858   2.904   1.460 -3.0208 -3.8631 -1.5807
  911SOL    HW2 2733   1.732   2.844   1.552  0.8829 -0.4770 -0.9979
  912SOL     OW 2734   2.871   1.022   0.744 -0.2601  0.8465 -0.2737
  912SOL    HW1 2735   2.921   0.984   0.825 -0.1049 -0.9440 -0.5432
  912SOL    HW2 2736   2.801   1.102   0.764 -2.8495  0.9695  0.4931
  913SOL     OW 2737   2.624   1.275   1.572  0.2077 -0.0933 -0.3680
  913SOL    HW1 2738   2.638   1.174   1.567  1.8994  1.7073 -0.9818
  913SOL    HW2 2739   2.637   1.319   1.481  0.6195  3.1872  2.4526
  914SOL     OW 2740   2.812   0.606   1.182 -1.1327  0.2082 -0.3853
  914SOL    HW1 2741   2.793   0.523   1.235 -1.3007  1.3788 -0.0201
  914SOL    HW2 2742   2.742   0.680   1.182  0.8127 -0.2345  0.2758
  915SOL     OW 2743   1.185   0.773   0.894 -0.5270  0.2864  0.4697
  915SOL    HW1 2744   1.238   0.804   0.976 -2.9297  2.5411 -0.7760
  915SOL    HW2 2745   1.082   0.756   0.910 -2.7088  1.3255 -0.0403
  916SOL     OW 2746   0.628   0.105   0.636 -0.0441  0.2826 -0.6467
  916SOL    HW1 2747   0.697   0.165   0.692 -0.6223  0.7278 -0.4856
  916SOL    HW2 2748   0.588   0.158   0.552 -1.6254  1.9502 -0.8666
  917SOL     OW 2749   2.905   2.595   2.011  0.3625  0.0159 -0.2492
  917SOL    HW1 2750   2.810   2.606   1.988  1.4961 -0.8723 -0.3436
  917SOL    HW2 2751   2.961   2.665   1.963 -0.7231 -2.9416  0.8828
  918SOL     OW 2752   1.014   2.111   3.029 -0.1434  0.3577  0.0365
  918SOL    HW1 2753   1.000   2.199   3.078 -2.3617 -0.4841  0.4839
  918SOL    HW2 2754   1.083   2.115   2.952 -1.1942  2.0831 -1.7604
  919SOL     OW 2755   0.849   1.647   2.803  0.5603  0.1762 -0.1688
  919SOL    HW1 2756   0.883   1.743   2.793  2.4052  0.6518  1.3197
  919SOL    HW2 2757   0.833   1.596   2.715  0.6683  0.8495 -2.0526
  920SOL     OW 2758   1.329   1.801   2.491 -0.5197 -0.4402  0.4791
  920SOL    HW1 2759   1.417   1.777   2.440 -0.7560  2.0014  1.9041
  920SOL    HW2 2760   1.307   1.728   2.565 -2.4889  0.2520  0.0193
  921SOL     OW 2761   1.147   0.044   2.602  0.2750 -0.0890  0.1780
  921SOL    HW1 2762   1.125   0.052   2.497 -2.3553  0.5433 -1.7466
  921SOL    HW2 2763   1.062   0.038   2.659  3.0280 -1.5526 -1.0837
  922SOL     OW 2764   2.205   2.424   2.788 -0.2315 -0.0545 -0.1595
  922SOL    HW1 2765   2.217   2.316   2.787  0.7526  0.2230 -2.9612
  922SOL    HW2 2766   2.147   2.461   2.709 -4.6206  1.0554 -0.6619
  923SOL     OW 2767   1.238   2.735   0.272  0.3258  0.5271 -0.2309
  923SOL    HW1 2768   1.290   2.805   0.329  3.7119 -0.0537 -0.3337
  923SOL    HW2 2769   1.272   2.639   0.299  0.5711 -1.6610 -1.2727
  924SOL     OW 2770   2.944   1.704   0.152  0.0684 -0.1329 -0.1228
  924SOL    HW1 2771   2.847   1.665   0.120 -0.7429 -1.4974 -0.5909
  924SOL    HW2 2772   3.012   1.629   0.171  0.0065  0.1150  0.7780
  925SOL     OW 2773   0.036   2.843   1.510 -0.3095  0.4771 -0.6184
  925SOL    HW1 2774  -0.026   2.863   1.595 -0.6729 -1.9736  1.9520
  925SOL    HW2 2775  -0.004   2.772   1.447 -0.6690  2.4295  1.6285
  926SOL     OW 2776   1.280   2.800   1.307  0.2969  0.5221  0.0849
  926SOL    HW1 2777   1.320   2.774   1.217  0.0135  1.6019  1.3565
  926SOL    HW2 2778   1.327   2.879   1.355 -1.1319  1.3373 -0.8072
  927SOL     OW 2779   0.363   2.639   1.782  0.1898  0.5256 -0.0965
  927SOL    HW1 2780   0.330   2.566   1.715  1.6859 -0.6843 -0.7236
  927SOL    HW2 2781   0.300   2.723   1.783  0.4105  0.9269  1.1543
  928SOL     OW 2782   1.596   2.082   2.231 -0.3027 -0.3182 -0.2203
  928SOL    HW1 2783   1.603   2.155   2.159 -1.0051 -1.0920  1.6632
  928SOL    HW2 2784   1.502   2.042   2.234 -0.4483  0.3900 -0.8861
  929SOL     OW 2785   2.451   2.486   2.875 -0.2363  0.0713  0.1483
  929SOL    HW1 2786   2.349   2.459   2.869  0.6585 -0.2320 -0.7389
  929SOL    HW2 2787   2.499   2.461   2.789 -1.5205 -0.8476 -2.5131
  930SOL     OW 2788   2.183   2.060   1.117  0.1758 -0.3981 -0.1687
  930SOL    HW1 2789   2.158   2.029   1.212 -0.3580  0.6034  1.7928
  930SOL    HW2 2790   2.230   2.155   1.121  1.2546 -0.8412 -0.3820
  931SOL     OW 2791   0.481   1.680   2.590  0.3362  0.6768 -0.0422
  931SOL    HW1 2792   0.498   1.712   2.687 -0.6466  0.3915 -1.5779
  931SOL    HW2 2793   0.572   1.645   2.556 -0.4044  2.7476  1.9270
  932SOL     OW 2794   0.381   0.032   0.046  0.3416 -0.5360  0.1233
  932SOL    HW1 2795   0.449   0.101   0.014  1.7500  0.3514 -0.3690
  932SOL    HW2 2796   0.396  -0.058  -0.001 -1.3945 -0.0363 -0.0221
  933SOL     OW 2797   1.020   0.824   3.045 -0.0752  0.0667 -0.0597
  933SOL    HW1 2798   1.112   0.797   3.082 -1.0488  0.7389 -0.9307
  933SOL    HW2 2799   0.972   0.889   3.113 -0.7758  1.1123  0.3982
  934SOL     OW 2800   0.837   2.952   2.633 -1.0410  0.0841 -0.1277
  934SOL    HW1 2801   0.827   2.890   2.545 -0.2742  2.0687  1.0812
  934SOL    HW2 2802   0.870   2.895   2.713 -1.2061  0.9650  0.2558
  935SOL     OW 2803   0.033   0.557   0.810 -0.1815 -0.0201  0.4806
  935SOL    HW1 2804   0.003   0.499   0.730 -0.5393  3.8088  1.7399
  935SOL    HW2 2805  -0.046   0.617   0.845 -1.1115  2.6282  0.5410
  936SOL     OW 2806   1.121   2.859   0.062 -0.0071 -0.7066  0.5043
  936SOL    HW1 2807   1.198   2.898   0.003 -1.7539  0.5462  0.8942
  936SOL    HW2 2808   1.163   2.811   0.143  1.6943 -0.5332 -2.2528
  937SOL     OW 2809   1.961   2.617   2.056  0.6692  0.3094 -0.2771
  937SOL    HW1 2810   1.896   2.656   2.127  0.4227 -0.1255 -2.2912
  937SOL    HW2 2811   1.993   2.691   1.989  0.6594  1.7953 -1.2586
  938SOL     OW 2812   2.777   2.114   1.572  0.5233 -0.5093  0.3277
  938SOL    HW1 2813   2.731   2.206   1.596 -0.2074 -0.0572  1.9325
  938SOL    HW2 2814   2.864   2.105   1.629  3.3301 -0.3147  0.7132
  939SOL     OW 2815   2.830   1.140   2.477  0.4891  0.2758  0.5584
  939SOL    HW1 2816   2.906   1.106   2.414 -1.4096  0.9383 -1.2911
  939SOL    HW2 2817   2.835   1.098   2.571 -0.6893 -0.5293  0.9943
  940SOL     OW 2818   1.085   0.458   2.762 -0.0762 -0.0478 -0.3675
  940SOL    HW1 2819   1.148   0.376   2.768  0.9920 -1.5674  2.7618
  940SOL    HW2 2820   1.028   0.446   2.676  0.7819 -0.9395  1.5647
  941SOL     OW 2821   0.075   2.806   2.253 -0.2862 -0.1518 -0.4010
  941SOL    HW1 2822   0.126   2.725   2.216  0.5288  1.5688  1.5367
  941SOL    HW2 2823   0.135   2.875   2.296  0.2963 -1.3970  2.0389
  942SOL     OW 2824   0.097   0.082   2.496  0.0432  0.1697  1.0187
  942SOL    HW1 2825   0.169   0.097   2.573  0.5949 -0.3016 -0.0692
  942SOL    HW2 2826   0.086   0.165   2.433 -0.1914 -1.4361 -1.8803
  943SOL     OW 2827   2.118   1.711   2.362  0.2294 -0.2704  0.2004
  943SOL    HW1 2828   2.124   1.651   2.283 -0.2808  0.5784 -2.8045
  943SOL    HW2 2829   2.131   1.667   2.453 -0.7776  1.3213 -1.2697
  944SOL     OW 2830   2.171   2.349   1.548 -0.3184 -0.2076 -0.3003
  944SOL    HW1 2831   2.231   2.352   1.636  0.7674  3.0600 -1.9056
  944SOL    HW2 2832   2.091   2.283   1.556 -0.3353  0.6755 -0.6928
  945SOL     OW 2833   0.737   1.611   0.095 -0.5195 -0.5310 -0.3763
  945SOL    HW1 2834   0.664   1.593   0.028  0.7355  0.3250 -0.2226
  945SOL    HW2 2835   0.739   1.543   0.175 -1.8782 -0.9302 -0.2177
  946SOL     OW 2836   0.312   1.027   2.617 -0.1248 -0.1865  0.2817
  946SOL    HW1 2837   0.312   0.959   2.538 -0.7390 -0.3249 -0.7474
  946SOL    HW2 2838   0.388   1.095   2.605 -0.2746  2.1161  2.3508
  947SOL     OW 2839   1.468   0.512   3.049 -0.2185  0.2943  0.3340
  947SOL    HW1 2840   1.467   0.565   2.963  1.3356 -2.8644  0.3143
  947SOL    HW2 2841   1.376   0.476   3.080  0.8386 -0.7655 -2.4407
  948SOL     OW 2842   1.928   2.947   2.167 -0.0951  0.9787 -0.0182
  948SOL    HW1 2843   1.955   2.908   2.072 -0.3189  0.3175  0.0145
  948SOL    HW2 2844   1.940   2.881   2.243 -1.7687 -0.7482  2.2527
  949SOL     OW 2845   0.598   2.443   0.463  0.3153 -0.3180 -0.0332
  949SOL    HW1 2846   0.576   2.538   0.430 -1.0518 -1.7099  3.8275
  949SOL    HW2 2847   0.626   2.436   0.564  0.9546  0.1132  2.0363
  950SOL     OW 2848   0.185   2.199   2.940  0.4231 -0.5500  0.0484
  950SOL    HW1 2849   0.174   2.301   2.929  1.7107  0.9638  1.8360
  950SOL    HW2 2850   0.186   2.140   2.851  1.4455 -1.9516  2.2899
  951SOL     OW 2851   1.178   2.675   2.799 -0.5349 -0.2781  0.3864
  951SOL    HW1 2852   1.235   2.605   2.846 -1.8090  0.5871 -1.0215
  951SOL    HW2 2853   1.234   2.727   2.725 -0.0654  1.7632 -1.9458
  952SOL     OW 2854   0.091   1.609   0.434  1.0168  0.5715  0.4228
  952SOL    HW1 2855   0.115   1.690   0.494 -0.7384 -1.6765  2.0209
  952SOL    HW2 2856   0.096   1.524   0.496  1.3473 -0.5712  3.6960
  953SOL     OW 2857   2.546   1.746   0.281  0.1024 -0.3251  0.0734
  953SOL    HW1 2858   2.507   1.652   0.271  1.2180  1.6541  1.8716
  953SOL    HW2 2859   2.548   1.799   0.191  2.5189  1.6254 -2.4620
  954SOL     OW 2860   2.187   0.553   0.913 -0.6452  0.1912 -0.1336
  954SOL    HW1 2861   2.198   0.547   0.808 -0.9541  1.6126 -0.5987
  954SOL    HW2 2862   2.272   0.530   0.974 -1.1496  0.2975 -2.2265
  955SOL     OW 2863   0.137   2.567   1.395 -1.1584 -0.8266 -0.4011
  955SOL    HW1 2864   0.047   2.612   1.372  2.3134  0.9507 -1.1316
  955SOL    HW2 2865   0.219   2.623   1.358 -1.8537  0.3088 -1.1117
  956SOL     OW 2866   2.838   2.507   2.500  0.1554 -0.1677  0.2396
  956SOL    HW1 2867   2.837   2.403   2.492  0.1509 -0.0994  0.2059
  956SOL    HW2 2868   2.882   2.550   2.411  0.8443  0.1084 -0.9302
  957SOL     OW 2869   1.641   2.081   2.753  0.0286 -0.2480  0.2134
  957SOL    HW1 2870   1.642   1.991   2.808 -0.6238 -0.5199  1.6473
  957SOL    HW2 2871   1.698   2.084   2.669 -1.7508  1.1705 -1.2203
  958SOL     OW 2872   2.650   2.279   2.950  0.0432 -0.6151  0.1465
  958SOL    HW1 2873   2.573   2.343   2.917  0.2099  3.2820 -1.0083
  958SOL    HW2 2874   2.639   2.251   3.047  1.6508 -0.2795 -1.9689
  959SOL     OW 2875   0.356   2.773   0.153 -0.3058 -0.7390 -0.0202
  959SOL    HW1 2876   0.270   2.828   0.171 -2.6647  2.3953 -1.5940
  959SOL    HW2 2877   0.334   2.671   0.140 -1.6881  0.2836 -1.3545
  960SOL     OW 2878   1.956   0.475   1.926  0.2338 -0.4879  0.4852
  960SOL    HW1 2879   1.907   0.563   1.897  0.1977  0.1512  0.2891
  960SOL    HW2 2880   1.955   0.455   2.027  1.7341  0.3008 -2.6973
  961SOL     OW 2881   2.524   1.877   1.054  0.1747  0.0606 -0.0687
  961SOL    HW1 2882   2.506   1.953   0.989  0.0564 -2.0064 -0.7470
  961SOL    HW2 2883   2.483   1.887   1.150 -2.9870 -0.8185 -0.8546
  962SOL     OW 2884   1.280   0.859   0.053 -0.1765  0.2818  0.0706
  962SOL    HW1 2885   1.278   0.902  -0.035 -0.2196 -1.1992  1.5540
  962SOL    HW2 2886   1.258   0.925   0.130  1.2663 -0.0975  0.5299
  963SOL     OW 2887   2.285   2.578   1.794 -0.4548 -0.1937  0.3713
  963SOL    HW1 2888   2.254   2.487   1.828  2.1599  1.9506 -2.3108
  963SOL    HW2 2889   2.327   2.639   1.869 -0.4768  0.2585  1.3680
  964SOL     OW 2890   2.342   0.336   1.667  0.2433 -0.4506 -0.7870
  964SOL    HW1 2891   2.433   0.345   1.723 -1.1827  1.4105 -0.0546
  964SOL    HW2 2892   2.345   0.383   1.573  0.1735 -2.2142  1.8856
  965SOL     OW 2893   2.594   2.974   0.183  0.2245 -0.1868 -1.5430
  965SOL    HW1 2894   2.665   2.961   0.106 -0.4532 -1.0593 -2.4573
  965SOL    HW2 2895   2.501   3.010   0.147 -1.0031 -1.1630  0.3300
  966SOL     OW 2896   2.500   2.480   2.245 -0.3741  0.6092 -0.5728
  966SOL    HW1 2897   2.506   2.572   2.195  0.2543  0.2614  1.1675
  966SOL    HW2 2898   2.433   2.417   2.197  0.3124 -0.9078 -1.7190
  967SOL     OW 2899   2.761   2.867   2.464 -0.1915 -0.3814  0.1455
  967SOL    HW1 2900   2.784   2.791   2.394 -0.8582 -0.0064 -1.7831
  967SOL    HW2 2901   2.845   2.915   2.504  0.7790 -2.5736  0.9690
  968SOL     OW 2902   1.952   1.043   2.618 -0.3681  0.1705  0.0059
  968SOL    HW1 2903   1.871   1.097   2.590 -0.3722 -1.0455  2.6055
  968SOL    HW2 2904   1.953   0.958   2.559 -0.8624 -1.5500  0.7489
  969SOL     OW 2905   2.826   2.582   1.107  0.0287  0.0441  0.1359
  969SOL    HW1 2906   2.768   2.603   1.024  1.0444 -1.4654 -0.9843
  969SOL    HW2 2907   2.860   2.481   1.105  2.2406 -1.0380 -0.2181
  970SOL     OW 2908   1.144   2.086   1.862 -0.2117  0.3143  0.2725
  970SOL    HW1 2909   1.101   2.007   1.915 -1.3000 -3.1375 -1.0908
  970SOL    HW2 2910   1.070   2.133   1.810  0.5619  2.4748  2.9298
  971SOL     OW 2911   2.856   2.127   1.916 -0.5014 -1.1901  0.0580
  971SOL    HW1 2912   2.911   2.199   1.970 -0.6042 -1.4222 -0.9711
  971SOL    HW2 2913   2.912   2.088   1.836  0.4915  1.8673 -0.8190
  972SOL     OW 2914   1.930   2.469   0.228 -0.2080 -0.0661 -0.5590
  972SOL    HW1 2915   1.938   2.378   0.179 -1.1882  3.5166 -0.8522
  972SOL    HW2 2916   1.994   2.466   0.307 -1.2770  0.7358  2.1198
  973SOL     OW 2917   1.137   0.898   1.876  0.3933 -0.0333 -0.1309
  973SOL    HW1 2918   1.102   0.800   1.892  1.0779 -2.5946  0.6377
  973SOL    HW2 2919   1.066   0.964   1.837  2.0580  0.8050  0.4094
  974SOL     OW 2920   1.596   0.583   1.978 -0.0852  0.0925  0.0651
  974SOL    HW1 2921   1.674   0.639   1.937  1.5363  0.7572  1.4429
  974SOL    HW2 2922   1.510   0.640   1.975 -0.1531  2.5880  1.9279
  975SOL     OW 2923   2.399   3.028   3.086 -0.1458 -0.3810 -0.3349
  975SOL    HW1 2924   2.310   2.973   3.090 -0.6916  2.0109 -0.4858
  975SOL    HW2 2925   2.458   2.999   3.007  0.3454  1.6797  0.1469
  976SOL     OW 2926   1.937   2.693   2.325 -0.5249  0.4571  0.0450
  976SOL    HW1 2927   1.838   2.691   2.352 -1.1285 -0.5426 -0.5421
  976SOL    HW2 2928   2.002   2.731   2.398  0.4936 -1.6126  1.8323
  977SOL     OW 2929   0.456   0.709   1.013  0.4898  0.2428  0.2821
  977SOL    HW1 2930   0.403   0.702   0.926 -2.0684 -1.3219 -2.0641
  977SOL    HW2 2931   0.546   0.758   1.000  0.8132 -0.9237  0.1753
   3.10000   3.10000   3.10000
