1000 SPC/Fw water molecules t=   0.69000 step= 690
 2931
    1SOL     OW    1   2.477   0.381   2.607  0.0946  0.8649  0.1908
    1SOL    HW1    2   2.498   0.283   2.581 -0.1569 -0.5032  2.1951
    1SOL    HW2    3   2.535   0.405   2.688  2.6820  0.0384  0.5971
    2SOL     OW    4   2.736   3.041   1.406  0.2124 -0.4546  0.3019
    2SOL    HW1    5   2.760   3.073   1.313  0.8785 -0.4322  0.0572
    2SOL    HW2    6   2.729   3.123   1.472  1.4390  0.5287 -0.3277
    3SOL     OW    7   2.725   2.621   0.365 -0.0906  0.0548 -0.1314
    3SOL    HW1    8   2.690   2.523   0.377 -0.6551  1.3091 -0.3756
    3SOL    HW2    9   2.819   2.636   0.416  0.1606  0.0318  0.1770
    4SOL     OW   10   1.284   1.436   2.368  0.0003  0.3063  0.0998
    4SOL    HW1   11   1.191   1.490   2.354 -3.8782  2.1492 -1.9819
    4SOL    HW2   12   1.274   1.333   2.378  0.2922 -1.1052 -0.4494
    5SOL     OW   13   1.170   1.511   3.077  0.3093  0.4707 -0.0801
    5SOL    HW1   14   1.225   1.598   3.074 -2.1336  0.0601  0.6255
    5SOL    HW2   15   1.077   1.526   3.122 -0.6051 -0.5282  1.5926
    6SOL     OW   16   0.091   1.877   2.940 -0.0580  0.3780  0.0957
    6SOL    HW1   17   0.021   1.909   3.014 -0.3528  1.4234  1.8892
    6SOL    HW2   18   0.152   1.792   2.967 -0.0065  0.5264 -1.1753
    7SOL     OW   19   2.536   0.948   1.136  0.1873  0.1001 -0.0701
    7SOL    HW1   20   2.477   0.868   1.154  0.4992  3.2349  1.5937
    7SOL    HW2   21   2.570   0.948   1.035  1.1869  2.3164  0.8863
    8SOL     OW   22   0.405   0.574   1.533 -0.2727 -0.2419  0.2781
    8SOL    HW1   23   0.496   0.533   1.566 -0.9771  0.6505 -0.5260
    8SOL    HW2   24   0.383   0.547   1.434 -1.2574  2.3153 -1.2519
    9SOL     OW   25   1.155   0.899   2.329  0.5889 -0.2215  0.4024
    9SOL    HW1   26   1.243   0.938   2.285  2.7119 -1.7543  1.2184
    9SOL    HW2   27   1.098   0.847   2.257  0.4567  1.0879  2.2647
   10SOL     OW   28   0.627   1.347   1.294 -0.4097  0.4599  0.4409
   10SOL    HW1   29   0.535   1.359   1.253 -1.1335 -2.7353  1.7686
   10SOL    HW2   30   0.694   1.432   1.286  1.6114  0.5171  0.7928
   11SOL     OW   31   2.378   2.736   0.877 -0.2111 -0.2341 -0.3405
   11SOL    HW1   32   2.336   2.794   0.950  2.9125 -0.9174  1.3452
   11SOL    HW2   33   2.474   2.761   0.854 -0.0188  2.2776 -1.1374
   12SOL     OW   34   1.474   0.873   0.369 -0.0023  0.2170  0.1111
   12SOL    HW1   35   1.422   0.946   0.312 -2.1582 -0.2522  0.7848
   12SOL    HW2   36   1.496   0.791   0.303 -2.1318 -0.9913 -0.1633
   13SOL     OW   37   2.499   0.682   1.812 -0.5203 -0.0716 -0.2327
   13SOL    HW1   38   2.417   0.688   1.874  0.6061  1.5787  0.5841
   13SOL    HW2   39   2.478   0.667   1.710 -0.5804  0.0842 -2.3858
   14SOL     OW   40   1.945   0.088   0.726 -0.8142 -0.3444  0.2117
   14SOL    HW1   41   1.867   0.096   0.656 -0.4612  1.9100  0.8739
   14SOL    HW2   42   1.923   0.037   0.812 -1.4682 -0.3564 -2.3278
   15SOL     OW   43   1.952   2.022   2.744  0.3640  0.4528 -0.3889
   15SOL    HW1   44   1.901   2.113   2.746  0.9378  0.7746  0.3809
   15SOL    HW2   45   1.890   1.940   2.712 -1.5292  0.6740 -2.0640
   16SOL     OW   46   1.601   1.708   2.992 -0.2548 -0.4098 -1.1842
   16SOL    HW1   47   1.608   1.608   3.024  0.1940 -2.4144 -0.5024
   16SOL    HW2   48   1.692   1.755   3.017  0.0350  0.5296  2.0244
   17SOL     OW   49   0.117   0.529   0.159  0.4599  0.2440  0.2710
   17SOL    HW1   50   0.204   0.520   0.098  0.9491 -1.0109  0.9081
   17SOL    HW2   51   0.039   0.566   0.107  1.5252 -0.5064  2.2436
   18SOL     OW   52   0.932   2.993   2.099 -0.4350 -0.0917 -0.3492
   18SOL    HW1   53   0.855   2.920   2.104  1.1824 -2.5837  0.3910
   18SOL    HW2   54   0.996   2.985   2.023  1.9812 -1.1445 -0.5656
   19SOL     OW   55   0.518   0.821   1.901 -0.4338 -0.0766 -0.3150
   19SOL    HW1   56   0.552   0.825   1.996 -0.9382  0.2886  1.6363
   19SOL    HW2   57   0.603   0.824   1.841  0.3039  0.6401 -1.0291
   20SOL     OW   58   0.228   2.765   0.850 -0.0977 -0.4570 -0.6932
   20SOL    HW1   59   0.159   2.817   0.795 -0.0528  0.7543  0.8414
   20SOL    HW2   60   0.316   2.737   0.802 -0.2522 -2.3011 -0.5245
   21SOL     OW   61   2.775   0.187   2.086 -0.2442  0.4310  0.1050
   21SOL    HW1   62   2.713   0.124   2.034 -0.3496  0.5587 -0.0800
   21SOL    HW2   63   2.870   0.149   2.100  0.6369  1.9355  1.8127
   22SOL     OW   64   2.372   0.207   0.063  0.3297  0.0831 -0.2437
   22SOL    HW1   65   2.361   0.100   0.065  0.9397 -0.3176  3.1461
   22SOL    HW2   66   2.283   0.258   0.076 -0.7507  2.2428 -0.4839
   23SOL     OW   67   2.749   0.659   0.627  0.4018 -0.2945  0.0734
   23SOL    HW1   68   2.824   0.594   0.605 -1.8033  3.9928  0.6980
   23SOL    HW2   69   2.742   0.737   0.557 -0.6397 -0.2615  1.7759
   24SOL     OW   70   0.168   1.912   0.357 -0.1477 -0.5546 -0.2172
   24SOL    HW1   71   0.104   1.971   0.298 -0.2991  2.8409  1.2113
   24SOL    HW2   72   0.259   1.891   0.314 -0.3735 -4.2617  3.0718
   25SOL     OW   73   2.211   0.522   0.304 -0.2658  0.2978  0.0800
   25SOL    HW1   74   2.240   0.617   0.280 -2.7989  3.6470  2.0672
   25SOL    HW2   75   2.249   0.447   0.244 -0.0589 -0.5212  3.9385
   26SOL     OW   76   2.536   2.109   2.099  0.0924 -0.1564  0.2869
   26SOL    HW1   77   2.588   2.164   2.176  0.3436 -0.4403  1.6376
   26SOL    HW2   78   2.600   2.054   2.043 -0.7654  0.6172 -0.3433
   27SOL     OW   79   0.602   2.985   0.186 -0.0585  0.0798  0.1994
   27SOL    HW1   80   0.700   2.950   0.169 -0.4748 -0.3013  0.9348
   27SOL    HW2   81   0.550   2.970   0.096  1.1999  0.6770  0.0793
   28SOL     OW   82   1.573   0.175   0.302  0.6156  0.0465  0.4656
   28SOL    HW1   83   1.617   0.160   0.207  3.4773 -0.2594  1.2854
   28SOL    HW2   84   1.555   0.272   0.328  2.0274 -2.5806  1.5606
   29SOL     OW   85   1.967   0.554   0.397  0.0095  0.2164 -0.2205
   29SOL    HW1   86   1.979   0.655   0.420 -2.7487 -1.6090 -0.1016
   29SOL    HW2   87   2.063   0.515   0.373  3.1098 -0.1097  0.7372
   30SOL     OW   88   0.215   2.018   0.906  0.1382 -0.5164 -0.1412
   30SOL    HW1   89   0.193   2.012   0.808 -0.1967  0.7906 -0.1796
   30SOL    HW2   90   0.150   2.069   0.961  1.4046 -3.7590 -2.5344
   31SOL     OW   91   2.106   3.079   2.315  0.2432  0.1325  0.1594
   31SOL    HW1   92   2.097   3.109   2.416 -0.7995  1.5438 -0.8486
   31SOL    HW2   93   2.038   3.007   2.281 -0.0801 -2.2143  0.9478
   32SOL     OW   94   2.958   0.147   0.258  0.2827 -0.5231 -0.3191
   32SOL    HW1   95   2.911   0.078   0.316  0.0367 -2.2771  0.4478
   32SOL    HW2   96   3.052   0.165   0.288 -1.6873 -2.1083 -0.3848
   33SOL     OW   97   0.936   0.326   0.598 -0.1211 -0.2023  0.0727
   33SOL    HW1   98   0.918   0.230   0.564  0.5996 -1.7451  1.5744
   33SOL    HW2   99   1.044   0.341   0.604  2.7439  0.6121  1.0781
   34SOL     OW  100   0.313   2.827   1.081 -0.5432  0.2337 -0.2066
   34SOL    HW1  101   0.279   2.789   0.988  1.4938  0.3190 -0.2938
   34SOL    HW2  102   0.416   2.832   1.082  0.2709 -2.7799  0.5093
   35SOL     OW  103   3.097   0.210   1.831  0.1530 -0.4281  0.3444
   35SOL    HW1  104   3.142   0.124   1.874  2.3541 -0.3467  0.9672
   35SOL    HW2  105   3.053   0.193   1.736 -0.8529 -1.0897  0.2245
   36SOL     OW  106   1.973   1.122   1.809 -0.2607  0.8721 -0.3238
   36SOL    HW1  107   2.021   1.113   1.715  0.0863  0.4390 -4.4563
   36SOL    HW2  108   2.013   1.195   1.863  2.1538 -0.8347  0.2022
   37SOL     OW  109   1.197   0.151   0.882 -0.3729 -0.3128  0.0445
   37SOL    HW1  110   1.243   0.201   0.958 -1.8959 -1.3382  0.6687
   37SOL    HW2  111   1.261   0.096   0.825 -1.8896  0.6799  1.7561
   38SOL     OW  112   1.118   2.805   2.417  0.1864  0.5170  0.5004
   38SOL    HW1  113   1.068   2.716   2.441 -1.6708 -2.6118 -0.0235
   38SOL    HW2  114   1.063   2.890   2.427  2.2553 -1.0209 -0.4461
   39SOL     OW  115   2.318   1.413   3.044 -0.6524 -0.1225  0.1730
   39SOL    HW1  116   2.407   1.362   3.050 -1.1008  2.7896  2.8042
   39SOL    HW2  117   2.246   1.375   3.105 -1.2245  3.3153 -1.3063
   40SOL     OW  118   2.081   2.491   2.569 -0.0986 -0.0009 -0.2426
   40SOL    HW1  119   2.033   2.583   2.559 -3.2185 -1.4750 -2.1479
   40SOL    HW2  120   2.013   2.418   2.547  1.2462  2.2533  1.3981
   41SOL     OW  121   2.991   0.658   2.793  0.3368  0.2598  0.3974
   41SOL    HW1  122   2.922   0.725   2.829  1.3730 -0.8599  0.0772
   41SOL    HW2  123   2.952   0.562   2.774 -1.0384  4.3017  2.3116
   42SOL     OW  124   1.764   1.767   0.530  0.2274 -0.5037 -0.1450
   42SOL    HW1  125   1.749   1.662   0.525 -2.1107 -1.6357 -2.2061
   42SOL    HW2  126   1.810   1.803   0.439 -0.6420 -0.4797 -1.7723
   43SOL     OW  127   0.477   1.684   1.088  0.5828  0.3684  0.2020
   43SOL    HW1  128   0.483   1.582   1.075 -0.3168 -2.9241 -1.8544
   43SOL    HW2  129   0.379   1.718   1.074 -0.0218 -0.9146 -1.0099
   44SOL     OW  130   1.830   2.476   3.057  0.1912  0.0686  0.0975
   44SOL    HW1  131   1.826   2.535   2.972  0.8689 -0.1601 -2.5034
   44SOL    HW2  132   1.891   2.512   3.134  1.3407  2.4899  3.6994
   45SOL     OW  133   0.368   1.952   2.598  0.5403  0.4182 -0.4297
   45SOL    HW1  134   0.310   1.945   2.513  1.1761  1.6695  0.8131
   45SOL    HW2  135   0.433   1.873   2.615 -0.4315  4.3934  2.6351
   46SOL     OW  136   1.245   0.677   0.199  0.1415  0.0586  0.6738
   46SOL    HW1  137   1.292   0.751   0.149  1.8453 -0.8235  5.9274
   46SOL    HW2  138   1.152   0.708   0.232 -0.1207 -0.8238 -0.7116
   47SOL     OW  139   0.206   2.474   1.622  0.0415  0.4635 -0.0919
   47SOL    HW1  140   0.303   2.425   1.623 -0.8845 -1.6350 -0.4195
   47SOL    HW2  141   0.184   2.504   1.525  1.3615 -3.4387 -0.9568
   48SOL     OW  142   2.597   0.615   0.130 -0.1374  0.0804 -0.6065
   48SOL    HW1  143   2.572   0.622   0.227 -2.2489  1.8978 -1.1841
   48SOL    HW2  144   2.695   0.645   0.103  2.4235  0.1610  2.4567
   49SOL     OW  145   0.333   0.776   1.707  0.3185 -0.0667 -0.1705
   49SOL    HW1  146   0.410   0.793   1.779  1.1362 -0.4855  1.5615
   49SOL    HW2  147   0.358   0.701   1.636 -2.1490 -1.2930 -1.6209
   50SOL     OW  148   1.660   1.131   0.286  0.2415 -0.4191 -0.1167
   50SOL    HW1  149   1.670   1.040   0.247  0.9177 -1.3709 -1.4924
   50SOL    HW2  150   1.605   1.131   0.371 -1.0366 -1.9633 -0.4940
   51SOL     OW  151   2.894   1.851   0.365 -0.0746  0.5232 -0.7121
   51SOL    HW1  152   2.863   1.841   0.268  1.5544  1.5267  2.1915
   51SOL    HW2  153   2.922   1.762   0.413  1.3804 -0.5637 -0.6623
   52SOL     OW  154   0.793   2.001   0.479 -0.0093  0.4258 -0.1067
   52SOL    HW1  155   0.710   2.057   0.499  2.1290  1.2128 -0.4973
   52SOL    HW2  156   0.809   1.928   0.554  2.3210  1.2968  4.4198
   53SOL     OW  157   0.133   0.430   1.590  1.6241  0.0735  0.0035
   53SOL    HW1  158   0.169   0.471   1.674  1.8550 -0.2240  0.5544
   53SOL    HW2  159   0.049   0.475   1.552 -1.3713  0.3684  0.7788
   54SOL     OW  160   1.792   0.461   3.058  0.2009  0.1248 -0.0705
   54SOL    HW1  161   1.828   0.437   3.154 -1.5591 -0.4156  1.3971
   54SOL    HW2  162   1.693   0.436   3.052 -1.0456  0.7826  0.5010
   55SOL     OW  163   0.766   2.898   0.691 -0.3276 -0.3126  0.3152
   55SOL    HW1  164   0.717   2.979   0.657 -4.1586 -2.5317 -0.1943
   55SOL    HW2  165   0.868   2.898   0.685  0.5619 -1.7777  0.5647
   56SOL     OW  166   0.450   1.600   0.005 -0.0746  0.2704  0.6611
   56SOL    HW1  167   0.352   1.645   0.012 -1.6683  0.6684  0.0442
   56SOL    HW2  168   0.447   1.509  -0.040  1.4990  4.5274  2.8172
   57SOL     OW  169   1.783   2.525   2.578 -0.5344  0.3576 -0.7385
   57SOL    HW1  170   1.839   2.443   2.543  2.0913 -0.5206 -0.2597
   57SOL    HW2  171   1.685   2.511   2.606  3.5424 -1.8567  0.4882
   58SOL     OW  172   0.648   0.326   1.042 -0.1733 -0.3566  0.0350
   58SOL    HW1  173   0.574   0.375   0.995  1.3487 -1.1173 -1.1491
   58SOL    HW2  174   0.626   0.227   1.072 -2.0093 -2.3142 -2.1057
   59SOL     OW  175   0.433   2.412   2.779  0.0424  0.3250  0.2449
   59SOL    HW1  176   0.453   2.313   2.745 -0.0401 -0.8490  0.7133
   59SOL    HW2  177   0.506   2.441   2.848 -1.5553  1.8241 -3.3723
   60SOL     OW  178   2.286   2.042   2.199 -0.0545  0.0479 -0.1584
   60SOL    HW1  179   2.389   2.049   2.168  2.7314  0.3953 -1.4963
   60SOL    HW2  180   2.279   2.083   2.295 -3.0939  2.2907  2.1374
   61SOL     OW  181   1.317   0.616   0.468  0.6382  0.1836 -0.4066
   61SOL    HW1  182   1.253   0.678   0.527  0.2130  0.6866  0.1926
   61SOL    HW2  183   1.305   0.634   0.363  0.3868  1.4115 -1.9002
   62SOL     OW  184   2.741   1.789   2.922  1.0073  0.0620 -0.3194
   62SOL    HW1  185   2.718   1.692   2.902  0.4583  2.8482  2.3103
   62SOL    HW2  186   2.832   1.819   2.884  2.3080  0.9947 -0.7491
   63SOL     OW  187   0.620   0.898   0.166  0.2131  0.1094  0.4597
   63SOL    HW1  188   0.594   0.978   0.101  0.2609 -0.5602 -3.7211
   63SOL    HW2  189   0.707   0.913   0.228  2.4576 -1.3351  0.6503
   64SOL     OW  190   0.136   0.541   2.504  0.2296 -0.4349 -0.6365
   64SOL    HW1  191   0.186   0.525   2.592 -0.7807  0.2065 -1.4018
   64SOL    HW2  192   0.144   0.638   2.483  3.3302 -0.4671 -1.9660
   65SOL     OW  193   0.192   1.480   0.550 -0.1325  0.3446 -0.4672
   65SOL    HW1  194   0.237   1.541   0.625  2.1615 -1.7912  2.0356
   65SOL    HW2  195   0.257   1.417   0.496  1.8795 -1.4470  1.3157
   66SOL     OW  196   2.539   0.378   0.572  0.3105  0.6475 -0.2637
   66SOL    HW1  197   2.564   0.443   0.648  0.8569 -0.9364  0.3273
   66SOL    HW2  198   2.547   0.278   0.603 -0.6609 -2.3281  0.4933
   67SOL     OW  199   0.536   2.526   1.361 -0.2230  0.3207 -0.0806
   67SOL    HW1  200   0.576   2.513   1.456 -0.7075 -0.0990  0.9847
   67SOL    HW2  201   0.478   2.438   1.345  1.1388 -0.1390 -1.0330
   68SOL     OW  202   1.016   1.125   2.439 -0.5133  0.0154  0.1969
   68SOL    HW1  203   1.061   1.041   2.396 -0.8426 -0.0413 -0.2344
   68SOL    HW2  204   0.931   1.148   2.381 -0.2164 -3.2355 -2.4588
   69SOL     OW  205   0.753   2.774   2.209 -0.6408  0.2402 -0.4657
   69SOL    HW1  206   0.794   2.681   2.195  1.7689  1.7636 -0.9707
   69SOL    HW2  207   0.644   2.774   2.203 -1.5591 -5.1287 -0.3000
   70SOL     OW  208   0.567   0.311   2.712 -0.4997  0.0861 -0.1679
   70SOL    HW1  209   0.605   0.371   2.787  0.2489  3.1949 -0.8787
   70SOL    HW2  210   0.578   0.206   2.735  0.4495 -1.0224 -1.4082
   71SOL     OW  211   1.062   1.715   0.359  0.3594  0.0747  0.0414
   71SOL    HW1  212   0.984   1.648   0.386 -1.1988 -3.4065  0.1245
   71SOL    HW2  213   1.048   1.747   0.260 -0.5858  0.4784  1.6778
   72SOL     OW  214   1.809   0.178   2.119  0.0923  0.3814  0.4699
   72SOL    HW1  215   1.868   0.216   2.047  0.6715  1.1794  3.1303
   72SOL    HW2  216   1.800   0.073   2.118 -1.1785 -1.8416  0.1220
   73SOL     OW  217   2.835   2.134   2.424  0.4397  0.1827 -0.2625
   73SOL    HW1  218   2.824   2.029   2.390  0.1465  2.1943  0.2740
   73SOL    HW2  219   2.838   2.134   2.530 -1.4031  1.4959  2.8443
   74SOL     OW  220   2.710   2.898   2.091 -0.0144  0.1373  0.7410
   74SOL    HW1  221   2.638   2.918   2.155  1.2222 -0.7053  1.5470
   74SOL    HW2  222   2.799   2.940   2.118 -0.1271 -1.7886  0.8876
   75SOL     OW  223   0.924   0.751   1.087 -0.4961  0.5836  0.1932
   75SOL    HW1  224   0.839   0.794   1.056  1.6984 -1.8639  2.4952
   75SOL    HW2  225   0.981   0.813   1.147 -1.3019 -3.0972  1.0201
   76SOL     OW  226   1.663   1.272   2.530  0.1134 -0.5475 -0.4183
   76SOL    HW1  227   1.575   1.229   2.559  1.2716  0.8744 -2.3013
   76SOL    HW2  228   1.678   1.371   2.570 -1.9993 -1.7064  2.4629
   77SOL     OW  229   2.973   0.927   0.967  0.4113 -0.4264  0.3040
   77SOL    HW1  230   2.945   0.826   0.962 -1.3007 -0.5750 -0.6801
   77SOL    HW2  231   3.019   0.943   1.056  2.5951  0.3920  1.0258
   78SOL     OW  232   2.083   1.391   1.526  0.4514  0.3108  0.1350
   78SOL    HW1  233   2.176   1.396   1.477  0.4220 -1.2882 -0.7315
   78SOL    HW2  234   2.010   1.350   1.465  0.7365  2.5820  0.0120
   79SOL     OW  235   0.650   1.304   0.873 -0.0826 -0.5242  0.0592
   79SOL    HW1  236   0.557   1.349   0.892 -3.3171  0.0023 -1.7797
   79SOL    HW2  237   0.677   1.317   0.774  1.4296 -1.0251  1.6932
   80SOL     OW  238   0.648   0.466   1.594 -0.6074  0.6625 -1.0102
   80SOL    HW1  239   0.682   0.543   1.532 -1.2647  2.6860  2.4473
   80SOL    HW2  240   0.690   0.373   1.572  0.6555 -0.3944 -0.4445
   81SOL     OW  241   1.038   1.378   2.602  0.0980 -0.3860  0.0857
   81SOL    HW1  242   1.035   1.274   2.593  0.6764  0.4697  4.1282
   81SOL    HW2  243   0.975   1.422   2.527 -1.0566  0.3906 -3.5066
   82SOL     OW  244   0.961   2.939   1.484  0.8406 -0.0011 -0.0780
   82SOL    HW1  245   0.997   3.000   1.411  0.2011 -0.4153  0.4292
   82SOL    HW2  246   0.899   2.862   1.453  0.3096  0.9632 -2.4966
   83SOL     OW  247   2.733   2.506   0.861  0.5293 -0.0440  0.3427
   83SOL    HW1  248   2.658   2.445   0.827  0.8009  1.4950 -1.2782
   83SOL    HW2  249   2.711   2.607   0.831  1.7082 -1.1812 -0.8206
   84SOL     OW  250   0.680   3.053   2.333 -0.4434 -0.1465  0.3757
   84SOL    HW1  251   0.623   2.969   2.360  1.0744  0.6060  0.8573
   84SOL    HW2  252   0.784   3.036   2.348  2.5840 -1.8869 -0.4943
   85SOL     OW  253   0.326   1.580   1.514 -0.3510 -0.2031 -0.6939
   85SOL    HW1  254   0.264   1.664   1.536 -1.6651  1.7841 -0.2591
   85SOL    HW2  255   0.365   1.522   1.592 -1.7020 -2.4612  1.3276
   86SOL     OW  256   0.392   0.972   1.507  0.1023  0.2710 -0.0063
   86SOL    HW1  257   0.357   0.944   1.410 -1.9788  0.7780  0.8101
   86SOL    HW2  258   0.385   0.896   1.578  1.6058 -0.8725 -1.3453
   87SOL     OW  259   1.578   0.666   0.193  0.5275 -0.0379  0.2774
   87SOL    HW1  260   1.654   0.732   0.178  0.5949 -0.3832  0.4297
   87SOL    HW2  261   1.560   0.607   0.109  2.9261  2.5755  0.2355
   88SOL     OW  262   1.580   1.372   0.204  0.5305 -0.3617 -0.6423
   88SOL    HW1  263   1.614   1.276   0.224  3.6760  0.6309 -1.1108
   88SOL    HW2  264   1.484   1.390   0.242  1.2500  3.1116 -1.4663
   89SOL     OW  265   0.008   0.417   0.589  0.2712 -0.1390 -0.0362
   89SOL    HW1  266   0.075   0.338   0.593  1.4320 -1.0936  2.7407
   89SOL    HW2  267  -0.093   0.383   0.574  1.2275 -0.0969 -0.2569
   90SOL     OW  268   0.908   1.624   0.023 -0.5751 -0.0165 -0.0605
   90SOL    HW1  269   0.826   1.590   0.081 -0.1331 -2.2449 -0.7629
   90SOL    HW2  270   0.878   1.637  -0.075 -1.5489  1.4348  0.4796
   91SOL     OW  271   1.242   1.449   1.774 -0.5130  0.3383 -0.0288
   91SOL    HW1  272   1.240   1.524   1.842  0.2877  1.0431 -3.5122
   91SOL    HW2  273   1.342   1.427   1.755 -1.4401  0.1693 -1.5545
   92SOL     OW  274   0.027   0.934   1.206  0.5745  0.3784 -0.3161
   92SOL    HW1  275   0.081   1.019   1.184  2.3399  0.3866 -0.0267
   92SOL    HW2  276   0.019   0.915   1.310  1.1295  0.0597 -0.8980
   93SOL     OW  277   0.034   2.749   3.098  0.0954  0.3275 -0.1839
   93SOL    HW1  278  -0.038   2.739   3.025 -1.3618 -2.0490 -0.8303
   93SOL    HW2  279   0.056   2.656   3.137 -0.3992 -2.6410 -2.7381
   94SOL     OW  280   1.521   1.429   1.754 -0.1257 -0.3563 -0.2770
   94SOL    HW1  281   1.597   1.356   1.773  1.4032 -0.8815  2.1432
   94SOL    HW2  282   1.537   1.509   1.816  1.4330 -0.2561 -0.6797
   95SOL     OW  283   1.408   2.504   3.027 -0.1293 -0.3210 -0.0759
   95SOL    HW1  284   1.328   2.478   3.091 -1.5047 -1.2160  1.0161
   95SOL    HW2  285   1.426   2.432   2.953  1.0494  0.3736  0.9293
   96SOL     OW  286   0.558   2.097   1.328 -0.0855 -0.0300  0.1567
   96SOL    HW1  287   0.529   2.065   1.237  0.8040  1.4127 -0.5185
   96SOL    HW2  288   0.607   2.020   1.378  0.4291  0.4163  0.0789
   97SOL     OW  289   0.390   1.644   2.447 -0.3174  0.4391  0.1446
   97SOL    HW1  290   0.288   1.645   2.432  0.4894  1.4472  1.2285
   97SOL    HW2  291   0.418   1.676   2.541  0.3004 -0.8150  2.4438
   98SOL     OW  292   1.955   1.587   1.239  0.1286 -0.1869 -0.3124
   98SOL    HW1  293   1.887   1.552   1.306 -0.6011 -0.0177  1.4995
   98SOL    HW2  294   1.967   1.526   1.155 -1.7362 -0.4133 -0.0565
   99SOL     OW  295   2.459   2.124   1.383 -0.0365 -0.4824  0.4359
   99SOL    HW1  296   2.486   2.177   1.466 -0.8050 -1.4242  1.4887
   99SOL    HW2  297   2.427   2.028   1.402 -2.5089  0.0101  2.0275
  100SOL     OW  298   2.308   0.328   2.075  0.7629 -0.3115  0.2968
  100SOL    HW1  299   2.257   0.293   2.164  0.8016 -1.1460  0.8633
  100SOL    HW2  300   2.387   0.394   2.092 -1.5417  0.9304 -3.0681
  101SOL     OW  301   0.337   1.530   0.254 -0.0926 -0.0988  0.4446
  101SOL    HW1  302   0.384   1.508   0.347  0.6606 -0.0054  1.8761
  101SOL    HW2  303   0.403   1.526   0.171  0.1776  0.1707 -1.5662
  102SOL     OW  304   2.286   0.987   0.864 -0.1458 -0.1876  0.3055
  102SOL    HW1  305   2.201   0.933   0.858 -1.8817  0.5410  1.6539
  102SOL    HW2  306   2.299   1.060   0.788 -1.0037 -1.0821 -0.0489
  103SOL     OW  307   2.288   0.022   0.390 -0.0117  0.8439  0.0338
  103SOL    HW1  308   2.295   0.126   0.371 -1.4933 -0.7332 -3.1955
  103SOL    HW2  309   2.377  -0.005   0.433  1.7743 -0.2263 -0.5303
  104SOL     OW  310   0.107   1.777   2.178  0.4479  0.4050  0.3031
  104SOL    HW1  311   0.146   1.737   2.093 -2.6569  2.7220 -1.1155
  104SOL    HW2  312   0.001   1.790   2.173  0.1973 -1.7282 -1.4736
  105SOL     OW  313   1.271   2.119   0.777  0.0601  0.1720  0.2400
  105SOL    HW1  314   1.196   2.121   0.705 -2.5098 -0.2706  1.5212
  105SOL    HW2  315   1.310   2.023   0.791  0.0860 -1.2375 -0.1849
  106SOL     OW  316   2.152   0.487   1.408  0.1599 -0.8203  0.6145
  106SOL    HW1  317   2.074   0.428   1.447  0.2639 -1.7104  0.1037
  106SOL    HW2  318   2.170   0.574   1.466  0.8474 -0.4062  1.9509
  107SOL     OW  319   1.745   3.018   1.158 -0.4040  0.5392  0.0998
  107SOL    HW1  320   1.802   3.090   1.209 -1.0423  1.3074  1.6480
  107SOL    HW2  321   1.686   2.962   1.224  3.9951 -1.1769 -1.0451
  108SOL     OW  322   0.814   2.787   1.187 -0.4372 -0.0962  0.1130
  108SOL    HW1  323   0.785   2.764   1.283  1.2111  1.0105  1.1540
  108SOL    HW2  324   0.919   2.778   1.178  0.1175 -0.1749 -0.7347
  109SOL     OW  325   2.227   0.100   0.750  0.3493  0.3912 -0.3192
  109SOL    HW1  326   2.123   0.094   0.726 -0.0352 -2.7635  0.3342
  109SOL    HW2  327   2.245   0.095   0.855 -1.0943  0.6259  0.7312
  110SOL     OW  328   0.442   2.855   2.764  0.1834  0.0669 -0.1290
  110SOL    HW1  329   0.436   2.874   2.663 -0.7006  0.7109  2.2228
  110SOL    HW2  330   0.513   2.783   2.781 -0.5956 -0.9940 -1.5799
  111SOL     OW  331   1.313   0.499   2.288  0.3013  0.2182  0.2147
  111SOL    HW1  332   1.247   0.543   2.356 -0.2507 -0.6615  2.2469
  111SOL    HW2  333   1.374   0.426   2.337 -0.8602 -0.6136  1.2138
  112SOL     OW  334   1.701   0.535   1.487 -0.4556  0.8141 -0.2915
  112SOL    HW1  335   1.722   0.508   1.392  1.5374  2.2185  0.5753
  112SOL    HW2  336   1.675   0.457   1.551 -2.6691 -0.0653  1.1477
  113SOL     OW  337   2.249   1.662   1.779 -0.2370  0.5596 -0.3615
  113SOL    HW1  338   2.297   1.581   1.733 -2.9012 -1.1654  1.5855
  113SOL    HW2  339   2.289   1.672   1.873  0.0625 -0.8268 -0.6146
  114SOL     OW  340   0.380   0.505   1.244 -0.6138  0.7154 -0.0207
  114SOL    HW1  341   0.429   0.580   1.195  0.1988 -1.9662 -0.2732
  114SOL    HW2  342   0.314   0.462   1.181  0.6999 -0.5434 -0.2820
  115SOL     OW  343   2.801   1.619   1.303  0.4366 -0.7234 -0.1808
  115SOL    HW1  344   2.794   1.517   1.315  1.3620  0.8792  0.4596
  115SOL    HW2  345   2.805   1.646   1.200 -1.2691 -1.5228 -1.3491
  116SOL     OW  346   1.840   1.045   0.698 -0.0566  0.3236 -0.0147
  116SOL    HW1  347   1.762   1.004   0.638  1.6095 -1.2437 -1.8066
  116SOL    HW2  348   1.806   1.130   0.747 -1.3156  0.9183  1.9169
  117SOL     OW  349   1.192   0.410   0.692  0.0612  0.5639 -0.8751
  117SOL    HW1  350   1.153   0.409   0.785 -0.3413  0.3905  1.9383
  117SOL    HW2  351   1.237   0.497   0.657 -0.9306 -0.6416 -2.5785
  118SOL     OW  352   1.118   1.140   1.072  0.3689 -0.6567  0.6459
  118SOL    HW1  353   1.084   1.058   1.122 -0.8621  2.0477 -2.0990
  118SOL    HW2  354   1.151   1.215   1.145  1.5664  3.6366  0.7664
  119SOL     OW  355   1.830   1.611   2.132 -0.1092  0.7432  0.8281
  119SOL    HW1  356   1.813   1.707   2.155  0.0230 -2.7003 -2.1288
  119SOL    HW2  357   1.928   1.577   2.146 -0.8056 -1.2003  0.8691
  120SOL     OW  358   2.922   2.817   0.193  0.1840 -0.1127 -0.6561
  120SOL    HW1  359   3.007   2.795   0.136 -0.8488  0.1776  0.7106
  120SOL    HW2  360   2.832   2.780   0.152 -3.4806 -0.5609 -0.8865
  121SOL     OW  361   2.018   0.759   2.316 -0.2830 -0.1652 -0.4359
  121SOL    HW1  362   2.083   0.825   2.264  1.5800  1.6632 -0.4177
  121SOL    HW2  363   2.018   0.666   2.270  0.8542  0.8188  0.3987
  122SOL     OW  364   2.631   2.695   1.224 -0.1729  0.2355 -0.4392
  122SOL    HW1  365   2.686   2.617   1.186 -0.9191  2.4545  0.9966
  122SOL    HW2  366   2.563   2.733   1.153  0.7243 -0.2346  0.3752
  123SOL     OW  367   1.751   0.067   1.677  0.9390  0.2211  0.4066
  123SOL    HW1  368   1.783  -0.029   1.645  1.5377  0.7611 -0.7247
  123SOL    HW2  369   1.816   0.109   1.744 -0.7222 -2.3138 -0.1623
  124SOL     OW  370   0.124   0.426   1.085 -0.2446  0.6977 -0.4551
  124SOL    HW1  371   0.120   0.515   1.137 -1.2782 -3.7548 -3.7048
  124SOL    HW2  372   0.076   0.424   0.995 -0.7138 -2.0880 -0.8523
  125SOL     OW  373   0.834   1.848   0.687 -0.1642  0.2651  0.0254
  125SOL    HW1  374   0.917   1.792   0.704  0.4641  1.2132  0.1298
  125SOL    HW2  375   0.786   1.879   0.774  0.3825  0.8551  2.5671
  126SOL     OW  376   1.901   2.299   2.478 -0.0966 -0.4689 -0.1589
  126SOL    HW1  377   1.975   2.253   2.419 -0.0558  0.3333  1.0358
  126SOL    HW2  378   1.835   2.228   2.514 -0.9976 -0.7997 -1.1995
  127SOL     OW  379   0.870   0.873   0.292  0.5361 -0.2959 -0.1419
  127SOL    HW1  380   0.875   0.922   0.382  0.5407 -1.6986 -1.3826
  127SOL    HW2  381   0.917   0.780   0.303  0.9004  0.4782  0.8113
  128SOL     OW  382   0.952   0.248   1.379 -0.5028  0.5364  0.4894
  128SOL    HW1  383   0.925   0.330   1.309 -0.7755  1.6954 -0.6311
  128SOL    HW2  384   0.886   0.165   1.370 -0.1280 -2.5632 -1.9226
  129SOL     OW  385   1.829   0.729   1.888 -0.2927  0.2094  0.3858
  129SOL    HW1  386   1.854   0.737   1.786 -0.4739 -0.8541 -3.3280
  129SOL    HW2  387   1.865   0.803   1.947 -0.5632 -4.0056 -0.3122
  130SOL     OW  388   1.376   2.199   1.028 -0.0307 -0.6617  0.2617
  130SOL    HW1  389   1.321   2.193   0.939 -1.3594  0.5487  1.0187
  130SOL    HW2  390   1.458   2.266   1.021  0.6528  1.0730 -2.0574
  131SOL     OW  391   3.036   1.425   1.362 -0.0705 -0.0866 -0.5183
  131SOL    HW1  392   2.996   1.332   1.386 -0.9697 -2.2917  2.1022
  131SOL    HW2  393   3.139   1.421   1.372  1.0084 -1.5685  2.8899
  132SOL     OW  394   2.050   2.435   0.563  0.4300 -0.3297 -0.0462
  132SOL    HW1  395   1.950   2.452   0.532 -0.2554 -2.8180 -2.8207
  132SOL    HW2  396   2.055   2.367   0.638 -1.0437  2.5792 -0.4070
  133SOL     OW  397   1.883   2.298   2.772  0.1753  0.6734  0.2796
  133SOL    HW1  398   1.944   2.309   2.856  1.1766 -0.0984  2.6271
  133SOL    HW2  399   1.838   2.390   2.746 -0.5129  0.6319 -0.8131
  134SOL     OW  400   2.700   2.323   1.671 -0.1989 -0.2465  0.2741
  134SOL    HW1  401   2.650   2.313   1.761  0.0599  1.6124  0.7058
  134SOL    HW2  402   2.758   2.410   1.661  1.5052  0.2205  1.3662
  135SOL     OW  403   0.711   1.494   2.672  0.1091  0.0317  0.1019
  135SOL    HW1  404   0.673   1.397   2.692 -1.2841 -1.2953 -0.4264
  135SOL    HW2  405   0.785   1.483   2.600 -4.1899 -1.0786  4.2039
  136SOL     OW  406   1.190   1.954   0.440  0.3231  0.2544 -0.0211
  136SOL    HW1  407   1.139   2.019   0.506 -2.8680  1.4146 -0.3912
  136SOL    HW2  408   1.143   1.867   0.411 -0.2901  0.4082 -1.5785
  137SOL     OW  409   0.419   1.147   2.141  0.2368 -0.0042 -0.2382
  137SOL    HW1  410   0.332   1.139   2.199  1.2277  0.2991  2.2739
  137SOL    HW2  411   0.497   1.080   2.169  1.7037 -0.6794 -1.6856
  138SOL     OW  412   2.472   1.499   0.278 -0.8307 -0.0811 -0.2173
  138SOL    HW1  413   2.387   1.466   0.230 -1.2181  0.2748  1.6298
  138SOL    HW2  414   2.515   1.440   0.353 -0.1725  1.9372  1.7122
  139SOL     OW  415   1.853   2.647   1.306  1.1280 -0.0105  0.0562
  139SOL    HW1  416   1.763   2.653   1.256 -2.0764 -1.0034  1.2756
  139SOL    HW2  417   1.879   2.546   1.329 -1.3781 -3.5292  1.1896
  140SOL     OW  418   3.018   2.918   2.599  0.1105  0.8707 -0.3960
  140SOL    HW1  419   3.038   2.814   2.582 -2.0731  0.8019 -1.4770
  140SOL    HW2  420   3.103   2.978   2.622  1.4085  0.5508 -1.0811
  141SOL     OW  421   1.304   1.704   1.633  0.7251  0.3133  0.1949
  141SOL    HW1  422   1.206   1.742   1.643 -0.9093 -2.2978  0.1806
  141SOL    HW2  423   1.308   1.615   1.687  1.2159 -1.7480 -0.3684
  142SOL     OW  424   1.566   0.588   2.233  0.1208 -0.7018  0.3448
  142SOL    HW1  425   1.584   0.574   2.130 -0.2929 -1.7324  0.6277
  142SOL    HW2  426   1.468   0.585   2.257  1.5169  1.4067 -0.4672
  143SOL     OW  427   2.740   0.900   0.485 -0.2007 -0.0831 -0.0864
  143SOL    HW1  428   2.784   0.931   0.392  1.8321  0.0198 -1.2796
  143SOL    HW2  429   2.766   0.958   0.571  2.6487  0.4261 -1.2361
  144SOL     OW  430   2.926   1.180   1.462 -0.3682 -0.0306  0.3164
  144SOL    HW1  431   2.898   1.162   1.558 -2.4539  2.5766 -0.1891
  144SOL    HW2  432   2.983   1.104   1.426 -0.4003  1.0859  1.6713
  145SOL     OW  433   1.010   1.875   0.083  0.7244  0.4460  0.5155
  145SOL    HW1  434   1.028   1.951   0.013 -1.3479  1.4214 -0.8059
  145SOL    HW2  435   0.982   1.786   0.041 -0.2276  1.4921 -1.0448
  146SOL     OW  436   2.472   0.681   1.505  0.3965  0.0277 -0.2681
  146SOL    HW1  437   2.451   0.589   1.458 -1.9893 -1.0057  1.4675
  146SOL    HW2  438   2.422   0.760   1.467 -0.7021 -4.6833 -1.3734
  147SOL     OW  439   1.139   2.477   0.610  0.5501 -0.1582  0.1664
  147SOL    HW1  440   1.089   2.521   0.532  2.8636 -1.8684  1.9910
  147SOL    HW2  441   1.225   2.421   0.578 -1.5128  0.8031 -1.8000
  148SOL     OW  442   1.673   1.459   3.061  0.1152  0.0184 -0.2190
  148SOL    HW1  443   1.679   1.371   3.004 -0.5363  0.1402 -0.3576
  148SOL    HW2  444   1.634   1.450   3.158  0.3238 -2.4526  0.6879
  149SOL     OW  445   0.697   1.425   1.976 -0.3743  0.0184  0.2258
  149SOL    HW1  446   0.601   1.407   2.010  0.2521 -0.6408  1.3164
  149SOL    HW2  447   0.740   1.341   1.938 -0.6076  0.2165 -2.8864
  150SOL     OW  448   3.037   1.275   0.971 -0.1182 -0.1038 -0.0049
  150SOL    HW1  449   3.110   1.285   1.045  1.8202  1.0462 -0.3350
  150SOL    HW2  450   3.033   1.177   0.937  0.5716  0.9078 -1.8558
  151SOL     OW  451   0.234   0.743   2.126  0.0156 -0.3776 -0.0761
  151SOL    HW1  452   0.215   0.805   2.046  1.1441 -0.9025  1.2983
  151SOL    HW2  453   0.282   0.654   2.101  0.0426  0.4686  2.4113
  152SOL     OW  454   1.386   1.765   1.279 -0.1121 -0.4265 -0.1547
  152SOL    HW1  455   1.395   1.858   1.324  0.0927 -0.2051  0.7248
  152SOL    HW2  456   1.292   1.751   1.239  2.0473 -1.0665  1.7421
  153SOL     OW  457   3.065   1.523   0.171  0.4555  0.1362 -0.1623
  153SOL    HW1  458   3.063   1.423   0.201  0.8790 -0.2821  0.2774
  153SOL    HW2  459   3.081   1.583   0.256 -0.8935  0.2103  0.5628
  154SOL     OW  460   2.364   1.847   2.741  0.3408  0.7025 -0.3112
  154SOL    HW1  461   2.391   1.753   2.774  0.1945 -0.3420 -0.9713
  154SOL    HW2  462   2.435   1.887   2.680  0.1733  0.4301 -0.3055
  155SOL     OW  463   2.419   1.231   0.390  0.1695 -0.3326 -0.4860
  155SOL    HW1  464   2.520   1.217   0.355  0.5526 -2.0475  1.0872
  155SOL    HW2  465   2.350   1.192   0.323  0.2772  2.2968  0.1259
  156SOL     OW  466   2.572   0.974   0.869 -0.0105 -0.5829 -0.1074
  156SOL    HW1  467   2.468   0.992   0.866 -2.9080 -0.4896  1.0428
  156SOL    HW2  468   2.631   1.055   0.831  0.5301  2.3501  3.1692
  157SOL     OW  469   1.282   2.970   3.072  0.3505 -0.3540  0.0029
  157SOL    HW1  470   1.288   2.939   2.973  1.6382  1.3457  1.6983
  157SOL    HW2  471   1.323   3.067   3.076 -0.1069 -1.0196 -2.5324
  158SOL     OW  472   1.032   1.836   1.945  0.3125  0.2607 -0.3332
  158SOL    HW1  473   1.059   1.926   1.894 -0.6272  2.3585 -4.6575
  158SOL    HW2  474   0.951   1.852   2.010 -0.7760 -0.3620 -2.0238
  159SOL     OW  475   0.814   0.433   1.223 -0.1399 -0.3696 -0.4334
  159SOL    HW1  476   0.772   0.506   1.285 -2.0540 -0.2339  2.2173
  159SOL    HW2  477   0.747   0.390   1.159 -0.3074 -0.6818  1.3635
  160SOL     OW  478   1.397   2.338   1.634 -0.4924 -0.4111 -0.5882
  160SOL    HW1  479   1.441   2.381   1.719  0.1019 -2.7509 -0.7301
  160SOL    HW2  480   1.473   2.313   1.567  0.9215 -1.3691 -0.1008
  161SOL     OW  481   0.081   2.926   0.287 -0.2327  0.3563  0.0566
  161SOL    HW1  482  -0.015   2.900   0.286  0.7427  1.3484 -0.9380
  161SOL    HW2  483   0.099   3.000   0.213 -2.5276 -3.3199 -0.1664
  162SOL     OW  484   2.537   1.920   0.463 -0.7740  0.3037  0.1652
  162SOL    HW1  485   2.527   1.888   0.366  1.2662 -4.3106  0.6085
  162SOL    HW2  486   2.541   1.838   0.526 -0.0633 -2.3128  2.0016
  163SOL     OW  487   1.926   2.746   0.756 -0.8872  0.6569 -0.6356
  163SOL    HW1  488   1.916   2.774   0.658  1.2749  2.2261  0.5842
  163SOL    HW2  489   2.006   2.681   0.770  0.4079  1.9446 -0.1371
  164SOL     OW  490   3.074   0.211   1.185  0.7413  0.6186 -0.0339
  164SOL    HW1  491   3.149   0.275   1.149 -0.5982 -1.1842 -3.4222
  164SOL    HW2  492   3.097   0.150   1.266  1.3322 -1.5933 -3.9632
  165SOL     OW  493   0.921   1.417   0.689  0.5400 -0.4092  0.6788
  165SOL    HW1  494   0.890   1.492   0.760  0.8089  2.8441 -2.8972
  165SOL    HW2  495   0.905   1.442   0.588 -1.1613 -0.3339 -1.8292
  166SOL     OW  496   1.487   1.089   1.744  0.2855  0.2873  0.4145
  166SOL    HW1  497   1.432   1.055   1.824  0.0055 -0.3214  0.1771
  166SOL    HW2  498   1.569   1.145   1.767 -2.0544  3.3135 -1.1179
  167SOL     OW  499   0.724   1.916   1.455 -0.1936  0.7114 -0.5135
  167SOL    HW1  500   0.757   1.986   1.525  0.2800 -1.1126 -1.0777
  167SOL    HW2  501   0.682   1.829   1.498 -1.3593 -0.9141 -0.1194
  168SOL     OW  502   1.646   2.393   0.144 -0.1591 -0.2627  0.0307
  168SOL    HW1  503   1.712   2.416   0.069 -2.0754 -0.2341 -3.2421
  168SOL    HW2  504   1.679   2.329   0.221 -1.2445 -0.6428  2.8546
  169SOL     OW  505   0.162   2.553   2.222 -0.5328  0.2605 -0.2270
  169SOL    HW1  506   0.212   2.501   2.151  0.6926 -0.3788  1.5406
  169SOL    HW2  507   0.167   2.524   2.322 -0.4040  3.7475  0.3763
  170SOL     OW  508   1.163   0.238   1.997 -0.0281 -0.2744  0.1964
  170SOL    HW1  509   1.231   0.221   2.072 -1.1453  0.6759  0.3624
  170SOL    HW2  510   1.159   0.165   1.924  2.7484 -1.1561  0.0839
  171SOL     OW  511   0.217   0.804   2.387 -0.4581 -0.2236  0.9152
  171SOL    HW1  512   0.129   0.842   2.432  0.0549 -0.1489 -0.9138
  171SOL    HW2  513   0.210   0.800   2.281 -0.4079  1.6614  1.4517
  172SOL     OW  514   0.917   1.047   2.917 -0.4348 -0.4479 -0.0788
  172SOL    HW1  515   0.997   1.104   2.950  0.7113  0.4880 -2.8918
  172SOL    HW2  516   0.912   1.038   2.815 -2.3926 -1.0920  0.0281
  173SOL     OW  517   0.656   2.658   0.075 -0.4043  0.1013  0.2490
  173SOL    HW1  518   0.669   2.727  -0.003 -1.0089  1.4792 -2.4011
  173SOL    HW2  519   0.564   2.619   0.077 -1.7303 -1.2337  0.5954
  174SOL     OW  520   1.409   2.816   1.078  0.1996  0.2777  0.6260
  174SOL    HW1  521   1.382   2.888   1.004  1.2494  1.5640  0.4934
  174SOL    HW2  522   1.403   2.722   1.041  2.3317 -0.6030 -2.5221
  175SOL     OW  523   0.364   0.073   1.673  0.2556  0.7069  0.2309
  175SOL    HW1  524   0.456   0.093   1.714 -0.2443 -0.9342 -0.1881
  175SOL    HW2  525   0.348   0.114   1.579  1.2263  1.9850  0.5686
  176SOL     OW  526   2.568   0.382   3.086  0.3682  0.3306 -0.3137
  176SOL    HW1  527   2.579   0.468   3.143 -1.6087 -1.3338  1.0754
  176SOL    HW2  528   2.491   0.322   3.135 -1.9935 -2.8712  1.2130
  177SOL     OW  529   0.355   0.309   0.986  0.3373 -0.2188  0.5531
  177SOL    HW1  530   0.384   0.222   1.030 -1.1450 -1.0644 -0.9171
  177SOL    HW2  531   0.262   0.334   1.024 -0.6192  0.9552 -1.6385
  178SOL     OW  532   0.008   2.659   2.649 -0.8981 -0.5175 -0.2737
  178SOL    HW1  533  -0.082   2.628   2.686  0.2258  1.5878  1.7009
  178SOL    HW2  534   0.080   2.680   2.722 -0.7694  0.7123 -1.0463
  179SOL     OW  535   0.015   1.697   1.197  0.5036  0.3827 -0.0500
  179SOL    HW1  536  -0.058   1.768   1.179 -0.2491  0.9167 -0.4349
  179SOL    HW2  537  -0.031   1.606   1.233 -2.5852 -3.5527  1.1291
  180SOL     OW  538   0.235   1.194   1.857  0.0533 -0.1260 -0.4543
  180SOL    HW1  539   0.337   1.199   1.871  3.6549  1.0325 -0.5574
  180SOL    HW2  540   0.183   1.255   1.924  1.0975 -0.9480 -2.2735
  181SOL     OW  541   3.006   1.843   2.498  0.4238  0.3623 -0.0260
  181SOL    HW1  542   3.047   1.924   2.449 -2.1033 -0.1669 -3.0213
  181SOL    HW2  543   2.909   1.825   2.451 -1.2386  1.2571 -1.3123
  182SOL     OW  544   2.256   1.303   1.160 -0.4018  0.4438 -0.2252
  182SOL    HW1  545   2.193   1.264   1.086  0.1890 -3.3231  0.9750
  182SOL    HW2  546   2.302   1.393   1.135 -0.9815 -1.2189 -0.9229
  183SOL     OW  547   1.510   2.226   2.554 -0.2746 -0.2011 -0.3764
  183SOL    HW1  548   1.413   2.214   2.522  4.1763 -3.2690  0.0951
  183SOL    HW2  549   1.559   2.132   2.562  1.7363  0.4260 -0.6902
  184SOL     OW  550   2.055   0.880   0.761 -0.0719 -0.5932 -0.0610
  184SOL    HW1  551   1.978   0.942   0.730  1.3293  1.5409 -0.5869
  184SOL    HW2  552   2.019   0.800   0.821 -1.1583  0.1186  1.3907
  185SOL     OW  553   1.552   2.770   2.097  0.0316  0.3940  0.1757
  185SOL    HW1  554   1.524   2.861   2.053  0.0936 -0.4349  1.5881
  185SOL    HW2  555   1.505   2.765   2.190  0.4258 -0.3190 -0.1915
  186SOL     OW  556   0.082   2.219   1.678  0.7582 -0.1105 -0.5121
  186SOL    HW1  557   0.106   2.308   1.728  2.3881  1.7072  2.3634
  186SOL    HW2  558   0.163   2.156   1.672  2.4479  2.3597 -2.3398
  187SOL     OW  559   1.381   0.737   1.665 -0.4882  0.2837 -0.7000
  187SOL    HW1  560   1.455   0.792   1.613  2.5038 -0.8111  1.6896
  187SOL    HW2  561   1.398   0.752   1.767 -0.9906 -0.2609  0.3001
  188SOL     OW  562   2.774   2.752   1.462 -0.0451  0.1945  0.0460
  188SOL    HW1  563   2.778   2.857   1.452  2.6080  0.4867 -0.4107
  188SOL    HW2  564   2.723   2.712   1.380 -1.2657  0.7927  1.0492
  189SOL     OW  565   0.854   1.137   1.379  0.1478  0.4729  0.4768
  189SOL    HW1  566   0.941   1.179   1.419 -0.7065 -1.7280  0.2515
  189SOL    HW2  567   0.774   1.200   1.357  2.0231  0.6110  0.6126
  190SOL     OW  568   1.512   1.888   1.569 -0.6642 -0.0368 -0.1462
  190SOL    HW1  569   1.440   1.809   1.578 -1.1743 -1.1805 -1.5028
  190SOL    HW2  570   1.515   1.950   1.652 -1.6285  0.1115 -0.3010
  191SOL     OW  571   0.966   0.756   1.520 -0.8292  0.1021 -0.4022
  191SOL    HW1  572   1.043   0.684   1.531  0.0190 -0.4639  0.0336
  191SOL    HW2  573   1.011   0.852   1.526  0.2748  0.6098  2.9909
  192SOL     OW  574   1.866   2.207   1.135 -0.0962  0.5624 -0.1752
  192SOL    HW1  575   1.767   2.188   1.111 -0.6864  0.4479  0.7681
  192SOL    HW2  576   1.907   2.291   1.084  0.6389 -1.0546 -0.6110
  193SOL     OW  577   0.514   0.589   0.459  0.7582 -0.4073  0.0106
  193SOL    HW1  578   0.493   0.502   0.512 -2.6401 -2.0616  2.4640
  193SOL    HW2  579   0.562   0.575   0.368 -2.1671 -0.9400  0.6556
  194SOL     OW  580   0.304   0.862   1.273 -0.0463  0.2963  0.0905
  194SOL    HW1  581   0.267   0.766   1.265  0.1154  1.8085 -1.9258
  194SOL    HW2  582   0.295   0.922   1.187  2.1229  1.8689 -1.6165
  195SOL     OW  583   1.023   2.909   0.558  0.4169 -0.2493  0.8284
  195SOL    HW1  584   1.033   2.812   0.518 -0.4557 -2.0465 -3.7657
  195SOL    HW2  585   1.099   2.973   0.534  1.7671  1.2037 -1.7992
  196SOL     OW  586   0.215   1.385   1.368 -0.8821 -0.0154  0.2157
  196SOL    HW1  587   0.252   1.475   1.407 -0.7832  0.2487 -0.3824
  196SOL    HW2  588   0.218   1.309   1.442  0.0603  0.7196 -0.5000
  197SOL     OW  589   0.833   2.031   0.210 -0.1068  0.3853 -0.1216
  197SOL    HW1  590   0.826   2.021   0.316 -0.5004  4.3542 -0.1213
  197SOL    HW2  591   0.898   1.960   0.165 -0.2294 -1.3358  0.1003
  198SOL     OW  592   0.311   1.238   0.233  0.7318  0.0485 -0.3578
  198SOL    HW1  593   0.202   1.230   0.228 -3.4615  0.4358  0.9771
  198SOL    HW2  594   0.336   1.333   0.261 -0.4516 -0.0465  0.7190
  199SOL     OW  595   2.196   0.347   2.556 -0.4641  0.2983  0.0847
  199SOL    HW1  596   2.139   0.323   2.639 -0.6028 -1.9867  2.7202
  199SOL    HW2  597   2.294   0.375   2.577 -2.8715 -0.4537 -1.2637
  200SOL     OW  598   0.043   2.943   0.714  0.2008 -0.6019  0.5403
  200SOL    HW1  599  -0.017   2.934   0.631 -0.2534 -1.2376  2.0752
  200SOL    HW2  600   0.024   3.029   0.768 -1.0461 -2.7997 -1.0419
  201SOL     OW  601   1.108   0.732   0.629 -0.4481  0.0396  0.1006
  201SOL    HW1  602   1.111   0.811   0.695 -0.9164  0.6005 -1.1072
  201SOL    HW2  603   1.011   0.700   0.622 -0.1104 -1.6046  1.1390
  202SOL     OW  604   0.517   1.209   1.806 -0.0717 -0.0519  0.5250
  202SOL    HW1  605   0.500   1.186   1.701  0.0274 -1.6488 -0.4734
  202SOL    HW2  606   0.583   1.142   1.844 -0.5378 -0.0869 -2.5479
  203SOL     OW  607   0.692   0.207   1.554 -0.2235  0.3288  0.0967
  203SOL    HW1  608   0.728   0.139   1.479  0.0081 -0.4039  0.4924
  203SOL    HW2  609   0.744   0.193   1.643 -1.6408 -1.0645 -0.0342
  204SOL     OW  610   2.049   1.880   2.966  0.3343  0.1539 -0.1858
  204SOL    HW1  611   2.109   1.796   2.945 -1.0936  1.8038 -3.2107
  204SOL    HW2  612   2.009   1.923   2.880  2.9402 -1.0312 -2.6153
  205SOL     OW  613   1.804   1.868   0.006 -0.3041  0.6466 -0.3476
  205SOL    HW1  614   1.902   1.852  -0.032  1.1299  1.1900 -0.9678
  205SOL    HW2  615   1.765   1.962  -0.012  0.9348  1.2745 -0.7305
  206SOL     OW  616   2.508   2.775   0.355  0.3025 -0.0084 -0.0517
  206SOL    HW1  617   2.588   2.714   0.380 -0.2748  0.6880  0.7963
  206SOL    HW2  618   2.521   2.836   0.272 -3.0326 -0.5941  1.4833
  207SOL     OW  619   0.575   1.776   2.953  0.6594  0.2524  0.5043
  207SOL    HW1  620   0.661   1.734   2.913  0.6090  2.5867  3.0508
  207SOL    HW2  621   0.531   1.711   3.021  2.5614 -0.7074 -1.2736
  208SOL     OW  622   1.179   1.567   1.414 -0.1690  0.3833 -0.0774
  208SOL    HW1  623   1.185   1.620   1.323  0.8657  0.1586  2.7403
  208SOL    HW2  624   1.250   1.600   1.479  0.5968 -0.8217 -1.7058
  209SOL     OW  625   0.269   0.967   3.006 -0.1435 -0.4609 -0.1436
  209SOL    HW1  626   0.327   0.946   2.922  1.4272  1.4642  1.4452
  209SOL    HW2  627   0.261   0.891   3.075  1.5325 -1.6906 -2.0168
  210SOL     OW  628   1.765   0.486   1.223 -0.1698  0.4419 -0.2860
  210SOL    HW1  629   1.767   0.585   1.186  1.8168  1.1478  2.0354
  210SOL    HW2  630   1.856   0.439   1.222 -0.1555  0.7172  2.4255
  211SOL     OW  631   2.118   1.042   1.593  0.3430  0.4484 -0.0829
  211SOL    HW1  632   2.168   0.968   1.648 -1.2990 -2.3012 -1.1209
  211SOL    HW2  633   2.173   1.099   1.531 -0.0263  0.5345  1.9289
  212SOL     OW  634   0.022   0.988   1.480  0.2303 -0.1237 -0.0087
  212SOL    HW1  635   0.082   1.060   1.524 -0.0202 -2.5154 -0.1718
  212SOL    HW2  636   0.021   0.907   1.542 -4.3734  0.7918  1.2770
  213SOL     OW  637   2.765   0.390   0.338  0.0677 -0.3273  0.1166
  213SOL    HW1  638   2.819   0.312   0.289  1.0663 -0.4183  1.5059
  213SOL    HW2  639   2.686   0.441   0.299  1.1150  0.0226  2.8244
  214SOL     OW  640   2.154   0.251   2.290  0.2656 -0.2684  0.1458
  214SOL    HW1  641   2.182   0.292   2.381 -1.1637  3.6793 -0.3593
  214SOL    HW2  642   2.122   0.151   2.295 -1.0103 -1.0361  1.8592
  215SOL     OW  643   1.624   2.321   2.060 -0.1872 -0.2862  0.5069
  215SOL    HW1  644   1.721   2.352   2.062 -1.1172 -0.0684 -0.6050
  215SOL    HW2  645   1.558   2.372   2.126  0.1092 -0.7863  0.4747
  216SOL     OW  646   2.215   0.626   0.655 -0.2078  0.2230 -0.7285
  216SOL    HW1  647   2.201   0.533   0.611  1.2305 -0.2595 -1.7718
  216SOL    HW2  648   2.217   0.708   0.589 -0.7947  0.7142  1.7952
  217SOL     OW  649   0.732   2.766   2.485 -0.0322 -0.0185 -0.2508
  217SOL    HW1  650   0.723   2.664   2.509  2.1860 -1.2024 -0.8103
  217SOL    HW2  651   0.767   2.771   2.386 -0.5376  1.0092 -1.6946
  218SOL     OW  652   1.936   1.460   0.079 -0.0020  0.3579 -0.0811
  218SOL    HW1  653   1.846   1.507   0.045  0.2710 -2.2076  0.8452
  218SOL    HW2  654   1.919   1.356   0.088 -0.7849 -0.2769 -0.8771
  219SOL     OW  655   2.342   1.286   2.565  0.5110 -0.0338 -0.2007
  219SOL    HW1  656   2.354   1.233   2.476  1.4408  1.9961  0.1821
  219SOL    HW2  657   2.341   1.225   2.644 -0.0751 -1.5980 -2.2626
  220SOL     OW  658   1.518   1.019   1.295  0.1378  0.1730  0.7377
  220SOL    HW1  659   1.605   1.076   1.302  0.8495  3.7009 -2.4637
  220SOL    HW2  660   1.463   1.060   1.215 -1.0942  0.2272 -0.7784
  221SOL     OW  661   1.353   1.051   2.185 -0.6187 -0.7623  0.0519
  221SOL    HW1  662   1.300   1.065   2.098  0.3362  0.2433  0.0682
  221SOL    HW2  663   1.452   1.018   2.165  1.6885 -1.0289  0.5674
  222SOL     OW  664   1.200   0.035   1.184 -0.1860  0.1198  0.4332
  222SOL    HW1  665   1.287   0.017   1.237 -0.8519 -1.0226 -0.4183
  222SOL    HW2  666   1.177   0.135   1.179  1.7784  0.6931  1.1653
  223SOL     OW  667   2.776   0.858   2.036 -0.9745 -0.1737 -0.5978
  223SOL    HW1  668   2.788   0.875   2.136 -0.9053  0.2206  0.4248
  223SOL    HW2  669   2.852   0.906   1.984 -0.4353  0.2370 -0.8229
  224SOL     OW  670   1.543   1.008   2.747  0.6069  0.1495  0.0953
  224SOL    HW1  671   1.577   0.948   2.669  0.0575  2.4203 -0.7886
  224SOL    HW2  672   1.490   1.093   2.704 -0.8004 -0.3850 -1.0176
  225SOL     OW  673   2.937   2.793   2.902 -0.2810  0.2344  0.4556
  225SOL    HW1  674   2.903   2.708   2.852  0.5141  1.3670 -0.0145
  225SOL    HW2  675   3.006   2.839   2.844  0.4524 -2.3980 -1.9131
  226SOL     OW  676   2.390   1.586   2.832 -0.4559 -0.0531 -0.5633
  226SOL    HW1  677   2.419   1.528   2.753 -1.2467 -2.4928  0.3151
  226SOL    HW2  678   2.357   1.531   2.917  0.7825  0.4643  1.7765
  227SOL     OW  679   0.841   0.157   3.015  0.2232  0.2211 -0.4486
  227SOL    HW1  680   0.880   0.070   3.048 -3.1553  2.2593 -0.1610
  227SOL    HW2  681   0.826   0.156   2.914  3.6949 -0.8137  3.5094
  228SOL     OW  682   2.392   0.607   2.860 -0.5051 -0.3092 -0.3444
  228SOL    HW1  683   2.356   0.642   2.771  0.6697 -1.7457  0.2967
  228SOL    HW2  684   2.485   0.556   2.848  1.0021  0.8242 -1.1776
  229SOL     OW  685   0.614   0.488   1.905  0.1412 -0.4773 -0.0577
  229SOL    HW1  686   0.584   0.399   1.855 -1.5973 -0.0871  2.6006
  229SOL    HW2  687   0.654   0.559   1.836 -0.2482  0.4996  4.0611
  230SOL     OW  688   1.930   1.186   2.131  0.5363  0.1264  0.0939
  230SOL    HW1  689   2.013   1.203   2.074 -1.4449 -4.3223  0.4623
  230SOL    HW2  690   1.850   1.249   2.111 -3.0949 -2.9798  2.8621
  231SOL     OW  691   0.629   0.990   2.958  0.5022  0.1887  0.0512
  231SOL    HW1  692   0.728   1.031   2.948  0.9798 -1.0604  0.2654
  231SOL    HW2  693   0.559   1.065   2.979  2.0556  0.8921  0.6135
  232SOL     OW  694   2.443   0.019   2.787 -0.3648  0.5266  0.0111
  232SOL    HW1  695   2.493  -0.059   2.835  0.4166 -0.4333 -1.5644
  232SOL    HW2  696   2.498   0.052   2.707 -1.3454  0.7378  1.1132
  233SOL     OW  697   1.702   1.292   1.140  0.5390 -0.1736 -0.1465
  233SOL    HW1  698   1.737   1.298   1.047 -3.1562 -2.5161  1.8501
  233SOL    HW2  699   1.743   1.219   1.201  0.3345 -0.0546 -0.2943
  234SOL     OW  700   1.590   2.584   1.851  0.0374 -0.2742  0.5511
  234SOL    HW1  701   1.592   2.673   1.906  0.5554 -1.4771  2.2741
  234SOL    HW2  702   1.526   2.509   1.889  0.4056  1.1737  0.2126
  235SOL     OW  703   0.053   3.008   2.841  0.3456 -0.1570 -0.2171
  235SOL    HW1  704   0.118   3.092   2.836  0.5648  1.7184 -4.7789
  235SOL    HW2  705  -0.027   3.035   2.901  1.4992  2.6305  1.4606
  236SOL     OW  706   2.881   0.759   0.079  0.1527  0.3732 -0.1336
  236SOL    HW1  707   2.950   0.804   0.143 -1.9020 -0.3572  0.3793
  236SOL    HW2  708   2.926   0.683   0.019  3.2385  1.3634  3.0143
  237SOL     OW  709   1.474   1.707   0.999  0.5134 -0.0063 -0.9106
  237SOL    HW1  710   1.565   1.655   0.981  1.4072 -0.4900  0.4433
  237SOL    HW2  711   1.469   1.739   1.095  1.5966  0.5245 -0.5845
  238SOL     OW  712   1.780   1.278   0.863 -0.1599 -0.0158  0.3795
  238SOL    HW1  713   1.878   1.283   0.827  1.3703 -1.6578  2.2806
  238SOL    HW2  714   1.722   1.337   0.805  1.7347 -1.5404  0.7327
  239SOL     OW  715   2.028   0.235   2.758  0.7798 -0.0803  0.7479
  239SOL    HW1  716   2.094   0.216   2.830  1.0613  1.3109 -0.7211
  239SOL    HW2  717   1.950   0.292   2.790  1.6389 -1.3070  1.7349
  240SOL     OW  718   0.995   0.637   0.309 -0.0636  0.2923  0.0310
  240SOL    HW1  719   0.975   0.535   0.284 -2.2010  2.1461  2.3107
  240SOL    HW2  720   1.022   0.656   0.411 -2.1263 -0.1936  1.4700
  241SOL     OW  721   0.633   0.102   0.344  0.1951 -0.2574  1.1591
  241SOL    HW1  722   0.668   0.185   0.292  0.8061  1.3019 -0.4288
  241SOL    HW2  723   0.622   0.025   0.282  0.4563  4.9174  0.2760
  242SOL     OW  724   0.689   2.486   1.123 -0.4072 -0.0567 -0.1645
  242SOL    HW1  725   0.652   2.539   1.210 -0.7862  0.0004 -0.4415
  242SOL    HW2  726   0.783   2.516   1.089  0.1666 -0.7297 -1.4738
  243SOL     OW  727   1.114   0.589   2.486 -0.6336 -0.2114  0.3168
  243SOL    HW1  728   1.042   0.664   2.466 -1.8200 -3.3709  2.3874
  243SOL    HW2  729   1.073   0.506   2.524  0.8603  1.5833  0.6350
  244SOL     OW  730   2.782   1.889   2.355 -0.0093  0.2854 -0.1104
  244SOL    HW1  731   2.809   1.844   2.268 -1.0088 -1.2789 -0.6139
  244SOL    HW2  732   2.681   1.872   2.387 -1.7963  0.3657  1.1700
  245SOL     OW  733   2.454   0.653   2.196 -0.6908  0.0568 -0.0067
  245SOL    HW1  734   2.515   0.736   2.195  0.5221 -3.5047 -2.3978
  245SOL    HW2  735   2.512   0.567   2.191  2.1183 -2.2107 -0.7227
  246SOL     OW  736   0.226   2.926   1.662 -0.1949 -0.5473  0.3253
  246SOL    HW1  737   0.144   2.909   1.596 -1.8229 -1.0463  0.1414
  246SOL    HW2  738   0.270   3.019   1.647  1.0215 -0.8269  1.1895
  247SOL     OW  739   2.139   0.560   3.044  0.2466 -0.2635 -0.2838
  247SOL    HW1  740   2.231   0.575   2.989  0.2508  1.5289 -0.3342
  247SOL    HW2  741   2.116   0.642   3.107 -0.5201  1.9248  0.1729
  248SOL     OW  742   2.110   1.790   1.577 -0.2202  0.2009 -0.2624
  248SOL    HW1  743   2.191   1.743   1.626  2.0794 -0.3994 -0.8113
  248SOL    HW2  744   2.018   1.781   1.629  0.3047  0.2156 -0.7680
  249SOL     OW  745   1.966   1.908   1.938  0.2137  0.1044  0.0470
  249SOL    HW1  746   1.939   1.842   1.860 -0.0436 -0.8278 -2.0180
  249SOL    HW2  747   2.048   1.969   1.914  0.1457  1.1050 -0.0409
  250SOL     OW  748   1.111   0.755   1.908  0.0732 -0.2925 -0.1897
  250SOL    HW1  749   1.181   0.693   1.949  0.7423  0.0048  0.7957
  250SOL    HW2  750   1.074   0.725   1.817 -1.5080 -0.9083 -0.1181
  251SOL     OW  751   3.085   1.573   2.537  0.0362  0.3393  0.1136
  251SOL    HW1  752   3.068   1.676   2.559 -0.2038 -0.7193 -0.6829
  251SOL    HW2  753   2.994   1.517   2.552  2.4095 -2.1917  0.1941
  252SOL     OW  754   1.580   0.906   1.547  0.1052 -0.5072  0.1343
  252SOL    HW1  755   1.533   0.942   1.456 -1.0417 -0.8501  1.6290
  252SOL    HW2  756   1.583   0.980   1.620 -1.7765  1.8774 -0.6680
  253SOL     OW  757   0.867   1.523   0.425 -0.3404 -0.4152  0.6374
  253SOL    HW1  758   0.914   1.431   0.410 -0.5665 -1.0677 -0.9828
  253SOL    HW2  759   0.774   1.527   0.367  0.7248 -0.7080  0.9904
  254SOL     OW  760   2.090   2.123   1.580 -0.0312  0.3864  0.2380
  254SOL    HW1  761   2.067   2.079   1.486 -0.9217 -1.2722  0.3703
  254SOL    HW2  762   2.008   2.116   1.642 -1.8261  0.1920 -2.0293
  255SOL     OW  763   0.103   1.174   2.940  0.3244 -0.0519 -0.2610
  255SOL    HW1  764   0.149   1.263   2.907 -0.9893 -1.2228 -1.7766
  255SOL    HW2  765   0.169   1.101   2.968 -0.5602 -0.3805  2.8936
  256SOL     OW  766   2.759   1.373   1.759 -0.4836 -0.0629 -0.6611
  256SOL    HW1  767   2.681   1.425   1.804  0.6014  0.2953 -2.1206
  256SOL    HW2  768   2.737   1.271   1.743 -0.5560 -0.0068 -1.8368
  257SOL     OW  769   0.857   0.151   1.775 -0.0787  0.1311 -0.2838
  257SOL    HW1  770   0.909   0.233   1.738 -1.0863 -1.2287  0.1863
  257SOL    HW2  771   0.917   0.067   1.781 -1.8240  3.6031  2.3925
  258SOL     OW  772   2.931   1.300   0.436 -0.4475 -0.1434  0.4130
  258SOL    HW1  773   2.888   1.394   0.425 -1.5049  1.4878 -1.6288
  258SOL    HW2  774   2.995   1.285   0.521 -2.5742 -0.5746 -0.0076
  259SOL     OW  775   0.485   2.944   3.033 -0.5527  0.0783  0.1702
  259SOL    HW1  776   0.419   2.874   3.074 -1.5651 -1.3275  0.4208
  259SOL    HW2  777   0.517   2.917   2.935 -0.3929  1.9092  0.7427
  260SOL     OW  778   2.715   0.827   2.738  0.5436  0.1367  0.2907
  260SOL    HW1  779   2.610   0.833   2.711 -1.3650  0.2344  2.1517
  260SOL    HW2  780   2.760   0.919   2.767 -1.0173 -0.2583  3.6687
  261SOL     OW  781   2.729   1.345   1.327 -0.0008 -0.5652 -0.8070
  261SOL    HW1  782   2.661   1.304   1.266  1.0660 -2.9915 -0.1798
  261SOL    HW2  783   2.797   1.276   1.365 -1.2281 -0.2299  0.3731
  262SOL     OW  784   1.450   2.992   1.996 -0.3606  0.1772  0.3041
  262SOL    HW1  785   1.478   3.067   1.924  0.8101 -0.9115 -2.3485
  262SOL    HW2  786   1.365   2.939   1.969 -0.5097 -0.0355 -0.0443
  263SOL     OW  787   0.847   0.716   2.346 -0.2506  0.1327  0.5560
  263SOL    HW1  788   0.817   0.631   2.291  3.0943  2.7533 -2.1213
  263SOL    HW2  789   0.889   0.790   2.288 -1.1638 -1.2302 -0.0095
  264SOL     OW  790   2.222   0.808   0.303 -0.4634  0.1166 -0.4021
  264SOL    HW1  791   2.137   0.833   0.348  0.8926  2.9265  0.2952
  264SOL    HW2  792   2.309   0.845   0.334 -1.3725 -3.4916 -0.3314
  265SOL     OW  793   0.909   2.273   2.657 -0.2639 -0.0981  0.0838
  265SOL    HW1  794   0.931   2.323   2.749 -0.3169  0.4228  2.2496
  265SOL    HW2  795   0.873   2.178   2.674 -1.4605 -1.6573  1.0777
  266SOL     OW  796   1.344   1.740   3.084 -0.7934 -0.0458  0.5565
  266SOL    HW1  797   1.318   1.804   3.161  1.0975  0.0139  2.2197
  266SOL    HW2  798   1.448   1.727   3.067  1.2823 -1.3783  1.2998
  267SOL     OW  799   0.977   3.060   2.367 -0.4469 -0.3257 -0.1290
  267SOL    HW1  800   0.997   3.028   2.270 -0.5495  1.4686  1.2072
  267SOL    HW2  801   0.931   3.155   2.366  0.3653  0.1102  0.4604
  268SOL     OW  802   0.683   1.135   1.073  0.3769  0.0831  0.0608
  268SOL    HW1  803   0.668   1.192   1.158  1.0941 -0.6717 -2.5144
  268SOL    HW2  804   0.701   1.190   0.988 -0.2356  0.1224 -1.4752
  269SOL     OW  805   2.398   2.469   1.541 -0.5106  0.2228 -0.0132
  269SOL    HW1  806   2.500   2.450   1.528  0.0349 -2.0687 -2.4348
  269SOL    HW2  807   2.373   2.479   1.641 -1.5670  0.0071  0.1505
  270SOL     OW  808   0.132   3.048   1.902  0.0224 -0.2988 -0.1933
  270SOL    HW1  809   0.208   3.032   1.835  1.5087  0.5531  1.2037
  270SOL    HW2  810   0.071   2.964   1.918 -0.0727 -1.5214 -1.0402
  271SOL     OW  811   0.414   1.417   1.152  0.1364 -0.3735 -0.2271
  271SOL    HW1  812   0.393   1.414   1.049 -0.2464 -3.1216 -3.2023
  271SOL    HW2  813   0.326   1.419   1.208 -0.2661  0.1571  1.5563
  272SOL     OW  814   1.974   2.886   1.904  0.1718  0.0722 -0.3950
  272SOL    HW1  815   1.934   2.828   1.829  0.5114  2.3813 -1.3925
  272SOL    HW2  816   2.044   2.955   1.880  3.5563  0.4944 -1.4748
  273SOL     OW  817   1.444   1.452   2.810  0.4270  0.5402 -0.5958
  273SOL    HW1  818   1.357   1.504   2.813  2.9267  0.0353  0.8910
  273SOL    HW2  819   1.488   1.447   2.902 -0.9172 -1.5702 -0.0756
  274SOL     OW  820   1.243   0.515   2.000  0.6387 -0.3566 -0.1807
  274SOL    HW1  821   1.198   0.427   1.980 -1.3080  1.7611 -2.0394
  274SOL    HW2  822   1.276   0.514   2.102  1.3222  0.8238 -0.6534
  275SOL     OW  823   0.645   2.078   1.869 -0.1181 -0.4575  0.0305
  275SOL    HW1  824   0.598   2.161   1.912 -1.5086  2.3176  0.5499
  275SOL    HW2  825   0.582   1.997   1.890  1.1654 -0.9064 -0.4503
  276SOL     OW  826   2.147   0.925   2.802 -0.0820  0.1625 -0.2568
  276SOL    HW1  827   2.068   0.938   2.735  0.9723 -2.5797 -1.1255
  276SOL    HW2  828   2.127   0.858   2.876 -1.7464 -0.6201  0.8167
  277SOL     OW  829   0.001   0.866   0.276 -0.2166 -0.4549  0.0167
  277SOL    HW1  830   0.104   0.874   0.260  1.4188 -0.2790  0.2463
  277SOL    HW2  831  -0.009   0.801   0.356  0.4403 -0.3256  0.5908
  278SOL     OW  832   0.249   0.282   3.069 -0.0586  0.1693  0.2635
  278SOL    HW1  833   0.333   0.215   3.081  2.8310  0.4315 -0.0465
  278SOL    HW2  834   0.272   0.381   3.052  1.6099  0.7229 -1.2099
  279SOL     OW  835   0.143   0.093   0.902  0.4161  0.2571  0.7684
  279SOL    HW1  836   0.202   0.069   0.985  0.0466  0.5780  1.1559
  279SOL    HW2  837   0.195   0.091   0.814 -2.3582  2.6402  0.0585
  280SOL     OW  838   1.572   2.904   2.544 -0.5964  0.4675 -0.2163
  280SOL    HW1  839   1.636   2.986   2.559 -2.3864  0.2725 -2.0333
  280SOL    HW2  840   1.471   2.939   2.548 -0.6127  1.0068 -3.2202
  281SOL     OW  841   0.610   0.934   2.263  0.1651 -0.4447  0.0943
  281SOL    HW1  842   0.615   0.842   2.216  3.8780  1.1501  1.4518
  281SOL    HW2  843   0.561   0.930   2.352  1.6287 -1.6997  0.3087
  282SOL     OW  844   1.756   2.419   0.506 -0.1614  0.6257  0.2972
  282SOL    HW1  845   1.738   2.337   0.438 -0.0983  1.6683 -2.8009
  282SOL    HW2  846   1.715   2.516   0.486  2.2235  1.8191  0.9323
  283SOL     OW  847   1.133   0.921   0.845  0.0153 -0.1595 -0.0055
  283SOL    HW1  848   1.172   0.844   0.909  0.8091 -0.3577 -0.8649
  283SOL    HW2  849   1.066   0.985   0.895  0.4866  0.5967  0.9367
  284SOL     OW  850   2.353   2.761   2.343  0.3400 -0.4132  0.3741
  284SOL    HW1  851   2.419   2.826   2.287 -2.5172  0.4176 -1.2679
  284SOL    HW2  852   2.342   2.797   2.437 -0.7817  0.2395  2.9588
  285SOL     OW  853   1.362   3.053   2.549 -0.0056 -0.2963  0.0264
  285SOL    HW1  854   1.365   3.061   2.441 -0.6995 -3.2739  0.7464
  285SOL    HW2  855   1.276   3.100   2.584 -1.8484  1.7589  1.3342
  286SOL     OW  856   0.460   0.413   0.765  0.0550 -0.1590 -0.2065
  286SOL    HW1  857   0.428   0.355   0.843  2.2721  1.2268  0.8247
  286SOL    HW2  858   0.461   0.361   0.678  0.9989  0.8017 -0.5207
  287SOL     OW  859   0.122   1.326   2.537 -0.0893 -0.2402 -0.2436
  287SOL    HW1  860   0.061   1.261   2.592 -1.5780  0.3364  0.0614
  287SOL    HW2  861   0.093   1.422   2.544 -0.3816  0.7322  3.6140
  288SOL     OW  862   1.558   2.672   1.596  0.3447  0.0895 -1.1046
  288SOL    HW1  863   1.569   2.640   1.699 -2.0582 -0.0600  4.0110
  288SOL    HW2  864   1.622   2.625   1.530  1.0911  0.8017  3.0489
  289SOL     OW  865   0.601   2.735   0.812 -0.5694  0.7472 -0.4959
  289SOL    HW1  866   0.667   2.798   0.767  1.2239  0.7621  1.2820
  289SOL    HW2  867   0.569   2.773   0.905 -0.7822 -1.4826 -0.8684
  290SOL     OW  868   2.824   1.079   1.712  0.1967  0.4894  0.0739
  290SOL    HW1  869   2.724   1.064   1.735 -0.3909 -0.2605 -2.3567
  290SOL    HW2  870   2.891   1.025   1.776 -1.8610 -3.1034  2.2622
  291SOL     OW  871   1.956   0.080   0.063  0.2505  0.3298  0.3558
  291SOL    HW1  872   1.981   0.072   0.164 -2.5192 -1.7699 -1.2085
  291SOL    HW2  873   2.030   0.139   0.016  0.0924  1.2196  1.3484
  292SOL     OW  874   2.977   1.210   3.082 -0.1121 -0.6012 -0.1585
  292SOL    HW1  875   2.899   1.247   3.030  0.3002 -2.3508  2.0180
  292SOL    HW2  876   3.066   1.199   3.032  0.3201  1.9565  0.4560
  293SOL     OW  877   0.555   2.119   0.156  0.3946  0.2275 -0.2903
  293SOL    HW1  878   0.523   2.199   0.214  0.0607 -0.8347 -2.7958
  293SOL    HW2  879   0.640   2.071   0.204  3.2054  2.2130  2.3282
  294SOL     OW  880   1.754   2.244   1.759  0.2155  0.4410 -0.4103
  294SOL    HW1  881   1.775   2.315   1.831  1.6412 -1.4709  1.5637
  294SOL    HW2  882   1.733   2.283   1.669 -2.6765 -1.6997  0.8184
  295SOL     OW  883   1.027   1.041   0.515 -0.8923  0.2168  0.0591
  295SOL    HW1  884   1.127   1.024   0.537  2.2089 -2.1447  0.1817
  295SOL    HW2  885   0.963   1.031   0.600 -2.3576  0.1647 -0.6308
  296SOL     OW  886   1.269   2.105   2.523 -0.1921  0.6370  0.0673
  296SOL    HW1  887   1.222   2.130   2.432 -0.4808  1.5619 -1.0848
  296SOL    HW2  888   1.275   2.006   2.543  1.2214  0.1063  0.5868
  297SOL     OW  889   1.461   0.596   1.393  0.3280 -0.5148  0.0177
  297SOL    HW1  890   1.426   0.502   1.422 -1.9327 -2.2569 -0.6162
  297SOL    HW2  891   1.561   0.601   1.422 -0.7736  0.1546 -0.2520
  298SOL     OW  892   0.497   1.357   2.954 -0.5246  0.7122  0.4173
  298SOL    HW1  893   0.504   1.289   3.030 -1.9294  2.6656  0.5941
  298SOL    HW2  894   0.568   1.334   2.876 -1.9261  2.8943 -1.8832
  299SOL     OW  895   0.503   0.254   1.368  0.3118 -0.8417  0.3015
  299SOL    HW1  896   0.525   0.351   1.358 -0.8337 -0.2654  3.5755
  299SOL    HW2  897   0.551   0.217   1.454  1.9131  2.1386  1.4678
  300SOL     OW  898   1.212   1.833   2.856 -0.3373  0.2353 -0.1720
  300SOL    HW1  899   1.186   1.733   2.823  0.1329 -2.6372 -2.3044
  300SOL    HW2  900   1.309   1.837   2.894  1.7460  0.8077 -2.4487
  301SOL     OW  901   0.478   0.267   0.520  0.0486  0.1817  0.0659
  301SOL    HW1  902   0.383   0.230   0.545 -0.8015  1.1088  1.4384
  301SOL    HW2  903   0.533   0.222   0.444  2.1344 -0.6653  2.5261
  302SOL     OW  904   1.220   2.399   2.298 -0.1390 -0.6546  0.7240
  302SOL    HW1  905   1.151   2.436   2.363  0.0224 -0.2931 -4.0679
  302SOL    HW2  906   1.205   2.298   2.268 -2.5144 -2.8019  0.7505
  303SOL     OW  907   0.972   2.338   0.833 -0.1007 -0.4072 -0.0088
  303SOL    HW1  908   1.012   2.391   0.751 -1.6366  1.0560  0.7762
  303SOL    HW2  909   0.974   2.401   0.917 -1.4099  1.5840 -2.3119
  304SOL     OW  910   0.151   2.036   0.638 -0.3391 -0.2063  0.4260
  304SOL    HW1  911   0.201   1.995   0.556  2.3349 -0.2782 -0.4813
  304SOL    HW2  912   0.090   2.114   0.604  2.3761  1.6548 -1.3849
  305SOL     OW  913   1.627   0.931   0.575  0.8993 -0.1951  0.0693
  305SOL    HW1  914   1.562   0.903   0.497  0.6410  0.6986  0.0631
  305SOL    HW2  915   1.664   0.845   0.629 -0.6967 -3.6461 -1.9664
  306SOL     OW  916   0.437   1.877   1.920  0.3171  0.2244  0.8141
  306SOL    HW1  917   0.497   1.797   1.881 -0.9467 -0.8441 -0.5743
  306SOL    HW2  918   0.424   1.866   2.026 -0.2380  0.1115 -0.8469
  307SOL     OW  919   3.070   0.909   2.524  0.4911  0.3277 -0.2716
  307SOL    HW1  920   3.090   0.989   2.585 -0.5650 -0.8694  2.9112
  307SOL    HW2  921   3.003   0.841   2.558  0.1169  2.2395  0.0260
  308SOL     OW  922   1.548   2.675   2.853  0.2250 -0.1902 -0.6491
  308SOL    HW1  923   1.537   2.610   2.769 -0.5216 -0.3193 -0.1360
  308SOL    HW2  924   1.506   2.638   2.937 -1.5487  0.6950  1.1542
  309SOL     OW  925   1.220   0.068   1.765 -0.4471 -0.0849 -0.1223
  309SOL    HW1  926   1.322   0.054   1.779  0.7467 -0.0021  0.0040
  309SOL    HW2  927   1.205   0.099   1.667  0.8483 -0.1806 -1.2027
  310SOL     OW  928   1.504   2.556   0.670  0.1626 -0.4245 -0.7242
  310SOL    HW1  929   1.464   2.577   0.765 -1.9863 -0.6570  0.1569
  310SOL    HW2  930   1.576   2.625   0.639  0.0181  4.0496  0.3364
  311SOL     OW  931   1.167   0.941   1.579 -0.4800  0.0827 -0.0570
  311SOL    HW1  932   1.240   0.888   1.638  0.5978  0.7072  1.0538
  311SOL    HW2  933   1.210   1.017   1.524  0.3544 -0.2660  0.3564
  312SOL     OW  934   1.629   0.668   0.974  0.6117  0.1868  0.0625
  312SOL    HW1  935   1.578   0.756   0.955  0.9619  1.4026 -2.5908
  312SOL    HW2  936   1.568   0.585   0.986 -1.5747 -0.8357  1.0749
  313SOL     OW  937   1.595   1.396   0.693 -0.0079 -0.1169 -0.0822
  313SOL    HW1  938   1.517   1.452   0.739 -1.7574 -0.4977 -0.6250
  313SOL    HW2  939   1.559   1.312   0.641 -1.7751  1.0653  2.1838
  314SOL     OW  940   2.974   0.024   3.047 -0.6228 -0.1689 -0.4604
  314SOL    HW1  941   2.972   0.076   3.136 -1.2475 -0.1410 -0.1536
  314SOL    HW2  942   2.888  -0.032   3.031 -1.4930  0.7373 -3.7545
  315SOL     OW  943   1.212   0.196   2.802  0.0490  0.0788  0.1086
  315SOL    HW1  944   1.163   0.115   2.752 -0.9427  1.8120 -0.0984
  315SOL    HW2  945   1.243   0.173   2.898  1.1369 -0.8831  1.7824
  316SOL     OW  946   1.708   2.084   0.870 -0.0456 -0.3940 -0.7234
  316SOL    HW1  947   1.638   2.064   0.944  1.4044  0.9687 -1.8927
  316SOL    HW2  948   1.698   2.179   0.832 -2.2401 -1.7105 -1.2214
  317SOL     OW  949   1.128   0.693   2.886 -0.3210 -0.2912  0.3950
  317SOL    HW1  950   1.053   0.726   2.947  2.1112 -0.8357  0.0689
  317SOL    HW2  951   1.102   0.599   2.846 -0.2091 -0.8094  0.3257
  318SOL     OW  952   1.323   3.060   2.253  0.2079  0.2313  0.4226
  318SOL    HW1  953   1.320   3.166   2.235  0.5958 -0.8078 -2.3565
  318SOL    HW2  954   1.356   3.007   2.170 -0.6266  0.3839  2.1573
  319SOL     OW  955   0.654   2.454   2.947  0.6422  0.2323  0.1779
  319SOL    HW1  956   0.581   2.404   3.003 -0.8047  1.0659 -1.0885
  319SOL    HW2  957   0.752   2.426   2.977  0.4376 -1.3450  0.0893
  320SOL     OW  958   1.701   2.203   0.358  0.6923  0.0410  1.1325
  320SOL    HW1  959   1.784   2.145   0.376 -1.2189 -0.1485 -3.2427
  320SOL    HW2  960   1.610   2.151   0.387 -2.5730 -0.7210 -0.3277
  321SOL     OW  961   1.674   2.680   0.487  0.1428  0.1720  0.0452
  321SOL    HW1  962   1.599   2.697   0.418 -1.2054  3.6085 -0.4149
  321SOL    HW2  963   1.763   2.720   0.453  0.1284  1.5005 -2.1583
  322SOL     OW  964   2.546   1.131   2.376  0.2422  0.2561  1.2329
  322SOL    HW1  965   2.634   1.147   2.322  0.2187  1.2602 -0.2440
  322SOL    HW2  966   2.525   1.029   2.377  0.7644 -1.3467  0.7669
  323SOL     OW  967   1.134   2.641   0.839  0.6911 -0.0378  0.3003
  323SOL    HW1  968   1.132   2.594   0.747  0.9306 -0.5353  0.5598
  323SOL    HW2  969   1.118   2.744   0.833  2.0092 -0.4596 -1.2486
  324SOL     OW  970   0.251   2.539   2.526 -0.1758 -0.0702  0.3363
  324SOL    HW1  971   0.245   2.472   2.603  1.7987  0.6004 -0.9419
  324SOL    HW2  972   0.202   2.625   2.541 -0.4065 -1.8754  2.3752
  325SOL     OW  973   1.245   3.031   0.470  0.4574  0.0155  0.0879
  325SOL    HW1  974   1.240   3.058   0.371 -0.5252  0.5163  0.9025
  325SOL    HW2  975   1.266   3.109   0.537  0.5230  0.3367  1.2257
  326SOL     OW  976   2.435   0.777   3.083 -0.0756 -0.1976  0.2850
  326SOL    HW1  977   2.385   0.728   3.008 -1.7833  0.0356  2.1317
  326SOL    HW2  978   2.497   0.715   3.141  1.1052 -0.2297  0.7533
  327SOL     OW  979   2.855   0.361   0.588 -0.4609  0.4591  0.7797
  327SOL    HW1  980   2.804   0.363   0.497  1.6921 -0.7103  1.3595
  327SOL    HW2  981   2.824   0.281   0.648 -0.5935 -0.7724  1.6594
  328SOL     OW  982   2.532   0.587   0.386  0.2399  0.0399  0.1403
  328SOL    HW1  983   2.521   0.681   0.428  0.5247 -3.0228  0.7554
  328SOL    HW2  984   2.523   0.523   0.467  1.1878 -0.3295 -0.6335
  329SOL     OW  985   2.974   2.987   2.137  0.1761 -0.0867  0.4024
  329SOL    HW1  986   3.023   2.915   2.193 -0.7614 -0.0330 -1.7751
  329SOL    HW2  987   3.039   3.058   2.105  1.2803 -3.3189 -0.6902
  330SOL     OW  988   0.582   0.148   1.852  0.0550  0.0797  0.4649
  330SOL    HW1  989   0.678   0.164   1.817 -2.0247  0.6212 -3.7409
  330SOL    HW2  990   0.573   0.075   1.926 -1.4613 -1.0372 -1.3674
  331SOL     OW  991   2.959   1.928   1.165 -0.1684  0.0211  0.4721
  331SOL    HW1  992   3.010   2.014   1.134 -0.6241  2.1852  2.3082
  331SOL    HW2  993   2.883   1.947   1.233  2.0908  0.7912  2.9230
  332SOL     OW  994   0.450   1.139   0.006  0.0377  0.1312  0.3235
  332SOL    HW1  995   0.376   1.090  -0.051 -0.1543 -1.0899  2.0535
  332SOL    HW2  996   0.409   1.164   0.098 -1.6716 -0.8575  0.2534
  333SOL     OW  997   2.889   1.066   0.279  0.6884 -0.0867  0.0972
  333SOL    HW1  998   2.895   1.149   0.339 -2.0547  0.8135 -0.7060
  333SOL    HW2  999   2.981   1.014   0.272  1.3476  1.6152  0.6773
  334SOL     OW 1000   1.703   1.250   1.830  0.4430 -0.1365 -0.2595
  334SOL    HW1 1001   1.790   1.195   1.809  1.6073 -0.1083  1.5330
  334SOL    HW2 1002   1.699   1.276   1.930 -1.2136 -4.0454 -2.1374
  335SOL     OW 1003   1.945   2.768   2.607  0.3383  0.2035 -0.2172
  335SOL    HW1 1004   1.874   2.716   2.661 -0.9374 -1.0173  0.2152
  335SOL    HW2 1005   1.999   2.837   2.662  0.6476  2.6521  1.0843
  336SOL     OW 1006   0.260   0.096   2.826  0.2163  0.2652 -0.5571
  336SOL    HW1 1007   0.333   0.056   2.891  2.9770 -0.4032  1.1866
  336SOL    HW2 1008   0.224   0.188   2.863 -1.4464  0.2551  0.3073
  337SOL     OW 1009   0.935   2.780   2.813  0.1502 -0.1465 -0.1385
  337SOL    HW1 1010   0.910   2.730   2.904  2.1482 -1.4696  0.2498
  337SOL    HW2 1011   1.034   2.765   2.787 -0.6705  1.1244  0.6611
  338SOL     OW 1012   0.030   1.028   0.656  0.0420  0.1199 -0.1250
  338SOL    HW1 1013  -0.071   1.019   0.658 -1.2886  2.0969  0.1748
  338SOL    HW2 1014   0.052   1.130   0.651 -0.1754  1.4415 -2.2565
  339SOL     OW 1015   1.710   1.357   2.084 -0.1918  0.1116  0.1136
  339SOL    HW1 1016   1.617   1.347   2.127 -0.7154 -0.4870 -0.2147
  339SOL    HW2 1017   1.759   1.444   2.111  0.0298 -1.5349 -2.4037
  340SOL     OW 1018   2.343   0.711   1.200 -0.0875  0.4748 -0.3932
  340SOL    HW1 1019   2.242   0.731   1.172 -2.4283 -0.5780 -0.7961
  340SOL    HW2 1020   2.380   0.633   1.144 -1.9042 -1.7533  1.0826
  341SOL     OW 1021   1.951   2.092   0.349 -0.7942 -0.3398  0.0588
  341SOL    HW1 1022   1.958   2.145   0.261 -1.3527  0.2551  0.5831
  341SOL    HW2 1023   2.048   2.061   0.377  1.3231  0.7346  0.1043
  342SOL     OW 1024   2.220   2.090   2.722  0.3083  0.0565 -0.1740
  342SOL    HW1 1025   2.288   2.015   2.751  1.9458 -1.2714 -0.7307
  342SOL    HW2 1026   2.122   2.052   2.722  0.3509  0.6851 -1.9117
  343SOL     OW 1027   0.412   0.865   2.778 -0.5991  0.4620  0.3531
  343SOL    HW1 1028   0.417   0.873   2.677  0.8150 -1.3911  0.3545
  343SOL    HW2 1029   0.504   0.846   2.824  3.4795  2.2411  2.1071
  344SOL     OW 1030   1.958   1.388   0.386  0.0995  0.0428 -0.6064
  344SOL    HW1 1031   1.948   1.325   0.302  2.0004  0.3563 -0.7349
  344SOL    HW2 1032   1.862   1.418   0.417 -1.6379 -0.7985  0.8829
  345SOL     OW 1033   1.414   2.287   2.866 -0.0025  0.1597  0.4128
  345SOL    HW1 1034   1.320   2.253   2.846  0.2892  1.1910  2.0336
  345SOL    HW2 1035   1.486   2.230   2.818 -1.4356  1.3017 -0.1770
  346SOL     OW 1036   2.358   0.918   1.395  0.3294  0.3636 -0.2760
  346SOL    HW1 1037   2.331   1.016   1.398  2.9581 -0.8705 -1.1510
  346SOL    HW2 1038   2.350   0.876   1.300  1.2602 -2.9981  1.5598
  347SOL     OW 1039   0.726   2.781   1.454  0.4929 -0.1741  0.3206
  347SOL    HW1 1040   0.693   2.716   1.527  1.1036 -1.2758 -0.0218
  347SOL    HW2 1041   0.667   2.866   1.448 -1.2041  1.0090 -2.8886
  348SOL     OW 1042   0.161   0.658   2.842 -0.1037 -0.1101  0.1733
  348SOL    HW1 1043   0.066   0.641   2.807  3.5660 -0.6409  0.1279
  348SOL    HW2 1044   0.193   0.747   2.813  1.4666  2.2684  0.8072
  349SOL     OW 1045   1.833   0.423   2.793  0.4258  0.5420 -0.8355
  349SOL    HW1 1046   1.801   0.501   2.733 -0.9387  0.6129  2.2792
  349SOL    HW2 1047   1.824   0.433   2.897 -0.2957 -0.3891 -0.5963
  350SOL     OW 1048   1.565   0.433   0.374  1.1266 -0.4049 -0.0324
  350SOL    HW1 1049   1.640   0.436   0.444 -2.0282 -1.6989  0.7149
  350SOL    HW2 1050   1.562   0.522   0.322  0.1144 -2.7618 -0.9607
  351SOL     OW 1051   0.983   0.851   2.122  0.0274 -0.1564  0.7016
  351SOL    HW1 1052   0.970   0.956   2.107  1.2677  2.2691 -2.0162
  351SOL    HW2 1053   1.031   0.814   2.037  1.2028  1.6677  0.8381
  352SOL     OW 1054   2.051   1.290   0.658  0.5769  0.1597 -0.6549
  352SOL    HW1 1055   2.027   1.341   0.566 -0.6686  0.8285 -0.6516
  352SOL    HW2 1056   2.151   1.272   0.668 -2.6715  2.6510 -2.1636
  353SOL     OW 1057   2.184   2.894   1.071 -0.2513  0.1919 -0.6028
  353SOL    HW1 1058   2.229   2.844   1.152 -2.2884 -1.9620  1.9187
  353SOL    HW2 1059   2.093   2.848   1.042 -0.8615  1.3937 -4.0960
  354SOL     OW 1060   0.241   1.389   2.840  0.5029  0.1370  0.0904
  354SOL    HW1 1061   0.223   1.476   2.783  2.0871 -0.7580 -0.8155
  354SOL    HW2 1062   0.335   1.393   2.875 -1.9358 -0.5067 -1.8248
  355SOL     OW 1063   0.497   1.484   0.500 -0.2147  0.1056  0.0883
  355SOL    HW1 1064   0.480   1.578   0.542 -0.5564 -0.3626  1.2088
  355SOL    HW2 1065   0.557   1.420   0.558  0.3475 -0.8035 -2.1770
  356SOL     OW 1066   0.893   0.256   2.073 -1.1312 -0.3426 -0.5581
  356SOL    HW1 1067   0.994   0.261   2.039  1.3312  1.5627 -0.5324
  356SOL    HW2 1068   0.834   0.205   2.010 -2.5600  0.5264  3.3716
  357SOL     OW 1069   0.983   1.268   0.397 -0.4240  0.0928 -0.0863
  357SOL    HW1 1070   0.932   1.223   0.317 -1.1851  0.5740 -0.7135
  357SOL    HW2 1071   1.026   1.198   0.462  2.0050  1.6823  0.5310
  358SOL     OW 1072   1.707   1.509   0.474 -0.0335  0.0288  0.2108
  358SOL    HW1 1073   1.656   1.475   0.559 -1.1377 -1.4459  0.5919
  358SOL    HW2 1074   1.653   1.491   0.387  1.4717  2.0971 -1.1904
  359SOL     OW 1075   1.592   2.740   0.094  0.1887 -0.3903  0.2695
  359SOL    HW1 1076   1.518   2.664   0.085 -0.3816  0.1057  3.0234
  359SOL    HW2 1077   1.555   2.832   0.105 -0.4709 -1.0745  1.8924
  360SOL     OW 1078   0.883   0.601   0.573  0.4759 -0.3063  0.4109
  360SOL    HW1 1079   0.787   0.628   0.586  1.2442 -0.8240 -1.9178
  360SOL    HW2 1080   0.895   0.502   0.596 -0.1340 -0.4156  1.8278
  361SOL     OW 1081   1.195   1.366   0.717 -0.2148 -0.5519  0.2770
  361SOL    HW1 1082   1.248   1.442   0.770  1.1915  0.9775  3.1813
  361SOL    HW2 1083   1.095   1.391   0.709  1.3676  1.5668 -1.3145
  362SOL     OW 1084   1.338   1.854   0.806  0.3844  0.5613  0.1652
  362SOL    HW1 1085   1.371   1.788   0.876 -0.8551  0.7904 -0.9676
  362SOL    HW2 1086   1.415   1.883   0.740 -0.0532  0.3751 -0.3853
  363SOL     OW 1087   1.215   1.302   2.021 -0.0964  0.2431  0.1180
  363SOL    HW1 1088   1.292   1.352   2.070  1.0551  2.3421 -2.5333
  363SOL    HW2 1089   1.200   1.333   1.922 -1.9063 -1.9412  0.9523
  364SOL     OW 1090   0.499   2.310   1.952 -0.1614 -0.1818  0.0386
  364SOL    HW1 1091   0.395   2.318   1.960  1.3960  0.1530  1.7272
  364SOL    HW2 1092   0.537   2.359   1.873 -1.0898  0.5289  1.7589
  365SOL     OW 1093   1.009   1.858   1.433 -0.6821  0.1890  0.4613
  365SOL    HW1 1094   0.918   1.882   1.395  0.7959 -1.9203 -1.4144
  365SOL    HW2 1095   1.046   1.768   1.397 -0.1672 -1.2731  1.8236
  366SOL     OW 1096   2.755   2.066   0.475 -0.3810  0.0800 -0.4637
  366SOL    HW1 1097   2.663   2.009   0.484 -2.1287 -0.0142 -0.0153
  366SOL    HW2 1098   2.829   2.008   0.437  0.7168  1.0067  2.8535
  367SOL     OW 1099   0.914   1.135   0.183  0.4703  0.0849 -0.1067
  367SOL    HW1 1100   0.940   1.037   0.209 -2.3137 -0.6064 -3.1442
  367SOL    HW2 1101   0.962   1.174   0.100 -1.5266 -1.5903 -1.4439
  368SOL     OW 1102   1.476   0.571   0.693 -0.7119 -0.3813 -0.1764
  368SOL    HW1 1103   1.448   0.570   0.591  1.9038  2.2242  0.9850
  368SOL    HW2 1104   1.562   0.622   0.707 -0.8352 -0.3486 -1.2406
  369SOL     OW 1105   0.202   1.719   0.046  0.0944 -0.0670 -0.1413
  369SOL    HW1 1106   0.255   1.773   0.116  1.2965 -1.8702 -0.5343
  369SOL    HW2 1107   0.114   1.679   0.086 -1.4148 -1.0419  0.6007
  370SOL     OW 1108   0.444   2.077   1.038  0.2042 -0.1212 -0.1899
  370SOL    HW1 1109   0.458   2.177   1.016 -1.6301 -0.6854  2.1024
  370SOL    HW2 1110   0.359   2.040   0.983 -0.5218  0.1990 -1.2494
  371SOL     OW 1111   2.881   2.183   2.696  0.4625 -0.3260 -0.4048
  371SOL    HW1 1112   2.827   2.175   2.788 -1.7934  0.5003 -1.0324
  371SOL    HW2 1113   2.978   2.216   2.707  2.7630  0.9134 -0.7048
  372SOL     OW 1114   1.090   1.990   1.110  0.6910 -0.0460  0.5662
  372SOL    HW1 1115   1.027   2.037   1.038  0.0850 -2.0136  2.8074
  372SOL    HW2 1116   1.173   2.048   1.132 -1.6230  0.8975  0.5747
  373SOL     OW 1117   1.993   2.037   0.857  0.2511  0.1017 -0.2613
  373SOL    HW1 1118   2.048   2.024   0.946 -0.1901  1.4149  2.0553
  373SOL    HW2 1119   1.893   2.064   0.875 -1.3257  3.0251 -3.1403
  374SOL     OW 1120   1.757   0.475   0.574 -0.5756  0.0573 -0.2145
  374SOL    HW1 1121   1.787   0.422   0.660  0.5416  2.9182  0.3932
  374SOL    HW2 1122   1.838   0.487   0.519  2.6609 -0.3214  1.3337
  375SOL     OW 1123   2.392   2.179   1.110  0.0151  0.1526 -0.4448
  375SOL    HW1 1124   2.465   2.158   1.041  1.8006 -0.1686  1.4436
  375SOL    HW2 1125   2.416   2.165   1.212  0.8852  1.2839  1.2691
  376SOL     OW 1126   3.020   0.589   1.450 -0.0359 -0.2759  0.4420
  376SOL    HW1 1127   3.052   0.652   1.527  0.4907 -1.7931  0.4416
  376SOL    HW2 1128   2.918   0.582   1.437  0.4415  3.8918  0.6287
  377SOL     OW 1129   2.249   2.867   0.349  0.0466 -0.3562  0.3680
  377SOL    HW1 1130   2.254   2.971   0.360  0.7931 -2.0711  1.8014
  377SOL    HW2 1131   2.338   2.821   0.328  0.3723  1.6279 -4.6684
  378SOL     OW 1132   1.826   1.798   2.675  0.7143  0.0090 -0.1859
  378SOL    HW1 1133   1.771   1.784   2.591 -1.2489  1.8295 -1.1159
  378SOL    HW2 1134   1.885   1.721   2.696 -0.7809 -0.2133 -1.4290
  379SOL     OW 1135   0.882   0.126   2.745 -0.2829 -0.0718  0.2365
  379SOL    HW1 1136   0.825   0.035   2.728 -2.3369 -1.3799  0.7073
  379SOL    HW2 1137   0.840   0.206   2.695 -0.2337 -1.4119  1.5728
  380SOL     OW 1138   1.510   1.185   0.560  0.6079  0.0501 -0.0538
  380SOL    HW1 1139   1.416   1.159   0.588 -1.0253  0.9790  3.5375
  380SOL    HW2 1140   1.573   1.105   0.564 -1.0070  1.4449  1.5875
  381SOL     OW 1141   1.339   1.150   1.468  0.1067  0.5602 -0.5393
  381SOL    HW1 1142   1.388   1.199   1.391 -0.6927 -2.3848 -1.0822
  381SOL    HW2 1143   1.400   1.131   1.547  1.3383  0.4302 -2.8303
  382SOL     OW 1144   1.808   0.849   0.202 -0.2096  0.5429  0.0815
  382SOL    HW1 1145   1.857   0.801   0.121 -1.1282  1.0471  0.4665
  382SOL    HW2 1146   1.855   0.848   0.295 -1.0850  2.9081 -0.8651
  383SOL     OW 1147   2.636   1.029   1.493  0.3537  0.5611 -0.2658
  383SOL    HW1 1148   2.570   1.024   1.417 -0.4993  1.4784  0.5346
  383SOL    HW2 1149   2.733   1.000   1.460 -1.3933  0.1602 -1.9321
  384SOL     OW 1150   0.930   2.274   0.130  0.2877  0.2319  0.0227
  384SOL    HW1 1151   0.895   2.360   0.185  1.7796  0.3277  3.0858
  384SOL    HW2 1152   0.900   2.187   0.174  1.3605  1.4989  1.7858
  385SOL     OW 1153   3.001   2.024   1.761  0.1469  0.2059 -0.5851
  385SOL    HW1 1154   3.054   2.103   1.712 -1.1534  3.1140  1.5346
  385SOL    HW2 1155   3.035   1.927   1.756  0.3715 -1.3996  2.1232
  386SOL     OW 1156   0.456   1.143   0.460  0.1879  0.3166 -0.3442
  386SOL    HW1 1157   0.471   1.044   0.445  2.6864 -1.1719 -0.8219
  386SOL    HW2 1158   0.420   1.197   0.378 -2.1821 -2.2286  0.5433
  387SOL     OW 1159   1.000   0.357   1.669  0.1429  0.3231 -0.4173
  387SOL    HW1 1160   1.061   0.435   1.677 -0.9355 -2.0257 -0.8945
  387SOL    HW2 1161   0.973   0.337   1.571  1.6230 -0.9770 -3.3122
  388SOL     OW 1162   1.218   2.641   1.779 -0.4023  0.6892 -0.4225
  388SOL    HW1 1163   1.218   2.629   1.675  0.8416 -1.5307  1.2662
  388SOL    HW2 1164   1.272   2.564   1.829  1.0999 -2.5955 -1.6292
  389SOL     OW 1165   0.199   3.059   1.129 -0.0656 -0.2119 -0.1449
  389SOL    HW1 1166   0.112   3.064   1.188  1.2363  0.0729 -0.2494
  389SOL    HW2 1167   0.212   2.964   1.089  1.8071 -1.1418  0.6642
  390SOL     OW 1168   1.051   0.939   1.236  0.2307  0.6675  0.5240
  390SOL    HW1 1169   1.129   0.884   1.276 -1.1402 -0.1179  1.0070
  390SOL    HW2 1170   0.980   0.972   1.307  0.0597  0.2333  3.1985
  391SOL     OW 1171   2.039   1.168   0.999  0.4418  0.3261 -0.2617
  391SOL    HW1 1172   1.961   1.115   1.044  3.0531  0.1255 -2.7159
  391SOL    HW2 1173   2.119   1.116   0.959  3.1490 -0.7623 -0.3692
  392SOL     OW 1174   0.910   2.647   3.060 -0.3298  0.1027  0.6012
  392SOL    HW1 1175   0.852   2.597   3.130 -3.7836 -1.0136  2.0724
  392SOL    HW2 1176   0.978   2.713   3.107  1.3422  0.0037  2.3877
  393SOL     OW 1177   0.426   0.491   2.086  0.2665  0.2002 -0.3808
  393SOL    HW1 1178   0.360   0.414   2.065  2.9535 -2.6931 -0.7992
  393SOL    HW2 1179   0.517   0.482   2.033 -0.2255 -2.5873 -1.0973
  394SOL     OW 1180   2.979   1.804   2.770  0.5128 -0.6328 -0.2511
  394SOL    HW1 1181   3.057   1.847   2.828 -1.9768  0.0943  1.6756
  394SOL    HW2 1182   2.969   1.848   2.678  1.5412 -2.1291 -1.4310
  395SOL     OW 1183   1.571   1.919   0.680 -0.0459  0.5439 -0.0053
  395SOL    HW1 1184   1.607   1.843   0.620 -4.6641  0.3755  0.1128
  395SOL    HW2 1185   1.633   1.969   0.747 -0.2072  0.1077  0.2240
  396SOL     OW 1186   2.772   1.986   1.343  0.4710 -0.6042 -0.2567
  396SOL    HW1 1187   2.784   2.011   1.444 -1.4046  0.1356 -0.3179
  396SOL    HW2 1188   2.674   1.973   1.322 -0.5304 -0.7107 -0.1991
  397SOL     OW 1189   1.027   2.101   0.627  0.0219  0.0857 -0.3973
  397SOL    HW1 1190   0.945   2.050   0.580  1.2533 -2.9059  0.2672
  397SOL    HW2 1191   1.000   2.158   0.706  1.6580  1.3736  1.3329
  398SOL     OW 1192   2.242   0.052   1.016 -0.3178 -0.6737 -0.9875
  398SOL    HW1 1193   2.231  -0.045   1.037 -0.9233 -0.0718 -1.7007
  398SOL    HW2 1194   2.157   0.112   1.045 -0.4257 -0.1487  0.3732
  399SOL     OW 1195   2.857   2.571   2.750  0.1153 -0.4099  0.8895
  399SOL    HW1 1196   2.820   2.540   2.655 -2.8860 -0.9904 -2.3361
  399SOL    HW2 1197   2.834   2.505   2.828 -2.0986  0.7670  0.1349
  400SOL     OW 1198   0.759   1.591   1.268 -0.4283 -0.4847  0.4221
  400SOL    HW1 1199   0.723   1.621   1.362  0.1389  0.4983 -1.1502
  400SOL    HW2 1200   0.765   1.664   1.197 -2.7525 -1.3830  0.1916
  401SOL     OW 1201   1.842   0.168   1.297  0.1255  0.0788  0.0149
  401SOL    HW1 1202   1.905   0.220   1.361 -0.3066  1.1627  1.1106
  401SOL    HW2 1203   1.744   0.176   1.317  2.6295 -1.4051  1.2048
  402SOL     OW 1204   1.337   0.161   3.076 -0.3612 -0.1045  0.2969
  402SOL    HW1 1205   1.440   0.144   3.057  1.7966 -1.4597 -0.5100
  402SOL    HW2 1206   1.316   0.247   3.134  1.0149 -1.7789  2.1413
  403SOL     OW 1207   2.301   1.849   0.915  0.1768 -0.0023 -0.1589
  403SOL    HW1 1208   2.403   1.855   0.930 -2.3154  0.7021 -1.1735
  403SOL    HW2 1209   2.252   1.920   0.973  0.4917 -1.0755  2.8568
  404SOL     OW 1210   0.193   2.490   2.864  0.9716 -0.4716  0.1783
  404SOL    HW1 1211   0.283   2.448   2.841 -2.5643  0.8765  0.5590
  404SOL    HW2 1212   0.199   2.592   2.887 -1.6632 -1.3046 -0.3768
  405SOL     OW 1213   0.239   2.514   0.581 -0.8159  0.3620  0.4999
  405SOL    HW1 1214   0.180   2.500   0.496 -1.5680 -1.1345  1.9025
  405SOL    HW2 1215   0.305   2.600   0.585 -0.2330  1.0426  1.2688
  406SOL     OW 1216   0.031   1.495   3.015  0.8713 -0.4065 -0.0491
  406SOL    HW1 1217   0.132   1.484   2.999  1.3661  0.6644 -1.0420
  406SOL    HW2 1218   0.005   1.512   3.121 -0.8703  2.0336  2.6729
  407SOL     OW 1219   1.544   0.926   0.893  0.5442  0.2979 -0.1361
  407SOL    HW1 1220   1.582   0.955   0.803 -1.3817 -2.3204 -0.4320
  407SOL    HW2 1221   1.486   0.995   0.944 -1.7526 -0.6727  1.4199
  408SOL     OW 1222   1.588   2.402   1.001  0.1024 -0.5628  0.3124
  408SOL    HW1 1223   1.651   2.405   0.913  0.2453 -0.2209 -1.4469
  408SOL    HW2 1224   1.600   2.479   1.061  0.9912 -3.2029  3.3305
  409SOL     OW 1225   0.552   0.826   0.765 -0.9313  0.6035 -0.0644
  409SOL    HW1 1226   0.492   0.842   0.679 -1.6660 -1.2325  0.1584
  409SOL    HW2 1227   0.599   0.735   0.765  0.7055  0.5831  0.4491
  410SOL     OW 1228   1.250   2.003   1.432 -0.3877 -0.0197 -0.6633
  410SOL    HW1 1229   1.293   2.014   1.527  3.4157  2.4048  0.1786
  410SOL    HW2 1230   1.157   1.950   1.431  1.4164  1.1410 -4.6458
  411SOL     OW 1231   2.434   1.796   3.061  0.5652  0.9145  0.3721
  411SOL    HW1 1232   2.406   1.881   3.016 -0.3115 -0.6881 -1.1336
  411SOL    HW2 1233   2.521   1.760   3.023 -2.6907  0.6004 -2.0408
  412SOL     OW 1234   1.463   2.475   2.221  0.7169  0.4194  0.0255
  412SOL    HW1 1235   1.489   2.552   2.280 -2.1354 -2.4866  0.2490
  412SOL    HW2 1236   1.368   2.443   2.249 -0.8446  1.7766 -0.1937
  413SOL     OW 1237   3.091   0.282   2.956  0.2884 -0.1717 -0.1680
  413SOL    HW1 1238   3.044   0.192   2.974  1.7840  0.0105  1.7605
  413SOL    HW2 1239   3.193   0.279   2.986  1.8805 -2.7342  0.7868
  414SOL     OW 1240   1.784   1.454   1.391 -0.2202  0.5287 -0.2085
  414SOL    HW1 1241   1.716   1.515   1.438 -0.6666  1.2655 -1.0779
  414SOL    HW2 1242   1.748   1.427   1.298  1.7696  0.0067  1.7975
  415SOL     OW 1243   0.355   2.287   0.623 -0.5348 -0.2083  0.5143
  415SOL    HW1 1244   0.315   2.384   0.604 -1.1800 -0.6416 -2.2696
  415SOL    HW2 1245   0.292   2.218   0.587 -0.3367  1.8870  1.2301
  416SOL     OW 1246   0.357   1.047   1.054 -0.5755 -0.1560  0.5484
  416SOL    HW1 1247   0.331   0.984   0.979 -0.3479 -1.4872  1.0586
  416SOL    HW2 1248   0.458   1.064   1.060 -2.3103 -4.0366 -1.5640
  417SOL     OW 1249   2.115   2.368   1.888  0.2278 -0.0835 -0.3292
  417SOL    HW1 1250   2.139   2.269   1.881 -1.7520  0.7123 -0.7693
  417SOL    HW2 1251   2.038   2.389   1.949 -0.3560  0.1940 -0.8092
  418SOL     OW 1252   1.105   0.497   1.268 -0.3003 -0.2569 -0.4080
  418SOL    HW1 1253   1.012   0.504   1.221 -1.4509  1.0786 -1.0354
  418SOL    HW2 1254   1.170   0.441   1.216  0.0597  2.6062  2.0462
  419SOL     OW 1255   1.053   0.333   3.038  0.0555 -0.7546  0.1498
  419SOL    HW1 1256   1.041   0.389   2.949 -0.9050 -0.0018 -0.4138
  419SOL    HW2 1257   0.993   0.244   3.029 -1.7908 -0.0171 -2.6982
  420SOL     OW 1258   0.204   2.256   0.347  0.2422  0.0361  0.6333
  420SOL    HW1 1259   0.156   2.198   0.274 -1.3988  1.3707 -0.8592
  420SOL    HW2 1260   0.150   2.266   0.434 -1.0480 -1.5733 -0.9187
  421SOL     OW 1261   0.314   3.094   0.694 -0.1397  0.1204 -0.4063
  421SOL    HW1 1262   0.261   3.003   0.699 -1.6547 -0.3427  0.1244
  421SOL    HW2 1263   0.419   3.090   0.689  3.5814  0.3999 -1.5261
  422SOL     OW 1264   0.981   2.520   1.033  0.4393  0.6450  0.1291
  422SOL    HW1 1265   1.049   2.580   0.979  1.6061 -0.2248 -1.9722
  422SOL    HW2 1266   0.984   2.550   1.132  0.1122 -1.8978  0.8932
  423SOL     OW 1267   0.054   0.663   1.223  0.3632  0.2617  0.4183
  423SOL    HW1 1268   0.009   0.621   1.312  3.8986 -1.5187  1.2550
  423SOL    HW2 1269   0.032   0.761   1.207 -1.4320  0.6258 -1.7082
  424SOL     OW 1270   0.984   2.220   2.068  0.1358 -0.0133 -0.1321
  424SOL    HW1 1271   1.008   2.316   2.039  2.2341 -2.6077 -1.1139
  424SOL    HW2 1272   0.963   2.213   2.170  1.6154  0.9646  1.4686
  425SOL     OW 1273   1.968   1.447   1.008  0.0956 -0.0670  0.0928
  425SOL    HW1 1274   1.990   1.347   1.009 -3.1423  0.7747  0.1097
  425SOL    HW2 1275   2.031   1.516   0.957 -0.9710 -1.6039 -1.2174
  426SOL     OW 1276   1.513   1.560   1.439  0.1263 -0.1912  0.2568
  426SOL    HW1 1277   1.501   1.638   1.372  1.8176  1.1628 -0.4507
  426SOL    HW2 1278   1.492   1.593   1.533  0.5694  2.5616 -1.8263
  427SOL     OW 1279   1.941   2.400   2.082  0.0299 -0.5229  0.1645
  427SOL    HW1 1280   1.980   2.364   2.173 -0.0967  1.6612 -0.7594
  427SOL    HW2 1281   1.904   2.499   2.089  0.2867 -2.2010  0.1015
  428SOL     OW 1282   0.861   2.926   0.138  0.2770 -0.1859 -0.0656
  428SOL    HW1 1283   0.886   3.015   0.175 -2.2596 -2.6702 -0.6234
  428SOL    HW2 1284   0.939   2.861   0.152  0.5188  0.6544  2.6257
  429SOL     OW 1285   1.292   0.064   0.233 -0.0713 -0.0903  0.1061
  429SOL    HW1 1286   1.361   0.110   0.300  1.8547 -0.7894 -0.1808
  429SOL    HW2 1287   1.303   0.095   0.137  0.6449 -0.9986 -0.3484
  430SOL     OW 1288   2.757   1.538   0.354 -0.9464 -0.3728  0.4443
  430SOL    HW1 1289   2.775   1.572   0.256 -1.9496 -0.6853  1.0137
  430SOL    HW2 1290   2.786   1.604   0.428 -1.4377 -0.9739  0.5855
  431SOL     OW 1291   2.124   1.635   0.890 -0.1419  0.2374  0.1196
  431SOL    HW1 1292   2.207   1.698   0.902 -1.0056  1.7348  2.8098
  431SOL    HW2 1293   2.039   1.677   0.847  1.2135 -1.3658 -3.7793
  432SOL     OW 1294   2.913   2.266   1.249 -0.2646  0.9624  0.0667
  432SOL    HW1 1295   2.879   2.165   1.254 -2.6407 -2.9456 -0.4813
  432SOL    HW2 1296   2.939   2.290   1.346  3.6109  1.4866  1.0654
  433SOL     OW 1297   1.866   0.380   0.808 -0.2324  0.2379  0.2570
  433SOL    HW1 1298   1.797   0.366   0.886 -3.1998 -0.1861  0.3337
  433SOL    HW2 1299   1.921   0.299   0.778  1.2036  2.0181 -0.3028
  434SOL     OW 1300   1.546   0.270   0.739  0.0469 -0.5030 -0.3322
  434SOL    HW1 1301   1.547   0.355   0.680  0.7312  1.9682 -3.0312
  434SOL    HW2 1302   1.586   0.288   0.832  0.1723 -1.0138 -3.2217
  435SOL     OW 1303   1.447   1.391   2.148 -0.0206  0.4158  0.0005
  435SOL    HW1 1304   1.403   1.414   2.237  3.6075  1.4469 -2.1510
  435SOL    HW2 1305   1.447   1.473   2.086 -1.8941  1.4662  0.1099
  436SOL     OW 1306   1.618   2.675   2.406  0.4792  0.5214 -0.3499
  436SOL    HW1 1307   1.599   2.769   2.456 -1.1586  0.9689 -0.4254
  436SOL    HW2 1308   1.674   2.612   2.464 -4.5909  0.4527 -0.1746
  437SOL     OW 1309   1.093   2.899   0.867  0.2374 -0.0046 -0.4437
  437SOL    HW1 1310   1.036   2.985   0.860  0.9994  0.0443 -0.2049
  437SOL    HW2 1311   1.105   2.879   0.971  3.1526  0.3119 -1.3568
  438SOL     OW 1312   1.030   2.608   1.308 -0.0813  0.2462  0.8904
  438SOL    HW1 1313   1.106   2.650   1.363 -0.7507 -2.0668 -0.5190
  438SOL    HW2 1314   1.006   2.505   1.335  2.0645  0.6786 -1.0105
  439SOL     OW 1315   0.739   1.776   1.071 -0.3364 -0.2776  0.4345
  439SOL    HW1 1316   0.780   1.871   1.061  0.3012  0.1581  1.7214
  439SOL    HW2 1317   0.634   1.775   1.082 -2.5639  2.2933  1.0339
  440SOL     OW 1318   1.029   2.464   1.969 -0.3831 -0.1495 -0.1529
  440SOL    HW1 1319   0.973   2.516   1.901 -0.0000 -2.0184 -0.0810
  440SOL    HW2 1320   1.130   2.490   1.966  0.2344  0.3125  0.5138
  441SOL     OW 1321   0.430   2.791   1.375  0.4893  0.1966 -0.1324
  441SOL    HW1 1322   0.456   2.693   1.362  1.8845  0.5278  3.8533
  441SOL    HW2 1323   0.356   2.821   1.305 -3.2735  1.1229 -1.2070
  442SOL     OW 1324   2.270   0.669   2.612  0.6823 -0.0815  0.5450
  442SOL    HW1 1325   2.259   0.569   2.590  0.2582  0.0554 -0.7511
  442SOL    HW2 1326   2.175   0.713   2.630  1.6549 -1.3427  0.6390
  443SOL     OW 1327   1.225   2.679   2.205 -0.2438  0.5605  0.4602
  443SOL    HW1 1328   1.210   2.575   2.213  0.9268  0.0802  2.1969
  443SOL    HW2 1329   1.191   2.729   2.287 -0.4203  0.3798 -4.2082
  444SOL     OW 1330   1.070   1.239   1.503  0.3702  0.6143 -0.0921
  444SOL    HW1 1331   1.172   1.217   1.482  4.6276 -1.4564  1.0656
  444SOL    HW2 1332   1.067   1.335   1.544  0.7765  0.2690  1.6867
  445SOL     OW 1333   3.069   2.410   1.889  0.0186  0.2671 -0.5121
  445SOL    HW1 1334   3.011   2.453   1.813 -0.3662  1.1090  0.4236
  445SOL    HW2 1335   3.018   2.347   1.951 -1.2090 -0.5500 -1.0413
  446SOL     OW 1336   0.195   1.908   2.392  0.1235 -0.6391  0.3487
  446SOL    HW1 1337   0.135   1.988   2.419 -2.1977  2.9931  2.1767
  446SOL    HW2 1338   0.162   1.861   2.302  0.4271 -0.0346 -0.6115
  447SOL     OW 1339   1.241   1.659   1.936 -0.1459 -0.1687  0.4190
  447SOL    HW1 1340   1.151   1.711   1.941 -1.1224 -0.2466 -1.1881
  447SOL    HW2 1341   1.324   1.717   1.956  0.5886 -1.3324  0.0918
  448SOL     OW 1342   0.113   1.400   2.029 -0.4938  0.1133 -0.1491
  448SOL    HW1 1343   0.141   1.491   1.981 -0.9694  1.0934 -2.4152
  448SOL    HW2 1344   0.064   1.424   2.116 -0.6388  1.4555 -0.4425
  449SOL     OW 1345   1.752   2.966   0.882 -0.4475 -0.6072  0.3500
  449SOL    HW1 1346   1.755   2.967   0.988  0.9085  0.0561  2.9250
  449SOL    HW2 1347   1.818   2.900   0.838 -1.6228  0.4639  0.4365
  450SOL     OW 1348   2.296   1.478   0.747 -0.2201 -0.0946  0.3877
  450SOL    HW1 1349   2.219   1.509   0.810  0.4792  0.6538 -0.7552
  450SOL    HW2 1350   2.283   1.523   0.657  4.5713  1.2851 -0.6963
  451SOL     OW 1351   1.374   3.077   1.470 -1.1086  0.3864 -0.3946
  451SOL    HW1 1352   1.309   3.149   1.491  2.0511  1.2325 -0.8439
  451SOL    HW2 1353   1.410   3.024   1.555 -1.6378  2.4208  1.4461
  452SOL     OW 1354   2.667   2.295   2.247 -0.3137  0.0933  0.4726
  452SOL    HW1 1355   2.639   2.393   2.266  0.1459 -1.2386 -0.3134
  452SOL    HW2 1356   2.709   2.240   2.327  1.6125 -1.2185  2.1972
  453SOL     OW 1357   2.457   2.658   3.090  0.1552  0.3210 -0.4122
  453SOL    HW1 1358   2.365   2.699   3.091  0.4150  0.8636  2.0296
  453SOL    HW2 1359   2.458   2.581   3.015 -1.8671 -1.5487  1.8434
  454SOL     OW 1360   0.950   1.123   2.064 -0.2771  0.7898 -0.2634
  454SOL    HW1 1361   0.923   1.081   1.973  0.9552 -0.3872 -0.5825
  454SOL    HW2 1362   1.011   1.205   2.059  1.4204  0.7558  0.0698
  455SOL     OW 1363   0.648   2.688   2.789 -0.0609 -0.6403  0.4095
  455SOL    HW1 1364   0.743   2.741   2.780  3.7106  2.5950  1.0395
  455SOL    HW2 1365   0.661   2.601   2.847 -1.5866 -2.5173  0.2094
  456SOL     OW 1366   0.385   1.895   0.219 -0.1302 -0.4286 -0.2875
  456SOL    HW1 1367   0.471   1.843   0.227 -0.2427  1.0397 -1.8729
  456SOL    HW2 1368   0.407   1.989   0.184  1.8295 -0.3045  0.1066
  457SOL     OW 1369   0.392   2.723   0.603  0.0714 -0.4351  0.7067
  457SOL    HW1 1370   0.407   2.783   0.516 -0.3363 -0.0378 -0.6618
  457SOL    HW2 1371   0.481   2.714   0.660 -0.7562 -1.2657 -0.9054
  458SOL     OW 1372   2.834   0.041   1.153  0.8866  0.3410  0.3497
  458SOL    HW1 1373   2.907   0.112   1.148  0.8253 -0.8118  0.4429
  458SOL    HW2 1374   2.859  -0.039   1.089 -0.8449 -0.7750 -2.7981
  459SOL     OW 1375   2.145   2.606   0.790 -0.4768  0.4529  0.0883
  459SOL    HW1 1376   2.220   2.658   0.832 -0.0079 -0.8327  1.6535
  459SOL    HW2 1377   2.177   2.523   0.738 -0.2299  0.6539 -3.3637
  460SOL     OW 1378   1.191   2.127   2.798  0.4215  0.3757  0.5250
  460SOL    HW1 1379   1.222   2.141   2.702 -2.5232  1.4296 -0.7475
  460SOL    HW2 1380   1.195   2.031   2.836 -3.0747  0.2754  1.0004
  461SOL     OW 1381   0.507   2.159   2.680  0.3533  0.0018 -0.4832
  461SOL    HW1 1382   0.459   2.092   2.613  0.3020  0.8867  0.9225
  461SOL    HW2 1383   0.516   2.125   2.777 -1.1712  2.6908 -0.2281
  462SOL     OW 1384   0.982   1.091   1.793 -0.9544  0.1290  0.5291
  462SOL    HW1 1385   1.034   1.074   1.705 -1.5943 -0.7229  0.8730
  462SOL    HW2 1386   0.906   1.161   1.788  0.9115  2.7063  0.4856
  463SOL     OW 1387   0.460   0.862   0.497 -0.0583 -0.0354  0.2985
  463SOL    HW1 1388   0.493   0.762   0.488 -1.6403 -0.1697  1.4390
  463SOL    HW2 1389   0.358   0.865   0.517 -2.5200  1.2805  1.6769
  464SOL     OW 1390   0.569   2.296   2.225  0.1766 -0.6002  0.1355
  464SOL    HW1 1391   0.544   2.381   2.275  2.1142  1.3092 -2.0650
  464SOL    HW2 1392   0.536   2.298   2.128 -2.2708 -2.4241 -0.2976
  465SOL     OW 1393   0.236   0.924   0.814 -0.4697  0.1869  0.0316
  465SOL    HW1 1394   0.160   0.952   0.753 -1.6624  1.2733 -0.4388
  465SOL    HW2 1395   0.263   0.823   0.808 -1.1006 -2.7205 -0.7184
  466SOL     OW 1396   1.400   1.142   1.028 -0.3299 -0.3325 -0.4910
  466SOL    HW1 1397   1.439   1.230   0.989  0.9851 -0.6153 -2.7558
  466SOL    HW2 1398   1.298   1.138   1.044 -1.1834  0.9679 -1.4334
  467SOL     OW 1399   0.625   0.429   2.454  0.1936  0.4785 -0.2946
  467SOL    HW1 1400   0.551   0.496   2.423 -0.8297  0.1741 -0.6398
  467SOL    HW2 1401   0.595   0.380   2.544 -1.3494 -1.5766  2.7368
  468SOL     OW 1402   0.432   2.255   1.637  0.2174  0.1625 -0.2335
  468SOL    HW1 1403   0.510   2.315   1.671  1.0755  1.5079  1.7143
  468SOL    HW2 1404   0.452   2.231   1.540  1.9203  2.6318  0.0984
  469SOL     OW 1405   1.478   1.348   1.284  0.2298  0.3949 -0.1422
  469SOL    HW1 1406   1.555   1.335   1.217  0.7780  0.6501 -2.9206
  469SOL    HW2 1407   1.508   1.413   1.357  1.6252 -1.4703 -3.1329
  470SOL     OW 1408   3.010   1.883   0.738  0.2741 -0.3508  0.6582
  470SOL    HW1 1409   3.083   1.927   0.672  1.2149  0.7551 -1.3324
  470SOL    HW2 1410   3.054   1.845   0.823 -0.2701  0.5556 -1.2549
  471SOL     OW 1411   2.583   1.343   2.162 -0.1469 -0.0630 -0.0438
  471SOL    HW1 1412   2.540   1.309   2.250  1.6583 -0.9242 -1.0144
  471SOL    HW2 1413   2.659   1.409   2.182 -1.4360  0.3111 -0.3213
  472SOL     OW 1414   1.169   2.384   0.029 -0.3163  0.0585  0.1400
  472SOL    HW1 1415   1.229   2.336   0.097  0.2454 -0.6126 -0.4932
  472SOL    HW2 1416   1.071   2.358   0.046  0.9959  0.5834  1.4079
  473SOL     OW 1417   1.053   1.479   1.065  0.4945  0.3964 -0.0011
  473SOL    HW1 1418   0.978   1.502   0.998 -2.2741 -0.9532  0.0691
  473SOL    HW2 1419   1.071   1.380   1.075  1.1748  2.3959  1.6464
  474SOL     OW 1420   0.642   1.289   0.603 -0.0365 -0.3689 -0.3728
  474SOL    HW1 1421   0.569   1.241   0.548 -0.2100 -2.1436 -0.7951
  474SOL    HW2 1422   0.720   1.229   0.627 -1.2024  0.8139 -0.0783
  475SOL     OW 1423   2.823   0.026   0.838 -0.2545 -0.0642 -0.3133
  475SOL    HW1 1424   2.895   0.099   0.841  1.9575 -2.8386  0.1679
  475SOL    HW2 1425   2.735   0.039   0.887  0.8157 -0.1511 -1.9224
  476SOL     OW 1426   0.988   2.989   1.766 -0.4986  0.8251  0.0155
  476SOL    HW1 1427   1.086   3.006   1.792 -0.8676  1.1187  1.2257
  476SOL    HW2 1428   0.976   2.972   1.662  0.7912 -0.2284 -1.5959
  477SOL     OW 1429   1.475   0.323   2.423  0.0680  0.2854  0.0343
  477SOL    HW1 1430   1.454   0.349   2.521 -0.7562 -0.7149  2.2947
  477SOL    HW2 1431   1.553   0.256   2.417  0.2830  1.5075 -2.0826
  478SOL     OW 1432   2.220   1.825   0.201  0.2055 -0.2701 -0.3306
  478SOL    HW1 1433   2.156   1.772   0.260  3.4388 -1.6453 -2.1031
  478SOL    HW2 1434   2.282   1.763   0.139 -0.8823 -2.1951 -1.2958
  479SOL     OW 1435   1.252   0.962   2.844 -0.1042  0.2103 -1.0302
  479SOL    HW1 1436   1.313   0.985   2.759 -0.2630  0.4076 -1.2846
  479SOL    HW2 1437   1.193   0.877   2.828  1.4281 -0.2437 -1.0254
  480SOL     OW 1438   2.628   2.360   0.379  0.1288  0.3110 -0.2326
  480SOL    HW1 1439   2.615   2.262   0.416  1.3392  0.6799 -0.2336
  480SOL    HW2 1440   2.543   2.397   0.330  2.3856 -0.0199 -2.4065
  481SOL     OW 1441   0.926   1.184   0.866  0.1005  0.3185 -0.0806
  481SOL    HW1 1442   0.939   1.276   0.821 -0.5858 -1.7276  1.4715
  481SOL    HW2 1443   0.980   1.178   0.955 -1.4684  0.7032  0.8462
  482SOL     OW 1444   1.571   0.293   1.990  0.5302  0.0613  0.0629
  482SOL    HW1 1445   1.588   0.389   1.958  2.1772 -3.7604  0.5562
  482SOL    HW2 1446   1.657   0.258   2.034  2.0671 -3.2145  0.3629
  483SOL     OW 1447   0.150   2.277   1.211 -0.2810 -0.3383 -0.1338
  483SOL    HW1 1448   0.059   2.301   1.261  0.2646 -1.3384  3.7019
  483SOL    HW2 1449   0.184   2.347   1.138 -0.5790  2.5357 -1.9112
  484SOL     OW 1450   1.759   1.130   1.364 -0.1261  0.0281  0.2701
  484SOL    HW1 1451   1.812   1.045   1.397 -0.2575 -1.3966 -1.4468
  484SOL    HW2 1452   1.785   1.218   1.407 -0.0897 -1.6991 -0.7171
  485SOL     OW 1453   0.744   0.843   1.758  0.1354  0.5677 -0.2613
  485SOL    HW1 1454   0.720   0.884   1.665  1.4663 -0.1854 -3.7059
  485SOL    HW2 1455   0.847   0.828   1.769  0.4080  0.4767  0.3431
  486SOL     OW 1456   0.814   1.844   2.487 -0.4936  0.3175 -0.0318
  486SOL    HW1 1457   0.877   1.844   2.570  2.4956 -2.5730  1.1425
  486SOL    HW2 1458   0.780   1.934   2.456  2.3090 -1.3604 -0.4113
  487SOL     OW 1459   1.752   1.642   0.950 -0.3747  0.9477  0.2367
  487SOL    HW1 1460   1.811   1.564   0.976 -1.0539  0.6712  1.4138
  487SOL    HW2 1461   1.789   1.694   0.865 -1.2033  1.5941 -0.1415
  488SOL     OW 1462   2.937   0.873   2.253  0.0063 -0.0875 -0.7041
  488SOL    HW1 1463   2.975   0.775   2.245  0.2109 -0.2143 -0.4456
  488SOL    HW2 1464   2.937   0.913   2.348  0.3250  0.3819 -0.3161
  489SOL     OW 1465   2.849   0.342   1.275 -0.1303 -0.2321  0.3404
  489SOL    HW1 1466   2.854   0.319   1.374 -2.0926 -1.6833 -1.0355
  489SOL    HW2 1467   2.924   0.298   1.219 -1.6981 -1.0564 -0.0105
  490SOL     OW 1468   1.415   2.952   2.819 -0.2224 -0.5402 -0.5580
  490SOL    HW1 1469   1.446   2.854   2.811  3.7216  0.7826  0.8154
  490SOL    HW2 1470   1.378   2.996   2.731 -0.3903  1.3229  1.5286
  491SOL     OW 1471   1.679   1.519   2.645 -0.3622 -0.3039  0.1032
  491SOL    HW1 1472   1.607   1.476   2.696 -1.3187  2.9793 -2.6683
  491SOL    HW2 1473   1.766   1.527   2.698 -4.2150 -0.0958  0.7971
  492SOL     OW 1474   0.552   2.083   0.614  0.5238 -0.7640  0.3242
  492SOL    HW1 1475   0.601   2.073   0.703  0.7867  1.1137  2.2863
  492SOL    HW2 1476   0.489   2.170   0.611 -0.1823 -0.9057 -0.3907
  493SOL     OW 1477   0.439   1.396   2.068  0.1122  0.2844 -0.6313
  493SOL    HW1 1478   0.355   1.442   2.042  0.7335 -1.2270  1.2443
  493SOL    HW2 1479   0.422   1.294   2.095 -1.2039  0.0064  1.3991
  494SOL     OW 1480   2.715   2.652   0.072  0.0813  0.7598 -0.5700
  494SOL    HW1 1481   2.719   2.623   0.172 -0.9957  1.9616  2.1861
  494SOL    HW2 1482   2.622   2.682   0.036  0.6403  3.3756 -0.6572
  495SOL     OW 1483   2.580   2.732   2.643  0.5069 -0.1895 -0.2458
  495SOL    HW1 1484   2.552   2.636   2.604  2.1324  0.8993 -1.0568
  495SOL    HW2 1485   2.663   2.767   2.593 -0.7604 -3.2473 -0.0669
  496SOL     OW 1486   2.055   2.273   0.761  0.2613  0.1347  0.2492
  496SOL    HW1 1487   2.057   2.319   0.855  1.8721  0.8864 -1.9077
  496SOL    HW2 1488   2.052   2.168   0.765 -0.4736 -1.5906  0.9043
  497SOL     OW 1489   0.192   2.996   2.350 -0.0703 -0.0625 -0.6921
  497SOL    HW1 1490   0.154   3.046   2.436 -1.6184 -1.8358 -1.4633
  497SOL    HW2 1491   0.221   3.059   2.273 -2.8722  1.1400 -0.8360
  498SOL     OW 1492   1.213   1.330   1.248 -0.1248 -0.1302 -0.7211
  498SOL    HW1 1493   1.319   1.334   1.247 -1.4902  0.9038  1.7127
  498SOL    HW2 1494   1.180   1.405   1.315  0.9373 -2.0963  1.7741
  499SOL     OW 1495   0.618   1.772   0.311 -0.2616 -0.3891  0.6702
  499SOL    HW1 1496   0.647   1.689   0.246  0.8071 -1.2897 -0.4374
  499SOL    HW2 1497   0.702   1.820   0.347  1.6317  0.4763  3.2199
  500SOL     OW 1498   1.382   2.882   1.670 -0.2618  0.5353 -0.4500
  500SOL    HW1 1499   1.320   2.833   1.733  0.6109 -2.4491  1.3422
  500SOL    HW2 1500   1.433   2.805   1.621 -1.2817 -1.0680  1.6485
  501SOL     OW 1501   0.794   1.134   2.279 -0.0097 -0.3188 -0.5267
  501SOL    HW1 1502   0.717   1.076   2.267  1.0777  0.1847 -2.2548
  501SOL    HW2 1503   0.855   1.137   2.190  2.6869 -1.6222 -1.7423
  502SOL     OW 1504   2.572   0.932   1.737  0.2695 -0.0853 -0.4363
  502SOL    HW1 1505   2.590   0.947   1.634  1.4142  0.6824 -0.2550
  502SOL    HW2 1506   2.574   0.831   1.769  1.2957  1.2854  0.6994
  503SOL     OW 1507   1.344   0.154   0.601  0.4658 -0.3498  0.2195
  503SOL    HW1 1508   1.296   0.247   0.617 -0.6920 -0.5615 -0.3784
  503SOL    HW2 1509   1.436   0.152   0.655  0.0523 -1.6023  2.3380
  504SOL     OW 1510   2.988   2.338   1.486 -0.0153 -0.4149 -0.3022
  504SOL    HW1 1511   2.934   2.411   1.535 -0.8432 -0.3206 -1.1017
  504SOL    HW2 1512   3.078   2.308   1.530 -0.1645  1.7662  0.5829
  505SOL     OW 1513   2.275   1.187   1.415  0.6343  0.2879 -0.1806
  505SOL    HW1 1514   2.239   1.213   1.316 -2.0729  0.9107 -0.1320
  505SOL    HW2 1515   2.362   1.237   1.446 -2.1834 -0.3563 -1.3965
  506SOL     OW 1516   1.947   0.202   1.827 -0.1351 -0.0100  0.1754
  506SOL    HW1 1517   2.020   0.137   1.858  1.0282  2.0422 -0.6806
  506SOL    HW2 1518   1.963   0.301   1.858  3.1625 -2.0806  1.0773
  507SOL     OW 1519   0.595   0.691   2.143  0.0201 -0.5050 -0.3798
  507SOL    HW1 1520   0.521   0.660   2.080 -0.4986  1.5394 -1.1944
  507SOL    HW2 1521   0.678   0.633   2.143 -2.9828  3.2689  0.4758
  508SOL     OW 1522   0.317   1.669   0.743  0.3642  0.1704 -0.6904
  508SOL    HW1 1523   0.366   1.736   0.676 -1.1662  1.0001 -1.8112
  508SOL    HW2 1524   0.279   1.712   0.833 -1.2050  1.3432  0.8089
  509SOL     OW 1525   1.288   1.181   2.418  0.4588 -0.1608 -0.2434
  509SOL    HW1 1526   1.310   1.153   2.314  1.5371 -1.8603 -1.9859
  509SOL    HW2 1527   1.194   1.154   2.442  1.7000  1.5925  1.1482
  510SOL     OW 1528   1.271   2.119   2.217  0.0491 -0.2519  0.1931
  510SOL    HW1 1529   1.283   2.134   2.116 -0.3373  3.4298  1.8359
  510SOL    HW2 1530   1.208   2.050   2.246  1.2152  2.5920 -0.7481
  511SOL     OW 1531   3.008   2.681   1.279  0.2503 -0.6121  0.6599
  511SOL    HW1 1532   2.967   2.673   1.187 -0.7160  0.3892  1.3646
  511SOL    HW2 1533   2.937   2.696   1.355 -0.6849 -0.2129 -4.5329
  512SOL     OW 1534   2.433   0.434   1.371  0.1608 -0.0141  0.2061
  512SOL    HW1 1535   2.328   0.439   1.348 -0.5619  0.5572 -2.3941
  512SOL    HW2 1536   2.485   0.385   1.296 -3.0290  0.9560 -0.3824
  513SOL     OW 1537   2.603   2.108   0.928 -0.4722 -0.1749 -0.2638
  513SOL    HW1 1538   2.577   2.182   0.860 -0.1928 -0.7947  0.1772
  513SOL    HW2 1539   2.685   2.060   0.899 -2.3297 -0.3943  0.1702
  514SOL     OW 1540   0.671   2.772   0.445  0.2465  0.1864  0.6799
  514SOL    HW1 1541   0.684   2.838   0.369 -1.9007 -0.4239 -1.8782
  514SOL    HW2 1542   0.726   2.790   0.531  0.4002  1.6820  0.2392
  515SOL     OW 1543   1.917   1.322   2.397  0.0642 -0.2273 -0.3190
  515SOL    HW1 1544   1.936   1.273   2.306  0.9626 -2.4746  1.1065
  515SOL    HW2 1545   1.819   1.314   2.425  2.0127  0.9095  1.4889
  516SOL     OW 1546   0.287   0.289   1.879 -0.2058 -0.0215  0.0276
  516SOL    HW1 1547   0.384   0.252   1.880  2.1232 -3.1869  0.2760
  516SOL    HW2 1548   0.234   0.256   1.794 -0.8645  0.5826  2.1251
  517SOL     OW 1549   0.487   0.124   1.123  0.0745 -0.2300  0.1436
  517SOL    HW1 1550   0.490   0.172   1.217 -1.0194 -4.9508 -0.5826
  517SOL    HW2 1551   0.440   0.028   1.125 -2.5270  1.3855 -0.4548
  518SOL     OW 1552   2.155   3.096   1.832 -0.3669 -0.7581  0.7240
  518SOL    HW1 1553   2.237   3.168   1.830  1.1864 -0.7349 -3.6858
  518SOL    HW2 1554   2.146   3.055   1.736 -0.7292 -0.1959 -2.4350
  519SOL     OW 1555   2.324   2.109   2.472  0.5130 -0.2352  0.1858
  519SOL    HW1 1556   2.262   2.091   2.557 -0.0804 -1.3142  0.1352
  519SOL    HW2 1557   2.332   2.213   2.438  2.5511  0.3907  0.2884
  520SOL     OW 1558   1.832   2.689   1.736 -0.0005  0.3089  0.0881
  520SOL    HW1 1559   1.778   2.625   1.787  1.0335 -0.2746 -1.9818
  520SOL    HW2 1560   1.909   2.638   1.685 -0.2271 -0.1511  0.3961
  521SOL     OW 1561   0.557   3.076   2.058 -0.1962 -0.3425  0.1191
  521SOL    HW1 1562   0.455   3.080   2.070  0.0298 -0.2691  0.7826
  521SOL    HW2 1563   0.614   3.077   2.149  2.7210  2.3403 -0.2274
  522SOL     OW 1564   0.165   1.830   1.575 -0.0729 -0.2201  0.3757
  522SOL    HW1 1565   0.226   1.895   1.625 -2.0198 -1.9086 -1.7340
  522SOL    HW2 1566   0.141   1.875   1.486 -0.6540 -2.2289 -0.2061
  523SOL     OW 1567   2.176   2.963   1.585  0.0633  0.3751  0.2919
  523SOL    HW1 1568   2.265   2.911   1.582  0.8279  1.7357  0.6004
  523SOL    HW2 1569   2.092   2.920   1.546  3.0397  2.1318 -1.1866
  524SOL     OW 1570   0.200   2.777   2.837 -0.1775  0.0335 -0.1408
  524SOL    HW1 1571   0.147   2.866   2.835  0.0570 -3.4957 -0.8789
  524SOL    HW2 1572   0.301   2.792   2.815  0.9806  0.2142 -0.1249
  525SOL     OW 1573   2.219   2.029   0.395  1.0840 -0.5207  0.2018
  525SOL    HW1 1574   2.191   1.991   0.489 -1.4079 -0.6084  1.1086
  525SOL    HW2 1575   2.250   1.961   0.328 -3.5189  2.6161 -0.2655
  526SOL     OW 1576   0.464   1.486   1.753  0.2714 -0.4649 -0.6734
  526SOL    HW1 1577   0.538   1.537   1.804  1.6807 -1.6336  1.6307
  526SOL    HW2 1578   0.446   1.394   1.790  1.3063 -0.4457  2.8027
  527SOL     OW 1579   1.093   2.888   1.147 -0.4244 -0.2236 -0.5152
  527SOL    HW1 1580   1.152   2.827   1.210  0.1132 -1.2759  0.3882
  527SOL    HW2 1581   1.136   2.982   1.152 -0.6975  1.0360  0.3061
  528SOL     OW 1582   1.359   2.345   0.532 -0.2946  0.2599 -0.2099
  528SOL    HW1 1583   1.400   2.253   0.538  0.3444 -0.6963 -0.3703
  528SOL    HW2 1584   1.423   2.418   0.573 -0.2888 -1.9705 -1.6466
  529SOL     OW 1585   1.920   1.778   0.748 -0.1036 -0.1833 -0.4831
  529SOL    HW1 1586   1.851   1.780   0.669 -1.0185  0.4159  0.3070
  529SOL    HW2 1587   1.939   1.872   0.792  0.8931 -0.0732 -2.2632
  530SOL     OW 1588   0.400   2.564   0.169  0.3529  1.1252 -0.2471
  530SOL    HW1 1589   0.376   2.616   0.254  2.5388  0.7487 -1.5681
  530SOL    HW2 1590   0.439   2.466   0.183  2.5051 -0.0782  1.0993
  531SOL     OW 1591   1.868   0.984   1.093 -0.0105  0.3710 -0.4735
  531SOL    HW1 1592   1.873   0.916   1.011  0.6851  0.2557  0.1533
  531SOL    HW2 1593   1.789   0.963   1.156  1.7597  0.6869 -1.5851
  532SOL     OW 1594   0.354   1.172   0.722  0.7435 -0.1837 -0.2254
  532SOL    HW1 1595   0.396   1.131   0.638 -2.7727  0.9096 -0.4468
  532SOL    HW2 1596   0.313   1.097   0.780  1.4404  1.1782  1.6746
  533SOL     OW 1597   1.745   0.006   2.582 -0.4760  0.2756  0.0519
  533SOL    HW1 1598   1.849  -0.013   2.598  1.2739 -1.0190 -0.6294
  533SOL    HW2 1599   1.709   0.079   2.646 -2.3900  1.4171  1.2731
  534SOL     OW 1600   0.264   0.211   1.480  0.2326  0.0774 -0.4058
  534SOL    HW1 1601   0.347   0.226   1.421 -1.0477  1.7729  0.4600
  534SOL    HW2 1602   0.226   0.301   1.513  2.7909 -1.6074 -1.9389
  535SOL     OW 1603   1.880   0.363   0.225  0.9041  0.3157  0.2878
  535SOL    HW1 1604   1.906   0.435   0.292  1.5335  4.7253  1.1445
  535SOL    HW2 1605   1.806   0.297   0.253 -1.6154  0.2648  0.6506
  536SOL     OW 1606   1.369   2.603   0.924  0.0130 -0.4162 -0.1691
  536SOL    HW1 1607   1.401   2.524   0.977  0.9008  0.3099  1.8672
  536SOL    HW2 1608   1.268   2.593   0.893  0.2538 -0.8697 -0.7603
  537SOL     OW 1609   0.862   0.210   2.335 -0.6263 -0.2051  0.0053
  537SOL    HW1 1610   0.883   0.229   2.235  0.9747  0.0739  1.5939
  537SOL    HW2 1611   0.761   0.217   2.363  0.5249 -0.3187  2.0554
  538SOL     OW 1612   1.667   2.315   1.502  0.1851 -0.2905  0.8120
  538SOL    HW1 1613   1.636   2.237   1.442  0.3028  1.2159 -3.4620
  538SOL    HW2 1614   1.745   2.366   1.458 -0.5127 -0.0135 -1.7845
  539SOL     OW 1615   0.216   1.628   2.682  0.0521  0.7116  0.1229
  539SOL    HW1 1616   0.131   1.594   2.637  3.4824  1.9075  2.3009
  539SOL    HW2 1617   0.241   1.728   2.672  1.6344  0.1835  1.5596
  540SOL     OW 1618   2.746   1.685   1.965 -0.3327  0.4298  0.3058
  540SOL    HW1 1619   2.672   1.613   1.968 -0.9437  1.0136 -0.0165
  540SOL    HW2 1620   2.721   1.784   1.964  0.6407  0.6713 -0.5538
  541SOL     OW 1621   0.474   2.336   3.089 -0.0126  0.6395 -1.1653
  541SOL    HW1 1622   0.520   2.275   3.158  0.6854 -0.0563 -0.3463
  541SOL    HW2 1623   0.379   2.299   3.069  4.2995 -2.4008  1.9384
  542SOL     OW 1624   2.242   2.584   0.438  0.2166  0.3561 -0.3225
  542SOL    HW1 1625   2.224   2.670   0.386  1.0145  0.0491 -1.0337
  542SOL    HW2 1626   2.158   2.539   0.487 -0.1215  0.8123  0.3206
  543SOL     OW 1627   0.997   1.738   1.694 -0.0445 -0.2150 -0.6673
  543SOL    HW1 1628   0.989   1.766   1.793  0.9013 -1.8441  0.3320
  543SOL    HW2 1629   0.934   1.786   1.627  1.2253  1.2449  1.2775
  544SOL     OW 1630   0.958   0.369   0.210  0.3847 -0.1139  0.1756
  544SOL    HW1 1631   0.981   0.268   0.224  3.9855 -1.0144 -0.3886
  544SOL    HW2 1632   0.940   0.386   0.109  0.1686 -0.4138 -2.4007
  545SOL     OW 1633   1.110   1.703   0.689  0.0678  0.1557  0.6399
  545SOL    HW1 1634   1.172   1.776   0.726 -1.9757 -0.8534  0.7542
  545SOL    HW2 1635   1.110   1.699   0.586 -0.4458  0.4210  1.5154
  546SOL     OW 1636   2.601   1.560   3.032  0.1403 -0.3077  0.0245
  546SOL    HW1 1637   2.530   1.587   2.966  0.5640 -2.0366  2.1392
  546SOL    HW2 1638   2.556   1.497   3.107 -0.5191 -1.4848  2.7965
  547SOL     OW 1639   0.564   0.040   2.729  0.3109  0.1894 -0.5548
  547SOL    HW1 1640   0.617  -0.038   2.680 -1.1456 -1.6636  0.6362
  547SOL    HW2 1641   0.488  -0.007   2.780  2.5733  3.7082 -1.0610
  548SOL     OW 1642   2.033   0.827   3.065 -0.0466  0.3528  0.0100
  548SOL    HW1 1643   1.943   0.801   3.020 -0.9852  3.3211  0.7672
  548SOL    HW2 1644   2.049   0.934   3.062  0.3372  0.9898  0.3088
  549SOL     OW 1645   0.692   0.585   0.191 -0.0385  0.1959 -0.0769
  549SOL    HW1 1646   0.630   0.650   0.141  2.5705 -0.0436  2.0029
  549SOL    HW2 1647   0.773   0.633   0.233 -0.6290  2.8519  0.7199
  550SOL     OW 1648   2.493   2.849   2.874 -0.1827 -0.4254  0.3730
  550SOL    HW1 1649   2.494   2.789   2.956 -2.1614 -1.4268  0.9235
  550SOL    HW2 1650   2.502   2.787   2.793  0.0665  1.9311  1.0306
  551SOL     OW 1651   0.293   0.890   0.214 -0.1725 -0.1226 -0.1924
  551SOL    HW1 1652   0.390   0.880   0.179  0.5579 -1.4862  0.0111
  551SOL    HW2 1653   0.291   0.865   0.313  2.4787 -2.9275 -2.2419
  552SOL     OW 1654   0.743   2.913   1.868 -0.9188 -0.2912 -0.2742
  552SOL    HW1 1655   0.719   2.937   1.961  2.5411  0.0616 -0.7971
  552SOL    HW2 1656   0.840   2.946   1.846 -1.5165 -3.6997  2.2338
  553SOL     OW 1657   0.037   2.510   0.391 -0.2728  0.0106  0.2036
  553SOL    HW1 1658  -0.019   2.424   0.390 -2.4323  2.5230 -1.2466
  553SOL    HW2 1659  -0.026   2.593   0.407 -0.7354 -1.1938  2.2495
  554SOL     OW 1660   2.192   0.340   0.579 -0.4555  0.4840  0.0529
  554SOL    HW1 1661   2.227   0.316   0.482  0.8002 -0.9574 -1.6507
  554SOL    HW2 1662   2.208   0.268   0.650  0.9765  0.5196  0.3910
  555SOL     OW 1663   0.426   2.899   2.501  0.4699 -0.1855  0.2907
  555SOL    HW1 1664   0.346   2.946   2.451  0.0792  1.2685 -3.2464
  555SOL    HW2 1665   0.490   2.844   2.441 -0.7626 -0.8962 -0.1378
  556SOL     OW 1666   0.867   2.398   1.606 -0.7734  0.1936 -0.4650
  556SOL    HW1 1667   0.898   2.465   1.683  0.3517  0.3004  0.6094
  556SOL    HW2 1668   0.938   2.385   1.530 -0.1944 -0.1873  0.4996
  557SOL     OW 1669   0.102   2.083   0.151  0.1064 -0.2181  0.3472
  557SOL    HW1 1670   0.031   2.014   0.120 -1.3181  1.6097  1.7155
  557SOL    HW2 1671   0.140   2.136   0.067 -0.7537 -3.0634 -3.9391
  558SOL     OW 1672   2.943   2.327   0.320  0.0669  0.4185 -0.3624
  558SOL    HW1 1673   2.843   2.341   0.340 -0.1985  0.6512 -1.6740
  558SOL    HW2 1674   2.958   2.329   0.217  0.8054  1.4631  0.0183
  559SOL     OW 1675   0.388   2.299   1.341 -0.1296 -0.0437  0.0781
  559SOL    HW1 1676   0.296   2.288   1.299  0.0302 -0.7678 -1.2372
  559SOL    HW2 1677   0.452   2.218   1.316 -1.5811 -0.2446  0.1423
  560SOL     OW 1678   2.082   1.105   3.070 -0.2574 -0.1337  0.5420
  560SOL    HW1 1679   2.014   1.151   3.132 -1.7502  0.6494 -2.6214
  560SOL    HW2 1680   2.176   1.149   3.081 -0.4800  1.3533  0.8564
  561SOL     OW 1681   3.001   1.899   0.038  0.1941 -0.3177  0.0809
  561SOL    HW1 1682   2.942   1.813   0.067 -3.1640  0.6506  1.4747
  561SOL    HW2 1683   2.940   1.975   0.003 -3.0861 -0.7329  1.5018
  562SOL     OW 1684   0.952   2.196   2.339  0.0103  0.5595 -0.6225
  562SOL    HW1 1685   0.855   2.174   2.352  0.0912  0.3931 -1.8650
  562SOL    HW2 1686   1.003   2.216   2.431 -1.8736  1.0990  0.8182
  563SOL     OW 1687   0.705   2.471   2.580  0.3791  0.4418 -0.1787
  563SOL    HW1 1688   0.781   2.415   2.628  1.6442  2.8581 -0.1277
  563SOL    HW2 1689   0.670   2.547   2.638 -0.0466 -3.7405 -0.2113
  564SOL     OW 1690   2.753   1.301   2.907 -0.1923 -0.4315 -0.3847
  564SOL    HW1 1691   2.670   1.293   2.973  0.7875 -2.4969  1.5724
  564SOL    HW2 1692   2.785   1.400   2.893 -0.0335  0.5010 -0.6460
  565SOL     OW 1693   2.545   1.990   2.573 -0.1320  0.3578 -0.0252
  565SOL    HW1 1694   2.469   2.051   2.532  0.4101  0.6930 -1.9802
  565SOL    HW2 1695   2.586   2.026   2.664 -1.8200 -0.7379  1.3205
  566SOL     OW 1696   1.991   2.857   1.393 -0.3427 -0.2967  0.6219
  566SOL    HW1 1697   1.918   2.797   1.357 -1.4441 -0.2663  0.8232
  566SOL    HW2 1698   2.082   2.847   1.344  0.4630 -1.0239 -0.0486
  567SOL     OW 1699   2.489   0.093   2.273 -0.3896 -0.6484 -0.9314
  567SOL    HW1 1700   2.463   0.188   2.304  2.2178  2.2578 -1.3464
  567SOL    HW2 1701   2.452   0.080   2.178  0.5463  1.2935  1.3692
  568SOL     OW 1702   1.531   1.767   0.230  0.2169 -0.0915 -0.2320
  568SOL    HW1 1703   1.484   1.847   0.187  0.5138 -3.5707 -1.7327
  568SOL    HW2 1704   1.621   1.786   0.278  1.0449 -0.0769 -1.4462
  569SOL     OW 1705   0.282   0.630   0.869  0.1217  0.2334  0.3079
  569SOL    HW1 1706   0.336   0.560   0.809 -0.9964 -1.5807  0.4907
  569SOL    HW2 1707   0.177   0.607   0.869 -0.7591  0.1333 -1.4709
  570SOL     OW 1708   0.672   0.744   2.838 -0.4837  0.1191  0.2419
  570SOL    HW1 1709   0.728   0.749   2.752 -1.1886 -0.1767  2.1490
  570SOL    HW2 1710   0.666   0.837   2.887  0.9198  1.0906 -1.6694
  571SOL     OW 1711   0.827   3.054   1.086 -0.5894  0.4101 -0.2156
  571SOL    HW1 1712   0.881   3.064   1.000 -1.3711  1.2836 -2.3416
  571SOL    HW2 1713   0.834   2.960   1.135 -1.7034 -0.1322  0.2097
  572SOL     OW 1714   1.604   2.620   1.193  0.3481 -0.0866  0.5759
  572SOL    HW1 1715   1.515   2.573   1.229 -0.9460 -2.4361  0.4810
  572SOL    HW2 1716   1.584   2.705   1.135 -2.4567  1.3839 -1.3664
  573SOL     OW 1717   2.923   0.439   2.032  0.8600  0.0963 -0.3654
  573SOL    HW1 1718   2.871   0.349   2.045 -1.6628 -1.2558 -0.2494
  573SOL    HW2 1719   2.863   0.516   1.999  1.5890 -0.4448 -0.1247
  574SOL     OW 1720   0.204   1.757   0.980 -0.3115 -0.3335  0.3896
  574SOL    HW1 1721   0.164   1.849   0.954 -0.9791  0.5678  2.7540
  574SOL    HW2 1722   0.143   1.710   1.052 -1.4476 -2.1426 -0.7508
  575SOL     OW 1723   0.889   2.123   0.999  0.2915 -0.3176  0.0979
  575SOL    HW1 1724   0.865   2.162   1.092  1.0362 -1.1107  1.9457
  575SOL    HW2 1725   0.923   2.199   0.937  0.7293  0.5967  0.5985
  576SOL     OW 1726   2.935   2.949   1.657 -0.0104  0.4568 -0.3143
  576SOL    HW1 1727   2.842   2.923   1.625  1.6091  2.7401 -1.6585
  576SOL    HW2 1728   2.947   3.052   1.641 -3.9788  0.1204 -2.2601
  577SOL     OW 1729   2.539   1.218   3.080 -0.1101  0.1596  0.6631
  577SOL    HW1 1730   2.558   1.127   3.028  0.1845 -0.1247 -1.2774
  577SOL    HW2 1731   2.600   1.223   3.165 -0.6334 -0.8921 -2.1141
  578SOL     OW 1732   1.339   2.691   2.577 -0.0729  0.3912 -0.5182
  578SOL    HW1 1733   1.252   2.738   2.541 -2.6655 -0.1932  0.1038
  578SOL    HW2 1734   1.418   2.737   2.531 -0.8340  3.1513 -0.5954
  579SOL     OW 1735   0.103   2.493   0.102 -0.7183 -0.3240 -0.0426
  579SOL    HW1 1736   0.072   2.492   0.200  0.7967 -1.4198 -1.9628
  579SOL    HW2 1737   0.199   2.523   0.085 -0.7977  1.4703 -0.8196
  580SOL     OW 1738   1.025   2.619   0.392 -0.4605  0.2884  0.1638
  580SOL    HW1 1739   1.110   2.656   0.345  0.5085  1.0906 -0.4258
  580SOL    HW2 1740   0.952   2.576   0.331  0.1858  2.3027  0.6155
  581SOL     OW 1741   1.255   2.586   1.523  0.4571 -0.0090 -0.2508
  581SOL    HW1 1742   1.307   2.497   1.542  2.0283  1.0498  1.9705
  581SOL    HW2 1743   1.308   2.663   1.479  0.2655 -1.3893  0.9385
  582SOL     OW 1744   1.508   0.094   1.820  0.1402 -0.1804  0.2023
  582SOL    HW1 1745   1.533   0.174   1.886 -0.4597  0.3289  1.0605
  582SOL    HW2 1746   1.594   0.071   1.764 -2.1197 -0.2472  1.0350
  583SOL     OW 1747   2.511   2.993   0.516  0.4937  0.3914 -0.6291
  583SOL    HW1 1748   2.515   2.910   0.454  0.8115  1.1294 -2.1849
  583SOL    HW2 1749   2.444   2.966   0.593  2.3415  2.4706 -1.8372
  584SOL     OW 1750   1.611   0.975   2.092 -0.2467 -0.3657  0.0570
  584SOL    HW1 1751   1.663   1.053   2.050  1.9182 -1.4259 -2.9699
  584SOL    HW2 1752   1.668   0.920   2.157 -1.2952  1.7056  0.0874
  585SOL     OW 1753   2.087   2.686   2.956  0.2131 -0.1235  0.1183
  585SOL    HW1 1754   2.140   2.613   2.910 -2.2225  1.0740  0.1828
  585SOL    HW2 1755   1.993   2.694   2.909 -2.8311 -0.6118  0.0585
  586SOL     OW 1756   2.734   0.238   1.564  0.2456  0.0060  0.3427
  586SOL    HW1 1757   2.742   0.331   1.610  2.7243  0.0462  1.2273
  586SOL    HW2 1758   2.646   0.192   1.573  1.0351  0.4661 -1.3204
  587SOL     OW 1759   1.929   1.547   2.747 -0.3296 -0.6131  0.4666
  587SOL    HW1 1760   1.986   1.495   2.680  0.6913  2.4508  0.5933
  587SOL    HW2 1761   1.985   1.571   2.833 -1.6081  0.8164 -0.7045
  588SOL     OW 1762   0.483   2.754   2.261  0.4772  0.2342  0.3567
  588SOL    HW1 1763   0.411   2.794   2.204  0.5072  1.2534  0.1231
  588SOL    HW2 1764   0.460   2.662   2.301 -1.8198  1.4221 -0.7235
  589SOL     OW 1765   2.105   1.440   2.565 -0.1750 -0.5027 -0.2265
  589SOL    HW1 1766   2.049   1.386   2.496  3.3547 -0.7175  0.2211
  589SOL    HW2 1767   2.196   1.392   2.581  1.2531 -0.1734  0.2018
  590SOL     OW 1768   2.328   1.651   2.041  0.4814 -0.5510 -0.6011
  590SOL    HW1 1769   2.417   1.601   2.022  0.3119 -0.7508  1.8536
  590SOL    HW2 1770   2.318   1.685   2.138 -1.3647 -0.9430 -0.0870
  591SOL     OW 1771   1.331   2.392   0.262 -0.4825 -0.1641  0.3152
  591SOL    HW1 1772   1.432   2.390   0.242 -0.4188 -2.0624  0.3228
  591SOL    HW2 1773   1.315   2.359   0.359  0.4805 -0.7257 -0.5009
  592SOL     OW 1774   1.755   2.329   0.771  0.0726 -0.5643 -0.4378
  592SOL    HW1 1775   1.734   2.375   0.682  0.4432  0.0221 -1.9509
  592SOL    HW2 1776   1.850   2.288   0.764 -1.0272 -0.1061  0.0064
  593SOL     OW 1777   0.660   0.287   0.116  0.4064  0.4970  0.0667
  593SOL    HW1 1778   0.743   0.260   0.065  1.1062  0.6098 -1.3494
  593SOL    HW2 1779   0.643   0.388   0.101 -0.0666 -0.5524  1.2602
  594SOL     OW 1780   0.966   1.820   2.712  0.0556 -0.0490 -0.1299
  594SOL    HW1 1781   1.065   1.834   2.730  0.7254 -0.3413  0.9662
  594SOL    HW2 1782   0.909   1.899   2.749  0.6266 -0.3333  0.0832
  595SOL     OW 1783   1.514   0.067   1.017  0.8749  0.3374  0.0132
  595SOL    HW1 1784   1.598   0.010   1.040 -1.6448  0.3996  2.8625
  595SOL    HW2 1785   1.446   0.015   0.959 -0.8822  2.0905 -0.1302
  596SOL     OW 1786   3.069   1.486   2.239 -0.0455 -0.0808  0.2281
  596SOL    HW1 1787   2.970   1.480   2.233 -1.1358  1.0755  0.9824
  596SOL    HW2 1788   3.104   1.538   2.323 -2.3438 -1.5708  0.9146
  597SOL     OW 1789   2.047   2.580   1.611 -0.2277 -0.7451 -0.6789
  597SOL    HW1 1790   2.045   2.510   1.534  1.2360  0.3218  1.1134
  597SOL    HW2 1791   2.146   2.599   1.649  1.1148  1.0435 -1.0738
  598SOL     OW 1792   2.465   2.959   1.332  0.5597  0.1820 -0.2403
  598SOL    HW1 1793   2.564   2.982   1.366  1.1651  0.0693  1.6918
  598SOL    HW2 1794   2.462   2.934   1.229  0.0741  2.1187  0.0123
  599SOL     OW 1795   2.930   0.425   2.493  0.2613 -0.0922  0.1675
  599SOL    HW1 1796   2.967   0.514   2.462 -0.1834 -1.1087  1.1944
  599SOL    HW2 1797   2.828   0.421   2.465 -2.1461  0.2450  1.6368
  600SOL     OW 1798   2.802   1.121   2.714 -0.2027  0.2904 -0.2298
  600SOL    HW1 1799   2.725   1.133   2.647 -2.2009  0.0810 -1.3949
  600SOL    HW2 1800   2.783   1.172   2.805 -1.2596  1.5944  1.8127
  601SOL     OW 1801   2.984   1.252   1.923 -0.4512  0.2006 -0.6902
  601SOL    HW1 1802   2.922   1.312   1.865  0.5496 -1.3806 -0.1649
  601SOL    HW2 1803   3.071   1.295   1.965  1.0009 -0.7060  2.0012
  602SOL     OW 1804   1.416   1.697   2.365  0.4927  0.0821 -0.3261
  602SOL    HW1 1805   1.372   1.603   2.346  0.1231 -0.1260  0.2781
  602SOL    HW2 1806   1.517   1.686   2.375 -3.0487 -0.9555 -1.7927
  603SOL     OW 1807   0.629   1.235   2.729  0.4219 -0.3199 -0.6302
  603SOL    HW1 1808   0.538   1.213   2.678 -0.8663 -3.6957  0.8620
  603SOL    HW2 1809   0.705   1.168   2.704  1.0938  1.5931  0.6574
  604SOL     OW 1810   2.422   1.014   0.158  0.2324  0.2698 -0.3944
  604SOL    HW1 1811   2.484   1.072   0.105  0.3628 -2.5331  2.3644
  604SOL    HW2 1812   2.397   0.927   0.101 -3.0909  0.1014  1.1194
  605SOL     OW 1813   2.598   1.164   1.896 -1.0889 -0.0959 -0.3672
  605SOL    HW1 1814   2.603   1.067   1.871  0.3017  1.9213  0.1810
  605SOL    HW2 1815   2.624   1.180   1.995 -2.3018 -1.9395 -1.4418
  606SOL     OW 1816   1.520   2.482   2.667 -0.6151 -0.0525  0.3436
  606SOL    HW1 1817   1.428   2.517   2.626 -3.6245 -0.0660 -1.1309
  606SOL    HW2 1818   1.530   2.381   2.650  0.5926  1.7365  0.1863
  607SOL     OW 1819   1.393   1.644   0.438 -0.2263  0.2549  0.4281
  607SOL    HW1 1820   1.331   1.714   0.480  0.3663 -2.2807 -0.3170
  607SOL    HW2 1821   1.431   1.679   0.350 -0.9752 -0.9861  0.0835
  608SOL     OW 1822   1.451   2.838   0.389 -0.1771  0.5041  0.0446
  608SOL    HW1 1823   1.530   2.901   0.361  0.1528  1.2005 -1.9392
  608SOL    HW2 1824   1.370   2.892   0.427  0.5321  2.5117 -0.4446
  609SOL     OW 1825   1.317   1.405   0.266 -0.0347  0.0685 -0.0492
  609SOL    HW1 1826   1.323   1.488   0.337 -2.2906  0.0941  0.8264
  609SOL    HW2 1827   1.281   1.437   0.175  0.9279 -0.5345  2.1783
  610SOL     OW 1828   3.013   1.146   2.211 -0.2966 -0.2408  0.4166
  610SOL    HW1 1829   3.013   1.041   2.202 -0.0095  1.5865  0.6796
  610SOL    HW2 1830   2.976   1.192   2.126  1.3839  0.8819  0.8167
  611SOL     OW 1831   2.608   0.300   1.140  0.3550  0.3233 -0.5060
  611SOL    HW1 1832   2.534   0.231   1.170 -0.2785 -0.5477  0.5316
  611SOL    HW2 1833   2.693   0.296   1.198 -0.4945 -3.1301  0.8695
  612SOL     OW 1834   0.765   2.220   1.238  0.3993  0.1764 -0.6292
  612SOL    HW1 1835   0.697   2.170   1.296  1.2113  0.9931  0.3063
  612SOL    HW2 1836   0.733   2.314   1.211 -1.5103  0.8333 -0.6106
  613SOL     OW 1837   0.822   1.436   2.411 -0.4296  0.1596 -0.2191
  613SOL    HW1 1838   0.865   1.447   2.318  1.0382 -0.7561  0.6613
  613SOL    HW2 1839   0.719   1.426   2.406 -0.2038 -0.0446 -1.9693
  614SOL     OW 1840   1.615   1.650   1.940 -0.3412  0.0333  0.1751
  614SOL    HW1 1841   1.542   1.699   1.998  0.3789  0.6146  1.7404
  614SOL    HW2 1842   1.700   1.630   1.996 -0.6883 -0.1920 -0.8878
  615SOL     OW 1843   0.803   1.299   1.699  0.1217 -0.2703  0.5722
  615SOL    HW1 1844   0.726   1.264   1.638 -1.7541  1.2178 -0.2189
  615SOL    HW2 1845   0.846   1.376   1.648  0.1617  2.8915 -0.0255
  616SOL     OW 1846   1.053   1.619   2.344  0.0907  0.3620 -0.1763
  616SOL    HW1 1847   1.006   1.590   2.255  0.2848 -1.2885 -3.1978
  616SOL    HW2 1848   1.060   1.721   2.345 -0.4856  2.0438  1.1050
  617SOL     OW 1849   2.943   1.542   1.598  0.3692  0.3275 -0.4063
  617SOL    HW1 1850   2.906   1.459   1.647  1.0214  0.6880  3.6302
  617SOL    HW2 1851   2.968   1.525   1.494  0.4240  0.0290 -0.8655
  618SOL     OW 1852   1.948   2.022   1.333 -0.3423 -0.7280  0.7198
  618SOL    HW1 1853   1.941   2.074   1.244 -1.0638 -1.2181  1.5934
  618SOL    HW2 1854   1.918   1.926   1.324  1.3358  0.0585  2.0941
  619SOL     OW 1855   1.761   0.452   2.346 -0.1401 -0.6485 -0.2626
  619SOL    HW1 1856   1.680   0.497   2.295  1.9618  0.9415 -1.0162
  619SOL    HW2 1857   1.731   0.353   2.366  0.5208 -0.4962 -0.6298
  620SOL     OW 1858   2.338   2.958   0.710 -0.4135 -0.6531 -0.4472
  620SOL    HW1 1859   2.279   3.039   0.732 -0.4281  3.4383  0.0096
  620SOL    HW2 1860   2.324   2.875   0.771 -1.6018  0.1890  0.3096
  621SOL     OW 1861   2.136   1.779   1.312  0.4406 -0.2475  0.4000
  621SOL    HW1 1862   2.116   1.795   1.416 -2.5968 -0.9493  1.4996
  621SOL    HW2 1863   2.093   1.690   1.281  0.9688  3.2678 -0.1339
  622SOL     OW 1864   2.259   0.883   1.774  0.0847  0.4694 -0.1568
  622SOL    HW1 1865   2.358   0.884   1.748  0.0672 -2.6879  2.6841
  622SOL    HW2 1866   2.241   0.817   1.856 -1.1155 -1.8072  1.0958
  623SOL     OW 1867   1.322   0.803   2.585 -0.0274  0.5903  0.3621
  623SOL    HW1 1868   1.298   0.718   2.636 -1.1592  0.2294  0.5502
  623SOL    HW2 1869   1.248   0.818   2.515 -1.5143 -2.3440  1.6495
  624SOL     OW 1870   0.518   0.715   3.082  0.0139 -0.1542 -0.4657
  624SOL    HW1 1871   0.594   0.708   3.013  1.2063  1.3446  1.4274
  624SOL    HW2 1872   0.537   0.794   3.143 -2.9713  3.9270 -2.3733
  625SOL     OW 1873   2.815   1.722   1.024  0.0038 -0.7103  0.2462
  625SOL    HW1 1874   2.716   1.753   1.004 -0.2194 -1.6759  0.2167
  625SOL    HW2 1875   2.865   1.792   1.079 -1.9117 -1.1633 -1.6864
  626SOL     OW 1876   0.592   2.709   1.731 -0.0928  0.9420  0.3826
  626SOL    HW1 1877   0.636   2.797   1.765  1.3185  2.8035 -0.3189
  626SOL    HW2 1878   0.490   2.706   1.744  0.0041 -2.0024  2.3780
  627SOL     OW 1879   0.692   0.961   1.530  0.7392  0.7059  0.0921
  627SOL    HW1 1880   0.653   0.917   1.440 -1.5306  1.2420 -3.1587
  627SOL    HW2 1881   0.766   1.026   1.505 -0.8876  0.6900 -2.3848
  628SOL     OW 1882   2.494   0.122   0.670 -0.1263 -0.1803  0.4255
  628SOL    HW1 1883   2.532   0.047   0.603 -1.9853 -0.5075 -0.7227
  628SOL    HW2 1884   2.396   0.096   0.694 -1.3747 -3.6214  2.6013
  629SOL     OW 1885   1.989   0.908   2.017  0.3249  0.2414 -0.6199
  629SOL    HW1 1886   2.035   0.949   1.933  1.3478 -1.2020 -0.2182
  629SOL    HW2 1887   1.969   0.981   2.084 -0.5983  1.5841 -1.7229
  630SOL     OW 1888   2.945   2.303   0.808 -0.7928 -0.1033  0.2780
  630SOL    HW1 1889   2.882   2.377   0.838  2.0168  3.1184 -2.0240
  630SOL    HW2 1890   2.898   2.212   0.787 -1.0782  0.7123 -1.6367
  631SOL     OW 1891   3.056   0.192   2.146 -0.3370 -0.3981 -0.2803
  631SOL    HW1 1892   3.098   0.203   2.243 -0.6503  2.2748  0.5869
  631SOL    HW2 1893   3.079   0.272   2.088  0.7797  0.1619 -1.0442
  632SOL     OW 1894   2.428   2.573   0.644 -0.7845 -0.2497 -0.1359
  632SOL    HW1 1895   2.418   2.643   0.722  1.4830 -1.0396 -0.5811
  632SOL    HW2 1896   2.349   2.575   0.576  2.1923  1.2796  2.7036
  633SOL     OW 1897   1.419   1.220   2.653 -0.3871 -0.1500  0.0496
  633SOL    HW1 1898   1.412   1.312   2.696 -1.5238 -0.8628 -0.5789
  633SOL    HW2 1899   1.370   1.221   2.561  0.8389 -3.2096  1.8113
  634SOL     OW 1900   0.672   2.026   0.847  0.5750  0.4719 -0.0613
  634SOL    HW1 1901   0.588   2.019   0.910 -1.4402  1.4046 -1.0524
  634SOL    HW2 1902   0.750   2.082   0.888 -0.1767  3.6175 -0.5102
  635SOL     OW 1903   2.992   2.339   0.041 -0.2520  0.0769 -0.3231
  635SOL    HW1 1904   2.922   2.385  -0.017 -1.2097  0.3364 -1.2083
  635SOL    HW2 1905   3.075   2.400   0.058  0.2682  0.7099 -0.3699
  636SOL     OW 1906   2.331   2.756   1.949 -0.6502 -0.3123  0.9344
  636SOL    HW1 1907   2.365   2.848   1.983  1.4565  0.3990  1.8716
  636SOL    HW2 1908   2.268   2.709   2.018  2.2879  1.4126  1.1844
  637SOL     OW 1909   2.718   0.618   1.970 -0.3313  0.0766  0.4614
  637SOL    HW1 1910   2.632   0.628   1.907 -3.5458  1.1069 -1.2474
  637SOL    HW2 1911   2.742   0.705   2.016 -0.5028 -1.2645  0.2192
  638SOL     OW 1912   2.410   1.814   1.300  0.3483 -0.0346 -0.4263
  638SOL    HW1 1913   2.311   1.819   1.334  1.7578  3.1180 -0.2820
  638SOL    HW2 1914   2.473   1.779   1.370  0.5580  0.7371 -2.3954
  639SOL     OW 1915   1.305   2.095   1.703 -0.0982 -0.4639  0.7017
  639SOL    HW1 1916   1.318   2.195   1.674  1.5499 -1.2163 -0.1268
  639SOL    HW2 1917   1.214   2.079   1.751  2.1730  2.1817 -0.0626
  640SOL     OW 1918   0.218   1.183   1.559 -0.3551 -0.1356  0.4276
  640SOL    HW1 1919   0.208   1.186   1.663  1.6203 -2.6640 -1.0560
  640SOL    HW2 1920   0.300   1.126   1.522 -2.6990  1.5483 -1.3618
  641SOL     OW 1921   1.998   0.256   1.501  0.5035 -0.5017  0.8762
  641SOL    HW1 1922   1.944   0.212   1.577  0.5595 -0.5579  1.5215
  641SOL    HW2 1923   2.088   0.212   1.487 -1.8014 -3.1897 -2.8215
  642SOL     OW 1924   2.021   3.095   0.330  0.0819 -0.4016  0.0753
  642SOL    HW1 1925   2.114   3.126   0.363  0.4105 -2.7882  0.1007
  642SOL    HW2 1926   1.968   3.037   0.398 -1.1302 -0.0231  0.2151
  643SOL     OW 1927   2.935   1.787   2.138  0.3282  0.2412  0.4462
  643SOL    HW1 1928   2.895   1.728   2.059 -2.5305  0.4090 -0.2278
  643SOL    HW2 1929   2.959   1.887   2.113  0.4951 -1.9271 -1.1680
  644SOL     OW 1930   2.205   2.403   1.200 -0.5067 -0.6852 -0.0649
  644SOL    HW1 1931   2.288   2.369   1.150  0.5351  1.1048  0.5490
  644SOL    HW2 1932   2.207   2.390   1.303 -1.0229 -2.0062 -0.6028
  645SOL     OW 1933   0.609   0.851   1.294  0.5049 -0.3449  0.1308
  645SOL    HW1 1934   0.517   0.799   1.277  0.8837 -0.5999 -0.0556
  645SOL    HW2 1935   0.642   0.895   1.205 -2.1660 -2.7262 -3.5187
  646SOL     OW 1936   1.412   1.822   2.072 -0.0437  0.4465  0.6313
  646SOL    HW1 1937   1.437   1.919   2.048 -1.1029  0.7952  0.5454
  646SOL    HW2 1938   1.365   1.815   2.165  1.4280 -0.3746  1.1204
  647SOL     OW 1939   0.785   1.031   0.668  0.3563  0.3597  0.4604
  647SOL    HW1 1940   0.825   1.071   0.749 -2.5778 -1.1985 -1.8276
  647SOL    HW2 1941   0.710   0.965   0.691  2.0184 -1.4434 -1.1276
  648SOL     OW 1942   0.140   0.257   0.265 -0.6151  0.1215 -0.0231
  648SOL    HW1 1943   0.201   0.232   0.191 -0.9125  0.0148  1.4301
  648SOL    HW2 1944   0.120   0.359   0.269  0.2497 -0.5902  1.4491
  649SOL     OW 1945   3.021   0.242   0.857  0.3378  0.3333 -0.2769
  649SOL    HW1 1946   3.112   0.189   0.864  1.5236 -2.1118 -0.6682
  649SOL    HW2 1947   3.035   0.344   0.851 -0.0852  1.2845  0.7816
  650SOL     OW 1948   2.745   0.666   1.506  0.6491  0.7317  0.3199
  650SOL    HW1 1949   2.641   0.665   1.499 -0.0387 -2.7216 -0.0741
  650SOL    HW2 1950   2.786   0.756   1.469 -0.0888  0.7660 -0.5435
  651SOL     OW 1951   0.926   1.510   1.554 -0.1676 -0.4106 -1.0360
  651SOL    HW1 1952   0.968   1.561   1.636 -1.5718  1.4887  1.4664
  651SOL    HW2 1953   0.953   1.542   1.460  0.1302 -2.0747  0.0716
  652SOL     OW 1954   2.362   2.377   2.408  0.4159  0.4985 -0.1421
  652SOL    HW1 1955   2.267   2.414   2.400  0.3810  0.8495  0.2589
  652SOL    HW2 1956   2.435   2.443   2.378  1.1288 -0.4658 -0.4203
  653SOL     OW 1957   2.660   1.218   0.230 -0.1526  0.0440  0.1816
  653SOL    HW1 1958   2.694   1.311   0.265  1.0023 -0.6289  0.0155
  653SOL    HW2 1959   2.735   1.142   0.240  1.4812  0.7455  0.6438
  654SOL     OW 1960   1.261   2.249   1.283 -0.3635 -0.0453 -0.5123
  654SOL    HW1 1961   1.260   2.163   1.349 -0.2162 -0.3639  0.1266
  654SOL    HW2 1962   1.313   2.235   1.195  0.3505 -1.3172  0.6822
  655SOL     OW 1963   0.142   0.930   1.852 -0.3374  0.1914  0.3046
  655SOL    HW1 1964   0.205   0.872   1.789  1.7611 -0.5444  0.4914
  655SOL    HW2 1965   0.185   1.022   1.873  1.3611 -0.7395 -0.2476
  656SOL     OW 1966   2.557   2.435   2.603  0.7224 -0.1715 -0.2815
  656SOL    HW1 1967   2.647   2.413   2.555  2.6883 -1.9615 -1.3561
  656SOL    HW2 1968   2.477   2.388   2.555  0.4692  3.1126 -2.2745
  657SOL     OW 1969   2.982   0.985   1.927  0.2270  0.3993 -0.0041
  657SOL    HW1 1970   2.982   1.091   1.919 -1.7889 -1.3246 -1.5778
  657SOL    HW2 1971   3.076   0.950   1.912 -1.8616 -0.6939  1.0777
  658SOL     OW 1972   1.699   0.180   2.371 -0.1482  0.1926 -0.2770
  658SOL    HW1 1973   1.718   0.095   2.433  0.7985 -0.3513 -1.7718
  658SOL    HW2 1974   1.756   0.183   2.287 -0.0938  1.1703 -0.2764
  659SOL     OW 1975   1.387   0.634   2.832  0.0748 -0.0743  0.5462
  659SOL    HW1 1976   1.442   0.725   2.853  1.2407  2.6667  0.1077
  659SOL    HW2 1977   1.289   0.644   2.861 -0.4401 -0.5593 -3.1229
  660SOL     OW 1978   1.410   0.345   1.450  0.7399  0.5588 -0.3284
  660SOL    HW1 1979   1.411   0.356   1.554 -0.6126  0.3191  1.6338
  660SOL    HW2 1980   1.495   0.290   1.421  2.6222  1.5017 -0.3654
  661SOL     OW 1981   2.328   1.205   0.670  0.0378 -0.0064 -0.4976
  661SOL    HW1 1982   2.364   1.206   0.573 -1.6923 -0.0197  0.1695
  661SOL    HW2 1983   2.335   1.299   0.723 -0.8013 -0.6819  1.9241
  662SOL     OW 1984   1.372   0.390   1.716  0.1040 -0.5223 -0.1748
  662SOL    HW1 1985   1.306   0.322   1.757 -1.3270  0.9612  0.5358
  662SOL    HW2 1986   1.368   0.487   1.755  0.8795  1.1140  0.4788
  663SOL     OW 1987   0.869   1.558   2.141 -0.5563 -0.2474  0.9148
  663SOL    HW1 1988   0.796   1.596   2.191  1.6620 -1.6656 -3.7255
  663SOL    HW2 1989   0.843   1.511   2.052  0.2334 -0.7016  0.5916
  664SOL     OW 1990   1.619   2.075   1.377 -0.2931 -0.4509 -0.5291
  664SOL    HW1 1991   1.562   2.031   1.451 -2.0028 -3.2375 -1.3100
  664SOL    HW2 1992   1.718   2.039   1.380 -1.9965  1.8927  1.1668
  665SOL     OW 1993   2.247   0.708   1.985 -0.3766 -0.2160  0.3190
  665SOL    HW1 1994   2.154   0.675   2.006 -0.7258  0.0757  2.0073
  665SOL    HW2 1995   2.313   0.704   2.065 -0.3524 -0.2730  0.7823
  666SOL     OW 1996   0.486   2.325   0.316 -0.8258  0.2063  0.0856
  666SOL    HW1 1997   0.532   2.397   0.374  2.9107  1.0589 -0.4065
  666SOL    HW2 1998   0.397   2.291   0.359  0.0772 -0.1506  1.5414
  667SOL     OW 1999   2.042   0.189   1.102  0.6539 -0.2967  0.3784
  667SOL    HW1 2000   2.053   0.294   1.100  2.9183  0.2202  0.7295
  667SOL    HW2 2001   1.975   0.153   1.173 -0.4996  1.2960  0.7658
  668SOL     OW 2002   2.052   0.467   1.154  0.1648 -0.0742 -0.8435
  668SOL    HW1 2003   2.120   0.479   1.069 -0.4489  1.2828 -1.7367
  668SOL    HW2 2004   2.097   0.485   1.247  1.9096 -0.8147  0.3270
  669SOL     OW 2005   3.081   2.127   0.999 -0.4327  0.0062  0.3782
  669SOL    HW1 2006   3.036   2.198   0.934 -0.9598 -0.4567  0.3329
  669SOL    HW2 2007   3.131   2.174   1.077 -1.1248  0.1870 -3.0209
  670SOL     OW 2008   2.886   2.323   2.081 -0.1463  0.3654 -0.2835
  670SOL    HW1 2009   2.810   2.292   2.142  2.6486  1.3301 -2.3545
  670SOL    HW2 2010   2.882   2.426   2.052  1.8619 -0.0604 -1.9110
  671SOL     OW 2011   1.745   1.793   1.449 -0.2517 -0.5382 -0.0863
  671SOL    HW1 2012   1.740   1.761   1.352 -2.6933  1.3510  1.3185
  671SOL    HW2 2013   1.654   1.810   1.495 -0.4237 -1.8264  0.4087
  672SOL     OW 2014   0.432   0.618   2.381  0.0246 -0.5266 -0.0850
  672SOL    HW1 2015   0.445   0.624   2.277  0.9057 -0.6688  0.3053
  672SOL    HW2 2016   0.356   0.679   2.410 -1.0950 -1.7826  0.9195
  673SOL     OW 2017   0.154   1.206   1.155 -0.1078  0.1839 -0.0944
  673SOL    HW1 2018   0.167   1.269   1.237 -0.6020 -0.3865  0.7742
  673SOL    HW2 2019   0.244   1.173   1.115 -2.2568  0.9502 -0.8137
  674SOL     OW 2020   1.679   3.006   0.319  0.1767  0.2242 -0.0913
  674SOL    HW1 2021   1.633   3.097   0.339  1.0730  3.5313  0.8208
  674SOL    HW2 2022   1.739   3.012   0.238 -1.3852 -0.2024 -0.4240
  675SOL     OW 2023   1.737   0.808   2.271  0.0260  0.1303  0.5645
  675SOL    HW1 2024   1.840   0.794   2.275  1.5387 -1.9474  0.6717
  675SOL    HW2 2025   1.686   0.715   2.258  0.3003 -0.6820  0.5526
  676SOL     OW 2026   2.544   1.489   1.930 -0.1662  0.1544 -0.1631
  676SOL    HW1 2027   2.492   1.452   1.847  2.9281  1.5122  1.3379
  676SOL    HW2 2028   2.553   1.419   2.004  2.9708  0.4029  1.5487
  677SOL     OW 2029   1.900   0.682   0.932 -0.5902 -0.6230  0.0426
  677SOL    HW1 2030   1.795   0.662   0.953 -4.2061  0.4350 -0.8334
  677SOL    HW2 2031   1.966   0.612   0.978 -0.0893 -1.5059 -1.2938
  678SOL     OW 2032   0.070   0.737   1.619  0.0945 -0.1645  0.3773
  678SOL    HW1 2033   0.170   0.743   1.643 -1.5636 -1.6232 -0.0369
  678SOL    HW2 2034   0.010   0.709   1.701  0.2414 -0.3901  1.0206
  679SOL     OW 2035   2.517   1.220   1.222  0.1473  0.5177  0.0642
  679SOL    HW1 2036   2.429   1.258   1.190 -0.0972  0.8074  0.4041
  679SOL    HW2 2037   2.537   1.121   1.194  2.9231  0.3487  0.2644
  680SOL     OW 2038   2.811   0.482   1.703 -0.1979  0.8497 -0.0543
  680SOL    HW1 2039   2.791   0.561   1.630  0.3251  1.3029 -0.9215
  680SOL    HW2 2040   2.882   0.519   1.768 -0.1700 -0.5572 -0.7099
  681SOL     OW 2041   2.974   0.122   1.597 -0.3174  0.0296 -0.2478
  681SOL    HW1 2042   3.027   0.099   1.507  1.8606 -2.3777 -1.3090
  681SOL    HW2 2043   2.880   0.172   1.572  0.9866  2.7968 -0.5794
  682SOL     OW 2044   0.756   0.067   1.327  0.5999 -0.0706 -0.5485
  682SOL    HW1 2045   0.698  -0.012   1.363 -1.6913 -2.2664 -0.8482
  682SOL    HW2 2046   0.784   0.043   1.226  1.4060 -1.3567 -2.6249
  683SOL     OW 2047   1.382   0.226   2.186 -0.7732  0.0337 -0.0992
  683SOL    HW1 2048   1.408   0.288   2.269  0.1754 -1.2838  2.2603
  683SOL    HW2 2049   1.457   0.213   2.111  1.9806  2.4056 -0.1450
  684SOL     OW 2050   1.483   2.063   0.469  0.5840  0.5323  0.0195
  684SOL    HW1 2051   1.521   2.007   0.551  0.4660 -0.7384 -2.1867
  684SOL    HW2 2052   1.405   2.018   0.421  0.8355 -2.3892  0.9814
  685SOL     OW 2053   2.178   2.088   1.925 -0.7832 -0.6253  0.1770
  685SOL    HW1 2054   2.253   2.063   1.856 -0.8721 -1.4327 -1.0394
  685SOL    HW2 2055   2.206   2.069   2.024  0.0551 -1.9523 -4.2158
  686SOL     OW 2056   1.499   1.852   2.767  0.3602  0.3228 -0.2028
  686SOL    HW1 2057   1.548   1.794   2.838  0.9862  0.4629 -0.9000
  686SOL    HW2 2058   1.431   1.805   2.707  2.4310  0.1535  0.3215
  687SOL     OW 2059   1.353   2.477   1.958 -0.3016 -0.0865 -0.2798
  687SOL    HW1 2060   1.374   2.378   1.973  3.1068 -0.3400 -1.5947
  687SOL    HW2 2061   1.364   2.533   2.047  0.9015  1.6077 -1.1214
  688SOL     OW 2062   2.007   1.508   1.779 -0.0304 -0.4897  0.0358
  688SOL    HW1 2063   2.082   1.576   1.802 -3.2407  3.0035  1.3114
  688SOL    HW2 2064   2.000   1.479   1.677  3.5355  0.8281 -1.1810
  689SOL     OW 2065   2.391   1.066   2.798 -0.0815  0.0395 -0.0177
  689SOL    HW1 2066   2.310   1.027   2.848 -1.1338  1.1375 -2.8747
  689SOL    HW2 2067   2.479   1.044   2.848 -0.8785  2.9003  0.3958
  690SOL     OW 2068   2.233   2.822   0.068  0.6171  0.0225  0.3066
  690SOL    HW1 2069   2.156   2.781   0.004 -3.2824 -0.8484 -2.8105
  690SOL    HW2 2070   2.192   2.851   0.161  1.4496 -1.1796  0.5860
  691SOL     OW 2071   2.622   0.409   2.133 -0.5830  0.3014  0.6301
  691SOL    HW1 2072   2.677   0.320   2.114 -0.4943 -3.3287 -1.5547
  691SOL    HW2 2073   2.653   0.477   2.065 -1.8495 -1.4365 -1.3281
  692SOL     OW 2074   2.694   1.255   0.744  0.3002  0.6577 -0.1523
  692SOL    HW1 2075   2.632   1.281   0.668  0.4098  2.3479 -1.0473
  692SOL    HW2 2076   2.765   1.327   0.768 -2.1966 -0.7720  4.0495
  693SOL     OW 2077   2.825   2.914   0.648  0.4264 -0.3401  0.2244
  693SOL    HW1 2078   2.823   2.993   0.716 -0.9600  2.2771 -1.5808
  693SOL    HW2 2079   2.814   2.951   0.551  0.5134  1.2985  0.8359
  694SOL     OW 2080   2.408   2.225   0.082  0.2383 -0.7304  0.3116
  694SOL    HW1 2081   2.394   2.314   0.128  2.1443 -2.2538  1.6982
  694SOL    HW2 2082   2.322   2.170   0.070 -2.1812  1.7793 -2.9991
  695SOL     OW 2083   0.553   2.997   1.486 -0.5748 -0.3159 -0.2810
  695SOL    HW1 2084   0.498   2.915   1.453 -0.5012  0.6745 -0.6956
  695SOL    HW2 2085   0.519   3.029   1.576  0.1925  0.1699  0.0799
  696SOL     OW 2086   2.829   2.070   0.726  0.2746  0.1626 -0.3574
  696SOL    HW1 2087   2.889   1.984   0.734 -0.5838 -0.5593 -2.0362
  696SOL    HW2 2088   2.788   2.076   0.632  0.7891  0.6074 -1.6570
  697SOL     OW 2089   1.589   1.991   1.852 -0.1477  0.1996  0.2310
  697SOL    HW1 2090   1.644   1.903   1.863 -0.6451 -4.0302  0.2733
  697SOL    HW2 2091   1.638   2.069   1.801  0.5321  1.0691  0.4099
  698SOL     OW 2092   2.936   0.393   2.768  0.2721 -0.3097  0.0913
  698SOL    HW1 2093   2.939   0.380   2.667 -1.8000  1.0035  0.1188
  698SOL    HW2 2094   3.006   0.347   2.832  2.6324  4.1310  0.8463
  699SOL     OW 2095   1.559   0.065   2.911  0.0343  0.0858 -0.2975
  699SOL    HW1 2096   1.499  -0.009   2.874  0.7006  2.4994  0.9738
  699SOL    HW2 2097   1.585   0.132   2.834 -0.7530  1.1059  0.3915
  700SOL     OW 2098   0.987   2.328   1.341 -0.0224 -0.4001 -0.3606
  700SOL    HW1 2099   1.080   2.286   1.325 -0.4035  1.3658  0.5052
  700SOL    HW2 2100   0.915   2.280   1.280  0.8710 -1.8093 -3.2226
  701SOL     OW 2101   1.895   2.923   3.071 -0.7866 -0.3247 -0.1334
  701SOL    HW1 2102   1.920   2.878   3.157 -1.8601 -1.6139 -0.9510
  701SOL    HW2 2103   1.883   3.025   3.074  1.8082 -0.8494 -0.9200
  702SOL     OW 2104   2.088   1.328   1.961 -0.0248 -0.5739  0.1044
  702SOL    HW1 2105   2.168   1.284   1.915  0.1150 -0.4362  1.3855
  702SOL    HW2 2106   2.040   1.408   1.909 -0.2065  0.7748  0.7286
  703SOL     OW 2107   1.942   0.916   1.449 -0.0426 -0.3641 -0.4190
  703SOL    HW1 2108   1.908   0.825   1.485 -1.2756  0.7294 -0.1773
  703SOL    HW2 2109   2.004   0.968   1.512 -2.4525 -0.0589 -0.6078
  704SOL     OW 2110   0.301   2.034   1.698 -0.0367  0.4202  0.1464
  704SOL    HW1 2111   0.319   1.985   1.789 -0.6037 -1.5142  0.2398
  704SOL    HW2 2112   0.351   2.126   1.693 -2.4848 -1.6556  1.2609
  705SOL     OW 2113   2.523   1.553   0.874 -0.0005  0.3134  0.4271
  705SOL    HW1 2114   2.433   1.531   0.835  1.3784 -0.8269  2.4779
  705SOL    HW2 2115   2.589   1.473   0.879  0.2210 -1.0794 -0.0324
  706SOL     OW 2116   0.660   1.700   1.896 -1.0048 -0.5656 -0.0265
  706SOL    HW1 2117   0.672   1.608   1.934 -0.4408 -0.1043 -1.0414
  706SOL    HW2 2118   0.702   1.775   1.955 -0.2617 -1.6978 -0.1773
  707SOL     OW 2119   2.289   1.168   1.870  0.3146 -0.2870  0.0638
  707SOL    HW1 2120   2.383   1.194   1.899  0.5703  1.5690 -2.3409
  707SOL    HW2 2121   2.288   1.071   1.832 -0.5587  0.9398 -3.0561
  708SOL     OW 2122   3.019   0.560   3.056  0.4988  0.3011  0.1226
  708SOL    HW1 2123   3.083   0.579   2.981 -0.0269 -0.8282  0.7462
  708SOL    HW2 2124   2.999   0.460   3.068  0.4134 -0.4768  0.4337
  709SOL     OW 2125   1.851   1.837   0.291  0.0275  0.0698  0.2050
  709SOL    HW1 2126   1.884   1.933   0.307 -0.9392 -2.4796  0.7927
  709SOL    HW2 2127   1.828   1.821   0.188  1.3015  1.3579  0.3660
  710SOL     OW 2128   1.675   1.613   2.377 -0.2436 -0.0279  0.3685
  710SOL    HW1 2129   1.755   1.601   2.314 -1.3435  0.1445 -1.9443
  710SOL    HW2 2130   1.694   1.579   2.475 -1.3277  0.2882  1.3340
  711SOL     OW 2131   2.580   2.935   1.056 -0.7480 -0.5829 -0.3234
  711SOL    HW1 2132   2.563   3.022   1.004  0.5066 -2.3690 -2.2155
  711SOL    HW2 2133   2.675   2.929   1.086 -0.8968  0.9619 -0.6902
  712SOL     OW 2134   1.377   2.189   1.957  0.0854  0.2501 -0.3240
  712SOL    HW1 2135   1.475   2.204   1.997  1.4679 -1.7813  2.6080
  712SOL    HW2 2136   1.376   2.112   1.885  1.6709  0.1220 -2.1681
  713SOL     OW 2137   2.812   1.439   2.519  0.3551 -0.4274  0.2990
  713SOL    HW1 2138   2.812   1.348   2.469  0.9829 -1.8893 -0.4023
  713SOL    HW2 2139   2.741   1.447   2.593  0.3847  1.5356  0.5394
  714SOL     OW 2140   2.670   0.459   2.386  0.1495  0.3529 -0.0535
  714SOL    HW1 2141   2.577   0.443   2.434 -2.7168  0.3666  0.9289
  714SOL    HW2 2142   2.664   0.440   2.282  1.8721  0.6530 -1.2889
  715SOL     OW 2143   1.555   2.015   1.109  0.1964  0.1912  0.2227
  715SOL    HW1 2144   1.475   2.069   1.064 -0.5550  2.2697 -0.2810
  715SOL    HW2 2145   1.563   2.037   1.208  0.1885  1.0196 -1.3240
  716SOL     OW 2146   1.173   0.155   1.503 -0.6132 -0.0466 -0.4165
  716SOL    HW1 2147   1.090   0.180   1.439  4.4510  2.1492  0.5908
  716SOL    HW2 2148   1.248   0.228   1.498 -0.2515  0.4038 -0.2794
  717SOL     OW 2149   1.177   0.570   1.539  0.1197 -0.3218  0.0202
  717SOL    HW1 2150   1.269   0.612   1.564 -2.7573 -0.0913 -1.8994
  717SOL    HW2 2151   1.169   0.523   1.448 -0.0505  3.5664 -0.2517
  718SOL     OW 2152   0.692   0.884   0.996  0.0989  0.3431  0.0285
  718SOL    HW1 2153   0.632   0.882   0.910 -1.3795  2.1094  0.6682
  718SOL    HW2 2154   0.716   0.984   1.024 -1.7512 -1.4549  1.2461
  719SOL     OW 2155   0.649   1.692   2.348 -0.2639  0.0989 -0.2525
  719SOL    HW1 2156   0.717   1.729   2.414 -0.7874 -0.7302  2.2128
  719SOL    HW2 2157   0.551   1.670   2.389 -3.1096  0.2345  2.3321
  720SOL     OW 2158   2.175   1.116   0.291 -0.3945  0.0914  0.5813
  720SOL    HW1 2159   2.239   1.036   0.256  1.6839  0.6911  0.2261
  720SOL    HW2 2160   2.142   1.100   0.393  0.0164  0.0865  0.6608
  721SOL     OW 2161   2.296   3.013   2.063  0.2117 -0.2717 -0.1107
  721SOL    HW1 2162   2.226   3.044   1.994  0.7141  1.7008 -0.4228
  721SOL    HW2 2163   2.264   2.988   2.161 -2.6909 -0.8964  1.5041
  722SOL     OW 2164   2.273   1.588   0.510  0.0768 -0.1560 -0.0191
  722SOL    HW1 2165   2.345   1.585   0.437 -1.2123  1.9294 -2.2115
  722SOL    HW2 2166   2.184   1.619   0.471 -1.6311 -0.8616 -0.2554
  723SOL     OW 2167   2.608   2.727   1.893 -0.6381  0.4229  0.0389
  723SOL    HW1 2168   2.645   2.796   1.962  0.9932  2.5903 -0.6233
  723SOL    HW2 2169   2.510   2.701   1.913 -1.0074  2.4183  0.3296
  724SOL     OW 2170   0.498   2.492   2.401  0.3809 -0.1897 -0.1845
  724SOL    HW1 2171   0.407   2.507   2.449 -0.8571 -1.3331 -0.3505
  724SOL    HW2 2172   0.570   2.449   2.462 -1.6145  2.3902  2.8079
  725SOL     OW 2173   2.337   2.753   1.476 -0.3127  0.4080  0.1074
  725SOL    HW1 2174   2.407   2.827   1.447  2.5580  3.2380 -0.5808
  725SOL    HW2 2175   2.380   2.663   1.504  0.3620 -1.0391  0.6564
  726SOL     OW 2176   2.521   2.346   0.728  0.2467 -0.1801  0.2676
  726SOL    HW1 2177   2.487   2.444   0.711  1.7699  3.4699 -1.6009
  726SOL    HW2 2178   2.491   2.284   0.647  3.2744  2.1502  0.5562
  727SOL     OW 2179   0.157   3.055   0.067 -0.5608  0.3148 -0.4421
  727SOL    HW1 2180   0.195   2.958   0.044  0.2402 -1.2655 -2.4624
  727SOL    HW2 2181   0.092   3.090  -0.003  0.7662  0.6520 -0.7829
  728SOL     OW 2182   2.919   0.656   0.925 -0.1078  0.1590  0.5998
  728SOL    HW1 2183   2.861   0.631   0.842  0.8893 -1.3932  0.4439
  728SOL    HW2 2184   2.884   0.624   1.016  2.8346 -1.1606 -0.3736
  729SOL     OW 2185   3.068   2.546   0.712 -0.0331  0.3775 -0.0924
  729SOL    HW1 2186   3.021   2.460   0.749 -1.5640 -0.4556 -1.2263
  729SOL    HW2 2187   3.156   2.520   0.676 -1.4025  0.8638 -0.4048
  730SOL     OW 2188   2.623   0.696   0.859  0.3610  0.3951 -0.1126
  730SOL    HW1 2189   2.614   0.796   0.869 -1.3695 -1.8843  0.8183
  730SOL    HW2 2190   2.663   0.672   0.767 -0.0653  0.6528  0.9085
  731SOL     OW 2191   0.007   2.127   2.412 -0.3455 -0.5192  0.1218
  731SOL    HW1 2192   0.064   2.206   2.448 -0.0483 -1.0168  1.5200
  731SOL    HW2 2193  -0.095   2.145   2.403  0.0365 -0.5682 -4.2180
  732SOL     OW 2194   1.227   2.826   1.974  0.4835  0.2991 -0.3402
  732SOL    HW1 2195   1.262   2.783   2.062 -1.0789 -0.5324  1.0538
  732SOL    HW2 2196   1.200   2.750   1.909 -2.4537  0.7410 -2.3917
  733SOL     OW 2197   3.004   0.618   2.230  0.0330 -0.3632  0.1452
  733SOL    HW1 2198   3.101   0.601   2.255  2.9243 -0.4090 -1.2056
  733SOL    HW2 2199   2.974   0.543   2.163 -0.1774  1.4704 -1.3639
  734SOL     OW 2200   1.407   0.380   2.708  0.1998  0.4652 -0.2602
  734SOL    HW1 2201   1.405   0.480   2.738  1.2093 -1.3630  1.1829
  734SOL    HW2 2202   1.317   0.327   2.723  1.4649 -1.4435 -0.4062
  735SOL     OW 2203   2.889   2.637   2.310 -0.2292 -0.0634  0.0795
  735SOL    HW1 2204   2.847   2.613   2.218  0.3773  0.7693 -0.4072
  735SOL    HW2 2205   2.970   2.693   2.291 -3.1214  0.6358 -0.6364
  736SOL     OW 2206   0.887   0.370   2.572 -0.4716 -0.2996 -0.1480
  736SOL    HW1 2207   0.796   0.412   2.596 -3.0950 -3.5071 -1.9646
  736SOL    HW2 2208   0.890   0.341   2.469 -3.7398  0.3842 -1.2657
  737SOL     OW 2209   2.640   0.438   2.827 -0.5765 -0.2538  0.5924
  737SOL    HW1 2210   2.613   0.391   2.916  0.4234  2.8847  0.9834
  737SOL    HW2 2211   2.745   0.432   2.816  0.2567 -0.8928  3.3664
  738SOL     OW 2212   1.676   1.247   2.899 -0.4141  0.1339  0.3985
  738SOL    HW1 2213   1.780   1.238   2.877  0.9184 -0.9037 -2.0711
  738SOL    HW2 2214   1.616   1.178   2.847 -0.9115 -1.9115 -1.2625
  739SOL     OW 2215   1.754   0.728   0.687 -0.1571 -0.3870  0.5118
  739SOL    HW1 2216   1.809   0.729   0.773 -0.0852  0.7359 -1.3024
  739SOL    HW2 2217   1.771   0.640   0.636 -0.9112  0.7989  3.0829
  740SOL     OW 2218   1.986   1.941   2.380  0.1801 -0.3766 -0.0071
  740SOL    HW1 2219   2.038   1.859   2.427  0.1458 -0.8120  2.1501
  740SOL    HW2 2220   1.957   1.925   2.281 -2.7333  1.6465  0.9288
  741SOL     OW 2221   2.567   0.141   2.544 -0.2765 -0.8009  0.7231
  741SOL    HW1 2222   2.670   0.127   2.560 -2.6751 -1.1162  0.6938
  741SOL    HW2 2223   2.530   0.091   2.459 -2.5253 -4.3517  2.4171
  742SOL     OW 2224   2.195   1.385   0.176  0.5741  0.0110  0.2350
  742SOL    HW1 2225   2.099   1.426   0.173  0.4733 -2.3726  1.2909
  742SOL    HW2 2226   2.184   1.309   0.246 -0.7248  1.4227  0.0758
  743SOL     OW 2227   1.781   0.611   2.596  0.5416  0.3079 -0.4123
  743SOL    HW1 2228   1.788   0.553   2.510  1.1450 -0.2832  0.4663
  743SOL    HW2 2229   1.695   0.683   2.599 -2.3217  0.8855  1.6937
  744SOL     OW 2230   2.649   2.031   0.092 -0.6870  0.2971  0.2558
  744SOL    HW1 2231   2.592   2.113   0.119  0.4946  0.4503  0.4609
  744SOL    HW2 2232   2.641   1.950   0.155 -0.6301  5.1162 -1.7107
  745SOL     OW 2233   2.171   2.642   2.165  0.1474  0.4504  0.0953
  745SOL    HW1 2234   2.067   2.646   2.163 -1.8515 -0.0097 -0.9944
  745SOL    HW2 2235   2.223   2.699   2.238  3.2248  1.3269 -0.3266
  746SOL     OW 2236   3.090   2.633   1.706 -0.5656 -0.5250 -0.2705
  746SOL    HW1 2237   3.179   2.576   1.701 -0.4587  4.0679 -1.4161
  746SOL    HW2 2238   3.096   2.711   1.774  1.7180 -0.3408 -1.2824
  747SOL     OW 2239   3.075   1.740   1.737  0.2894 -0.1235  0.8763
  747SOL    HW1 2240   3.004   1.681   1.693  1.5017  0.4263 -1.4575
  747SOL    HW2 2241   3.149   1.774   1.666  0.6912  0.9166 -1.1232
  748SOL     OW 2242   1.816   2.714   2.895  0.4405  0.1551 -0.0914
  748SOL    HW1 2243   1.820   2.799   2.953  0.1993 -1.5487  2.1425
  748SOL    HW2 2244   1.716   2.695   2.872  1.7518  3.0899  0.8281
  749SOL     OW 2245   1.353   3.010   0.859 -0.0265 -0.5899 -0.2823
  749SOL    HW1 2246   1.263   2.962   0.856  0.1440  2.1219 -1.9094
  749SOL    HW2 2247   1.417   2.979   0.773  2.5131 -1.9475 -0.9415
  750SOL     OW 2248   2.318   0.200   1.847  0.3331 -0.2849  0.1017
  750SOL    HW1 2249   2.322   0.245   1.757  1.2383 -1.3101  1.7864
  750SOL    HW2 2250   2.323   0.260   1.935 -2.5559  0.0332  1.2383
  751SOL     OW 2251   0.825   2.029   2.819  0.6639  0.6630 -0.4873
  751SOL    HW1 2252   0.883   2.008   2.905  0.1803 -0.3707  1.8767
  751SOL    HW2 2253   0.721   2.039   2.836  0.6100 -1.9539 -1.3136
  752SOL     OW 2254   1.328   0.801   1.262 -0.1426  0.1365 -0.3740
  752SOL    HW1 2255   1.412   0.862   1.277  1.1752  0.9086 -1.4474
  752SOL    HW2 2256   1.348   0.711   1.311 -0.9687  0.7097  0.5730
  753SOL     OW 2257   0.941   2.626   1.750 -0.1063  0.2338 -1.0822
  753SOL    HW1 2258   1.045   2.655   1.749  2.1544  0.6001 -0.1587
  753SOL    HW2 2259   0.879   2.707   1.755 -1.3705 -0.4253 -2.3453
  754SOL     OW 2260   1.154   1.177   3.000  0.0284  0.5353 -0.0681
  754SOL    HW1 2261   1.212   1.109   2.949 -1.4582  2.5713  2.5042
  754SOL    HW2 2262   1.193   1.275   3.000 -0.5836 -1.4458 -1.5337
  755SOL     OW 2263   1.991   0.502   2.229 -0.3240 -0.3006  0.2791
  755SOL    HW1 2264   2.063   0.429   2.252  0.1052 -1.4350 -0.1962
  755SOL    HW2 2265   1.907   0.492   2.287  3.4642 -1.6431  1.2377
  756SOL     OW 2266   2.586   0.977   2.966  0.0821 -0.2141 -0.0267
  756SOL    HW1 2267   2.692   0.970   2.972  2.3986 -2.7874 -3.4814
  756SOL    HW2 2268   2.536   0.887   2.983  1.8106 -0.9108 -0.2120
  757SOL     OW 2269   0.095   0.484   1.993  0.5242  0.0413 -0.3968
  757SOL    HW1 2270   0.154   0.411   1.947 -3.6640  2.0107  1.4640
  757SOL    HW2 2271  -0.006   0.453   2.003  0.2376  0.2807 -1.1219
  758SOL     OW 2272   2.249   0.135   1.473 -0.1367 -0.0641  0.1764
  758SOL    HW1 2273   2.228   0.037   1.493  0.0727  0.9729 -0.3825
  758SOL    HW2 2274   2.296   0.147   1.382 -1.4540 -0.2998  1.1796
  759SOL     OW 2275   1.670   0.118   0.052  0.5621 -0.0555  0.1838
  759SOL    HW1 2276   1.623   0.091  -0.038 -0.9001  1.2903 -1.6283
  759SOL    HW2 2277   1.773   0.100   0.052 -0.5545 -1.2068  1.8513
  760SOL     OW 2278   2.620   2.069   2.821  0.1919 -0.1495 -0.2451
  760SOL    HW1 2279   2.639   1.986   2.883  0.3215 -0.2872 -0.6463
  760SOL    HW2 2280   2.619   2.158   2.875  1.0520  1.6960  0.1131
  761SOL     OW 2281   1.870   1.767   1.705  0.2179  0.1601 -0.2558
  761SOL    HW1 2282   1.841   1.676   1.747  0.4535 -2.5945 -0.1658
  761SOL    HW2 2283   1.855   1.781   1.606  0.5306  0.6637 -0.6225
  762SOL     OW 2284   0.494   2.346   0.958  0.1672 -0.0591 -0.2449
  762SOL    HW1 2285   0.516   2.367   0.856  1.7179 -1.0793 -0.1249
  762SOL    HW2 2286   0.564   2.383   1.023 -0.4096  0.0794 -0.5193
  763SOL     OW 2287   2.086   1.581   2.974 -0.0586 -0.2556 -0.0912
  763SOL    HW1 2288   2.172   1.528   2.958  2.7048 -0.8093 -1.3959
  763SOL    HW2 2289   2.040   1.547   3.060  0.6581  0.1767  1.8204
  764SOL     OW 2290   0.662   0.595   0.781 -0.2993 -0.1751  0.6104
  764SOL    HW1 2291   0.587   0.527   0.788  0.7962 -0.3060  0.2113
  764SOL    HW2 2292   0.747   0.572   0.842  0.6706  0.5751  0.4304
  765SOL     OW 2293   0.745   0.229   0.796 -0.0569  0.3831 -0.0003
  765SOL    HW1 2294   0.782   0.300   0.733 -1.8126 -0.5268 -0.7747
  765SOL    HW2 2295   0.725   0.270   0.896 -2.4962 -0.5288  0.6403
  766SOL     OW 2296   2.860   2.123   3.027  0.0550 -0.2877  0.8208
  766SOL    HW1 2297   2.773   2.096   3.073 -0.1394 -2.4837  0.9638
  766SOL    HW2 2298   2.910   2.192   3.084  0.2118 -1.5937 -0.3412
  767SOL     OW 2299   2.793   1.670   0.594  0.1464  0.0070  0.0239
  767SOL    HW1 2300   2.688   1.672   0.616 -3.3130 -0.9947  0.7218
  767SOL    HW2 2301   2.856   1.717   0.659  1.6159 -1.4404  1.7542
  768SOL     OW 2302   0.956   0.098   0.216 -0.6071 -0.2959  0.2393
  768SOL    HW1 2303   0.926   0.092   0.315 -3.2796  1.6671  1.8177
  768SOL    HW2 2304   1.058   0.075   0.198 -0.5023  3.0752  0.4095
  769SOL     OW 2305   1.122   1.901   2.309 -0.2826  0.5304 -0.2528
  769SOL    HW1 2306   1.024   1.931   2.317  1.4630  1.2054 -1.1276
  769SOL    HW2 2307   1.164   1.861   2.395  1.5606 -0.2283  0.5797
  770SOL     OW 2308   0.189   1.206   2.288 -0.3022  0.1024 -0.3239
  770SOL    HW1 2309   0.184   1.236   2.390  2.1997 -0.6973 -0.3149
  770SOL    HW2 2310   0.097   1.190   2.244 -0.9937  1.1379  1.0600
  771SOL     OW 2311   3.031   2.867   1.891 -0.4207  0.3617 -0.2706
  771SOL    HW1 2312   2.995   2.891   1.795 -0.3197  1.4567  0.6183
  771SOL    HW2 2313   2.975   2.897   1.971 -2.1020 -4.5980 -1.0920
  772SOL     OW 2314   2.224   0.141   2.921 -0.3172 -0.0176 -0.1912
  772SOL    HW1 2315   2.281   0.099   2.846  1.5288 -0.6171  1.3150
  772SOL    HW2 2316   2.283   0.197   2.981 -1.2633 -1.7656 -2.6493
  773SOL     OW 2317   0.677   2.130   2.409  0.4872  0.5453  0.3561
  773SOL    HW1 2318   0.617   2.181   2.343  3.3107 -2.3073 -1.4296
  773SOL    HW2 2319   0.670   2.159   2.506  0.4369 -2.0582  1.7733
  774SOL     OW 2320   2.064   0.002   2.593 -0.0209 -0.8876 -0.2968
  774SOL    HW1 2321   2.080   0.104   2.620  0.6961  2.0562  1.6965
  774SOL    HW2 2322   2.104  -0.063   2.663  0.7237  2.2121 -1.6537
  775SOL     OW 2323   2.554   2.937   2.296 -0.6870 -0.2243  0.1702
  775SOL    HW1 2324   2.530   3.037   2.288 -0.0382 -0.9965  0.1348
  775SOL    HW2 2325   2.631   2.916   2.364 -1.5094 -0.6556 -1.9246
  776SOL     OW 2326   0.027   1.251   0.239  0.7129 -0.1647  0.2358
  776SOL    HW1 2327  -0.021   1.220   0.151  0.6356 -0.3756  1.2725
  776SOL    HW2 2328  -0.039   1.263   0.315 -0.5597 -3.7859 -1.1283
  777SOL     OW 2329   0.377   2.835   0.350 -0.2494 -0.8883  0.3799
  777SOL    HW1 2330   0.287   2.876   0.317 -2.4377 -0.6003  0.9787
  777SOL    HW2 2331   0.458   2.885   0.306  2.9788  1.6512  0.7133
  778SOL     OW 2332   1.349   1.981   0.164  0.1031 -0.2770 -0.1453
  778SOL    HW1 2333   1.263   2.011   0.219 -0.7537  1.4729  0.0020
  778SOL    HW2 2334   1.394   2.061   0.116 -2.4414 -1.3365  0.4032
  779SOL     OW 2335   0.191   0.865   0.517 -0.1397 -0.1407 -0.1807
  779SOL    HW1 2336   0.150   0.770   0.505  0.4463 -2.1331 -0.1968
  779SOL    HW2 2337   0.125   0.936   0.555  2.4453 -0.7671 -2.7682
  780SOL     OW 2338   0.088   0.260   2.385 -0.6775 -0.5511 -0.1591
  780SOL    HW1 2339   0.022   0.335   2.408  0.6560 -2.5394  1.3068
  780SOL    HW2 2340   0.182   0.293   2.357 -0.4257  0.1749 -0.4848
  781SOL     OW 2341   0.661   1.656   1.509  0.1451  0.0044 -0.4288
  781SOL    HW1 2342   0.717   1.590   1.569  0.6667  0.5881  0.2589
  781SOL    HW2 2343   0.567   1.623   1.489 -1.0856  0.2705  0.7880
  782SOL     OW 2344   2.575   0.080   0.952 -0.1964 -0.2893  0.2988
  782SOL    HW1 2345   2.542   0.088   0.853 -2.0496 -1.9924 -1.7763
  782SOL    HW2 2346   2.590   0.167   0.995 -0.4944 -3.1816  1.7373
  783SOL     OW 2347   2.796   0.704   2.489  0.1885 -0.1879  0.4149
  783SOL    HW1 2348   2.767   0.742   2.581  2.1388 -2.6265 -1.1555
  783SOL    HW2 2349   2.756   0.613   2.471 -0.3445  3.2145  0.4333
  784SOL     OW 2350   1.448   2.217   0.046 -0.0662  0.0946 -0.1097
  784SOL    HW1 2351   1.515   2.295   0.078  1.3432  4.7951  0.2350
  784SOL    HW2 2352   1.426   2.225  -0.054 -1.5750 -0.7178  2.7666
  785SOL     OW 2353   2.115   0.328   0.072 -0.0985  0.6274  0.3960
  785SOL    HW1 2354   2.024   0.337   0.121  3.4529  1.4918 -0.2364
  785SOL    HW2 2355   2.129   0.405   0.006  1.2470 -1.6686  0.6489
  786SOL     OW 2356   2.046   2.197   2.290 -0.3413  0.9063 -0.4554
  786SOL    HW1 2357   2.045   2.107   2.342  0.2950  1.3562 -2.6183
  786SOL    HW2 2358   2.106   2.179   2.201  1.9692 -3.8164 -0.6122
  787SOL     OW 2359   1.332   0.487   0.972 -0.0993  0.6073  0.6499
  787SOL    HW1 2360   1.274   0.572   0.987  1.4007 -1.2929 -2.2668
  787SOL    HW2 2361   1.380   0.492   0.878  0.8143  0.9626 -1.2581
  788SOL     OW 2362   1.266   0.429   0.094 -0.5397  0.6128  0.0218
  788SOL    HW1 2363   1.192   0.411   0.024 -1.1588 -0.2477 -0.9194
  788SOL    HW2 2364   1.249   0.501   0.160  1.2481 -1.9196  1.9263
  789SOL     OW 2365   2.547   0.078   1.950 -0.3794  0.7434  0.0629
  789SOL    HW1 2366   2.459   0.127   1.915 -2.1267 -2.0269 -1.8832
  789SOL    HW2 2367   2.542  -0.016   1.924 -1.6792 -0.3826 -0.6963
  790SOL     OW 2368   2.645   2.787   0.820  0.5217 -0.6785  0.7383
  790SOL    HW1 2369   2.699   2.834   0.743 -1.1338 -0.3043 -2.5154
  790SOL    HW2 2370   2.660   2.839   0.912 -0.0252 -1.0838 -0.1793
  791SOL     OW 2371   1.928   1.198   0.181  0.4895 -0.0344  0.1490
  791SOL    HW1 2372   1.833   1.163   0.211 -0.9880 -1.8045  0.1323
  791SOL    HW2 2373   1.999   1.133   0.214  1.6068  0.9776  0.4284
  792SOL     OW 2374   0.452   1.801   2.192 -0.0559  0.4920 -0.1340
  792SOL    HW1 2375   0.546   1.768   2.220  0.7787 -0.3104  0.8030
  792SOL    HW2 2376   0.382   1.769   2.259 -1.7879  2.0845 -2.2967
  793SOL     OW 2377   2.094   1.543   2.130 -0.1849 -0.0647 -0.4799
  793SOL    HW1 2378   2.152   1.619   2.091 -0.7826 -1.3893  2.8493
  793SOL    HW2 2379   2.105   1.458   2.076  0.3130  1.7694  0.4824
  794SOL     OW 2380   0.519   1.397   2.350 -0.1209 -0.2249  0.3171
  794SOL    HW1 2381   0.501   1.377   2.249  0.3928 -2.1707  2.2347
  794SOL    HW2 2382   0.467   1.481   2.385 -1.4481 -2.6528 -2.7676
  795SOL     OW 2383   2.499   2.247   1.847 -0.1686 -0.1512 -0.0316
  795SOL    HW1 2384   2.507   2.200   1.940  1.0962  0.9266 -0.1651
  795SOL    HW2 2385   2.428   2.205   1.783 -0.2629  0.4476  0.2766
  796SOL     OW 2386   3.073   1.127   2.693 -0.4730  0.0467  0.4520
  796SOL    HW1 2387   2.973   1.114   2.699 -0.6088  1.6134 -0.4058
  796SOL    HW2 2388   3.125   1.138   2.781 -1.5632  0.7787 -0.1221
  797SOL     OW 2389   0.755   0.644   1.400  0.4841 -0.0647  0.5027
  797SOL    HW1 2390   0.838   0.688   1.443 -0.8839  0.2734  0.5315
  797SOL    HW2 2391   0.699   0.716   1.352  2.4077  0.3914 -0.2939
  798SOL     OW 2392   1.271   0.305   1.170  0.4041 -0.1304 -0.1526
  798SOL    HW1 2393   1.346   0.272   1.236  1.8034  0.0262 -0.2547
  798SOL    HW2 2394   1.305   0.369   1.101 -2.4458 -2.2570  3.3875
  799SOL     OW 2395   1.963   2.728   1.044  0.2550  0.2959 -0.2839
  799SOL    HW1 2396   1.924   2.672   1.128 -1.5040 -0.2959 -0.4049
  799SOL    HW2 2397   1.923   2.709   0.953  0.5061  1.6535  2.4427
  800SOL     OW 2398   3.031   0.644   1.840 -0.2853  0.1878  0.0271
  800SOL    HW1 2399   3.009   0.725   1.899 -0.8679 -1.8089  0.4096
  800SOL    HW2 2400   3.101   0.581   1.886 -1.4005  2.9639  1.1044
  801SOL     OW 2401   1.985   2.235   0.089 -0.2160  0.2510 -0.2224
  801SOL    HW1 2402   1.912   2.246   0.020 -0.1445 -0.3612 -1.2011
  801SOL    HW2 2403   2.066   2.181   0.056 -1.9763  1.4706 -0.8924
  802SOL     OW 2404   0.708   0.829   2.547 -0.0397 -0.0114 -0.6032
  802SOL    HW1 2405   0.757   0.780   2.470  0.3431  0.1452 -1.6815
  802SOL    HW2 2406   0.604   0.838   2.528  0.6077 -0.8662  1.8978
  803SOL     OW 2407   0.946   0.058   0.852  0.6797 -0.1499  0.0538
  803SOL    HW1 2408   1.035   0.107   0.876 -2.4745  3.7134 -0.9157
  803SOL    HW2 2409   0.875   0.127   0.828  1.0295 -2.1597  0.5200
  804SOL     OW 2410   0.274   0.046   2.131  0.2742  0.0161  0.1397
  804SOL    HW1 2411   0.298   0.131   2.189 -0.8357  1.8338  1.0148
  804SOL    HW2 2412   0.214   0.059   2.046 -0.9800 -0.1085 -0.2271
  805SOL     OW 2413   2.387   0.267   0.360 -0.2903  0.0776  0.0672
  805SOL    HW1 2414   2.448   0.317   0.431 -1.1424 -0.9382  1.8041
  805SOL    HW2 2415   2.439   0.239   0.273  1.9253  0.5933  1.4839
  806SOL     OW 2416   0.629   2.438   1.707 -0.0214 -0.0763  0.5520
  806SOL    HW1 2417   0.619   2.541   1.724  0.8617 -0.4369  0.8068
  806SOL    HW2 2418   0.720   2.417   1.660 -1.4618 -1.2506 -1.3431
  807SOL     OW 2419   2.470   0.887   0.394  0.0128 -0.5218 -0.1322
  807SOL    HW1 2420   2.564   0.908   0.430 -0.0177 -0.7053 -1.5000
  807SOL    HW2 2421   2.449   0.935   0.300  2.6139  0.8931 -0.6103
  808SOL     OW 2422   0.555   2.049   2.930 -0.2711  0.4179 -0.4555
  808SOL    HW1 2423   0.554   2.097   3.020 -0.4593 -2.0579 -0.2102
  808SOL    HW2 2424   0.569   1.948   2.939 -2.2810  0.9050 -1.5568
  809SOL     OW 2425   2.703   1.955   1.936  0.1006  0.2336 -0.1140
  809SOL    HW1 2426   2.803   1.983   1.934 -0.5670  0.5165 -0.0414
  809SOL    HW2 2427   2.653   1.955   1.845 -2.4376 -0.6270 -0.0616
  810SOL     OW 2428   2.096   1.049   0.530 -0.3853  0.3442 -0.0035
  810SOL    HW1 2429   2.139   0.984   0.598  1.9635  1.4954 -1.4588
  810SOL    HW2 2430   2.055   1.133   0.582  0.3589  1.9986 -1.2358
  811SOL     OW 2431   1.347   2.504   1.249 -0.5088  0.1648 -0.1279
  811SOL    HW1 2432   1.311   2.408   1.273 -2.1165 -2.0394 -1.8843
  811SOL    HW2 2433   1.271   2.574   1.246  2.5104  1.0558 -0.9798
  812SOL     OW 2434   1.420   0.816   1.933  0.0616  0.1737  0.8312
  812SOL    HW1 2435   1.494   0.847   1.997 -2.7969 -1.4866  1.7125
  812SOL    HW2 2436   1.349   0.892   1.944  2.2391 -1.0592 -0.8855
  813SOL     OW 2437   1.739   2.059   2.497 -0.6411 -0.3192  0.7751
  813SOL    HW1 2438   1.830   2.015   2.471  0.9745  0.7202 -0.6147
  813SOL    HW2 2439   1.682   2.073   2.409 -0.6179 -1.1796 -3.5613
  814SOL     OW 2440   2.919   1.527   2.853  0.1253  0.3922 -0.2643
  814SOL    HW1 2441   3.009   1.505   2.901 -1.3981  0.0127 -0.8297
  814SOL    HW2 2442   2.928   1.614   2.799  1.9199  0.2729  0.6787
  815SOL     OW 2443   2.158   2.923   2.795 -0.3118  0.6294 -0.4491
  815SOL    HW1 2444   2.134   2.870   2.880  1.2132  0.0851  0.3031
  815SOL    HW2 2445   2.258   2.916   2.775 -3.0611 -1.1794  2.3480
  816SOL     OW 2446   1.644   0.324   1.645 -0.0054 -0.0226 -0.3211
  816SOL    HW1 2447   1.678   0.227   1.639  1.9607 -1.2008 -2.3068
  816SOL    HW2 2448   1.551   0.335   1.694  0.4829 -0.3321 -0.6760
  817SOL     OW 2449   0.410   1.234   2.557  0.1572  0.0764  0.0654
  817SOL    HW1 2450   0.313   1.258   2.588  1.0630  1.2661  0.4082
  817SOL    HW2 2451   0.441   1.285   2.473 -3.0768 -0.9714  2.0686
  818SOL     OW 2452   1.922   0.824   0.467 -0.4082  0.0849 -0.6345
  818SOL    HW1 2453   1.956   0.923   0.485  0.3754  0.8381  2.8545
  818SOL    HW2 2454   1.855   0.791   0.538  1.5209  1.9141 -1.0651
  819SOL     OW 2455   2.749   2.970   3.006 -0.0612  0.3465  0.0494
  819SOL    HW1 2456   2.816   2.899   2.964 -0.7897  0.3048  1.9939
  819SOL    HW2 2457   2.657   2.976   2.951  0.5466  2.1277 -0.6001
  820SOL     OW 2458   1.267   1.100   0.677 -0.4868 -0.3240  0.7919
  820SOL    HW1 2459   1.243   1.201   0.703 -1.2516  0.9141  2.4381
  820SOL    HW2 2460   1.230   1.036   0.753  2.3234  1.7951 -1.9555
  821SOL     OW 2461   3.080   1.335   0.659  0.0318  0.0828  0.1269
  821SOL    HW1 2462   3.029   1.344   0.749 -1.6958 -4.7728  0.5606
  821SOL    HW2 2463   3.153   1.408   0.632 -0.5653 -0.7299  2.2097
  822SOL     OW 2464   2.546   1.745   2.466  0.4273 -0.2565 -0.3130
  822SOL    HW1 2465   2.557   1.838   2.516  0.7820 -0.9252 -0.6990
  822SOL    HW2 2466   2.455   1.737   2.414 -1.6204 -1.7860 -1.1161
  823SOL     OW 2467   2.095   0.880   1.200  0.0523  0.4763  0.4611
  823SOL    HW1 2468   2.092   0.896   1.303 -0.5718  1.3245 -1.4943
  823SOL    HW2 2469   2.006   0.911   1.158  0.5409  0.2063  0.7940
  824SOL     OW 2470   0.199   2.072   2.789  0.2999 -0.0319  0.0424
  824SOL    HW1 2471   0.149   1.982   2.825 -0.1681 -0.2186  0.8788
  824SOL    HW2 2472   0.282   2.052   2.726  3.2238  1.7105 -0.6016
  825SOL     OW 2473   1.284   1.081   0.255  0.1963  0.1364 -0.3366
  825SOL    HW1 2474   1.297   1.181   0.253  1.9002 -2.7791  0.3935
  825SOL    HW2 2475   1.225   1.052   0.334  0.2700  0.9284 -2.1656
  826SOL     OW 2476   1.895   0.700   1.624 -0.1018  0.0529  0.1191
  826SOL    HW1 2477   1.968   0.635   1.659  2.4426  0.2828 -2.2137
  826SOL    HW2 2478   1.806   0.658   1.597 -0.9148  0.3646  0.5692
  827SOL     OW 2479   0.660   1.289   0.272 -0.1883 -0.8772 -0.7300
  827SOL    HW1 2480   0.740   1.225   0.246 -0.1640 -0.3126  1.4665
  827SOL    HW2 2481   0.660   1.305   0.375  2.5881 -1.1442  0.7490
  828SOL     OW 2482   2.510   0.078   1.593  0.4882  0.3037 -0.0709
  828SOL    HW1 2483   2.414   0.105   1.560 -1.4537 -1.1288  1.0971
  828SOL    HW2 2484   2.517  -0.003   1.657 -0.0886  1.1903  0.5804
  829SOL     OW 2485   2.791   2.460   3.001 -0.5786  0.4365  0.3168
  829SOL    HW1 2486   2.725   2.380   3.000  2.0780 -1.0939  0.4223
  829SOL    HW2 2487   2.757   2.543   3.058 -2.8083  1.3176  0.4619
  830SOL     OW 2488   2.851   0.936   2.997 -0.0481  0.4409  0.0155
  830SOL    HW1 2489   2.910   1.022   3.017  1.7129 -0.2518  1.3061
  830SOL    HW2 2490   2.870   0.857   3.071 -0.4845 -0.3850  0.8516
  831SOL     OW 2491   0.100   0.635   0.428 -0.3949 -0.1739 -0.3072
  831SOL    HW1 2492   0.070   0.563   0.498 -3.3106 -0.7566 -0.9725
  831SOL    HW2 2493   0.112   0.598   0.327 -0.7401  3.2804 -3.2082
  832SOL     OW 2494   1.773   0.745   3.021  0.0945 -0.2148 -0.5354
  832SOL    HW1 2495   1.677   0.784   3.000  0.6168  0.4377 -1.0302
  832SOL    HW2 2496   1.774   0.642   3.019  0.3821  1.8410  0.1453
  833SOL     OW 2497   2.425   2.180   0.536  0.3778  0.1323  0.3665
  833SOL    HW1 2498   2.324   2.201   0.511 -0.2366  0.0710 -1.4397
  833SOL    HW2 2499   2.444   2.078   0.521 -1.4755 -1.5066 -0.3378
  834SOL     OW 2500   0.208   0.219   0.543  0.0633  0.1454  0.7396
  834SOL    HW1 2501   0.225   0.133   0.597  1.6204  0.3212 -2.0316
  834SOL    HW2 2502   0.198   0.203   0.444 -3.2705  0.3937 -1.6760
  835SOL     OW 2503   2.399   1.548   1.138 -0.0540 -0.3148 -0.3008
  835SOL    HW1 2504   2.411   1.638   1.184 -1.4964 -1.3650 -1.9775
  835SOL    HW2 2505   2.453   1.558   1.049  0.9137  0.8779 -2.8371
  836SOL     OW 2506   1.601   0.821   2.526  0.0889 -0.0991  0.4129
  836SOL    HW1 2507   1.505   0.787   2.551 -1.3852  0.6572  2.7227
  836SOL    HW2 2508   1.618   0.819   2.424 -2.0381  2.5137 -1.3992
  837SOL     OW 2509   1.723   0.121   0.572 -0.5240 -0.2969 -0.9209
  837SOL    HW1 2510   1.680   0.191   0.638 -0.9222  2.2884 -0.1002
  837SOL    HW2 2511   1.672   0.115   0.480 -1.2660 -2.1343  0.8260
  838SOL     OW 2512   1.159   1.554   2.807  0.7388  0.0874  0.2155
  838SOL    HW1 2513   1.145   1.519   2.905 -0.2532 -1.7186 -0.4594
  838SOL    HW2 2514   1.118   1.488   2.737 -1.1366  1.2340  1.1526
  839SOL     OW 2515   1.658   0.333   0.988  0.2413 -0.3090  0.2480
  839SOL    HW1 2516   1.675   0.400   1.069  2.3995  1.0352  0.4087
  839SOL    HW2 2517   1.595   0.252   1.013  0.8592 -1.1340  1.2874
  840SOL     OW 2518   2.505   2.939   1.765  0.3077 -0.0669 -0.2062
  840SOL    HW1 2519   2.408   2.908   1.776  1.6929 -0.2095  2.3290
  840SOL    HW2 2520   2.573   2.861   1.790  1.7550 -2.7512  1.5695
  841SOL     OW 2521   1.506   0.842   2.967 -0.4271 -0.2113  0.1275
  841SOL    HW1 2522   1.437   0.862   3.044 -2.3920 -1.7417 -0.6090
  841SOL    HW2 2523   1.537   0.929   2.922  2.4202  1.9611 -1.4157
  842SOL     OW 2524   0.826   1.557   0.935 -0.1007  0.5986  0.4019
  842SOL    HW1 2525   0.813   1.650   0.980 -0.8276 -0.1490 -0.6055
  842SOL    HW2 2526   0.758   1.492   0.972  0.0515  1.4908  1.3087
  843SOL     OW 2527   0.043   0.046   1.388  0.3596  0.1932  0.6818
  843SOL    HW1 2528   0.127   0.094   1.421 -1.0643 -0.2500 -1.7845
  843SOL    HW2 2529   0.045  -0.054   1.430  1.7520  0.1487  2.7562
  844SOL     OW 2530   0.814   2.490   0.246  0.3710  0.0101  0.6439
  844SOL    HW1 2531   0.767   2.435   0.321 -0.9996  1.1931  0.1075
  844SOL    HW2 2532   0.750   2.557   0.202 -1.9841 -1.7623  3.1983
  845SOL     OW 2533   1.619   2.921   1.374 -0.0281 -0.1076 -0.1661
  845SOL    HW1 2534   1.681   2.961   1.447 -1.4477 -1.1166  0.4780
  845SOL    HW2 2535   1.547   2.857   1.418 -1.4380 -1.0273 -1.3067
  846SOL     OW 2536   1.550   2.895   0.695 -0.1230  0.3402 -0.1954
  846SOL    HW1 2537   1.598   2.855   0.616  0.8361 -0.8064  1.1615
  846SOL    HW2 2538   1.620   2.927   0.762 -1.2534 -1.6619 -0.6008
  847SOL     OW 2539   2.057   1.656   0.334  0.5784 -0.6374 -0.3706
  847SOL    HW1 2540   2.044   1.562   0.362 -0.5610  0.6507  1.3044
  847SOL    HW2 2541   1.968   1.698   0.293  0.3734 -2.0260  3.3012
  848SOL     OW 2542   2.457   0.885   2.586 -0.4726 -0.2858 -0.5167
  848SOL    HW1 2543   2.415   0.967   2.635  0.8563  1.0971 -1.2855
  848SOL    HW2 2544   2.405   0.794   2.592  0.6160  0.4550 -0.4283
  849SOL     OW 2545   2.610   0.857   2.352 -0.2506 -0.4503  0.2269
  849SOL    HW1 2546   2.693   0.796   2.373 -0.2696  0.3041  1.1502
  849SOL    HW2 2547   2.554   0.865   2.437  1.4254 -0.5348  1.2045
  850SOL     OW 2548   1.531   0.153   1.295  0.1480 -0.6897  0.7905
  850SOL    HW1 2549   1.536   0.119   1.192 -1.2062 -0.3749 -0.8953
  850SOL    HW2 2550   1.488   0.092   1.372 -3.1175  1.0508  1.3264
  851SOL     OW 2551   0.475   1.798   0.575 -0.2797  0.0221  0.9370
  851SOL    HW1 2552   0.515   1.892   0.600 -3.9750  1.1164  2.2621
  851SOL    HW2 2553   0.478   1.785   0.472  2.7503 -0.9642 -0.1093
  852SOL     OW 2554   0.799   2.124   1.638  0.0215  0.1447 -0.2293
  852SOL    HW1 2555   0.812   2.225   1.637  1.9403 -0.7603 -1.7652
  852SOL    HW2 2556   0.737   2.093   1.711  0.2470 -2.4573  0.0180
  853SOL     OW 2557   2.520   1.505   2.596 -0.1225 -0.5924  0.2737
  853SOL    HW1 2558   2.435   1.460   2.550 -1.5809  1.2026 -2.9697
  853SOL    HW2 2559   2.542   1.601   2.553 -0.7697 -2.0388 -1.5479
  854SOL     OW 2560   2.369   1.410   1.721  0.0357 -0.0638  0.3576
  854SOL    HW1 2561   2.430   1.365   1.649  2.0573 -0.1498  0.0092
  854SOL    HW2 2562   2.279   1.361   1.734  0.8587  1.3208 -0.7978
  855SOL     OW 2563   2.012   2.420   0.992 -0.1929 -0.0888 -0.8669
  855SOL    HW1 2564   2.017   2.507   0.935  1.0195  1.9672 -2.0522
  855SOL    HW2 2565   2.096   2.424   1.060  2.6224 -2.5080  1.0983
  856SOL     OW 2566   1.322   1.483   0.962 -0.1597  0.4391  0.0926
  856SOL    HW1 2567   1.371   1.572   0.985  2.1187  1.0047  1.2207
  856SOL    HW2 2568   1.224   1.477   1.004  0.3187  1.2341  1.2447
  857SOL     OW 2569   3.051   2.705   0.938  0.7737 -0.3868 -0.1685
  857SOL    HW1 2570   3.030   2.632   0.871  1.5563 -2.8402  1.5660
  857SOL    HW2 2571   3.154   2.736   0.928  2.0371 -0.6303 -2.0072
  858SOL     OW 2572   2.324   2.105   1.691  0.4988 -0.0078 -0.1863
  858SOL    HW1 2573   2.228   2.116   1.648  0.0077 -0.2691 -2.9771
  858SOL    HW2 2574   2.368   2.016   1.658 -0.9369  1.1497  0.4587
  859SOL     OW 2575   2.478   0.513   1.029 -0.3605 -0.0016 -0.1636
  859SOL    HW1 2576   2.533   0.574   0.966  1.7282  1.3037 -0.1514
  859SOL    HW2 2577   2.532   0.434   1.072  1.2157 -0.0238 -0.8162
  860SOL     OW 2578   1.975   2.787   0.424 -0.4248 -0.0436  0.1698
  860SOL    HW1 2579   1.921   2.781   0.331  2.4761  1.6947  1.2583
  860SOL    HW2 2580   2.073   2.823   0.413  2.5764  0.6349 -1.7681
  861SOL     OW 2581   1.005   2.426   2.878 -0.0576  0.2790  0.5643
  861SOL    HW1 2582   1.034   2.521   2.853 -0.0001 -2.0330 -1.3658
  861SOL    HW2 2583   1.062   2.391   2.955  0.1167  0.3135 -1.2890
  862SOL     OW 2584   2.852   2.546   1.618  0.0085  0.8144  0.0242
  862SOL    HW1 2585   2.939   2.578   1.664  0.4651 -1.4224 -0.6859
  862SOL    HW2 2586   2.808   2.627   1.571  1.8665 -0.1457 -0.6279
  863SOL     OW 2587   1.849   2.733   0.170  0.0138  0.1317 -0.1926
  863SOL    HW1 2588   1.879   2.638   0.200  1.5072  1.0295 -1.0549
  863SOL    HW2 2589   1.754   2.732   0.128 -0.4910 -0.4420 -0.7066
  864SOL     OW 2590   1.947   1.215   2.847 -0.5046 -0.2150 -0.1008
  864SOL    HW1 2591   1.957   1.175   2.749 -0.4621  0.4871 -0.6759
  864SOL    HW2 2592   2.026   1.188   2.911 -1.4477 -1.0020  1.5133
  865SOL     OW 2593   2.177   1.880   0.660  0.0506 -0.3517 -0.4308
  865SOL    HW1 2594   2.216   1.859   0.754  0.6850 -0.8898  0.1554
  865SOL    HW2 2595   2.074   1.867   0.657  0.5481  0.8919  0.4956
  866SOL     OW 2596   2.865   2.898   0.981  0.2871 -0.0851  0.3880
  866SOL    HW1 2597   2.860   2.973   0.908 -0.7232  2.6378 -0.3239
  866SOL    HW2 2598   2.939   2.822   0.961  0.7193 -1.0658 -0.7794
  867SOL     OW 2599   0.391   1.434   0.885 -0.7944 -0.0462  0.2147
  867SOL    HW1 2600   0.369   1.352   0.828 -0.0928  2.4388  0.9080
  867SOL    HW2 2601   0.368   1.527   0.835 -0.3613  4.9719  1.1973
  868SOL     OW 2602   0.781   1.899   2.051  0.2701  0.5985 -0.8583
  868SOL    HW1 2603   0.724   1.891   2.140 -1.2465 -1.3522  0.0035
  868SOL    HW2 2604   0.759   1.983   1.996  2.9964 -1.8265 -0.2528
  869SOL     OW 2605   2.530   1.920   1.668 -0.1111 -0.3352  0.0238
  869SOL    HW1 2606   2.611   1.980   1.634  2.8854 -1.4419 -2.3443
  869SOL    HW2 2607   2.552   1.822   1.665  0.0656 -0.4067 -1.3656
  870SOL     OW 2608   2.260   2.688   1.232 -0.1002 -0.5031  0.5022
  870SOL    HW1 2609   2.253   2.587   1.214  0.2232 -0.4138  0.2747
  870SOL    HW2 2610   2.282   2.711   1.331 -1.5047  2.3700  5.8959
  871SOL     OW 2611   3.058   2.236   0.561 -0.3735 -0.1577 -0.5585
  871SOL    HW1 2612   3.009   2.274   0.643 -0.8111 -2.7662  2.2913
  871SOL    HW2 2613   3.003   2.234   0.472 -2.4924 -1.3494 -1.3257
  872SOL     OW 2614   2.104   0.535   1.708  0.2852  0.2281  0.1623
  872SOL    HW1 2615   2.062   0.515   1.800 -0.5526 -2.5524 -2.0481
  872SOL    HW2 2616   2.169   0.457   1.681 -0.1921  1.1128 -1.2329
  873SOL     OW 2617   1.717   2.120   3.070 -0.3666 -0.4131 -0.1077
  873SOL    HW1 2618   1.630   2.151   3.118  0.2786 -1.3346 -1.5685
  873SOL    HW2 2619   1.697   2.110   2.967 -0.4959 -0.5471  0.4459
  874SOL     OW 2620   0.675   2.444   0.741  0.1691 -0.1856  0.3093
  874SOL    HW1 2621   0.650   2.543   0.757 -2.2853  0.4688 -1.2226
  874SOL    HW2 2622   0.777   2.418   0.756  0.1266  3.1275  2.9035
  875SOL     OW 2623   2.315   1.476   1.404 -0.0605 -0.5576 -0.3077
  875SOL    HW1 2624   2.400   1.529   1.444  2.7927  2.1217  1.9728
  875SOL    HW2 2625   2.300   1.499   1.304  1.2955 -0.5094  0.9851
  876SOL     OW 2626   0.048   2.294   2.699 -0.2102 -0.7698  0.4684
  876SOL    HW1 2627   0.081   2.204   2.733 -0.5203  0.0488 -0.5702
  876SOL    HW2 2628   0.093   2.370   2.756 -0.3919  2.6499  0.1450
  877SOL     OW 2629   2.945   2.683   0.521 -0.4386  0.0439  0.8287
  877SOL    HW1 2630   2.874   2.752   0.558 -1.5869 -2.2516  1.9829
  877SOL    HW2 2631   2.997   2.630   0.600  1.0819 -0.0382 -0.5996
  878SOL     OW 2632   2.783   1.511   2.224  0.1583 -0.3461 -0.3023
  878SOL    HW1 2633   2.816   1.594   2.170  1.7899 -1.1326  3.0307
  878SOL    HW2 2634   2.775   1.528   2.326  1.0556 -2.1009  0.1276
  879SOL     OW 2635   2.424   0.112   1.217  0.3159  0.4439  0.2912
  879SOL    HW1 2636   2.434   0.028   1.279  2.2486  0.0527  0.4681
  879SOL    HW2 2637   2.366   0.092   1.131 -0.0671  0.0330  2.2644
  880SOL     OW 2638   0.786   0.488   2.210  0.0066 -0.7963  0.2306
  880SOL    HW1 2639   0.720   0.468   2.288 -0.6544  0.9630  0.4216
  880SOL    HW2 2640   0.843   0.406   2.177 -1.9443  0.1691 -1.9832
  881SOL     OW 2641   0.900   0.053   0.480  0.0011 -0.2892 -0.0525
  881SOL    HW1 2642   0.942  -0.034   0.515 -2.9152 -0.8701 -0.2660
  881SOL    HW2 2643   0.802   0.064   0.513 -1.8982 -0.4440  1.0538
  882SOL     OW 2644   2.705   1.688   1.678  0.0719 -0.3459 -0.6888
  882SOL    HW1 2645   2.776   1.644   1.619 -3.7497 -0.6191 -0.9374
  882SOL    HW2 2646   2.706   1.662   1.778 -1.2321 -0.5621  1.4937
  883SOL     OW 2647   0.879   0.515   0.919  0.3108 -0.3650 -0.4599
  883SOL    HW1 2648   0.894   0.595   0.984 -0.9377  1.5476  0.5641
  883SOL    HW2 2649   0.885   0.423   0.966 -0.9485 -0.6113 -1.0734
  884SOL     OW 2650   1.147   1.715   1.181  0.0301  0.4884  0.1487
  884SOL    HW1 2651   1.112   1.621   1.139  0.8502 -2.6232  0.7252
  884SOL    HW2 2652   1.100   1.802   1.151  1.8613 -2.9116 -1.8315
  885SOL     OW 2653   2.340   1.774   2.306  0.4403 -0.0664  0.6568
  885SOL    HW1 2654   2.250   1.734   2.339 -0.1028  3.1368 -2.4389
  885SOL    HW2 2655   2.332   1.863   2.254 -1.7153  0.9409  1.7219
  886SOL     OW 2656   2.590   0.341   1.800 -0.3140 -0.2738 -0.1768
  886SOL    HW1 2657   2.607   0.245   1.837  1.9296 -3.1951 -2.5457
  886SOL    HW2 2658   2.666   0.411   1.813 -0.1342 -2.4968 -2.3592
  887SOL     OW 2659   0.099   1.963   1.335 -0.1133 -0.6081  0.0515
  887SOL    HW1 2660   0.061   1.890   1.271 -1.2178  1.8741 -1.3251
  887SOL    HW2 2661   0.166   2.027   1.287  1.9929 -0.1630  1.5339
  888SOL     OW 2662   0.533   1.225   1.533  0.1182 -0.5009 -0.4856
  888SOL    HW1 2663   0.536   1.282   1.445 -0.0426  1.3559 -2.8974
  888SOL    HW2 2664   0.564   1.129   1.515  1.3599  1.0903 -0.6688
  889SOL     OW 2665   0.807   2.516   2.155 -0.2640  0.2017  0.3620
  889SOL    HW1 2666   0.762   2.428   2.195 -0.4119 -3.9485  0.0836
  889SOL    HW2 2667   0.863   2.493   2.069  0.6932 -0.3405 -0.5724
  890SOL     OW 2668   2.422   2.476   0.236 -0.0982 -0.2802  0.1876
  890SOL    HW1 2669   2.475   2.558   0.200 -0.5155 -0.1613  3.1686
  890SOL    HW2 2670   2.357   2.497   0.316  0.6886  0.5334  0.5618
  891SOL     OW 2671   2.508   1.708   0.644  0.0611 -0.1452  0.8552
  891SOL    HW1 2672   2.524   1.664   0.739  1.1461  2.8542  0.3393
  891SOL    HW2 2673   2.416   1.702   0.597  3.0111  0.9504 -0.5480
  892SOL     OW 2674   0.357   0.262   2.318  0.4428 -0.1580 -0.6859
  892SOL    HW1 2675   0.395   0.357   2.302 -1.1806  0.2680 -0.9580
  892SOL    HW2 2676   0.408   0.211   2.393  0.8622  1.2978  3.3178
  893SOL     OW 2677   1.638   0.245   2.711  0.0602  0.1877 -0.2246
  893SOL    HW1 2678   1.711   0.320   2.735  1.9050  0.2972 -2.1527
  893SOL    HW2 2679   1.543   0.288   2.717  1.7042 -1.9484 -1.9012
  894SOL     OW 2680   2.174   2.050   0.038 -0.0113 -0.4746 -0.2890
  894SOL    HW1 2681   2.123   1.985  -0.024 -0.1959 -1.2317 -0.7500
  894SOL    HW2 2682   2.208   2.003   0.122  0.1459 -0.4234  1.8484
  895SOL     OW 2683   2.838   1.454   0.914 -0.2618 -0.1098 -0.2717
  895SOL    HW1 2684   2.911   1.386   0.956 -0.1024  0.1955  2.6792
  895SOL    HW2 2685   2.840   1.548   0.953 -1.4866 -0.8655  2.2550
  896SOL     OW 2686   1.719   1.810   1.160 -0.5631 -0.1286 -0.2830
  896SOL    HW1 2687   1.727   1.743   1.079 -0.4790  0.3907  0.9441
  896SOL    HW2 2688   1.662   1.894   1.136 -2.4005 -0.9739  1.0458
  897SOL     OW 2689   0.313   0.554   3.038 -0.1562 -0.4453  0.5181
  897SOL    HW1 2690   0.261   0.579   2.954  1.4540 -1.0648 -1.1915
  897SOL    HW2 2691   0.395   0.619   3.059  0.2422 -0.4548 -1.1825
  898SOL     OW 2692   0.586   2.869   1.061 -0.4545 -0.0953  0.2031
  898SOL    HW1 2693   0.611   2.964   1.022  0.3026  2.2693  0.4207
  898SOL    HW2 2694   0.667   2.822   1.115  0.6960 -1.2983  3.3871
  899SOL     OW 2695   2.843   0.901   1.347 -0.2687 -0.0216 -0.4178
  899SOL    HW1 2696   2.822   0.846   1.259  0.0250 -0.3804 -0.3138
  899SOL    HW2 2697   2.911   0.980   1.328 -1.5542 -0.2014  1.2092
  900SOL     OW 2698   0.994   2.520   2.454 -0.6373 -0.0897  0.6618
  900SOL    HW1 2699   0.931   2.530   2.363 -0.4264  1.4299 -3.2174
  900SOL    HW2 2700   0.963   2.445   2.516  0.0913  1.4983 -0.2475
  901SOL     OW 2701   1.896   2.383   1.364  0.0305 -0.3258 -0.2366
  901SOL    HW1 2702   1.872   2.316   1.291  1.7599  1.7668  0.0333
  901SOL    HW2 2703   1.997   2.367   1.392 -0.5511  1.7560  0.3290
  902SOL     OW 2704   2.563   1.650   1.456 -0.3190  0.1206 -0.1385
  902SOL    HW1 2705   2.600   1.677   1.551 -2.0602 -0.0934  0.8647
  902SOL    HW2 2706   2.641   1.628   1.392  0.4347 -2.0027  2.8245
  903SOL     OW 2707   0.246   2.450   1.968 -0.3050  0.4705 -0.2030
  903SOL    HW1 2708   0.142   2.427   1.961  0.3567 -0.8990 -0.1748
  903SOL    HW2 2709   0.263   2.540   1.916 -2.5186 -0.3254 -1.0995
  904SOL     OW 2710   1.993   0.792   2.590  0.0353 -0.1406  0.2807
  904SOL    HW1 2711   1.919   0.730   2.621 -1.0295  1.7058  2.1994
  904SOL    HW2 2712   2.016   0.781   2.487  0.3829  1.4811 -0.6979
  905SOL     OW 2713   2.839   0.124   2.545  0.3597  0.3745  0.5005
  905SOL    HW1 2714   2.919   0.053   2.541  1.7505  1.0701 -1.2210
  905SOL    HW2 2715   2.877   0.221   2.538  1.0743 -1.3355 -0.7062
  906SOL     OW 2716   0.177   1.708   1.923  0.7574  0.0926 -0.2025
  906SOL    HW1 2717   0.095   1.719   1.865  3.4844  3.0457  1.3744
  906SOL    HW2 2718   0.235   1.792   1.920 -1.9919 -1.1420  0.5069
  907SOL     OW 2719   0.236   2.436   1.000  0.4298  0.0109  0.2268
  907SOL    HW1 2720   0.335   2.401   0.986  1.7035  1.1387  1.9305
  907SOL    HW2 2721   0.203   2.501   0.928  0.4245  1.0608  0.2510
  908SOL     OW 2722   2.812   3.036   0.390 -0.0063 -0.2607 -0.5192
  908SOL    HW1 2723   2.716   3.066   0.369  1.0905 -1.0698  5.2722
  908SOL    HW2 2724   2.844   2.953   0.330  0.8248  0.6645 -0.2922
  909SOL     OW 2725   0.841   1.058   2.652 -0.3272  0.0923  0.1691
  909SOL    HW1 2726   0.790   0.971   2.639 -1.1416  0.0301 -0.9006
  909SOL    HW2 2727   0.901   1.075   2.571 -1.5529 -0.3102 -0.2638
  910SOL     OW 2728   1.805   1.889   2.171 -0.0137 -0.3343  0.2569
  910SOL    HW1 2729   1.857   1.914   2.082  1.5071  2.5163 -1.4503
  910SOL    HW2 2730   1.713   1.943   2.185 -1.7544  1.6248  2.3766
  911SOL     OW 2731   1.821   2.925   1.581  0.0461 -0.0037  0.5542
  911SOL    HW1 2732   1.880   2.910   1.498 -2.4326  1.6723  0.8816
  911SOL    HW2 2733   1.823   2.838   1.642  2.5507  1.7710  0.9160
  912SOL     OW 2734   2.849   1.003   0.726 -0.0038  0.1514  0.7078
  912SOL    HW1 2735   2.874   0.936   0.798  3.3059 -1.1892 -0.9614
  912SOL    HW2 2736   2.826   1.099   0.762 -1.2614 -0.5094 -0.8941
  913SOL     OW 2737   2.531   1.281   1.540 -0.0524 -0.2913  0.4519
  913SOL    HW1 2738   2.552   1.179   1.533  2.0357  3.5747 -0.3543
  913SOL    HW2 2739   2.560   1.340   1.460 -0.7039 -0.6799  0.1521
  914SOL     OW 2740   2.776   0.592   1.176  0.0484  0.0996 -0.0613
  914SOL    HW1 2741   2.802   0.500   1.216 -1.4523 -2.1698  3.3071
  914SOL    HW2 2742   2.680   0.614   1.189 -1.6637 -0.3722 -0.2809
  915SOL     OW 2743   1.196   0.707   1.029 -0.0619 -0.0484  0.1595
  915SOL    HW1 2744   1.257   0.751   1.103 -0.5836 -0.4877 -1.2337
  915SOL    HW2 2745   1.087   0.717   1.033 -0.6123 -2.6906  1.3206
  916SOL     OW 2746   0.610   0.028   0.643 -0.2647 -0.0262 -0.1520
  916SOL    HW1 2747   0.635   0.106   0.702 -2.1305  0.0713 -2.2135
  916SOL    HW2 2748   0.617   0.067   0.545 -1.2994  1.7363  0.2808
  917SOL     OW 2749   2.842   2.591   2.025 -0.0673  0.2262  0.2680
  917SOL    HW1 2750   2.741   2.610   2.008 -1.0443  1.3868  1.2146
  917SOL    HW2 2751   2.898   2.617   1.944 -1.3520 -1.3772  0.8565
  918SOL     OW 2752   1.016   2.097   3.031  0.0332 -0.9405  0.2296
  918SOL    HW1 2753   0.995   2.168   3.104  0.9085  1.6041 -0.4296
  918SOL    HW2 2754   1.065   2.140   2.949  0.3720  2.1299  0.8402
  919SOL     OW 2755   0.810   1.655   2.859 -0.1645 -1.1807 -0.1535
  919SOL    HW1 2756   0.868   1.718   2.797  1.5625 -1.0248  1.3385
  919SOL    HW2 2757   0.772   1.572   2.805 -0.1809 -0.7857  0.3873
  920SOL     OW 2758   1.257   1.805   2.545  0.0206  0.1151 -0.2618
  920SOL    HW1 2759   1.318   1.782   2.462 -2.7523 -2.1041 -0.5793
  920SOL    HW2 2760   1.219   1.726   2.599  0.2103 -0.2513 -1.3701
  921SOL     OW 2761   1.105   0.013   2.631 -0.7538  0.2247  0.4917
  921SOL    HW1 2762   1.082  -0.014   2.534  1.8063  0.4730 -2.4620
  921SOL    HW2 2763   1.027   0.066   2.678 -0.0969 -0.6479 -2.1217
  922SOL     OW 2764   2.236   2.385   2.786 -0.1040 -0.6135  0.3754
  922SOL    HW1 2765   2.221   2.281   2.779  0.1732  3.0008  1.3292
  922SOL    HW2 2766   2.191   2.446   2.712  1.3168 -1.3314  0.7088
  923SOL     OW 2767   1.264   2.671   0.274  0.5419  0.3954  0.0884
  923SOL    HW1 2768   1.339   2.733   0.311 -1.4181 -1.9698 -0.0832
  923SOL    HW2 2769   1.293   2.571   0.257 -1.1953  2.9304 -3.2444
  924SOL     OW 2770   2.848   1.685   0.094 -0.6080 -0.1878  0.2687
  924SOL    HW1 2771   2.796   1.702   0.005 -0.8448 -1.7911  0.7663
  924SOL    HW2 2772   2.905   1.599   0.097  1.2452  2.1520 -0.1255
  925SOL     OW 2773   0.014   2.881   1.464 -0.7419  0.1050  0.1446
  925SOL    HW1 2774  -0.056   2.889   1.545  0.4999  0.1786  1.0010
  925SOL    HW2 2775  -0.009   2.801   1.403 -0.1936  2.2800 -3.8549
  926SOL     OW 2776   1.315   2.803   1.339 -0.5551 -0.0088 -0.2117
  926SOL    HW1 2777   1.353   2.807   1.242  0.3938 -1.1132  2.3677
  926SOL    HW2 2778   1.316   2.898   1.382 -2.9030 -2.7041  1.5115
  927SOL     OW 2779   0.312   2.676   1.761 -0.3913 -0.4266 -0.0521
  927SOL    HW1 2780   0.270   2.604   1.699  1.5870  1.2316 -0.7398
  927SOL    HW2 2781   0.274   2.774   1.741 -0.1883 -0.3857  2.2035
  928SOL     OW 2782   1.588   2.085   2.221 -0.3421 -0.0194  0.0893
  928SOL    HW1 2783   1.642   2.156   2.168 -1.7859 -0.2680 -3.4737
  928SOL    HW2 2784   1.482   2.099   2.231  0.3374 -0.2577  0.0801
  929SOL     OW 2785   2.466   2.515   2.853 -0.1472  0.2292  0.1920
  929SOL    HW1 2786   2.377   2.479   2.808 -1.3637 -1.0114  1.0635
  929SOL    HW2 2787   2.549   2.504   2.791  2.5122  1.4134 -1.3822
  930SOL     OW 2788   2.174   2.022   1.089  0.8642  0.6480 -0.3115
  930SOL    HW1 2789   2.143   1.973   1.169 -0.8562 -0.2464 -2.0706
  930SOL    HW2 2790   2.257   2.078   1.112 -0.7334 -3.2710  1.9962
  931SOL     OW 2791   0.538   1.709   2.675 -0.0593 -0.5676 -0.2629
  931SOL    HW1 2792   0.529   1.744   2.775  0.5187 -2.1057  1.3216
  931SOL    HW2 2793   0.589   1.619   2.679 -0.7474  0.2973  1.6380
  932SOL     OW 2794   0.468   0.125   3.071 -0.3262 -0.1501 -0.3976
  932SOL    HW1 2795   0.527   0.189   3.131  0.9689  2.6364  3.0244
  932SOL    HW2 2796   0.491   0.025   3.071 -0.3004  0.1164 -1.2761
  933SOL     OW 2797   0.952   0.817   3.047  0.4296 -0.2307  0.0526
  933SOL    HW1 2798   0.889   0.799   3.124  1.3483  0.7052  1.2885
  933SOL    HW2 2799   0.926   0.905   2.996  0.4491 -0.7662  1.7825
  934SOL     OW 2800   0.780   2.971   2.669  0.3352  0.5081  0.3700
  934SOL    HW1 2801   0.735   2.906   2.598 -1.1193  0.5153  1.9001
  934SOL    HW2 2802   0.851   2.926   2.726 -2.7194  0.4060  0.3435
  935SOL     OW 2803   0.035   0.521   0.842  0.9659 -0.2239 -0.0990
  935SOL    HW1 2804   0.033   0.498   0.737  1.6998 -0.7121  0.9120
  935SOL    HW2 2805  -0.040   0.590   0.876 -2.2188  1.0890 -0.1442
  936SOL     OW 2806   1.107   2.787   0.099  0.0616 -1.0443 -0.2278
  936SOL    HW1 2807   1.155   2.862   0.042 -0.8694  0.9586 -1.9391
  936SOL    HW2 2808   1.172   2.724   0.147 -2.0373  0.0373 -0.6122
  937SOL     OW 2809   1.833   2.651   2.100 -0.1389 -0.0493 -0.0901
  937SOL    HW1 2810   1.728   2.655   2.105 -1.9395  0.7797  1.5951
  937SOL    HW2 2811   1.880   2.733   2.052  2.1162 -0.3162  0.8448
  938SOL     OW 2812   2.762   2.069   1.596 -0.3700  0.3848 -0.5104
  938SOL    HW1 2813   2.743   2.173   1.603  1.3965  2.1280 -0.3347
  938SOL    HW2 2814   2.844   2.049   1.656 -0.2260 -1.9723 -1.2214
  939SOL     OW 2815   2.829   1.193   2.413  0.4864  0.2134 -0.0696
  939SOL    HW1 2816   2.895   1.171   2.339 -0.2509  0.8186  3.9476
  939SOL    HW2 2817   2.861   1.145   2.498  0.1498 -0.7809 -2.0884
  940SOL     OW 2818   1.072   0.439   2.779 -0.0112 -0.1750 -0.3478
  940SOL    HW1 2819   1.134   0.355   2.789  0.7962 -0.2896 -1.3569
  940SOL    HW2 2820   0.994   0.435   2.709  0.7812  0.2637  1.3796
  941SOL     OW 2821   0.032   2.786   2.282  0.6025  0.2526 -0.4557
  941SOL    HW1 2822   0.088   2.704   2.244  0.1691 -0.9247 -0.1559
  941SOL    HW2 2823   0.091   2.855   2.327 -2.1081 -1.7313 -0.4779
  942SOL     OW 2824   0.112   0.041   2.574 -0.4528 -0.4188  0.1606
  942SOL    HW1 2825   0.183   0.052   2.650  0.8946  0.3205  0.9977
  942SOL    HW2 2826   0.099   0.125   2.512 -1.8210  2.6428 -0.3380
  943SOL     OW 2827   2.099   1.658   2.380 -0.2779 -0.3710 -0.1713
  943SOL    HW1 2828   2.085   1.594   2.301  0.1785 -1.9355 -1.7249
  943SOL    HW2 2829   2.089   1.611   2.468  0.0120  2.0934  3.1575
  944SOL     OW 2830   2.163   2.356   1.466  0.1588 -0.2206 -0.0709
  944SOL    HW1 2831   2.261   2.398   1.491 -0.1221 -0.2650 -1.4146
  944SOL    HW2 2832   2.135   2.262   1.511  0.7614 -1.4922  1.2391
  945SOL     OW 2833   0.683   1.549   0.162  0.4058 -1.1689  0.2874
  945SOL    HW1 2834   0.606   1.586   0.108 -0.9652 -1.5726  0.6530
  945SOL    HW2 2835   0.669   1.450   0.192  0.0738 -0.9977 -0.8499
  946SOL     OW 2836   0.450   0.947   2.494  0.3992 -0.0432 -0.3052
  946SOL    HW1 2837   0.356   0.904   2.476 -0.1140 -0.9002 -0.2953
  946SOL    HW2 2838   0.448   1.046   2.534 -2.7266  1.0549 -0.4416
  947SOL     OW 2839   1.504   0.486   3.043  0.0519  0.1330 -0.0754
  947SOL    HW1 2840   1.478   0.543   2.957 -1.0163  1.2833 -3.1568
  947SOL    HW2 2841   1.428   0.461   3.104  2.7564  1.2009 -1.0051
  948SOL     OW 2842   1.836   3.001   2.116 -0.3686 -0.2320  0.6069
  948SOL    HW1 2843   1.873   2.963   2.024  0.3240  1.9371  0.0946
  948SOL    HW2 2844   1.853   2.943   2.196 -1.1341 -1.0026 -1.3453
  949SOL     OW 2845   0.649   2.481   0.463 -0.2638 -0.1131 -0.2556
  949SOL    HW1 2846   0.614   2.576   0.461  0.7543 -0.5161 -3.3343
  949SOL    HW2 2847   0.649   2.444   0.559  0.9418 -0.5829  0.4518
  950SOL     OW 2848   0.234   2.216   3.026 -0.1198  0.2484 -0.2799
  950SOL    HW1 2849   0.200   2.310   3.005  1.8846 -0.8831  1.1378
  950SOL    HW2 2850   0.223   2.154   2.946 -1.7767  0.1132  0.1808
  951SOL     OW 2851   1.184   2.648   2.815  0.8222  0.3633 -0.3675
  951SOL    HW1 2852   1.236   2.612   2.893  3.1238  3.5685 -0.0848
  951SOL    HW2 2853   1.245   2.664   2.732  2.1433  2.7825 -0.7544
  952SOL     OW 2854   0.049   1.653   0.388  0.0550  0.0276 -0.5129
  952SOL    HW1 2855   0.098   1.742   0.388  0.3197 -0.7890  0.4160
  952SOL    HW2 2856   0.117   1.585   0.431  3.7203 -4.4142 -0.9407
  953SOL     OW 2857   2.553   1.757   0.216 -0.2312  0.3425 -0.4875
  953SOL    HW1 2858   2.555   1.657   0.238 -1.3112  2.3513  0.2372
  953SOL    HW2 2859   2.509   1.785   0.124 -1.6719 -1.6690 -0.0605
  954SOL     OW 2860   2.223   0.536   0.925 -0.0280 -0.1488 -0.3859
  954SOL    HW1 2861   2.196   0.582   0.835  0.1651  0.0346 -0.0514
  954SOL    HW2 2862   2.327   0.515   0.932 -0.1472 -1.6046  1.6089
  955SOL     OW 2863   0.143   2.579   1.378  0.2731  0.2582 -0.1647
  955SOL    HW1 2864   0.057   2.607   1.326 -0.8651  1.8049  0.1617
  955SOL    HW2 2865   0.227   2.637   1.354 -2.7883  0.7617  0.0387
  956SOL     OW 2866   2.805   2.439   2.481 -0.0672  0.1662 -0.2990
  956SOL    HW1 2867   2.869   2.359   2.506 -0.5847  0.4088 -0.1079
  956SOL    HW2 2868   2.857   2.515   2.439  0.4286 -3.4775  1.6287
  957SOL     OW 2869   1.623   2.094   2.798  0.6294 -1.2340  0.3981
  957SOL    HW1 2870   1.554   2.013   2.803  0.3013  0.3097 -1.4554
  957SOL    HW2 2871   1.681   2.090   2.715 -0.4618 -2.5620 -1.7283
  958SOL     OW 2872   2.564   2.285   2.961 -0.0672  0.4595  0.0119
  958SOL    HW1 2873   2.512   2.348   2.895  0.5778  1.7367 -0.8938
  958SOL    HW2 2874   2.507   2.245   3.036  3.1418 -1.3807 -0.2265
  959SOL     OW 2875   0.318   2.779   0.034  0.3292  0.0518  0.0342
  959SOL    HW1 2876   0.217   2.770   0.012 -1.4127 -0.1752  0.9452
  959SOL    HW2 2877   0.364   2.694   0.074 -0.0509  1.6158  1.8808
  960SOL     OW 2878   1.960   0.479   1.958 -0.4686  0.0793 -0.3524
  960SOL    HW1 2879   1.901   0.552   1.918 -1.2387 -1.3353 -1.6837
  960SOL    HW2 2880   1.963   0.488   2.066 -1.3174 -1.0716 -0.3267
  961SOL     OW 2881   2.553   1.856   1.053 -0.0191 -0.1427 -0.0821
  961SOL    HW1 2882   2.568   1.957   1.042 -1.1673  0.7720  1.3528
  961SOL    HW2 2883   2.501   1.838   1.141  0.8364 -1.2493 -1.6448
  962SOL     OW 2884   1.306   0.925   0.031  0.4244 -0.1669 -0.3469
  962SOL    HW1 2885   1.248   0.945  -0.055 -0.2441  3.2197  0.0310
  962SOL    HW2 2886   1.288   0.997   0.106  1.0282 -0.1357  4.5115
  963SOL     OW 2887   2.293   2.533   1.782 -0.1221  0.1692  0.3272
  963SOL    HW1 2888   2.240   2.463   1.829  1.2656  2.1382 -0.1098
  963SOL    HW2 2889   2.303   2.614   1.845 -1.0436 -0.5722  0.5086
  964SOL     OW 2890   2.371   0.403   1.649  0.0856  0.4521 -0.2694
  964SOL    HW1 2891   2.457   0.373   1.702 -0.4028  0.0697  0.9715
  964SOL    HW2 2892   2.386   0.418   1.549 -0.1832  0.6463  3.2622
  965SOL     OW 2893   2.599   2.991   0.149 -0.0921  0.0693 -0.0918
  965SOL    HW1 2894   2.668   2.985   0.070 -1.3286  1.5130 -0.0898
  965SOL    HW2 2895   2.504   3.011   0.115  1.5765 -2.6878 -0.8851
  966SOL     OW 2896   2.560   2.547   2.331 -0.1750 -0.2956 -0.7337
  966SOL    HW1 2897   2.643   2.527   2.387 -1.5520 -1.0256  0.3386
  966SOL    HW2 2898   2.510   2.634   2.360  0.1620 -1.1756  2.2057
  967SOL     OW 2899   2.782   2.830   2.457  0.1907 -0.4186  0.9586
  967SOL    HW1 2900   2.814   2.757   2.389 -0.9577  1.7925 -1.1099
  967SOL    HW2 2901   2.860   2.863   2.518  0.8015 -2.9666  0.0152
  968SOL     OW 2902   1.936   1.068   2.593  0.0798 -0.1819  0.4005
  968SOL    HW1 2903   1.856   1.092   2.541 -1.0235  0.8379 -0.5152
  968SOL    HW2 2904   1.961   0.971   2.576 -0.4578  0.0103  1.2054
  969SOL     OW 2905   2.768   2.487   1.127  0.6447 -0.7144 -0.3186
  969SOL    HW1 2906   2.753   2.475   1.023  3.1004 -1.3127 -1.2646
  969SOL    HW2 2907   2.832   2.417   1.170  1.7764  1.8152 -0.8988
  970SOL     OW 2908   1.034   2.097   1.812 -0.4734 -0.5236  0.4666
  970SOL    HW1 2909   0.969   2.125   1.737  0.0535  1.7550  0.0751
  970SOL    HW2 2910   1.016   2.152   1.899  0.7163  1.5574 -1.5654
  971SOL     OW 2911   2.983   2.046   2.044 -0.2250  0.1472 -0.2608
  971SOL    HW1 2912   2.972   2.148   2.066  1.5647 -1.5781 -2.9189
  971SOL    HW2 2913   3.007   2.036   1.943  1.1037  0.7855  3.4972
  972SOL     OW 2914   1.979   2.497   0.240 -0.4864  0.1782  0.3996
  972SOL    HW1 2915   1.973   2.416   0.171  1.6956 -0.0828 -1.7451
  972SOL    HW2 2916   2.040   2.483   0.319  0.4112  2.9738 -1.5077
  973SOL     OW 2917   1.260   1.041   1.914  0.7498 -0.2312  0.5978
  973SOL    HW1 2918   1.174   0.993   1.878 -0.0968  0.5274 -2.5758
  973SOL    HW2 2919   1.245   1.141   1.931  2.2224 -0.9978 -0.5768
  974SOL     OW 2920   1.581   0.575   1.950  0.6921 -0.0739  0.5118
  974SOL    HW1 2921   1.666   0.625   1.911  1.1567  1.4059  1.1217
  974SOL    HW2 2922   1.495   0.639   1.934 -2.9710 -0.2232  1.5490
  975SOL     OW 2923   2.373   3.027   3.095  0.0290 -0.1266  0.3475
  975SOL    HW1 2924   2.307   2.950   3.122 -2.6842  1.1029  0.2755
  975SOL    HW2 2925   2.334   3.069   3.009  0.5307  0.0542  0.1072
  976SOL     OW 2926   1.899   2.823   2.334  0.2401  0.5330 -0.2146
  976SOL    HW1 2927   1.800   2.812   2.311 -0.4074  1.6836 -1.6044
  976SOL    HW2 2928   1.914   2.794   2.437 -4.7314  2.4702  0.8333
  977SOL     OW 2929   0.491   0.695   1.064 -0.0668  0.2169 -0.0018
  977SOL    HW1 2930   0.441   0.665   0.971 -1.8677 -0.0727 -0.9752
  977SOL    HW2 2931   0.571   0.764   1.045  1.2210 -0.2877  1.8062
   3.10000   3.10000   3.10000
