1000 SPC/Fw water molecules t=   1.30000 step= 1300
 2931
    1SOL     OW    1   2.545   0.350   2.604 -0.2603  0.3314  0.2406
    1SOL    HW1    2   2.521   0.247   2.619 -0.5924 -3.0569  2.1733
    1SOL    HW2    3   2.570   0.400   2.692 -2.0616 -0.6526  0.1210
    2SOL     OW    4   2.758   2.990   1.368  0.1231  0.0562 -0.1320
    2SOL    HW1    5   2.822   3.040   1.308  0.1561 -1.6752  1.4249
    2SOL    HW2    6   2.715   3.051   1.438 -0.6380  1.0920 -0.4702
    3SOL     OW    7   2.620   2.571   0.424  0.5994  0.0798 -0.0006
    3SOL    HW1    8   2.576   2.479   0.407 -0.6101  1.6280  1.1295
    3SOL    HW2    9   2.642   2.585   0.526 -2.4220  0.1347  0.5949
    4SOL     OW   10   1.237   1.518   2.410 -0.4871 -0.3274  0.3624
    4SOL    HW1   11   1.186   1.544   2.322  0.1508  0.6745 -0.7237
    4SOL    HW2   12   1.271   1.424   2.412  0.4396  0.7883 -0.0953
    5SOL     OW   13   1.183   1.574   2.925 -0.0227 -0.2649 -0.7075
    5SOL    HW1   14   1.226   1.651   2.978  0.8080 -1.2868 -1.1301
    5SOL    HW2   15   1.100   1.602   2.866 -1.9575  0.6905 -1.1746
    6SOL     OW   16   0.273   1.841   3.028 -0.2977  0.3775 -0.5410
    6SOL    HW1   17   0.172   1.835   3.050 -3.2780 -0.0297  2.7931
    6SOL    HW2   18   0.340   1.820   3.108  1.4009  2.6204  0.6884
    7SOL     OW   19   2.527   0.841   1.056 -0.1073  0.5548 -0.2328
    7SOL    HW1   20   2.445   0.815   1.114 -0.0395  2.3552 -0.1433
    7SOL    HW2   21   2.496   0.864   0.958  1.0612  0.0798  0.2013
    8SOL     OW   22   0.393   0.604   1.491 -0.2117  0.0589  0.7076
    8SOL    HW1   23   0.490   0.571   1.519 -2.0097 -0.9241  0.3115
    8SOL    HW2   24   0.385   0.631   1.389  1.0635  0.0076 -0.7224
    9SOL     OW   25   1.194   0.848   2.429  0.1531  0.2265 -0.1088
    9SOL    HW1   26   1.230   0.900   2.346 -0.9170  1.2351  0.5426
    9SOL    HW2   27   1.151   0.758   2.404  1.4062 -1.5638 -2.9410
   10SOL     OW   28   0.672   1.388   1.307  0.1151  0.0810 -0.2142
   10SOL    HW1   29   0.574   1.395   1.270  4.1037  2.3779 -0.3268
   10SOL    HW2   30   0.722   1.480   1.286  0.8267  1.7092  0.5066
   11SOL     OW   31   2.314   2.823   0.820  0.3602 -0.0051  0.0950
   11SOL    HW1   32   2.270   2.829   0.914  0.0464 -0.5800  1.4153
   11SOL    HW2   33   2.416   2.817   0.820 -3.6267 -1.7197 -1.9583
   12SOL     OW   34   1.477   0.821   0.428 -0.3325  0.6928  0.0458
   12SOL    HW1   35   1.418   0.887   0.372 -0.7395  0.2513 -1.7976
   12SOL    HW2   36   1.547   0.772   0.369  0.7731 -0.5491  0.4554
   13SOL     OW   37   2.414   0.740   1.755  0.1279  0.2092  0.0116
   13SOL    HW1   38   2.366   0.667   1.810 -1.6186 -0.4898 -1.4699
   13SOL    HW2   39   2.432   0.704   1.654 -1.5145 -2.9266 -0.0102
   14SOL     OW   40   1.913   0.048   0.651  0.4273 -0.5533 -0.4278
   14SOL    HW1   41   1.817   0.070   0.617 -0.2488  0.3744  0.7765
   14SOL    HW2   42   1.908  -0.033   0.718  0.5884 -0.7928  0.2434
   15SOL     OW   43   1.899   2.099   2.666 -0.0355  0.0173 -0.4551
   15SOL    HW1   44   1.845   2.172   2.714  1.7892 -0.3774  1.0359
   15SOL    HW2   45   1.844   2.021   2.624 -0.2660  1.0625 -2.0279
   16SOL     OW   46   1.600   1.697   2.998  0.3795 -0.0631 -0.1727
   16SOL    HW1   47   1.605   1.600   3.033 -1.6858  0.1349  1.1023
   16SOL    HW2   48   1.684   1.750   3.014 -3.0964 -0.2549 -0.4969
   17SOL     OW   49   0.128   0.441   0.181  0.1418 -0.2480 -0.0981
   17SOL    HW1   50   0.213   0.476   0.131 -0.7399 -1.1122  1.9996
   17SOL    HW2   51   0.040   0.470   0.136  1.3710 -3.0102  1.0205
   18SOL     OW   52   0.932   2.957   2.160 -0.1508  0.2707  0.2371
   18SOL    HW1   53   0.843   2.903   2.167  1.2631  3.3114 -1.6140
   18SOL    HW2   54   0.999   2.923   2.088  2.9984  3.6494 -0.3460
   19SOL     OW   55   0.503   0.832   1.891  0.2904 -0.0325 -0.1158
   19SOL    HW1   56   0.554   0.784   1.967  2.0480  0.4956 -0.5872
   19SOL    HW2   57   0.562   0.912   1.855 -1.6597 -1.2150 -0.7811
   20SOL     OW   58   0.218   2.816   0.848  0.2614 -0.4351  0.0655
   20SOL    HW1   59   0.134   2.858   0.801  1.6336  1.4448  0.7173
   20SOL    HW2   60   0.254   2.728   0.810 -1.6148  0.9494  1.1983
   21SOL     OW   61   2.740   0.253   1.946  0.3109 -0.0206 -0.0953
   21SOL    HW1   62   2.708   0.186   1.874  0.3273  1.3731  1.5998
   21SOL    HW2   63   2.800   0.209   2.018  2.1386 -0.8302 -0.0089
   22SOL     OW   64   2.340   0.192   0.123  0.4149  0.0131 -0.5348
   22SOL    HW1   65   2.372   0.100   0.085 -0.7684  3.5522  1.6563
   22SOL    HW2   66   2.291   0.249   0.054 -0.8215  0.0640  3.6010
   23SOL     OW   67   2.809   0.555   0.666 -0.2838 -0.2326 -0.4479
   23SOL    HW1   68   2.799   0.457   0.630 -2.6387  0.6079  1.4611
   23SOL    HW2   69   2.848   0.617   0.593  1.2047 -1.2708  1.4018
   24SOL     OW   70   0.254   1.896   0.479 -0.3352 -0.5986  0.0351
   24SOL    HW1   71   0.198   1.960   0.417  3.6078 -0.0312  1.9321
   24SOL    HW2   72   0.355   1.912   0.463 -0.7063  0.8600  0.8821
   25SOL     OW   73   2.222   0.634   0.176  0.0863 -0.0964  0.2512
   25SOL    HW1   74   2.201   0.630   0.071  2.0784 -0.7827 -1.3132
   25SOL    HW2   75   2.256   0.546   0.215 -1.9252 -0.2394  1.0096
   26SOL     OW   76   2.449   2.156   2.089  0.1300  0.2285  0.5322
   26SOL    HW1   77   2.547   2.192   2.102 -1.6062 -0.5943  1.0756
   26SOL    HW2   78   2.447   2.089   2.010 -0.3825  1.0215  1.9343
   27SOL     OW   79   0.645   2.925   0.277 -0.3119  0.7632 -0.5137
   27SOL    HW1   80   0.724   2.982   0.238 -0.8020 -0.6473  0.3757
   27SOL    HW2   81   0.606   2.867   0.199 -0.8669 -1.0313 -0.7775
   28SOL     OW   82   1.565   0.121   0.326  0.0331 -0.1834  0.3101
   28SOL    HW1   83   1.626   0.092   0.247  2.0868 -0.6365 -0.4316
   28SOL    HW2   84   1.580   0.224   0.347  0.6934  0.3930  1.5798
   29SOL     OW   85   1.939   0.558   0.282  0.0686  0.1472 -0.1741
   29SOL    HW1   86   1.902   0.630   0.350 -2.4616 -2.1417  1.6730
   29SOL    HW2   87   2.034   0.586   0.244 -0.1364  0.1208 -2.0284
   30SOL     OW   88   0.190   2.084   0.882 -0.1762  0.0591 -0.2503
   30SOL    HW1   89   0.166   1.997   0.830 -0.3882 -1.7187 -0.3676
   30SOL    HW2   90   0.109   2.143   0.913  0.6741  3.5946 -0.2458
   31SOL     OW   91   2.147   0.117   2.419  0.8235  0.5714  0.3800
   31SOL    HW1   92   2.096   0.072   2.497 -1.2414 -0.0360  1.6548
   31SOL    HW2   93   2.130   0.071   2.327 -0.0742  1.3902 -0.7539
   32SOL     OW   94   2.952   0.042   0.256  0.9922 -0.0176  0.0951
   32SOL    HW1   95   2.961  -0.057   0.288  0.1998 -0.7586  0.4563
   32SOL    HW2   96   3.040   0.096   0.254 -0.8138 -3.8431  0.7576
   33SOL     OW   97   0.893   0.295   0.606  0.2930 -0.3446  0.0087
   33SOL    HW1   98   0.861   0.204   0.560  1.6142  0.5262 -1.2530
   33SOL    HW2   99   0.995   0.303   0.611  0.0422 -1.1474 -0.0725
   34SOL     OW  100   0.326   2.731   1.095 -0.3855  0.4460 -0.5417
   34SOL    HW1  101   0.287   2.775   1.008 -0.4930 -0.0529  0.2886
   34SOL    HW2  102   0.418   2.768   1.125 -0.6182 -0.4249 -0.1386
   35SOL     OW  103   0.034   0.114   1.863  1.1647 -0.1457  0.4901
   35SOL    HW1  104   0.073   0.021   1.886  1.3947  1.1887 -1.3184
   35SOL    HW2  105  -0.015   0.121   1.774 -0.4614 -2.2992  2.6787
   36SOL     OW  106   1.834   1.241   1.578 -0.8906 -0.2088 -0.1298
   36SOL    HW1  107   1.907   1.163   1.578  0.7867 -0.4304  0.3223
   36SOL    HW2  108   1.844   1.315   1.508  1.1582  0.7221  1.5848
   37SOL     OW  109   1.201   0.219   0.948 -0.2337 -0.3392  0.0793
   37SOL    HW1  110   1.251   0.310   0.982  1.7682  0.1287  0.5675
   37SOL    HW2  111   1.270   0.150   0.910  0.9653  0.7535 -0.1155
   38SOL     OW  112   1.153   2.870   2.344 -0.5384  0.9504  0.0653
   38SOL    HW1  113   1.075   2.801   2.377 -0.0539 -2.9743  0.0573
   38SOL    HW2  114   1.116   2.946   2.288  2.3963 -0.4275 -0.2244
   39SOL     OW  115   2.352   1.357   3.026  0.5396 -0.2469  0.1135
   39SOL    HW1  116   2.426   1.287   3.042 -0.7051  1.4772 -0.3485
   39SOL    HW2  117   2.315   1.391   3.115  1.7944  1.6252 -1.5335
   40SOL     OW  118   1.993   2.457   2.604  0.6039  0.0375  0.0799
   40SOL    HW1  119   1.956   2.553   2.595 -0.9251  1.4978 -0.7965
   40SOL    HW2  120   1.993   2.408   2.511 -0.3393 -0.5767  2.2895
   41SOL     OW  121   3.038   0.650   2.799  0.2056  0.0900 -0.2675
   41SOL    HW1  122   2.947   0.692   2.831  1.0099 -1.0528 -2.3336
   41SOL    HW2  123   3.025   0.561   2.749 -0.2921  1.5609  0.2925
   42SOL     OW  124   1.756   1.792   0.534  0.4777 -0.1724  0.6949
   42SOL    HW1  125   1.728   1.689   0.527  0.2397 -1.7236 -0.2708
   42SOL    HW2  126   1.767   1.834   0.443  2.1567  1.4929  1.8736
   43SOL     OW  127   0.469   1.656   1.229  0.0702  0.4894  0.9671
   43SOL    HW1  128   0.467   1.567   1.174  1.3834 -2.0798  0.5868
   43SOL    HW2  129   0.389   1.663   1.289  2.9658  0.2414  1.4693
   44SOL     OW  130   1.685   2.391   3.015 -0.5633  0.8209 -0.0007
   44SOL    HW1  131   1.607   2.459   3.020  1.6686 -0.5659  1.8282
   44SOL    HW2  132   1.727   2.373   2.920  1.8549  1.2550  1.8782
   45SOL     OW  133   0.368   1.902   2.569  0.5473 -0.2002 -0.0926
   45SOL    HW1  134   0.334   1.892   2.471 -0.8524  0.6945 -0.3244
   45SOL    HW2  135   0.431   1.829   2.604  1.3687  1.9074  0.3652
   46SOL     OW  136   1.295   0.651   0.142  0.4356 -0.2848  0.4143
   46SOL    HW1  137   1.264   0.737   0.092  0.9452 -0.2559 -2.1676
   46SOL    HW2  138   1.222   0.580   0.154  1.5369  1.3091  0.7952
   47SOL     OW  139   0.188   2.490   1.587  0.0810  0.0958  0.0106
   47SOL    HW1  140   0.183   2.388   1.572 -1.1882 -0.9104  3.4766
   47SOL    HW2  141   0.210   2.553   1.503 -0.9122  0.4456 -1.5146
   48SOL     OW  142   2.630   0.610   0.142 -0.3872 -0.0168 -0.0634
   48SOL    HW1  143   2.624   0.607   0.246  0.0126  2.6499 -1.5684
   48SOL    HW2  144   2.723   0.652   0.110 -2.0687 -2.5340  0.4286
   49SOL     OW  145   0.325   0.767   1.699  0.1604 -0.4238  0.5605
   49SOL    HW1  146   0.401   0.789   1.770  0.3520 -0.1243  0.4266
   49SOL    HW2  147   0.351   0.700   1.624  2.9560  2.3387  1.4035
   50SOL     OW  148   1.704   1.125   0.318  0.4796  0.1920 -0.1120
   50SOL    HW1  149   1.739   1.045   0.270 -1.4345  0.5679  1.7826
   50SOL    HW2  150   1.661   1.102   0.408 -2.3155  2.2668 -2.2605
   51SOL     OW  151   3.010   1.733   0.254  0.2389 -0.1097  0.1085
   51SOL    HW1  152   2.953   1.680   0.186 -1.5463  1.4687  1.3943
   51SOL    HW2  153   3.057   1.673   0.326  1.6329  1.1894 -0.3645
   52SOL     OW  154   0.814   2.155   0.631  0.2739  0.1571  0.4804
   52SOL    HW1  155   0.732   2.182   0.680  0.2790 -2.9273 -2.0592
   52SOL    HW2  156   0.854   2.063   0.669  0.6607 -1.3541 -0.8066
   53SOL     OW  157   0.182   0.475   1.559  0.0266  0.0043  0.0423
   53SOL    HW1  158   0.257   0.542   1.532  0.0266  0.3312 -3.3272
   53SOL    HW2  159   0.092   0.489   1.514  0.5125  0.6371  1.6504
   54SOL     OW  160   1.813   0.497   3.055 -0.1281  0.2968 -0.1011
   54SOL    HW1  161   1.876   0.426   3.105 -3.4721  0.2491  1.2638
   54SOL    HW2  162   1.718   0.503   3.098 -0.4111 -1.2111 -1.6541
   55SOL     OW  163   0.747   2.888   0.719 -0.7366  0.2391 -0.0625
   55SOL    HW1  164   0.711   2.989   0.712 -0.1316  0.9547 -1.4790
   55SOL    HW2  165   0.840   2.880   0.667  1.6845  0.9719  0.5170
   56SOL     OW  166   0.571   1.629   0.027  0.0811 -0.2162 -0.2125
   56SOL    HW1  167   0.508   1.684   0.092 -0.0281  1.9586 -1.5916
   56SOL    HW2  168   0.539   1.532   0.004 -0.9293  1.7476 -0.4405
   57SOL     OW  169   1.746   2.510   2.403 -0.2479 -0.2881  0.7356
   57SOL    HW1  170   1.803   2.428   2.378  1.0810 -0.1740 -0.0468
   57SOL    HW2  171   1.679   2.492   2.473  1.2136 -0.4942 -1.3324
   58SOL     OW  172   0.656   0.242   1.122 -0.2517  0.7516  0.1880
   58SOL    HW1  173   0.569   0.252   1.180 -2.5561  0.9195  1.1108
   58SOL    HW2  174   0.666   0.141   1.093  1.0590  0.3735 -0.6425
   59SOL     OW  175   0.413   2.392   2.742  0.0132  0.6550 -0.4610
   59SOL    HW1  176   0.413   2.301   2.692 -1.2953  1.6376  2.8978
   59SOL    HW2  177   0.496   2.410   2.797 -0.5382 -1.6320  2.2920
   60SOL     OW  178   2.330   2.124   2.337 -0.2238  0.6193  0.3394
   60SOL    HW1  179   2.381   2.136   2.247 -0.4505 -2.1151  2.3335
   60SOL    HW2  180   2.381   2.160   2.418 -2.1086  0.1492 -1.3729
   61SOL     OW  181   1.219   0.617   0.430 -0.5994  0.8633  0.2973
   61SOL    HW1  182   1.131   0.668   0.451  1.8688 -2.4959  0.0501
   61SOL    HW2  183   1.268   0.647   0.340  1.2058 -0.5608  0.0784
   62SOL     OW  184   2.711   1.707   2.839  0.2614  0.2236 -1.1470
   62SOL    HW1  185   2.719   1.782   2.769 -1.1717 -0.1034 -2.4736
   62SOL    HW2  186   2.778   1.629   2.828 -1.7500  1.3671 -1.0886
   63SOL     OW  187   0.572   0.889   0.208 -0.2479  0.2673 -0.3200
   63SOL    HW1  188   0.586   0.971   0.146 -1.3022 -0.0423 -0.3440
   63SOL    HW2  189   0.637   0.888   0.288 -1.7135 -1.1376 -0.4581
   64SOL     OW  190   3.038   0.545   2.392  0.1885 -0.0915 -1.3384
   64SOL    HW1  191   2.960   0.597   2.436  1.7450 -1.8556 -3.8506
   64SOL    HW2  192   3.061   0.599   2.302  0.8218 -1.2472 -0.2566
   65SOL     OW  193   0.219   1.448   0.685 -0.0630  0.1306  0.5562
   65SOL    HW1  194   0.222   1.528   0.752 -1.2320 -0.9044 -2.1442
   65SOL    HW2  195   0.293   1.473   0.615 -0.1029  1.4484 -2.5754
   66SOL     OW  196   2.509   0.384   0.529  0.4548 -0.1024 -0.0332
   66SOL    HW1  197   2.616   0.367   0.533  3.1352 -0.0793  2.7598
   66SOL    HW2  198   2.456   0.322   0.594 -2.0674  1.6492  0.5079
   67SOL     OW  199   0.622   2.484   1.420  0.1640  0.1791  0.4267
   67SOL    HW1  200   0.718   2.465   1.456 -1.2222  4.0339  0.7419
   67SOL    HW2  201   0.560   2.401   1.404  1.0185 -2.2936 -0.5719
   68SOL     OW  202   1.004   1.024   2.517  0.0008  0.5094 -0.5283
   68SOL    HW1  203   1.071   0.950   2.503  1.5713  4.1864  0.9194
   68SOL    HW2  204   0.961   1.060   2.433  1.1702  2.3016  3.2315
   69SOL     OW  205   0.752   2.751   2.216  0.2660 -0.5346 -0.0597
   69SOL    HW1  206   0.779   2.652   2.209 -0.3332 -1.2137  0.8549
   69SOL    HW2  207   0.650   2.755   2.244 -1.9581 -1.0875 -1.2640
   70SOL     OW  208   0.457   0.118   2.537 -0.0188 -0.1560 -0.3252
   70SOL    HW1  209   0.373   0.128   2.602 -1.2006 -0.7347  2.3917
   70SOL    HW2  210   0.527   0.054   2.585 -0.2174 -0.2379 -2.2008
   71SOL     OW  211   1.159   1.786   0.346  0.0031  0.4582 -0.3840
   71SOL    HW1  212   1.090   1.727   0.404  0.0688 -0.2732  1.8801
   71SOL    HW2  213   1.124   1.808   0.254 -0.8193 -4.4928  1.1902
   72SOL     OW  214   1.814   0.183   2.173 -0.0724  0.2749  0.2087
   72SOL    HW1  215   1.873   0.266   2.187  1.6265 -1.2173  2.7851
   72SOL    HW2  216   1.876   0.092   2.176  2.2756  1.5283 -2.7923
   73SOL     OW  217   2.802   2.158   2.364  0.0206  0.4334  0.3870
   73SOL    HW1  218   2.825   2.057   2.346 -0.4044  1.1391  1.0184
   73SOL    HW2  219   2.844   2.187   2.455  0.2055  1.8363 -1.1099
   74SOL     OW  220   2.651   2.865   2.184  0.6586  0.0839 -0.5075
   74SOL    HW1  221   2.654   2.886   2.284  0.5616  0.0057  1.0591
   74SOL    HW2  222   2.744   2.896   2.142 -1.9530 -1.1115  0.1957
   75SOL     OW  223   0.955   0.858   1.072 -0.1729 -0.3769 -0.2847
   75SOL    HW1  224   0.879   0.908   1.021  0.2818  1.3192 -1.5263
   75SOL    HW2  225   0.973   0.876   1.171  1.4609  0.5663  0.4825
   76SOL     OW  226   1.812   1.220   2.452  0.2363  0.4381 -0.1670
   76SOL    HW1  227   1.707   1.227   2.454  0.5709 -2.6564 -1.2056
   76SOL    HW2  228   1.852   1.308   2.488  2.0475 -1.5110 -2.7081
   77SOL     OW  229   2.942   0.910   1.041 -0.0501  0.5369  0.0577
   77SOL    HW1  230   2.920   0.812   1.015 -0.8103  0.3462 -0.2868
   77SOL    HW2  231   3.021   0.927   1.104 -1.1558 -1.3351  0.2420
   78SOL     OW  232   2.006   1.413   1.440  0.2409 -0.2005 -0.6002
   78SOL    HW1  233   2.107   1.436   1.453  0.2604  0.6296  2.8952
   78SOL    HW2  234   1.974   1.457   1.353  0.6858 -0.7879 -0.4920
   79SOL     OW  235   0.639   1.430   0.804  0.5818 -0.2006  0.1139
   79SOL    HW1  236   0.545   1.399   0.849 -1.5621  0.6228 -0.1306
   79SOL    HW2  237   0.676   1.368   0.727  4.7091 -0.2556 -2.1493
   80SOL     OW  238   0.654   0.484   1.514 -0.4347  0.7383 -0.5179
   80SOL    HW1  239   0.711   0.538   1.443 -1.6957 -0.1265 -3.5925
   80SOL    HW2  240   0.675   0.382   1.522 -0.6253 -1.7632  0.6504
   81SOL     OW  241   0.998   1.313   2.611  0.0927  0.2122 -0.0347
   81SOL    HW1  242   1.004   1.208   2.595  0.9222 -1.2936  0.9712
   81SOL    HW2  243   0.933   1.364   2.547 -2.0462 -0.0408 -1.1963
   82SOL     OW  244   0.971   2.888   1.513  0.5694 -0.8368  0.5933
   82SOL    HW1  245   0.916   2.829   1.447  2.0640 -3.3254  0.0409
   82SOL    HW2  246   1.059   2.930   1.472  1.6830  0.2124 -0.7750
   83SOL     OW  247   2.573   2.374   0.866 -0.6829  0.2982  0.2169
   83SOL    HW1  248   2.510   2.301   0.910 -3.4618 -3.5826  0.0252
   83SOL    HW2  249   2.535   2.407   0.774  2.1364  0.4590  0.0817
   84SOL     OW  250   0.717   0.016   2.374  0.0231  0.4437 -0.2862
   84SOL    HW1  251   0.659  -0.004   2.456 -1.0966 -1.1576 -1.1706
   84SOL    HW2  252   0.781  -0.067   2.356 -1.3026 -0.1424  0.2554
   85SOL     OW  253   0.265   1.620   1.444  0.4476  0.8477 -0.2160
   85SOL    HW1  254   0.254   1.721   1.431  0.9992 -2.8675 -3.0839
   85SOL    HW2  255   0.310   1.596   1.537  1.4772 -1.6921 -1.7600
   86SOL     OW  256   0.446   1.056   1.497 -0.2632 -0.4171  0.3633
   86SOL    HW1  257   0.389   0.996   1.436 -0.2184 -0.7671 -1.9241
   86SOL    HW2  258   0.540   1.016   1.520  1.9066 -0.7289 -1.9757
   87SOL     OW  259   1.666   0.683   0.282 -0.1837 -0.4393 -0.0900
   87SOL    HW1  260   1.740   0.751   0.258  1.5991  3.2004 -2.0250
   87SOL    HW2  261   1.636   0.630   0.197  1.1466 -0.6244 -1.9811
   88SOL     OW  262   1.528   1.350   0.261  0.1663  0.3954 -0.2700
   88SOL    HW1  263   1.594   1.272   0.285 -1.9159 -1.1926 -0.3070
   88SOL    HW2  264   1.425   1.328   0.275 -0.4014  0.4273  0.3396
   89SOL     OW  265   3.076   0.313   0.610  0.1127 -1.1893  0.1757
   89SOL    HW1  266   3.129   0.228   0.598 -0.5411 -0.0064 -0.4363
   89SOL    HW2  267   2.980   0.306   0.573 -3.3615  0.0907 -0.9010
   90SOL     OW  268   0.834   1.575   0.109 -0.2357  0.2744  0.2928
   90SOL    HW1  269   0.872   1.480   0.102 -1.9491  1.0526  1.4138
   90SOL    HW2  270   0.734   1.590   0.073 -1.6227  1.8680  1.4266
   91SOL     OW  271   1.204   1.454   1.755  0.0349  0.0863  0.2659
   91SOL    HW1  272   1.181   1.523   1.829 -0.1900 -0.1505 -1.7488
   91SOL    HW2  273   1.306   1.419   1.755  0.2355 -0.1496 -3.2780
   92SOL     OW  274   0.012   0.954   1.239  0.0313  0.0392 -0.5100
   92SOL    HW1  275   0.074   1.032   1.216 -2.4345  2.1251  1.9318
   92SOL    HW2  276  -0.015   0.949   1.337 -0.9420  0.1309 -0.7589
   93SOL     OW  277   3.080   2.705   0.040  0.4323  0.2667 -0.5204
   93SOL    HW1  278   3.035   2.721  -0.052 -0.7242  1.0194 -0.2611
   93SOL    HW2  279   3.104   2.610   0.068 -2.0941  0.8728  0.3743
   94SOL     OW  280   1.493   1.446   1.777 -0.0882 -0.1738 -0.2531
   94SOL    HW1  281   1.571   1.376   1.782  0.1834 -0.2404  0.5814
   94SOL    HW2  282   1.518   1.541   1.809  1.5036 -1.8320 -0.9544
   95SOL     OW  283   1.418   2.508   2.965 -0.5180 -0.0157  0.0288
   95SOL    HW1  284   1.330   2.509   3.024  1.5150 -2.5051 -0.7890
   95SOL    HW2  285   1.422   2.421   2.911  0.9121  2.0182 -1.6867
   96SOL     OW  286   0.569   2.095   1.318 -0.0454  0.1875  0.0391
   96SOL    HW1  287   0.529   2.087   1.220 -0.1230 -0.9711 -1.4113
   96SOL    HW2  288   0.644   2.024   1.339  0.5236  0.6378 -0.2968
   97SOL     OW  289   0.299   1.609   2.455 -0.0211  0.0661 -0.1962
   97SOL    HW1  290   0.263   1.673   2.385  0.8687  0.0044 -1.4954
   97SOL    HW2  291   0.264   1.622   2.554 -1.1052  1.8857 -1.7387
   98SOL     OW  292   2.159   1.594   1.207  0.3373  0.4553 -0.0426
   98SOL    HW1  293   2.067   1.562   1.169  0.4268 -0.7778 -0.0390
   98SOL    HW2  294   2.246   1.576   1.146  0.2661 -0.2868 -2.6282
   99SOL     OW  295   2.572   2.095   1.286  0.1035  0.2575  0.5708
   99SOL    HW1  296   2.638   2.118   1.364 -1.6775 -0.8489 -1.1551
   99SOL    HW2  297   2.512   2.010   1.302 -0.3887 -1.1791  1.0659
  100SOL     OW  298   2.302   0.408   2.097 -0.0815 -0.0639 -0.0210
  100SOL    HW1  299   2.249   0.408   2.190 -0.1604  2.3363  1.1565
  100SOL    HW2  300   2.407   0.414   2.112  1.1180 -0.7652  0.5949
  101SOL     OW  301   0.393   1.528   0.492 -0.1806  0.3518  0.8027
  101SOL    HW1  302   0.409   1.609   0.549  0.5203  2.6091 -2.1104
  101SOL    HW2  303   0.476   1.502   0.436 -0.1871 -0.8303  1.0568
  102SOL     OW  304   2.294   1.064   0.833  0.5280  0.0800 -0.3037
  102SOL    HW1  305   2.239   0.981   0.806  1.1000  0.9850 -0.3166
  102SOL    HW2  306   2.385   1.062   0.789 -3.4468 -1.7407  0.0442
  103SOL     OW  307   2.224   0.123   0.373  0.3688 -0.3453 -0.5721
  103SOL    HW1  308   2.259   0.149   0.280 -0.7025 -3.4380  0.7444
  103SOL    HW2  309   2.293   0.075   0.434  1.8853 -0.1190 -0.4263
  104SOL     OW  310   0.048   1.906   2.092 -0.2795 -0.0802 -0.2878
  104SOL    HW1  311   0.077   1.865   2.004  0.6086 -0.0541  2.0578
  104SOL    HW2  312  -0.052   1.889   2.121  0.5110 -1.6903  1.8360
  105SOL     OW  313   1.251   2.109   0.821  0.6468  0.0884 -0.6896
  105SOL    HW1  314   1.196   2.155   0.745 -0.6340 -0.4057 -0.4695
  105SOL    HW2  315   1.301   2.024   0.784  0.4278 -3.2009 -0.3337
  106SOL     OW  316   2.075   0.367   1.434 -0.2804  0.2167 -0.5705
  106SOL    HW1  317   2.005   0.298   1.412 -0.9428  0.7277  1.0060
  106SOL    HW2  318   2.086   0.390   1.532 -0.0390  3.2064 -0.7945
  107SOL     OW  319   1.966   2.941   1.177  0.5544 -0.1479 -0.1050
  107SOL    HW1  320   1.906   3.023   1.199  2.5786 -1.2030 -1.3377
  107SOL    HW2  321   1.922   2.872   1.109 -1.7624 -0.9672  1.1414
  108SOL     OW  322   0.856   2.834   1.181  0.0249  0.2851 -0.4219
  108SOL    HW1  323   0.872   2.735   1.201  0.0603  1.0184 -0.5019
  108SOL    HW2  324   0.930   2.896   1.220  2.2129 -0.3361 -4.1168
  109SOL     OW  325   2.153   0.149   0.777  0.5413  0.0872  0.3138
  109SOL    HW1  326   2.078   0.112   0.713  1.7521 -0.6122  0.1967
  109SOL    HW2  327   2.162   0.091   0.862 -0.8721  1.3330  0.4161
  110SOL     OW  328   0.477   2.792   2.759  0.1841  0.0903  0.0889
  110SOL    HW1  329   0.452   2.772   2.655 -0.7792  0.0683  0.0718
  110SOL    HW2  330   0.538   2.719   2.800  0.6208 -2.5925  1.1105
  111SOL     OW  331   1.286   0.494   2.344  0.4333  0.4860 -0.2246
  111SOL    HW1  332   1.193   0.521   2.384 -1.1065  0.6898  1.2500
  111SOL    HW2  333   1.345   0.431   2.413  0.9618 -1.9779 -0.4490
  112SOL     OW  334   1.768   0.441   1.483 -0.1393 -0.3081 -0.2699
  112SOL    HW1  335   1.753   0.453   1.380  1.3075 -1.1677  2.5439
  112SOL    HW2  336   1.687   0.403   1.537 -0.0265 -0.7970  1.6414
  113SOL     OW  337   2.372   1.701   1.727  0.1912  0.1225 -0.3016
  113SOL    HW1  338   2.417   1.618   1.768  1.3830 -0.8162  0.9351
  113SOL    HW2  339   2.423   1.789   1.746  0.5733  1.4651  0.9186
  114SOL     OW  340   0.317   0.518   1.201 -0.0923 -0.0099 -0.5840
  114SOL    HW1  341   0.373   0.574   1.134 -1.2664 -1.0835  2.2785
  114SOL    HW2  342   0.232   0.566   1.224  0.6885 -1.0015  0.3119
  115SOL     OW  343   2.791   1.559   1.290 -0.7060 -0.5784  0.0098
  115SOL    HW1  344   2.770   1.456   1.310 -0.5946  0.4509 -0.5984
  115SOL    HW2  345   2.895   1.571   1.266  3.1795 -1.5195  1.1132
  116SOL     OW  346   1.877   0.982   0.663  0.7861 -0.2723  0.3587
  116SOL    HW1  347   1.779   0.951   0.653 -1.5114  0.9503  0.8081
  116SOL    HW2  348   1.866   1.080   0.695  0.1387  1.3513 -0.9558
  117SOL     OW  349   1.165   0.371   0.566 -0.7667  0.0601  0.2806
  117SOL    HW1  350   1.182   0.477   0.550 -0.3208  0.4777  1.9314
  117SOL    HW2  351   1.165   0.325   0.475  1.0360  1.8730 -1.2279
  118SOL     OW  352   1.078   1.216   1.105  0.4943  0.1153  0.5179
  118SOL    HW1  353   1.043   1.138   1.166  0.3619 -1.7790  0.0705
  118SOL    HW2  354   1.127   1.287   1.167  2.0393  0.2644  2.3080
  119SOL     OW  355   1.861   1.604   2.183 -0.0364  0.1173 -0.3480
  119SOL    HW1  356   1.814   1.694   2.146 -0.3933  1.8827 -0.5850
  119SOL    HW2  357   1.954   1.583   2.138 -0.5316 -0.1830  0.0715
  120SOL     OW  358   2.900   2.807   0.242  0.2888 -0.2939  0.0442
  120SOL    HW1  359   2.952   2.767   0.158 -0.9533 -0.0376 -0.6162
  120SOL    HW2  360   2.798   2.778   0.252  0.1076  1.3781  0.9210
  121SOL     OW  361   1.865   0.709   2.152 -0.3065  0.1066 -0.5824
  121SOL    HW1  362   1.896   0.781   2.084  2.8165 -0.0915  1.4782
  121SOL    HW2  363   1.881   0.612   2.119 -1.4078  0.0567  2.3180
  122SOL     OW  364   2.614   2.521   1.345 -0.6251 -0.9541  0.1948
  122SOL    HW1  365   2.653   2.489   1.253 -3.1954  1.7414 -1.0945
  122SOL    HW2  366   2.589   2.450   1.412  1.8384 -1.7260 -4.1195
  123SOL     OW  367   1.739   0.119   1.707  0.0834 -0.3404 -0.1044
  123SOL    HW1  368   1.736   0.016   1.673 -0.2524 -4.2970 -2.3441
  123SOL    HW2  369   1.838   0.146   1.731  0.2999 -0.0887 -0.0536
  124SOL     OW  370   3.062   0.473   1.086 -0.5452  0.2668  0.3048
  124SOL    HW1  371   2.982   0.523   1.132  0.1550 -1.3900  1.2751
  124SOL    HW2  372   3.089   0.506   0.988 -0.8478  1.4408 -1.0298
  125SOL     OW  373   0.896   1.922   0.770 -0.1531 -0.0792 -0.3860
  125SOL    HW1  374   0.974   1.859   0.746 -1.7969  2.3956  0.4887
  125SOL    HW2  375   0.840   1.888   0.853  0.5692  0.2118  3.5858
  126SOL     OW  376   1.940   2.288   2.403  0.5757 -0.4556 -0.1829
  126SOL    HW1  377   1.948   2.227   2.322  0.4565 -0.0893  1.7400
  126SOL    HW2  378   1.923   2.227   2.484  4.5514  0.8948 -0.6561
  127SOL     OW  379   0.896   0.970   0.194 -0.1892  0.2759 -0.2304
  127SOL    HW1  380   0.934   1.007   0.279  2.5715 -0.4353 -1.5718
  127SOL    HW2  381   0.923   0.871   0.177 -0.9240  0.9096  0.0150
  128SOL     OW  382   0.969   0.272   1.425 -0.8577  0.4552 -0.5505
  128SOL    HW1  383   0.945   0.352   1.361  2.6638 -0.2131  2.2135
  128SOL    HW2  384   0.918   0.182   1.414  3.8250 -1.2110  2.0183
  129SOL     OW  385   1.860   0.668   1.862  0.1306 -0.1901  0.3237
  129SOL    HW1  386   1.863   0.640   1.763 -0.8067 -3.3263 -1.2982
  129SOL    HW2  387   1.900   0.760   1.875  0.9947 -1.8721 -1.9994
  130SOL     OW  388   1.421   2.233   1.017 -0.1200  0.7797 -0.1341
  130SOL    HW1  389   1.361   2.187   0.948  1.0198  0.1370  1.1907
  130SOL    HW2  390   1.478   2.309   0.974 -0.8640 -1.3298 -2.0104
  131SOL     OW  391   3.035   1.348   1.351  0.5384  0.0941 -0.0104
  131SOL    HW1  392   2.982   1.268   1.397 -0.9318  1.7421  1.1514
  131SOL    HW2  393   3.143   1.338   1.348  2.0528  1.7510 -1.3496
  132SOL     OW  394   2.034   2.377   0.498  0.2752 -0.0413  0.4663
  132SOL    HW1  395   1.955   2.447   0.512  0.4036  1.5361  1.4316
  132SOL    HW2  396   2.033   2.302   0.565 -1.3028  0.2308 -1.8312
  133SOL     OW  397   1.767   2.335   2.751  0.5543 -0.2997 -0.2457
  133SOL    HW1  398   1.673   2.368   2.731  1.5486  0.5225 -1.6019
  133SOL    HW2  399   1.836   2.402   2.714 -3.3412  0.6199 -1.7297
  134SOL     OW  400   2.676   2.351   1.588 -0.0788  0.5339 -0.0756
  134SOL    HW1  401   2.610   2.368   1.667  0.0261  4.2054  0.3209
  134SOL    HW2  402   2.763   2.411   1.584  1.5560 -0.2207 -1.5666
  135SOL     OW  403   0.694   1.466   2.640 -0.0425  0.2004  0.2090
  135SOL    HW1  404   0.703   1.390   2.710 -0.5300 -1.4200 -1.5172
  135SOL    HW2  405   0.684   1.436   2.544 -2.4343 -0.6907  2.9364
  136SOL     OW  406   1.205   2.019   0.477 -0.7196 -0.2651 -0.7712
  136SOL    HW1  407   1.135   2.097   0.465 -0.7997  1.1594  0.5222
  136SOL    HW2  408   1.172   1.928   0.442  0.4160  0.4937  1.0668
  137SOL     OW  409   0.418   1.222   2.262 -0.7693 -0.3154 -0.2917
  137SOL    HW1  410   0.319   1.211   2.274  1.7483  1.0439  0.1747
  137SOL    HW2  411   0.467   1.130   2.270  0.8156 -1.9317  0.2306
  138SOL     OW  412   2.467   1.525   0.290 -0.7090  0.6177  0.1920
  138SOL    HW1  413   2.384   1.497   0.230 -1.8191 -0.2783 -0.2468
  138SOL    HW2  414   2.519   1.435   0.316  0.3086 -0.6756  1.1129
  139SOL     OW  415   1.875   2.622   1.500 -0.5056 -0.3100 -0.2609
  139SOL    HW1  416   1.794   2.665   1.454  0.5841 -0.4978  0.9770
  139SOL    HW2  417   1.896   2.527   1.463 -2.0474  0.2473  3.6096
  140SOL     OW  418   3.020   2.998   2.586 -0.4634  0.0848  0.2282
  140SOL    HW1  419   3.065   2.913   2.549  0.2557 -0.0444 -1.2619
  140SOL    HW2  420   3.069   3.083   2.565 -1.3894 -0.7304  0.4439
  141SOL     OW  421   1.317   1.635   1.583  0.4632 -0.4779  0.0063
  141SOL    HW1  422   1.251   1.716   1.585  0.8489 -0.6252 -0.8096
  141SOL    HW2  423   1.301   1.571   1.662  0.2562 -0.6827 -0.4178
  142SOL     OW  424   1.532   0.605   2.267 -0.4996  0.2074 -0.5314
  142SOL    HW1  425   1.536   0.611   2.162 -2.1597  0.3214 -1.8607
  142SOL    HW2  426   1.437   0.595   2.310 -0.4765  0.2030  0.7081
  143SOL     OW  427   2.771   0.839   0.548 -0.5913 -1.2250  0.4256
  143SOL    HW1  428   2.809   0.876   0.461  1.3234  0.9843 -2.1018
  143SOL    HW2  429   2.815   0.883   0.632  1.3125 -2.3124 -0.8245
  144SOL     OW  430   2.899   1.157   1.496  0.5003  0.0827 -0.1277
  144SOL    HW1  431   2.854   1.166   1.590 -1.5575  0.2412 -1.6655
  144SOL    HW2  432   2.974   1.085   1.490 -0.2292  0.3813 -1.2226
  145SOL     OW  433   0.950   1.829   0.130 -0.4900 -0.4638  0.0983
  145SOL    HW1  434   1.001   1.872   0.054 -2.3786  3.3907 -0.2311
  145SOL    HW2  435   0.914   1.733   0.108 -0.4301  0.5349 -1.5964
  146SOL     OW  436   2.441   0.673   1.475 -0.0159 -0.2029  0.1597
  146SOL    HW1  437   2.396   0.585   1.453  0.6402 -1.9474  1.0201
  146SOL    HW2  438   2.398   0.759   1.437 -1.1716  0.4971  0.4757
  147SOL     OW  439   1.086   2.491   0.582  0.2552  0.4258  0.0001
  147SOL    HW1  440   1.044   2.570   0.535 -2.3800 -0.3298 -1.0400
  147SOL    HW2  441   1.185   2.469   0.555 -0.1549  0.0944 -1.3543
  148SOL     OW  442   1.627   1.448   0.004 -0.6444  0.5258  0.3907
  148SOL    HW1  443   1.612   1.382  -0.076 -1.4400 -0.8592 -0.2838
  148SOL    HW2  444   1.590   1.409   0.094 -0.5905 -0.9237  1.2492
  149SOL     OW  445   0.656   1.516   1.956  0.3194 -0.4831 -0.1988
  149SOL    HW1  446   0.568   1.466   1.987 -1.3987  1.6814 -2.5244
  149SOL    HW2  447   0.721   1.457   1.899  1.1645  0.8467  0.0518
  150SOL     OW  448   3.020   1.224   0.968  0.4984  0.0866 -0.4261
  150SOL    HW1  449   3.095   1.213   1.038  0.4396 -1.2877  2.1148
  150SOL    HW2  450   2.944   1.155   0.980 -0.6755 -0.8315  0.3509
  151SOL     OW  451   0.205   0.795   2.078  0.4985  0.2645 -0.1649
  151SOL    HW1  452   0.181   0.884   2.034  2.8120  1.0250  1.5498
  151SOL    HW2  453   0.299   0.764   2.052 -1.4207  1.4210  0.0681
  152SOL     OW  454   1.428   1.782   1.193  0.3667 -0.2674  0.3205
  152SOL    HW1  455   1.460   1.879   1.213  0.0812 -0.6406  0.8573
  152SOL    HW2  456   1.335   1.781   1.152 -0.8304 -1.0788  0.2229
  153SOL     OW  457   0.193   1.511   0.202  0.2486  0.3185  0.0773
  153SOL    HW1  458   0.189   1.409   0.228  0.3307  0.5432  1.7386
  153SOL    HW2  459   0.134   1.571   0.265  0.3778 -0.7145 -2.0551
  154SOL     OW  460   2.314   1.905   2.795 -0.2411 -0.0249 -0.4753
  154SOL    HW1  461   2.327   1.803   2.811 -1.8809 -2.6482  0.7104
  154SOL    HW2  462   2.393   1.944   2.741 -3.0131 -1.1639 -1.5520
  155SOL     OW  463   2.504   1.252   0.369 -1.0445  0.2201 -0.2641
  155SOL    HW1  464   2.592   1.208   0.340  1.0810  0.2053  0.5043
  155SOL    HW2  465   2.428   1.180   0.364  1.3946 -1.4987  1.2045
  156SOL     OW  466   2.461   0.830   0.746 -0.2582 -0.0315 -0.0703
  156SOL    HW1  467   2.374   0.798   0.700 -0.0378 -0.4561  0.1861
  156SOL    HW2  468   2.507   0.899   0.684 -0.7818  2.9523 -0.5560
  157SOL     OW  469   1.239   2.999   2.984  0.3458 -0.4312  0.4781
  157SOL    HW1  470   1.319   2.966   2.935 -0.4896 -1.0498  0.5326
  157SOL    HW2  471   1.254   3.089   3.038 -2.1568 -0.6149 -1.7984
  158SOL     OW  472   1.002   1.868   1.838  0.1702 -0.3410  0.2289
  158SOL    HW1  473   1.036   1.963   1.811  0.2790  0.8478 -1.1124
  158SOL    HW2  474   0.921   1.880   1.903  0.9761  2.2877  1.3935
  159SOL     OW  475   0.855   0.434   1.221  0.1909 -0.4376 -0.1393
  159SOL    HW1  476   0.806   0.524   1.245  1.9260  1.2355  1.1299
  159SOL    HW2  477   0.797   0.358   1.176  1.1159  0.7298  1.5110
  160SOL     OW  478   1.371   2.453   1.529 -0.3128 -0.3650 -0.0899
  160SOL    HW1  479   1.323   2.369   1.561 -3.7231  1.4918 -1.3801
  160SOL    HW2  480   1.476   2.454   1.536  0.8089  1.3556 -0.3996
  161SOL     OW  481   3.059   2.751   0.462  0.0905 -0.7425  0.1749
  161SOL    HW1  482   3.060   2.644   0.451 -0.3318 -1.1194  1.0380
  161SOL    HW2  483   3.010   2.795   0.375 -0.4495  0.7581 -0.0802
  162SOL     OW  484   2.565   1.811   0.471 -0.2238 -0.0108  0.0705
  162SOL    HW1  485   2.610   1.784   0.386  0.5539 -1.7286  0.9595
  162SOL    HW2  486   2.523   1.728   0.517  3.1347 -2.3565  0.0629
  163SOL     OW  487   1.964   2.671   0.755 -0.3609 -0.4060  0.2337
  163SOL    HW1  488   1.888   2.688   0.685 -0.2597  0.0373  0.9904
  163SOL    HW2  489   2.024   2.595   0.724  1.2762  0.5752 -0.1984
  164SOL     OW  490   3.053   0.242   1.268  0.0705 -0.5156 -0.1849
  164SOL    HW1  491   3.070   0.340   1.231  2.3895  0.6199  1.4786
  164SOL    HW2  492   3.122   0.214   1.342  0.4752  2.7472 -0.7252
  165SOL     OW  493   1.076   1.433   0.669  0.5541  0.0518  0.0591
  165SOL    HW1  494   1.096   1.473   0.759  0.0409 -0.1189  0.7619
  165SOL    HW2  495   1.063   1.504   0.591 -1.6515 -1.3123 -3.0310
  166SOL     OW  496   1.579   1.013   1.775 -0.5624  0.0271 -0.2679
  166SOL    HW1  497   1.479   1.023   1.779 -0.8195 -1.5502 -0.4970
  166SOL    HW2  498   1.630   1.100   1.764  1.2759 -0.9953  0.5764
  167SOL     OW  499   0.784   1.946   1.443 -0.0124 -0.5251  0.1031
  167SOL    HW1  500   0.786   2.030   1.511  0.2488 -2.0091 -0.5276
  167SOL    HW2  501   0.719   1.869   1.472 -0.1070 -0.3239 -2.2709
  168SOL     OW  502   1.590   2.354   0.170 -0.1475 -0.3294  0.1996
  168SOL    HW1  503   1.647   2.362   0.083 -1.9754 -0.6635  1.6938
  168SOL    HW2  504   1.652   2.324   0.250  1.2051  4.5501 -0.5233
  169SOL     OW  505   0.103   2.576   2.220 -0.6216 -0.0883 -0.0252
  169SOL    HW1  506   0.151   2.551   2.136 -2.0470  0.4189  0.7848
  169SOL    HW2  507   0.161   2.554   2.304 -2.2355  0.2115  0.5768
  170SOL     OW  508   1.114   0.224   2.029  0.4690 -0.1668  0.5979
  170SOL    HW1  509   1.198   0.226   2.086  1.9766 -1.9718 -0.2767
  170SOL    HW2  510   1.129   0.192   1.929  0.5342 -0.5447 -2.1468
  171SOL     OW  511   0.205   0.834   2.378  0.2285  0.3831  0.0289
  171SOL    HW1  512   0.109   0.840   2.409 -0.1834  0.3826  1.7827
  171SOL    HW2  513   0.219   0.794   2.279  0.3637 -2.2088 -1.2643
  172SOL     OW  514   0.968   0.988   2.932 -0.3246  0.0447  0.1099
  172SOL    HW1  515   0.947   1.074   2.989 -0.2854 -0.8921 -0.5719
  172SOL    HW2  516   0.927   0.992   2.837  1.3618  0.0338  0.6349
  173SOL     OW  517   0.514   2.443   0.162  0.0012 -0.1000  0.4242
  173SOL    HW1  518   0.494   2.356   0.114  2.0616  4.0704  1.0710
  173SOL    HW2  519   0.435   2.492   0.205  2.2349 -0.3914 -0.7450
  174SOL     OW  520   1.477   2.843   1.072  0.3714  0.5824  0.2840
  174SOL    HW1  521   1.552   2.898   1.030 -1.5880 -1.3448  3.3208
  174SOL    HW2  522   1.455   2.754   1.018 -2.2830 -0.8488  0.2255
  175SOL     OW  523   0.464   3.058   1.681 -0.5966  0.1498  0.1866
  175SOL    HW1  524   0.506   3.039   1.775 -3.0503 -0.9362 -0.4913
  175SOL    HW2  525   0.426   3.154   1.670  1.6667 -0.5912 -2.3968
  176SOL     OW  526   2.591   0.369   0.010  0.4539 -0.0093 -0.1856
  176SOL    HW1  527   2.595   0.466   0.051 -0.4761  0.4976  1.9795
  176SOL    HW2  528   2.557   0.290   0.073  0.1247 -2.6727  0.8530
  177SOL     OW  529   0.311   0.283   0.974  0.0250  0.1145  0.8631
  177SOL    HW1  530   0.267   0.193   0.953  0.2286  1.8737 -0.8835
  177SOL    HW2  531   0.272   0.326   1.060  0.9658  3.1888 -1.3761
  178SOL     OW  532  -0.002   2.729   2.586  0.0492  0.2504 -0.5267
  178SOL    HW1  533  -0.003   2.629   2.556 -1.2033  0.5636 -2.0714
  178SOL    HW2  534   0.080   2.749   2.650  2.0633  1.6130 -1.6659
  179SOL     OW  535   3.037   1.554   1.129  0.2917 -0.0311 -0.3987
  179SOL    HW1  536   3.098   1.617   1.072  0.5346 -1.2976 -5.1323
  179SOL    HW2  537   3.088   1.487   1.186 -1.8040  3.4634  2.0180
  180SOL     OW  538   0.192   1.361   1.784  0.3995  0.3255 -0.3411
  180SOL    HW1  539   0.281   1.325   1.806  0.4280  1.4041  1.4781
  180SOL    HW2  540   0.130   1.366   1.867  1.2903  1.4010 -0.4625
  181SOL     OW  541   2.999   1.931   2.503 -0.5605 -0.2050  0.1653
  181SOL    HW1  542   3.076   2.004   2.479  0.3367 -1.2176 -0.1287
  181SOL    HW2  543   2.925   1.912   2.438  2.2501 -0.0545  2.5280
  182SOL     OW  544   2.338   1.274   1.263  0.1065  0.3692  0.4147
  182SOL    HW1  545   2.261   1.227   1.206 -0.5668  1.6279 -2.7160
  182SOL    HW2  546   2.352   1.374   1.238 -0.1045  3.5146 -0.5384
  183SOL     OW  547   1.398   2.237   2.507 -0.6983  0.1245 -0.4930
  183SOL    HW1  548   1.312   2.185   2.530 -1.3947  0.4602 -1.3250
  183SOL    HW2  549   1.477   2.175   2.471  0.5945 -1.2622  0.4318
  184SOL     OW  550   2.125   0.881   0.713  0.4547 -1.0565  0.0363
  184SOL    HW1  551   2.029   0.910   0.710  1.6663 -3.2064 -0.0811
  184SOL    HW2  552   2.128   0.786   0.745 -0.0727  2.8161 -1.4232
  185SOL     OW  553   1.535   2.744   2.010 -0.2554  0.1685  0.3363
  185SOL    HW1  554   1.464   2.818   1.991 -0.7180  1.3275  0.1129
  185SOL    HW2  555   1.582   2.753   2.103 -0.0843  0.2664  1.4130
  186SOL     OW  556   0.053   2.202   1.638 -0.2969 -0.2825  0.1994
  186SOL    HW1  557   0.023   2.265   1.719  0.0425 -0.5032 -1.1032
  186SOL    HW2  558   0.133   2.141   1.655 -1.8187  1.1984 -0.9147
  187SOL     OW  559   1.374   0.619   1.639 -0.0315  0.0400  0.3398
  187SOL    HW1  560   1.472   0.655   1.644  0.3119  0.2056 -0.6392
  187SOL    HW2  561   1.367   0.547   1.707 -0.5168 -2.0529 -2.8726
  188SOL     OW  562   2.836   2.711   1.422 -0.1335  0.2717 -0.1912
  188SOL    HW1  563   2.810   2.813   1.409 -2.3063  1.9839 -0.8125
  188SOL    HW2  564   2.773   2.655   1.364  1.1398  1.0476 -0.8179
  189SOL     OW  565   0.880   1.164   1.416 -0.4621 -0.0331 -0.5173
  189SOL    HW1  566   0.935   1.218   1.486  1.4523 -2.5611 -0.9002
  189SOL    HW2  567   0.839   1.229   1.351 -0.2365 -0.4592  1.0537
  190SOL     OW  568   1.497   1.869   1.566 -0.3483 -0.7137 -0.4188
  190SOL    HW1  569   1.448   1.780   1.565 -0.8199  0.1621  0.9468
  190SOL    HW2  570   1.479   1.918   1.651  1.1842  2.4984 -1.7584
  191SOL     OW  571   0.930   0.818   1.521 -0.6052  0.3441  0.5040
  191SOL    HW1  572   1.004   0.757   1.559  0.9845  4.7115  1.2567
  191SOL    HW2  573   0.967   0.879   1.445  2.0185 -0.1455  1.0190
  192SOL     OW  574   1.848   2.455   1.098 -0.3166  0.9314 -0.2072
  192SOL    HW1  575   1.746   2.449   1.068  0.1325  1.9237  0.0962
  192SOL    HW2  576   1.918   2.399   1.042  2.6008 -0.0122 -2.1797
  193SOL     OW  577   0.519   0.528   0.409  0.0695 -0.2298 -0.1988
  193SOL    HW1  578   0.496   0.435   0.462 -1.2527 -0.8942  0.2976
  193SOL    HW2  579   0.539   0.516   0.310  0.4877 -1.2369  0.6369
  194SOL     OW  580   0.307   0.917   1.313  0.2534  0.1251  0.4479
  194SOL    HW1  581   0.233   0.841   1.321 -1.2657 -1.3343  0.0098
  194SOL    HW2  582   0.345   0.933   1.219  0.7977  1.1663  2.2457
  195SOL     OW  583   0.986   2.880   0.514 -0.0068 -0.1284  0.3239
  195SOL    HW1  584   0.965   2.807   0.441  0.0979  1.5144  0.0721
  195SOL    HW2  585   1.085   2.910   0.492 -0.3698 -1.3043 -2.9008
  196SOL     OW  586   0.204   1.367   1.340  0.2454 -0.3056  0.3108
  196SOL    HW1  587   0.221   1.466   1.366 -1.5100  0.0447 -0.1032
  196SOL    HW2  588   0.197   1.304   1.424  1.1238 -2.6636 -1.1918
  197SOL     OW  589   0.819   1.991   0.296 -0.0282  0.2067  0.3836
  197SOL    HW1  590   0.800   1.944   0.389 -0.3825  0.3358  1.1428
  197SOL    HW2  591   0.875   1.922   0.235  3.5902 -1.3355  1.1574
  198SOL     OW  592   0.316   1.241   0.346 -0.4176 -0.2872  0.3049
  198SOL    HW1  593   0.212   1.231   0.317 -0.6570 -0.6535 -2.3137
  198SOL    HW2  594   0.334   1.338   0.383 -2.2322  1.2015  0.2175
  199SOL     OW  595   2.280   0.436   2.582  0.2249  0.0487  0.0121
  199SOL    HW1  596   2.220   0.364   2.628  0.4517  0.7557  1.5433
  199SOL    HW2  597   2.380   0.419   2.588 -2.6001  3.5151 -2.5483
  200SOL     OW  598   3.098   2.993   0.783  0.2356 -0.4810  0.9355
  200SOL    HW1  599   3.118   3.087   0.829  1.1722 -1.6679 -1.5634
  200SOL    HW2  600   3.023   2.993   0.708  0.3357 -0.6160  2.9404
  201SOL     OW  601   0.979   0.719   0.511 -0.2235  0.4073  0.3919
  201SOL    HW1  602   0.946   0.804   0.558 -0.4264  0.7266 -0.6633
  201SOL    HW2  603   0.914   0.639   0.540  2.0108  2.0803 -0.2647
  202SOL     OW  604   0.406   1.204   1.866 -0.4515 -0.0804 -0.5736
  202SOL    HW1  605   0.492   1.155   1.836 -1.2089 -0.0142 -0.0752
  202SOL    HW2  606   0.431   1.274   1.938 -4.2947  0.9207  0.0955
  203SOL     OW  607   0.564   0.198   1.552  0.2447  0.7962  0.1915
  203SOL    HW1  608   0.576   0.136   1.467  3.4173  0.6380  0.7734
  203SOL    HW2  609   0.654   0.196   1.610  0.6768  1.0341  1.1638
  204SOL     OW  610   2.116   1.812   2.991  0.1096 -0.0760  0.1970
  204SOL    HW1  611   2.125   1.712   3.012 -0.5181  3.4100 -1.7235
  204SOL    HW2  612   2.171   1.849   2.907 -0.8048  2.9087  2.4243
  205SOL     OW  613   1.841   1.826   3.062 -0.1411  0.4951  0.5593
  205SOL    HW1  614   1.934   1.798   3.022  0.1269  3.2329  1.3653
  205SOL    HW2  615   1.812   1.922   3.029  1.7350  1.5769  0.2360
  206SOL     OW  616   2.414   2.810   0.384 -0.1164 -0.1277  0.3087
  206SOL    HW1  617   2.403   2.725   0.436 -1.3756 -1.1940  1.3682
  206SOL    HW2  618   2.482   2.803   0.308 -2.8758  0.0826 -1.5675
  207SOL     OW  619   0.687   1.755   2.919  0.3328 -0.2517 -0.6985
  207SOL    HW1  620   0.769   1.701   2.891 -2.2459  0.7256 -2.4824
  207SOL    HW2  621   0.638   1.711   2.999  3.4000  1.0178  0.2509
  208SOL     OW  622   1.137   1.672   1.305 -0.7674  0.2717 -0.9484
  208SOL    HW1  623   1.148   1.744   1.233 -1.5411 -0.4990 -1.4505
  208SOL    HW2  624   1.124   1.710   1.401  1.1369  0.2398 -0.4290
  209SOL     OW  625   0.222   0.975   3.096 -0.5497  0.2141  0.2057
  209SOL    HW1  626   0.200   0.906   3.022 -2.9021 -1.4154 -1.4238
  209SOL    HW2  627   0.248   0.924   3.183 -0.5139  0.0349  1.3291
  210SOL     OW  628   1.721   0.492   1.210  0.6285 -0.2491  0.0202
  210SOL    HW1  629   1.661   0.575   1.179 -0.2281  0.5504  1.4619
  210SOL    HW2  630   1.816   0.514   1.182 -2.5600 -1.4593  1.5453
  211SOL     OW  631   2.031   1.037   1.571 -0.2097 -0.8404 -0.1589
  211SOL    HW1  632   2.055   0.963   1.637  2.3636 -0.7072  0.4379
  211SOL    HW2  633   2.113   1.104   1.549  0.0932  4.9124 -0.3620
  212SOL     OW  634  -0.001   1.000   1.509  0.0756  0.0567 -0.3148
  212SOL    HW1  635   0.090   1.047   1.524 -0.9762 -1.8408 -0.1118
  212SOL    HW2  636  -0.006   0.904   1.547 -0.2666  1.5466  0.3834
  213SOL     OW  637   2.735   0.206   0.310  0.2323  1.0668 -0.5437
  213SOL    HW1  638   2.830   0.161   0.297  0.5671  0.6284 -2.3261
  213SOL    HW2  639   2.651   0.137   0.289 -3.2510 -0.8173 -0.5173
  214SOL     OW  640   2.169   0.385   2.344 -0.3600 -0.7590  0.2352
  214SOL    HW1  641   2.229   0.430   2.420  0.1501  1.0903 -0.7162
  214SOL    HW2  642   2.162   0.284   2.365  0.2559 -2.3662  0.6487
  215SOL     OW  643   1.665   2.263   2.104  0.5822 -0.4785 -0.0567
  215SOL    HW1  644   1.758   2.303   2.082  1.1137  0.2594  1.1106
  215SOL    HW2  645   1.595   2.336   2.129  0.8983 -0.6812 -0.2771
  216SOL     OW  646   2.196   0.597   0.693 -0.7477  0.3938 -0.6616
  216SOL    HW1  647   2.171   0.501   0.653  0.4688  0.7889 -2.2801
  216SOL    HW2  648   2.224   0.652   0.613 -0.2146 -2.9322  0.0048
  217SOL     OW  649   0.847   2.793   2.499  1.2187  0.1884  0.4031
  217SOL    HW1  650   0.783   2.728   2.549 -0.1917  0.3151  1.0147
  217SOL    HW2  651   0.873   2.762   2.408 -0.0519  1.6310  0.0008
  218SOL     OW  652   1.891   1.483   0.052 -0.1787 -0.1704  0.3787
  218SOL    HW1  653   1.788   1.481   0.033  2.2117 -0.3068 -1.3997
  218SOL    HW2  654   1.921   1.419   0.130 -0.5106  0.0969 -0.0942
  219SOL     OW  655   2.471   1.283   2.536  0.5258  0.3961  0.1755
  219SOL    HW1  656   2.482   1.238   2.443 -0.6517 -0.0342 -1.7683
  219SOL    HW2  657   2.495   1.221   2.614  2.1459 -1.6856 -0.0236
  220SOL     OW  658   1.429   1.008   1.370 -0.1577  0.4710  0.5071
  220SOL    HW1  659   1.531   1.028   1.378 -1.4881  0.3915  0.1463
  220SOL    HW2  660   1.390   1.033   1.277  0.2118  0.9663  3.2124
  221SOL     OW  661   1.287   0.955   2.204  0.6459 -0.6538  0.5187
  221SOL    HW1  662   1.258   0.925   2.111 -0.0643  1.2793 -1.1469
  221SOL    HW2  663   1.372   1.017   2.187 -0.4244 -0.2109 -0.3744
  222SOL     OW  664   1.110   0.137   1.205 -0.3104 -0.0413  0.5021
  222SOL    HW1  665   1.067   0.215   1.256 -2.0087 -0.9941  0.8421
  222SOL    HW2  666   1.143   0.155   1.105  0.4024 -1.6925 -0.5210
  223SOL     OW  667   2.694   0.930   2.135 -0.1185 -0.0404 -0.2935
  223SOL    HW1  668   2.660   1.021   2.170 -0.2394  1.8405 -0.6429
  223SOL    HW2  669   2.797   0.919   2.151  0.6939  1.4652 -1.5070
  224SOL     OW  670   1.461   1.074   2.718 -0.1127 -0.6788 -0.1031
  224SOL    HW1  671   1.453   0.984   2.677  1.3398  0.6870  3.4655
  224SOL    HW2  672   1.502   1.149   2.656  4.3431  0.0029 -2.8930
  225SOL     OW  673   2.980   2.719   2.880 -0.0220 -0.3605  0.3662
  225SOL    HW1  674   2.887   2.697   2.836 -1.1725 -0.4461  0.4883
  225SOL    HW2  675   3.046   2.768   2.811  1.1442 -0.2398 -2.5542
  226SOL     OW  676   2.359   1.613   2.829  0.2203 -0.2674 -0.8420
  226SOL    HW1  677   2.398   1.598   2.733  3.3787  3.3481 -2.2573
  226SOL    HW2  678   2.342   1.523   2.880  1.1899  2.3260 -0.4079
  227SOL     OW  679   0.854   0.209   3.077  0.2617  0.4371 -0.5527
  227SOL    HW1  680   0.885   0.310   3.078 -1.1376  0.3486 -0.2065
  227SOL    HW2  681   0.793   0.187   2.994  2.2870 -1.8749  0.4129
  228SOL     OW  682   2.422   0.586   2.826 -0.3336  0.1511 -0.2203
  228SOL    HW1  683   2.451   0.666   2.764 -2.0788  1.4123 -0.4118
  228SOL    HW2  684   2.510   0.530   2.853  0.7780 -1.9850 -2.2490
  229SOL     OW  685   0.567   0.454   1.800  0.2124  0.1242 -0.4876
  229SOL    HW1  686   0.582   0.352   1.823  0.6741 -0.0905 -0.6411
  229SOL    HW2  687   0.627   0.481   1.724 -0.9311  1.2251 -1.3083
  230SOL     OW  688   1.877   1.180   2.022 -0.1470  0.6452 -0.2779
  230SOL    HW1  689   1.956   1.239   1.991 -0.3160  0.1741 -0.0846
  230SOL    HW2  690   1.812   1.228   2.088 -0.2192  1.3558 -2.4925
  231SOL     OW  691   0.659   1.069   0.010  0.8043 -0.1328 -0.3960
  231SOL    HW1  692   0.745   1.123   0.003 -2.3751 -1.8960 -0.4816
  231SOL    HW2  693   0.580   1.133   0.033 -0.8544  3.6475  1.0877
  232SOL     OW  694   2.439   3.011   2.825  0.4412 -0.6718 -0.2853
  232SOL    HW1  695   2.505   2.931   2.835 -4.2665 -1.7248 -0.5740
  232SOL    HW2  696   2.472   3.077   2.752 -0.3628 -2.2174  0.4082
  233SOL     OW  697   1.772   1.243   1.230 -0.2687 -0.0036  0.2067
  233SOL    HW1  698   1.833   1.236   1.147  1.8713  2.1158 -0.7581
  233SOL    HW2  699   1.754   1.150   1.273  0.1374 -1.2012 -0.4268
  234SOL     OW  700   1.597   2.531   1.843  0.3230 -0.0431 -0.1732
  234SOL    HW1  701   1.575   2.598   1.917 -1.7711  0.8053  2.3983
  234SOL    HW2  702   1.557   2.439   1.866  0.0457 -0.0321 -2.8559
  235SOL     OW  703   0.027   3.021   2.846  0.0157 -0.8396  0.3865
  235SOL    HW1  704  -0.023   3.023   2.758  2.7438 -0.6312  3.9921
  235SOL    HW2  705  -0.033   3.052   2.929  0.0218 -0.4142  0.0912
  236SOL     OW  706   2.875   0.730   0.094  0.6086 -0.0178  0.7491
  236SOL    HW1  707   2.956   0.758   0.149 -2.1474 -3.6580  1.2397
  236SOL    HW2  708   2.900   0.645   0.038  1.3523 -1.1096  1.0459
  237SOL     OW  709   1.514   1.633   0.959 -0.6768 -0.0952 -0.0100
  237SOL    HW1  710   1.612   1.602   0.931 -1.2744  1.3689  1.7737
  237SOL    HW2  711   1.509   1.678   1.049 -0.9739  2.2812 -1.1745
  238SOL     OW  712   1.881   1.242   0.757  0.0682 -0.5707 -0.1627
  238SOL    HW1  713   1.936   1.271   0.845 -0.0410  0.1745  2.3078
  238SOL    HW2  714   1.784   1.280   0.749  3.0404 -1.8150  0.5563
  239SOL     OW  715   2.096   0.306   2.754 -0.2215 -0.1166  0.4240
  239SOL    HW1  716   2.099   0.282   2.852 -1.9900  0.1252 -0.7683
  239SOL    HW2  717   2.001   0.338   2.720 -1.0535  1.0703  1.4290
  240SOL     OW  718   0.921   0.668   0.235 -0.0319 -0.0139 -0.3868
  240SOL    HW1  719   0.992   0.601   0.202 -1.0339  1.7709  3.5443
  240SOL    HW2  720   0.942   0.700   0.332  1.3250  0.2258 -3.6626
  241SOL     OW  721   0.604   0.100   0.390 -0.3441 -0.3445  0.0730
  241SOL    HW1  722   0.644   0.169   0.324  1.3724  2.0041  0.4539
  241SOL    HW2  723   0.618   0.002   0.354  2.4466 -0.2351  0.7439
  242SOL     OW  724   0.626   2.547   1.161  0.2205  0.6990  0.3460
  242SOL    HW1  725   0.633   2.523   1.262  1.3562 -1.5783  1.2203
  242SOL    HW2  726   0.638   2.646   1.146 -1.6805  0.6542 -1.1438
  243SOL     OW  727   1.049   0.569   2.434 -0.1481 -0.8434 -0.5987
  243SOL    HW1  728   0.970   0.597   2.370  0.6290 -0.5360  0.7742
  243SOL    HW2  729   1.023   0.510   2.516  0.0597  0.7450 -2.9362
  244SOL     OW  730   2.780   1.875   2.325 -0.5629 -0.4122  0.1308
  244SOL    HW1  731   2.808   1.876   2.226  0.8900 -2.0385  0.0396
  244SOL    HW2  732   2.686   1.835   2.345 -2.8004 -0.5015 -0.8133
  245SOL     OW  733   2.197   0.908   2.187 -0.5601 -0.0571 -0.1312
  245SOL    HW1  734   2.282   0.895   2.246 -0.3482  1.4244  2.0697
  245SOL    HW2  735   2.147   0.990   2.230  0.7692 -0.5243 -2.0815
  246SOL     OW  736   0.202   2.883   1.709  0.0099 -0.5111  0.2153
  246SOL    HW1  737   0.138   2.887   1.629  1.0841 -0.1807 -0.5758
  246SOL    HW2  738   0.298   2.911   1.678  3.2743  0.6777 -0.5813
  247SOL     OW  739   2.218   0.652   3.017 -0.2565  0.1136  0.4355
  247SOL    HW1  740   2.279   0.621   2.939  0.8296  0.3459 -2.9326
  247SOL    HW2  741   2.177   0.746   2.996  1.6543  1.7557 -0.9937
  248SOL     OW  742   2.201   1.825   1.547  0.1532 -0.0192 -0.1044
  248SOL    HW1  743   2.274   1.809   1.623  2.3814  0.4295  2.9487
  248SOL    HW2  744   2.109   1.802   1.587  4.7048 -0.6663  0.7993
  249SOL     OW  745   1.951   1.897   1.899  0.0919  0.0772 -0.0720
  249SOL    HW1  746   1.957   1.815   1.833  1.3151 -0.8507  2.8755
  249SOL    HW2  747   2.046   1.936   1.917 -0.3936 -1.4532 -0.6678
  250SOL     OW  748   1.091   0.705   1.875  0.0507 -0.1896 -0.2304
  250SOL    HW1  749   1.083   0.623   1.940  1.0944 -2.4792 -0.0139
  250SOL    HW2  750   1.071   0.686   1.777  3.2012  0.0585 -0.4348
  251SOL     OW  751   3.050   1.684   2.523 -1.0628  0.0676  0.3389
  251SOL    HW1  752   3.038   1.786   2.521 -0.0455 -0.5491  2.0134
  251SOL    HW2  753   2.966   1.637   2.561 -0.4831 -2.8601 -1.6633
  252SOL     OW  754   1.615   0.742   1.693 -0.4402 -0.1158  0.4812
  252SOL    HW1  755   1.679   0.697   1.760  0.5559 -2.1326 -2.1424
  252SOL    HW2  756   1.612   0.846   1.712 -0.3364  1.7928  0.4885
  253SOL     OW  757   0.980   1.605   0.461 -0.1015  0.6681 -0.0626
  253SOL    HW1  758   0.999   1.528   0.396  0.5738 -0.7541 -0.8364
  253SOL    HW2  759   0.892   1.591   0.509  2.4850 -0.0657 -2.6593
  254SOL     OW  760   2.026   2.172   1.633 -0.2698 -0.1914  0.0279
  254SOL    HW1  761   1.979   2.105   1.565 -0.7231  1.1493 -1.3481
  254SOL    HW2  762   1.953   2.217   1.693 -1.1741  0.1318  0.3424
  255SOL     OW  763   0.143   1.190   2.908  0.2116 -0.0606  0.0524
  255SOL    HW1  764   0.202   1.275   2.887  1.7849  2.5381 -0.6863
  255SOL    HW2  765   0.187   1.125   2.975 -1.7588 -0.9327 -1.5072
  256SOL     OW  766   2.866   1.413   1.828 -0.2781  0.1037  0.7404
  256SOL    HW1  767   2.783   1.455   1.865 -1.5035 -1.7560  0.9524
  256SOL    HW2  768   2.862   1.309   1.812  1.8278 -0.4955  0.6760
  257SOL     OW  769   0.797   0.175   1.736 -0.2446 -0.7346  0.1255
  257SOL    HW1  770   0.860   0.262   1.730  1.9441  1.6669 -3.6503
  257SOL    HW2  771   0.845   0.086   1.747  1.6655  0.0268 -0.2370
  258SOL     OW  772   2.993   1.230   0.474 -0.1613 -0.1684  0.1332
  258SOL    HW1  773   2.893   1.229   0.507 -0.1740  1.7000  2.0447
  258SOL    HW2  774   3.065   1.250   0.545 -0.0202 -2.9295 -1.8344
  259SOL     OW  775   0.416   2.894   3.050 -0.2922 -0.5133 -0.1574
  259SOL    HW1  776   0.354   2.840   3.111 -0.0013  0.4069 -0.7136
  259SOL    HW2  777   0.448   2.841   2.965 -3.3424 -0.0556  1.4691
  260SOL     OW  778   2.721   0.678   2.779 -0.3425  0.8278  0.6856
  260SOL    HW1  779   2.647   0.745   2.759 -1.3938 -0.8412  0.7738
  260SOL    HW2  780   2.700   0.605   2.845 -0.6202  2.1848  1.9856
  261SOL     OW  781   2.723   1.277   1.334 -0.3226 -0.4235 -0.3620
  261SOL    HW1  782   2.702   1.242   1.235  0.0193  0.8851 -2.4233
  261SOL    HW2  783   2.787   1.220   1.395 -0.4151  0.1621 -1.9753
  262SOL     OW  784   1.383   2.956   1.918 -0.6512  0.3181  0.0421
  262SOL    HW1  785   1.405   3.052   1.886 -0.5053 -0.5685  1.6050
  262SOL    HW2  786   1.283   2.924   1.923 -0.3277  0.3794 -1.4251
  263SOL     OW  787   0.854   0.677   2.286  0.0469  0.9169  0.3092
  263SOL    HW1  788   0.800   0.600   2.249 -0.7656  0.2954  1.3154
  263SOL    HW2  789   0.895   0.733   2.209 -1.3586 -3.6181 -1.8875
  264SOL     OW  790   2.238   0.803   0.395 -0.2883  0.1616  0.2673
  264SOL    HW1  791   2.257   0.765   0.301 -0.7255  1.8275  1.6070
  264SOL    HW2  792   2.326   0.833   0.439  0.8091  0.1594 -3.2523
  265SOL     OW  793   0.932   2.437   2.635  0.4822  0.1026 -0.6916
  265SOL    HW1  794   0.991   2.499   2.704 -0.0542  0.2414  0.4279
  265SOL    HW2  795   0.942   2.336   2.654 -0.0649  0.6344  0.1624
  266SOL     OW  796   1.326   1.790   3.040  0.0068 -0.1421  0.3459
  266SOL    HW1  797   1.339   1.829   3.134 -1.5032 -0.7335 -0.2037
  266SOL    HW2  798   1.417   1.749   3.007 -1.9249 -1.8099 -2.0011
  267SOL     OW  799   1.040   0.081   2.323  0.4262 -0.0213 -0.0595
  267SOL    HW1  800   0.994   0.014   2.263  0.5476  2.6259  1.4239
  267SOL    HW2  801   1.012   0.178   2.296  0.8635 -0.6800 -1.5204
  268SOL     OW  802   0.707   1.229   1.076  1.1113  0.5422 -0.2288
  268SOL    HW1  803   0.695   1.265   1.168 -0.1934 -1.0667 -2.0628
  268SOL    HW2  804   0.688   1.309   1.009  0.3374  1.0609 -0.9526
  269SOL     OW  805   2.341   2.508   1.607  0.2527 -0.4683 -0.7937
  269SOL    HW1  806   2.435   2.471   1.630 -0.7779  2.0654  2.3189
  269SOL    HW2  807   2.286   2.545   1.687  1.8469 -1.0408 -1.9941
  270SOL     OW  808   0.146   2.983   1.963 -0.5384  0.4634  0.2218
  270SOL    HW1  809   0.171   2.945   1.869  0.5160  1.5370 -0.1354
  270SOL    HW2  810   0.127   2.906   2.031  0.9993 -0.8955  0.8140
  271SOL     OW  811   0.419   1.404   1.158 -0.0634 -0.0612 -0.0542
  271SOL    HW1  812   0.399   1.381   1.058 -2.3096  0.0891 -0.2329
  271SOL    HW2  813   0.351   1.366   1.228 -0.3685 -1.6814  3.3722
  272SOL     OW  814   2.019   2.967   1.931 -0.4928  0.0219 -0.4034
  272SOL    HW1  815   1.954   2.926   1.866 -0.2819 -1.1335  1.6790
  272SOL    HW2  816   2.102   3.015   1.890  3.1159  3.0373  0.1873
  273SOL     OW  817   1.500   1.436   2.759 -0.2588  0.0203  0.2649
  273SOL    HW1  818   1.396   1.428   2.744  0.4073  0.6087 -1.4786
  273SOL    HW2  819   1.536   1.391   2.846  0.1274  1.0840  1.0933
  274SOL     OW  820   1.181   0.507   2.055 -0.1405 -0.1785  0.0574
  274SOL    HW1  821   1.123   0.424   2.050 -1.5598  3.6290  0.1589
  274SOL    HW2  822   1.207   0.524   2.154 -0.9338  1.5611 -1.1760
  275SOL     OW  823   0.657   2.127   1.893 -0.0749 -0.0059  0.4610
  275SOL    HW1  824   0.651   2.229   1.882  1.1250 -2.6824 -1.5468
  275SOL    HW2  825   0.565   2.082   1.900  1.2835 -0.6220  0.0043
  276SOL     OW  826   2.193   1.121   2.778 -0.0723 -0.0370  0.2315
  276SOL    HW1  827   2.113   1.172   2.744  0.4893 -0.0074  1.2399
  276SOL    HW2  828   2.162   1.033   2.828 -2.0054 -1.0365 -1.3344
  277SOL     OW  829  -0.003   0.778   0.240 -0.0332  0.7606 -0.0162
  277SOL    HW1  830   0.093   0.804   0.208  2.6102 -1.0953  0.6865
  277SOL    HW2  831  -0.000   0.706   0.315 -1.8618  0.7245  0.4493
  278SOL     OW  832   0.205   0.268   2.925 -0.4603 -0.5496 -0.0284
  278SOL    HW1  833   0.275   0.188   2.925 -0.3893 -1.6430  0.4292
  278SOL    HW2  834   0.243   0.361   2.911  1.2125 -0.3982  2.8393
  279SOL     OW  835   0.235   0.019   0.900  0.4546 -0.3263  0.2966
  279SOL    HW1  836   0.235  -0.046   0.981  0.4804  1.8354 -1.1071
  279SOL    HW2  837   0.242  -0.029   0.810 -1.0805 -0.7300 -0.7444
  280SOL     OW  838   1.615   2.946   2.395 -0.1641  0.2213  0.0683
  280SOL    HW1  839   1.656   3.010   2.469  1.3331 -1.8645  0.8644
  280SOL    HW2  840   1.552   2.984   2.327 -0.4916 -0.1608  2.2827
  281SOL     OW  841   0.582   0.985   2.269 -0.2827  0.0702  0.2733
  281SOL    HW1  842   0.563   0.896   2.217 -2.2129  0.9126 -1.1331
  281SOL    HW2  843   0.592   0.974   2.370  1.4326 -1.9970  0.5693
  282SOL     OW  844   1.788   2.480   0.499 -0.1695 -0.5119 -0.1680
  282SOL    HW1  845   1.737   2.394   0.465 -1.4232  1.7870 -0.0402
  282SOL    HW2  846   1.733   2.566   0.478  0.3056  0.6250  2.0263
  283SOL     OW  847   1.204   0.944   0.772 -0.3376  0.0324 -0.3512
  283SOL    HW1  848   1.230   0.885   0.852 -0.1609  2.2328  1.2033
  283SOL    HW2  849   1.121   1.002   0.791 -0.7705 -0.6759  1.2765
  284SOL     OW  850   2.258   2.807   2.496  0.0991 -0.5029 -0.6447
  284SOL    HW1  851   2.358   2.791   2.485 -1.9776 -1.0693 -1.1988
  284SOL    HW2  852   2.233   2.880   2.564 -0.6710  3.1458  0.4951
  285SOL     OW  853   1.390   3.070   2.572  0.6291  0.0313 -0.1746
  285SOL    HW1  854   1.453   3.062   2.492 -0.1912  0.9301  1.3683
  285SOL    HW2  855   1.307   3.132   2.560 -1.0384  2.9294 -0.5383
  286SOL     OW  856   0.421   0.417   0.747 -0.1573 -0.2460 -0.3885
  286SOL    HW1  857   0.376   0.373   0.829  3.5330 -3.5931 -2.7442
  286SOL    HW2  858   0.445   0.347   0.671  1.0011  1.7713  1.1747
  287SOL     OW  859   0.073   1.283   2.535 -0.0177  0.2357  0.8690
  287SOL    HW1  860   0.059   1.191   2.575  1.6150  3.5195 -1.7018
  287SOL    HW2  861  -0.001   1.354   2.560 -1.9887 -1.2908  2.4230
  288SOL     OW  862   1.600   2.711   1.649 -0.1080  0.6276  0.4728
  288SOL    HW1  863   1.595   2.633   1.724  1.0158 -0.4337 -0.6709
  288SOL    HW2  864   1.623   2.678   1.552  1.2028 -0.1446 -3.7413
  289SOL     OW  865   0.568   2.725   0.848  0.0946  0.3827 -0.0089
  289SOL    HW1  866   0.645   2.777   0.801 -1.9266  1.6741 -0.2981
  289SOL    HW2  867   0.538   2.766   0.942 -1.0563  0.9426  1.3608
  290SOL     OW  868   2.845   1.138   1.769 -0.1207 -0.5189 -0.6414
  290SOL    HW1  869   2.787   1.058   1.805 -2.1352 -1.3526  0.2503
  290SOL    HW2  870   2.941   1.121   1.804 -2.2752 -0.8302 -0.0132
  291SOL     OW  871   1.985   3.094   0.049 -0.1869 -0.0545 -0.0005
  291SOL    HW1  872   2.001   3.128   0.142  1.1670 -0.3822  1.5992
  291SOL    HW2  873   2.043   3.148  -0.018  0.9796  3.3174  1.7342
  292SOL     OW  874   3.024   1.233   3.096  0.0093  0.0070  0.3833
  292SOL    HW1  875   2.951   1.278   3.036 -1.5202  1.9745 -0.3673
  292SOL    HW2  876   3.113   1.225   3.050  2.5344  2.5505 -0.1276
  293SOL     OW  877   0.540   2.177   0.288  0.5346 -0.5390 -0.0430
  293SOL    HW1  878   0.479   2.243   0.338 -1.6619 -1.9853 -0.3461
  293SOL    HW2  879   0.638   2.175   0.332  0.5604  0.7965 -0.0133
  294SOL     OW  880   1.824   2.317   1.784 -0.1641  0.6771  0.3803
  294SOL    HW1  881   1.860   2.387   1.854 -1.9283 -0.6016 -1.3975
  294SOL    HW2  882   1.765   2.352   1.710  0.5882 -0.2648  1.8754
  295SOL     OW  883   0.976   1.049   0.443 -0.3189 -0.4415  0.4748
  295SOL    HW1  884   1.070   1.015   0.473  2.3070 -0.7318  2.3149
  295SOL    HW2  885   0.904   1.032   0.521  0.4334  1.5038  1.5157
  296SOL     OW  886   1.192   2.133   2.704 -0.7835  0.1860  0.2212
  296SOL    HW1  887   1.092   2.165   2.717  1.7000  2.7406  2.4704
  296SOL    HW2  888   1.193   2.067   2.622  1.0237  0.4362 -1.7817
  297SOL     OW  889   1.367   0.579   1.302 -0.5723 -0.2584 -0.4593
  297SOL    HW1  890   1.400   0.494   1.353  0.7099  0.8160 -0.3013
  297SOL    HW2  891   1.436   0.627   1.242  0.4278 -0.7902 -2.4592
  298SOL     OW  892   0.523   1.357   2.999 -0.2399  0.2171  0.0996
  298SOL    HW1  893   0.474   1.293   3.059  2.0207 -0.6595 -2.7686
  298SOL    HW2  894   0.593   1.311   2.935  1.0697  1.1936  0.4029
  299SOL     OW  895   0.439   0.299   1.286 -0.3418 -0.1134  0.4949
  299SOL    HW1  896   0.390   0.378   1.244 -0.2341 -1.2195 -1.1187
  299SOL    HW2  897   0.450   0.316   1.388 -1.6292 -1.6068 -0.8303
  300SOL     OW  898   1.262   1.722   2.574  0.4287  0.4043 -0.5643
  300SOL    HW1  899   1.245   1.635   2.512 -0.3123 -1.1429  1.5434
  300SOL    HW2  900   1.351   1.718   2.624 -2.3481 -0.5132  0.7941
  301SOL     OW  901   0.431   0.279   0.519  0.5505  0.7285  0.3687
  301SOL    HW1  902   0.339   0.239   0.554  0.3923 -1.9080  1.7503
  301SOL    HW2  903   0.494   0.208   0.474  0.7158 -2.7238 -1.5684
  302SOL     OW  904   1.229   2.437   2.314 -0.5791  0.3508  0.1341
  302SOL    HW1  905   1.155   2.499   2.348  0.1381  0.0231  0.9776
  302SOL    HW2  906   1.247   2.356   2.378 -0.4011 -0.7149 -3.1714
  303SOL     OW  907   0.911   2.426   0.818  0.2011  0.3109  0.1464
  303SOL    HW1  908   0.978   2.420   0.737 -2.9663  0.1166 -0.2761
  303SOL    HW2  909   0.957   2.464   0.900 -1.5719  0.6129 -2.0499
  304SOL     OW  910   0.079   1.906   0.686 -0.3837 -0.2823 -0.1481
  304SOL    HW1  911   0.162   1.902   0.625  0.0995 -0.3003 -3.5920
  304SOL    HW2  912   0.006   1.975   0.649  1.4913  1.2503 -0.9571
  305SOL     OW  913   1.603   0.893   0.684 -0.0302 -0.2855  0.2897
  305SOL    HW1  914   1.538   0.867   0.611 -0.5413  3.7574  4.8336
  305SOL    HW2  915   1.655   0.806   0.712  1.0071  1.9796  1.3595
  306SOL     OW  916   0.433   1.946   1.871 -0.4051  0.6504 -0.5477
  306SOL    HW1  917   0.507   1.872   1.844  0.2763 -1.2825 -0.7100
  306SOL    HW2  918   0.440   1.971   1.975  0.1554  0.2069  0.1866
  307SOL     OW  919   3.003   0.859   2.516  0.1091  0.0744 -0.1742
  307SOL    HW1  920   3.044   0.913   2.592  0.0239 -0.1113 -1.2902
  307SOL    HW2  921   2.925   0.795   2.544 -0.4443  2.1322 -0.3856
  308SOL     OW  922   1.593   2.667   2.805 -0.4094  0.1174  0.7829
  308SOL    HW1  923   1.589   2.600   2.728  3.8197  0.1493  1.6244
  308SOL    HW2  924   1.537   2.630   2.888 -1.8412  0.8048  1.3210
  309SOL     OW  925   1.223   0.161   1.782  0.5057 -0.3518 -0.1494
  309SOL    HW1  926   1.319   0.126   1.786 -2.2528 -0.2593  2.0576
  309SOL    HW2  927   1.189   0.178   1.686  0.6094 -1.4047  0.5894
  310SOL     OW  928   1.517   2.551   0.680  0.0458  0.5842 -0.0397
  310SOL    HW1  929   1.468   2.561   0.780 -3.7890 -2.5462  1.2483
  310SOL    HW2  930   1.577   2.629   0.655 -1.0197  0.3265  1.4821
  311SOL     OW  931   1.142   0.954   1.753  0.0634  0.7770 -0.3276
  311SOL    HW1  932   1.089   0.879   1.801 -0.5758  2.1086 -0.4166
  311SOL    HW2  933   1.185   0.924   1.660  1.2417  0.1418  0.7863
  312SOL     OW  934   1.547   0.675   1.122 -0.1210  0.2956 -0.0191
  312SOL    HW1  935   1.549   0.780   1.112 -0.8881  1.5109  2.1869
  312SOL    HW2  936   1.517   0.632   1.029  2.2464 -0.9375 -3.5223
  313SOL     OW  937   1.598   1.357   0.729 -0.3623 -0.0528  0.4733
  313SOL    HW1  938   1.515   1.335   0.786  1.5306  1.4060 -4.0928
  313SOL    HW2  939   1.605   1.299   0.646  0.4022 -0.1944  0.4547
  314SOL     OW  940   2.995   3.085   3.081 -0.1154  0.0825  0.5498
  314SOL    HW1  941   2.993   3.114   3.182  1.1011 -1.2126  2.0443
  314SOL    HW2  942   2.906   3.033   3.049  0.1080 -1.0452 -0.6759
  315SOL     OW  943   1.187   0.255   2.765  0.1944 -0.1611 -0.1842
  315SOL    HW1  944   1.156   0.179   2.700 -0.7655  1.2895 -0.5562
  315SOL    HW2  945   1.196   0.223   2.862 -2.3336 -1.5486  0.9774
  316SOL     OW  946   1.742   2.089   0.888  0.2553  0.0396 -0.1399
  316SOL    HW1  947   1.703   2.096   0.987  1.1152 -0.6343 -2.2417
  316SOL    HW2  948   1.758   2.182   0.844 -0.0965  1.5675  0.2394
  317SOL     OW  949   1.172   0.645   2.773  0.2179 -0.1281 -0.3982
  317SOL    HW1  950   1.118   0.680   2.851 -0.8337  0.9916 -4.2444
  317SOL    HW2  951   1.110   0.591   2.702 -1.3033  0.3888  0.7277
  318SOL     OW  952   1.423  -0.002   2.231 -0.0969  0.1948  0.0094
  318SOL    HW1  953   1.420   0.102   2.215  0.2253  0.4529 -0.0515
  318SOL    HW2  954   1.402  -0.050   2.139 -0.6774  1.0723 -0.9852
  319SOL     OW  955   0.633   2.324   2.903  0.9064  0.2366 -0.0117
  319SOL    HW1  956   0.564   2.313   2.982 -0.4812  0.5150  2.4057
  319SOL    HW2  957   0.690   2.239   2.881  0.1936 -1.2815  0.8507
  320SOL     OW  958   1.686   2.243   0.399 -0.7532  0.8652 -0.3928
  320SOL    HW1  959   1.757   2.166   0.400  0.8345 -2.7513 -1.3657
  320SOL    HW2  960   1.588   2.207   0.434 -1.5492 -1.4233  1.8670
  321SOL     OW  961   1.677   2.763   0.580 -0.0302  0.1662  0.0291
  321SOL    HW1  962   1.605   2.788   0.510  0.1095 -1.8744  1.7339
  321SOL    HW2  963   1.765   2.807   0.557  1.1435  0.8005 -0.5340
  322SOL     OW  964   2.597   1.125   2.321  0.2047  0.1284 -0.2594
  322SOL    HW1  965   2.679   1.136   2.384 -0.1273  0.0034 -0.2093
  322SOL    HW2  966   2.554   1.028   2.332 -1.4514 -2.5856 -1.1019
  323SOL     OW  967   1.167   2.656   0.822 -0.1080 -0.4769 -0.1634
  323SOL    HW1  968   1.140   2.593   0.751  3.9022  0.7058  3.3874
  323SOL    HW2  969   1.113   2.742   0.832  1.2432  0.6221 -2.9676
  324SOL     OW  970   0.255   2.525   2.455 -0.2662  0.6488 -0.1426
  324SOL    HW1  971   0.165   2.493   2.500 -3.0527  1.8470  0.1236
  324SOL    HW2  972   0.295   2.609   2.496  0.5094  1.1664 -1.4114
  325SOL     OW  973   1.252   2.993   0.473 -0.9218  0.2144 -0.5710
  325SOL    HW1  974   1.261   3.043   0.384  1.4706  1.0634 -0.6403
  325SOL    HW2  975   1.255   3.060   0.551  0.9462  0.8961 -1.8026
  326SOL     OW  976   2.460   0.787   0.011  0.3839 -0.3939  0.1828
  326SOL    HW1  977   2.378   0.733  -0.013  0.3469  0.8056  3.2340
  326SOL    HW2  978   2.527   0.739   0.072  2.0335  2.7383  3.0698
  327SOL     OW  979   2.800   0.312   0.534 -0.2531  0.3110 -0.1635
  327SOL    HW1  980   2.768   0.278   0.441  1.6244  2.2693 -0.9297
  327SOL    HW2  981   2.777   0.242   0.611 -0.1263  1.1635  2.8543
  328SOL     OW  982   2.619   0.623   0.409  0.3945  0.5975 -0.0684
  328SOL    HW1  983   2.665   0.671   0.487 -0.0556 -0.4855  0.6000
  328SOL    HW2  984   2.565   0.538   0.439  2.0442 -1.2322 -2.5389
  329SOL     OW  985   2.899   2.934   2.118 -0.2151 -0.0817 -0.2928
  329SOL    HW1  986   2.996   2.896   2.140 -1.6280  0.0210  2.0012
  329SOL    HW2  987   2.892   3.038   2.131  0.1883 -0.0926  0.2108
  330SOL     OW  988   0.593   0.177   1.930  0.0838  0.3718  0.1642
  330SOL    HW1  989   0.654   0.121   1.865  0.2806 -2.3964  0.8355
  330SOL    HW2  990   0.572   0.134   2.023  0.2006 -2.6535  0.8149
  331SOL     OW  991   3.012   1.925   1.085  0.1503 -0.5453  0.5032
  331SOL    HW1  992   2.973   1.940   0.987 -1.2193  0.3468 -1.0043
  331SOL    HW2  993   2.941   1.899   1.159 -0.8742  2.4728 -0.5682
  332SOL     OW  994   0.391   1.190   0.067  0.0175 -0.1401 -0.0432
  332SOL    HW1  995   0.321   1.119   0.044  3.4872  1.5097 -0.3437
  332SOL    HW2  996   0.365   1.226   0.161  1.1723 -1.9440  0.3823
  333SOL     OW  997   2.941   0.997   0.325  0.1563  0.0463  0.7987
  333SOL    HW1  998   2.981   1.073   0.384  1.8516  1.0019  0.6108
  333SOL    HW2  999   3.011   0.931   0.302  2.7478  1.4681 -0.8101
  334SOL     OW 1000   1.721   1.279   1.802  0.5002 -0.1773  0.4881
  334SOL    HW1 1001   1.759   1.260   1.704 -2.6891  0.9388  0.7842
  334SOL    HW2 1002   1.780   1.235   1.874 -0.5694  0.4855 -2.2870
  335SOL     OW 1003   1.975   2.754   2.589 -0.2941  0.1435 -0.0643
  335SOL    HW1 1004   1.973   2.772   2.692 -1.5084 -1.5811  2.2580
  335SOL    HW2 1005   2.072   2.751   2.553  1.0428 -1.8031 -0.8470
  336SOL     OW 1006   0.251   0.023   2.720 -0.6376 -0.3147 -0.3741
  336SOL    HW1 1007   0.338   0.026   2.782  0.7234 -0.1744 -3.3437
  336SOL    HW2 1008   0.165  -0.000   2.771 -1.3686  1.7759  0.1733
  337SOL     OW 1009   0.967   2.934   2.950 -0.9614 -0.0702  0.0294
  337SOL    HW1 1010   0.954   2.848   2.995 -0.7186  1.3487 -1.5747
  337SOL    HW2 1011   1.049   2.984   2.986  0.0230  0.8738  0.8649
  338SOL     OW 1012   0.061   0.990   0.692 -0.2850 -0.3076 -0.4645
  338SOL    HW1 1013  -0.040   0.964   0.706  0.7952  0.6886  1.0517
  338SOL    HW2 1014   0.074   1.092   0.678  0.1393 -0.5997 -0.2931
  339SOL     OW 1015   1.714   1.363   2.167 -0.0493 -0.0921  0.4670
  339SOL    HW1 1016   1.634   1.393   2.102  0.1845  4.7471 -3.2922
  339SOL    HW2 1017   1.778   1.443   2.197 -1.3782  2.9971  3.9816
  340SOL     OW 1018   2.260   0.762   1.172 -1.0020  0.4066  0.1062
  340SOL    HW1 1019   2.165   0.785   1.140 -1.1838  0.2924  1.6879
  340SOL    HW2 1020   2.284   0.663   1.154  0.5645 -2.1059  0.6849
  341SOL     OW 1021   1.930   2.118   0.334 -0.4012 -0.1327  0.2133
  341SOL    HW1 1022   1.945   2.135   0.232 -1.9698  1.3392  0.9663
  341SOL    HW2 1023   2.022   2.115   0.389  1.6224 -0.1644  0.5673
  342SOL     OW 1024   2.159   2.137   2.771  0.3109  0.2397 -0.2802
  342SOL    HW1 1025   2.206   2.043   2.768  1.2546  0.0371  0.6393
  342SOL    HW2 1026   2.070   2.137   2.721 -0.1420 -0.2524 -0.9152
  343SOL     OW 1027   0.413   0.788   2.770  0.5742 -0.0918 -0.0241
  343SOL    HW1 1028   0.434   0.824   2.677  1.2125  0.7035 -0.2634
  343SOL    HW2 1029   0.496   0.790   2.833 -2.0693 -2.2249  0.3877
  344SOL     OW 1030   1.888   1.497   0.401 -0.0081  0.1514 -0.6135
  344SOL    HW1 1031   1.921   1.419   0.340 -1.2387 -0.5904 -0.4139
  344SOL    HW2 1032   1.786   1.485   0.422  0.1474 -1.8437 -0.4479
  345SOL     OW 1033   1.401   2.249   2.869  0.6198 -0.3694  0.2106
  345SOL    HW1 1034   1.310   2.227   2.821  0.9340  0.2530 -1.2579
  345SOL    HW2 1035   1.481   2.192   2.840 -1.3107  0.6229  0.9613
  346SOL     OW 1036   2.333   0.922   1.398 -0.0570 -0.3529 -0.1051
  346SOL    HW1 1037   2.288   1.001   1.448  0.2501 -1.4579 -0.3032
  346SOL    HW2 1038   2.280   0.899   1.314  1.1916  1.3270  2.0690
  347SOL     OW 1039   0.732   2.727   1.626 -0.6154 -0.0905 -0.3839
  347SOL    HW1 1040   0.679   2.756   1.708  1.3808  0.6175 -1.9498
  347SOL    HW2 1041   0.682   2.761   1.539 -1.7955 -1.6313 -1.3337
  348SOL     OW 1042   0.174   0.784   2.909 -0.2876  0.2877 -0.7119
  348SOL    HW1 1043   0.093   0.736   2.869  1.0343 -0.2621  1.5856
  348SOL    HW2 1044   0.262   0.782   2.855  0.9446 -1.7642 -0.8948
  349SOL     OW 1045   1.828   0.434   2.782 -0.4817  0.5183  0.3626
  349SOL    HW1 1046   1.829   0.507   2.708 -0.4705  0.1460 -0.9314
  349SOL    HW2 1047   1.842   0.465   2.882 -0.8168  0.0596 -1.0341
  350SOL     OW 1048   1.659   0.384   0.362  0.3375 -0.6373 -0.2035
  350SOL    HW1 1049   1.737   0.373   0.433 -0.4099 -0.0711  1.7232
  350SOL    HW2 1050   1.657   0.482   0.321  0.5788  1.3559 -3.8886
  351SOL     OW 1051   0.943   0.844   2.088 -0.4376 -0.0987  0.2094
  351SOL    HW1 1052   0.987   0.937   2.108 -1.1133 -2.6896 -0.3636
  351SOL    HW2 1053   0.967   0.803   1.996  0.1372 -1.3054  0.0422
  352SOL     OW 1054   2.084   1.374   0.573 -0.0528  0.0289 -0.5217
  352SOL    HW1 1055   2.062   1.454   0.508  1.8406  2.2669  0.7435
  352SOL    HW2 1056   2.011   1.336   0.636  1.2070 -0.6357  1.8707
  353SOL     OW 1057   2.201   2.826   1.054  0.3717 -0.2199 -0.1127
  353SOL    HW1 1058   2.262   2.765   1.117  2.6670 -0.6192 -0.3125
  353SOL    HW2 1059   2.097   2.800   1.060 -2.3731  0.2571 -0.0601
  354SOL     OW 1060   0.280   1.438   2.859 -0.2328  0.6762  0.3442
  354SOL    HW1 1061   0.256   1.490   2.772  2.1205  2.0482 -1.1254
  354SOL    HW2 1062   0.379   1.445   2.884 -0.2948 -1.5758  0.9235
  355SOL     OW 1063   0.742   1.589   0.580 -0.3021 -0.0381  0.0130
  355SOL    HW1 1064   0.725   1.538   0.670  0.1941  2.3315  1.4597
  355SOL    HW2 1065   0.707   1.544   0.490  1.8523 -2.6709 -0.9618
  356SOL     OW 1066   0.859   0.312   2.034 -0.1838 -0.3007 -0.2563
  356SOL    HW1 1067   0.956   0.263   2.027 -2.1485 -0.6833  0.0503
  356SOL    HW2 1068   0.794   0.285   1.958  1.4986  0.1647 -0.3660
  357SOL     OW 1069   1.033   1.323   0.359  0.2638  0.2986 -0.0291
  357SOL    HW1 1070   1.137   1.316   0.345  1.7734 -2.8195 -1.1230
  357SOL    HW2 1071   0.987   1.237   0.388 -0.7058 -0.4946 -1.1915
  358SOL     OW 1072   1.642   1.534   0.490 -0.1282 -0.2568  0.0624
  358SOL    HW1 1073   1.628   1.500   0.585 -0.3572 -1.1678  2.9290
  358SOL    HW2 1074   1.568   1.497   0.429 -2.6665 -0.2571  0.2134
  359SOL     OW 1075   1.594   2.608   0.260 -0.3793 -0.2587  0.5051
  359SOL    HW1 1076   1.542   2.522   0.241  0.0309 -0.4368  0.4099
  359SOL    HW2 1077   1.541   2.677   0.322 -2.8702 -1.2155  3.5328
  360SOL     OW 1078   0.762   0.541   0.549  0.1246 -0.3797  0.1000
  360SOL    HW1 1079   0.710   0.544   0.465  0.0184  0.4221  3.2851
  360SOL    HW2 1080   0.809   0.451   0.576 -0.4317 -0.6967  1.2995
  361SOL     OW 1081   1.310   1.274   0.648  0.0272  0.1887 -0.0524
  361SOL    HW1 1082   1.297   1.258   0.745 -0.2973  0.0243 -2.2671
  361SOL    HW2 1083   1.240   1.341   0.614  1.8541  0.3182 -0.0170
  362SOL     OW 1084   1.378   1.751   0.730  0.0792 -0.0747 -0.3526
  362SOL    HW1 1085   1.413   1.730   0.825  0.5055 -1.0349 -0.9786
  362SOL    HW2 1086   1.452   1.773   0.663 -0.8245  1.0846  0.2820
  363SOL     OW 1087   1.228   1.310   2.072 -0.3403 -0.5488 -0.2236
  363SOL    HW1 1088   1.328   1.341   2.095 -1.2943 -1.8840 -0.4574
  363SOL    HW2 1089   1.163   1.393   2.074 -0.1222 -0.1868  2.0620
  364SOL     OW 1090   0.509   2.362   2.029  0.0381 -0.0329  0.2704
  364SOL    HW1 1091   0.405   2.358   2.019  0.4641  0.6268  1.9370
  364SOL    HW2 1092   0.556   2.431   1.968 -1.2652 -0.4541 -1.2625
  365SOL     OW 1093   1.040   1.968   1.340  0.4970  0.1361 -0.0840
  365SOL    HW1 1094   0.940   1.947   1.361 -0.1837  1.3563  0.8454
  365SOL    HW2 1095   1.046   2.033   1.260  0.9181  0.7043  1.2638
  366SOL     OW 1096   2.852   1.944   0.368  0.2278  0.1150  0.0225
  366SOL    HW1 1097   2.751   1.932   0.342  2.1867  0.9752 -1.0689
  366SOL    HW2 1098   2.910   1.865   0.344 -1.6998  0.5382  1.3278
  367SOL     OW 1099   0.967   1.189   0.031 -0.4787 -0.3283  0.1781
  367SOL    HW1 1100   0.966   1.118   0.108 -1.0439  2.3614  2.4521
  367SOL    HW2 1101   1.061   1.227   0.025  0.2669 -2.4082 -1.2624
  368SOL     OW 1102   1.439   0.522   0.612  0.8737 -0.4019 -0.4553
  368SOL    HW1 1103   1.377   0.562   0.545  0.7433 -2.0277  1.6244
  368SOL    HW2 1104   1.525   0.576   0.618 -0.4784  2.2613 -3.7778
  369SOL     OW 1105   0.377   1.746   0.183 -0.0114 -0.5575  0.3548
  369SOL    HW1 1106   0.426   1.808   0.253  0.0194  2.4643  1.1063
  369SOL    HW2 1107   0.305   1.683   0.223  0.4889 -1.7143 -1.7694
  370SOL     OW 1108   0.436   2.087   1.038 -0.1913  0.7671 -0.1007
  370SOL    HW1 1109   0.466   2.183   1.010 -2.0095 -0.8634 -0.0795
  370SOL    HW2 1110   0.336   2.078   0.998  0.4637 -0.1625 -2.5218
  371SOL     OW 1111   2.865   2.212   2.618 -0.0905  0.0314  0.3908
  371SOL    HW1 1112   2.814   2.155   2.685 -1.6509  1.7018 -2.8968
  371SOL    HW2 1113   2.904   2.290   2.672 -2.9166  0.6301  1.2592
  372SOL     OW 1114   1.072   2.066   1.015 -0.0376  0.6198  0.8612
  372SOL    HW1 1115   0.977   2.107   1.004  0.0697  0.0862 -0.0585
  372SOL    HW2 1116   1.140   2.098   0.939  0.4683 -0.4258  1.1150
  373SOL     OW 1117   1.925   1.918   0.973 -0.1390  0.0514  1.1972
  373SOL    HW1 1118   2.022   1.949   0.995  2.5330 -4.3073 -0.3034
  373SOL    HW2 1119   1.860   1.988   0.930 -2.8724 -0.3996  0.3846
  374SOL     OW 1120   1.864   0.396   0.563 -0.2250  0.2030  0.2268
  374SOL    HW1 1121   1.860   0.375   0.663  2.2061  2.2686 -2.1646
  374SOL    HW2 1122   1.964   0.412   0.529  0.3337  0.5794  1.2957
  375SOL     OW 1123   2.403   2.165   1.080  0.0156  0.2294 -0.5035
  375SOL    HW1 1124   2.444   2.133   0.988 -0.4714  0.1519 -0.1729
  375SOL    HW2 1125   2.469   2.158   1.163  1.2475  2.6674 -0.2413
  376SOL     OW 1126   3.039   0.516   1.460  0.6403  0.1909 -1.1323
  376SOL    HW1 1127   3.050   0.604   1.522  0.0258  0.9522 -1.8971
  376SOL    HW2 1128   2.970   0.447   1.494 -2.6139  1.9174  0.5590
  377SOL     OW 1129   2.175   2.919   0.310 -0.2274  0.3353 -0.2498
  377SOL    HW1 1130   2.143   3.014   0.332  0.5039 -0.6129  0.6923
  377SOL    HW2 1131   2.269   2.896   0.350  1.0284 -0.2877  0.5281
  378SOL     OW 1132   1.749   1.833   2.527  0.1758 -0.7014 -0.3136
  378SOL    HW1 1133   1.818   1.879   2.470 -2.9849 -0.5381  1.2144
  378SOL    HW2 1134   1.674   1.782   2.477  0.8572  0.0801 -0.3059
  379SOL     OW 1135   0.700   0.147   2.840  0.5354 -0.1445  0.0821
  379SOL    HW1 1136   0.769   0.086   2.794 -0.1327  0.7325 -1.6476
  379SOL    HW2 1137   0.675   0.239   2.794 -2.5181  1.5332 -1.5810
  380SOL     OW 1138   1.576   1.141   0.560  0.4975  0.2793 -0.7519
  380SOL    HW1 1139   1.476   1.173   0.550 -0.1279 -0.6540 -1.1846
  380SOL    HW2 1140   1.586   1.055   0.618 -0.8761 -1.5267 -2.3995
  381SOL     OW 1141   1.351   1.199   1.575  0.1524  0.2777 -0.0654
  381SOL    HW1 1142   1.408   1.154   1.504 -0.2303 -1.8215 -0.9712
  381SOL    HW2 1143   1.403   1.270   1.628 -1.0240  0.0410 -0.4849
  382SOL     OW 1144   1.830   0.885   0.211  0.0353  0.1949  0.3397
  382SOL    HW1 1145   1.866   0.862   0.115  1.9130 -1.2479  1.1870
  382SOL    HW2 1146   1.902   0.876   0.289  1.4164  0.5055  0.1237
  383SOL     OW 1147   2.589   1.004   1.475  0.4337  0.1913  0.4007
  383SOL    HW1 1148   2.497   0.957   1.449 -3.6884  0.2207 -2.2579
  383SOL    HW2 1149   2.661   1.003   1.398  2.0858 -0.3842  0.6449
  384SOL     OW 1150   0.910   2.232   0.176 -0.8559  0.0666  0.4290
  384SOL    HW1 1151   0.853   2.308   0.215 -0.7442  0.4556 -2.3176
  384SOL    HW2 1152   0.880   2.135   0.208 -1.4361  0.7269  1.8381
  385SOL     OW 1153   2.966   2.003   1.661  0.4832 -0.2064 -0.0991
  385SOL    HW1 1154   3.036   2.076   1.648 -4.2552 -1.6176  1.1637
  385SOL    HW2 1155   3.015   1.916   1.681  0.2513  1.0704 -0.7340
  386SOL     OW 1156   0.507   1.067   0.467 -0.8991  0.3987  0.1967
  386SOL    HW1 1157   0.478   0.976   0.493  0.1301  1.7506  0.5127
  386SOL    HW2 1158   0.430   1.132   0.432 -0.1044 -0.3992 -2.7779
  387SOL     OW 1159   0.914   0.410   1.675  0.0067  0.3193 -0.3241
  387SOL    HW1 1160   0.979   0.491   1.678 -2.6120 -0.8124 -0.8534
  387SOL    HW2 1161   0.904   0.367   1.582  1.5572 -0.0758 -0.2304
  388SOL     OW 1162   1.196   2.715   1.727 -0.2088  0.4096 -0.1365
  388SOL    HW1 1163   1.187   2.695   1.625  0.6272 -1.1088  1.1544
  388SOL    HW2 1164   1.264   2.656   1.771 -1.7484  1.6338  1.1699
  389SOL     OW 1165   0.154   3.000   1.235 -0.6749 -0.7280  0.6744
  389SOL    HW1 1166   0.051   3.024   1.225  0.5883 -0.2470  0.0784
  389SOL    HW2 1167   0.179   2.897   1.245 -0.2483 -2.8048  0.3598
  390SOL     OW 1168   1.042   0.969   1.304  0.4341 -0.1138 -0.2962
  390SOL    HW1 1169   1.134   0.932   1.332 -1.6620  0.2214 -0.7421
  390SOL    HW2 1170   0.999   1.041   1.369  1.2653 -0.0823  2.2226
  391SOL     OW 1171   2.194   1.120   1.082 -0.2021 -0.3888  0.3445
  391SOL    HW1 1172   2.127   1.045   1.088 -0.1136  1.2352 -1.7708
  391SOL    HW2 1173   2.250   1.120   0.994  0.4177  0.4080 -2.2178
  392SOL     OW 1174   0.863   2.662   3.062  0.1603 -0.0510 -0.6546
  392SOL    HW1 1175   0.960   2.614   3.068  3.4892 -2.8031  0.2140
  392SOL    HW2 1176   0.822   2.672   3.154 -0.5450 -2.3639  0.1727
  393SOL     OW 1177   0.389   0.575   1.975 -1.0388 -0.5239  0.1356
  393SOL    HW1 1178   0.306   0.517   1.970  0.2072  1.3843  0.6723
  393SOL    HW2 1179   0.458   0.536   1.901  0.6232 -2.3589 -0.8937
  394SOL     OW 1180   2.958   1.905   2.791  0.5422  0.6003  0.3339
  394SOL    HW1 1181   3.040   1.928   2.846 -1.3749 -0.7812 -1.9303
  394SOL    HW2 1182   2.973   1.920   2.690 -0.8897 -0.3756 -0.0261
  395SOL     OW 1183   1.600   1.987   0.665 -0.3644  0.1052 -0.0136
  395SOL    HW1 1184   1.645   1.902   0.624  0.7301  1.3476 -0.2264
  395SOL    HW2 1185   1.659   2.024   0.743  1.4148  0.6827 -2.3696
  396SOL     OW 1186   2.810   1.856   1.278 -0.1141 -0.3257 -0.2021
  396SOL    HW1 1187   2.803   1.758   1.250  2.7458  1.5532  0.1495
  396SOL    HW2 1188   2.760   1.878   1.367  1.0885  0.5386  0.4580
  397SOL     OW 1189   1.046   2.226   0.491 -0.2051 -0.7533  0.0871
  397SOL    HW1 1190   0.959   2.184   0.527  1.1140  1.4070 -4.2244
  397SOL    HW2 1191   1.057   2.327   0.517  0.9156 -0.4342  1.6430
  398SOL     OW 1192   2.169   3.092   1.022  0.1193  0.0538 -0.2502
  398SOL    HW1 1193   2.149   3.000   1.063  0.7896  1.8225 -0.7636
  398SOL    HW2 1194   2.085   3.157   1.015 -1.1087 -0.8573 -1.8306
  399SOL     OW 1195   3.063   2.458   2.542  0.3636 -0.5207  0.7433
  399SOL    HW1 1196   2.961   2.460   2.531  4.0811  0.6531  2.5428
  399SOL    HW2 1197   3.097   2.381   2.605 -0.2162 -2.0212  1.4971
  400SOL     OW 1198   0.783   1.623   1.331  0.2355  0.2659  0.2140
  400SOL    HW1 1199   0.737   1.651   1.420  2.2883 -2.0957 -0.0890
  400SOL    HW2 1200   0.828   1.702   1.279  1.7645  1.8974 -0.6162
  401SOL     OW 1201   1.861   0.086   1.308  0.1853  0.3636 -0.6516
  401SOL    HW1 1202   1.909   0.081   1.405 -0.4620  3.1970 -0.9255
  401SOL    HW2 1203   1.757   0.086   1.311  0.8915 -0.6298  0.7250
  402SOL     OW 1204   1.304   0.146   3.086 -0.2168 -0.2599  0.2578
  402SOL    HW1 1205   1.397   0.132   3.037  1.9214 -1.2056 -1.5131
  402SOL    HW2 1206   1.273   0.245   3.099 -1.6999  0.7027  1.4459
  403SOL     OW 1207   2.294   1.760   0.973  0.0618  0.1312  0.1520
  403SOL    HW1 1208   2.395   1.769   0.980  0.0540  0.3147  0.2098
  403SOL    HW2 1209   2.244   1.839   1.020  1.1001  3.1833  1.8083
  404SOL     OW 1210   0.163   2.501   2.792  0.0125 -0.7091  0.0492
  404SOL    HW1 1211   0.261   2.465   2.797 -0.3532 -2.2696 -0.5418
  404SOL    HW2 1212   0.156   2.607   2.806 -0.7291 -0.9938 -0.8061
  405SOL     OW 1213   0.138   2.437   0.719 -0.0750  0.3778 -0.7902
  405SOL    HW1 1214   0.102   2.373   0.653  1.0271  2.0151 -0.3792
  405SOL    HW2 1215   0.189   2.516   0.676 -0.5828 -2.0035 -0.3666
  406SOL     OW 1216   0.097   1.522   3.045 -0.0154  0.1180 -0.4276
  406SOL    HW1 1217   0.155   1.479   2.972  2.2537 -1.8811 -1.2272
  406SOL    HW2 1218   0.146   1.520   3.138 -1.1454  0.1458 -2.7986
  407SOL     OW 1219   1.525   0.928   1.011  0.2467 -0.3884  0.3679
  407SOL    HW1 1220   1.519   0.903   0.911  0.0623 -1.8824 -1.8438
  407SOL    HW2 1221   1.488   1.018   1.041  0.0055 -3.8254 -0.8061
  408SOL     OW 1222   1.618   2.427   0.948 -0.2457  0.4793  0.1196
  408SOL    HW1 1223   1.679   2.393   0.868 -0.7286  0.8200  0.7346
  408SOL    HW2 1224   1.572   2.516   0.927  2.3125  1.8725  1.1304
  409SOL     OW 1225   0.612   0.825   0.743  0.2748 -0.3046  0.3902
  409SOL    HW1 1226   0.537   0.793   0.675  0.4855  0.4655 -1.4767
  409SOL    HW2 1227   0.630   0.750   0.811  2.6966 -0.1904  0.5242
  410SOL     OW 1228   1.318   2.052   1.402  0.2199 -0.8456 -0.3162
  410SOL    HW1 1229   1.399   1.990   1.435 -2.3490 -0.1764 -1.5110
  410SOL    HW2 1230   1.229   2.002   1.386 -1.6766  0.0940  0.3530
  411SOL     OW 1231   2.605   1.899   3.054  0.3033 -0.1036  0.3059
  411SOL    HW1 1232   2.506   1.925   3.036  0.2455  0.9988  1.1777
  411SOL    HW2 1233   2.653   1.854   2.972  1.4009  0.6546 -1.2938
  412SOL     OW 1234   1.471   2.469   2.167  0.3395  0.4732  0.2342
  412SOL    HW1 1235   1.536   2.540   2.200  0.2083 -1.1800 -1.3218
  412SOL    HW2 1236   1.383   2.460   2.220 -0.0430  0.0883 -1.4581
  413SOL     OW 1237   3.037   0.216   2.931  0.1266  0.0347 -0.3989
  413SOL    HW1 1238   3.022   0.124   2.977 -1.5936 -0.2973 -2.4471
  413SOL    HW2 1239   3.143   0.234   2.925  0.1781 -0.5960 -0.5908
  414SOL     OW 1240   1.886   1.526   1.195  1.1342  0.2768  0.2682
  414SOL    HW1 1241   1.848   1.620   1.170 -1.8111  1.3328 -5.1762
  414SOL    HW2 1242   1.810   1.457   1.210  0.8987  3.1937  2.6344
  415SOL     OW 1243   0.339   2.245   0.685 -0.1179 -0.0723  0.4649
  415SOL    HW1 1244   0.283   2.333   0.695  1.2795  2.0817 -0.9170
  415SOL    HW2 1245   0.307   2.183   0.757 -2.5237 -0.8884 -0.6163
  416SOL     OW 1246   0.381   1.064   1.061  0.1401  0.8119 -0.1528
  416SOL    HW1 1247   0.345   1.016   0.980 -1.6986 -0.0555  0.3148
  416SOL    HW2 1248   0.476   1.090   1.053 -0.9102  0.6103  0.1366
  417SOL     OW 1249   2.233   2.315   2.021  0.1615 -0.1760 -0.0671
  417SOL    HW1 1250   2.327   2.283   2.055 -0.3645 -1.3152 -0.2029
  417SOL    HW2 1251   2.157   2.242   2.038 -0.7056 -1.9009  3.3927
  418SOL     OW 1252   1.085   0.550   1.354 -0.0831  0.3775 -0.2977
  418SOL    HW1 1253   1.029   0.519   1.275  3.4704  0.8142  1.0255
  418SOL    HW2 1254   1.188   0.571   1.334 -0.1934 -1.1285 -0.1626
  419SOL     OW 1255   0.939   0.492   3.003  0.5469  0.1446 -0.1152
  419SOL    HW1 1256   0.866   0.510   2.928 -2.4262  0.1942 -1.9108
  419SOL    HW2 1257   1.004   0.576   3.011  2.0034  2.3136 -0.3434
  420SOL     OW 1258   0.107   2.258   0.493  0.2064  0.1154  0.8868
  420SOL    HW1 1259   0.130   2.269   0.392  0.6694 -0.3572 -0.0735
  420SOL    HW2 1260   0.031   2.190   0.509 -1.3405  1.3668 -1.0856
  421SOL     OW 1261   0.328   3.010   0.648 -0.6483  0.0578 -0.2709
  421SOL    HW1 1262   0.328   2.919   0.692 -2.6192 -0.0612  1.2631
  421SOL    HW2 1263   0.420   3.060   0.662  2.7066 -3.1083 -0.3007
  422SOL     OW 1264   1.048   2.521   1.052 -0.1878  0.6650 -0.2094
  422SOL    HW1 1265   1.107   2.571   0.983 -0.5622  0.5418  0.0741
  422SOL    HW2 1266   1.066   2.543   1.152 -1.9398 -0.4393  1.8855
  423SOL     OW 1267   0.117   0.694   1.298  0.3582  0.0399  0.1000
  423SOL    HW1 1268   0.045   0.627   1.336  1.1510  2.5869 -3.6602
  423SOL    HW2 1269   0.080   0.774   1.240  0.7173  0.7241  0.9797
  424SOL     OW 1270   0.998   2.256   2.044  0.4149  0.4321  0.0980
  424SOL    HW1 1271   1.006   2.358   2.024  0.6886  0.9614  1.8853
  424SOL    HW2 1272   1.001   2.225   2.145 -1.5218 -0.0464 -2.3876
  425SOL     OW 1273   2.000   1.317   1.006 -0.1451 -0.5188  0.2247
  425SOL    HW1 1274   2.074   1.250   1.041 -0.7653 -0.6838  0.1145
  425SOL    HW2 1275   2.038   1.407   0.974 -3.6463  0.6503  0.4165
  426SOL     OW 1276   1.488   1.585   1.363  0.1108  0.4106 -0.2905
  426SOL    HW1 1277   1.480   1.656   1.282  1.4977  1.3255 -2.5815
  426SOL    HW2 1278   1.434   1.606   1.445  1.9435 -0.2903 -1.3385
  427SOL     OW 1279   1.916   2.361   2.063  0.2090 -0.0602  0.2577
  427SOL    HW1 1280   1.977   2.281   2.102  1.4041 -1.2192  0.9810
  427SOL    HW2 1281   1.938   2.453   2.103  0.9242 -0.0630 -2.3521
  428SOL     OW 1282   0.843   0.004   0.160  0.1996 -0.4247  0.0662
  428SOL    HW1 1283   0.867   0.085   0.101 -1.6284  1.1292  2.0076
  428SOL    HW2 1284   0.916  -0.067   0.154  3.0493 -0.6455 -0.2247
  429SOL     OW 1285   1.296   0.071   0.258 -0.3020  0.1670  0.2855
  429SOL    HW1 1286   1.392   0.106   0.279 -0.3208  0.9121 -0.6893
  429SOL    HW2 1287   1.281   0.077   0.157 -1.0086  1.8736  0.7301
  430SOL     OW 1288   2.778   1.431   0.317  0.4490  0.0628  0.4521
  430SOL    HW1 1289   2.831   1.475   0.235  3.5025 -0.2602 -2.4104
  430SOL    HW2 1290   2.812   1.466   0.407  1.0737 -3.8861 -0.1995
  431SOL     OW 1291   2.116   1.560   0.866  0.3068 -0.3147 -0.1340
  431SOL    HW1 1292   2.201   1.617   0.894 -0.0121  2.1271  0.6104
  431SOL    HW2 1293   2.065   1.602   0.789  1.3883  2.0067  0.6414
  432SOL     OW 1294   2.864   2.240   1.222  0.5227 -0.1468 -0.6172
  432SOL    HW1 1295   2.865   2.134   1.234  1.5648 -1.2098 -5.2337
  432SOL    HW2 1296   2.942   2.287   1.277  2.1088  2.5071 -4.1889
  433SOL     OW 1297   1.840   0.367   0.841 -0.1391 -0.4871 -0.5894
  433SOL    HW1 1298   1.745   0.366   0.891 -2.3040  2.3770  4.3458
  433SOL    HW2 1299   1.900   0.289   0.882 -0.7056  2.2889  1.7800
  434SOL     OW 1300   1.506   0.259   0.717  0.0049  0.4652 -0.7049
  434SOL    HW1 1301   1.487   0.345   0.655 -2.3527  1.6594 -3.8877
  434SOL    HW2 1302   1.535   0.280   0.813 -0.1320  2.0873 -1.3673
  435SOL     OW 1303   1.456   1.494   2.078 -0.3771  0.3273 -0.1056
  435SOL    HW1 1304   1.452   1.547   2.167 -3.0639 -2.7186 -0.9928
  435SOL    HW2 1305   1.509   1.545   1.998  0.2715  0.1439  0.0440
  436SOL     OW 1306   1.708   2.731   2.250 -0.2087  0.0272  0.5886
  436SOL    HW1 1307   1.672   2.816   2.300 -1.3387  1.8188 -0.1129
  436SOL    HW2 1308   1.710   2.644   2.309  1.6459  1.3343  0.3918
  437SOL     OW 1309   1.108   2.952   0.959 -0.4806 -0.1236 -0.1577
  437SOL    HW1 1310   1.057   3.031   0.910  2.5336  2.4598 -0.4728
  437SOL    HW2 1311   1.092   2.946   1.061 -0.6401 -1.6705  0.4942
  438SOL     OW 1312   0.996   2.590   1.306  0.1815  0.1379  0.1276
  438SOL    HW1 1313   1.075   2.625   1.364 -2.2786 -1.1251 -0.5725
  438SOL    HW2 1314   0.990   2.484   1.312 -1.5872 -1.3398  0.9550
  439SOL     OW 1315   0.677   1.771   1.089  0.0141  0.0635  0.2777
  439SOL    HW1 1316   0.664   1.848   1.019  0.8200  0.8396 -0.4833
  439SOL    HW2 1317   0.592   1.754   1.147  0.0281 -0.2146  1.0533
  440SOL     OW 1318   1.013   2.493   1.947  0.5079 -0.1155  0.0807
  440SOL    HW1 1319   0.977   2.535   1.858  0.6691  0.5468  0.8322
  440SOL    HW2 1320   1.113   2.510   1.970 -2.3312 -1.5094 -1.5834
  441SOL     OW 1321   0.510   2.735   1.433 -0.2811  0.1639 -0.0319
  441SOL    HW1 1322   0.566   2.649   1.418  2.9101  0.1705 -0.5430
  441SOL    HW2 1323   0.413   2.717   1.461  4.5283 -0.5921  0.1847
  442SOL     OW 1324   2.272   0.707   2.505 -0.1205  0.3349  0.2185
  442SOL    HW1 1325   2.266   0.609   2.545 -0.3541 -0.3816 -0.0330
  442SOL    HW2 1326   2.185   0.729   2.453 -0.6247  0.7438  2.6435
  443SOL     OW 1327   1.236   2.716   2.141 -0.4682  0.3944 -0.0989
  443SOL    HW1 1328   1.206   2.770   2.224  0.2731  1.9894 -2.2851
  443SOL    HW2 1329   1.270   2.617   2.165 -0.7638 -3.7357 -3.2317
  444SOL     OW 1330   1.072   1.263   1.587  0.7373  0.3781  0.1824
  444SOL    HW1 1331   1.169   1.225   1.570 -1.8190 -2.7779  1.8797
  444SOL    HW2 1332   1.083   1.341   1.654  0.4102 -0.3247 -2.0910
  445SOL     OW 1333   0.013   2.352   1.867  0.0400 -0.5145  0.1013
  445SOL    HW1 1334   0.010   2.456   1.852 -1.9027  1.1172 -0.0575
  445SOL    HW2 1335  -0.067   2.318   1.922  1.5767 -1.2205  2.6223
  446SOL     OW 1336   0.220   1.922   2.317 -0.8068  0.3058  0.3599
  446SOL    HW1 1337   0.174   1.996   2.373  1.7235  1.0277 -2.2843
  446SOL    HW2 1338   0.159   1.905   2.237  3.0295  0.0164  1.6257
  447SOL     OW 1339   1.166   1.694   1.935  0.2260  0.2239 -0.0432
  447SOL    HW1 1340   1.088   1.758   1.901 -1.9221  0.9913  1.8310
  447SOL    HW2 1341   1.241   1.740   1.988  1.0083 -2.3131 -0.5743
  448SOL     OW 1342   0.168   1.550   2.037 -0.2138 -0.0154  0.4698
  448SOL    HW1 1343   0.150   1.628   1.967  1.0894 -0.0172  1.5782
  448SOL    HW2 1344   0.126   1.555   2.128  0.6486  1.0465 -3.3095
  449SOL     OW 1345   1.973   2.943   0.827  0.3734  0.1377 -0.1732
  449SOL    HW1 1346   2.045   2.956   0.901 -1.2584  2.9591  0.2867
  449SOL    HW2 1347   1.972   2.843   0.793 -3.6136  1.2710 -0.5985
  450SOL     OW 1348   2.344   1.344   0.755 -0.3262 -0.3455  0.6494
  450SOL    HW1 1349   2.280   1.261   0.764  1.8316 -0.4269 -0.7669
  450SOL    HW2 1350   2.294   1.427   0.713 -0.9453 -0.0556 -3.3166
  451SOL     OW 1351   1.333   3.090   1.432  0.7191  0.6525 -0.2137
  451SOL    HW1 1352   1.277   3.178   1.447  1.9834  1.8036  0.2375
  451SOL    HW2 1353   1.380   3.055   1.520  2.3072  0.4941  1.5897
  452SOL     OW 1354   2.674   2.291   2.175 -0.6213  0.1940  0.0074
  452SOL    HW1 1355   2.609   2.365   2.209  0.9986 -0.0993  1.4836
  452SOL    HW2 1356   2.705   2.229   2.255 -1.6854  0.0829  0.1631
  453SOL     OW 1357   2.448   2.665   3.054 -0.5069  0.1356 -0.3269
  453SOL    HW1 1358   2.369   2.709   3.101  1.3012 -0.8401 -1.4490
  453SOL    HW2 1359   2.425   2.600   2.976  3.0712  0.7379  1.6783
  454SOL     OW 1360   1.044   1.110   2.067 -0.0101 -0.0829  0.6415
  454SOL    HW1 1361   0.991   1.100   1.977  1.0660 -0.6265 -1.9879
  454SOL    HW2 1362   1.120   1.182   2.065  0.7485  1.4146 -1.4308
  455SOL     OW 1363   0.616   2.609   2.897  0.1875  0.2201  0.3420
  455SOL    HW1 1364   0.712   2.632   2.937  1.1486 -0.7679 -2.9620
  455SOL    HW2 1365   0.600   2.508   2.913 -0.2223 -0.9301 -0.7707
  456SOL     OW 1366   0.502   1.912   0.366  0.1605 -0.1085  0.8893
  456SOL    HW1 1367   0.588   1.882   0.416  2.3792  0.0626 -0.2388
  456SOL    HW2 1368   0.506   2.009   0.323  1.1350  1.1390 -1.4656
  457SOL     OW 1369   0.355   2.623   0.729  0.1895  0.2590  0.8264
  457SOL    HW1 1370   0.328   2.671   0.637 -0.9233  1.7806 -2.2517
  457SOL    HW2 1371   0.447   2.655   0.761  1.6878 -0.1563 -1.5714
  458SOL     OW 1372   2.954   0.001   1.207  0.0024 -0.7835  0.1292
  458SOL    HW1 1373   2.974   0.100   1.203 -4.0193 -0.0740 -0.5071
  458SOL    HW2 1374   2.952  -0.045   1.113  1.0517  1.2706 -3.1116
  459SOL     OW 1375   2.195   2.522   0.822  0.4545  0.0871 -0.3389
  459SOL    HW1 1376   2.229   2.601   0.875 -0.7799 -2.9808  0.8183
  459SOL    HW2 1377   2.252   2.501   0.737  1.2838  0.9709  2.6266
  460SOL     OW 1378   1.128   1.959   2.920  0.3481 -0.6900  0.6779
  460SOL    HW1 1379   1.183   2.013   2.852  0.1781  0.3137  2.4535
  460SOL    HW2 1380   1.187   1.890   2.966 -0.2605  1.6609 -2.6235
  461SOL     OW 1381   0.498   2.118   2.682 -0.3765  0.4370  0.0007
  461SOL    HW1 1382   0.442   2.039   2.641  0.8366  0.4667 -0.7142
  461SOL    HW2 1383   0.547   2.102   2.770  0.2758 -0.1119 -0.5294
  462SOL     OW 1384   0.921   1.131   1.827  0.3032  0.6117 -0.2422
  462SOL    HW1 1385   0.993   1.089   1.764 -2.0435  0.8410  1.2881
  462SOL    HW2 1386   0.870   1.211   1.781 -2.0288  3.4255  0.8955
  463SOL     OW 1387   0.458   0.767   0.520  0.0905  0.1257  0.3894
  463SOL    HW1 1388   0.472   0.671   0.478 -1.0714 -0.2613  1.3772
  463SOL    HW2 1389   0.358   0.769   0.543 -1.2755 -0.5926  1.5524
  464SOL     OW 1390   0.582   2.231   2.274  0.1661 -0.3763  0.3051
  464SOL    HW1 1391   0.530   2.289   2.342 -0.9304 -2.4109 -1.5180
  464SOL    HW2 1392   0.570   2.269   2.174  0.0773  0.5370 -1.2645
  465SOL     OW 1393   0.294   0.933   0.816 -0.3478 -0.3041  0.1623
  465SOL    HW1 1394   0.202   0.962   0.777 -0.7376  1.0388 -0.0346
  465SOL    HW2 1395   0.309   0.827   0.819 -0.6863 -0.5264  0.2972
  466SOL     OW 1396   1.356   1.159   1.147 -0.1778 -0.4467  1.1476
  466SOL    HW1 1397   1.402   1.231   1.204 -1.4856 -1.5530 -0.0007
  466SOL    HW2 1398   1.279   1.191   1.084 -0.0047  1.1496 -1.8172
  467SOL     OW 1399   0.495   0.312   2.349  0.2887  0.7117 -0.3857
  467SOL    HW1 1400   0.481   0.410   2.382 -1.0019 -0.0083 -2.1942
  467SOL    HW2 1401   0.492   0.237   2.422  1.0483 -0.6720 -2.3617
  468SOL     OW 1402   0.470   2.311   1.693 -0.4148 -0.2459  0.2341
  468SOL    HW1 1403   0.550   2.372   1.727  0.9326 -0.2322  2.6121
  468SOL    HW2 1404   0.444   2.332   1.594 -0.2044  2.9329 -1.8971
  469SOL     OW 1405   1.501   1.351   1.265 -0.0193  0.3833  0.9022
  469SOL    HW1 1406   1.596   1.330   1.228 -0.1812 -1.1469 -1.3902
  469SOL    HW2 1407   1.504   1.438   1.326 -1.3229 -2.1801 -0.6126
  470SOL     OW 1408   3.042   1.684   0.782  0.2174  0.5251 -0.3294
  470SOL    HW1 1409   3.091   1.771   0.758 -0.6337 -1.3160 -2.5616
  470SOL    HW2 1410   2.942   1.694   0.804 -1.3169 -2.6031 -2.2351
  471SOL     OW 1411   2.641   1.347   2.154 -0.3623  0.5446 -0.3817
  471SOL    HW1 1412   2.637   1.260   2.208  0.4958  1.3447 -1.5797
  471SOL    HW2 1413   2.725   1.403   2.183  1.9349 -0.4760  0.6479
  472SOL     OW 1414   1.138   2.491   3.061 -0.0987 -0.3024  0.0240
  472SOL    HW1 1415   1.164   2.491   3.162 -0.7142 -2.5803 -1.2539
  472SOL    HW2 1416   1.085   2.404   3.033  0.5304 -0.6216  1.3152
  473SOL     OW 1417   1.065   1.503   0.966  0.1764  0.2301 -0.7774
  473SOL    HW1 1418   0.963   1.515   0.967 -0.6654  1.4505 -0.5022
  473SOL    HW2 1419   1.106   1.483   1.063 -0.4979 -1.0781 -2.0420
  474SOL     OW 1420   0.715   1.229   0.617  0.4046  0.1945  0.2219
  474SOL    HW1 1421   0.712   1.237   0.512  0.7265 -0.4975  0.9120
  474SOL    HW2 1422   0.758   1.138   0.651  1.1410  0.0509  1.1170
  475SOL     OW 1423   2.828   0.166   0.777  0.4358  0.1957 -0.0433
  475SOL    HW1 1424   2.913   0.181   0.839 -0.5110  0.3603  2.1798
  475SOL    HW2 1425   2.738   0.161   0.833  1.4581  2.2742  1.0260
  476SOL     OW 1426   0.868   2.967   1.772  0.4611  0.3138  0.1513
  476SOL    HW1 1427   0.943   2.954   1.843  1.7686  1.0160  1.8869
  476SOL    HW2 1428   0.888   2.918   1.679  0.0872 -3.1116 -0.4637
  477SOL     OW 1429   1.438   0.340   2.495  0.1795 -0.1819  0.3769
  477SOL    HW1 1430   1.438   0.369   2.595 -2.4309  0.0168  1.1925
  477SOL    HW2 1431   1.509   0.265   2.481 -2.3160  1.2327 -0.1742
  478SOL     OW 1432   2.245   1.830   0.267  0.0391  0.3097 -0.1948
  478SOL    HW1 1433   2.188   1.745   0.252 -0.2856 -0.6479 -0.0608
  478SOL    HW2 1434   2.344   1.821   0.226  0.1457  2.1286  2.9892
  479SOL     OW 1435   1.298   1.086   2.940  0.1058 -0.3696  0.1482
  479SOL    HW1 1436   1.373   1.112   2.869 -1.6077  0.1203  0.6229
  479SOL    HW2 1437   1.194   1.086   2.910 -1.2555 -0.5050 -1.0495
  480SOL     OW 1438   2.507   2.326   0.386 -0.3618 -0.3384 -0.2755
  480SOL    HW1 1439   2.488   2.228   0.401  1.4188  1.1280  2.6570
  480SOL    HW2 1440   2.452   2.368   0.306 -1.0470  1.2566  0.5789
  481SOL     OW 1441   1.028   1.150   0.834  0.3888  0.3324 -0.0398
  481SOL    HW1 1442   1.029   1.247   0.796  0.0660  0.4376 -1.9317
  481SOL    HW2 1443   1.017   1.151   0.937 -0.9198 -1.1872  0.6011
  482SOL     OW 1444   1.602   0.298   2.044 -0.4826  0.4959 -0.4885
  482SOL    HW1 1445   1.632   0.392   2.011 -0.8780 -0.5990  0.3885
  482SOL    HW2 1446   1.679   0.237   2.083  3.3737 -2.1652  0.3526
  483SOL     OW 1447   0.176   2.350   1.257  0.2971  0.8691  0.3946
  483SOL    HW1 1448   0.093   2.380   1.314 -1.5771 -1.1547 -0.1175
  483SOL    HW2 1449   0.164   2.372   1.155  0.7017  0.6198 -1.7545
  484SOL     OW 1450   1.705   1.018   1.372 -0.6657 -0.9962 -0.1337
  484SOL    HW1 1451   1.770   0.936   1.387 -1.0869 -1.0695  1.7070
  484SOL    HW2 1452   1.714   1.086   1.452 -0.3676 -2.4436  1.4302
  485SOL     OW 1453   0.650   1.055   1.799  0.4399  0.6332  0.3099
  485SOL    HW1 1454   0.654   1.028   1.694  0.6013  0.1114 -4.5520
  485SOL    HW2 1455   0.738   1.096   1.839 -0.7316  0.2258  0.8905
  486SOL     OW 1456   0.924   1.922   2.458  0.6361  0.0169 -0.8670
  486SOL    HW1 1457   0.966   1.879   2.549  3.2689  0.3363  0.8944
  486SOL    HW2 1458   0.854   1.995   2.491 -1.6955  1.1920 -1.0175
  487SOL     OW 1459   1.762   1.565   0.913 -0.5527 -0.2540 -0.2727
  487SOL    HW1 1460   1.804   1.513   0.996 -1.3089 -2.8619 -0.0101
  487SOL    HW2 1461   1.831   1.610   0.852 -2.3753 -0.0837  1.0762
  488SOL     OW 1462   2.946   0.875   2.247  0.6059  0.0961 -0.4890
  488SOL    HW1 1463   2.989   0.796   2.190 -1.0297 -0.0581 -0.0898
  488SOL    HW2 1464   2.963   0.861   2.349  0.4878  0.0471  0.3223
  489SOL     OW 1465   2.789   0.252   1.312 -0.2020 -0.0819  0.5403
  489SOL    HW1 1466   2.746   0.204   1.393  1.2738 -2.9005 -2.7190
  489SOL    HW2 1467   2.897   0.245   1.318  2.8901  2.4982 -1.2026
  490SOL     OW 1468   1.444   2.911   2.793 -0.0200  0.5541 -0.1157
  490SOL    HW1 1469   1.487   2.817   2.782 -1.2027  0.8896 -2.5897
  490SOL    HW2 1470   1.437   2.957   2.697 -0.5137 -1.7835  1.1369
  491SOL     OW 1471   1.793   1.473   2.633 -0.5707  0.0293  0.7329
  491SOL    HW1 1472   1.753   1.430   2.721  0.0644 -1.1489  2.8207
  491SOL    HW2 1473   1.895   1.483   2.640  1.5933 -0.7016 -0.8779
  492SOL     OW 1474   0.523   2.004   0.675  0.1429  0.5330  0.5897
  492SOL    HW1 1475   0.573   2.013   0.766  2.6584  0.5870  1.6130
  492SOL    HW2 1476   0.477   2.089   0.638 -0.8359 -1.9536 -1.7524
  493SOL     OW 1477   0.414   1.406   2.064  0.9632  0.3063 -0.1305
  493SOL    HW1 1478   0.323   1.451   2.059  0.8720  0.4662 -0.9020
  493SOL    HW2 1479   0.413   1.331   2.137 -0.9360  0.3598  0.3976
  494SOL     OW 1480   2.628   2.735   0.208 -0.0372 -0.7144 -0.6254
  494SOL    HW1 1481   2.627   2.660   0.281 -1.5331  0.3766  1.6890
  494SOL    HW2 1482   2.581   2.705   0.124  0.8554 -0.5657  1.4268
  495SOL     OW 1483   2.763   2.674   2.681 -0.7004  0.3355  0.4968
  495SOL    HW1 1484   2.697   2.599   2.651  0.2914  0.0753  0.3411
  495SOL    HW2 1485   2.786   2.734   2.599  0.3671 -0.7991 -1.0095
  496SOL     OW 1486   2.035   2.204   0.712  0.3655 -0.7053  0.0248
  496SOL    HW1 1487   2.037   2.231   0.815  0.0276 -0.0830  1.3268
  496SOL    HW2 1488   2.101   2.128   0.697 -2.5968  0.1804  0.7136
  497SOL     OW 1489   0.221   2.993   2.440 -0.7240  0.0301 -0.4094
  497SOL    HW1 1490   0.243   3.062   2.516  2.5153 -1.1277 -0.8366
  497SOL    HW2 1491   0.249   3.031   2.345  0.4277 -1.7714 -2.5035
  498SOL     OW 1492   1.226   1.431   1.209 -0.3912  0.2671 -0.2635
  498SOL    HW1 1493   1.323   1.414   1.237 -0.6533 -0.6346 -2.0792
  498SOL    HW2 1494   1.195   1.529   1.231 -1.5763  4.1642 -4.3855
  499SOL     OW 1495   0.714   1.859   0.512 -0.0444 -0.2247  0.3634
  499SOL    HW1 1496   0.748   1.769   0.547  0.8535 -0.7122 -0.9954
  499SOL    HW2 1497   0.675   1.926   0.585 -0.7551  1.5031  1.8628
  500SOL     OW 1498   1.474   2.959   1.637  0.0429  0.2836 -0.0311
  500SOL    HW1 1499   1.449   2.962   1.738  1.4450 -0.0027  0.6500
  500SOL    HW2 1500   1.532   2.875   1.622 -0.5448 -0.4688  1.3210
  501SOL     OW 1501   0.847   1.113   2.288 -0.2648  0.0466  0.3385
  501SOL    HW1 1502   0.759   1.071   2.254  0.9577 -0.4341  0.4638
  501SOL    HW2 1503   0.931   1.081   2.230 -0.1597  4.4122 -1.2971
  502SOL     OW 1504   2.635   0.955   1.761 -0.3178 -0.2129  0.1488
  502SOL    HW1 1505   2.624   1.008   1.674  2.3189 -1.6911 -2.3968
  502SOL    HW2 1506   2.578   0.868   1.762  1.1001  1.1047  0.7784
  503SOL     OW 1507   1.273   0.129   0.666  0.3780 -0.0793  0.2496
  503SOL    HW1 1508   1.218   0.196   0.608  4.5466 -0.7837 -2.0902
  503SOL    HW2 1509   1.366   0.180   0.688  0.0647  2.9367  1.6458
  504SOL     OW 1510   3.051   2.335   1.411 -0.1574 -0.1487  0.1906
  504SOL    HW1 1511   2.991   2.387   1.478  2.2870 -1.2631 -2.9872
  504SOL    HW2 1512   3.095   2.254   1.459 -1.9089 -4.0761 -3.0413
  505SOL     OW 1513   2.268   1.167   1.513  0.1665  0.1330  0.6755
  505SOL    HW1 1514   2.285   1.218   1.418  0.8087 -0.3516 -0.5796
  505SOL    HW2 1515   2.299   1.222   1.591 -1.8070 -0.2327 -2.3902
  506SOL     OW 1516   1.991   0.184   1.775  0.3036  1.3121 -0.2478
  506SOL    HW1 1517   2.062   0.105   1.801  0.0253 -1.8078 -0.3766
  506SOL    HW2 1518   2.002   0.264   1.842 -0.0066 -0.5240  1.8113
  507SOL     OW 1519   0.536   0.686   2.168  0.0509 -0.0919  0.6159
  507SOL    HW1 1520   0.467   0.627   2.107  0.9107 -2.6163 -0.6889
  507SOL    HW2 1521   0.621   0.628   2.176 -0.7534  0.6609 -0.4353
  508SOL     OW 1522   0.263   1.642   0.885  0.0002 -0.6776  0.1596
  508SOL    HW1 1523   0.297   1.716   0.819 -3.2177 -1.1560 -0.6348
  508SOL    HW2 1524   0.221   1.684   0.969  1.8924 -1.5623  0.5816
  509SOL     OW 1525   1.328   1.258   2.347  0.0452  0.0555  0.1194
  509SOL    HW1 1526   1.243   1.236   2.298  3.8293 -2.6725  2.0289
  509SOL    HW2 1527   1.408   1.195   2.316  3.0365 -2.9035 -4.0613
  510SOL     OW 1528   1.304   2.032   2.056 -0.2625  0.2765 -0.1764
  510SOL    HW1 1529   1.261   2.114   2.009  1.0064 -1.5621  0.6865
  510SOL    HW2 1530   1.239   1.984   2.119  0.9093 -1.4412  0.5958
  511SOL     OW 1531   3.084   2.724   1.352 -0.0451 -0.4672  1.1057
  511SOL    HW1 1532   3.080   2.725   1.248  2.5637 -0.6091 -1.3476
  511SOL    HW2 1533   2.987   2.714   1.396 -0.8784 -2.2752 -3.1717
  512SOL     OW 1534   2.359   0.408   1.405  0.0801 -0.0786 -0.1352
  512SOL    HW1 1535   2.258   0.384   1.408 -0.0842  1.3436  1.3402
  512SOL    HW2 1536   2.402   0.358   1.327 -0.2961 -0.0741 -2.2859
  513SOL     OW 1537   2.493   2.071   0.843 -0.5778  0.1487  0.3511
  513SOL    HW1 1538   2.447   2.133   0.770 -0.5161 -1.4740 -3.0173
  513SOL    HW2 1539   2.570   2.017   0.804 -3.5010  0.7504 -0.8027
  514SOL     OW 1540   0.562   2.777   0.517  0.3728  0.5034  0.1553
  514SOL    HW1 1541   0.579   2.824   0.425  2.4191 -0.6212 -0.8524
  514SOL    HW2 1542   0.626   2.809   0.595  0.9969 -1.2037  2.2676
  515SOL     OW 1543   2.033   1.118   2.263 -0.4061  0.0569 -0.1982
  515SOL    HW1 1544   1.992   1.113   2.167  1.0129  2.3747 -0.5929
  515SOL    HW2 1545   1.978   1.117   2.352  0.8906  2.9135  0.2005
  516SOL     OW 1546   0.278   0.260   1.916 -0.4363 -0.5330  0.5748
  516SOL    HW1 1547   0.334   0.274   1.826  0.8387 -0.6389 -1.7486
  516SOL    HW2 1548   0.184   0.221   1.898 -1.4694 -3.2800 -0.5419
  517SOL     OW 1549   0.426   3.055   1.175  0.1001 -0.6143  0.1015
  517SOL    HW1 1550   0.463   3.152   1.161  1.4360  2.2890 -1.4588
  517SOL    HW2 1551   0.322   3.045   1.189 -1.9634 -1.7795  1.1501
  518SOL     OW 1552   2.207   0.005   1.786 -0.4254 -0.4473 -0.7402
  518SOL    HW1 1553   2.264   0.091   1.807 -0.2769 -2.0432  0.7458
  518SOL    HW2 1554   2.221  -0.031   1.686  2.2946 -2.7852 -1.4338
  519SOL     OW 1555   2.357   2.235   2.589 -0.0058  0.2690  0.0862
  519SOL    HW1 1556   2.269   2.218   2.641  1.0678  1.0452 -1.5921
  519SOL    HW2 1557   2.381   2.337   2.589 -3.2072 -0.4281  1.6603
  520SOL     OW 1558   1.762   2.865   1.874 -0.6304  0.4428  0.2232
  520SOL    HW1 1559   1.661   2.850   1.890  1.1845  2.9924 -1.3884
  520SOL    HW2 1560   1.814   2.775   1.860 -1.6557  0.5209  0.9231
  521SOL     OW 1561   0.568   0.007   2.155 -0.1498 -0.6394 -0.2616
  521SOL    HW1 1562   0.467  -0.012   2.178 -2.1607  0.5690 -0.3003
  521SOL    HW2 1563   0.633   0.017   2.237 -1.4923 -0.6662  1.5038
  522SOL     OW 1564   0.208   1.906   1.435 -0.1722 -0.5420 -0.1717
  522SOL    HW1 1565   0.234   1.965   1.518  1.0192 -0.5602  0.2350
  522SOL    HW2 1566   0.171   1.959   1.352 -0.2159 -0.6376 -1.4691
  523SOL     OW 1567   2.267   2.977   1.540 -0.3321 -0.5515  0.1875
  523SOL    HW1 1568   2.332   2.905   1.573  0.5433 -0.4601 -1.0548
  523SOL    HW2 1569   2.181   2.934   1.506  1.5440  0.2081  3.6160
  524SOL     OW 1570   0.169   2.777   2.805  0.0646  0.0934 -0.2151
  524SOL    HW1 1571   0.114   2.862   2.841 -1.2789 -0.2305  0.0478
  524SOL    HW2 1572   0.274   2.785   2.790  1.4215 -0.0242 -1.4704
  525SOL     OW 1573   2.145   1.986   0.463 -0.0189 -0.6084 -0.2690
  525SOL    HW1 1574   2.141   1.917   0.542 -0.3739  0.7334  2.7820
  525SOL    HW2 1575   2.175   1.944   0.370  3.8684 -0.3165  0.3568
  526SOL     OW 1576   0.398   1.554   1.681 -0.5690 -0.3863 -0.1324
  526SOL    HW1 1577   0.317   1.513   1.728 -0.6084  2.8527 -0.4060
  526SOL    HW2 1578   0.472   1.488   1.647  0.4876 -2.3795 -0.9589
  527SOL     OW 1579   1.104   2.968   1.236  0.0748  0.5046  0.4716
  527SOL    HW1 1580   1.202   2.932   1.251  2.0471  2.2263  3.4044
  527SOL    HW2 1581   1.100   3.071   1.236 -1.5327 -0.0272 -0.8370
  528SOL     OW 1582   1.340   2.427   0.500  0.2565 -0.0809 -0.0588
  528SOL    HW1 1583   1.373   2.331   0.500 -2.1062 -0.1783  0.6283
  528SOL    HW2 1584   1.401   2.486   0.560  1.0236 -0.1873 -1.9619
  529SOL     OW 1585   1.933   1.749   0.734  0.0631  0.1192  0.2001
  529SOL    HW1 1586   1.865   1.770   0.658 -1.6498  0.2135  0.6528
  529SOL    HW2 1587   1.924   1.815   0.812 -1.3314 -1.9944 -2.5321
  530SOL     OW 1588   0.295   2.549   0.311 -0.2584 -0.6949  0.0063
  530SOL    HW1 1589   0.265   2.629   0.367  1.0017 -1.3783 -1.5688
  530SOL    HW2 1590   0.343   2.471   0.365  0.2641 -1.6235  0.5235
  531SOL     OW 1591   1.803   1.011   0.978  0.2958  0.2459  0.3272
  531SOL    HW1 1592   1.795   1.107   0.934 -1.3328 -0.9222 -1.1579
  531SOL    HW2 1593   1.711   0.966   0.995 -0.8793 -0.7767 -3.3519
  532SOL     OW 1594   0.497   1.115   0.755  0.2411 -0.6158  0.3322
  532SOL    HW1 1595   0.565   1.118   0.679  1.9550  0.6581  1.3952
  532SOL    HW2 1596   0.435   1.031   0.755  1.6153  1.1198  1.5374
  533SOL     OW 1597   1.748   0.042   2.594 -0.2015  0.1038 -0.4193
  533SOL    HW1 1598   1.838   0.003   2.625  1.3771 -1.8104 -2.1510
  533SOL    HW2 1599   1.705   0.107   2.663  0.7469  1.7886  0.0345
  534SOL     OW 1600   0.308   0.231   1.632 -0.1559 -0.3076 -0.1275
  534SOL    HW1 1601   0.405   0.221   1.592 -1.4277 -0.8594  4.3542
  534SOL    HW2 1602   0.266   0.326   1.625  0.2586 -2.7168 -0.7105
  535SOL     OW 1603   1.952   0.341   0.125  0.0007 -0.1371  0.2191
  535SOL    HW1 1604   1.926   0.419   0.188  1.2412  1.0971  1.2813
  535SOL    HW2 1605   1.949   0.253   0.172  2.1433 -1.5780  1.5836
  536SOL     OW 1606   1.408   2.610   0.925 -0.0923  0.2723  0.1018
  536SOL    HW1 1607   1.390   2.587   1.025  0.5658 -2.0368 -1.0847
  536SOL    HW2 1608   1.316   2.635   0.875  1.0194  0.6745  0.6812
  537SOL     OW 1609   0.835   0.265   2.411  0.0720  0.4306  0.0475
  537SOL    HW1 1610   0.819   0.308   2.317 -1.0079 -1.8599 -1.3601
  537SOL    HW2 1611   0.814   0.163   2.405  1.0215 -0.5143 -0.4206
  538SOL     OW 1612   1.645   2.345   1.512  0.8261 -0.6008 -0.6509
  538SOL    HW1 1613   1.648   2.245   1.483  1.5277  1.9511 -1.7074
  538SOL    HW2 1614   1.720   2.404   1.467  0.0788 -1.1300 -1.5582
  539SOL     OW 1615   0.167   1.644   2.697 -0.3592 -0.1798  0.2004
  539SOL    HW1 1616   0.078   1.638   2.644  0.6741 -0.3236 -2.1086
  539SOL    HW2 1617   0.181   1.722   2.760  2.4493 -0.4991 -0.5513
  540SOL     OW 1618   2.681   1.757   1.926  0.1718 -0.3013 -0.5689
  540SOL    HW1 1619   2.607   1.691   1.967 -1.7985  3.8850 -1.3713
  540SOL    HW2 1620   2.639   1.852   1.910 -1.8669 -2.0036 -1.3086
  541SOL     OW 1621   0.488   2.199   0.010  0.8692  0.0040 -0.2222
  541SOL    HW1 1622   0.504   2.165   0.106 -0.7131 -1.0245  0.6655
  541SOL    HW2 1623   0.392   2.180  -0.017  1.6357  1.5300  1.1440
  542SOL     OW 1624   2.230   2.568   0.423  0.1151 -0.3384 -0.2676
  542SOL    HW1 1625   2.179   2.648   0.380 -0.8526  0.0055  0.7873
  542SOL    HW2 1626   2.166   2.491   0.455 -2.5558 -1.0660  0.1000
  543SOL     OW 1627   1.119   1.832   1.568  0.2482 -0.2055 -0.1412
  543SOL    HW1 1628   1.053   1.823   1.649  0.5213 -3.6168 -1.9510
  543SOL    HW2 1629   1.097   1.912   1.507 -2.6840  1.4959 -0.3699
  544SOL     OW 1630   1.095   0.454   0.170 -0.3122  0.1524 -0.2286
  544SOL    HW1 1631   1.091   0.380   0.239  1.8742 -2.0307  0.2311
  544SOL    HW2 1632   1.133   0.422   0.079  2.4760  3.0318 -1.6770
  545SOL     OW 1633   1.118   1.731   0.806 -0.0742 -0.5683  0.2094
  545SOL    HW1 1634   1.208   1.735   0.749 -0.3452  0.1225 -0.8894
  545SOL    HW2 1635   1.108   1.645   0.862 -0.4486  0.9861 -1.1247
  546SOL     OW 1636   2.647   1.531   3.032 -0.3649 -0.1045  0.2659
  546SOL    HW1 1637   2.661   1.616   2.968  1.5078  1.6136 -0.8677
  546SOL    HW2 1638   2.550   1.519   3.069  1.1956 -1.7044 -0.1272
  547SOL     OW 1639   0.614   3.004   2.619  0.2405 -0.3218 -0.1773
  547SOL    HW1 1640   0.711   3.002   2.652  0.0039  0.2020 -1.3171
  547SOL    HW2 1641   0.561   2.924   2.649  1.4530  3.6049 -1.6903
  548SOL     OW 1642   2.086   0.886   2.984  0.3446 -0.6550  0.2358
  548SOL    HW1 1643   1.991   0.847   2.987 -0.6959 -0.3538 -0.1638
  548SOL    HW2 1644   2.098   0.978   3.033  0.0814  1.2671  1.8845
  549SOL     OW 1645   0.687   0.535   0.168 -0.2861  0.5390 -0.0427
  549SOL    HW1 1646   0.616   0.586   0.118 -1.5481 -2.8706  3.0340
  549SOL    HW2 1647   0.788   0.571   0.162 -1.2736 -2.2431 -0.9584
  550SOL     OW 1648   2.623   2.806   2.883  0.0572 -0.1680  0.0330
  550SOL    HW1 1649   2.572   2.742   2.950 -0.4670  0.6474  2.7296
  550SOL    HW2 1650   2.657   2.763   2.797  2.2420  0.5258 -0.4377
  551SOL     OW 1651   0.291   0.850   0.229  0.3682  0.0810  0.1323
  551SOL    HW1 1652   0.392   0.874   0.226  0.5982  0.1165  0.1744
  551SOL    HW2 1653   0.252   0.838   0.323  1.6892  1.2437  1.5927
  552SOL     OW 1654   0.612   2.970   1.893 -0.1428  0.2974  0.0916
  552SOL    HW1 1655   0.602   3.018   1.987  3.0239  0.2747  0.7608
  552SOL    HW2 1656   0.715   2.960   1.864 -1.0352  1.2031  0.9005
  553SOL     OW 1657   2.910   2.469   0.362 -0.1129 -0.1941 -0.2864
  553SOL    HW1 1658   2.869   2.371   0.370 -2.9497 -1.2013  2.1072
  553SOL    HW2 1659   2.861   2.535   0.427  0.1931 -2.6872 -0.1364
  554SOL     OW 1660   2.157   0.369   0.538 -0.0042 -0.2364  0.0014
  554SOL    HW1 1661   2.219   0.372   0.458 -3.1890  0.0630 -0.8068
  554SOL    HW2 1662   2.162   0.274   0.580 -1.9755  2.3929 -1.1039
  555SOL     OW 1663   0.380   2.781   2.509  0.0237 -0.4211  0.0371
  555SOL    HW1 1664   0.320   2.868   2.492 -0.4484  1.0644  0.2122
  555SOL    HW2 1665   0.427   2.755   2.420 -1.2983 -1.8112  3.3089
  556SOL     OW 1666   0.866   2.361   1.551 -0.0533 -0.0743  0.0421
  556SOL    HW1 1667   0.916   2.434   1.610  0.8393  1.8367  1.6596
  556SOL    HW2 1668   0.922   2.340   1.466 -0.2591  2.8389  1.1855
  557SOL     OW 1669   0.151   2.065   0.219  0.0152 -0.5809  0.0800
  557SOL    HW1 1670   0.088   1.985   0.194 -3.2396 -1.7069  0.7858
  557SOL    HW2 1671   0.204   2.101   0.136 -0.1569  1.5263 -2.1211
  558SOL     OW 1672   2.781   2.235   0.410  0.2339 -0.4936  0.2370
  558SOL    HW1 1673   2.682   2.257   0.375 -1.2476 -0.8148 -0.2266
  558SOL    HW2 1674   2.806   2.133   0.402  0.0785 -2.7411  2.1240
  559SOL     OW 1675   0.403   2.319   1.415  0.5234  0.2009 -0.0815
  559SOL    HW1 1676   0.315   2.342   1.364 -0.3803 -0.1841  0.2938
  559SOL    HW2 1677   0.442   2.222   1.395  1.1591  0.1442 -0.7784
  560SOL     OW 1678   2.114   1.153   3.071  0.1425 -0.9194  0.0862
  560SOL    HW1 1679   2.141   1.160   3.171 -0.7373  1.5524 -0.6871
  560SOL    HW2 1680   2.192   1.180   3.014  0.0126  1.2461  2.2126
  561SOL     OW 1681   3.094   1.847   0.005  0.6406  0.3223 -0.2706
  561SOL    HW1 1682   3.075   1.812   0.102  2.0697 -0.9773  0.9036
  561SOL    HW2 1683   3.056   1.944  -0.003 -0.2812  0.6796 -2.5377
  562SOL     OW 1684   0.984   2.166   2.298  0.3232 -0.6602 -0.0557
  562SOL    HW1 1685   0.993   2.248   2.367  1.1305  1.2284 -0.7309
  562SOL    HW2 1686   0.946   2.077   2.329  2.3046  1.9852 -2.4367
  563SOL     OW 1687   0.698   2.589   2.611 -0.0441 -0.7285  0.5057
  563SOL    HW1 1688   0.785   2.531   2.623  0.6837 -2.8781 -0.7628
  563SOL    HW2 1689   0.650   2.609   2.698  0.2046  0.5189  1.0969
  564SOL     OW 1690   2.820   1.345   2.895  0.1186  0.5299  0.2934
  564SOL    HW1 1691   2.733   1.382   2.937  1.9544 -0.6328 -0.8862
  564SOL    HW2 1692   2.882   1.416   2.852  2.0847  0.0191 -0.0370
  565SOL     OW 1693   2.532   2.022   2.656 -0.3568 -0.8861 -0.0846
  565SOL    HW1 1694   2.468   2.106   2.645 -1.4048 -0.8264  1.4780
  565SOL    HW2 1695   2.615   2.046   2.718 -2.2249  2.6197 -1.1523
  566SOL     OW 1696   2.029   2.845   1.445 -0.6891  0.6643  0.3359
  566SOL    HW1 1697   1.980   2.756   1.465 -0.8164  0.3648  0.3646
  566SOL    HW2 1698   2.014   2.881   1.344 -0.8945 -1.7842 -1.1917
  567SOL     OW 1699   2.405   3.036   2.356 -0.1918 -0.0003 -0.1692
  567SOL    HW1 1700   2.339   3.100   2.403  1.8420  1.1013 -1.0893
  567SOL    HW2 1701   2.373   3.022   2.254 -2.3947  0.8518 -2.0209
  568SOL     OW 1702   1.533   1.766   0.222 -0.0635  0.1245  0.3364
  568SOL    HW1 1703   1.494   1.863   0.219 -2.0099 -0.2073  1.2106
  568SOL    HW2 1704   1.630   1.757   0.255 -0.6432  2.2032  1.2936
  569SOL     OW 1705   0.255   0.633   0.785 -0.0675  0.3684 -0.2917
  569SOL    HW1 1706   0.304   0.557   0.738  0.3912 -2.5736 -1.3451
  569SOL    HW2 1707   0.152   0.636   0.770 -0.7152 -0.9328 -2.0561
  570SOL     OW 1708   0.649   0.823   2.923 -0.2225  0.2287 -0.0825
  570SOL    HW1 1709   0.743   0.817   2.880  1.9267  1.0693 -0.7019
  570SOL    HW2 1710   0.638   0.909   2.982 -1.5304 -1.1640 -1.4494
  571SOL     OW 1711   0.763   3.085   1.070  0.5008 -0.7777 -0.2374
  571SOL    HW1 1712   0.797   3.122   0.981 -0.6470  0.3192  2.3173
  571SOL    HW2 1713   0.780   2.987   1.088  0.2147  2.1895  0.8028
  572SOL     OW 1714   1.630   2.667   1.331  0.1250  0.3058  0.1221
  572SOL    HW1 1715   1.572   2.621   1.258  0.0814  0.4230  1.4517
  572SOL    HW2 1716   1.639   2.769   1.325 -1.4085  2.0167  0.3859
  573SOL     OW 1717   2.929   0.485   2.037 -0.0003 -0.2038  0.2294
  573SOL    HW1 1718   2.864   0.406   2.046  2.6682  1.3616 -0.5052
  573SOL    HW2 1719   2.952   0.508   1.933  3.2044 -0.6480 -1.9974
  574SOL     OW 1720   0.146   1.747   1.123 -0.1279  0.0624 -0.1243
  574SOL    HW1 1721   0.217   1.795   1.179 -2.1166 -1.7068  1.1117
  574SOL    HW2 1722   0.064   1.809   1.108  2.0886 -0.9525  1.7874
  575SOL     OW 1723   0.805   2.207   0.932 -0.0231 -0.1830  0.1844
  575SOL    HW1 1724   0.751   2.240   1.016 -0.3862 -0.3217  0.9204
  575SOL    HW2 1725   0.854   2.280   0.881  0.7733 -4.5351  0.7902
  576SOL     OW 1726   2.857   2.984   1.668  0.0461  0.1469 -0.0707
  576SOL    HW1 1727   2.756   2.994   1.671  3.2500 -2.3389 -0.8987
  576SOL    HW2 1728   2.901   3.074   1.641 -0.4936 -1.9041 -1.4289
  577SOL     OW 1729   2.552   1.168   0.002  1.1097 -0.1374  0.1060
  577SOL    HW1 1730   2.561   1.083  -0.054 -2.5405  1.6010  0.6235
  577SOL    HW2 1731   2.631   1.171   0.070  1.0875  1.0401 -2.3240
  578SOL     OW 1732   1.418   2.755   2.456 -0.2516  0.5768  0.0778
  578SOL    HW1 1733   1.328   2.794   2.484 -1.4627  0.7167  0.2558
  578SOL    HW2 1734   1.491   2.824   2.432 -1.2336 -0.7477 -1.5829
  579SOL     OW 1735   0.046   2.477   0.194 -0.2147 -0.3917  0.4960
  579SOL    HW1 1736  -0.042   2.457   0.246 -0.2322 -1.1758 -0.2716
  579SOL    HW2 1737   0.130   2.491   0.257  0.2675  1.7691  1.2759
  580SOL     OW 1738   0.969   2.665   0.343 -0.5772 -0.2240  0.4303
  580SOL    HW1 1739   1.060   2.652   0.300  1.4362 -0.8169 -0.7380
  580SOL    HW2 1740   0.895   2.594   0.319  1.3959  0.6065 -0.5398
  581SOL     OW 1741   1.217   2.668   1.471  0.5043 -0.0933 -0.0607
  581SOL    HW1 1742   1.286   2.593   1.496 -0.9508 -1.2584  0.2051
  581SOL    HW2 1743   1.259   2.745   1.412 -1.3670  2.5227 -1.3059
  582SOL     OW 1744   1.489   0.105   1.873 -0.1337  0.4304  0.2124
  582SOL    HW1 1745   1.503   0.188   1.935 -2.5475 -0.6734  3.1011
  582SOL    HW2 1746   1.567   0.080   1.806  2.1105 -0.7406  0.3201
  583SOL     OW 1747   2.423   3.074   0.510 -0.2968  0.1067  0.3887
  583SOL    HW1 1748   2.501   3.006   0.483 -0.2416 -1.6881  2.6677
  583SOL    HW2 1749   2.333   3.031   0.541  2.0626 -0.6244  1.4054
  584SOL     OW 1750   1.551   1.095   2.252 -0.3226 -0.0062  0.4290
  584SOL    HW1 1751   1.634   1.157   2.242 -0.8610 -2.4170  0.9604
  584SOL    HW2 1752   1.570   0.999   2.275  1.1344  2.0162  2.7136
  585SOL     OW 1753   2.116   2.673   2.897 -0.1667 -0.2747 -0.4050
  585SOL    HW1 1754   2.120   2.580   2.936  0.9297 -1.4299  0.9999
  585SOL    HW2 1755   2.023   2.723   2.908 -0.3242  0.6544 -1.6730
  586SOL     OW 1756   2.843   0.350   1.584  0.2822 -0.0410 -0.5199
  586SOL    HW1 1757   2.865   0.432   1.652  2.5797  0.4871 -2.1069
  586SOL    HW2 1758   2.745   0.335   1.566  2.2809 -1.7051 -1.7448
  587SOL     OW 1759   2.078   1.499   2.645 -0.3172  0.0389 -0.2037
  587SOL    HW1 1760   2.126   1.417   2.597 -0.5886 -1.3439 -0.4794
  587SOL    HW2 1761   2.123   1.522   2.735  1.8624 -1.1849 -0.6772
  588SOL     OW 1762   0.462   2.688   2.243  0.2932  0.1888  0.3098
  588SOL    HW1 1763   0.428   2.679   2.143  0.4036  1.4619  0.6741
  588SOL    HW2 1764   0.498   2.601   2.285  1.5914  0.0093  2.8225
  589SOL     OW 1765   2.183   1.319   2.476  0.0971 -0.3389  0.0060
  589SOL    HW1 1766   2.151   1.248   2.411  1.5259  0.3319  0.3690
  589SOL    HW2 1767   2.286   1.316   2.486 -1.2968 -1.1448 -0.5089
  590SOL     OW 1768   2.296   1.772   2.026 -0.1258 -0.1603 -0.2253
  590SOL    HW1 1769   2.369   1.700   2.012  1.1004 -2.4362  3.4501
  590SOL    HW2 1770   2.282   1.805   2.123  2.0071 -0.6092  1.0042
  591SOL     OW 1771   1.266   2.417   0.248 -0.1469  0.1514  0.0096
  591SOL    HW1 1772   1.289   2.331   0.186  1.1484 -2.3213 -1.3919
  591SOL    HW2 1773   1.301   2.404   0.346  0.4162  1.5869 -3.1322
  592SOL     OW 1774   1.766   2.330   0.757 -0.1998  0.2579 -0.0112
  592SOL    HW1 1775   1.708   2.364   0.677  1.2300 -0.0391  0.6928
  592SOL    HW2 1776   1.863   2.310   0.730  1.9442  1.4589 -0.4132
  593SOL     OW 1777   0.702   0.275   0.221 -0.1645  0.7692  0.2836
  593SOL    HW1 1778   0.738   0.229   0.137 -1.5230  3.6023 -1.0488
  593SOL    HW2 1779   0.698   0.374   0.208  1.7758  0.0852 -0.6023
  594SOL     OW 1780   1.031   1.808   2.688  0.0744 -0.3075  0.4228
  594SOL    HW1 1781   1.117   1.767   2.654  0.5259  2.0854  1.2748
  594SOL    HW2 1782   1.058   1.853   2.778 -0.9405 -0.0814  1.8578
  595SOL     OW 1783   1.543   0.090   1.015  0.3450 -0.5154  0.1304
  595SOL    HW1 1784   1.628   0.041   0.979  1.1830  1.0776  2.1177
  595SOL    HW2 1785   1.454   0.044   0.978 -0.6937 -0.1660 -0.2730
  596SOL     OW 1786   0.045   1.568   2.285 -0.3358 -0.1599  0.1288
  596SOL    HW1 1787   0.090   1.490   2.332  0.7395 -0.0754 -0.4308
  596SOL    HW2 1788   0.004   1.627   2.357  1.2150 -3.3199  0.5100
  597SOL     OW 1789   1.921   2.647   1.800 -0.3159  0.3651  0.1760
  597SOL    HW1 1790   1.880   2.635   1.705  2.0684 -2.9115 -3.1793
  597SOL    HW2 1791   2.015   2.602   1.805  2.3231  3.6644 -0.4598
  598SOL     OW 1792   2.533   2.914   1.239  0.2920 -0.2504  0.0992
  598SOL    HW1 1793   2.625   2.942   1.278 -1.3373  3.0478 -1.0198
  598SOL    HW2 1794   2.543   2.855   1.157 -0.1969  0.2458  1.1236
  599SOL     OW 1795   2.895   0.307   2.459 -0.3036 -0.3574  0.6444
  599SOL    HW1 1796   2.984   0.284   2.410  0.4732 -2.5712 -0.7553
  599SOL    HW2 1797   2.834   0.372   2.404  0.5224  1.2106 -2.0326
  600SOL     OW 1798   2.807   1.114   2.728 -0.0374  0.5321 -0.1076
  600SOL    HW1 1799   2.712   1.089   2.709  1.8750 -0.9684 -0.6548
  600SOL    HW2 1800   2.814   1.192   2.796  0.8260  0.9369 -0.5410
  601SOL     OW 1801   3.069   1.333   2.001  0.0774  0.5331 -0.0472
  601SOL    HW1 1802   2.993   1.383   1.951 -0.4822 -0.9778  3.8374
  601SOL    HW2 1803   3.108   1.381   2.084  2.6620  0.1778  1.7167
  602SOL     OW 1804   1.447   1.694   2.320  0.0708 -0.4179  0.3104
  602SOL    HW1 1805   1.377   1.648   2.376  0.9942 -0.2521 -0.4448
  602SOL    HW2 1806   1.543   1.664   2.350 -1.3453  1.6226 -0.9570
  603SOL     OW 1807   0.652   1.178   2.786  1.1306 -0.4517 -0.6801
  603SOL    HW1 1808   0.553   1.174   2.749 -2.1317  0.0415  5.2250
  603SOL    HW2 1809   0.708   1.093   2.763  1.3461 -3.1316  1.2338
  604SOL     OW 1810   2.430   1.003   0.180  0.1746 -0.4409 -0.2580
  604SOL    HW1 1811   2.472   1.067   0.109  2.2310  1.6504 -0.2081
  604SOL    HW2 1812   2.429   0.906   0.139  0.1587 -0.7661 -0.6053
  605SOL     OW 1813   2.511   1.161   1.949 -0.1101  0.5900  1.0057
  605SOL    HW1 1814   2.571   1.093   1.900  0.2063  0.6286 -0.2738
  605SOL    HW2 1815   2.558   1.219   2.018 -1.8939 -0.1933 -1.7027
  606SOL     OW 1816   1.537   2.496   2.580  0.1188  0.7402 -0.7881
  606SOL    HW1 1817   1.482   2.582   2.550  1.1949  1.4825  1.5599
  606SOL    HW2 1818   1.503   2.414   2.527  0.0355  1.9523 -0.6791
  607SOL     OW 1819   1.334   1.598   0.314  0.3071  0.2567  0.0926
  607SOL    HW1 1820   1.257   1.668   0.326  0.6320 -0.0943  0.2934
  607SOL    HW2 1821   1.420   1.644   0.267  3.2486  1.8313 -1.6508
  608SOL     OW 1822   1.461   2.821   0.392  0.0601 -0.4660 -0.4889
  608SOL    HW1 1823   1.498   2.856   0.299 -1.0180  0.9858 -1.1276
  608SOL    HW2 1824   1.415   2.896   0.449  1.1567 -0.1440 -0.7010
  609SOL     OW 1825   1.266   1.324   0.245  0.0415 -0.1970 -0.5209
  609SOL    HW1 1826   1.284   1.428   0.273  1.2370  0.8445  1.4625
  609SOL    HW2 1827   1.235   1.317   0.147  2.4567  2.4691 -1.4981
  610SOL     OW 1828   2.961   1.145   2.214  0.3553  0.1390 -0.0268
  610SOL    HW1 1829   2.965   1.041   2.216 -1.7212 -0.2924  0.2625
  610SOL    HW2 1830   2.938   1.184   2.120 -0.2110 -0.5717 -0.5451
  611SOL     OW 1831   2.529   0.272   1.180  0.2219 -0.2519 -0.1662
  611SOL    HW1 1832   2.477   0.183   1.186 -1.8995  1.6340 -0.6036
  611SOL    HW2 1833   2.629   0.263   1.207 -2.5605  0.1114  3.3057
  612SOL     OW 1834   0.713   2.294   1.180 -0.5284  0.3661 -0.0357
  612SOL    HW1 1835   0.656   2.240   1.241  1.1951 -1.2272 -1.0514
  612SOL    HW2 1836   0.680   2.390   1.153  0.7821  0.6701  0.3679
  613SOL     OW 1837   0.814   1.387   2.387  0.7453  0.0891 -0.3261
  613SOL    HW1 1838   0.825   1.458   2.312  0.8290  2.4024  0.1144
  613SOL    HW2 1839   0.826   1.287   2.353  0.5698 -2.4091  0.2856
  614SOL     OW 1840   1.581   1.675   1.906 -0.1779 -0.1254 -1.1459
  614SOL    HW1 1841   1.527   1.756   1.864  0.4999  1.0607 -2.3415
  614SOL    HW2 1842   1.652   1.701   1.978  0.2544 -0.5974  0.9247
  615SOL     OW 1843   0.804   1.348   1.733 -0.0591  0.4596  0.0627
  615SOL    HW1 1844   0.706   1.361   1.692  1.2231  1.0184 -0.0553
  615SOL    HW2 1845   0.875   1.406   1.687 -1.8012  0.0273  0.8790
  616SOL     OW 1846   1.100   1.583   2.180  0.4717 -0.2576  0.1724
  616SOL    HW1 1847   1.001   1.569   2.196  1.2973  0.1161 -1.0469
  616SOL    HW2 1848   1.117   1.628   2.089 -0.8054  1.8788 -0.7903
  617SOL     OW 1849   2.978   1.539   1.599  0.0137  0.1849  0.1615
  617SOL    HW1 1850   2.954   1.500   1.691 -0.5167 -2.6787  1.0317
  617SOL    HW2 1851   3.007   1.459   1.539  2.8657  1.5952  0.7202
  618SOL     OW 1852   1.934   2.024   1.443  0.4975  0.0088  0.3250
  618SOL    HW1 1853   2.028   2.022   1.396  0.6901 -0.4501 -0.0232
  618SOL    HW2 1854   1.892   1.927   1.456 -0.1687  0.1134  0.7844
  619SOL     OW 1855   1.725   0.477   2.400 -0.7441 -0.4495  0.1227
  619SOL    HW1 1856   1.650   0.530   2.350  2.2960  0.4779  0.9839
  619SOL    HW2 1857   1.685   0.387   2.429  0.4797 -0.4943  0.0034
  620SOL     OW 1858   2.208   2.938   0.608  0.4325 -0.3706  0.0489
  620SOL    HW1 1859   2.102   2.932   0.615 -2.1630  0.5940 -1.6000
  620SOL    HW2 1860   2.252   2.893   0.688 -1.4943  0.3027 -0.8680
  621SOL     OW 1861   2.154   1.859   1.293  0.3637 -0.2551 -0.0286
  621SOL    HW1 1862   2.167   1.845   1.396  1.5201 -2.6735  1.9981
  621SOL    HW2 1863   2.135   1.771   1.244  0.5248  0.0955  0.6488
  622SOL     OW 1864   2.140   0.839   1.737 -0.0650 -0.0820 -0.7507
  622SOL    HW1 1865   2.240   0.817   1.747 -0.5139  0.6323  1.9602
  622SOL    HW2 1866   2.087   0.778   1.798  0.4904 -1.5728  0.6143
  623SOL     OW 1867   1.365   0.768   2.596  0.0258 -0.0424  0.0100
  623SOL    HW1 1868   1.320   0.711   2.670  2.4499 -1.5621 -0.1598
  623SOL    HW2 1869   1.301   0.807   2.523  2.3317 -1.4720 -0.2135
  624SOL     OW 1870   0.509   0.672   0.026 -0.2547  0.2771 -0.0129
  624SOL    HW1 1871   0.560   0.715  -0.058 -0.5588  1.2170 -0.3934
  624SOL    HW2 1872   0.512   0.741   0.105 -0.2557  4.5527  1.8650
  625SOL     OW 1873   2.794   1.744   0.934  0.1256  0.0090 -0.6421
  625SOL    HW1 1874   2.705   1.766   0.987  0.3411  0.7789 -0.5603
  625SOL    HW2 1875   2.858   1.682   0.987  0.2455 -0.4843  0.5681
  626SOL     OW 1876   0.548   2.721   1.832 -0.3398 -0.0880  0.0621
  626SOL    HW1 1877   0.572   2.820   1.859 -1.1443  1.0734  0.5716
  626SOL    HW2 1878   0.448   2.701   1.852 -0.8685 -1.0177 -1.2733
  627SOL     OW 1879   0.698   0.994   1.556  0.1293 -0.4434 -0.3319
  627SOL    HW1 1880   0.770   0.922   1.539 -0.1854  1.0118 -3.9238
  627SOL    HW2 1881   0.726   1.079   1.499 -1.5113  1.6273 -0.9174
  628SOL     OW 1882   2.401   0.193   0.685  0.1535 -0.3101 -0.0789
  628SOL    HW1 1883   2.421   0.105   0.631  0.7343  0.6048  1.7998
  628SOL    HW2 1884   2.304   0.190   0.723 -2.6138  0.8848 -0.3776
  629SOL     OW 1885   1.961   0.919   1.978  0.1979 -0.1878 -0.0871
  629SOL    HW1 1886   2.043   0.920   2.036  0.1875  2.9236  0.5229
  629SOL    HW2 1887   1.928   1.015   1.961  0.0511 -0.3631  2.1518
  630SOL     OW 1888   2.787   2.206   0.777  0.1387 -0.5798  0.0167
  630SOL    HW1 1889   2.698   2.259   0.799 -0.0966  0.3115  0.0970
  630SOL    HW2 1890   2.762   2.112   0.747  0.7396 -2.6876 -1.4094
  631SOL     OW 1891   2.967   0.116   2.105  0.4692  0.1941  0.5611
  631SOL    HW1 1892   3.020   0.177   2.169 -3.2348  0.6122 -1.3650
  631SOL    HW2 1893   3.016   0.090   2.020 -0.7693 -0.3654  0.2120
  632SOL     OW 1894   2.402   2.506   0.633 -0.6719  0.7769  0.4616
  632SOL    HW1 1895   2.453   2.583   0.679 -1.8748  4.0914 -0.8317
  632SOL    HW2 1896   2.343   2.541   0.556 -0.9443  0.1288  1.2054
  633SOL     OW 1897   1.566   1.283   2.536  1.1220  0.0498  0.1127
  633SOL    HW1 1898   1.561   1.355   2.614 -2.0382  1.1402 -1.6341
  633SOL    HW2 1899   1.486   1.298   2.470  1.5425 -0.2338 -0.9128
  634SOL     OW 1900   0.654   2.001   0.901 -0.2506 -0.0041 -0.2063
  634SOL    HW1 1901   0.564   2.024   0.952 -0.4211 -0.5211  1.8700
  634SOL    HW2 1902   0.730   2.074   0.914 -0.1565 -1.9273  0.3096
  635SOL     OW 1903   0.020   2.323   3.058 -0.3245  0.0076 -0.0330
  635SOL    HW1 1904  -0.008   2.366   2.969 -0.8416 -0.0215  0.5926
  635SOL    HW2 1905   0.022   2.386   3.140  1.1732 -0.7460 -2.6529
  636SOL     OW 1906   2.291   2.769   2.041  0.1201  0.5114  0.2409
  636SOL    HW1 1907   2.317   2.872   2.061  0.3576  0.9144 -1.8311
  636SOL    HW2 1908   2.233   2.727   2.113  3.8519  2.8580 -0.1777
  637SOL     OW 1909   2.582   0.680   2.053 -0.2223 -0.5711 -0.0829
  637SOL    HW1 1910   2.529   0.721   1.971 -2.5915 -2.3394  0.3191
  637SOL    HW2 1911   2.636   0.753   2.105 -0.9328 -1.4907 -1.0766
  638SOL     OW 1912   2.446   1.844   1.294  0.8659  0.3026 -0.2221
  638SOL    HW1 1913   2.350   1.853   1.334 -1.2276  0.7941  1.5939
  638SOL    HW2 1914   2.493   1.766   1.337 -0.3717 -1.0126 -0.9820
  639SOL     OW 1915   1.279   2.206   1.654 -0.3220  0.5215  0.4093
  639SOL    HW1 1916   1.281   2.143   1.572  0.9428 -1.3627 -1.2549
  639SOL    HW2 1917   1.191   2.201   1.709 -2.6134  2.3451  1.0735
  640SOL     OW 1918   0.214   1.188   1.567 -0.3271  0.2380 -0.1777
  640SOL    HW1 1919   0.213   1.239   1.660  1.0482  1.5677  0.1690
  640SOL    HW2 1920   0.289   1.119   1.552 -0.6210  0.6450 -0.0656
  641SOL     OW 1921   2.030   0.070   1.516 -0.3244 -0.1032  0.6316
  641SOL    HW1 1922   1.998   0.128   1.594  1.3442 -0.9097  2.1064
  641SOL    HW2 1923   2.130   0.041   1.520  1.0155 -0.5553 -0.2742
  642SOL     OW 1924   1.948   0.105   0.287 -0.5952  0.2494 -0.0082
  642SOL    HW1 1925   2.030   0.131   0.345  1.2262 -0.7348  1.9555
  642SOL    HW2 1926   1.875   0.055   0.339 -0.6021  0.5360 -0.0181
  643SOL     OW 1927   2.847   1.896   2.074  0.1829  0.5728 -0.1628
  643SOL    HW1 1928   2.800   1.823   2.017  2.2005 -1.0810  1.6988
  643SOL    HW2 1929   2.863   1.976   2.016 -1.4932 -0.5971  0.2220
  644SOL     OW 1930   2.196   2.336   1.192 -0.6909  0.0496  0.1809
  644SOL    HW1 1931   2.278   2.284   1.145 -2.2997 -0.9642  0.6713
  644SOL    HW2 1932   2.180   2.315   1.298  0.8482 -3.2104  0.0538
  645SOL     OW 1933   0.622   0.834   1.188 -0.4890 -0.6461 -0.6444
  645SOL    HW1 1934   0.552   0.794   1.127 -0.5535 -2.3308  1.9726
  645SOL    HW2 1935   0.679   0.903   1.141 -1.4557  0.2466 -0.7444
  646SOL     OW 1936   1.460   1.940   1.847  0.4308 -0.1653 -0.1650
  646SOL    HW1 1937   1.551   1.994   1.865  2.6123  1.1142  0.1217
  646SOL    HW2 1938   1.386   1.968   1.913  0.5554 -1.1741 -1.1364
  647SOL     OW 1939   0.854   1.001   0.688 -0.0683 -0.6037 -0.4123
  647SOL    HW1 1940   0.915   1.049   0.757 -0.5768  1.1222 -2.0499
  647SOL    HW2 1941   0.811   0.915   0.735  1.2329 -2.2637  1.0303
  648SOL     OW 1942   0.089   0.168   0.261 -0.7931 -0.2640  0.3268
  648SOL    HW1 1943   0.137   0.096   0.198  1.0675 -1.9475  1.0644
  648SOL    HW2 1944   0.103   0.268   0.230 -1.1396 -2.7206  1.0191
  649SOL     OW 1945   3.067   0.163   0.918  0.0739 -0.4238 -0.0540
  649SOL    HW1 1946   3.101   0.240   0.857 -0.0934  0.7259  0.0629
  649SOL    HW2 1947   3.068   0.186   1.019 -2.0726  0.6144 -0.2012
  650SOL     OW 1948   2.720   0.718   1.414 -0.1581  0.1106 -0.2527
  650SOL    HW1 1949   2.620   0.698   1.430  2.2220  3.7023 -3.2928
  650SOL    HW2 1950   2.729   0.795   1.345  1.1618 -1.4851 -2.5052
  651SOL     OW 1951   0.920   1.566   1.645 -0.6285 -0.1770  0.4126
  651SOL    HW1 1952   0.953   1.649   1.704  1.6795  0.9683 -1.0220
  651SOL    HW2 1953   0.922   1.582   1.541 -1.0141  0.1861 -1.9266
  652SOL     OW 1954   2.261   2.519   2.480 -0.0676 -0.2329 -0.5240
  652SOL    HW1 1955   2.190   2.503   2.557 -1.8956 -0.1649 -0.6480
  652SOL    HW2 1956   2.229   2.583   2.411 -0.7640 -1.1246  0.6226
  653SOL     OW 1957   2.730   1.169   0.230 -0.1826 -0.0214  0.0505
  653SOL    HW1 1958   2.753   1.267   0.251  0.5623 -2.0051  1.7092
  653SOL    HW2 1959   2.808   1.107   0.267  0.6768  0.8433  2.1243
  654SOL     OW 1960   1.247   2.262   1.218  0.1787  0.1914  0.0702
  654SOL    HW1 1961   1.273   2.200   1.296 -2.0974 -1.1630 -0.3732
  654SOL    HW2 1962   1.301   2.249   1.129 -0.9403  2.8173  0.2798
  655SOL     OW 1963   0.219   0.970   1.841 -0.1131  1.3062  0.1474
  655SOL    HW1 1964   0.238   0.888   1.781  0.3443  3.7109  2.2649
  655SOL    HW2 1965   0.302   1.032   1.860 -0.7050  1.3819 -2.6050
  656SOL     OW 1966   2.521   2.482   2.611  0.0705 -0.3072 -0.4111
  656SOL    HW1 1967   2.595   2.443   2.551 -0.2434 -1.9327  0.1834
  656SOL    HW2 1968   2.437   2.505   2.566  1.9145 -2.4192  0.0743
  657SOL     OW 1969   3.079   1.080   1.891 -0.1137 -0.1485 -0.2655
  657SOL    HW1 1970   3.087   1.170   1.942 -1.3665  0.3319  0.4140
  657SOL    HW2 1971   3.167   1.048   1.851 -1.5361 -0.3976  1.4442
  658SOL     OW 1972   1.660   0.206   2.410 -0.5768 -0.4424 -0.0290
  658SOL    HW1 1973   1.730   0.152   2.463  0.5115 -0.1853 -0.6275
  658SOL    HW2 1974   1.697   0.207   2.311  2.0553 -0.9916 -0.1055
  659SOL     OW 1975   1.426   0.627   2.913 -0.7424 -0.0123  0.0015
  659SOL    HW1 1976   1.491   0.709   2.920  0.2504 -0.3999 -0.3979
  659SOL    HW2 1977   1.333   0.640   2.868 -1.4582  0.3306 -0.5590
  660SOL     OW 1978   1.443   0.360   1.450  0.1121 -0.1465 -0.1630
  660SOL    HW1 1979   1.480   0.382   1.543  2.2458  0.3447  0.7139
  660SOL    HW2 1980   1.486   0.276   1.402  0.7388 -0.7017 -0.4542
  661SOL     OW 1981   2.512   1.163   0.639  0.0598  0.1652 -0.6639
  661SOL    HW1 1982   2.514   1.155   0.537  0.0612 -0.1116  2.4438
  661SOL    HW2 1983   2.445   1.238   0.671  1.4292 -0.5967 -0.8232
  662SOL     OW 1984   1.337   0.438   1.834 -0.0438  0.1340 -0.2470
  662SOL    HW1 1985   1.309   0.342   1.813 -0.6737  0.8696  0.4828
  662SOL    HW2 1986   1.282   0.471   1.916 -0.0063  0.5494  0.2227
  663SOL     OW 1987   0.835   1.579   2.175  0.3468 -0.4934  0.5291
  663SOL    HW1 1988   0.806   1.674   2.196  0.0898 -2.4597  0.9372
  663SOL    HW2 1989   0.778   1.536   2.093  0.9588 -2.3211  0.9519
  664SOL     OW 1990   1.659   2.080   1.437  0.0906 -0.6561 -0.3371
  664SOL    HW1 1991   1.622   2.012   1.505 -0.2686  0.7447 -0.7033
  664SOL    HW2 1992   1.762   2.075   1.418 -0.6713 -0.1346 -0.1186
  665SOL     OW 1993   2.204   0.677   2.023 -0.4914  0.5197  0.2941
  665SOL    HW1 1994   2.264   0.596   2.051  0.8576 -1.7267  1.7168
  665SOL    HW2 1995   2.188   0.750   2.097 -1.2016  2.2124  0.3620
  666SOL     OW 1996   0.436   2.375   0.459  0.0522 -0.6737  0.4177
  666SOL    HW1 1997   0.527   2.431   0.469  2.4479  3.2386 -0.6045
  666SOL    HW2 1998   0.399   2.332   0.548 -1.0117  5.2618  1.9532
  667SOL     OW 1999   1.964   0.191   1.059 -0.4306  0.0586 -0.5167
  667SOL    HW1 2000   1.979   0.292   1.070  1.2722  1.2883 -1.5824
  667SOL    HW2 2001   1.908   0.143   1.130 -0.7162 -0.2867 -4.3330
  668SOL     OW 2002   1.975   0.532   1.166 -0.3436  0.5176  0.2648
  668SOL    HW1 2003   2.058   0.536   1.096  2.3608  0.1940 -0.2966
  668SOL    HW2 2004   1.994   0.478   1.250 -0.6328 -0.6862 -0.4201
  669SOL     OW 2005   3.023   2.250   0.971 -0.1130 -1.0984 -0.1357
  669SOL    HW1 2006   2.943   2.238   0.903  2.2835 -1.3924 -3.0621
  669SOL    HW2 2007   2.986   2.253   1.070 -0.4642  2.8663  1.0863
  670SOL     OW 2008   2.888   2.335   2.005 -0.3744  0.1149  0.5403
  670SOL    HW1 2009   2.823   2.295   2.074  0.1811  0.6770 -2.6401
  670SOL    HW2 2010   2.864   2.437   1.994 -0.1382  1.2113  1.5215
  671SOL     OW 2011   1.776   1.761   1.428 -0.6413 -0.3753 -0.2581
  671SOL    HW1 2012   1.801   1.757   1.328 -1.3455  1.2648 -0.1294
  671SOL    HW2 2013   1.675   1.746   1.437  2.6782 -0.7677  0.9930
  672SOL     OW 2014   0.437   0.566   2.392  0.7404  0.1582  0.1423
  672SOL    HW1 2015   0.477   0.617   2.308  0.2891 -1.7864  1.8125
  672SOL    HW2 2016   0.349   0.609   2.430 -0.7339 -0.7372  0.6141
  673SOL     OW 2017   0.143   1.178   1.140 -0.0900 -0.2733  0.1934
  673SOL    HW1 2018   0.171   1.258   1.201  1.4474  1.7820 -1.9091
  673SOL    HW2 2019   0.227   1.126   1.104 -1.8216 -0.0968 -1.4657
  674SOL     OW 2020   1.578   2.894   0.158 -0.4680 -0.0350 -0.2194
  674SOL    HW1 2021   1.616   2.981   0.128 -1.5888 -1.0141  1.4660
  674SOL    HW2 2022   1.601   2.815   0.097  0.7053 -2.8679 -0.5199
  675SOL     OW 2023   1.640   0.843   2.299 -0.1677 -0.4314  0.2873
  675SOL    HW1 2024   1.737   0.810   2.270  1.8227  1.9162  1.4590
  675SOL    HW2 2025   1.564   0.769   2.279 -1.0229  1.8784  2.1732
  676SOL     OW 2026   2.486   1.559   2.023 -0.1775  0.0268 -0.2416
  676SOL    HW1 2027   2.467   1.504   1.935  0.5516 -0.3138 -0.8359
  676SOL    HW2 2028   2.530   1.499   2.097  1.2369 -1.2674  3.3889
  677SOL     OW 2029   1.869   0.630   0.902 -0.8935 -0.2778  0.1228
  677SOL    HW1 2030   1.905   0.629   0.997  0.8925 -1.9025 -1.5516
  677SOL    HW2 2031   1.863   0.534   0.864  1.2834 -0.8756  1.9221
  678SOL     OW 2032   0.019   0.730   1.668 -0.0443  0.2313 -0.1629
  678SOL    HW1 2033   0.121   0.712   1.667  0.7029 -1.4349  1.2136
  678SOL    HW2 2034  -0.022   0.750   1.763 -2.7999  2.7126  1.8747
  679SOL     OW 2035   2.553   1.149   1.099 -0.1698 -0.0455 -0.3267
  679SOL    HW1 2036   2.488   1.184   1.171  0.3795  2.8621 -0.2088
  679SOL    HW2 2037   2.538   1.049   1.084 -0.4603  0.8303 -0.8138
  680SOL     OW 2038   2.833   0.629   1.651  0.0980  0.5008 -0.2719
  680SOL    HW1 2039   2.815   0.660   1.552 -2.5615 -0.1920 -0.4150
  680SOL    HW2 2040   2.905   0.686   1.697 -0.9246 -0.1958  0.4988
  681SOL     OW 2041   2.995   0.123   1.629 -0.4271 -0.0704 -0.4622
  681SOL    HW1 2042   3.070   0.115   1.557  2.3385  1.9021 -0.6425
  681SOL    HW2 2043   2.940   0.206   1.609 -0.7199 -2.6833  0.3335
  682SOL     OW 2044   0.782   0.055   1.358  0.2732 -0.1303  0.6486
  682SOL    HW1 2045   0.739  -0.029   1.404  1.4524  0.1613  0.5523
  682SOL    HW2 2046   0.797   0.050   1.257 -1.1155  0.2785  2.8360
  683SOL     OW 2047   1.359   0.277   2.159  0.0801  0.3495  0.3829
  683SOL    HW1 2048   1.343   0.340   2.238  2.9947 -0.1743  0.5220
  683SOL    HW2 2049   1.460   0.272   2.132 -0.1134 -0.9185  0.8232
  684SOL     OW 2050   1.441   2.169   0.534 -0.4132 -0.7684 -0.7522
  684SOL    HW1 2051   1.514   2.111   0.583 -1.7017  1.9199  1.6803
  684SOL    HW2 2052   1.354   2.116   0.517  1.3001 -0.2482  0.2627
  685SOL     OW 2053   2.199   2.005   1.904 -0.6792 -0.0636  0.1691
  685SOL    HW1 2054   2.237   2.097   1.942 -0.2135  0.2763  1.2443
  685SOL    HW2 2055   2.252   1.926   1.939  1.5641  1.9201  1.3071
  686SOL     OW 2056   1.513   1.753   2.676  0.3127 -0.2982 -0.8295
  686SOL    HW1 2057   1.496   1.668   2.734  0.0677  1.7667 -2.4711
  686SOL    HW2 2058   1.616   1.759   2.654 -1.4121  0.7360 -0.9650
  687SOL     OW 2059   1.296   2.521   1.909  0.1079  0.4060 -0.1448
  687SOL    HW1 2060   1.346   2.442   1.869  1.7167 -0.1517 -4.0179
  687SOL    HW2 2061   1.342   2.570   1.985 -0.7102 -2.4032  0.3841
  688SOL     OW 2062   2.083   1.492   1.684 -0.0807 -0.9427 -0.7192
  688SOL    HW1 2063   2.165   1.549   1.673  1.6283 -1.0436 -0.6905
  688SOL    HW2 2064   2.047   1.442   1.601 -2.3129 -1.4698  0.9090
  689SOL     OW 2065   2.469   1.085   2.735 -0.4932 -0.1501  0.9789
  689SOL    HW1 2066   2.370   1.101   2.754 -0.6438 -1.6435 -1.3440
  689SOL    HW2 2067   2.524   1.048   2.819  1.6004 -0.0469 -2.6905
  690SOL     OW 2068   2.203   2.752   0.092 -0.1909  0.0448  0.2360
  690SOL    HW1 2069   2.105   2.730   0.056  0.2286  0.4070  1.2594
  690SOL    HW2 2070   2.211   2.802   0.184  1.4246 -0.4509 -0.0103
  691SOL     OW 2071   2.569   0.410   2.103  0.7378  0.4799  0.2523
  691SOL    HW1 2072   2.604   0.348   2.026 -1.2794  0.3318 -0.4329
  691SOL    HW2 2073   2.575   0.510   2.077 -0.9836  0.4364  0.5394
  692SOL     OW 2074   2.773   1.214   0.715  0.6807 -0.0361  0.2788
  692SOL    HW1 2075   2.669   1.206   0.698 -1.4941 -0.2151  0.3450
  692SOL    HW2 2076   2.806   1.296   0.769  0.6412 -0.7665  0.2205
  693SOL     OW 2077   2.850   2.982   0.673  0.5223  0.2156  0.0277
  693SOL    HW1 2078   2.817   3.065   0.727 -0.8646  1.2824  0.2979
  693SOL    HW2 2079   2.803   2.975   0.577 -0.4432 -1.8715 -2.2793
  694SOL     OW 2080   2.446   2.234   0.068  0.3742  0.2615 -0.1277
  694SOL    HW1 2081   2.410   2.330   0.076  0.5118 -0.0129 -0.0048
  694SOL    HW2 2082   2.379   2.162   0.038 -0.7286 -2.5724 -3.0560
  695SOL     OW 2083   0.622   2.967   1.468 -0.5636 -0.3864  0.2247
  695SOL    HW1 2084   0.584   2.879   1.427  2.3134  0.8565 -0.0454
  695SOL    HW2 2085   0.576   3.002   1.556 -1.0239  0.7170 -1.5128
  696SOL     OW 2086   2.682   1.926   0.721 -0.2234 -0.0613 -0.0132
  696SOL    HW1 2087   2.724   1.846   0.776 -0.3284 -0.8180 -2.1932
  696SOL    HW2 2088   2.631   1.898   0.638 -1.2306  3.2258 -0.9915
  697SOL     OW 2089   1.710   2.072   1.851  0.6494 -0.2315 -0.3261
  697SOL    HW1 2090   1.789   2.000   1.847  4.5532  0.7999 -0.7662
  697SOL    HW2 2091   1.744   2.161   1.812  0.4009 -1.7415 -0.7570
  698SOL     OW 2092   2.898   0.364   2.737 -0.5827 -0.0231  0.1932
  698SOL    HW1 2093   2.918   0.353   2.633 -0.3192  1.0336 -2.4617
  698SOL    HW2 2094   2.974   0.322   2.799 -2.2437  0.0900 -1.9170
  699SOL     OW 2095   1.506   0.054   2.930 -0.4970 -0.1878  0.1599
  699SOL    HW1 2096   1.501  -0.033   2.878  0.4604  2.2412 -2.9822
  699SOL    HW2 2097   1.541   0.125   2.863  0.3591 -0.9826 -0.9580
  700SOL     OW 2098   0.988   2.312   1.313  0.0677 -0.1189  0.0373
  700SOL    HW1 2099   1.084   2.310   1.272 -2.7528  2.2287 -0.2171
  700SOL    HW2 2100   0.918   2.274   1.243  0.7254 -2.8729 -0.8349
  701SOL     OW 2101   1.925   2.822   0.000 -0.3909 -0.0400 -0.3754
  701SOL    HW1 2102   1.899   2.756   0.079 -0.3915 -1.9980  1.0544
  701SOL    HW2 2103   1.928   2.921   0.035  0.6080 -0.2477  0.8710
  702SOL     OW 2104   2.087   1.328   1.929 -0.1973 -0.7640  0.1617
  702SOL    HW1 2105   2.158   1.253   1.930  2.0730  0.5753  1.1458
  702SOL    HW2 2106   2.089   1.386   1.838 -2.0808  0.5915 -1.5089
  703SOL     OW 2107   1.918   0.833   1.399 -0.2205  0.2482 -0.1571
  703SOL    HW1 2108   1.917   0.744   1.459 -0.3607 -0.7874  2.5802
  703SOL    HW2 2109   1.959   0.913   1.450 -2.0384  1.9851  1.1323
  704SOL     OW 2110   0.313   2.078   1.663  0.5652  0.5878  0.3182
  704SOL    HW1 2111   0.349   2.024   1.745  0.0640  0.9647  3.9474
  704SOL    HW2 2112   0.359   2.169   1.660 -2.3289  0.0198 -2.6404
  705SOL     OW 2113   2.537   1.392   0.942  0.1589 -0.0983  0.1226
  705SOL    HW1 2114   2.473   1.377   0.859 -1.2894  0.3753  1.9413
  705SOL    HW2 2115   2.537   1.309   1.008  2.6080 -2.8667 -0.0910
  706SOL     OW 2116   0.655   1.761   1.855  0.0565  0.3154 -0.3418
  706SOL    HW1 2117   0.654   1.661   1.882  1.3559  3.0214  2.1595
  706SOL    HW2 2118   0.717   1.814   1.918 -1.6920 -0.8019  4.5285
  707SOL     OW 2119   2.239   1.108   1.886  0.0099  0.2759 -0.4374
  707SOL    HW1 2120   2.339   1.105   1.924  0.7759 -1.8400  2.0731
  707SOL    HW2 2121   2.207   1.020   1.839  2.1008  2.1218  0.6216
  708SOL     OW 2122   2.980   0.509   3.058  0.2379 -0.5473  0.4937
  708SOL    HW1 2123   3.012   0.562   2.976  1.4228  0.8212 -0.5308
  708SOL    HW2 2124   2.956   0.414   3.020  2.1969 -0.4150 -1.3651
  709SOL     OW 2125   1.804   1.890   0.255  0.4674 -0.6714 -0.1498
  709SOL    HW1 2126   1.847   1.979   0.287  0.9831  1.2959  2.5505
  709SOL    HW2 2127   1.819   1.871   0.154 -0.3616 -0.4786  1.0570
  710SOL     OW 2128   1.685   1.586   2.408 -0.0256  0.1375  0.1689
  710SOL    HW1 2129   1.766   1.573   2.339  2.4315  0.5025  0.2802
  710SOL    HW2 2130   1.723   1.575   2.510  0.5152 -0.8746  1.1710
  711SOL     OW 2131   2.672   2.928   0.976 -0.0901 -0.6329 -0.0029
  711SOL    HW1 2132   2.646   3.019   0.935 -0.7103  1.8342  0.2965
  711SOL    HW2 2133   2.773   2.901   0.963  0.8637  3.5386  0.3284
  712SOL     OW 2134   1.440   2.266   1.867  0.5123 -0.0636 -1.2348
  712SOL    HW1 2135   1.521   2.205   1.885  1.0362  2.5813  0.6852
  712SOL    HW2 2136   1.395   2.249   1.777 -0.7054 -0.1236 -0.9336
  713SOL     OW 2137   2.804   1.529   2.515 -0.9612  0.0369 -0.7112
  713SOL    HW1 2138   2.840   1.433   2.502 -0.7508  0.9491 -0.1073
  713SOL    HW2 2139   2.709   1.517   2.557  1.6354 -0.8794  0.4899
  714SOL     OW 2140   2.671   0.446   2.395 -0.5724 -0.1824  0.0769
  714SOL    HW1 2141   2.638   0.412   2.490  2.0348 -2.0315 -0.2346
  714SOL    HW2 2142   2.595   0.441   2.322  1.2253 -1.1480  0.4827
  715SOL     OW 2143   1.594   2.039   1.159 -0.2722  0.0376 -0.2964
  715SOL    HW1 2144   1.524   2.103   1.108 -1.0350 -0.4667 -0.9453
  715SOL    HW2 2145   1.601   2.055   1.263  2.5071 -1.6511  1.1976
  716SOL     OW 2146   1.225   0.221   1.517  0.4675  0.3244  0.0503
  716SOL    HW1 2147   1.129   0.245   1.485  0.9778 -0.8047 -0.8891
  716SOL    HW2 2148   1.295   0.296   1.499  0.8130 -1.1340  0.5049
  717SOL     OW 2149   1.097   0.614   1.612 -0.6617 -0.0355  0.2055
  717SOL    HW1 2150   1.195   0.629   1.638  0.3365  1.3901 -0.9726
  717SOL    HW2 2151   1.089   0.590   1.513  2.5692  0.5225 -0.5486
  718SOL     OW 2152   0.737   0.990   0.958 -0.0599  0.0456  0.5267
  718SOL    HW1 2153   0.671   0.973   0.884 -0.4691  2.2674  1.1154
  718SOL    HW2 2154   0.728   1.086   0.990 -0.4335  0.2940 -0.4118
  719SOL     OW 2155   0.733   1.809   2.278  0.4254  0.6520  0.5246
  719SOL    HW1 2156   0.803   1.844   2.343  1.2410  0.7201  4.2420
  719SOL    HW2 2157   0.642   1.806   2.323  0.1630  0.8525 -1.8179
  720SOL     OW 2158   2.183   1.126   0.226  0.1894 -0.6863  0.1571
  720SOL    HW1 2159   2.270   1.082   0.189 -0.6581 -0.9624  0.7316
  720SOL    HW2 2160   2.168   1.102   0.326  0.2156 -1.4795  1.6804
  721SOL     OW 2161   2.301   3.045   2.094 -0.1223  0.6767 -0.1028
  721SOL    HW1 2162   2.315   3.130   2.033  0.4652  1.8481  1.6195
  721SOL    HW2 2163   2.206   3.030   2.126  1.5669  0.6754 -0.1300
  722SOL     OW 2164   2.369   1.623   0.572  0.1637  0.4422 -0.3614
  722SOL    HW1 2165   2.388   1.587   0.478  0.0089 -0.3138 -1.8678
  722SOL    HW2 2166   2.310   1.705   0.581 -0.6095 -2.0600  0.2983
  723SOL     OW 2167   2.558   2.725   1.975 -0.2713  0.7202 -0.0204
  723SOL    HW1 2168   2.599   2.780   2.054  2.2426  0.8913 -0.0696
  723SOL    HW2 2169   2.453   2.723   1.989  0.6193  0.8139 -0.2600
  724SOL     OW 2170   0.534   2.481   2.401 -0.0538  0.3830 -0.0081
  724SOL    HW1 2171   0.433   2.499   2.422  1.5332 -1.5014 -0.8309
  724SOL    HW2 2172   0.595   2.506   2.478 -2.5646 -1.8773 -1.8570
  725SOL     OW 2173   2.470   2.755   1.553  0.4540  0.1397  0.4212
  725SOL    HW1 2174   2.530   2.743   1.468  2.0192  1.4006 -0.2535
  725SOL    HW2 2175   2.395   2.688   1.564 -1.6101  0.9974 -1.4482
  726SOL     OW 2176   2.365   2.228   0.667 -0.1742 -0.7152  0.3647
  726SOL    HW1 2177   2.383   2.324   0.636  2.6606  0.7405  1.6886
  726SOL    HW2 2178   2.378   2.156   0.588 -2.0549  0.8422 -0.2941
  727SOL     OW 2179   0.192   3.092   0.068  0.6630  0.3404  0.3846
  727SOL    HW1 2180   0.285   3.047   0.047 -0.4904  1.3246 -0.1400
  727SOL    HW2 2181   0.137   3.109  -0.017 -0.0632 -0.8993  0.3679
  728SOL     OW 2182   2.857   0.670   0.967 -0.1389 -0.0529 -0.5148
  728SOL    HW1 2183   2.762   0.644   0.929 -0.7105 -0.2059  3.1311
  728SOL    HW2 2184   2.848   0.637   1.065 -1.5254 -0.3200  0.1963
  729SOL     OW 2185   2.932   2.447   0.715 -0.6709 -0.0563 -0.5628
  729SOL    HW1 2186   2.859   2.377   0.725  0.6137  1.0413 -0.1349
  729SOL    HW2 2187   3.013   2.411   0.760 -1.3270 -0.4990  1.7411
  730SOL     OW 2188   2.612   0.598   0.858  0.0443 -0.4577 -0.6499
  730SOL    HW1 2189   2.549   0.682   0.834  0.8503 -0.4926 -0.5519
  730SOL    HW2 2190   2.680   0.573   0.778  2.1707 -2.5346 -0.0706
  731SOL     OW 2191   0.108   2.126   2.449 -0.2755  0.1645  0.2360
  731SOL    HW1 2192   0.130   2.160   2.550 -0.0604 -2.4824 -0.7097
  731SOL    HW2 2193   0.119   2.199   2.379 -0.5032 -0.8402 -0.5966
  732SOL     OW 2194   1.108   2.885   1.939  0.4406 -0.8661  0.3371
  732SOL    HW1 2195   1.149   2.826   2.017  2.5181  1.1739  2.7692
  732SOL    HW2 2196   1.114   2.844   1.842 -0.7926  0.0302  0.5628
  733SOL     OW 2197   3.097   0.654   2.166  0.3366  0.9258 -0.1292
  733SOL    HW1 2198   3.178   0.698   2.118  1.9525 -1.5370 -2.7299
  733SOL    HW2 2199   3.038   0.595   2.107  2.6545  3.3746  2.1357
  734SOL     OW 2200   1.432   0.391   2.775  0.6770 -0.1610 -0.2142
  734SOL    HW1 2201   1.446   0.486   2.812 -0.8607 -1.4900 -1.1832
  734SOL    HW2 2202   1.330   0.361   2.765 -1.1276 -1.2935 -3.2477
  735SOL     OW 2203   2.922   2.596   2.262 -0.1259  0.4836 -0.7920
  735SOL    HW1 2204   2.888   2.622   2.170 -0.0618 -0.0487  0.5728
  735SOL    HW2 2205   3.022   2.566   2.263  0.6066  0.1366  0.9038
  736SOL     OW 2206   0.700   0.415   2.617  0.4780  0.6902 -0.1170
  736SOL    HW1 2207   0.613   0.459   2.569 -1.1596  1.1516 -1.7598
  736SOL    HW2 2208   0.753   0.350   2.551 -0.6636  4.2276 -1.7030
  737SOL     OW 2209   2.662   0.418   2.859  0.0171  0.1943  0.4902
  737SOL    HW1 2210   2.652   0.377   2.951  3.9468 -1.7074 -1.1958
  737SOL    HW2 2211   2.749   0.392   2.810  0.2242  3.1449 -0.4535
  738SOL     OW 2212   1.600   1.250   2.910 -0.7037  0.2310  0.2672
  738SOL    HW1 2213   1.701   1.215   2.929 -1.9948 -3.0019 -1.2941
  738SOL    HW2 2214   1.554   1.184   2.839 -0.3178  0.2928 -2.5313
  739SOL     OW 2215   1.703   0.626   0.651  0.5345 -0.4039  0.7674
  739SOL    HW1 2216   1.765   0.649   0.731 -1.2508 -0.3829  0.2625
  739SOL    HW2 2217   1.752   0.573   0.575  2.8010  1.1843  0.2911
  740SOL     OW 2218   1.942   1.904   2.350  0.4261 -0.5796 -0.0848
  740SOL    HW1 2219   2.021   1.835   2.357 -1.5691 -1.2048 -1.7844
  740SOL    HW2 2220   1.885   1.888   2.268 -1.6730  0.7823  0.3957
  741SOL     OW 2221   2.549   0.064   2.616  0.2389 -0.5638 -0.2982
  741SOL    HW1 2222   2.648   0.074   2.644 -0.6691 -1.3044 -0.7165
  741SOL    HW2 2223   2.533   0.041   2.514 -1.0843  0.4580 -2.2956
  742SOL     OW 2224   2.252   1.407   0.173  0.3073  0.3453 -0.2965
  742SOL    HW1 2225   2.174   1.474   0.201  2.3827  1.3137  1.8301
  742SOL    HW2 2226   2.234   1.304   0.196  0.1529 -0.8559  0.8832
  743SOL     OW 2227   1.806   0.650   2.592 -0.2428 -0.3633 -0.0572
  743SOL    HW1 2228   1.780   0.582   2.517 -0.6026 -3.1379  0.9388
  743SOL    HW2 2229   1.751   0.740   2.584  1.4274 -1.1681 -0.0464
  744SOL     OW 2230   2.694   2.146   0.064 -0.1426 -0.0587 -0.4187
  744SOL    HW1 2231   2.594   2.187   0.083 -2.2098  3.4083 -0.2239
  744SOL    HW2 2232   2.692   2.049   0.026  2.6565 -1.9062 -0.6085
  745SOL     OW 2233   2.144   2.674   2.275 -0.1406  0.1730 -0.3033
  745SOL    HW1 2234   2.059   2.680   2.222  1.8557  1.2063 -2.6826
  745SOL    HW2 2235   2.169   2.759   2.328 -1.3759  2.0970 -1.4132
  746SOL     OW 2236   3.095   2.608   1.798 -0.0911 -0.2122  0.6885
  746SOL    HW1 2237   3.180   2.614   1.740  1.2631  1.5759  0.8434
  746SOL    HW2 2238   3.055   2.701   1.824  1.7580  0.6343  1.2051
  747SOL     OW 2239   0.031   1.771   1.618  0.1589  0.2467  0.3209
  747SOL    HW1 2240  -0.034   1.694   1.594 -0.4397 -1.0244  2.6284
  747SOL    HW2 2241   0.105   1.784   1.543 -2.3031 -1.9748 -1.7401
  748SOL     OW 2242   1.853   2.773   2.832 -0.6348  0.3572  0.4266
  748SOL    HW1 2243   1.862   2.816   2.926  2.4649 -0.9774 -1.1533
  748SOL    HW2 2244   1.756   2.738   2.823  0.4801  0.0973 -0.1700
  749SOL     OW 2245   1.331   3.084   0.890  0.0990  0.4365 -0.3220
  749SOL    HW1 2246   1.252   3.029   0.925 -1.5505 -0.2148  0.8832
  749SOL    HW2 2247   1.316   3.113   0.793  3.8203 -1.3466 -0.4692
  750SOL     OW 2248   2.354   0.232   1.867 -0.6445 -0.0695 -0.3114
  750SOL    HW1 2249   2.371   0.305   1.796 -3.7523  0.3967 -0.6334
  750SOL    HW2 2250   2.359   0.274   1.966  3.9005 -1.3373  3.4214
  751SOL     OW 2251   0.938   2.184   2.720 -0.1684  0.4481  0.1573
  751SOL    HW1 2252   0.941   2.210   2.821 -0.9346 -0.2073  0.5645
  751SOL    HW2 2253   0.853   2.127   2.692 -1.7204  0.5386 -1.4367
  752SOL     OW 2254   1.263   0.860   1.512  0.5443 -0.1092 -0.1778
  752SOL    HW1 2255   1.325   0.916   1.452  1.0720 -1.7856  0.9005
  752SOL    HW2 2256   1.302   0.765   1.513  0.2382  1.6318  2.4955
  753SOL     OW 2257   0.958   2.588   1.703 -0.0562 -0.2699 -0.2714
  753SOL    HW1 2258   1.041   2.649   1.695 -3.1830 -1.3783 -3.8240
  753SOL    HW2 2259   0.870   2.645   1.686  1.4077  4.2443 -2.0412
  754SOL     OW 2260   1.221   1.323   3.083  0.3091  0.3734 -0.5914
  754SOL    HW1 2261   1.278   1.246   3.035 -0.1182 -1.1576 -2.6251
  754SOL    HW2 2262   1.211   1.414   3.031 -0.7569 -0.1125  1.2580
  755SOL     OW 2263   1.944   0.425   2.202 -0.1857  0.0492 -0.3388
  755SOL    HW1 2264   2.034   0.414   2.258  0.1956  0.1957 -1.6610
  755SOL    HW2 2265   1.859   0.455   2.257 -2.8014 -1.0709 -0.5272
  756SOL     OW 2266   2.607   0.951   2.930  0.2048 -0.1607  0.0015
  756SOL    HW1 2267   2.710   0.958   2.927  1.0735 -0.1641  1.0532
  756SOL    HW2 2268   2.580   0.861   2.965  1.5618  4.3015 -0.1322
  757SOL     OW 2269   3.054   0.460   1.790  0.3764 -0.5746  0.0134
  757SOL    HW1 2270   3.101   0.517   1.718 -0.2696  1.9629  0.1373
  757SOL    HW2 2271   3.113   0.385   1.835  1.9591  1.1532 -1.3478
  758SOL     OW 2272   2.384   0.091   1.433  0.2872 -0.0191  0.4965
  758SOL    HW1 2273   2.355  -0.004   1.475  1.4229 -3.3132 -3.1660
  758SOL    HW2 2274   2.386   0.090   1.328  1.5886 -0.8698  0.6226
  759SOL     OW 2275   1.693   0.038   0.086 -0.2280  0.4454  0.1981
  759SOL    HW1 2276   1.649   0.034  -0.011 -0.2522  0.6642  1.6313
  759SOL    HW2 2277   1.794   0.060   0.087  1.0880 -3.0041  0.8754
  760SOL     OW 2278   2.741   2.081   2.820 -0.0354 -0.1081  0.3620
  760SOL    HW1 2279   2.834   2.035   2.828 -2.0401  0.9402 -2.4806
  760SOL    HW2 2280   2.729   2.154   2.895 -1.4132  0.4166  0.4495
  761SOL     OW 2281   1.953   1.735   1.649 -0.5653 -0.1774 -0.8596
  761SOL    HW1 2282   1.978   1.635   1.659  0.1040  0.2853  0.4025
  761SOL    HW2 2283   1.873   1.750   1.589  0.1540 -1.4383  1.0828
  762SOL     OW 2284   0.469   2.341   0.986  0.3142  0.4207  0.2819
  762SOL    HW1 2285   0.508   2.369   0.898 -1.6337  0.1502  1.5889
  762SOL    HW2 2286   0.489   2.413   1.056 -0.0298 -0.3072  1.7082
  763SOL     OW 2287   2.096   1.525   2.983 -0.1731 -0.3141  0.4256
  763SOL    HW1 2288   2.161   1.444   2.993  1.5261 -0.8551 -0.2289
  763SOL    HW2 2289   2.000   1.511   3.026 -1.8488 -3.3904  2.0687
  764SOL     OW 2290   0.679   0.600   0.870  0.7149 -0.0542  0.4140
  764SOL    HW1 2291   0.659   0.561   0.776 -1.7674 -0.2187 -0.1941
  764SOL    HW2 2292   0.782   0.593   0.893  1.2444  1.6545 -0.7225
  765SOL     OW 2293   0.695   0.215   0.853 -0.0640  0.1058 -0.1166
  765SOL    HW1 2294   0.714   0.296   0.796  0.1089  2.6576  3.1570
  765SOL    HW2 2295   0.662   0.239   0.949 -0.1083 -0.6835 -0.5650
  766SOL     OW 2296   2.955   2.096   3.093 -0.0694  0.1456 -0.2346
  766SOL    HW1 2297   2.877   2.139   3.149  0.2222  2.2417  4.3473
  766SOL    HW2 2298   3.014   2.171   3.054  0.5377 -1.3717  1.8466
  767SOL     OW 2299   2.881   1.568   0.529  0.6760  0.1053 -0.4389
  767SOL    HW1 2300   2.798   1.572   0.591  1.1939 -4.2075 -2.1545
  767SOL    HW2 2301   2.959   1.630   0.556  0.1927  4.6265 -0.1882
  768SOL     OW 2302   1.095   0.221   0.342  0.1623 -0.4542 -0.3467
  768SOL    HW1 2303   1.006   0.173   0.381  0.8115  0.1357 -0.8237
  768SOL    HW2 2304   1.168   0.152   0.317  0.5469  1.7041 -0.5624
  769SOL     OW 2305   1.110   1.880   2.256 -0.0411 -0.5867 -0.2649
  769SOL    HW1 2306   1.028   1.885   2.322 -1.6367 -0.2723  1.2261
  769SOL    HW2 2307   1.127   1.774   2.249 -0.1157 -0.0728  0.7214
  770SOL     OW 2308   0.140   1.298   2.261  0.5156  0.6191  0.6638
  770SOL    HW1 2309   0.128   1.300   2.363 -0.0678 -0.0681 -0.9684
  770SOL    HW2 2310   0.074   1.229   2.216 -0.6780 -1.3805 -0.7373
  771SOL     OW 2311   2.960   2.835   1.870  0.8229 -0.5468 -0.2087
  771SOL    HW1 2312   2.895   2.866   1.791 -3.4860 -0.1641 -0.1693
  771SOL    HW2 2313   2.964   2.901   1.946  0.0651 -0.2665 -0.5523
  772SOL     OW 2314   2.178   0.117   2.974  0.0395  0.2196 -0.1673
  772SOL    HW1 2315   2.244   0.053   2.921  2.1662 -0.1553 -0.4223
  772SOL    HW2 2316   2.210   0.214   2.985  0.3768 -0.4251 -0.0936
  773SOL     OW 2317   0.726   2.096   2.523 -0.4942 -0.6472  0.2173
  773SOL    HW1 2318   0.699   2.139   2.432 -1.8765 -3.5132  0.7084
  773SOL    HW2 2319   0.644   2.092   2.590 -0.7018  0.0634  1.6055
  774SOL     OW 2320   2.040   0.017   2.660  0.0730 -0.1067 -0.5026
  774SOL    HW1 2321   2.060   0.103   2.717  0.6423  0.2388  0.1618
  774SOL    HW2 2322   2.086  -0.060   2.704 -1.5140  3.2276  2.9260
  775SOL     OW 2323   2.518   2.829   2.496  0.0153  0.4914 -0.1126
  775SOL    HW1 2324   2.478   2.910   2.439  1.7648  4.0125  2.2554
  775SOL    HW2 2325   2.622   2.819   2.488  2.3158  1.0570 -2.1104
  776SOL     OW 2326   0.045   1.244   0.251 -0.5596 -0.0796  0.2746
  776SOL    HW1 2327   0.005   1.240   0.157  3.0619 -1.2752  0.8054
  776SOL    HW2 2328  -0.020   1.247   0.334  0.9666 -0.1660  2.9512
  777SOL     OW 2329   0.236   2.738   0.485 -0.0214 -0.7967  0.0672
  777SOL    HW1 2330   0.144   2.755   0.439 -2.2271 -0.4336  2.5862
  777SOL    HW2 2331   0.292   2.827   0.489 -0.7229  0.8247  1.9041
  778SOL     OW 2332   1.355   1.993   0.172 -0.2444  0.2928  0.2437
  778SOL    HW1 2333   1.314   1.999   0.268 -1.7714  0.8713  0.0079
  778SOL    HW2 2334   1.347   2.081   0.120  1.2165  0.8695  1.4518
  779SOL     OW 2335   0.185   0.786   0.509 -0.5078 -0.3661  0.1053
  779SOL    HW1 2336   0.131   0.698   0.496  0.8632 -0.1254  1.5529
  779SOL    HW2 2337   0.150   0.851   0.587  0.8677  1.1148  0.1422
  780SOL     OW 2338   0.040   0.287   2.298 -0.0003  0.7156  0.2114
  780SOL    HW1 2339   0.009   0.386   2.305 -1.5087  0.2216  1.6518
  780SOL    HW2 2340   0.137   0.267   2.268 -0.1292  0.8919  1.5640
  781SOL     OW 2341   0.652   1.718   1.559 -0.2771  0.1781 -0.1070
  781SOL    HW1 2342   0.675   1.725   1.662 -0.6844  0.9460 -0.8315
  781SOL    HW2 2343   0.544   1.719   1.545 -2.8181 -0.6081  1.8037
  782SOL     OW 2344   2.593   0.149   0.883 -0.6440  0.0017  0.0698
  782SOL    HW1 2345   2.514   0.158   0.812  0.6958  0.4766 -1.2694
  782SOL    HW2 2346   2.579   0.213   0.962 -0.1023 -0.2191  1.3300
  783SOL     OW 2347   2.821   0.666   2.534 -0.1115 -0.1207 -0.3841
  783SOL    HW1 2348   2.792   0.655   2.636 -0.2044  0.4302 -1.3338
  783SOL    HW2 2349   2.765   0.612   2.464  0.7177  3.8124 -0.3213
  784SOL     OW 2350   1.361   2.249   0.052 -0.3151  0.3685  0.3375
  784SOL    HW1 2351   1.449   2.283   0.100  1.0252 -0.8827  0.4452
  784SOL    HW2 2352   1.374   2.208  -0.046 -0.8131  2.6310 -1.7104
  785SOL     OW 2353   2.196   0.374   3.061 -0.1351 -0.1535 -0.2445
  785SOL    HW1 2354   2.118   0.359   3.127  1.0279 -0.0069  0.7996
  785SOL    HW2 2355   2.214   0.474   3.056 -0.7231  1.3834  1.1194
  786SOL     OW 2356   2.048   2.128   2.204  0.0677 -0.0696  0.5271
  786SOL    HW1 2357   2.002   2.033   2.208  0.7018 -0.8958 -0.2025
  786SOL    HW2 2358   2.142   2.132   2.249 -2.0835 -1.8226 -2.2383
  787SOL     OW 2359   1.398   0.605   0.876 -0.1719 -0.1800  0.1610
  787SOL    HW1 2360   1.332   0.678   0.911 -1.2222  0.3919 -1.6104
  787SOL    HW2 2361   1.386   0.587   0.773  3.1214 -1.0774 -1.1886
  788SOL     OW 2362   1.219   0.402   3.036 -0.1013 -0.5460  0.0601
  788SOL    HW1 2363   1.129   0.448   3.002  3.0157  2.3382  0.9983
  788SOL    HW2 2364   1.304   0.464   3.021  0.8494  0.4018 -4.1837
  789SOL     OW 2365   2.596   0.083   1.786 -0.7137  0.4747 -0.2394
  789SOL    HW1 2366   2.510   0.139   1.794  2.5428 -1.9936 -0.8513
  789SOL    HW2 2367   2.587  -0.020   1.787  0.8869 -1.2603 -1.8204
  790SOL     OW 2368   2.539   2.681   0.845 -0.5020 -0.2849 -0.2079
  790SOL    HW1 2369   2.613   2.760   0.838 -1.9407 -1.4934 -2.9788
  790SOL    HW2 2370   2.546   2.621   0.929  1.5579  0.9373  0.3468
  791SOL     OW 2371   1.935   1.268   0.249  0.2201 -0.2889 -0.4305
  791SOL    HW1 2372   1.853   1.215   0.289 -0.2577  3.0832  0.2034
  791SOL    HW2 2373   2.021   1.211   0.244  0.5100  2.1487  2.1213
  792SOL     OW 2374   0.447   2.021   2.157 -0.1542  0.1684  0.7268
  792SOL    HW1 2375   0.502   2.086   2.217 -1.3223 -1.8813  2.7299
  792SOL    HW2 2376   0.385   1.960   2.207 -0.4478  1.2502 -0.7440
  793SOL     OW 2377   2.096   1.555   2.089  0.7614  0.3503  0.0599
  793SOL    HW1 2378   2.164   1.625   2.061  0.1030 -0.5390  2.7779
  793SOL    HW2 2379   2.108   1.470   2.036  0.6596  0.9378 -2.1563
  794SOL     OW 2380   0.470   1.374   2.472 -0.2301  0.0765 -0.0743
  794SOL    HW1 2381   0.460   1.317   2.389 -0.6855  1.3563  1.8984
  794SOL    HW2 2382   0.415   1.459   2.467  1.2174 -0.3147  0.9703
  795SOL     OW 2383   2.481   2.356   1.801  0.4875 -0.8046  0.1152
  795SOL    HW1 2384   2.463   2.375   1.901 -0.9947  3.5887  2.6578
  795SOL    HW2 2385   2.417   2.281   1.761 -0.9035 -1.1442  0.0801
  796SOL     OW 2386   3.098   1.064   2.700 -0.2342 -0.4698  0.4809
  796SOL    HW1 2387   3.005   1.055   2.745  0.5877  1.4526 -4.0938
  796SOL    HW2 2388   3.166   1.090   2.775 -1.6207  0.6449 -1.8272
  797SOL     OW 2389   0.775   0.665   1.338  0.1345 -0.0819  0.6527
  797SOL    HW1 2390   0.836   0.711   1.409 -0.3610 -0.0213 -2.5225
  797SOL    HW2 2391   0.710   0.730   1.283  0.3384  0.1840  1.3108
  798SOL     OW 2392   1.320   0.428   1.064 -0.7477 -0.0734  0.1445
  798SOL    HW1 2393   1.328   0.474   1.159 -0.6011  0.3662  1.1473
  798SOL    HW2 2394   1.372   0.484   0.998 -0.0378 -1.3321  0.0372
  799SOL     OW 2395   1.929   2.705   1.032 -0.5078  0.5941 -0.0248
  799SOL    HW1 2396   1.889   2.621   1.083  0.1763 -0.3409 -0.8630
  799SOL    HW2 2397   1.958   2.682   0.932 -1.3897 -2.2460 -3.2715
  800SOL     OW 2398   2.937   0.821   1.867  0.4627 -0.2246  0.2626
  800SOL    HW1 2399   2.994   0.907   1.864 -0.5543  1.0097 -2.4966
  800SOL    HW2 2400   2.840   0.834   1.897  1.6059  0.8553  0.6566
  801SOL     OW 2401   1.972   2.139   0.050  0.2273 -0.2620  0.0559
  801SOL    HW1 2402   1.902   2.152  -0.029  0.6369 -1.6773 -2.1664
  801SOL    HW2 2403   2.065   2.122   0.018 -1.9531 -0.1673  0.8862
  802SOL     OW 2404   0.705   0.730   2.511  0.2338 -0.6803 -0.4152
  802SOL    HW1 2405   0.765   0.727   2.429 -0.8558  2.0728 -1.0954
  802SOL    HW2 2406   0.607   0.743   2.485  1.7591  0.8248  0.8088
  803SOL     OW 2407   0.967   0.085   0.895 -0.0050 -0.2554  0.0150
  803SOL    HW1 2408   1.032   0.156   0.935  0.6535 -0.4722  1.8222
  803SOL    HW2 2409   0.889   0.127   0.840 -0.1785 -0.9767 -2.6022
  804SOL     OW 2410   0.288   3.054   2.184 -0.0676  0.4044 -0.5531
  804SOL    HW1 2411   0.279   3.152   2.217 -1.2239 -1.5883  0.3439
  804SOL    HW2 2412   0.254   3.040   2.086  0.4115  2.8667 -0.1987
  805SOL     OW 2413   2.336   0.420   0.329 -0.1063  0.1531 -0.5612
  805SOL    HW1 2414   2.403   0.393   0.408 -0.7072 -3.4846  1.1268
  805SOL    HW2 2415   2.352   0.368   0.245 -0.5821 -0.4883 -0.1937
  806SOL     OW 2416   0.665   2.481   1.793 -0.9446  0.3758 -0.0648
  806SOL    HW1 2417   0.613   2.564   1.822  0.3145 -0.0246 -1.1677
  806SOL    HW2 2418   0.725   2.502   1.712 -1.3026  0.9016 -0.0014
  807SOL     OW 2419   2.501   0.937   0.434 -0.6347  0.5141  0.1367
  807SOL    HW1 2420   2.576   0.866   0.446  0.1652 -1.6097 -3.9851
  807SOL    HW2 2421   2.486   0.968   0.336  4.0378  0.7472  2.7301
  808SOL     OW 2422   0.642   2.037   2.889 -0.1991 -0.9207 -0.4051
  808SOL    HW1 2423   0.606   2.066   2.982 -2.5564 -0.8216  0.0197
  808SOL    HW2 2424   0.665   1.939   2.892 -1.0574 -1.4405 -0.7126
  809SOL     OW 2425   2.560   1.989   1.859 -0.3739  0.1845  0.6931
  809SOL    HW1 2426   2.654   2.038   1.864  3.4367  0.8126  0.7402
  809SOL    HW2 2427   2.537   1.967   1.758  1.1790  1.2969 -0.5752
  810SOL     OW 2428   2.170   1.104   0.502 -0.5881 -0.3303  0.0706
  810SOL    HW1 2429   2.191   1.031   0.574  0.4414 -1.4985  0.0943
  810SOL    HW2 2430   2.164   1.200   0.544  1.7061  3.1449  2.8647
  811SOL     OW 2431   1.389   2.550   1.196 -0.3866  0.1767  0.2227
  811SOL    HW1 2432   1.380   2.448   1.195 -1.0853  1.0515 -2.7411
  811SOL    HW2 2433   1.337   2.601   1.270  1.3515  2.5917 -0.0609
  812SOL     OW 2434   1.406   0.772   1.977 -0.0923  0.2505 -0.4690
  812SOL    HW1 2435   1.337   0.746   1.903 -1.2799 -0.6789 -0.2602
  812SOL    HW2 2436   1.434   0.875   1.969  1.5879  3.1238  1.4979
  813SOL     OW 2437   1.602   2.068   2.433 -0.4841  0.2102 -0.0791
  813SOL    HW1 2438   1.640   1.991   2.488 -0.5268  0.6627  0.1597
  813SOL    HW2 2439   1.598   2.045   2.330  0.6773 -0.8437 -0.0919
  814SOL     OW 2440   3.001   1.606   2.861  0.0900  0.1516  0.5740
  814SOL    HW1 2441   3.078   1.562   2.903 -2.1780  1.0368  1.1700
  814SOL    HW2 2442   2.998   1.707   2.882 -0.4191  0.1975  1.3418
  815SOL     OW 2443   2.200   2.894   2.760  0.4428 -0.1150  0.4645
  815SOL    HW1 2444   2.179   2.808   2.816  0.9616 -1.2449  1.0445
  815SOL    HW2 2445   2.283   2.944   2.789 -0.4692  0.9974  1.1150
  816SOL     OW 2446   1.584   0.349   1.671 -0.6984  0.3829  0.0109
  816SOL    HW1 2447   1.643   0.261   1.683 -0.4099 -2.4934 -0.1039
  816SOL    HW2 2448   1.540   0.378   1.762  0.0954 -1.1914 -0.1302
  817SOL     OW 2449   0.390   1.174   2.665 -0.3276 -0.0136 -0.2312
  817SOL    HW1 2450   0.305   1.193   2.719 -1.0744 -1.4166  0.6354
  817SOL    HW2 2451   0.417   1.244   2.592  0.5041  0.1470 -0.0273
  818SOL     OW 2452   1.954   0.821   0.437  0.7934 -0.1248 -0.0654
  818SOL    HW1 2453   2.058   0.837   0.436  1.2378 -1.9736 -0.7659
  818SOL    HW2 2454   1.911   0.873   0.514  0.1931 -2.4270  1.1741
  819SOL     OW 2455   2.749   2.964   3.075 -0.6291  0.1400 -0.8298
  819SOL    HW1 2456   2.754   2.887   3.142  0.5967  3.7447  0.5304
  819SOL    HW2 2457   2.712   2.933   2.985  0.4731  0.1764 -0.3595
  820SOL     OW 2458   1.246   1.039   0.514  0.0709 -0.5740 -0.0777
  820SOL    HW1 2459   1.251   1.140   0.539  2.4678 -1.4134 -0.0323
  820SOL    HW2 2460   1.233   0.977   0.593 -1.1987  1.3765 -1.5328
  821SOL     OW 2461   0.041   1.254   0.722 -0.3584 -0.2389 -0.0301
  821SOL    HW1 2462  -0.004   1.234   0.815 -2.0263 -1.5633  2.2872
  821SOL    HW2 2463   0.115   1.334   0.719  0.4898  0.1142  0.8877
  822SOL     OW 2464   2.529   1.804   2.466 -0.4717 -0.0304  0.1122
  822SOL    HW1 2465   2.535   1.887   2.529 -0.2675  0.9163  0.5881
  822SOL    HW2 2466   2.466   1.819   2.386  0.6900  0.3564  0.0331
  823SOL     OW 2467   2.012   0.883   1.139 -0.3308  0.0900  0.3961
  823SOL    HW1 2468   1.980   0.870   1.237  0.7827  0.1124 -0.7116
  823SOL    HW2 2469   1.932   0.895   1.074 -1.4760  1.4562 -2.5728
  824SOL     OW 2470   0.211   1.988   2.796  0.2689  0.0641 -0.1410
  824SOL    HW1 2471   0.226   1.922   2.873 -3.0145  3.1553  0.1256
  824SOL    HW2 2472   0.272   1.963   2.715 -0.2225  1.7571  1.5985
  825SOL     OW 2473   1.315   1.041   0.262  0.0292  0.1934  0.4801
  825SOL    HW1 2474   1.343   1.137   0.241  0.8175  1.8852 -0.3117
  825SOL    HW2 2475   1.290   1.036   0.363  2.0376  1.1504 -1.9219
  826SOL     OW 2476   1.924   0.628   1.594  0.2366 -0.3028  0.2655
  826SOL    HW1 2477   2.020   0.591   1.618  2.1557  1.8301  1.4637
  826SOL    HW2 2478   1.865   0.558   1.542  1.8275 -2.4756 -0.6634
  827SOL     OW 2479   0.646   1.228   0.299  0.3310  0.1793  0.0882
  827SOL    HW1 2480   0.733   1.189   0.257  0.7352  1.6393  0.1156
  827SOL    HW2 2481   0.600   1.160   0.370  0.8301 -0.2769  1.2320
  828SOL     OW 2482   2.660   0.112   1.526 -0.0269  0.2262  0.0897
  828SOL    HW1 2483   2.562   0.121   1.481 -1.5246 -0.9546 -2.9025
  828SOL    HW2 2484   2.651   0.088   1.626 -0.1065 -1.2458 -1.0001
  829SOL     OW 2485   2.953   2.373   2.826  0.2332  0.4335 -0.1302
  829SOL    HW1 2486   2.855   2.353   2.861  0.2067 -1.3748  0.5075
  829SOL    HW2 2487   2.979   2.475   2.811  0.7820  0.2474  1.2561
  830SOL     OW 2488   2.883   0.965   3.057  0.0887 -0.5467  0.1192
  830SOL    HW1 2489   2.958   1.038   3.063  0.5642 -1.9211 -1.6086
  830SOL    HW2 2490   2.883   0.907   3.142  1.5634  0.8805 -2.1372
  831SOL     OW 2491   0.040   0.551   0.429 -0.4898 -0.3080 -0.3533
  831SOL    HW1 2492   0.003   0.470   0.480 -2.3548  2.1470  0.9920
  831SOL    HW2 2493   0.091   0.520   0.343 -0.5539 -0.1870  0.9321
  832SOL     OW 2494   1.835   0.773   3.044  0.4510 -0.2486  0.1851
  832SOL    HW1 2495   1.760   0.813   2.981 -1.1877 -1.1374  0.7212
  832SOL    HW2 2496   1.847   0.671   3.048 -1.1546 -0.0103 -0.0750
  833SOL     OW 2497   2.422   2.057   0.463  0.0633 -0.3296 -0.1430
  833SOL    HW1 2498   2.320   2.046   0.481  2.2021  0.1128 -0.1970
  833SOL    HW2 2499   2.474   1.972   0.448  3.2522  1.1977 -2.0152
  834SOL     OW 2500   0.149   0.105   0.543  0.3268 -0.0117  0.3473
  834SOL    HW1 2501   0.186   0.019   0.582  1.4973  2.5434 -1.1763
  834SOL    HW2 2502   0.128   0.102   0.442  1.2325  0.7921  0.5857
  835SOL     OW 2503   2.411   1.516   1.162  0.6172 -0.0435  0.2857
  835SOL    HW1 2504   2.473   1.570   1.220 -0.3735  2.2153 -2.8672
  835SOL    HW2 2505   2.452   1.482   1.069  2.0800  0.8021  0.6237
  836SOL     OW 2506   1.619   0.846   2.568 -0.4609 -0.4554 -0.1472
  836SOL    HW1 2507   1.524   0.810   2.588 -0.3190  0.6276  0.5264
  836SOL    HW2 2508   1.626   0.863   2.465  0.0996 -1.7808 -0.9415
  837SOL     OW 2509   1.637   0.047   0.590  0.2188 -0.0251  0.2490
  837SOL    HW1 2510   1.599   0.123   0.648  0.7223  2.1281  0.2863
  837SOL    HW2 2511   1.606   0.056   0.491 -0.0224 -1.5296  1.8635
  838SOL     OW 2512   1.226   1.367   2.757  0.1753 -0.1611 -0.8326
  838SOL    HW1 2513   1.213   1.434   2.833 -1.6709 -1.0869 -0.9943
  838SOL    HW2 2514   1.141   1.354   2.697  0.6742 -1.9566  1.3019
  839SOL     OW 2515   1.610   0.355   1.014 -0.1964  0.6817 -0.2539
  839SOL    HW1 2516   1.634   0.391   1.109  1.6463  0.0503 -0.8128
  839SOL    HW2 2517   1.580   0.257   1.023 -0.0050  2.4913  1.6716
  840SOL     OW 2518   2.569   2.919   1.777  0.5106  0.3773 -0.5200
  840SOL    HW1 2519   2.557   2.875   1.684  2.1384 -1.1040 -1.3278
  840SOL    HW2 2520   2.534   2.851   1.849  0.3000 -0.9229  0.8872
  841SOL     OW 2521   1.564   0.872   2.968 -0.2460 -0.1711  0.1777
  841SOL    HW1 2522   1.525   0.846   3.059 -1.4027  0.5359 -1.7636
  841SOL    HW2 2523   1.525   0.956   2.923 -0.5044 -0.5977 -1.7220
  842SOL     OW 2524   0.798   1.536   0.999 -0.8544  0.1909 -0.4135
  842SOL    HW1 2525   0.747   1.611   1.056  0.1640 -1.9455  0.1318
  842SOL    HW2 2526   0.738   1.491   0.927  0.6283 -0.4145  1.1937
  843SOL     OW 2527   0.125   0.126   1.457 -0.3203  0.4866 -0.5878
  843SOL    HW1 2528   0.188   0.149   1.540  0.6860 -1.2560  2.3944
  843SOL    HW2 2529   0.149   0.035   1.409 -1.2313  0.6487 -2.1888
  844SOL     OW 2530   0.783   2.480   0.261 -0.2800  0.0074 -0.7414
  844SOL    HW1 2531   0.756   2.494   0.365 -0.5918 -2.2796  0.8070
  844SOL    HW2 2532   0.700   2.444   0.206  0.5274 -2.9128  1.2245
  845SOL     OW 2533   1.686   2.932   1.367  0.5806 -0.5961  0.1358
  845SOL    HW1 2534   1.728   2.941   1.465 -1.6437  1.6077  1.4647
  845SOL    HW2 2535   1.645   3.017   1.325 -0.1567 -1.7132 -1.6354
  846SOL     OW 2536   1.698   2.959   0.911  0.1202  0.0197  0.0901
  846SOL    HW1 2537   1.637   2.911   0.843  1.0000 -0.5118  0.7813
  846SOL    HW2 2538   1.800   2.957   0.891  1.1638 -0.4545 -0.2578
  847SOL     OW 2539   2.059   1.626   0.228  0.5252 -0.7031 -0.4049
  847SOL    HW1 2540   1.986   1.604   0.301 -0.5012  0.6422  1.7238
  847SOL    HW2 2541   2.023   1.612   0.134  1.5264 -0.7148  1.9811
  848SOL     OW 2542   2.467   0.827   2.670  0.1745  0.4834  0.0729
  848SOL    HW1 2543   2.469   0.929   2.698  1.3112 -0.6603  1.3902
  848SOL    HW2 2544   2.380   0.800   2.616 -3.2439 -1.4325 -1.6861
  849SOL     OW 2545   2.445   0.845   2.299  0.0420 -0.1427  0.0707
  849SOL    HW1 2546   2.506   0.823   2.222 -1.3846 -1.1595  0.5475
  849SOL    HW2 2547   2.440   0.771   2.372 -1.8009 -2.5859 -0.8243
  850SOL     OW 2548   1.571   0.073   1.279 -0.7061  0.7099 -0.7456
  850SOL    HW1 2549   1.546   0.080   1.179  2.9544 -1.9016 -0.3043
  850SOL    HW2 2550   1.494   0.046   1.337  0.5757  3.7303 -0.6073
  851SOL     OW 2551   0.459   1.722   0.684  0.0452 -0.0383 -0.3659
  851SOL    HW1 2552   0.517   1.807   0.698 -0.3634  1.2755 -1.3654
  851SOL    HW2 2553   0.509   1.636   0.722  3.2382 -0.1378  0.6723
  852SOL     OW 2554   0.809   2.122   1.657  0.4388 -0.1154  0.2246
  852SOL    HW1 2555   0.833   2.214   1.610 -0.5868 -2.0490 -1.1595
  852SOL    HW2 2556   0.735   2.140   1.731 -2.0448  2.2491  2.4114
  853SOL     OW 2557   2.530   1.563   2.596  0.4929 -0.0620 -0.2641
  853SOL    HW1 2558   2.523   1.471   2.541  2.5314 -1.7958 -2.2422
  853SOL    HW2 2559   2.528   1.650   2.541  1.9098 -0.6038 -0.6003
  854SOL     OW 2560   2.476   1.408   1.786 -0.6747  0.3005  0.0556
  854SOL    HW1 2561   2.536   1.381   1.706 -0.9220 -0.4922 -1.3985
  854SOL    HW2 2562   2.457   1.325   1.842 -2.1741 -0.1843 -2.7454
  855SOL     OW 2563   2.066   2.334   0.942 -0.4554 -0.1934 -0.2476
  855SOL    HW1 2564   2.102   2.423   0.893  0.7717  0.7756 -0.7381
  855SOL    HW2 2565   2.118   2.310   1.029  1.0227  0.8194  0.6492
  856SOL     OW 2566   1.393   1.378   0.917  0.1209 -0.1596  0.2223
  856SOL    HW1 2567   1.449   1.464   0.916  0.3301 -0.2312 -1.9536
  856SOL    HW2 2568   1.337   1.381   1.004  3.9609  1.2511 -1.4146
  857SOL     OW 2569   2.982   2.609   1.085 -0.1822  0.6836 -0.3691
  857SOL    HW1 2570   2.890   2.561   1.084 -1.3935 -2.0465  0.9490
  857SOL    HW2 2571   3.055   2.545   1.059 -0.1931  1.5326  1.2576
  858SOL     OW 2572   2.313   2.170   1.698  0.2023 -0.0443 -0.3170
  858SOL    HW1 2573   2.209   2.188   1.685  0.0596  1.6003 -0.2719
  858SOL    HW2 2574   2.356   2.089   1.654  0.8642  0.3308  0.1417
  859SOL     OW 2575   2.443   0.496   1.063  0.2565  0.0695 -0.0824
  859SOL    HW1 2576   2.506   0.554   1.006  1.2122 -2.6728  1.0038
  859SOL    HW2 2577   2.480   0.410   1.100 -1.4705 -2.9692  1.2612
  860SOL     OW 2578   1.930   2.776   0.452  0.1436  0.0244  0.7061
  860SOL    HW1 2579   1.913   2.697   0.392  0.3421  0.8296  0.5665
  860SOL    HW2 2580   2.017   2.831   0.428  2.9778 -2.0833 -1.9313
  861SOL     OW 2581   1.116   2.599   2.775 -0.4551 -0.3114 -0.5338
  861SOL    HW1 2582   1.148   2.687   2.737  2.4787  0.1822  0.0929
  861SOL    HW2 2583   1.140   2.582   2.873 -1.0883  1.0999  0.2606
  862SOL     OW 2584   2.907   2.507   1.609  0.2316  0.0542 -0.1433
  862SOL    HW1 2585   2.983   2.516   1.684 -0.8396  0.9216  0.5504
  862SOL    HW2 2586   2.884   2.603   1.565  3.0774  4.8675 -2.3844
  863SOL     OW 2587   1.871   2.637   0.210  0.2773 -0.4873  0.0257
  863SOL    HW1 2588   1.913   2.538   0.208 -1.9280  0.4069 -2.1787
  863SOL    HW2 2589   1.767   2.641   0.201 -0.6699 -0.9516 -0.7951
  864SOL     OW 2590   1.847   1.171   2.920  0.4539  0.3006 -0.1194
  864SOL    HW1 2591   1.887   1.120   2.840  1.1183 -3.4367  0.1633
  864SOL    HW2 2592   1.923   1.202   2.982  0.1028 -0.2789 -2.5008
  865SOL     OW 2593   2.205   1.815   0.688 -0.3444 -0.9587  0.1674
  865SOL    HW1 2594   2.276   1.786   0.756 -1.7965 -1.0360 -0.4674
  865SOL    HW2 2595   2.114   1.792   0.725  3.6212  1.5321  1.9005
  866SOL     OW 2596   2.934   2.907   0.985  0.4767 -0.3390  0.4624
  866SOL    HW1 2597   2.987   2.924   0.897 -0.8457  0.0385 -0.3153
  866SOL    HW2 2598   2.943   2.808   1.014  1.2568  1.4357 -0.6017
  867SOL     OW 2599   0.390   1.345   0.889  0.5780 -0.1916 -0.4352
  867SOL    HW1 2600   0.416   1.254   0.847  0.5193  0.3198  1.5370
  867SOL    HW2 2601   0.326   1.403   0.827  0.2284 -1.9612 -2.2876
  868SOL     OW 2602   0.791   1.923   2.021  0.3652  0.1034 -0.7611
  868SOL    HW1 2603   0.759   1.915   2.119  1.0936  1.6268  0.5870
  868SOL    HW2 2604   0.760   2.007   1.974  3.4595 -2.4822  1.1754
  869SOL     OW 2605   2.480   1.938   1.588 -0.1439  0.6534 -0.2281
  869SOL    HW1 2606   2.569   1.987   1.561  1.0418 -0.6676 -0.7875
  869SOL    HW2 2607   2.464   1.852   1.535 -1.5790  0.6837 -1.2610
  870SOL     OW 2608   2.266   2.601   1.242 -0.2961  0.3590 -0.4368
  870SOL    HW1 2609   2.223   2.509   1.222  0.1263  0.5941  1.8485
  870SOL    HW2 2610   2.262   2.627   1.346  1.5672 -0.6997 -0.7603
  871SOL     OW 2611   2.990   2.089   0.567  0.0776 -0.2588 -0.1322
  871SOL    HW1 2612   2.932   2.163   0.604 -1.4116 -2.7422 -3.1024
  871SOL    HW2 2613   2.939   2.020   0.505 -1.5387 -1.8003  3.7856
  872SOL     OW 2614   2.138   0.487   1.701  0.2009  0.2277 -0.1166
  872SOL    HW1 2615   2.105   0.440   1.788  1.0105 -1.1541 -0.0334
  872SOL    HW2 2616   2.230   0.447   1.673 -0.9982 -0.6953 -0.3767
  873SOL     OW 2617   1.715   2.086   2.958 -0.0780 -0.1900 -0.0644
  873SOL    HW1 2618   1.672   2.166   3.001 -1.0161 -0.3916 -2.6028
  873SOL    HW2 2619   1.658   2.054   2.877 -0.6606 -0.8841 -0.0164
  874SOL     OW 2620   0.645   2.454   0.778  1.0280 -0.4403 -0.3205
  874SOL    HW1 2621   0.593   2.534   0.817 -0.2815  0.4522 -0.7161
  874SOL    HW2 2622   0.747   2.452   0.805 -0.9683  0.3942 -1.1067
  875SOL     OW 2623   2.253   1.514   1.446  0.0461  1.2047  0.2296
  875SOL    HW1 2624   2.351   1.521   1.481 -1.5372 -0.5687  1.1282
  875SOL    HW2 2625   2.240   1.549   1.353 -1.4828 -0.1020  0.8085
  876SOL     OW 2626   0.130   2.232   2.684  0.4967 -0.3479 -0.5494
  876SOL    HW1 2627   0.143   2.145   2.737 -0.5352  0.7315 -1.9059
  876SOL    HW2 2628   0.153   2.310   2.747  0.5653  0.2674  1.4095
  877SOL     OW 2629   2.788   2.671   0.655 -0.4688  0.1263  0.2203
  877SOL    HW1 2630   2.829   2.760   0.676 -0.5817 -2.6551 -0.2701
  877SOL    HW2 2631   2.851   2.589   0.669  0.0802 -3.6063 -0.0145
  878SOL     OW 2632   2.868   1.496   2.231  0.2348 -1.0535  0.7307
  878SOL    HW1 2633   2.971   1.507   2.212 -0.8643 -0.5364  0.9416
  878SOL    HW2 2634   2.849   1.523   2.331  1.9448 -1.5102  1.3251
  879SOL     OW 2635   2.390   0.040   1.170  0.0955  0.1420  0.5457
  879SOL    HW1 2636   2.440  -0.052   1.187  0.4660 -2.8325 -1.0926
  879SOL    HW2 2637   2.311   0.022   1.101 -1.1186 -0.2826 -0.4381
  880SOL     OW 2638   0.700   0.470   2.210 -0.1777 -0.3836 -0.2240
  880SOL    HW1 2639   0.622   0.417   2.260 -0.4192 -0.9913  2.2871
  880SOL    HW2 2640   0.762   0.401   2.150  0.3314 -1.0347  0.0598
  881SOL     OW 2641   0.894   0.049   0.458 -0.6504  0.0499 -0.9791
  881SOL    HW1 2642   0.914  -0.050   0.492  0.5869 -1.7248  0.8514
  881SOL    HW2 2643   0.836   0.060   0.373  0.0232 -0.8715  1.2692
  882SOL     OW 2644   2.690   1.615   1.679  0.0493  0.1660  0.5384
  882SOL    HW1 2645   2.785   1.590   1.654  1.7485 -0.9363  0.8866
  882SOL    HW2 2646   2.688   1.653   1.777  0.1107 -1.2976 -0.9847
  883SOL     OW 2647   0.939   0.587   0.943  0.0727  0.0100  0.5079
  883SOL    HW1 2648   0.930   0.686   0.983 -0.8949  0.0571 -0.1417
  883SOL    HW2 2649   0.987   0.525   1.007  1.5380  3.0854 -1.2010
  884SOL     OW 2650   1.188   1.829   1.080 -0.0464  0.1757  0.0158
  884SOL    HW1 2651   1.183   1.754   1.002 -0.2418  1.8194 -1.7521
  884SOL    HW2 2652   1.134   1.918   1.059 -2.6412 -0.7690  0.7659
  885SOL     OW 2653   2.313   1.848   2.283  0.0160 -0.1895  0.1098
  885SOL    HW1 2654   2.242   1.793   2.340  1.2629  2.8067  0.1107
  885SOL    HW2 2655   2.323   1.948   2.314 -0.2122 -0.1930 -1.8272
  886SOL     OW 2656   2.644   0.465   1.774  0.0664  0.0792 -0.2786
  886SOL    HW1 2657   2.691   0.400   1.839  1.3063  0.7953  1.6974
  886SOL    HW2 2658   2.709   0.546   1.748  1.9205  0.9200  1.2024
  887SOL     OW 2659   0.132   2.062   1.223 -0.3781 -0.4791  0.1689
  887SOL    HW1 2660   0.061   2.044   1.152  0.9001  1.3224  2.8307
  887SOL    HW2 2661   0.159   2.164   1.232 -0.0422 -0.1690  1.1119
  888SOL     OW 2662   0.554   1.338   1.549 -0.1016 -0.5039  0.3307
  888SOL    HW1 2663   0.608   1.367   1.463  0.3001 -0.5055 -2.4634
  888SOL    HW2 2664   0.519   1.241   1.535 -2.8009  0.1239 -0.0322
  889SOL     OW 2665   0.825   2.485   2.160  0.2391 -0.5387 -0.4294
  889SOL    HW1 2666   0.765   2.402   2.147  2.0814  1.9799 -0.2534
  889SOL    HW2 2667   0.885   2.515   2.082 -2.1010 -1.0889  1.1045
  890SOL     OW 2668   2.363   2.462   0.195 -0.1826 -0.0213  0.0933
  890SOL    HW1 2669   2.335   2.517   0.113  0.6500 -0.1893  1.8779
  890SOL    HW2 2670   2.315   2.500   0.280  2.6990  1.8456  0.3173
  891SOL     OW 2671   2.645   1.530   0.679 -0.2719 -0.2699 -0.5577
  891SOL    HW1 2672   2.689   1.476   0.757 -2.9434  0.0581  0.9012
  891SOL    HW2 2673   2.540   1.533   0.692  1.3605  0.0523 -0.3568
  892SOL     OW 2674   0.277   0.220   2.191 -0.4993  0.2957  0.3496
  892SOL    HW1 2675   0.284   0.229   2.089  0.6012 -1.5151  0.6186
  892SOL    HW2 2676   0.359   0.266   2.238  1.4351 -1.1909 -0.6874
  893SOL     OW 2677   1.643   0.237   2.773  0.4531  0.2491 -0.1365
  893SOL    HW1 2678   1.728   0.298   2.781 -0.2196  0.2220 -0.3652
  893SOL    HW2 2679   1.553   0.283   2.797  1.1074 -2.1140 -0.1293
  894SOL     OW 2680   2.263   2.021   0.032 -0.6009 -0.2273  0.0042
  894SOL    HW1 2681   2.208   1.975  -0.040  2.0715  0.1149  2.6983
  894SOL    HW2 2682   2.255   1.962   0.120 -1.1242  0.5756  3.0437
  895SOL     OW 2683   2.853   1.444   0.865 -0.2135 -0.6342 -0.0613
  895SOL    HW1 2684   2.890   1.384   0.943 -0.1245  0.3258 -1.1394
  895SOL    HW2 2685   2.926   1.488   0.807  0.7972  1.9440  1.2326
  896SOL     OW 2686   1.781   1.789   1.151 -0.8290 -0.2421  0.1766
  896SOL    HW1 2687   1.851   1.821   1.079  0.0215  0.9311  0.6422
  896SOL    HW2 2688   1.717   1.867   1.175  1.9068  0.0196 -0.0749
  897SOL     OW 2689   0.270   0.553   3.036 -0.0573  0.0033 -0.0153
  897SOL    HW1 2690   0.235   0.637   2.986  2.0846  0.7835 -0.0142
  897SOL    HW2 2691   0.371   0.569   3.066  1.1995  4.2318 -1.4876
  898SOL     OW 2692   0.593   2.827   1.113 -0.3122  0.1967  0.2614
  898SOL    HW1 2693   0.547   2.921   1.107 -0.5308 -1.0462 -1.0014
  898SOL    HW2 2694   0.693   2.828   1.137 -2.6137 -1.1150  0.6555
  899SOL     OW 2695   2.741   0.928   1.233 -0.0841  0.6884  0.3615
  899SOL    HW1 2696   2.669   0.882   1.179 -0.3995  1.2729 -1.5875
  899SOL    HW2 2697   2.826   0.931   1.174  1.1882 -1.1128 -0.4386
  900SOL     OW 2698   0.977   2.575   2.368  0.0803 -0.4220  0.6019
  900SOL    HW1 2699   0.906   2.535   2.296 -0.3209 -2.4288 -1.0861
  900SOL    HW2 2700   0.981   2.519   2.454  1.0011 -1.4270  0.2840
  901SOL     OW 2701   1.893   2.379   1.382  0.5979  0.6002 -0.1437
  901SOL    HW1 2702   1.857   2.396   1.283 -0.3239  1.5524  1.4563
  901SOL    HW2 2703   1.995   2.350   1.388  0.1307  2.1847  1.9599
  902SOL     OW 2704   2.588   1.653   1.425  0.6145 -0.2841 -0.1322
  902SOL    HW1 2705   2.604   1.631   1.529 -0.8264  0.7026  0.7179
  902SOL    HW2 2706   2.664   1.610   1.367  0.5922 -1.3423 -1.8883
  903SOL     OW 2707   0.245   2.468   1.996  0.2362 -0.1659  0.2296
  903SOL    HW1 2708   0.165   2.411   1.959  0.6599 -0.6583 -1.0623
  903SOL    HW2 2709   0.279   2.530   1.918  0.4883  0.7059 -2.3055
  904SOL     OW 2710   2.013   0.726   2.379 -0.4712  0.4449  0.1040
  904SOL    HW1 2711   1.966   0.682   2.457 -2.6015  0.2059 -1.9014
  904SOL    HW2 2712   1.954   0.729   2.292 -1.3991  2.4183 -0.9900
  905SOL     OW 2713   2.814   0.078   2.588  0.1181  0.2837 -0.4630
  905SOL    HW1 2714   2.885   0.003   2.584 -0.1137 -0.0520  3.4737
  905SOL    HW2 2715   2.849   0.167   2.548 -0.6857 -0.9787  1.0389
  906SOL     OW 2716   0.153   1.756   1.871  0.0520  0.0958 -0.7111
  906SOL    HW1 2717   0.104   1.763   1.780  2.8070  0.4188 -0.0923
  906SOL    HW2 2718   0.248   1.797   1.870  0.1142  0.3906 -0.0018
  907SOL     OW 2719   0.145   2.481   1.007  0.5232 -0.1892  0.1241
  907SOL    HW1 2720   0.236   2.529   1.029  2.6965  1.3176 -1.0143
  907SOL    HW2 2721   0.146   2.463   0.903 -0.8032  3.1744 -3.1708
  908SOL     OW 2722   2.707   2.962   0.450 -0.0224  0.3600  0.3130
  908SOL    HW1 2723   2.690   3.003   0.359 -0.9715 -0.4518  1.3908
  908SOL    HW2 2724   2.730   2.862   0.434 -0.3174  1.3992 -2.3889
  909SOL     OW 2725   0.786   0.952   2.695  0.1258 -0.1746 -0.1874
  909SOL    HW1 2726   0.742   0.868   2.649  2.4950 -3.3702  1.3214
  909SOL    HW2 2727   0.875   0.982   2.647  0.7378  0.4287  1.0639
  910SOL     OW 2728   1.761   1.835   2.096  0.4706 -0.3471 -0.6195
  910SOL    HW1 2729   1.834   1.865   2.030 -0.1124 -1.2374 -0.1495
  910SOL    HW2 2730   1.698   1.912   2.120  2.0191 -0.9952 -0.7699
  911SOL     OW 2731   1.795   2.961   1.620 -0.5250  0.6444  0.0146
  911SOL    HW1 2732   1.877   2.913   1.571  0.4875  0.2474 -1.9190
  911SOL    HW2 2733   1.776   2.929   1.718 -1.2531 -0.4363 -1.0421
  912SOL     OW 2734   2.888   0.968   0.771 -0.4473  0.1473  0.4308
  912SOL    HW1 2735   2.911   0.959   0.874 -0.6448 -1.2810  1.6387
  912SOL    HW2 2736   2.845   1.060   0.746  0.5173  0.0467 -1.0246
  913SOL     OW 2737   2.570   1.271   1.564 -0.2540 -0.2638  0.1958
  913SOL    HW1 2738   2.565   1.167   1.545 -1.0056  1.4204 -0.9500
  913SOL    HW2 2739   2.618   1.315   1.483  1.8101  0.5915 -0.7106
  914SOL     OW 2740   2.800   0.524   1.195  0.0491 -0.1701  0.5513
  914SOL    HW1 2741   2.800   0.423   1.230 -0.6505  0.5645  0.3962
  914SOL    HW2 2742   2.732   0.592   1.241 -1.1062  2.2674  0.4871
  915SOL     OW 2743   1.252   0.800   1.000 -0.3922  0.2423 -0.4217
  915SOL    HW1 2744   1.305   0.854   1.070 -1.2228  2.4292  1.4508
  915SOL    HW2 2745   1.154   0.782   1.026 -0.3924  0.6202  1.0782
  916SOL     OW 2746   0.602   0.020   0.676 -0.1196 -0.4977  0.1377
  916SOL    HW1 2747   0.635   0.093   0.744  1.0104 -0.8020  1.5693
  916SOL    HW2 2748   0.598   0.051   0.575  1.8520 -1.5627 -1.7058
  917SOL     OW 2749   2.812   2.600   1.988 -0.0479 -0.2247  0.1565
  917SOL    HW1 2750   2.713   2.642   1.988  0.8379 -0.0729 -0.4762
  917SOL    HW2 2751   2.874   2.645   1.919  1.4174 -1.2111  2.8667
  918SOL     OW 2752   1.033   2.217   3.007 -0.4864  0.1447 -0.0084
  918SOL    HW1 2753   1.005   2.233   3.108  1.3565  0.2845  0.3007
  918SOL    HW2 2754   1.068   2.121   2.987  1.8475 -0.2214  2.5183
  919SOL     OW 2755   0.905   1.607   2.814  0.6007  0.0144 -0.2006
  919SOL    HW1 2756   0.937   1.674   2.738 -0.4868 -0.7484 -1.8667
  919SOL    HW2 2757   0.837   1.537   2.776 -2.6053 -0.1727  2.1157
  920SOL     OW 2758   1.280   1.979   2.480  0.2773  0.7110  0.3148
  920SOL    HW1 2759   1.220   1.996   2.399 -0.8278 -0.7217  0.5619
  920SOL    HW2 2760   1.291   1.876   2.494  1.4875 -1.5606  2.5938
  921SOL     OW 2761   1.104   0.064   2.595 -0.2002 -0.0501 -0.3755
  921SOL    HW1 2762   1.080   0.098   2.498 -1.3111  1.3189 -3.0701
  921SOL    HW2 2763   1.033  -0.002   2.636  2.2626 -2.9154 -2.1002
  922SOL     OW 2764   2.142   2.397   2.888  0.0185 -0.4981 -0.6875
  922SOL    HW1 2765   2.132   2.292   2.894  1.7073 -0.0824 -1.3202
  922SOL    HW2 2766   2.100   2.432   2.794 -0.8823 -2.2429 -1.5076
  923SOL     OW 2767   1.242   2.689   0.259  0.7333  0.2546 -0.0750
  923SOL    HW1 2768   1.313   2.725   0.327  1.1703 -2.0749 -1.3012
  923SOL    HW2 2769   1.251   2.586   0.246 -1.2770 -1.3986  1.7188
  924SOL     OW 2770   2.872   1.564   0.091  0.7471  0.4521  0.1083
  924SOL    HW1 2771   2.773   1.554   0.049 -0.3777 -1.6780 -0.3402
  924SOL    HW2 2772   2.941   1.524   0.023  0.1318  0.0410  1.4919
  925SOL     OW 2773   3.096   2.915   1.524 -0.0698 -0.2737  0.6084
  925SOL    HW1 2774   3.009   2.928   1.575 -1.6582  0.2087  0.2383
  925SOL    HW2 2775   3.083   2.853   1.441  0.8838  0.7861  0.2325
  926SOL     OW 2776   1.351   2.831   1.304 -0.2855  0.0582  0.0770
  926SOL    HW1 2777   1.395   2.839   1.208 -0.2741  0.2906  1.9776
  926SOL    HW2 2778   1.364   2.917   1.362  0.2064  0.0256 -1.2722
  927SOL     OW 2779   0.285   2.643   1.798 -0.3982 -0.3366 -0.0931
  927SOL    HW1 2780   0.270   2.571   1.727  1.2515  0.0720  0.4767
  927SOL    HW2 2781   0.252   2.741   1.772 -0.4194  0.6021  2.7718
  928SOL     OW 2782   1.568   2.027   2.152 -0.1300  0.4662 -0.7057
  928SOL    HW1 2783   1.611   2.115   2.131  2.5248 -2.9296 -1.3688
  928SOL    HW2 2784   1.470   2.015   2.123  1.4453 -0.0414  1.2605
  929SOL     OW 2785   2.422   2.481   2.862 -0.1673  0.3902 -0.2953
  929SOL    HW1 2786   2.331   2.429   2.857 -0.8458 -1.1925  1.0119
  929SOL    HW2 2787   2.462   2.502   2.767 -2.0541 -0.5588  1.9781
  930SOL     OW 2788   2.172   1.998   1.062 -0.3047  0.4544 -0.3281
  930SOL    HW1 2789   2.153   1.957   1.155 -1.5463  2.6784  1.7067
  930SOL    HW2 2790   2.248   2.067   1.074 -1.2118  0.9225  1.9432
  931SOL     OW 2791   0.540   1.708   2.688  0.0870  0.2277 -0.5907
  931SOL    HW1 2792   0.589   1.746   2.769  1.0378 -2.5405  2.4845
  931SOL    HW2 2793   0.563   1.611   2.668 -2.9083 -2.6841 -0.5491
  932SOL     OW 2794   0.447   0.038   2.915  0.6992  0.2261  0.2034
  932SOL    HW1 2795   0.544   0.080   2.901 -0.3275  0.0940  0.9701
  932SOL    HW2 2796   0.458  -0.046   2.970 -0.8396  1.3836 -0.8081
  933SOL     OW 2797   1.068   0.749   2.999 -0.0265  0.7778 -0.1779
  933SOL    HW1 2798   1.132   0.814   3.052 -1.1277  2.9196 -0.5650
  933SOL    HW2 2799   0.991   0.804   2.955 -0.1627 -0.0836  0.5606
  934SOL     OW 2800   0.888   3.007   2.697  0.0381  0.5086  0.8385
  934SOL    HW1 2801   0.886   2.935   2.618  0.2832  2.1419 -1.2588
  934SOL    HW2 2802   0.929   2.974   2.790  1.6013 -0.5949  2.1643
  935SOL     OW 2803   3.098   0.552   0.806  0.3638 -0.3873 -0.4425
  935SOL    HW1 2804   3.098   0.466   0.751 -1.6320  0.5471  1.9089
  935SOL    HW2 2805   3.004   0.591   0.816 -2.4706 -1.0379  0.4070
  936SOL     OW 2806   1.115   2.915   0.143  0.1327 -0.1883  0.1408
  936SOL    HW1 2807   1.173   2.934   0.060  0.7800  2.9866 -1.3303
  936SOL    HW2 2808   1.152   2.827   0.194 -0.9632 -1.3089 -0.2133
  937SOL     OW 2809   1.924   2.648   2.099 -0.6504 -0.6515  0.2908
  937SOL    HW1 2810   1.847   2.685   2.163  1.1049 -0.2394  2.1326
  937SOL    HW2 2811   1.907   2.640   1.999 -0.0794  1.0427 -0.3461
  938SOL     OW 2812   2.720   2.078   1.570  0.0706  0.3824  0.6760
  938SOL    HW1 2813   2.693   2.181   1.580  1.0329 -0.8414  3.1042
  938SOL    HW2 2814   2.817   2.064   1.606 -0.4405  1.1899  0.2115
  939SOL     OW 2815   2.860   1.233   2.466 -0.1088  0.3869 -0.0614
  939SOL    HW1 2816   2.929   1.209   2.391  1.1083  0.1089  0.0475
  939SOL    HW2 2817   2.869   1.171   2.551 -2.2041  0.6918  2.0005
  940SOL     OW 2818   0.992   0.450   2.694 -0.1387 -0.1578 -0.0405
  940SOL    HW1 2819   1.045   0.372   2.735  3.8339  1.3961 -0.9470
  940SOL    HW2 2820   0.890   0.442   2.690 -1.1611  2.0046 -2.4345
  941SOL     OW 2821   0.051   2.853   2.202 -0.3094  1.1190 -0.3788
  941SOL    HW1 2822   0.066   2.743   2.203 -0.2511 -3.2455  2.2407
  941SOL    HW2 2823   0.100   2.897   2.283 -1.3790 -2.3838  0.8876
  942SOL     OW 2824   0.042   0.130   2.531 -0.0916  0.0628  0.4885
  942SOL    HW1 2825   0.110   0.139   2.609  1.2101 -0.7673  0.3253
  942SOL    HW2 2826   0.057   0.201   2.460  0.4713 -0.4273  0.6027
  943SOL     OW 2827   2.126   1.650   2.408 -0.2822  0.5015  0.8177
  943SOL    HW1 2828   2.141   1.605   2.313 -0.3342 -0.9604  0.2514
  943SOL    HW2 2829   2.116   1.586   2.493 -0.7932 -1.5096  4.2428
  944SOL     OW 2830   2.173   2.320   1.460  0.3441 -0.0006  0.3447
  944SOL    HW1 2831   2.234   2.389   1.508  2.0054  1.0727  0.1026
  944SOL    HW2 2832   2.116   2.259   1.523 -0.5128  0.0391 -0.7199
  945SOL     OW 2833   0.648   1.504   0.354 -0.3313 -0.4441  0.8003
  945SOL    HW1 2834   0.705   1.560   0.290  0.2464  3.0213  1.2313
  945SOL    HW2 2835   0.630   1.412   0.312  0.6181 -1.0152 -1.6322
  946SOL     OW 2836   0.437   0.938   2.544  0.0848  0.2178 -0.3007
  946SOL    HW1 2837   0.367   0.902   2.477 -1.1646 -0.9460 -0.0266
  946SOL    HW2 2838   0.418   1.033   2.576  3.2311 -2.6157  1.8701
  947SOL     OW 2839   1.539   0.567   0.059 -0.0196  0.2813 -0.3459
  947SOL    HW1 2840   1.528   0.553  -0.047  2.2106  0.6872 -0.8235
  947SOL    HW2 2841   1.454   0.612   0.096 -3.0369  2.2890 -3.2633
  948SOL     OW 2842   2.028   3.061   2.179  0.3754  0.0685  0.6965
  948SOL    HW1 2843   2.003   3.015   2.086  1.5168 -0.4486  1.3717
  948SOL    HW2 2844   2.003   3.004   2.262 -0.4604 -1.3721 -1.3005
  949SOL     OW 2845   0.662   2.517   0.504  0.5848  0.5321 -0.1773
  949SOL    HW1 2846   0.629   2.619   0.497  0.7030 -0.9504 -0.1947
  949SOL    HW2 2847   0.676   2.478   0.601  1.5550  3.4177 -1.9333
  950SOL     OW 2848   0.221   2.141   3.050  0.1925 -0.3387 -0.2290
  950SOL    HW1 2849   0.152   2.220   3.065  0.8336  0.6945  1.4474
  950SOL    HW2 2850   0.236   2.104   2.955 -0.1134 -1.4444 -1.1806
  951SOL     OW 2851   1.196   2.856   2.682 -0.0006  0.5062  0.4711
  951SOL    HW1 2852   1.177   2.948   2.641  0.2071 -1.5730  2.7630
  951SOL    HW2 2853   1.272   2.862   2.748  1.6153  0.0151 -1.9845
  952SOL     OW 2854   0.111   1.637   0.437 -0.2229  0.2737 -0.4026
  952SOL    HW1 2855   0.162   1.723   0.457  0.4651 -4.1316  2.9609
  952SOL    HW2 2856   0.099   1.575   0.521  0.6072  0.3597  2.8844
  953SOL     OW 2857   2.488   1.780   0.172  0.3152 -0.1061 -0.4448
  953SOL    HW1 2858   2.477   1.688   0.212 -0.6119  0.1093 -3.9308
  953SOL    HW2 2859   2.569   1.784   0.103  2.4366  2.8436 -2.0635
  954SOL     OW 2860   2.179   0.530   0.987 -0.3398  0.0255  0.1842
  954SOL    HW1 2861   2.157   0.541   0.889 -0.2406 -1.3233  2.1606
  954SOL    HW2 2862   2.277   0.502   1.006  1.1752 -0.1626 -0.3287
  955SOL     OW 2863   0.250   2.657   1.376  0.2982  0.6717  0.1814
  955SOL    HW1 2864   0.146   2.666   1.372 -1.4207 -0.5636 -0.9635
  955SOL    HW2 2865   0.293   2.660   1.284  0.5028 -0.9872  2.9697
  956SOL     OW 2866   2.775   2.435   2.430 -0.2996 -0.5653  0.1574
  956SOL    HW1 2867   2.788   2.329   2.420 -1.8813  0.8994  0.1083
  956SOL    HW2 2868   2.804   2.490   2.350  0.7228  0.7556  1.9335
  957SOL     OW 2869   1.538   2.036   2.754  0.3352  0.2501  0.3405
  957SOL    HW1 2870   1.511   1.932   2.752 -1.1567 -2.8485  0.8722
  957SOL    HW2 2871   1.544   2.082   2.659 -1.5073  1.3886 -0.2024
  958SOL     OW 2872   2.724   2.315   2.949  0.6633 -0.2787 -0.1908
  958SOL    HW1 2873   2.636   2.366   2.930 -1.3737 -0.4811  0.7689
  958SOL    HW2 2874   2.709   2.252   3.035 -0.7658 -1.6975  0.8543
  959SOL     OW 2875   0.252   2.755   0.117 -0.3156 -0.2518  0.3977
  959SOL    HW1 2876   0.151   2.747   0.098  0.5133  2.7732  0.9963
  959SOL    HW2 2877   0.285   2.680   0.187 -0.1226 -1.5749 -1.2356
  960SOL     OW 2878   1.993   0.419   1.927 -0.0348 -0.2535 -0.0725
  960SOL    HW1 2879   1.954   0.510   1.902  0.9045 -0.3036  1.8119
  960SOL    HW2 2880   1.991   0.409   2.033 -1.5948  0.3285  2.1183
  961SOL     OW 2881   2.546   1.834   1.031 -0.2137 -0.3042  0.4477
  961SOL    HW1 2882   2.529   1.929   0.989  0.7064 -0.2027 -1.8291
  961SOL    HW2 2883   2.509   1.829   1.128 -0.2757 -1.2031  1.5713
  962SOL     OW 2884   1.252   0.905   0.046 -0.0797  0.1846 -0.2898
  962SOL    HW1 2885   1.277   0.964  -0.038  1.0766 -0.1272 -1.7702
  962SOL    HW2 2886   1.275   0.955   0.137  0.5794  0.7852 -0.1211
  963SOL     OW 2887   2.195   2.560   1.837  0.1548 -0.3946 -0.1264
  963SOL    HW1 2888   2.210   2.476   1.894 -2.7509  2.9246  0.3557
  963SOL    HW2 2889   2.219   2.645   1.896 -0.0040 -0.9764 -0.2121
  964SOL     OW 2890   2.405   0.405   1.673 -0.0644  0.2032  0.7310
  964SOL    HW1 2891   2.498   0.431   1.706  0.4002 -0.1774 -2.4443
  964SOL    HW2 2892   2.402   0.395   1.571 -0.5937  3.9423  2.8647
  965SOL     OW 2893   2.589   3.089   0.217  0.1778 -0.2305  0.5677
  965SOL    HW1 2894   2.652   3.082   0.133  1.8307 -1.7972 -3.5426
  965SOL    HW2 2895   2.489   3.075   0.201  0.4229 -0.6624  0.1701
  966SOL     OW 2896   2.466   2.463   2.254  0.3444 -0.1034  0.5530
  966SOL    HW1 2897   2.382   2.453   2.318 -1.6110 -2.9571  0.9518
  966SOL    HW2 2898   2.497   2.561   2.241 -2.1257 -0.9180  2.1182
  967SOL     OW 2899   2.804   2.803   2.427  0.1214 -0.5188 -0.0447
  967SOL    HW1 2900   2.843   2.745   2.346  1.9909 -0.6592  0.7664
  967SOL    HW2 2901   2.866   2.874   2.468 -1.7189  0.1996  1.7586
  968SOL     OW 2902   1.924   1.094   2.669 -0.3508 -0.0260  0.4347
  968SOL    HW1 2903   1.910   1.140   2.578 -0.3163  1.9956  0.8399
  968SOL    HW2 2904   1.913   0.997   2.667  0.6146  0.6152 -0.7851
  969SOL     OW 2905   2.752   2.457   1.074 -0.1813  0.2318  0.1781
  969SOL    HW1 2906   2.673   2.444   1.006 -0.6569 -0.3621  1.0417
  969SOL    HW2 2907   2.785   2.372   1.123 -1.6863  1.6130 -0.2480
  970SOL     OW 2908   1.059   2.138   1.800 -0.1514  0.0432 -0.0423
  970SOL    HW1 2909   0.988   2.130   1.724 -1.2901 -1.1289 -0.8672
  970SOL    HW2 2910   1.021   2.183   1.889 -1.4754  0.7357 -1.5273
  971SOL     OW 2911   2.815   2.095   1.868 -0.3242 -0.0685 -0.2947
  971SOL    HW1 2912   2.856   2.184   1.905 -0.4013  0.5077  2.6844
  971SOL    HW2 2913   2.868   2.048   1.793 -0.7210 -0.3553 -2.3937
  972SOL     OW 2914   1.973   2.393   0.207  0.8919 -1.2718 -0.0410
  972SOL    HW1 2915   1.954   2.312   0.145 -0.6418  0.7336  1.0493
  972SOL    HW2 2916   1.989   2.366   0.307  1.1619  1.7039  0.1199
  973SOL     OW 2917   1.319   1.067   1.924  0.3497  0.0868  0.7131
  973SOL    HW1 2918   1.245   1.033   1.853 -1.0679 -0.4175  2.4975
  973SOL    HW2 2919   1.289   1.153   1.974  0.7730 -0.8459  0.0292
  974SOL     OW 2920   1.620   0.577   1.971 -0.1769  0.2835  0.1532
  974SOL    HW1 2921   1.701   0.640   1.949  0.0189  0.4758  2.1943
  974SOL    HW2 2922   1.527   0.627   1.970  0.8303 -0.6744  0.1944
  975SOL     OW 2923   2.371   3.009   0.032 -0.0688  0.1606  0.1600
  975SOL    HW1 2924   2.291   2.941   0.046 -1.4953 -1.4531 -0.0052
  975SOL    HW2 2925   2.395   3.018  -0.065 -1.4913 -1.8284  1.1453
  976SOL     OW 2926   1.926   2.899   2.364  0.5174  0.2766 -0.0474
  976SOL    HW1 2927   1.864   2.842   2.311  1.4244 -0.8482  1.4567
  976SOL    HW2 2928   1.938   2.873   2.467 -1.1177  0.5968  1.3509
  977SOL     OW 2929   0.450   0.670   1.021 -0.4670 -0.4506  0.2208
  977SOL    HW1 2930   0.383   0.650   0.943  0.6418  0.1800  0.8619
  977SOL    HW2 2931   0.546   0.637   0.990  2.4338 -2.5782  1.9497
   3.10000   3.10000   3.10000
