1000 SPC/Fw water molecules t=   0.97000 step= 970
 2931
    1SOL     OW    1   2.546   0.310   2.659  0.8152 -0.4391 -0.0792
    1SOL    HW1    2   2.549   0.212   2.632  2.4267  0.5773 -0.5408
    1SOL    HW2    3   2.567   0.318   2.759 -0.4747  1.0039 -1.3646
    2SOL     OW    4   2.697   3.043   1.429  0.2893 -0.0285 -0.2636
    2SOL    HW1    5   2.779   3.062   1.370 -2.7918 -0.4371 -0.6101
    2SOL    HW2    6   2.665   3.130   1.475 -2.6126  0.4722 -1.0095
    3SOL     OW    7   2.686   2.620   0.444 -0.0021  0.4530  0.5113
    3SOL    HW1    8   2.642   2.525   0.438 -1.5495  0.7187 -1.7299
    3SOL    HW2    9   2.768   2.619   0.508  2.2668 -1.7783  2.0743
    4SOL     OW   10   1.241   1.544   2.310 -0.4050 -0.0464  0.3013
    4SOL    HW1   11   1.163   1.584   2.261  0.2074  0.0122  0.2818
    4SOL    HW2   12   1.232   1.446   2.338  0.0406  1.4971 -2.5908
    5SOL     OW   13   1.163   1.487   3.070 -0.0292 -0.0702 -0.0436
    5SOL    HW1   14   1.227   1.565   3.106  0.8354 -0.0792  0.8104
    5SOL    HW2   15   1.076   1.483   3.124  1.0721 -1.9114  0.5038
    6SOL     OW   16   0.138   1.776   2.968  0.0006 -0.1057  0.2648
    6SOL    HW1   17   0.044   1.790   2.996  1.3348 -3.4164  1.8445
    6SOL    HW2   18   0.192   1.735   3.049 -0.1480 -1.4212  3.2061
    7SOL     OW   19   2.603   0.908   1.093 -0.4168 -0.3096 -0.3889
    7SOL    HW1   20   2.517   0.874   1.138 -1.4764  0.2560 -0.2918
    7SOL    HW2   21   2.585   0.938   0.996 -0.1182  0.7878 -2.4382
    8SOL     OW   22   0.383   0.654   1.555  0.4471  0.3923 -0.7675
    8SOL    HW1   23   0.466   0.590   1.570  0.3235 -2.3407 -0.9006
    8SOL    HW2   24   0.346   0.653   1.460 -2.1020  0.8952 -0.0988
    9SOL     OW   25   1.192   0.899   2.411 -0.1276  0.1913 -0.2531
    9SOL    HW1   26   1.222   0.953   2.330  0.6753  1.5469 -1.2066
    9SOL    HW2   27   1.146   0.813   2.390  0.3891 -1.2779  1.2761
   10SOL     OW   28   0.665   1.358   1.275 -0.1343  0.1588  0.2269
   10SOL    HW1   29   0.568   1.383   1.234  1.8215 -0.2035 -1.8571
   10SOL    HW2   30   0.716   1.447   1.298  0.3809  1.0053  0.5569
   11SOL     OW   31   2.323   2.775   0.839 -0.1938  0.9026 -0.1676
   11SOL    HW1   32   2.262   2.799   0.920  1.1341 -0.2905 -1.2988
   11SOL    HW2   33   2.423   2.779   0.870 -1.3450  1.2952  0.7023
   12SOL     OW   34   1.495   0.888   0.331  0.3220 -0.1267 -0.2420
   12SOL    HW1   35   1.423   0.961   0.328 -0.3004 -0.5501  3.0473
   12SOL    HW2   36   1.498   0.832   0.246 -0.9134  1.1317 -0.2915
   13SOL     OW   37   2.499   0.714   1.772  0.1456  0.5761 -0.4460
   13SOL    HW1   38   2.408   0.671   1.810 -0.0432  0.5985  1.2629
   13SOL    HW2   39   2.526   0.682   1.676  1.0331 -0.9425 -1.9428
   14SOL     OW   40   1.887   0.109   0.684  0.3125  0.3349 -0.2230
   14SOL    HW1   41   1.803   0.107   0.624 -1.1072 -1.8063  2.2979
   14SOL    HW2   42   1.878   0.031   0.754  2.1956  0.0041 -2.6980
   15SOL     OW   43   1.987   2.091   2.720 -0.5711  0.3544  0.0943
   15SOL    HW1   44   1.930   2.160   2.771 -1.1086 -1.6702 -1.7449
   15SOL    HW2   45   1.933   2.010   2.688 -0.7505  1.5845 -2.8531
   16SOL     OW   46   1.610   1.717   2.980  0.2065 -0.7935  0.1447
   16SOL    HW1   47   1.614   1.616   2.997  3.5195  1.5026 -2.6800
   16SOL    HW2   48   1.702   1.765   2.994 -1.7770  1.6317  0.1250
   17SOL     OW   49   0.115   0.498   0.194 -0.2704 -0.2732 -0.8278
   17SOL    HW1   50   0.211   0.533   0.167  2.0444  0.2876 -0.1235
   17SOL    HW2   51   0.041   0.517   0.121  1.1030 -3.5057 -0.6732
   18SOL     OW   52   0.961   2.888   2.147  0.4565  0.0440  0.1482
   18SOL    HW1   53   0.863   2.861   2.123 -1.1034  0.0222  0.4123
   18SOL    HW2   54   1.024   2.876   2.071 -4.8194 -0.7317  0.0177
   19SOL     OW   55   0.545   0.824   1.900  0.9180  0.1701 -0.1044
   19SOL    HW1   56   0.558   0.750   1.967 -3.8838  3.6536  0.0618
   19SOL    HW2   57   0.630   0.875   1.867 -0.1287  2.2957  0.9976
   20SOL     OW   58   0.185   2.699   0.818 -0.0720  0.2619  0.2652
   20SOL    HW1   59   0.116   2.772   0.791 -1.4269 -0.3131  0.8824
   20SOL    HW2   60   0.224   2.650   0.734 -1.3299  0.4723 -1.8451
   21SOL     OW   61   2.685   0.246   2.050  0.8669  0.1865 -0.1615
   21SOL    HW1   62   2.643   0.185   1.974  1.6231 -0.3342  0.6270
   21SOL    HW2   63   2.771   0.210   2.086 -2.0936  2.1925 -0.5653
   22SOL     OW   64   2.367   0.258   0.164 -0.4829  0.7296 -0.2036
   22SOL    HW1   65   2.361   0.160   0.205 -0.0361 -1.8369  0.9077
   22SOL    HW2   66   2.277   0.292   0.123  0.5930  0.1243 -0.1851
   23SOL     OW   67   2.792   0.618   0.631  0.0048 -0.7848 -0.2540
   23SOL    HW1   68   2.785   0.516   0.662  1.2782  1.5586 -0.3245
   23SOL    HW2   69   2.749   0.634   0.535 -3.1302 -2.3967  0.5698
   24SOL     OW   70   0.216   1.914   0.386 -0.1725 -0.2298  0.1891
   24SOL    HW1   71   0.171   1.990   0.323 -1.2066  2.6532 -1.7974
   24SOL    HW2   72   0.313   1.885   0.354 -1.5188 -1.2030  1.2373
   25SOL     OW   73   2.224   0.619   0.241  0.4242 -0.1027 -0.0303
   25SOL    HW1   74   2.233   0.615   0.135 -0.1136  0.5204 -1.4183
   25SOL    HW2   75   2.217   0.525   0.294  0.5391  0.8594 -0.2497
   26SOL     OW   76   2.503   2.121   2.074  0.0151  0.3947 -0.0153
   26SOL    HW1   77   2.567   2.192   2.113 -1.1480 -0.5334 -1.0891
   26SOL    HW2   78   2.546   2.042   2.019 -2.0216  1.2128  2.8382
   27SOL     OW   79   0.597   2.932   0.194 -0.7663 -0.7422 -0.1159
   27SOL    HW1   80   0.702   2.941   0.194  0.9579 -0.5078  2.3715
   27SOL    HW2   81   0.549   2.975   0.112 -0.8303  0.9201  1.0622
   28SOL     OW   82   1.585   0.200   0.290 -0.6031  0.4360 -0.0475
   28SOL    HW1   83   1.614   0.165   0.197  0.5470  0.7697  0.1836
   28SOL    HW2   84   1.614   0.301   0.313  1.6585  0.5799  1.0109
   29SOL     OW   85   1.979   0.643   0.385 -0.0617 -0.1100 -0.3358
   29SOL    HW1   86   1.962   0.719   0.455 -1.4765 -0.9595  1.1054
   29SOL    HW2   87   2.077   0.639   0.349  0.5017 -1.3109 -2.4719
   30SOL     OW   88   0.154   1.974   0.883  0.1357 -0.0175  0.1178
   30SOL    HW1   89   0.098   1.947   0.802  0.3144  1.0949  2.1797
   30SOL    HW2   90   0.099   2.030   0.953 -0.2253  1.1168 -2.0627
   31SOL     OW   91   2.109   3.085   2.371  0.2527 -0.1591 -0.1950
   31SOL    HW1   92   2.112   3.070   2.473  0.0294  0.7283 -2.1710
   31SOL    HW2   93   2.029   3.045   2.325 -0.0638  0.4467  1.2418
   32SOL     OW   94   2.969   0.037   0.224  0.2119 -0.3380  0.6792
   32SOL    HW1   95   2.974  -0.061   0.203 -1.9450  1.1739  1.5623
   32SOL    HW2   96   3.051   0.091   0.185 -2.2646  1.8627  1.9201
   33SOL     OW   97   0.938   0.298   0.575 -0.1163  0.4242  0.1707
   33SOL    HW1   98   0.920   0.206   0.535 -2.9172  1.3592 -0.5135
   33SOL    HW2   99   1.039   0.321   0.569 -1.1291 -1.1103 -3.1480
   34SOL     OW  100   0.315   2.758   1.098  0.9900  0.2993 -0.3276
   34SOL    HW1  101   0.292   2.690   1.025 -0.4682 -0.4195  1.0031
   34SOL    HW2  102   0.412   2.782   1.100 -3.0816  1.7944 -0.2048
   35SOL     OW  103   0.025   0.075   1.906  0.3472  0.2655 -0.0706
   35SOL    HW1  104   0.065  -0.016   1.926 -0.7816 -0.8464 -0.0367
   35SOL    HW2  105  -0.024   0.079   1.817 -0.0600 -0.4625 -0.6785
   36SOL     OW  106   1.919   1.244   1.707  0.0688  1.5786  0.0657
   36SOL    HW1  107   1.981   1.197   1.635  1.4644  1.2547 -2.2539
   36SOL    HW2  108   1.950   1.342   1.708 -1.5285  0.3862 -2.7564
   37SOL     OW  109   1.168   0.215   0.983 -0.0383  0.5292  0.3097
   37SOL    HW1  110   1.238   0.284   1.019  0.6186  1.4649  0.6275
   37SOL    HW2  111   1.214   0.142   0.921  0.2758 -1.9775  0.9296
   38SOL     OW  112   1.087   2.827   2.494  0.1714  0.7469 -0.2221
   38SOL    HW1  113   1.004   2.770   2.482  1.1870 -0.4937 -1.7041
   38SOL    HW2  114   1.075   2.924   2.449  0.0973  1.0734 -1.1635
   39SOL     OW  115   2.312   1.438   3.059 -0.5174  0.9003  0.7299
   39SOL    HW1  116   2.371   1.351   3.051 -2.4251  1.3840 -0.3557
   39SOL    HW2  117   2.279   1.450   3.157 -1.4147 -1.1405 -1.6241
   40SOL     OW  118   2.020   2.428   2.540 -0.3333  0.1340  0.3136
   40SOL    HW1  119   1.971   2.520   2.536  1.0008  2.2040 -3.3205
   40SOL    HW2  120   1.978   2.363   2.468 -1.2757  0.2204 -1.1302
   41SOL     OW  121   3.047   0.688   2.843 -0.3244  0.3560 -0.1767
   41SOL    HW1  122   3.017   0.778   2.805  0.5537  0.6723 -5.5293
   41SOL    HW2  123   3.019   0.607   2.779  3.0876  0.4238 -4.0174
   42SOL     OW  124   1.789   1.744   0.503 -0.0232  0.7291  0.4336
   42SOL    HW1  125   1.726   1.667   0.516 -1.3636  0.2278  1.8555
   42SOL    HW2  126   1.796   1.781   0.407  1.2320  0.8700 -0.7000
   43SOL     OW  127   0.457   1.665   1.134 -0.4676  0.4540 -0.0530
   43SOL    HW1  128   0.451   1.607   1.214 -1.6172 -0.9389 -1.5978
   43SOL    HW2  129   0.359   1.680   1.091 -1.3717 -0.1584 -0.5707
   44SOL     OW  130   1.745   2.476   3.017 -0.1407 -0.7156  0.0904
   44SOL    HW1  131   1.743   2.581   3.008 -1.6394 -1.6968  1.2806
   44SOL    HW2  132   1.768   2.420   2.932 -2.1216  0.3383  0.1242
   45SOL     OW  133   0.388   1.922   2.622 -0.5212 -0.4968  0.2878
   45SOL    HW1  134   0.334   1.903   2.536  0.3795 -1.6005  1.3557
   45SOL    HW2  135   0.455   1.845   2.651  2.0158 -2.0104 -0.4497
   46SOL     OW  136   1.237   0.665   0.173 -0.0638 -0.5528 -0.4551
   46SOL    HW1  137   1.285   0.749   0.139 -1.7703 -3.0024 -0.0398
   46SOL    HW2  138   1.134   0.681   0.175 -0.9411  2.0846  1.0437
   47SOL     OW  139   0.201   2.508   1.546 -0.5679 -0.0264  0.1446
   47SOL    HW1  140   0.242   2.412   1.573  0.5950  0.3280  0.4822
   47SOL    HW2  141   0.196   2.512   1.442  2.9805 -0.0909  0.3510
   48SOL     OW  142   2.639   0.632   0.125 -0.4517 -0.3503  0.4995
   48SOL    HW1  143   2.597   0.608   0.214 -0.2637  0.7038 -1.6951
   48SOL    HW2  144   2.741   0.656   0.137  2.1406 -2.9498  0.4900
   49SOL     OW  145   0.287   0.794   1.776  0.2103 -0.3504  0.3054
   49SOL    HW1  146   0.378   0.812   1.822  0.3074 -0.9870 -0.2100
   49SOL    HW2  147   0.302   0.737   1.690  0.4351  1.9048 -0.7059
   50SOL     OW  148   1.678   1.136   0.343  0.0624  0.0423 -0.1182
   50SOL    HW1  149   1.641   1.045   0.307 -1.9310  0.6585  1.2089
   50SOL    HW2  150   1.652   1.137   0.446 -0.3798 -3.5291 -0.1950
   51SOL     OW  151   2.872   1.773   0.250  0.2527 -0.0273 -0.2624
   51SOL    HW1  152   2.839   1.707   0.174  2.4640  0.1011  1.6021
   51SOL    HW2  153   2.959   1.740   0.294  1.6091  0.0022 -3.2813
   52SOL     OW  154   0.775   2.031   0.531  0.5784  0.4099 -0.0072
   52SOL    HW1  155   0.677   2.061   0.568  1.1147 -2.7193  0.2505
   52SOL    HW2  156   0.807   1.955   0.591  1.3579  3.5563  0.2214
   53SOL     OW  157   0.189   0.424   1.593  0.0633 -0.1956  0.0932
   53SOL    HW1  158   0.250   0.507   1.603 -1.2095  0.1703  0.0041
   53SOL    HW2  159   0.108   0.431   1.529 -0.5941 -1.7709  0.8671
   54SOL     OW  160   1.787   0.515   3.083 -0.1209 -0.0242  0.3849
   54SOL    HW1  161   1.835   0.481   3.171  2.1693  2.7659  2.1795
   54SOL    HW2  162   1.685   0.493   3.083  2.0161  0.0831 -4.3322
   55SOL     OW  163   0.742   2.870   0.678  0.4446  0.5602  0.0104
   55SOL    HW1  164   0.681   2.956   0.653 -2.0127  0.5337 -1.5971
   55SOL    HW2  165   0.837   2.890   0.720  0.2354  1.8000  2.7983
   56SOL     OW  166   0.575   1.563   0.018  0.0815 -0.3174  0.0882
   56SOL    HW1  167   0.485   1.612   0.008  0.2428  0.3778 -0.0313
   56SOL    HW2  168   0.575   1.465  -0.027 -0.1182  0.5498  0.2148
   57SOL     OW  169   1.753   2.521   2.422  0.1688  0.4956 -0.6287
   57SOL    HW1  170   1.786   2.428   2.406 -2.6971 -1.0778  1.5745
   57SOL    HW2  171   1.665   2.515   2.483  1.1680  1.4233 -1.2647
   58SOL     OW  172   0.678   0.284   1.064  0.1726  0.0882  0.2295
   58SOL    HW1  173   0.591   0.299   1.110  3.8711  0.6098 -0.7522
   58SOL    HW2  174   0.697   0.192   1.032 -1.5450  1.8843 -2.4211
   59SOL     OW  175   0.446   2.392   2.729 -0.3442 -0.9005  0.4933
   59SOL    HW1  176   0.486   2.307   2.689 -1.3208 -0.6658 -4.7283
   59SOL    HW2  177   0.505   2.420   2.809 -0.1983 -1.8185 -1.5704
   60SOL     OW  178   2.301   2.057   2.237  0.2008  0.2053  0.2968
   60SOL    HW1  179   2.372   2.090   2.173 -1.3425  0.7165  3.0982
   60SOL    HW2  180   2.323   2.081   2.334  0.4507 -0.0026 -4.2530
   61SOL     OW  181   1.327   0.659   0.488 -0.0559  0.2490 -0.9711
   61SOL    HW1  182   1.231   0.705   0.491 -2.8602 -1.4363 -2.0075
   61SOL    HW2  183   1.376   0.679   0.400  2.1619  0.2483 -0.7331
   62SOL     OW  184   2.724   1.816   2.932 -0.6373 -0.0354  0.1085
   62SOL    HW1  185   2.711   1.713   2.935 -1.3543  2.0492  0.5205
   62SOL    HW2  186   2.819   1.851   2.920 -1.4094  1.7621  1.4776
   63SOL     OW  187   0.547   0.818   0.193 -0.6970 -0.5950  0.0462
   63SOL    HW1  188   0.593   0.879   0.120  1.6451 -0.7379 -0.8087
   63SOL    HW2  189   0.583   0.831   0.290  0.6440  1.0034  2.0945
   64SOL     OW  190   0.074   0.463   2.459  0.0036 -0.6231  0.5163
   64SOL    HW1  191   0.178   0.472   2.454 -1.9859 -0.3151 -0.0017
   64SOL    HW2  192   0.033   0.498   2.372  2.2910 -1.9859  2.2717
   65SOL     OW  193   0.134   1.524   0.563 -0.2320  0.0160  0.4037
   65SOL    HW1  194   0.200   1.568   0.629 -0.1980 -2.6266 -0.4460
   65SOL    HW2  195   0.177   1.464   0.495 -0.9055  0.7170  2.7915
   66SOL     OW  196   2.552   0.363   0.605 -0.1512  0.1304 -0.3385
   66SOL    HW1  197   2.651   0.333   0.616  1.5121 -0.9449 -0.6721
   66SOL    HW2  198   2.495   0.286   0.644 -1.0328  0.1491  0.5423
   67SOL     OW  199   0.564   2.520   1.420  0.1659 -0.0929  0.0909
   67SOL    HW1  200   0.657   2.474   1.419  1.5680  1.8501  0.3401
   67SOL    HW2  201   0.484   2.458   1.410  1.0613  1.0988  1.8812
   68SOL     OW  202   1.004   1.082   2.472  1.0205  0.5610  0.1020
   68SOL    HW1  203   1.068   1.007   2.434  0.0176 -0.5951  1.4498
   68SOL    HW2  204   0.928   1.113   2.402  0.8285 -2.2065 -0.6126
   69SOL     OW  205   0.719   2.726   2.137  0.2519  0.0659 -0.3888
   69SOL    HW1  206   0.763   2.635   2.130 -1.7511  2.6950  2.0418
   69SOL    HW2  207   0.619   2.725   2.129  0.3916  0.3667 -2.7780
   70SOL     OW  208   0.512   0.266   2.667 -0.6096 -0.9495  0.1947
   70SOL    HW1  209   0.429   0.304   2.709  0.0803 -0.6967  0.7254
   70SOL    HW2  210   0.506   0.162   2.676 -0.4624 -0.9888  1.2160
   71SOL     OW  211   1.108   1.785   0.446 -0.2278  0.1358 -0.4700
   71SOL    HW1  212   1.050   1.713   0.483  0.4290  0.4402 -1.5104
   71SOL    HW2  213   1.071   1.811   0.349  4.0541 -0.3685 -0.2945
   72SOL     OW  214   1.828   0.202   2.151 -0.2315  0.4367 -0.3334
   72SOL    HW1  215   1.908   0.269   2.174 -2.0945 -1.6326 -0.6193
   72SOL    HW2  216   1.855   0.098   2.152 -0.9637 -2.5453  0.6579
   73SOL     OW  217   2.811   2.150   2.406  0.0446  0.5824  0.4513
   73SOL    HW1  218   2.822   2.056   2.358  2.7088 -1.2990 -2.2590
   73SOL    HW2  219   2.861   2.161   2.493 -0.0103  1.7025 -2.8703
   74SOL     OW  220   2.695   2.878   2.131  0.2928 -0.1308  0.5769
   74SOL    HW1  221   2.668   2.879   2.231  4.3960 -1.5052 -2.1356
   74SOL    HW2  222   2.783   2.935   2.115 -0.1905  3.7483 -0.3366
   75SOL     OW  223   0.920   0.835   1.099  1.1656  0.2886  0.0865
   75SOL    HW1  224   0.846   0.881   1.040  1.1765  4.3996  1.3081
   75SOL    HW2  225   0.921   0.868   1.200 -1.4082 -1.1678 -0.0070
   76SOL     OW  226   1.722   1.188   2.509  0.7007 -0.1644 -0.3748
   76SOL    HW1  227   1.625   1.173   2.475 -0.6126  3.7145  1.3455
   76SOL    HW2  228   1.735   1.284   2.553  0.1902  1.7824  3.1370
   77SOL     OW  229   2.954   0.944   0.962 -0.1739  0.1510  0.1864
   77SOL    HW1  230   2.903   0.856   0.945  0.7133 -1.1298  0.3490
   77SOL    HW2  231   3.014   0.945   1.044 -2.9131  2.9965  1.1818
   78SOL     OW  232   2.026   1.478   1.478 -0.4417 -0.1315 -0.6354
   78SOL    HW1  233   2.087   1.547   1.436  0.0962 -1.8745 -1.6901
   78SOL    HW2  234   1.941   1.463   1.421 -0.1315 -0.6318 -1.6790
   79SOL     OW  235   0.625   1.377   0.832  0.5215 -0.1737 -0.0246
   79SOL    HW1  236   0.537   1.432   0.849 -1.5259  2.0279 -1.6951
   79SOL    HW2  237   0.605   1.295   0.767  0.2166 -0.2148  2.6375
   80SOL     OW  238   0.610   0.494   1.571  0.3231 -0.2772 -0.2916
   80SOL    HW1  239   0.704   0.525   1.536  0.6063  0.6036 -0.6505
   80SOL    HW2  240   0.588   0.402   1.536  1.0981 -0.1508  0.2273
   81SOL     OW  241   1.032   1.362   2.639 -0.0945 -0.5459 -0.1578
   81SOL    HW1  242   1.024   1.259   2.648 -0.0143 -0.3325  0.9365
   81SOL    HW2  243   0.973   1.386   2.556 -1.9059 -1.2090 -0.7761
   82SOL     OW  244   0.982   2.990   1.502 -0.3556  0.4362  0.0001
   82SOL    HW1  245   0.920   3.020   1.424 -1.8055 -2.2149  2.1315
   82SOL    HW2  246   1.030   2.903   1.481  1.4879  1.0130 -1.0630
   83SOL     OW  247   2.696   2.418   0.840 -0.7761 -0.6129 -0.4302
   83SOL    HW1  248   2.644   2.348   0.784  0.6166 -0.0810  0.0829
   83SOL    HW2  249   2.665   2.516   0.833 -2.6119  1.9327 -0.3282
   84SOL     OW  250   0.649   3.037   2.348 -0.1895  0.4105 -0.2543
   84SOL    HW1  251   0.573   3.065   2.417 -0.5909 -0.5399 -2.1244
   84SOL    HW2  252   0.706   2.953   2.363  0.1543 -0.1481  0.6242
   85SOL     OW  253   0.274   1.593   1.481  0.4238  0.4587 -0.1645
   85SOL    HW1  254   0.256   1.695   1.472 -0.2407 -1.4531 -0.4842
   85SOL    HW2  255   0.346   1.573   1.552 -1.3348  5.3676  0.4371
   86SOL     OW  256   0.416   0.989   1.546  0.2112  0.4148  0.2687
   86SOL    HW1  257   0.377   0.965   1.453 -2.3824 -0.7941 -0.1322
   86SOL    HW2  258   0.439   0.908   1.603  0.6118 -0.6597 -1.6581
   87SOL     OW  259   1.557   0.645   0.210  0.1405  0.5602 -0.0083
   87SOL    HW1  260   1.645   0.700   0.197  1.4977 -0.0606 -1.1703
   87SOL    HW2  261   1.534   0.578   0.131 -1.8506 -1.3571 -2.5292
   88SOL     OW  262   1.579   1.384   0.254  0.3426 -0.2837  0.6211
   88SOL    HW1  263   1.606   1.287   0.284 -1.9833 -3.3541 -0.9981
   88SOL    HW2  264   1.477   1.400   0.258  0.5579  1.3070 -1.2340
   89SOL     OW  265   3.087   0.458   0.582 -0.4057 -0.0227  0.0134
   89SOL    HW1  266   3.142   0.400   0.519  1.3289  0.4839  1.7931
   89SOL    HW2  267   3.000   0.419   0.613  1.2888  0.1646  0.7403
   90SOL     OW  268   0.909   1.563   0.085 -0.1515  0.2316  0.0855
   90SOL    HW1  269   0.836   1.556   0.160  0.8195 -2.5594  2.0302
   90SOL    HW2  270   0.869   1.584  -0.007 -0.8365  0.0714  1.8231
   91SOL     OW  271   1.249   1.441   1.851  0.2028  0.7505 -0.2623
   91SOL    HW1  272   1.213   1.536   1.874  0.4553 -1.7937 -2.5527
   91SOL    HW2  273   1.347   1.442   1.817  0.3003 -2.7367  1.5068
   92SOL     OW  274   3.077   0.954   1.228  0.0172 -0.1879 -0.0079
   92SOL    HW1  275   3.125   1.041   1.196 -1.2761 -0.0612 -1.3491
   92SOL    HW2  276   3.094   0.939   1.329  0.0201  1.1055  0.8318
   93SOL     OW  277   0.028   2.726   3.058 -0.3568  0.4501  0.7880
   93SOL    HW1  278  -0.042   2.732   2.982  0.4987  0.3475  0.6210
   93SOL    HW2  279   0.035   2.627   3.094  1.5902 -0.2859 -2.2887
   94SOL     OW  280   1.490   1.475   1.736 -0.1482 -0.5831  0.3614
   94SOL    HW1  281   1.534   1.382   1.738 -1.3634 -1.5137  0.5508
   94SOL    HW2  282   1.529   1.526   1.818  0.4524 -1.4779 -0.8838
   95SOL     OW  283   1.420   2.513   2.981  0.7183 -0.4815  0.3955
   95SOL    HW1  284   1.347   2.529   3.055 -2.2137  2.8935  1.1015
   95SOL    HW2  285   1.417   2.413   2.943 -1.5278  1.0025 -0.1750
   96SOL     OW  286   0.545   2.121   1.234  0.0810 -0.4236  0.1090
   96SOL    HW1  287   0.517   2.074   1.148 -0.3610  0.8358  1.8589
   96SOL    HW2  288   0.597   2.056   1.298 -1.4577  0.3631 -0.0594
   97SOL     OW  289   0.451   1.638   2.466 -0.1831  0.6651 -1.0802
   97SOL    HW1  290   0.356   1.675   2.444 -0.4847 -0.2198  0.4822
   97SOL    HW2  291   0.483   1.644   2.561  0.9215  1.2919 -1.1300
   98SOL     OW  292   2.034   1.619   1.198  0.3953  1.1517 -0.0396
   98SOL    HW1  293   1.956   1.554   1.221 -1.3641  1.1137 -1.4850
   98SOL    HW2  294   2.113   1.576   1.144  3.1074  0.7005 -0.4931
   99SOL     OW  295   2.501   2.037   1.307  0.1464 -0.5283 -0.1256
   99SOL    HW1  296   2.501   2.038   1.411 -0.9880 -0.7619  0.2447
   99SOL    HW2  297   2.481   1.941   1.268 -0.5143 -0.4915 -2.0362
  100SOL     OW  298   2.377   0.314   2.126 -0.2749  0.3474 -0.5605
  100SOL    HW1  299   2.295   0.277   2.185 -0.9484  3.8565  2.6386
  100SOL    HW2  300   2.441   0.386   2.174 -0.5185  0.8811 -0.5338
  101SOL     OW  301   0.398   1.455   0.440  0.1725 -0.3718  0.4573
  101SOL    HW1  302   0.400   1.536   0.506  0.2466  2.1677 -2.0397
  101SOL    HW2  303   0.496   1.429   0.416  2.4754 -0.1350 -0.5582
  102SOL     OW  304   2.240   1.035   0.850 -0.2145 -0.2235 -0.5454
  102SOL    HW1  305   2.185   0.953   0.837  1.4094  2.0434  1.5823
  102SOL    HW2  306   2.252   1.093   0.763 -2.1891  3.1094 -0.5701
  103SOL     OW  307   2.257   0.084   0.411 -0.1309 -0.0803 -0.2445
  103SOL    HW1  308   2.267   0.184   0.442 -2.9549  1.7465  1.1140
  103SOL    HW2  309   2.316   0.019   0.461 -2.7251 -0.5471 -1.5037
  104SOL     OW  310   0.091   1.771   2.192  0.7248  0.1216  0.0644
  104SOL    HW1  311   0.139   1.757   2.100 -2.1808  0.4258 -0.7008
  104SOL    HW2  312  -0.004   1.803   2.168 -2.0383  0.9446  0.2766
  105SOL     OW  313   1.266   2.085   0.780  0.4446 -0.1437 -0.3467
  105SOL    HW1  314   1.168   2.060   0.763  0.3497 -0.5631  0.2777
  105SOL    HW2  315   1.319   1.998   0.794  0.6020  0.3278 -0.1558
  106SOL     OW  316   2.091   0.423   1.403  0.2267  0.1199 -0.2039
  106SOL    HW1  317   2.082   0.320   1.418  1.5625 -0.1095  1.2540
  106SOL    HW2  318   2.089   0.481   1.487  0.9066  1.5740 -0.7094
  107SOL     OW  319   1.822   2.959   1.207  0.3831 -0.7495  0.4839
  107SOL    HW1  320   1.849   3.050   1.252  0.1240  0.8686  1.6712
  107SOL    HW2  321   1.743   2.911   1.261  0.3937 -0.4623  1.2694
  108SOL     OW  322   0.764   2.763   1.270  0.3375  0.1733  0.0711
  108SOL    HW1  323   0.771   2.734   1.369 -0.5096  0.7482 -1.6137
  108SOL    HW2  324   0.850   2.812   1.239 -2.0256  1.1503 -0.4866
  109SOL     OW  325   2.136   0.094   0.811 -0.0669 -0.1299  0.2552
  109SOL    HW1  326   2.045   0.119   0.764 -1.5063  0.7266  2.2403
  109SOL    HW2  327   2.117   0.054   0.907  0.5962  0.0054  0.1434
  110SOL     OW  328   0.463   2.849   2.782  0.7800  0.0187  0.1245
  110SOL    HW1  329   0.436   2.828   2.680  0.5072  0.8561  1.4005
  110SOL    HW2  330   0.542   2.791   2.810 -1.4294  2.7895 -0.3933
  111SOL     OW  331   1.297   0.509   2.322 -0.5930 -0.1823  0.4615
  111SOL    HW1  332   1.217   0.552   2.369 -1.0407 -2.2149 -0.0624
  111SOL    HW2  333   1.352   0.446   2.387  0.5191 -0.8430  2.1206
  112SOL     OW  334   1.673   0.511   1.448  0.7170  0.1859 -0.0091
  112SOL    HW1  335   1.709   0.463   1.360 -0.2266 -4.1414  2.3558
  112SOL    HW2  336   1.663   0.440   1.523  1.9735 -0.1230 -0.4239
  113SOL     OW  337   2.303   1.687   1.769 -0.1190  0.2898 -0.0835
  113SOL    HW1  338   2.383   1.634   1.730  1.0626  0.9661  0.2387
  113SOL    HW2  339   2.312   1.718   1.866 -1.5125 -1.4687  0.0792
  114SOL     OW  340   0.397   0.551   1.277 -0.7668 -0.2308  0.6096
  114SOL    HW1  341   0.430   0.590   1.187 -0.7300 -0.4139  2.0848
  114SOL    HW2  342   0.296   0.547   1.271  3.1017  1.6249 -3.1535
  115SOL     OW  343   2.722   1.621   1.203 -0.4035  0.4110  0.1701
  115SOL    HW1  344   2.710   1.517   1.232  1.9705 -0.1795  1.5562
  115SOL    HW2  345   2.761   1.628   1.111 -2.4520  1.7052 -2.1808
  116SOL     OW  346   1.800   1.063   0.645 -0.0431 -0.2209 -0.5854
  116SOL    HW1  347   1.724   0.999   0.621 -0.7292  0.7691  0.3458
  116SOL    HW2  348   1.789   1.136   0.716  0.2641 -0.2386  0.1439
  117SOL     OW  349   1.208   0.333   0.576 -0.0499 -0.5935  0.0212
  117SOL    HW1  350   1.263   0.394   0.639  0.3942 -1.5547  2.3469
  117SOL    HW2  351   1.229   0.343   0.471 -1.7111 -0.9439  2.1693
  118SOL     OW  352   1.170   1.075   1.125 -0.4525 -0.4670  0.2145
  118SOL    HW1  353   1.131   0.997   1.183 -1.0060 -1.0814  0.3960
  118SOL    HW2  354   1.156   1.170   1.156  0.8315  0.2067  3.1294
  119SOL     OW  355   1.822   1.622   2.174  0.0998  0.3142 -0.2022
  119SOL    HW1  356   1.795   1.723   2.153  0.9751  0.9013  2.8583
  119SOL    HW2  357   1.924   1.601   2.169 -0.2261 -1.7632 -1.2795
  120SOL     OW  358   2.953   2.865   0.126 -0.1734 -0.4025  0.4215
  120SOL    HW1  359   3.037   2.818   0.084 -1.5992 -1.1677  0.3222
  120SOL    HW2  360   2.868   2.811   0.120  2.6957 -1.7549  0.3181
  121SOL     OW  361   2.004   0.748   2.225 -0.3995 -0.1140 -0.0305
  121SOL    HW1  362   1.999   0.799   2.136  1.2191  0.1641  0.0514
  121SOL    HW2  363   2.000   0.644   2.212 -1.3118  1.2017  0.7613
  122SOL     OW  364   2.573   2.615   1.288 -0.2466 -0.5302  0.3133
  122SOL    HW1  365   2.610   2.537   1.237  1.2666  2.5628  1.5861
  122SOL    HW2  366   2.468   2.623   1.280 -1.3339 -0.6746  3.1283
  123SOL     OW  367   1.742   0.077   1.687 -0.0485 -0.3845  0.1576
  123SOL    HW1  368   1.768  -0.013   1.647 -1.1319 -0.0347 -0.5157
  123SOL    HW2  369   1.821   0.122   1.745  2.7006  1.7568 -0.6691
  124SOL     OW  370   0.071   0.461   1.105 -0.2612 -0.6792  0.3761
  124SOL    HW1  371   0.094   0.544   1.173  0.5537  1.3738 -2.1832
  124SOL    HW2  372   0.069   0.492   1.008  0.8206 -0.5955  1.6290
  125SOL     OW  373   0.861   1.839   0.694 -0.0516 -0.0252 -0.1033
  125SOL    HW1  374   0.966   1.829   0.715 -0.4702  0.8202 -0.0762
  125SOL    HW2  375   0.813   1.876   0.777  1.1434  0.6857 -1.6874
  126SOL     OW  376   1.848   2.271   2.365 -0.2207 -0.3036 -0.4990
  126SOL    HW1  377   1.917   2.236   2.295 -1.3162 -1.1445  1.2803
  126SOL    HW2  378   1.775   2.208   2.393 -0.6630  1.4174 -0.3222
  127SOL     OW  379   1.021   0.898   0.243 -0.4672 -0.1493 -0.2584
  127SOL    HW1  380   1.019   0.967   0.321  0.5004  0.6002 -2.1673
  127SOL    HW2  381   0.997   0.803   0.272  0.2578 -0.6894  0.3643
  128SOL     OW  382   0.967   0.201   1.393  0.2206 -0.7643  0.1713
  128SOL    HW1  383   0.978   0.272   1.320 -1.0821  0.0569 -2.6491
  128SOL    HW2  384   0.916   0.121   1.358  2.1737  3.0911 -0.2394
  129SOL     OW  385   1.839   0.651   1.870  0.1222 -0.5562 -0.9183
  129SOL    HW1  386   1.815   0.649   1.773 -0.0537  0.5402  1.7265
  129SOL    HW2  387   1.870   0.747   1.904  1.6342 -1.7957 -0.6226
  130SOL     OW  388   1.383   2.173   1.001 -0.1808 -0.0984  0.2577
  130SOL    HW1  389   1.352   2.151   0.904  0.6274 -0.8058  2.6105
  130SOL    HW2  390   1.455   2.246   0.990  1.7296 -2.3918 -3.6221
  131SOL     OW  391   3.015   1.425   1.390 -0.4319 -0.7008 -0.3704
  131SOL    HW1  392   2.971   1.334   1.420  2.4298 -0.6441  0.5443
  131SOL    HW2  393   3.117   1.410   1.395 -1.7676 -0.2796 -0.2943
  132SOL     OW  394   2.054   2.433   0.514  0.1890 -0.0560 -0.5092
  132SOL    HW1  395   1.957   2.453   0.490 -0.0425  0.2669 -1.0839
  132SOL    HW2  396   2.063   2.353   0.586 -0.4035  1.2843 -1.2839
  133SOL     OW  397   1.832   2.327   2.776 -0.3631 -0.1440 -0.6817
  133SOL    HW1  398   1.808   2.344   2.677  0.4294  2.7096  0.0049
  133SOL    HW2  399   1.921   2.379   2.791 -2.9326  0.7878 -0.4825
  134SOL     OW  400   2.655   2.334   1.584  0.2372 -0.6269  0.0122
  134SOL    HW1  401   2.567   2.319   1.636 -1.3359  1.8308 -3.0169
  134SOL    HW2  402   2.699   2.424   1.611 -1.0815  0.7736 -0.7601
  135SOL     OW  403   0.675   1.467   2.630  0.4573  0.3493  0.1168
  135SOL    HW1  404   0.675   1.382   2.687  2.3705 -0.5087 -0.4902
  135SOL    HW2  405   0.741   1.461   2.543  3.8841  2.0887 -1.1026
  136SOL     OW  406   1.197   2.022   0.429 -0.4395  0.2370  0.1994
  136SOL    HW1  407   1.136   2.100   0.452 -0.5863 -0.1257 -1.0262
  136SOL    HW2  408   1.158   1.932   0.461 -0.9821  2.6305 -0.0926
  137SOL     OW  409   0.400   1.195   2.163  0.1642  0.2322  0.5316
  137SOL    HW1  410   0.307   1.171   2.208 -0.2539 -0.6500  1.7795
  137SOL    HW2  411   0.476   1.134   2.189 -0.1618 -1.7380  1.3962
  138SOL     OW  412   2.506   1.482   0.243  0.6859 -0.1830 -0.0369
  138SOL    HW1  413   2.412   1.443   0.226  0.2913  0.2393  3.5852
  138SOL    HW2  414   2.562   1.432   0.315 -0.9685 -1.4737  1.3358
  139SOL     OW  415   1.863   2.604   1.328  0.2889  0.4032  0.2717
  139SOL    HW1  416   1.765   2.621   1.300  3.3189  1.5469 -2.4502
  139SOL    HW2  417   1.896   2.507   1.322  3.5778  1.7480  3.2672
  140SOL     OW  418   3.030   3.002   2.541 -0.7449 -0.5600 -0.5133
  140SOL    HW1  419   3.070   2.908   2.544 -0.3740 -1.8434 -1.5946
  140SOL    HW2  420   3.095   3.072   2.502  0.1875 -2.4550 -0.6184
  141SOL     OW  421   1.339   1.664   1.607  0.0146  0.1802 -0.3635
  141SOL    HW1  422   1.260   1.718   1.648 -0.5047  0.6977 -1.3457
  141SOL    HW2  423   1.381   1.600   1.677  0.8230  3.3157  1.7741
  142SOL     OW  424   1.565   0.621   2.256 -0.1423 -0.0310 -0.1091
  142SOL    HW1  425   1.595   0.585   2.166 -0.0945  1.5810  0.4170
  142SOL    HW2  426   1.474   0.577   2.277  3.1996  0.7417 -0.6690
  143SOL     OW  427   2.687   0.883   0.495 -0.0183 -0.0455 -0.5251
  143SOL    HW1  428   2.747   0.919   0.422  1.2940  1.3637 -1.9313
  143SOL    HW2  429   2.721   0.911   0.592  0.8155  0.6040  2.0370
  144SOL     OW  430   2.925   1.198   1.469  0.3511  0.2344  0.2742
  144SOL    HW1  431   2.853   1.205   1.543  1.3868  0.7609 -0.7781
  144SOL    HW2  432   2.990   1.115   1.475 -0.4155  2.2831 -2.2592
  145SOL     OW  433   0.977   1.829   0.222  0.1355 -0.0855 -0.0321
  145SOL    HW1  434   1.053   1.882   0.175  1.4274 -2.3234 -0.3689
  145SOL    HW2  435   0.960   1.744   0.166  1.9975 -0.9382 -0.2554
  146SOL     OW  436   2.507   0.633   1.489 -0.7595  0.2787 -0.0747
  146SOL    HW1  437   2.450   0.560   1.447  2.3673  1.6800 -0.6326
  146SOL    HW2  438   2.476   0.723   1.455  1.6182 -1.1463  2.7390
  147SOL     OW  439   1.124   2.478   0.603 -0.3168 -0.0655 -0.2388
  147SOL    HW1  440   1.073   2.518   0.521 -1.5560 -0.3089  0.5184
  147SOL    HW2  441   1.199   2.420   0.561  2.5713  1.2775 -2.1450
  148SOL     OW  442   1.630   1.469  -0.003  0.2814  0.0186  0.2751
  148SOL    HW1  443   1.622   1.378  -0.052 -0.7229 -0.3554  2.4387
  148SOL    HW2  444   1.629   1.447   0.098 -0.0964 -0.5145 -1.6754
  149SOL     OW  445   0.693   1.406   1.996 -0.8203  0.6551  0.0338
  149SOL    HW1  446   0.588   1.417   2.004 -0.6866 -0.6063 -0.1266
  149SOL    HW2  447   0.726   1.359   1.908  0.3998 -0.3172  2.2391
  150SOL     OW  448   3.014   1.234   0.939 -0.0008  0.6212  0.1284
  150SOL    HW1  449   3.097   1.210   1.000  4.5074 -0.5912 -1.7271
  150SOL    HW2  450   2.946   1.156   0.932 -0.3801 -1.2562 -4.0129
  151SOL     OW  451   0.143   0.688   2.077 -0.3422  0.2618 -0.1009
  151SOL    HW1  452   0.169   0.788   2.058 -2.3182  1.1115 -1.0677
  151SOL    HW2  453   0.203   0.615   2.026  0.7402 -0.4987  0.2268
  152SOL     OW  454   1.472   1.780   1.255 -0.2397 -0.1886 -0.7557
  152SOL    HW1  455   1.508   1.873   1.233 -0.5970  0.9243 -2.8594
  152SOL    HW2  456   1.371   1.771   1.228  2.4919 -1.6285 -0.9653
  153SOL     OW  457   0.101   1.579   0.154  0.7857  0.4427  0.3785
  153SOL    HW1  458   0.074   1.476   0.156 -0.0345 -0.3688 -4.7744
  153SOL    HW2  459   0.071   1.633   0.238 -1.4072 -0.6619 -1.7787
  154SOL     OW  460   2.381   1.826   2.830 -0.0085  0.5069 -0.1235
  154SOL    HW1  461   2.434   1.744   2.853 -2.4775  2.4165  0.0377
  154SOL    HW2  462   2.426   1.884   2.757 -0.4637 -1.4516  1.6308
  155SOL     OW  463   2.465   1.197   0.385 -0.0272  0.0295 -0.7794
  155SOL    HW1  464   2.543   1.143   0.343  0.1065  1.6968 -2.0426
  155SOL    HW2  465   2.380   1.154   0.352 -0.1220 -1.5046 -0.7501
  156SOL     OW  466   2.542   0.956   0.829 -0.4848 -0.5499  0.0663
  156SOL    HW1  467   2.443   0.971   0.831 -0.9854 -2.2766 -2.1252
  156SOL    HW2  468   2.585   1.035   0.776 -0.3048  1.2165  1.6923
  157SOL     OW  469   1.237   2.944   2.990 -0.1961  0.2724 -0.2938
  157SOL    HW1  470   1.330   2.899   2.981 -2.8208  0.4325 -0.7522
  157SOL    HW2  471   1.244   3.050   2.988 -0.2724  2.1179 -0.4140
  158SOL     OW  472   0.973   1.854   1.898  0.3357  0.0871 -0.5521
  158SOL    HW1  473   0.985   1.957   1.890 -1.0819  1.6352 -0.4176
  158SOL    HW2  474   0.897   1.823   1.965 -0.2171 -2.2681  0.8793
  159SOL     OW  475   0.885   0.404   1.209  0.3743  0.5761 -0.2532
  159SOL    HW1  476   0.845   0.477   1.269  0.6877 -0.9246 -2.5107
  159SOL    HW2  477   0.810   0.369   1.144  1.8988  2.9385  0.2797
  160SOL     OW  478   1.401   2.397   1.587 -0.4534  1.0999  0.0632
  160SOL    HW1  479   1.365   2.316   1.648 -0.2313 -2.3687 -0.3918
  160SOL    HW2  480   1.504   2.401   1.580 -0.5550  0.6827  0.4235
  161SOL     OW  481   0.068   2.957   0.400 -0.7206  0.2573  0.4348
  161SOL    HW1  482   0.001   2.886   0.376 -0.7396  2.5158 -0.8964
  161SOL    HW2  483   0.072   3.041   0.337 -3.3577 -0.1184 -0.7026
  162SOL     OW  484   2.577   1.876   0.506 -0.0041 -0.5784  0.8333
  162SOL    HW1  485   2.577   1.836   0.411  1.1298  2.0565 -0.5532
  162SOL    HW2  486   2.578   1.807   0.578  0.5377 -0.8614  0.9715
  163SOL     OW  487   1.929   2.793   0.715  0.2305 -1.0805 -0.0618
  163SOL    HW1  488   1.922   2.803   0.611  1.4091 -1.4233 -0.3970
  163SOL    HW2  489   1.993   2.716   0.739  0.5192  1.7172 -1.7427
  164SOL     OW  490   3.049   0.222   1.258  0.0968 -0.4795  0.3788
  164SOL    HW1  491   3.101   0.313   1.230  0.0190  0.8869 -2.4690
  164SOL    HW2  492   3.108   0.159   1.326  2.5330  0.9080  1.3512
  165SOL     OW  493   0.954   1.369   0.722  0.0566 -0.5813 -0.2758
  165SOL    HW1  494   0.872   1.402   0.780 -1.5404 -0.7786 -1.3777
  165SOL    HW2  495   0.947   1.419   0.637 -0.6742  0.8936  1.2909
  166SOL     OW  496   1.530   1.071   1.735 -0.6153 -0.3491 -0.1870
  166SOL    HW1  497   1.446   1.054   1.791  1.3908  2.5399 -1.0128
  166SOL    HW2  498   1.602   1.124   1.787 -2.8603 -0.4071 -0.6764
  167SOL     OW  499   0.737   1.994   1.442  0.3101 -0.3469  0.5323
  167SOL    HW1  500   0.747   2.064   1.522 -0.6220 -2.5489  2.2385
  167SOL    HW2  501   0.719   1.897   1.479 -2.8313  0.2456 -1.7750
  168SOL     OW  502   1.640   2.367   0.149 -0.3836  0.4760 -0.5944
  168SOL    HW1  503   1.678   2.414   0.066  0.6699 -1.9047  4.3515
  168SOL    HW2  504   1.698   2.365   0.232 -2.8323  0.8040 -2.7587
  169SOL     OW  505   0.221   2.557   2.223 -0.1722  0.1535 -0.0950
  169SOL    HW1  506   0.253   2.533   2.126 -1.5074  1.1978  2.4155
  169SOL    HW2  507   0.254   2.499   2.303  3.1299  1.5184 -1.4996
  170SOL     OW  508   1.102   0.207   2.037 -0.6578  0.2618 -0.3745
  170SOL    HW1  509   1.183   0.190   2.104 -1.9997  0.9620 -2.9040
  170SOL    HW2  510   1.125   0.166   1.947 -2.1130  0.9753  1.6948
  171SOL     OW  511   0.189   0.781   2.356  0.0270  0.0384 -0.3371
  171SOL    HW1  512   0.099   0.808   2.406  0.6613  2.5883  0.4278
  171SOL    HW2  513   0.159   0.754   2.261  0.9371 -0.6120 -0.9184
  172SOL     OW  514   0.954   1.013   2.866 -0.0322 -0.6358  0.2973
  172SOL    HW1  515   0.993   1.101   2.904  0.6264  1.0333 -0.9650
  172SOL    HW2  516   0.887   1.029   2.786 -0.8516 -0.4276  1.8407
  173SOL     OW  517   0.658   2.661   0.121 -0.5989 -0.5270 -0.1225
  173SOL    HW1  518   0.663   2.754   0.161 -0.2059 -0.1572  1.7106
  173SOL    HW2  519   0.570   2.632   0.088  0.2852 -1.9597  3.2459
  174SOL     OW  520   1.518   2.814   1.055  0.3048 -0.6735  0.0556
  174SOL    HW1  521   1.519   2.861   0.960  0.9350 -2.0712 -1.6027
  174SOL    HW2  522   1.497   2.718   1.055  0.0975  2.2211  0.0107
  175SOL     OW  523   0.452   3.047   1.676  0.2783 -0.6168  0.1124
  175SOL    HW1  524   0.517   3.056   1.759  0.5758 -1.7708  1.3704
  175SOL    HW2  525   0.399   3.134   1.658  0.1456 -2.3859  0.8647
  176SOL     OW  526   2.588   0.386   0.010 -0.5112  0.2566  0.4178
  176SOL    HW1  527   2.626   0.473   0.049 -0.9026 -1.5237 -1.2920
  176SOL    HW2  528   2.511   0.353   0.065 -0.1291 -1.3236  0.9164
  177SOL     OW  529   0.321   0.320   0.933 -0.3797  0.3137  0.1015
  177SOL    HW1  530   0.306   0.219   0.923 -3.3721  3.2641  1.6536
  177SOL    HW2  531   0.245   0.363   0.986  2.2910  1.6445  0.8363
  178SOL     OW  532   0.026   2.729   2.574  0.0234 -0.3486 -0.0586
  178SOL    HW1  533  -0.036   2.648   2.598 -0.1462  0.8558  0.9256
  178SOL    HW2  534   0.100   2.742   2.647  1.4387  1.6587  0.5154
  179SOL     OW  535   3.065   1.561   1.131  0.0368  0.1615  0.0837
  179SOL    HW1  536   3.005   1.642   1.111  0.8521 -4.2536  0.1373
  179SOL    HW2  537   3.034   1.520   1.223  0.3892  2.0925  1.2417
  180SOL     OW  538   0.187   1.231   1.845  0.5735  0.2568  0.0979
  180SOL    HW1  539   0.281   1.197   1.852 -2.0134  0.3294 -1.1865
  180SOL    HW2  540   0.168   1.317   1.897  0.2160  2.8387 -1.5558
  181SOL     OW  541   3.030   1.854   2.500  0.4794  0.5443  0.2668
  181SOL    HW1  542   3.093   1.935   2.488  2.9155  0.0406  0.1163
  181SOL    HW2  543   2.951   1.864   2.429  0.2381  1.8925 -0.7289
  182SOL     OW  544   2.322   1.266   1.145 -0.0483 -0.5249 -0.1918
  182SOL    HW1  545   2.235   1.207   1.125 -2.3191 -4.1616 -0.7434
  182SOL    HW2  546   2.309   1.370   1.116 -1.3956  0.0807 -2.7889
  183SOL     OW  547   1.441   2.254   2.597  0.0655  0.5741 -0.0181
  183SOL    HW1  548   1.344   2.213   2.581  0.5685 -1.2192  0.0750
  183SOL    HW2  549   1.511   2.202   2.548 -0.3923 -2.1125 -3.1322
  184SOL     OW  550   1.995   0.886   0.726  0.3040  0.7206 -0.2980
  184SOL    HW1  551   1.914   0.941   0.704  2.7812 -2.5210 -2.7521
  184SOL    HW2  552   1.974   0.793   0.762  0.8037  1.1595 -2.2396
  185SOL     OW  553   1.626   2.797   1.981 -0.0489  0.2155 -0.7878
  185SOL    HW1  554   1.544   2.861   1.973  0.0926 -0.3106 -0.8040
  185SOL    HW2  555   1.673   2.808   2.071  2.5604  0.6725 -0.6535
  186SOL     OW  556   0.112   2.261   1.641  0.2957  0.2177 -0.2404
  186SOL    HW1  557   0.099   2.319   1.724  0.9747  2.2693 -1.4575
  186SOL    HW2  558   0.193   2.197   1.657 -1.7770  0.9250 -2.5238
  187SOL     OW  559   1.318   0.701   1.664  0.5392 -0.0732 -0.1087
  187SOL    HW1  560   1.392   0.759   1.616  2.5229  1.9550 -0.3867
  187SOL    HW2  561   1.351   0.646   1.745  1.0367 -2.5528 -0.7409
  188SOL     OW  562   2.771   2.770   1.432  0.0031  0.1918  0.1555
  188SOL    HW1  563   2.734   2.864   1.455 -2.3642  1.6949  2.8571
  188SOL    HW2  564   2.710   2.714   1.367  2.1787 -1.2276  0.1441
  189SOL     OW  565   0.949   1.201   1.446 -0.0477 -0.0596  0.1921
  189SOL    HW1  566   1.014   1.242   1.516 -1.2482 -1.1536 -2.4639
  189SOL    HW2  567   0.910   1.272   1.377  2.6265 -0.7544 -0.1912
  190SOL     OW  568   1.438   1.935   1.623 -0.3227  0.7384  0.0181
  190SOL    HW1  569   1.412   1.836   1.622 -2.8478  0.0767  3.1095
  190SOL    HW2  570   1.497   1.957   1.703  0.8917 -3.5766 -1.8600
  191SOL     OW  571   0.949   0.713   1.563 -0.2382 -0.0846 -0.3807
  191SOL    HW1  572   1.016   0.634   1.583 -1.0661 -2.3115 -0.2433
  191SOL    HW2  573   0.937   0.769   1.650  2.6451  0.9889 -0.8199
  192SOL     OW  574   1.852   2.285   1.083 -0.2255  0.7432 -0.5054
  192SOL    HW1  575   1.759   2.295   1.034 -0.4131  1.9278  0.1197
  192SOL    HW2  576   1.935   2.304   1.021 -0.7502 -1.1155  0.5378
  193SOL     OW  577   0.566   0.578   0.449 -0.5552  0.0076  0.1152
  193SOL    HW1  578   0.510   0.505   0.488 -1.1509 -0.6812 -1.4541
  193SOL    HW2  579   0.608   0.556   0.353 -1.1873 -2.5300 -0.3433
  194SOL     OW  580   0.324   0.905   1.291  0.1088 -0.3571  0.4234
  194SOL    HW1  581   0.277   0.815   1.276  2.4281 -0.5493  0.1171
  194SOL    HW2  582   0.355   0.953   1.207  0.5935  0.0623  0.0848
  195SOL     OW  583   0.998   2.944   0.530  0.5259  0.0556 -0.3257
  195SOL    HW1  584   0.971   2.850   0.502 -4.7337  0.5797  0.1285
  195SOL    HW2  585   1.095   2.968   0.525 -0.6934 -0.5970 -0.8516
  196SOL     OW  586   0.199   1.322   1.371 -0.8375  0.4408  0.0969
  196SOL    HW1  587   0.235   1.411   1.412 -0.5878 -1.1255  0.2682
  196SOL    HW2  588   0.190   1.247   1.446 -1.8580  0.3044  1.2666
  197SOL     OW  589   0.851   2.057   0.265  0.2308 -0.1569  0.0853
  197SOL    HW1  590   0.826   2.054   0.369 -0.3775 -1.4358 -0.1240
  197SOL    HW2  591   0.897   1.971   0.228  1.8202  1.0907  0.5576
  198SOL     OW  592   0.278   1.278   0.285 -0.5011 -0.0608  0.4770
  198SOL    HW1  593   0.189   1.311   0.250 -2.1164  1.2428 -1.5299
  198SOL    HW2  594   0.341   1.351   0.320 -0.8435 -0.0677 -1.2702
  199SOL     OW  595   2.285   0.354   2.491  0.2558  0.0958 -0.0042
  199SOL    HW1  596   2.205   0.346   2.556  2.0160  2.0187  0.0764
  199SOL    HW2  597   2.380   0.364   2.544  0.9728  0.0106  0.6107
  200SOL     OW  598   0.013   2.945   0.720  0.1153  0.5520 -0.5131
  200SOL    HW1  599  -0.074   2.943   0.662 -1.2229 -2.7132  1.7908
  200SOL    HW2  600   0.065   3.036   0.720 -0.0222 -0.6848  1.8155
  201SOL     OW  601   1.073   0.742   0.585 -0.6210 -0.4848 -0.4764
  201SOL    HW1  602   1.079   0.791   0.675 -0.1231 -1.3673 -4.7030
  201SOL    HW2  603   0.994   0.681   0.562 -1.6875  2.8716 -0.8955
  202SOL     OW  604   0.414   1.084   1.908 -0.7486 -0.0067  0.1114
  202SOL    HW1  605   0.463   0.990   1.887  1.9409 -2.5253 -0.8632
  202SOL    HW2  606   0.464   1.142   1.981  1.7566  0.1582  1.4941
  203SOL     OW  607   0.656   0.228   1.498 -0.1813  0.3017 -0.4028
  203SOL    HW1  608   0.736   0.235   1.431  1.3300 -0.2145 -0.9967
  203SOL    HW2  609   0.685   0.230   1.599  1.2486  1.0634  0.1941
  204SOL     OW  610   2.093   1.806   2.877  0.5283  0.1955  0.0562
  204SOL    HW1  611   2.080   1.711   2.922  0.9205  0.5986 -0.5026
  204SOL    HW2  612   2.191   1.816   2.855 -0.7218  0.8523  1.1551
  205SOL     OW  613   1.842   1.881   3.020  0.2138 -0.3668 -0.1087
  205SOL    HW1  614   1.918   1.877   2.951  1.1995 -1.6960 -0.8497
  205SOL    HW2  615   1.804   1.976   3.022  1.9685 -1.4778 -0.9991
  206SOL     OW  616   2.491   2.818   0.326 -0.1880 -0.4130  0.1139
  206SOL    HW1  617   2.535   2.750   0.392 -0.0462  0.9494 -0.7646
  206SOL    HW2  618   2.549   2.905   0.313 -2.0832  2.0839  1.1373
  207SOL     OW  619   0.684   1.829   3.003  0.2563  0.1120  0.0028
  207SOL    HW1  620   0.771   1.775   2.971  1.1835  0.2476 -2.8802
  207SOL    HW2  621   0.633   1.785   3.082  0.0419 -0.1429 -0.3802
  208SOL     OW  622   1.101   1.577   1.389  0.5656 -0.1350  0.2568
  208SOL    HW1  623   1.063   1.668   1.349 -0.9193  0.2034 -2.0243
  208SOL    HW2  624   1.184   1.591   1.448  0.8764  1.1079  0.6897
  209SOL     OW  625   0.234   0.934   3.040  0.5042  0.4051  0.2009
  209SOL    HW1  626   0.209   0.845   2.995  1.2595 -0.8151  1.1016
  209SOL    HW2  627   0.203   0.933   3.139  2.2025 -1.9694  2.0727
  210SOL     OW  628   1.772   0.477   1.190 -0.0291  0.1530 -0.2096
  210SOL    HW1  629   1.709   0.557   1.174 -1.2710 -0.5668 -0.1978
  210SOL    HW2  630   1.873   0.494   1.166 -2.6326 -0.7215  0.6023
  211SOL     OW  631   2.103   1.084   1.583 -0.3244 -0.4993  0.0386
  211SOL    HW1  632   2.151   1.056   1.670 -0.1814 -0.1411  1.3333
  211SOL    HW2  633   2.166   1.128   1.516  1.4636 -1.0261  2.8410
  212SOL     OW  634   0.010   0.961   1.502 -0.7139  0.3605  0.2939
  212SOL    HW1  635   0.093   1.026   1.506  0.4415  0.8147 -1.1368
  212SOL    HW2  636   0.007   0.891   1.580 -2.1009  0.6024  0.2960
  213SOL     OW  637   2.821   0.220   0.374 -0.1355 -0.9368 -0.0218
  213SOL    HW1  638   2.874   0.150   0.311  2.5245 -0.3222 -0.7264
  213SOL    HW2  639   2.728   0.227   0.334 -0.6501  2.0153  1.3778
  214SOL     OW  640   2.182   0.240   2.281 -0.1652 -0.3260  0.0238
  214SOL    HW1  641   2.237   0.276   2.362 -1.0298  0.0106 -1.3297
  214SOL    HW2  642   2.142   0.146   2.290  0.6738  1.6155  1.7883
  215SOL     OW  643   1.597   2.283   2.118 -0.7095  0.6645 -0.0732
  215SOL    HW1  644   1.698   2.286   2.105 -2.0896  1.6320 -0.4537
  215SOL    HW2  645   1.556   2.375   2.149 -0.1980  3.3842 -1.2221
  216SOL     OW  646   2.175   0.619   0.696 -0.5357  0.1972  0.1988
  216SOL    HW1  647   2.153   0.521   0.670  0.3181  0.1503  1.8943
  216SOL    HW2  648   2.164   0.693   0.620  1.4751  2.3463 -0.6227
  217SOL     OW  649   0.759   2.774   2.423 -0.2244 -0.0784 -0.0175
  217SOL    HW1  650   0.722   2.694   2.476  0.0325 -0.3823 -0.5567
  217SOL    HW2  651   0.735   2.762   2.322  3.2243  0.8284 -0.0135
  218SOL     OW  652   1.900   1.422   0.009 -0.1090 -0.1295 -0.2274
  218SOL    HW1  653   1.794   1.444  -0.005 -0.9871 -0.0865  0.0318
  218SOL    HW2  654   1.916   1.369   0.099  1.7574  1.7872  0.2287
  219SOL     OW  655   2.432   1.282   2.517  0.3767  0.3800 -0.3961
  219SOL    HW1  656   2.458   1.231   2.431  0.7389  1.9650 -2.3062
  219SOL    HW2  657   2.424   1.221   2.599  0.4286 -0.3066 -3.2374
  220SOL     OW  658   1.497   1.050   1.248 -0.1650 -0.0827 -0.0834
  220SOL    HW1  659   1.598   1.037   1.264 -1.1363 -0.0806  2.9648
  220SOL    HW2  660   1.476   1.108   1.165 -1.5939  1.3800  0.9178
  221SOL     OW  661   1.299   1.003   2.190 -0.6450 -0.1835 -0.3944
  221SOL    HW1  662   1.236   0.979   2.112 -0.7146  0.6283  0.6750
  221SOL    HW2  663   1.391   0.957   2.192 -0.3688 -2.3675  0.6200
  222SOL     OW  664   1.102   0.030   1.170 -0.0253  0.1993  0.4717
  222SOL    HW1  665   1.152   0.051   1.263  1.0051  2.0567  0.2130
  222SOL    HW2  666   1.132   0.102   1.097  1.0966  0.8743 -1.1340
  223SOL     OW  667   2.744   0.946   2.097  0.0993  0.2793  1.0723
  223SOL    HW1  668   2.729   1.039   2.060  1.1665 -1.3583 -1.2793
  223SOL    HW2  669   2.829   0.939   2.157  0.7682 -0.4693  1.2844
  224SOL     OW  670   1.516   1.058   2.769 -0.2465  0.5941 -0.2780
  224SOL    HW1  671   1.569   0.973   2.728 -1.9590  0.5403  1.1351
  224SOL    HW2  672   1.477   1.113   2.693  0.0470 -0.8311  1.3344
  225SOL     OW  673   2.932   2.767   2.873  0.1142  0.2173  0.0461
  225SOL    HW1  674   2.850   2.714   2.834 -1.9078  1.0774 -0.0258
  225SOL    HW2  675   2.961   2.834   2.805  0.9418  0.4664  2.5272
  226SOL     OW  676   2.503   1.585   2.889  0.1670  0.4794  0.5866
  226SOL    HW1  677   2.538   1.567   2.795 -2.4615  0.7966  2.1529
  226SOL    HW2  678   2.413   1.532   2.906 -2.2313 -2.2960 -0.0849
  227SOL     OW  679   0.865   0.134   0.032 -0.0325  0.1665 -0.0529
  227SOL    HW1  680   0.958   0.093   0.009  1.0562  0.1603 -2.4763
  227SOL    HW2  681   0.797   0.135  -0.051  0.8918 -2.7763 -1.9589
  228SOL     OW  682   2.421   0.606   2.845  0.5300 -0.3272  0.0647
  228SOL    HW1  683   2.386   0.635   2.751  0.0062 -1.2143 -0.6137
  228SOL    HW2  684   2.524   0.588   2.846  3.7071 -3.0724 -2.0471
  229SOL     OW  685   0.577   0.471   1.878  0.0091 -0.0639 -0.1935
  229SOL    HW1  686   0.551   0.371   1.892 -2.1425 -0.7957  3.6750
  229SOL    HW2  687   0.623   0.509   1.795 -2.0663  2.3330  0.6084
  230SOL     OW  688   1.875   1.145   2.070 -0.4581 -0.1196  0.6136
  230SOL    HW1  689   1.966   1.188   2.036 -1.5831  0.9459 -1.8361
  230SOL    HW2  690   1.797   1.215   2.079 -2.2977  2.0434 -1.8257
  231SOL     OW  691   0.622   1.017   0.024  0.1027 -0.0912  0.6595
  231SOL    HW1  692   0.716   1.064   0.015 -0.1885  1.7823  0.2534
  231SOL    HW2  693   0.544   1.081   0.048 -1.5254 -0.7804 -0.6624
  232SOL     OW  694   2.373   3.086   2.875  0.5462  0.2120 -0.6516
  232SOL    HW1  695   2.424   2.997   2.897  1.1185 -0.7195 -0.7593
  232SOL    HW2  696   2.418   3.143   2.800  0.8827 -1.7689 -1.8911
  233SOL     OW  697   1.703   1.267   1.117  0.2144 -0.6514 -1.0521
  233SOL    HW1  698   1.756   1.230   1.033 -3.4659 -2.8755  1.0505
  233SOL    HW2  699   1.717   1.207   1.203  0.7044  0.8226 -0.2902
  234SOL     OW  700   1.560   2.540   1.866  0.0949 -0.2709 -0.1460
  234SOL    HW1  701   1.591   2.628   1.909 -0.9015  1.3184 -0.3722
  234SOL    HW2  702   1.456   2.529   1.882 -1.5488  1.5710 -0.3946
  235SOL     OW  703   0.005   3.018   2.812  0.0272  0.4299  0.1562
  235SOL    HW1  704  -0.020   3.021   2.711  1.7602 -0.6992  1.1701
  235SOL    HW2  705  -0.058   3.070   2.872  2.6903 -1.1146  1.8474
  236SOL     OW  706   2.908   0.737   0.088  0.0639  0.2072  0.1434
  236SOL    HW1  707   2.963   0.807   0.142  1.2843 -1.4025 -0.9112
  236SOL    HW2  708   2.968   0.672   0.036  1.1207 -2.0021  2.1743
  237SOL     OW  709   1.532   1.672   1.008  0.1829 -0.2100  0.1209
  237SOL    HW1  710   1.635   1.670   0.988  1.8947 -0.8345 -0.7086
  237SOL    HW2  711   1.517   1.695   1.105  1.2233  0.3349 -2.4967
  238SOL     OW  712   1.781   1.281   0.856 -0.1393  0.2851  0.0838
  238SOL    HW1  713   1.823   1.363   0.902 -2.2165 -0.0876  0.0154
  238SOL    HW2  714   1.683   1.305   0.818  0.2927 -0.6862  0.8484
  239SOL     OW  715   2.085   0.283   2.653  0.5246  0.0833  0.6023
  239SOL    HW1  716   2.136   0.283   2.745 -0.0333  1.6668 -0.6552
  239SOL    HW2  717   1.988   0.314   2.665  0.6197  1.4237 -1.8012
  240SOL     OW  718   0.919   0.650   0.312  0.2183  0.4413 -0.0542
  240SOL    HW1  719   0.962   0.555   0.294  0.5653 -0.1358  1.1339
  240SOL    HW2  720   0.892   0.644   0.414 -1.6541 -0.3821 -1.6572
  241SOL     OW  721   0.558   0.041   0.390  0.7391 -0.1420  0.2076
  241SOL    HW1  722   0.611   0.111   0.336  1.5374  1.7498  0.9397
  241SOL    HW2  723   0.566  -0.054   0.337 -1.4519 -2.7206 -0.1897
  242SOL     OW  724   0.637   2.527   1.146 -0.7957 -0.4564  0.3321
  242SOL    HW1  725   0.600   2.535   1.245 -1.6884 -0.8157 -0.0907
  242SOL    HW2  726   0.710   2.601   1.130 -0.0427 -1.2476 -1.6309
  243SOL     OW  727   1.082   0.622   2.476  0.5029  0.4116 -0.6010
  243SOL    HW1  728   0.991   0.648   2.426 -3.8529 -1.4908 -0.7454
  243SOL    HW2  729   1.059   0.582   2.566 -0.8845  3.7615 -0.0379
  244SOL     OW  730   2.837   1.894   2.321 -0.1575 -0.3804  0.0295
  244SOL    HW1  731   2.864   1.861   2.230 -0.7485 -0.5882  0.9876
  244SOL    HW2  732   2.748   1.848   2.348 -3.8415 -0.9184 -0.7872
  245SOL     OW  733   2.317   0.734   2.191  0.0292  0.8348 -0.2119
  245SOL    HW1  734   2.395   0.711   2.258 -3.3660  1.5040 -1.6865
  245SOL    HW2  735   2.272   0.822   2.221 -0.6140  0.2780  2.6022
  246SOL     OW  736   0.232   2.908   1.733  0.3051  0.2439  0.0802
  246SOL    HW1  737   0.152   2.932   1.670  0.1747 -0.1879 -2.0479
  246SOL    HW2  738   0.325   2.945   1.709 -0.0406 -2.5294  0.9012
  247SOL     OW  739   2.251   0.609   3.060  0.7426  0.3528 -0.0520
  247SOL    HW1  740   2.315   0.566   2.984  1.3428  0.9025 -2.6295
  247SOL    HW2  741   2.203   0.694   3.015 -0.8625  4.1090  1.0607
  248SOL     OW  742   2.147   1.813   1.589  0.4829  0.0610 -0.2686
  248SOL    HW1  743   2.232   1.771   1.631  1.8406  0.0023  0.4654
  248SOL    HW2  744   2.057   1.799   1.647 -0.5441 -1.5922  1.9764
  249SOL     OW  745   1.843   1.952   1.932  0.0208  0.2574  0.6045
  249SOL    HW1  746   1.861   1.899   1.845 -2.3150 -2.3756  0.7179
  249SOL    HW2  747   1.935   1.976   1.976  0.0678  0.2101 -0.8648
  250SOL     OW  748   1.127   0.705   1.910 -0.1915 -0.6304 -0.5543
  250SOL    HW1  749   1.151   0.627   1.974 -0.4310 -0.7119 -1.0639
  250SOL    HW2  750   1.141   0.676   1.811 -2.3593 -1.1932  0.7869
  251SOL     OW  751   0.061   1.583   2.476  0.1726 -0.0175  0.0625
  251SOL    HW1  752   0.064   1.658   2.406 -0.5933  0.4055 -0.3339
  251SOL    HW2  753  -0.033   1.545   2.498 -2.1550 -2.3841  1.3582
  252SOL     OW  754   1.533   0.836   1.572  0.1664 -0.3784  0.2750
  252SOL    HW1  755   1.588   0.857   1.486  1.8794  1.8350 -1.5586
  252SOL    HW2  756   1.530   0.912   1.639 -0.4964  1.6952  1.5780
  253SOL     OW  757   0.962   1.563   0.518 -0.0707  0.4315  0.6648
  253SOL    HW1  758   0.997   1.503   0.443  0.8864  1.7085  1.6148
  253SOL    HW2  759   0.854   1.554   0.533 -1.5704 -0.7086 -0.1235
  254SOL     OW  760   2.048   2.168   1.635  0.0189  0.7722  0.5945
  254SOL    HW1  761   2.010   2.103   1.565  2.1488 -0.0824  0.0906
  254SOL    HW2  762   1.974   2.196   1.701  1.5728  0.7383  1.0798
  255SOL     OW  763   0.138   1.128   2.885 -0.2069 -0.0356 -0.2276
  255SOL    HW1  764   0.203   1.213   2.888  2.6508 -0.5497  1.9900
  255SOL    HW2  765   0.175   1.039   2.935  1.8325  1.4919  2.7486
  256SOL     OW  766   2.779   1.358   1.778 -0.4582 -0.0714  0.1569
  256SOL    HW1  767   2.677   1.368   1.790 -1.2189 -0.1291  0.1664
  256SOL    HW2  768   2.803   1.262   1.748  1.0052 -1.0130 -1.3390
  257SOL     OW  769   0.770   0.200   1.759 -0.1164 -0.5089 -0.0902
  257SOL    HW1  770   0.839   0.272   1.721  0.6154  0.2990  1.2021
  257SOL    HW2  771   0.829   0.113   1.787  1.8071 -0.1449  0.7983
  258SOL     OW  772   2.971   1.264   0.440 -0.2236 -0.8230 -0.3311
  258SOL    HW1  773   2.896   1.331   0.448  0.3072 -1.0138  1.6589
  258SOL    HW2  774   3.024   1.262   0.533  1.8261  2.5403  1.7649
  259SOL     OW  775   0.467   2.961   3.035 -0.4179 -0.1679 -0.1631
  259SOL    HW1  776   0.399   2.902   3.088  3.8919  0.6726 -0.0166
  259SOL    HW2  777   0.500   2.910   2.948  2.3344 -2.7664 -1.0286
  260SOL     OW  778   2.708   0.826   2.815  0.0824  0.0376  0.1620
  260SOL    HW1  779   2.625   0.844   2.759 -1.9262 -0.9024 -0.8691
  260SOL    HW2  780   2.709   0.844   2.915  1.0480 -0.8585 -0.1142
  261SOL     OW  781   2.756   1.348   1.236  0.1799  0.3994  0.2903
  261SOL    HW1  782   2.709   1.299   1.155  0.7498  1.5863  2.0054
  261SOL    HW2  783   2.853   1.308   1.251  1.3839 -0.3282 -0.3611
  262SOL     OW  784   1.423   2.965   2.036 -0.0690  0.1410 -0.2879
  262SOL    HW1  785   1.424   3.056   1.987 -0.1185  0.5730 -1.4113
  262SOL    HW2  786   1.337   2.917   2.008  0.0123  1.3370  0.4185
  263SOL     OW  787   0.848   0.699   2.362  0.3036 -0.4876  0.1985
  263SOL    HW1  788   0.796   0.620   2.321  0.6174 -1.2655  3.6876
  263SOL    HW2  789   0.893   0.749   2.285  0.2647 -0.6647  1.2622
  264SOL     OW  790   2.207   0.820   0.411  0.2650 -0.3308  0.8297
  264SOL    HW1  791   2.197   0.763   0.328 -2.0522  4.4099 -2.1194
  264SOL    HW2  792   2.301   0.842   0.439 -2.3495  2.1250  1.8775
  265SOL     OW  793   0.924   2.384   2.628  0.3434  0.1517 -0.3718
  265SOL    HW1  794   0.981   2.414   2.712  3.0302  1.8614  2.2119
  265SOL    HW2  795   0.888   2.287   2.639  1.8201 -0.8861 -0.7063
  266SOL     OW  796   1.320   1.723   0.026 -0.4883  0.8339  0.3790
  266SOL    HW1  797   1.312   1.802   0.089  0.8627 -0.5910 -0.5608
  266SOL    HW2  798   1.400   1.727  -0.033 -1.0577  2.0611  0.4958
  267SOL     OW  799   0.997   3.080   2.359  0.4707  0.1298  0.0183
  267SOL    HW1  800   0.971   3.012   2.282  2.0668  2.3437 -0.5610
  267SOL    HW2  801   0.961   3.176   2.338  2.5852  0.4541  0.4848
  268SOL     OW  802   0.599   1.208   1.040 -0.3637 -0.1535 -0.9837
  268SOL    HW1  803   0.599   1.261   1.134 -0.9748  0.8143  0.6542
  268SOL    HW2  804   0.619   1.280   0.972 -0.1803  0.2981  1.2538
  269SOL     OW  805   2.354   2.535   1.607  0.0523  0.4200 -0.0392
  269SOL    HW1  806   2.404   2.455   1.642  1.3263  1.9732  0.5189
  269SOL    HW2  807   2.303   2.580   1.683 -0.1011  0.9719 -2.6001
  270SOL     OW  808   0.192   2.922   2.008 -0.0779 -0.3309  0.3763
  270SOL    HW1  809   0.203   2.925   1.907  1.2317  0.5656  0.7110
  270SOL    HW2  810   0.130   2.848   2.041 -3.5124  0.8230 -1.2407
  271SOL     OW  811   0.408   1.369   1.188  0.4053  0.3398  0.0711
  271SOL    HW1  812   0.358   1.385   1.102  1.0612 -2.2181  0.8437
  271SOL    HW2  813   0.350   1.346   1.269  0.2722  3.2841  0.8586
  272SOL     OW  814   2.000   2.879   1.951  0.6485  0.5134 -0.6363
  272SOL    HW1  815   1.939   2.826   1.880  0.6816  0.2980 -0.0940
  272SOL    HW2  816   2.066   2.939   1.910 -0.8972 -5.4795  0.4106
  273SOL     OW  817   1.476   1.437   2.723  0.4506 -0.1080 -0.5659
  273SOL    HW1  818   1.387   1.491   2.743  1.9008 -0.5392  0.1109
  273SOL    HW2  819   1.507   1.385   2.808 -0.7414 -0.2589 -0.4738
  274SOL     OW  820   1.210   0.486   2.058 -0.6872  0.4043 -0.0109
  274SOL    HW1  821   1.159   0.396   2.051  1.3783  0.4305 -1.0943
  274SOL    HW2  822   1.223   0.530   2.153  0.4807  1.5715  2.4893
  275SOL     OW  823   0.596   2.097   1.906  0.2495 -0.1331 -0.0346
  275SOL    HW1  824   0.548   2.183   1.935  2.4988  2.9618 -1.0553
  275SOL    HW2  825   0.538   2.010   1.888  0.1415 -1.8546 -0.9863
  276SOL     OW  826   2.191   0.942   2.750 -0.2803  0.4569  0.2968
  276SOL    HW1  827   2.100   0.930   2.699  0.7100  1.7960 -1.5199
  276SOL    HW2  828   2.185   0.908   2.845  0.2085 -2.2873  0.1051
  277SOL     OW  829   3.087   0.883   0.226  0.2439 -0.0032  0.0214
  277SOL    HW1  830   3.186   0.905   0.213 -0.4311 -2.1004 -1.1743
  277SOL    HW2  831   3.079   0.801   0.287  0.1237  0.7146 -1.6203
  278SOL     OW  832   0.239   0.272   3.072 -0.1241 -0.1433  0.2147
  278SOL    HW1  833   0.326   0.218   3.062  0.9277 -1.1661  0.2418
  278SOL    HW2  834   0.268   0.370   3.091  0.9027 -1.7674 -0.3091
  279SOL     OW  835   0.210   0.076   0.870  0.1223 -0.6006  0.0571
  279SOL    HW1  836   0.188   0.025   0.957 -2.5817  0.5069  1.4448
  279SOL    HW2  837   0.261   0.020   0.798  0.3944 -0.4954  2.2010
  280SOL     OW  838   1.597   2.941   2.423  0.1962  0.3184  0.0798
  280SOL    HW1  839   1.671   2.997   2.467  0.1093  0.2178  1.0144
  280SOL    HW2  840   1.546   3.002   2.357  1.0098 -0.5211  0.1359
  281SOL     OW  841   0.577   0.990   2.223 -0.1315  0.2587 -0.1705
  281SOL    HW1  842   0.608   0.908   2.166 -0.3173 -0.1945 -1.5188
  281SOL    HW2  843   0.505   0.960   2.291  0.4029 -2.5030 -1.9800
  282SOL     OW  844   1.778   2.498   0.529 -0.2421  0.1110  0.0051
  282SOL    HW1  845   1.748   2.416   0.471  1.3195 -0.1528 -2.6676
  282SOL    HW2  846   1.705   2.570   0.535 -1.4122 -0.6190 -2.4848
  283SOL     OW  847   1.155   0.899   0.819  0.3271  0.9249  0.6666
  283SOL    HW1  848   1.199   0.874   0.905  1.3230 -1.8560 -0.7101
  283SOL    HW2  849   1.059   0.923   0.840  1.2079  1.6685 -1.8681
  284SOL     OW  850   2.282   2.766   2.549  0.0752  0.9037  0.1318
  284SOL    HW1  851   2.389   2.765   2.541  4.2502  1.5822  0.5009
  284SOL    HW2  852   2.254   2.822   2.628 -1.5786 -2.5362  1.7674
  285SOL     OW  853   1.313   3.046   2.591  0.0628 -0.0874 -0.2494
  285SOL    HW1  854   1.313   3.040   2.488 -0.2484  0.7313 -3.1434
  285SOL    HW2  855   1.226   3.046   2.638  3.4127 -0.2140 -1.2168
  286SOL     OW  856   0.447   0.462   0.734  0.4280  0.0486 -0.3260
  286SOL    HW1  857   0.415   0.411   0.821  0.9240  1.2853 -1.7869
  286SOL    HW2  858   0.454   0.395   0.652  1.8450 -0.4322 -1.5673
  287SOL     OW  859   0.101   1.297   2.497  0.0801  0.1200 -0.4387
  287SOL    HW1  860   0.027   1.257   2.562  1.5614 -1.3636 -0.1628
  287SOL    HW2  861   0.099   1.396   2.506  0.9207 -4.8018 -2.5702
  288SOL     OW  862   1.578   2.623   1.600  0.4609 -0.1616  0.1685
  288SOL    HW1  863   1.603   2.546   1.666  1.0067 -4.4709  0.5424
  288SOL    HW2  864   1.613   2.617   1.503  2.9809 -0.5923  4.9036
  289SOL     OW  865   0.664   2.700   0.888 -0.3052  0.4398  0.6410
  289SOL    HW1  866   0.703   2.744   0.802 -0.7883 -0.0733  1.9285
  289SOL    HW2  867   0.629   2.771   0.954 -1.1397  2.0252  0.3020
  290SOL     OW  868   2.816   1.098   1.725 -0.1345  0.5453 -0.0368
  290SOL    HW1  869   2.734   1.037   1.730 -0.0654  0.8593  2.4216
  290SOL    HW2  870   2.904   1.065   1.772  0.6801 -0.0582  1.0413
  291SOL     OW  871   1.989   0.050   0.031  0.4721 -0.1739 -0.0010
  291SOL    HW1  872   1.987   0.056   0.136 -2.7250 -1.4817  1.9324
  291SOL    HW2  873   2.050   0.116  -0.016  1.8980  2.6412 -1.8399
  292SOL     OW  874   3.001   1.148   3.025 -0.1301 -0.0396  0.7587
  292SOL    HW1  875   2.946   1.218   2.980  1.5510 -0.3057  1.9151
  292SOL    HW2  876   3.092   1.139   2.980 -1.1164  0.1433  1.6462
  293SOL     OW  877   0.559   2.141   0.216 -0.4191  0.0076  0.1503
  293SOL    HW1  878   0.488   2.200   0.274 -0.1647  0.2444  2.6920
  293SOL    HW2  879   0.635   2.100   0.266  1.1785  1.0929  0.0997
  294SOL     OW  880   1.824   2.265   1.794  0.1749  0.0658 -0.5765
  294SOL    HW1  881   1.823   2.296   1.892  1.4731 -2.5171  2.2513
  294SOL    HW2  882   1.779   2.323   1.722  0.9888 -1.1925 -0.2171
  295SOL     OW  883   0.977   1.071   0.476 -0.0122 -0.1657 -0.2994
  295SOL    HW1  884   1.065   1.055   0.521  1.5496 -0.2858  1.0620
  295SOL    HW2  885   0.891   1.065   0.543 -1.5243  0.5727  2.2768
  296SOL     OW  886   1.195   2.133   2.564 -0.5335 -0.6261 -0.0077
  296SOL    HW1  887   1.111   2.200   2.552 -4.0129  0.0520 -0.1116
  296SOL    HW2  888   1.210   2.062   2.492  2.6166 -0.3324 -0.5341
  297SOL     OW  889   1.429   0.614   1.344 -0.1278  0.0373  0.2037
  297SOL    HW1  890   1.396   0.522   1.373 -2.1295 -2.0491 -1.2606
  297SOL    HW2  891   1.527   0.633   1.372 -1.2296 -0.4762 -2.8584
  298SOL     OW  892   0.532   1.327   2.990 -0.4969 -0.4158  1.1687
  298SOL    HW1  893   0.483   1.276   3.064  2.7734  2.0670  0.2690
  298SOL    HW2  894   0.554   1.275   2.905 -0.9848 -1.5772 -3.1634
  299SOL     OW  895   0.477   0.267   1.288 -0.4433  0.0370 -0.8881
  299SOL    HW1  896   0.455   0.366   1.303  1.2234  0.8610 -1.7562
  299SOL    HW2  897   0.531   0.229   1.369  2.7998 -0.3218  2.9008
  300SOL     OW  898   1.247   1.790   2.734 -0.5538 -0.1401 -0.0450
  300SOL    HW1  899   1.248   1.690   2.760 -1.5297 -3.8197 -1.6711
  300SOL    HW2  900   1.345   1.822   2.720 -1.5992  0.7914 -1.4732
  301SOL     OW  901   0.439   0.297   0.499  0.0232 -0.4146 -0.2563
  301SOL    HW1  902   0.335   0.300   0.493  0.3041 -1.8358 -0.3121
  301SOL    HW2  903   0.484   0.212   0.458 -2.8712 -0.8173 -0.8979
  302SOL     OW  904   1.276   2.461   2.340  0.0507 -0.1537 -0.2782
  302SOL    HW1  905   1.206   2.533   2.366  1.5677 -1.7793 -0.6658
  302SOL    HW2  906   1.238   2.366   2.345  0.3158 -2.1779  3.3757
  303SOL     OW  907   0.939   2.404   0.826  0.1111  0.3886 -0.4085
  303SOL    HW1  908   1.020   2.400   0.762  1.2282 -0.9175  0.2529
  303SOL    HW2  909   0.958   2.474   0.899 -0.6440 -2.1196 -0.0623
  304SOL     OW  910   0.061   1.946   0.629 -0.6435 -0.3788  0.6713
  304SOL    HW1  911   0.118   1.929   0.546 -1.3030 -0.8461  1.2920
  304SOL    HW2  912   0.013   2.037   0.624 -1.6088 -1.2733  3.1898
  305SOL     OW  913   1.596   0.885   0.586 -0.9835  0.3261  0.0192
  305SOL    HW1  914   1.547   0.881   0.491 -1.5676  1.1230  0.2953
  305SOL    HW2  915   1.631   0.791   0.615  0.1884 -0.5171  0.4592
  306SOL     OW  916   0.412   1.844   1.922 -0.3549  0.1013 -0.4575
  306SOL    HW1  917   0.497   1.793   1.901 -0.3754 -2.1429  2.1347
  306SOL    HW2  918   0.410   1.892   2.015  1.1353  0.3399  2.7684
  307SOL     OW  919   3.049   0.898   2.473 -0.5219  0.1101  0.0903
  307SOL    HW1  920   3.074   0.968   2.542  1.6161 -2.7049  0.5104
  307SOL    HW2  921   2.969   0.840   2.505  0.3863  1.2970  2.2169
  308SOL     OW  922   1.546   2.681   2.816  0.3240  0.4277  0.5492
  308SOL    HW1  923   1.564   2.653   2.718  1.6312 -0.1793  0.3492
  308SOL    HW2  924   1.503   2.602   2.863 -1.4533  1.3100 -0.6563
  309SOL     OW  925   1.273   0.195   1.731  0.1478  0.4677 -0.1427
  309SOL    HW1  926   1.358   0.150   1.771 -0.2423 -0.5757 -0.1238
  309SOL    HW2  927   1.253   0.165   1.636  0.1777 -2.7524  2.7966
  310SOL     OW  928   1.508   2.574   0.704 -0.2700 -0.4127  0.2030
  310SOL    HW1  929   1.493   2.600   0.800  2.1033  1.8068  0.7837
  310SOL    HW2  930   1.539   2.650   0.639 -1.4332 -1.1568  0.8470
  311SOL     OW  931   1.183   0.967   1.656 -0.1606 -0.3745  0.4441
  311SOL    HW1  932   1.234   0.881   1.621 -0.5341 -2.1740 -1.5550
  311SOL    HW2  933   1.211   1.053   1.604 -0.8250 -0.7742 -2.5799
  312SOL     OW  934   1.659   0.734   1.114  0.2342 -0.2123  0.5317
  312SOL    HW1  935   1.664   0.799   1.036  0.0675  0.9043  0.7629
  312SOL    HW2  936   1.567   0.697   1.125  0.0726  0.3620  0.1809
  313SOL     OW  937   1.563   1.362   0.716  0.9410 -0.1356 -0.4362
  313SOL    HW1  938   1.468   1.394   0.754 -2.0050  2.4411  0.5279
  313SOL    HW2  939   1.547   1.275   0.663 -1.0184 -0.1934  2.8735
  314SOL     OW  940   2.948   0.036   2.993  0.0064 -0.4204 -0.2204
  314SOL    HW1  941   2.958   0.038   3.096 -0.7280 -0.8249  0.0413
  314SOL    HW2  942   2.855  -0.009   2.977 -0.4738  0.1100  1.2888
  315SOL     OW  943   1.201   0.191   2.759 -0.5665 -0.0213  0.3703
  315SOL    HW1  944   1.122   0.126   2.729 -3.3504 -0.8224 -2.4302
  315SOL    HW2  945   1.278   0.142   2.803 -0.3238  0.6076  1.4397
  316SOL     OW  946   1.740   2.032   0.876 -0.0439 -0.0525 -0.2383
  316SOL    HW1  947   1.711   2.039   0.976 -0.6776 -1.6993  1.8774
  316SOL    HW2  948   1.747   2.126   0.827 -2.7869 -0.7547  1.9138
  317SOL     OW  949   1.150   0.614   2.870  0.6952  0.4435 -0.1164
  317SOL    HW1  950   1.085   0.676   2.927  2.9826 -0.9421  1.9618
  317SOL    HW2  951   1.105   0.550   2.804 -0.5457 -1.5748 -0.9442
  318SOL     OW  952   1.350   3.048   2.293  0.2334 -0.9042  0.2306
  318SOL    HW1  953   1.332   3.149   2.303  1.3177  0.0997 -0.9548
  318SOL    HW2  954   1.401   3.023   2.207 -0.1364  0.2355  0.3873
  319SOL     OW  955   0.637   2.426   2.927 -0.6034  0.3621  0.0482
  319SOL    HW1  956   0.571   2.373   2.984  0.3622  0.2465 -0.6768
  319SOL    HW2  957   0.728   2.378   2.925  0.8811  2.0617  0.8239
  320SOL     OW  958   1.687   2.245   0.431 -0.1482 -0.2948  0.4820
  320SOL    HW1  959   1.759   2.174   0.398 -1.2258  1.5532  0.5912
  320SOL    HW2  960   1.596   2.208   0.457 -1.4202 -1.5412  0.6541
  321SOL     OW  961   1.621   2.777   0.513  0.3767  0.8950  0.2403
  321SOL    HW1  962   1.554   2.807   0.436  1.9027  0.2952 -1.9436
  321SOL    HW2  963   1.704   2.841   0.507 -2.3024  0.6754 -1.2719
  322SOL     OW  964   2.600   1.114   2.355 -0.1954 -0.0577 -0.7723
  322SOL    HW1  965   2.689   1.130   2.411  0.7552  1.6040  1.0925
  322SOL    HW2  966   2.566   1.017   2.367 -0.7023 -0.5876 -2.8266
  323SOL     OW  967   1.191   2.671   0.829 -0.2418  0.7939 -0.0193
  323SOL    HW1  968   1.147   2.618   0.751  0.0657  1.1624  1.1161
  323SOL    HW2  969   1.137   2.755   0.850  0.2490 -2.2925 -0.4169
  324SOL     OW  970   0.263   2.453   2.517  0.0714 -0.2768 -0.1523
  324SOL    HW1  971   0.321   2.450   2.601 -2.2141 -1.3927 -2.8353
  324SOL    HW2  972   0.165   2.478   2.527  1.4310  0.1787 -2.3943
  325SOL     OW  973   1.290   3.065   0.487 -0.2861  0.2184 -0.2978
  325SOL    HW1  974   1.294   3.118   0.399 -3.3615 -1.1153  1.3960
  325SOL    HW2  975   1.321   3.119   0.568  1.1205 -0.6387 -2.1887
  326SOL     OW  976   2.468   0.812   3.092 -0.2740 -0.0196  0.3959
  326SOL    HW1  977   2.456   0.772   2.997  1.2148  2.0294  1.9184
  326SOL    HW2  978   2.527   0.751   3.150 -0.6919  0.2393 -2.3720
  327SOL     OW  979   2.854   0.334   0.667  0.0549 -0.0612 -0.0869
  327SOL    HW1  980   2.864   0.250   0.603 -1.4862  0.3268 -2.5545
  327SOL    HW2  981   2.895   0.335   0.761 -0.9643  0.0114  3.3295
  328SOL     OW  982   2.601   0.575   0.411  0.2404 -0.4943 -0.1335
  328SOL    HW1  983   2.524   0.648   0.418  1.1944 -0.0561 -0.1241
  328SOL    HW2  984   2.589   0.492   0.473  2.4122 -0.6656 -1.0841
  329SOL     OW  985   2.941   2.985   2.145 -0.0759  0.4077  0.0458
  329SOL    HW1  986   3.028   2.950   2.194  0.6931 -1.7299 -2.1429
  329SOL    HW2  987   2.928   3.088   2.154  0.7059 -1.1358 -1.3119
  330SOL     OW  988   0.531   0.162   1.869 -0.3406  0.2525  0.6551
  330SOL    HW1  989   0.629   0.168   1.826  0.6810  0.0698 -1.5024
  330SOL    HW2  990   0.541   0.110   1.962 -1.0330 -0.0097  2.5888
  331SOL     OW  991   2.984   1.924   1.159 -0.4887  0.2969 -0.2298
  331SOL    HW1  992   2.983   2.012   1.110  0.4178  0.9743  1.5989
  331SOL    HW2  993   2.906   1.930   1.230 -0.3389  1.1154  0.3347
  332SOL     OW  994   0.382   1.163   0.048  0.0036 -0.0856  0.4206
  332SOL    HW1  995   0.334   1.082   0.003 -5.5738 -0.5422  0.3896
  332SOL    HW2  996   0.348   1.171   0.146  0.8909 -1.3228 -0.2846
  333SOL     OW  997   2.866   1.043   0.299  0.5891  0.0607  0.3462
  333SOL    HW1  998   2.905   1.126   0.343 -2.0033  1.1349 -1.7552
  333SOL    HW2  999   2.935   0.971   0.269  2.4096  0.7570 -1.2547
  334SOL     OW 1000   1.689   1.265   1.847  0.4568 -0.1190 -0.0340
  334SOL    HW1 1001   1.783   1.242   1.801  2.9454  1.7384  1.8659
  334SOL    HW2 1002   1.705   1.301   1.947 -0.0142 -0.5349  1.4865
  335SOL     OW 1003   1.982   2.734   2.594 -0.3649 -0.2124 -0.5103
  335SOL    HW1 1004   1.913   2.782   2.654  0.9816  2.4546  0.4083
  335SOL    HW2 1005   2.079   2.724   2.629  0.0947 -1.3589 -0.5963
  336SOL     OW 1006   0.234   0.146   2.764  0.3062 -0.6328 -0.4487
  336SOL    HW1 1007   0.314   0.139   2.833 -0.4443  1.3189  2.8377
  336SOL    HW2 1008   0.146   0.104   2.798 -1.0007  0.6914 -2.0872
  337SOL     OW 1009   0.922   2.870   2.852  0.6007  0.2023  0.4063
  337SOL    HW1 1010   0.909   2.811   2.934  1.3876  0.4828 -1.1805
  337SOL    HW2 1011   1.018   2.858   2.818 -0.2264  0.2392  2.0006
  338SOL     OW 1012   0.022   1.016   0.628  0.3228  0.0271  0.4925
  338SOL    HW1 1013  -0.076   0.983   0.650  1.2441 -0.9151 -1.9122
  338SOL    HW2 1014   0.024   1.122   0.624  1.3162 -0.6440  0.1803
  339SOL     OW 1015   1.681   1.349   2.109 -0.1251 -0.2432 -0.4902
  339SOL    HW1 1016   1.577   1.355   2.099 -2.1363 -2.4963 -0.4511
  339SOL    HW2 1017   1.725   1.430   2.159  2.3604  2.0312  2.4550
  340SOL     OW 1018   2.341   0.799   1.101  0.2020  0.0980 -0.1546
  340SOL    HW1 1019   2.237   0.792   1.101 -1.6572  1.8099  0.2079
  340SOL    HW2 1020   2.380   0.706   1.082 -1.4375  2.0439  1.0618
  341SOL     OW 1021   1.886   2.111   0.321 -0.6190 -0.0939 -0.5224
  341SOL    HW1 1022   1.899   2.163   0.230  0.2828  1.3004 -1.7642
  341SOL    HW2 1023   1.977   2.088   0.364 -0.1313 -0.6077  1.8105
  342SOL     OW 1024   2.255   2.135   2.750  0.2214  0.0310  0.7044
  342SOL    HW1 1025   2.279   2.057   2.810  1.2373  0.8203 -1.1246
  342SOL    HW2 1026   2.164   2.130   2.699  1.0647  0.2455  2.8941
  343SOL     OW 1027   0.356   0.848   2.728  0.3405 -0.4261 -0.0497
  343SOL    HW1 1028   0.344   0.948   2.707  1.2855 -0.0237  2.7295
  343SOL    HW2 1029   0.429   0.836   2.799  2.7586 -1.8579  2.3812
  344SOL     OW 1030   1.914   1.420   0.428  0.1975 -0.0956  0.3218
  344SOL    HW1 1031   1.909   1.354   0.348  1.5788 -1.3165  0.5342
  344SOL    HW2 1032   1.822   1.455   0.462  0.9754  2.3265  0.0014
  345SOL     OW 1033   1.405   2.248   2.929 -0.5095 -0.4398  0.3213
  345SOL    HW1 1034   1.319   2.231   2.876  1.6960  1.7121  0.0004
  345SOL    HW2 1035   1.485   2.205   2.878  0.9386  1.9709  0.4267
  346SOL     OW 1036   2.367   0.879   1.361 -0.6222 -0.0191  0.0582
  346SOL    HW1 1037   2.303   0.958   1.385  2.1072  1.4283  2.5088
  346SOL    HW2 1038   2.368   0.851   1.258 -0.9357  0.7801 -2.2780
  347SOL     OW 1039   0.742   2.764   1.562 -0.1350 -0.3912  0.1296
  347SOL    HW1 1040   0.676   2.755   1.643  0.5547  1.5555  0.9690
  347SOL    HW2 1041   0.749   2.859   1.529 -0.2344 -1.0068  0.9357
  348SOL     OW 1042   0.209   0.685   2.918  0.0292 -0.0585  0.3693
  348SOL    HW1 1043   0.105   0.677   2.895  0.3689 -3.2901  1.8076
  348SOL    HW2 1044   0.267   0.729   2.851 -3.1858 -0.3752  1.9318
  349SOL     OW 1045   1.880   0.471   2.817 -0.4648  0.1841  0.0325
  349SOL    HW1 1046   1.888   0.551   2.749  1.2382 -0.8550  1.8966
  349SOL    HW2 1047   1.878   0.512   2.915 -0.2525  2.1097  0.1853
  350SOL     OW 1048   1.659   0.445   0.383  0.3070 -0.2972  0.5334
  350SOL    HW1 1049   1.737   0.449   0.456  1.5633 -1.4920 -0.3796
  350SOL    HW2 1050   1.625   0.537   0.348  0.9358 -0.3619 -2.5187
  351SOL     OW 1051   1.007   0.831   2.154  0.0528 -0.5368 -0.0708
  351SOL    HW1 1052   1.001   0.934   2.138 -1.2347  1.1265 -0.5694
  351SOL    HW2 1053   1.022   0.782   2.063  2.4432 -2.5070  2.6967
  352SOL     OW 1054   1.988   1.305   0.664 -0.5112 -0.2726 -0.0219
  352SOL    HW1 1055   1.966   1.353   0.574 -2.0721  3.9489 -0.1571
  352SOL    HW2 1056   1.924   1.328   0.742  0.9579  1.0070 -3.9065
  353SOL     OW 1057   2.145   2.799   1.082 -0.4492 -0.2341  0.1802
  353SOL    HW1 1058   2.208   2.745   1.144 -0.6565 -2.4051 -1.3760
  353SOL    HW2 1059   2.060   2.741   1.059  1.0858 -3.0496  4.1966
  354SOL     OW 1060   0.274   1.377   2.910 -0.5378 -0.0063 -0.2802
  354SOL    HW1 1061   0.255   1.435   2.827 -1.6239  0.8681 -2.3630
  354SOL    HW2 1062   0.372   1.383   2.944 -0.4898 -2.3310  0.7633
  355SOL     OW 1063   0.669   1.562   0.585  0.9482  0.0647 -0.2693
  355SOL    HW1 1064   0.677   1.602   0.682  1.5686  3.5965  0.1386
  355SOL    HW2 1065   0.672   1.458   0.581  2.6416  1.2346  1.6929
  356SOL     OW 1066   0.846   0.334   2.073 -0.2637  0.5512 -0.1423
  356SOL    HW1 1067   0.935   0.277   2.075  3.2299 -2.2720  1.8973
  356SOL    HW2 1068   0.815   0.356   1.975 -0.9040 -1.5939 -1.6860
  357SOL     OW 1069   1.016   1.315   0.321 -0.0132  0.4587 -0.2278
  357SOL    HW1 1070   1.003   1.279   0.226  1.3632  0.0701 -1.0312
  357SOL    HW2 1071   0.991   1.246   0.395  0.4277 -1.1331  0.7155
  358SOL     OW 1072   1.664   1.506   0.495  0.2975 -0.2059 -0.0439
  358SOL    HW1 1073   1.617   1.453   0.568 -0.6092  0.2593 -1.4311
  358SOL    HW2 1074   1.606   1.497   0.410  1.3900 -0.6809  0.5331
  359SOL     OW 1075   1.575   2.625   0.197 -0.3021 -0.1024  0.2946
  359SOL    HW1 1076   1.557   2.523   0.172 -0.9166 -0.6496  1.7935
  359SOL    HW2 1077   1.511   2.692   0.163  0.9806 -1.0961 -0.7209
  360SOL     OW 1078   0.850   0.570   0.557 -0.4564 -0.0740 -0.5615
  360SOL    HW1 1079   0.751   0.594   0.536  2.2836  0.4978  0.5048
  360SOL    HW2 1080   0.863   0.471   0.578 -1.3658  1.4607 -2.3261
  361SOL     OW 1081   1.237   1.302   0.719 -0.5217 -0.2453 -0.4350
  361SOL    HW1 1082   1.290   1.373   0.771 -1.1026  0.3245 -1.6778
  361SOL    HW2 1083   1.139   1.325   0.698  0.3039 -0.8173 -0.7972
  362SOL     OW 1084   1.393   1.848   0.815  0.1579  0.1854  0.3223
  362SOL    HW1 1085   1.434   1.776   0.878 -1.6070 -1.1978 -2.4134
  362SOL    HW2 1086   1.438   1.849   0.721 -0.1890 -0.6125  0.4395
  363SOL     OW 1087   1.230   1.248   2.041  0.5397 -0.1431 -0.3364
  363SOL    HW1 1088   1.308   1.283   2.103 -4.2334  3.0872  1.7296
  363SOL    HW2 1089   1.212   1.314   1.960  1.8906 -1.5799  0.1171
  364SOL     OW 1090   0.497   2.336   2.004  0.2147  0.1123  0.2739
  364SOL    HW1 1091   0.397   2.368   2.004 -1.5746 -3.7868  1.3748
  364SOL    HW2 1092   0.554   2.375   1.925 -1.7298  1.9565  3.0092
  365SOL     OW 1093   0.997   1.917   1.399 -0.1268  0.5562 -0.3987
  365SOL    HW1 1094   0.905   1.964   1.391  1.0983 -0.3931 -0.8080
  365SOL    HW2 1095   1.040   1.916   1.305 -1.1596  1.2732 -2.5347
  366SOL     OW 1096   2.817   2.030   0.410  0.5277 -0.5293 -0.8385
  366SOL    HW1 1097   2.716   2.015   0.437 -1.0576  1.3974  1.1302
  366SOL    HW2 1098   2.866   1.954   0.359 -1.7064  0.7320  0.7725
  367SOL     OW 1099   0.911   1.110   0.105 -0.5179 -0.1090 -1.2445
  367SOL    HW1 1100   0.946   1.025   0.154 -1.3192  1.3018  2.4673
  367SOL    HW2 1101   0.972   1.140   0.028  1.5084 -1.1370  1.8587
  368SOL     OW 1102   1.449   0.551   0.700  1.0444  0.5636 -0.4621
  368SOL    HW1 1103   1.407   0.576   0.611 -0.8147 -0.9859  1.0898
  368SOL    HW2 1104   1.542   0.585   0.700 -1.9332 -0.3292  3.2880
  369SOL     OW 1105   0.329   1.698   0.069  0.1874 -0.4783 -0.2788
  369SOL    HW1 1106   0.343   1.779   0.132 -1.1851  0.0740 -0.7539
  369SOL    HW2 1107   0.280   1.617   0.114 -1.3790 -1.0186  2.4269
  370SOL     OW 1108   0.455   2.077   0.983  0.0441 -0.2086  0.0470
  370SOL    HW1 1109   0.469   2.182   0.961 -0.1632 -0.4537  0.6489
  370SOL    HW2 1110   0.355   2.047   0.973 -1.3744 -2.0714  1.4369
  371SOL     OW 1111   2.915   2.186   2.655 -0.1822  0.1529 -0.0072
  371SOL    HW1 1112   2.825   2.155   2.701 -2.4915  0.0689 -0.6341
  371SOL    HW2 1113   2.996   2.201   2.714 -2.6720  0.2145 -1.6952
  372SOL     OW 1114   1.127   2.032   1.091 -0.2851  0.0458 -0.4349
  372SOL    HW1 1115   1.033   2.055   1.051 -2.1044 -0.4917  1.2491
  372SOL    HW2 1116   1.203   2.076   1.037  1.2641 -0.5615 -0.7816
  373SOL     OW 1117   2.018   1.991   0.858  0.4370  0.0954  0.1999
  373SOL    HW1 1118   2.079   1.997   0.943  0.5510 -0.1769  1.2303
  373SOL    HW2 1119   1.916   2.014   0.863  0.0101 -0.5874  0.8180
  374SOL     OW 1120   1.847   0.388   0.572  0.5017 -0.2329 -0.1727
  374SOL    HW1 1121   1.819   0.309   0.641 -2.9608 -1.6163  0.4764
  374SOL    HW2 1122   1.945   0.391   0.554 -1.0403  3.0609 -1.7963
  375SOL     OW 1123   2.418   2.178   1.085 -0.9199  0.4530 -0.4759
  375SOL    HW1 1124   2.479   2.132   1.014 -1.2438 -1.2538  2.0342
  375SOL    HW2 1125   2.450   2.157   1.182 -1.6423  0.0145 -0.4899
  376SOL     OW 1126   3.062   0.569   1.466 -0.1021  0.2283  0.0779
  376SOL    HW1 1127   3.064   0.599   1.563 -0.7011 -0.1474  1.0431
  376SOL    HW2 1128   2.976   0.518   1.437  0.3333  1.7874 -0.5800
  377SOL     OW 1129   2.221   2.882   0.324 -0.2513  0.4051 -0.1638
  377SOL    HW1 1130   2.212   2.986   0.335 -1.2202  1.4631 -0.2955
  377SOL    HW2 1131   2.319   2.860   0.323 -0.7746  1.9987 -1.0920
  378SOL     OW 1132   1.856   1.852   2.597 -0.1816 -0.0123  0.4429
  378SOL    HW1 1133   1.934   1.812   2.650  0.2656  0.6949  2.7895
  378SOL    HW2 1134   1.812   1.794   2.528  1.5671  1.9156 -0.6839
  379SOL     OW 1135   0.744   0.146   2.895 -0.0108 -0.2496  0.9192
  379SOL    HW1 1136   0.729   0.064   2.828 -1.1193 -1.0374 -0.1162
  379SOL    HW2 1137   0.774   0.225   2.835 -3.4945 -1.4772  1.7311
  380SOL     OW 1138   1.486   1.138   0.579  0.3816 -0.0976  0.4508
  380SOL    HW1 1139   1.393   1.130   0.544  2.6481 -1.7956 -1.1082
  380SOL    HW2 1140   1.517   1.042   0.605 -0.5615  0.8243  0.0009
  381SOL     OW 1141   1.379   1.175   1.544 -0.0228 -0.1393  1.1307
  381SOL    HW1 1142   1.424   1.172   1.450  0.2983 -1.3688  2.9054
  381SOL    HW2 1143   1.443   1.136   1.616  0.7073  0.9000 -0.2262
  382SOL     OW 1144   1.774   0.829   0.177 -0.4226  0.0969  0.2138
  382SOL    HW1 1145   1.809   0.845   0.076  1.4592 -1.3042 -1.5193
  382SOL    HW2 1146   1.837   0.873   0.250 -0.4773 -1.6178  1.3516
  383SOL     OW 1147   2.605   0.986   1.455  0.1181 -0.3108  0.5012
  383SOL    HW1 1148   2.525   0.935   1.422 -0.1723  3.5812  1.9623
  383SOL    HW2 1149   2.688   0.960   1.396  1.0218 -0.1783 -1.2646
  384SOL     OW 1150   0.897   2.303   0.131  0.2445 -0.4643  0.5540
  384SOL    HW1 1151   0.880   2.395   0.177 -2.4071  2.2781 -2.5914
  384SOL    HW2 1152   0.871   2.221   0.190  0.3469 -1.0547  1.6249
  385SOL     OW 1153   3.050   2.037   1.661 -0.1182  0.4528 -0.3166
  385SOL    HW1 1154   3.102   2.124   1.632 -0.5116  0.6881  0.3953
  385SOL    HW2 1155   3.097   1.948   1.652  1.4703  3.0204 -0.3415
  386SOL     OW 1156   0.482   1.098   0.396  0.1895 -0.0828 -0.2945
  386SOL    HW1 1157   0.481   1.000   0.425  2.1307  3.0216  2.0411
  386SOL    HW2 1158   0.389   1.136   0.363 -0.6228  0.6003 -1.5501
  387SOL     OW 1159   0.923   0.362   1.622  0.0804 -0.8293  0.0496
  387SOL    HW1 1160   1.015   0.412   1.629  0.3994  0.5737  1.0383
  387SOL    HW2 1161   0.916   0.308   1.537 -0.4098  1.1959  1.9680
  388SOL     OW 1162   1.190   2.599   1.760  0.1283  0.3642 -0.7052
  388SOL    HW1 1163   1.248   2.592   1.677 -0.1062  1.5908  1.9193
  388SOL    HW2 1164   1.215   2.535   1.835 -3.8199  2.5362  1.1535
  389SOL     OW 1165   0.151   3.004   1.082 -0.2442 -0.5549 -0.3452
  389SOL    HW1 1166   0.055   2.983   1.047 -1.0032 -0.7200 -1.1395
  389SOL    HW2 1167   0.207   2.919   1.084  0.4449  2.1809  1.9776
  390SOL     OW 1168   1.027   0.942   1.341  0.4828  0.0747  0.0359
  390SOL    HW1 1169   1.124   0.909   1.361  1.8779  1.6412  3.1229
  390SOL    HW2 1170   1.000   1.024   1.395 -1.0389  0.4705  0.6894
  391SOL     OW 1171   2.096   1.158   1.051  0.4211 -0.8393  0.7496
  391SOL    HW1 1172   2.018   1.091   1.079 -0.1078 -0.9814  0.5734
  391SOL    HW2 1173   2.142   1.120   0.969 -0.1071 -1.8353  2.6369
  392SOL     OW 1174   0.883   2.681   3.061  0.1713  0.4304  0.3978
  392SOL    HW1 1175   0.810   2.639   3.113  4.3371 -1.1385 -0.4778
  392SOL    HW2 1176   0.959   2.710   3.126 -1.1458  3.4577  0.5148
  393SOL     OW 1177   0.298   0.507   1.986 -0.4395  0.0006 -0.4547
  393SOL    HW1 1178   0.262   0.409   1.962  0.1225 -0.9428  0.9394
  393SOL    HW2 1179   0.364   0.547   1.921  0.8706  2.8477  2.3518
  394SOL     OW 1180   3.010   1.866   2.752  0.8361 -0.2130 -0.1123
  394SOL    HW1 1181   3.090   1.914   2.797  2.9754  1.0692 -0.2514
  394SOL    HW2 1182   3.027   1.845   2.651 -0.3291  1.6101  1.4760
  395SOL     OW 1183   1.606   1.939   0.651  0.1530  0.0018  1.2317
  395SOL    HW1 1184   1.644   1.877   0.575  3.8792  0.0612  0.5758
  395SOL    HW2 1185   1.682   1.968   0.717  1.4996  0.1327  0.0521
  396SOL     OW 1186   2.774   1.946   1.343  0.9981 -0.8102  0.2409
  396SOL    HW1 1187   2.674   1.984   1.329  1.8852 -0.3981  0.7209
  396SOL    HW2 1188   2.792   1.931   1.443 -0.6526  1.8145 -0.9201
  397SOL     OW 1189   0.998   2.200   0.503  0.6387  0.2675 -0.2510
  397SOL    HW1 1190   0.913   2.134   0.520 -0.1125 -1.5585  0.6902
  397SOL    HW2 1191   0.976   2.297   0.497  1.7947 -0.7831  0.1462
  398SOL     OW 1192   2.115   3.067   1.075 -0.0684 -0.5971 -0.1224
  398SOL    HW1 1193   2.117   2.962   1.093 -0.3499  3.6725  0.4324
  398SOL    HW2 1194   2.028   3.110   1.107 -1.6245 -2.0019 -0.6019
  399SOL     OW 1195   2.973   2.525   2.659  0.7884  0.5247 -1.5130
  399SOL    HW1 1196   2.893   2.489   2.600 -2.1526 -2.4827 -3.6152
  399SOL    HW2 1197   2.989   2.467   2.744 -1.6445  2.3187 -1.5536
  400SOL     OW 1198   0.795   1.605   1.312 -0.1955  0.3342 -0.2716
  400SOL    HW1 1199   0.793   1.651   1.408 -0.7271  1.7355  1.8968
  400SOL    HW2 1200   0.753   1.668   1.244  0.9657 -0.1577  1.6475
  401SOL     OW 1201   1.816   0.106   1.367 -0.5211  0.0797 -0.3917
  401SOL    HW1 1202   1.861   0.162   1.441 -1.6441 -0.0987  1.2660
  401SOL    HW2 1203   1.712   0.107   1.376  2.1027  1.5423  0.0009
  402SOL     OW 1204   1.330   0.140   3.034 -0.1291  0.3926 -0.0705
  402SOL    HW1 1205   1.422   0.138   2.989  1.0506  2.3308 -3.1894
  402SOL    HW2 1206   1.303   0.240   3.059  0.4484  1.3246 -0.8001
  403SOL     OW 1207   2.312   1.816   0.884 -0.1340 -0.2359 -0.2560
  403SOL    HW1 1208   2.418   1.816   0.906  1.0001  0.7068  0.5764
  403SOL    HW2 1209   2.248   1.867   0.950 -3.3006 -1.5622 -1.1340
  404SOL     OW 1210   0.178   2.504   2.814  0.2318  0.0096  0.2934
  404SOL    HW1 1211   0.282   2.486   2.818 -0.5059 -0.7913 -2.7201
  404SOL    HW2 1212   0.159   2.607   2.821 -3.3607  0.4298  1.9533
  405SOL     OW 1213   0.162   2.427   0.626  0.6106  0.0039  0.4942
  405SOL    HW1 1214   0.119   2.367   0.552  2.8239 -0.3144 -1.3253
  405SOL    HW2 1215   0.217   2.503   0.581 -0.0288  3.8252 -1.5496
  406SOL     OW 1216   0.028   1.482   2.998 -0.1579 -0.0399 -0.4364
  406SOL    HW1 1217   0.116   1.443   2.956 -0.0591 -1.0599  1.3438
  406SOL    HW2 1218   0.041   1.531   3.088 -0.8442  1.9608  3.1949
  407SOL     OW 1219   1.578   0.928   0.906  0.2765 -0.1788  0.2343
  407SOL    HW1 1220   1.533   0.857   0.848  0.9061  3.1871  0.4267
  407SOL    HW2 1221   1.510   1.003   0.935  0.1452  0.6514 -1.4695
  408SOL     OW 1222   1.604   2.326   0.949 -0.1691 -0.3293  0.8267
  408SOL    HW1 1223   1.647   2.314   0.853 -1.5408 -2.2000 -2.7511
  408SOL    HW2 1224   1.557   2.415   0.957  1.3820 -4.5719 -1.5563
  409SOL     OW 1225   0.652   0.862   0.716  0.7940 -0.4449 -0.2246
  409SOL    HW1 1226   0.560   0.866   0.666 -2.6323  3.2636 -0.7217
  409SOL    HW2 1227   0.672   0.774   0.768 -0.4184 -1.0066 -2.7569
  410SOL     OW 1228   1.260   2.024   1.431 -0.1337  0.3189  0.0582
  410SOL    HW1 1229   1.335   2.001   1.492  0.7599  0.9739  4.0737
  410SOL    HW2 1230   1.167   1.979   1.459 -2.6670  0.6018  0.2453
  411SOL     OW 1231   2.504   1.854   0.014  0.0961 -0.2840  0.2042
  411SOL    HW1 1232   2.420   1.871  -0.042 -0.1096 -1.0352  0.4102
  411SOL    HW2 1233   2.590   1.861  -0.045 -1.6026 -1.7985  0.2360
  412SOL     OW 1234   1.491   2.534   2.175 -0.5025 -0.6062  0.2722
  412SOL    HW1 1235   1.564   2.607   2.197 -0.7586  0.2493  0.3036
  412SOL    HW2 1236   1.407   2.540   2.237  0.9308 -0.2806  0.2484
  413SOL     OW 1237   3.096   0.268   2.924  0.1839  0.4039  0.2593
  413SOL    HW1 1238   3.028   0.191   2.943 -2.5463  3.4211  1.0291
  413SOL    HW2 1239   3.189   0.261   2.967  1.9711 -2.0126 -2.6883
  414SOL     OW 1240   1.816   1.468   1.273  0.2373 -0.4092 -0.5834
  414SOL    HW1 1241   1.722   1.498   1.306 -0.0524 -0.3212  0.0174
  414SOL    HW2 1242   1.811   1.407   1.185  1.4753 -3.9527 -3.2375
  415SOL     OW 1243   0.291   2.180   0.732 -0.3884 -0.4137  0.5628
  415SOL    HW1 1244   0.220   2.245   0.699  2.0927  2.7843  1.1141
  415SOL    HW2 1245   0.252   2.104   0.794 -0.6599  0.5051 -2.7999
  416SOL     OW 1246   0.373   1.067   1.055 -0.1327  0.0700 -0.0454
  416SOL    HW1 1247   0.339   1.022   0.969  2.2637 -1.3934  0.8272
  416SOL    HW2 1248   0.454   1.133   1.030  0.3193 -1.2918 -1.0149
  417SOL     OW 1249   2.142   2.312   1.905  0.0251  0.2338  0.1849
  417SOL    HW1 1250   2.155   2.213   1.935  1.4918 -0.6888 -0.9294
  417SOL    HW2 1251   2.044   2.338   1.893  0.6368 -2.1170  0.0507
  418SOL     OW 1252   1.133   0.494   1.309  0.0329  0.0824 -0.0352
  418SOL    HW1 1253   1.038   0.470   1.262 -3.3790 -0.6759 -1.5147
  418SOL    HW2 1254   1.186   0.572   1.266  0.7479  0.4639  1.3999
  419SOL     OW 1255   0.994   0.371   3.029 -0.4748  0.0895  0.2466
  419SOL    HW1 1256   0.933   0.421   2.962  1.6299  1.2132  0.0727
  419SOL    HW2 1257   0.936   0.292   3.069 -0.6449 -2.9377 -0.6706
  420SOL     OW 1258   0.131   2.269   0.384 -0.5880 -0.3773  0.1571
  420SOL    HW1 1259   0.119   2.250   0.285 -2.3617  2.0089  0.2336
  420SOL    HW2 1260   0.047   2.244   0.438  0.5719  1.2485  0.2325
  421SOL     OW 1261   0.313   2.985   0.710 -0.1750 -1.0366 -0.1897
  421SOL    HW1 1262   0.302   2.882   0.690  0.0722 -0.3464  2.5489
  421SOL    HW2 1263   0.408   3.025   0.709 -0.6146 -1.5172 -1.5171
  422SOL     OW 1264   0.992   2.579   1.030  0.1892 -0.5973 -0.0889
  422SOL    HW1 1265   1.066   2.643   1.008 -0.2998  1.5045  0.5069
  422SOL    HW2 1266   0.975   2.578   1.130  0.1545  0.8073 -0.3173
  423SOL     OW 1267   0.106   0.697   1.271  0.3258 -0.5005 -0.3522
  423SOL    HW1 1268   0.040   0.654   1.347 -2.4172 -1.6971  3.0131
  423SOL    HW2 1269   0.082   0.794   1.248  2.1188  0.7648 -0.1500
  424SOL     OW 1270   1.026   2.255   2.060  0.1661 -0.1658 -0.5275
  424SOL    HW1 1271   0.993   2.338   2.006  0.3810 -2.1360 -1.9292
  424SOL    HW2 1272   1.030   2.273   2.164 -1.1669 -0.4783 -0.4409
  425SOL     OW 1273   1.980   1.432   0.962 -0.0067  0.2912  0.1598
  425SOL    HW1 1274   2.041   1.384   1.034  0.2041 -1.1565  1.7894
  425SOL    HW2 1275   2.046   1.483   0.891  2.5251 -1.6871 -1.8723
  426SOL     OW 1276   1.531   1.542   1.387  0.5257  0.6525 -0.1242
  426SOL    HW1 1277   1.503   1.629   1.335  0.5614  0.1489 -1.0483
  426SOL    HW2 1278   1.486   1.548   1.485  0.1728  1.4444 -0.9978
  427SOL     OW 1279   1.850   2.354   2.057 -0.3665 -0.0024  0.2886
  427SOL    HW1 1280   1.901   2.268   2.084  0.6908 -1.0487  1.0152
  427SOL    HW2 1281   1.906   2.441   2.085  2.1261  0.7605 -1.4987
  428SOL     OW 1282   0.866   2.970   0.192 -0.0102  0.6539  0.0870
  428SOL    HW1 1283   0.888   3.073   0.186  1.8610 -1.1622 -2.9300
  428SOL    HW2 1284   0.956   2.920   0.186 -0.2802  1.5229  0.3171
  429SOL     OW 1285   1.330   0.087   0.218  0.5089  0.2169 -0.1692
  429SOL    HW1 1286   1.412   0.133   0.261  0.5628  0.3579  0.3371
  429SOL    HW2 1287   1.327   0.095   0.115 -1.9798  0.6579  1.1085
  430SOL     OW 1288   2.777   1.439   0.394  0.9961 -0.4704 -0.0310
  430SOL    HW1 1289   2.794   1.488   0.304  1.5889  2.9352  1.6490
  430SOL    HW2 1290   2.789   1.496   0.482 -0.3898 -2.7017 -0.7147
  431SOL     OW 1291   2.168   1.582   0.812 -0.4561 -0.2155  0.0120
  431SOL    HW1 1292   2.221   1.663   0.847  0.7441  0.6648 -0.4069
  431SOL    HW2 1293   2.097   1.612   0.743  0.7384 -0.4309 -1.7566
  432SOL     OW 1294   2.863   2.215   1.262  0.3260  0.4067 -0.3878
  432SOL    HW1 1295   2.822   2.125   1.287 -0.9935  2.3611 -1.3784
  432SOL    HW2 1296   2.910   2.265   1.341  0.2282  1.2209 -4.4841
  433SOL     OW 1297   1.929   0.394   0.862  0.0803  0.3965  0.1961
  433SOL    HW1 1298   1.849   0.347   0.906  1.5513 -0.2484 -0.6064
  433SOL    HW2 1299   2.022   0.366   0.898  1.0173 -0.3903  0.1265
  434SOL     OW 1300   1.528   0.299   0.787 -0.0164  0.1278 -0.1452
  434SOL    HW1 1301   1.494   0.385   0.756 -0.2989  0.1762 -0.0760
  434SOL    HW2 1302   1.583   0.308   0.875  0.1427  1.8637 -0.5982
  435SOL     OW 1303   1.418   1.437   2.120  0.4927  0.1178  0.3961
  435SOL    HW1 1304   1.353   1.457   2.202  1.7632 -3.3220 -1.5476
  435SOL    HW2 1305   1.454   1.523   2.081  0.3541 -1.1094  1.0169
  436SOL     OW 1306   1.684   2.734   2.267  0.1110 -0.5021 -0.8830
  436SOL    HW1 1307   1.650   2.814   2.322 -0.1014  0.7820 -0.0013
  436SOL    HW2 1308   1.722   2.654   2.331 -0.5065 -0.9394  2.1693
  437SOL     OW 1309   1.059   2.908   0.915 -0.3920 -0.0189 -0.1305
  437SOL    HW1 1310   1.056   3.004   0.868  0.1651  0.5841 -0.8942
  437SOL    HW2 1311   1.024   2.922   1.015 -1.8648  0.6435  0.5429
  438SOL     OW 1312   1.043   2.577   1.311 -0.3723 -0.1077 -0.1352
  438SOL    HW1 1313   1.095   2.605   1.396 -2.2525 -0.0718 -0.7979
  438SOL    HW2 1314   1.008   2.479   1.315 -0.4902 -2.4880  2.8328
  439SOL     OW 1315   0.699   1.738   1.066  0.2938 -0.3538 -0.0744
  439SOL    HW1 1316   0.712   1.785   0.977 -1.4490 -3.8373 -1.4977
  439SOL    HW2 1317   0.601   1.713   1.090  0.1900 -0.0253  0.7245
  440SOL     OW 1318   0.973   2.487   1.925  0.2441  0.3724  0.6131
  440SOL    HW1 1319   0.952   2.525   1.834 -2.3782 -2.1971  1.9668
  440SOL    HW2 1320   1.075   2.480   1.947  1.3454 -0.7221  0.7604
  441SOL     OW 1321   0.400   2.774   1.394  0.1152 -0.6006  0.3225
  441SOL    HW1 1322   0.452   2.694   1.431 -1.4875  2.1667  1.1905
  441SOL    HW2 1323   0.377   2.767   1.294  2.3326  0.4620 -3.3822
  442SOL     OW 1324   2.299   0.658   2.513  0.5338  0.5489 -0.5354
  442SOL    HW1 1325   2.291   0.560   2.479  0.0147 -0.6539 -0.9481
  442SOL    HW2 1326   2.212   0.719   2.497  0.0818  1.1751 -0.4225
  443SOL     OW 1327   1.211   2.725   2.195 -0.3009 -0.0273  0.3641
  443SOL    HW1 1328   1.278   2.772   2.262  1.7090  3.0445 -0.0635
  443SOL    HW2 1329   1.128   2.687   2.240  0.8672 -2.1355 -4.7100
  444SOL     OW 1330   1.157   1.300   1.590  0.0930  0.3331  0.0550
  444SOL    HW1 1331   1.247   1.256   1.568 -0.7645 -1.2588 -1.7945
  444SOL    HW2 1332   1.159   1.364   1.673 -0.4597  0.4098  0.3651
  445SOL     OW 1333   0.019   2.401   1.892  0.2868  0.4531  0.3614
  445SOL    HW1 1334   0.015   2.493   1.849  0.0889  1.9676  0.4764
  445SOL    HW2 1335  -0.072   2.367   1.925  2.0872  1.7853 -1.7208
  446SOL     OW 1336   0.266   1.912   2.341  0.0523  0.4060  0.0438
  446SOL    HW1 1337   0.231   1.999   2.368  2.0429 -1.6910 -2.8201
  446SOL    HW2 1338   0.202   1.853   2.280  0.7552  1.1780 -2.7174
  447SOL     OW 1339   1.222   1.714   1.908  0.1245 -0.2303  0.2584
  447SOL    HW1 1340   1.129   1.756   1.907  2.1448 -0.2292 -0.1497
  447SOL    HW2 1341   1.294   1.773   1.952 -1.2936  1.6709 -1.7539
  448SOL     OW 1342   0.117   1.453   2.017  0.0371  0.4096 -0.2695
  448SOL    HW1 1343   0.136   1.542   1.971  2.9854  0.0868  1.3460
  448SOL    HW2 1344   0.049   1.466   2.094  2.0201  0.4229 -2.0488
  449SOL     OW 1345   1.825   2.995   0.866  0.5887  0.7921 -0.2501
  449SOL    HW1 1346   1.805   2.965   0.964 -0.4775  0.2578 -0.0120
  449SOL    HW2 1347   1.872   2.917   0.807  3.4734 -0.6174  0.5342
  450SOL     OW 1348   2.384   1.449   0.721  0.5096  0.5103 -0.3151
  450SOL    HW1 1349   2.292   1.492   0.751  1.9063  2.8640  1.2795
  450SOL    HW2 1350   2.404   1.459   0.622  0.5554  0.7631  2.6818
  451SOL     OW 1351   1.367   3.009   1.436  0.5446 -0.5045 -0.1597
  451SOL    HW1 1352   1.309   3.095   1.441  1.2640 -0.8621  1.1685
  451SOL    HW2 1353   1.373   2.959   1.527  2.7233 -0.1165  0.4345
  452SOL     OW 1354   2.698   2.281   2.178  0.4238 -0.3096  0.1131
  452SOL    HW1 1355   2.658   2.375   2.201  0.3800 -1.2706 -0.4160
  452SOL    HW2 1356   2.736   2.235   2.260 -1.6259  0.5979  0.6014
  453SOL     OW 1357   2.469   2.628   3.087 -0.3928  0.1280  0.4351
  453SOL    HW1 1358   2.406   2.678   3.148  3.3579 -0.8797 -3.2415
  453SOL    HW2 1359   2.422   2.575   3.009  0.6425  1.1281  0.0405
  454SOL     OW 1360   0.956   1.142   2.087 -0.3506  0.3535  0.2399
  454SOL    HW1 1361   0.931   1.129   1.987  0.6705 -0.6706  0.5138
  454SOL    HW2 1362   1.039   1.204   2.097 -0.9472 -1.0301 -1.0647
  455SOL     OW 1363   0.662   2.677   2.873 -0.9169  0.0106  0.2958
  455SOL    HW1 1364   0.709   2.720   2.955 -0.3120  3.2538  4.0396
  455SOL    HW2 1365   0.631   2.575   2.886 -4.2781  0.2604  1.4831
  456SOL     OW 1366   0.461   1.888   0.266  0.1293 -0.4024 -0.1666
  456SOL    HW1 1367   0.545   1.843   0.312 -1.2621  1.8496  0.4636
  456SOL    HW2 1368   0.491   1.967   0.208 -1.5464 -1.2324 -2.3092
  457SOL     OW 1369   0.334   2.646   0.590  0.1850 -0.2811  0.0507
  457SOL    HW1 1370   0.353   2.709   0.514 -2.1420 -2.7572  0.1328
  457SOL    HW2 1371   0.418   2.586   0.603  0.1661 -0.2964 -0.3325
  458SOL     OW 1372   2.910   3.091   1.272  0.3426 -0.1984 -0.0414
  458SOL    HW1 1373   2.959   3.179   1.254 -2.7182 -0.9548 -0.6926
  458SOL    HW2 1374   2.931   3.024   1.200 -2.5005 -0.5243  0.0478
  459SOL     OW 1375   2.116   2.603   0.760  0.5305 -0.3121  0.8858
  459SOL    HW1 1376   2.190   2.667   0.793 -2.4998 -1.8642  1.5499
  459SOL    HW2 1377   2.145   2.535   0.690 -1.2594  0.0333 -0.2263
  460SOL     OW 1378   1.235   2.060   2.826  0.5663 -0.5005  0.1073
  460SOL    HW1 1379   1.231   2.077   2.720 -1.8298 -3.0111  0.6389
  460SOL    HW2 1380   1.242   1.958   2.855  0.9503 -0.9737  1.1724
  461SOL     OW 1381   0.548   2.144   2.632  0.1703 -0.5617  0.0910
  461SOL    HW1 1382   0.484   2.070   2.594 -2.9865 -0.4077 -2.0487
  461SOL    HW2 1383   0.579   2.116   2.727  1.6210  0.1050 -0.8260
  462SOL     OW 1384   0.974   1.155   1.816 -0.3142 -0.0557  0.4788
  462SOL    HW1 1385   1.052   1.132   1.748  1.7303  2.3881 -1.4116
  462SOL    HW2 1386   0.931   1.246   1.787  3.6693  1.2127 -0.7319
  463SOL     OW 1387   0.471   0.847   0.501  0.0289  0.1360 -0.2855
  463SOL    HW1 1388   0.524   0.757   0.488  2.1626  0.0225 -4.4444
  463SOL    HW2 1389   0.375   0.834   0.527  2.6692  1.7036 -1.3803
  464SOL     OW 1390   0.607   2.295   2.239  0.4214  0.3539 -0.1671
  464SOL    HW1 1391   0.582   2.377   2.300 -0.1100 -2.7260 -0.2352
  464SOL    HW2 1392   0.579   2.312   2.142 -0.2064 -2.2631  0.5883
  465SOL     OW 1393   0.241   0.951   0.812  0.1710  0.2245 -0.7924
  465SOL    HW1 1394   0.149   0.980   0.788  3.5964 -2.7112 -2.1066
  465SOL    HW2 1395   0.252   0.849   0.811 -0.2780 -2.5203  1.6465
  466SOL     OW 1396   1.400   1.157   0.994  0.0834  0.1140  0.1962
  466SOL    HW1 1397   1.364   1.253   0.992  0.4724 -0.7067  0.1392
  466SOL    HW2 1398   1.327   1.087   1.002  2.9208  1.8212  1.8270
  467SOL     OW 1399   0.517   0.373   2.408 -0.3952 -0.0796 -0.5854
  467SOL    HW1 1400   0.474   0.467   2.412  2.0759 -1.4133  0.5058
  467SOL    HW2 1401   0.519   0.323   2.495 -0.3940  2.2074 -2.7427
  468SOL     OW 1402   0.475   2.281   1.656  0.0502  0.2914 -0.3012
  468SOL    HW1 1403   0.534   2.349   1.702 -0.5603  0.0259  2.7739
  468SOL    HW2 1404   0.455   2.296   1.555  1.1033 -0.4129  1.0744
  469SOL     OW 1405   1.447   1.384   1.158  0.2967  0.7562 -0.4480
  469SOL    HW1 1406   1.517   1.341   1.100  0.4309 -1.2961  3.4055
  469SOL    HW2 1407   1.489   1.430   1.246  1.2956 -0.2404  1.9240
  470SOL     OW 1408   3.003   1.743   0.716  0.1320 -0.6801 -0.5513
  470SOL    HW1 1409   3.062   1.800   0.648  2.1909  0.1207 -0.8349
  470SOL    HW2 1410   3.052   1.655   0.748 -0.7384  1.4065  2.0284
  471SOL     OW 1411   2.697   1.259   2.129  0.4702  0.3464  0.4412
  471SOL    HW1 1412   2.669   1.205   2.219 -1.8146 -2.1913 -0.2917
  471SOL    HW2 1413   2.726   1.355   2.151 -1.6950 -0.5153  2.1568
  472SOL     OW 1414   1.139   2.454   0.042  0.5913 -0.0249 -0.0152
  472SOL    HW1 1415   1.186   2.436   0.132  1.2154  0.3533 -1.7573
  472SOL    HW2 1416   1.048   2.404   0.034  0.0769  1.5906 -2.3070
  473SOL     OW 1417   1.089   1.552   1.009 -0.6390 -0.1617 -0.2670
  473SOL    HW1 1418   0.998   1.530   0.971  2.0075 -1.5087  3.3363
  473SOL    HW2 1419   1.119   1.480   1.079 -1.1846 -0.8339  2.0411
  474SOL     OW 1420   0.658   1.284   0.550  0.4448  0.2957  0.7010
  474SOL    HW1 1421   0.592   1.234   0.485 -0.2063  1.2131  0.5228
  474SOL    HW2 1422   0.743   1.226   0.574  0.0154 -0.0488 -1.0115
  475SOL     OW 1423   2.836   0.052   0.794 -0.0443  0.1765 -0.2331
  475SOL    HW1 1424   2.911   0.116   0.830 -1.5077  1.1817 -2.0236
  475SOL    HW2 1425   2.742   0.101   0.808  2.8629  1.5481 -1.0809
  476SOL     OW 1426   0.987   3.067   1.812  0.2225 -0.2789  0.6403
  476SOL    HW1 1427   1.055   2.999   1.850  0.6758 -0.2724  0.1916
  476SOL    HW2 1428   0.976   3.060   1.709 -1.2695 -1.2405 -0.6211
  477SOL     OW 1429   1.416   0.329   2.470  0.3273  0.0838  0.2254
  477SOL    HW1 1430   1.411   0.339   2.572  1.5401 -0.9890 -3.0895
  477SOL    HW2 1431   1.499   0.276   2.429  0.0209  0.8584  0.4731
  478SOL     OW 1432   2.234   1.844   0.186 -0.3962  0.3346  0.6937
  478SOL    HW1 1433   2.178   1.759   0.165 -0.1740  0.6554  1.9486
  478SOL    HW2 1434   2.337   1.818   0.204  2.7320 -0.8384 -0.6464
  479SOL     OW 1435   1.257   1.013   2.910  0.1800  0.1569  0.5656
  479SOL    HW1 1436   1.347   1.029   2.850  1.9160  2.2057 -0.0905
  479SOL    HW2 1437   1.193   0.949   2.858 -0.1670  3.8954 -2.9238
  480SOL     OW 1438   2.632   2.351   0.381 -0.8280  0.1888  0.5140
  480SOL    HW1 1439   2.605   2.268   0.436 -0.6270  0.2600 -1.3924
  480SOL    HW2 1440   2.597   2.353   0.283 -0.3147  0.5069  0.4247
  481SOL     OW 1441   0.979   1.147   0.901  0.2726 -0.4337 -0.3934
  481SOL    HW1 1442   1.010   1.230   0.843 -1.2351  1.0056 -0.5887
  481SOL    HW2 1443   0.998   1.161   1.003 -1.0511  1.3799 -0.0530
  482SOL     OW 1444   1.581   0.307   2.036  0.2276 -0.5660  0.1921
  482SOL    HW1 1445   1.579   0.412   2.009  0.3728 -1.4284 -1.3855
  482SOL    HW2 1446   1.671   0.276   2.064 -2.4524 -0.4310 -1.9916
  483SOL     OW 1447   0.127   2.329   1.272  0.4006  0.2369 -0.0885
  483SOL    HW1 1448   0.045   2.303   1.328  0.5557 -0.4071 -0.5267
  483SOL    HW2 1449   0.142   2.431   1.260 -1.2924  1.2634  1.3002
  484SOL     OW 1450   1.760   1.092   1.342 -0.4198 -0.0871 -0.0754
  484SOL    HW1 1451   1.824   1.007   1.340  2.1669 -0.7192  0.2420
  484SOL    HW2 1452   1.783   1.157   1.422  0.8126 -0.0647 -0.1256
  485SOL     OW 1453   0.718   1.021   1.800 -0.5118  0.0773  0.1661
  485SOL    HW1 1454   0.715   1.016   1.697  0.5235 -0.0522  2.9586
  485SOL    HW2 1455   0.809   1.071   1.821  1.5395 -1.1788  0.8341
  486SOL     OW 1456   0.821   1.909   2.432  0.1896  0.3955  0.2794
  486SOL    HW1 1457   0.869   1.870   2.515 -1.6677 -0.9563  2.6177
  486SOL    HW2 1458   0.795   2.015   2.434 -1.3896  1.1418 -2.4839
  487SOL     OW 1459   1.807   1.657   0.957  0.0845  0.3389  0.1455
  487SOL    HW1 1460   1.874   1.610   1.017  0.8641  1.6660 -2.4848
  487SOL    HW2 1461   1.843   1.709   0.871 -0.1837 -2.2417 -2.9407
  488SOL     OW 1462   2.989   0.882   2.210 -0.5994  0.0582 -0.2456
  488SOL    HW1 1463   2.974   0.783   2.185 -0.6779  0.3222  0.3314
  488SOL    HW2 1464   3.003   0.897   2.312 -1.4039 -0.3645 -0.2246
  489SOL     OW 1465   2.776   0.317   1.270 -0.2065 -0.3820  0.0222
  489SOL    HW1 1466   2.787   0.330   1.378 -0.3994 -0.0956  0.4242
  489SOL    HW2 1467   2.860   0.270   1.225  1.1365  0.6151 -0.8676
  490SOL     OW 1468   1.527   2.963   2.770  0.2651 -0.0799 -0.0781
  490SOL    HW1 1469   1.538   2.861   2.783 -3.5954  0.0507  1.6442
  490SOL    HW2 1470   1.451   2.989   2.700 -2.3795  1.5182  0.0905
  491SOL     OW 1471   1.745   1.426   2.624 -0.3089  0.9433  0.2606
  491SOL    HW1 1472   1.658   1.438   2.678  2.8017 -3.1509  2.6676
  491SOL    HW2 1473   1.830   1.474   2.666  0.0956 -0.5677 -0.2275
  492SOL     OW 1474   0.560   2.094   0.661  0.1266 -0.8685  0.2566
  492SOL    HW1 1475   0.614   2.081   0.746 -3.7663  1.1558 -0.2084
  492SOL    HW2 1476   0.463   2.130   0.680 -2.4237 -0.8071  0.0822
  493SOL     OW 1477   0.422   1.439   2.016  0.1488  0.0584 -0.0651
  493SOL    HW1 1478   0.328   1.478   2.012  3.1997 -2.0518  1.2044
  493SOL    HW2 1479   0.422   1.352   2.069  0.3645 -1.3248 -0.5421
  494SOL     OW 1480   2.729   2.698   0.153  0.3663 -0.4888  0.1057
  494SOL    HW1 1481   2.701   2.678   0.250 -1.8604  0.3527 -1.4177
  494SOL    HW2 1482   2.646   2.670   0.095  0.6522  1.5559  0.5795
  495SOL     OW 1483   2.691   2.715   2.740  0.3878 -0.4011  0.5640
  495SOL    HW1 1484   2.694   2.611   2.745 -1.4102 -4.3985  0.3873
  495SOL    HW2 1485   2.729   2.748   2.646 -1.3438  1.5138 -1.4767
  496SOL     OW 1486   2.082   2.224   0.704  0.0767  0.1964 -0.0046
  496SOL    HW1 1487   2.118   2.250   0.797 -0.5600 -2.7106 -2.0090
  496SOL    HW2 1488   2.075   2.122   0.695  2.9075  0.1178 -1.1453
  497SOL     OW 1489   0.226   2.980   2.404  0.7412 -0.1658  0.2056
  497SOL    HW1 1490   0.201   3.060   2.467  1.4565  0.0858 -1.6273
  497SOL    HW2 1491   0.274   3.007   2.317 -0.0550 -1.3143  2.7744
  498SOL     OW 1492   1.174   1.350   1.192  0.1172  0.1127  0.4290
  498SOL    HW1 1493   1.280   1.349   1.195  1.0204 -2.8234  1.9199
  498SOL    HW2 1494   1.133   1.405   1.270 -1.4438  0.5951 -0.4895
  499SOL     OW 1495   0.662   1.777   0.391  0.4626  0.7257  0.8570
  499SOL    HW1 1496   0.703   1.680   0.397  2.4558  0.8680  2.2600
  499SOL    HW2 1497   0.708   1.840   0.455 -1.4145  2.8386 -0.8493
  500SOL     OW 1498   1.416   2.838   1.630 -0.2268  0.0603  0.3949
  500SOL    HW1 1499   1.370   2.833   1.718 -6.2280  2.1017 -1.3480
  500SOL    HW2 1500   1.500   2.775   1.623 -1.4037 -0.5763 -2.9635
  501SOL     OW 1501   0.796   1.127   2.300 -0.6834  0.6594 -0.0244
  501SOL    HW1 1502   0.711   1.075   2.265  2.7721  0.9312  0.9363
  501SOL    HW2 1503   0.861   1.155   2.222  3.8553  0.5109  0.8248
  502SOL     OW 1504   2.573   0.972   1.719  0.0639  0.4844  0.0556
  502SOL    HW1 1505   2.588   0.977   1.618 -0.0801  1.5634  0.0375
  502SOL    HW2 1506   2.532   0.877   1.752  0.2797 -2.9286 -0.0081
  503SOL     OW 1507   1.336   0.127   0.701 -0.3662 -0.0272 -0.0473
  503SOL    HW1 1508   1.267   0.195   0.656 -1.4830  0.4577  0.3588
  503SOL    HW2 1509   1.424   0.173   0.733 -0.2486 -0.2971  2.3803
  504SOL     OW 1510   3.004   2.347   1.474 -0.3542 -0.2117  0.5899
  504SOL    HW1 1511   2.943   2.397   1.540  1.4596 -2.0894  0.6598
  504SOL    HW2 1512   3.093   2.319   1.515 -2.8293  3.9903 -0.3855
  505SOL     OW 1513   2.320   1.193   1.429 -0.1200  0.0365  0.2605
  505SOL    HW1 1514   2.316   1.225   1.329 -0.9873 -0.2925 -2.4275
  505SOL    HW2 1515   2.420   1.216   1.472  2.2803 -0.1417  1.3946
  506SOL     OW 1516   1.954   0.195   1.813 -0.1911 -0.3815 -0.4522
  506SOL    HW1 1517   2.010   0.118   1.854  2.6271 -1.9660 -0.3355
  506SOL    HW2 1518   1.968   0.285   1.866  0.9798  0.8501  2.9550
  507SOL     OW 1519   0.521   0.678   2.133 -0.0375  0.2938 -0.0713
  507SOL    HW1 1520   0.441   0.632   2.088  1.8926  2.0491 -1.3637
  507SOL    HW2 1521   0.596   0.609   2.177 -2.4495 -1.2660 -1.2346
  508SOL     OW 1522   0.299   1.609   0.775  0.2686  0.4605  1.1440
  508SOL    HW1 1523   0.371   1.664   0.725 -2.1720  3.8992  2.8656
  508SOL    HW2 1524   0.267   1.659   0.857 -0.9523 -0.5595 -0.9631
  509SOL     OW 1525   1.182   1.257   2.352 -0.4210  0.5830  0.4639
  509SOL    HW1 1526   1.214   1.190   2.278  1.3010 -2.9926 -4.3375
  509SOL    HW2 1527   1.106   1.225   2.409  0.8990  2.8971 -0.6296
  510SOL     OW 1528   1.261   2.073   2.216 -0.0501 -0.6069 -0.5336
  510SOL    HW1 1529   1.285   2.137   2.134 -0.1256  2.0058 -0.8353
  510SOL    HW2 1530   1.157   2.067   2.236  2.6864 -0.2322  2.0699
  511SOL     OW 1531   3.016   2.718   1.310  0.3652  0.5151 -0.4481
  511SOL    HW1 1532   3.016   2.685   1.215  1.8984 -1.9493 -1.2629
  511SOL    HW2 1533   2.920   2.731   1.346 -1.6101 -0.2945 -1.1666
  512SOL     OW 1534   2.377   0.414   1.380  0.4061 -0.7306  0.1938
  512SOL    HW1 1535   2.277   0.393   1.378 -2.2621 -1.2291 -0.0045
  512SOL    HW2 1536   2.424   0.434   1.292 -2.4289  0.2109  0.4249
  513SOL     OW 1537   2.592   2.091   0.903 -0.1387 -0.4655 -0.5703
  513SOL    HW1 1538   2.552   2.156   0.834  1.2500  0.1996 -0.1466
  513SOL    HW2 1539   2.680   2.050   0.861 -2.2595  0.4661  0.0801
  514SOL     OW 1540   0.619   2.737   0.464 -0.3529 -0.0935 -0.6820
  514SOL    HW1 1541   0.598   2.798   0.386  1.1201 -2.1833 -0.3757
  514SOL    HW2 1542   0.677   2.787   0.537  0.5228  1.9916 -2.3563
  515SOL     OW 1543   1.961   1.240   2.373  0.2424 -0.2024  0.1519
  515SOL    HW1 1544   1.928   1.190   2.291 -0.3821 -1.4247 -1.9808
  515SOL    HW2 1545   1.889   1.226   2.441 -0.6632 -0.9287  0.7490
  516SOL     OW 1546   0.258   0.244   1.908 -0.6509  0.6149 -0.4915
  516SOL    HW1 1547   0.335   0.202   1.860 -0.7377 -0.6512 -0.0994
  516SOL    HW2 1548   0.171   0.186   1.909  0.7373 -0.5579 -1.9365
  517SOL     OW 1549   0.399   0.018   1.123 -0.2796 -0.3153 -0.1744
  517SOL    HW1 1550   0.410   0.120   1.145 -1.6032  2.4620 -1.7953
  517SOL    HW2 1551   0.311   0.002   1.070 -2.9660 -1.1834 -0.8863
  518SOL     OW 1552   2.177   3.039   1.813 -0.1254  0.1532  0.5688
  518SOL    HW1 1553   2.233   3.128   1.837  4.5079  1.8946  0.6540
  518SOL    HW2 1554   2.205   2.990   1.724 -1.5410 -3.4446  1.7185
  519SOL     OW 1555   2.382   2.139   2.497 -0.9714  0.3660  0.4554
  519SOL    HW1 1556   2.334   2.118   2.587 -0.7848 -0.1216 -1.2477
  519SOL    HW2 1557   2.391   2.241   2.482  1.3768  1.2124  0.2509
  520SOL     OW 1558   1.845   2.739   1.788 -0.7498  0.2700  0.0936
  520SOL    HW1 1559   1.747   2.725   1.818  1.9748 -1.7372  2.0617
  520SOL    HW2 1560   1.879   2.660   1.729 -0.9416 -0.5672  0.5508
  521SOL     OW 1561   0.568   3.055   2.051  0.2993  0.0397 -0.3574
  521SOL    HW1 1562   0.467   3.052   2.067  0.4621  1.9312 -1.7213
  521SOL    HW2 1563   0.627   3.031   2.135  0.6370  0.7065  1.5587
  522SOL     OW 1564   0.242   1.875   1.468 -0.0288  0.1107 -0.2557
  522SOL    HW1 1565   0.291   1.925   1.546 -2.1811  0.4546 -0.6507
  522SOL    HW2 1566   0.187   1.941   1.411  0.9007 -0.6871  1.4166
  523SOL     OW 1567   2.215   2.938   1.547 -0.0627  0.4791  0.0354
  523SOL    HW1 1568   2.304   2.882   1.548 -3.0128 -0.8529  3.2921
  523SOL    HW2 1569   2.139   2.886   1.492  3.0724 -0.7159 -0.0843
  524SOL     OW 1570   0.180   2.788   2.811 -0.4015  0.1958 -0.0247
  524SOL    HW1 1571   0.104   2.857   2.845  1.1279 -0.1707  1.6497
  524SOL    HW2 1572   0.276   2.832   2.814 -0.0914  0.1968  0.2944
  525SOL     OW 1573   2.163   2.031   0.385  0.3995  0.3126  0.0400
  525SOL    HW1 1574   2.190   1.985   0.471 -0.5916 -2.8877 -2.0936
  525SOL    HW2 1575   2.185   1.974   0.298  0.0307  1.5314  1.0257
  526SOL     OW 1576   0.473   1.488   1.651 -0.6390  0.2912 -0.1963
  526SOL    HW1 1577   0.526   1.538   1.726  1.8247 -0.4418  1.0044
  526SOL    HW2 1578   0.507   1.391   1.645 -0.7477  2.3463 -1.1377
  527SOL     OW 1579   1.017   2.868   1.232  0.2068  0.5051  0.5079
  527SOL    HW1 1580   1.101   2.816   1.252 -0.4607 -0.1988 -0.2704
  527SOL    HW2 1581   1.040   2.967   1.213 -1.7807 -0.8988  0.1718
  528SOL     OW 1582   1.360   2.368   0.542  0.3064 -0.1101  0.0714
  528SOL    HW1 1583   1.386   2.270   0.550  2.3978  3.1914 -0.0375
  528SOL    HW2 1584   1.414   2.425   0.611  1.5434  0.6739 -1.6227
  529SOL     OW 1585   1.968   1.758   0.722  0.3222 -0.6158  0.3663
  529SOL    HW1 1586   1.925   1.769   0.630  0.5115 -1.4751  1.4130
  529SOL    HW2 1587   1.972   1.855   0.763 -1.2546  1.1902 -1.1002
  530SOL     OW 1588   0.324   2.620   0.257 -0.3101  0.1507  0.3834
  530SOL    HW1 1589   0.311   2.708   0.314  3.4952 -2.2660  0.6772
  530SOL    HW2 1590   0.387   2.555   0.305 -0.4431 -0.0290  1.2943
  531SOL     OW 1591   1.827   1.022   1.029 -0.1413 -0.3003 -0.3374
  531SOL    HW1 1592   1.856   1.071   0.944  2.3589  3.3292  1.7649
  531SOL    HW2 1593   1.737   0.979   1.010  1.7622  0.1820 -0.7140
  532SOL     OW 1594   0.382   1.194   0.680 -0.1620 -0.4100 -0.2210
  532SOL    HW1 1595   0.417   1.192   0.583  0.3782  1.5192  2.5438
  532SOL    HW2 1596   0.330   1.108   0.710  0.3103  0.5611  2.7683
  533SOL     OW 1597   1.775   0.030   2.571 -0.5910 -0.5322  0.2748
  533SOL    HW1 1598   1.873   0.007   2.577  0.0362  0.1827 -0.2814
  533SOL    HW2 1599   1.741   0.045   2.664  0.2525  0.2893 -0.4092
  534SOL     OW 1600   0.322   0.171   1.575  0.2210  0.4522  0.6806
  534SOL    HW1 1601   0.423   0.196   1.555 -0.4517 -0.1346  0.7906
  534SOL    HW2 1602   0.264   0.259   1.599  1.6043  1.0402  3.6371
  535SOL     OW 1603   1.918   0.420   0.241 -0.3830 -0.2856 -0.2537
  535SOL    HW1 1604   1.949   0.507   0.283 -0.5500 -1.6165 -1.1876
  535SOL    HW2 1605   1.829   0.385   0.280  2.5260  1.1116 -0.3762
  536SOL     OW 1606   1.413   2.566   0.973  0.6667 -0.3517  0.3392
  536SOL    HW1 1607   1.392   2.529   1.066  1.1701  0.6605 -1.1148
  536SOL    HW2 1608   1.329   2.586   0.913 -0.2084  0.7963  0.4268
  537SOL     OW 1609   0.821   0.181   2.322 -0.2904  0.2685 -0.1426
  537SOL    HW1 1610   0.783   0.187   2.226 -0.4182  0.6873 -1.3490
  537SOL    HW2 1611   0.761   0.134   2.393  0.4037  1.2031  1.1071
  538SOL     OW 1612   1.701   2.350   1.519  0.0351  0.4750 -0.2599
  538SOL    HW1 1613   1.680   2.257   1.480 -2.3083  0.6444  3.1333
  538SOL    HW2 1614   1.767   2.397   1.457 -2.0519  0.0138  1.3202
  539SOL     OW 1615   0.194   1.557   2.709  0.1457 -0.3218  0.1682
  539SOL    HW1 1616   0.153   1.568   2.611  1.7203  0.0451 -0.3476
  539SOL    HW2 1617   0.181   1.642   2.771  1.2470  0.8331  0.7060
  540SOL     OW 1618   2.733   1.688   1.989 -0.3252 -0.2898  0.0636
  540SOL    HW1 1619   2.705   1.612   2.056  2.0074 -0.1354  0.8914
  540SOL    HW2 1620   2.656   1.752   1.965  2.3425 -0.9813 -0.2784
  541SOL     OW 1621   0.457   2.298   3.079  0.1702 -0.2238  0.5195
  541SOL    HW1 1622   0.496   2.265   3.167  0.6289  0.6003  1.8924
  541SOL    HW2 1623   0.355   2.265   3.078 -2.8297 -0.1632 -0.5282
  542SOL     OW 1624   2.265   2.567   0.396  0.0250 -0.4030  0.3803
  542SOL    HW1 1625   2.246   2.667   0.380  0.6027  0.0641  2.4078
  542SOL    HW2 1626   2.186   2.508   0.431 -1.0964 -0.8610 -1.3777
  543SOL     OW 1627   1.091   1.763   1.655 -0.4733  0.3451 -0.2937
  543SOL    HW1 1628   1.071   1.796   1.748 -1.1538 -0.9385 -0.1708
  543SOL    HW2 1629   1.033   1.810   1.583 -0.3277 -1.1900  1.4830
  544SOL     OW 1630   1.023   0.410   0.216  0.2417 -0.6306 -0.1579
  544SOL    HW1 1631   1.040   0.315   0.244  1.9670 -2.5094 -3.0891
  544SOL    HW2 1632   1.028   0.410   0.116  0.8651  0.6407 -1.0840
  545SOL     OW 1633   1.101   1.809   0.824  0.3097  0.3041 -0.5770
  545SOL    HW1 1634   1.204   1.796   0.816  0.8500  2.6188 -1.0859
  545SOL    HW2 1635   1.050   1.733   0.876 -0.3803  0.3333 -0.5458
  546SOL     OW 1636   2.640   1.520   0.006 -0.7812 -0.4832  0.5300
  546SOL    HW1 1637   2.573   1.540  -0.073  3.1363 -1.1960  1.1693
  546SOL    HW2 1638   2.589   1.495   0.095  0.2350  0.0227  2.9765
  547SOL     OW 1639   0.555   3.089   2.688 -0.2645 -0.5376  0.2400
  547SOL    HW1 1640   0.647   3.049   2.652  0.3606  2.6207 -1.1652
  547SOL    HW2 1641   0.500   3.016   2.743  2.7297  0.7186 -1.1121
  548SOL     OW 1642   2.101   0.836   2.991  0.0691  0.0421 -0.7974
  548SOL    HW1 1643   1.999   0.823   2.981  1.3399 -0.1037 -1.4767
  548SOL    HW2 1644   2.121   0.919   3.042  1.0772  1.0389  0.1152
  549SOL     OW 1645   0.688   0.518   0.216  0.2507 -0.1843  0.0677
  549SOL    HW1 1646   0.636   0.537   0.126  1.7207  2.5341  1.8275
  549SOL    HW2 1647   0.766   0.583   0.221 -0.7295  2.1822 -0.4489
  550SOL     OW 1648   2.479   2.841   2.897  0.5989  0.0067  0.3449
  550SOL    HW1 1649   2.442   2.791   2.975  1.5626 -0.0077 -0.2497
  550SOL    HW2 1650   2.526   2.778   2.831 -0.0597 -0.6326  1.2740
  551SOL     OW 1651   0.260   0.921   0.212 -0.5862  0.4693  0.0359
  551SOL    HW1 1652   0.359   0.907   0.180  0.9879  0.7855 -2.3113
  551SOL    HW2 1653   0.250   0.877   0.308  0.8821  1.2641  0.6698
  552SOL     OW 1654   0.728   2.978   1.841 -0.5852 -0.2458  0.0650
  552SOL    HW1 1655   0.662   2.999   1.920  1.0412  0.9703  0.5266
  552SOL    HW2 1656   0.831   2.982   1.876  2.7553  2.0745  0.9578
  553SOL     OW 1657   3.005   2.550   0.325  0.0315 -0.2106 -0.1906
  553SOL    HW1 1658   2.971   2.452   0.309 -0.7069 -0.8852  1.4037
  553SOL    HW2 1659   2.941   2.604   0.388 -2.6793  1.9048  0.8952
  554SOL     OW 1660   2.137   0.355   0.592  0.3664 -0.4171 -0.1469
  554SOL    HW1 1661   2.201   0.367   0.512 -0.0838 -1.9012  0.2463
  554SOL    HW2 1662   2.175   0.301   0.671  1.1870 -0.6548 -0.1529
  555SOL     OW 1663   0.404   2.784   2.529 -0.5829 -0.5655 -0.1626
  555SOL    HW1 1664   0.342   2.859   2.500  0.8361  0.5139 -0.1616
  555SOL    HW2 1665   0.463   2.747   2.450  0.6516  0.9377  0.1129
  556SOL     OW 1666   0.791   2.402   1.510  0.9346 -0.2244 -0.1772
  556SOL    HW1 1667   0.836   2.479   1.561  0.5112 -0.2858 -1.8775
  556SOL    HW2 1668   0.866   2.360   1.448 -0.6769 -1.4366  0.1189
  557SOL     OW 1669   0.106   2.064   0.149 -0.3250  0.2955  0.2507
  557SOL    HW1 1670   0.044   2.007   0.086  0.9769 -0.4638 -0.8430
  557SOL    HW2 1671   0.166   2.118   0.083  1.4152 -0.1992  0.7498
  558SOL     OW 1672   2.928   2.284   0.284 -0.2500 -0.0893 -0.1748
  558SOL    HW1 1673   2.826   2.282   0.301 -0.9127 -2.5405 -0.7286
  558SOL    HW2 1674   2.964   2.221   0.208  0.0481 -2.4191  1.9384
  559SOL     OW 1675   0.403   2.297   1.372 -0.3362 -0.2954  0.5145
  559SOL    HW1 1676   0.308   2.281   1.334  0.7605  1.9910  3.3795
  559SOL    HW2 1677   0.473   2.235   1.318  2.0541  0.8520 -0.3470
  560SOL     OW 1678   2.093   1.149   3.075  0.1942  0.2264  0.0244
  560SOL    HW1 1679   2.005   1.179   3.118  0.9714 -0.9896  0.1121
  560SOL    HW2 1680   2.160   1.227   3.067 -2.0324  0.3203  1.0156
  561SOL     OW 1681   3.019   1.870   0.010  0.9225 -0.6694  0.1117
  561SOL    HW1 1682   2.996   1.792   0.075 -1.1649 -3.2506  0.3276
  561SOL    HW2 1683   2.946   1.945   0.007 -0.7040  0.9962 -0.4755
  562SOL     OW 1684   1.031   2.274   2.330 -0.8858  0.0177 -0.1159
  562SOL    HW1 1685   0.964   2.204   2.329  5.3309  1.6980  1.0582
  562SOL    HW2 1686   1.000   2.368   2.359 -1.3834  0.0308  2.2198
  563SOL     OW 1687   0.711   2.558   2.631 -0.1681  0.3163  0.5913
  563SOL    HW1 1688   0.788   2.491   2.640 -1.0043  1.7221 -1.2769
  563SOL    HW2 1689   0.687   2.607   2.721  0.2773 -2.4914 -0.7569
  564SOL     OW 1690   2.756   1.313   2.952  0.7963 -0.1986 -0.5153
  564SOL    HW1 1691   2.710   1.325   3.046 -0.6394 -0.5438  0.2136
  564SOL    HW2 1692   2.776   1.405   2.911  0.2739 -2.2293 -1.8015
  565SOL     OW 1693   2.554   1.976   2.617 -0.0371 -0.0852  0.5219
  565SOL    HW1 1694   2.488   2.037   2.566 -1.5794 -0.6116  1.5762
  565SOL    HW2 1695   2.622   2.029   2.677  1.7391 -2.2258 -0.1474
  566SOL     OW 1696   2.033   2.813   1.392  0.5349 -0.4351 -0.1388
  566SOL    HW1 1697   1.965   2.736   1.400  4.1162  1.3018 -0.7661
  566SOL    HW2 1698   2.035   2.854   1.296  1.1030  0.2462 -1.5987
  567SOL     OW 1699   2.467   0.084   2.287 -0.6342 -0.7227  0.7318
  567SOL    HW1 1700   2.546   0.153   2.296  0.5221  1.5780  2.1292
  567SOL    HW2 1701   2.458   0.041   2.194  3.4294  1.4011  1.3218
  568SOL     OW 1702   1.514   1.794   0.304 -0.4584  0.0412 -0.1716
  568SOL    HW1 1703   1.444   1.866   0.270 -0.8883 -0.8392 -2.2248
  568SOL    HW2 1704   1.599   1.794   0.242  1.1326  1.0565  0.3530
  569SOL     OW 1705   0.264   0.677   0.776 -0.4555  0.0986 -0.0471
  569SOL    HW1 1706   0.343   0.613   0.754 -0.0495  3.6779 -0.4841
  569SOL    HW2 1707   0.183   0.619   0.800 -0.7228 -1.1296 -1.1130
  570SOL     OW 1708   0.588   0.867   2.871 -0.5231  0.4831  0.3378
  570SOL    HW1 1709   0.632   0.866   2.779  0.9190  1.1889  1.7624
  570SOL    HW2 1710   0.626   0.937   2.938  2.6486  2.5177  0.6225
  571SOL     OW 1711   0.768   3.075   1.006 -0.2690 -0.3763 -0.5000
  571SOL    HW1 1712   0.835   3.069   0.929 -0.5042 -0.4591  1.9990
  571SOL    HW2 1713   0.677   3.022   0.994  0.0602 -0.7730  0.6168
  572SOL     OW 1714   1.581   2.626   1.296  0.2418  0.3193  0.6720
  572SOL    HW1 1715   1.497   2.582   1.258  0.1425  1.3496 -3.0227
  572SOL    HW2 1716   1.569   2.726   1.299  2.0302 -1.5599  0.1137
  573SOL     OW 1717   2.889   0.466   2.060 -0.2136  0.5217 -0.0320
  573SOL    HW1 1718   2.838   0.383   2.026  0.4240 -1.6409 -2.1634
  573SOL    HW2 1719   2.837   0.551   2.051  1.7859 -0.7264  0.2220
  574SOL     OW 1720   0.194   1.699   1.028 -0.0689 -0.0487 -0.0730
  574SOL    HW1 1721   0.179   1.797   0.996 -0.7053 -1.3254  0.2053
  574SOL    HW2 1722   0.111   1.656   1.078  0.1952  0.5131 -1.3332
  575SOL     OW 1723   0.895   2.152   0.956 -0.9168 -0.1152 -0.2606
  575SOL    HW1 1724   0.852   2.190   1.041  0.6004  2.3807 -0.9321
  575SOL    HW2 1725   0.940   2.231   0.904  0.3944 -1.1389  0.5415
  576SOL     OW 1726   2.906   3.023   1.706  1.1434  0.4312  0.3191
  576SOL    HW1 1727   2.815   2.978   1.676  0.9870  0.5161 -1.1464
  576SOL    HW2 1728   2.911   3.124   1.683  0.2337  0.4785 -0.0065
  577SOL     OW 1729   2.497   1.236   0.022 -0.4694 -0.2084 -0.1651
  577SOL    HW1 1730   2.525   1.205  -0.071 -0.0108 -3.1919  1.5743
  577SOL    HW2 1731   2.570   1.251   0.098 -0.6527 -0.9573  1.6253
  578SOL     OW 1732   1.358   2.768   2.451  0.4492 -0.2630 -0.2765
  578SOL    HW1 1733   1.268   2.807   2.476  1.9351 -0.4799 -1.9548
  578SOL    HW2 1734   1.435   2.836   2.450  1.5613 -2.8507 -0.5147
  579SOL     OW 1735   0.088   2.519   0.128  0.0279  0.0788  0.1715
  579SOL    HW1 1736   0.036   2.531   0.218  1.3817 -0.5017 -0.7768
  579SOL    HW2 1737   0.188   2.531   0.145 -1.7592  3.3329  0.3097
  580SOL     OW 1738   1.015   2.661   0.414 -0.6014  0.7124 -0.0888
  580SOL    HW1 1739   1.104   2.677   0.371 -2.0535  1.2655  2.3186
  580SOL    HW2 1740   0.947   2.602   0.358 -2.0577 -1.0651 -1.8150
  581SOL     OW 1741   1.275   2.629   1.489  0.4040  0.5861  0.0820
  581SOL    HW1 1742   1.308   2.533   1.508  0.1864  0.7425 -1.6675
  581SOL    HW2 1743   1.346   2.701   1.501  0.2180 -3.6063 -0.1333
  582SOL     OW 1744   1.502   0.091   1.861  0.1357 -0.1490  0.1845
  582SOL    HW1 1745   1.501   0.155   1.943  0.0266  0.0722 -0.6628
  582SOL    HW2 1746   1.599   0.088   1.819  0.5400  1.2274 -1.1397
  583SOL     OW 1747   2.487   3.087   0.533 -0.3168 -0.2787  0.4897
  583SOL    HW1 1748   2.561   3.049   0.476 -0.2319  1.6678  0.5048
  583SOL    HW2 1749   2.422   3.011   0.569 -1.5036  0.6383  3.0153
  584SOL     OW 1750   1.579   0.896   2.094  0.2303  0.1834  0.3338
  584SOL    HW1 1751   1.605   0.993   2.085 -0.3228  0.2957 -0.4758
  584SOL    HW2 1752   1.645   0.851   2.159 -2.8409  2.0614 -0.6277
  585SOL     OW 1753   2.111   2.656   2.890  0.1719 -0.1015 -0.0074
  585SOL    HW1 1754   2.131   2.555   2.861 -1.8477  0.5131  0.6874
  585SOL    HW2 1755   2.010   2.671   2.908 -0.7000  2.8670  1.6893
  586SOL     OW 1756   2.837   0.389   1.533  0.5362  0.0847  0.0464
  586SOL    HW1 1757   2.836   0.472   1.593 -2.8980 -1.0297 -1.0300
  586SOL    HW2 1758   2.751   0.331   1.552  2.3069  0.5246  0.8383
  587SOL     OW 1759   1.985   1.555   2.687  0.3710 -0.4165 -0.4868
  587SOL    HW1 1760   2.038   1.489   2.624 -0.3738  0.5405 -2.7963
  587SOL    HW2 1761   2.029   1.553   2.784 -1.4006  1.7640  2.2996
  588SOL     OW 1762   0.464   2.703   2.260 -0.4019 -0.2649  0.5203
  588SOL    HW1 1763   0.371   2.695   2.222  0.2112 -1.8730  0.5562
  588SOL    HW2 1764   0.493   2.616   2.309  0.3737 -0.0722 -1.7031
  589SOL     OW 1765   2.145   1.405   2.520  0.1375 -0.5371 -0.1305
  589SOL    HW1 1766   2.082   1.342   2.461 -0.6274 -1.5049  0.4349
  589SOL    HW2 1767   2.244   1.386   2.498  0.1338  0.2033  2.2064
  590SOL     OW 1768   2.342   1.673   2.033  0.1626 -0.0062 -0.1870
  590SOL    HW1 1769   2.417   1.598   2.028  2.7888  0.9428  1.0155
  590SOL    HW2 1770   2.361   1.731   2.119 -0.2740 -0.6761  2.8005
  591SOL     OW 1771   1.306   2.383   0.264 -0.5687  0.4670 -0.2782
  591SOL    HW1 1772   1.327   2.290   0.225 -1.3475  0.3861 -0.1502
  591SOL    HW2 1773   1.349   2.398   0.361  0.4043  0.9512  0.1686
  592SOL     OW 1774   1.808   2.285   0.723  0.0448 -0.2666 -0.2147
  592SOL    HW1 1775   1.759   2.339   0.653  1.1606  0.5769 -0.3002
  592SOL    HW2 1776   1.905   2.259   0.694 -1.9634 -1.8182  0.3619
  593SOL     OW 1777   0.701   0.230   0.254 -0.3516 -0.3807  0.3508
  593SOL    HW1 1778   0.770   0.200   0.186 -2.9388 -1.0653 -1.0705
  593SOL    HW2 1779   0.683   0.334   0.251  1.2199 -1.0298  3.9128
  594SOL     OW 1780   0.965   1.882   2.709  0.7486 -0.0107  0.1717
  594SOL    HW1 1781   1.060   1.854   2.733 -0.8898  3.0838 -0.4494
  594SOL    HW2 1782   0.946   1.978   2.736 -0.7344  0.1118  0.3814
  595SOL     OW 1783   1.554   0.072   1.078 -0.1091  0.1926  0.1664
  595SOL    HW1 1784   1.599  -0.021   1.098 -0.8008 -0.8391  4.2718
  595SOL    HW2 1785   1.470   0.055   1.021  1.0463 -1.3690  0.4527
  596SOL     OW 1786   3.095   1.434   2.249 -0.7949  0.2912  0.2325
  596SOL    HW1 1787   3.108   1.334   2.258 -0.2752  1.2182  1.6060
  596SOL    HW2 1788   3.141   1.477   2.331  0.2636 -1.1285  1.5403
  597SOL     OW 1789   1.997   2.548   1.648 -0.4924  0.2153  0.4359
  597SOL    HW1 1790   2.028   2.487   1.566  4.8054  0.6297 -0.0348
  597SOL    HW2 1791   2.067   2.580   1.723  0.1604  0.7601  4.3314
  598SOL     OW 1792   2.514   2.960   1.248 -0.2122  0.0166 -0.5716
  598SOL    HW1 1793   2.586   2.989   1.318  2.5460 -0.1531 -2.6438
  598SOL    HW2 1794   2.555   2.931   1.155 -0.6452  0.8016 -1.0474
  599SOL     OW 1795   2.930   0.324   2.493 -0.1616  0.2160 -0.0881
  599SOL    HW1 1796   3.017   0.378   2.498  0.4802 -1.8025 -0.3746
  599SOL    HW2 1797   2.844   0.380   2.487 -2.0852  0.4555  1.0192
  600SOL     OW 1798   2.814   1.120   2.766  0.2204 -0.6655 -0.7928
  600SOL    HW1 1799   2.788   1.020   2.775 -1.5958 -1.8349  2.4838
  600SOL    HW2 1800   2.748   1.176   2.821  0.1999  0.0677  0.1790
  601SOL     OW 1801   2.978   1.303   1.974 -0.0564  0.1589  0.2259
  601SOL    HW1 1802   2.890   1.334   1.924 -0.5153  1.8241 -3.6068
  601SOL    HW2 1803   3.062   1.362   1.969 -0.3762 -1.0639 -0.2756
  602SOL     OW 1804   1.463   1.742   2.364  0.8461 -0.5654 -0.2758
  602SOL    HW1 1805   1.401   1.660   2.362  0.1312  1.4309 -2.2333
  602SOL    HW2 1806   1.560   1.722   2.403 -0.5826  0.0331 -0.4942
  603SOL     OW 1807   0.592   1.206   2.722 -0.0346  0.2398 -0.1030
  603SOL    HW1 1808   0.495   1.189   2.688 -1.7215 -1.2290 -2.5909
  603SOL    HW2 1809   0.660   1.138   2.680 -0.0393 -0.5976  0.0535
  604SOL     OW 1810   2.393   1.018   0.152  0.1423  0.3869 -0.1649
  604SOL    HW1 1811   2.406   1.115   0.126  0.3224 -0.6339  1.8853
  604SOL    HW2 1812   2.423   0.948   0.083  1.5546 -0.8873 -1.9129
  605SOL     OW 1813   2.535   1.137   1.947 -0.0141 -0.1705 -0.3050
  605SOL    HW1 1814   2.562   1.088   1.862 -1.0048 -1.0277  4.1385
  605SOL    HW2 1815   2.617   1.178   2.005 -1.0917  2.9562 -0.7453
  606SOL     OW 1816   1.495   2.525   2.558  0.2436 -0.1421 -0.7737
  606SOL    HW1 1817   1.450   2.584   2.488  0.9539  1.3607 -2.9432
  606SOL    HW2 1818   1.453   2.431   2.572  3.5345 -1.7773 -0.6771
  607SOL     OW 1819   1.338   1.582   0.321 -0.3699 -0.1984 -0.1597
  607SOL    HW1 1820   1.259   1.633   0.371 -0.6878  0.8097  2.5277
  607SOL    HW2 1821   1.421   1.641   0.302  0.4272 -0.9653 -2.7216
  608SOL     OW 1822   1.429   2.865   0.338  0.1904 -0.8381  0.4295
  608SOL    HW1 1823   1.492   2.927   0.282  1.0160  0.0911 -0.6388
  608SOL    HW2 1824   1.375   2.921   0.407  0.9069 -0.9594  0.4742
  609SOL     OW 1825   1.279   1.345   0.191 -0.6093 -0.5620 -0.1239
  609SOL    HW1 1826   1.294   1.431   0.255  1.2114  2.3065  3.1025
  609SOL    HW2 1827   1.261   1.371   0.088 -0.3408 -2.2204 -0.0723
  610SOL     OW 1828   3.011   1.156   2.208 -0.2845  0.1750  0.4493
  610SOL    HW1 1829   3.013   1.052   2.188  0.5701 -1.1617 -0.3865
  610SOL    HW2 1830   2.997   1.215   2.123  1.3612  0.6014 -0.7497
  611SOL     OW 1831   2.539   0.296   1.124  0.0903  0.0633  0.1979
  611SOL    HW1 1832   2.466   0.224   1.138 -0.7011  0.4276  2.1748
  611SOL    HW2 1833   2.619   0.292   1.192  2.1250 -0.0532 -1.4445
  612SOL     OW 1834   0.752   2.278   1.166  0.0815 -0.0056 -0.2074
  612SOL    HW1 1835   0.670   2.236   1.216  1.3306  1.1659 -0.7850
  612SOL    HW2 1836   0.725   2.369   1.129  0.5370  1.5557  3.0938
  613SOL     OW 1837   0.825   1.371   2.422 -0.0225  0.0793  0.2052
  613SOL    HW1 1838   0.806   1.421   2.328  2.0622  0.1675 -2.3352
  613SOL    HW2 1839   0.800   1.270   2.417 -0.3989  0.5800 -0.8392
  614SOL     OW 1840   1.546   1.626   1.990  0.1329  0.8401  0.0182
  614SOL    HW1 1841   1.513   1.722   2.013 -1.6314  1.1209  1.9867
  614SOL    HW2 1842   1.633   1.609   2.041 -0.6052 -1.8538 -0.5711
  615SOL     OW 1843   0.775   1.359   1.736  0.3558  0.5322  0.1309
  615SOL    HW1 1844   0.695   1.320   1.682  0.5603 -4.0115  1.5798
  615SOL    HW2 1845   0.818   1.446   1.692  0.5959 -1.3761  1.8751
  616SOL     OW 1846   1.006   1.628   2.162  0.1514 -0.3205 -0.2434
  616SOL    HW1 1847   0.910   1.598   2.175  0.6377 -1.0481 -0.5149
  616SOL    HW2 1848   1.011   1.730   2.161 -0.2356 -0.4828 -4.2580
  617SOL     OW 1849   2.956   1.557   1.641  0.2455 -0.3868  0.3802
  617SOL    HW1 1850   2.919   1.486   1.703  0.7235 -0.3172 -2.1344
  617SOL    HW2 1851   2.966   1.528   1.539  2.1249 -0.0830 -2.6921
  618SOL     OW 1852   1.892   1.983   1.454  0.5545 -0.4056  0.2275
  618SOL    HW1 1853   1.901   1.957   1.354  0.1154 -3.9137  0.6278
  618SOL    HW2 1854   1.866   1.904   1.510 -0.4170  0.1470  0.2482
  619SOL     OW 1855   1.767   0.479   2.423 -0.2205  0.8454  0.4501
  619SOL    HW1 1856   1.692   0.546   2.395 -1.4711  1.5870 -0.6686
  619SOL    HW2 1857   1.743   0.378   2.426  1.3512 -0.5459  2.0898
  620SOL     OW 1858   2.238   2.976   0.635 -0.3164 -0.0197  0.4454
  620SOL    HW1 1859   2.158   3.020   0.668  1.4897 -1.7839  0.6348
  620SOL    HW2 1860   2.275   2.901   0.700  0.1369  1.2119  0.1861
  621SOL     OW 1861   2.169   1.828   1.305 -0.4358 -0.0488 -0.4532
  621SOL    HW1 1862   2.163   1.838   1.407  2.1706  2.4383  1.1350
  621SOL    HW2 1863   2.095   1.757   1.271  0.5743 -1.7807  0.3348
  622SOL     OW 1864   2.244   0.928   1.813  0.0322 -0.1537 -0.0608
  622SOL    HW1 1865   2.336   0.972   1.826 -1.2187  0.6464  0.7228
  622SOL    HW2 1866   2.236   0.837   1.862 -2.3127 -1.7283 -1.6828
  623SOL     OW 1867   1.332   0.842   2.645  0.0697 -0.1271  0.0199
  623SOL    HW1 1868   1.289   0.775   2.711 -1.9782  1.6405  0.2810
  623SOL    HW2 1869   1.274   0.852   2.559 -1.1461 -1.0124  1.5613
  624SOL     OW 1870   0.594   0.670   3.072 -0.1405 -0.4988 -0.0938
  624SOL    HW1 1871   0.600   0.739   2.993 -0.2614  0.0307 -1.9832
  624SOL    HW2 1872   0.559   0.710   3.157  1.8113 -1.2274 -1.6424
  625SOL     OW 1873   2.833   1.696   0.955  0.6164  0.1284 -0.2768
  625SOL    HW1 1874   2.745   1.746   0.927 -0.4875  0.7263 -1.7784
  625SOL    HW2 1875   2.912   1.763   0.953 -0.9803  0.0795  1.7247
  626SOL     OW 1876   0.594   2.748   1.801 -0.2699  0.0140  0.4694
  626SOL    HW1 1877   0.639   2.836   1.826 -0.2110 -1.7966  3.3561
  626SOL    HW2 1878   0.493   2.739   1.818  1.7783 -1.8557  1.6933
  627SOL     OW 1879   0.747   1.017   1.527 -0.6845  0.3697  0.3123
  627SOL    HW1 1880   0.756   0.915   1.524  0.3317 -2.4978  0.6915
  627SOL    HW2 1881   0.824   1.078   1.494 -0.1517 -0.0171  2.7648
  628SOL     OW 1882   2.382   0.158   0.719 -0.1008 -0.3490  0.3064
  628SOL    HW1 1883   2.421   0.091   0.646  5.4022  2.1445 -0.2716
  628SOL    HW2 1884   2.286   0.141   0.742  2.1001  2.2227  0.1630
  629SOL     OW 1885   1.967   0.889   1.970  0.1781  0.4166 -0.2571
  629SOL    HW1 1886   2.031   0.904   1.891  2.2575 -3.1411  1.4317
  629SOL    HW2 1887   1.939   0.973   2.019  0.3497 -1.5528 -0.4350
  630SOL     OW 1888   2.910   2.243   0.846 -0.4714 -0.7963  0.3233
  630SOL    HW1 1889   2.830   2.308   0.839 -0.9202 -1.7585 -1.6774
  630SOL    HW2 1890   2.886   2.152   0.808 -2.3032  1.0647 -1.5820
  631SOL     OW 1891   2.959   0.147   2.122 -0.4857  0.0168  0.0543
  631SOL    HW1 1892   3.026   0.168   2.201  1.3506  1.0120  1.0765
  631SOL    HW2 1893   3.009   0.119   2.034 -3.5597  1.4150  0.9654
  632SOL     OW 1894   2.393   2.517   0.650  0.8391 -0.4616 -0.0861
  632SOL    HW1 1895   2.368   2.600   0.708 -2.3923 -0.6442  0.7466
  632SOL    HW2 1896   2.380   2.533   0.543  2.5479 -1.2846 -3.1166
  633SOL     OW 1897   1.418   1.214   2.552 -0.2593  0.2684 -0.4575
  633SOL    HW1 1898   1.433   1.312   2.590  1.7013 -1.4594  0.5499
  633SOL    HW2 1899   1.329   1.197   2.499 -1.1156 -1.5668 -2.0580
  634SOL     OW 1900   0.719   1.963   0.882 -0.3020 -0.5014  0.6763
  634SOL    HW1 1901   0.621   1.977   0.911  0.4952  0.3250  0.7468
  634SOL    HW2 1902   0.785   2.035   0.919 -0.7586 -0.2838  0.2994
  635SOL     OW 1903   3.027   2.327   3.101  0.3570 -0.2671 -0.1944
  635SOL    HW1 1904   2.956   2.371   3.038 -0.2779 -0.6572  2.6005
  635SOL    HW2 1905   3.103   2.393   3.134  0.9886 -0.0078  0.3504
  636SOL     OW 1906   2.264   2.720   2.081 -0.4342  0.0336 -0.2216
  636SOL    HW1 1907   2.260   2.821   2.093  0.3187 -0.3869  0.0775
  636SOL    HW2 1908   2.205   2.677   2.163 -1.3406  0.6102  1.4698
  637SOL     OW 1909   2.638   0.695   2.057  0.0753  0.5005  0.3664
  637SOL    HW1 1910   2.578   0.689   1.975  1.1914  2.1880 -1.0808
  637SOL    HW2 1911   2.684   0.791   2.061 -1.5539 -0.8251  0.7718
  638SOL     OW 1912   2.433   1.781   1.258  0.1323  0.0076  0.2468
  638SOL    HW1 1913   2.331   1.801   1.269 -0.3568  0.8779  0.3768
  638SOL    HW2 1914   2.474   1.727   1.337  0.0834  0.8713 -0.7138
  639SOL     OW 1915   1.290   2.173   1.723  0.2848  0.0134 -0.0270
  639SOL    HW1 1916   1.315   2.095   1.662 -0.4300  0.3608 -1.6060
  639SOL    HW2 1917   1.191   2.160   1.758 -1.3398 -0.3592 -2.2558
  640SOL     OW 1918   0.195   1.160   1.588  0.2880 -0.1899  0.0380
  640SOL    HW1 1919   0.175   1.205   1.679  2.0726 -0.1865  1.2830
  640SOL    HW2 1920   0.286   1.107   1.587  1.8472 -0.3855  2.7739
  641SOL     OW 1921   2.043   0.178   1.547  0.1662 -0.1568  0.3834
  641SOL    HW1 1922   2.018   0.166   1.647 -1.9343 -1.1498  0.8112
  641SOL    HW2 1923   2.123   0.129   1.510 -3.4500 -0.5056  0.0007
  642SOL     OW 1924   1.989   0.080   0.309  0.0235  0.5146 -0.3792
  642SOL    HW1 1925   2.085   0.099   0.334 -3.5467  2.2900  1.9031
  642SOL    HW2 1926   1.924   0.074   0.387 -1.1273  0.3548 -2.0055
  643SOL     OW 1927   2.936   1.846   2.068 -0.5414 -0.0153  0.1364
  643SOL    HW1 1928   2.871   1.784   2.020  2.4978 -1.8061 -1.1681
  643SOL    HW2 1929   2.932   1.944   2.032 -4.2119  0.9245  0.7832
  644SOL     OW 1930   2.252   2.383   1.205  0.9933  0.1336  0.2425
  644SOL    HW1 1931   2.304   2.312   1.151 -3.1035  2.2280  1.5464
  644SOL    HW2 1932   2.250   2.368   1.307 -2.9083  2.5184 -0.5624
  645SOL     OW 1933   0.631   0.810   1.258  0.1812  0.4194 -0.5349
  645SOL    HW1 1934   0.556   0.847   1.324 -0.4873  0.5579 -0.8080
  645SOL    HW2 1935   0.626   0.866   1.172  2.0336  1.6144  0.4199
  646SOL     OW 1936   1.451   1.892   2.014 -0.4136  0.1785 -0.8466
  646SOL    HW1 1937   1.512   1.966   1.972  2.7309 -0.4165 -1.0470
  646SOL    HW2 1938   1.396   1.924   2.096 -0.0112  0.8855 -0.8906
  647SOL     OW 1939   0.815   1.086   0.676  0.0252  0.1259 -0.3235
  647SOL    HW1 1940   0.875   1.112   0.762  0.0057  2.3135 -1.7364
  647SOL    HW2 1941   0.746   1.007   0.690 -0.2987 -0.0191 -0.3298
  648SOL     OW 1942   0.098   0.206   0.204  0.4595 -0.2199 -0.1699
  648SOL    HW1 1943   0.144   0.174   0.118 -1.2377 -0.9784  3.3767
  648SOL    HW2 1944   0.081   0.312   0.206  1.2463  0.5876  1.4314
  649SOL     OW 1945   3.023   0.253   0.891 -0.0264 -0.0878  0.3316
  649SOL    HW1 1946   3.122   0.248   0.859  0.7921  0.8174 -1.3607
  649SOL    HW2 1947   3.003   0.314   0.974 -1.0496  1.8304 -0.5598
  650SOL     OW 1948   2.769   0.699   1.457 -0.3963 -0.4787 -0.2181
  650SOL    HW1 1949   2.667   0.674   1.453 -1.4806 -0.4485 -0.5755
  650SOL    HW2 1950   2.805   0.771   1.392  2.0927 -0.1164  0.6725
  651SOL     OW 1951   0.913   1.558   1.609  0.2265  0.4390  0.0495
  651SOL    HW1 1952   0.957   1.627   1.672 -1.1011  1.9074 -0.2528
  651SOL    HW2 1953   0.971   1.538   1.519  0.5519  1.4787  1.4623
  652SOL     OW 1954   2.328   2.413   2.502  0.3465 -0.0268  0.0145
  652SOL    HW1 1955   2.230   2.398   2.512  1.5538 -1.1395  0.3827
  652SOL    HW2 1956   2.353   2.507   2.471 -1.2199 -0.7240  0.1878
  653SOL     OW 1957   2.722   1.239   0.191  0.2287  0.4175 -0.0387
  653SOL    HW1 1958   2.724   1.295   0.282 -1.6625  0.2342  1.8252
  653SOL    HW2 1959   2.774   1.147   0.200  2.4671  0.6147 -1.2307
  654SOL     OW 1960   1.233   2.235   1.261  0.7395 -0.0340  0.0344
  654SOL    HW1 1961   1.241   2.160   1.328  0.7057  1.4953  0.0195
  654SOL    HW2 1962   1.288   2.217   1.176 -1.7904 -0.9196  1.3037
  655SOL     OW 1963   0.157   0.946   1.949  0.2899 -0.1977 -0.4404
  655SOL    HW1 1964   0.191   0.914   1.857  0.6492 -1.5243  0.5338
  655SOL    HW2 1965   0.228   1.014   1.982  0.9847 -2.7008  0.2132
  656SOL     OW 1966   2.572   2.452   2.636 -0.1870  0.7760 -0.3455
  656SOL    HW1 1967   2.645   2.470   2.569  1.7018 -2.4626 -0.0884
  656SOL    HW2 1968   2.503   2.392   2.587  0.2302  1.5268  2.0751
  657SOL     OW 1969   2.996   1.026   1.914 -0.1729  0.5043  0.6484
  657SOL    HW1 1970   2.999   1.125   1.942  1.8497  1.7043  0.4393
  657SOL    HW2 1971   3.086   0.974   1.927 -1.2816  2.8983 -0.2122
  658SOL     OW 1972   1.658   0.205   2.380  0.6740  0.3472 -0.2269
  658SOL    HW1 1973   1.696   0.142   2.453 -1.5438  1.2770 -1.1636
  658SOL    HW2 1974   1.688   0.173   2.287  1.1349 -0.8580  2.5789
  659SOL     OW 1975   1.425   0.612   2.867 -0.2428  0.3052  0.4230
  659SOL    HW1 1976   1.468   0.703   2.889  0.7837 -0.3600  2.5492
  659SOL    HW2 1977   1.324   0.616   2.893  2.5637  0.9825 -0.0450
  660SOL     OW 1978   1.403   0.337   1.422  0.6664  0.1630  0.5223
  660SOL    HW1 1979   1.403   0.375   1.518  0.0037 -0.1090 -2.5189
  660SOL    HW2 1980   1.481   0.277   1.394  2.3560  0.4730  0.4564
  661SOL     OW 1981   2.473   1.190   0.656 -0.1500 -0.0784  0.4492
  661SOL    HW1 1982   2.455   1.190   0.550 -0.9029 -0.3267  0.7995
  661SOL    HW2 1983   2.427   1.271   0.701 -2.4836 -0.4778  1.3262
  662SOL     OW 1984   1.417   0.429   1.760 -0.2041  0.4874  0.5353
  662SOL    HW1 1985   1.345   0.356   1.752  1.5685 -0.2318  1.9510
  662SOL    HW2 1986   1.403   0.485   1.845 -1.8180  0.3650  0.1877
  663SOL     OW 1987   0.738   1.536   2.221 -0.2976 -0.2043  0.1283
  663SOL    HW1 1988   0.665   1.617   2.240 -3.5804 -1.2249 -4.3115
  663SOL    HW2 1989   0.720   1.488   2.127 -2.3487 -0.7892 -2.9262
  664SOL     OW 1990   1.636   2.084   1.447 -0.2448 -0.0423  0.0567
  664SOL    HW1 1991   1.579   2.023   1.507 -0.0875  3.7635  2.3226
  664SOL    HW2 1992   1.741   2.061   1.450 -0.9770 -1.0252  0.0095
  665SOL     OW 1993   2.273   0.663   1.918 -0.0532 -0.3749  0.1106
  665SOL    HW1 1994   2.186   0.615   1.911  0.2997  2.4888 -0.2455
  665SOL    HW2 1995   2.291   0.699   2.014 -1.4406  0.2774  0.1532
  666SOL     OW 1996   0.401   2.312   0.350 -0.6680  0.3711 -0.1910
  666SOL    HW1 1997   0.440   2.376   0.417 -1.4735 -1.0899 -2.2100
  666SOL    HW2 1998   0.299   2.296   0.368 -1.2947  1.0647 -0.0271
  667SOL     OW 1999   1.993   0.207   1.196 -0.6763 -0.0720  0.1650
  667SOL    HW1 2000   1.973   0.283   1.133 -3.3725 -3.0114  0.0353
  667SOL    HW2 2001   1.907   0.171   1.239 -0.4525  0.7402 -1.7636
  668SOL     OW 2002   2.048   0.474   1.126 -1.1923  0.0446  0.5220
  668SOL    HW1 2003   2.118   0.510   1.058  0.7950  2.9609 -1.9967
  668SOL    HW2 2004   2.085   0.441   1.215 -0.1740  0.0340  0.3009
  669SOL     OW 2005   0.013   2.170   1.010  0.1019  0.0733 -0.2414
  669SOL    HW1 2006  -0.061   2.206   0.940 -1.2235  1.2568 -1.7261
  669SOL    HW2 2007   0.017   2.236   1.097 -0.0790  2.0308 -0.6757
  670SOL     OW 2008   2.857   2.351   1.955 -0.3663 -0.1236 -0.1308
  670SOL    HW1 2009   2.802   2.312   2.039 -1.6289  0.2804 -0.9430
  670SOL    HW2 2010   2.831   2.450   1.935 -0.4564  2.0963  0.3023
  671SOL     OW 2011   1.749   1.715   1.476  0.2225  0.2410 -0.2456
  671SOL    HW1 2012   1.761   1.770   1.387  0.6371 -0.8145  2.2773
  671SOL    HW2 2013   1.679   1.639   1.464 -1.3938  1.7248 -2.3464
  672SOL     OW 2014   0.412   0.615   2.395 -0.3024 -0.2076  0.3893
  672SOL    HW1 2015   0.432   0.648   2.296 -0.3851 -1.7604 -1.3195
  672SOL    HW2 2016   0.328   0.661   2.433  0.8497  0.2229 -0.6568
  673SOL     OW 2017   0.130   1.162   1.152 -0.3925 -0.5626 -0.0325
  673SOL    HW1 2018   0.151   1.220   1.234 -0.5464 -1.1874 -1.2522
  673SOL    HW2 2019   0.215   1.134   1.094  2.2703 -0.8352 -0.4422
  674SOL     OW 2020   1.662   2.959   0.222 -0.6069  0.5674  0.0274
  674SOL    HW1 2021   1.684   3.046   0.166  0.4339  0.7093 -3.9371
  674SOL    HW2 2022   1.748   2.903   0.226 -0.9427  1.9303 -2.6315
  675SOL     OW 2023   1.736   0.823   2.353 -0.0677  0.0130  0.0562
  675SOL    HW1 2024   1.822   0.815   2.299 -2.7308  1.3832  1.5186
  675SOL    HW2 2025   1.671   0.743   2.328 -1.5565  0.8877 -0.0925
  676SOL     OW 2026   2.514   1.455   1.981 -0.0222 -0.1660  0.6568
  676SOL    HW1 2027   2.474   1.434   1.882  1.0973 -0.8984 -1.1408
  676SOL    HW2 2028   2.553   1.376   2.030 -3.7508 -0.3103 -0.4118
  677SOL     OW 2029   1.913   0.656   0.869  0.7583  0.4929 -0.7882
  677SOL    HW1 2030   1.918   0.673   0.971  2.4847  0.4839  2.2000
  677SOL    HW2 2031   1.917   0.551   0.848  0.2297 -1.4141 -0.4336
  678SOL     OW 2032   0.017   0.767   1.681 -0.4342 -0.0163 -0.1241
  678SOL    HW1 2033   0.121   0.763   1.705  0.0515  1.0895  0.5174
  678SOL    HW2 2034  -0.038   0.750   1.764 -0.2233 -0.8999 -0.0132
  679SOL     OW 2035   2.578   1.195   1.090  0.2492 -0.3850 -0.4315
  679SOL    HW1 2036   2.481   1.228   1.111  2.8921 -1.8183 -1.6254
  679SOL    HW2 2037   2.589   1.092   1.101 -2.9517 -0.3305  1.4696
  680SOL     OW 2038   2.810   0.607   1.712 -0.8468  0.2953 -0.0420
  680SOL    HW1 2039   2.794   0.660   1.624 -0.7235  0.8439 -1.2713
  680SOL    HW2 2040   2.857   0.659   1.790  1.3097 -3.1485 -0.7588
  681SOL     OW 2041   3.006   0.190   1.650 -0.1168  0.2140  0.1093
  681SOL    HW1 2042   3.058   0.178   1.569 -0.3997 -1.4191  0.5936
  681SOL    HW2 2043   2.946   0.275   1.661 -0.6043  2.0549  2.5472
  682SOL     OW 2044   0.817   3.078   1.315 -0.8095 -0.2262  0.2275
  682SOL    HW1 2045   0.732   3.055   1.362  3.0747 -0.2144 -0.7980
  682SOL    HW2 2046   0.798   3.071   1.214 -2.1664  1.3373  2.3295
  683SOL     OW 2047   1.347   0.217   2.210 -0.0075 -0.4764  0.2612
  683SOL    HW1 2048   1.299   0.284   2.271  1.0407 -0.0673 -1.6265
  683SOL    HW2 2049   1.429   0.261   2.169 -0.6307  2.3096  1.5669
  684SOL     OW 2050   1.462   2.113   0.516 -0.2635  0.4321  0.1330
  684SOL    HW1 2051   1.512   2.053   0.586 -1.3492  0.3026  1.8844
  684SOL    HW2 2052   1.368   2.074   0.497  0.1809  3.3359  2.0742
  685SOL     OW 2053   2.115   2.013   1.958  0.3123 -0.3879  0.0904
  685SOL    HW1 2054   2.197   2.000   1.895  0.7188 -2.4033  1.8175
  685SOL    HW2 2055   2.137   1.979   2.058 -0.6366 -2.4601 -1.0349
  686SOL     OW 2056   1.509   1.795   2.712 -0.2007 -0.1807  0.2861
  686SOL    HW1 2057   1.554   1.757   2.796  1.3456  2.6086 -0.1367
  686SOL    HW2 2058   1.570   1.794   2.629  0.8068 -1.6430  1.8756
  687SOL     OW 2059   1.284   2.477   1.989 -0.0585 -0.2968  0.5317
  687SOL    HW1 2060   1.302   2.378   2.003  0.3861  1.0188  1.8923
  687SOL    HW2 2061   1.338   2.543   2.049  1.0437  3.7935 -0.7375
  688SOL     OW 2062   2.070   1.518   1.734 -0.3161  0.5724  0.1619
  688SOL    HW1 2063   2.160   1.570   1.740 -0.3067 -0.8361  1.6886
  688SOL    HW2 2064   2.059   1.490   1.632  0.1641  0.2291 -2.6803
  689SOL     OW 2065   2.432   1.069   2.706  0.3381 -0.1753 -0.3392
  689SOL    HW1 2066   2.340   1.022   2.718  3.6816  0.5718 -0.1315
  689SOL    HW2 2067   2.493   1.069   2.793 -0.9919  0.5664  0.3727
  690SOL     OW 2068   2.240   2.812   0.015  0.6319 -0.2594  0.0601
  690SOL    HW1 2069   2.191   2.742  -0.043 -0.3011 -0.0807 -1.6428
  690SOL    HW2 2070   2.177   2.831   0.096  0.0882  1.8256 -1.5163
  691SOL     OW 2071   2.592   0.475   2.204 -0.2321  0.5641  0.1066
  691SOL    HW1 2072   2.618   0.401   2.136  0.4765  0.7970  0.9076
  691SOL    HW2 2073   2.597   0.572   2.161  1.3790 -2.9010  2.6912
  692SOL     OW 2074   2.737   1.229   0.735  0.5379 -0.2121 -0.2700
  692SOL    HW1 2075   2.638   1.232   0.711  2.4698  0.2430 -1.4549
  692SOL    HW2 2076   2.767   1.311   0.795  2.1697  1.0187 -2.4401
  693SOL     OW 2077   2.836   2.930   0.618 -1.0065  0.3301 -0.2893
  693SOL    HW1 2078   2.848   3.014   0.675 -0.5315 -2.7799  1.3959
  693SOL    HW2 2079   2.792   2.953   0.528 -2.3503 -1.6147 -1.1047
  694SOL     OW 2080   2.351   2.186   0.079 -0.4100  0.0807 -0.1909
  694SOL    HW1 2081   2.336   2.287   0.100 -0.8398 -1.4318  0.6598
  694SOL    HW2 2082   2.270   2.145   0.032  1.8122  1.8422 -0.3274
  695SOL     OW 2083   0.580   2.977   1.441 -0.0554 -0.2605  0.6112
  695SOL    HW1 2084   0.504   2.914   1.406  3.3542 -1.5050  1.3189
  695SOL    HW2 2085   0.562   3.005   1.537  0.9751 -0.5232 -1.9962
  696SOL     OW 2086   2.789   1.945   0.758  0.4561 -0.0914  1.0117
  696SOL    HW1 2087   2.877   1.892   0.737  1.6406  0.3370 -3.0270
  696SOL    HW2 2088   2.710   1.915   0.698  0.8840  1.5484  0.8124
  697SOL     OW 2089   1.615   2.028   1.825  0.0858  0.3270  0.0737
  697SOL    HW1 2090   1.704   2.007   1.873  1.4909 -1.0083 -0.2418
  697SOL    HW2 2091   1.608   2.131   1.793 -0.7322  2.0893 -1.9406
  698SOL     OW 2092   2.940   0.439   2.761 -0.2497  0.1715 -0.5634
  698SOL    HW1 2093   2.961   0.393   2.672 -0.3728 -0.6800  2.6095
  698SOL    HW2 2094   2.998   0.399   2.843  0.8814 -3.0229 -1.4935
  699SOL     OW 2095   1.578   0.077   2.922  0.0445 -0.0176  0.3249
  699SOL    HW1 2096   1.568  -0.020   2.882  1.6228  2.3725  2.2210
  699SOL    HW2 2097   1.617   0.140   2.852 -0.9951  0.7599  2.2714
  700SOL     OW 2098   0.970   2.305   1.320 -0.0546  0.1860  0.0142
  700SOL    HW1 2099   1.070   2.278   1.295  1.5360  2.5693  1.4664
  700SOL    HW2 2100   0.896   2.279   1.252  1.2299 -2.0139  0.2218
  701SOL     OW 2101   1.926   2.847   3.057  0.2861 -0.5220  0.0822
  701SOL    HW1 2102   1.907   2.788   3.142  2.3423 -1.7799  0.1110
  701SOL    HW2 2103   1.945   2.950   3.073  0.5917  2.0250 -2.6953
  702SOL     OW 2104   2.076   1.343   2.002  0.3131  0.3125 -0.3130
  702SOL    HW1 2105   2.170   1.305   1.976 -0.4544  1.9191  0.1824
  702SOL    HW2 2106   2.031   1.399   1.928  0.3921  1.0455 -3.1762
  703SOL     OW 2107   1.928   0.895   1.422  0.2946  0.3372  0.0432
  703SOL    HW1 2108   1.907   0.795   1.449  1.4527 -2.5669 -0.2918
  703SOL    HW2 2109   2.001   0.936   1.485  0.1269 -1.0452  0.6678
  704SOL     OW 2110   0.315   2.056   1.672  0.0353 -0.3562 -0.7343
  704SOL    HW1 2111   0.311   1.979   1.739  1.6375  2.0167 -0.5222
  704SOL    HW2 2112   0.388   2.134   1.687  0.0638  1.6552  1.9742
  705SOL     OW 2113   2.500   1.481   0.968 -0.5963 -0.6193 -0.0945
  705SOL    HW1 2114   2.474   1.454   0.868  1.1249  1.6624 -1.5442
  705SOL    HW2 2115   2.584   1.433   1.003 -1.4314 -2.5533 -0.6494
  706SOL     OW 2116   0.642   1.648   1.824  0.3914  0.7429  0.1852
  706SOL    HW1 2117   0.670   1.554   1.858  1.2653  2.5295 -0.0947
  706SOL    HW2 2118   0.692   1.716   1.881 -0.1583  0.1698 -1.9165
  707SOL     OW 2119   2.279   1.212   1.885  0.6417  0.0137  0.1770
  707SOL    HW1 2120   2.377   1.194   1.914 -0.0194 -2.2362  0.3404
  707SOL    HW2 2121   2.220   1.124   1.872 -2.8902 -1.1239 -0.1897
  708SOL     OW 2122   3.056   0.545   3.068 -0.4741  0.2619  0.3226
  708SOL    HW1 2123   3.041   0.614   2.993 -0.2573 -0.7674  2.0643
  708SOL    HW2 2124   3.084   0.448   3.046 -0.6823 -0.9362  2.0456
  709SOL     OW 2125   1.822   1.850   0.220  0.0624  0.0186 -0.3680
  709SOL    HW1 2126   1.813   1.948   0.256 -2.1739 -0.3506 -1.5802
  709SOL    HW2 2127   1.837   1.847   0.115 -0.6486  2.8082 -2.3391
  710SOL     OW 2128   1.755   1.654   2.444 -0.7219 -0.4130 -0.0343
  710SOL    HW1 2129   1.792   1.644   2.346 -0.8751 -0.8011 -0.3025
  710SOL    HW2 2130   1.732   1.562   2.497  0.6625 -3.5225  0.9445
  711SOL     OW 2131   2.658   2.979   0.972  0.8517  0.3570 -0.4601
  711SOL    HW1 2132   2.617   3.069   0.953  0.3773 -1.3407 -0.4894
  711SOL    HW2 2133   2.759   2.975   0.958  0.4177 -0.3626 -1.7209
  712SOL     OW 2134   1.344   2.218   1.989 -0.4219 -0.1693  0.2654
  712SOL    HW1 2135   1.449   2.215   1.999  1.9152 -2.3390 -0.2701
  712SOL    HW2 2136   1.313   2.195   1.891 -2.3275 -1.4625 -0.2701
  713SOL     OW 2137   2.926   1.456   2.536  0.8159 -0.0814  0.2890
  713SOL    HW1 2138   2.862   1.379   2.513 -0.2944 -0.2351  0.8261
  713SOL    HW2 2139   2.923   1.491   2.632 -0.5382  1.4619 -0.8250
  714SOL     OW 2140   2.725   0.498   2.479 -0.2158 -0.1685  0.3461
  714SOL    HW1 2141   2.659   0.451   2.543 -1.4456 -0.2039  1.1304
  714SOL    HW2 2142   2.683   0.515   2.383 -1.6848 -0.4651 -0.8378
  715SOL     OW 2143   1.597   2.012   1.129  0.6078  0.0552  0.8283
  715SOL    HW1 2144   1.507   2.048   1.095  0.1604  1.7520 -0.1228
  715SOL    HW2 2145   1.624   2.051   1.223  0.4159 -2.7932  0.6295
  716SOL     OW 2146   1.206   0.137   1.463 -0.1013 -0.9682  0.1295
  716SOL    HW1 2147   1.102   0.153   1.443 -2.6236  0.2466 -0.7823
  716SOL    HW2 2148   1.251   0.227   1.445  0.8925  0.0635 -1.3384
  717SOL     OW 2149   1.145   0.510   1.595 -0.3484  0.3130  0.6564
  717SOL    HW1 2150   1.232   0.572   1.610  1.9797 -0.2317 -0.3124
  717SOL    HW2 2151   1.140   0.495   1.490  0.4697  1.5760 -0.9811
  718SOL     OW 2152   0.679   0.952   0.974 -0.4467 -0.0799  0.0753
  718SOL    HW1 2153   0.650   0.920   0.882  0.8632 -0.8000 -0.0836
  718SOL    HW2 2154   0.652   1.048   0.997  2.2412  2.2307  1.5687
  719SOL     OW 2155   0.628   1.776   2.283  0.2290 -0.4446  0.7910
  719SOL    HW1 2156   0.698   1.822   2.345 -1.8200 -2.3033  3.3946
  719SOL    HW2 2157   0.546   1.754   2.342 -0.9957 -1.3055  3.9707
  720SOL     OW 2158   2.188   1.157   0.288 -0.2576  0.2495 -0.3363
  720SOL    HW1 2159   2.218   1.074   0.229  1.3340 -3.3739 -1.3466
  720SOL    HW2 2160   2.176   1.130   0.389 -0.6012  1.4675  2.6896
  721SOL     OW 2161   2.251   2.996   2.127 -0.1737 -0.1580 -0.2579
  721SOL    HW1 2162   2.238   3.036   2.034 -1.0262 -0.6181  2.6960
  721SOL    HW2 2163   2.228   3.054   2.211  3.3047 -1.7796  1.0678
  722SOL     OW 2164   2.399   1.575   0.472  0.3475 -0.0348 -0.3637
  722SOL    HW1 2165   2.417   1.547   0.376  0.7748  1.1120  1.5881
  722SOL    HW2 2166   2.395   1.680   0.477 -1.9473  0.5435 -0.7280
  723SOL     OW 2167   2.534   2.712   1.962 -0.6401 -0.2658  0.0066
  723SOL    HW1 2168   2.592   2.776   2.019 -0.3031 -0.4087 -1.9101
  723SOL    HW2 2169   2.430   2.716   1.989 -1.0016 -0.2913  0.7337
  724SOL     OW 2170   0.531   2.478   2.418 -0.0206  0.0515 -0.1482
  724SOL    HW1 2171   0.428   2.466   2.434  0.4847 -0.8396 -1.8511
  724SOL    HW2 2172   0.579   2.497   2.511 -2.2313  0.1618 -0.5709
  725SOL     OW 2173   2.482   2.815   1.514 -0.1618 -0.9064 -0.0569
  725SOL    HW1 2174   2.494   2.858   1.422 -0.3620  0.4325 -0.8260
  725SOL    HW2 2175   2.496   2.712   1.520  1.5946  0.5951 -0.4649
  726SOL     OW 2176   2.503   2.263   0.699 -0.4584 -0.1152 -0.3821
  726SOL    HW1 2177   2.457   2.351   0.683  0.5156 -1.6452 -0.6030
  726SOL    HW2 2178   2.468   2.192   0.627 -4.0624 -1.8646 -3.4360
  727SOL     OW 2179   0.157   3.074   0.039 -0.1249 -0.0884 -0.2880
  727SOL    HW1 2180   0.197   2.985   0.077  1.2520 -2.3533 -2.3716
  727SOL    HW2 2181   0.176   3.089  -0.059  1.3285 -1.7047  1.9139
  728SOL     OW 2182   2.868   0.649   0.969 -0.2634  0.0961 -0.0350
  728SOL    HW1 2183   2.773   0.668   0.932 -0.5820  1.8603 -0.0049
  728SOL    HW2 2184   2.876   0.619   1.069  3.3274  1.6557 -2.9411
  729SOL     OW 2185   3.015   2.471   0.754 -0.3313  0.8561 -0.6187
  729SOL    HW1 2186   2.972   2.404   0.821 -2.9819 -0.1064  0.2278
  729SOL    HW2 2187   3.116   2.466   0.726 -3.3437  2.1184 -0.0419
  730SOL     OW 2188   2.630   0.684   0.844  0.4742 -1.0264 -0.1903
  730SOL    HW1 2189   2.589   0.784   0.830 -2.6453  0.1819  0.1752
  730SOL    HW2 2190   2.674   0.640   0.759  0.0891  0.2187 -1.1212
  731SOL     OW 2191   0.115   2.101   2.503  0.1576  0.2826 -0.6785
  731SOL    HW1 2192   0.043   2.109   2.577 -1.2849 -0.8500  0.1843
  731SOL    HW2 2193   0.155   2.196   2.480  3.4948 -0.7619 -0.9220
  732SOL     OW 2194   1.138   2.816   1.933 -0.2058  0.0070 -0.1242
  732SOL    HW1 2195   1.170   2.779   2.024 -1.9185  1.5125 -1.1607
  732SOL    HW2 2196   1.141   2.745   1.858 -0.5095  0.1765  1.6440
  733SOL     OW 2197   3.055   0.580   2.236 -0.3152  0.1790 -0.8120
  733SOL    HW1 2198   3.102   0.623   2.157 -2.5156 -0.4084  2.0310
  733SOL    HW2 2199   3.001   0.491   2.208 -0.3840 -0.5833 -0.2393
  734SOL     OW 2200   1.407   0.375   2.747 -0.5665  0.1202  0.8511
  734SOL    HW1 2201   1.416   0.466   2.802 -1.5100  1.1089 -0.0090
  734SOL    HW2 2202   1.323   0.318   2.768 -0.2769  0.0015 -0.2083
  735SOL     OW 2203   2.893   2.638   2.283 -0.0933 -0.3968  0.0828
  735SOL    HW1 2204   2.864   2.602   2.189  0.8680  1.0933 -1.6256
  735SOL    HW2 2205   2.987   2.680   2.275 -2.0136 -1.4663  0.1023
  736SOL     OW 2206   0.799   0.306   2.632 -0.0572 -0.0142  0.7622
  736SOL    HW1 2207   0.698   0.306   2.650 -2.5761  2.8555 -0.3662
  736SOL    HW2 2208   0.821   0.304   2.528  0.6385 -2.4382 -3.3048
  737SOL     OW 2209   2.669   0.506   2.880 -0.3984 -0.1022  0.0140
  737SOL    HW1 2210   2.664   0.442   2.962 -0.5069  0.4588  0.1891
  737SOL    HW2 2211   2.753   0.487   2.820 -0.1258  2.2964 -1.2559
  738SOL     OW 2212   1.640   1.265   2.904 -0.3763  0.5042  0.4564
  738SOL    HW1 2213   1.739   1.255   2.870  1.4114  1.3211  0.6134
  738SOL    HW2 2214   1.580   1.198   2.859  0.0501  0.9394 -0.4969
  739SOL     OW 2215   1.718   0.641   0.663 -0.1368 -0.6244  0.5102
  739SOL    HW1 2216   1.770   0.677   0.747  0.5882 -1.6034 -1.7765
  739SOL    HW2 2217   1.775   0.579   0.606 -2.7147 -0.6809  1.6888
  740SOL     OW 2218   1.971   1.902   2.240 -0.6211 -0.1755 -0.6182
  740SOL    HW1 2219   2.031   1.830   2.281  0.1596 -4.0946 -3.1077
  740SOL    HW2 2220   1.873   1.877   2.231  2.1457 -0.2502  0.3947
  741SOL     OW 2221   2.541   0.048   2.594 -0.6114  0.2351  0.6428
  741SOL    HW1 2222   2.645   0.036   2.586 -0.7794 -0.2531 -1.0996
  741SOL    HW2 2223   2.499   0.079   2.506  0.7483 -0.4559 -1.9141
  742SOL     OW 2224   2.236   1.442   0.222  0.2255 -0.1969  0.0171
  742SOL    HW1 2225   2.149   1.506   0.235 -1.9961 -0.9182 -3.2150
  742SOL    HW2 2226   2.213   1.342   0.252  4.1101 -0.5855  1.6455
  743SOL     OW 2227   1.856   0.664   2.603  0.1202 -0.3254 -0.7069
  743SOL    HW1 2228   1.827   0.605   2.526  0.4072  1.2599  1.7015
  743SOL    HW2 2229   1.785   0.730   2.645 -3.6835  0.3162 -1.2333
  744SOL     OW 2230   2.614   2.122   0.148  0.3393  0.0093 -0.3551
  744SOL    HW1 2231   2.511   2.117   0.122 -3.6979 -3.2013 -1.3162
  744SOL    HW2 2232   2.646   2.025   0.180 -1.9768 -0.8733 -1.9816
  745SOL     OW 2233   2.165   2.616   2.309  0.3784 -0.0656  0.9795
  745SOL    HW1 2234   2.077   2.567   2.290  0.9577  0.3387 -1.7857
  745SOL    HW2 2235   2.173   2.672   2.394 -4.2279  0.0417  0.2444
  746SOL     OW 2236   0.002   2.620   1.718 -0.0591 -0.2293 -0.3721
  746SOL    HW1 2237   0.080   2.598   1.653  1.0682  0.1872 -0.5243
  746SOL    HW2 2238   0.003   2.715   1.757  2.0174  0.9763 -0.7170
  747SOL     OW 2239   0.056   1.763   1.669 -0.3460  0.2076 -0.0012
  747SOL    HW1 2240  -0.012   1.686   1.670  0.6736  0.7548  0.0174
  747SOL    HW2 2241   0.109   1.763   1.580  1.5982 -0.4814 -4.0206
  748SOL     OW 2242   1.821   2.746   2.830 -0.6519  0.1194  0.0555
  748SOL    HW1 2243   1.839   2.815   2.908  2.8966 -1.1028  2.2235
  748SOL    HW2 2244   1.719   2.725   2.808 -0.8984 -4.7172 -1.4551
  749SOL     OW 2245   1.345   3.049   0.966 -0.7128 -0.1283  0.0101
  749SOL    HW1 2246   1.257   2.993   0.972 -0.2003  0.6885 -0.7382
  749SOL    HW2 2247   1.406   3.018   0.887  1.6780 -0.7867 -3.0019
  750SOL     OW 2248   2.299   0.179   1.895  0.0911  0.1133 -0.5017
  750SOL    HW1 2249   2.308   0.234   1.807 -0.0279  0.0621  1.3279
  750SOL    HW2 2250   2.317   0.240   1.974  0.8095  0.5192 -1.5265
  751SOL     OW 2251   0.905   2.163   2.793  0.0925 -0.3086 -0.7179
  751SOL    HW1 2252   0.960   2.170   2.885 -0.6962 -1.1222  0.0632
  751SOL    HW2 2253   0.806   2.141   2.813  0.1623 -0.7271 -0.4077
  752SOL     OW 2254   1.297   0.858   1.360 -0.3764  0.4194  0.2181
  752SOL    HW1 2255   1.351   0.941   1.330 -0.8407 -1.3363  2.4774
  752SOL    HW2 2256   1.346   0.769   1.384 -3.5762  0.7804  0.3861
  753SOL     OW 2257   0.923   2.580   1.675 -0.6392 -0.5102  0.1726
  753SOL    HW1 2258   1.029   2.577   1.684  2.1037 -1.2851  1.1946
  753SOL    HW2 2259   0.888   2.665   1.624  0.9638 -0.9589 -1.7882
  754SOL     OW 2260   1.081   1.209   2.999 -0.1937  0.1499  0.7380
  754SOL    HW1 2261   1.153   1.131   2.989  1.6853  1.0158  0.2465
  754SOL    HW2 2262   1.127   1.305   3.007  3.3900  1.0330  0.7433
  755SOL     OW 2263   1.981   0.470   2.236 -0.1855 -0.0563 -0.2630
  755SOL    HW1 2264   2.048   0.389   2.248  0.5032 -0.4383  0.5308
  755SOL    HW2 2265   1.929   0.484   2.327 -0.2493 -1.1200 -0.4144
  756SOL     OW 2266   2.550   1.037   2.944  0.2790 -0.4261  0.0409
  756SOL    HW1 2267   2.637   1.008   2.989 -2.2423 -0.0585 -0.0782
  756SOL    HW2 2268   2.473   0.988   2.999 -0.2386 -0.8991 -0.4806
  757SOL     OW 2269   0.036   0.506   1.853 -0.2217 -0.5043 -0.9544
  757SOL    HW1 2270   0.102   0.434   1.815 -2.0525 -0.4505 -2.0566
  757SOL    HW2 2271  -0.064   0.483   1.857 -0.9758 -4.1270  1.1512
  758SOL     OW 2272   2.378   0.092   1.485  0.1346  0.0419 -0.4108
  758SOL    HW1 2273   2.357  -0.011   1.502  0.9549 -0.3957  0.8743
  758SOL    HW2 2274   2.387   0.108   1.377  1.1441  1.2877 -2.6721
  759SOL     OW 2275   1.703   0.075   0.061 -0.2531 -0.7615  0.2785
  759SOL    HW1 2276   1.665   0.094  -0.034  0.5238 -0.3510 -0.3612
  759SOL    HW2 2277   1.807   0.067   0.056  0.5264 -0.0291  0.1993
  760SOL     OW 2278   2.712   2.112   2.813  0.6808 -0.0730 -0.4377
  760SOL    HW1 2279   2.735   2.015   2.849  0.1916 -1.2307 -1.7223
  760SOL    HW2 2280   2.685   2.175   2.889 -0.0031 -2.3434 -0.2676
  761SOL     OW 2281   1.893   1.756   1.703  0.1077 -0.0617  0.2368
  761SOL    HW1 2282   1.941   1.670   1.731 -2.3780 -0.2119 -0.7917
  761SOL    HW2 2283   1.816   1.740   1.636  2.0898  3.9087  3.7790
  762SOL     OW 2284   0.477   2.370   0.988 -0.2324  0.0556  0.7338
  762SOL    HW1 2285   0.544   2.381   0.909  1.7049 -0.0346 -1.9452
  762SOL    HW2 2286   0.523   2.395   1.074  2.0810 -2.3643 -0.1105
  763SOL     OW 2287   2.079   1.515   2.938 -0.7522 -0.9946 -0.1658
  763SOL    HW1 2288   2.159   1.485   2.987 -0.0213  1.0696 -2.2457
  763SOL    HW2 2289   1.995   1.495   2.992 -0.2092 -0.4041  0.0954
  764SOL     OW 2290   0.663   0.611   0.836 -0.3669  0.0398  0.3931
  764SOL    HW1 2291   0.598   0.537   0.800  2.3676 -1.9294  1.6853
  764SOL    HW2 2292   0.748   0.570   0.883 -0.7891 -2.8486  1.9949
  765SOL     OW 2293   0.713   0.263   0.754  0.0195 -0.1087 -0.1187
  765SOL    HW1 2294   0.793   0.282   0.688  0.0694 -1.1903 -0.6917
  765SOL    HW2 2295   0.703   0.328   0.838  0.6658  0.9707  5.3843
  766SOL     OW 2296   2.864   2.098   0.019 -0.0257  0.4123 -0.1549
  766SOL    HW1 2297   2.770   2.115   0.057  0.3466 -1.4677 -1.7851
  766SOL    HW2 2298   2.935   2.180   0.022  0.1069 -0.5602  2.0824
  767SOL     OW 2299   2.814   1.577   0.614  0.1894 -0.1811 -0.3875
  767SOL    HW1 2300   2.731   1.598   0.671  0.8152  1.7211  0.6004
  767SOL    HW2 2301   2.904   1.609   0.644 -3.0253 -3.1005  1.2374
  768SOL     OW 2302   1.047   0.143   0.265  0.2334  1.2710  0.2560
  768SOL    HW1 2303   0.996   0.116   0.348  3.0952 -1.9872  1.3692
  768SOL    HW2 2304   1.150   0.118   0.261  0.7317  3.0154  1.4747
  769SOL     OW 2305   0.999   1.913   2.222 -0.4985 -0.1182 -0.3443
  769SOL    HW1 2306   0.917   1.916   2.293  1.7953 -1.3200  0.4758
  769SOL    HW2 2307   1.088   1.876   2.258 -0.3612 -0.5456 -1.4996
  770SOL     OW 2308   0.190   1.120   2.311 -0.0070  0.3698  0.0851
  770SOL    HW1 2309   0.147   1.199   2.368 -2.0360  1.0913  1.5226
  770SOL    HW2 2310   0.133   1.039   2.304  1.1677 -0.3893 -0.1680
  771SOL     OW 2311   3.003   2.831   1.893  0.4919  0.2454  0.4423
  771SOL    HW1 2312   2.969   2.901   1.826  0.6531  0.9713  0.9104
  771SOL    HW2 2313   2.976   2.865   1.987 -0.8938 -0.6013 -1.3674
  772SOL     OW 2314   2.202   0.227   2.896 -0.2756  0.2394 -0.1943
  772SOL    HW1 2315   2.248   0.133   2.894  1.8696 -1.3386 -0.1807
  772SOL    HW2 2316   2.217   0.282   2.989  0.6560 -1.1431  2.7754
  773SOL     OW 2317   0.743   2.175   2.454  0.6127  0.5632  0.1005
  773SOL    HW1 2318   0.699   2.202   2.358 -0.9185  2.2428 -1.0276
  773SOL    HW2 2319   0.678   2.192   2.534 -1.5125  1.6124 -0.2039
  774SOL     OW 2320   2.033   3.086   2.631 -0.0180 -0.2051  0.4291
  774SOL    HW1 2321   2.053   3.186   2.636  1.4408  1.7130  0.5478
  774SOL    HW2 2322   2.077   3.025   2.708  1.8520 -0.6219  0.5331
  775SOL     OW 2323   2.527   2.844   2.401 -0.2274 -0.2774  0.0595
  775SOL    HW1 2324   2.513   2.947   2.389  3.7663  0.8874  4.1069
  775SOL    HW2 2325   2.615   2.817   2.450  0.2292 -0.4007  0.6847
  776SOL     OW 2326   0.019   1.318   0.200  0.6726  0.5528  0.1392
  776SOL    HW1 2327  -0.002   1.249   0.120 -1.1051  2.1186 -1.8501
  776SOL    HW2 2328  -0.038   1.291   0.284 -0.1179 -0.5233 -2.5411
  777SOL     OW 2329   0.304   2.836   0.414 -0.2476 -0.0043 -0.1456
  777SOL    HW1 2330   0.208   2.876   0.423 -0.3233  1.7049  1.9369
  777SOL    HW2 2331   0.373   2.909   0.418  2.1677 -0.2284 -0.6410
  778SOL     OW 2332   1.325   1.949   0.178 -0.2367 -0.0518 -0.0186
  778SOL    HW1 2333   1.274   1.976   0.266 -3.4755 -0.4737 -0.2193
  778SOL    HW2 2334   1.375   2.035   0.136  0.1777  0.7243  1.8811
  779SOL     OW 2335   0.190   0.844   0.466  0.0795 -0.0087 -0.5058
  779SOL    HW1 2336   0.166   0.749   0.440 -0.4759  0.2512  1.4276
  779SOL    HW2 2337   0.116   0.888   0.529 -0.7453  0.9751 -0.7506
  780SOL     OW 2338   0.120   0.204   2.265 -0.2153  0.3679 -0.5362
  780SOL    HW1 2339   0.159   0.286   2.219 -2.5445 -1.3941  0.9545
  780SOL    HW2 2340   0.169   0.118   2.241 -2.8985  0.8982 -2.2844
  781SOL     OW 2341   0.663   1.768   1.564 -0.0177  0.6178  0.1832
  781SOL    HW1 2342   0.695   1.712   1.650  0.5985  0.1871 -0.0013
  781SOL    HW2 2343   0.562   1.768   1.542  0.8397  1.6917  0.1031
  782SOL     OW 2344   2.605   0.162   0.882 -0.3277  0.8554  0.3426
  782SOL    HW1 2345   2.518   0.163   0.826 -2.2283  2.5160  2.0769
  782SOL    HW2 2346   2.600   0.231   0.962  0.4498  1.0354 -3.1929
  783SOL     OW 2347   2.844   0.755   2.601 -0.0766 -0.7271 -0.2046
  783SOL    HW1 2348   2.790   0.788   2.686  0.3784  1.9405 -1.5707
  783SOL    HW2 2349   2.798   0.668   2.557 -0.0989  0.8914  1.5464
  784SOL     OW 2350   1.472   2.175   0.085 -0.3101  0.0563 -0.1869
  784SOL    HW1 2351   1.531   2.254   0.117  0.5895  1.3214 -1.4994
  784SOL    HW2 2352   1.441   2.186  -0.016 -1.6061 -1.2297 -2.8606
  785SOL     OW 2353   2.133   0.355   0.053  0.1116  0.2086 -0.3447
  785SOL    HW1 2354   2.047   0.359   0.113  0.3391 -1.6800  1.7333
  785SOL    HW2 2355   2.149   0.437  -0.005  0.8389 -1.7371 -0.5025
  786SOL     OW 2356   2.013   2.173   2.186  0.7465  0.4313  0.4705
  786SOL    HW1 2357   2.011   2.068   2.206 -1.0615 -0.0555  3.5824
  786SOL    HW2 2358   2.112   2.201   2.158  3.7375  1.3855 -3.4227
  787SOL     OW 2359   1.400   0.614   1.003  0.1650  0.1764 -0.2533
  787SOL    HW1 2360   1.322   0.685   1.018 -2.0351  1.0435  0.3294
  787SOL    HW2 2361   1.420   0.603   0.901 -0.3769  0.2260 -2.8266
  788SOL     OW 2362   1.240   0.413   0.010 -0.0952 -0.1654 -0.1786
  788SOL    HW1 2363   1.148   0.396  -0.040 -1.7923  0.8275  1.8697
  788SOL    HW2 2364   1.236   0.492   0.079 -0.8894 -0.5142 -4.3390
  789SOL     OW 2365   2.563   0.114   1.854  0.3703 -0.8799 -0.8045
  789SOL    HW1 2366   2.460   0.129   1.889 -2.3501  0.3845  1.0452
  789SOL    HW2 2367   2.579   0.018   1.826 -0.3499  1.5027 -0.1598
  790SOL     OW 2368   2.633   2.751   0.813 -0.6880 -0.4637  0.1186
  790SOL    HW1 2369   2.695   2.760   0.737  1.0738 -2.0316  0.4900
  790SOL    HW2 2370   2.607   2.843   0.854 -2.6596 -1.9460  1.2766
  791SOL     OW 2371   1.911   1.235   0.215  0.4314  0.3231  0.2546
  791SOL    HW1 2372   1.832   1.191   0.267 -0.3800  1.0652  0.3302
  791SOL    HW2 2373   2.000   1.203   0.259 -3.4672 -1.3619  2.3427
  792SOL     OW 2374   0.443   1.995   2.147 -0.1614 -0.1110  0.3985
  792SOL    HW1 2375   0.486   2.084   2.160 -2.2842  2.1892 -2.4494
  792SOL    HW2 2376   0.407   1.948   2.231  2.6808 -1.5448  0.0235
  793SOL     OW 2377   2.101   1.553   2.160 -0.0534 -0.2404 -0.4029
  793SOL    HW1 2378   2.178   1.613   2.113 -0.3948  2.2272  0.0457
  793SOL    HW2 2379   2.086   1.462   2.110 -0.2274  3.1632 -0.1489
  794SOL     OW 2380   0.441   1.333   2.425 -0.1736 -0.0740  0.3021
  794SOL    HW1 2381   0.434   1.290   2.332 -0.6253 -0.4258  0.2002
  794SOL    HW2 2382   0.444   1.436   2.422 -3.3918 -0.0819 -2.6000
  795SOL     OW 2383   2.398   2.285   1.723 -0.6867 -0.3197 -0.6461
  795SOL    HW1 2384   2.342   2.345   1.783  0.9623 -1.7047 -0.4890
  795SOL    HW2 2385   2.361   2.191   1.733  1.2170 -0.7610 -1.1758
  796SOL     OW 2386   3.068   1.121   2.663 -0.0939 -0.3739 -0.1992
  796SOL    HW1 2387   2.980   1.109   2.717  2.9668  3.1251 -0.5643
  796SOL    HW2 2388   3.149   1.136   2.730 -0.4592  0.9120 -1.8164
  797SOL     OW 2389   0.791   0.604   1.351 -0.2258 -0.0170 -0.4523
  797SOL    HW1 2390   0.857   0.643   1.421 -1.3496 -2.3322 -1.0435
  797SOL    HW2 2391   0.733   0.681   1.313  1.7329  0.2708  0.9987
  798SOL     OW 2392   1.362   0.374   1.116 -0.2062  0.7518 -0.1869
  798SOL    HW1 2393   1.348   0.378   1.217  1.4520  1.5926  0.8867
  798SOL    HW2 2394   1.388   0.470   1.072 -0.9932 -1.0755  0.8431
  799SOL     OW 2395   1.909   2.660   1.035  0.2811 -0.4717 -0.0619
  799SOL    HW1 2396   1.887   2.632   1.134 -1.6611 -3.0956  0.1557
  799SOL    HW2 2397   1.830   2.658   0.969  1.6973 -1.2878  2.8339
  800SOL     OW 2398   2.955   0.743   1.900  0.1486  0.0865  0.7242
  800SOL    HW1 2399   2.935   0.842   1.924  0.0720  1.5034 -0.3482
  800SOL    HW2 2400   3.041   0.703   1.945  3.5163  0.7795  1.8823
  801SOL     OW 2401   1.954   2.220   0.070  0.3788 -0.7364 -0.4056
  801SOL    HW1 2402   1.861   2.196   0.039  1.5472  3.1543 -0.8570
  801SOL    HW2 2403   2.024   2.157   0.023  1.5127  3.0889 -1.2187
  802SOL     OW 2404   0.642   0.806   2.563 -0.8093  0.1980  0.5537
  802SOL    HW1 2405   0.715   0.769   2.500 -1.2029  2.1406  1.8355
  802SOL    HW2 2406   0.545   0.772   2.543 -2.8981 -1.0182  0.9735
  803SOL     OW 2407   0.975   0.039   0.786 -0.1512  0.5922 -0.0014
  803SOL    HW1 2408   0.998   0.136   0.823  0.8027  0.7259 -1.1203
  803SOL    HW2 2409   0.941   0.045   0.688 -0.7815 -2.1654  0.4894
  804SOL     OW 2410   0.313   0.031   2.150 -0.2176 -0.6945  0.3067
  804SOL    HW1 2411   0.336   0.132   2.125 -1.1584 -0.5161  1.1069
  804SOL    HW2 2412   0.267  -0.032   2.078  1.2359 -3.3015  0.8784
  805SOL     OW 2413   2.337   0.344   0.424 -0.1736  0.4807 -0.4876
  805SOL    HW1 2414   2.418   0.367   0.481 -0.4517  1.0897 -2.8886
  805SOL    HW2 2415   2.364   0.324   0.325 -0.1946  1.4631  1.5401
  806SOL     OW 2416   0.652   2.455   1.779  0.2907  0.0010 -0.2201
  806SOL    HW1 2417   0.641   2.558   1.803 -0.7160  0.6181  1.2794
  806SOL    HW2 2418   0.714   2.438   1.697 -2.0808 -0.2344 -1.1554
  807SOL     OW 2419   2.472   0.813   0.356  0.8288 -0.0503  0.3527
  807SOL    HW1 2420   2.548   0.842   0.423  0.5084 -0.9464  0.6045
  807SOL    HW2 2421   2.474   0.880   0.276 -0.8123  2.6320 -0.1415
  808SOL     OW 2422   0.660   2.069   2.884  0.0206  0.4803  0.2399
  808SOL    HW1 2423   0.597   2.117   2.948  1.1610  0.8609  1.4425
  808SOL    HW2 2424   0.677   1.974   2.922  2.9738  2.6377  1.2484
  809SOL     OW 2425   2.624   1.961   1.879 -0.8006 -0.1087  0.1889
  809SOL    HW1 2426   2.726   1.984   1.884  1.0379  0.7291  2.1710
  809SOL    HW2 2427   2.571   2.008   1.800 -1.8300 -0.5222 -2.5701
  810SOL     OW 2428   2.130   1.091   0.579  0.3830  0.3702 -0.0045
  810SOL    HW1 2429   2.084   1.010   0.616  4.1178  0.4171  0.6164
  810SOL    HW2 2430   2.081   1.175   0.613 -2.7467  0.9428 -2.3581
  811SOL     OW 2431   1.339   2.505   1.215 -0.2746 -0.1467  0.0267
  811SOL    HW1 2432   1.276   2.427   1.230  1.7455 -0.6976  0.4644
  811SOL    HW2 2433   1.297   2.597   1.247 -0.7869 -2.3375 -0.2208
  812SOL     OW 2434   1.416   0.757   1.934 -0.0597  0.5518  0.2454
  812SOL    HW1 2435   1.478   0.827   1.983  2.8701 -2.5076 -0.1275
  812SOL    HW2 2436   1.314   0.776   1.939  1.8815 -1.1688 -0.6326
  813SOL     OW 2437   1.658   2.041   2.517 -0.2901 -0.2152 -0.0234
  813SOL    HW1 2438   1.734   1.976   2.544  0.2045  1.1105  0.4189
  813SOL    HW2 2439   1.615   2.024   2.425 -1.9140 -2.1367 -0.6030
  814SOL     OW 2440   2.929   1.519   2.824  0.4022  0.5853 -0.2407
  814SOL    HW1 2441   2.992   1.507   2.906 -2.1463 -0.3391 -1.1353
  814SOL    HW2 2442   2.939   1.611   2.785  1.1038  0.1021  0.7496
  815SOL     OW 2443   2.176   2.889   2.760  0.0886  0.2761 -0.1425
  815SOL    HW1 2444   2.151   2.811   2.821 -0.0303 -0.2829  0.8866
  815SOL    HW2 2445   2.242   2.951   2.812 -1.4796  0.0863 -0.6063
  816SOL     OW 2446   1.621   0.318   1.630 -0.0675 -0.1086 -0.0128
  816SOL    HW1 2447   1.637   0.215   1.631 -1.3819  2.0728  0.2980
  816SOL    HW2 2448   1.545   0.355   1.693 -1.0959 -1.1483  1.0650
  817SOL     OW 2449   0.329   1.151   2.614 -0.2821 -0.1205  0.2826
  817SOL    HW1 2450   0.226   1.171   2.616 -0.2430 -0.0328 -1.6410
  817SOL    HW2 2451   0.363   1.211   2.535  1.6227 -0.4227  2.6955
  818SOL     OW 2452   1.962   0.957   0.337 -0.3895  0.8941 -0.6637
  818SOL    HW1 2453   2.047   0.919   0.378  1.0831  2.5189  0.9902
  818SOL    HW2 2454   1.906   1.014   0.407  0.1193  0.2013 -0.1753
  819SOL     OW 2455   2.717   2.977   2.960 -0.4592 -0.4690 -0.0874
  819SOL    HW1 2456   2.794   2.903   2.950 -0.3688 -3.3399  1.3027
  819SOL    HW2 2457   2.620   2.943   2.929 -4.2501 -0.7257  1.1704
  820SOL     OW 2458   1.224   1.069   0.599 -0.4284 -0.2183 -0.0284
  820SOL    HW1 2459   1.231   1.154   0.657 -0.9193 -1.9175  0.0079
  820SOL    HW2 2460   1.204   0.978   0.654  0.9546 -1.6887 -0.4279
  821SOL     OW 2461   0.036   1.284   0.670 -0.1673 -0.4000 -0.2135
  821SOL    HW1 2462   0.007   1.282   0.768  2.6665  2.2078  2.0002
  821SOL    HW2 2463   0.077   1.377   0.638 -1.4620  3.8389  0.5465
  822SOL     OW 2464   2.613   1.769   2.413  0.4343  0.8789 -0.1015
  822SOL    HW1 2465   2.601   1.820   2.502  0.8664 -0.8375  1.5659
  822SOL    HW2 2466   2.527   1.758   2.358  2.2399 -0.6926  0.6658
  823SOL     OW 2467   2.044   0.865   1.156 -0.5295 -0.6408 -0.8013
  823SOL    HW1 2468   2.036   0.882   1.263 -0.2317  0.8371  2.1879
  823SOL    HW2 2469   1.957   0.889   1.105  1.3047 -0.1484 -1.5401
  824SOL     OW 2470   0.285   1.992   2.862 -0.0035 -0.6564  0.0699
  824SOL    HW1 2471   0.240   1.909   2.907 -0.8925 -1.4752 -3.0188
  824SOL    HW2 2472   0.343   1.972   2.780 -0.5497 -0.3639 -0.1675
  825SOL     OW 2473   1.283   1.106   0.293  0.0121  0.3242 -0.0315
  825SOL    HW1 2474   1.276   1.194   0.240 -2.2252 -2.5508  0.9897
  825SOL    HW2 2475   1.235   1.114   0.386  1.8888 -0.1592  1.5052
  826SOL     OW 2476   1.886   0.639   1.568 -0.3674 -0.2637 -0.7206
  826SOL    HW1 2477   1.960   0.576   1.605 -0.1126  0.3348 -0.6389
  826SOL    HW2 2478   1.807   0.595   1.511  0.6752 -2.7452  1.4240
  827SOL     OW 2479   0.712   1.248   0.222  0.2459  0.1001  0.8541
  827SOL    HW1 2480   0.792   1.215   0.165  1.9699 -1.3574 -1.1630
  827SOL    HW2 2481   0.656   1.175   0.267 -0.8947 -3.4618 -1.4922
  828SOL     OW 2482   2.624   0.191   1.554  0.1297  0.3039  0.0745
  828SOL    HW1 2483   2.527   0.179   1.526  0.5728  0.4934  2.0175
  828SOL    HW2 2484   2.640   0.227   1.652 -0.6030 -2.1823  1.2112
  829SOL     OW 2485   2.826   2.456   2.974  0.5171 -0.4479 -0.1470
  829SOL    HW1 2486   2.745   2.389   2.974  1.0572  1.5980  0.4327
  829SOL    HW2 2487   2.796   2.550   3.003 -0.1864  1.7103 -2.3213
  830SOL     OW 2488   2.778   0.947   3.059 -0.3110  0.3581 -0.4873
  830SOL    HW1 2489   2.851   1.020   3.042  1.7656  0.6219 -0.0639
  830SOL    HW2 2490   2.807   0.863   3.117  0.1756 -2.6723 -1.4544
  831SOL     OW 2491   3.075   0.657   0.371  0.2736 -0.4731  0.3847
  831SOL    HW1 2492   3.039   0.596   0.446  0.8408  0.0997 -0.5076
  831SOL    HW2 2493   3.126   0.609   0.293 -0.8293 -1.7100 -1.6173
  832SOL     OW 2494   1.821   0.778   3.005 -0.1895  0.3193  0.6042
  832SOL    HW1 2495   1.731   0.804   2.958 -2.4131  0.7106 -0.0233
  832SOL    HW2 2496   1.831   0.675   3.027  3.9250  1.0380 -0.2001
  833SOL     OW 2497   2.406   2.100   0.490  0.5226  0.2745  0.1233
  833SOL    HW1 2498   2.322   2.086   0.430  0.9039 -3.8219 -1.0675
  833SOL    HW2 2499   2.471   2.021   0.488 -0.3623  2.9379  1.3249
  834SOL     OW 2500   0.131   0.240   0.484 -0.9184  0.1712  0.1612
  834SOL    HW1 2501   0.196   0.156   0.496 -0.2999  1.8384 -1.0354
  834SOL    HW2 2502   0.066   0.218   0.407  0.0214  0.6783 -0.9021
  835SOL     OW 2503   2.282   1.549   1.110 -0.0113 -0.1873  1.1207
  835SOL    HW1 2504   2.317   1.629   1.171  1.9082 -2.4921 -0.2829
  835SOL    HW2 2505   2.362   1.530   1.043  0.0639  1.0940  0.4954
  836SOL     OW 2506   1.601   0.851   2.607  0.6147 -0.2507 -0.3862
  836SOL    HW1 2507   1.501   0.848   2.619  1.7206  0.4483  0.8156
  836SOL    HW2 2508   1.636   0.868   2.515  0.4578 -1.2489  0.5113
  837SOL     OW 2509   1.651   0.097   0.546 -0.5974 -0.2743  0.6307
  837SOL    HW1 2510   1.602   0.167   0.602 -1.3407 -0.8469  1.0028
  837SOL    HW2 2511   1.633   0.108   0.441 -0.6630  0.2087 -2.0231
  838SOL     OW 2512   1.229   1.529   2.801  0.7798 -0.2628 -0.8100
  838SOL    HW1 2513   1.195   1.520   2.898  0.6809  0.4211 -1.2076
  838SOL    HW2 2514   1.166   1.471   2.740  0.5319  0.6888 -1.0423
  839SOL     OW 2515   1.742   0.249   1.023  0.1415 -0.2399  0.0881
  839SOL    HW1 2516   1.743   0.319   1.098 -1.4683 -0.5312  0.8834
  839SOL    HW2 2517   1.664   0.179   1.025 -0.9197  1.7689  0.0736
  840SOL     OW 2518   2.619   2.929   1.723 -0.8779 -0.4388 -0.0063
  840SOL    HW1 2519   2.571   2.907   1.634  0.0349 -1.1810 -0.2673
  840SOL    HW2 2520   2.613   2.853   1.787 -1.1039 -1.6201 -0.2381
  841SOL     OW 2521   1.540   0.854   2.963  0.6259  0.5979 -0.6209
  841SOL    HW1 2522   1.539   0.858   3.065  0.1854  0.6642  0.3573
  841SOL    HW2 2523   1.509   0.936   2.916  0.0770 -0.4198 -1.4349
  842SOL     OW 2524   0.823   1.520   0.929 -0.3706 -0.5003 -0.2922
  842SOL    HW1 2525   0.787   1.598   0.989  0.5592 -0.0578 -4.0131
  842SOL    HW2 2526   0.742   1.459   0.904  1.1790  1.0760  1.3613
  843SOL     OW 2527   0.093   0.084   1.445 -0.2410  0.4779 -0.0767
  843SOL    HW1 2528   0.194   0.103   1.468 -1.5160 -0.0843  1.0794
  843SOL    HW2 2529   0.080  -0.020   1.437 -0.6606 -1.3155 -3.6271
  844SOL     OW 2530   0.797   2.496   0.299 -0.2164  0.2608 -0.1805
  844SOL    HW1 2531   0.734   2.451   0.367  3.7641 -0.5065  1.1195
  844SOL    HW2 2532   0.741   2.554   0.235  2.0448  2.1893  0.7402
  845SOL     OW 2533   1.606   2.895   1.357 -0.4024 -0.4032 -0.0897
  845SOL    HW1 2534   1.657   2.881   1.448  0.8671  2.6294  1.1192
  845SOL    HW2 2535   1.512   2.939   1.372 -1.8933 -2.2408  0.6366
  846SOL     OW 2536   1.535   2.950   0.797  0.0605  0.1650  0.6709
  846SOL    HW1 2537   1.508   2.907   0.710 -1.6967  3.1003  0.9518
  846SOL    HW2 2538   1.633   2.979   0.802 -2.8166 -0.7155  2.6850
  847SOL     OW 2539   2.031   1.623   0.280 -0.3244 -0.3146 -0.0638
  847SOL    HW1 2540   1.983   1.553   0.339 -0.4514  2.2197 -0.8105
  847SOL    HW2 2541   1.965   1.707   0.268 -2.0342  0.8695  0.5800
  848SOL     OW 2542   2.499   0.811   2.611  0.5851 -1.0451  0.1337
  848SOL    HW1 2543   2.447   0.900   2.628 -2.8440  0.8289  1.6575
  848SOL    HW2 2544   2.434   0.739   2.576 -2.2665  2.1180 -2.8785
  849SOL     OW 2545   2.573   0.851   2.344 -0.4761 -0.0676  0.4003
  849SOL    HW1 2546   2.639   0.803   2.279 -0.2195  1.2720 -2.2990
  849SOL    HW2 2547   2.575   0.818   2.441  2.3778  0.6624 -0.8866
  850SOL     OW 2548   1.548   0.106   1.351  0.2437  0.4156 -0.2458
  850SOL    HW1 2549   1.529   0.103   1.248 -3.0933 -1.3730  0.0354
  850SOL    HW2 2550   1.478   0.041   1.396  0.6850 -0.2095 -1.7844
  851SOL     OW 2551   0.450   1.770   0.620  0.3598 -0.6386 -0.1018
  851SOL    HW1 2552   0.439   1.873   0.619  0.0900 -1.1697  1.1357
  851SOL    HW2 2553   0.529   1.741   0.565 -0.2641 -0.0782  0.2964
  852SOL     OW 2554   0.775   2.153   1.684 -0.0318  0.8182 -0.2385
  852SOL    HW1 2555   0.770   2.248   1.635  0.1366  0.4742  1.6810
  852SOL    HW2 2556   0.718   2.139   1.768  0.5799 -0.4903 -4.2919
  853SOL     OW 2557   2.522   1.553   2.612 -0.3911  0.0591 -0.3971
  853SOL    HW1 2558   2.498   1.474   2.552 -2.1263  1.4660 -5.2185
  853SOL    HW2 2559   2.555   1.633   2.554  1.3295  1.3325  0.1156
  854SOL     OW 2560   2.452   1.412   1.698  0.6777 -0.7999  0.3622
  854SOL    HW1 2561   2.507   1.394   1.614  0.3431 -1.5946 -0.9305
  854SOL    HW2 2562   2.353   1.376   1.690  1.5158 -0.1751 -1.8370
  855SOL     OW 2563   2.106   2.365   0.972  0.2623 -0.1578  0.5121
  855SOL    HW1 2564   2.102   2.445   0.912  0.4281 -1.0771 -1.4619
  855SOL    HW2 2565   2.151   2.387   1.060  1.2381 -1.0303 -0.9899
  856SOL     OW 2566   1.363   1.502   0.853  0.6407  0.4447  0.1013
  856SOL    HW1 2567   1.438   1.558   0.889 -1.3252 -3.0719 -3.3274
  856SOL    HW2 2568   1.271   1.520   0.900 -0.2569  2.0786  0.0388
  857SOL     OW 2569   3.065   2.654   1.049 -1.3275 -0.0491  0.2816
  857SOL    HW1 2570   3.013   2.570   1.029  1.9304  0.5602  0.1271
  857SOL    HW2 2571   3.154   2.654   0.992  1.9599  0.2750  2.1624
  858SOL     OW 2572   2.314   2.017   1.774 -0.2000 -0.1355 -0.2873
  858SOL    HW1 2573   2.228   2.010   1.716 -0.6173  2.9450 -0.4614
  858SOL    HW2 2574   2.395   1.980   1.716 -0.2985  2.2557 -0.2704
  859SOL     OW 2575   2.493   0.564   1.039  0.2253 -0.2681 -0.1053
  859SOL    HW1 2576   2.559   0.602   0.969  0.5026 -2.1075 -0.8410
  859SOL    HW2 2577   2.530   0.473   1.068 -0.4883  1.4080 -1.1773
  860SOL     OW 2578   1.929   2.810   0.439 -0.5683 -0.0579 -0.2722
  860SOL    HW1 2579   1.917   2.730   0.366 -0.4122 -1.0989 -2.2354
  860SOL    HW2 2580   2.017   2.859   0.440  1.5142  0.0885 -2.3807
  861SOL     OW 2581   1.085   2.508   2.819 -0.6092  0.3990 -0.0438
  861SOL    HW1 2582   1.133   2.591   2.781 -1.3929 -2.4733  0.3415
  861SOL    HW2 2583   1.113   2.488   2.915  0.3155 -1.7878 -3.2382
  862SOL     OW 2584   2.855   2.541   1.613  0.6202 -0.6655 -0.0393
  862SOL    HW1 2585   2.920   2.562   1.694 -0.5307  1.2370  1.3620
  862SOL    HW2 2586   2.840   2.621   1.549  1.2302 -0.9976  2.9356
  863SOL     OW 2587   1.828   2.701   0.175  0.0764  0.1249  0.4930
  863SOL    HW1 2588   1.898   2.622   0.187 -0.5519 -1.2005  2.8879
  863SOL    HW2 2589   1.731   2.668   0.194  1.0063  0.2602 -3.3588
  864SOL     OW 2590   1.908   1.182   2.853  0.2290 -0.4453 -0.6909
  864SOL    HW1 2591   1.876   1.106   2.789 -1.1588  0.2524  1.0666
  864SOL    HW2 2592   1.993   1.157   2.907 -2.9664 -0.6197  2.0337
  865SOL     OW 2593   2.251   1.861   0.588  0.1396 -0.0888 -0.0147
  865SOL    HW1 2594   2.308   1.877   0.673 -2.6488  1.6449  0.4715
  865SOL    HW2 2595   2.183   1.785   0.610  0.8688  1.1002 -0.0171
  866SOL     OW 2596   2.970   2.944   1.031  0.8394  0.4462  0.1772
  866SOL    HW1 2597   2.984   2.972   0.935  0.2796 -2.1059  0.2390
  866SOL    HW2 2598   3.000   2.844   1.055 -1.3218 -2.5496 -0.0248
  867SOL     OW 2599   0.330   1.377   0.917  0.5870  0.3014 -0.1461
  867SOL    HW1 2600   0.323   1.300   0.846 -1.5494  1.6399  1.8511
  867SOL    HW2 2601   0.316   1.469   0.874 -2.2420  1.3495 -1.2735
  868SOL     OW 2602   0.717   1.839   2.043 -0.0263 -0.2266 -0.1940
  868SOL    HW1 2603   0.682   1.805   2.134 -0.7999 -0.3546 -0.1935
  868SOL    HW2 2604   0.709   1.942   2.029 -2.6528 -1.7803 -2.5363
  869SOL     OW 2605   2.559   1.946   1.592 -0.7062 -0.1893  0.0267
  869SOL    HW1 2606   2.635   2.012   1.584 -1.5560 -0.9360 -0.6480
  869SOL    HW2 2607   2.596   1.856   1.627 -0.2447  2.5885  0.7224
  870SOL     OW 2608   2.302   2.649   1.275  0.5306 -0.3514  0.1376
  870SOL    HW1 2609   2.249   2.557   1.271  0.0935  0.0878 -2.7023
  870SOL    HW2 2610   2.301   2.705   1.358  3.2239  0.3987  1.5723
  871SOL     OW 2611   3.029   2.181   0.572 -0.2035 -0.5059  0.4011
  871SOL    HW1 2612   2.995   2.268   0.618  1.3677 -0.4373 -1.6360
  871SOL    HW2 2613   2.959   2.140   0.507  0.5488 -2.1416  1.1693
  872SOL     OW 2614   2.108   0.479   1.682 -0.0120 -0.4734  0.7464
  872SOL    HW1 2615   2.090   0.474   1.784  0.6461  1.1336  0.6895
  872SOL    HW2 2616   2.203   0.444   1.664  2.2967  2.2273 -2.1119
  873SOL     OW 2617   1.715   2.115   3.059 -0.5551 -0.3056 -0.3147
  873SOL    HW1 2618   1.637   2.125   3.130  0.9507 -0.0795  0.0924
  873SOL    HW2 2619   1.682   2.126   2.960  1.1018  0.4702 -0.4795
  874SOL     OW 2620   0.648   2.449   0.771  0.0624 -0.5358 -0.0931
  874SOL    HW1 2621   0.634   2.543   0.810  1.7640 -2.7244 -1.3094
  874SOL    HW2 2622   0.752   2.424   0.777  1.6245 -0.4308  1.5860
  875SOL     OW 2623   2.293   1.574   1.421 -0.9351  0.3306  0.0127
  875SOL    HW1 2624   2.383   1.596   1.467  2.9544  1.1241  0.1238
  875SOL    HW2 2625   2.307   1.528   1.326 -1.5738 -0.1943  0.2625
  876SOL     OW 2626   0.093   2.222   2.749 -0.1495  0.3278  0.1178
  876SOL    HW1 2627   0.166   2.149   2.756 -0.0855  1.0447 -0.8612
  876SOL    HW2 2628   0.121   2.313   2.778 -1.2476 -3.3872 -2.4990
  877SOL     OW 2629   2.907   2.654   0.595 -0.2067 -0.1570  0.2006
  877SOL    HW1 2630   2.915   2.752   0.632 -0.8617 -0.1583  1.3372
  877SOL    HW2 2631   2.956   2.585   0.653  2.7972  0.1299 -0.9448
  878SOL     OW 2632   2.808   1.521   2.204  0.8298  0.3761 -0.3741
  878SOL    HW1 2633   2.907   1.491   2.217 -0.5618 -1.5800  0.4347
  878SOL    HW2 2634   2.760   1.546   2.290  1.7858 -1.3540 -1.3342
  879SOL     OW 2635   2.361   0.080   1.172 -0.1903 -0.5893 -0.5532
  879SOL    HW1 2636   2.428   0.003   1.192  1.2334 -0.6690 -0.7166
  879SOL    HW2 2637   2.264   0.043   1.151 -0.6853 -0.4011 -2.2735
  880SOL     OW 2638   0.727   0.476   2.279 -0.1689 -0.2826 -0.3298
  880SOL    HW1 2639   0.662   0.412   2.329 -0.1586  1.3701 -0.3890
  880SOL    HW2 2640   0.784   0.425   2.205  2.5012 -0.4475  0.5983
  881SOL     OW 2641   0.859   0.061   0.476  0.5501  0.1347 -0.2385
  881SOL    HW1 2642   0.904  -0.030   0.507 -1.2096 -0.3480 -0.3676
  881SOL    HW2 2643   0.754   0.037   0.470 -2.4190 -0.2670  0.1358
  882SOL     OW 2644   2.714   1.715   1.692 -0.1542  0.0922 -0.4991
  882SOL    HW1 2645   2.792   1.644   1.674 -1.1805  3.2034 -1.3293
  882SOL    HW2 2646   2.717   1.756   1.787  2.5434  1.0035 -1.0227
  883SOL     OW 2647   0.891   0.566   0.993 -0.8461  0.0092  0.0019
  883SOL    HW1 2648   0.936   0.657   1.019  1.3407  1.7648 -0.6446
  883SOL    HW2 2649   0.887   0.504   1.078  1.3427 -0.6201  0.9714
  884SOL     OW 2650   1.207   1.764   1.165  0.5006  0.4680  0.7163
  884SOL    HW1 2651   1.165   1.689   1.111 -1.8918 -1.2447 -1.4631
  884SOL    HW2 2652   1.161   1.856   1.138  1.4977  2.1568 -0.2283
  885SOL     OW 2653   2.357   1.800   2.304 -0.2214  0.5495 -0.0171
  885SOL    HW1 2654   2.266   1.772   2.350  1.7554 -0.4882  0.1153
  885SOL    HW2 2655   2.352   1.898   2.274  4.6662 -2.0295 -0.0996
  886SOL     OW 2656   2.633   0.425   1.790  0.0966  0.1590 -0.1669
  886SOL    HW1 2657   2.600   0.426   1.887 -0.1674  0.1062  0.7549
  886SOL    HW2 2658   2.693   0.505   1.762  1.4951 -0.4172  0.7151
  887SOL     OW 2659   0.100   2.048   1.324  0.2191  0.1003 -0.1342
  887SOL    HW1 2660   0.021   1.995   1.276  1.8447 -3.5272  0.1559
  887SOL    HW2 2661   0.125   2.139   1.279 -0.9630  1.2137  1.7245
  888SOL     OW 2662   0.563   1.262   1.540 -0.1480  0.2083 -0.0853
  888SOL    HW1 2663   0.615   1.275   1.454  1.1868  1.5410  2.4304
  888SOL    HW2 2664   0.505   1.175   1.547  1.4959 -1.1605 -1.3805
  889SOL     OW 2665   0.819   2.482   2.155 -0.2713 -0.0047 -0.7688
  889SOL    HW1 2666   0.782   2.389   2.169  0.3568 -0.9008  3.3716
  889SOL    HW2 2667   0.874   2.478   2.068 -0.9082 -1.1581  0.7896
  890SOL     OW 2668   2.423   2.431   0.188  0.1063  0.4843 -0.0996
  890SOL    HW1 2669   2.468   2.496   0.120  0.5170  4.2227  2.2353
  890SOL    HW2 2670   2.366   2.482   0.258 -1.2778 -0.6764  1.5794
  891SOL     OW 2671   2.546   1.687   0.717  0.2625 -0.1066 -0.1280
  891SOL    HW1 2672   2.563   1.708   0.818 -1.9887 -4.4195 -1.0933
  891SOL    HW2 2673   2.497   1.600   0.701  1.1330  2.0060  0.4993
  892SOL     OW 2674   0.374   0.313   2.179  0.3555 -0.4548 -0.2845
  892SOL    HW1 2675   0.363   0.387   2.107 -0.7969 -1.0140 -0.1052
  892SOL    HW2 2676   0.438   0.340   2.252 -2.7910  0.5567 -0.6521
  893SOL     OW 2677   1.661   0.270   2.754  0.2998 -0.1038 -0.4424
  893SOL    HW1 2678   1.734   0.342   2.759  1.0809  0.1676  2.4576
  893SOL    HW2 2679   1.562   0.308   2.748  0.5451  0.4989  3.3927
  894SOL     OW 2680   2.126   2.025   3.089  0.5780 -0.2482 -0.2028
  894SOL    HW1 2681   2.111   2.002   2.988  0.8136 -0.7831 -0.3067
  894SOL    HW2 2682   2.172   1.957   3.146 -2.5057  0.7484 -1.0145
  895SOL     OW 2683   2.796   1.426   0.932  0.4212  0.2259  0.2717
  895SOL    HW1 2684   2.876   1.359   0.939  3.6522 -1.4525  1.2338
  895SOL    HW2 2685   2.831   1.524   0.929 -0.0014 -1.4030  0.0431
  896SOL     OW 2686   1.767   1.815   1.226 -0.1734 -0.0194 -0.1526
  896SOL    HW1 2687   1.828   1.749   1.170  2.7467  1.2571 -0.5904
  896SOL    HW2 2688   1.699   1.866   1.167 -0.4641  0.8115 -0.1142
  897SOL     OW 2689   0.333   0.558   0.025 -0.3016  1.3673 -0.1097
  897SOL    HW1 2690   0.275   0.611  -0.041  2.2722 -1.7741  2.0990
  897SOL    HW2 2691   0.431   0.591   0.015 -0.7317 -0.6787  1.8657
  898SOL     OW 2692   0.563   2.881   1.090  0.5772  0.0900  0.4003
  898SOL    HW1 2693   0.510   2.965   1.121  0.9732  1.5599 -0.2318
  898SOL    HW2 2694   0.629   2.843   1.159 -1.2450  2.2337 -0.5192
  899SOL     OW 2695   2.797   0.909   1.288 -0.1602  0.0430 -0.1229
  899SOL    HW1 2696   2.745   0.883   1.203 -2.2529 -0.7249  0.5099
  899SOL    HW2 2697   2.884   0.963   1.276  0.5167  0.1297  1.1959
  900SOL     OW 2698   1.005   2.553   2.397  1.1266  0.1130 -0.3530
  900SOL    HW1 2699   0.927   2.609   2.354 -0.8848  1.4105 -1.4421
  900SOL    HW2 2700   0.981   2.520   2.492  0.9312  0.5394 -1.6305
  901SOL     OW 2701   1.928   2.337   1.342  0.2269 -0.2218 -0.6539
  901SOL    HW1 2702   1.907   2.307   1.241  2.6540  0.7922  0.7598
  901SOL    HW2 2703   2.029   2.338   1.365 -0.2929  1.2574  0.6513
  902SOL     OW 2704   2.581   1.650   1.460  0.1243 -0.0047 -0.4355
  902SOL    HW1 2705   2.620   1.670   1.552  0.1272 -0.2786  0.3748
  902SOL    HW2 2706   2.653   1.637   1.384  0.8407 -1.3712 -1.6258
  903SOL     OW 2707   0.253   2.497   1.970  0.0303  0.4546 -0.7028
  903SOL    HW1 2708   0.171   2.445   1.932 -3.3202 -0.8158 -0.6456
  903SOL    HW2 2709   0.295   2.562   1.901  1.5718  1.1555 -0.1097
  904SOL     OW 2710   2.058   0.797   2.471  0.5320 -0.3577  0.6615
  904SOL    HW1 2711   1.986   0.764   2.538  0.4975  0.4828 -2.0497
  904SOL    HW2 2712   2.035   0.788   2.370  0.0953  0.8316 -0.8391
  905SOL     OW 2713   2.828   0.079   2.556 -0.1394 -0.0923 -0.0717
  905SOL    HW1 2714   2.912   0.022   2.568  2.2959  1.3577  1.2439
  905SOL    HW2 2715   2.848   0.181   2.551 -0.0277  0.0381  1.3045
  906SOL     OW 2716   0.140   1.720   1.926 -0.2197  0.1685 -0.6357
  906SOL    HW1 2717   0.108   1.719   1.826 -2.2940 -0.1002 -1.1608
  906SOL    HW2 2718   0.238   1.756   1.926  0.1465 -1.6762  1.3726
  907SOL     OW 2719   0.226   2.455   1.000 -0.8903 -0.3740 -0.0311
  907SOL    HW1 2720   0.317   2.430   0.960 -1.7265  0.4502 -0.4570
  907SOL    HW2 2721   0.184   2.390   1.067 -0.6168  0.0813 -2.4935
  908SOL     OW 2722   2.731   2.995   0.376  0.1199  0.2961  0.3117
  908SOL    HW1 2723   2.713   3.064   0.296  0.7645 -0.0640  0.2057
  908SOL    HW2 2724   2.773   2.906   0.342 -0.0954 -2.3661  0.5702
  909SOL     OW 2725   0.796   1.023   2.643 -0.6964 -0.2160 -0.3492
  909SOL    HW1 2726   0.736   0.951   2.602  2.7126  0.1617 -0.3309
  909SOL    HW2 2727   0.879   1.039   2.583 -1.1231  0.6907  1.5806
  910SOL     OW 2728   1.717   1.863   2.153  0.0536 -0.3029 -0.5665
  910SOL    HW1 2729   1.754   1.909   2.070 -0.2269 -0.0352  1.0983
  910SOL    HW2 2730   1.621   1.884   2.182 -1.5264 -1.2082  0.7280
  911SOL     OW 2731   1.804   2.930   1.559  0.2744 -0.4441 -0.0686
  911SOL    HW1 2732   1.890   2.930   1.502  0.2344  1.3297  1.2260
  911SOL    HW2 2733   1.802   2.851   1.631 -0.4263 -2.8929  0.6920
  912SOL     OW 2734   2.859   0.984   0.702  0.3861 -0.3089  0.4179
  912SOL    HW1 2735   2.894   0.936   0.787 -0.2716  1.7851  1.2676
  912SOL    HW2 2736   2.805   1.076   0.716  2.2703  1.0043  1.3655
  913SOL     OW 2737   2.597   1.258   1.474 -0.3503  0.6661 -0.4096
  913SOL    HW1 2738   2.622   1.157   1.493  1.8657  0.2160  0.9750
  913SOL    HW2 2739   2.655   1.298   1.398  2.8413  0.9236  0.8660
  914SOL     OW 2740   2.870   0.547   1.231  0.8312 -0.5089  0.0055
  914SOL    HW1 2741   2.814   0.455   1.237 -0.9743 -0.9772 -0.8477
  914SOL    HW2 2742   2.827   0.608   1.304  1.4307 -0.6831 -0.6609
  915SOL     OW 2743   1.209   0.778   1.089  0.0198  0.1408 -0.1301
  915SOL    HW1 2744   1.251   0.800   1.181  0.9329 -1.9828 -0.1207
  915SOL    HW2 2745   1.108   0.799   1.095 -3.9448  0.7317  1.5033
  916SOL     OW 2746   0.581   0.021   0.665  0.3936  0.5148 -0.1354
  916SOL    HW1 2747   0.634   0.098   0.714  0.5361 -0.5341 -0.0269
  916SOL    HW2 2748   0.554   0.044   0.565 -2.1480 -0.4795 -1.1220
  917SOL     OW 2749   2.816   2.630   1.955  0.2853 -0.4679 -0.3556
  917SOL    HW1 2750   2.720   2.663   1.978 -0.8876  0.8910  0.4205
  917SOL    HW2 2751   2.872   2.707   1.907  1.8329  0.4144  0.5824
  918SOL     OW 2752   1.031   2.177   3.015  0.2628  0.1555 -0.4084
  918SOL    HW1 2753   1.013   2.206   3.115  2.1643  0.9255 -1.3602
  918SOL    HW2 2754   1.134   2.165   3.003 -1.1377  0.1076 -1.9797
  919SOL     OW 2755   0.843   1.679   2.845  0.2169  0.1115 -0.5333
  919SOL    HW1 2756   0.893   1.746   2.780  0.1792  0.4242 -2.6078
  919SOL    HW2 2757   0.802   1.594   2.803 -1.3428  1.7235 -2.7421
  920SOL     OW 2758   1.212   1.884   2.428 -0.0864  0.5311  0.1232
  920SOL    HW1 2759   1.307   1.881   2.386 -1.0201  2.2367 -1.6455
  920SOL    HW2 2760   1.210   1.808   2.496  3.1890  1.0306 -0.7472
  921SOL     OW 2761   1.020   0.028   2.642 -0.0761  0.0080 -0.1944
  921SOL    HW1 2762   0.999   0.037   2.545 -1.7485 -0.9883 -0.0185
  921SOL    HW2 2763   0.951  -0.034   2.689  0.2012 -1.4972  1.1572
  922SOL     OW 2764   2.156   2.397   2.796  0.6376 -0.3464  0.1375
  922SOL    HW1 2765   2.193   2.296   2.794  1.7366 -2.3560 -0.9398
  922SOL    HW2 2766   2.130   2.430   2.699 -0.9406  1.1650 -2.1819
  923SOL     OW 2767   1.236   2.685   0.269 -0.3631 -0.4742 -0.4201
  923SOL    HW1 2768   1.304   2.769   0.269 -0.2174  0.7902 -1.5883
  923SOL    HW2 2769   1.288   2.593   0.286  0.3075 -1.1682 -0.9528
  924SOL     OW 2770   2.863   1.519   0.155  0.8536 -0.4544  0.1184
  924SOL    HW1 2771   2.776   1.484   0.109  0.5238  0.1024  0.1757
  924SOL    HW2 2772   2.950   1.474   0.115  1.4483 -1.8468 -1.4636
  925SOL     OW 2773   0.028   2.940   1.548  0.5121  0.8354  0.3519
  925SOL    HW1 2774  -0.045   2.977   1.614 -0.4514  3.8903 -0.8416
  925SOL    HW2 2775  -0.003   2.879   1.472  0.7278 -4.7298  2.1549
  926SOL     OW 2776   1.307   2.820   1.233 -0.0098  0.4106 -0.2879
  926SOL    HW1 2777   1.379   2.841   1.160  1.3372 -2.5409 -0.3508
  926SOL    HW2 2778   1.308   2.890   1.313 -0.2560  0.5206  1.6604
  927SOL     OW 2779   0.324   2.654   1.763  0.3147 -0.1758  0.4048
  927SOL    HW1 2780   0.340   2.622   1.665  1.6741 -1.0515  1.2675
  927SOL    HW2 2781   0.275   2.745   1.766 -2.3069  0.8970 -1.4268
  928SOL     OW 2782   1.523   2.066   2.279  0.4798  0.1220 -0.0683
  928SOL    HW1 2783   1.547   2.156   2.241 -1.6321 -1.2781  2.6564
  928SOL    HW2 2784   1.417   2.069   2.285 -1.2933  0.8639  0.7950
  929SOL     OW 2785   2.391   2.497   2.880 -0.2787 -0.1213 -0.0084
  929SOL    HW1 2786   2.302   2.473   2.833  0.0270  1.2449  0.8280
  929SOL    HW2 2787   2.465   2.500   2.808  1.8116 -2.0301  0.5193
  930SOL     OW 2788   2.191   1.997   1.066 -0.4475 -0.6934 -0.0511
  930SOL    HW1 2789   2.174   1.951   1.154 -1.3373  0.7840 -1.5400
  930SOL    HW2 2790   2.242   2.088   1.078 -0.7615 -0.1456 -0.1980
  931SOL     OW 2791   0.550   1.715   2.714  0.3878 -0.1261 -0.1796
  931SOL    HW1 2792   0.601   1.764   2.787  0.5777  2.9779  1.9799
  931SOL    HW2 2793   0.587   1.622   2.691 -1.4167 -3.5458  0.8022
  932SOL     OW 2794   0.439   0.111   2.945  0.0603 -0.8007 -0.5573
  932SOL    HW1 2795   0.527   0.153   2.917 -0.6614  2.2349  2.0604
  932SOL    HW2 2796   0.444   0.015   2.988 -0.3173  3.1566 -2.7603
  933SOL     OW 2797   0.995   0.824   3.050  0.3186 -0.1467 -0.1508
  933SOL    HW1 2798   1.040   0.853   3.137 -1.2703 -0.9406 -0.6941
  933SOL    HW2 2799   0.960   0.905   2.991 -0.0201  0.4347 -1.1310
  934SOL     OW 2800   0.786   2.965   2.630 -0.1822  0.0587  0.0452
  934SOL    HW1 2801   0.779   2.897   2.551  1.6288 -3.3375 -1.8134
  934SOL    HW2 2802   0.825   2.914   2.713  1.2179 -1.0177  0.1911
  935SOL     OW 2803   0.025   0.572   0.845 -0.4261  0.2654  0.0936
  935SOL    HW1 2804  -0.007   0.542   0.749  0.2052 -0.6919 -4.0235
  935SOL    HW2 2805  -0.053   0.607   0.899 -1.1540 -2.2094 -0.7558
  936SOL     OW 2806   1.082   2.825   0.091  0.4894  0.1031  0.0078
  936SOL    HW1 2807   1.137   2.871   0.020  0.3414  0.1452  0.9664
  936SOL    HW2 2808   1.135   2.756   0.151  3.8536 -2.7405 -1.2822
  937SOL     OW 2809   1.942   2.604   2.080  0.4704  0.3301 -0.2949
  937SOL    HW1 2810   1.842   2.613   2.083  1.1799  0.4375  0.3997
  937SOL    HW2 2811   1.996   2.690   2.050 -0.4762 -2.0811 -0.0308
  938SOL     OW 2812   2.790   2.093   1.574  0.5359 -0.1034 -0.4886
  938SOL    HW1 2813   2.748   2.186   1.549 -1.6950 -1.3312 -2.0667
  938SOL    HW2 2814   2.892   2.092   1.579 -2.4988 -1.3589 -2.3918
  939SOL     OW 2815   2.815   1.201   2.489 -0.7042  0.0229  1.0922
  939SOL    HW1 2816   2.895   1.185   2.422  1.4069 -1.9564  1.7663
  939SOL    HW2 2817   2.837   1.183   2.589  2.1669 -1.3599  1.1040
  940SOL     OW 2818   1.032   0.419   2.723 -0.0304  0.0576 -0.3016
  940SOL    HW1 2819   1.102   0.351   2.747 -2.4828  1.9602 -0.9480
  940SOL    HW2 2820   0.941   0.375   2.710  2.2480 -0.2416  3.2005
  941SOL     OW 2821   0.050   2.782   2.245  0.1092  0.5591 -0.0639
  941SOL    HW1 2822   0.084   2.685   2.223 -0.1648 -2.7591  1.1574
  941SOL    HW2 2823   0.084   2.813   2.346  0.5941  0.4773  2.5088
  942SOL     OW 2824   0.109   0.116   2.515 -0.1907 -0.0203 -0.9496
  942SOL    HW1 2825   0.147   0.150   2.601 -0.2899  1.2826 -3.0848
  942SOL    HW2 2826   0.109   0.180   2.437 -0.8520 -1.5271 -1.6459
  943SOL     OW 2827   2.096   1.692   2.380  0.6403  0.3141 -0.0259
  943SOL    HW1 2828   2.099   1.633   2.295 -1.5857  0.1677  0.6047
  943SOL    HW2 2829   2.077   1.643   2.465 -0.8831  4.5291 -2.0709
  944SOL     OW 2830   2.179   2.344   1.467 -0.4294 -0.0224 -0.1945
  944SOL    HW1 2831   2.249   2.402   1.511  0.9512 -2.4018 -1.6449
  944SOL    HW2 2832   2.154   2.268   1.530  2.9201 -0.1813  1.5695
  945SOL     OW 2833   0.693   1.516   0.274  0.1719 -0.0737 -0.2499
  945SOL    HW1 2834   0.636   1.537   0.193  1.5776 -1.3154  0.4011
  945SOL    HW2 2835   0.724   1.419   0.267  1.8572 -0.5000 -0.9649
  946SOL     OW 2836   0.408   0.950   2.430 -0.2051  0.3206  0.3818
  946SOL    HW1 2837   0.329   0.889   2.410 -1.7986  0.1562  0.3493
  946SOL    HW2 2838   0.388   1.012   2.512 -0.5299  1.8618  2.8104
  947SOL     OW 2839   1.527   0.465   3.080  0.2774 -0.5920  0.5408
  947SOL    HW1 2840   1.509   0.504   2.987 -3.0107 -0.6530  0.3647
  947SOL    HW2 2841   1.438   0.427   3.120  3.6529 -0.2572 -2.1624
  948SOL     OW 2842   1.897   3.045   2.174  0.5865  0.3331  0.3995
  948SOL    HW1 2843   1.938   2.984   2.097 -0.4203 -4.1252  0.1982
  948SOL    HW2 2844   1.890   2.983   2.258  1.5739  0.8916 -0.7965
  949SOL     OW 2845   0.550   2.485   0.521 -0.7628  0.4637  0.6134
  949SOL    HW1 2846   0.596   2.574   0.499  3.1041 -3.2498 -0.3866
  949SOL    HW2 2847   0.592   2.452   0.611  2.6287  2.5880 -1.0167
  950SOL     OW 2848   0.191   2.191   3.037 -0.3109  0.1009 -0.2687
  950SOL    HW1 2849   0.104   2.245   3.015 -2.7968 -1.2053  0.8837
  950SOL    HW2 2850   0.214   2.115   2.973 -1.5608  0.6938  0.1735
  951SOL     OW 2851   1.258   2.704   2.732 -0.0488  0.4585  0.1354
  951SOL    HW1 2852   1.335   2.683   2.792  1.1078 -3.3901 -1.6024
  951SOL    HW2 2853   1.292   2.731   2.636  0.9573  0.9433 -0.3563
  952SOL     OW 2854   0.003   1.706   0.381  0.5436  0.6913  0.8597
  952SOL    HW1 2855   0.075   1.780   0.386 -1.9193 -2.6000  0.5127
  952SOL    HW2 2856   0.023   1.633   0.442 -4.0147  3.5204 -3.2428
  953SOL     OW 2857   2.509   1.755   0.256 -0.8139 -0.7831  0.7911
  953SOL    HW1 2858   2.523   1.650   0.257  0.5196 -0.1471 -2.4014
  953SOL    HW2 2859   2.525   1.793   0.159  0.4152  0.5140 -0.9475
  954SOL     OW 2860   2.226   0.561   0.956 -0.1054  0.0908  0.3475
  954SOL    HW1 2861   2.197   0.606   0.867 -0.5523 -2.7449 -0.6085
  954SOL    HW2 2862   2.324   0.536   0.958 -0.7369 -0.5547 -0.2444
  955SOL     OW 2863   0.175   2.584   1.285  0.3331  0.1015 -0.2736
  955SOL    HW1 2864   0.098   2.636   1.323  0.5156  0.7990  0.0478
  955SOL    HW2 2865   0.225   2.645   1.213  1.0727  1.3963  2.1545
  956SOL     OW 2866   2.784   2.459   2.461 -0.1873  0.1519 -0.0428
  956SOL    HW1 2867   2.749   2.374   2.411 -0.8183 -1.4803 -2.4403
  956SOL    HW2 2868   2.817   2.529   2.389 -2.9123 -2.2488 -0.4215
  957SOL     OW 2869   1.594   2.073   2.809 -0.2127  0.3234  0.4762
  957SOL    HW1 2870   1.546   1.987   2.839  1.5395 -1.5012  0.4104
  957SOL    HW2 2871   1.620   2.068   2.711 -2.2755  0.8664 -1.0353
  958SOL     OW 2872   2.617   2.258   3.015  0.6087 -0.3009  0.4252
  958SOL    HW1 2873   2.520   2.284   2.985  1.5083  1.4271  0.4094
  958SOL    HW2 2874   2.623   2.213   3.111  2.3036  1.3469  0.9815
  959SOL     OW 2875   0.248   2.831   0.089  0.2503  0.0786  0.3078
  959SOL    HW1 2876   0.168   2.799   0.030 -0.5872 -0.7889  2.9100
  959SOL    HW2 2877   0.278   2.752   0.148  2.5799 -1.4073 -0.4405
  960SOL     OW 2878   2.037   0.487   1.948 -0.4906 -0.1184 -0.2664
  960SOL    HW1 2879   1.947   0.528   1.907 -0.7248 -1.5180  1.8260
  960SOL    HW2 2880   2.037   0.473   2.053  2.4866 -0.2214  2.2562
  961SOL     OW 2881   2.569   1.811   0.999  0.4232  0.0901 -0.3091
  961SOL    HW1 2882   2.580   1.910   1.016  2.1356  0.8383 -0.9722
  961SOL    HW2 2883   2.547   1.759   1.089 -0.4048 -3.5178  0.4650
  962SOL     OW 2884   1.334   0.900   0.077  0.0102 -0.6451  0.6922
  962SOL    HW1 2885   1.320   0.965  -0.004  4.6222 -3.5624 -0.7252
  962SOL    HW2 2886   1.304   0.948   0.161  1.0423 -0.5579 -1.3848
  963SOL     OW 2887   2.210   2.565   1.853 -0.1687 -0.1648  0.8941
  963SOL    HW1 2888   2.179   2.463   1.872  0.6969  1.7056 -1.4043
  963SOL    HW2 2889   2.210   2.627   1.937  0.5276 -0.0048  0.4829
  964SOL     OW 2890   2.362   0.343   1.685 -0.0856 -0.0499 -0.0825
  964SOL    HW1 2891   2.457   0.379   1.711  0.3903 -1.6632  0.2565
  964SOL    HW2 2892   2.360   0.302   1.586 -1.1714 -1.5692  0.7597
  965SOL     OW 2893   2.643   3.066   0.127 -0.0040 -0.1723 -0.1619
  965SOL    HW1 2894   2.676   3.027   0.037  0.2665 -0.1789 -2.8469
  965SOL    HW2 2895   2.536   3.081   0.113 -1.3088 -0.0750  0.4561
  966SOL     OW 2896   2.574   2.540   2.213 -0.7972 -0.3545  0.2650
  966SOL    HW1 2897   2.488   2.559   2.263 -0.7945 -1.6102 -0.0214
  966SOL    HW2 2898   2.569   2.558   2.111 -2.6208 -0.7720  0.4034
  967SOL     OW 2899   2.806   2.801   2.495  0.0365  0.1188 -0.2321
  967SOL    HW1 2900   2.837   2.722   2.435  1.3959 -1.9649  0.2022
  967SOL    HW2 2901   2.882   2.870   2.505 -0.1838  0.6247  1.5076
  968SOL     OW 2902   1.894   1.014   2.639  0.1273 -0.2551  0.1777
  968SOL    HW1 2903   1.816   1.055   2.593  0.7217 -2.9618  0.2067
  968SOL    HW2 2904   1.957   0.979   2.563 -1.0820  2.0449 -0.9277
  969SOL     OW 2905   2.826   2.450   1.104  0.0026  0.0970 -0.1356
  969SOL    HW1 2906   2.762   2.441   1.023 -3.0112 -0.0710  0.3311
  969SOL    HW2 2907   2.832   2.359   1.157  0.3948  0.2366 -0.3888
  970SOL     OW 2908   1.014   2.108   1.816  0.0831  0.5079 -0.0749
  970SOL    HW1 2909   0.925   2.131   1.766  0.2014  1.9172  2.1960
  970SOL    HW2 2910   1.018   2.158   1.909  2.5190 -3.1501  2.7354
  971SOL     OW 2911   2.871   2.068   1.886  0.1302 -0.3365 -0.5655
  971SOL    HW1 2912   2.857   2.171   1.896 -0.6463  4.8223 -2.8825
  971SOL    HW2 2913   2.931   2.051   1.803  1.9626  0.7193 -0.7669
  972SOL     OW 2914   2.004   2.488   0.217  0.1518 -0.0398  0.0738
  972SOL    HW1 2915   2.024   2.430   0.132  1.9009 -0.6419  1.1415
  972SOL    HW2 2916   2.011   2.438   0.308 -1.6090  0.0915 -4.2565
  973SOL     OW 2917   1.300   1.041   1.890  0.4253  0.9740 -0.0559
  973SOL    HW1 2918   1.227   1.010   1.823 -0.1723 -0.8891 -0.6341
  973SOL    HW2 2919   1.267   1.128   1.942 -1.2190  0.2733 -0.1978
  974SOL     OW 2920   1.596   0.562   1.958  0.0921 -0.1587  0.1067
  974SOL    HW1 2921   1.685   0.591   1.908  1.2154  1.5491 -2.2427
  974SOL    HW2 2922   1.522   0.638   1.967 -4.7389 -1.4626  0.8764
  975SOL     OW 2923   2.368   3.084   0.058 -0.0007  0.5376  0.5170
  975SOL    HW1 2924   2.318   2.994   0.064 -0.8336  0.5744 -0.0987
  975SOL    HW2 2925   2.390   3.102  -0.044  1.0627 -1.4627  0.8143
  976SOL     OW 2926   1.910   2.856   2.362 -0.1962  0.0882 -0.3462
  976SOL    HW1 2927   1.835   2.801   2.318  0.8543  0.3377 -0.9877
  976SOL    HW2 2928   1.940   2.817   2.456  2.7038 -2.8492  0.7573
  977SOL     OW 2929   0.426   0.667   1.013  0.8276  0.6089  0.3095
  977SOL    HW1 2930   0.359   0.678   0.937 -1.2310 -2.7065  0.9356
  977SOL    HW2 2931   0.517   0.654   0.976  0.9774 -1.3265  1.5499
   3.10000   3.10000   3.10000
