1000 SPC/Fw water molecules t=   0.71000 step= 710
 2931
    1SOL     OW    1   2.480   0.396   2.611  0.3601  0.5515  0.2431
    1SOL    HW1    2   2.504   0.296   2.596 -0.3808  1.5485 -0.5023
    1SOL    HW2    3   2.537   0.432   2.691 -3.1245  1.1192 -0.3895
    2SOL     OW    4   2.742   3.034   1.410  0.5281 -0.2463 -0.0915
    2SOL    HW1    5   2.794   3.063   1.323  0.4980 -0.9073  1.9874
    2SOL    HW2    6   2.728   3.113   1.474 -1.7918 -0.3982  1.4274
    3SOL     OW    7   2.725   2.620   0.361 -0.0019 -0.1159 -0.2522
    3SOL    HW1    8   2.693   2.523   0.384  0.9998 -1.1677 -0.4507
    3SOL    HW2    9   2.813   2.647   0.406  0.5839  1.1801 -0.1733
    4SOL     OW   10   1.280   1.453   2.365 -0.2148  1.0234 -0.0798
    4SOL    HW1   11   1.187   1.488   2.364  2.3649 -0.1267  1.4277
    4SOL    HW2   12   1.289   1.357   2.401 -0.1774  3.5049 -0.0417
    5SOL     OW   13   1.173   1.519   3.080  0.0004  0.3049  0.2430
    5SOL    HW1   14   1.236   1.606   3.094  1.9040 -0.1934  1.5618
    5SOL    HW2   15   1.078   1.536   3.114  0.4502  1.9200 -1.7260
    6SOL     OW   16   0.088   1.884   2.942 -0.2363  0.5382  0.0184
    6SOL    HW1   17   0.019   1.900   3.015  0.0810 -2.5329 -0.3851
    6SOL    HW2   18   0.150   1.809   2.973  0.0503 -0.8903  3.2615
    7SOL     OW   19   2.542   0.954   1.139  0.2638  0.3674  0.3482
    7SOL    HW1   20   2.469   0.882   1.165 -0.2814  0.2474  0.9067
    7SOL    HW2   21   2.573   0.966   1.041  0.7259  0.0206 -0.9480
    8SOL     OW   22   0.396   0.574   1.535 -0.6466  0.1713 -0.0716
    8SOL    HW1   23   0.488   0.526   1.555  0.9575  0.3006  0.3833
    8SOL    HW2   24   0.366   0.575   1.437 -0.6854  0.4012  0.7457
    9SOL     OW   25   1.169   0.895   2.342  0.6993 -0.2239  0.7872
    9SOL    HW1   26   1.258   0.923   2.301  0.2909  0.9575  0.8867
    9SOL    HW2   27   1.092   0.877   2.273 -2.0215  0.6456  0.4395
   10SOL     OW   28   0.624   1.351   1.304 -0.1316 -0.1426  0.4494
   10SOL    HW1   29   0.541   1.363   1.238  2.9331  2.1030 -0.4009
   10SOL    HW2   30   0.688   1.431   1.303 -0.8258  1.5076 -0.0771
   11SOL     OW   31   2.376   2.738   0.873  0.2454  0.0264  0.0485
   11SOL    HW1   32   2.362   2.734   0.978 -0.7338 -2.6901 -0.8469
   11SOL    HW2   33   2.479   2.750   0.855 -1.6689 -0.7504  0.4682
   12SOL     OW   34   1.472   0.879   0.365 -0.1957  0.3974 -0.2358
   12SOL    HW1   35   1.389   0.932   0.340 -1.3085  1.1310  1.1536
   12SOL    HW2   36   1.480   0.784   0.331  1.5707 -0.9049  1.2243
   13SOL     OW   37   2.488   0.679   1.805 -0.5450 -0.2155 -0.3846
   13SOL    HW1   38   2.405   0.681   1.870 -0.6870 -1.7381 -1.2441
   13SOL    HW2   39   2.468   0.649   1.711 -1.2049 -0.7332  1.1188
   14SOL     OW   40   1.930   0.082   0.731 -0.5193 -0.2882  0.2602
   14SOL    HW1   41   1.870   0.114   0.652 -0.7163 -0.4060 -0.9014
   14SOL    HW2   42   1.874   0.016   0.791 -3.7713 -1.1387 -1.0990
   15SOL     OW   43   1.961   2.034   2.737  0.5918  0.8290 -0.2914
   15SOL    HW1   44   1.916   2.126   2.746 -0.1471  0.0896 -0.7721
   15SOL    HW2   45   1.898   1.957   2.712  1.7778 -0.2897  1.2760
   16SOL     OW   46   1.599   1.701   2.972  0.1601 -0.2413 -0.8222
   16SOL    HW1   47   1.643   1.609   2.984 -0.3928  1.5782 -1.8257
   16SOL    HW2   48   1.641   1.773   3.032 -2.9474  0.9773 -1.0131
   17SOL     OW   49   0.129   0.534   0.168  0.4880  0.3178  0.4583
   17SOL    HW1   50   0.215   0.529   0.112  1.7359  1.3321 -0.0365
   17SOL    HW2   51   0.040   0.547   0.110  0.1497 -1.5427 -0.3206
   18SOL     OW   52   0.925   2.987   2.091 -0.0399 -0.3366 -0.4014
   18SOL    HW1   53   0.887   2.904   2.140 -0.0344 -1.2518  0.7721
   18SOL    HW2   54   1.011   2.967   2.038 -3.0529 -1.2725  2.5504
   19SOL     OW   55   0.513   0.820   1.896 -0.0036  0.1291 -0.0427
   19SOL    HW1   56   0.519   0.829   1.999 -2.7391 -1.0746 -2.1744
   19SOL    HW2   57   0.601   0.845   1.841 -1.7657 -0.8836 -0.9916
   20SOL     OW   58   0.223   2.753   0.830 -0.4016 -0.6219 -1.0919
   20SOL    HW1   59   0.158   2.828   0.794  0.5744 -0.4564 -1.3039
   20SOL    HW2   60   0.278   2.711   0.752 -1.6236  1.2595 -2.9288
   21SOL     OW   61   2.772   0.199   2.087 -0.0508  0.4542  0.0105
   21SOL    HW1   62   2.709   0.125   2.046 -0.2500  1.1251  0.7507
   21SOL    HW2   63   2.861   0.166   2.132 -1.2880  0.7370  0.7607
   22SOL     OW   64   2.374   0.212   0.062 -0.1540  0.4940  0.0598
   22SOL    HW1   65   2.383   0.112   0.080  0.6411 -0.8747 -1.4888
   22SOL    HW2   66   2.280   0.252   0.078  2.1368 -2.1321  0.6265
   23SOL     OW   67   2.755   0.656   0.630  0.2446 -0.0381  0.1831
   23SOL    HW1   68   2.819   0.587   0.576  0.1907 -3.8462 -2.3372
   23SOL    HW2   69   2.744   0.747   0.582  0.5124  1.5293 -0.3016
   24SOL     OW   70   0.160   1.900   0.362 -0.3958 -0.5870  0.5968
   24SOL    HW1   71   0.139   1.992   0.321  1.3101 -0.6989 -0.2309
   24SOL    HW2   72   0.252   1.857   0.333 -0.6232  0.8991 -0.1966
   25SOL     OW   73   2.208   0.530   0.311  0.0040  0.6886  0.3592
   25SOL    HW1   74   2.200   0.628   0.278 -0.5116 -2.8674 -0.3359
   25SOL    HW2   75   2.285   0.468   0.277  2.5545  0.7809  0.3095
   26SOL     OW   76   2.536   2.104   2.104  0.0719 -0.2057  0.0540
   26SOL    HW1   77   2.582   2.182   2.153  0.0829  1.0603 -0.2387
   26SOL    HW2   78   2.602   2.038   2.054 -1.1766 -0.9374  2.1808
   27SOL     OW   79   0.600   2.983   0.190 -0.0755 -0.1657  0.1844
   27SOL    HW1   80   0.699   2.950   0.175  1.4080  0.1303  0.8809
   27SOL    HW2   81   0.542   2.978   0.103 -2.1597  0.3301  0.5959
   28SOL     OW   82   1.589   0.167   0.312  0.7875 -0.7908  0.4036
   28SOL    HW1   83   1.607   0.162   0.210 -2.5715  0.5803 -0.3119
   28SOL    HW2   84   1.577   0.269   0.347  1.1713  0.9370  0.0018
   29SOL     OW   85   1.963   0.558   0.399 -0.3816  0.4166  0.3423
   29SOL    HW1   86   1.925   0.657   0.406 -2.6036  2.4273 -0.9693
   29SOL    HW2   87   2.061   0.549   0.369 -2.6265 -0.7989 -0.3807
   30SOL     OW   88   0.216   2.008   0.900 -0.0235 -0.3941 -0.2254
   30SOL    HW1   89   0.219   2.027   0.796  0.2652 -0.4260  0.6215
   30SOL    HW2   90   0.117   2.044   0.936 -2.5073  0.1311 -1.3170
   31SOL     OW   91   2.106   3.078   2.320 -0.0694 -0.1665  0.1905
   31SOL    HW1   92   2.110   3.087   2.424  0.7122 -2.9984  1.0080
   31SOL    HW2   93   2.068   2.987   2.298  0.9519 -0.1827  1.1098
   32SOL     OW   94   2.959   0.134   0.251 -0.0225 -0.7864 -0.3821
   32SOL    HW1   95   2.925   0.054   0.307  0.5211  1.6763 -0.9254
   32SOL    HW2   96   3.064   0.151   0.262  1.2390  0.6314 -1.5712
   33SOL     OW   97   0.939   0.320   0.601  0.3091 -0.4505  0.2726
   33SOL    HW1   98   0.948   0.223   0.566  0.0034  1.8650 -1.1194
   33SOL    HW2   99   1.023   0.359   0.639 -1.2909  0.8945  1.3100
   34SOL     OW  100   0.310   2.825   1.085  0.2305 -0.3969  0.4699
   34SOL    HW1  101   0.273   2.801   0.989 -1.9961  0.3396  0.0365
   34SOL    HW2  102   0.415   2.825   1.083 -1.2565  2.3714 -0.3096
   35SOL     OW  103   0.003   0.199   1.839  0.4858 -0.6349  0.3980
   35SOL    HW1  104   0.051   0.116   1.872 -1.2983 -1.6288 -0.5380
   35SOL    HW2  105  -0.060   0.178   1.762 -0.1059 -0.2351  1.0237
   36SOL     OW  106   1.966   1.140   1.798 -0.1984  0.8608 -0.6918
   36SOL    HW1  107   2.006   1.095   1.716 -1.7729  0.0123  2.2256
   36SOL    HW2  108   2.035   1.195   1.858 -2.7417 -0.5462 -0.8027
   37SOL     OW  109   1.191   0.151   0.886 -0.0232  0.3736  0.2421
   37SOL    HW1  110   1.219   0.178   0.983 -1.1995 -1.3307  1.3811
   37SOL    HW2  111   1.259   0.084   0.839  1.0674 -1.3944  0.3109
   38SOL     OW  112   1.118   2.807   2.431 -0.2365 -0.0713  0.7893
   38SOL    HW1  113   1.047   2.739   2.454  0.4314  3.4174  1.0915
   38SOL    HW2  114   1.079   2.905   2.411 -0.7412  1.2809 -0.6771
   39SOL     OW  115   2.309   1.414   3.041 -0.2947  0.2869 -0.3464
   39SOL    HW1  116   2.386   1.343   3.056 -0.8109 -3.2753 -1.2260
   39SOL    HW2  117   2.265   1.453   3.130  3.9071  1.4821  2.0288
   40SOL     OW  118   2.080   2.494   2.566  0.0805  0.0920 -0.1976
   40SOL    HW1  119   2.018   2.573   2.547  0.6023  1.6022  1.2593
   40SOL    HW2  120   2.028   2.402   2.549  0.1905 -2.0538  0.0662
   41SOL     OW  121   2.998   0.668   2.798  0.4619  0.7375  0.2665
   41SOL    HW1  122   2.931   0.744   2.822 -0.9736  1.3798 -1.1948
   41SOL    HW2  123   2.943   0.578   2.793 -2.1944 -2.7461 -0.3689
   42SOL     OW  124   1.764   1.755   0.527 -0.3491 -0.4258 -0.0188
   42SOL    HW1  125   1.727   1.660   0.513  2.3968  0.3271  1.0124
   42SOL    HW2  126   1.786   1.798   0.437 -0.2256 -0.9924 -0.4732
   43SOL     OW  127   0.484   1.689   1.088  0.0635 -0.0395 -0.0980
   43SOL    HW1  128   0.477   1.590   1.109  0.0519  4.9004  3.1744
   43SOL    HW2  129   0.392   1.724   1.055  0.6945  0.9471 -0.9161
   44SOL     OW  130   1.839   2.480   3.060  0.4269  0.3097  0.0652
   44SOL    HW1  131   1.808   2.541   2.983 -1.0468  0.7264  3.7846
   44SOL    HW2  132   1.865   2.531   3.141 -1.9262 -1.4569 -2.6836
   45SOL     OW  133   0.378   1.959   2.592  0.3990  0.2618 -0.2480
   45SOL    HW1  134   0.313   1.935   2.511 -0.6112 -0.9346  0.3749
   45SOL    HW2  135   0.455   1.891   2.615  2.5503 -3.1652 -1.7281
   46SOL     OW  136   1.252   0.679   0.217  0.3836  0.3232  0.8567
   46SOL    HW1  137   1.289   0.772   0.178 -0.2355  0.7822 -2.1052
   46SOL    HW2  138   1.148   0.670   0.214 -0.4910 -3.7075  0.8817
   47SOL     OW  139   0.214   2.478   1.615  0.2681  0.0084 -0.5960
   47SOL    HW1  140   0.243   2.384   1.635 -1.4193 -3.1004  0.3828
   47SOL    HW2  141   0.177   2.489   1.517  1.7512  2.4001 -0.4486
   48SOL     OW  142   2.601   0.619   0.120  0.1161  0.1920 -0.1307
   48SOL    HW1  143   2.548   0.606   0.212  3.1463 -0.7201 -1.7958
   48SOL    HW2  144   2.695   0.655   0.140 -0.1519  1.1958  0.4212
   49SOL     OW  145   0.338   0.771   1.702  0.0476 -0.3815 -0.2540
   49SOL    HW1  146   0.398   0.790   1.784 -0.6337  0.4968 -1.7462
   49SOL    HW2  147   0.368   0.691   1.643  2.0746  1.0341  1.0934
   50SOL     OW  148   1.667   1.117   0.282  0.3943 -1.0608 -0.2538
   50SOL    HW1  149   1.680   1.022   0.239  0.2860  1.7294  1.4627
   50SOL    HW2  150   1.594   1.116   0.359  1.0756  0.3093 -1.1198
   51SOL     OW  151   2.895   1.861   0.355  0.1408  0.6415 -0.3197
   51SOL    HW1  152   2.867   1.834   0.255 -0.5874 -2.1745 -2.6314
   51SOL    HW2  153   2.955   1.792   0.397  1.7627  1.5989 -1.0797
   52SOL     OW  154   0.795   2.010   0.480  0.0420  0.4169  0.1587
   52SOL    HW1  155   0.702   2.061   0.497 -0.8518 -1.1238  0.7172
   52SOL    HW2  156   0.802   1.932   0.547 -1.3847  0.4703 -3.6985
   53SOL     OW  157   0.161   0.428   1.590  1.1077 -0.2301  0.1075
   53SOL    HW1  158   0.210   0.488   1.660  1.2844  0.7529 -3.4724
   53SOL    HW2  159   0.072   0.470   1.559  3.3388 -0.7725  0.7093
   54SOL     OW  160   1.789   0.463   3.060 -0.4558  0.2041  0.2092
   54SOL    HW1  161   1.827   0.419   3.145  1.4233 -1.5736 -1.4139
   54SOL    HW2  162   1.684   0.465   3.061  1.3010  0.8608 -0.1895
   55SOL     OW  163   0.764   2.893   0.692  0.1413  0.0611 -0.2378
   55SOL    HW1  164   0.696   2.975   0.699  3.1232  0.3243  2.7589
   55SOL    HW2  165   0.865   2.914   0.677 -1.2040  1.6538  0.7310
   56SOL     OW  166   0.448   1.604   0.021  0.0596  0.0383  0.7603
   56SOL    HW1  167   0.355   1.644   0.014  0.0867  0.8254  0.7365
   56SOL    HW2  168   0.470   1.529  -0.055  0.8778 -1.2671 -1.9521
   57SOL     OW  169   1.774   2.528   2.566 -0.3733  0.1919 -0.6083
   57SOL    HW1  170   1.815   2.449   2.516 -4.0102 -1.0435  0.6603
   57SOL    HW2  171   1.694   2.489   2.628 -1.8581 -1.5873  0.4633
   58SOL     OW  172   0.644   0.314   1.036 -0.3648 -0.4561 -0.3983
   58SOL    HW1  173   0.581   0.398   1.023  1.3006 -0.7270  2.8001
   58SOL    HW2  174   0.587   0.239   1.078 -1.0284  1.3848 -0.1190
   59SOL     OW  175   0.435   2.414   2.778  0.2792  0.0025 -0.5032
   59SOL    HW1  176   0.456   2.329   2.728 -0.3527  0.3947 -1.5681
   59SOL    HW2  177   0.517   2.466   2.821  2.2257  1.4455  1.6888
   60SOL     OW  178   2.288   2.044   2.196  0.1120  0.3966 -0.0163
   60SOL    HW1  179   2.372   2.081   2.152 -1.6598 -1.3326  0.3547
   60SOL    HW2  180   2.276   2.061   2.295  1.5507 -3.4045 -3.1211
   61SOL     OW  181   1.327   0.624   0.462  0.3150  0.5177 -0.0088
   61SOL    HW1  182   1.253   0.670   0.514 -0.1386 -0.1945 -0.7524
   61SOL    HW2  183   1.307   0.623   0.363  0.5931 -1.9926  1.0362
   62SOL     OW  184   2.761   1.796   2.918  0.9508  0.4746 -0.2798
   62SOL    HW1  185   2.731   1.694   2.934  0.1975 -1.7204  1.1076
   62SOL    HW2  186   2.836   1.808   2.848 -1.6745 -1.6248 -0.9133
   63SOL     OW  187   0.623   0.903   0.170 -0.0319  0.2946  0.0746
   63SOL    HW1  188   0.643   0.970   0.098  3.9973 -0.5294  2.3013
   63SOL    HW2  189   0.703   0.871   0.221 -0.4143 -0.6318 -0.7659
   64SOL     OW  190   0.140   0.534   2.490  0.3973 -0.2774 -0.8117
   64SOL    HW1  191   0.179   0.520   2.587 -1.2872 -0.8624  1.8496
   64SOL    HW2  192   0.180   0.618   2.441 -2.6347 -1.1089 -1.4612
   65SOL     OW  193   0.197   1.485   0.546  0.1218  0.1748  0.0714
   65SOL    HW1  194   0.237   1.544   0.620  1.6001  0.5384 -2.6821
   65SOL    HW2  195   0.265   1.412   0.529  1.6506  2.2653  2.1347
   66SOL     OW  196   2.543   0.383   0.570 -0.0739 -0.0093  0.1703
   66SOL    HW1  197   2.587   0.449   0.639  2.1841  0.6541 -1.3228
   66SOL    HW2  198   2.510   0.299   0.615  0.9438  3.1973  0.1881
   67SOL     OW  199   0.532   2.533   1.362 -0.1874  0.2217  0.2646
   67SOL    HW1  200   0.572   2.522   1.456  1.1776  2.7394 -0.0049
   67SOL    HW2  201   0.468   2.455   1.332 -2.7708  1.7398 -1.8261
   68SOL     OW  202   1.006   1.118   2.440 -0.4628 -0.5301 -0.0252
   68SOL    HW1  203   1.053   1.029   2.419  0.2501 -0.8429  2.1219
   68SOL    HW2  204   0.924   1.129   2.375 -0.2383  1.3986  0.5713
   69SOL     OW  205   0.744   2.778   2.197  0.1244  0.2027 -0.6434
   69SOL    HW1  206   0.784   2.688   2.160 -4.6199 -0.4999 -0.8069
   69SOL    HW2  207   0.646   2.759   2.222 -1.6898  2.7412 -0.2065
   70SOL     OW  208   0.561   0.318   2.704 -0.0490  0.4843 -0.4048
   70SOL    HW1  209   0.575   0.366   2.792 -3.0408 -1.4139 -0.9316
   70SOL    HW2  210   0.556   0.215   2.704 -1.7762  0.7758 -3.5477
   71SOL     OW  211   1.065   1.715   0.362  0.0511 -0.0951  0.2114
   71SOL    HW1  212   1.013   1.634   0.385  2.1580  2.2183  1.1354
   71SOL    HW2  213   1.043   1.756   0.269  0.1022  1.3761 -1.3037
   72SOL     OW  214   1.808   0.181   2.125 -0.0272 -0.0188  0.1119
   72SOL    HW1  215   1.898   0.231   2.102  0.5821 -0.4826  2.9704
   72SOL    HW2  216   1.816   0.078   2.127  1.4279  1.6031  0.4848
   73SOL     OW  217   2.838   2.147   2.425 -0.1386  1.0955  0.3899
   73SOL    HW1  218   2.806   2.056   2.389 -1.8336 -1.7087 -2.1976
   73SOL    HW2  219   2.855   2.152   2.525  3.3295  0.3067 -3.5566
   74SOL     OW  220   2.714   2.898   2.098  0.2812 -0.1303  0.1195
   74SOL    HW1  221   2.647   2.901   2.183  0.4718  0.0163 -0.8926
   74SOL    HW2  222   2.812   2.933   2.122  0.7391  1.3825  0.3658
   75SOL     OW  223   0.915   0.754   1.091 -0.5092 -0.2440  0.1443
   75SOL    HW1  224   0.830   0.800   1.041 -0.4493  2.1129 -2.2836
   75SOL    HW2  225   0.953   0.811   1.172 -0.5857  2.6999  1.0149
   76SOL     OW  226   1.670   1.262   2.520  0.5595 -0.7027 -0.5680
   76SOL    HW1  227   1.573   1.222   2.529 -0.5218  0.0484 -1.1053
   76SOL    HW2  228   1.672   1.342   2.584  0.0266  1.6413  0.6684
   77SOL     OW  229   2.981   0.918   0.974  0.6028 -0.4308  0.3357
   77SOL    HW1  230   2.951   0.820   0.952  0.2602  0.0868 -1.1374
   77SOL    HW2  231   3.053   0.932   1.047 -1.6367  0.2726 -1.3217
   78SOL     OW  232   2.091   1.397   1.531  0.3886  0.4320  0.2224
   78SOL    HW1  233   2.177   1.431   1.485  0.0590  2.1480  2.1406
   78SOL    HW2  234   2.007   1.422   1.475 -1.6847  3.7265  2.1089
   79SOL     OW  235   0.642   1.302   0.876 -0.6810  0.1771  0.0766
   79SOL    HW1  236   0.545   1.328   0.869  0.8872 -0.7267  0.3686
   79SOL    HW2  237   0.691   1.301   0.782  0.3638 -0.2056 -0.1807
   80SOL     OW  238   0.636   0.483   1.577 -0.5191  0.6553 -0.6054
   80SOL    HW1  239   0.699   0.554   1.532  1.0468 -0.8145 -2.9405
   80SOL    HW2  240   0.663   0.384   1.572 -1.9231  1.7756  1.2862
   81SOL     OW  241   1.037   1.376   2.603 -0.0642  0.0149  0.0466
   81SOL    HW1  242   1.039   1.278   2.637  0.5532 -0.8751  1.8487
   81SOL    HW2  243   0.989   1.395   2.520  0.4215 -0.1590  2.1729
   82SOL     OW  244   0.979   2.938   1.484  0.9447 -0.0115  0.1062
   82SOL    HW1  245   1.002   3.009   1.411 -0.6761  0.0649 -0.2882
   82SOL    HW2  246   0.890   2.891   1.458  0.0792  1.7988  1.7082
   83SOL     OW  247   2.745   2.503   0.859  0.5459 -0.3961 -0.5265
   83SOL    HW1  248   2.665   2.449   0.816  1.1240 -0.9829  0.7318
   83SOL    HW2  249   2.727   2.604   0.853 -0.3837  2.7548  2.3382
   84SOL     OW  250   0.675   3.051   2.339 -0.0740  0.0284  0.1509
   84SOL    HW1  251   0.621   2.977   2.388 -1.4827  0.0182  2.3655
   84SOL    HW2  252   0.771   3.030   2.335 -2.2344  0.1278  0.4343
   85SOL     OW  253   0.319   1.579   1.506 -0.2565 -0.0159 -0.2723
   85SOL    HW1  254   0.273   1.668   1.522  0.9613 -0.7308  1.5657
   85SOL    HW2  255   0.351   1.541   1.596 -0.7506  4.4235 -0.6442
   86SOL     OW  256   0.391   0.976   1.505 -0.1251  0.0678 -0.1537
   86SOL    HW1  257   0.351   0.928   1.422  0.7144 -2.4564 -0.4412
   86SOL    HW2  258   0.402   0.909   1.583 -0.7225  1.5603  1.0734
   87SOL     OW  259   1.590   0.666   0.199  0.7193  0.0364  0.4147
   87SOL    HW1  260   1.665   0.737   0.209 -0.6970 -0.0698  1.6347
   87SOL    HW2  261   1.581   0.641   0.098 -0.2823  1.2488 -2.2105
   88SOL     OW  262   1.594   1.371   0.192  0.7266 -0.0212 -0.4032
   88SOL    HW1  263   1.634   1.281   0.228 -0.9206 -0.2130  0.2101
   88SOL    HW2  264   1.494   1.394   0.209  0.8806 -0.9959 -1.0750
   89SOL     OW  265   0.021   0.416   0.589  0.8028 -0.0277 -0.0519
   89SOL    HW1  266   0.087   0.337   0.587 -0.3308  1.4859 -1.3847
   89SOL    HW2  267  -0.079   0.390   0.603 -0.2792  0.1441  2.3614
   90SOL     OW  268   0.897   1.624   0.020 -0.4965 -0.0080 -0.3392
   90SOL    HW1  269   0.830   1.577   0.085 -0.2639  1.0295  2.1370
   90SOL    HW2  270   0.861   1.625  -0.079  0.7759 -1.7776 -0.2347
   91SOL     OW  271   1.233   1.452   1.768 -0.3101  0.1372 -0.4651
   91SOL    HW1  272   1.227   1.534   1.838 -2.6538 -1.0401  2.6828
   91SOL    HW2  273   1.331   1.415   1.752  0.2893 -2.5517  1.0401
   92SOL     OW  274   0.037   0.946   1.200  0.4504  0.6942 -0.4485
   92SOL    HW1  275   0.087   1.027   1.160 -1.9501  0.9575 -0.2202
   92SOL    HW2  276   0.044   0.952   1.304  0.6026  3.8011  0.8220
   93SOL     OW  277   0.034   2.747   3.096 -0.2555 -0.2933 -0.2139
   93SOL    HW1  278  -0.037   2.781   3.029  2.4924  2.5317  1.8422
   93SOL    HW2  279   0.027   2.644   3.101 -1.0387  1.4414  0.3010
   94SOL     OW  280   1.520   1.427   1.754  0.1121  0.1952  0.0838
   94SOL    HW1  281   1.594   1.358   1.755 -1.3498  0.1467 -2.1970
   94SOL    HW2  282   1.556   1.517   1.792 -1.3320 -0.3256 -0.5103
   95SOL     OW  283   1.402   2.503   3.030 -0.3849  0.1577  0.3301
   95SOL    HW1  284   1.308   2.484   3.060 -1.0352  1.8723 -2.7259
   95SOL    HW2  285   1.432   2.432   2.958 -0.9103 -0.1396 -0.6200
   96SOL     OW  286   0.552   2.091   1.329 -0.3756 -0.4308 -0.3052
   96SOL    HW1  287   0.526   2.062   1.230 -1.2185 -0.4136  1.2648
   96SOL    HW2  288   0.612   2.020   1.383 -0.1480  0.2849  0.9643
   97SOL     OW  289   0.386   1.651   2.449 -0.0781  0.1462  0.1935
   97SOL    HW1  290   0.287   1.681   2.459 -0.1351  2.4202  0.7866
   97SOL    HW2  291   0.429   1.638   2.542 -0.4198 -0.2328 -2.3658
   98SOL     OW  292   1.961   1.587   1.234  0.3948  0.1894 -0.0476
   98SOL    HW1  293   1.905   1.545   1.312  0.7395  0.7852 -2.4262
   98SOL    HW2  294   1.950   1.531   1.145  0.9905  0.0099 -0.6829
   99SOL     OW  295   2.456   2.114   1.392 -0.2353 -0.3687  0.4098
   99SOL    HW1  296   2.482   2.155   1.484 -0.0073 -2.5700  0.5105
   99SOL    HW2  297   2.399   2.030   1.407  0.5507 -0.2561 -0.2589
  100SOL     OW  298   2.321   0.322   2.082  0.4937 -0.3104  0.3634
  100SOL    HW1  299   2.269   0.296   2.165 -0.3994  0.1474  0.5861
  100SOL    HW2  300   2.371   0.412   2.083  0.2348  1.4706  0.7964
  101SOL     OW  301   0.341   1.522   0.267  0.4510 -0.4753  0.6081
  101SOL    HW1  302   0.397   1.543   0.349 -1.0511  0.3544  0.2181
  101SOL    HW2  303   0.367   1.572   0.183 -3.0892  2.2710  2.4272
  102SOL     OW  304   2.283   0.989   0.870 -0.2593  0.0645  0.2284
  102SOL    HW1  305   2.212   0.916   0.844  3.4117  1.3595 -1.6850
  102SOL    HW2  306   2.300   1.053   0.789  0.3533  1.5957 -0.5603
  103SOL     OW  307   2.289   0.032   0.391  0.2071  0.0067  0.1783
  103SOL    HW1  308   2.296   0.132   0.357 -0.6832  2.3177  0.9730
  103SOL    HW2  309   2.376  -0.008   0.431 -2.9124 -0.5619 -0.6500
  104SOL     OW  310   0.113   1.784   2.180  0.4081  0.1823 -0.1000
  104SOL    HW1  311   0.138   1.755   2.081 -0.0492  0.7764  0.6820
  104SOL    HW2  312   0.018   1.749   2.191 -0.1090 -1.1634  0.9630
  105SOL     OW  313   1.269   2.122   0.783 -0.2715  0.0561  0.4688
  105SOL    HW1  314   1.184   2.133   0.727  1.2970  0.5212 -0.5184
  105SOL    HW2  315   1.292   2.021   0.795 -0.9149  0.9428 -0.6126
  106SOL     OW  316   2.154   0.473   1.419  0.0882 -0.7673  0.4706
  106SOL    HW1  317   2.114   0.384   1.452  2.1538 -2.0287 -0.1957
  106SOL    HW2  318   2.162   0.542   1.493 -1.5687 -1.6647  1.0528
  107SOL     OW  319   1.740   3.031   1.157 -0.0900  0.7823 -0.2839
  107SOL    HW1  320   1.785   3.115   1.195  0.0349  1.0609 -1.6142
  107SOL    HW2  321   1.716   2.965   1.237 -1.3147  1.2151  2.3169
  108SOL     OW  322   0.808   2.786   1.192 -0.2169 -0.0313  0.3512
  108SOL    HW1  323   0.798   2.770   1.295 -0.6990 -0.4575 -0.5927
  108SOL    HW2  324   0.905   2.777   1.160 -0.6061 -0.1114 -0.9435
  109SOL     OW  325   2.228   0.107   0.745 -0.0785  0.3766 -0.3959
  109SOL    HW1  326   2.131   0.097   0.712 -0.4916  2.3696 -0.4809
  109SOL    HW2  327   2.226   0.101   0.849 -0.7010 -1.7174 -0.7617
  110SOL     OW  328   0.448   2.856   2.765  0.4462  0.0637  0.1440
  110SOL    HW1  329   0.428   2.891   2.665  0.3450  0.6621 -1.7626
  110SOL    HW2  330   0.526   2.783   2.764  0.4782  1.6675  1.4534
  111SOL     OW  331   1.314   0.508   2.297 -0.2533  0.6183  0.5442
  111SOL    HW1  332   1.233   0.537   2.353  0.3271  0.3423 -1.3540
  111SOL    HW2  333   1.368   0.438   2.350  0.3423  0.6690  1.2204
  112SOL     OW  334   1.699   0.552   1.488  0.2380  0.7374  0.2744
  112SOL    HW1  335   1.733   0.525   1.390 -1.1211 -0.1160  0.5321
  112SOL    HW2  336   1.681   0.470   1.550  2.8993  1.4336 -1.0241
  113SOL     OW  337   2.247   1.668   1.772 -0.0784  0.2798 -0.1752
  113SOL    HW1  338   2.268   1.570   1.746  1.3858 -0.7467 -1.2136
  113SOL    HW2  339   2.270   1.688   1.873 -0.6314  2.2916 -0.7691
  114SOL     OW  340   0.371   0.518   1.245 -0.2755  0.4659  0.0738
  114SOL    HW1  341   0.423   0.578   1.174 -1.4319  2.3863 -0.5834
  114SOL    HW2  342   0.298   0.457   1.202 -1.7355  1.7705  2.2003
  115SOL     OW  343   2.806   1.605   1.297  0.0018 -0.7685 -0.2445
  115SOL    HW1  344   2.821   1.500   1.307  0.9720 -1.6646 -1.2755
  115SOL    HW2  345   2.799   1.634   1.201  1.2146  1.3927 -0.6403
  116SOL     OW  346   1.841   1.052   0.700  0.0756  0.3663  0.3858
  116SOL    HW1  347   1.773   1.004   0.638 -0.1523  0.3924  0.5925
  116SOL    HW2  348   1.803   1.113   0.774  2.1597 -1.1230 -0.1406
  117SOL     OW  349   1.189   0.417   0.674 -0.3671  0.2121 -0.6613
  117SOL    HW1  350   1.195   0.434   0.775  3.4372  1.3655 -5.2941
  117SOL    HW2  351   1.234   0.490   0.615  1.6255  0.2387 -1.6229
  118SOL     OW  352   1.126   1.138   1.083  0.2981  0.0731  0.3680
  118SOL    HW1  353   1.089   1.053   1.139  1.1375 -1.2513  1.2440
  118SOL    HW2  354   1.167   1.213   1.134  0.0851 -1.4920 -1.0549
  119SOL     OW  355   1.825   1.618   2.147 -0.3934  0.1160  0.5282
  119SOL    HW1  356   1.819   1.728   2.148  0.4769  2.2556  1.6697
  119SOL    HW2  357   1.922   1.582   2.134  1.1537  1.3696 -0.7371
  120SOL     OW  358   2.922   2.817   0.180 -0.1658  0.1756 -0.5933
  120SOL    HW1  359   3.010   2.802   0.125  1.7572 -0.2294 -1.5930
  120SOL    HW2  360   2.841   2.774   0.138  3.7402 -0.0445 -0.4390
  121SOL     OW  361   2.014   0.761   2.307 -0.1030  0.1278 -0.2890
  121SOL    HW1  362   2.080   0.820   2.261 -1.2146  0.0610 -1.0457
  121SOL    HW2  363   2.021   0.657   2.283 -1.6217 -0.6791  0.9165
  122SOL     OW  364   2.630   2.700   1.220  0.1010  0.1111  0.0368
  122SOL    HW1  365   2.673   2.608   1.187 -0.2343 -1.2897 -0.1987
  122SOL    HW2  366   2.565   2.743   1.152 -1.5959  1.8322 -1.8663
  123SOL     OW  367   1.766   0.073   1.684  0.5435  0.4598  0.3345
  123SOL    HW1  368   1.787  -0.021   1.646 -0.6556 -0.9470  1.0720
  123SOL    HW2  369   1.840   0.106   1.755  1.7461  1.4275  0.9798
  124SOL     OW  370   0.121   0.431   1.075 -0.0027 -0.0946 -0.6095
  124SOL    HW1  371   0.092   0.511   1.145 -1.5198  3.2384  3.1621
  124SOL    HW2  372   0.099   0.461   0.977  2.1484  5.3022  1.0458
  125SOL     OW  373   0.836   1.853   0.692  0.2966  0.1349  0.3941
  125SOL    HW1  374   0.914   1.790   0.724 -1.5823  0.2823  1.1190
  125SOL    HW2  375   0.782   1.889   0.771  0.3128  0.3313 -2.0504
  126SOL     OW  376   1.896   2.292   2.480 -0.4616 -0.2384 -0.0237
  126SOL    HW1  377   1.944   2.291   2.387 -0.5606  1.6325 -1.1383
  126SOL    HW2  378   1.824   2.218   2.491  0.3827 -0.0154  0.7923
  127SOL     OW  379   0.879   0.872   0.288  0.3984  0.2229 -0.1932
  127SOL    HW1  380   0.901   0.929   0.375  1.3962  2.3184 -0.3209
  127SOL    HW2  381   0.934   0.783   0.288 -0.3091 -1.1190 -1.8595
  128SOL     OW  382   0.942   0.257   1.387 -0.4685  0.1622  0.4857
  128SOL    HW1  383   0.915   0.341   1.343 -0.7911  1.3043  0.4199
  128SOL    HW2  384   0.890   0.180   1.348  0.4228  2.9273  0.5379
  129SOL     OW  385   1.819   0.725   1.891 -0.6653 -0.4052  0.1040
  129SOL    HW1  386   1.830   0.732   1.790 -0.1483 -0.3160  2.7328
  129SOL    HW2  387   1.894   0.782   1.948  1.6738  1.2974 -0.6181
  130SOL     OW  388   1.375   2.194   1.030 -0.2084 -0.0153 -0.0060
  130SOL    HW1  389   1.325   2.158   0.945  2.7330 -1.1582 -0.3335
  130SOL    HW2  390   1.438   2.270   1.002 -1.4416 -0.3234  0.3748
  131SOL     OW  391   3.036   1.419   1.357 -0.0217 -0.4872  0.0944
  131SOL    HW1  392   2.986   1.334   1.386  0.7070  1.2056 -3.2473
  131SOL    HW2  393   3.139   1.405   1.362 -1.5022  0.0034 -4.3168
  132SOL     OW  394   2.052   2.436   0.552  0.0709  0.1441 -0.7820
  132SOL    HW1  395   1.964   2.409   0.508 -0.5363  0.3294 -0.2750
  132SOL    HW2  396   2.074   2.369   0.635  1.6620 -0.6568 -0.9708
  133SOL     OW  397   1.888   2.310   2.782  0.2846  0.5493  0.7951
  133SOL    HW1  398   1.929   2.323   2.873 -1.6632  0.3548 -0.4601
  133SOL    HW2  399   1.847   2.391   2.735  0.8835 -0.1877 -1.7322
  134SOL     OW  400   2.700   2.323   1.676 -0.0455  0.2245  0.2217
  134SOL    HW1  401   2.615   2.316   1.737 -0.4579 -1.3571 -1.8518
  134SOL    HW2  402   2.740   2.418   1.678 -2.1605 -0.1136  0.8357
  135SOL     OW  403   0.707   1.485   2.675 -0.4455 -0.6632 -0.0230
  135SOL    HW1  404   0.667   1.393   2.690  1.2983 -0.3686  1.8973
  135SOL    HW2  405   0.753   1.493   2.576  0.5558  1.4455 -5.7120
  136SOL     OW  406   1.195   1.960   0.438  0.4004  0.3061 -0.2876
  136SOL    HW1  407   1.131   2.019   0.492  0.6831 -1.8909 -0.2853
  136SOL    HW2  408   1.143   1.876   0.404 -0.9362  1.5928  2.2677
  137SOL     OW  409   0.427   1.143   2.140  0.4383 -0.2218  0.1051
  137SOL    HW1  410   0.347   1.156   2.203 -0.6002 -0.0485 -2.2440
  137SOL    HW2  411   0.481   1.061   2.161 -1.8136 -1.6740  1.3582
  138SOL     OW  412   2.452   1.501   0.274 -1.1670  0.4592 -0.3139
  138SOL    HW1  413   2.363   1.448   0.254 -0.2523 -2.2970  1.8368
  138SOL    HW2  414   2.505   1.459   0.351 -1.0143 -1.8942 -0.9571
  139SOL     OW  415   1.865   2.639   1.303  0.0654 -0.4835 -0.0249
  139SOL    HW1  416   1.762   2.644   1.288  3.7550 -1.5379 -0.7489
  139SOL    HW2  417   1.887   2.546   1.337  0.4961  0.6477 -2.3098
  140SOL     OW  418   3.017   2.931   2.586 -0.2634  0.5050 -0.8259
  140SOL    HW1  419   3.060   2.839   2.593  3.3741  1.3126  1.8957
  140SOL    HW2  420   3.083   3.007   2.601 -1.1615  1.9473 -1.0598
  141SOL     OW  421   1.315   1.705   1.635  0.4227 -0.3211 -0.0201
  141SOL    HW1  422   1.215   1.726   1.646  0.4775  1.1274  0.5509
  141SOL    HW2  423   1.337   1.618   1.685  1.5936  2.1072  0.8136
  142SOL     OW  424   1.570   0.581   2.233  0.1589 -0.2182 -0.0401
  142SOL    HW1  425   1.573   0.558   2.131 -0.4901  0.8771 -1.2966
  142SOL    HW2  426   1.473   0.561   2.274  0.9756 -2.0104 -0.1286
  143SOL     OW  427   2.740   0.902   0.480  0.0525 -0.0692 -0.1917
  143SOL    HW1  428   2.799   0.931   0.405  0.4352  1.9994  1.8854
  143SOL    HW2  429   2.785   0.932   0.567  0.5356  0.3016  0.0913
  144SOL     OW  430   2.917   1.182   1.468 -0.4577  0.2540  0.4177
  144SOL    HW1  431   2.851   1.182   1.551 -0.5780 -0.7749 -0.6947
  144SOL    HW2  432   3.014   1.142   1.488  0.6568  2.0237  1.7049
  145SOL     OW  433   1.024   1.879   0.095  0.5347 -0.1224  0.7240
  145SOL    HW1  434   1.027   1.957   0.026  1.8103 -1.2400  0.9651
  145SOL    HW2  435   0.988   1.792   0.048  1.1119  0.4866  1.3709
  146SOL     OW  436   2.478   0.676   1.502  0.3022 -0.3913  0.0923
  146SOL    HW1  437   2.449   0.589   1.454  0.5872  1.3446 -3.0883
  146SOL    HW2  438   2.426   0.756   1.452  1.3188  0.9575  0.1594
  147SOL     OW  439   1.143   2.476   0.617 -0.1713  0.1111  0.5499
  147SOL    HW1  440   1.107   2.528   0.533 -0.4282  1.3766 -1.4087
  147SOL    HW2  441   1.222   2.418   0.583  1.7910 -1.6694  0.0669
  148SOL     OW  442   1.673   1.458   3.060  0.1329  0.0367 -0.1914
  148SOL    HW1  443   1.684   1.384   2.987 -0.4604 -1.3660  1.3452
  148SOL    HW2  444   1.643   1.409   3.147 -0.4863 -0.3282 -1.5478
  149SOL     OW  445   0.692   1.424   1.976 -0.1873 -0.1460 -0.4082
  149SOL    HW1  446   0.596   1.413   2.022 -0.0922  1.9338  0.0810
  149SOL    HW2  447   0.698   1.379   1.883 -0.9574  2.3842 -0.2155
  150SOL     OW  448   3.038   1.272   0.969  0.3235 -0.2146 -0.1991
  150SOL    HW1  449   3.110   1.280   1.042 -2.1905 -0.7887  0.7064
  150SOL    HW2  450   3.027   1.175   0.934 -1.8592 -0.9917  1.5623
  151SOL     OW  451   0.236   0.736   2.128  0.2087 -0.2784  0.2590
  151SOL    HW1  452   0.224   0.796   2.043 -0.7182  0.5007 -1.0769
  151SOL    HW2  453   0.266   0.639   2.109 -1.3400 -2.2418 -1.3188
  152SOL     OW  454   1.393   1.760   1.280  0.5647 -0.1192  0.1629
  152SOL    HW1  455   1.377   1.847   1.333 -1.0800 -0.4993  0.1458
  152SOL    HW2  456   1.307   1.732   1.221 -0.0293 -1.0459 -2.3128
  153SOL     OW  457   3.071   1.524   0.170  0.4800 -0.0650 -0.0029
  153SOL    HW1  458   3.108   1.428   0.177  0.6174  0.1916 -1.9804
  153SOL    HW2  459   3.099   1.584   0.252 -0.2629  0.4381 -0.9317
  154SOL     OW  460   2.371   1.861   2.737  0.2562  0.4723 -0.1380
  154SOL    HW1  461   2.356   1.758   2.751 -1.7990  1.8802  0.0190
  154SOL    HW2  462   2.447   1.886   2.669  0.6685  0.7038  0.6584
  155SOL     OW  463   2.425   1.226   0.386  0.2311 -0.2826  0.0969
  155SOL    HW1  464   2.510   1.188   0.345  1.3529 -0.0694 -2.0182
  155SOL    HW2  465   2.338   1.210   0.333 -1.8574  0.0309  0.8304
  156SOL     OW  466   2.568   0.967   0.869 -0.5952 -0.3033  0.1025
  156SOL    HW1  467   2.467   0.956   0.864  2.6267 -0.7584 -1.0531
  156SOL    HW2  468   2.596   1.064   0.865 -2.0495  0.2541 -0.6451
  157SOL     OW  469   1.287   2.963   3.069  0.2883 -0.3644 -0.2672
  157SOL    HW1  470   1.345   2.934   2.986  3.1997 -1.1593 -0.3011
  157SOL    HW2  471   1.293   3.065   3.078 -3.4443  1.7536  1.3360
  158SOL     OW  472   1.036   1.846   1.933  0.0496  0.4397 -0.8986
  158SOL    HW1  473   1.043   1.935   1.886  0.5032  0.3582  3.8435
  158SOL    HW2  474   0.950   1.841   1.992  0.7318  0.8140  0.8233
  159SOL     OW  475   0.814   0.430   1.219  0.0465  0.0431  0.0351
  159SOL    HW1  476   0.780   0.499   1.287  1.2206  0.0147 -2.7473
  159SOL    HW2  477   0.735   0.387   1.161  0.5193  0.3700 -0.4969
  160SOL     OW  478   1.393   2.332   1.621 -0.0117 -0.3749 -0.7355
  160SOL    HW1  479   1.419   2.340   1.720 -1.2039 -0.5156  1.4715
  160SOL    HW2  480   1.475   2.320   1.560 -0.4888  2.9893 -0.2762
  161SOL     OW  481   0.076   2.931   0.291 -0.3774  0.0138  0.4254
  161SOL    HW1  482  -0.018   2.884   0.283  0.8491 -0.5740  0.9349
  161SOL    HW2  483   0.104   2.970   0.198  2.3280  2.1006 -2.5418
  162SOL     OW  484   2.520   1.915   0.466 -0.7725 -0.5616  0.2995
  162SOL    HW1  485   2.544   1.846   0.391 -0.8705  1.0662  0.8657
  162SOL    HW2  486   2.524   1.869   0.556 -1.8433  2.8915 -2.1598
  163SOL     OW  487   1.908   2.764   0.744 -0.8447  1.1646 -0.3885
  163SOL    HW1  488   1.910   2.800   0.646 -0.5924 -0.3142 -2.0128
  163SOL    HW2  489   1.995   2.708   0.765 -1.7782  0.1723 -1.3177
  164SOL     OW  490   3.081   0.218   1.180 -0.0991  0.1082 -0.4000
  164SOL    HW1  491   3.136   0.293   1.133  1.4445  2.6997  0.8769
  164SOL    HW2  492   3.141   0.153   1.238  3.5819  2.2211  0.8120
  165SOL     OW  493   0.929   1.414   0.700  0.2957 -0.2619  0.4181
  165SOL    HW1  494   0.915   1.506   0.744  0.7903  1.0905  0.2790
  165SOL    HW2  495   0.894   1.425   0.606 -0.1553  1.9223  3.6978
  166SOL     OW  496   1.493   1.094   1.746  0.1287  0.2155 -0.2330
  166SOL    HW1  497   1.427   1.061   1.820 -0.3306  1.3391  0.0598
  166SOL    HW2  498   1.551   1.179   1.773  0.7173 -1.3580  1.5828
  167SOL     OW  499   0.719   1.929   1.445 -0.2075  0.4006 -0.5004
  167SOL    HW1  500   0.761   1.985   1.524 -0.2154  1.4135  0.7951
  167SOL    HW2  501   0.703   1.830   1.467  1.3729  1.1713 -1.7674
  168SOL     OW  502   1.637   2.385   0.147 -0.5682 -0.3363  0.0574
  168SOL    HW1  503   1.694   2.415   0.064  0.0617 -0.2323  3.5702
  168SOL    HW2  504   1.685   2.337   0.223  0.2441  0.9113 -1.8584
  169SOL     OW  505   0.154   2.561   2.222 -0.3722  0.4565  0.1231
  169SOL    HW1  506   0.201   2.495   2.155 -1.3609  0.6065  0.5633
  169SOL    HW2  507   0.184   2.546   2.322  2.8952 -2.7760 -0.2317
  170SOL     OW  508   1.162   0.231   1.999 -0.0729 -0.2466 -0.0224
  170SOL    HW1  509   1.228   0.246   2.081  0.1043 -0.2852  0.0638
  170SOL    HW2  510   1.206   0.170   1.928  0.2237  0.2107  0.3937
  171SOL     OW  511   0.207   0.800   2.408 -0.2236 -0.2872  0.9413
  171SOL    HW1  512   0.124   0.858   2.433 -1.7374  1.1570  2.4528
  171SOL    HW2  513   0.217   0.797   2.306 -1.4624 -1.0192 -0.1248
  172SOL     OW  514   0.907   1.042   2.914 -0.5204 -0.0677 -0.2089
  172SOL    HW1  515   0.996   1.097   2.920 -0.6806 -0.9275  0.0825
  172SOL    HW2  516   0.866   1.050   2.816  0.3901  0.5386  0.6389
  173SOL     OW  517   0.646   2.659   0.081 -0.6187 -0.0134  0.3167
  173SOL    HW1  518   0.652   2.722   0.002 -0.7627 -0.2959  1.6667
  173SOL    HW2  519   0.549   2.622   0.098  2.9612  1.9160  1.7876
  174SOL     OW  520   1.415   2.821   1.086  0.5154  0.0661  0.2561
  174SOL    HW1  521   1.421   2.919   1.056  0.9215  1.4546  0.5081
  174SOL    HW2  522   1.401   2.757   1.004 -1.2189  4.2212  1.7315
  175SOL     OW  523   0.374   0.077   1.681  0.5467  0.0268  0.5551
  175SOL    HW1  524   0.451   0.118   1.740  0.0938  0.8482  1.4407
  175SOL    HW2  525   0.319   0.149   1.629 -1.7731 -1.2286  1.3833
  176SOL     OW  526   2.571   0.384   3.084 -0.0597 -0.0923  0.1827
  176SOL    HW1  527   2.554   0.466   3.147  1.1361  2.0501 -1.1885
  176SOL    HW2  528   2.509   0.308   3.094  1.5828  0.2254 -2.7203
  177SOL     OW  529   0.358   0.308   0.991 -0.0428  0.0829  0.2255
  177SOL    HW1  530   0.395   0.234   1.058  2.9469  1.9380 -0.2292
  177SOL    HW2  531   0.264   0.350   1.013  0.1272  1.3216 -0.7437
  178SOL     OW  532   3.092   2.654   2.645 -0.6354 -0.1169 -0.1414
  178SOL    HW1  533   3.015   2.600   2.694  0.1354 -2.0942 -1.0142
  178SOL    HW2  534   3.163   2.687   2.714 -1.1746  0.3232  1.5286
  179SOL     OW  535   0.019   1.698   1.195 -0.2438 -0.0246 -0.0532
  179SOL    HW1  536  -0.051   1.776   1.189  1.9168 -0.5907  0.0672
  179SOL    HW2  537  -0.014   1.621   1.246  3.8325  1.9643 -0.5967
  180SOL     OW  538   0.241   1.191   1.848  0.5818 -0.1499 -0.6033
  180SOL    HW1  539   0.343   1.194   1.847 -3.7109 -1.7059 -0.6712
  180SOL    HW2  540   0.198   1.262   1.914  0.1475  1.3128  1.4985
  181SOL     OW  541   3.010   1.850   2.494  0.1804  0.3641 -0.2957
  181SOL    HW1  542   3.067   1.929   2.460  2.8470 -0.7205  3.4561
  181SOL    HW2  543   2.916   1.864   2.465 -0.4981  1.8364  0.7792
  182SOL     OW  544   2.248   1.306   1.154 -0.4293 -0.0639 -0.3649
  182SOL    HW1  545   2.171   1.255   1.109 -2.6740  1.2158  0.8161
  182SOL    HW2  546   2.272   1.400   1.114 -0.5100  1.6847 -0.2774
  183SOL     OW  547   1.512   2.223   2.548  0.3265  0.2084 -0.1988
  183SOL    HW1  548   1.430   2.154   2.551 -1.1718 -2.9546  3.2232
  183SOL    HW2  549   1.600   2.175   2.537  1.6277  0.5832 -1.9565
  184SOL     OW  550   2.050   0.870   0.764 -0.3581 -0.2901  0.2517
  184SOL    HW1  551   1.982   0.947   0.743 -0.3763 -1.3175  0.7726
  184SOL    HW2  552   2.011   0.791   0.816  0.1445 -1.7958 -0.8026
  185SOL     OW  553   1.557   2.772   2.100  0.5185 -0.1072  0.2406
  185SOL    HW1  554   1.525   2.869   2.072 -0.4808  0.3305 -1.3068
  185SOL    HW2  555   1.535   2.743   2.197  1.3301 -2.6628  1.7358
  186SOL     OW  556   0.096   2.221   1.669  0.6223  0.3027 -0.4971
  186SOL    HW1  557   0.115   2.291   1.738 -1.4535 -2.9986 -0.2721
  186SOL    HW2  558   0.183   2.165   1.648 -1.3049 -1.1911  1.5360
  187SOL     OW  559   1.373   0.745   1.656 -0.4429  0.3324 -0.1012
  187SOL    HW1  560   1.465   0.760   1.614 -1.0391  0.0362 -2.7416
  187SOL    HW2  561   1.374   0.756   1.758 -1.4883  0.9479 -0.9838
  188SOL     OW  562   2.773   2.761   1.456 -0.1221  0.5661 -0.5643
  188SOL    HW1  563   2.787   2.861   1.437 -0.5488  1.0928 -0.4321
  188SOL    HW2  564   2.690   2.723   1.406 -0.4096 -0.7271  0.7027
  189SOL     OW  565   0.857   1.145   1.389  0.2426  0.2704  0.4970
  189SOL    HW1  566   0.945   1.175   1.439  0.6823  2.7318  1.4515
  189SOL    HW2  567   0.806   1.229   1.353  0.8447  3.2003 -0.7077
  190SOL     OW  568   1.496   1.886   1.567 -0.6672 -0.0180 -0.1612
  190SOL    HW1  569   1.416   1.822   1.571 -1.3363  0.7156  2.0319
  190SOL    HW2  570   1.497   1.947   1.651 -0.6234 -0.3875 -0.3615
  191SOL     OW  571   0.960   0.760   1.518  0.1222  0.1405  0.3049
  191SOL    HW1  572   1.016   0.675   1.512 -1.0696 -0.1593 -1.4036
  191SOL    HW2  573   1.012   0.837   1.560  0.2614  0.1800 -1.3624
  192SOL     OW  574   1.863   2.221   1.133 -0.1846  0.6454 -0.1058
  192SOL    HW1  575   1.768   2.200   1.103  0.4859  0.3942 -0.5372
  192SOL    HW2  576   1.923   2.265   1.060  1.2647 -0.0023 -1.4406
  193SOL     OW  577   0.526   0.580   0.462  0.4614 -0.3860  0.3015
  193SOL    HW1  578   0.474   0.512   0.513  1.5673  1.2726 -2.0375
  193SOL    HW2  579   0.554   0.549   0.365  0.5811 -2.1970 -0.8575
  194SOL     OW  580   0.306   0.869   1.272  0.3712  0.3010 -0.0336
  194SOL    HW1  581   0.241   0.800   1.228 -1.7585  1.9239 -1.8002
  194SOL    HW2  582   0.340   0.935   1.202 -0.0171 -0.8672  1.3997
  195SOL     OW  583   1.029   2.903   0.565  0.2139 -0.3126  0.0888
  195SOL    HW1  584   1.010   2.818   0.512  0.9893  0.8938  1.4420
  195SOL    HW2  585   1.128   2.931   0.549 -2.7863 -4.0491  0.7434
  196SOL     OW  586   0.199   1.382   1.372 -0.6039 -0.2531  0.1078
  196SOL    HW1  587   0.248   1.467   1.409 -0.4789 -1.0654  0.6597
  196SOL    HW2  588   0.201   1.305   1.443 -1.5057 -1.1773  1.2702
  197SOL     OW  589   0.829   2.042   0.212 -0.2114  0.6998  0.1680
  197SOL    HW1  590   0.820   2.037   0.316 -0.8593 -2.2975  0.8619
  197SOL    HW2  591   0.890   1.969   0.171 -0.4611  1.8554 -0.2540
  198SOL     OW  592   0.318   1.242   0.229  0.1318  0.3789 -0.0240
  198SOL    HW1  593   0.221   1.223   0.236  2.2715  0.1354 -0.5448
  198SOL    HW2  594   0.332   1.346   0.234  0.2128 -0.5953 -1.8232
  199SOL     OW  595   2.185   0.353   2.558 -0.6197  0.2591  0.1189
  199SOL    HW1  596   2.127   0.308   2.629  0.3797  1.1970 -2.3293
  199SOL    HW2  597   2.288   0.348   2.584  1.8591 -1.3966  1.6265
  200SOL     OW  598   0.050   2.930   0.724  0.4249 -0.7263  0.4940
  200SOL    HW1  599  -0.025   2.883   0.671 -0.4047 -3.1902  1.4134
  200SOL    HW2  600   0.012   3.006   0.787 -0.0991  0.9086  2.0039
  201SOL     OW  601   1.105   0.736   0.629  0.0569  0.2423  0.1684
  201SOL    HW1  602   1.101   0.805   0.709  1.6094  0.0567  0.5839
  201SOL    HW2  603   1.026   0.665   0.624  1.1619 -0.7145 -2.9035
  202SOL     OW  604   0.512   1.204   1.812 -0.1416 -0.2375  0.0003
  202SOL    HW1  605   0.516   1.218   1.712  0.2319  1.7755 -0.6324
  202SOL    HW2  606   0.579   1.128   1.839 -1.3179 -1.1564  1.7013
  203SOL     OW  607   0.692   0.205   1.558  0.2878 -0.3169  0.2557
  203SOL    HW1  608   0.733   0.172   1.471  0.7484  1.6124 -1.6773
  203SOL    HW2  609   0.751   0.178   1.639  0.8986  0.6803  0.3181
  204SOL     OW  610   2.056   1.882   2.956  0.3023  0.1483 -0.6710
  204SOL    HW1  611   2.075   1.783   2.929 -2.7497 -2.4650 -0.1928
  204SOL    HW2  612   2.035   1.929   2.867  0.8991 -0.5620  0.8086
  205SOL     OW  613   1.804   1.876   3.100  0.1358  0.1729 -0.1024
  205SOL    HW1  614   1.887   1.871   3.041 -1.1768  1.3510 -1.5693
  205SOL    HW2  615   1.770   1.977   3.097  0.9020 -1.3587 -0.7804
  206SOL     OW  616   2.513   2.779   0.347  0.1126  0.4170 -0.5838
  206SOL    HW1  617   2.583   2.707   0.377 -0.0622 -0.6815 -1.6908
  206SOL    HW2  618   2.544   2.838   0.264  4.1988  1.0261 -1.8526
  207SOL     OW  619   0.591   1.783   2.957  0.7063  0.3509  0.0484
  207SOL    HW1  620   0.693   1.756   2.955  2.2199 -0.1915  0.5886
  207SOL    HW2  621   0.537   1.721   3.023 -1.3341  1.6239  1.9133
  208SOL     OW  622   1.174   1.573   1.413 -0.2956  0.1736  0.1350
  208SOL    HW1  623   1.176   1.628   1.324 -2.0166  1.6369 -2.9779
  208SOL    HW2  624   1.262   1.586   1.467 -0.3590 -0.6093 -0.6835
  209SOL     OW  625   0.273   0.957   3.002  0.2936 -0.5637 -0.1352
  209SOL    HW1  626   0.304   0.925   2.906 -2.1234 -2.0050 -1.2469
  209SOL    HW2  627   0.240   0.874   3.057 -2.2604  0.0110 -0.3343
  210SOL     OW  628   1.765   0.495   1.218  0.1215  0.2286 -0.1223
  210SOL    HW1  629   1.767   0.597   1.205 -0.1428  1.6779 -1.0470
  210SOL    HW2  630   1.861   0.455   1.216  0.2370  2.5424 -2.7450
  211SOL     OW  631   2.124   1.051   1.593  0.2221  0.4664 -0.0852
  211SOL    HW1  632   2.172   0.970   1.639  2.6623  1.8563  0.5529
  211SOL    HW2  633   2.191   1.112   1.535 -0.0485 -1.0484 -0.5994
  212SOL     OW  634   0.023   0.983   1.480 -0.0543 -0.2832  0.1942
  212SOL    HW1  635   0.107   1.039   1.512  2.5678  1.2785 -1.7436
  212SOL    HW2  636  -0.008   0.910   1.548  0.0407 -0.8395 -1.6417
  213SOL     OW  637   2.770   0.381   0.343  0.3452 -0.4736  0.6676
  213SOL    HW1  638   2.814   0.320   0.274 -0.8853 -0.2447 -4.5828
  213SOL    HW2  639   2.694   0.443   0.308  1.1586 -0.5348 -2.6733
  214SOL     OW  640   2.159   0.253   2.295  0.1239  0.3525  0.2712
  214SOL    HW1  641   2.145   0.293   2.391 -0.0225 -3.4054  0.6829
  214SOL    HW2  642   2.151   0.149   2.294  2.3545  1.5436 -0.4170
  215SOL     OW  643   1.620   2.314   2.071 -0.0946 -0.5393  0.4478
  215SOL    HW1  644   1.720   2.336   2.054 -0.3876 -0.5988  0.5776
  215SOL    HW2  645   1.575   2.383   2.135  0.8648  2.7016  0.5263
  216SOL     OW  646   2.212   0.626   0.644  0.1187 -0.2648 -0.3206
  216SOL    HW1  647   2.205   0.540   0.589 -1.9258  1.1131  0.1573
  216SOL    HW2  648   2.187   0.712   0.595 -3.3279  1.4040 -1.6664
  217SOL     OW  649   0.733   2.765   2.478  0.0750 -0.0423 -0.5305
  217SOL    HW1  650   0.755   2.667   2.500  0.8636  0.9031  2.1177
  217SOL    HW2  651   0.720   2.785   2.378 -1.9294  0.3300  0.9427
  218SOL     OW  652   1.936   1.463   0.077  0.1448 -0.0422 -0.1363
  218SOL    HW1  653   1.844   1.491   0.036 -2.3513  0.8263 -1.5453
  218SOL    HW2  654   1.929   1.366   0.102  0.4999  0.8063  2.0713
  219SOL     OW  655   2.349   1.282   2.559  0.3372 -0.4089 -0.2498
  219SOL    HW1  656   2.417   1.257   2.483  3.7417 -0.4335 -0.3826
  219SOL    HW2  657   2.356   1.212   2.639 -0.0818  2.0313  0.1401
  220SOL     OW  658   1.519   1.023   1.298  0.0338  0.3307 -0.3382
  220SOL    HW1  659   1.599   1.080   1.328 -1.2940 -4.1092  3.9687
  220SOL    HW2  660   1.476   1.062   1.215  1.5489 -0.3639 -0.2885
  221SOL     OW  661   1.347   1.033   2.187  0.0341 -0.9787  0.1449
  221SOL    HW1  662   1.295   1.054   2.099 -0.9855 -2.3805  0.8576
  221SOL    HW2  663   1.448   1.027   2.174 -1.4162  0.4235 -0.2582
  222SOL     OW  664   1.196   0.036   1.195 -0.2028  0.0827  0.6022
  222SOL    HW1  665   1.276  -0.013   1.238  0.2413 -2.1081  1.1457
  222SOL    HW2  666   1.218   0.137   1.184  1.3088 -0.9060  0.4001
  223SOL     OW  667   2.758   0.864   2.028 -0.6211  0.5983 -0.2511
  223SOL    HW1  668   2.778   0.864   2.130 -1.4838 -0.2873 -1.8137
  223SOL    HW2  669   2.830   0.918   1.975 -1.4881  1.2396 -0.2673
  224SOL     OW  670   1.556   1.013   2.748  0.6827  0.1505  0.1211
  224SOL    HW1  671   1.603   0.960   2.672  2.1800 -1.0243  1.2388
  224SOL    HW2  672   1.505   1.091   2.711  0.9893  1.5733  0.6501
  225SOL     OW  673   2.935   2.796   2.907  0.0039  0.1528 -0.0664
  225SOL    HW1  674   2.883   2.717   2.861 -1.0621 -1.3426  1.2521
  225SOL    HW2  675   2.983   2.849   2.833 -2.1781  2.5170  2.2420
  226SOL     OW  676   2.382   1.582   2.827 -0.2567 -0.2585 -0.1408
  226SOL    HW1  677   2.427   1.535   2.745  0.6295  3.3274  0.8827
  226SOL    HW2  678   2.346   1.515   2.895 -1.5262 -3.0991 -3.0269
  227SOL     OW  679   0.845   0.162   3.012  0.1119  0.3065  0.1651
  227SOL    HW1  680   0.826   0.082   3.079 -3.0769 -0.2193  2.0858
  227SOL    HW2  681   0.881   0.125   2.917  1.1469 -2.8142 -2.9589
  228SOL     OW  682   2.384   0.601   2.856 -0.4296 -0.2673 -0.0354
  228SOL    HW1  683   2.340   0.615   2.760 -1.0463 -0.3835  0.1396
  228SOL    HW2  684   2.475   0.560   2.847 -0.0960 -1.3138  0.9224
  229SOL     OW  685   0.619   0.477   1.904  0.3483 -0.5401 -0.1399
  229SOL    HW1  686   0.591   0.396   1.851  1.0418 -2.6091 -1.4462
  229SOL    HW2  687   0.663   0.561   1.861  1.9673  2.0803 -0.0607
  230SOL     OW  688   1.933   1.178   2.138 -0.1300 -0.6459  0.2784
  230SOL    HW1  689   2.002   1.238   2.082 -0.6321  4.1755  2.9103
  230SOL    HW2  690   1.838   1.216   2.158  1.3161 -0.1932  2.6628
  231SOL     OW  691   0.644   0.995   2.959  0.8174  0.2507  0.2335
  231SOL    HW1  692   0.744   1.015   2.949  1.8569  0.5644 -0.2900
  231SOL    HW2  693   0.592   1.067   3.010  0.1880  0.0456  0.9715
  232SOL     OW  694   2.435   0.027   2.789 -0.4624  0.1686  0.1130
  232SOL    HW1  695   2.461  -0.073   2.785 -2.1980 -0.5623 -1.4409
  232SOL    HW2  696   2.482   0.085   2.714 -0.3723  2.2854  0.7680
  233SOL     OW  697   1.712   1.290   1.139  0.4275  0.0311 -0.0054
  233SOL    HW1  698   1.716   1.263   1.033  1.5706 -1.3740 -1.3988
  233SOL    HW2  699   1.745   1.213   1.201  0.5004 -1.4263 -0.3769
  234SOL     OW  700   1.592   2.583   1.864  0.3790  0.1832  0.5349
  234SOL    HW1  701   1.612   2.645   1.944 -0.1743 -1.6612  2.1716
  234SOL    HW2  702   1.516   2.518   1.892 -2.5773 -0.1056  1.1166
  235SOL     OW  703   0.059   3.008   2.842  0.0966  0.1871  0.2282
  235SOL    HW1  704   0.109   3.060   2.770  0.2144 -3.5382 -1.7139
  235SOL    HW2  705   0.003   3.067   2.906  0.0077 -1.2008  0.4023
  236SOL     OW  706   2.886   0.760   0.085  0.0241 -0.0028  0.6370
  236SOL    HW1  707   2.923   0.810   0.168  0.8833  0.4284  1.3602
  236SOL    HW2  708   2.955   0.687   0.057  1.2602 -1.0309 -0.1660
  237SOL     OW  709   1.486   1.704   0.986  0.4904  0.0111 -0.3648
  237SOL    HW1  710   1.587   1.694   0.964  1.1267  1.7180 -1.9647
  237SOL    HW2  711   1.473   1.755   1.076 -0.3503 -1.4285 -2.4631
  238SOL     OW  712   1.778   1.272   0.869 -0.0955 -0.4653  0.1096
  238SOL    HW1  713   1.881   1.280   0.870  0.1882 -0.2222  2.0177
  238SOL    HW2  714   1.725   1.333   0.798 -2.5382 -0.0993  0.3673
  239SOL     OW  715   2.044   0.234   2.765  0.5514 -0.0313 -0.0684
  239SOL    HW1  716   2.101   0.189   2.847 -0.1578 -1.7229 -0.6029
  239SOL    HW2  717   1.978   0.312   2.795  1.8701  1.7873 -0.4089
  240SOL     OW  718   0.991   0.640   0.315 -0.3173  0.0660  0.3489
  240SOL    HW1  719   0.976   0.545   0.275  1.8665 -2.7624 -0.5509
  240SOL    HW2  720   0.972   0.630   0.415 -2.6240 -3.4953  0.1088
  241SOL     OW  721   0.637   0.107   0.367  0.0510  0.4889  0.9823
  241SOL    HW1  722   0.669   0.181   0.306 -0.0189 -1.2468  1.3031
  241SOL    HW2  723   0.610   0.023   0.302 -0.0539 -1.9968  2.2744
  242SOL     OW  724   0.682   2.480   1.118 -0.2240 -0.4080 -0.4373
  242SOL    HW1  725   0.636   2.527   1.196 -1.6839 -0.4796  1.1385
  242SOL    HW2  726   0.766   2.526   1.082 -1.1980  0.5606  1.0970
  243SOL     OW  727   1.102   0.585   2.491 -0.4653 -0.3256  0.1931
  243SOL    HW1  728   1.007   0.624   2.474 -3.9404 -0.7148 -0.8530
  243SOL    HW2  729   1.092   0.499   2.552  0.9162  0.7500  1.7599
  244SOL     OW  730   2.774   1.889   2.351 -0.4906 -0.1487 -0.3245
  244SOL    HW1  731   2.814   1.844   2.266  0.1521  1.8340  2.3383
  244SOL    HW2  732   2.691   1.841   2.383  1.6877 -3.4215 -1.5491
  245SOL     OW  733   2.444   0.648   2.189 -0.2826 -0.4890 -0.4916
  245SOL    HW1  734   2.504   0.729   2.223 -2.6912  1.4403  3.4734
  245SOL    HW2  735   2.499   0.564   2.198 -2.9051  1.7266 -0.7523
  246SOL     OW  736   0.222   2.915   1.667 -0.1669 -0.4204  0.1723
  246SOL    HW1  737   0.155   2.899   1.593  1.1716 -1.0612 -0.4488
  246SOL    HW2  738   0.280   3.000   1.660  0.5863 -1.6406  0.1738
  247SOL     OW  739   2.150   0.563   3.039  0.4541  0.5856 -0.3448
  247SOL    HW1  740   2.210   0.565   2.958  0.9888 -3.0729 -2.6358
  247SOL    HW2  741   2.086   0.640   3.039  0.1148 -2.4598 -3.0577
  248SOL     OW  742   2.109   1.795   1.574  0.1644  0.2954  0.0151
  248SOL    HW1  743   2.181   1.760   1.637 -2.6001  1.2376  1.5999
  248SOL    HW2  744   2.017   1.801   1.622 -1.4170  0.7671 -0.2778
  249SOL     OW  745   1.966   1.907   1.937 -0.3965 -0.0868 -0.0797
  249SOL    HW1  746   1.942   1.877   1.843  0.2228  2.0066  0.3920
  249SOL    HW2  747   2.036   1.983   1.939 -0.2305 -1.3192  1.5914
  250SOL     OW  748   1.113   0.747   1.903  0.1444 -0.4918 -0.2264
  250SOL    HW1  749   1.178   0.678   1.948 -1.0656 -0.3444 -1.5271
  250SOL    HW2  750   1.061   0.709   1.823  0.5571 -1.0498  1.0448
  251SOL     OW  751   3.085   1.577   2.540 -0.0272  0.1796  0.0861
  251SOL    HW1  752   3.058   1.669   2.500  1.4617  1.0144 -3.2641
  251SOL    HW2  753   3.012   1.507   2.554 -1.7826 -0.7155  1.5783
  252SOL     OW  754   1.579   0.898   1.552 -0.1496 -0.3971  0.4280
  252SOL    HW1  755   1.565   0.929   1.455  2.7038  1.1106 -1.8944
  252SOL    HW2  756   1.548   0.971   1.616 -1.0655 -2.2153 -0.2909
  253SOL     OW  757   0.864   1.512   0.434  0.1508 -0.6418  0.3785
  253SOL    HW1  758   0.906   1.421   0.407 -0.6633  0.3537  2.0214
  253SOL    HW2  759   0.774   1.529   0.390 -4.3304  0.9491 -0.3766
  254SOL     OW  760   2.080   2.126   1.578 -0.8258 -0.0498 -0.1519
  254SOL    HW1  761   2.050   2.059   1.507 -1.5067 -0.5686  0.5794
  254SOL    HW2  762   2.001   2.143   1.642  1.1036  2.0322  0.4148
  255SOL     OW  763   0.106   1.173   2.933  0.0993 -0.0903 -0.2890
  255SOL    HW1  764   0.166   1.249   2.891  1.6985  1.5170  0.0249
  255SOL    HW2  765   0.158   1.096   2.982 -0.4921  0.3112 -2.4784
  256SOL     OW  766   2.756   1.373   1.744  0.0826  0.1211 -0.8769
  256SOL    HW1  767   2.685   1.427   1.798 -0.1216  0.6108  1.3486
  256SOL    HW2  768   2.735   1.273   1.739  0.5288 -0.7382  1.9890
  257SOL     OW  769   0.850   0.157   1.771 -0.6540  0.4414 -0.1334
  257SOL    HW1  770   0.918   0.235   1.749  1.7144  0.9368  0.2288
  257SOL    HW2  771   0.898   0.065   1.796  0.5622 -3.3938 -0.5186
  258SOL     OW  772   2.918   1.297   0.439 -0.8416 -0.2660 -0.2693
  258SOL    HW1  773   2.867   1.377   0.401  0.5185 -1.7024  1.2620
  258SOL    HW2  774   2.963   1.322   0.530 -0.1052  4.5655  1.5707
  259SOL     OW  775   0.481   2.952   3.034 -0.1477  0.6549  0.0541
  259SOL    HW1  776   0.415   2.889   3.084  2.6637  1.7735  0.2647
  259SOL    HW2  777   0.482   2.934   2.932 -1.5111 -0.9996 -2.5107
  260SOL     OW  778   2.725   0.829   2.742  0.6633 -0.2547  0.0574
  260SOL    HW1  779   2.626   0.839   2.736  0.3560  2.2475  1.3803
  260SOL    HW2  780   2.760   0.899   2.806 -0.3159  0.7384  0.7773
  261SOL     OW  781   2.735   1.335   1.314  0.3512 -0.4100 -0.3810
  261SOL    HW1  782   2.643   1.289   1.282  0.2674  1.9265  0.3398
  261SOL    HW2  783   2.791   1.269   1.373  1.4165 -1.9557 -0.8553
  262SOL     OW  784   1.441   2.996   2.000 -0.4483  0.1062  0.3135
  262SOL    HW1  785   1.470   3.058   1.924 -2.2475  1.5003  0.7172
  262SOL    HW2  786   1.354   2.944   1.975  0.3612  0.7127  0.5648
  263SOL     OW  787   0.846   0.719   2.350  0.2030  0.2231  0.0399
  263SOL    HW1  788   0.861   0.627   2.302  0.7451 -1.6971  0.5048
  263SOL    HW2  789   0.892   0.785   2.283  0.6879 -1.5238 -1.9897
  264SOL     OW  790   2.212   0.808   0.296 -0.5813 -0.1101 -0.3104
  264SOL    HW1  791   2.151   0.879   0.345  2.0780  0.8534 -0.5197
  264SOL    HW2  792   2.307   0.799   0.348  0.1728  1.3109  0.7613
  265SOL     OW  793   0.902   2.273   2.663 -0.3366  0.0459  0.4706
  265SOL    HW1  794   0.960   2.321   2.732  1.0681 -0.3251 -1.7258
  265SOL    HW2  795   0.868   2.183   2.700  1.1940  3.3584  0.0163
  266SOL     OW  796   1.331   1.736   0.000 -0.6014 -0.2511  0.8557
  266SOL    HW1  797   1.332   1.822   0.059  0.9830  0.4967 -2.4701
  266SOL    HW2  798   1.426   1.719  -0.033 -2.0093  0.9722  0.5600
  267SOL     OW  799   0.970   3.055   2.366 -0.1902 -0.2439 -0.0534
  267SOL    HW1  800   0.969   3.039   2.261 -1.9429  0.1163 -1.3346
  267SOL    HW2  801   0.942   3.152   2.387 -0.5083 -0.1118  1.1231
  268SOL     OW  802   0.690   1.137   1.077  0.1715  0.1140  0.1723
  268SOL    HW1  803   0.688   1.198   1.163  1.1430  1.6869  3.0442
  268SOL    HW2  804   0.667   1.195   0.992 -0.0062  0.5804  3.4815
  269SOL     OW  805   2.391   2.474   1.539 -0.1980  0.3173  0.0663
  269SOL    HW1  806   2.474   2.416   1.530 -1.4196 -0.8495  0.5514
  269SOL    HW2  807   2.360   2.500   1.636 -0.5432  1.5106 -1.7361
  270SOL     OW  808   0.133   3.047   1.903  0.0725  0.2236  0.1568
  270SOL    HW1  809   0.215   3.026   1.843 -1.0597 -1.3657  0.1050
  270SOL    HW2  810   0.056   2.980   1.885 -0.4388  1.5963 -0.3234
  271SOL     OW  811   0.412   1.405   1.148 -0.3485 -0.6990 -0.1560
  271SOL    HW1  812   0.390   1.400   1.047  1.9514  2.1018  2.5451
  271SOL    HW2  813   0.332   1.423   1.212  1.1178 -0.0316 -0.0130
  272SOL     OW  814   1.977   2.890   1.899  0.1136  0.1616  0.0485
  272SOL    HW1  815   1.942   2.831   1.817  1.3292 -0.6837 -0.5633
  272SOL    HW2  816   2.066   2.937   1.874 -4.1600 -1.9147 -0.5806
  273SOL     OW  817   1.452   1.464   2.798  0.2429  0.6000 -0.5577
  273SOL    HW1  818   1.362   1.516   2.824 -1.1299  0.6487  0.2437
  273SOL    HW2  819   1.491   1.410   2.878  1.0602 -1.6673 -1.9550
  274SOL     OW  820   1.256   0.511   1.996  0.4719 -0.2785 -0.2040
  274SOL    HW1  821   1.190   0.433   1.972  1.2693  0.9152  0.0566
  274SOL    HW2  822   1.292   0.519   2.092  1.3738  1.6141  1.4306
  275SOL     OW  823   0.641   2.072   1.871 -0.5226  0.0751  0.0356
  275SOL    HW1  824   0.598   2.162   1.896  3.1584 -1.1082 -1.0290
  275SOL    HW2  825   0.577   1.989   1.873  0.3823 -2.0368 -0.4105
  276SOL     OW  826   2.145   0.925   2.801 -0.0183 -0.1174  0.1750
  276SOL    HW1  827   2.104   0.886   2.714  0.5496 -2.9770 -0.9909
  276SOL    HW2  828   2.101   0.885   2.885 -0.2406  3.7103 -1.7777
  277SOL     OW  829  -0.003   0.858   0.276  0.0353 -0.3406 -0.0426
  277SOL    HW1  830   0.084   0.891   0.233 -3.1446  1.6270 -2.7228
  277SOL    HW2  831   0.012   0.788   0.350 -0.3015 -1.0190 -0.9652
  278SOL     OW  832   0.250   0.287   3.071  0.0020  0.2885  0.1019
  278SOL    HW1  833   0.330   0.224   3.069 -0.3516  1.3828 -0.3722
  278SOL    HW2  834   0.288   0.385   3.065  0.1010 -2.2513  1.4439
  279SOL     OW  835   0.147   0.103   0.910  0.2329  0.5139  0.2692
  279SOL    HW1  836   0.144   0.035   0.989 -4.3600 -1.0750 -1.1530
  279SOL    HW2  837   0.226   0.094   0.841  1.4037 -1.0607  2.0005
  280SOL     OW  838   1.563   2.907   2.534 -0.1125 -0.0077 -0.6272
  280SOL    HW1  839   1.655   2.953   2.558  1.7642 -2.2751  1.0677
  280SOL    HW2  840   1.488   2.977   2.543  0.3861  1.2357  1.4270
  281SOL     OW  841   0.614   0.930   2.263  0.2019  0.1525  0.0021
  281SOL    HW1  842   0.636   0.832   2.227 -1.8901 -2.2606 -0.4271
  281SOL    HW2  843   0.566   0.929   2.357 -0.2536  0.5427 -0.0932
  282SOL     OW  844   1.760   2.434   0.513  0.5380  0.8112  0.5294
  282SOL    HW1  845   1.714   2.373   0.446 -2.0261  1.0178  2.0869
  282SOL    HW2  846   1.718   2.528   0.507 -2.5211  0.2974 -0.9893
  283SOL     OW  847   1.134   0.917   0.845  0.0728 -0.1909  0.0581
  283SOL    HW1  848   1.165   0.837   0.899 -1.0682 -1.8583  0.8570
  283SOL    HW2  849   1.092   0.990   0.901  1.0226  0.3527 -0.7310
  284SOL     OW  850   2.355   2.752   2.354 -0.3020 -0.5471  0.8303
  284SOL    HW1  851   2.420   2.824   2.316  3.4233 -0.0882  2.5132
  284SOL    HW2  852   2.318   2.771   2.446 -0.1781 -3.4631 -3.1761
  285SOL     OW  853   1.348   3.052   2.547 -1.3890  0.2334  0.0243
  285SOL    HW1  854   1.330   3.043   2.445 -1.5043  1.1882 -2.4783
  285SOL    HW2  855   1.272   3.091   2.602  2.2349 -2.3108 -0.2561
  286SOL     OW  856   0.463   0.412   0.761  0.0853 -0.1197 -0.1856
  286SOL    HW1  857   0.406   0.369   0.842 -1.2077  0.5057 -0.7101
  286SOL    HW2  858   0.479   0.348   0.677  0.4123 -0.0207  0.2224
  287SOL     OW  859   0.121   1.320   2.538 -0.1405 -0.1488  0.1877
  287SOL    HW1  860   0.058   1.249   2.580  0.9569 -1.4162  0.1181
  287SOL    HW2  861   0.082   1.415   2.556  0.8617 -3.4469 -1.1933
  288SOL     OW  862   1.561   2.673   1.582 -0.0258  0.1340 -0.4033
  288SOL    HW1  863   1.546   2.659   1.677  0.9253 -0.6608 -4.0169
  288SOL    HW2  864   1.660   2.651   1.553  2.5619  1.7182  0.0386
  289SOL     OW  865   0.584   2.741   0.804 -0.8411 -0.1618 -0.2792
  289SOL    HW1  866   0.666   2.794   0.760 -2.6693 -1.1753 -1.3431
  289SOL    HW2  867   0.576   2.757   0.906  0.4639  1.3836  1.9273
  290SOL     OW  868   2.827   1.087   1.714 -0.0601  0.4250 -0.1439
  290SOL    HW1  869   2.745   1.046   1.666  2.8133 -2.2194 -1.7844
  290SOL    HW2  870   2.859   1.025   1.786 -0.5196  1.6121  0.5528
  291SOL     OW  871   1.958   0.084   0.070  0.1689  0.1305  0.5015
  291SOL    HW1  872   1.973   0.036   0.163  0.1375 -2.7440  1.5777
  291SOL    HW2  873   2.006   0.174   0.054 -2.4327  2.7766  0.1749
  292SOL     OW  874   2.976   1.196   3.082 -0.0848 -0.7219  0.1634
  292SOL    HW1  875   2.889   1.233   3.032 -0.0849  0.3637 -1.1789
  292SOL    HW2  876   3.064   1.220   3.029 -1.1379 -0.3130 -1.2847
  293SOL     OW  877   0.566   2.124   0.150  0.5106  0.3469 -0.3993
  293SOL    HW1  878   0.526   2.186   0.226  1.1684 -0.5587  2.3739
  293SOL    HW2  879   0.664   2.110   0.160  0.6958 -0.1541 -3.1163
  294SOL     OW  880   1.756   2.245   1.756  0.0138 -0.1005 -0.0041
  294SOL    HW1  881   1.809   2.312   1.813  2.0508  0.2291 -1.8286
  294SOL    HW2  882   1.707   2.278   1.665  0.9090 -1.4440 -0.5805
  295SOL     OW  883   1.017   1.036   0.519 -0.2672 -0.5835  0.4045
  295SOL    HW1  884   1.087   1.019   0.588 -5.1903  1.7905 -0.0559
  295SOL    HW2  885   0.921   1.046   0.558 -2.1208  0.9343 -1.4697
  296SOL     OW  886   1.261   2.114   2.523 -0.4858  0.0963  0.0448
  296SOL    HW1  887   1.257   2.134   2.423  2.4493 -0.4831 -1.1636
  296SOL    HW2  888   1.284   2.015   2.547 -1.7179  2.2907 -0.3394
  297SOL     OW  889   1.457   0.595   1.388 -0.5453  0.3450 -0.5811
  297SOL    HW1  890   1.421   0.499   1.381 -0.4575  2.5586 -1.1191
  297SOL    HW2  891   1.549   0.608   1.440 -0.2555  1.5991  0.6233
  298SOL     OW  892   0.487   1.377   2.960 -0.4140  0.8955  0.3941
  298SOL    HW1  893   0.458   1.298   3.025 -2.2391  1.3106 -0.6001
  298SOL    HW2  894   0.536   1.356   2.873  0.6191  0.3088 -0.8065
  299SOL     OW  895   0.509   0.242   1.374  0.2392 -0.0494 -0.0630
  299SOL    HW1  896   0.479   0.340   1.351 -1.5286 -2.9068 -1.3450
  299SOL    HW2  897   0.587   0.249   1.441  0.1161  0.3034 -0.2575
  300SOL     OW  898   1.205   1.833   2.843 -0.2697 -0.1516 -0.6977
  300SOL    HW1  899   1.196   1.737   2.865  0.3425  1.9184  2.2841
  300SOL    HW2  900   1.292   1.870   2.882 -2.7156  2.1516 -0.9430
  301SOL     OW  901   0.480   0.274   0.526  0.1002  0.5208  0.5362
  301SOL    HW1  902   0.379   0.280   0.505  0.8894  1.5707 -3.2710
  301SOL    HW2  903   0.532   0.214   0.457 -1.7323  1.0316 -2.5267
  302SOL     OW  904   1.214   2.386   2.307 -0.3323 -0.4348  0.3416
  302SOL    HW1  905   1.128   2.424   2.359 -1.7437 -1.8226  2.1250
  302SOL    HW2  906   1.203   2.287   2.293  0.9081 -0.0325  1.3455
  303SOL     OW  907   0.968   2.334   0.830 -0.2368  0.0011 -0.1928
  303SOL    HW1  908   1.026   2.363   0.751  2.0167 -2.3654 -1.0070
  303SOL    HW2  909   0.972   2.408   0.902  0.6074 -0.7447  1.1573
  304SOL     OW  910   0.147   2.034   0.640 -0.0898  0.0329 -0.4439
  304SOL    HW1  911   0.179   1.973   0.565 -2.7040 -1.8223  2.3889
  304SOL    HW2  912   0.081   2.106   0.601 -2.3473 -1.2012  1.9949
  305SOL     OW  913   1.640   0.927   0.576  0.2733 -0.0107 -0.1719
  305SOL    HW1  914   1.581   0.908   0.492  1.4959 -1.6630  0.2938
  305SOL    HW2  915   1.676   0.838   0.609  1.8271  0.9723  0.9785
  306SOL     OW  916   0.440   1.880   1.932 -0.0078  0.0758  0.2696
  306SOL    HW1  917   0.492   1.805   1.887  1.8197  0.3026  0.5586
  306SOL    HW2  918   0.450   1.873   2.036  1.6411  1.1235  2.4001
  307SOL     OW  919   3.080   0.914   2.521  0.4083  0.2898 -0.2271
  307SOL    HW1  920   3.078   0.990   2.595 -1.3513 -1.0190 -1.0776
  307SOL    HW2  921   3.003   0.847   2.545  0.8091 -0.0359  0.4809
  308SOL     OW  922   1.550   2.675   2.844  0.0738  0.1553 -0.0362
  308SOL    HW1  923   1.541   2.598   2.773  0.0216 -0.9039 -0.6689
  308SOL    HW2  924   1.508   2.647   2.934  1.9397  0.8616 -3.1915
  309SOL     OW  925   1.215   0.067   1.764 -0.0360  0.0321 -0.1404
  309SOL    HW1  926   1.319   0.068   1.771 -0.8333  0.2333  0.8933
  309SOL    HW2  927   1.181   0.089   1.668 -2.3292 -0.5306  2.1128
  310SOL     OW  928   1.504   2.547   0.660 -0.3143 -0.4556 -0.4283
  310SOL    HW1  929   1.448   2.572   0.743  2.0345  0.4683 -0.6029
  310SOL    HW2  930   1.552   2.627   0.621 -0.7055 -3.4710 -0.4485
  311SOL     OW  931   1.161   0.945   1.583 -0.1635  0.2594  0.2984
  311SOL    HW1  932   1.225   0.871   1.607 -0.4889 -2.3798 -2.5689
  311SOL    HW2  933   1.207   1.013   1.520 -1.2284  0.2647  0.4083
  312SOL     OW  934   1.636   0.670   0.974 -0.0962  0.2199 -0.0020
  312SOL    HW1  935   1.615   0.765   0.936  0.9246 -0.6313  2.0443
  312SOL    HW2  936   1.552   0.623   1.007  1.5636  3.1745  0.8787
  313SOL     OW  937   1.591   1.398   0.697 -0.1572  0.1897  0.2768
  313SOL    HW1  938   1.512   1.450   0.731 -1.2520  0.4638  0.2988
  313SOL    HW2  939   1.552   1.318   0.639 -0.1115  0.0607 -0.8523
  314SOL     OW  940   2.965   0.027   3.038 -0.2563  0.4525 -0.4903
  314SOL    HW1  941   2.951   0.041   3.140 -0.3585 -2.4453 -0.0178
  314SOL    HW2  942   2.882  -0.022   2.995  1.3680  0.0496  0.7723
  315SOL     OW  943   1.216   0.202   2.807  0.5256  0.4206  0.4381
  315SOL    HW1  944   1.173   0.127   2.749 -0.2495 -1.0723 -0.8868
  315SOL    HW2  945   1.241   0.173   2.902 -2.0970  1.3127 -2.0260
  316SOL     OW  946   1.708   2.072   0.855  0.0451 -0.6925 -0.6658
  316SOL    HW1  947   1.653   2.054   0.944 -0.1180 -1.5802  1.8085
  316SOL    HW2  948   1.690   2.169   0.816  2.0213 -0.0800 -0.2476
  317SOL     OW  949   1.126   0.684   2.888  0.0872 -0.5019 -0.0058
  317SOL    HW1  950   1.071   0.738   2.964 -0.1584  1.6836 -0.1551
  317SOL    HW2  951   1.080   0.599   2.852 -0.5475 -0.5753 -1.9280
  318SOL     OW  952   1.327   3.065   2.263  0.1966  0.1049  0.6484
  318SOL    HW1  953   1.346   3.159   2.229  0.9654  1.7745 -0.4411
  318SOL    HW2  954   1.369   3.000   2.193  0.9384 -0.5591  0.1477
  319SOL     OW  955   0.671   2.462   2.944  0.8161  0.4210 -0.3629
  319SOL    HW1  956   0.591   2.426   3.001  1.4106  0.3389 -0.1479
  319SOL    HW2  957   0.763   2.423   2.965  2.2015  0.5524 -0.6736
  320SOL     OW  958   1.705   2.204   0.372 -0.1221  0.1102  0.2975
  320SOL    HW1  959   1.792   2.143   0.364  1.1872  0.2542  2.5889
  320SOL    HW2  960   1.627   2.156   0.412  1.2068  1.1333  2.1309
  321SOL     OW  961   1.677   2.692   0.480  0.0177  1.2337 -0.4127
  321SOL    HW1  962   1.595   2.753   0.461  1.6331 -0.7817  0.5165
  321SOL    HW2  963   1.765   2.739   0.453 -0.1342 -1.1911  0.8857
  322SOL     OW  964   2.550   1.137   2.395  0.4546  0.3611  0.7924
  322SOL    HW1  965   2.646   1.173   2.403 -0.4187  1.1527  6.5737
  322SOL    HW2  966   2.546   1.035   2.388 -0.5493  1.8002 -0.1257
  323SOL     OW  967   1.137   2.634   0.838  0.0015 -0.5134 -0.2886
  323SOL    HW1  968   1.145   2.581   0.747 -0.6733  0.3105 -0.2247
  323SOL    HW2  969   1.121   2.737   0.822 -1.6791 -0.5626  0.2279
  324SOL     OW  970   0.249   2.538   2.530 -0.1430 -0.0180  0.0523
  324SOL    HW1  971   0.286   2.464   2.597  1.6976 -0.1399  0.8668
  324SOL    HW2  972   0.158   2.579   2.569 -1.5034 -4.5962  0.3611
  325SOL     OW  973   1.254   3.033   0.473  0.5471  0.0020  0.2292
  325SOL    HW1  974   1.254   3.072   0.375  0.7714  1.1431  0.2416
  325SOL    HW2  975   1.307   3.098   0.536  0.7101  0.0773 -1.3943
  326SOL     OW  976   2.432   0.775   3.089 -0.2251  0.0745  0.2337
  326SOL    HW1  977   2.381   0.719   3.016  1.2144 -0.4176 -0.5206
  326SOL    HW2  978   2.503   0.717   3.139 -0.4482 -0.1058 -0.8343
  327SOL     OW  979   2.846   0.367   0.607 -0.4296  0.2010  0.9867
  327SOL    HW1  980   2.813   0.375   0.507 -0.2786  1.6361 -0.5895
  327SOL    HW2  981   2.810   0.286   0.656 -0.2438  1.0356  0.6298
  328SOL     OW  982   2.537   0.587   0.389  0.2372 -0.1180  0.1299
  328SOL    HW1  983   2.504   0.673   0.442 -2.3316  3.4972 -0.5397
  328SOL    HW2  984   2.555   0.502   0.448  1.9849 -2.4684 -1.5014
  329SOL     OW  985   2.976   2.981   2.146  0.0747 -0.4531  0.4163
  329SOL    HW1  986   3.035   2.907   2.193  1.9892 -0.8331  1.8201
  329SOL    HW2  987   3.035   3.057   2.103 -1.9967  1.8790  0.8438
  330SOL     OW  988   0.578   0.151   1.855 -0.4815  0.1670 -0.0232
  330SOL    HW1  989   0.674   0.155   1.814  1.6723 -1.0884  2.7236
  330SOL    HW2  990   0.565   0.081   1.933  0.9329  1.4236  1.0049
  331SOL     OW  991   2.962   1.925   1.170  0.5458 -0.2780 -0.0236
  331SOL    HW1  992   2.975   2.015   1.121 -1.7768 -1.5715 -1.8488
  331SOL    HW2  993   2.899   1.946   1.254 -0.9748 -0.1779 -2.1754
  332SOL     OW  994   0.448   1.140   0.016 -0.0641  0.0326  0.5757
  332SOL    HW1  995   0.377   1.067  -0.006 -0.6326 -0.6413  1.1098
  332SOL    HW2  996   0.420   1.187   0.105  1.2720  1.8138 -0.8909
  333SOL     OW  997   2.898   1.065   0.285  0.2553  0.0870  0.4778
  333SOL    HW1  998   2.903   1.149   0.347  1.8059 -1.6368  1.0228
  333SOL    HW2  999   2.987   1.013   0.271  0.2023 -2.4256 -0.3993
  334SOL     OW 1000   1.714   1.240   1.826  0.6182 -0.5055 -0.1005
  334SOL    HW1 1001   1.812   1.211   1.806  0.3339 -0.6205 -2.0678
  334SOL    HW2 1002   1.710   1.285   1.922  1.3686  2.4841  1.0054
  335SOL     OW 1003   1.952   2.774   2.604  0.2506  0.4065 -0.0746
  335SOL    HW1 1004   1.878   2.715   2.644  2.2584  1.0465 -1.3694
  335SOL    HW2 1005   1.990   2.843   2.669 -0.4436 -2.4422 -0.4323
  336SOL     OW 1006   0.266   0.101   2.819  0.3945  0.3687 -0.3020
  336SOL    HW1 1007   0.334   0.078   2.887 -1.8855  1.6644 -0.7415
  336SOL    HW2 1008   0.212   0.185   2.844 -0.7331 -0.4789 -1.8333
  337SOL     OW 1009   0.934   2.775   2.815 -0.1952 -0.1997  0.2367
  337SOL    HW1 1010   0.933   2.730   2.908  0.8143  0.4025  0.8362
  337SOL    HW2 1011   1.033   2.773   2.781  0.3798 -1.0659 -0.2653
  338SOL     OW 1012   0.026   1.037   0.651 -0.5204  0.7440 -0.1966
  338SOL    HW1 1013  -0.074   1.027   0.682  1.9387 -2.1246  0.1195
  338SOL    HW2 1014   0.047   1.136   0.628  0.5625 -0.0365 -0.9660
  339SOL     OW 1015   1.708   1.353   2.086 -0.1411 -0.3514  0.0568
  339SOL    HW1 1016   1.607   1.361   2.112  0.3954  0.5885 -1.3621
  339SOL    HW2 1017   1.763   1.443   2.087  1.2494  1.3980  0.5467
  340SOL     OW 1018   2.338   0.721   1.191 -0.2997  0.4753 -0.4317
  340SOL    HW1 1019   2.245   0.755   1.173  0.8332  2.9663 -0.2850
  340SOL    HW2 1020   2.359   0.631   1.141 -0.0880  2.2239 -1.1583
  341SOL     OW 1021   1.943   2.084   0.344 -0.0475 -0.2123 -0.4030
  341SOL    HW1 1022   1.930   2.153   0.267 -0.5890 -0.8555 -0.5918
  341SOL    HW2 1023   2.032   2.093   0.394 -1.6205 -0.6568  1.6521
  342SOL     OW 1024   2.226   2.090   2.720  0.2497 -0.1385 -0.0695
  342SOL    HW1 1025   2.278   2.002   2.734 -0.9369  0.8836 -0.0831
  342SOL    HW2 1026   2.122   2.082   2.720  0.0024  2.0250  0.8706
  343SOL     OW 1027   0.403   0.875   2.787 -0.3591  0.4780  0.4513
  343SOL    HW1 1028   0.413   0.872   2.682 -0.6773  1.7755  1.8343
  343SOL    HW2 1029   0.493   0.864   2.830 -2.9239  0.1018 -2.0908
  344SOL     OW 1030   1.959   1.391   0.380 -0.1894  0.1733 -0.0568
  344SOL    HW1 1031   1.953   1.323   0.301  0.0213 -0.6654  0.2241
  344SOL    HW2 1032   1.870   1.422   0.419  1.7857  2.5931  0.6654
  345SOL     OW 1033   1.414   2.285   2.876 -0.0672 -0.3591  0.4718
  345SOL    HW1 1034   1.318   2.244   2.853 -0.1004 -1.1798 -0.6036
  345SOL    HW2 1035   1.493   2.244   2.820  1.8899  0.4219  0.6973
  346SOL     OW 1036   2.369   0.920   1.392  0.6411 -0.0430 -0.2107
  346SOL    HW1 1037   2.335   1.019   1.370 -1.2746  0.5639  0.7563
  346SOL    HW2 1038   2.339   0.845   1.326 -1.2531 -0.9296  0.3036
  347SOL     OW 1039   0.736   2.779   1.457  0.3678  0.0092  0.1756
  347SOL    HW1 1040   0.721   2.722   1.543  1.7795  1.1652  0.7997
  347SOL    HW2 1041   0.669   2.857   1.447  2.2936 -1.6059  1.7156
  348SOL     OW 1042   0.164   0.658   2.843  0.4927  0.3102 -0.0353
  348SOL    HW1 1043   0.062   0.672   2.808 -2.7263  1.8097  0.1718
  348SOL    HW2 1044   0.226   0.741   2.840  0.3102 -4.7344  0.5759
  349SOL     OW 1045   1.838   0.431   2.782  0.2662  0.1837 -0.4157
  349SOL    HW1 1046   1.840   0.521   2.726  2.5322  0.2693 -0.7658
  349SOL    HW2 1047   1.839   0.455   2.883 -0.1080  2.9008 -1.1889
  350SOL     OW 1048   1.588   0.424   0.372  1.0420 -0.3689 -0.1956
  350SOL    HW1 1049   1.626   0.451   0.468  0.8597  0.4467  1.0139
  350SOL    HW2 1050   1.564   0.500   0.303 -0.3618  0.3168 -1.3460
  351SOL     OW 1051   0.984   0.855   2.136  0.1783  0.4556  0.5503
  351SOL    HW1 1052   0.967   0.950   2.108 -1.6358 -0.8596  1.8294
  351SOL    HW2 1053   1.026   0.803   2.055 -0.8855 -1.9078  1.4602
  352SOL     OW 1054   2.056   1.297   0.641  0.0375  0.4393 -0.8456
  352SOL    HW1 1055   2.013   1.353   0.570 -1.2167  1.1267 -1.4493
  352SOL    HW2 1056   2.160   1.317   0.654  1.8900  2.1484  0.6180
  353SOL     OW 1057   2.181   2.893   1.060  0.0078 -0.2518 -0.4937
  353SOL    HW1 1058   2.200   2.812   1.121 -0.4223 -0.1997 -2.6977
  353SOL    HW2 1059   2.095   2.876   1.007 -0.7805 -0.6863  1.0299
  354SOL     OW 1060   0.250   1.394   2.839  0.5587  0.1171 -0.2005
  354SOL    HW1 1061   0.250   1.471   2.771 -0.5248  2.4026 -0.5932
  354SOL    HW2 1062   0.348   1.372   2.879  1.2346  0.1189  2.6215
  355SOL     OW 1063   0.490   1.492   0.499 -0.3409  0.5405 -0.1732
  355SOL    HW1 1064   0.487   1.562   0.574  0.4685 -1.1242  1.7094
  355SOL    HW2 1065   0.550   1.409   0.521 -0.7458 -0.2574 -0.3915
  356SOL     OW 1066   0.874   0.253   2.066 -0.8922 -0.1300 -0.3763
  356SOL    HW1 1067   0.971   0.256   2.037 -2.0362 -1.1539  1.3740
  356SOL    HW2 1068   0.802   0.203   2.006 -0.7668  0.3086 -1.4246
  357SOL     OW 1069   0.973   1.282   0.395 -0.4668  0.9530 -0.1672
  357SOL    HW1 1070   0.975   1.238   0.301  2.4334  0.4867  0.5846
  357SOL    HW2 1071   1.007   1.220   0.471 -2.3530  0.0534 -0.7108
  358SOL     OW 1072   1.708   1.505   0.473 -0.0367 -0.4802 -0.2823
  358SOL    HW1 1073   1.661   1.453   0.550  1.5406  0.8260 -0.0886
  358SOL    HW2 1074   1.653   1.515   0.386 -1.0433  0.1230  0.4715
  359SOL     OW 1075   1.592   2.732   0.100 -0.0176 -0.1681  0.4198
  359SOL    HW1 1076   1.536   2.647   0.113 -0.1264 -2.8768  0.2176
  359SOL    HW2 1077   1.534   2.816   0.122 -1.2318 -3.1199 -0.5849
  360SOL     OW 1078   0.888   0.593   0.581 -0.0701 -0.6896  0.3611
  360SOL    HW1 1079   0.784   0.615   0.581  0.3575  0.0723  0.9576
  360SOL    HW2 1080   0.907   0.490   0.591  1.0847 -0.2053 -2.0135
  361SOL     OW 1081   1.197   1.359   0.727  0.2023 -0.1831  0.6980
  361SOL    HW1 1082   1.225   1.400   0.814 -0.9330 -3.5738  1.0551
  361SOL    HW2 1083   1.109   1.402   0.689  0.1142 -0.9843 -0.0753
  362SOL     OW 1084   1.343   1.864   0.806  0.0696  0.3423  0.0654
  362SOL    HW1 1085   1.368   1.805   0.891  0.4399  0.5511  0.2007
  362SOL    HW2 1086   1.427   1.892   0.753  1.3338  0.7530  0.0963
  363SOL     OW 1087   1.211   1.302   2.017 -0.2972 -0.2138 -0.3288
  363SOL    HW1 1088   1.295   1.339   2.064 -0.9291 -2.1843  1.4939
  363SOL    HW2 1089   1.178   1.367   1.943  0.2705  4.2552  1.1497
  364SOL     OW 1090   0.495   2.306   1.953 -0.1612 -0.1330  0.0212
  364SOL    HW1 1091   0.405   2.350   1.982 -1.8022  2.5648 -0.1324
  364SOL    HW2 1092   0.556   2.372   1.898  1.5316 -0.8176  1.0185
  365SOL     OW 1093   0.999   1.860   1.439 -0.4072  0.0692  0.1661
  365SOL    HW1 1094   0.905   1.870   1.393 -0.4302  0.4771  0.8832
  365SOL    HW2 1095   1.032   1.764   1.433 -0.8105  0.3830  0.9331
  366SOL     OW 1096   2.747   2.070   0.466 -0.2143  0.1684 -0.5243
  366SOL    HW1 1097   2.651   2.043   0.447 -0.7617  2.5240 -1.8286
  366SOL    HW2 1098   2.819   2.000   0.430 -1.7405  0.7380 -3.0116
  367SOL     OW 1099   0.919   1.133   0.173  0.0335 -0.0242 -0.6648
  367SOL    HW1 1100   0.886   1.035   0.185 -1.3038 -0.8136 -0.8560
  367SOL    HW2 1101   0.953   1.149   0.076  0.3112 -2.9991 -1.3347
  368SOL     OW 1102   1.466   0.562   0.691 -0.3342 -0.3811  0.0643
  368SOL    HW1 1103   1.417   0.599   0.606 -3.3296 -0.2733 -1.2648
  368SOL    HW2 1104   1.540   0.629   0.715 -1.7174 -0.7278  0.9803
  369SOL     OW 1105   0.206   1.715   0.045  0.3260 -0.1813  0.1448
  369SOL    HW1 1106   0.260   1.782   0.107 -1.2108  1.8733 -1.5181
  369SOL    HW2 1107   0.122   1.678   0.089  0.7610  0.6359 -0.1709
  370SOL     OW 1108   0.450   2.076   1.034  0.3880 -0.0102 -0.1286
  370SOL    HW1 1109   0.450   2.181   1.030  1.2166  0.5042 -0.8340
  370SOL    HW2 1110   0.364   2.038   0.992 -0.2159 -0.7549  0.4279
  371SOL     OW 1111   2.890   2.181   2.686  0.5388  0.1483 -0.6210
  371SOL    HW1 1112   2.836   2.149   2.767  1.2606 -2.8706  0.0095
  371SOL    HW2 1113   2.982   2.221   2.706 -2.5628 -1.8619 -0.2368
  372SOL     OW 1114   1.105   1.985   1.122  0.8678 -0.3651  0.6383
  372SOL    HW1 1115   1.013   2.011   1.084 -2.7935 -0.5049 -0.3848
  372SOL    HW2 1116   1.165   2.064   1.146  1.2385  1.0392  1.2764
  373SOL     OW 1117   1.992   2.033   0.856 -0.2266 -0.3662  0.0025
  373SOL    HW1 1118   2.042   2.054   0.943 -0.6809 -0.4920 -1.4831
  373SOL    HW2 1119   1.894   2.061   0.850  0.3975 -2.7565  1.6086
  374SOL     OW 1120   1.755   0.477   0.573  0.4599  0.3199 -0.0588
  374SOL    HW1 1121   1.795   0.444   0.666  0.4841 -3.8776  0.9476
  374SOL    HW2 1122   1.834   0.483   0.503 -5.2940 -1.1573 -0.1111
  375SOL     OW 1123   2.399   2.183   1.110  0.5457  0.4248  0.3446
  375SOL    HW1 1124   2.478   2.174   1.042 -0.1836  0.5851  0.6033
  375SOL    HW2 1125   2.439   2.185   1.205  2.5627 -1.0185 -1.3663
  376SOL     OW 1126   3.019   0.582   1.460  0.1343 -0.2647  0.5383
  376SOL    HW1 1127   3.092   0.641   1.506  1.0121  0.4916 -0.3925
  376SOL    HW2 1128   2.928   0.634   1.462 -0.2612  0.2586  2.1369
  377SOL     OW 1129   2.245   2.855   0.351 -0.2261 -0.8743  0.0763
  377SOL    HW1 1130   2.247   2.948   0.401 -1.4616  0.3980  0.6478
  377SOL    HW2 1131   2.345   2.824   0.342 -1.3229 -0.5169  3.8794
  378SOL     OW 1132   1.838   1.798   2.665  0.2870 -0.1547 -0.6933
  378SOL    HW1 1133   1.749   1.811   2.614  0.8489  0.5816  2.5377
  378SOL    HW2 1134   1.853   1.698   2.704 -0.2568  1.3624  0.7560
  379SOL     OW 1135   0.871   0.122   2.750 -0.6498 -0.1905  0.0313
  379SOL    HW1 1136   0.821   0.041   2.719 -0.4478 -0.3532 -0.1697
  379SOL    HW2 1137   0.863   0.203   2.685  2.0692  1.0592 -0.5672
  380SOL     OW 1138   1.516   1.180   0.562  0.0085 -0.3275  0.2294
  380SOL    HW1 1139   1.420   1.180   0.602  2.2639 -1.3359 -2.7078
  380SOL    HW2 1140   1.567   1.087   0.585 -0.7070 -2.0895  0.0873
  381SOL     OW 1141   1.337   1.162   1.464 -0.2676  0.4813  0.1503
  381SOL    HW1 1142   1.375   1.171   1.366  0.1322 -0.3945 -1.6721
  381SOL    HW2 1143   1.414   1.145   1.534 -0.3502  1.3704  0.3024
  382SOL     OW 1144   1.799   0.863   0.205 -0.7524  0.8375  0.2504
  382SOL    HW1 1145   1.853   0.831   0.123  2.1855  0.7717 -1.0640
  382SOL    HW2 1146   1.849   0.855   0.296  0.9693 -1.3209  0.5003
  383SOL     OW 1147   2.641   1.039   1.482 -0.0201  0.2484 -0.6650
  383SOL    HW1 1148   2.545   1.020   1.444  0.4803  0.0597  3.1267
  383SOL    HW2 1149   2.714   0.993   1.424  1.1622 -0.6959 -3.1197
  384SOL     OW 1150   0.939   2.280   0.133  0.3727  0.1675  0.2636
  384SOL    HW1 1151   0.897   2.360   0.180 -1.7383  0.9564 -2.0007
  384SOL    HW2 1152   0.891   2.193   0.168  0.0859  0.4144 -2.1241
  385SOL     OW 1153   3.001   2.028   1.753 -0.2233  0.0798 -0.2440
  385SOL    HW1 1154   3.068   2.103   1.730  3.4029 -2.3991 -1.3253
  385SOL    HW2 1155   3.033   1.931   1.740  0.2142  2.4685 -1.7148
  386SOL     OW 1156   0.460   1.144   0.452  0.1201 -0.3920 -0.1923
  386SOL    HW1 1157   0.497   1.048   0.466 -1.8796  2.2077 -0.0262
  386SOL    HW2 1158   0.391   1.145   0.371  0.1607 -1.5012 -2.6716
  387SOL     OW 1159   1.001   0.361   1.654  0.1560  0.1158 -0.8982
  387SOL    HW1 1160   1.070   0.445   1.648  0.2242  0.7790 -2.8435
  387SOL    HW2 1161   0.996   0.314   1.564 -0.7072  0.2470  1.5782
  388SOL     OW 1162   1.211   2.648   1.771 -0.2858  0.2848 -0.2702
  388SOL    HW1 1163   1.240   2.624   1.672  0.7038 -0.2360 -0.1251
  388SOL    HW2 1164   1.271   2.593   1.831 -1.8946  2.6758 -0.1772
  389SOL     OW 1165   0.200   3.058   1.130  0.2253  0.0606  0.2919
  389SOL    HW1 1166   0.126   3.058   1.201 -0.7355  0.2075  2.2818
  389SOL    HW2 1167   0.265   2.977   1.130  0.9544  1.7232 -0.8630
  390SOL     OW 1168   1.052   0.947   1.253  0.0134  0.2533  1.0340
  390SOL    HW1 1169   1.139   0.905   1.291  0.3898  1.4983  1.0830
  390SOL    HW2 1170   1.001   0.994   1.327  1.1472  0.5544  0.4913
  391SOL     OW 1171   2.058   1.176   0.991  1.2730  0.5842 -0.4734
  391SOL    HW1 1172   1.981   1.107   1.021  0.1408 -2.9467 -0.2217
  391SOL    HW2 1173   2.135   1.120   0.957 -2.6243 -0.1510 -0.0002
  392SOL     OW 1174   0.904   2.650   3.072 -0.5099  0.0669  0.5035
  392SOL    HW1 1175   0.814   2.647   3.119  1.9095  4.1222 -1.8681
  392SOL    HW2 1176   0.984   2.674   3.132 -1.2817 -1.3091 -0.9421
  393SOL     OW 1177   0.423   0.485   2.080 -0.5555 -0.6156 -0.3481
  393SOL    HW1 1178   0.360   0.411   2.048 -1.6447  1.1772 -0.4069
  393SOL    HW2 1179   0.497   0.487   2.007 -1.1503  0.0540  0.7747
  394SOL     OW 1180   2.987   1.791   2.766  0.4465 -0.6435 -0.3415
  394SOL    HW1 1181   3.050   1.834   2.837  1.9103 -1.0611  0.7565
  394SOL    HW2 1182   3.015   1.807   2.665  0.1120 -1.8796  1.2135
  395SOL     OW 1183   1.568   1.927   0.678 -0.2669  0.3135 -0.1939
  395SOL    HW1 1184   1.614   1.845   0.630  4.8298  0.2244  1.2702
  395SOL    HW2 1185   1.631   1.978   0.745  0.9831 -0.1713 -0.2513
  396SOL     OW 1186   2.775   1.977   1.341 -0.3765 -0.2231  0.0611
  396SOL    HW1 1187   2.764   2.019   1.436 -0.4556  0.2059  0.4782
  396SOL    HW2 1188   2.683   1.954   1.299  2.4011 -1.6253 -0.6751
  397SOL     OW 1189   1.030   2.103   0.622  0.2695  0.3631  0.0926
  397SOL    HW1 1190   0.954   2.039   0.593 -1.0841 -0.0354 -0.5971
  397SOL    HW2 1191   1.002   2.178   0.687 -0.4205 -1.1825 -3.7943
  398SOL     OW 1192   2.240   0.040   0.998  0.0862 -0.6212 -0.6972
  398SOL    HW1 1193   2.221  -0.066   1.016  1.1168  0.9489  0.3048
  398SOL    HW2 1194   2.166   0.096   1.044 -0.7678 -1.0273  0.1321
  399SOL     OW 1195   2.857   2.562   2.762 -0.0839 -0.2856  0.5186
  399SOL    HW1 1196   2.804   2.526   2.688  0.9633 -1.2740  3.6553
  399SOL    HW2 1197   2.821   2.527   2.855  0.2418 -0.5814  1.1545
  400SOL     OW 1198   0.754   1.579   1.273 -0.0905 -0.7783 -0.1112
  400SOL    HW1 1199   0.718   1.624   1.361 -1.5471  0.5880  1.0297
  400SOL    HW2 1200   0.728   1.641   1.191  0.3083 -0.2027  1.4172
  401SOL     OW 1201   1.845   0.169   1.298 -0.0313  0.0028  0.0485
  401SOL    HW1 1202   1.891   0.198   1.387 -1.1766 -2.1722  0.7426
  401SOL    HW2 1203   1.740   0.155   1.317 -0.7321  0.1570  0.2308
  402SOL     OW 1204   1.335   0.156   3.083  0.1230 -0.3992  0.2569
  402SOL    HW1 1205   1.417   0.151   3.025 -2.5508  0.5768 -1.0436
  402SOL    HW2 1206   1.322   0.252   3.121 -0.9103  1.3662 -2.0701
  403SOL     OW 1207   2.301   1.849   0.912 -0.0475  0.0640 -0.0516
  403SOL    HW1 1208   2.406   1.843   0.923  2.2917 -1.9314  0.3760
  403SOL    HW2 1209   2.256   1.912   0.982 -0.6551  1.6677 -2.4160
  404SOL     OW 1210   0.202   2.481   2.871 -0.0612 -0.3988  0.4497
  404SOL    HW1 1211   0.300   2.455   2.834  2.8045 -0.5844 -0.2483
  404SOL    HW2 1212   0.180   2.583   2.867  0.3226  1.4805 -0.9463
  405SOL     OW 1213   0.215   2.520   0.592 -1.5560  0.2006  0.7025
  405SOL    HW1 1214   0.161   2.520   0.503  0.8714  1.8917 -1.5070
  405SOL    HW2 1215   0.282   2.596   0.595 -0.0252 -0.5616 -1.8298
  406SOL     OW 1216   0.045   1.489   3.014  0.5816 -0.2966 -0.2092
  406SOL    HW1 1217   0.140   1.477   2.978 -1.6544 -1.4558 -1.0848
  406SOL    HW2 1218   0.031   1.501   3.110  1.8065 -1.8895 -1.0297
  407SOL     OW 1219   1.553   0.929   0.893  0.4773  0.0235 -0.0113
  407SOL    HW1 1220   1.541   0.934   0.788 -2.8550 -0.2191  0.2878
  407SOL    HW2 1221   1.490   0.989   0.947  0.7878  0.0904 -1.2020
  408SOL     OW 1222   1.589   2.387   1.007  0.1492 -0.8577  0.5449
  408SOL    HW1 1223   1.633   2.391   0.915 -0.7151 -0.9522 -1.0665
  408SOL    HW2 1224   1.643   2.431   1.087 -0.4754 -2.0172 -2.7375
  409SOL     OW 1225   0.537   0.842   0.765 -0.4309  0.6543  0.2705
  409SOL    HW1 1226   0.490   0.853   0.673  0.5742  2.6876 -1.4999
  409SOL    HW2 1227   0.578   0.745   0.777 -3.2056  1.6971  0.1053
  410SOL     OW 1228   1.249   2.007   1.418  0.1699  0.3575 -0.5277
  410SOL    HW1 1229   1.275   2.024   1.512 -2.8445 -0.7363 -2.9210
  410SOL    HW2 1230   1.158   1.963   1.393 -2.2381 -0.1790 -1.3377
  411SOL     OW 1231   2.443   1.815   3.068  0.1615  0.9624  0.1633
  411SOL    HW1 1232   2.379   1.875   3.010 -0.2634 -0.2664  0.5459
  411SOL    HW2 1233   2.516   1.770   3.006  1.1633  1.1451  0.0358
  412SOL     OW 1234   1.473   2.484   2.223  0.3722  0.3644  0.4105
  412SOL    HW1 1235   1.532   2.532   2.299  3.9610  0.6243 -0.6433
  412SOL    HW2 1236   1.391   2.438   2.266  1.1947 -0.4533 -0.4636
  413SOL     OW 1237   0.006   0.272   2.957  0.7838 -0.5698  0.2846
  413SOL    HW1 1238  -0.068   0.205   2.989  0.1973  0.7860 -1.1143
  413SOL    HW2 1239   0.077   0.282   3.028 -0.5563  0.5557  0.4338
  414SOL     OW 1240   1.777   1.461   1.389 -0.4578  0.2426 -0.0374
  414SOL    HW1 1241   1.694   1.511   1.426 -0.1022 -0.3927  0.2501
  414SOL    HW2 1242   1.759   1.400   1.303  0.8062 -2.6857 -1.5951
  415SOL     OW 1243   0.349   2.278   0.631 -0.3267 -0.6739  0.3981
  415SOL    HW1 1244   0.306   2.371   0.624  1.3032  0.3853  1.4590
  415SOL    HW2 1245   0.274   2.204   0.637  0.6205 -1.6417  2.8434
  416SOL     OW 1246   0.346   1.038   1.062 -0.6865 -0.7154  0.1668
  416SOL    HW1 1247   0.296   0.998   0.978 -0.7225  2.6637  0.8306
  416SOL    HW2 1248   0.449   1.038   1.037  1.3776  0.4107 -1.1734
  417SOL     OW 1249   2.117   2.362   1.879 -0.0549 -0.4183 -0.3938
  417SOL    HW1 1250   2.136   2.257   1.883  0.6715 -1.1924  0.9621
  417SOL    HW2 1251   2.061   2.391   1.964  1.9284 -1.0520 -0.2070
  418SOL     OW 1252   1.096   0.500   1.264 -0.3986  0.3074 -0.1692
  418SOL    HW1 1253   1.002   0.498   1.223 -0.9936 -0.9165  1.7365
  418SOL    HW2 1254   1.161   0.416   1.242 -1.3486 -2.1457  2.6884
  419SOL     OW 1255   1.050   0.323   3.038 -0.1755 -0.0739  0.0223
  419SOL    HW1 1256   1.068   0.373   2.952  2.6857 -2.2099 -0.1162
  419SOL    HW2 1257   0.966   0.267   3.028 -1.5104  0.3467  1.5713
  420SOL     OW 1258   0.205   2.253   0.361 -0.1078 -0.2108  0.6766
  420SOL    HW1 1259   0.189   2.221   0.265  2.1903 -0.1109  1.4643
  420SOL    HW2 1260   0.112   2.269   0.406 -2.0614  1.0841 -2.3176
  421SOL     OW 1261   0.314   3.098   0.684  0.1452  0.2639 -0.5614
  421SOL    HW1 1262   0.255   3.015   0.689  0.9234  0.4905 -1.2271
  421SOL    HW2 1263   0.411   3.080   0.668 -3.5863 -1.3363  0.5167
  422SOL     OW 1264   0.987   2.531   1.037  0.3747  0.5911  0.2566
  422SOL    HW1 1265   1.034   2.574   0.956 -2.7805 -0.1968 -1.1492
  422SOL    HW2 1266   1.020   2.553   1.133  0.1641  0.7443 -0.0229
  423SOL     OW 1267   0.066   0.663   1.228  0.6692  0.0787 -0.0466
  423SOL    HW1 1268   0.036   0.628   1.318 -1.9375 -0.6008  1.1641
  423SOL    HW2 1269   0.029   0.755   1.198  2.2212 -2.0977  0.8535
  424SOL     OW 1270   0.990   2.216   2.064  0.4293 -0.3752 -0.3166
  424SOL    HW1 1271   1.004   2.315   2.027 -2.5581  1.4660  0.4174
  424SOL    HW2 1272   0.990   2.210   2.168  0.0711 -0.9366 -1.1889
  425SOL     OW 1273   1.965   1.446   1.010 -0.5266 -0.0270  0.1610
  425SOL    HW1 1274   1.982   1.342   1.006  3.5667 -0.7058 -0.6936
  425SOL    HW2 1275   2.042   1.498   0.960  2.6941 -0.4189 -0.3021
  426SOL     OW 1276   1.520   1.565   1.443  0.2559  0.6212  0.0252
  426SOL    HW1 1277   1.478   1.626   1.371 -1.0385 -1.7808  0.3357
  426SOL    HW2 1278   1.499   1.602   1.539  1.8161 -1.6868  1.7433
  427SOL     OW 1279   1.935   2.391   2.086 -0.5244 -0.3794  0.0430
  427SOL    HW1 1280   1.983   2.353   2.170  0.5129 -2.4228  1.4625
  427SOL    HW2 1281   1.900   2.488   2.102 -0.9803  1.3573  1.8453
  428SOL     OW 1282   0.866   2.923   0.143  0.3763  0.0626  0.4856
  428SOL    HW1 1283   0.893   3.028   0.154  0.6783  1.7817 -0.8912
  428SOL    HW2 1284   0.952   2.865   0.127 -1.3521 -1.4252 -4.2701
  429SOL     OW 1285   1.292   0.064   0.238 -0.0119 -0.0122  0.2097
  429SOL    HW1 1286   1.382   0.091   0.277  1.3448  0.3950 -0.7461
  429SOL    HW2 1287   1.293   0.065   0.134 -1.2923 -0.1651  1.7803
  430SOL     OW 1288   2.742   1.526   0.361 -0.7683 -0.7375  0.4423
  430SOL    HW1 1289   2.743   1.598   0.286 -0.3569  2.4950  0.6514
  430SOL    HW2 1290   2.747   1.567   0.458 -0.0606 -2.3959  0.3412
  431SOL     OW 1291   2.122   1.639   0.888 -0.1768  0.0186 -0.2634
  431SOL    HW1 1292   2.154   1.719   0.944 -1.7326  0.6306 -0.3699
  431SOL    HW2 1293   2.067   1.676   0.807 -0.2099  1.8121  0.4701
  432SOL     OW 1294   2.907   2.277   1.245 -0.3758  0.1691 -0.0705
  432SOL    HW1 1295   2.839   2.204   1.247 -0.9002  4.0032 -3.1098
  432SOL    HW2 1296   2.951   2.307   1.338 -0.5418  1.9776 -3.5637
  433SOL     OW 1297   1.857   0.385   0.812 -0.5089  0.3427  0.1370
  433SOL    HW1 1298   1.786   0.350   0.877  1.9321 -0.5292 -0.1873
  433SOL    HW2 1299   1.940   0.323   0.801 -0.5193  0.6156  2.0173
  434SOL     OW 1300   1.554   0.266   0.728  0.5368  0.2366 -0.5715
  434SOL    HW1 1301   1.516   0.351   0.689 -1.0283 -3.3132  2.1490
  434SOL    HW2 1302   1.586   0.282   0.829 -0.0454 -0.6571  1.6003
  435SOL     OW 1303   1.448   1.405   2.143  0.0625  0.9724 -0.3917
  435SOL    HW1 1304   1.417   1.411   2.247 -1.8060 -1.9721  1.2588
  435SOL    HW2 1305   1.438   1.496   2.098  0.4948  0.9048 -0.0532
  436SOL     OW 1306   1.620   2.688   2.396  0.0302  0.5711 -0.7267
  436SOL    HW1 1307   1.609   2.778   2.443 -0.8717  0.9516 -0.4838
  436SOL    HW2 1308   1.673   2.617   2.454  2.7599  0.1146 -0.3485
  437SOL     OW 1309   1.099   2.906   0.860  0.3216  0.7333 -0.2843
  437SOL    HW1 1310   1.045   2.988   0.828 -0.6028 -0.6747 -3.0959
  437SOL    HW2 1311   1.102   2.894   0.964 -1.6235 -1.2482  1.5886
  438SOL     OW 1312   1.032   2.608   1.322  0.2870  0.0580  0.4902
  438SOL    HW1 1313   1.090   2.633   1.406 -1.0728 -1.1291  3.7333
  438SOL    HW2 1314   1.006   2.510   1.331 -1.6186 -2.6493  1.5213
  439SOL     OW 1315   0.733   1.778   1.080 -0.2952  0.3507  0.4281
  439SOL    HW1 1316   0.758   1.877   1.091 -2.7583  0.2004  1.0699
  439SOL    HW2 1317   0.631   1.766   1.077  1.6359 -1.4860 -0.4942
  440SOL     OW 1318   1.023   2.465   1.965 -0.3042  0.2163 -0.2382
  440SOL    HW1 1319   0.988   2.498   1.871  1.3538 -0.0406 -1.3516
  440SOL    HW2 1320   1.123   2.481   1.980 -0.0660 -0.4611  0.7778
  441SOL     OW 1321   0.430   2.793   1.369 -0.3827 -0.4007 -0.6176
  441SOL    HW1 1322   0.487   2.704   1.385  1.3222  2.0409  0.0670
  441SOL    HW2 1323   0.369   2.796   1.290  3.0432 -0.0512 -0.6430
  442SOL     OW 1324   2.281   0.666   2.623  0.4032 -0.2594  0.3125
  442SOL    HW1 1325   2.275   0.585   2.560  1.9477  0.7601 -0.8210
  442SOL    HW2 1326   2.192   0.719   2.630 -1.2340  1.8733  0.5151
  443SOL     OW 1327   1.221   2.685   2.208 -0.2729  0.2426  0.0390
  443SOL    HW1 1328   1.245   2.601   2.260  3.4767 -0.0629  0.4883
  443SOL    HW2 1329   1.191   2.767   2.272  0.7332  2.9318  1.1798
  444SOL     OW 1330   1.085   1.251   1.502  1.0480  0.6393  0.1347
  444SOL    HW1 1331   1.181   1.222   1.499 -2.0912  0.7053 -1.0455
  444SOL    HW2 1332   1.064   1.331   1.565 -1.5253 -0.5330  0.4410
  445SOL     OW 1333   3.072   2.410   1.881  0.1936 -0.3386 -0.2225
  445SOL    HW1 1334   3.041   2.483   1.814  2.3781  2.3312 -0.7531
  445SOL    HW2 1335   2.994   2.368   1.935 -0.0461  2.7214 -2.2472
  446SOL     OW 1336   0.195   1.902   2.402 -0.1116  0.1178  0.5287
  446SOL    HW1 1337   0.143   1.988   2.407  3.3126 -3.6171 -1.5500
  446SOL    HW2 1338   0.169   1.846   2.318 -0.6510 -1.0711  1.0863
  447SOL     OW 1339   1.239   1.657   1.943 -0.1061  0.0181  0.3253
  447SOL    HW1 1340   1.148   1.709   1.949  1.2069  0.0121  1.7218
  447SOL    HW2 1341   1.311   1.701   2.005 -1.7713 -0.6855  2.5903
  448SOL     OW 1342   0.103   1.406   2.019 -0.5867  0.4524 -0.6402
  448SOL    HW1 1343   0.113   1.484   1.955 -0.4233  0.0219 -0.9445
  448SOL    HW2 1344   0.068   1.437   2.114  1.0923 -1.2466 -0.7932
  449SOL     OW 1345   1.744   2.953   0.891 -0.3441 -0.6002  0.3899
  449SOL    HW1 1346   1.765   2.982   0.985 -0.6007 -0.6565 -1.5130
  449SOL    HW2 1347   1.807   2.876   0.856  0.3959 -2.1719  1.6571
  450SOL     OW 1348   2.295   1.473   0.756  0.2201 -0.2708  0.2390
  450SOL    HW1 1349   2.228   1.538   0.807 -0.0016  1.2602  2.1357
  450SOL    HW2 1350   2.315   1.499   0.655 -2.1332 -2.9113  1.8298
  451SOL     OW 1351   1.357   3.085   1.462 -0.9847  0.3330 -0.4812
  451SOL    HW1 1352   1.263   3.138   1.457 -0.4055 -1.5410 -1.5813
  451SOL    HW2 1353   1.356   3.020   1.542 -1.0214 -2.5254 -1.1403
  452SOL     OW 1354   2.665   2.290   2.258  0.0277 -0.4630  0.3406
  452SOL    HW1 1355   2.617   2.383   2.273 -0.0075  0.4254  1.8759
  452SOL    HW2 1356   2.731   2.269   2.331 -0.6693  2.0057 -0.8399
  453SOL     OW 1357   2.457   2.668   3.085 -0.2824  0.6701  0.2612
  453SOL    HW1 1358   2.377   2.711   3.140  1.6437  0.8940  0.0021
  453SOL    HW2 1359   2.432   2.595   3.014  0.1265  1.1047 -3.5888
  454SOL     OW 1360   0.951   1.138   2.056  0.4098  0.6390 -0.3062
  454SOL    HW1 1361   0.958   1.119   1.952  2.1930  5.1531 -0.5316
  454SOL    HW2 1362   1.030   1.199   2.087 -0.2710 -1.3576 -0.3963
  455SOL     OW 1363   0.655   2.674   2.799  0.6114 -0.7667  0.6846
  455SOL    HW1 1364   0.740   2.723   2.796 -2.2269 -1.6171 -2.1580
  455SOL    HW2 1365   0.646   2.596   2.867 -0.2244  0.9532 -0.0196
  456SOL     OW 1366   0.390   1.885   0.206  0.6284 -0.6002 -0.6617
  456SOL    HW1 1367   0.469   1.835   0.257 -1.4423 -1.4495  1.8973
  456SOL    HW2 1368   0.421   1.982   0.185 -0.5578 -0.9850 -1.5386
  457SOL     OW 1369   0.395   2.719   0.616  0.0565 -0.1322  0.3975
  457SOL    HW1 1370   0.393   2.745   0.518 -0.2033 -1.9010  0.8809
  457SOL    HW2 1371   0.487   2.732   0.664  0.9910  2.6203  2.9451
  458SOL     OW 1372   2.852   0.042   1.159  0.9661 -0.1160  0.3218
  458SOL    HW1 1373   2.941   0.100   1.159  0.6613  0.2053  1.1875
  458SOL    HW2 1374   2.848  -0.030   1.088 -0.0222  0.3281  1.7669
  459SOL     OW 1375   2.138   2.611   0.793 -0.2461  0.1242  0.2254
  459SOL    HW1 1376   2.234   2.629   0.836 -0.9643 -0.6972 -2.2119
  459SOL    HW2 1377   2.141   2.572   0.698 -2.5967  2.7649  0.0783
  460SOL     OW 1378   1.196   2.133   2.809  0.0691  0.3665  0.6493
  460SOL    HW1 1379   1.188   2.155   2.707 -0.8058 -1.3100  1.4639
  460SOL    HW2 1380   1.180   2.032   2.832  0.7454 -0.5578 -2.9173
  461SOL     OW 1381   0.517   2.168   2.674  0.7494  0.9233 -0.1976
  461SOL    HW1 1382   0.456   2.092   2.634 -1.2984 -1.3172  0.8418
  461SOL    HW2 1383   0.542   2.145   2.774  2.0346 -1.0276 -0.7568
  462SOL     OW 1384   0.964   1.095   1.799 -0.7337  0.1858  0.1525
  462SOL    HW1 1385   1.004   1.040   1.721 -1.8850 -0.8169 -0.5690
  462SOL    HW2 1386   0.917   1.181   1.760 -0.8372 -1.7255 -3.2200
  463SOL     OW 1387   0.455   0.860   0.505 -0.4294 -0.1859  0.3765
  463SOL    HW1 1388   0.479   0.761   0.479  2.1092 -0.4397 -1.3019
  463SOL    HW2 1389   0.353   0.877   0.508  2.7444 -0.3943 -0.6525
  464SOL     OW 1390   0.575   2.285   2.224  0.3355 -0.4169 -0.2324
  464SOL    HW1 1391   0.538   2.371   2.275 -0.8053 -3.3356  1.9621
  464SOL    HW2 1392   0.530   2.268   2.131  1.8738 -0.5837  0.4244
  465SOL     OW 1393   0.228   0.926   0.817 -0.4951  0.1629  0.3525
  465SOL    HW1 1394   0.142   0.960   0.766  2.0753 -1.4935  1.4255
  465SOL    HW2 1395   0.236   0.825   0.821 -0.5994  1.8339  0.5741
  466SOL     OW 1396   1.395   1.134   1.016 -0.1069 -0.5586 -0.5914
  466SOL    HW1 1397   1.433   1.215   0.966 -2.9638 -0.3941  0.0346
  466SOL    HW2 1398   1.290   1.139   1.016  0.5869  0.3368 -1.3261
  467SOL     OW 1399   0.622   0.433   2.453 -0.3614  0.0876  0.1765
  467SOL    HW1 1400   0.566   0.519   2.431  1.4377 -0.2612  0.3978
  467SOL    HW2 1401   0.588   0.387   2.535  0.8406  1.5153 -2.3496
  468SOL     OW 1402   0.439   2.264   1.633  0.3966  0.6404 -0.3546
  468SOL    HW1 1403   0.507   2.326   1.681 -1.6378 -0.6480  0.4882
  468SOL    HW2 1404   0.442   2.274   1.528 -3.0038  1.3629 -0.1506
  469SOL     OW 1405   1.483   1.348   1.275  0.2948 -0.1243 -0.7085
  469SOL    HW1 1406   1.561   1.333   1.209 -0.6486 -0.9824  1.9262
  469SOL    HW2 1407   1.494   1.436   1.337 -2.5086  1.8818  1.4757
  470SOL     OW 1408   3.019   1.875   0.746  0.5357 -0.3996  0.2905
  470SOL    HW1 1409   3.092   1.913   0.690  1.1019 -1.1835  1.1288
  470SOL    HW2 1410   3.053   1.833   0.835 -0.2680 -1.9633  2.0350
  471SOL     OW 1411   2.580   1.341   2.159 -0.1350 -0.1294 -0.2410
  471SOL    HW1 1412   2.549   1.273   2.234 -0.8536 -2.9884 -0.2669
  471SOL    HW2 1413   2.663   1.401   2.187  0.2705 -1.0879  0.0863
  472SOL     OW 1414   1.165   2.382   0.031  0.0377 -0.0686  0.1992
  472SOL    HW1 1415   1.240   2.376   0.104 -0.5465  2.6912 -0.2706
  472SOL    HW2 1416   1.069   2.372   0.075 -1.7888 -1.0815 -0.8225
  473SOL     OW 1417   1.063   1.491   1.061  0.4318  0.6154 -0.1640
  473SOL    HW1 1418   0.964   1.503   1.034  2.0861  1.1584  1.6040
  473SOL    HW2 1419   1.082   1.416   1.135  0.0451  2.7001  2.9146
  474SOL     OW 1420   0.644   1.277   0.589  0.2933 -0.6688 -0.7981
  474SOL    HW1 1421   0.558   1.222   0.567  0.9995  0.6245  0.6306
  474SOL    HW2 1422   0.726   1.211   0.611  0.2373 -2.6049 -1.9797
  475SOL     OW 1423   2.824   0.022   0.830  0.3075 -0.3298 -0.4130
  475SOL    HW1 1424   2.901   0.095   0.840 -2.4478  3.4598 -0.8729
  475SOL    HW2 1425   2.728   0.061   0.859 -0.2643  1.9387 -0.9157
  476SOL     OW 1426   0.981   3.002   1.765 -0.1715  0.6722 -0.1071
  476SOL    HW1 1427   1.065   3.062   1.785 -2.0274  2.2077 -1.6169
  476SOL    HW2 1428   0.974   2.980   1.665 -0.8235  0.1250  0.7512
  477SOL     OW 1429   1.472   0.328   2.427 -0.2284  0.1561  0.3839
  477SOL    HW1 1430   1.454   0.336   2.528 -0.3230  1.0783 -2.1398
  477SOL    HW2 1431   1.564   0.283   2.401  0.1541  0.2060  0.8016
  478SOL     OW 1432   2.228   1.817   0.194  0.3556 -0.3126 -0.2294
  478SOL    HW1 1433   2.175   1.731   0.228  0.9009 -1.9480 -2.1021
  478SOL    HW2 1434   2.271   1.792   0.106  0.9825  1.8346 -2.1058
  479SOL     OW 1435   1.247   0.969   2.824 -0.3970  0.3639 -0.7358
  479SOL    HW1 1436   1.319   0.973   2.753  1.0289 -0.7347 -1.5680
  479SOL    HW2 1437   1.217   0.872   2.843 -0.4035  0.4850  1.4405
  480SOL     OW 1438   2.637   2.366   0.372  0.8193  0.1938 -0.3877
  480SOL    HW1 1439   2.627   2.285   0.435 -0.4036  0.5199  1.9307
  480SOL    HW2 1440   2.557   2.381   0.307 -1.4060 -0.3745  0.3550
  481SOL     OW 1441   0.927   1.186   0.865  0.0825 -0.0440  0.0121
  481SOL    HW1 1442   0.933   1.274   0.806  0.1738  1.3791 -2.7203
  481SOL    HW2 1443   0.981   1.191   0.953  1.2990 -0.2562 -0.0964
  482SOL     OW 1444   1.587   0.287   1.995  1.0608 -0.3443  0.4161
  482SOL    HW1 1445   1.601   0.393   1.971 -1.3914  2.5041  0.0060
  482SOL    HW2 1446   1.667   0.242   2.040 -1.4201 -0.0073 -0.0026
  483SOL     OW 1447   0.142   2.271   1.206 -0.4330 -0.3679 -0.2870
  483SOL    HW1 1448   0.089   2.299   1.289  0.4559  1.9641 -0.7126
  483SOL    HW2 1449   0.153   2.346   1.140 -0.5495 -1.2216  2.3188
  484SOL     OW 1450   1.761   1.128   1.366  0.2595 -0.0378 -0.0598
  484SOL    HW1 1451   1.810   1.040   1.389  0.6274 -0.0823  1.1845
  484SOL    HW2 1452   1.779   1.205   1.436 -0.6603 -1.2123  2.3630
  485SOL     OW 1453   0.748   0.851   1.753  0.1191  0.3378 -0.2839
  485SOL    HW1 1454   0.737   0.900   1.661  0.1992  0.7752  3.5987
  485SOL    HW2 1455   0.846   0.854   1.783  0.3292  2.2146  1.1109
  486SOL     OW 1456   0.811   1.849   2.487  0.0376  0.1817 -0.0403
  486SOL    HW1 1457   0.870   1.813   2.562 -2.3242  0.4934 -1.2631
  486SOL    HW2 1458   0.795   1.956   2.487 -0.5797  1.3174  2.3490
  487SOL     OW 1459   1.746   1.657   0.951 -0.0281  0.4469 -0.0431
  487SOL    HW1 1460   1.797   1.575   0.991 -2.1611  1.7021 -1.1702
  487SOL    HW2 1461   1.795   1.706   0.875  1.8139  0.2343 -0.6834
  488SOL     OW 1462   2.939   0.875   2.244  0.0628  0.1313 -0.2240
  488SOL    HW1 1463   2.947   0.772   2.231 -0.2144  0.1223  0.2653
  488SOL    HW2 1464   2.962   0.898   2.342  2.2912 -1.4217 -0.6680
  489SOL     OW 1465   2.842   0.335   1.281 -0.4348 -0.3909  0.3013
  489SOL    HW1 1466   2.812   0.304   1.378 -1.5537 -0.2101  0.6837
  489SOL    HW2 1467   2.942   0.312   1.259  1.3651  1.2464  3.5813
  490SOL     OW 1468   1.411   2.941   2.810 -0.0261 -0.5369 -0.2930
  490SOL    HW1 1469   1.501   2.889   2.820  0.0782  0.8119 -0.4312
  490SOL    HW2 1470   1.383   2.976   2.717  0.7609 -1.6168 -2.9040
  491SOL     OW 1471   1.667   1.513   2.644 -0.7821 -0.2216 -0.1297
  491SOL    HW1 1472   1.575   1.539   2.695  0.3742  0.9109  1.6596
  491SOL    HW2 1473   1.755   1.518   2.707  1.9560 -1.2165  0.3920
  492SOL     OW 1474   0.559   2.071   0.617  0.2364 -0.5706  0.1812
  492SOL    HW1 1475   0.613   2.056   0.706 -0.2385 -0.6774 -3.5668
  492SOL    HW2 1476   0.495   2.151   0.625 -0.1291  1.3165  1.3767
  493SOL     OW 1477   0.440   1.401   2.058 -0.0952  0.2263 -0.3468
  493SOL    HW1 1478   0.345   1.450   2.057  0.2448  0.1014  0.8321
  493SOL    HW2 1479   0.427   1.298   2.068  0.2572  0.4133 -3.0013
  494SOL     OW 1480   2.717   2.672   0.070  0.1308  1.2042  0.2315
  494SOL    HW1 1481   2.708   2.656   0.171 -1.1137  0.6929 -2.4181
  494SOL    HW2 1482   2.621   2.689   0.030 -0.4174 -1.9332  1.7435
  495SOL     OW 1483   2.588   2.725   2.636  0.3791 -0.2914 -0.3070
  495SOL    HW1 1484   2.582   2.625   2.621  1.1993 -3.8303  1.3202
  495SOL    HW2 1485   2.664   2.764   2.574  0.0499  2.1287 -1.6327
  496SOL     OW 1486   2.061   2.273   0.766  0.3710 -0.0843  0.0269
  496SOL    HW1 1487   2.065   2.341   0.847 -1.5428  0.7451  2.0689
  496SOL    HW2 1488   2.062   2.175   0.795  0.9217  1.5059  0.7729
  497SOL     OW 1489   0.191   2.994   2.341 -0.0046 -0.3203 -0.4307
  497SOL    HW1 1490   0.139   3.046   2.414 -0.0873  2.8270  0.3178
  497SOL    HW2 1491   0.205   3.050   2.253  2.2824 -0.2482  0.7974
  498SOL     OW 1492   1.211   1.330   1.236 -0.1670 -0.0407 -0.4278
  498SOL    HW1 1493   1.313   1.346   1.248  1.3576  1.9632 -1.6019
  498SOL    HW2 1494   1.163   1.343   1.325 -1.3271 -3.2404  0.3652
  499SOL     OW 1495   0.617   1.764   0.325  0.1373 -0.2440  1.0236
  499SOL    HW1 1496   0.661   1.686   0.279 -0.1410 -0.7782  0.2917
  499SOL    HW2 1497   0.677   1.816   0.388 -2.5930 -0.6370 -1.6205
  500SOL     OW 1498   1.376   2.885   1.663 -0.2159 -0.0243 -0.0197
  500SOL    HW1 1499   1.334   2.861   1.753 -0.6304  4.2663 -2.4737
  500SOL    HW2 1500   1.460   2.827   1.644  1.8248  1.9823 -2.6936
  501SOL     OW 1501   0.797   1.129   2.268  0.0565 -0.4941 -0.3939
  501SOL    HW1 1502   0.723   1.048   2.266  1.7989  0.6239  0.9145
  501SOL    HW2 1503   0.844   1.139   2.177 -2.6256  2.1797 -1.2960
  502SOL     OW 1504   2.579   0.934   1.732  0.3878  0.3090 -0.1666
  502SOL    HW1 1505   2.590   0.950   1.631 -1.8138 -0.6417 -0.9729
  502SOL    HW2 1506   2.579   0.836   1.763 -1.0199 -1.7650 -0.4038
  503SOL     OW 1507   1.347   0.145   0.607 -0.0379 -0.5029  0.4822
  503SOL    HW1 1508   1.279   0.221   0.598 -1.5941 -1.4043 -1.8070
  503SOL    HW2 1509   1.432   0.170   0.659  1.1092  2.3517 -1.8845
  504SOL     OW 1510   2.994   2.334   1.486  0.4733 -0.0070  0.2279
  504SOL    HW1 1511   2.917   2.398   1.518  0.3767 -1.3468  0.7245
  504SOL    HW2 1512   3.049   2.302   1.570 -2.4069 -2.2021  2.6965
  505SOL     OW 1513   2.285   1.187   1.408  0.3338 -0.3379 -0.3007
  505SOL    HW1 1514   2.235   1.237   1.336  1.2633  2.6396 -0.4023
  505SOL    HW2 1515   2.353   1.251   1.458  1.7136  2.3040  2.1071
  506SOL     OW 1516   1.949   0.201   1.834  0.2382 -0.1837  0.2670
  506SOL    HW1 1517   2.035   0.144   1.830  0.4491  0.9058  0.3127
  506SOL    HW2 1518   1.976   0.296   1.868 -0.2940  0.9346  1.3787
  507SOL     OW 1519   0.597   0.690   2.135  0.1808  0.1985 -0.3447
  507SOL    HW1 1520   0.519   0.643   2.085  0.6927 -2.4643  2.0037
  507SOL    HW2 1521   0.680   0.623   2.158  1.7871 -3.1754  1.6775
  508SOL     OW 1522   0.315   1.666   0.736 -0.4355 -0.5389 -0.0190
  508SOL    HW1 1523   0.384   1.720   0.680  0.6162 -0.7622  2.2622
  508SOL    HW2 1524   0.273   1.723   0.808  0.5327  0.1292 -2.4655
  509SOL     OW 1525   1.297   1.176   2.412  0.1101 -0.3493 -0.0695
  509SOL    HW1 1526   1.330   1.111   2.343  1.8218 -0.6762 -0.2867
  509SOL    HW2 1527   1.191   1.180   2.426  1.1986  1.3649 -1.8517
  510SOL     OW 1528   1.274   2.120   2.222  0.2100  0.1460  0.4075
  510SOL    HW1 1529   1.277   2.172   2.130 -0.2618 -0.4734 -1.7702
  510SOL    HW2 1530   1.223   2.023   2.216  0.9518 -0.7613 -2.0251
  511SOL     OW 1531   3.008   2.673   1.291 -0.0510 -0.2156  0.3529
  511SOL    HW1 1532   3.007   2.659   1.188  2.9713 -0.8020  1.7487
  511SOL    HW2 1533   2.907   2.666   1.318 -3.7953 -2.2949 -1.0296
  512SOL     OW 1534   2.430   0.435   1.374 -0.1683  0.1135  0.1996
  512SOL    HW1 1535   2.333   0.449   1.354 -0.6898 -0.9110  1.4291
  512SOL    HW2 1536   2.474   0.397   1.288  0.2440  0.2893 -0.6522
  513SOL     OW 1537   2.592   2.106   0.923 -0.5222 -0.1078 -0.3063
  513SOL    HW1 1538   2.552   2.184   0.864 -1.4568  1.4825  0.0866
  513SOL    HW2 1539   2.675   2.059   0.873 -1.0071  1.5876 -1.0900
  514SOL     OW 1540   0.675   2.773   0.456  0.1619 -0.1852  0.3383
  514SOL    HW1 1541   0.664   2.817   0.364  0.1679 -0.5170  2.4279
  514SOL    HW2 1542   0.719   2.834   0.529 -1.4195  2.2572  0.0062
  515SOL     OW 1543   1.920   1.317   2.389  0.1594 -0.2910 -0.2511
  515SOL    HW1 1544   1.938   1.242   2.322  0.4560 -0.7488 -1.2387
  515SOL    HW2 1545   1.837   1.308   2.453 -0.2810 -0.4908  0.1625
  516SOL     OW 1546   0.288   0.288   1.882  0.2030 -0.1037  0.3447
  516SOL    HW1 1547   0.360   0.219   1.875 -3.3600  0.9058 -0.3776
  516SOL    HW2 1548   0.199   0.263   1.833 -2.9450 -0.4641  1.2214
  517SOL     OW 1549   0.485   0.107   1.128 -0.2025 -1.0208  0.2663
  517SOL    HW1 1550   0.503   0.126   1.230  1.0054 -1.6692  2.7703
  517SOL    HW2 1551   0.402   0.048   1.125 -2.6761 -0.7728  1.3753
  518SOL     OW 1552   2.149   3.081   1.836 -0.0675 -0.5255 -0.3281
  518SOL    HW1 1553   2.207   3.165   1.836 -1.3770  0.7568  2.2551
  518SOL    HW2 1554   2.153   3.039   1.743  1.2006 -1.3427  3.4615
  519SOL     OW 1555   2.331   2.110   2.470  0.2739  0.1584 -0.3066
  519SOL    HW1 1556   2.292   2.098   2.564  1.9825  2.0002 -0.1883
  519SOL    HW2 1557   2.366   2.204   2.457  0.2197  1.9697  0.2811
  520SOL     OW 1558   1.837   2.696   1.736  0.2839  0.2094 -0.0136
  520SOL    HW1 1559   1.757   2.636   1.774 -0.2813  3.3509 -0.2792
  520SOL    HW2 1560   1.914   2.639   1.695  1.0737 -0.2546 -0.4301
  521SOL     OW 1561   0.555   3.069   2.065 -0.1506 -0.2344  0.3022
  521SOL    HW1 1562   0.457   3.080   2.099  1.0013  0.4098  1.4259
  521SOL    HW2 1563   0.624   3.089   2.137 -0.4164 -1.7820  1.7383
  522SOL     OW 1564   0.165   1.824   1.577  0.1084 -0.3033 -0.2082
  522SOL    HW1 1565   0.217   1.912   1.613  0.1508  1.9116  1.4788
  522SOL    HW2 1566   0.116   1.838   1.484 -1.1486 -1.5637  0.9081
  523SOL     OW 1567   2.179   2.974   1.590  0.1860  0.8181  0.3083
  523SOL    HW1 1568   2.259   2.906   1.577 -2.0382 -2.4891 -2.6754
  523SOL    HW2 1569   2.102   2.952   1.517 -0.8299 -0.5835 -1.9195
  524SOL     OW 1570   0.195   2.771   2.830 -0.3739 -0.5516 -0.5533
  524SOL    HW1 1571   0.130   2.852   2.858 -0.7975  1.2736  2.5051
  524SOL    HW2 1572   0.292   2.801   2.818 -0.7681 -0.7570  0.0191
  525SOL     OW 1573   2.230   2.019   0.404  0.1524 -0.4426  0.5458
  525SOL    HW1 1574   2.249   1.969   0.491  3.7791 -1.2960 -1.4367
  525SOL    HW2 1575   2.231   1.952   0.319  1.3487 -2.5164  0.1024
  526SOL     OW 1576   0.470   1.477   1.743  0.4148 -0.5506 -0.4580
  526SOL    HW1 1577   0.532   1.545   1.789 -2.7104  0.8076 -0.6969
  526SOL    HW2 1578   0.486   1.384   1.787  1.7128  2.9678 -1.4363
  527SOL     OW 1579   1.087   2.882   1.139 -0.2316 -0.0787 -0.1557
  527SOL    HW1 1580   1.138   2.823   1.204 -0.5649 -2.0528 -1.2397
  527SOL    HW2 1581   1.094   2.985   1.153 -2.5885 -1.1176 -2.6979
  528SOL     OW 1582   1.359   2.345   0.527  0.2505 -0.3899 -0.1667
  528SOL    HW1 1583   1.389   2.246   0.536 -1.7422  1.6064 -0.4731
  528SOL    HW2 1584   1.427   2.412   0.574  1.1913  1.6429  1.4746
  529SOL     OW 1585   1.918   1.777   0.743  0.0420 -0.0386 -0.1360
  529SOL    HW1 1586   1.866   1.771   0.652  1.6473 -0.1796 -0.2258
  529SOL    HW2 1587   1.926   1.875   0.775 -2.7940  1.2679  0.3520
  530SOL     OW 1588   0.410   2.581   0.169  0.5423  0.6827  0.3560
  530SOL    HW1 1589   0.418   2.643   0.256  1.8936 -0.0135  1.6823
  530SOL    HW2 1590   0.423   2.484   0.196 -2.5736  0.9775  1.6581
  531SOL     OW 1591   1.867   0.988   1.080  0.0339  0.1134 -0.6968
  531SOL    HW1 1592   1.853   0.917   1.008 -2.1572 -1.3925 -1.7863
  531SOL    HW2 1593   1.791   0.991   1.152 -0.7501  2.0967  0.8669
  532SOL     OW 1594   0.366   1.173   0.722  0.4108  0.0813  0.0705
  532SOL    HW1 1595   0.368   1.166   0.616  0.4246  3.4753 -1.2765
  532SOL    HW2 1596   0.350   1.084   0.774  1.6997 -1.3497 -0.6708
  533SOL     OW 1597   1.739   0.013   2.584 -0.1205  0.5057  0.2583
  533SOL    HW1 1598   1.838  -0.004   2.597 -0.3788  0.5792 -0.1478
  533SOL    HW2 1599   1.699   0.096   2.628  0.3636 -1.3786 -2.9633
  534SOL     OW 1600   0.262   0.214   1.464 -0.4959  0.1318 -0.8763
  534SOL    HW1 1601   0.359   0.238   1.428  1.8126 -1.8206  1.2063
  534SOL    HW2 1602   0.220   0.304   1.507 -1.4814  2.4801  0.1555
  535SOL     OW 1603   1.894   0.372   0.228  0.5065  0.6431  0.1340
  535SOL    HW1 1604   1.934   0.448   0.286 -0.6778 -4.6038 -1.1490
  535SOL    HW2 1605   1.815   0.327   0.277  2.5596  2.0993  0.9364
  536SOL     OW 1606   1.385   2.591   0.926  1.1869 -0.7951  0.1866
  536SOL    HW1 1607   1.395   2.501   0.978  0.6107  0.9218 -1.2736
  536SOL    HW2 1608   1.287   2.619   0.899  0.7665  2.2301  1.2872
  537SOL     OW 1609   0.852   0.207   2.342 -0.4044 -0.1285  0.5030
  537SOL    HW1 1610   0.879   0.216   2.241 -0.7259 -0.3230 -0.4213
  537SOL    HW2 1611   0.753   0.183   2.359 -1.0437 -3.3384 -1.2444
  538SOL     OW 1612   1.667   2.312   1.510 -0.0097 -0.1769  0.0886
  538SOL    HW1 1613   1.641   2.231   1.451 -0.5172  0.0315  3.1102
  538SOL    HW2 1614   1.756   2.347   1.470 -0.5567 -1.6352  1.3143
  539SOL     OW 1615   0.220   1.641   2.689  0.3644  0.4485  0.4856
  539SOL    HW1 1616   0.124   1.633   2.644 -3.5103  3.1557 -0.4136
  539SOL    HW2 1617   0.252   1.737   2.707 -0.9807  1.3837  1.5061
  540SOL     OW 1618   2.739   1.692   1.971 -0.1875  0.4204  0.3420
  540SOL    HW1 1619   2.654   1.629   1.965 -1.0862  1.7174 -0.8296
  540SOL    HW2 1620   2.715   1.795   1.952 -2.4403 -0.8353 -0.1368
  541SOL     OW 1621   0.475   2.341   3.075  0.3134 -0.0037 -0.4114
  541SOL    HW1 1622   0.540   2.288   3.133 -1.6363  1.0130 -1.0311
  541SOL    HW2 1623   0.394   2.274   3.054 -3.2459 -0.8882 -1.8743
  542SOL     OW 1624   2.246   2.589   0.429  0.2164  0.3207 -0.6163
  542SOL    HW1 1625   2.231   2.692   0.419 -0.3263 -0.1424  3.6435
  542SOL    HW2 1626   2.173   2.541   0.484 -0.2508 -0.7892 -0.5580
  543SOL     OW 1627   0.996   1.729   1.684 -0.0531 -0.5067 -0.3748
  543SOL    HW1 1628   1.019   1.744   1.784  1.4097 -0.4568 -2.2450
  543SOL    HW2 1629   0.994   1.822   1.633  4.7063  1.2476 -0.8547
  544SOL     OW 1630   0.966   0.373   0.210  0.5715  0.5041 -0.2233
  544SOL    HW1 1631   0.995   0.281   0.243 -2.8045  2.0691  2.1715
  544SOL    HW2 1632   0.977   0.384   0.110  1.6822 -0.5839  2.2004
  545SOL     OW 1633   1.106   1.709   0.702 -0.3393  0.4316  0.6184
  545SOL    HW1 1634   1.189   1.754   0.749  2.3948 -1.5695  1.9851
  545SOL    HW2 1635   1.111   1.704   0.599 -0.4646 -0.2880 -0.3230
  546SOL     OW 1636   2.604   1.550   3.036  0.1275 -0.4817  0.1286
  546SOL    HW1 1637   2.527   1.532   2.965  1.2606 -2.6737 -0.8409
  546SOL    HW2 1638   2.579   1.527   3.128  1.4091  2.5437  1.4858
  547SOL     OW 1639   0.572   0.046   2.718  0.3737  0.4039 -0.4921
  547SOL    HW1 1640   0.634  -0.035   2.704  4.1608  0.8828  0.5762
  547SOL    HW2 1641   0.478   0.023   2.761 -4.1760  0.5623 -1.2915
  548SOL     OW 1642   2.031   0.837   3.063 -0.1718  0.3993 -0.1447
  548SOL    HW1 1643   1.929   0.826   3.050  0.2946 -0.6665 -0.4116
  548SOL    HW2 1644   2.058   0.934   3.081  0.7308  0.9131  0.5357
  549SOL     OW 1645   0.692   0.590   0.192 -0.0273  0.1721  0.1918
  549SOL    HW1 1646   0.633   0.660   0.138 -0.8762  1.1533 -2.3673
  549SOL    HW2 1647   0.755   0.640   0.253 -1.4669 -0.8191  0.3958
  550SOL     OW 1648   2.489   2.844   2.881 -0.1603 -0.3248  0.0727
  550SOL    HW1 1649   2.460   2.771   2.950 -0.8511  2.1477  0.1045
  550SOL    HW2 1650   2.546   2.811   2.796  2.8234  1.7621 -1.1092
  551SOL     OW 1651   0.293   0.881   0.211  0.0875 -0.6165 -0.0790
  551SOL    HW1 1652   0.389   0.895   0.183 -0.2027  2.5917  0.7751
  551SOL    HW2 1653   0.295   0.844   0.309 -1.2324  0.4206  0.4697
  552SOL     OW 1654   0.726   2.904   1.863 -0.7924 -0.2687 -0.0619
  552SOL    HW1 1655   0.701   2.959   1.950 -3.2766 -0.3685 -1.6981
  552SOL    HW2 1656   0.823   2.936   1.834  1.0145  1.3769 -2.6023
  553SOL     OW 1657   0.027   2.513   0.395 -0.5936  0.2155  0.1000
  553SOL    HW1 1658  -0.050   2.450   0.361 -0.4158  0.1400 -0.8214
  553SOL    HW2 1659  -0.018   2.596   0.435 -0.0129  1.8494  0.0771
  554SOL     OW 1660   2.186   0.349   0.577 -0.1091  0.4959 -0.0436
  554SOL    HW1 1661   2.220   0.323   0.486 -1.7191 -0.0312  0.8848
  554SOL    HW2 1662   2.207   0.276   0.648 -1.0465  0.2849 -2.0548
  555SOL     OW 1663   0.432   2.899   2.500  0.1425  0.1944 -0.1686
  555SOL    HW1 1664   0.364   2.941   2.439  1.5840 -1.6782  0.5878
  555SOL    HW2 1665   0.464   2.811   2.454 -1.8608 -0.3138 -0.2371
  556SOL     OW 1666   0.859   2.399   1.597 -0.1055 -0.0088 -0.6407
  556SOL    HW1 1667   0.896   2.490   1.626 -0.7140  0.4452 -3.1373
  556SOL    HW2 1668   0.896   2.375   1.503 -2.7300 -0.3979 -1.9273
  557SOL     OW 1669   0.101   2.081   0.152 -0.1210 -0.0140 -0.0104
  557SOL    HW1 1670   0.011   2.031   0.143 -0.6053  0.1265  0.1340
  557SOL    HW2 1671   0.144   2.087   0.061  0.9664 -0.4507  1.4664
  558SOL     OW 1672   2.940   2.336   0.311 -0.4092  0.4744 -0.6707
  558SOL    HW1 1673   2.838   2.329   0.326  0.0338 -0.6812  1.1361
  558SOL    HW2 1674   2.968   2.318   0.211  0.8893 -1.3132 -0.8066
  559SOL     OW 1675   0.384   2.300   1.342 -0.3815  0.0623 -0.0158
  559SOL    HW1 1676   0.299   2.287   1.282  1.8666  1.1769  0.2116
  559SOL    HW2 1677   0.436   2.210   1.349  1.1799 -1.3146  1.0736
  560SOL     OW 1678   2.079   1.103   3.078 -0.1106  0.0476  0.2358
  560SOL    HW1 1679   1.990   1.145   3.116 -0.5200 -1.9532  1.2440
  560SOL    HW2 1680   2.162   1.161   3.094  0.6583 -0.0822 -0.5093
  561SOL     OW 1681   2.999   1.898   0.042 -0.3046  0.2210  0.1849
  561SOL    HW1 1682   2.937   1.821   0.063  0.2372  0.1852 -1.4423
  561SOL    HW2 1683   2.939   1.966  -0.008  2.6903 -1.4070 -0.6556
  562SOL     OW 1684   0.951   2.208   2.333 -0.2199  0.5417 -0.2476
  562SOL    HW1 1685   0.854   2.173   2.312  2.5357  0.3916 -0.1669
  562SOL    HW2 1686   0.956   2.234   2.432 -1.8460  0.9386  1.9414
  563SOL     OW 1687   0.715   2.483   2.579  0.4838  0.6626  0.1573
  563SOL    HW1 1688   0.776   2.404   2.603 -0.8228 -4.1591 -2.7982
  563SOL    HW2 1689   0.654   2.507   2.663 -0.4997  0.6793  1.4720
  564SOL     OW 1690   2.751   1.293   2.906  0.1074 -0.1227  0.1585
  564SOL    HW1 1691   2.669   1.295   2.966 -1.5503  1.1247 -1.1928
  564SOL    HW2 1692   2.788   1.386   2.878  0.3434 -1.9663 -0.6681
  565SOL     OW 1693   2.546   1.993   2.573  0.2055 -0.1198 -0.1168
  565SOL    HW1 1694   2.471   2.042   2.521 -0.5331 -0.6605  1.2529
  565SOL    HW2 1695   2.572   2.039   2.664  1.1945  0.7556 -1.1026
  566SOL     OW 1696   1.990   2.853   1.400  0.1622 -0.2081  0.3567
  566SOL    HW1 1697   1.935   2.762   1.386  3.7268  0.4697 -0.0903
  566SOL    HW2 1698   2.079   2.849   1.349 -0.3654  0.4868 -0.8771
  567SOL     OW 1699   2.479   0.088   2.257 -0.2817  0.1487 -0.8483
  567SOL    HW1 1700   2.533   0.172   2.276  1.9915 -3.3323 -0.1042
  567SOL    HW2 1701   2.459   0.076   2.153 -1.3025 -1.6719 -3.1982
  568SOL     OW 1702   1.537   1.762   0.228  0.3238 -0.3634  0.0101
  568SOL    HW1 1703   1.470   1.834   0.186 -0.5204  1.7850  1.5081
  568SOL    HW2 1704   1.636   1.792   0.232  0.8047  1.0047 -3.2303
  569SOL     OW 1705   0.287   0.635   0.870  0.3787  0.2575  0.0182
  569SOL    HW1 1706   0.351   0.562   0.841  2.8074  1.5867  0.6509
  569SOL    HW2 1707   0.194   0.598   0.875  0.9034 -0.7921  0.0206
  570SOL     OW 1708   0.664   0.749   2.845 -0.3413  0.1933  0.3181
  570SOL    HW1 1709   0.699   0.729   2.748 -1.7146 -0.7841 -1.0901
  570SOL    HW2 1710   0.689   0.845   2.870  1.2625  0.8125  0.1193
  571SOL     OW 1711   0.813   3.061   1.080 -0.7251  0.3533 -0.6375
  571SOL    HW1 1712   0.859   3.106   0.998 -0.3792  0.4591  2.7528
  571SOL    HW2 1713   0.833   2.960   1.090  1.2224  0.4715 -3.2544
  572SOL     OW 1714   1.604   2.619   1.202 -0.2736  0.0280  0.5264
  572SOL    HW1 1715   1.532   2.555   1.237  0.9527  0.1896 -0.4992
  572SOL    HW2 1716   1.559   2.700   1.160  0.6288 -2.2867  1.8142
  573SOL     OW 1717   2.935   0.438   2.025  0.3276 -0.1265 -0.3397
  573SOL    HW1 1718   2.891   0.349   2.048  2.2349  1.5388  0.3678
  573SOL    HW2 1719   2.863   0.504   1.983 -0.8271 -1.6342 -0.7262
  574SOL     OW 1720   0.196   1.745   0.989 -0.3375 -0.6265  0.5973
  574SOL    HW1 1721   0.221   1.845   0.998  3.8713 -2.3205 -0.7948
  574SOL    HW2 1722   0.125   1.716   1.058 -0.3836  0.7939  1.0447
  575SOL     OW 1723   0.894   2.122   1.001  0.2331  0.1601  0.2959
  575SOL    HW1 1724   0.840   2.148   1.086 -1.8282  0.1664 -2.3591
  575SOL    HW2 1725   0.934   2.204   0.950  0.3948 -1.9108 -0.9417
  576SOL     OW 1726   2.929   2.963   1.649 -0.6944  0.7099 -0.2634
  576SOL    HW1 1727   2.837   2.923   1.620 -0.9927 -1.2249  0.5529
  576SOL    HW2 1728   2.925   3.064   1.629  1.6360  0.6690 -0.5569
  577SOL     OW 1729   2.539   1.223   3.089  0.0114  0.2345  0.2869
  577SOL    HW1 1730   2.557   1.141   3.030  0.6300  1.2786  0.3090
  577SOL    HW2 1731   2.583   1.221   3.185 -0.7162  1.9794  3.6103
  578SOL     OW 1732   1.333   2.702   2.566 -0.3094  0.7996 -0.6487
  578SOL    HW1 1733   1.252   2.727   2.508  0.9474 -1.2323 -2.3130
  578SOL    HW2 1734   1.414   2.767   2.559  0.0099 -1.1487  3.2414
  579SOL     OW 1735   0.095   2.493   0.102 -0.0833  0.1404 -0.0909
  579SOL    HW1 1736   0.086   2.470   0.206  1.2920  0.1815  2.1091
  579SOL    HW2 1737   0.194   2.493   0.073 -0.8793 -2.8505  0.5566
  580SOL     OW 1738   1.018   2.629   0.399 -0.0742  0.6986  0.5176
  580SOL    HW1 1739   1.108   2.635   0.349 -1.8939 -1.6759  0.7241
  580SOL    HW2 1740   0.944   2.591   0.335 -0.6399 -1.2815 -1.1988
  581SOL     OW 1741   1.264   2.584   1.520  0.4147 -0.0908 -0.0336
  581SOL    HW1 1742   1.325   2.502   1.536  0.6646 -0.5744 -2.7535
  581SOL    HW2 1743   1.309   2.646   1.447  0.4761 -1.0081 -2.5397
  582SOL     OW 1744   1.508   0.089   1.822 -0.1016 -0.1712 -0.0270
  582SOL    HW1 1745   1.516   0.167   1.889 -1.2744 -1.0326  0.7705
  582SOL    HW2 1746   1.592   0.070   1.762  1.3917 -1.0720 -1.9287
  583SOL     OW 1747   2.522   3.003   0.500  0.4493  0.3805 -0.8306
  583SOL    HW1 1748   2.538   2.919   0.439  1.9621  2.1788 -1.0349
  583SOL    HW2 1749   2.465   2.990   0.589 -0.2578  0.8694  2.7048
  584SOL     OW 1750   1.607   0.970   2.093 -0.0227 -0.2360  0.0283
  584SOL    HW1 1751   1.668   0.982   2.011 -2.5530 -3.7942 -0.4699
  584SOL    HW2 1752   1.658   0.920   2.172 -0.3095 -0.8912  0.7926
  585SOL     OW 1753   2.088   2.685   2.957 -0.0759 -0.0954  0.0753
  585SOL    HW1 1754   2.127   2.600   2.906  1.6707 -0.2919  0.0811
  585SOL    HW2 1755   1.987   2.694   2.949  1.4794  1.5281  1.4832
  586SOL     OW 1756   2.742   0.242   1.564  0.4174  0.3754 -0.2763
  586SOL    HW1 1757   2.765   0.320   1.629 -0.9551  0.3124  0.2286
  586SOL    HW2 1758   2.644   0.199   1.576  1.4124  1.0782  1.3769
  587SOL     OW 1759   1.924   1.541   2.755 -0.2852 -0.1499  0.2476
  587SOL    HW1 1760   1.994   1.497   2.688 -0.9133 -1.2601 -0.4287
  587SOL    HW2 1761   1.964   1.544   2.852  0.0494 -2.0009  2.4020
  588SOL     OW 1762   0.489   2.758   2.267  0.0627  0.1557  0.2557
  588SOL    HW1 1763   0.419   2.806   2.207  1.3494 -1.1317  1.2138
  588SOL    HW2 1764   0.458   2.660   2.290  0.5374 -0.8401 -1.0936
  589SOL     OW 1765   2.106   1.431   2.562  0.1910 -0.3943 -0.0448
  589SOL    HW1 1766   2.036   1.377   2.502 -3.1624  0.7412 -0.3603
  589SOL    HW2 1767   2.193   1.377   2.573 -0.6109 -0.9884 -1.0534
  590SOL     OW 1768   2.338   1.642   2.035  0.3623 -0.2805 -0.0236
  590SOL    HW1 1769   2.416   1.579   2.007  0.2245 -0.1696 -1.5141
  590SOL    HW2 1770   2.362   1.693   2.123  4.7273  0.5294 -2.0955
  591SOL     OW 1771   1.325   2.390   0.266 -0.1268 -0.0615  0.0161
  591SOL    HW1 1772   1.415   2.355   0.229 -1.1614 -1.6586 -1.3404
  591SOL    HW2 1773   1.321   2.377   0.371  0.0871  2.0884  0.8935
  592SOL     OW 1774   1.756   2.321   0.759  0.0589 -0.1865 -0.7777
  592SOL    HW1 1775   1.735   2.366   0.667 -0.6561 -1.3617  1.6372
  592SOL    HW2 1776   1.859   2.320   0.778  1.4893  2.5848  1.8681
  593SOL     OW 1777   0.666   0.294   0.115  0.4332  0.3858 -0.1281
  593SOL    HW1 1778   0.738   0.264   0.047 -2.9803 -0.5749  0.0921
  593SOL    HW2 1779   0.685   0.388   0.163  2.0244 -0.4887  3.9193
  594SOL     OW 1780   0.970   1.823   2.711  0.3498  0.1849  0.1149
  594SOL    HW1 1781   1.061   1.822   2.762 -1.9045 -0.1778  0.1323
  594SOL    HW2 1782   0.912   1.906   2.739 -0.2169  0.7902 -0.7764
  595SOL     OW 1783   1.531   0.076   1.024  0.6715  0.3902  0.5303
  595SOL    HW1 1784   1.600   0.003   1.054  2.3057 -0.4358 -0.2351
  595SOL    HW2 1785   1.470   0.048   0.944  3.0652  1.5003 -0.1282
  596SOL     OW 1786   3.065   1.485   2.246 -0.3448 -0.1200  0.2955
  596SOL    HW1 1787   2.963   1.464   2.235  2.7267 -0.4657  0.1462
  596SOL    HW2 1788   3.086   1.501   2.347 -0.3968 -1.5238  2.4201
  597SOL     OW 1789   2.046   2.569   1.599 -0.0694 -0.4470 -0.5274
  597SOL    HW1 1790   2.075   2.481   1.552  2.1652 -2.5435  0.6297
  597SOL    HW2 1791   2.118   2.600   1.660 -1.3297  0.2154  1.8922
  598SOL     OW 1792   2.479   2.965   1.329  0.8139  0.3535 -0.0818
  598SOL    HW1 1793   2.564   2.974   1.385 -0.0216  0.1565  0.2620
  598SOL    HW2 1794   2.495   2.938   1.230  2.0054 -1.8549 -0.7768
  599SOL     OW 1795   2.931   0.419   2.496 -0.0569 -0.3106  0.1229
  599SOL    HW1 1796   2.991   0.504   2.477  2.3866 -1.9182  0.6525
  599SOL    HW2 1797   2.835   0.429   2.461  1.5866 -0.4883 -1.2568
  600SOL     OW 1798   2.793   1.127   2.707 -0.5898  0.4372 -0.7198
  600SOL    HW1 1799   2.707   1.113   2.653  0.3315 -1.5858  3.1762
  600SOL    HW2 1800   2.781   1.201   2.778 -1.0546 -1.4702 -2.0295
  601SOL     OW 1801   2.980   1.257   1.916 -0.0320  0.3180 -0.0035
  601SOL    HW1 1802   2.908   1.299   1.852 -1.5938  0.4078 -1.0077
  601SOL    HW2 1803   3.055   1.319   1.943 -2.0134  2.5705 -3.5419
  602SOL     OW 1804   1.420   1.696   2.354  0.0296 -0.1251 -0.6566
  602SOL    HW1 1805   1.360   1.614   2.370 -1.8869 -0.0810  0.2356
  602SOL    HW2 1806   1.525   1.667   2.354  2.2286 -0.5821 -0.1157
  603SOL     OW 1807   0.635   1.230   2.721  0.2063 -0.2501 -0.2471
  603SOL    HW1 1808   0.558   1.201   2.661  0.2323  2.0470 -1.2376
  603SOL    HW2 1809   0.727   1.185   2.697  0.6811 -0.6787  0.0273
  604SOL     OW 1810   2.420   1.013   0.154 -0.2501 -0.0718 -0.1779
  604SOL    HW1 1811   2.497   1.069   0.105 -0.0373  1.6036 -0.1014
  604SOL    HW2 1812   2.378   0.934   0.103 -0.3441 -1.7353  0.0743
  605SOL     OW 1813   2.574   1.165   1.890 -1.3605  0.0236 -0.4246
  605SOL    HW1 1814   2.571   1.066   1.847 -1.8837  0.4106 -2.0781
  605SOL    HW2 1815   2.589   1.161   1.993 -1.0422 -0.1845  2.3187
  606SOL     OW 1816   1.506   2.480   2.666 -0.7324 -0.1927 -0.4607
  606SOL    HW1 1817   1.431   2.541   2.637  2.6347  2.1633  1.7085
  606SOL    HW2 1818   1.497   2.380   2.632 -2.9501 -0.4508 -1.3440
  607SOL     OW 1819   1.389   1.645   0.443 -0.1087 -0.0158  0.0924
  607SOL    HW1 1820   1.313   1.705   0.484 -2.4915  1.0724  1.0348
  607SOL    HW2 1821   1.446   1.688   0.366  1.4803 -0.1879  1.7118
  608SOL     OW 1822   1.451   2.853   0.387  0.2978  0.8446 -0.0183
  608SOL    HW1 1823   1.531   2.907   0.351 -0.5406  0.8184  0.5272
  608SOL    HW2 1824   1.385   2.916   0.438  0.1990 -0.1879  0.0855
  609SOL     OW 1825   1.318   1.407   0.267  0.0382 -0.0620 -0.1352
  609SOL    HW1 1826   1.293   1.455   0.351  0.3566 -0.4636  3.1415
  609SOL    HW2 1827   1.266   1.441   0.181 -1.1395  0.7434 -0.8094
  610SOL     OW 1828   3.008   1.144   2.217 -0.0733  0.1329  0.1401
  610SOL    HW1 1829   2.987   1.041   2.211 -2.0404 -2.3659  0.4630
  610SOL    HW2 1830   3.005   1.194   2.127  1.2871 -0.6038 -0.3804
  611SOL     OW 1831   2.609   0.300   1.133 -0.1010 -0.2351 -0.2707
  611SOL    HW1 1832   2.553   0.230   1.184  2.1740  1.0970  1.7280
  611SOL    HW2 1833   2.706   0.301   1.173  0.1077  2.1040 -2.0507
  612SOL     OW 1834   0.775   2.229   1.219  0.3168  0.3993 -1.1233
  612SOL    HW1 1835   0.705   2.172   1.277 -0.1490  1.3241 -2.0806
  612SOL    HW2 1836   0.728   2.314   1.182  1.4580 -0.4809 -1.1391
  613SOL     OW 1837   0.812   1.436   2.410 -0.5128 -0.1579  0.1226
  613SOL    HW1 1838   0.876   1.461   2.332 -0.7098  2.1283  0.2876
  613SOL    HW2 1839   0.717   1.416   2.375 -0.0232 -0.6227 -0.8693
  614SOL     OW 1840   1.605   1.651   1.945 -0.5268  0.0904  0.2668
  614SOL    HW1 1841   1.556   1.725   1.996 -0.8472  1.0193 -1.2261
  614SOL    HW2 1842   1.697   1.627   1.987  0.1893 -0.3142  0.5713
  615SOL     OW 1843   0.804   1.297   1.708 -0.0616  0.4275  0.3363
  615SOL    HW1 1844   0.706   1.286   1.678  0.0190 -1.4685  1.7619
  615SOL    HW2 1845   0.855   1.374   1.659  1.0723 -4.5249  0.7700
  616SOL     OW 1846   1.058   1.624   2.334  0.1293  0.2593 -0.7367
  616SOL    HW1 1847   0.996   1.590   2.259  0.5374  0.4209  2.5740
  616SOL    HW2 1848   1.054   1.726   2.351  1.7706 -2.2018  0.1707
  617SOL     OW 1849   2.948   1.549   1.593  0.1119  0.3704  0.1341
  617SOL    HW1 1850   2.908   1.482   1.660 -0.8405  0.8643 -2.9168
  617SOL    HW2 1851   2.975   1.511   1.502  0.6216 -0.8278 -0.6282
  618SOL     OW 1852   1.941   2.010   1.350 -0.3857 -0.5510  0.9460
  618SOL    HW1 1853   1.907   2.061   1.265 -1.5892  0.0729  0.2035
  618SOL    HW2 1854   1.944   1.905   1.342  1.4132 -0.1514  0.5897
  619SOL     OW 1855   1.761   0.440   2.348  0.0715 -0.5848  0.3580
  619SOL    HW1 1856   1.683   0.502   2.315 -0.7366  1.5293  1.3858
  619SOL    HW2 1857   1.745   0.338   2.364  2.3577 -1.8519  0.7857
  620SOL     OW 1858   2.328   2.949   0.700 -0.5865 -0.1108 -0.6614
  620SOL    HW1 1859   2.284   3.040   0.719  1.1836 -4.4995 -0.5874
  620SOL    HW2 1860   2.304   2.876   0.772  0.8128 -0.4004  0.6980
  621SOL     OW 1861   2.145   1.779   1.317  0.4429  0.1478 -0.0628
  621SOL    HW1 1862   2.133   1.773   1.419  3.9879 -0.7639 -0.3770
  621SOL    HW2 1863   2.067   1.723   1.268 -2.4658 -1.2643  0.2523
  622SOL     OW 1864   2.262   0.890   1.775  0.1822  0.1696  0.0034
  622SOL    HW1 1865   2.365   0.873   1.766 -0.0953  1.9595  0.2948
  622SOL    HW2 1866   2.224   0.820   1.836  0.7468  1.3678 -0.5277
  623SOL     OW 1867   1.320   0.812   2.591 -0.1978  0.2376  0.2917
  623SOL    HW1 1868   1.313   0.728   2.652  2.7086  1.6290  0.3149
  623SOL    HW2 1869   1.245   0.806   2.519  0.7648  1.2353 -1.1640
  624SOL     OW 1870   0.521   0.716   3.075  0.2391  0.3246 -0.3947
  624SOL    HW1 1871   0.579   0.707   2.987 -1.7187 -2.2895 -2.6422
  624SOL    HW2 1872   0.512   0.815   3.104  0.2388 -3.0588 -0.4832
  625SOL     OW 1873   2.811   1.707   1.030 -0.3494 -0.7726  0.3015
  625SOL    HW1 1874   2.711   1.729   1.016 -1.7378 -0.0290  1.1455
  625SOL    HW2 1875   2.868   1.795   1.052  1.4489 -0.4816 -0.4135
  626SOL     OW 1876   0.592   2.726   1.737 -0.0616  0.6422  0.2491
  626SOL    HW1 1877   0.644   2.800   1.790 -0.1053 -2.6143  1.3304
  626SOL    HW2 1878   0.496   2.701   1.773  0.5727  1.3938 -0.7116
  627SOL     OW 1879   0.705   0.978   1.521  0.5057  0.9279 -0.7125
  627SOL    HW1 1880   0.641   0.929   1.462  1.7547 -0.4610  2.0546
  627SOL    HW2 1881   0.769   1.038   1.460  0.2205 -0.1469 -0.7863
  628SOL     OW 1882   2.491   0.116   0.680 -0.4951 -0.1305  0.5988
  628SOL    HW1 1883   2.508   0.043   0.610  1.8751 -0.5928  0.2623
  628SOL    HW2 1884   2.391   0.124   0.702  2.9956  3.4125 -1.6438
  629SOL     OW 1885   1.996   0.915   2.007  0.2451  0.4874 -0.4542
  629SOL    HW1 1886   2.045   0.936   1.918  0.7851 -0.3851 -1.2776
  629SOL    HW2 1887   1.956   1.001   2.052  0.1497 -0.7145 -0.2287
  630SOL     OW 1888   2.929   2.306   0.811 -0.8092  0.3185  0.0702
  630SOL    HW1 1889   2.867   2.387   0.839 -2.1274 -2.1042  1.0594
  630SOL    HW2 1890   2.877   2.217   0.789 -1.1591 -0.0628  1.0221
  631SOL     OW 1891   3.051   0.184   2.141 -0.2215 -0.3758 -0.4021
  631SOL    HW1 1892   3.088   0.227   2.226  0.5029 -0.0557  0.0020
  631SOL    HW2 1893   3.069   0.239   2.056 -1.4534 -4.1232 -0.1697
  632SOL     OW 1894   2.417   2.572   0.644 -0.3705 -0.0392  0.1435
  632SOL    HW1 1895   2.405   2.641   0.720 -2.6827  1.6900  0.8869
  632SOL    HW2 1896   2.375   2.601   0.551  0.5526  1.3166 -4.8906
  633SOL     OW 1897   1.409   1.215   2.655 -0.6280 -0.1618  0.1282
  633SOL    HW1 1898   1.404   1.314   2.692  2.0306 -0.5864  0.4913
  633SOL    HW2 1899   1.356   1.193   2.564 -1.1820 -1.2019 -2.2514
  634SOL     OW 1900   0.680   2.039   0.851  0.2279  0.7453  0.4056
  634SOL    HW1 1901   0.593   2.038   0.906  1.5053  0.7946  1.8696
  634SOL    HW2 1902   0.759   2.083   0.903  1.2525 -3.1659  1.0631
  635SOL     OW 1903   2.984   2.341   0.035 -0.5708  0.1174 -0.4199
  635SOL    HW1 1904   2.915   2.396  -0.023  0.6231 -0.6151  1.5450
  635SOL    HW2 1905   3.079   2.384   0.040 -0.2924 -0.9591 -0.0737
  636SOL     OW 1906   2.325   2.752   1.970 -0.0906  0.0653  1.0616
  636SOL    HW1 1907   2.312   2.848   2.007 -4.7088 -2.1822  0.1579
  636SOL    HW2 1908   2.267   2.690   2.035 -1.9519 -2.5069  1.1977
  637SOL     OW 1909   2.703   0.610   1.975 -0.7865 -0.6037 -0.0551
  637SOL    HW1 1910   2.636   0.612   1.900  0.9177 -1.7852  1.0569
  637SOL    HW2 1911   2.736   0.712   1.997 -2.9702 -0.0127 -0.4942
  638SOL     OW 1912   2.420   1.818   1.287  0.4697  0.0629 -0.5759
  638SOL    HW1 1913   2.315   1.808   1.287 -1.3105 -1.9534 -4.0296
  638SOL    HW2 1914   2.472   1.743   1.345  1.0578 -0.3449 -1.5768
  639SOL     OW 1915   1.303   2.084   1.713  0.0033 -0.5513  0.2914
  639SOL    HW1 1916   1.339   2.168   1.666 -0.9162 -0.8758 -1.4041
  639SOL    HW2 1917   1.205   2.099   1.752 -3.1964 -0.3830  0.8344
  640SOL     OW 1918   0.210   1.179   1.566 -0.6028 -0.1881  0.2326
  640SOL    HW1 1919   0.220   1.187   1.671  0.1661  1.9062  1.8427
  640SOL    HW2 1920   0.290   1.123   1.529  3.2001 -2.2002  2.4033
  641SOL     OW 1921   2.005   0.246   1.516  0.3203 -0.6174  0.7070
  641SOL    HW1 1922   1.974   0.237   1.614  1.0894  3.0633  1.5681
  641SOL    HW2 1923   2.095   0.191   1.496  1.0186  2.0533  2.6095
  642SOL     OW 1924   2.019   3.085   0.329 -0.2998 -0.5621 -0.2808
  642SOL    HW1 1925   2.117   3.090   0.365 -0.4385  0.4294  0.5473
  642SOL    HW2 1926   1.951   3.063   0.403  0.4559  2.3766  0.8534
  643SOL     OW 1927   2.937   1.789   2.141 -0.2559 -0.0295  0.1811
  643SOL    HW1 1928   2.865   1.758   2.076  0.7228  1.7502 -0.4180
  643SOL    HW2 1929   2.962   1.889   2.117  0.2019  1.4496 -0.3436
  644SOL     OW 1930   2.198   2.392   1.194 -0.1822 -0.5775 -0.5011
  644SOL    HW1 1931   2.278   2.335   1.157 -2.1255 -2.2658 -0.0317
  644SOL    HW2 1932   2.160   2.349   1.281 -1.5981 -0.2906 -0.4647
  645SOL     OW 1933   0.616   0.842   1.290  0.2560 -0.4769 -0.3994
  645SOL    HW1 1934   0.517   0.825   1.304 -1.3439  2.1083  1.0440
  645SOL    HW2 1935   0.629   0.858   1.190  0.8714 -1.9233  0.8385
  646SOL     OW 1936   1.414   1.829   2.084  0.2693  0.2012  0.6204
  646SOL    HW1 1937   1.423   1.929   2.060 -0.9693  0.1923  0.3465
  646SOL    HW2 1938   1.411   1.807   2.185  2.4677 -0.8058  1.0919
  647SOL     OW 1939   0.791   1.037   0.674  0.2261  0.3068  0.2985
  647SOL    HW1 1940   0.827   1.079   0.770  2.4726  1.2089  1.3775
  647SOL    HW2 1941   0.734   0.949   0.686  0.0861 -0.4641  0.1607
  648SOL     OW 1942   0.128   0.258   0.270 -0.5140 -0.0824  0.2744
  648SOL    HW1 1943   0.165   0.209   0.182 -2.9416 -1.1294  0.9855
  648SOL    HW2 1944   0.114   0.361   0.255 -0.6312  1.7355 -2.2246
  649SOL     OW 1945   3.026   0.244   0.850  0.2222 -0.0629 -0.2275
  649SOL    HW1 1946   3.102   0.186   0.888 -1.2741  1.6938 -0.2106
  649SOL    HW2 1947   3.042   0.346   0.853 -0.2645 -0.9272 -0.8260
  650SOL     OW 1948   2.758   0.682   1.510  0.5256  0.8772  0.0601
  650SOL    HW1 1949   2.657   0.660   1.517  1.7512  1.9374  0.8524
  650SOL    HW2 1950   2.780   0.767   1.456  0.9963  0.6764 -0.7841
  651SOL     OW 1951   0.919   1.502   1.542 -0.5544 -0.3431 -0.2610
  651SOL    HW1 1952   0.942   1.592   1.586  1.5530 -0.3248 -4.4870
  651SOL    HW2 1953   0.980   1.484   1.457  2.2459 -1.9979  0.6146
  652SOL     OW 1954   2.367   2.385   2.408  0.1100  0.3172  0.0888
  652SOL    HW1 1955   2.272   2.426   2.410  0.8593 -0.2550  0.9570
  652SOL    HW2 1956   2.426   2.416   2.327 -2.1835 -1.0317 -1.3906
  653SOL     OW 1957   2.663   1.218   0.235  0.3335 -0.0747  0.1358
  653SOL    HW1 1958   2.692   1.313   0.259 -0.6321  1.2104  0.3677
  653SOL    HW2 1959   2.745   1.158   0.232  0.4782  0.6767  0.2231
  654SOL     OW 1960   1.252   2.242   1.274 -0.6027 -0.4132 -0.5358
  654SOL    HW1 1961   1.258   2.162   1.337  1.1465 -1.4846 -1.0086
  654SOL    HW2 1962   1.307   2.222   1.186 -0.3800  0.0430 -0.2504
  655SOL     OW 1963   0.142   0.931   1.860  0.2711  0.0673  0.4182
  655SOL    HW1 1964   0.207   0.874   1.807 -0.3055 -0.0462  0.3289
  655SOL    HW2 1965   0.171   1.032   1.852 -1.7973  0.0032 -0.5448
  656SOL     OW 1966   2.571   2.434   2.597  0.5935  0.0909 -0.2160
  656SOL    HW1 1967   2.661   2.398   2.566 -0.6320  1.6874  2.1728
  656SOL    HW2 1968   2.494   2.419   2.528 -0.2643 -0.3024 -0.2740
  657SOL     OW 1969   2.984   0.988   1.923  0.0378 -0.1600 -0.3218
  657SOL    HW1 1970   2.968   1.091   1.927 -0.1270  2.0038  1.7587
  657SOL    HW2 1971   3.085   0.956   1.904  0.1856  0.4168 -0.5516
  658SOL     OW 1972   1.697   0.185   2.365 -0.1682  0.3413 -0.4474
  658SOL    HW1 1973   1.721   0.109   2.431 -0.3233 -0.0907  1.4389
  658SOL    HW2 1974   1.733   0.164   2.267 -2.0735 -1.7946  0.7940
  659SOL     OW 1975   1.390   0.634   2.838  0.0388  0.0053  0.1634
  659SOL    HW1 1976   1.445   0.700   2.891 -0.6117 -2.7510  1.9187
  659SOL    HW2 1977   1.285   0.649   2.855  1.1724 -0.2901  1.8588
  660SOL     OW 1978   1.418   0.347   1.448  0.2512 -0.1934  0.1510
  660SOL    HW1 1979   1.407   0.373   1.549 -2.0516  0.0339 -2.4075
  660SOL    HW2 1980   1.509   0.307   1.420 -1.0466 -1.9516 -1.0397
  661SOL     OW 1981   2.327   1.205   0.663 -0.0617 -0.1428 -0.3297
  661SOL    HW1 1982   2.362   1.209   0.565  1.4574  0.0777  0.0504
  661SOL    HW2 1983   2.335   1.291   0.716  0.6694  1.3633 -0.7347
  662SOL     OW 1984   1.374   0.380   1.716  0.1524 -0.5120  0.0769
  662SOL    HW1 1985   1.295   0.344   1.772  0.2539  2.0376  0.9920
  662SOL    HW2 1986   1.393   0.476   1.741  0.0894 -1.5604 -0.4070
  663SOL     OW 1987   0.863   1.553   2.157 -0.2289 -0.2639  0.8359
  663SOL    HW1 1988   0.780   1.609   2.205 -0.8086  1.0909  1.5770
  663SOL    HW2 1989   0.821   1.484   2.090 -2.8916 -1.2341  2.3047
  664SOL     OW 1990   1.610   2.064   1.369 -0.5362 -0.6086 -0.3196
  664SOL    HW1 1991   1.558   1.984   1.407  0.6377  0.4703 -1.1793
  664SOL    HW2 1992   1.713   2.061   1.391  2.5113  0.4167  0.8086
  665SOL     OW 1993   2.242   0.703   1.994 -0.1934 -0.3679  0.4618
  665SOL    HW1 1994   2.143   0.680   2.018  1.9735  1.0186  0.3955
  665SOL    HW2 1995   2.305   0.686   2.077 -0.8195 -0.9909  0.7860
  666SOL     OW 1996   0.471   2.330   0.314 -0.5939  0.1872 -0.0945
  666SOL    HW1 1997   0.549   2.358   0.378 -2.9479 -0.7497 -0.7112
  666SOL    HW2 1998   0.377   2.315   0.359 -1.9202  1.3356 -1.8600
  667SOL     OW 1999   2.051   0.188   1.114  0.3916  0.1115  0.7029
  667SOL    HW1 2000   2.070   0.288   1.104 -1.4702  0.4372  0.2472
  667SOL    HW2 2001   1.958   0.177   1.158  0.5918  0.8305 -0.4192
  668SOL     OW 2002   2.060   0.465   1.135  0.4418 -0.1312 -0.7358
  668SOL    HW1 2003   2.104   0.515   1.059  0.7837  1.4836 -1.2283
  668SOL    HW2 2004   2.105   0.481   1.225 -1.5124  0.4893 -2.7266
  669SOL     OW 2005   3.075   2.130   1.007 -0.2016  0.1097  0.3812
  669SOL    HW1 2006   3.010   2.170   0.940 -1.9985 -0.4229 -0.4553
  669SOL    HW2 2007   3.119   2.205   1.067  0.0927  2.3204  2.0080
  670SOL     OW 2008   2.888   2.329   2.071  0.2497  0.0460 -0.5703
  670SOL    HW1 2009   2.806   2.294   2.132 -1.5708 -0.5191  0.5169
  670SOL    HW2 2010   2.886   2.431   2.061 -2.2160  2.3950  2.2680
  671SOL     OW 2011   1.738   1.781   1.449 -0.4325 -0.3855  0.0738
  671SOL    HW1 2012   1.732   1.804   1.345  1.1760  0.2376 -1.3800
  671SOL    HW2 2013   1.655   1.819   1.499 -0.0773  0.2011 -0.8615
  672SOL     OW 2014   0.432   0.605   2.378 -0.1098 -0.4886 -0.2069
  672SOL    HW1 2015   0.486   0.628   2.292  3.0646  0.2373  0.4393
  672SOL    HW2 2016   0.347   0.662   2.395  1.7668 -0.9690 -1.0346
  673SOL     OW 2017   0.147   1.210   1.154 -0.3941  0.2217 -0.1410
  673SOL    HW1 2018   0.167   1.271   1.235 -0.7208  1.0131 -0.6616
  673SOL    HW2 2019   0.231   1.157   1.114  0.9234 -1.6936  0.5744
  674SOL     OW 2020   1.678   3.012   0.317 -0.1063  0.3342 -0.3078
  674SOL    HW1 2021   1.653   3.112   0.317  0.1813 -1.4998 -1.5623
  674SOL    HW2 2022   1.728   2.985   0.228 -0.6183 -1.9418  1.0438
  675SOL     OW 2023   1.738   0.808   2.280  0.1182 -0.0260  0.5162
  675SOL    HW1 2024   1.836   0.787   2.304 -1.8720  1.3247 -0.1886
  675SOL    HW2 2025   1.683   0.721   2.271 -0.6192  0.0694 -0.0598
  676SOL     OW 2026   2.547   1.494   1.930  0.3878  0.1550  0.1448
  676SOL    HW1 2027   2.465   1.464   1.867 -4.2491  0.7286 -0.3597
  676SOL    HW2 2028   2.571   1.429   2.008 -1.4987  1.5617 -0.9081
  677SOL     OW 2029   1.888   0.674   0.932 -0.4932 -0.2054 -0.0424
  677SOL    HW1 2030   1.790   0.673   0.957  2.1896  0.2024  0.9786
  677SOL    HW2 2031   1.934   0.583   0.927 -1.3365 -1.2858 -3.7409
  678SOL     OW 2032   0.067   0.733   1.629 -0.2359 -0.2363  0.3913
  678SOL    HW1 2033   0.170   0.753   1.639  0.6810  2.0983  0.5018
  678SOL    HW2 2034   0.023   0.713   1.720  0.2208  0.1569  0.5317
  679SOL     OW 2035   2.520   1.225   1.219  0.0054  0.0900 -0.2438
  679SOL    HW1 2036   2.419   1.256   1.216  1.1504 -1.6466  0.8889
  679SOL    HW2 2037   2.536   1.127   1.188 -2.9853 -0.8531 -0.1559
  680SOL     OW 2038   2.807   0.498   1.701 -0.1227  0.6255 -0.0218
  680SOL    HW1 2039   2.785   0.563   1.626 -1.7963 -0.0127 -1.7618
  680SOL    HW2 2040   2.894   0.521   1.754  0.2071 -0.7828 -0.2812
  681SOL     OW 2041   2.973   0.119   1.590  0.3774 -0.1832 -0.3714
  681SOL    HW1 2042   3.039   0.108   1.515 -0.1744  0.2143  2.2763
  681SOL    HW2 2043   2.895   0.184   1.582 -2.9303 -1.0541  1.3398
  682SOL     OW 2044   0.766   0.056   1.317  0.1629 -0.7693 -0.3925
  682SOL    HW1 2045   0.682   0.012   1.352  1.8514  3.3757  1.0728
  682SOL    HW2 2046   0.790   0.028   1.221  0.8745 -0.1385  1.4285
  683SOL     OW 2047   1.370   0.225   2.181 -0.7166 -0.1638 -0.3438
  683SOL    HW1 2048   1.399   0.227   2.279  1.2218 -0.3101 -1.3552
  683SOL    HW2 2049   1.436   0.284   2.132 -1.3965  1.7064  2.9930
  684SOL     OW 2050   1.492   2.071   0.464  0.0917  0.3913 -0.3819
  684SOL    HW1 2051   1.521   2.034   0.557 -0.4164  1.1585  1.7120
  684SOL    HW2 2052   1.402   2.023   0.444  1.1193  2.6694  0.8273
  685SOL     OW 2053   2.165   2.075   1.925 -0.5141 -0.4145 -0.2217
  685SOL    HW1 2054   2.216   2.084   1.838 -1.6147  1.4946 -0.1820
  685SOL    HW2 2055   2.228   2.037   2.002  2.1575 -2.3077  1.7912
  686SOL     OW 2056   1.503   1.856   2.765  0.0649  0.0105 -0.0820
  686SOL    HW1 2057   1.557   1.793   2.830 -1.3453 -1.9846  0.2421
  686SOL    HW2 2058   1.471   1.804   2.680  1.7615 -0.7083 -1.4181
  687SOL     OW 2059   1.347   2.475   1.951 -0.1633 -0.2875 -0.4729
  687SOL    HW1 2060   1.355   2.370   1.954 -4.5128  1.4677  0.1362
  687SOL    HW2 2061   1.387   2.524   2.033 -0.1506 -1.4506  1.0391
  688SOL     OW 2062   2.007   1.502   1.777 -0.0279 -0.2432 -0.0094
  688SOL    HW1 2063   2.025   1.604   1.790 -0.2056 -1.2448 -2.8745
  688SOL    HW2 2064   2.059   1.473   1.693  1.2774  0.6298 -0.4244
  689SOL     OW 2065   2.387   1.072   2.791 -0.4140  0.3460 -0.6657
  689SOL    HW1 2066   2.295   1.022   2.773 -0.2442  0.2586 -3.1944
  689SOL    HW2 2067   2.438   1.046   2.879 -0.9025 -1.4417  0.4832
  690SOL     OW 2068   2.234   2.814   0.070 -0.3239 -0.8265  0.0420
  690SOL    HW1 2069   2.166   2.780   0.009  3.0613 -0.2980  1.2856
  690SOL    HW2 2070   2.208   2.818   0.171  0.3041 -0.5643  1.1127
  691SOL     OW 2071   2.608   0.411   2.138 -0.8515  0.0313 -0.1757
  691SOL    HW1 2072   2.638   0.316   2.119 -0.3597  2.1616  2.1326
  691SOL    HW2 2073   2.636   0.479   2.058 -0.1395  1.9480  3.3619
  692SOL     OW 2074   2.701   1.267   0.745  0.1910  0.4464  0.0800
  692SOL    HW1 2075   2.677   1.325   0.663  4.0172  1.3338  1.5819
  692SOL    HW2 2076   2.724   1.323   0.832  0.5372  1.1934  1.8013
  693SOL     OW 2077   2.830   2.915   0.649  0.1789  0.3260 -0.0809
  693SOL    HW1 2078   2.825   3.000   0.709  0.0563 -1.2174  0.1649
  693SOL    HW2 2079   2.842   2.950   0.552  1.7750 -0.9913  0.2705
  694SOL     OW 2080   2.414   2.211   0.086  0.3154 -0.5093  0.1671
  694SOL    HW1 2081   2.410   2.280   0.167 -0.4712 -1.3922  1.0954
  694SOL    HW2 2082   2.320   2.196   0.044  1.4223 -1.2745  0.7621
  695SOL     OW 2083   0.547   2.997   1.481 -0.1040  0.3752 -0.1492
  695SOL    HW1 2084   0.485   2.925   1.432  0.6140 -0.8015 -1.0736
  695SOL    HW2 2085   0.509   3.037   1.569 -0.2811  0.9339 -1.4889
  696SOL     OW 2086   2.831   2.076   0.721  0.0076  0.3203 -0.2636
  696SOL    HW1 2087   2.898   1.997   0.733  0.1756  0.5707  1.5303
  696SOL    HW2 2088   2.795   2.081   0.622 -0.7324 -0.6593  1.5077
  697SOL     OW 2089   1.589   1.994   1.855  0.0624  0.0920  0.0462
  697SOL    HW1 2090   1.611   1.896   1.854 -1.4636  3.1431 -0.1869
  697SOL    HW2 2091   1.668   2.059   1.849  1.2630 -1.8355  2.3507
  698SOL     OW 2092   2.935   0.394   2.772 -0.4400  0.4246  0.2180
  698SOL    HW1 2093   2.943   0.395   2.666  2.1003  0.0563  1.4504
  698SOL    HW2 2094   3.016   0.356   2.824  0.5902 -3.8413 -1.6550
  699SOL     OW 2095   1.559   0.072   2.909 -0.1751  0.5069 -0.1178
  699SOL    HW1 2096   1.520  -0.021   2.874  0.8945 -1.8509  0.7486
  699SOL    HW2 2097   1.596   0.134   2.834  2.0111  0.8839 -0.1252
  700SOL     OW 2098   0.993   2.326   1.336  0.5756  0.0791 -0.0131
  700SOL    HW1 2099   1.089   2.290   1.313  0.8238 -0.1146 -1.5471
  700SOL    HW2 2100   0.917   2.267   1.303 -0.7769  2.0424  2.1707
  701SOL     OW 2101   1.880   2.916   3.064 -0.6604 -0.3951 -0.3335
  701SOL    HW1 2102   1.849   2.856   3.147 -2.2254  0.7741 -0.8431
  701SOL    HW2 2103   1.945   2.995   3.091  1.5833 -2.0287  1.9550
  702SOL     OW 2104   2.090   1.318   1.962  0.2232 -0.5962  0.1767
  702SOL    HW1 2105   2.185   1.270   1.955  0.2947  0.2416  0.3134
  702SOL    HW2 2106   2.064   1.373   1.878  2.5784 -1.6303 -1.8209
  703SOL     OW 2107   1.935   0.909   1.438 -0.5340 -0.1857 -0.6122
  703SOL    HW1 2108   1.893   0.841   1.507  0.3763  1.1286  2.2925
  703SOL    HW2 2109   2.000   0.977   1.488  0.9250 -0.2456 -0.4259
  704SOL     OW 2110   0.298   2.036   1.708  0.0667 -0.1219  0.6074
  704SOL    HW1 2111   0.343   1.976   1.777  0.6683 -0.0917 -0.0268
  704SOL    HW2 2112   0.362   2.111   1.666  1.7951  0.4974 -3.0572
  705SOL     OW 2113   2.524   1.556   0.886  0.0897  0.0357  0.7476
  705SOL    HW1 2114   2.444   1.497   0.844  1.5909 -1.6042 -0.3716
  705SOL    HW2 2115   2.611   1.501   0.891  1.0402  2.3373  0.7543
  706SOL     OW 2116   0.640   1.686   1.896 -0.9097 -0.9381 -0.1056
  706SOL    HW1 2117   0.669   1.587   1.923 -0.5313  0.1351  1.1805
  706SOL    HW2 2118   0.708   1.756   1.934  0.0704  0.2835 -0.9623
  707SOL     OW 2119   2.296   1.164   1.868  0.3725 -0.0466 -0.2896
  707SOL    HW1 2120   2.398   1.187   1.858  0.2453 -2.3917 -0.3720
  707SOL    HW2 2121   2.261   1.084   1.812 -0.9800 -1.2702  1.0766
  708SOL     OW 2122   3.032   0.561   3.066  0.8750 -0.1813  0.5484
  708SOL    HW1 2123   3.058   0.607   2.973 -3.0439  2.1889  1.1658
  708SOL    HW2 2124   3.001   0.464   3.049  0.1622  1.4331 -1.5390
  709SOL     OW 2125   1.850   1.839   0.287 -0.0885  0.1598 -0.3614
  709SOL    HW1 2126   1.895   1.926   0.328  1.4494  1.1965  0.0965
  709SOL    HW2 2127   1.846   1.848   0.184  0.4499  0.3142 -2.0655
  710SOL     OW 2128   1.670   1.615   2.386 -0.1321  0.1105  0.3590
  710SOL    HW1 2129   1.730   1.590   2.305 -1.7805  0.3948  0.5416
  710SOL    HW2 2130   1.679   1.561   2.474 -1.1229 -1.4318  0.1354
  711SOL     OW 2131   2.566   2.921   1.051 -0.5798 -0.6821  0.0195
  711SOL    HW1 2132   2.552   3.020   1.012 -0.8694 -0.1266  1.3638
  711SOL    HW2 2133   2.663   2.910   1.089 -1.5400 -2.0476 -0.3987
  712SOL     OW 2134   1.385   2.194   1.955  0.5248  0.3878 -0.0233
  712SOL    HW1 2135   1.476   2.183   1.995  0.0660  0.1565 -1.9818
  712SOL    HW2 2136   1.380   2.147   1.864 -1.6329  0.0137  1.3018
  713SOL     OW 2137   2.821   1.435   2.523  0.5055  0.0208  0.1015
  713SOL    HW1 2138   2.826   1.336   2.494  0.0994  1.0878  1.8747
  713SOL    HW2 2139   2.737   1.462   2.577  0.3599 -0.2444 -1.3801
  714SOL     OW 2140   2.673   0.468   2.394  0.0629  0.5009  0.6859
  714SOL    HW1 2141   2.591   0.454   2.451  3.0040  0.6336  1.3640
  714SOL    HW2 2142   2.663   0.446   2.293 -0.9392  0.5864  1.7429
  715SOL     OW 2143   1.557   2.024   1.111  0.1610  0.6004  0.0320
  715SOL    HW1 2144   1.476   2.079   1.084  0.0303 -0.0176  0.6210
  715SOL    HW2 2145   1.587   2.048   1.210  1.0223 -0.5021 -0.0723
  716SOL     OW 2146   1.171   0.162   1.495  0.1844  0.6129 -0.1863
  716SOL    HW1 2147   1.078   0.193   1.457 -4.9221  0.5521 -1.5327
  716SOL    HW2 2148   1.229   0.246   1.497 -0.7857  0.7415 -1.4509
  717SOL     OW 2149   1.175   0.565   1.538 -0.4896 -0.2701 -0.0462
  717SOL    HW1 2150   1.250   0.637   1.559  2.1736  2.7853 -0.1271
  717SOL    HW2 2151   1.151   0.568   1.434  1.1287  0.3677 -1.3360
  718SOL     OW 2152   0.689   0.887   0.999 -0.4182 -0.2033  0.1255
  718SOL    HW1 2153   0.647   0.878   0.905  1.9579 -0.8023 -0.2207
  718SOL    HW2 2154   0.695   0.988   1.027  1.1758  2.7930 -0.7116
  719SOL     OW 2155   0.638   1.691   2.343 -0.4478 -0.0815 -0.2559
  719SOL    HW1 2156   0.705   1.751   2.400 -3.2722  0.8093 -2.8195
  719SOL    HW2 2157   0.558   1.673   2.400  2.1391  0.2259  0.5580
  720SOL     OW 2158   2.172   1.120   0.295  0.0078  0.4142 -0.2061
  720SOL    HW1 2159   2.240   1.062   0.249  0.3442 -0.4334 -0.9805
  720SOL    HW2 2160   2.142   1.085   0.386 -0.3397 -0.0064 -0.1519
  721SOL     OW 2161   2.298   3.006   2.065  0.0764 -0.3647  0.1897
  721SOL    HW1 2162   2.268   3.065   1.985  0.7763 -0.7367  1.6595
  721SOL    HW2 2163   2.241   3.032   2.146  0.1828  4.4535 -2.0073
  722SOL     OW 2164   2.277   1.588   0.503  0.3339  0.2099 -0.5312
  722SOL    HW1 2165   2.328   1.600   0.413 -0.3137 -0.9829 -0.0199
  722SOL    HW2 2166   2.181   1.624   0.492  1.9818 -0.1105  1.6035
  723SOL     OW 2167   2.601   2.736   1.900 -0.0952  0.4836  0.7720
  723SOL    HW1 2168   2.650   2.796   1.971 -0.7245 -1.6079  0.5795
  723SOL    HW2 2169   2.499   2.723   1.921 -0.0263 -0.8419  0.0556
  724SOL     OW 2170   0.500   2.491   2.399 -0.2304  0.1086 -0.2318
  724SOL    HW1 2171   0.406   2.493   2.443  1.6125 -0.3812  0.9633
  724SOL    HW2 2172   0.572   2.510   2.473  1.4866  1.4821 -1.1423
  725SOL     OW 2173   2.338   2.765   1.485  0.3045  0.6090  0.5217
  725SOL    HW1 2174   2.397   2.816   1.420 -3.1932 -2.6524  0.7357
  725SOL    HW2 2175   2.372   2.669   1.509 -0.7150  2.2646 -0.3091
  726SOL     OW 2176   2.535   2.346   0.735  0.9603  0.1544  0.3466
  726SOL    HW1 2177   2.486   2.425   0.695 -0.5882 -3.6926  2.2142
  726SOL    HW2 2178   2.504   2.259   0.681 -1.6849 -3.0116  1.7596
  727SOL     OW 2179   0.148   3.058   0.055 -0.4597  0.1386 -0.7333
  727SOL    HW1 2180   0.201   2.990   0.006  0.4714  2.1963 -2.1010
  727SOL    HW2 2181   0.080   3.106  -0.008 -0.7824 -0.1845  0.8116
  728SOL     OW 2182   2.919   0.654   0.936  0.0366 -0.3384  0.5478
  728SOL    HW1 2183   2.832   0.653   0.879 -2.4748  3.2633  2.3784
  728SOL    HW2 2184   2.892   0.638   1.038 -1.1100  1.8019  0.9029
  729SOL     OW 2185   3.069   2.544   0.711  0.4523 -0.5977 -0.1292
  729SOL    HW1 2186   3.027   2.450   0.717 -0.1417 -0.8023 -0.4633
  729SOL    HW2 2187   3.173   2.546   0.681 -0.4687  2.0380  2.0902
  730SOL     OW 2188   2.626   0.699   0.862 -0.0526  0.0719  0.2754
  730SOL    HW1 2189   2.589   0.800   0.875  0.3731  1.5183  0.0236
  730SOL    HW2 2190   2.676   0.683   0.770  1.4483 -0.9864 -0.2581
  731SOL     OW 2191   0.008   2.115   2.413  0.4860 -0.6288  0.0403
  731SOL    HW1 2192   0.019   2.179   2.494 -3.2564 -3.1766  2.0727
  731SOL    HW2 2193  -0.088   2.121   2.373 -0.2374 -1.9741  1.3384
  732SOL     OW 2194   1.234   2.833   1.969 -0.0085  0.3242 -0.2817
  732SOL    HW1 2195   1.205   2.781   2.054  0.1902  0.3557 -1.4262
  732SOL    HW2 2196   1.215   2.787   1.878  2.9341  1.4974  0.3532
  733SOL     OW 2197   3.012   0.608   2.233  0.7691 -0.4537 -0.0392
  733SOL    HW1 2198   3.113   0.612   2.218 -2.9126  1.0985 -0.1936
  733SOL    HW2 2199   2.958   0.551   2.163 -1.7097 -2.3610  1.2976
  734SOL     OW 2200   1.409   0.386   2.700  0.1195  0.1011 -0.5187
  734SOL    HW1 2201   1.415   0.472   2.760  0.0686  1.3883  0.2770
  734SOL    HW2 2202   1.363   0.305   2.742  1.5329 -0.1659  1.8033
  735SOL     OW 2203   2.885   2.638   2.304  0.1184  0.1317 -0.6641
  735SOL    HW1 2204   2.869   2.607   2.205 -0.4445 -0.4072 -1.2127
  735SOL    HW2 2205   2.984   2.678   2.314  0.9020 -1.5177  3.3194
  736SOL     OW 2206   0.873   0.365   2.568 -0.7346 -0.3524  0.0344
  736SOL    HW1 2207   0.773   0.386   2.556  1.4672  1.1020 -3.5951
  736SOL    HW2 2208   0.894   0.309   2.486  0.6027 -1.7193  1.2531
  737SOL     OW 2209   2.632   0.435   2.839 -0.2366  0.1753  0.4361
  737SOL    HW1 2210   2.607   0.429   2.942 -0.3668 -1.6504  0.9016
  737SOL    HW2 2211   2.731   0.411   2.829 -0.5966 -2.2653 -2.0308
  738SOL     OW 2212   1.670   1.244   2.900 -0.2564 -0.3025 -0.2078
  738SOL    HW1 2213   1.769   1.239   2.875 -1.7986 -0.5489  1.0631
  738SOL    HW2 2214   1.624   1.164   2.858  2.0984  0.3663  1.6623
  739SOL     OW 2215   1.753   0.718   0.695 -0.0215 -0.5700  0.3695
  739SOL    HW1 2216   1.810   0.722   0.784  0.5320 -1.1429  0.9609
  739SOL    HW2 2217   1.732   0.616   0.665 -1.6940 -2.2164 -1.4549
  740SOL     OW 2218   1.987   1.936   2.382 -0.2638 -0.0436  0.1122
  740SOL    HW1 2219   2.038   1.854   2.412  0.6029 -1.3904 -1.4198
  740SOL    HW2 2220   1.903   1.918   2.324 -0.0520 -2.2243  1.7221
  741SOL     OW 2221   2.557   0.119   2.560 -0.6639 -1.1050  0.9960
  741SOL    HW1 2222   2.661   0.126   2.548  1.2197 -0.2408 -1.1227
  741SOL    HW2 2223   2.516   0.049   2.500  0.7275 -0.7424  0.2863
  742SOL     OW 2224   2.201   1.384   0.188  0.0241 -0.1122  0.8260
  742SOL    HW1 2225   2.114   1.437   0.171  1.0046  4.9187 -0.7399
  742SOL    HW2 2226   2.184   1.293   0.236  2.0376 -2.8754 -0.2494
  743SOL     OW 2227   1.786   0.619   2.590  0.1819  0.3231 -0.2524
  743SOL    HW1 2228   1.794   0.550   2.515 -0.5569  0.7002  0.4695
  743SOL    HW2 2229   1.718   0.688   2.574  0.2228  1.6796 -3.5046
  744SOL     OW 2230   2.639   2.044   0.096 -0.3533  0.9635  0.2529
  744SOL    HW1 2231   2.554   2.104   0.098 -3.3733 -1.9638 -2.4785
  744SOL    HW2 2232   2.612   1.949   0.141 -2.2080 -4.6502 -0.5735
  745SOL     OW 2233   2.174   2.654   2.165  0.1084  0.6566  0.0645
  745SOL    HW1 2234   2.079   2.663   2.196  2.9870  0.5492  2.7635
  745SOL    HW2 2235   2.245   2.668   2.237 -0.7523 -2.5495 -0.3320
  746SOL     OW 2236   3.082   2.628   1.704 -0.2464  0.0065 -0.0426
  746SOL    HW1 2237   3.167   2.604   1.648  1.0525 -0.2010 -2.3982
  746SOL    HW2 2238   3.101   2.715   1.755 -0.1040  0.2923  0.0967
  747SOL     OW 2239   3.081   1.742   1.750  0.3236  0.0449  0.4713
  747SOL    HW1 2240   3.030   1.660   1.706  1.0940  1.0594  1.9721
  747SOL    HW2 2241   3.155   1.769   1.685 -0.2642 -0.1032  0.1814
  748SOL     OW 2242   1.825   2.718   2.895  0.3936  0.2722  0.2272
  748SOL    HW1 2243   1.850   2.799   2.960  1.6862  1.6585 -2.0738
  748SOL    HW2 2244   1.722   2.725   2.868 -1.2782 -1.5641 -1.8180
  749SOL     OW 2245   1.357   2.998   0.850  0.2008 -0.4237 -0.4247
  749SOL    HW1 2246   1.259   2.983   0.815  0.5251 -0.8582  0.5716
  749SOL    HW2 2247   1.427   2.950   0.798  1.5043 -0.7906  0.0194
  750SOL     OW 2248   2.321   0.193   1.845 -0.2751 -0.4519 -0.3529
  750SOL    HW1 2249   2.357   0.272   1.782  0.8212  1.2073  2.2625
  750SOL    HW2 2250   2.304   0.234   1.940  3.2078  0.4953 -0.1386
  751SOL     OW 2251   0.838   2.038   2.812  0.6221  0.4421 -0.2343
  751SOL    HW1 2252   0.878   2.079   2.896 -0.0855  3.5510 -2.5691
  751SOL    HW2 2253   0.735   2.040   2.820 -0.2561  0.8211  0.5783
  752SOL     OW 2254   1.326   0.805   1.255  0.0532  0.2203 -0.2276
  752SOL    HW1 2255   1.391   0.884   1.248 -2.9401  1.4525 -1.3390
  752SOL    HW2 2256   1.363   0.722   1.309  0.5101 -0.4876 -1.2021
  753SOL     OW 2257   0.939   2.629   1.732 -0.2735  0.1544 -0.9284
  753SOL    HW1 2258   1.036   2.657   1.741 -0.5243 -0.9943 -0.7022
  753SOL    HW2 2259   0.873   2.705   1.706  1.3306 -0.9086 -1.3964
  754SOL     OW 2260   1.151   1.187   2.999 -0.3599  0.2640 -0.0993
  754SOL    HW1 2261   1.202   1.127   2.928  0.1624  0.5087 -4.2740
  754SOL    HW2 2262   1.187   1.284   2.999  0.6885  3.3864  1.2292
  755SOL     OW 2263   1.995   0.492   2.233  0.5311 -0.6426  0.0206
  755SOL    HW1 2264   2.055   0.410   2.227  0.2272 -0.9474  0.5023
  755SOL    HW2 2265   1.901   0.463   2.277 -1.5130 -0.1253 -1.0084
  756SOL     OW 2266   2.590   0.972   2.964 -0.0670 -0.2016  0.0541
  756SOL    HW1 2267   2.690   0.951   2.971 -2.3517  1.5944  2.8659
  756SOL    HW2 2268   2.540   0.898   3.020  0.6326  0.4653  1.1163
  757SOL     OW 2269   0.100   0.484   1.985  0.0994  0.1446 -0.3402
  757SOL    HW1 2270   0.160   0.406   1.947  3.8710 -2.7002 -1.6188
  757SOL    HW2 2271   0.006   0.451   2.002  0.2174 -0.7788  0.3681
  758SOL     OW 2272   2.246   0.130   1.476 -0.1269 -0.4559  0.1312
  758SOL    HW1 2273   2.227   0.028   1.496  0.4578 -1.1875  0.9874
  758SOL    HW2 2274   2.294   0.144   1.383  1.4300  0.0276 -1.0015
  759SOL     OW 2275   1.681   0.116   0.055  0.5978 -0.1074  0.1761
  759SOL    HW1 2276   1.646   0.110  -0.041  1.6511 -0.2579  2.0828
  759SOL    HW2 2277   1.786   0.116   0.062  1.8071  1.8489 -0.7533
  760SOL     OW 2278   2.625   2.063   2.817  0.2550 -0.1765 -0.1140
  760SOL    HW1 2279   2.675   1.988   2.867  2.6745  0.0714 -0.4783
  760SOL    HW2 2280   2.598   2.145   2.875 -0.7839 -2.8238 -1.0751
  761SOL     OW 2281   1.873   1.767   1.700  0.0334  0.0250 -0.2655
  761SOL    HW1 2282   1.866   1.667   1.723  0.1957  1.1091 -2.7193
  761SOL    HW2 2283   1.809   1.788   1.617 -1.0954 -2.4952  2.4586
  762SOL     OW 2284   0.500   2.346   0.955  0.3767  0.0557  0.1082
  762SOL    HW1 2285   0.542   2.335   0.862  1.6951 -1.2453 -1.0407
  762SOL    HW2 2286   0.562   2.407   1.015  0.1317  0.6175 -1.7279
  763SOL     OW 2287   2.087   1.577   2.973  0.1905 -0.1845  0.1586
  763SOL    HW1 2288   2.173   1.524   2.955 -2.7763  0.7627 -0.1266
  763SOL    HW2 2289   2.031   1.542   3.054 -1.4077  0.6533 -2.9302
  764SOL     OW 2290   0.659   0.592   0.793 -0.2113  0.0291  0.4890
  764SOL    HW1 2291   0.589   0.516   0.765  0.2546  0.8386 -0.9574
  764SOL    HW2 2292   0.752   0.555   0.820  0.5489 -1.7724 -0.8532
  765SOL     OW 2293   0.739   0.235   0.796 -0.3561  0.1147 -0.3779
  765SOL    HW1 2294   0.791   0.301   0.733  1.4483 -1.3424  1.4624
  765SOL    HW2 2295   0.699   0.269   0.882 -0.5592  0.8595  2.0472
  766SOL     OW 2296   2.860   2.112   3.044 -0.0758 -0.7494  1.0484
  766SOL    HW1 2297   2.777   2.082   3.102 -0.3845  0.6420 -0.0959
  766SOL    HW2 2298   2.913   2.199   3.078  0.1347  1.3568 -1.5334
  767SOL     OW 2299   2.792   1.669   0.596 -0.1221 -0.1307  0.1527
  767SOL    HW1 2300   2.699   1.690   0.625  2.4646  2.3345  1.5013
  767SOL    HW2 2301   2.864   1.690   0.667 -2.2386 -0.9287 -1.5177
  768SOL     OW 2302   0.946   0.088   0.221 -0.6013 -0.6590  0.2603
  768SOL    HW1 2303   0.907   0.086   0.317  2.2978 -2.2455 -1.6867
  768SOL    HW2 2304   1.049   0.098   0.217  1.6624 -1.3214  1.3115
  769SOL     OW 2305   1.119   1.912   2.307 -0.0466  0.4885  0.0433
  769SOL    HW1 2306   1.021   1.950   2.310 -1.2807  1.6021  0.2891
  769SOL    HW2 2307   1.162   1.888   2.398 -1.5556  1.9286 -1.0283
  770SOL     OW 2308   0.184   1.205   2.284 -0.1376 -0.1472 -0.1822
  770SOL    HW1 2309   0.194   1.259   2.372 -1.6642  2.5149  0.5256
  770SOL    HW2 2310   0.086   1.202   2.251  0.4633 -0.6900  0.1593
  771SOL     OW 2311   3.023   2.866   1.883 -0.2087 -0.2988 -0.4586
  771SOL    HW1 2312   2.976   2.923   1.809 -2.8462  0.1577 -0.2892
  771SOL    HW2 2313   2.956   2.842   1.961 -0.5623 -0.2082 -0.6881
  772SOL     OW 2314   2.224   0.138   2.917  0.4052 -0.3577  0.0314
  772SOL    HW1 2315   2.300   0.090   2.863  0.8716  0.9293 -1.0103
  772SOL    HW2 2316   2.269   0.196   2.995 -0.6431  1.0664  2.5862
  773SOL     OW 2317   0.694   2.136   2.420  0.9004  0.1765  0.7896
  773SOL    HW1 2318   0.664   2.179   2.326  0.1458  0.5358 -0.4784
  773SOL    HW2 2319   0.626   2.138   2.498 -1.0347 -0.8293 -2.7138
  774SOL     OW 2320   2.065   3.095   2.589 -0.1650 -0.0283  0.0141
  774SOL    HW1 2321   2.031   3.172   2.640 -0.9140 -2.3480 -0.4387
  774SOL    HW2 2322   2.101   3.023   2.660  0.9251 -1.8588  0.2693
  775SOL     OW 2323   2.542   2.932   2.302 -0.4500 -0.3381  0.3338
  775SOL    HW1 2324   2.518   3.034   2.292 -0.9630  0.0117 -0.0343
  775SOL    HW2 2325   2.616   2.914   2.375  0.2531  0.9159  3.6947
  776SOL     OW 2326   0.038   1.246   0.241  0.5344 -0.3678  0.0126
  776SOL    HW1 2327  -0.010   1.211   0.155 -0.9636 -0.0764 -0.8518
  776SOL    HW2 2328  -0.025   1.235   0.323  1.8622  1.8499  0.0224
  777SOL     OW 2329   0.372   2.821   0.355 -0.3170 -0.4457  0.0972
  777SOL    HW1 2330   0.273   2.846   0.349  0.8463 -3.0494  1.8185
  777SOL    HW2 2331   0.439   2.887   0.320 -2.5747 -2.7897  0.8943
  778SOL     OW 2332   1.349   1.976   0.161  0.0348 -0.3853 -0.2902
  778SOL    HW1 2333   1.276   1.987   0.229  0.7135 -2.1003  1.5738
  778SOL    HW2 2334   1.375   2.071   0.122 -0.1233  1.5998  1.0343
  779SOL     OW 2335   0.195   0.861   0.510  0.2522 -0.3049 -0.5673
  779SOL    HW1 2336   0.162   0.766   0.484  0.4481  1.3190  0.4409
  779SOL    HW2 2337   0.121   0.922   0.561 -1.5599 -0.3178  2.6627
  780SOL     OW 2338   0.072   0.248   2.384 -0.7792 -0.5724  0.0583
  780SOL    HW1 2339   0.032   0.328   2.442  0.6169  1.3453  0.9623
  780SOL    HW2 2340   0.171   0.265   2.358 -1.2702 -2.3177  0.6117
  781SOL     OW 2341   0.658   1.656   1.506 -0.4265  0.2045  0.1149
  781SOL    HW1 2342   0.729   1.601   1.558  0.3798 -0.3151 -1.0229
  781SOL    HW2 2343   0.559   1.633   1.528  2.1971  0.3909  1.7017
  782SOL     OW 2344   2.571   0.073   0.948 -0.1170 -0.1594 -0.3805
  782SOL    HW1 2345   2.518   0.102   0.865  0.3077  1.0493  1.4780
  782SOL    HW2 2346   2.583   0.145   1.029 -0.3229 -1.3347 -0.5671
  783SOL     OW 2347   2.803   0.702   2.498  0.4425 -0.0419  0.3366
  783SOL    HW1 2348   2.781   0.720   2.599 -0.6144  0.6756  3.4607
  783SOL    HW2 2349   2.739   0.627   2.455 -0.3249 -0.9944 -1.3111
  784SOL     OW 2350   1.451   2.221   0.045  0.1209  0.0995  0.0124
  784SOL    HW1 2351   1.505   2.300   0.071  0.3477 -3.1700 -0.4260
  784SOL    HW2 2352   1.403   2.233  -0.050  0.1043  1.5301 -1.2694
  785SOL     OW 2353   2.119   0.334   0.079  0.4781  0.0548  0.2113
  785SOL    HW1 2354   2.051   0.340   0.162 -0.6330 -0.6894  3.7721
  785SOL    HW2 2355   2.127   0.425   0.024 -0.1584  1.7906  1.2240
  786SOL     OW 2356   2.049   2.206   2.274  0.1557  0.0662 -1.0044
  786SOL    HW1 2357   2.019   2.113   2.311 -0.7819  0.5402 -0.0395
  786SOL    HW2 2358   2.113   2.185   2.202  2.1699  2.9468 -0.5755
  787SOL     OW 2359   1.336   0.493   0.977  0.3624  0.1106 -0.0114
  787SOL    HW1 2360   1.286   0.586   0.994 -0.1962  1.9459  1.9375
  787SOL    HW2 2361   1.378   0.491   0.887  0.2008 -0.4569  0.4687
  788SOL     OW 2362   1.261   0.431   0.089  0.0961 -0.1887 -0.3686
  788SOL    HW1 2363   1.167   0.396   0.059 -0.2028  0.4675  3.1571
  788SOL    HW2 2364   1.263   0.520   0.150 -1.5606  0.7653 -3.1985
  789SOL     OW 2365   2.539   0.088   1.948 -0.1784 -0.1170 -0.0883
  789SOL    HW1 2366   2.451   0.127   1.910  0.1468  2.6305 -0.0820
  789SOL    HW2 2367   2.544  -0.014   1.926  0.9870  4.3669  1.2403
  790SOL     OW 2368   2.653   2.771   0.828  0.3872 -0.8994 -0.0331
  790SOL    HW1 2369   2.696   2.812   0.746  0.2599 -2.2590  1.3080
  790SOL    HW2 2370   2.673   2.817   0.919  0.1986 -0.9163  2.7196
  791SOL     OW 2371   1.933   1.197   0.185  0.1974 -0.0931  0.4123
  791SOL    HW1 2372   1.848   1.147   0.215  0.1717  1.2084 -0.2915
  791SOL    HW2 2373   2.023   1.161   0.229 -0.1337  2.1950 -1.0810
  792SOL     OW 2374   0.452   1.812   2.186 -0.0677  0.5945 -0.2569
  792SOL    HW1 2375   0.517   1.763   2.250 -2.6177  0.8152 -0.1164
  792SOL    HW2 2376   0.353   1.823   2.219 -0.4736  2.7263 -1.5883
  793SOL     OW 2377   2.087   1.541   2.125 -0.4098 -0.1634 -0.2068
  793SOL    HW1 2378   2.175   1.592   2.093  3.1067 -0.9122 -1.6677
  793SOL    HW2 2379   2.082   1.441   2.089 -2.6923 -1.3090  0.7248
  794SOL     OW 2380   0.515   1.391   2.358 -0.2286 -0.4620  0.5452
  794SOL    HW1 2381   0.526   1.349   2.265  1.5733 -1.1949 -1.1504
  794SOL    HW2 2382   0.457   1.478   2.351 -0.5822  2.6898 -1.4723
  795SOL     OW 2383   2.499   2.247   1.849  0.0699  0.0934  0.1391
  795SOL    HW1 2384   2.499   2.220   1.949 -1.1270  0.1963  1.1530
  795SOL    HW2 2385   2.428   2.198   1.790  0.1277 -0.6887  0.1003
  796SOL     OW 2386   3.065   1.130   2.700 -0.4100  0.2061  0.1546
  796SOL    HW1 2387   2.959   1.145   2.708  0.4881 -0.2440  2.4911
  796SOL    HW2 2388   3.111   1.146   2.795 -0.7777  0.0424  1.7078
  797SOL     OW 2389   0.761   0.641   1.407  0.1799 -0.1339  0.1736
  797SOL    HW1 2390   0.842   0.686   1.461  0.4471  0.0794 -0.0968
  797SOL    HW2 2391   0.709   0.718   1.357 -1.7218 -1.2300  0.1117
  798SOL     OW 2392   1.282   0.299   1.168  0.5607 -0.2980 -0.1607
  798SOL    HW1 2393   1.356   0.307   1.238  0.0170  2.1144  1.7543
  798SOL    HW2 2394   1.295   0.373   1.086  1.0611  1.2051 -2.8472
  799SOL     OW 2395   1.966   2.734   1.040  0.0577  0.2993 -0.4023
  799SOL    HW1 2396   1.920   2.693   1.120 -0.5062  1.0545  1.2267
  799SOL    HW2 2397   1.904   2.730   0.954 -2.3636 -0.3112 -0.2963
  800SOL     OW 2398   3.026   0.650   1.841 -0.3594  0.4181  0.0277
  800SOL    HW1 2399   2.966   0.718   1.890 -2.0451  0.5615 -0.6234
  800SOL    HW2 2400   3.100   0.617   1.906  1.3720  0.9214  1.8781
  801SOL     OW 2401   1.978   2.244   0.086 -0.4966  0.3834 -0.1076
  801SOL    HW1 2402   1.891   2.226   0.033 -0.0052 -0.2037  2.0977
  801SOL    HW2 2403   2.047   2.164   0.069  0.0052 -1.1932  1.1941
  802SOL     OW 2404   0.708   0.829   2.543  0.0836  0.1054  0.1745
  802SOL    HW1 2405   0.760   0.782   2.466 -0.3155 -0.1785  2.3556
  802SOL    HW2 2406   0.607   0.844   2.528 -2.0632  1.5063 -1.3349
  803SOL     OW 2407   0.954   0.050   0.854 -0.1888 -0.5762 -0.0675
  803SOL    HW1 2408   1.044   0.105   0.847  3.5896 -2.9553  0.5750
  803SOL    HW2 2409   0.873   0.109   0.820 -0.5126  0.4171 -0.2593
  804SOL     OW 2410   0.281   0.049   2.136  0.4599  0.0671  0.1695
  804SOL    HW1 2411   0.284   0.144   2.173 -0.7458 -0.1870 -2.3582
  804SOL    HW2 2412   0.212   0.038   2.060  0.1759  0.7644  0.9628
  805SOL     OW 2413   2.385   0.275   0.361  0.0068  0.7512  0.0593
  805SOL    HW1 2414   2.420   0.321   0.445 -0.0469  1.4931 -0.0826
  805SOL    HW2 2415   2.456   0.274   0.287  0.1133  1.8487 -0.9076
  806SOL     OW 2416   0.622   2.438   1.720 -0.4835  0.1054  0.7247
  806SOL    HW1 2417   0.620   2.540   1.742 -1.4715  0.6984  1.0238
  806SOL    HW2 2418   0.710   2.407   1.671  0.4743 -0.0210  2.8431
  807SOL     OW 2419   2.473   0.877   0.389  0.2686 -0.6725 -0.0116
  807SOL    HW1 2420   2.563   0.884   0.442 -0.3040  0.2360 -0.5919
  807SOL    HW2 2421   2.481   0.942   0.310 -0.1670  0.1870 -0.2926
  808SOL     OW 2422   0.551   2.055   2.922 -0.2570  0.3112 -0.3654
  808SOL    HW1 2423   0.539   2.087   3.021 -0.3897  0.2649  0.4595
  808SOL    HW2 2424   0.523   1.953   2.914  0.0066  0.1964 -0.0747
  809SOL     OW 2425   2.701   1.959   1.931 -0.2470  0.1615 -0.3301
  809SOL    HW1 2426   2.791   2.012   1.922 -0.2557  1.9115 -0.7537
  809SOL    HW2 2427   2.636   1.965   1.852  0.6750  1.6984  0.5249
  810SOL     OW 2428   2.088   1.053   0.533 -0.3090 -0.1312  0.3326
  810SOL    HW1 2429   2.158   1.008   0.595  0.0090  0.6811  0.3610
  810SOL    HW2 2430   2.047   1.140   0.571 -2.0347  0.0012 -0.3059
  811SOL     OW 2431   1.342   2.505   1.242 -0.0377 -0.0071 -0.5684
  811SOL    HW1 2432   1.290   2.419   1.254  0.8517  2.0821  0.7732
  811SOL    HW2 2433   1.288   2.595   1.253 -0.5098  1.6603  1.2740
  812SOL     OW 2434   1.422   0.814   1.950  0.1729 -0.1894  0.8707
  812SOL    HW1 2435   1.496   0.848   2.018  3.4536 -0.8604  1.2384
  812SOL    HW2 2436   1.349   0.887   1.923 -4.2788 -0.1302 -2.1787
  813SOL     OW 2437   1.728   2.054   2.503 -0.3582 -0.2579 -0.0654
  813SOL    HW1 2438   1.821   2.007   2.504 -2.6340 -0.3175  2.7923
  813SOL    HW2 2439   1.684   2.040   2.414  0.2533 -1.4335  2.6952
  814SOL     OW 2440   2.920   1.536   2.847  0.0022  0.4135 -0.2274
  814SOL    HW1 2441   2.990   1.501   2.918  0.2606 -0.5819  0.8813
  814SOL    HW2 2442   2.947   1.631   2.813 -0.2442  1.1211 -0.5086
  815SOL     OW 2443   2.152   2.932   2.787 -0.3620  0.2648 -0.3762
  815SOL    HW1 2444   2.107   2.882   2.864 -2.1545  0.5080 -1.8458
  815SOL    HW2 2445   2.257   2.920   2.801  1.7592  0.8283  1.2152
  816SOL     OW 2446   1.645   0.322   1.635  0.2156 -0.3002 -0.6155
  816SOL    HW1 2447   1.700   0.235   1.647 -0.5289  2.7005  1.5735
  816SOL    HW2 2448   1.559   0.326   1.693 -0.5617 -0.2548  0.8451
  817SOL     OW 2449   0.408   1.231   2.560 -0.1518 -0.3339  0.0889
  817SOL    HW1 2450   0.321   1.281   2.585 -1.3888  0.5729 -1.0682
  817SOL    HW2 2451   0.461   1.293   2.490  2.3306  1.3061  0.7436
  818SOL     OW 2452   1.917   0.833   0.456 -0.1112  0.4768 -0.4633
  818SOL    HW1 2453   1.979   0.900   0.502 -0.1163 -0.7272 -0.7778
  818SOL    HW2 2454   1.857   0.791   0.533 -0.9757 -0.0183  0.7749
  819SOL     OW 2455   2.746   2.978   3.007 -0.2066  0.3810  0.0351
  819SOL    HW1 2456   2.806   2.894   2.998  0.7270 -0.8946  0.9870
  819SOL    HW2 2457   2.665   2.980   2.946 -2.2573 -0.9597 -0.5752
  820SOL     OW 2458   1.262   1.100   0.690 -0.1280  0.2804  0.5107
  820SOL    HW1 2459   1.217   1.190   0.703  0.8952  0.0125 -2.0459
  820SOL    HW2 2460   1.224   1.022   0.750 -2.6041 -4.4841  2.0435
  821SOL     OW 2461   3.077   1.328   0.665 -0.4018 -0.7968  0.4217
  821SOL    HW1 2462   3.046   1.319   0.763  2.7755  2.8308  0.7049
  821SOL    HW2 2463   3.144   1.405   0.648  1.1412  1.9310 -0.2201
  822SOL     OW 2464   2.557   1.738   2.462  0.6612 -0.3774 -0.3478
  822SOL    HW1 2465   2.559   1.823   2.521 -0.2458 -0.0142  0.9923
  822SOL    HW2 2466   2.488   1.742   2.386  2.7107  1.1003  1.0954
  823SOL     OW 2467   2.099   0.888   1.209  0.2868  0.3625  0.3436
  823SOL    HW1 2468   2.074   0.900   1.310 -2.2445 -1.1732  2.8402
  823SOL    HW2 2469   2.024   0.928   1.149  1.6068  0.5371 -1.2009
  824SOL     OW 2470   0.207   2.074   2.789  0.5381  0.2561 -0.0350
  824SOL    HW1 2471   0.163   2.006   2.851 -0.7477  0.6867  0.5065
  824SOL    HW2 2472   0.266   2.036   2.717 -3.7838 -1.9304 -0.0152
  825SOL     OW 2473   1.290   1.081   0.251  0.3321 -0.0327  0.0089
  825SOL    HW1 2474   1.334   1.179   0.250  1.9424  0.3112 -0.6982
  825SOL    HW2 2475   1.198   1.081   0.302 -3.1600  1.7911 -1.1296
  826SOL     OW 2476   1.893   0.700   1.625 -0.2704 -0.0179 -0.1142
  826SOL    HW1 2477   1.988   0.658   1.623 -0.8767  0.5860  0.7988
  826SOL    HW2 2478   1.817   0.646   1.574  2.3221 -0.0941 -1.4724
  827SOL     OW 2479   0.663   1.275   0.261  0.3717 -0.6427 -0.4327
  827SOL    HW1 2480   0.732   1.204   0.233  0.9028 -1.6167 -1.9662
  827SOL    HW2 2481   0.651   1.269   0.361 -2.9420 -2.2882 -2.0909
  828SOL     OW 2482   2.517   0.084   1.593  0.3807  0.3105  0.1102
  828SOL    HW1 2483   2.419   0.106   1.573  0.6291 -0.0376  0.5079
  828SOL    HW2 2484   2.520   0.002   1.658 -1.3307 -0.7219 -1.1451
  829SOL     OW 2485   2.780   2.465   3.004 -0.4773  0.1542 -0.0098
  829SOL    HW1 2486   2.711   2.387   2.991 -2.6728  1.9113 -0.7026
  829SOL    HW2 2487   2.752   2.537   3.074  1.2657 -1.1910  0.7617
  830SOL     OW 2488   2.854   0.950   2.993  0.2291  0.7415 -0.3067
  830SOL    HW1 2489   2.919   1.021   3.027 -0.1167  1.8856 -0.7548
  830SOL    HW2 2490   2.843   0.876   3.060  0.8487  0.2532 -0.6264
  831SOL     OW 2491   0.086   0.629   0.419 -0.9512 -0.2370 -0.4994
  831SOL    HW1 2492   0.051   0.542   0.463  1.9098 -0.0502 -0.0288
  831SOL    HW2 2493   0.117   0.615   0.323  1.0495 -3.5160  0.3924
  832SOL     OW 2494   1.775   0.744   3.010  0.1619  0.0098 -0.5020
  832SOL    HW1 2495   1.678   0.774   2.990 -1.0867 -0.0103  0.0993
  832SOL    HW2 2496   1.789   0.640   3.026  1.3411 -1.3378  0.3514
  833SOL     OW 2497   2.432   2.178   0.540  0.4726 -0.2993  0.0724
  833SOL    HW1 2498   2.347   2.206   0.494  0.2157  0.6665 -0.3262
  833SOL    HW2 2499   2.455   2.082   0.513  1.5991  1.5158 -0.1144
  834SOL     OW 2500   0.208   0.219   0.554 -0.2761 -0.0208  0.0888
  834SOL    HW1 2501   0.238   0.118   0.571  0.0718 -0.8328  1.1595
  834SOL    HW2 2502   0.149   0.228   0.468  1.5811  0.2293  3.5859
  835SOL     OW 2503   2.398   1.544   1.126 -0.1072  0.1487 -0.7772
  835SOL    HW1 2504   2.373   1.633   1.178 -2.6276 -0.1625  1.5215
  835SOL    HW2 2505   2.457   1.558   1.043  0.1611 -2.9245  0.8222
  836SOL     OW 2506   1.596   0.818   2.537 -0.4961  0.1333  0.6134
  836SOL    HW1 2507   1.496   0.832   2.560  0.8112  0.2345 -1.5570
  836SOL    HW2 2508   1.630   0.860   2.449  1.9617 -0.6343  3.2563
  837SOL     OW 2509   1.711   0.120   0.557 -0.5551  0.1020 -0.4182
  837SOL    HW1 2510   1.657   0.170   0.627 -0.2202 -2.2748 -1.4955
  837SOL    HW2 2511   1.653   0.082   0.481 -1.1533 -1.1671 -2.1370
  838SOL     OW 2512   1.174   1.555   2.807  0.6802  0.0971 -0.1284
  838SOL    HW1 2513   1.156   1.528   2.906  1.6220  1.2336  0.5064
  838SOL    HW2 2514   1.104   1.510   2.743  0.7643  0.0291 -0.4039
  839SOL     OW 2515   1.662   0.327   0.995  0.2699 -0.3806  0.3634
  839SOL    HW1 2516   1.707   0.380   1.069 -0.1692 -1.2258  0.9095
  839SOL    HW2 2517   1.626   0.235   1.023  1.1447 -0.5319 -0.1546
  840SOL     OW 2518   2.511   2.940   1.760  0.2278  0.3099 -0.2867
  840SOL    HW1 2519   2.415   2.928   1.800 -0.0323  1.0768 -0.0191
  840SOL    HW2 2520   2.565   2.858   1.784 -2.2827  0.7927 -1.3642
  841SOL     OW 2521   1.506   0.839   2.968  0.2251 -0.0155 -0.3706
  841SOL    HW1 2522   1.426   0.865   3.031  2.3090  0.9365  0.9412
  841SOL    HW2 2523   1.526   0.899   2.887 -1.8424 -4.3500  1.5077
  842SOL     OW 2524   0.824   1.565   0.942 -0.2415  0.1102  0.2608
  842SOL    HW1 2525   0.783   1.657   0.976 -0.8490  0.6226  1.3755
  842SOL    HW2 2526   0.753   1.487   0.946  0.7668 -0.1612 -3.3829
  843SOL     OW 2527   0.053   0.049   1.401  0.8175  0.2083  0.4987
  843SOL    HW1 2528   0.138   0.108   1.431  0.9951  1.4653  1.7527
  843SOL    HW2 2529   0.056  -0.049   1.430 -1.9908 -1.6602 -0.7582
  844SOL     OW 2530   0.818   2.491   0.258  0.2122  0.3606  0.6045
  844SOL    HW1 2531   0.770   2.487   0.350 -0.7562  1.8103  0.3872
  844SOL    HW2 2532   0.759   2.557   0.201  1.3910 -1.4365 -1.6830
  845SOL     OW 2533   1.617   2.914   1.375 -0.0399 -0.5883  0.1624
  845SOL    HW1 2534   1.663   2.923   1.467 -0.2815 -1.5417  0.9794
  845SOL    HW2 2535   1.539   2.851   1.373 -0.8089 -0.4946 -2.1356
  846SOL     OW 2536   1.549   2.901   0.693  0.1595  0.1148 -0.0271
  846SOL    HW1 2537   1.589   2.845   0.615 -1.8003  0.8821 -0.4607
  846SOL    HW2 2538   1.622   2.926   0.768 -0.0517  2.0264  1.0575
  847SOL     OW 2539   2.065   1.639   0.331  0.3804 -1.0956  0.0517
  847SOL    HW1 2540   2.018   1.543   0.340 -1.3510  1.4975 -3.4669
  847SOL    HW2 2541   1.992   1.713   0.345 -1.0701  2.6963  1.7029
  848SOL     OW 2542   2.450   0.879   2.575 -0.1349 -0.2023 -0.6004
  848SOL    HW1 2543   2.435   0.958   2.640 -0.0783 -1.6648  2.0168
  848SOL    HW2 2544   2.377   0.805   2.584 -2.4886  0.3920  1.7079
  849SOL     OW 2545   2.606   0.847   2.359 -0.2866 -0.4599  0.4348
  849SOL    HW1 2546   2.701   0.814   2.384  1.2947  0.8933  0.5581
  849SOL    HW2 2547   2.542   0.844   2.444 -1.5479 -1.1710 -1.5567
  850SOL     OW 2548   1.534   0.137   1.308  0.5270 -0.6111  0.6526
  850SOL    HW1 2549   1.518   0.117   1.211 -2.7812 -2.3863  0.8957
  850SOL    HW2 2550   1.475   0.075   1.365 -0.4921 -3.8131 -2.1980
  851SOL     OW 2551   0.472   1.804   0.584  0.1751  0.6194  0.0283
  851SOL    HW1 2552   0.470   1.903   0.616 -0.5659  1.2064  0.1583
  851SOL    HW2 2553   0.546   1.784   0.515  0.8388 -1.0940  3.1383
  852SOL     OW 2554   0.801   2.122   1.634  0.0839 -0.1583  0.1182
  852SOL    HW1 2555   0.819   2.219   1.597 -0.3392 -0.7901 -1.4996
  852SOL    HW2 2556   0.745   2.110   1.724  0.8217  1.5743 -1.9473
  853SOL     OW 2557   2.517   1.496   2.599  0.1037 -0.4858  0.0960
  853SOL    HW1 2558   2.460   1.424   2.558  1.3553 -2.1158  2.3891
  853SOL    HW2 2559   2.528   1.573   2.532 -2.7500 -0.0368 -1.2112
  854SOL     OW 2560   2.373   1.410   1.726  0.2861  0.0143  0.2025
  854SOL    HW1 2561   2.448   1.372   1.667 -0.8248  0.7992  1.1181
  854SOL    HW2 2562   2.283   1.359   1.713 -0.6540 -1.2963 -1.1071
  855SOL     OW 2563   2.015   2.420   0.979  0.6330  0.1673 -0.3448
  855SOL    HW1 2564   2.040   2.507   0.933 -2.3359 -1.7762 -0.2158
  855SOL    HW2 2565   2.063   2.399   1.065 -4.0152 -0.5889  0.4061
  856SOL     OW 2566   1.319   1.491   0.962  0.0987  0.2515 -0.1415
  856SOL    HW1 2567   1.387   1.567   0.975 -1.7689 -1.0045 -1.6523
  856SOL    HW2 2568   1.230   1.507   1.011 -1.1074  1.7341 -0.2450
  857SOL     OW 2569   3.069   2.698   0.938  0.7757 -0.4550  0.0988
  857SOL    HW1 2570   3.046   2.617   0.876  0.3742  2.6875  0.0386
  857SOL    HW2 2571   3.164   2.727   0.920  1.9702  0.5251  0.4639
  858SOL     OW 2572   2.333   2.105   1.687  0.4056 -0.0989 -0.1419
  858SOL    HW1 2573   2.253   2.086   1.628  1.2774 -1.1574  0.9980
  858SOL    HW2 2574   2.405   2.027   1.683  3.7204  0.1036  1.3938
  859SOL     OW 2575   2.476   0.516   1.025  0.0731  0.3518 -0.2561
  859SOL    HW1 2576   2.530   0.587   0.971 -1.0999 -1.7070  0.3473
  859SOL    HW2 2577   2.539   0.435   1.046 -0.2319  0.8043 -1.1734
  860SOL     OW 2578   1.971   2.790   0.426  0.0125  0.2745  0.2653
  860SOL    HW1 2579   1.933   2.790   0.329 -0.7432  0.1900 -3.3648
  860SOL    HW2 2580   2.066   2.815   0.416 -3.4606 -0.2183  0.0766
  861SOL     OW 2581   1.005   2.427   2.884  0.1201 -0.1477  0.1030
  861SOL    HW1 2582   1.039   2.512   2.831  0.2191  0.9036 -0.4461
  861SOL    HW2 2583   1.063   2.407   2.970 -1.0576  1.2981  2.4316
  862SOL     OW 2584   2.853   2.557   1.619 -0.1399  0.2332 -0.1268
  862SOL    HW1 2585   2.951   2.587   1.646 -0.1347  2.0686  1.0248
  862SOL    HW2 2586   2.804   2.625   1.554 -1.3652  0.9349  0.2804
  863SOL     OW 2587   1.853   2.736   0.169  0.2493  0.0872 -0.0202
  863SOL    HW1 2588   1.901   2.648   0.201  0.9230 -0.2873  1.4836
  863SOL    HW2 2589   1.750   2.724   0.152  1.1148  0.7506  2.3225
  864SOL     OW 2590   1.937   1.209   2.844 -0.5362 -0.3896 -0.0996
  864SOL    HW1 2591   1.946   1.178   2.747 -0.8225 -0.3581 -1.0649
  864SOL    HW2 2592   1.981   1.146   2.912 -1.6828 -1.3096 -0.7885
  865SOL     OW 2593   2.180   1.873   0.649  0.3945 -0.3186 -0.5618
  865SOL    HW1 2594   2.242   1.887   0.731  0.6074  1.7942 -2.3469
  865SOL    HW2 2595   2.082   1.856   0.677  0.2653 -1.4816  0.4221
  866SOL     OW 2596   2.870   2.901   0.990  0.2034  0.2991  0.4755
  866SOL    HW1 2597   2.865   2.971   0.917  0.5421 -2.6707  0.9550
  866SOL    HW2 2598   2.933   2.822   0.970 -0.0300  0.7508  1.3724
  867SOL     OW 2599   0.376   1.436   0.884 -0.7413  0.0061 -0.3054
  867SOL    HW1 2600   0.346   1.365   0.808 -1.2040 -0.2050 -0.4512
  867SOL    HW2 2601   0.367   1.531   0.859 -0.7746 -1.7561 -0.1138
  868SOL     OW 2602   0.786   1.905   2.038  0.2370  0.0774 -0.5542
  868SOL    HW1 2603   0.722   1.896   2.115  0.4249  0.2893 -0.8707
  868SOL    HW2 2604   0.779   1.993   1.978 -0.5224  1.3062 -1.8125
  869SOL     OW 2605   2.534   1.915   1.665  0.3500 -0.2750 -0.2042
  869SOL    HW1 2606   2.613   1.962   1.621 -1.2082 -0.5417  0.2282
  869SOL    HW2 2607   2.560   1.813   1.673  0.6600  2.4929  0.5887
  870SOL     OW 2608   2.256   2.681   1.243 -0.3248 -0.2725  0.6158
  870SOL    HW1 2609   2.230   2.579   1.227 -1.6078  0.4044  1.0504
  870SOL    HW2 2610   2.280   2.705   1.340  0.0025 -2.3600 -5.2914
  871SOL     OW 2611   3.054   2.230   0.550  0.0512 -0.5081 -0.4130
  871SOL    HW1 2612   3.014   2.207   0.643 -0.8459 -1.1963 -3.1227
  871SOL    HW2 2613   2.983   2.244   0.477  0.5887  1.5748  1.8780
  872SOL     OW 2614   2.108   0.535   1.708  0.3578 -0.1629 -0.1476
  872SOL    HW1 2615   2.065   0.496   1.796 -1.0775  1.7132  0.5161
  872SOL    HW2 2616   2.206   0.505   1.694  3.3880  2.7777  2.0492
  873SOL     OW 2617   1.708   2.115   3.064 -0.5675  0.0635 -0.3678
  873SOL    HW1 2618   1.622   2.143   3.116 -1.5317  0.6608  1.7139
  873SOL    HW2 2619   1.692   2.113   2.962  0.2039 -0.3681 -1.9297
  874SOL     OW 2620   0.678   2.447   0.746 -0.0586  0.3625  0.1579
  874SOL    HW1 2621   0.616   2.528   0.762  0.6081 -1.8580  1.1579
  874SOL    HW2 2622   0.758   2.448   0.811  0.2197  0.5019  2.9593
  875SOL     OW 2623   2.322   1.471   1.403  0.5466  0.0554  0.0684
  875SOL    HW1 2624   2.386   1.532   1.445 -1.5189 -0.7022 -1.2336
  875SOL    HW2 2625   2.334   1.467   1.299  2.3765 -2.9115 -0.5859
  876SOL     OW 2626   0.044   2.282   2.710 -0.0706 -0.5343  0.5974
  876SOL    HW1 2627   0.115   2.204   2.728  0.4635 -0.0083 -0.5600
  876SOL    HW2 2628   0.060   2.372   2.755 -2.1130 -1.6386 -0.2537
  877SOL     OW 2629   2.934   2.685   0.536 -0.6596  0.1670  0.5691
  877SOL    HW1 2630   2.883   2.757   0.589  1.3727  2.5385  0.3992
  877SOL    HW2 2631   2.993   2.629   0.599 -1.8445 -1.4781  2.6857
  878SOL     OW 2632   2.789   1.505   2.224  0.3591 -0.4608  0.3256
  878SOL    HW1 2633   2.830   1.600   2.205  0.1918  2.4940  0.7468
  878SOL    HW2 2634   2.793   1.482   2.326  0.6219 -0.9534 -0.1140
  879SOL     OW 2635   2.428   0.121   1.226  0.1183  0.4671  0.4822
  879SOL    HW1 2636   2.471   0.040   1.271  0.3542  0.6832  0.3338
  879SOL    HW2 2637   2.359   0.093   1.153 -0.9971  0.0651 -0.4452
  880SOL     OW 2638   0.784   0.477   2.215 -0.2277 -0.2896  0.2995
  880SOL    HW1 2639   0.739   0.437   2.299  1.3771 -2.7238  0.0235
  880SOL    HW2 2640   0.789   0.414   2.132 -2.1177 -0.3198 -1.6222
  881SOL     OW 2641   0.896   0.048   0.484 -0.3728 -0.2037  0.4106
  881SOL    HW1 2642   0.931  -0.048   0.513  0.9325  0.4077  0.5842
  881SOL    HW2 2643   0.794   0.050   0.488  0.7440 -1.7025 -1.9013
  882SOL     OW 2644   2.702   1.679   1.672 -0.2122 -0.5801  0.1312
  882SOL    HW1 2645   2.783   1.646   1.610  2.5596  2.0289  0.3220
  882SOL    HW2 2646   2.733   1.692   1.768  2.2196  2.2178 -2.4195
  883SOL     OW 2647   0.885   0.511   0.914  0.3868 -0.0947 -0.0612
  883SOL    HW1 2648   0.897   0.595   0.971  0.8758 -1.4836 -1.8391
  883SOL    HW2 2649   0.873   0.424   0.969 -0.4422  0.0598  1.0944
  884SOL     OW 2650   1.145   1.715   1.183 -0.0153 -0.2231  0.1279
  884SOL    HW1 2651   1.104   1.640   1.130 -2.2390  2.8928 -3.3972
  884SOL    HW2 2652   1.139   1.808   1.129  0.8997  1.7062  0.2298
  885SOL     OW 2653   2.338   1.776   2.310 -0.3042  0.2229 -0.0333
  885SOL    HW1 2654   2.245   1.744   2.352 -0.5182 -0.8566  0.5696
  885SOL    HW2 2655   2.330   1.878   2.306 -0.5178 -0.8443  1.0436
  886SOL     OW 2656   2.586   0.333   1.797 -0.2487 -0.2721 -0.1620
  886SOL    HW1 2657   2.608   0.234   1.806  0.5335  1.9293  0.1081
  886SOL    HW2 2658   2.666   0.386   1.753  1.8322 -1.3279 -1.7377
  887SOL     OW 2659   0.101   1.951   1.338  0.2898 -0.5486  0.1741
  887SOL    HW1 2660   0.038   1.921   1.261 -2.3287  1.0979  0.6454
  887SOL    HW2 2661   0.174   2.016   1.311 -0.3414  0.1263  1.1269
  888SOL     OW 2662   0.539   1.219   1.522  0.5362 -0.1538 -0.4311
  888SOL    HW1 2663   0.573   1.272   1.443  2.0145 -1.7628  2.0263
  888SOL    HW2 2664   0.541   1.113   1.508 -3.1415 -0.1525  0.8370
  889SOL     OW 2665   0.806   2.510   2.163  0.1946 -0.6091  0.3090
  889SOL    HW1 2666   0.748   2.429   2.169 -0.5072  2.6815 -1.3745
  889SOL    HW2 2667   0.882   2.496   2.095  0.3024 -0.1705  2.9464
  890SOL     OW 2668   2.419   2.470   0.243 -0.2046 -0.4654  0.3619
  890SOL    HW1 2669   2.457   2.558   0.203 -1.4975  0.3559 -1.1259
  890SOL    HW2 2670   2.355   2.498   0.320 -0.4225  1.3352 -0.0321
  891SOL     OW 2671   2.516   1.709   0.658  0.6859  0.3000  0.3769
  891SOL    HW1 2672   2.520   1.690   0.760 -2.1348 -1.3806  2.8258
  891SOL    HW2 2673   2.420   1.697   0.617 -2.6927 -1.1175  2.4925
  892SOL     OW 2674   0.366   0.261   2.307  0.2684  0.1497 -0.4211
  892SOL    HW1 2675   0.386   0.356   2.270  1.0823 -0.6140 -1.6936
  892SOL    HW2 2676   0.406   0.248   2.399  0.2287  1.2926 -2.3195
  893SOL     OW 2677   1.644   0.244   2.706  0.4704 -0.1439 -0.4080
  893SOL    HW1 2678   1.734   0.290   2.719  1.1746 -2.1106  2.1483
  893SOL    HW2 2679   1.559   0.306   2.695 -0.8598  1.6864  0.6039
  894SOL     OW 2680   2.175   2.042   0.034  0.0202 -0.3627 -0.0700
  894SOL    HW1 2681   2.137   1.993  -0.051  0.8213  1.3634 -0.2062
  894SOL    HW2 2682   2.204   1.975   0.108 -0.4985 -0.2835 -3.4428
  895SOL     OW 2683   2.829   1.451   0.911 -0.7924 -0.0280  0.0206
  895SOL    HW1 2684   2.905   1.398   0.953  1.3773  0.0991 -1.5974
  895SOL    HW2 2685   2.824   1.544   0.960  1.8427 -1.3630 -1.2948
  896SOL     OW 2686   1.707   1.808   1.164 -0.5953  0.0481  0.7100
  896SOL    HW1 2687   1.748   1.748   1.088  1.5188 -0.8674 -0.2379
  896SOL    HW2 2688   1.636   1.876   1.131  0.4715  0.5660 -0.4320
  897SOL     OW 2689   0.309   0.541   3.047 -0.2788 -0.6726  0.3511
  897SOL    HW1 2690   0.255   0.587   2.968  0.1614  0.1395  3.0081
  897SOL    HW2 2691   0.397   0.596   3.063  0.6599 -0.2105  0.2442
  898SOL     OW 2692   0.579   2.868   1.066 -0.3157 -0.0854  0.3395
  898SOL    HW1 2693   0.608   2.964   1.053 -0.4916 -1.6105  1.8142
  898SOL    HW2 2694   0.647   2.818   1.122 -0.5337  1.4056 -1.8190
  899SOL     OW 2695   2.835   0.898   1.339 -0.5333 -0.3040 -0.3095
  899SOL    HW1 2696   2.823   0.842   1.255 -0.4555 -0.5382 -0.8051
  899SOL    HW2 2697   2.902   0.976   1.333  1.2535  1.2230  0.6592
  900SOL     OW 2698   0.983   2.521   2.456 -0.4039  0.0360 -0.1339
  900SOL    HW1 2699   0.925   2.527   2.379 -2.0157 -0.4217  0.5383
  900SOL    HW2 2700   0.950   2.463   2.537  0.1600  1.7737  1.5622
  901SOL     OW 2701   1.899   2.377   1.360  0.2234 -0.2714 -0.1550
  901SOL    HW1 2702   1.895   2.320   1.269 -0.4578 -0.3062 -0.9723
  901SOL    HW2 2703   1.992   2.377   1.408  1.2467 -1.3246  1.3727
  902SOL     OW 2704   2.555   1.649   1.452 -0.5605 -0.3527 -0.3909
  902SOL    HW1 2705   2.585   1.657   1.551  1.3267 -0.4657 -0.6170
  902SOL    HW2 2706   2.638   1.624   1.391 -0.7648  2.1055 -1.9627
  903SOL     OW 2707   0.239   2.458   1.962 -0.3236  0.3192 -0.3735
  903SOL    HW1 2708   0.144   2.422   1.948 -2.0405 -0.0676 -0.4759
  903SOL    HW2 2709   0.261   2.537   1.900  2.5200  0.8457 -0.2347
  904SOL     OW 2710   1.996   0.792   2.594  0.1625  0.0951  0.1416
  904SOL    HW1 2711   1.917   0.733   2.629  2.3102 -0.5037 -1.7326
  904SOL    HW2 2712   2.011   0.789   2.491 -0.0192 -0.5113  0.4331
  905SOL     OW 2713   2.850   0.130   2.554  0.4202  0.3562  0.3326
  905SOL    HW1 2714   2.908   0.052   2.532 -0.4435 -1.7701  0.7129
  905SOL    HW2 2715   2.886   0.217   2.512  0.8512  1.0496 -0.9198
  906SOL     OW 2716   0.191   1.710   1.924  0.7723  0.0975  0.1191
  906SOL    HW1 2717   0.118   1.729   1.848 -1.5752 -0.5561 -0.6676
  906SOL    HW2 2718   0.275   1.772   1.905  4.2823 -1.1921 -0.9733
  907SOL     OW 2719   0.244   2.438   1.006  0.2735  0.2398  0.3888
  907SOL    HW1 2720   0.340   2.402   0.993 -0.5465 -1.0715 -1.6892
  907SOL    HW2 2721   0.220   2.512   0.939  1.4324 -0.1835  0.9922
  908SOL     OW 2722   2.816   3.028   0.383  0.2493 -0.4864 -0.1676
  908SOL    HW1 2723   2.716   3.029   0.419 -0.9754 -1.2459  0.6742
  908SOL    HW2 2724   2.835   2.974   0.298 -0.8630 -0.4534 -2.9688
  909SOL     OW 2725   0.832   1.055   2.653 -0.5983 -0.1955 -0.2163
  909SOL    HW1 2726   0.779   0.978   2.604  1.5861  0.1201 -0.1717
  909SOL    HW2 2727   0.897   1.105   2.586  1.1062  0.4951  1.5532
  910SOL     OW 2728   1.804   1.888   2.173  0.0214  0.2031  0.0874
  910SOL    HW1 2729   1.856   1.913   2.090 -1.2211 -2.2480  1.8376
  910SOL    HW2 2730   1.728   1.949   2.194  0.6553  0.1167 -2.7797
  911SOL     OW 2731   1.819   2.928   1.595 -0.1364  0.2733  0.6136
  911SOL    HW1 2732   1.888   2.914   1.514  1.1765 -0.5907  1.0256
  911SOL    HW2 2733   1.809   2.845   1.657 -3.2114 -1.8009  1.7723
  912SOL     OW 2734   2.854   1.006   0.734  0.6165  0.0912  0.3318
  912SOL    HW1 2735   2.903   0.986   0.825 -3.0824  3.6840  1.7560
  912SOL    HW2 2736   2.776   1.076   0.735 -2.4968 -1.0728 -2.1748
  913SOL     OW 2737   2.529   1.279   1.546 -0.2305  0.2817  0.3608
  913SOL    HW1 2738   2.597   1.198   1.555  2.3424 -2.1875 -0.4555
  913SOL    HW2 2739   2.565   1.342   1.474  1.2542  0.0193 -0.2065
  914SOL     OW 2740   2.777   0.591   1.176 -0.0958 -0.0366  0.1346
  914SOL    HW1 2741   2.796   0.508   1.234  0.4681  2.1828 -2.0314
  914SOL    HW2 2742   2.675   0.611   1.172  2.9873 -0.9346 -1.0123
  915SOL     OW 2743   1.192   0.711   1.031 -0.0261  0.3653 -0.1375
  915SOL    HW1 2744   1.245   0.741   1.116 -1.7760 -0.5431  2.6685
  915SOL    HW2 2745   1.100   0.681   1.061 -2.3034 -0.0354  2.8479
  916SOL     OW 2746   0.606   0.027   0.636 -0.2946 -0.0645 -0.1654
  916SOL    HW1 2747   0.636   0.108   0.698  2.6540 -1.3126  0.8305
  916SOL    HW2 2748   0.572   0.060   0.545 -1.4239 -1.9776 -2.5653
  917SOL     OW 2749   2.836   2.596   2.031 -0.3859  0.3808  0.2633
  917SOL    HW1 2750   2.742   2.632   2.010  0.3875 -0.1852 -0.5108
  917SOL    HW2 2751   2.906   2.616   1.955  1.3899  0.0667  0.4485
  918SOL     OW 2752   1.017   2.088   3.032 -0.0632  0.0321 -0.1289
  918SOL    HW1 2753   0.985   2.163   3.095 -0.0547 -1.8760 -1.0591
  918SOL    HW2 2754   1.084   2.130   2.966  1.5722 -2.2694  1.3500
  919SOL     OW 2755   0.811   1.636   2.863  0.3054 -0.7422  0.5043
  919SOL    HW1 2756   0.889   1.687   2.821  0.1761 -0.5278 -0.5973
  919SOL    HW2 2757   0.761   1.577   2.793 -0.4600  0.0289 -0.9660
  920SOL     OW 2758   1.254   1.808   2.536 -0.1580  0.4141 -0.5115
  920SOL    HW1 2759   1.328   1.755   2.482  0.5409 -2.4707  1.5944
  920SOL    HW2 2760   1.203   1.737   2.592 -0.4483 -0.1454 -0.7610
  921SOL     OW 2761   1.091   0.019   2.633 -0.3948  0.2531 -0.3164
  921SOL    HW1 2762   1.083  -0.011   2.536 -2.7083  0.0260  2.6336
  921SOL    HW2 2763   0.996   0.031   2.677 -1.7116 -1.8018  2.2303
  922SOL     OW 2764   2.233   2.378   2.792 -0.1055 -0.0725  0.4440
  922SOL    HW1 2765   2.244   2.273   2.790  1.6496 -4.1980 -1.4410
  922SOL    HW2 2766   2.187   2.408   2.705 -1.8453 -2.1988 -2.0058
  923SOL     OW 2767   1.273   2.675   0.273  0.2400  0.0508 -0.0579
  923SOL    HW1 2768   1.343   2.725   0.335  1.5211  2.0547  1.6892
  923SOL    HW2 2769   1.297   2.575   0.254  1.7877 -3.7493  1.8962
  924SOL     OW 2770   2.836   1.681   0.102 -0.4767 -0.1285  0.5932
  924SOL    HW1 2771   2.770   1.652   0.029 -1.4255 -3.1871  0.9470
  924SOL    HW2 2772   2.926   1.628   0.095 -0.4057 -0.8911  0.5107
  925SOL     OW 2773   0.006   2.883   1.465 -0.0609  0.0261 -0.2390
  925SOL    HW1 2774  -0.063   2.887   1.542 -0.6515  2.1078  0.4042
  925SOL    HW2 2775  -0.023   2.841   1.376 -0.2167  0.6981  1.2356
  926SOL     OW 2776   1.302   2.800   1.337 -0.6923 -0.2353 -0.0162
  926SOL    HW1 2777   1.364   2.817   1.253 -0.6593  0.5862 -1.8135
  926SOL    HW2 2778   1.288   2.876   1.408 -0.2807  0.5169  2.2445
  927SOL     OW 2779   0.308   2.673   1.767  0.0108  0.0021  0.6045
  927SOL    HW1 2780   0.287   2.598   1.696  0.1901 -2.0542  0.8402
  927SOL    HW2 2781   0.281   2.768   1.737  0.5477  0.7210 -2.0780
  928SOL     OW 2782   1.583   2.084   2.221  0.0524 -0.2905  0.0416
  928SOL    HW1 2783   1.591   2.155   2.146 -3.5246  1.0229  2.6006
  928SOL    HW2 2784   1.486   2.089   2.256 -2.3575  0.9389  0.6680
  929SOL     OW 2785   2.462   2.518   2.855 -0.4023 -0.0232 -0.1625
  929SOL    HW1 2786   2.375   2.464   2.847 -0.0171  0.7911  1.6431
  929SOL    HW2 2787   2.511   2.527   2.767 -3.5939 -0.1942  1.4328
  930SOL     OW 2788   2.181   2.026   1.083 -0.1026 -0.2367 -0.1013
  930SOL    HW1 2789   2.152   1.972   1.169  1.6627  1.3433 -0.4709
  930SOL    HW2 2790   2.263   2.095   1.103  1.5052  3.7700 -3.4188
  931SOL     OW 2791   0.532   1.699   2.677 -0.1775 -0.4664  0.3539
  931SOL    HW1 2792   0.543   1.725   2.775 -0.9606  0.6791  0.5369
  931SOL    HW2 2793   0.612   1.639   2.648  0.4897  0.9435 -3.6964
  932SOL     OW 2794   0.465   0.127   3.066 -0.0467  0.1100 -0.1835
  932SOL    HW1 2795   0.536   0.166   3.124 -0.4982 -3.0948 -3.1480
  932SOL    HW2 2796   0.476   0.022   3.054  0.2638  0.8114  1.1314
  933SOL     OW 2797   0.957   0.810   3.053  0.2520 -0.4439  0.7663
  933SOL    HW1 2798   0.931   0.812   3.153  2.1536  0.3053  0.2642
  933SOL    HW2 2799   0.952   0.904   3.006  0.3052  0.5495 -2.1838
  934SOL     OW 2800   0.783   2.977   2.677  0.0982  0.0735  0.5055
  934SOL    HW1 2801   0.762   2.919   2.594  2.8161 -0.3893 -1.7337
  934SOL    HW2 2802   0.847   2.919   2.741  0.3690 -1.2490  0.2513
  935SOL     OW 2803   0.046   0.517   0.839  0.1455 -0.1522 -0.1527
  935SOL    HW1 2804   0.044   0.488   0.738 -0.6730  0.2415 -1.6962
  935SOL    HW2 2805  -0.034   0.575   0.862  2.1388 -1.7712 -1.4172
  936SOL     OW 2806   1.105   2.773   0.088 -0.0756 -0.4031 -0.5055
  936SOL    HW1 2807   1.152   2.849   0.039  0.1562 -2.1446  0.3143
  936SOL    HW2 2808   1.155   2.744   0.178  0.4670  1.4076  1.1924
  937SOL     OW 2809   1.828   2.650   2.096 -0.3020 -0.1109 -0.0981
  937SOL    HW1 2810   1.742   2.695   2.125  2.2758  2.0983 -1.5539
  937SOL    HW2 2811   1.893   2.713   2.049 -0.6655  0.4648 -1.7057
  938SOL     OW 2812   2.757   2.076   1.589 -0.0910  0.2133 -0.1191
  938SOL    HW1 2813   2.737   2.170   1.627 -2.4252 -1.5616  0.5784
  938SOL    HW2 2814   2.843   2.031   1.629 -0.2304  0.2071 -1.4834
  939SOL     OW 2815   2.838   1.194   2.414  0.4604 -0.0729  0.2107
  939SOL    HW1 2816   2.916   1.190   2.338  0.8475  1.1024 -3.3771
  939SOL    HW2 2817   2.859   1.125   2.490 -0.9319 -1.7758  1.5236
  940SOL     OW 2818   1.072   0.435   2.773 -0.0230 -0.0867 -0.1445
  940SOL    HW1 2819   1.130   0.349   2.780 -1.6407 -1.0379 -1.2871
  940SOL    HW2 2820   0.991   0.416   2.708 -0.8490 -3.2040 -1.5592
  941SOL     OW 2821   0.034   2.788   2.271 -0.2849  0.1400 -0.5306
  941SOL    HW1 2822   0.075   2.698   2.241 -0.4265 -0.6595 -1.3523
  941SOL    HW2 2823   0.109   2.865   2.290  1.4122  0.8299 -2.3565
  942SOL     OW 2824   0.106   0.038   2.576 -0.2090  0.0524  0.1668
  942SOL    HW1 2825   0.183   0.070   2.637 -0.9267  1.3560 -2.9077
  942SOL    HW2 2826   0.073   0.114   2.517  0.7931 -2.8204  0.5574
  943SOL     OW 2827   2.094   1.654   2.380 -0.1517 -0.3533  0.2876
  943SOL    HW1 2828   2.083   1.597   2.293 -0.6527  3.5859  0.5261
  943SOL    HW2 2829   2.098   1.602   2.472  0.0916 -0.4548 -3.8569
  944SOL     OW 2830   2.164   2.352   1.462 -0.3327 -0.1202 -0.3126
  944SOL    HW1 2831   2.249   2.399   1.494  1.3613 -0.7670  2.0810
  944SOL    HW2 2832   2.147   2.274   1.524  1.5583  0.5898 -0.0741
  945SOL     OW 2833   0.686   1.525   0.168 -0.0333 -1.2176  0.1850
  945SOL    HW1 2834   0.604   1.547   0.108  1.4393 -1.9827  1.6047
  945SOL    HW2 2835   0.679   1.424   0.199 -0.4480 -1.2431  1.3196
  946SOL     OW 2836   0.450   0.946   2.493 -0.1292 -0.1911 -0.1743
  946SOL    HW1 2837   0.385   0.895   2.434  0.7639  0.6564 -0.1665
  946SOL    HW2 2838   0.429   1.045   2.489 -0.3954  0.0608 -0.5072
  947SOL     OW 2839   1.508   0.492   3.040  0.3713  0.3112 -0.0467
  947SOL    HW1 2840   1.468   0.539   2.960 -0.9875 -0.5893  2.0180
  947SOL    HW2 2841   1.429   0.465   3.111 -1.4525  0.1667 -0.4301
  948SOL     OW 2842   1.829   2.998   2.123 -0.3287  0.0593  0.3693
  948SOL    HW1 2843   1.885   2.984   2.037  1.1272 -1.3798 -0.4851
  948SOL    HW2 2844   1.866   2.941   2.206  1.4100  1.9933  0.2241
  949SOL     OW 2845   0.642   2.479   0.462 -0.1649  0.1676  0.2948
  949SOL    HW1 2846   0.669   2.578   0.434  1.0920 -0.7366  0.7500
  949SOL    HW2 2847   0.658   2.449   0.561 -0.5286 -0.7147 -1.0640
  950SOL     OW 2848   0.230   2.220   3.022 -0.3153  0.0804 -0.3303
  950SOL    HW1 2849   0.201   2.321   3.009 -0.4693  2.3960 -0.2590
  950SOL    HW2 2850   0.217   2.161   2.935  1.7882  1.0526  0.0534
  951SOL     OW 2851   1.206   2.657   2.807  1.1866  0.5863 -0.3089
  951SOL    HW1 2852   1.259   2.669   2.896 -0.4220  1.7863 -1.9535
  951SOL    HW2 2853   1.263   2.685   2.725  1.0022 -1.4050 -0.0343
  952SOL     OW 2854   0.054   1.652   0.380  0.5551  0.0051 -0.0430
  952SOL    HW1 2855   0.087   1.754   0.385 -3.3164  1.6952 -2.5329
  952SOL    HW2 2856   0.106   1.583   0.434 -4.6022  1.4952 -0.5158
  953SOL     OW 2857   2.547   1.768   0.209 -0.1736  0.6327  0.0909
  953SOL    HW1 2858   2.512   1.675   0.247 -3.3850  0.0278 -2.3117
  953SOL    HW2 2859   2.503   1.780   0.115 -0.0726  0.6043 -2.2060
  954SOL     OW 2860   2.218   0.532   0.920 -0.3727 -0.1466 -0.1947
  954SOL    HW1 2861   2.226   0.558   0.821  1.0044 -1.5781 -0.3594
  954SOL    HW2 2862   2.307   0.519   0.969  0.0833  1.1875  0.4970
  955SOL     OW 2863   0.146   2.583   1.374 -0.0509  0.0208 -0.1624
  955SOL    HW1 2864   0.050   2.611   1.353  1.0582 -0.3729  0.6598
  955SOL    HW2 2865   0.211   2.659   1.343  1.2136  2.4801 -1.5876
  956SOL     OW 2866   2.805   2.440   2.480  0.1717 -0.0635 -0.0054
  956SOL    HW1 2867   2.849   2.348   2.494  0.3455 -1.8222 -0.2730
  956SOL    HW2 2868   2.856   2.496   2.404 -0.7170  1.4291 -2.4384
  957SOL     OW 2869   1.636   2.072   2.802  0.9396 -0.6911  0.1563
  957SOL    HW1 2870   1.583   1.982   2.793  1.2410 -3.0440 -1.3363
  957SOL    HW2 2871   1.700   2.076   2.722 -0.2776 -0.0268  2.5263
  958SOL     OW 2872   2.568   2.293   2.963  0.3075  0.2683  0.1993
  958SOL    HW1 2873   2.533   2.386   2.935  1.9070  1.4356  2.8311
  958SOL    HW2 2874   2.524   2.248   3.049 -0.4895  1.8898  0.9211
  959SOL     OW 2875   0.312   2.781   0.035 -0.9326  0.3401 -0.0303
  959SOL    HW1 2876   0.211   2.768   0.015  0.8981 -0.9806  0.1137
  959SOL    HW2 2877   0.345   2.701   0.096 -1.4961 -1.8746 -0.9642
  960SOL     OW 2878   1.950   0.478   1.948 -0.6454 -0.0999 -0.6725
  960SOL    HW1 2879   1.888   0.556   1.915  0.8944 -0.1770 -0.2048
  960SOL    HW2 2880   1.968   0.478   2.048  1.6758  0.1929  0.6986
  961SOL     OW 2881   2.553   1.853   1.051 -0.0227 -0.0089 -0.1195
  961SOL    HW1 2882   2.560   1.953   1.025  1.3156 -1.6032 -3.1483
  961SOL    HW2 2883   2.507   1.836   1.144  0.2969 -0.1839  2.3801
  962SOL     OW 2884   1.311   0.924   0.030  0.0252  0.1760  0.3265
  962SOL    HW1 2885   1.259   0.978  -0.040  0.5955 -0.7615 -0.6081
  962SOL    HW2 2886   1.324   0.974   0.118  2.2930 -1.7625 -2.2383
  963SOL     OW 2887   2.293   2.542   1.786 -0.0689  0.5889  0.0551
  963SOL    HW1 2888   2.217   2.471   1.822 -0.3951 -0.4992 -0.7140
  963SOL    HW2 2889   2.309   2.622   1.853  2.0042  1.1276  0.6851
  964SOL     OW 2890   2.370   0.410   1.649 -0.2120  0.4426  0.2092
  964SOL    HW1 2891   2.447   0.410   1.717  0.6643  1.5805 -0.3063
  964SOL    HW2 2892   2.402   0.391   1.548  1.4252 -3.3462 -1.5367
  965SOL     OW 2893   2.596   2.987   0.147 -0.2273 -0.3924  0.0170
  965SOL    HW1 2894   2.681   3.005   0.091  1.6241  0.4504  0.9198
  965SOL    HW2 2895   2.512   3.001   0.082 -0.4132  1.4354 -1.5182
  966SOL     OW 2896   2.561   2.542   2.320  0.3074 -0.1311 -0.5391
  966SOL    HW1 2897   2.636   2.550   2.392 -0.2630  2.7994 -0.6216
  966SOL    HW2 2898   2.496   2.623   2.326 -0.9425 -0.2308 -3.7982
  967SOL     OW 2899   2.782   2.824   2.478 -0.1863 -0.0817  1.0194
  967SOL    HW1 2900   2.813   2.758   2.403  1.3530 -2.6339  2.2933
  967SOL    HW2 2901   2.863   2.878   2.517 -0.8417  2.4006  0.1469
  968SOL     OW 2902   1.937   1.066   2.602 -0.3212  0.0285  0.3344
  968SOL    HW1 2903   1.860   1.116   2.553  3.3224  0.3331  2.6255
  968SOL    HW2 2904   1.935   0.959   2.596 -0.1064 -0.4110  1.5260
  969SOL     OW 2905   2.784   2.476   1.124  0.8290 -0.2644  0.0939
  969SOL    HW1 2906   2.785   2.478   1.022  0.0379  0.0381  0.1360
  969SOL    HW2 2907   2.836   2.390   1.160 -1.1513 -3.0392 -1.0424
  970SOL     OW 2908   1.028   2.089   1.819 -0.2452 -0.2434  0.1486
  970SOL    HW1 2909   0.954   2.108   1.750 -0.8354 -2.3294  0.8686
  970SOL    HW2 2910   1.004   2.134   1.911 -0.7336 -2.8830  2.3872
  971SOL     OW 2911   2.979   2.047   2.038 -0.2011 -0.0560 -0.1857
  971SOL    HW1 2912   2.960   2.146   2.064 -2.3787  2.4730  1.5964
  971SOL    HW2 2913   3.020   2.045   1.941  0.4405  0.0687 -3.3131
  972SOL     OW 2914   1.971   2.498   0.240 -0.4131  0.2321 -0.2108
  972SOL    HW1 2915   1.995   2.407   0.200  1.4520 -1.2490  3.0410
  972SOL    HW2 2916   2.037   2.528   0.317 -0.5762 -0.6804 -0.8173
  973SOL     OW 2917   1.271   1.037   1.923  0.5018  0.0795  0.1962
  973SOL    HW1 2918   1.193   1.014   1.861  0.7386  0.9226  0.7963
  973SOL    HW2 2919   1.267   1.141   1.948 -0.9780 -0.0950  1.1480
  974SOL     OW 2920   1.594   0.577   1.960  0.5806  0.2052  0.5388
  974SOL    HW1 2921   1.671   0.642   1.940  1.5777 -1.4331  1.0204
  974SOL    HW2 2922   1.501   0.613   1.959  1.1948 -1.6532  0.4264
  975SOL     OW 2923   2.371   3.033   3.103 -0.1360  0.5003  0.3106
  975SOL    HW1 2924   2.315   2.947   3.115  2.6226 -0.5836  1.3430
  975SOL    HW2 2925   2.367   3.074   3.008  3.0413  0.8741  0.5485
  976SOL     OW 2926   1.896   2.838   2.331 -0.4816  0.7241 -0.2644
  976SOL    HW1 2927   1.817   2.776   2.309  3.6740 -2.4165  1.9000
  976SOL    HW2 2928   1.915   2.831   2.433  4.4107  1.2312  1.0068
  977SOL     OW 2929   0.489   0.696   1.064 -0.1644 -0.1005 -0.0563
  977SOL    HW1 2930   0.409   0.706   1.006 -1.9510  1.6523  2.0625
  977SOL    HW2 2931   0.576   0.732   1.031  0.1577 -1.4960 -1.5503
   3.10000   3.10000   3.10000
