1000 SPC/Fw water molecules t=   0.87000 step= 870
 2931
    1SOL     OW    1   2.503   0.357   2.660 -0.1235 -0.0162  0.5671
    1SOL    HW1    2   2.543   0.265   2.640  0.1646  0.9058 -0.2186
    1SOL    HW2    3   2.557   0.421   2.724  2.5455  0.1119 -2.2065
    2SOL     OW    4   2.732   3.054   1.433 -0.4020 -0.3731  0.1169
    2SOL    HW1    5   2.812   3.085   1.372  0.5681  0.0270  1.5048
    2SOL    HW2    6   2.701   3.123   1.505  1.4343  0.2776  3.3446
    3SOL     OW    7   2.694   2.607   0.377 -0.6091  0.2758  0.2773
    3SOL    HW1    8   2.685   2.500   0.367  1.8588 -1.1651  0.8599
    3SOL    HW2    9   2.751   2.634   0.460 -0.0214  0.9834  1.8139
    4SOL     OW   10   1.259   1.514   2.321 -0.6421  0.9150 -0.4741
    4SOL    HW1   11   1.175   1.556   2.275 -2.6565  3.4572 -0.5877
    4SOL    HW2   12   1.236   1.414   2.348 -0.1465 -0.9835 -0.1144
    5SOL     OW   13   1.152   1.489   3.095 -0.0749 -0.0416  0.4442
    5SOL    HW1   14   1.230   1.560   3.100  0.7750  1.1946 -0.6080
    5SOL    HW2   15   1.064   1.521   3.136  1.6336 -1.3019 -0.3036
    6SOL     OW   16   0.131   1.826   2.947 -0.1586 -0.4493  0.0401
    6SOL    HW1   17   0.043   1.844   2.999 -0.4823  0.1685 -4.3581
    6SOL    HW2   18   0.203   1.784   3.009  2.7277 -1.6643 -0.1639
    7SOL     OW   19   2.611   0.921   1.105  0.2890  0.2396  0.0372
    7SOL    HW1   20   2.534   0.849   1.122 -1.2964 -1.2038 -0.3058
    7SOL    HW2   21   2.629   0.930   1.003 -1.3003 -0.5435 -3.0045
    8SOL     OW   22   0.380   0.617   1.556 -0.6972 -0.0410  0.2243
    8SOL    HW1   23   0.476   0.599   1.598  1.4338 -2.9337 -0.8310
    8SOL    HW2   24   0.391   0.642   1.458  0.8844  2.4240  1.8992
    9SOL     OW   25   1.181   0.864   2.403 -0.0307  0.4858  0.5578
    9SOL    HW1   26   1.251   0.891   2.332  0.4899 -1.5265 -3.0240
    9SOL    HW2   27   1.104   0.807   2.365  0.7772 -2.2340 -1.3702
   10SOL     OW   28   0.650   1.343   1.308  0.2487  0.3715 -0.1542
   10SOL    HW1   29   0.557   1.349   1.255  1.2849 -2.0392  0.3016
   10SOL    HW2   30   0.697   1.431   1.324  0.0558 -2.1608  1.6710
   11SOL     OW   31   2.345   2.725   0.845 -0.3277  0.0304  0.7273
   11SOL    HW1   32   2.292   2.782   0.912  0.0179  1.8629 -1.0395
   11SOL    HW2   33   2.447   2.736   0.839 -0.2517  1.4991 -2.6245
   12SOL     OW   34   1.490   0.895   0.342  0.1721  0.2281  0.4972
   12SOL    HW1   35   1.401   0.942   0.324  0.6950 -1.1193 -2.3241
   12SOL    HW2   36   1.508   0.812   0.282 -0.9851  2.2294 -1.3308
   13SOL     OW   37   2.488   0.666   1.779  0.4261  0.5580  0.2402
   13SOL    HW1   38   2.395   0.661   1.832 -0.2058 -1.9946 -0.7453
   13SOL    HW2   39   2.473   0.653   1.677  0.9773 -0.3247  0.7458
   14SOL     OW   40   1.868   0.043   0.734 -0.2159  0.2260 -0.2676
   14SOL    HW1   41   1.812   0.062   0.652  1.8077  0.3828 -0.2595
   14SOL    HW2   42   1.811   0.025   0.819  0.9286  2.7020  0.4188
   15SOL     OW   43   1.987   2.088   2.738 -0.6053 -0.6039  0.1441
   15SOL    HW1   44   1.902   2.133   2.778 -0.1344  1.8281 -2.7139
   15SOL    HW2   45   1.964   2.021   2.665  1.4799 -1.0228 -1.2599
   16SOL     OW   46   1.599   1.732   2.961 -0.5462  0.1971 -0.0055
   16SOL    HW1   47   1.600   1.637   3.004  1.8511  1.5296  1.3295
   16SOL    HW2   48   1.679   1.789   2.994  0.2534  2.1404 -0.8062
   17SOL     OW   49   0.129   0.513   0.213 -0.3381 -0.2016 -0.2685
   17SOL    HW1   50   0.220   0.524   0.170 -1.1820  0.1849 -0.9530
   17SOL    HW2   51   0.055   0.524   0.137  1.7562  0.1930 -0.1360
   18SOL     OW   52   0.960   2.914   2.123 -0.3853 -0.4565  0.2931
   18SOL    HW1   53   0.892   2.837   2.135 -2.9609 -2.4767  2.8883
   18SOL    HW2   54   1.029   2.894   2.049 -1.1136  0.5281  2.7379
   19SOL     OW   55   0.531   0.822   1.903 -0.1259  0.1004 -0.1425
   19SOL    HW1   56   0.562   0.769   1.981 -0.0563  0.1104 -2.9774
   19SOL    HW2   57   0.606   0.851   1.841  2.7123  4.1670  1.4560
   20SOL     OW   58   0.191   2.704   0.827 -0.4737  0.5794  0.1356
   20SOL    HW1   59   0.105   2.763   0.820 -0.6160 -0.3045  1.6311
   20SOL    HW2   60   0.246   2.698   0.738 -1.5743 -1.9370 -1.1797
   21SOL     OW   61   2.733   0.214   2.098 -0.3612  0.3859 -0.0776
   21SOL    HW1   62   2.685   0.148   2.037 -2.3114  0.5961  0.0310
   21SOL    HW2   63   2.832   0.190   2.113 -1.6739 -0.1076 -1.3866
   22SOL     OW   64   2.384   0.228   0.145 -0.0877  0.0887  0.3285
   22SOL    HW1   65   2.390   0.123   0.136  0.7960 -2.5756  1.0765
   22SOL    HW2   66   2.287   0.261   0.117  0.2487 -0.5365 -0.0709
   23SOL     OW   67   2.784   0.658   0.654 -0.2071  0.1247 -0.0788
   23SOL    HW1   68   2.770   0.561   0.619  0.8999  1.9246  2.8267
   23SOL    HW2   69   2.789   0.729   0.581  2.0625 -3.2637  0.5641
   24SOL     OW   70   0.202   1.891   0.363 -0.3050 -0.2121  0.0804
   24SOL    HW1   71   0.184   1.952   0.280  0.5307  1.0037  0.7966
   24SOL    HW2   72   0.302   1.859   0.359 -2.8311  0.3850 -2.0096
   25SOL     OW   73   2.201   0.564   0.280 -0.0108  0.5734 -0.7442
   25SOL    HW1   74   2.207   0.573   0.177 -2.5313 -2.0136 -0.0715
   25SOL    HW2   75   2.281   0.497   0.310  0.9617 -0.8764 -2.0514
   26SOL     OW   76   2.513   2.091   2.084 -0.2680 -0.0121 -0.0999
   26SOL    HW1   77   2.570   2.168   2.112  0.9646 -0.2560 -1.0160
   26SOL    HW2   78   2.566   2.034   2.013  0.0371 -0.7049  0.6470
   27SOL     OW   79   0.594   2.963   0.209 -0.2069 -0.0805 -0.1698
   27SOL    HW1   80   0.697   2.964   0.203 -1.0448  0.2914 -1.4242
   27SOL    HW2   81   0.550   2.966   0.113  2.5580  1.2091 -0.4626
   28SOL     OW   82   1.562   0.159   0.272  0.2701  0.3395 -0.0528
   28SOL    HW1   83   1.605   0.149   0.179 -2.1502 -0.9608  1.3243
   28SOL    HW2   84   1.589   0.253   0.313  1.5730 -0.1418 -1.0106
   29SOL     OW   85   1.955   0.616   0.426  0.1899  0.2947 -0.2297
   29SOL    HW1   86   1.890   0.697   0.419 -0.1359  2.6861 -0.2296
   29SOL    HW2   87   2.043   0.639   0.380 -1.6680  1.8759 -0.0275
   30SOL     OW   88   0.182   1.972   0.890 -0.3454  0.0571 -0.5079
   30SOL    HW1   89   0.160   1.986   0.794 -2.1916 -1.8478  0.2191
   30SOL    HW2   90   0.121   2.025   0.954  0.6139 -0.6088  0.8587
   31SOL     OW   91   2.097   3.066   2.343 -0.2225 -0.1522  0.2993
   31SOL    HW1   92   2.100   3.066   2.448 -2.0679 -0.0102  0.4508
   31SOL    HW2   93   2.021   3.004   2.316  0.0144  1.7252 -3.7545
   32SOL     OW   94   2.943   0.085   0.197  0.3100 -0.8922 -0.9732
   32SOL    HW1   95   2.942  -0.009   0.228  2.2864  1.4129 -2.4485
   32SOL    HW2   96   3.029   0.141   0.218  1.0994 -1.9324  0.3464
   33SOL     OW   97   0.943   0.297   0.610 -0.2556  0.4468 -0.0261
   33SOL    HW1   98   0.918   0.210   0.558 -0.7983 -1.0183  0.4512
   33SOL    HW2   99   1.044   0.319   0.606  1.5374 -1.3207 -1.4495
   34SOL     OW  100   0.268   2.769   1.100 -0.6362 -0.4566 -0.1890
   34SOL    HW1  101   0.224   2.779   1.011  1.1640 -2.4628 -1.5801
   34SOL    HW2  102   0.371   2.767   1.096 -1.3239  0.8047 -0.5393
   35SOL     OW  103   0.030   0.094   1.883 -0.1068 -0.6933  0.0151
   35SOL    HW1  104   0.081   0.003   1.889  1.2118 -1.2090  4.3464
   35SOL    HW2  105  -0.025   0.107   1.795  0.2400 -0.4304 -2.8232
   36SOL     OW  106   1.912   1.176   1.739 -0.3158  0.3497 -0.1877
   36SOL    HW1  107   1.936   1.100   1.674  1.8153 -2.9831 -0.7008
   36SOL    HW2  108   1.987   1.245   1.768 -1.0213  1.1307  0.6522
   37SOL     OW  109   1.181   0.165   0.936  0.1058  0.6545 -0.1868
   37SOL    HW1  110   1.232   0.242   0.982  1.1887 -0.4188 -2.6787
   37SOL    HW2  111   1.246   0.107   0.874 -0.0607 -2.7366  1.5310
   38SOL     OW  112   1.056   2.791   2.484 -0.3566  0.1281  0.0844
   38SOL    HW1  113   0.989   2.715   2.488 -1.9021  4.7377  1.1337
   38SOL    HW2  114   1.020   2.873   2.426  1.2863  3.0763  0.5876
   39SOL     OW  115   2.302   1.404   3.031  0.4232  0.5161 -0.1171
   39SOL    HW1  116   2.381   1.338   3.045 -1.9263 -2.2806 -1.1370
   39SOL    HW2  117   2.267   1.430   3.124  0.0006 -3.1989 -1.6020
   40SOL     OW  118   2.035   2.453   2.530 -0.3924 -0.7638 -0.3629
   40SOL    HW1  119   2.005   2.551   2.545 -0.0951 -0.9407 -0.7466
   40SOL    HW2  120   1.963   2.386   2.486  1.9072 -1.5670 -3.6439
   41SOL     OW  121   3.040   0.694   2.843 -0.3912  0.6044 -0.1911
   41SOL    HW1  122   3.037   0.793   2.821  1.1392 -0.9395  0.7222
   41SOL    HW2  123   2.952   0.638   2.832  2.0148 -3.4918  1.4917
   42SOL     OW  124   1.787   1.721   0.488  0.3475  0.5184  0.6140
   42SOL    HW1  125   1.717   1.642   0.482 -0.1208 -1.3782 -2.9805
   42SOL    HW2  126   1.800   1.771   0.395 -0.7629  2.5564 -1.5331
   43SOL     OW  127   0.468   1.652   1.138 -0.3301 -0.7389  0.4686
   43SOL    HW1  128   0.464   1.559   1.178  0.1401  0.2671 -0.2702
   43SOL    HW2  129   0.393   1.671   1.064 -3.4412  0.2233 -0.0373
   44SOL     OW  130   1.786   2.511   3.032 -0.2527  0.1519 -0.8606
   44SOL    HW1  131   1.780   2.600   2.978  0.6479  0.3172 -1.3648
   44SOL    HW2  132   1.788   2.435   2.963 -2.3934 -0.7789  0.6662
   45SOL     OW  133   0.426   1.940   2.596 -0.5038  0.1443 -0.2170
   45SOL    HW1  134   0.388   1.917   2.499  0.3751  0.5397  0.9059
   45SOL    HW2  135   0.473   1.853   2.636 -0.5460 -0.7787  0.8110
   46SOL     OW  136   1.251   0.689   0.194  0.0462 -0.3321 -0.2493
   46SOL    HW1  137   1.280   0.740   0.111 -0.5172 -0.1888  1.5049
   46SOL    HW2  138   1.205   0.744   0.263 -0.5830 -1.0621  1.3443
   47SOL     OW  139   0.221   2.504   1.566 -0.2443  0.3659 -0.4519
   47SOL    HW1  140   0.286   2.439   1.516  1.6360  0.3588 -1.4102
   47SOL    HW2  141   0.172   2.570   1.503  0.4521 -2.2888  1.4591
   48SOL     OW  142   2.628   0.636   0.133  0.3438 -0.2263  0.1792
   48SOL    HW1  143   2.605   0.594   0.227 -0.3477  2.0716 -0.5743
   48SOL    HW2  144   2.702   0.705   0.140  1.0260  3.2274 -1.1753
   49SOL     OW  145   0.299   0.818   1.747 -0.4978  0.0401  0.3414
   49SOL    HW1  146   0.379   0.822   1.811 -0.1871  1.2615  0.2517
   49SOL    HW2  147   0.314   0.744   1.674 -1.3496 -0.4772  0.0523
   50SOL     OW  148   1.673   1.138   0.320  0.1301  0.4117  0.4539
   50SOL    HW1  149   1.650   1.051   0.268  1.1066  0.4891 -1.6785
   50SOL    HW2  150   1.612   1.165   0.400 -0.3382  0.5907  2.5053
   51SOL     OW  151   2.881   1.826   0.298 -0.1515 -1.0131 -0.6852
   51SOL    HW1  152   2.798   1.780   0.253 -1.1150  1.1986  0.1628
   51SOL    HW2  153   2.961   1.769   0.306 -1.7897 -0.0910  0.3499
   52SOL     OW  154   0.764   2.004   0.503 -0.1596  0.0014  0.4943
   52SOL    HW1  155   0.684   2.058   0.544 -2.9733  0.2328 -1.4168
   52SOL    HW2  156   0.814   1.944   0.564  0.0689  1.3580 -0.7246
   53SOL     OW  157   0.186   0.409   1.589  0.6128 -0.2168 -0.4421
   53SOL    HW1  158   0.241   0.498   1.583  1.6014  0.3789 -0.7160
   53SOL    HW2  159   0.086   0.432   1.573 -0.4681  0.3134 -0.2538
   54SOL     OW  160   1.813   0.479   3.059 -0.3982  0.4170  0.1825
   54SOL    HW1  161   1.868   0.446   3.141 -1.5433 -2.0491  0.4413
   54SOL    HW2  162   1.712   0.489   3.073  3.0928  0.5407  2.0491
   55SOL     OW  163   0.765   2.904   0.686 -0.3637 -0.0087 -0.2149
   55SOL    HW1  164   0.734   3.004   0.676  0.6775 -0.2914  2.2836
   55SOL    HW2  165   0.855   2.890   0.633 -0.5020  2.6344 -0.7185
   56SOL     OW  166   0.525   1.591   0.015  0.7912  0.0113  0.2561
   56SOL    HW1  167   0.436   1.638   0.021  3.3249  0.6002 -1.3781
   56SOL    HW2  168   0.529   1.516  -0.061 -0.2674 -0.8583  0.9246
   57SOL     OW  169   1.724   2.511   2.479 -0.2304  0.1455 -0.5678
   57SOL    HW1  170   1.765   2.422   2.472 -2.4849  0.8817 -2.1176
   57SOL    HW2  171   1.637   2.523   2.543 -1.4202  3.7256  1.1438
   58SOL     OW  172   0.657   0.249   1.035  0.3874 -0.6079  0.5285
   58SOL    HW1  173   0.558   0.230   1.055 -0.8058  0.9452 -1.2940
   58SOL    HW2  174   0.714   0.171   1.064  0.9063 -2.4038  0.6322
   59SOL     OW  175   0.456   2.447   2.736  0.0137 -0.2175 -0.6720
   59SOL    HW1  176   0.474   2.358   2.688  4.8976  0.7804  0.2907
   59SOL    HW2  177   0.543   2.484   2.784  0.7546 -1.7495  1.1549
   60SOL     OW  178   2.288   2.041   2.209  0.0824  0.3781  0.3873
   60SOL    HW1  179   2.374   2.058   2.159  1.2354  2.2011 -2.6019
   60SOL    HW2  180   2.307   2.074   2.306 -0.9122 -0.8232  2.2990
   61SOL     OW  181   1.329   0.632   0.498 -0.2169  0.1907 -0.0482
   61SOL    HW1  182   1.226   0.661   0.506 -1.1828 -0.2337  0.0627
   61SOL    HW2  183   1.380   0.683   0.423 -2.1970  0.8589  0.3297
   62SOL     OW  184   2.746   1.813   2.929 -0.6168  0.5831  0.5823
   62SOL    HW1  185   2.693   1.724   2.911 -1.7568  0.8953 -0.7554
   62SOL    HW2  186   2.833   1.812   2.877 -2.4103 -0.6218 -0.4444
   63SOL     OW  187   0.581   0.893   0.196 -0.4677 -0.4228  0.1169
   63SOL    HW1  188   0.654   0.934   0.128  0.2560  1.1857  0.7333
   63SOL    HW2  189   0.622   0.868   0.290 -1.9851 -1.9430  1.7483
   64SOL     OW  190   0.105   0.477   2.472 -0.1666 -0.1532 -0.2434
   64SOL    HW1  191   0.130   0.526   2.560 -1.0102  1.5765  0.5143
   64SOL    HW2  192   0.084   0.534   2.394  0.3175 -3.2175  0.5771
   65SOL     OW  193   0.154   1.501   0.536 -0.2210  0.1217 -0.4040
   65SOL    HW1  194   0.186   1.559   0.616 -2.9571  2.6311  2.0379
   65SOL    HW2  195   0.235   1.464   0.485  0.4657  0.7590 -0.2104
   66SOL     OW  196   2.568   0.385   0.616 -0.0143 -0.4508  0.3024
   66SOL    HW1  197   2.676   0.376   0.615  2.9137 -2.3342 -1.1358
   66SOL    HW2  198   2.518   0.321   0.683 -0.6945 -1.2477  0.3300
   67SOL     OW  199   0.535   2.545   1.377 -0.3937  0.4205  0.0638
   67SOL    HW1  200   0.582   2.531   1.464  0.8485 -2.4598 -0.5525
   67SOL    HW2  201   0.457   2.482   1.362 -0.1771 -0.1131  3.3274
   68SOL     OW  202   1.013   1.086   2.470  0.0174 -0.3131  0.1177
   68SOL    HW1  203   1.079   1.006   2.465 -0.4668  0.4890 -0.2045
   68SOL    HW2  204   0.934   1.080   2.404  0.6465 -1.0536  2.2645
   69SOL     OW  205   0.735   2.731   2.173 -0.0354  0.2936 -0.1300
   69SOL    HW1  206   0.740   2.631   2.204  0.7046  0.1572  0.4943
   69SOL    HW2  207   0.641   2.759   2.154 -0.6929  1.1699 -2.5516
   70SOL     OW  208   0.519   0.306   2.693  0.3104 -0.2628 -0.0125
   70SOL    HW1  209   0.506   0.325   2.794 -1.3800 -3.1123  1.2431
   70SOL    HW2  210   0.529   0.204   2.667  2.6624 -2.7101 -0.3998
   71SOL     OW  211   1.119   1.744   0.460  0.3604  0.1842  0.8063
   71SOL    HW1  212   1.080   1.682   0.528  0.3157  0.8632 -3.9103
   71SOL    HW2  213   1.064   1.749   0.370  1.2435 -1.0059 -1.6840
   72SOL     OW  214   1.811   0.211   2.168 -0.5659 -0.0656  0.5650
   72SOL    HW1  215   1.902   0.259   2.197 -1.2190  0.9937  0.1915
   72SOL    HW2  216   1.829   0.112   2.151  1.8311  1.4640 -2.3433
   73SOL     OW  217   2.812   2.189   2.419 -0.2537  0.3189 -0.1782
   73SOL    HW1  218   2.810   2.096   2.367  0.6454 -4.6633 -2.9142
   73SOL    HW2  219   2.866   2.176   2.511 -0.5495 -0.0446 -0.8685
   74SOL     OW  220   2.656   2.915   2.137 -0.0083  0.0024  0.4396
   74SOL    HW1  221   2.589   2.915   2.217  1.0333  0.5576 -1.6741
   74SOL    HW2  222   2.749   2.888   2.161 -0.0997  0.1999  0.2382
   75SOL     OW  223   0.911   0.788   1.113 -0.1714  0.6594  0.1132
   75SOL    HW1  224   0.818   0.816   1.073  1.9711  1.4788 -0.9640
   75SOL    HW2  225   0.929   0.850   1.197 -1.9712 -1.7453 -0.1055
   76SOL     OW  226   1.684   1.168   2.503 -0.5080 -0.3423  0.2585
   76SOL    HW1  227   1.580   1.146   2.492  0.6244 -2.2276 -1.9571
   76SOL    HW2  228   1.703   1.267   2.530  3.3786  1.0722 -2.0133
   77SOL     OW  229   2.971   0.922   0.947 -0.4558 -0.4624 -0.0747
   77SOL    HW1  230   2.939   0.824   0.963  1.5084 -3.4644  1.0143
   77SOL    HW2  231   3.061   0.935   0.997 -0.5342  2.1819  1.1805
   78SOL     OW  232   2.061   1.486   1.522 -0.0711  0.1744 -0.8156
   78SOL    HW1  233   2.145   1.500   1.462 -2.0100  2.2633 -2.0609
   78SOL    HW2  234   1.972   1.468   1.472 -1.2707 -1.1447  0.0981
   79SOL     OW  235   0.589   1.370   0.863 -0.4432  0.3896 -0.7520
   79SOL    HW1  236   0.488   1.367   0.884 -0.9146  2.5257 -2.7111
   79SOL    HW2  237   0.617   1.319   0.773  0.0091 -1.7843  0.5247
   80SOL     OW  238   0.638   0.506   1.591 -0.2233  0.3461  0.1898
   80SOL    HW1  239   0.717   0.546   1.533  2.2875  0.5500  0.6851
   80SOL    HW2  240   0.609   0.415   1.553  2.5661 -0.1661  2.0908
   81SOL     OW  241   1.023   1.397   2.631  0.0695  0.1261  0.3320
   81SOL    HW1  242   1.095   1.331   2.589  0.2668 -0.5069 -0.2537
   81SOL    HW2  243   0.937   1.408   2.572  0.2795 -1.8508 -0.9416
   82SOL     OW  244   1.005   2.952   1.517  0.2372  0.5276  0.4710
   82SOL    HW1  245   1.040   2.980   1.424 -0.2987  0.8015  0.0509
   82SOL    HW2  246   0.911   2.911   1.513 -0.3890  1.2481  1.8078
   83SOL     OW  247   2.738   2.457   0.858  0.1203 -0.0946  0.2748
   83SOL    HW1  248   2.649   2.407   0.820 -0.7141 -0.2574  0.5189
   83SOL    HW2  249   2.734   2.557   0.836 -0.7695  1.2046  0.6097
   84SOL     OW  250   0.647   3.031   2.357  0.3039 -0.6431 -0.5055
   84SOL    HW1  251   0.553   3.019   2.409  0.1340  0.8222  2.5919
   84SOL    HW2  252   0.703   2.946   2.374 -0.5171  0.1185 -1.5512
   85SOL     OW  253   0.257   1.580   1.492  0.1532 -0.3364 -0.1747
   85SOL    HW1  254   0.238   1.679   1.481 -1.1712 -1.3387  0.2820
   85SOL    HW2  255   0.337   1.562   1.551 -1.7321 -2.1675  1.5605
   86SOL     OW  256   0.391   0.997   1.534 -0.1224 -0.2782 -0.0907
   86SOL    HW1  257   0.388   0.940   1.446 -0.1793  0.6660 -1.5601
   86SOL    HW2  258   0.413   0.942   1.620 -0.9872  0.8158  0.7051
   87SOL     OW  259   1.576   0.679   0.210  0.1244 -0.0716  0.1568
   87SOL    HW1  260   1.657   0.746   0.186 -3.4171  1.7758  0.1144
   87SOL    HW2  261   1.552   0.616   0.128 -0.4004 -1.0516 -2.4237
   88SOL     OW  262   1.604   1.376   0.222 -0.6562 -0.1392  0.6615
   88SOL    HW1  263   1.640   1.282   0.252  0.4930 -0.8395  1.5570
   88SOL    HW2  264   1.502   1.367   0.196  0.6902  1.4664  0.4864
   89SOL     OW  265   0.003   0.456   0.585  0.0300  0.5662  0.0621
   89SOL    HW1  266   0.067   0.379   0.564  0.4117  0.7008 -3.1182
   89SOL    HW2  267  -0.095   0.427   0.572 -1.1717 -1.5259  0.7845
   90SOL     OW  268   0.888   1.591   0.056  0.6448 -0.5403  0.2580
   90SOL    HW1  269   0.793   1.583   0.096 -1.6820  1.8054 -1.8884
   90SOL    HW2  270   0.888   1.599  -0.048  1.6539  0.4363  1.6672
   91SOL     OW  271   1.213   1.458   1.814 -0.0483 -0.5374  0.5458
   91SOL    HW1  272   1.210   1.553   1.852 -1.2601 -0.2811 -3.4628
   91SOL    HW2  273   1.304   1.441   1.779 -1.6072  1.4147 -0.9999
   92SOL     OW  274   3.091   0.981   1.200 -0.0797  0.0968  0.5567
   92SOL    HW1  275   3.120   1.079   1.180 -0.1783 -0.6049 -0.9110
   92SOL    HW2  276   3.115   0.951   1.297  0.3420  0.8184  1.6843
   93SOL     OW  277   0.015   2.707   3.056  0.4882  0.0838 -0.5612
   93SOL    HW1  278  -0.059   2.721   2.983 -0.2023  0.3520 -0.2552
   93SOL    HW2  279   0.034   2.609   3.086 -2.6726 -0.7154  0.9241
   94SOL     OW  280   1.502   1.497   1.741  0.5991 -0.2912  0.1356
   94SOL    HW1  281   1.543   1.405   1.720  1.9901  0.3989  1.5051
   94SOL    HW2  282   1.547   1.552   1.821  1.2761  1.9393 -0.9167
   95SOL     OW  283   1.352   2.546   2.981  0.1707 -0.2417 -0.0207
   95SOL    HW1  284   1.296   2.520   3.064  0.4084 -0.3803  0.5408
   95SOL    HW2  285   1.368   2.460   2.921  1.0663 -0.9915  1.6938
   96SOL     OW  286   0.550   2.117   1.248  0.0782 -0.3032 -0.2882
   96SOL    HW1  287   0.498   2.074   1.173  0.3443  0.4186  1.6999
   96SOL    HW2  288   0.607   2.054   1.306 -0.5048 -1.2683  0.1636
   97SOL     OW  289   0.419   1.607   2.470  0.4694 -0.2318  0.1439
   97SOL    HW1  290   0.324   1.644   2.501 -2.2301 -2.1093  2.0285
   97SOL    HW2  291   0.488   1.606   2.546  2.1584  1.0244 -1.8178
   98SOL     OW  292   2.017   1.606   1.216  0.5440 -0.0127 -0.2408
   98SOL    HW1  293   1.921   1.585   1.253  0.7310  0.1648 -1.0547
   98SOL    HW2  294   2.039   1.553   1.129  0.2078 -0.7978 -1.7271
   99SOL     OW  295   2.456   2.048   1.388  0.7049 -0.0103 -0.4728
   99SOL    HW1  296   2.497   2.023   1.480  0.4341 -1.5775 -0.3302
   99SOL    HW2  297   2.435   1.962   1.333 -1.7410  0.2772 -0.6519
  100SOL     OW  298   2.372   0.307   2.115  0.6102  0.1734  0.0942
  100SOL    HW1  299   2.307   0.288   2.197  0.9359 -0.5281 -2.2296
  100SOL    HW2  300   2.436   0.389   2.135 -0.4924  0.3605 -0.9506
  101SOL     OW  301   0.399   1.504   0.394  0.3755 -0.5693  0.8158
  101SOL    HW1  302   0.481   1.497   0.462  0.5630 -0.6316  2.4079
  101SOL    HW2  303   0.369   1.602   0.380 -0.7751  0.3483  1.3059
  102SOL     OW  304   2.260   1.026   0.848 -0.3667  0.2827  0.8041
  102SOL    HW1  305   2.180   0.961   0.841  2.3734 -1.1989  0.1037
  102SOL    HW2  306   2.281   1.075   0.760  0.8485  0.2672 -3.3710
  103SOL     OW  307   2.274   0.068   0.400 -0.2769 -0.1188  0.2836
  103SOL    HW1  308   2.290   0.169   0.389  1.0529  2.7006 -0.0428
  103SOL    HW2  309   2.361   0.023   0.432  0.2483  2.5393 -0.4874
  104SOL     OW  310   0.082   1.750   2.205 -0.2647  0.0720  0.3835
  104SOL    HW1  311   0.133   1.683   2.138  2.2440  0.7215  1.0776
  104SOL    HW2  312  -0.004   1.794   2.167 -1.2277  0.5694 -1.1173
  105SOL     OW  313   1.218   2.098   0.794  0.1824 -0.0733 -0.0760
  105SOL    HW1  314   1.154   2.107   0.714  0.1316 -0.4728 -1.8640
  105SOL    HW2  315   1.268   2.008   0.800 -1.1582 -1.2853  1.2252
  106SOL     OW  316   2.104   0.429   1.403 -0.1434  0.0467 -0.3816
  106SOL    HW1  317   2.055   0.336   1.415 -0.3286 -0.9692  0.1389
  106SOL    HW2  318   2.097   0.484   1.492  0.4744  0.4465 -0.1704
  107SOL     OW  319   1.830   3.013   1.182 -0.2851  0.5947 -0.4489
  107SOL    HW1  320   1.859   3.097   1.233 -1.2242 -0.3086 -1.6818
  107SOL    HW2  321   1.759   2.956   1.238 -0.6046  0.6891 -1.5842
  108SOL     OW  322   0.765   2.804   1.233 -0.2858 -0.2452  0.6502
  108SOL    HW1  323   0.753   2.806   1.336  0.6670 -1.8910  1.2392
  108SOL    HW2  324   0.859   2.827   1.201  0.5595 -1.0704  1.9419
  109SOL     OW  325   2.141   0.110   0.764 -0.1681 -0.4372  0.9891
  109SOL    HW1  326   2.047   0.080   0.731 -0.5863 -1.0539  0.1904
  109SOL    HW2  327   2.163   0.083   0.864  0.9396  0.6487  2.0902
  110SOL     OW  328   0.464   2.832   2.794  0.2176 -0.7679  0.6326
  110SOL    HW1  329   0.455   2.847   2.694  0.1233  0.3969  0.8624
  110SOL    HW2  330   0.539   2.767   2.817 -0.1057  1.5517 -1.3395
  111SOL     OW  331   1.312   0.566   2.332  0.0155 -0.3061 -0.2173
  111SOL    HW1  332   1.222   0.603   2.372  1.5808 -1.5778  0.6823
  111SOL    HW2  333   1.328   0.465   2.356  0.0639 -2.4701 -2.8483
  112SOL     OW  334   1.724   0.550   1.441 -1.0581 -0.6555 -0.1533
  112SOL    HW1  335   1.742   0.544   1.339 -0.4936  0.2920  0.3022
  112SOL    HW2  336   1.689   0.463   1.476  2.2852  0.6545  1.2078
  113SOL     OW  337   2.282   1.681   1.767  0.3763 -0.2087 -0.2780
  113SOL    HW1  338   2.315   1.590   1.728  2.5842 -0.9634 -0.8996
  113SOL    HW2  339   2.308   1.688   1.868  3.0384  0.0170 -0.5649
  114SOL     OW  340   0.384   0.525   1.255  0.6276  0.2948  0.3568
  114SOL    HW1  341   0.422   0.570   1.173  0.6889 -0.2998 -2.2079
  114SOL    HW2  342   0.283   0.530   1.271  1.2498  0.9123  1.3322
  115SOL     OW  343   2.743   1.585   1.263 -0.7568  0.5632 -0.1595
  115SOL    HW1  344   2.761   1.479   1.266 -1.0982  0.7427 -1.2033
  115SOL    HW2  345   2.761   1.628   1.173 -0.0366  0.3395  1.9142
  116SOL     OW  346   1.834   1.045   0.707 -0.5073  0.1874 -0.6517
  116SOL    HW1  347   1.755   0.983   0.672 -1.7303 -1.2764 -1.1334
  116SOL    HW2  348   1.793   1.117   0.771 -1.4405  3.2541 -1.8656
  117SOL     OW  349   1.227   0.375   0.556  0.4826  0.1725 -0.0396
  117SOL    HW1  350   1.226   0.436   0.635  0.2756 -1.4809 -2.4921
  117SOL    HW2  351   1.242   0.440   0.472 -0.4380  0.4296 -1.5119
  118SOL     OW  352   1.136   1.114   1.106  0.1957  0.0240 -0.2070
  118SOL    HW1  353   1.100   1.047   1.186  1.5020 -3.7012  4.0819
  118SOL    HW2  354   1.137   1.211   1.143  1.9000 -0.2039  0.1744
  119SOL     OW  355   1.817   1.610   2.150  0.3051 -0.9330  0.2625
  119SOL    HW1  356   1.802   1.714   2.166 -0.5280 -0.6528  0.3172
  119SOL    HW2  357   1.913   1.594   2.121 -2.5396  0.5873  1.1280
  120SOL     OW  358   2.957   2.880   0.115 -0.2036 -0.0660 -0.2091
  120SOL    HW1  359   3.017   2.827   0.047  2.8447 -1.0937 -0.3567
  120SOL    HW2  360   2.867   2.832   0.124  0.7944  2.5603  1.4225
  121SOL     OW  361   1.988   0.749   2.226  0.3374  0.1207 -1.0327
  121SOL    HW1  362   2.016   0.802   2.145  2.1319 -0.6282 -1.0585
  121SOL    HW2  363   2.017   0.647   2.222  0.5461 -0.0587 -1.2647
  122SOL     OW  364   2.581   2.656   1.233  0.2379 -0.3072  0.5754
  122SOL    HW1  365   2.650   2.584   1.208 -2.8350  1.4270 -0.8602
  122SOL    HW2  366   2.488   2.635   1.201 -0.4281 -0.8209  2.1195
  123SOL     OW  367   1.733   0.078   1.720 -0.2773 -0.2714 -0.5062
  123SOL    HW1  368   1.744  -0.007   1.665 -0.1958  1.0728  2.0276
  123SOL    HW2  369   1.825   0.123   1.750  1.8164 -0.4701 -0.5278
  124SOL     OW  370   0.094   0.475   1.106 -0.3136  0.4542 -0.2663
  124SOL    HW1  371   0.100   0.550   1.181 -3.0803 -0.9066  0.6768
  124SOL    HW2  372   0.072   0.515   1.018  2.2255 -2.8818  3.3831
  125SOL     OW  373   0.857   1.830   0.698  0.1955 -0.5595 -0.3385
  125SOL    HW1  374   0.952   1.807   0.736  1.3397 -0.9527 -0.4948
  125SOL    HW2  375   0.799   1.885   0.761  1.0965  0.3052 -0.8969
  126SOL     OW  376   1.865   2.271   2.445 -0.3183 -0.4157 -0.0643
  126SOL    HW1  377   1.909   2.246   2.352 -0.7712 -1.3276 -0.6607
  126SOL    HW2  378   1.798   2.196   2.469  1.0057 -2.0350  1.0522
  127SOL     OW  379   1.000   0.896   0.263  0.6998 -0.1881  0.3238
  127SOL    HW1  380   0.980   0.947   0.355 -1.9777 -0.0578  0.1517
  127SOL    HW2  381   0.958   0.803   0.262  1.1094 -0.6748  1.9102
  128SOL     OW  382   0.909   0.222   1.399  0.2251 -0.3275  0.4801
  128SOL    HW1  383   0.902   0.298   1.328 -0.3784  2.7139 -1.9368
  128SOL    HW2  384   0.861   0.132   1.362  1.9446 -2.5895  3.5256
  129SOL     OW  385   1.826   0.693   1.885  0.1057 -0.1819 -0.7722
  129SOL    HW1  386   1.837   0.676   1.787 -0.1960  0.3477  1.9229
  129SOL    HW2  387   1.886   0.772   1.916  0.2357  1.9242  0.1622
  130SOL     OW  388   1.362   2.216   1.018  0.1973 -0.8329  0.3571
  130SOL    HW1  389   1.314   2.160   0.944 -2.6655  0.4125 -0.9597
  130SOL    HW2  390   1.441   2.272   0.987 -1.8530  2.9750 -0.4290
  131SOL     OW  391   3.067   1.455   1.404 -0.1599  0.1542  0.3292
  131SOL    HW1  392   2.997   1.380   1.412  0.2873 -0.3863  1.0784
  131SOL    HW2  393   3.168   1.428   1.398  0.4706 -0.1293  0.8618
  132SOL     OW  394   2.058   2.447   0.516  0.2180  0.0926  0.0097
  132SOL    HW1  395   1.959   2.463   0.510  1.4223 -0.3663  1.5246
  132SOL    HW2  396   2.078   2.358   0.571  1.1271 -0.3038  1.1267
  133SOL     OW  397   1.869   2.320   2.841 -0.0830  0.0841 -0.0777
  133SOL    HW1  398   1.831   2.376   2.765  0.6570  1.2971  0.4390
  133SOL    HW2  399   1.972   2.325   2.863  2.0287 -1.8526 -2.9362
  134SOL     OW  400   2.661   2.362   1.633 -0.0338  0.1760 -0.6873
  134SOL    HW1  401   2.591   2.346   1.709 -0.9146 -0.4341 -0.5659
  134SOL    HW2  402   2.729   2.440   1.644  0.8606  0.3827 -0.9341
  135SOL     OW  403   0.645   1.464   2.669 -0.2278 -0.2945 -0.2949
  135SOL    HW1  404   0.592   1.378   2.688  2.2618  2.7071  0.1841
  135SOL    HW2  405   0.726   1.443   2.601 -0.3661  0.3254 -4.2486
  136SOL     OW  406   1.189   2.023   0.418  0.1260  0.3493 -0.0713
  136SOL    HW1  407   1.120   2.090   0.451  0.3500  2.1418  1.8808
  136SOL    HW2  408   1.161   1.926   0.442  0.8551 -1.4057  1.6688
  137SOL     OW  409   0.420   1.180   2.172 -0.1113  0.1618 -0.3241
  137SOL    HW1  410   0.314   1.168   2.200 -2.1457  2.2876  0.4392
  137SOL    HW2  411   0.471   1.089   2.183 -0.5136 -0.6287 -3.6813
  138SOL     OW  412   2.473   1.524   0.219  0.1287 -0.4877 -0.4927
  138SOL    HW1  413   2.391   1.463   0.208  1.7521  1.7634  1.5233
  138SOL    HW2  414   2.537   1.490   0.293  2.8506  4.2414 -0.1805
  139SOL     OW  415   1.852   2.602   1.288 -0.0761  0.2367  0.0947
  139SOL    HW1  416   1.750   2.603   1.261 -1.8023 -0.6161  1.1514
  139SOL    HW2  417   1.883   2.517   1.334 -2.9277 -0.3802  1.3913
  140SOL     OW  418   3.015   2.990   2.545  0.0187  0.4143  0.1274
  140SOL    HW1  419   3.056   2.893   2.553 -2.0527 -0.7731  0.2301
  140SOL    HW2  420   3.089   3.061   2.520  0.3133  2.1904 -0.0605
  141SOL     OW  421   1.334   1.668   1.606  0.4499 -0.3688 -0.4340
  141SOL    HW1  422   1.230   1.671   1.624 -0.8705  0.4571 -0.5075
  141SOL    HW2  423   1.391   1.610   1.673  0.3272 -1.2150 -1.0422
  142SOL     OW  424   1.585   0.585   2.252  0.3487  0.2460 -0.3551
  142SOL    HW1  425   1.598   0.586   2.151  0.5964 -0.8141 -0.4696
  142SOL    HW2  426   1.488   0.593   2.295  0.5887  2.1488  0.8247
  143SOL     OW  427   2.707   0.896   0.508 -0.5286  0.1791 -0.7490
  143SOL    HW1  428   2.756   0.952   0.432  0.8993 -0.1012 -1.4029
  143SOL    HW2  429   2.744   0.925   0.606  0.4337 -2.2194  1.7941
  144SOL     OW  430   2.910   1.162   1.443 -0.4597  0.2540  0.0663
  144SOL    HW1  431   2.836   1.137   1.509 -0.8421  0.2964 -1.6205
  144SOL    HW2  432   2.979   1.085   1.450 -1.0897  0.5912  0.8044
  145SOL     OW  433   0.980   1.815   0.180 -0.4792 -0.1323  0.1592
  145SOL    HW1  434   1.042   1.876   0.125  2.5800 -1.2625  1.0046
  145SOL    HW2  435   0.940   1.731   0.134 -1.4778 -1.1124  0.3644
  146SOL     OW  436   2.514   0.666   1.499  0.1771 -0.1313 -0.2667
  146SOL    HW1  437   2.496   0.569   1.471  0.1852  0.2282  0.1516
  146SOL    HW2  438   2.446   0.740   1.473 -0.9554 -1.6776  0.1729
  147SOL     OW  439   1.093   2.465   0.636 -0.1148  0.5428  0.6255
  147SOL    HW1  440   1.059   2.529   0.552 -2.2601  0.3251 -1.6994
  147SOL    HW2  441   1.186   2.416   0.626  1.7650 -2.4353  1.4592
  148SOL     OW  442   1.625   1.483   3.043 -0.4640 -0.1649  0.0590
  148SOL    HW1  443   1.627   1.394   2.990  0.1134 -0.9102 -3.4202
  148SOL    HW2  444   1.606   1.479   3.143  0.5307 -0.7687  0.2574
  149SOL     OW  445   0.698   1.389   1.981  0.2990 -0.1856 -0.2018
  149SOL    HW1  446   0.593   1.397   1.974 -0.0734 -2.1240  2.1428
  149SOL    HW2  447   0.733   1.319   1.916 -1.2497 -0.2026  1.5874
  150SOL     OW  448   3.017   1.221   0.943 -0.2561 -0.1632 -0.1104
  150SOL    HW1  449   3.105   1.235   1.000  0.5019 -1.9930  1.1117
  150SOL    HW2  450   2.962   1.138   0.979 -0.3101 -1.0614  1.1358
  151SOL     OW  451   0.176   0.737   2.121 -0.5371 -0.0363 -0.1197
  151SOL    HW1  452   0.166   0.831   2.075  0.2300  0.1777  0.0932
  151SOL    HW2  453   0.232   0.673   2.061 -0.6455  0.9479 -2.7039
  152SOL     OW  454   1.427   1.767   1.290  0.1768 -0.1200  0.3383
  152SOL    HW1  455   1.438   1.854   1.337  0.4499  1.0057 -1.8213
  152SOL    HW2  456   1.331   1.757   1.245  0.1699  0.2692 -1.4006
  153SOL     OW  457   0.043   1.531   0.162  0.4545  0.4100 -0.1182
  153SOL    HW1  458   0.047   1.428   0.175  0.0727  0.7742  1.9913
  153SOL    HW2  459   0.027   1.577   0.253  1.9383 -0.6107  0.1094
  154SOL     OW  460   2.391   1.849   2.799 -0.1327 -0.7178  0.8122
  154SOL    HW1  461   2.388   1.749   2.812 -0.0674 -0.9155  0.9121
  154SOL    HW2  462   2.452   1.876   2.720 -0.5154 -0.3766 -0.2182
  155SOL     OW  463   2.468   1.199   0.378 -0.4080 -0.1497  0.0697
  155SOL    HW1  464   2.557   1.214   0.323 -1.5774  1.4066 -3.0649
  155SOL    HW2  465   2.392   1.146   0.331  0.6679 -1.7249 -0.2120
  156SOL     OW  466   2.529   0.989   0.855  0.5307  0.4258 -0.7197
  156SOL    HW1  467   2.427   0.977   0.872  1.9106 -1.3395 -0.0182
  156SOL    HW2  468   2.549   1.053   0.772 -1.7442  2.1088 -2.0719
  157SOL     OW  469   1.280   2.934   3.028 -0.3178  0.2550 -0.1065
  157SOL    HW1  470   1.299   2.922   2.925 -0.0605 -0.4631  2.5659
  157SOL    HW2  471   1.305   3.028   3.064 -0.7061  0.1580 -1.9313
  158SOL     OW  472   1.004   1.832   1.895 -0.2293  0.1425  0.1841
  158SOL    HW1  473   1.023   1.934   1.877  0.9626  0.6935  4.1077
  158SOL    HW2  474   0.899   1.818   1.918 -2.9120  0.6401 -0.1710
  159SOL     OW  475   0.835   0.421   1.216  0.3380 -0.3092  0.1650
  159SOL    HW1  476   0.806   0.494   1.281  0.9792 -0.6953 -0.2131
  159SOL    HW2  477   0.757   0.371   1.166 -1.4580 -1.2324 -0.2737
  160SOL     OW  478   1.408   2.343   1.564  0.4630  0.8992 -0.1552
  160SOL    HW1  479   1.386   2.253   1.616 -1.8200 -0.3619 -0.2014
  160SOL    HW2  480   1.510   2.362   1.552 -0.8360 -1.0256 -0.1841
  161SOL     OW  481   0.072   2.952   0.332 -0.4226 -0.2472  0.5581
  161SOL    HW1  482   0.041   2.857   0.315  2.5755  2.0499  1.9350
  161SOL    HW2  483   0.075   3.016   0.252 -0.0578  1.7583  2.1354
  162SOL     OW  484   2.568   1.881   0.490  1.0545  0.1315  0.0910
  162SOL    HW1  485   2.547   1.822   0.404  0.2953 -3.2162 -1.5205
  162SOL    HW2  486   2.567   1.832   0.580 -3.4628 -1.0881  0.2722
  163SOL     OW  487   1.905   2.844   0.728  0.5156 -0.3039 -0.1491
  163SOL    HW1  488   1.922   2.881   0.634 -0.2099 -0.6428 -0.4722
  163SOL    HW2  489   1.956   2.758   0.743 -1.5315  0.6716  1.3378
  164SOL     OW  490   3.067   0.260   1.227  0.2564 -0.0918  0.5269
  164SOL    HW1  491   3.117   0.345   1.195 -2.1448 -1.5495  0.6015
  164SOL    HW2  492   3.117   0.208   1.303 -0.0960  1.0752 -2.4476
  165SOL     OW  493   0.971   1.449   0.749  0.3006 -0.5480  0.0146
  165SOL    HW1  494   0.926   1.507   0.827 -2.0309  0.1918  4.5500
  165SOL    HW2  495   0.963   1.481   0.652  2.5117 -0.8098 -0.0146
  166SOL     OW  496   1.505   1.054   1.745  0.7433 -0.2806 -0.2393
  166SOL    HW1  497   1.428   1.042   1.810  0.1590 -2.2833 -2.4595
  166SOL    HW2  498   1.570   1.122   1.784 -0.7993  0.0850 -0.6932
  167SOL     OW  499   0.721   1.967   1.437  0.2884  0.9117 -0.5256
  167SOL    HW1  500   0.742   2.025   1.522 -4.4376  1.2728  0.4614
  167SOL    HW2  501   0.700   1.870   1.462 -0.0357  3.2402 -1.5755
  168SOL     OW  502   1.661   2.377   0.150  0.5892 -0.7538  0.4308
  168SOL    HW1  503   1.728   2.421   0.087 -2.5143 -1.3665  0.8152
  168SOL    HW2  504   1.713   2.348   0.231 -1.4987  0.9487  1.6072
  169SOL     OW  505   0.216   2.551   2.260  0.6889  0.1837 -0.0599
  169SOL    HW1  506   0.250   2.487   2.185 -0.2887  1.0556  0.9210
  169SOL    HW2  507   0.229   2.506   2.351 -0.0195  1.0340  0.6333
  170SOL     OW  508   1.130   0.219   2.013 -0.0235 -0.4779  0.2988
  170SOL    HW1  509   1.195   0.210   2.093 -0.0786 -1.2238 -0.0928
  170SOL    HW2  510   1.162   0.189   1.921 -1.9730 -0.8387  1.9776
  171SOL     OW  511   0.180   0.782   2.399  0.1018 -0.0974 -0.9587
  171SOL    HW1  512   0.095   0.825   2.449 -0.5924 -0.6203 -0.0009
  171SOL    HW2  513   0.182   0.779   2.293  1.1210  1.3172  0.4047
  172SOL     OW  514   0.927   1.007   2.891  0.3707 -0.3412 -0.3566
  172SOL    HW1  515   0.984   1.086   2.924 -0.4058 -0.0438 -0.7842
  172SOL    HW2  516   0.874   1.027   2.802 -2.5691 -1.0022  0.0587
  173SOL     OW  517   0.662   2.688   0.139  0.4631 -0.0025 -0.2647
  173SOL    HW1  518   0.680   2.788   0.149 -0.4293  4.3085  1.0357
  173SOL    HW2  519   0.560   2.668   0.142 -1.5214 -2.0099  0.7711
  174SOL     OW  520   1.483   2.831   1.052  0.6693 -0.8910 -0.5950
  174SOL    HW1  521   1.460   2.920   1.002 -2.3423  1.9184 -0.9397
  174SOL    HW2  522   1.513   2.758   0.987  2.0332  0.8418  1.2868
  175SOL     OW  523   0.412   3.093   1.639  0.4150 -0.4704  0.5786
  175SOL    HW1  524   0.486   3.129   1.701  0.4136  0.9245  0.9737
  175SOL    HW2  525   0.380   3.160   1.567  2.1457 -1.9752  0.9352
  176SOL     OW  526   2.618   0.397   0.008  0.0720 -0.3143  0.0539
  176SOL    HW1  527   2.611   0.487   0.063 -0.7902 -0.6685  1.6445
  176SOL    HW2  528   2.544   0.331   0.021 -1.6685  2.4332 -0.8169
  177SOL     OW  529   0.352   0.307   0.992 -0.2056  0.1579 -0.8091
  177SOL    HW1  530   0.291   0.248   0.938 -0.3226  1.1171 -1.2553
  177SOL    HW2  531   0.306   0.375   1.049 -1.0155 -1.8034  1.4738
  178SOL     OW  532   0.000   2.736   2.579  0.5109  0.7046  0.1027
  178SOL    HW1  533  -0.075   2.668   2.607  2.2968 -1.0601 -1.3649
  178SOL    HW2  534   0.076   2.744   2.649  0.3536 -1.4942  0.5057
  179SOL     OW  535   3.079   1.614   1.142 -0.5469 -0.7116 -0.1777
  179SOL    HW1  536   2.980   1.637   1.116  0.4961 -0.1431 -0.0824
  179SOL    HW2  537   3.100   1.591   1.237 -2.1441  0.3965  0.6684
  180SOL     OW  538   0.180   1.206   1.867 -0.0728 -1.0749 -0.0780
  180SOL    HW1  539   0.281   1.181   1.872 -1.6965 -1.4577  0.7336
  180SOL    HW2  540   0.162   1.308   1.882  0.6758  3.2127 -0.3299
  181SOL     OW  541   3.038   1.856   2.498  0.5699  0.3000 -0.2938
  181SOL    HW1  542   3.109   1.932   2.507  1.3647 -2.5347 -1.3956
  181SOL    HW2  543   2.973   1.865   2.414  0.7746  1.0093 -1.9729
  182SOL     OW  544   2.266   1.316   1.172  0.9759  0.1171  0.0779
  182SOL    HW1  545   2.193   1.260   1.122 -0.8544  2.8109 -0.0129
  182SOL    HW2  546   2.281   1.409   1.122  0.5232  1.0756  2.0701
  183SOL     OW  547   1.483   2.246   2.596 -0.0989  0.4425  0.2227
  183SOL    HW1  548   1.392   2.192   2.578 -0.8270 -0.1283  2.3304
  183SOL    HW2  549   1.564   2.208   2.553 -0.5642  3.6906  1.5951
  184SOL     OW  550   2.014   0.846   0.765 -0.8222  0.1445 -0.5279
  184SOL    HW1  551   1.942   0.919   0.754  0.2870  2.9382  2.0480
  184SOL    HW2  552   1.981   0.769   0.825 -0.5238 -0.0491  2.0320
  185SOL     OW  553   1.630   2.766   2.051  0.4060 -0.2328 -0.4881
  185SOL    HW1  554   1.575   2.856   2.048 -0.2007  0.2386  3.4979
  185SOL    HW2  555   1.651   2.743   2.150 -2.0369 -2.6601  0.0441
  186SOL     OW  556   0.096   2.204   1.646 -0.0096  0.7558  0.1527
  186SOL    HW1  557   0.080   2.274   1.720  0.7763  0.3628  1.9075
  186SOL    HW2  558   0.183   2.142   1.654  0.3760  0.9314  1.1138
  187SOL     OW  559   1.294   0.764   1.675 -0.3037 -0.2957  0.2896
  187SOL    HW1  560   1.377   0.767   1.606  1.6005 -1.5850 -0.0621
  187SOL    HW2  561   1.326   0.799   1.767  0.9755 -0.7314 -0.8938
  188SOL     OW  562   2.763   2.787   1.423  0.2882 -0.7369  0.0672
  188SOL    HW1  563   2.739   2.887   1.430 -0.5404 -0.0341 -0.7182
  188SOL    HW2  564   2.705   2.738   1.349  0.4145  2.1872 -1.0184
  189SOL     OW  565   0.944   1.207   1.414  0.1189  0.2842  0.5987
  189SOL    HW1  566   1.015   1.232   1.481 -3.7450 -1.4220 -0.4114
  189SOL    HW2  567   0.898   1.289   1.374  1.4538 -0.9862 -0.9708
  190SOL     OW  568   1.463   1.903   1.591  0.1872  0.5036  0.2614
  190SOL    HW1  569   1.404   1.819   1.608 -2.2002 -0.6760 -2.9340
  190SOL    HW2  570   1.526   1.921   1.673  1.7837  0.9124 -0.5890
  191SOL     OW  571   0.971   0.725   1.581 -0.0126 -0.2221  0.1477
  191SOL    HW1  572   1.045   0.668   1.628 -2.0684 -0.8734  1.8671
  191SOL    HW2  573   0.948   0.820   1.621 -1.1159 -1.4716  3.1043
  192SOL     OW  574   1.870   2.245   1.115 -0.1898 -0.1199 -0.2425
  192SOL    HW1  575   1.775   2.246   1.079  1.8889 -0.0547 -0.6465
  192SOL    HW2  576   1.930   2.310   1.060 -0.1309 -1.1589 -0.4278
  193SOL     OW  577   0.593   0.574   0.471  0.1952 -0.1909  0.0767
  193SOL    HW1  578   0.533   0.493   0.488 -0.0672  4.2861  1.5599
  193SOL    HW2  579   0.638   0.568   0.374  1.3457  0.9154 -1.5463
  194SOL     OW  580   0.333   0.881   1.286 -0.0358  1.1093  0.2748
  194SOL    HW1  581   0.235   0.842   1.296 -0.2438 -2.0101 -1.1816
  194SOL    HW2  582   0.335   0.950   1.210 -0.0053 -0.7429 -2.0414
  195SOL     OW  583   1.005   2.882   0.547 -0.1276  0.5496  0.0449
  195SOL    HW1  584   1.020   2.782   0.530 -2.5907 -3.0928  1.3831
  195SOL    HW2  585   1.091   2.935   0.527  2.2542 -2.4042 -1.8480
  196SOL     OW  586   0.208   1.322   1.372  0.1432  0.0424  0.2716
  196SOL    HW1  587   0.240   1.412   1.413 -0.1146 -0.5809 -0.4109
  196SOL    HW2  588   0.196   1.250   1.447 -2.6311  0.2762  0.1301
  197SOL     OW  589   0.815   2.065   0.234 -0.1938  0.6112  0.1931
  197SOL    HW1  590   0.795   2.053   0.337  0.5307  1.4809  0.8177
  197SOL    HW2  591   0.877   1.985   0.204 -1.0679  0.9079 -0.1664
  198SOL     OW  592   0.291   1.249   0.239 -0.2024  0.0834  0.5113
  198SOL    HW1  593   0.190   1.261   0.249 -1.3179  1.6871 -0.3458
  198SOL    HW2  594   0.348   1.329   0.285  1.7358  2.3127 -0.2758
  199SOL     OW  595   2.244   0.363   2.531  0.5957 -0.2796 -0.0064
  199SOL    HW1  596   2.181   0.311   2.591  3.8008  0.5656 -3.0826
  199SOL    HW2  597   2.341   0.375   2.572  2.3232  0.4788 -0.9111
  200SOL     OW  598   0.029   2.930   0.755  0.2242 -0.7067  0.2843
  200SOL    HW1  599  -0.052   2.936   0.695  1.5143  0.2379  2.3715
  200SOL    HW2  600   0.063   3.024   0.780  0.5739 -1.5333 -3.1551
  201SOL     OW  601   1.072   0.748   0.607 -0.0284 -0.5179 -0.4519
  201SOL    HW1  602   1.069   0.804   0.692 -2.7132 -0.3875 -0.0100
  201SOL    HW2  603   0.993   0.685   0.610 -2.3171 -0.2973  0.2536
  202SOL     OW  604   0.441   1.133   1.858 -0.7075 -0.8424  0.8168
  202SOL    HW1  605   0.529   1.097   1.814 -0.0745 -0.3561 -0.6218
  202SOL    HW2  606   0.441   1.139   1.965 -1.2313  0.3944  0.1017
  203SOL     OW  607   0.656   0.203   1.531  0.0357 -0.0065 -0.2930
  203SOL    HW1  608   0.717   0.165   1.454 -0.2759  0.0469 -2.5443
  203SOL    HW2  609   0.699   0.196   1.626 -0.9739  1.8593 -0.8799
  204SOL     OW  610   2.071   1.848   2.911  0.1820 -0.2044 -1.1030
  204SOL    HW1  611   2.069   1.744   2.940  1.2049 -2.0786  2.7109
  204SOL    HW2  612   2.116   1.870   2.822  1.1288 -1.3615  1.3080
  205SOL     OW  613   1.828   1.858   3.065 -0.0188 -0.2284 -0.2222
  205SOL    HW1  614   1.915   1.839   3.011  3.4156  1.3855 -0.8497
  205SOL    HW2  615   1.810   1.960   3.086 -1.6778 -0.0770  1.9007
  206SOL     OW  616   2.504   2.795   0.323  0.0337  0.2566 -0.0225
  206SOL    HW1  617   2.558   2.708   0.347 -1.8426  1.5755  0.0775
  206SOL    HW2  618   2.566   2.867   0.285  0.8299 -0.3375  1.4988
  207SOL     OW  619   0.648   1.802   2.986 -0.0211  0.1384  0.7347
  207SOL    HW1  620   0.748   1.773   2.992 -1.2070 -0.9252  0.7189
  207SOL    HW2  621   0.588   1.731   3.033  1.9323  1.2116  1.2539
  208SOL     OW  622   1.110   1.561   1.371 -0.3559 -0.6322 -0.4773
  208SOL    HW1  623   1.153   1.632   1.306  0.2237 -0.4351 -1.0271
  208SOL    HW2  624   1.174   1.530   1.447 -1.0320  2.5079 -1.2557
  209SOL     OW  625   0.219   0.946   3.064 -0.4074 -0.5157 -0.6212
  209SOL    HW1  626   0.213   0.858   3.011 -0.4952 -1.9620 -0.4501
  209SOL    HW2  627   0.240   0.934   3.166 -1.0381  2.5157  0.7224
  210SOL     OW  628   1.801   0.519   1.183  0.1114 -0.6706 -0.0182
  210SOL    HW1  629   1.767   0.604   1.143  1.5863 -0.9999 -0.3080
  210SOL    HW2  630   1.900   0.496   1.153 -1.3187 -1.1260  2.3123
  211SOL     OW  631   2.134   1.036   1.555 -0.4480  0.7191 -0.4026
  211SOL    HW1  632   2.183   0.978   1.624 -0.4477 -0.7891 -0.6122
  211SOL    HW2  633   2.195   1.112   1.519 -3.6761  0.9738 -0.1588
  212SOL     OW  634   0.020   0.957   1.470  0.4850 -0.2696 -0.2211
  212SOL    HW1  635   0.064   1.041   1.512 -2.1451 -0.1630  1.7558
  212SOL    HW2  636   0.019   0.880   1.541  0.3523  2.1197  0.3175
  213SOL     OW  637   2.842   0.266   0.392 -0.3731 -0.0993  0.3545
  213SOL    HW1  638   2.877   0.179   0.341 -1.7532  1.0272 -1.7353
  213SOL    HW2  639   2.790   0.328   0.327  2.8335 -3.4800  1.5976
  214SOL     OW  640   2.159   0.248   2.299 -0.6344  0.0074 -0.4589
  214SOL    HW1  641   2.185   0.279   2.395  2.6400  2.8355 -1.7070
  214SOL    HW2  642   2.127   0.150   2.309  0.5196 -0.2347  1.1960
  215SOL     OW  643   1.628   2.268   2.134  0.3536 -0.3207 -0.4380
  215SOL    HW1  644   1.708   2.284   2.069 -0.2019 -0.9157  0.3681
  215SOL    HW2  645   1.593   2.356   2.174 -1.9462  0.5185  0.9464
  216SOL     OW  646   2.199   0.650   0.647  0.2275 -0.5958  0.2455
  216SOL    HW1  647   2.144   0.581   0.592  1.0544  1.0830  0.7238
  216SOL    HW2  648   2.141   0.734   0.666 -2.0686  0.2230 -1.7791
  217SOL     OW  649   0.763   2.799   2.434 -0.3305  0.0773  0.2335
  217SOL    HW1  650   0.755   2.721   2.504  1.8922 -1.3424 -1.3573
  217SOL    HW2  651   0.785   2.768   2.335  1.1034  0.5039  0.2462
  218SOL     OW  652   1.920   1.439   0.028 -0.2632 -0.3811 -0.1570
  218SOL    HW1  653   1.829   1.485  -0.002 -0.0070 -0.8427 -2.0210
  218SOL    HW2  654   1.911   1.346   0.072  1.0028  3.8676  0.0370
  219SOL     OW  655   2.387   1.305   2.538  0.8921 -0.0243  0.4282
  219SOL    HW1  656   2.435   1.266   2.455  0.9180 -1.6336 -1.2775
  219SOL    HW2  657   2.367   1.231   2.608 -2.8248  0.9000 -0.6931
  220SOL     OW  658   1.518   1.056   1.247 -0.6215 -0.1613  0.7028
  220SOL    HW1  659   1.615   1.062   1.282 -0.8811 -2.2336 -2.8363
  220SOL    HW2  660   1.495   1.108   1.162  2.0706 -0.0897  0.2906
  221SOL     OW  661   1.357   0.987   2.209 -0.0743  0.4653 -0.2148
  221SOL    HW1  662   1.291   0.966   2.129 -0.7627 -1.2000 -0.3530
  221SOL    HW2  663   1.456   0.987   2.173  0.4941  0.3094 -1.3487
  222SOL     OW  664   1.118   0.013   1.170 -0.4852  0.0309 -0.3481
  222SOL    HW1  665   1.186   0.047   1.244 -1.4343 -2.0664  2.0028
  222SOL    HW2  666   1.121   0.059   1.077  0.3386 -0.9497  1.6592
  223SOL     OW  667   2.741   0.905   2.029  0.1306  0.4620  0.3726
  223SOL    HW1  668   2.706   0.954   2.111  1.2397  0.7783 -0.4383
  223SOL    HW2  669   2.836   0.932   2.005  2.1580 -0.1463  1.0329
  224SOL     OW  670   1.529   1.022   2.785 -0.3146  0.7264  0.1199
  224SOL    HW1  671   1.579   0.947   2.728 -0.9651 -2.1061 -0.1893
  224SOL    HW2  672   1.476   1.085   2.726  0.6498 -2.1687  0.1028
  225SOL     OW  673   2.922   2.775   2.870 -0.0179  0.0630  0.1477
  225SOL    HW1  674   2.898   2.690   2.811  2.4309 -1.3236 -2.0927
  225SOL    HW2  675   3.007   2.829   2.845 -1.3977 -0.2007  0.4870
  226SOL     OW  676   2.441   1.572   2.839  0.7413 -0.1698  0.5785
  226SOL    HW1  677   2.482   1.559   2.743  1.8018  0.3213  1.0954
  226SOL    HW2  678   2.401   1.485   2.875  1.1176 -2.8521  2.5746
  227SOL     OW  679   0.835   0.152   0.005  0.6412 -0.1138  0.3648
  227SOL    HW1  680   0.914   0.087   0.003  0.0315  0.2749  2.5151
  227SOL    HW2  681   0.766   0.146  -0.074 -0.4070  1.1182  2.4961
  228SOL     OW  682   2.392   0.630   2.852  0.2609  0.4176  0.2521
  228SOL    HW1  683   2.335   0.649   2.761 -3.1183 -2.0986  0.6666
  228SOL    HW2  684   2.483   0.584   2.835  0.0109 -0.6673 -2.0359
  229SOL     OW  685   0.623   0.430   1.848 -0.7135  0.9555  0.3348
  229SOL    HW1  686   0.622   0.329   1.845 -0.0196 -2.4297 -2.8962
  229SOL    HW2  687   0.642   0.467   1.752 -0.6421 -0.0598 -3.9632
  230SOL     OW  688   1.866   1.149   2.102 -0.1849 -0.0307 -0.5568
  230SOL    HW1  689   1.937   1.213   2.050 -0.9512 -0.7280 -1.0646
  230SOL    HW2  690   1.785   1.211   2.131  0.1811 -0.6731  0.9373
  231SOL     OW  691   0.665   1.019   3.050 -0.4991  0.0379  0.6373
  231SOL    HW1  692   0.763   1.055   3.057 -0.4182  1.5403  0.6931
  231SOL    HW2  693   0.591   1.091   3.073 -1.7279 -2.7407  3.3893
  232SOL     OW  694   2.362   3.089   2.843 -0.0202 -0.4584  0.6715
  232SOL    HW1  695   2.425   3.006   2.852 -0.0562  0.0472  0.6119
  232SOL    HW2  696   2.392   3.157   2.769 -1.8662 -1.1727  0.2961
  233SOL     OW  697   1.711   1.293   1.145 -0.4134 -0.2713  0.1213
  233SOL    HW1  698   1.735   1.276   1.044  2.9870  1.4203  2.5828
  233SOL    HW2  699   1.729   1.215   1.205 -2.0035  1.8481 -0.7202
  234SOL     OW  700   1.585   2.582   1.852 -0.4263 -0.4285  0.6123
  234SOL    HW1  701   1.604   2.639   1.937 -0.3125  0.5247 -1.2206
  234SOL    HW2  702   1.491   2.535   1.847 -1.3399 -2.6543 -1.5836
  235SOL     OW  703   0.006   2.977   2.859  0.1368  0.0632 -0.4509
  235SOL    HW1  704   0.024   3.029   2.772 -1.4908 -0.0409 -0.5122
  235SOL    HW2  705  -0.059   3.022   2.922  0.8197  1.0084 -3.8935
  236SOL     OW  706   2.925   0.716   0.075 -0.0119  0.1042  0.1686
  236SOL    HW1  707   2.988   0.788   0.120 -0.7604  0.2214  1.1705
  236SOL    HW2  708   2.975   0.635   0.034 -2.2049 -1.0565 -0.9173
  237SOL     OW  709   1.524   1.703   1.016 -0.3169 -0.3009 -0.3866
  237SOL    HW1  710   1.625   1.684   1.000  2.8506 -3.2414 -0.4090
  237SOL    HW2  711   1.502   1.735   1.112  0.6889 -2.2300 -0.5779
  238SOL     OW  712   1.758   1.282   0.861  0.2335 -0.1784 -0.1856
  238SOL    HW1  713   1.823   1.357   0.858 -2.0529 -2.3527 -1.4108
  238SOL    HW2  714   1.665   1.310   0.821  1.4701 -1.7771 -3.5747
  239SOL     OW  715   2.055   0.268   2.691 -0.0776 -0.0007 -0.5496
  239SOL    HW1  716   2.102   0.245   2.781 -0.8649 -0.1177 -1.2080
  239SOL    HW2  717   1.996   0.350   2.697  0.6780  0.0901  0.3558
  240SOL     OW  718   0.894   0.638   0.325 -0.2707  0.9221 -0.1750
  240SOL    HW1  719   0.937   0.553   0.273 -0.6359 -1.7381 -3.6581
  240SOL    HW2  720   0.896   0.640   0.431  1.7594  2.2345  0.3134
  241SOL     OW  721   0.581   0.088   0.381 -0.6818 -0.3263 -0.5398
  241SOL    HW1  722   0.628   0.167   0.333 -1.5826 -2.4070  0.1245
  241SOL    HW2  723   0.542   0.009   0.316 -1.1565  0.0673 -0.9611
  242SOL     OW  724   0.663   2.512   1.127  0.1847 -0.2062  0.5307
  242SOL    HW1  725   0.637   2.556   1.220  1.1914  0.7639 -0.3930
  242SOL    HW2  726   0.724   2.576   1.069 -1.1999 -0.2334  1.3015
  243SOL     OW  727   1.085   0.587   2.497 -0.1627  0.3017  0.5451
  243SOL    HW1  728   0.992   0.602   2.453 -0.9973 -0.8805 -4.8249
  243SOL    HW2  729   1.085   0.539   2.589  1.1002 -2.1938 -2.1929
  244SOL     OW  730   2.792   1.885   2.306  0.3761 -0.0246 -0.3541
  244SOL    HW1  731   2.837   1.914   2.213  0.4013  0.4837 -1.3825
  244SOL    HW2  732   2.728   1.803   2.298 -0.4348 -4.5335  0.5576
  245SOL     OW  733   2.352   0.679   2.208 -0.5133  0.1868 -0.4889
  245SOL    HW1  734   2.424   0.756   2.218 -1.4617  0.0365 -0.9893
  245SOL    HW2  735   2.369   0.592   2.256 -3.1326  3.3126  1.1753
  246SOL     OW  736   0.204   2.914   1.695  0.1610 -0.0007  0.3160
  246SOL    HW1  737   0.126   2.909   1.623 -1.0592 -1.4537 -2.6245
  246SOL    HW2  738   0.279   2.980   1.661 -1.8586  3.1554  0.4803
  247SOL     OW  739   2.165   0.588   3.044  0.6591  0.0902  0.0138
  247SOL    HW1  740   2.242   0.596   2.966  2.9540  2.7055  1.3984
  247SOL    HW2  741   2.123   0.684   3.070  0.8995 -1.5970  2.4069
  248SOL     OW  742   2.151   1.839   1.592 -0.2599 -0.2002  0.0264
  248SOL    HW1  743   2.193   1.764   1.655 -0.1601 -0.1364 -1.3506
  248SOL    HW2  744   2.046   1.825   1.578 -2.1314  1.5529 -0.6638
  249SOL     OW  745   1.856   1.909   1.912  0.0743  0.1848 -0.1881
  249SOL    HW1  746   1.845   1.836   1.840 -0.8401 -0.4578 -1.7764
  249SOL    HW2  747   1.947   1.964   1.901  1.9897 -0.9674 -0.8823
  250SOL     OW  748   1.126   0.716   1.965  0.1342  0.2330 -0.0871
  250SOL    HW1  749   1.158   0.621   1.990 -0.1519 -0.1133 -0.0979
  250SOL    HW2  750   1.105   0.719   1.864 -0.2917  1.6314 -0.0389
  251SOL     OW  751   0.021   1.571   2.499  0.5305  0.2040 -0.6481
  251SOL    HW1  752   0.007   1.673   2.473 -1.4477  0.9430  0.6367
  251SOL    HW2  753  -0.075   1.530   2.524 -2.7431  1.5089  0.5151
  252SOL     OW  754   1.518   0.859   1.550 -0.0132  0.2699  0.2543
  252SOL    HW1  755   1.602   0.816   1.501  1.2850 -2.7190 -2.4262
  252SOL    HW2  756   1.540   0.942   1.612 -0.8308 -0.2773  2.2225
  253SOL     OW  757   0.920   1.514   0.496  1.0797 -0.5368 -0.5152
  253SOL    HW1  758   0.927   1.459   0.408  0.4573  1.2596  2.1914
  253SOL    HW2  759   0.820   1.520   0.533 -2.6604 -0.7251  0.9884
  254SOL     OW  760   2.027   2.150   1.616  0.2690 -0.3113 -0.1480
  254SOL    HW1  761   1.974   2.100   1.540 -1.2792 -0.2275 -0.3753
  254SOL    HW2  762   1.967   2.185   1.695 -0.3595  1.6463 -1.9435
  255SOL     OW  763   0.146   1.157   2.869  0.7450  0.1625  0.0880
  255SOL    HW1  764   0.205   1.243   2.871 -0.5726 -1.9040  0.4309
  255SOL    HW2  765   0.181   1.089   2.943 -1.0524  0.6514 -3.0016
  256SOL     OW  766   2.806   1.372   1.757  0.1997  0.3015  0.3602
  256SOL    HW1  767   2.709   1.404   1.781 -1.3131 -1.0623 -0.0091
  256SOL    HW2  768   2.806   1.275   1.717  0.5368 -0.0244 -0.3844
  257SOL     OW  769   0.819   0.201   1.786  0.0732  0.0720 -0.6582
  257SOL    HW1  770   0.847   0.293   1.750 -1.7891 -2.1556  0.3746
  257SOL    HW2  771   0.893   0.125   1.790 -1.4348 -0.6423  1.9046
  258SOL     OW  772   2.939   1.286   0.453  0.2032  0.4547 -0.1561
  258SOL    HW1  773   2.868   1.358   0.439  1.3288 -0.5447 -2.8470
  258SOL    HW2  774   3.004   1.301   0.534  4.2321 -1.4362  1.1631
  259SOL     OW  775   0.465   2.959   3.057 -0.5039 -0.4509  0.6432
  259SOL    HW1  776   0.395   2.896   3.102  0.9298  1.9771 -1.2737
  259SOL    HW2  777   0.478   2.934   2.959  0.6418 -1.0906 -0.5824
  260SOL     OW  778   2.731   0.845   2.794 -0.6221 -0.0781  0.7061
  260SOL    HW1  779   2.631   0.850   2.768 -2.6055  0.1425 -2.9828
  260SOL    HW2  780   2.746   0.870   2.899  1.2621  0.6236  2.5571
  261SOL     OW  781   2.761   1.305   1.289  0.0806  0.1257 -0.5141
  261SOL    HW1  782   2.697   1.279   1.213  1.4678  1.5425  2.0705
  261SOL    HW2  783   2.824   1.234   1.328 -0.0046 -0.3387 -0.8608
  262SOL     OW  784   1.401   2.975   2.013 -0.4574 -0.4306 -0.0693
  262SOL    HW1  785   1.430   3.067   1.973 -0.2041  0.3538 -0.4036
  262SOL    HW2  786   1.310   2.931   1.978 -2.4856 -0.6663  1.3427
  263SOL     OW  787   0.865   0.731   2.326 -0.0642  0.8813 -0.2180
  263SOL    HW1  788   0.804   0.649   2.294 -0.0980 -1.3802  0.0650
  263SOL    HW2  789   0.908   0.798   2.254  0.0308  0.6243 -2.1029
  264SOL     OW  790   2.201   0.847   0.355  0.0545  0.1694  0.7960
  264SOL    HW1  791   2.190   0.755   0.320 -0.6021  0.1275 -2.9434
  264SOL    HW2  792   2.300   0.859   0.376  3.1058 -3.1399  3.0185
  265SOL     OW  793   0.913   2.383   2.670  0.2335  0.2656 -0.2830
  265SOL    HW1  794   0.998   2.415   2.723  3.6427  1.3195 -0.5346
  265SOL    HW2  795   0.889   2.281   2.697  1.9179 -0.1628  0.8013
  266SOL     OW  796   1.349   1.682   3.092  0.4463 -0.3122 -0.1447
  266SOL    HW1  797   1.349   1.751   3.169 -2.2567  0.7042  0.5822
  266SOL    HW2  798   1.432   1.694   3.037  0.6323  1.3602 -2.0302
  267SOL     OW  799   0.964   3.032   2.366  0.3960 -0.1159  0.2215
  267SOL    HW1  800   0.952   2.976   2.278 -1.0770 -1.9573  2.2316
  267SOL    HW2  801   0.954   3.132   2.349  1.0256 -1.8903 -1.4240
  268SOL     OW  802   0.661   1.199   1.058 -0.2912 -0.0295 -0.3594
  268SOL    HW1  803   0.707   1.232   1.147  0.2629  0.3392  3.0198
  268SOL    HW2  804   0.644   1.270   0.985 -2.4476 -2.8359  0.6017
  269SOL     OW  805   2.365   2.531   1.569 -0.4249  0.3348  0.2571
  269SOL    HW1  806   2.454   2.484   1.550 -0.8933 -3.6136  2.3330
  269SOL    HW2  807   2.338   2.531   1.668  0.2996  0.7635  1.4207
  270SOL     OW  808   0.180   2.980   1.973  0.2739 -0.3798  0.8302
  270SOL    HW1  809   0.190   2.950   1.873  0.8455 -0.1823 -0.7771
  270SOL    HW2  810   0.106   2.928   2.022 -0.0564 -1.6070  1.1398
  271SOL     OW  811   0.415   1.377   1.162  0.0553  0.4360  0.0890
  271SOL    HW1  812   0.393   1.367   1.062  0.7620  0.5994 -1.2441
  271SOL    HW2  813   0.332   1.355   1.219 -2.4968 -1.9286 -0.1629
  272SOL     OW  814   1.989   2.871   1.936  0.5178  0.4815  0.5891
  272SOL    HW1  815   1.941   2.812   1.866 -1.8841 -1.3661 -0.6854
  272SOL    HW2  816   2.059   2.927   1.891 -2.2888 -1.1674  2.1746
  273SOL     OW  817   1.458   1.434   2.764  0.0472  0.1109 -0.1340
  273SOL    HW1  818   1.384   1.486   2.813  0.1388 -2.3154 -0.4166
  273SOL    HW2  819   1.522   1.380   2.821  0.3875 -0.0454 -2.2420
  274SOL     OW  820   1.233   0.485   2.014 -0.2884 -0.0283  0.0648
  274SOL    HW1  821   1.180   0.396   2.008  0.4303 -0.6826  2.5829
  274SOL    HW2  822   1.272   0.494   2.109  1.2987 -0.9093  2.9961
  275SOL     OW  823   0.593   2.088   1.890  0.1931  0.0343  0.1245
  275SOL    HW1  824   0.552   2.164   1.945  2.2071 -1.1542  2.4171
  275SOL    HW2  825   0.519   2.015   1.879 -5.1198  0.1670  1.0880
  276SOL     OW  826   2.174   0.881   2.752  0.3991  0.4608 -0.3927
  276SOL    HW1  827   2.090   0.870   2.687 -2.8166 -1.2789 -0.8584
  276SOL    HW2  828   2.151   0.875   2.850 -0.1218  0.7283 -1.4532
  277SOL     OW  829   3.069   0.898   0.221 -0.3005  0.2993 -0.1471
  277SOL    HW1  830   3.156   0.943   0.193 -0.1797  0.0760 -0.3750
  277SOL    HW2  831   3.077   0.824   0.292  1.1257  1.1897  1.6379
  278SOL     OW  832   0.234   0.286   3.083 -0.1201 -0.1424 -1.0275
  278SOL    HW1  833   0.283   0.198   3.065 -0.5681 -2.5561 -4.0210
  278SOL    HW2  834   0.294   0.375   3.082  1.4056  1.1522  0.0441
  279SOL     OW  835   0.155   0.084   0.881 -0.4083  0.6664 -0.2604
  279SOL    HW1  836   0.151   0.048   0.977 -2.4108 -0.1705  0.5787
  279SOL    HW2  837   0.229   0.031   0.828  0.5467  0.0140  0.9578
  280SOL     OW  838   1.562   2.957   2.440 -0.0938  0.2484 -0.7467
  280SOL    HW1  839   1.627   3.009   2.505 -0.8514  1.3300  1.1601
  280SOL    HW2  840   1.505   3.016   2.375 -2.4691  0.8727  2.2888
  281SOL     OW  841   0.561   0.948   2.200  0.2001  0.5792  0.0135
  281SOL    HW1  842   0.555   0.863   2.144  2.0602  0.0112 -0.1713
  281SOL    HW2  843   0.533   0.937   2.299 -0.7686  3.1875 -0.4030
  282SOL     OW  844   1.795   2.481   0.546  0.0180 -0.1063  0.0978
  282SOL    HW1  845   1.745   2.404   0.492 -1.1612 -1.9478  1.3890
  282SOL    HW2  846   1.750   2.575   0.537  1.5354  2.0389  0.9000
  283SOL     OW  847   1.125   0.916   0.868  0.0399 -0.6546 -0.4056
  283SOL    HW1  848   1.159   0.848   0.938 -0.2198  2.4029  1.2776
  283SOL    HW2  849   1.055   0.989   0.900  2.3859 -0.5084  2.9723
  284SOL     OW  850   2.335   2.700   2.477 -1.3163 -0.5929  1.0323
  284SOL    HW1  851   2.385   2.769   2.412  0.8943  2.4872 -0.8391
  284SOL    HW2  852   2.386   2.681   2.567 -0.5377 -1.0684 -0.8600
  285SOL     OW  853   1.297   3.038   2.589  0.1741  0.0761  0.7464
  285SOL    HW1  854   1.321   3.040   2.487  2.2260 -0.8350 -3.0443
  285SOL    HW2  855   1.192   3.052   2.600  0.1013  0.0803 -0.1383
  286SOL     OW  856   0.456   0.474   0.769 -0.0767 -0.3117 -0.2778
  286SOL    HW1  857   0.429   0.414   0.849  0.5270 -1.0829 -2.0726
  286SOL    HW2  858   0.460   0.421   0.682 -1.8053  0.9270 -0.8170
  287SOL     OW  859   0.107   1.283   2.528 -0.4257  0.3460 -0.2951
  287SOL    HW1  860   0.053   1.245   2.608  0.3598  1.7296  2.0446
  287SOL    HW2  861   0.095   1.381   2.492 -1.8753 -3.5203  0.6286
  288SOL     OW  862   1.590   2.641   1.585  0.1001 -0.7278 -0.4203
  288SOL    HW1  863   1.604   2.609   1.680 -2.8596 -0.1432 -1.1619
  288SOL    HW2  864   1.682   2.634   1.528  0.2161  2.4960 -0.2480
  289SOL     OW  865   0.648   2.713   0.874  0.5015 -0.0251  0.2763
  289SOL    HW1  866   0.699   2.774   0.806 -1.0008  0.2561  0.7305
  289SOL    HW2  867   0.605   2.765   0.952 -1.3299 -0.1508  1.8376
  290SOL     OW  868   2.793   1.096   1.700  0.4186 -0.3401  0.1034
  290SOL    HW1  869   2.711   1.031   1.680 -0.6092  1.5794  0.3856
  290SOL    HW2  870   2.867   1.045   1.756  0.8215 -0.5223  2.1286
  291SOL     OW  871   1.986   0.061   0.065 -0.5896 -0.7421 -0.1580
  291SOL    HW1  872   1.988   0.046   0.173  1.6973  3.4273  2.4896
  291SOL    HW2  873   2.060   0.126   0.040  0.2701 -0.3014  1.4812
  292SOL     OW  874   2.991   1.168   3.024 -0.3929 -0.8657 -0.5597
  292SOL    HW1  875   2.919   1.240   3.017 -1.1466 -0.6496  0.2147
  292SOL    HW2  876   3.077   1.190   2.976 -0.3749 -0.2161 -1.1392
  293SOL     OW  877   0.566   2.138   0.167  0.1532  0.3345 -0.2851
  293SOL    HW1  878   0.526   2.198   0.251 -0.8650  1.9738  2.0411
  293SOL    HW2  879   0.662   2.105   0.187 -1.3724  0.0524  0.6280
  294SOL     OW  880   1.812   2.240   1.759  0.1453  0.3934  0.4452
  294SOL    HW1  881   1.831   2.303   1.837 -2.6749  3.9240  1.2307
  294SOL    HW2  882   1.757   2.292   1.686 -1.3330  0.9518 -0.9601
  295SOL     OW  883   0.983   1.052   0.498  0.4218  0.3442 -1.0005
  295SOL    HW1  884   1.072   1.054   0.553  0.2131  0.7202 -3.1119
  295SOL    HW2  885   0.899   1.083   0.560 -0.7575  1.7763  2.3130
  296SOL     OW  886   1.225   2.136   2.519 -0.6048  0.4973 -0.3694
  296SOL    HW1  887   1.134   2.188   2.507 -3.8597  2.4487  1.5823
  296SOL    HW2  888   1.209   2.037   2.492 -3.5421  2.7495  1.4368
  297SOL     OW  889   1.432   0.625   1.351 -0.3253 -0.0768 -0.2082
  297SOL    HW1  890   1.413   0.526   1.353  0.4427 -0.6672 -0.5131
  297SOL    HW2  891   1.530   0.642   1.384  1.0789 -1.4867  1.1161
  298SOL     OW  892   0.554   1.375   2.966  0.1610 -0.1733 -0.0190
  298SOL    HW1  893   0.533   1.307   3.046  1.3002 -1.9953 -2.1483
  298SOL    HW2  894   0.580   1.321   2.885  0.0391 -2.3887 -2.1515
  299SOL     OW  895   0.484   0.278   1.309 -0.9942 -0.3252  0.3790
  299SOL    HW1  896   0.434   0.361   1.262  0.9565 -0.0626 -1.6014
  299SOL    HW2  897   0.576   0.304   1.355  2.7210 -1.7049  1.1013
  300SOL     OW  898   1.215   1.808   2.758  0.0689 -0.2793 -1.0102
  300SOL    HW1  899   1.190   1.705   2.764  3.6861 -2.5945 -0.4949
  300SOL    HW2  900   1.321   1.825   2.760  0.0885  0.4089 -2.0231
  301SOL     OW  901   0.443   0.353   0.506 -0.5411 -0.3637  0.1756
  301SOL    HW1  902   0.344   0.329   0.503  1.4597  0.6028  1.4449
  301SOL    HW2  903   0.499   0.286   0.451  1.2993  1.1319  1.6844
  302SOL     OW  904   1.258   2.484   2.348  0.7406  0.0904 -0.3200
  302SOL    HW1  905   1.176   2.533   2.398  0.4340 -0.4881  2.1348
  302SOL    HW2  906   1.235   2.390   2.325  3.0511  0.0717 -1.1357
  303SOL     OW  907   0.933   2.400   0.838 -0.4993  0.2429 -0.4085
  303SOL    HW1  908   0.994   2.432   0.757 -0.6837  1.6257 -0.1724
  303SOL    HW2  909   0.938   2.457   0.927  0.0341 -0.0861 -0.7325
  304SOL     OW  910   0.085   1.998   0.626  0.0848 -0.3357 -0.5233
  304SOL    HW1  911   0.120   1.957   0.538 -2.4860  0.8764 -1.6733
  304SOL    HW2  912   0.030   2.086   0.613 -3.1305 -0.8348 -2.0228
  305SOL     OW  913   1.644   0.894   0.573 -0.1524  0.0136 -0.1371
  305SOL    HW1  914   1.604   0.884   0.473 -0.7733 -1.6346  0.4455
  305SOL    HW2  915   1.680   0.804   0.612 -1.0425  0.3533  0.5411
  306SOL     OW  916   0.430   1.860   1.916 -0.0271 -0.5266 -0.1031
  306SOL    HW1  917   0.519   1.811   1.893 -2.3171  0.2838 -1.3100
  306SOL    HW2  918   0.426   1.897   2.018 -3.0098  0.7064  1.3077
  307SOL     OW  919   3.086   0.917   2.513 -0.0676  0.1140  0.0120
  307SOL    HW1  920   3.089   0.992   2.583 -0.1312  0.8751  0.3887
  307SOL    HW2  921   3.001   0.861   2.519 -0.4035 -0.6877 -1.5177
  308SOL     OW  922   1.573   2.674   2.799  0.1083  0.7169  0.0520
  308SOL    HW1  923   1.536   2.630   2.710 -0.5070 -3.3611 -2.3047
  308SOL    HW2  924   1.510   2.664   2.881  0.0124 -0.2850 -0.5858
  309SOL     OW  925   1.235   0.158   1.785  0.1956  0.5137 -0.2910
  309SOL    HW1  926   1.327   0.126   1.820  1.5050 -0.4994 -0.8040
  309SOL    HW2  927   1.223   0.141   1.684 -0.5697  0.3318 -0.1671
  310SOL     OW  928   1.507   2.535   0.680 -0.0097 -0.0132 -0.0444
  310SOL    HW1  929   1.479   2.542   0.780 -2.3549 -0.0502  0.1773
  310SOL    HW2  930   1.564   2.618   0.651 -0.8606  0.5033 -0.8784
  311SOL     OW  931   1.192   1.011   1.624 -0.0113 -0.1663 -0.0671
  311SOL    HW1  932   1.207   0.905   1.626  0.4994 -0.8312  0.9725
  311SOL    HW2  933   1.233   1.055   1.537  0.4628 -0.3588  1.1692
  312SOL     OW  934   1.627   0.707   1.061  0.7248  0.2306  0.1222
  312SOL    HW1  935   1.609   0.796   1.004  2.3107  3.0190 -2.1910
  312SOL    HW2  936   1.540   0.653   1.076 -1.5591  1.7669  0.1921
  313SOL     OW  937   1.533   1.380   0.739  0.0319 -0.1926 -0.1438
  313SOL    HW1  938   1.478   1.434   0.810  0.7723  2.2791  2.4850
  313SOL    HW2  939   1.483   1.303   0.686  1.9593 -1.4031 -0.0099
  314SOL     OW  940   2.954   0.059   3.007  0.2788  0.5115  0.2887
  314SOL    HW1  941   2.926   0.077   3.104  0.5092  1.0025  2.0896
  314SOL    HW2  942   2.883   0.004   2.954  1.8265 -1.3364 -0.0606
  315SOL     OW  943   1.223   0.207   2.774 -0.4222  0.0233 -0.2172
  315SOL    HW1  944   1.222   0.138   2.692  1.5426 -2.3895 -3.4385
  315SOL    HW2  945   1.239   0.158   2.866  0.1769 -2.0657 -2.9267
  316SOL     OW  946   1.720   2.040   0.849  0.2375  0.3727  0.1946
  316SOL    HW1  947   1.668   2.045   0.936  1.8985  1.6099  0.5851
  316SOL    HW2  948   1.733   2.132   0.801  1.1089 -0.9238  1.3891
  317SOL     OW  949   1.131   0.654   2.891  0.2758 -0.1413  0.0568
  317SOL    HW1  950   1.079   0.700   2.973 -1.4467 -0.9655 -0.6971
  317SOL    HW2  951   1.095   0.563   2.876  0.6637  0.0497  2.5659
  318SOL     OW  952   1.361   3.093   2.320  0.0798  0.0316 -0.2808
  318SOL    HW1  953   1.345   3.194   2.336  1.2218  0.2426  2.3906
  318SOL    HW2  954   1.350   3.067   2.218  0.1157 -1.7634  0.0822
  319SOL     OW  955   0.705   2.401   2.918 -0.7630 -0.6766  0.0030
  319SOL    HW1  956   0.620   2.353   2.955  0.5059 -0.6000  0.6353
  319SOL    HW2  957   0.786   2.397   2.982  0.1929 -0.3280  1.4265
  320SOL     OW  958   1.705   2.267   0.407 -0.4728 -0.0445 -0.1337
  320SOL    HW1  959   1.794   2.206   0.390  0.1155 -0.3578 -1.1723
  320SOL    HW2  960   1.625   2.207   0.426  0.0574 -0.3124  1.7176
  321SOL     OW  961   1.625   2.747   0.503 -0.5231  0.0076  0.2247
  321SOL    HW1  962   1.559   2.762   0.426  0.1432  0.8135 -1.0998
  321SOL    HW2  963   1.713   2.801   0.508 -0.3931 -0.9421  1.8061
  322SOL     OW  964   2.586   1.156   2.376 -0.1586 -0.1082 -0.4114
  322SOL    HW1  965   2.680   1.185   2.414  0.2176 -1.8539  0.1493
  322SOL    HW2  966   2.587   1.063   2.328  1.0616  0.3201  0.7486
  323SOL     OW  967   1.174   2.640   0.863 -0.3216  0.4682 -0.4672
  323SOL    HW1  968   1.165   2.607   0.765 -0.6240 -0.3595 -0.9244
  323SOL    HW2  969   1.169   2.742   0.878  0.6503 -0.9205 -0.4448
  324SOL     OW  970   0.262   2.483   2.516  0.0491 -0.2828  0.2492
  324SOL    HW1  971   0.311   2.440   2.594 -0.0899 -2.2322  0.1373
  324SOL    HW2  972   0.174   2.518   2.550  0.7826  0.2696  0.5483
  325SOL     OW  973   1.279   3.059   0.492  0.2920  0.3332 -0.1325
  325SOL    HW1  974   1.296   3.133   0.422  2.4788  1.7305 -0.1671
  325SOL    HW2  975   1.306   3.086   0.585  0.3137 -1.3038  0.0505
  326SOL     OW  976   2.468   0.799   3.058  0.3026  0.3078 -0.2905
  326SOL    HW1  977   2.440   0.744   2.973 -2.7188 -0.0211  1.1499
  326SOL    HW2  978   2.519   0.740   3.124 -0.4656  1.0843 -1.4585
  327SOL     OW  979   2.849   0.351   0.634 -0.2134 -0.0353  0.3187
  327SOL    HW1  980   2.837   0.309   0.533  0.7747 -0.6767 -1.0242
  327SOL    HW2  981   2.891   0.279   0.695 -1.0712 -3.1176 -0.1791
  328SOL     OW  982   2.574   0.570   0.393  0.1461  0.1793  0.2711
  328SOL    HW1  983   2.520   0.655   0.378  1.2286 -1.5663 -0.1438
  328SOL    HW2  984   2.556   0.530   0.484 -1.7563  2.7481 -2.5361
  329SOL     OW  985   2.969   2.920   2.133 -0.2790  0.2551  0.1109
  329SOL    HW1  986   3.038   2.879   2.199  1.2367 -0.1433 -3.6749
  329SOL    HW2  987   2.961   3.022   2.140 -0.5809 -2.3879  3.9513
  330SOL     OW  988   0.563   0.132   1.890 -0.4239  0.0827 -0.4567
  330SOL    HW1  989   0.659   0.131   1.846 -1.9788 -1.2186  0.7124
  330SOL    HW2  990   0.558   0.068   1.976 -1.9695  0.4856  0.0288
  331SOL     OW  991   2.993   1.900   1.162  0.4843 -0.0932  0.4224
  331SOL    HW1  992   3.041   1.971   1.105 -0.5300  0.0142 -0.2050
  331SOL    HW2  993   2.904   1.930   1.212 -2.3799  0.6273 -0.4592
  332SOL     OW  994   0.424   1.168   3.092 -0.2522  0.2655  0.3010
  332SOL    HW1  995   0.364   1.093   3.056 -2.0919  0.7560 -2.1274
  332SOL    HW2  996   0.394   1.210   3.185 -0.2277 -0.1380  1.8460
  333SOL     OW  997   2.866   1.041   0.333 -1.0876 -0.5967 -0.2052
  333SOL    HW1  998   2.914   1.107   0.400 -0.4649 -0.2110 -0.0962
  333SOL    HW2  999   2.929   0.961   0.309  1.0475 -3.1634 -0.0935
  334SOL     OW 1000   1.682   1.280   1.840 -0.0740  0.6355  0.0560
  334SOL    HW1 1001   1.775   1.256   1.800 -3.0535 -1.0739 -2.0226
  334SOL    HW2 1002   1.678   1.292   1.945  0.1097 -0.3954 -0.1109
  335SOL     OW 1003   2.001   2.727   2.600 -0.2808 -0.0136  0.0935
  335SOL    HW1 1004   1.928   2.752   2.673 -0.4178  0.2214  1.3195
  335SOL    HW2 1005   2.093   2.771   2.632  1.3292  1.7024 -1.2677
  336SOL     OW 1006   0.259   0.184   2.794 -0.6224 -0.2304  0.4702
  336SOL    HW1 1007   0.335   0.165   2.861  0.0223  1.8402  0.4651
  336SOL    HW2 1008   0.185   0.250   2.832  0.1286  2.1375  1.3821
  337SOL     OW 1009   0.930   2.816   2.838 -0.3349  0.4983  0.4693
  337SOL    HW1 1010   0.931   2.769   2.930 -1.2943 -0.0063  0.6348
  337SOL    HW2 1011   1.014   2.800   2.779  0.3261  1.9949  0.3793
  338SOL     OW 1012   0.006   1.028   0.616  0.0243 -0.1718 -0.0645
  338SOL    HW1 1013  -0.087   0.991   0.636  1.7829  1.2097 -1.0117
  338SOL    HW2 1014   0.019   1.129   0.634 -0.5580 -1.6007 -0.8958
  339SOL     OW 1015   1.693   1.338   2.121  0.5044 -0.2437  0.0748
  339SOL    HW1 1016   1.592   1.364   2.142  1.9976  3.5941  1.3040
  339SOL    HW2 1017   1.753   1.425   2.126  1.1157  1.3107  1.3056
  340SOL     OW 1018   2.357   0.796   1.120 -0.0581 -0.2535 -0.2477
  340SOL    HW1 1019   2.270   0.845   1.095 -1.7729 -1.4559  1.3576
  340SOL    HW2 1020   2.376   0.704   1.071 -1.5334  0.3196 -0.7234
  341SOL     OW 1021   1.901   2.098   0.339 -0.2372  0.2807  0.1045
  341SOL    HW1 1022   1.898   2.136   0.239  1.1571  1.3052 -1.4666
  341SOL    HW2 1023   1.996   2.067   0.366 -0.8052 -1.2818 -0.9663
  342SOL     OW 1024   2.262   2.117   2.707  0.3953  0.2311 -0.0006
  342SOL    HW1 1025   2.305   2.036   2.753 -1.0061  0.6144  1.2242
  342SOL    HW2 1026   2.159   2.100   2.708 -1.1455  1.8193 -0.9168
  343SOL     OW 1027   0.349   0.884   2.735 -0.7427 -0.0708 -0.2465
  343SOL    HW1 1028   0.370   0.868   2.631 -1.3007  1.1116 -3.3450
  343SOL    HW2 1029   0.435   0.887   2.794  2.4385  1.3827  0.9001
  344SOL     OW 1030   1.900   1.441   0.392 -0.0208 -0.3013  0.4869
  344SOL    HW1 1031   1.888   1.388   0.305 -1.2070 -0.9093 -0.5185
  344SOL    HW2 1032   1.811   1.453   0.442 -0.8995 -2.2304 -0.9154
  345SOL     OW 1033   1.432   2.235   2.924 -0.0125 -0.0126  0.0335
  345SOL    HW1 1034   1.345   2.185   2.903  1.7352  0.6568  0.3274
  345SOL    HW2 1035   1.507   2.201   2.865 -0.1557 -1.1552  0.7645
  346SOL     OW 1036   2.367   0.870   1.400  0.3272 -0.5602 -0.4929
  346SOL    HW1 1037   2.315   0.953   1.439  0.7204 -0.1490 -1.5042
  346SOL    HW2 1038   2.349   0.867   1.297 -0.8218  0.0895 -1.2606
  347SOL     OW 1039   0.759   2.825   1.523 -0.1574 -0.4484 -0.2476
  347SOL    HW1 1040   0.694   2.771   1.585 -1.9131 -0.9520  0.8150
  347SOL    HW2 1041   0.706   2.908   1.490  1.5249  1.3997  3.7141
  348SOL     OW 1042   0.217   0.668   2.867  0.7711  0.2736  0.2315
  348SOL    HW1 1043   0.117   0.680   2.843 -1.7058  0.5977 -1.7057
  348SOL    HW2 1044   0.271   0.724   2.804 -0.8955 -1.4381 -0.3707
  349SOL     OW 1045   1.883   0.450   2.802  0.2845 -0.5245  0.0458
  349SOL    HW1 1046   1.880   0.538   2.743 -0.9639 -2.1148 -2.5392
  349SOL    HW2 1047   1.859   0.459   2.903 -1.0867  0.1068  1.1370
  350SOL     OW 1048   1.649   0.402   0.352 -0.3755  0.1618 -0.0005
  350SOL    HW1 1049   1.711   0.402   0.437 -0.2926  0.3066 -1.7929
  350SOL    HW2 1050   1.608   0.493   0.338 -0.1936 -1.8628  2.1678
  351SOL     OW 1051   0.998   0.863   2.135 -0.3801  0.0490  0.4288
  351SOL    HW1 1052   0.975   0.947   2.079  0.7230  0.0503  1.3907
  351SOL    HW2 1053   1.078   0.803   2.095 -1.3687  0.5609 -0.9566
  352SOL     OW 1054   2.051   1.313   0.655 -0.6460 -0.1667  0.2767
  352SOL    HW1 1055   2.066   1.324   0.556  1.5447  1.4981  1.8732
  352SOL    HW2 1056   1.950   1.298   0.681  2.3372 -0.9453  0.3116
  353SOL     OW 1057   2.165   2.816   1.037 -0.4263 -0.6381  0.3520
  353SOL    HW1 1058   2.195   2.772   1.124  2.5307  2.5990  1.2552
  353SOL    HW2 1059   2.068   2.791   1.017  0.4294 -0.5865 -0.4360
  354SOL     OW 1060   0.290   1.401   2.869 -0.5580 -0.3641  0.7739
  354SOL    HW1 1061   0.266   1.472   2.798  0.6835 -1.0068  0.8031
  354SOL    HW2 1062   0.394   1.397   2.889  0.2335  0.8341 -2.0371
  355SOL     OW 1063   0.592   1.517   0.593  0.6218  0.5411  0.3615
  355SOL    HW1 1064   0.554   1.516   0.689  1.2229  0.8357  0.8855
  355SOL    HW2 1065   0.633   1.424   0.568 -2.5443  0.8316  0.2763
  356SOL     OW 1066   0.883   0.287   2.099 -0.3725  0.7157 -0.1866
  356SOL    HW1 1067   0.986   0.273   2.085  0.8868  0.5764  0.1682
  356SOL    HW2 1068   0.832   0.260   2.007  1.2588 -1.0560 -2.3629
  357SOL     OW 1069   0.994   1.280   0.327 -0.2317  0.4668 -0.0507
  357SOL    HW1 1070   0.975   1.243   0.231  0.7377 -0.9572 -0.8343
  357SOL    HW2 1071   1.005   1.199   0.395  1.1002 -0.6167  1.7493
  358SOL     OW 1072   1.645   1.488   0.483 -0.2143  0.0596  0.3513
  358SOL    HW1 1073   1.589   1.453   0.564 -1.2791  1.7983  1.9631
  358SOL    HW2 1074   1.606   1.472   0.386 -2.3954  0.2935 -1.2798
  359SOL     OW 1075   1.576   2.640   0.175 -0.6178  0.1746  0.3966
  359SOL    HW1 1076   1.560   2.538   0.164 -0.2955 -3.0732 -0.8017
  359SOL    HW2 1077   1.513   2.698   0.122  2.6071  0.2397  1.0253
  360SOL     OW 1078   0.872   0.570   0.590  0.2821  0.1524 -0.1121
  360SOL    HW1 1079   0.789   0.589   0.648  0.9863  0.6419  0.5094
  360SOL    HW2 1080   0.909   0.476   0.604  0.1216 -0.1127  0.1956
  361SOL     OW 1081   1.218   1.313   0.751 -0.0360 -0.2340 -0.3281
  361SOL    HW1 1082   1.277   1.383   0.795  1.5003  1.3263 -1.2679
  361SOL    HW2 1083   1.125   1.357   0.721 -1.4267  2.0699 -1.8294
  362SOL     OW 1084   1.377   1.847   0.780  0.5473 -0.2493  0.1349
  362SOL    HW1 1085   1.445   1.818   0.854 -0.0453  0.8209 -0.3850
  362SOL    HW2 1086   1.425   1.862   0.691 -1.4756 -1.0492  0.1817
  363SOL     OW 1087   1.221   1.256   2.045 -0.0417 -0.3420  0.3801
  363SOL    HW1 1088   1.312   1.282   2.085 -1.8734 -1.7253 -0.1168
  363SOL    HW2 1089   1.192   1.327   1.976 -0.6710 -0.1812  3.1632
  364SOL     OW 1090   0.501   2.327   1.996  0.4905  0.3220 -0.4977
  364SOL    HW1 1091   0.399   2.345   1.993  0.3441  1.9455  1.9942
  364SOL    HW2 1092   0.550   2.371   1.917 -2.8301 -1.7427 -0.4732
  365SOL     OW 1093   1.013   1.884   1.408 -0.1137 -0.3060  0.7097
  365SOL    HW1 1094   0.920   1.931   1.391  1.4734  2.0231 -0.8044
  365SOL    HW2 1095   1.035   1.802   1.351  2.0131  1.4450 -2.9674
  366SOL     OW 1096   2.777   2.064   0.454  0.6602 -0.3761  0.0806
  366SOL    HW1 1097   2.689   2.013   0.479  0.3743 -2.3993  2.4721
  366SOL    HW2 1098   2.819   2.004   0.377 -1.8685 -1.1113  1.7472
  367SOL     OW 1099   0.956   1.147   0.103 -0.0787  0.0892  0.8509
  367SOL    HW1 1100   0.982   1.063   0.157 -0.4007  0.3305  2.5456
  367SOL    HW2 1101   1.020   1.166   0.023 -0.9875  0.1313  1.5624
  368SOL     OW 1102   1.469   0.542   0.746 -0.8203 -0.5867  0.5111
  368SOL    HW1 1103   1.405   0.557   0.663 -0.9212  1.4465 -1.0289
  368SOL    HW2 1104   1.568   0.580   0.736 -3.1542  1.5138 -1.9978
  369SOL     OW 1105   0.304   1.735   0.069  0.9332 -0.0535  0.3052
  369SOL    HW1 1106   0.353   1.819   0.116  1.1823 -0.1567  1.1674
  369SOL    HW2 1107   0.224   1.701   0.126  1.2984 -2.3329  1.0806
  370SOL     OW 1108   0.450   2.078   0.965  0.8251  0.2493 -0.0990
  370SOL    HW1 1109   0.429   2.182   0.962  0.4139 -0.9936  0.0498
  370SOL    HW2 1110   0.369   2.022   0.938  0.9147  2.2930  0.1773
  371SOL     OW 1111   2.928   2.174   2.660  0.5796  0.3251 -0.2198
  371SOL    HW1 1112   2.869   2.117   2.724 -1.2317 -2.0202  1.8980
  371SOL    HW2 1113   3.019   2.191   2.709  0.2807  1.0388  0.6795
  372SOL     OW 1114   1.123   1.992   1.104 -0.0712  0.2384 -0.6820
  372SOL    HW1 1115   1.058   2.034   1.035  1.2572  0.1326 -0.3399
  372SOL    HW2 1116   1.165   2.068   1.161 -3.9151  2.0708 -2.4764
  373SOL     OW 1117   2.016   1.992   0.867 -0.0070  0.1057 -0.5380
  373SOL    HW1 1118   2.078   2.000   0.951  0.8413  0.6099  0.0331
  373SOL    HW2 1119   1.914   1.997   0.898 -0.4470 -1.0823  0.9184
  374SOL     OW 1120   1.816   0.424   0.580  0.3823  0.0210  0.1208
  374SOL    HW1 1121   1.864   0.371   0.655  3.4469 -0.9221  1.0567
  374SOL    HW2 1122   1.883   0.458   0.512 -0.9451 -2.9027  4.3247
  375SOL     OW 1123   2.445   2.197   1.129 -0.0460 -0.2689 -0.5660
  375SOL    HW1 1124   2.534   2.195   1.078 -0.2989  0.8568  0.5586
  375SOL    HW2 1125   2.453   2.164   1.226 -2.6034  0.2025 -0.3434
  376SOL     OW 1126   3.074   0.552   1.482  0.0852 -0.2251  0.2031
  376SOL    HW1 1127   3.078   0.629   1.549  1.1074  0.7657 -1.7863
  376SOL    HW2 1128   2.978   0.514   1.469 -0.4476  0.4845 -0.9419
  377SOL     OW 1129   2.230   2.845   0.342  0.4816 -0.1359 -0.8467
  377SOL    HW1 1130   2.207   2.945   0.366 -1.3513  2.4233  1.7582
  377SOL    HW2 1131   2.332   2.823   0.333  1.2619  0.3003  2.6528
  378SOL     OW 1132   1.881   1.860   2.594  0.4382  0.4184 -0.5243
  378SOL    HW1 1133   1.887   1.800   2.677 -0.7283 -0.8655  2.8464
  378SOL    HW2 1134   1.837   1.804   2.517 -0.6898 -1.7141 -1.9790
  379SOL     OW 1135   0.775   0.148   2.810 -0.6523  0.1621  0.2969
  379SOL    HW1 1136   0.713   0.071   2.786 -1.3428  1.6142 -1.1665
  379SOL    HW2 1137   0.797   0.215   2.730 -0.3621 -0.0930  2.8634
  380SOL     OW 1138   1.500   1.142   0.558 -0.1587 -0.1668 -0.2756
  380SOL    HW1 1139   1.405   1.112   0.554  0.3113  1.9640 -1.3999
  380SOL    HW2 1140   1.569   1.066   0.571  1.3399 -3.5618 -3.1461
  381SOL     OW 1141   1.374   1.170   1.475  0.7372 -0.0746 -0.3263
  381SOL    HW1 1142   1.399   1.145   1.377  0.0076 -0.0567 -1.3350
  381SOL    HW2 1143   1.440   1.139   1.543 -0.4710 -0.4694 -1.5786
  382SOL     OW 1144   1.793   0.826   0.159 -0.2554 -0.2555  0.5088
  382SOL    HW1 1145   1.836   0.816   0.065 -0.6107  0.5733  0.4018
  382SOL    HW2 1146   1.853   0.884   0.222 -1.7868 -0.7172 -2.4455
  383SOL     OW 1147   2.629   0.991   1.454 -0.5252 -0.4750 -0.0920
  383SOL    HW1 1148   2.532   0.971   1.424  2.1849 -0.0897  0.7091
  383SOL    HW2 1149   2.703   0.983   1.378 -0.3224  0.4100 -3.8031
  384SOL     OW 1150   0.883   2.327   0.138 -0.3562  0.2405 -0.1516
  384SOL    HW1 1151   0.851   2.390   0.213  3.5408 -1.1176  3.2572
  384SOL    HW2 1152   0.867   2.225   0.162 -0.6158  0.5477  0.7517
  385SOL     OW 1153   3.027   2.002   1.709  0.1444 -0.3656 -0.1789
  385SOL    HW1 1154   3.097   2.066   1.661  0.5442  0.9069 -0.6882
  385SOL    HW2 1155   3.068   1.906   1.715 -2.5142  0.5040  0.9620
  386SOL     OW 1156   0.451   1.083   0.429  0.4621 -0.0696 -0.1862
  386SOL    HW1 1157   0.429   0.984   0.436 -0.7089  2.7664 -0.7318
  386SOL    HW2 1158   0.392   1.130   0.356  0.2878  0.7088 -3.5042
  387SOL     OW 1159   0.913   0.406   1.613 -0.4193 -0.2594 -0.3760
  387SOL    HW1 1160   0.998   0.464   1.601  0.9268  0.7654 -1.1439
  387SOL    HW2 1161   0.906   0.327   1.549  0.2059  0.0734  0.0712
  388SOL     OW 1162   1.179   2.636   1.769 -0.1843 -0.4230 -0.1789
  388SOL    HW1 1163   1.230   2.623   1.679  3.2131 -0.2529  1.5719
  388SOL    HW2 1164   1.230   2.611   1.853 -0.3687 -1.0596 -0.4827
  389SOL     OW 1165   0.179   3.023   1.096  0.0902 -0.4069 -0.3915
  389SOL    HW1 1166   0.103   3.056   1.159 -2.6259 -2.0808 -1.0224
  389SOL    HW2 1167   0.192   2.919   1.099 -1.2884  0.0326  0.6865
  390SOL     OW 1168   0.991   0.959   1.295  0.1162 -0.4057 -0.0815
  390SOL    HW1 1169   0.990   0.887   1.371 -1.7937 -3.4895 -1.1021
  390SOL    HW2 1170   0.969   1.053   1.333  0.9824 -0.0593 -1.3497
  391SOL     OW 1171   2.094   1.187   1.000  0.2906 -0.3147  0.0044
  391SOL    HW1 1172   2.005   1.142   1.036 -2.4229  0.2507  1.2222
  391SOL    HW2 1173   2.144   1.136   0.928 -0.6498  2.9555  0.0376
  392SOL     OW 1174   0.906   2.656   3.059 -0.2568  0.2533 -0.7279
  392SOL    HW1 1175   0.819   2.637   3.109 -1.0634 -0.9987 -0.1556
  392SOL    HW2 1176   0.989   2.686   3.117  1.8862  1.3100  0.7445
  393SOL     OW 1177   0.389   0.475   2.002 -0.3553  0.5868 -0.0580
  393SOL    HW1 1178   0.319   0.400   1.971 -0.0221 -1.3006 -2.9604
  393SOL    HW2 1179   0.473   0.477   1.942 -2.1632  0.7358 -2.8363
  394SOL     OW 1180   2.981   1.828   2.769 -0.6409  0.6222  0.4167
  394SOL    HW1 1181   3.064   1.874   2.807  0.7873  1.3240  0.9988
  394SOL    HW2 1182   2.985   1.823   2.663 -0.7793  1.1160  0.7896
  395SOL     OW 1183   1.609   1.896   0.632  0.8318 -0.3743 -0.2077
  395SOL    HW1 1184   1.668   1.826   0.583 -2.9247 -0.0657 -3.6974
  395SOL    HW2 1185   1.654   1.945   0.712 -2.1117 -1.8194 -0.5801
  396SOL     OW 1186   2.764   1.965   1.296 -0.1212 -0.1848  0.2094
  396SOL    HW1 1187   2.665   1.995   1.301 -0.1623  1.1169 -0.8387
  396SOL    HW2 1188   2.798   1.904   1.369 -0.9197  3.4480 -1.2303
  397SOL     OW 1189   1.008   2.172   0.540 -0.0875  0.7234 -0.7180
  397SOL    HW1 1190   0.909   2.137   0.528 -2.4584 -1.9619 -1.5091
  397SOL    HW2 1191   1.010   2.250   0.607 -2.6260 -4.4769  0.5866
  398SOL     OW 1192   2.204   0.030   1.022 -1.1899 -0.2415  0.5195
  398SOL    HW1 1193   2.207  -0.075   1.037 -1.2421 -0.1310 -2.2077
  398SOL    HW2 1194   2.133   0.077   1.072 -1.3536 -0.7492  0.2394
  399SOL     OW 1195   2.917   2.530   2.757  0.6699 -0.6076 -0.4688
  399SOL    HW1 1196   2.881   2.477   2.675  2.0007 -0.4925 -1.4567
  399SOL    HW2 1197   2.866   2.507   2.850 -1.5033  3.0914 -0.5473
  400SOL     OW 1198   0.760   1.597   1.305  0.3877  0.1920  0.0644
  400SOL    HW1 1199   0.703   1.635   1.385 -0.2439 -2.5491  4.0469
  400SOL    HW2 1200   0.768   1.659   1.220  0.1688  2.1283  3.0953
  401SOL     OW 1201   1.847   0.110   1.361  0.0677 -0.6855 -0.2034
  401SOL    HW1 1202   1.904   0.082   1.439  0.2331  1.8451  0.4459
  401SOL    HW2 1203   1.747   0.127   1.384 -0.6039 -2.0399 -3.3312
  402SOL     OW 1204   1.326   0.104   3.064 -0.0364 -0.5282 -0.1548
  402SOL    HW1 1205   1.411   0.096   3.005 -0.6532 -2.0422 -2.5522
  402SOL    HW2 1206   1.315   0.199   3.114 -0.1992  1.8114  1.4190
  403SOL     OW 1207   2.293   1.837   0.897 -0.3418 -0.4084 -0.1033
  403SOL    HW1 1208   2.391   1.820   0.938  0.2461  2.7109  1.9098
  403SOL    HW2 1209   2.246   1.904   0.960  0.7134 -1.4058 -0.9095
  404SOL     OW 1210   0.187   2.482   2.829 -0.5698  0.1206 -0.6150
  404SOL    HW1 1211   0.292   2.476   2.814 -1.1404  1.4847  1.8998
  404SOL    HW2 1212   0.160   2.576   2.858  1.5157 -1.7278 -0.1242
  405SOL     OW 1213   0.177   2.424   0.578 -0.0299 -0.2865  0.4655
  405SOL    HW1 1214   0.140   2.394   0.483 -0.4646 -2.9747 -0.3972
  405SOL    HW2 1215   0.235   2.511   0.580  1.9514  0.8614  3.1455
  406SOL     OW 1216   0.026   1.460   2.971  0.0038  0.2648  0.0322
  406SOL    HW1 1217   0.124   1.431   2.928  1.3804  0.9119 -0.0044
  406SOL    HW2 1218   0.039   1.492   3.069  0.4407  1.0729  2.4797
  407SOL     OW 1219   1.584   0.915   0.897 -0.6045 -0.0522  0.4805
  407SOL    HW1 1220   1.560   0.866   0.808  1.8881  1.8952  0.5838
  407SOL    HW2 1221   1.506   0.977   0.924 -0.5008  0.8766 -1.4286
  408SOL     OW 1222   1.609   2.382   0.950 -0.2597  0.5853 -0.7430
  408SOL    HW1 1223   1.668   2.366   0.867  2.3940 -1.3137 -3.0971
  408SOL    HW2 1224   1.544   2.464   0.941  2.7692 -1.2984 -0.2977
  409SOL     OW 1225   0.589   0.883   0.743  0.4836  0.1576 -0.3261
  409SOL    HW1 1226   0.540   0.893   0.651 -0.3506 -1.6739 -3.2107
  409SOL    HW2 1227   0.614   0.782   0.764 -1.1215  1.2700  1.4657
  410SOL     OW 1228   1.273   2.015   1.407  0.2172  0.0880 -0.0969
  410SOL    HW1 1229   1.336   1.970   1.477  0.8975  0.0263 -0.4520
  410SOL    HW2 1230   1.173   1.965   1.398 -3.9638 -3.2627  0.8765
  411SOL     OW 1231   2.503   1.891   3.057  1.1417 -0.4630 -0.3998
  411SOL    HW1 1232   2.442   1.901   2.975  0.7019  0.1350 -0.4227
  411SOL    HW2 1233   2.602   1.873   3.031  0.9355 -0.9742 -0.4824
  412SOL     OW 1234   1.481   2.508   2.202  0.0607  1.0748 -0.1767
  412SOL    HW1 1235   1.550   2.582   2.225 -0.1725  0.3718 -1.4488
  412SOL    HW2 1236   1.405   2.496   2.271  1.7948  0.9391 -1.2029
  413SOL     OW 1237   3.094   0.269   2.933 -0.0355  0.4346  0.2153
  413SOL    HW1 1238   3.023   0.189   2.937 -0.9367  0.7673  1.9624
  413SOL    HW2 1239   3.167   0.261   3.005 -1.2383  0.3101  1.4305
  414SOL     OW 1240   1.787   1.483   1.353 -0.0710  0.3358 -0.0908
  414SOL    HW1 1241   1.695   1.513   1.393  0.1980 -0.4299 -2.6089
  414SOL    HW2 1242   1.766   1.422   1.272 -2.8804  1.9923 -1.8818
  415SOL     OW 1243   0.285   2.217   0.703 -0.1109  0.1554  0.1506
  415SOL    HW1 1244   0.247   2.302   0.662 -0.7973 -2.7050 -1.3471
  415SOL    HW2 1245   0.242   2.129   0.665  2.0047 -0.5679 -0.5389
  416SOL     OW 1246   0.350   1.066   1.065  0.1074 -0.0109 -0.3484
  416SOL    HW1 1247   0.315   1.028   0.975  0.2349 -2.6411  2.1374
  416SOL    HW2 1248   0.449   1.102   1.070  1.1023  0.0305  1.4694
  417SOL     OW 1249   2.111   2.327   1.883  0.1698 -0.4106  0.1386
  417SOL    HW1 1250   2.114   2.228   1.858  0.0558 -1.7179  2.5566
  417SOL    HW2 1251   2.020   2.353   1.922  1.7115  0.3880 -0.4261
  418SOL     OW 1252   1.126   0.508   1.259  0.6185 -0.2668  0.7340
  418SOL    HW1 1253   1.043   0.484   1.201 -1.0876 -0.9175 -0.1643
  418SOL    HW2 1254   1.174   0.593   1.217 -3.1279 -0.4667 -0.6054
  419SOL     OW 1255   1.015   0.363   3.031 -0.2967 -0.0207  0.5076
  419SOL    HW1 1256   1.012   0.387   2.927 -0.4897  0.0895  1.6876
  419SOL    HW2 1257   0.947   0.287   3.061 -3.4143  3.1568 -1.1455
  420SOL     OW 1258   0.155   2.243   0.359 -0.3448  0.4563  0.1625
  420SOL    HW1 1259   0.169   2.206   0.265  2.4003  1.0467  0.4151
  420SOL    HW2 1260   0.068   2.206   0.402 -0.9284 -0.4938 -0.7297
  421SOL     OW 1261   0.312   3.048   0.691  0.6167 -0.5022 -0.2743
  421SOL    HW1 1262   0.295   2.947   0.716 -0.6028 -0.8152  1.6100
  421SOL    HW2 1263   0.413   3.060   0.675 -1.2672 -0.0800 -2.5222
  422SOL     OW 1264   0.974   2.573   1.035  0.3275  0.8167 -0.1683
  422SOL    HW1 1265   1.050   2.604   0.971  1.5230  1.7269 -2.3724
  422SOL    HW2 1266   0.997   2.591   1.136  1.9171  3.5093  1.7656
  423SOL     OW 1267   0.110   0.698   1.266 -0.2106  0.5066 -0.1013
  423SOL    HW1 1268   0.073   0.635   1.345 -1.1122  0.0264  1.7380
  423SOL    HW2 1269   0.038   0.768   1.240  1.6452 -2.5179  0.3433
  424SOL     OW 1270   1.016   2.225   2.050  0.1149  0.0252 -0.1314
  424SOL    HW1 1271   0.969   2.316   2.033 -0.1212 -0.4160 -0.8024
  424SOL    HW2 1272   1.060   2.223   2.142  0.1160  2.8351 -0.6220
  425SOL     OW 1273   1.982   1.455   0.943  0.3757 -0.0144 -0.3504
  425SOL    HW1 1274   2.019   1.357   0.942 -1.4576  1.0005  0.5585
  425SOL    HW2 1275   2.043   1.527   0.893 -1.2386  1.6737  0.8094
  426SOL     OW 1276   1.492   1.526   1.410  0.0753  0.1898 -0.4461
  426SOL    HW1 1277   1.474   1.612   1.356 -0.2110 -1.7947  1.4614
  426SOL    HW2 1278   1.452   1.523   1.508  0.0919 -0.8705 -0.7360
  427SOL     OW 1279   1.866   2.367   2.027 -0.2026 -0.6239  0.0324
  427SOL    HW1 1280   1.909   2.297   2.094 -1.3565 -2.1430 -1.3081
  427SOL    HW2 1281   1.860   2.467   2.064  0.6506  0.3134 -0.7042
  428SOL     OW 1282   0.873   2.939   0.190  0.6751  0.8061  0.3986
  428SOL    HW1 1283   0.923   3.030   0.198 -0.4877  0.7037  2.2489
  428SOL    HW2 1284   0.928   2.861   0.158 -1.2924  1.1750  0.1469
  429SOL     OW 1285   1.305   0.092   0.262  0.4625 -0.0592 -0.2917
  429SOL    HW1 1286   1.405   0.118   0.263  0.2348  1.5310 -2.4809
  429SOL    HW2 1287   1.283   0.034   0.180  1.6385 -0.2401  0.8524
  430SOL     OW 1288   2.703   1.462   0.390  0.0870 -0.3739  0.2239
  430SOL    HW1 1289   2.772   1.513   0.333  0.5065 -1.1144 -0.8472
  430SOL    HW2 1290   2.711   1.503   0.489  1.0403 -1.6067  0.8202
  431SOL     OW 1291   2.141   1.629   0.829 -0.0752  0.0169 -0.5593
  431SOL    HW1 1292   2.205   1.710   0.846 -1.2909  0.5441 -0.9085
  431SOL    HW2 1293   2.060   1.655   0.765 -0.8395 -2.7644 -1.1110
  432SOL     OW 1294   2.866   2.230   1.266 -0.2921 -0.0587 -0.3392
  432SOL    HW1 1295   2.825   2.141   1.272 -1.1545  1.2949  2.8706
  432SOL    HW2 1296   2.910   2.261   1.352 -0.7915  0.4500  0.0275
  433SOL     OW 1297   1.921   0.363   0.841  0.2871 -0.0668  0.1647
  433SOL    HW1 1298   1.845   0.327   0.902  0.6969  1.1357  0.4994
  433SOL    HW2 1299   2.002   0.299   0.843  1.5595  0.1342 -0.7553
  434SOL     OW 1300   1.566   0.256   0.784 -0.3421  0.2129  0.4362
  434SOL    HW1 1301   1.540   0.348   0.754  0.4308  1.7138  0.6481
  434SOL    HW2 1302   1.613   0.259   0.882  1.7012 -0.3853  4.2425
  435SOL     OW 1303   1.439   1.420   2.131 -0.9425 -0.1690 -0.3558
  435SOL    HW1 1304   1.351   1.436   2.188  0.5676  0.8965  2.0412
  435SOL    HW2 1305   1.473   1.495   2.077 -1.4618 -1.7908  2.7560
  436SOL     OW 1306   1.675   2.740   2.333  0.2312 -0.2886 -0.5619
  436SOL    HW1 1307   1.622   2.812   2.389  0.3871 -0.1879 -3.2064
  436SOL    HW2 1308   1.688   2.646   2.387 -0.3267 -1.1229 -0.3799
  437SOL     OW 1309   1.114   2.905   0.908  0.0278 -0.5352  0.4292
  437SOL    HW1 1310   1.063   2.978   0.852  0.9810 -2.5648  1.0068
  437SOL    HW2 1311   1.065   2.872   0.996  0.8929  0.2865  0.9495
  438SOL     OW 1312   1.062   2.582   1.312  0.0682 -0.7080  0.3763
  438SOL    HW1 1313   1.104   2.629   1.397  1.0433  1.6761 -2.7096
  438SOL    HW2 1314   1.020   2.491   1.332  1.1015 -1.9716 -0.6824
  439SOL     OW 1315   0.723   1.767   1.092  0.0573 -0.1024  0.0522
  439SOL    HW1 1316   0.740   1.865   1.062  2.0292 -0.6245 -2.8843
  439SOL    HW2 1317   0.622   1.744   1.088 -1.5035 -1.2922 -2.6129
  440SOL     OW 1318   0.972   2.489   1.935 -0.2843  0.0087 -0.7083
  440SOL    HW1 1319   0.936   2.510   1.841  2.2322 -0.0496 -0.5173
  440SOL    HW2 1320   1.072   2.509   1.940  1.2472 -0.0107 -0.2085
  441SOL     OW 1321   0.407   2.792   1.368  0.1740 -0.2646  0.5604
  441SOL    HW1 1322   0.469   2.706   1.372  1.2138 -0.8188 -0.6920
  441SOL    HW2 1323   0.322   2.773   1.316 -0.4771 -2.7245 -0.3502
  442SOL     OW 1324   2.272   0.647   2.607  0.2008 -0.3930 -1.0698
  442SOL    HW1 1325   2.255   0.548   2.587 -0.1344  1.4233 -0.8230
  442SOL    HW2 1326   2.189   0.708   2.578 -0.5807  0.0892 -0.3089
  443SOL     OW 1327   1.212   2.724   2.202  0.0391  0.2733 -0.2056
  443SOL    HW1 1328   1.229   2.636   2.247 -0.3226  1.2698  2.7897
  443SOL    HW2 1329   1.229   2.799   2.269 -0.5010 -2.2993 -0.1438
  444SOL     OW 1330   1.147   1.299   1.587 -0.1165  0.0064  0.3369
  444SOL    HW1 1331   1.236   1.262   1.555  0.8264  1.3930  1.7087
  444SOL    HW2 1332   1.148   1.344   1.682  2.7065 -1.4358  3.2508
  445SOL     OW 1333   3.104   2.376   1.870  0.3879 -0.1718  0.0414
  445SOL    HW1 1334   3.088   2.465   1.815  0.8668  1.9226 -2.5709
  445SOL    HW2 1335   3.017   2.350   1.923  1.4652  0.3385  0.4972
  446SOL     OW 1336   0.250   1.894   2.381 -0.0829  0.3798 -0.1042
  446SOL    HW1 1337   0.197   1.957   2.440 -0.2605 -1.5672 -0.0622
  446SOL    HW2 1338   0.182   1.835   2.324 -2.1758 -1.7941 -4.5858
  447SOL     OW 1339   1.242   1.689   1.959 -0.1476  0.9561 -0.1832
  447SOL    HW1 1340   1.145   1.721   1.966 -0.2519 -1.0253 -2.8930
  447SOL    HW2 1341   1.305   1.763   1.989 -0.1003  0.5562  0.6188
  448SOL     OW 1342   0.105   1.443   1.968  0.4999  0.2294 -0.1324
  448SOL    HW1 1343   0.141   1.534   1.939 -1.4733  1.7270  1.9430
  448SOL    HW2 1344   0.053   1.445   2.059 -0.3108 -0.4122 -0.0742
  449SOL     OW 1345   1.751   2.970   0.910  0.3897  0.7983  0.5220
  449SOL    HW1 1346   1.807   2.987   0.995  0.6531  2.1419 -2.7531
  449SOL    HW2 1347   1.807   2.918   0.835 -1.9716 -3.0721  0.5057
  450SOL     OW 1348   2.329   1.433   0.749  0.4709 -0.1499 -0.5821
  450SOL    HW1 1349   2.237   1.470   0.773 -2.1943  0.5562 -0.5119
  450SOL    HW2 1350   2.360   1.483   0.665 -0.8582  0.1472 -0.4122
  451SOL     OW 1351   1.318   3.021   1.429  0.4365  0.0452  0.0455
  451SOL    HW1 1352   1.230   3.077   1.445 -0.8703 -1.0710 -0.4109
  451SOL    HW2 1353   1.340   2.956   1.505 -0.5216 -2.0805 -0.8827
  452SOL     OW 1354   2.664   2.289   2.200  0.5827  0.0396 -0.1505
  452SOL    HW1 1355   2.657   2.394   2.190  0.9787  1.4192 -1.8421
  452SOL    HW2 1356   2.712   2.261   2.285  0.6489 -1.4184 -1.4844
  453SOL     OW 1357   2.460   2.661   0.012  0.1898 -0.4283  0.0717
  453SOL    HW1 1358   2.371   2.701   0.045  2.6081 -1.3545  0.2113
  453SOL    HW2 1359   2.442   2.584  -0.049 -0.9448 -2.2860  1.5062
  454SOL     OW 1360   0.980   1.122   2.040  0.1339 -0.5224  0.7896
  454SOL    HW1 1361   0.959   1.132   1.938  0.6479 -3.2398 -0.1315
  454SOL    HW2 1362   1.063   1.178   2.065 -1.6644 -0.4142  1.7346
  455SOL     OW 1363   0.687   2.673   2.811 -0.7814  0.5108 -0.6332
  455SOL    HW1 1364   0.779   2.720   2.809  1.0659  2.8159  1.3893
  455SOL    HW2 1365   0.689   2.594   2.886  0.8024 -2.8913  1.5205
  456SOL     OW 1366   0.458   1.905   0.231  0.4279  0.1481  0.6577
  456SOL    HW1 1367   0.533   1.853   0.283  2.0954  0.7183 -1.7579
  456SOL    HW2 1368   0.486   1.982   0.171 -2.2637 -1.5084 -1.4467
  457SOL     OW 1369   0.338   2.634   0.605 -0.8046 -0.3565 -0.1012
  457SOL    HW1 1370   0.358   2.703   0.527  2.7663 -0.5583  1.2906
  457SOL    HW2 1371   0.422   2.608   0.662  0.0320 -2.2509  0.4734
  458SOL     OW 1372   2.919   3.080   1.228 -0.0700 -0.0155  0.4422
  458SOL    HW1 1373   2.935   3.182   1.216 -2.2341  0.6671 -0.1881
  458SOL    HW2 1374   2.926   3.021   1.146 -1.4907  0.9724 -1.4921
  459SOL     OW 1375   2.075   2.623   0.741  0.0635  0.0711 -0.4264
  459SOL    HW1 1376   2.158   2.664   0.788  1.0635 -1.5318 -0.1235
  459SOL    HW2 1377   2.101   2.568   0.661  0.4913 -0.6640 -1.4395
  460SOL     OW 1378   1.221   2.102   2.822 -0.0578 -0.4952  0.1067
  460SOL    HW1 1379   1.239   2.144   2.728 -0.3818 -0.7132  2.1930
  460SOL    HW2 1380   1.201   2.001   2.806  1.0020  0.5702  0.2275
  461SOL     OW 1381   0.539   2.193   2.653 -0.1085  0.1729  0.2282
  461SOL    HW1 1382   0.490   2.106   2.620  0.7834 -1.1346 -0.1783
  461SOL    HW2 1383   0.592   2.177   2.743 -1.1141 -1.3059 -0.7051
  462SOL     OW 1384   0.955   1.141   1.781 -0.1363  0.6725  0.0131
  462SOL    HW1 1385   1.031   1.132   1.713  1.6675  1.7959  2.5259
  462SOL    HW2 1386   0.882   1.211   1.760 -0.8234 -0.3669  3.6127
  463SOL     OW 1387   0.448   0.818   0.508 -0.0569  0.0881  0.0432
  463SOL    HW1 1388   0.513   0.737   0.508 -0.2199 -2.7946  3.2025
  463SOL    HW2 1389   0.352   0.793   0.534  2.2957  0.6865  0.6491
  464SOL     OW 1390   0.604   2.304   2.232 -0.4237 -0.3669  0.0732
  464SOL    HW1 1391   0.565   2.361   2.311 -1.7756  0.5177 -1.8299
  464SOL    HW2 1392   0.563   2.313   2.140 -0.1924 -1.9252  1.1575
  465SOL     OW 1393   0.233   0.962   0.816 -0.1296  0.2921  0.4618
  465SOL    HW1 1394   0.132   0.981   0.838 -0.0580  1.5197  0.2948
  465SOL    HW2 1395   0.245   0.865   0.785  0.8037 -3.4163  0.0949
  466SOL     OW 1396   1.399   1.121   0.979  0.1877  0.1048 -0.1259
  466SOL    HW1 1397   1.413   1.220   0.966  0.4380  0.0518 -1.1677
  466SOL    HW2 1398   1.312   1.110   1.033 -1.4722  0.1121 -3.0461
  467SOL     OW 1399   0.550   0.404   2.438 -0.6233 -0.5087 -0.7682
  467SOL    HW1 1400   0.504   0.498   2.442 -0.7997  3.0862 -1.9103
  467SOL    HW2 1401   0.547   0.363   2.532  1.1264 -0.1354  1.0873
  468SOL     OW 1402   0.457   2.269   1.617  0.1881  0.0042  0.4515
  468SOL    HW1 1403   0.517   2.335   1.660 -0.9810  2.2313 -1.0650
  468SOL    HW2 1404   0.460   2.269   1.513  0.7765  0.2779 -0.0447
  469SOL     OW 1405   1.436   1.354   1.198  0.2833  0.2001 -0.5725
  469SOL    HW1 1406   1.535   1.357   1.175 -2.8037  2.0002 -0.0567
  469SOL    HW2 1407   1.421   1.381   1.299 -1.1973 -0.7479  2.0339
  470SOL     OW 1408   3.003   1.830   0.747 -0.3237 -0.6476 -0.0474
  470SOL    HW1 1409   3.078   1.888   0.705 -1.7268 -1.3859  0.0125
  470SOL    HW2 1410   3.025   1.795   0.844  0.8530 -1.9082 -1.8930
  471SOL     OW 1411   2.652   1.263   2.134  0.9535 -0.2229 -0.1125
  471SOL    HW1 1412   2.589   1.235   2.213  1.4355 -2.3203  0.7598
  471SOL    HW2 1413   2.709   1.345   2.156 -2.1949 -1.0153 -0.3052
  472SOL     OW 1414   1.129   2.461   0.056 -0.2634  0.0087  0.1656
  472SOL    HW1 1415   1.186   2.454   0.141 -3.0861  2.1823  0.2923
  472SOL    HW2 1416   1.031   2.434   0.071 -0.0005 -0.3830 -0.5049
  473SOL     OW 1417   1.095   1.539   1.000 -0.1559  0.2613 -0.6657
  473SOL    HW1 1418   0.992   1.547   1.002  1.1879  0.9896 -1.1224
  473SOL    HW2 1419   1.124   1.471   1.077  1.5937 -0.1162  1.3673
  474SOL     OW 1420   0.677   1.269   0.542 -0.2634 -0.3003 -0.3065
  474SOL    HW1 1421   0.595   1.227   0.498  0.5683 -1.8610  0.8591
  474SOL    HW2 1422   0.735   1.196   0.587  1.4852  1.5924 -1.8418
  475SOL     OW 1423   2.874   0.015   0.837  0.1919  0.4168 -0.2831
  475SOL    HW1 1424   2.931   0.095   0.852  0.0695 -1.8424 -1.2294
  475SOL    HW2 1425   2.782   0.024   0.877  1.3112 -0.5071 -2.4749
  476SOL     OW 1426   0.966   3.087   1.754  0.2941 -0.0041 -0.1422
  476SOL    HW1 1427   1.044   3.127   1.813  0.4057 -1.7176  0.0626
  476SOL    HW2 1428   1.002   3.024   1.678 -1.1263 -0.7724  0.0810
  477SOL     OW 1429   1.406   0.328   2.421 -0.1593 -0.2396  0.1510
  477SOL    HW1 1430   1.397   0.358   2.519 -0.6419 -1.0404 -1.8083
  477SOL    HW2 1431   1.500   0.285   2.415  1.7305  0.0201  0.7430
  478SOL     OW 1432   2.225   1.823   0.155  0.0586  0.0358  0.2297
  478SOL    HW1 1433   2.156   1.744   0.171  0.3902  1.9131  0.3064
  478SOL    HW2 1434   2.326   1.800   0.151  2.0159  0.8717 -1.7763
  479SOL     OW 1435   1.209   0.984   2.864  0.6394 -0.3503  0.7857
  479SOL    HW1 1436   1.268   0.952   2.782  2.4892  1.7679  1.0846
  479SOL    HW2 1437   1.110   0.951   2.858  2.6927  2.6201 -3.0949
  480SOL     OW 1438   2.670   2.333   0.353  0.0156 -0.2612 -0.3595
  480SOL    HW1 1439   2.670   2.239   0.399  1.3982  1.7089  2.0750
  480SOL    HW2 1440   2.574   2.350   0.317  0.5098 -1.2881 -0.4568
  481SOL     OW 1441   0.969   1.143   0.896  0.0516 -0.0527  0.6058
  481SOL    HW1 1442   1.015   1.223   0.849  0.3305 -0.6018  2.0921
  481SOL    HW2 1443   1.004   1.132   0.993 -0.1088 -2.0161 -1.6138
  482SOL     OW 1444   1.592   0.277   2.041 -0.1725 -0.0849  0.8705
  482SOL    HW1 1445   1.603   0.381   2.028  0.3939  1.9620  1.3878
  482SOL    HW2 1446   1.663   0.240   2.099 -0.8225  1.5070 -2.4575
  483SOL     OW 1447   0.101   2.310   1.230  0.0221  0.2245  0.5005
  483SOL    HW1 1448   0.055   2.333   1.321 -2.1190 -1.1466  1.5354
  483SOL    HW2 1449   0.132   2.399   1.186  0.5490  0.2168 -0.6138
  484SOL     OW 1450   1.770   1.105   1.356 -0.3439  0.0489 -0.1892
  484SOL    HW1 1451   1.817   1.019   1.392 -0.7480  0.1560 -1.7515
  484SOL    HW2 1452   1.772   1.184   1.426  1.0313  0.7185 -1.7510
  485SOL     OW 1453   0.729   0.943   1.759 -0.3335  0.9275  0.4075
  485SOL    HW1 1454   0.745   0.965   1.658  0.0808 -1.7473  1.3573
  485SOL    HW2 1455   0.805   0.966   1.823  1.0603 -0.6358  2.0493
  486SOL     OW 1456   0.814   1.874   2.435 -0.0092  0.1362 -0.2411
  486SOL    HW1 1457   0.846   1.872   2.530  0.9068  1.7774 -2.1176
  486SOL    HW2 1458   0.786   1.973   2.416 -0.7739  0.7740  1.9397
  487SOL     OW 1459   1.794   1.650   0.976  0.2283 -0.1259  0.1807
  487SOL    HW1 1460   1.867   1.573   0.965 -0.5294  2.2175  2.5663
  487SOL    HW2 1461   1.784   1.695   0.882  0.2729 -0.6850 -2.5684
  488SOL     OW 1462   3.002   0.867   2.218  0.4265  0.3536 -0.3113
  488SOL    HW1 1463   2.976   0.768   2.202 -1.4544  1.2273 -0.7088
  488SOL    HW2 1464   3.061   0.880   2.300  0.5493  2.0345 -0.7685
  489SOL     OW 1465   2.780   0.296   1.261 -0.6443 -0.3375  0.3209
  489SOL    HW1 1466   2.778   0.293   1.365  3.2562  0.8011 -0.7821
  489SOL    HW2 1467   2.879   0.290   1.235 -4.0858 -0.8207 -0.6800
  490SOL     OW 1468   1.493   2.952   2.776  0.5723 -0.3980 -0.4476
  490SOL    HW1 1469   1.512   2.851   2.757 -1.1444  0.7442 -0.6445
  490SOL    HW2 1470   1.426   2.992   2.703 -2.4248  0.2254 -0.2880
  491SOL     OW 1471   1.724   1.445   2.607  0.3604  0.0233  0.0403
  491SOL    HW1 1472   1.645   1.462   2.669  2.5667 -2.2451 -1.0254
  491SOL    HW2 1473   1.815   1.455   2.654 -0.1082  2.1407 -1.6252
  492SOL     OW 1474   0.572   2.136   0.649 -0.1695  0.0852  0.3525
  492SOL    HW1 1475   0.628   2.105   0.732 -0.2816  0.8645 -1.6979
  492SOL    HW2 1476   0.491   2.193   0.673 -1.9956  1.1156  0.9116
  493SOL     OW 1477   0.435   1.417   2.021 -0.3037  0.7105 -0.1618
  493SOL    HW1 1478   0.365   1.494   2.038 -0.9558 -0.3967 -1.1046
  493SOL    HW2 1479   0.422   1.332   2.074  0.7247 -0.4987  0.5507
  494SOL     OW 1480   2.716   2.737   0.118 -0.1626 -0.2495  0.8683
  494SOL    HW1 1481   2.747   2.672   0.192  2.0901 -1.2243  0.5263
  494SOL    HW2 1482   2.614   2.733   0.090 -2.4367 -2.4896 -1.8481
  495SOL     OW 1483   2.604   2.705   2.660  0.7773  0.5239  1.3766
  495SOL    HW1 1484   2.619   2.601   2.665  2.5556  0.9302  1.4335
  495SOL    HW2 1485   2.692   2.762   2.628  0.7040 -0.6845  0.7292
  496SOL     OW 1486   2.068   2.245   0.718  0.0367 -0.5121  0.3521
  496SOL    HW1 1487   2.096   2.321   0.783 -2.5614  1.7286 -0.9737
  496SOL    HW2 1488   2.053   2.159   0.767 -0.2026  1.1452  0.4835
  497SOL     OW 1489   0.199   2.998   2.356  0.1503  0.0144  0.1097
  497SOL    HW1 1490   0.186   3.065   2.433  1.5663 -0.6879  1.2171
  497SOL    HW2 1491   0.266   3.038   2.285 -1.8340 -2.2162  1.3461
  498SOL     OW 1492   1.170   1.372   1.196 -0.3511  0.7843 -0.0348
  498SOL    HW1 1493   1.272   1.341   1.204 -0.5244  2.6807  1.1051
  498SOL    HW2 1494   1.135   1.430   1.277 -2.0200 -2.7935  0.4764
  499SOL     OW 1495   0.642   1.756   0.366  0.0971  0.4718  0.1416
  499SOL    HW1 1496   0.636   1.659   0.323 -0.1978 -1.9770 -0.4385
  499SOL    HW2 1497   0.734   1.783   0.400 -1.5985 -1.4262 -0.7969
  500SOL     OW 1498   1.412   2.875   1.634 -0.0798 -0.2444  0.0029
  500SOL    HW1 1499   1.365   2.874   1.720  3.2294  0.6300 -3.4484
  500SOL    HW2 1500   1.469   2.789   1.609 -1.7099 -0.8598  5.4755
  501SOL     OW 1501   0.814   1.109   2.273 -0.0947 -0.4045 -0.0684
  501SOL    HW1 1502   0.728   1.054   2.249  0.4271  1.7941 -0.5554
  501SOL    HW2 1503   0.870   1.127   2.194 -1.5943  1.3116 -1.5735
  502SOL     OW 1504   2.548   0.929   1.711  0.3262  0.2576 -0.1816
  502SOL    HW1 1505   2.524   0.907   1.613 -0.7824 -0.4217  1.5283
  502SOL    HW2 1506   2.547   0.840   1.771  0.8154 -1.2538  0.9040
  503SOL     OW 1507   1.330   0.160   0.687 -0.1805 -0.2595  0.8098
  503SOL    HW1 1508   1.301   0.229   0.611  0.0053 -0.0539  1.1690
  503SOL    HW2 1509   1.422   0.185   0.729  0.1080  0.5995 -1.3036
  504SOL     OW 1510   3.027   2.342   1.479  0.0613  0.2859 -0.3945
  504SOL    HW1 1511   2.978   2.413   1.529  0.2365 -1.9520 -0.6157
  504SOL    HW2 1512   3.096   2.294   1.535  0.6109 -0.2098 -2.3581
  505SOL     OW 1513   2.339   1.172   1.409 -0.1517  0.7158  0.0508
  505SOL    HW1 1514   2.306   1.221   1.325  2.5204 -1.9503  2.2867
  505SOL    HW2 1515   2.431   1.216   1.445  0.5711 -0.9800 -1.9913
  506SOL     OW 1516   1.968   0.220   1.822 -0.1292  0.2105  0.3130
  506SOL    HW1 1517   2.042   0.150   1.852 -1.7596 -3.0413 -0.7017
  506SOL    HW2 1518   1.972   0.319   1.862  0.3047  1.7704  1.3409
  507SOL     OW 1519   0.552   0.658   2.127 -0.1698 -0.8931  0.3190
  507SOL    HW1 1520   0.470   0.609   2.098  3.2777  2.3487  1.9639
  507SOL    HW2 1521   0.632   0.594   2.145 -0.8554  1.1527  1.1634
  508SOL     OW 1522   0.278   1.629   0.759  0.0667 -0.2828  0.3841
  508SOL    HW1 1523   0.334   1.695   0.700  2.6330  0.4151 -0.6171
  508SOL    HW2 1524   0.249   1.670   0.849  0.4546 -2.6056  2.3815
  509SOL     OW 1525   1.242   1.230   2.393 -1.0041  0.4647 -0.7148
  509SOL    HW1 1526   1.311   1.162   2.361  2.2920 -3.6037 -0.1030
  509SOL    HW2 1527   1.149   1.180   2.416 -0.6337 -1.4706 -1.0228
  510SOL     OW 1528   1.269   2.120   2.209 -0.7796 -0.2748 -0.0732
  510SOL    HW1 1529   1.285   2.138   2.110  0.1844 -2.3395  1.2854
  510SOL    HW2 1530   1.195   2.047   2.219  2.8330 -0.0606 -1.8037
  511SOL     OW 1531   3.007   2.695   1.319  0.3990  0.3303  0.7759
  511SOL    HW1 1532   2.985   2.645   1.231  2.7655 -0.0425 -1.2610
  511SOL    HW2 1533   2.934   2.683   1.400 -5.0849  1.6475  2.7729
  512SOL     OW 1534   2.375   0.437   1.370 -0.7203 -0.1782 -0.2654
  512SOL    HW1 1535   2.277   0.398   1.372 -2.3462 -0.9641  2.1665
  512SOL    HW2 1536   2.404   0.463   1.269  1.8759  0.2518 -0.0815
  513SOL     OW 1537   2.626   2.102   0.881  0.5519 -0.2626  0.2668
  513SOL    HW1 1538   2.581   2.184   0.845 -0.9445 -1.0318 -0.1858
  513SOL    HW2 1539   2.681   2.043   0.814 -1.0976 -1.7436  1.1395
  514SOL     OW 1540   0.630   2.748   0.463 -0.3869 -0.3832  0.0720
  514SOL    HW1 1541   0.613   2.801   0.378 -0.8054 -4.0270  0.3472
  514SOL    HW2 1542   0.690   2.799   0.530 -1.8259  1.2996  0.7248
  515SOL     OW 1543   1.956   1.282   2.363  0.2400 -0.1260  0.5381
  515SOL    HW1 1544   1.949   1.255   2.262  0.5153 -1.6813 -2.2742
  515SOL    HW2 1545   1.865   1.265   2.414 -3.4084 -2.0716 -3.3451
  516SOL     OW 1546   0.263   0.238   1.917  0.3268 -0.6762  0.0568
  516SOL    HW1 1547   0.348   0.204   1.877 -1.5449  2.9111 -0.4718
  516SOL    HW2 1548   0.178   0.179   1.892 -2.4760 -0.3308 -0.2316
  517SOL     OW 1549   0.480   0.022   1.170 -0.4727  0.2702 -0.0667
  517SOL    HW1 1550   0.525   0.084   1.246  1.8136  0.9349  1.1163
  517SOL    HW2 1551   0.375   0.018   1.164 -1.0718  0.4048 -2.9006
  518SOL     OW 1552   2.160   3.036   1.824 -0.2485 -0.5685 -0.2142
  518SOL    HW1 1553   2.216   3.126   1.828  2.9576  1.0610 -1.3668
  518SOL    HW2 1554   2.171   2.992   1.728  2.8241  0.3044 -0.0848
  519SOL     OW 1555   2.372   2.161   2.456  0.4082  0.2503  0.1966
  519SOL    HW1 1556   2.339   2.120   2.547  0.0003  0.5358  0.4375
  519SOL    HW2 1557   2.356   2.263   2.452 -2.2293  1.2290 -2.2757
  520SOL     OW 1558   1.850   2.719   1.747  0.3889  0.4709 -0.2693
  520SOL    HW1 1559   1.771   2.689   1.807  1.5701  2.2145 -0.6971
  520SOL    HW2 1560   1.911   2.645   1.709 -1.7844  0.6139  0.4074
  521SOL     OW 1561   0.581   3.063   2.096 -0.3423 -0.2715 -0.0900
  521SOL    HW1 1562   0.478   3.075   2.113  0.1442  0.0432  1.5106
  521SOL    HW2 1563   0.625   3.049   2.190  1.8806  0.3298  0.8595
  522SOL     OW 1564   0.234   1.844   1.529  0.2151  0.2811 -0.9429
  522SOL    HW1 1565   0.273   1.924   1.582  0.6652  0.5338 -1.2015
  522SOL    HW2 1566   0.195   1.877   1.441  1.4132 -1.7550  0.0263
  523SOL     OW 1567   2.205   2.958   1.553  0.6021 -0.1658 -0.3486
  523SOL    HW1 1568   2.289   2.906   1.547 -0.5211  3.4063 -0.3345
  523SOL    HW2 1569   2.126   2.916   1.507  1.5229  0.5738  2.2771
  524SOL     OW 1570   0.190   2.780   2.781  0.0582  0.2628 -0.1938
  524SOL    HW1 1571   0.158   2.868   2.829 -0.9978 -1.4334 -0.2877
  524SOL    HW2 1572   0.291   2.781   2.765 -2.5761  2.3566 -1.9821
  525SOL     OW 1573   2.189   1.962   0.388 -0.3923  0.2866 -0.0440
  525SOL    HW1 1574   2.217   1.917   0.473 -1.7021  2.0613 -0.3074
  525SOL    HW2 1575   2.204   1.897   0.306 -1.3602 -0.2767  0.4967
  526SOL     OW 1576   0.484   1.511   1.649 -0.6981 -0.4236 -0.4152
  526SOL    HW1 1577   0.525   1.556   1.733  1.7618  3.5483  0.9486
  526SOL    HW2 1578   0.534   1.426   1.611 -0.9411 -0.7279 -0.1470
  527SOL     OW 1579   1.020   2.850   1.158 -0.3644 -0.2852  0.1531
  527SOL    HW1 1580   1.083   2.793   1.213  0.3087  0.6675  0.5207
  527SOL    HW2 1581   1.044   2.950   1.152  1.9369 -1.5912  0.6444
  528SOL     OW 1582   1.348   2.369   0.550  0.5168  0.1894  0.3918
  528SOL    HW1 1583   1.402   2.283   0.558  0.7898  2.4284 -1.0929
  528SOL    HW2 1584   1.390   2.448   0.605  1.4244  1.8877  1.0385
  529SOL     OW 1585   1.961   1.766   0.683  0.2404 -0.4432  0.1442
  529SOL    HW1 1586   1.913   1.729   0.597  2.0237 -2.1061 -0.1217
  529SOL    HW2 1587   1.915   1.845   0.733 -0.6656  1.1063  1.6882
  530SOL     OW 1588   0.362   2.599   0.211 -0.6798  0.0648  0.4000
  530SOL    HW1 1589   0.331   2.663   0.287  0.2654  1.4028 -0.5733
  530SOL    HW2 1590   0.402   2.512   0.235 -1.5074  0.0906 -2.5352
  531SOL     OW 1591   1.866   1.017   1.027 -0.4034  0.0027  0.4137
  531SOL    HW1 1592   1.827   1.074   0.954 -0.4676 -3.0878 -0.0560
  531SOL    HW2 1593   1.846   0.917   1.013 -1.2010  2.4319 -0.6169
  532SOL     OW 1594   0.368   1.157   0.697 -0.0095  1.0469  0.0903
  532SOL    HW1 1595   0.402   1.133   0.605 -0.6338  1.3067  2.4651
  532SOL    HW2 1596   0.319   1.076   0.733  4.4898 -0.2406 -0.7156
  533SOL     OW 1597   1.754   0.042   2.578  0.0750  0.1246 -0.5284
  533SOL    HW1 1598   1.857   0.030   2.587  3.5081  1.0598  1.5176
  533SOL    HW2 1599   1.716   0.124   2.635 -0.1595  1.4615 -0.4087
  534SOL     OW 1600   0.304   0.196   1.496  0.9528  0.9483  0.4196
  534SOL    HW1 1601   0.375   0.224   1.426 -0.3255 -0.4111  2.6464
  534SOL    HW2 1602   0.258   0.274   1.547 -1.7177 -0.5259 -1.1821
  535SOL     OW 1603   1.907   0.423   0.219  0.4444  0.4832  0.5012
  535SOL    HW1 1604   1.927   0.507   0.272  1.9603  0.0132 -1.6561
  535SOL    HW2 1605   1.808   0.396   0.239  0.3290 -0.9306  1.5389
  536SOL     OW 1606   1.424   2.581   0.942  0.2061  0.0902  0.2782
  536SOL    HW1 1607   1.404   2.545   1.037  0.0285 -0.5371  0.6590
  536SOL    HW2 1608   1.335   2.624   0.907 -3.1853  2.3132  0.6009
  537SOL     OW 1609   0.810   0.162   2.342 -0.1163  0.3351  0.1621
  537SOL    HW1 1610   0.828   0.196   2.244  0.1448  1.3986 -0.1909
  537SOL    HW2 1611   0.757   0.071   2.341  1.5348 -0.5368 -0.4682
  538SOL     OW 1612   1.682   2.305   1.536  0.2166  0.5212  0.2582
  538SOL    HW1 1613   1.651   2.222   1.483  1.3102  0.8359 -0.3206
  538SOL    HW2 1614   1.762   2.362   1.500  2.4834 -2.6862  1.0566
  539SOL     OW 1615   0.177   1.610   2.732  0.0923 -0.8886 -0.0564
  539SOL    HW1 1616   0.102   1.594   2.659  0.1863  0.9471  2.5069
  539SOL    HW2 1617   0.166   1.703   2.775  1.3307 -2.4931 -1.0836
  540SOL     OW 1618   2.724   1.717   1.989  0.1081 -0.1421 -0.1561
  540SOL    HW1 1619   2.660   1.648   2.025  0.3151  2.5072  2.1746
  540SOL    HW2 1620   2.671   1.798   1.950  1.2511 -0.3610  1.9332
  541SOL     OW 1621   0.496   2.289   3.049 -0.0761 -0.3965  1.3850
  541SOL    HW1 1622   0.529   2.263   3.147 -0.1369  0.6865  0.2056
  541SOL    HW2 1623   0.388   2.298   3.035 -2.5645  1.5539 -0.0461
  542SOL     OW 1624   2.261   2.565   0.393 -0.3800  0.2668 -0.3035
  542SOL    HW1 1625   2.235   2.660   0.359 -0.4398 -0.9339 -1.6082
  542SOL    HW2 1626   2.181   2.519   0.444  1.0940  0.6644  1.7827
  543SOL     OW 1627   1.073   1.734   1.650  0.1575  0.8949 -0.1800
  543SOL    HW1 1628   1.056   1.771   1.745 -0.5190 -1.9989  0.1903
  543SOL    HW2 1629   1.035   1.800   1.579 -2.8589  1.8088  0.2069
  544SOL     OW 1630   0.989   0.405   0.205  0.8346  0.2798 -0.2100
  544SOL    HW1 1631   1.005   0.315   0.256 -1.6363 -3.1748  0.8227
  544SOL    HW2 1632   0.995   0.398   0.099 -0.0206 -2.2063 -3.0005
  545SOL     OW 1633   1.096   1.765   0.827 -0.1551  0.2032  0.9221
  545SOL    HW1 1634   1.186   1.780   0.782 -0.1641  0.0447  3.4929
  545SOL    HW2 1635   1.105   1.691   0.896  0.5194 -1.9191 -2.2495
  546SOL     OW 1636   2.627   1.590   0.012 -0.0299  0.0705  0.0336
  546SOL    HW1 1637   2.581   1.575  -0.082  0.7312  0.4122  3.4748
  546SOL    HW2 1638   2.571   1.560   0.092  1.1434 -3.0373 -1.2691
  547SOL     OW 1639   0.564   0.023   2.658  0.0289 -0.2264  0.2536
  547SOL    HW1 1640   0.643  -0.039   2.658 -2.8973  2.0107  0.7783
  547SOL    HW2 1641   0.473  -0.029   2.659  2.9527 -0.0757  2.3074
  548SOL     OW 1642   2.071   0.854   3.051  0.6169  0.0398 -0.0306
  548SOL    HW1 1643   1.969   0.833   3.024 -0.8278 -0.3738 -1.1770
  548SOL    HW2 1644   2.093   0.952   3.075 -2.1719  1.7234  0.6458
  549SOL     OW 1645   0.694   0.529   0.197 -0.2110 -0.0386 -0.1315
  549SOL    HW1 1646   0.657   0.578   0.110  0.8760 -1.7593 -2.7312
  549SOL    HW2 1647   0.770   0.574   0.243  1.2219 -3.8768 -1.8699
  550SOL     OW 1648   2.491   2.860   2.877 -0.8259  0.1124 -0.2395
  550SOL    HW1 1649   2.494   2.793   2.952 -1.3292  0.3799 -1.3456
  550SOL    HW2 1650   2.518   2.820   2.784  0.6654 -0.6157 -1.5724
  551SOL     OW 1651   0.285   0.865   0.233  0.3833  0.4658  0.3497
  551SOL    HW1 1652   0.383   0.830   0.223 -0.4150 -1.2630 -0.9764
  551SOL    HW2 1653   0.236   0.849   0.327 -0.3485 -0.7668 -0.9072
  552SOL     OW 1654   0.693   2.979   1.839  0.4342  0.6594  0.0397
  552SOL    HW1 1655   0.659   2.992   1.938 -1.1197 -1.0685 -2.8403
  552SOL    HW2 1656   0.791   3.013   1.814  3.2567 -1.0531 -0.1760
  553SOL     OW 1657   3.032   2.571   0.353 -0.7946 -0.1819 -0.1025
  553SOL    HW1 1658   2.986   2.485   0.312  1.4912 -0.2090 -0.1583
  553SOL    HW2 1659   2.984   2.606   0.439  0.1859 -0.0471  1.1862
  554SOL     OW 1660   2.124   0.364   0.580 -0.6846  0.2236  0.5293
  554SOL    HW1 1661   2.180   0.354   0.494 -1.2495  0.9066 -1.2289
  554SOL    HW2 1662   2.129   0.277   0.638 -2.4002 -1.0909  2.2283
  555SOL     OW 1663   0.408   2.885   2.500 -0.1980 -1.0573 -0.0036
  555SOL    HW1 1664   0.323   2.923   2.461 -0.3772 -1.0839  2.6626
  555SOL    HW2 1665   0.443   2.804   2.440  2.7235 -1.3579 -2.1363
  556SOL     OW 1666   0.788   2.390   1.551 -0.0599  0.2603 -0.5400
  556SOL    HW1 1667   0.847   2.473   1.575 -0.1419 -1.2489  0.4129
  556SOL    HW2 1668   0.819   2.334   1.468  1.6651  0.2703 -0.7160
  557SOL     OW 1669   0.090   2.055   0.145  0.1459 -0.6327  0.0780
  557SOL    HW1 1670  -0.005   2.007   0.134 -1.0485 -0.2266  1.8819
  557SOL    HW2 1671   0.117   2.127   0.074 -0.3791  0.0380  1.1845
  558SOL     OW 1672   2.940   2.314   0.278 -0.0862 -0.0194  0.0756
  558SOL    HW1 1673   2.842   2.297   0.308  1.6311 -1.2837  1.2499
  558SOL    HW2 1674   2.953   2.293   0.177 -1.9560 -0.3498 -0.3912
  559SOL     OW 1675   0.366   2.302   1.355  0.2410  0.0765  0.0650
  559SOL    HW1 1676   0.276   2.317   1.304  3.2776 -0.3800  1.2624
  559SOL    HW2 1677   0.433   2.240   1.308 -0.5989  1.3554 -1.2626
  560SOL     OW 1678   2.100   1.121   3.082  0.3367  0.0520 -0.2048
  560SOL    HW1 1679   2.057   1.159   3.168 -1.1862 -0.3922 -1.2959
  560SOL    HW2 1680   2.145   1.189   3.019  1.8902 -0.0405  1.2461
  561SOL     OW 1681   3.026   1.877   0.019  0.2994 -0.0791 -0.0263
  561SOL    HW1 1682   2.998   1.820   0.102 -0.1086 -3.2512  0.2213
  561SOL    HW2 1683   2.957   1.957  -0.001 -2.1804  1.4452  0.8230
  562SOL     OW 1684   1.014   2.268   2.367  0.7141  0.1716  0.2504
  562SOL    HW1 1685   0.922   2.221   2.361  3.1948  0.8686 -0.8008
  562SOL    HW2 1686   0.998   2.367   2.388  0.8122  4.4038 -0.4822
  563SOL     OW 1687   0.729   2.553   2.570  0.1262  0.5173  0.5546
  563SOL    HW1 1688   0.778   2.467   2.581  1.9265  3.1790  0.7339
  563SOL    HW2 1689   0.711   2.600   2.662 -1.2535 -0.3919 -0.5985
  564SOL     OW 1690   2.762   1.309   2.953 -0.0907  0.0791 -0.0014
  564SOL    HW1 1691   2.719   1.342   3.042 -1.5749  3.1922  0.1350
  564SOL    HW2 1692   2.824   1.380   2.905 -0.1993 -0.7993  0.0780
  565SOL     OW 1693   2.579   1.931   2.604  0.0246  0.3555  0.0396
  565SOL    HW1 1694   2.557   1.992   2.525  0.9395  0.3914  0.1598
  565SOL    HW2 1695   2.638   1.978   2.677  3.1003 -0.4421 -1.7851
  566SOL     OW 1696   1.946   2.847   1.365  0.4220 -0.6625  0.4214
  566SOL    HW1 1697   1.915   2.750   1.343  0.3240  0.3717  1.6886
  566SOL    HW2 1698   1.958   2.895   1.277  0.8999 -0.9288 -0.8157
  567SOL     OW 1699   2.503   0.054   2.280  0.4004  0.7141  0.1223
  567SOL    HW1 1700   2.601   0.063   2.258 -1.6161  2.1948 -3.8958
  567SOL    HW2 1701   2.439   0.022   2.201 -3.5890  0.8722  3.9808
  568SOL     OW 1702   1.559   1.789   0.298 -0.0722  0.0258  0.4179
  568SOL    HW1 1703   1.477   1.848   0.265  1.2539  0.0444  0.3426
  568SOL    HW2 1704   1.626   1.770   0.223  1.4958  0.7844  1.8720
  569SOL     OW 1705   0.268   0.697   0.775  0.2967 -0.0361 -0.3911
  569SOL    HW1 1706   0.339   0.624   0.744 -0.8980  0.0002 -0.9824
  569SOL    HW2 1707   0.170   0.658   0.797 -0.6574 -0.9821 -0.3111
  570SOL     OW 1708   0.608   0.817   2.846  0.1639  0.6789  0.1333
  570SOL    HW1 1709   0.628   0.807   2.742 -4.6384 -1.7401 -0.0398
  570SOL    HW2 1710   0.667   0.884   2.900  0.9527  0.9252 -0.0962
  571SOL     OW 1711   0.797   0.007   1.034 -0.0147  0.7073 -0.4368
  571SOL    HW1 1712   0.877   0.014   0.969 -0.6388 -0.3577  1.4153
  571SOL    HW2 1713   0.723  -0.050   0.987 -1.0227 -0.7461 -1.1258
  572SOL     OW 1714   1.574   2.612   1.264  0.0541 -0.2406  0.3995
  572SOL    HW1 1715   1.482   2.571   1.244 -2.5568 -0.9277 -1.0373
  572SOL    HW2 1716   1.581   2.714   1.245 -0.3086  0.7909  1.9911
  573SOL     OW 1717   2.866   0.474   2.041  0.3289  0.1043  0.6056
  573SOL    HW1 1718   2.820   0.394   2.084 -1.6932 -0.9927 -0.4280
  573SOL    HW2 1719   2.798   0.551   2.016  0.0774  0.2277  1.4530
  574SOL     OW 1720   0.202   1.708   0.993  0.4568 -0.2878 -0.2170
  574SOL    HW1 1721   0.200   1.808   0.972 -0.3814 -1.4118  1.4121
  574SOL    HW2 1722   0.117   1.674   1.041  1.1731 -1.1867 -1.1821
  575SOL     OW 1723   0.934   2.160   0.979  0.2490 -0.0093  0.4727
  575SOL    HW1 1724   0.876   2.203   1.054 -0.9972 -0.2190  1.2730
  575SOL    HW2 1725   0.963   2.231   0.908 -1.2119  0.1330 -0.8265
  576SOL     OW 1726   2.907   3.004   1.680  0.4520  0.6318 -0.2976
  576SOL    HW1 1727   2.810   2.988   1.641 -0.8467  1.7897  1.4079
  576SOL    HW2 1728   2.948   3.099   1.651  0.7293  0.5419  1.9511
  577SOL     OW 1729   2.506   1.235   0.036 -0.4024  0.1527 -0.4345
  577SOL    HW1 1730   2.529   1.178  -0.045  2.0728 -0.7636  1.5397
  577SOL    HW2 1731   2.589   1.236   0.102  2.8448  0.3007 -0.9985
  578SOL     OW 1732   1.336   2.749   2.488  0.0576  0.1632 -0.3958
  578SOL    HW1 1733   1.235   2.762   2.499  0.1669  2.1384  0.9498
  578SOL    HW2 1734   1.393   2.834   2.501  0.2444  0.8130 -1.4042
  579SOL     OW 1735   0.081   2.507   0.131  0.1636  0.0427 -0.0019
  579SOL    HW1 1736   0.022   2.531   0.211  0.2485 -0.5850  0.0005
  579SOL    HW2 1737   0.169   2.468   0.156 -0.7169  0.1266 -2.5026
  580SOL     OW 1738   1.017   2.627   0.425  0.5296  0.4351  0.0398
  580SOL    HW1 1739   1.099   2.638   0.363 -2.3933 -0.3057  0.3009
  580SOL    HW2 1740   0.935   2.581   0.375 -2.9590 -4.6484  0.7105
  581SOL     OW 1741   1.282   2.565   1.516 -0.3320  0.2361 -0.1888
  581SOL    HW1 1742   1.329   2.476   1.528 -3.2995 -0.6566  2.0295
  581SOL    HW2 1743   1.317   2.616   1.435  0.2104 -0.8181  0.4847
  582SOL     OW 1744   1.497   0.081   1.866  0.2175  0.1246  0.2376
  582SOL    HW1 1745   1.538   0.154   1.928  0.8570  0.1599 -3.0218
  582SOL    HW2 1746   1.562   0.063   1.784 -0.0669  0.2405 -0.8511
  583SOL     OW 1747   2.505   3.057   0.500  0.2295  0.4743 -0.1362
  583SOL    HW1 1748   2.600   3.033   0.472 -2.9426 -0.5131  1.4713
  583SOL    HW2 1749   2.451   2.972   0.525  1.5311 -1.7289  1.6036
  584SOL     OW 1750   1.611   0.922   2.097 -0.6922 -0.3607  0.1005
  584SOL    HW1 1751   1.647   0.875   2.017 -1.7003 -0.4913  0.9031
  584SOL    HW2 1752   1.670   0.920   2.185  1.5368  0.5367 -1.0164
  585SOL     OW 1753   2.089   2.659   2.909 -0.1206  0.3819 -0.5774
  585SOL    HW1 1754   2.110   2.564   2.861  0.4355 -0.4128  0.4053
  585SOL    HW2 1755   1.992   2.688   2.910  0.0024 -2.1155  0.7567
  586SOL     OW 1756   2.808   0.335   1.540 -0.1239  1.0272 -0.1140
  586SOL    HW1 1757   2.814   0.421   1.590  0.3673 -0.1095 -0.8464
  586SOL    HW2 1758   2.723   0.281   1.562  1.6063 -0.7618 -0.6073
  587SOL     OW 1759   1.967   1.537   2.721  0.1625  0.3170 -0.5484
  587SOL    HW1 1760   2.036   1.488   2.661 -2.6321  1.3715  2.3527
  587SOL    HW2 1761   1.994   1.539   2.822  1.8746  0.3963 -1.1640
  588SOL     OW 1762   0.459   2.704   2.251 -0.1763 -0.8313  0.2801
  588SOL    HW1 1763   0.377   2.711   2.191  1.1497  0.3908  0.0649
  588SOL    HW2 1764   0.477   2.609   2.288 -0.4643 -2.0901  1.5922
  589SOL     OW 1765   2.127   1.413   2.529  0.3265  0.3092 -0.5876
  589SOL    HW1 1766   2.066   1.357   2.462  0.0332  0.0147 -0.2757
  589SOL    HW2 1767   2.223   1.377   2.539 -2.2879  0.9608 -1.5507
  590SOL     OW 1768   2.341   1.653   2.045  0.1391 -0.2551  0.3212
  590SOL    HW1 1769   2.418   1.587   2.017  1.2046  2.1788 -3.1262
  590SOL    HW2 1770   2.355   1.704   2.135 -1.3063  2.3734 -0.1230
  591SOL     OW 1771   1.329   2.396   0.257  0.2068 -0.7795  0.0275
  591SOL    HW1 1772   1.368   2.318   0.202 -1.3991 -1.0273  1.0887
  591SOL    HW2 1773   1.323   2.373   0.359  0.3232 -0.6600  0.0825
  592SOL     OW 1774   1.804   2.313   0.748 -0.0158 -0.1173 -0.2236
  592SOL    HW1 1775   1.789   2.380   0.671 -0.0632 -1.7996  0.0025
  592SOL    HW2 1776   1.905   2.307   0.774  1.5198 -0.6702 -1.2214
  593SOL     OW 1777   0.702   0.267   0.224  0.0590 -0.3253  0.5815
  593SOL    HW1 1778   0.760   0.221   0.154 -2.1574 -0.8148  0.1238
  593SOL    HW2 1779   0.703   0.372   0.214  1.8474  1.3581 -0.9443
  594SOL     OW 1780   0.943   1.875   2.702  0.2732  0.1237 -0.2679
  594SOL    HW1 1781   1.042   1.846   2.723  0.5861 -0.1721  0.3237
  594SOL    HW2 1782   0.921   1.971   2.729 -1.3738  1.0215  1.9468
  595SOL     OW 1783   1.580   0.055   1.089  0.6103 -0.1372 -0.1995
  595SOL    HW1 1784   1.649  -0.022   1.080  0.8440 -3.1452  2.4268
  595SOL    HW2 1785   1.491   0.041   1.037  0.6586 -0.9956  1.0297
  596SOL     OW 1786   0.009   1.420   2.230 -0.1175 -0.7477  0.4264
  596SOL    HW1 1787   0.017   1.326   2.268  0.4358 -0.6145  0.4524
  596SOL    HW2 1788   0.008   1.500   2.298 -1.2531  2.8861  1.7747
  597SOL     OW 1789   2.007   2.536   1.610 -0.2494 -0.1446 -0.0080
  597SOL    HW1 1790   2.041   2.470   1.531 -1.0274  1.0467 -1.2398
  597SOL    HW2 1791   2.081   2.554   1.684 -3.0216  0.8696  0.7868
  598SOL     OW 1792   2.509   2.975   1.294 -0.0440 -0.1763 -0.7218
  598SOL    HW1 1793   2.584   3.006   1.360 -0.4257  0.2401 -1.7034
  598SOL    HW2 1794   2.552   2.961   1.197 -0.5825 -0.3634 -2.0745
  599SOL     OW 1795   2.956   0.351   2.517  0.1894 -0.7349  0.0580
  599SOL    HW1 1796   3.050   0.383   2.482 -0.2259  0.1781 -2.9372
  599SOL    HW2 1797   2.878   0.409   2.482 -0.8995  2.6576  1.5243
  600SOL     OW 1798   2.779   1.119   2.732  0.5050  0.2692  0.7284
  600SOL    HW1 1799   2.733   1.025   2.724 -2.4760 -1.4046 -0.1141
  600SOL    HW2 1800   2.741   1.184   2.806  0.4941  2.4348  1.4910
  601SOL     OW 1801   2.982   1.267   1.958  0.2823 -0.3453  0.1305
  601SOL    HW1 1802   2.915   1.315   1.888 -2.9312 -0.4268  0.4271
  601SOL    HW2 1803   3.079   1.307   1.944 -1.1906 -0.8679 -0.0342
  602SOL     OW 1804   1.428   1.723   2.371 -0.1199  0.4851  0.2601
  602SOL    HW1 1805   1.361   1.649   2.352  2.7708  1.7242 -2.5999
  602SOL    HW2 1806   1.523   1.686   2.396 -1.2942 -0.1558  0.4258
  603SOL     OW 1807   0.585   1.201   2.747  0.0952 -0.5437 -0.6047
  603SOL    HW1 1808   0.504   1.160   2.692 -0.4146 -2.0578 -0.3741
  603SOL    HW2 1809   0.677   1.148   2.724  1.5217 -0.5224  0.1090
  604SOL     OW 1810   2.386   1.001   0.141 -0.1256  0.0336  0.2901
  604SOL    HW1 1811   2.444   1.080   0.096  1.0792 -0.4263 -1.7285
  604SOL    HW2 1812   2.377   0.923   0.076  2.0833 -2.8447 -0.4336
  605SOL     OW 1813   2.528   1.157   1.914 -0.4276 -0.5623  0.0010
  605SOL    HW1 1814   2.592   1.126   1.841 -1.4867  2.2228  3.7249
  605SOL    HW2 1815   2.571   1.174   2.004 -1.8878 -0.7044  0.0761
  606SOL     OW 1816   1.469   2.515   2.580  0.5818 -0.2387 -0.2806
  606SOL    HW1 1817   1.411   2.574   2.521 -1.2873 -2.9280 -0.7366
  606SOL    HW2 1818   1.431   2.417   2.589 -0.4822  0.0807 -0.4045
  607SOL     OW 1819   1.340   1.611   0.379 -0.2078 -0.2347 -0.4610
  607SOL    HW1 1820   1.256   1.670   0.408 -1.3665  1.3838 -0.0060
  607SOL    HW2 1821   1.425   1.671   0.379 -2.4885  0.9027 -0.1738
  608SOL     OW 1822   1.445   2.882   0.323 -0.1588  0.5539 -0.1635
  608SOL    HW1 1823   1.535   2.928   0.290  0.6607  1.1394 -1.3590
  608SOL    HW2 1824   1.387   2.937   0.391  0.7243 -0.2779  1.0880
  609SOL     OW 1825   1.321   1.388   0.204 -0.3797 -0.2139 -1.0070
  609SOL    HW1 1826   1.334   1.468   0.268 -0.8066  0.2674 -2.7883
  609SOL    HW2 1827   1.231   1.401   0.150  1.9581  2.3349  0.5931
  610SOL     OW 1828   3.020   1.129   2.199 -0.4664  0.1265  0.8000
  610SOL    HW1 1829   2.993   1.027   2.193 -2.8881  0.8617 -1.8921
  610SOL    HW2 1830   3.024   1.174   2.104  1.7515  0.1459  2.3447
  611SOL     OW 1831   2.555   0.290   1.111 -0.2923  0.4049 -0.0420
  611SOL    HW1 1832   2.499   0.226   1.170  0.1962 -0.6672  0.3392
  611SOL    HW2 1833   2.650   0.308   1.154  0.9237 -0.4303 -0.6935
  612SOL     OW 1834   0.756   2.259   1.146 -0.1038  0.8120 -0.6990
  612SOL    HW1 1835   0.685   2.198   1.193 -0.9740 -1.4226  0.0729
  612SOL    HW2 1836   0.727   2.358   1.141  0.6213  2.0960  1.1508
  613SOL     OW 1837   0.830   1.363   2.456  0.2986 -0.0842 -0.2738
  613SOL    HW1 1838   0.826   1.451   2.399  2.1742 -0.9689  0.4003
  613SOL    HW2 1839   0.810   1.279   2.398 -0.8102  1.3946  1.9625
  614SOL     OW 1840   1.589   1.645   1.976 -0.4200 -0.5257 -0.3800
  614SOL    HW1 1841   1.527   1.726   2.004 -0.4627  0.2395 -0.5041
  614SOL    HW2 1842   1.683   1.644   2.021 -0.4489  2.6822  0.6428
  615SOL     OW 1843   0.766   1.310   1.711  0.1166  0.4451  0.0546
  615SOL    HW1 1844   0.695   1.265   1.658  0.8980  0.2733 -0.6452
  615SOL    HW2 1845   0.817   1.385   1.662 -1.2731 -3.0412 -0.8211
  616SOL     OW 1846   1.048   1.664   2.218  0.1137 -0.3852 -0.6285
  616SOL    HW1 1847   0.955   1.631   2.186 -3.2015 -0.7963  0.9799
  616SOL    HW2 1848   1.049   1.765   2.248 -1.4613  1.1130  2.5521
  617SOL     OW 1849   2.952   1.581   1.618 -0.0922 -0.3326  0.4630
  617SOL    HW1 1850   2.877   1.518   1.654  0.3390  1.7957 -0.3664
  617SOL    HW2 1851   2.987   1.545   1.525 -0.4154 -0.2830 -3.1892
  618SOL     OW 1852   1.885   1.974   1.401  0.2759 -0.0929  0.7340
  618SOL    HW1 1853   1.929   2.003   1.313  0.5675  2.3270 -0.8085
  618SOL    HW2 1854   1.823   1.894   1.392 -1.0692  2.3497  1.0920
  619SOL     OW 1855   1.770   0.437   2.371 -0.1476  0.0758  0.4324
  619SOL    HW1 1856   1.691   0.494   2.332 -2.8222  0.6706 -1.0608
  619SOL    HW2 1857   1.737   0.338   2.375 -2.8093 -0.9530 -0.3489
  620SOL     OW 1858   2.285   2.935   0.628 -0.7342  0.9967 -0.2173
  620SOL    HW1 1859   2.211   2.991   0.663  1.3942 -2.2911 -1.3632
  620SOL    HW2 1860   2.311   2.859   0.694  0.0173 -2.8420 -0.3616
  621SOL     OW 1861   2.154   1.828   1.296  0.0336 -0.1343  0.6787
  621SOL    HW1 1862   2.157   1.858   1.393 -0.7521 -3.0366 -1.2378
  621SOL    HW2 1863   2.099   1.735   1.278 -2.8354  1.4053 -0.8791
  622SOL     OW 1864   2.274   0.926   1.781 -0.3466  0.4621  0.6760
  622SOL    HW1 1865   2.381   0.939   1.779 -0.3959 -1.5680  0.6050
  622SOL    HW2 1866   2.241   0.871   1.861  1.7486 -1.1687  0.3397
  623SOL     OW 1867   1.324   0.825   2.649 -0.2976 -0.0381  0.0987
  623SOL    HW1 1868   1.341   0.732   2.693 -1.2582  0.6925  0.7033
  623SOL    HW2 1869   1.262   0.826   2.563 -1.9500  1.1399  0.9044
  624SOL     OW 1870   0.570   0.676   3.089 -0.1129 -0.9142  0.4061
  624SOL    HW1 1871   0.584   0.697   2.988  0.2510  0.7181 -1.7437
  624SOL    HW2 1872   0.571   0.760   3.149 -0.9377 -2.2694 -0.5319
  625SOL     OW 1873   2.803   1.708   0.983  0.0786 -0.5518 -0.7661
  625SOL    HW1 1874   2.708   1.750   0.974 -0.7151 -1.3609  0.4318
  625SOL    HW2 1875   2.879   1.780   0.994 -1.2890  0.4295 -0.9221
  626SOL     OW 1876   0.597   2.741   1.731 -0.0564 -0.7009  0.7539
  626SOL    HW1 1877   0.624   2.830   1.773 -0.8766 -0.5954  0.6862
  626SOL    HW2 1878   0.495   2.728   1.739 -0.5571 -1.4430 -0.0518
  627SOL     OW 1879   0.785   0.959   1.497  0.4560  0.5868 -0.1641
  627SOL    HW1 1880   0.714   0.929   1.429 -2.2928  0.4634 -0.1421
  627SOL    HW2 1881   0.807   1.063   1.486  2.1984  1.4262 -0.1381
  628SOL     OW 1882   2.410   0.154   0.696 -0.4561  0.5096  0.5079
  628SOL    HW1 1883   2.448   0.107   0.611 -4.7961 -0.6686 -1.9524
  628SOL    HW2 1884   2.308   0.161   0.702  3.6299 -0.4554  0.1909
  629SOL     OW 1885   1.975   0.915   1.972 -0.6847 -0.4219  0.1912
  629SOL    HW1 1886   2.034   0.947   1.896  1.7603  1.8039  1.0548
  629SOL    HW2 1887   1.931   0.992   2.022  0.6915 -0.7759 -0.2671
  630SOL     OW 1888   2.895   2.209   0.837 -0.3890 -0.1576  0.2758
  630SOL    HW1 1889   2.837   2.292   0.858  2.2575  2.2774 -2.6136
  630SOL    HW2 1890   2.839   2.128   0.813  1.7237 -0.5449 -0.6408
  631SOL     OW 1891   2.991   0.170   2.127 -0.5506 -0.0429 -0.0796
  631SOL    HW1 1892   3.052   0.197   2.205  1.4042  1.6608 -0.5724
  631SOL    HW2 1893   3.043   0.143   2.039 -1.1603 -1.4729  1.9910
  632SOL     OW 1894   2.382   2.530   0.648 -0.1668 -0.3241  0.2965
  632SOL    HW1 1895   2.407   2.609   0.709  0.9662 -1.4924 -2.7180
  632SOL    HW2 1896   2.343   2.563   0.555  0.1621  1.0834  0.7853
  633SOL     OW 1897   1.413   1.217   2.601  0.5631 -0.1277 -0.3390
  633SOL    HW1 1898   1.421   1.304   2.656  0.1718 -0.3327 -1.9554
  633SOL    HW2 1899   1.344   1.232   2.526  0.2541  3.1108 -1.0747
  634SOL     OW 1900   0.717   2.031   0.875 -0.6514 -0.1713  0.1630
  634SOL    HW1 1901   0.639   2.043   0.941 -1.8157 -1.4375 -0.7989
  634SOL    HW2 1902   0.809   2.061   0.915  0.0198  0.4574  1.7018
  635SOL     OW 1903   2.996   2.352   3.097  0.2066 -0.4136 -0.2790
  635SOL    HW1 1904   2.914   2.408   3.068  2.4388  0.3256  1.4397
  635SOL    HW2 1905   3.056   2.406   3.160 -0.2067 -1.6883  1.2573
  636SOL     OW 1906   2.302   2.734   2.048  0.4257  0.2650 -0.0114
  636SOL    HW1 1907   2.318   2.833   2.066 -0.6389 -1.8716 -1.0639
  636SOL    HW2 1908   2.238   2.685   2.119  1.0315 -3.8165  1.8122
  637SOL     OW 1909   2.665   0.636   2.002 -0.5231  0.5277  0.2531
  637SOL    HW1 1910   2.616   0.619   1.917 -1.1502  0.3576  1.9030
  637SOL    HW2 1911   2.681   0.738   2.019 -0.4239  0.7553  1.4176
  638SOL     OW 1912   2.449   1.808   1.247 -0.1151 -0.6229 -0.0038
  638SOL    HW1 1913   2.356   1.765   1.249  0.8145  1.0478  1.3443
  638SOL    HW2 1914   2.508   1.779   1.328 -0.3529  1.0145 -0.7488
  639SOL     OW 1915   1.290   2.128   1.727 -0.2464  0.4916  0.1507
  639SOL    HW1 1916   1.266   2.100   1.631 -0.7646 -0.5155  2.2112
  639SOL    HW2 1917   1.207   2.117   1.791  0.0028  2.1695  1.6416
  640SOL     OW 1918   0.181   1.159   1.599  0.4790 -0.3497  0.1706
  640SOL    HW1 1919   0.162   1.175   1.701  1.0921  3.0802 -2.0529
  640SOL    HW2 1920   0.263   1.095   1.583 -1.7618 -0.0643 -2.4134
  641SOL     OW 1921   2.051   0.160   1.552  0.0775 -0.0816 -0.4150
  641SOL    HW1 1922   2.030   0.215   1.636  0.7039  0.9577  1.2923
  641SOL    HW2 1923   2.154   0.154   1.538 -0.6426 -1.0957 -0.1623
  642SOL     OW 1924   2.003   0.012   0.326 -0.1730  0.8214 -0.6108
  642SOL    HW1 1925   2.097   0.030   0.361  1.2230 -0.7122 -3.9752
  642SOL    HW2 1926   1.941  -0.022   0.400  0.2513  1.2370 -0.2735
  643SOL     OW 1927   2.953   1.850   2.056 -0.1199  0.3369 -0.2283
  643SOL    HW1 1928   2.882   1.782   2.025  0.0736  0.0263  0.8167
  643SOL    HW2 1929   2.957   1.941   1.998  0.0690  1.4159 -2.2508
  644SOL     OW 1930   2.219   2.361   1.183  0.3951 -0.3662  0.1396
  644SOL    HW1 1931   2.304   2.314   1.154 -0.5860  0.3157  0.4648
  644SOL    HW2 1932   2.183   2.323   1.268  0.2709 -2.0343 -0.8518
  645SOL     OW 1933   0.610   0.805   1.287  0.0279 -0.4829 -0.0260
  645SOL    HW1 1934   0.504   0.795   1.296 -2.0304 -1.0691 -2.9415
  645SOL    HW2 1935   0.643   0.841   1.194  0.6167  0.8810  2.4776
  646SOL     OW 1936   1.434   1.851   2.058 -0.1324  0.0518 -0.2742
  646SOL    HW1 1937   1.462   1.946   2.021  0.8321  0.0730 -0.7211
  646SOL    HW2 1938   1.434   1.848   2.162  0.2351  0.4311 -1.1001
  647SOL     OW 1939   0.789   1.086   0.694 -0.2548  0.0395  0.1986
  647SOL    HW1 1940   0.846   1.106   0.778 -2.0593 -0.7744 -1.7245
  647SOL    HW2 1941   0.730   1.008   0.712  4.0372  1.0426 -0.1984
  648SOL     OW 1942   0.085   0.236   0.234 -0.2139 -0.0763 -0.4443
  648SOL    HW1 1943   0.117   0.203   0.143 -1.1038  1.5101  1.9397
  648SOL    HW2 1944   0.109   0.334   0.241 -0.1907  0.3430 -1.5439
  649SOL     OW 1945   3.032   0.237   0.845  0.2953 -0.5514  0.7476
  649SOL    HW1 1946   3.121   0.178   0.849 -0.1576 -2.6045  1.2209
  649SOL    HW2 1947   3.054   0.334   0.880  3.3625 -0.0857  0.9618
  650SOL     OW 1948   2.791   0.738   1.491  0.2108 -0.3467 -0.4816
  650SOL    HW1 1949   2.686   0.736   1.500 -1.1872  0.2300  0.5752
  650SOL    HW2 1950   2.823   0.831   1.452 -1.3266  1.2684 -0.5050
  651SOL     OW 1951   0.908   1.517   1.583  0.4230  0.2329  0.4509
  651SOL    HW1 1952   0.989   1.562   1.621 -2.5255 -0.5600 -0.0162
  651SOL    HW2 1953   0.924   1.500   1.480  0.5502  0.1416  0.5652
  652SOL     OW 1954   2.329   2.425   2.485 -0.3694 -0.0547  0.3792
  652SOL    HW1 1955   2.230   2.440   2.505 -0.9382 -0.9596  1.0803
  652SOL    HW2 1956   2.374   2.519   2.469 -0.8238  1.3590 -3.8037
  653SOL     OW 1957   2.709   1.234   0.230  0.6839 -0.3363 -0.5319
  653SOL    HW1 1958   2.733   1.326   0.279 -0.9432 -1.7120  2.9240
  653SOL    HW2 1959   2.770   1.153   0.264  0.7800  0.6934 -3.0642
  654SOL     OW 1960   1.242   2.247   1.256 -0.0469  0.2034 -0.1268
  654SOL    HW1 1961   1.281   2.180   1.323  1.2299  2.7848  1.9480
  654SOL    HW2 1962   1.293   2.247   1.164  2.4171  0.2158  0.5156
  655SOL     OW 1963   0.176   0.956   1.968 -0.1623  0.6444  0.2057
  655SOL    HW1 1964   0.242   0.911   1.904 -1.2027 -0.9491  0.9697
  655SOL    HW2 1965   0.177   1.062   1.970  2.7461  1.0572  1.0263
  656SOL     OW 1966   2.571   2.427   2.635  0.1537 -0.2657  0.9210
  656SOL    HW1 1967   2.660   2.399   2.595 -1.3432 -0.4825 -1.6393
  656SOL    HW2 1968   2.482   2.390   2.586 -1.6966  1.2553 -2.2005
  657SOL     OW 1969   3.003   1.011   1.892 -0.0540  0.5259 -0.1046
  657SOL    HW1 1970   2.983   1.112   1.904 -1.0903  0.3394 -1.4174
  657SOL    HW2 1971   3.106   0.999   1.911 -1.3571  1.6489  1.4080
  658SOL     OW 1972   1.632   0.179   2.361  0.3956  0.2972 -0.3343
  658SOL    HW1 1973   1.669   0.132   2.443  1.0429  3.3233  1.7648
  658SOL    HW2 1974   1.685   0.165   2.274 -1.7995 -1.6180  0.7428
  659SOL     OW 1975   1.380   0.629   2.836 -0.0476 -0.2600  0.0186
  659SOL    HW1 1976   1.434   0.704   2.880  0.9695  0.9175  0.7628
  659SOL    HW2 1977   1.275   0.633   2.857 -0.7580 -0.3143 -2.1740
  660SOL     OW 1978   1.421   0.346   1.389 -0.2161  0.2841 -0.0627
  660SOL    HW1 1979   1.452   0.368   1.489 -0.1658  1.5100  1.4742
  660SOL    HW2 1980   1.485   0.273   1.350  2.7922  0.0975 -0.3763
  661SOL     OW 1981   2.429   1.178   0.665  0.8978 -0.0943  0.3190
  661SOL    HW1 1982   2.454   1.188   0.559 -0.8747 -0.4732 -0.0939
  661SOL    HW2 1983   2.392   1.262   0.708  2.1052 -0.5412  0.8833
  662SOL     OW 1984   1.410   0.385   1.738  0.1053  0.4748  0.3675
  662SOL    HW1 1985   1.340   0.313   1.761 -0.1471 -1.1310 -2.4465
  662SOL    HW2 1986   1.386   0.478   1.773 -0.4139  1.1949  0.1453
  663SOL     OW 1987   0.783   1.549   2.210 -0.6815 -0.1061  0.0960
  663SOL    HW1 1988   0.716   1.624   2.239  1.7125 -0.2120  3.3465
  663SOL    HW2 1989   0.757   1.473   2.153  3.2793  1.0871  3.2435
  664SOL     OW 1990   1.600   2.057   1.417 -0.3651  0.3685  1.0343
  664SOL    HW1 1991   1.551   1.996   1.481  1.7629  1.3713 -0.0024
  664SOL    HW2 1992   1.703   2.039   1.417  0.4638 -0.4081 -1.2906
  665SOL     OW 1993   2.246   0.694   1.934  0.2863 -0.3860 -0.0612
  665SOL    HW1 1994   2.198   0.604   1.925 -0.5049  1.3017 -0.4876
  665SOL    HW2 1995   2.286   0.704   2.029  1.7428 -0.1787  2.4488
  666SOL     OW 1996   0.444   2.294   0.345 -0.0234  0.0906  0.2542
  666SOL    HW1 1997   0.509   2.339   0.411  0.7924 -2.9142  0.3009
  666SOL    HW2 1998   0.356   2.265   0.392 -1.8175 -1.1191  1.4623
  667SOL     OW 1999   2.054   0.194   1.204 -0.6198  0.3336  0.2085
  667SOL    HW1 2000   2.066   0.296   1.191 -0.0100  0.1236 -2.4795
  667SOL    HW2 2001   1.982   0.172   1.274  1.3815 -1.5815  2.1113
  668SOL     OW 2002   2.057   0.477   1.122  0.0385 -0.2954  0.4933
  668SOL    HW1 2003   2.122   0.498   1.038  2.8601  1.8506 -1.9834
  668SOL    HW2 2004   2.096   0.515   1.213 -0.2935 -0.2721  0.6031
  669SOL     OW 2005   3.097   2.128   1.051  0.0822  1.0467  0.3356
  669SOL    HW1 2006   3.018   2.157   0.992  3.9363 -1.7177 -0.6509
  669SOL    HW2 2007   3.141   2.206   1.111  0.1126 -0.5843 -0.5323
  670SOL     OW 2008   2.866   2.352   1.994 -0.2281  0.2885 -0.1488
  670SOL    HW1 2009   2.782   2.317   2.052 -1.1703 -0.3204 -2.5339
  670SOL    HW2 2010   2.868   2.454   1.989  0.6508 -2.0872 -1.8660
  671SOL     OW 2011   1.706   1.748   1.495  0.3277 -1.0894 -0.2450
  671SOL    HW1 2012   1.728   1.719   1.398  0.6588 -1.2754  1.2383
  671SOL    HW2 2013   1.611   1.775   1.508  1.7633 -1.4234 -0.4547
  672SOL     OW 2014   0.417   0.631   2.391 -0.3406 -0.2160  0.3454
  672SOL    HW1 2015   0.452   0.651   2.295 -1.1176  2.2624 -1.1346
  672SOL    HW2 2016   0.325   0.675   2.407  1.7816  0.2713  1.0977
  673SOL     OW 2017   0.113   1.212   1.132  0.0218 -0.3747  0.5463
  673SOL    HW1 2018   0.137   1.250   1.226 -1.6519 -2.1515 -0.2246
  673SOL    HW2 2019   0.200   1.169   1.092  2.4416 -0.5612  1.4209
  674SOL     OW 2020   1.705   2.942   0.242 -0.3463 -0.7674 -0.1274
  674SOL    HW1 2021   1.740   3.039   0.253 -1.4334  1.9466 -0.9033
  674SOL    HW2 2022   1.770   2.865   0.213  0.3575 -0.9346 -0.1569
  675SOL     OW 2023   1.735   0.808   2.326 -0.1788  0.0031  0.0226
  675SOL    HW1 2024   1.837   0.791   2.309 -2.3197 -0.9829  0.8118
  675SOL    HW2 2025   1.668   0.745   2.279 -0.4730  0.1013 -2.4395
  676SOL     OW 2026   2.532   1.482   1.947 -0.5759 -0.2693  0.6040
  676SOL    HW1 2027   2.483   1.454   1.857  1.5949  1.4808 -2.3505
  676SOL    HW2 2028   2.557   1.398   2.000 -0.9726  2.9278 -2.1639
  677SOL     OW 2029   1.842   0.658   0.910 -0.6463  0.0970  0.0741
  677SOL    HW1 2030   1.764   0.679   0.978 -1.3024 -0.9441  0.4157
  677SOL    HW2 2031   1.882   0.558   0.921  2.9701 -1.0340  0.5770
  678SOL     OW 2032   0.035   0.744   1.659 -0.1142  0.1373  0.2262
  678SOL    HW1 2033   0.124   0.763   1.716  2.4928 -0.3563 -0.9091
  678SOL    HW2 2034  -0.053   0.755   1.711  1.8843 -0.3289  0.6302
  679SOL     OW 2035   2.536   1.200   1.113  0.1720 -0.5384 -0.6217
  679SOL    HW1 2036   2.442   1.237   1.120  3.4723 -0.0174 -0.8967
  679SOL    HW2 2037   2.533   1.101   1.096  1.4369 -0.0640 -0.4939
  680SOL     OW 2038   2.841   0.560   1.707  0.2524  0.3199 -0.0500
  680SOL    HW1 2039   2.822   0.619   1.625  0.0132  3.4133  0.8733
  680SOL    HW2 2040   2.881   0.618   1.786 -0.1353  1.5972 -1.7967
  681SOL     OW 2041   3.003   0.143   1.629  0.0492 -0.8973  0.6186
  681SOL    HW1 2042   3.077   0.130   1.558  0.8170  2.0515  0.1863
  681SOL    HW2 2043   2.937   0.219   1.598 -0.2391  5.8958 -2.3061
  682SOL     OW 2044   0.808   3.088   1.308  0.2241  0.0781  0.0931
  682SOL    HW1 2045   0.714   3.069   1.341 -0.7440  0.4534 -1.4795
  682SOL    HW2 2046   0.825   3.085   1.206 -0.2945  0.1071 -1.8118
  683SOL     OW 2047   1.353   0.231   2.165  0.5074  0.2273  0.7986
  683SOL    HW1 2048   1.360   0.263   2.263 -0.4471 -0.0202  2.3087
  683SOL    HW2 2049   1.436   0.254   2.111  0.3731 -2.2632 -1.9237
  684SOL     OW 2050   1.484   2.118   0.462 -0.1403  0.4327 -0.0399
  684SOL    HW1 2051   1.539   2.047   0.516  1.4080 -0.3781  0.7295
  684SOL    HW2 2052   1.387   2.089   0.437 -0.8724  0.4963  1.4641
  685SOL     OW 2053   2.158   2.045   1.944 -0.4992 -0.2777 -0.2015
  685SOL    HW1 2054   2.215   2.014   1.867 -3.1534  3.1017  2.0996
  685SOL    HW2 2055   2.204   2.042   2.038 -1.1728  0.2750  1.1822
  686SOL     OW 2056   1.536   1.804   2.719  0.5694 -0.1352  0.0068
  686SOL    HW1 2057   1.549   1.767   2.814 -1.9372  0.8426  0.6641
  686SOL    HW2 2058   1.546   1.735   2.645 -1.3799 -0.0936 -0.2862
  687SOL     OW 2059   1.297   2.479   1.987 -0.2825  0.0625 -0.0930
  687SOL    HW1 2060   1.313   2.386   1.940  0.3139 -1.3131  0.7234
  687SOL    HW2 2061   1.365   2.491   2.065  2.2136  0.6314  2.3334
  688SOL     OW 2062   2.062   1.501   1.782  0.6602 -0.2967  0.3371
  688SOL    HW1 2063   2.151   1.552   1.805  0.2633 -0.9203  1.1558
  688SOL    HW2 2064   2.041   1.491   1.677 -1.0762 -1.4425 -1.6121
  689SOL     OW 2065   2.376   1.085   2.754  0.4578  0.0091 -0.5640
  689SOL    HW1 2066   2.300   1.020   2.776  1.4576  0.9647 -1.1286
  689SOL    HW2 2067   2.436   1.093   2.837  0.7741 -1.4332 -0.5254
  690SOL     OW 2068   2.224   2.797   0.064 -0.1092  0.4439 -0.3339
  690SOL    HW1 2069   2.146   2.757   0.008  0.8406 -0.3644 -0.2648
  690SOL    HW2 2070   2.200   2.836   0.162 -3.4559  1.9508  0.0175
  691SOL     OW 2071   2.611   0.464   2.204  0.4475  0.2258  0.4997
  691SOL    HW1 2072   2.648   0.376   2.184  0.4034  1.1210  0.1915
  691SOL    HW2 2073   2.624   0.539   2.134 -2.2810 -1.3293  0.0842
  692SOL     OW 2074   2.725   1.243   0.741 -0.1844 -0.2133  0.1890
  692SOL    HW1 2075   2.630   1.264   0.721  1.8174 -1.0125  1.6269
  692SOL    HW2 2076   2.757   1.285   0.831 -0.0880 -1.7386  2.2271
  693SOL     OW 2077   2.878   2.937   0.619  0.1446  0.1869  0.0298
  693SOL    HW1 2078   2.846   3.006   0.690  0.1433 -0.2621 -1.5324
  693SOL    HW2 2079   2.860   2.956   0.518 -2.6965  2.6296  0.5279
  694SOL     OW 2080   2.363   2.157   0.082 -0.1664 -0.1663 -0.0437
  694SOL    HW1 2081   2.365   2.237   0.146  0.8369  0.3787 -0.2812
  694SOL    HW2 2082   2.271   2.117   0.063  0.7269 -0.5085  1.3941
  695SOL     OW 2083   0.586   3.003   1.429  0.7955 -0.3393 -0.2341
  695SOL    HW1 2084   0.539   2.927   1.380 -1.2791  1.0603 -3.2633
  695SOL    HW2 2085   0.529   3.032   1.507 -0.3601 -0.1809 -2.7372
  696SOL     OW 2086   2.784   1.967   0.707 -0.6430 -0.5476  0.0356
  696SOL    HW1 2087   2.867   1.905   0.719 -0.5489 -1.0845 -0.8809
  696SOL    HW2 2088   2.783   2.012   0.612 -0.2410 -0.8505  0.2013
  697SOL     OW 2089   1.601   2.023   1.839 -0.4593  0.0093 -0.1834
  697SOL    HW1 2090   1.687   1.974   1.872  0.1490  2.5407 -1.3473
  697SOL    HW2 2091   1.629   2.120   1.804 -0.2898  3.3089 -0.6669
  698SOL     OW 2092   2.940   0.425   2.770  0.2862 -0.5763 -0.0079
  698SOL    HW1 2093   2.949   0.402   2.670 -0.7780  4.1495  3.2686
  698SOL    HW2 2094   3.005   0.368   2.825  0.4228  1.8810 -0.9245
  699SOL     OW 2095   1.553   0.075   2.908  0.3081  0.0547  0.4410
  699SOL    HW1 2096   1.547  -0.022   2.863  1.4738  0.3449 -1.1776
  699SOL    HW2 2097   1.615   0.139   2.862  0.0419  0.0519  1.5183
  700SOL     OW 2098   0.954   2.329   1.345 -0.1639  0.1894  0.2074
  700SOL    HW1 2099   1.056   2.310   1.323  0.7800 -1.7473 -1.6238
  700SOL    HW2 2100   0.895   2.307   1.263  0.3582  1.5726  0.6295
  701SOL     OW 2101   1.885   2.917   3.048  0.2432 -0.3148  0.0125
  701SOL    HW1 2102   1.894   2.842   3.119 -1.2807  0.6626  0.6786
  701SOL    HW2 2103   1.922   3.008   3.088  5.1496 -1.1773  1.5562
  702SOL     OW 2104   2.069   1.337   1.995  0.3888  0.0569 -0.2697
  702SOL    HW1 2105   2.150   1.272   1.976 -1.5733 -0.7992  0.3753
  702SOL    HW2 2106   2.061   1.402   1.917 -0.0407  0.2340  0.2174
  703SOL     OW 2107   1.938   0.900   1.457  0.4348 -0.2972  0.0919
  703SOL    HW1 2108   1.924   0.812   1.508  0.9437 -0.5726 -1.6469
  703SOL    HW2 2109   2.023   0.957   1.486 -2.7008  1.5872 -0.6863
  704SOL     OW 2110   0.319   2.042   1.741 -0.0367  0.1035  0.0084
  704SOL    HW1 2111   0.340   1.978   1.820 -1.1606  2.2203 -2.6888
  704SOL    HW2 2112   0.398   2.110   1.727 -0.0832  1.4399 -0.4834
  705SOL     OW 2113   2.529   1.513   0.924 -0.0719 -0.1399  0.8084
  705SOL    HW1 2114   2.458   1.462   0.864 -0.2133 -0.4255 -0.6736
  705SOL    HW2 2115   2.607   1.457   0.958  0.0157  1.0793  0.3528
  706SOL     OW 2116   0.645   1.638   1.872  0.0680 -0.4083 -0.2137
  706SOL    HW1 2117   0.668   1.546   1.912  0.4413 -1.2344 -1.1943
  706SOL    HW2 2118   0.680   1.717   1.924  1.2302 -1.3827  0.0714
  707SOL     OW 2119   2.267   1.202   1.859 -0.0009  0.5636  0.5067
  707SOL    HW1 2120   2.367   1.204   1.886 -0.9545  1.9551 -2.6791
  707SOL    HW2 2121   2.247   1.109   1.814 -0.8681 -2.2441  2.3724
  708SOL     OW 2122   3.083   0.507   3.082  0.0679 -0.8884 -0.1167
  708SOL    HW1 2123   3.082   0.550   2.987  1.5286 -0.3823 -0.9841
  708SOL    HW2 2124   3.112   0.410   3.068  4.7343 -2.7125  0.7929
  709SOL     OW 2125   1.848   1.855   0.230 -0.2625  0.1865 -0.1440
  709SOL    HW1 2126   1.844   1.956   0.262 -0.0781 -1.9016  0.7313
  709SOL    HW2 2127   1.858   1.843   0.127 -2.8531 -1.6031  0.6128
  710SOL     OW 2128   1.725   1.649   2.427  0.7535 -0.0836  0.2731
  710SOL    HW1 2129   1.764   1.600   2.342  1.5657  2.3495  1.1632
  710SOL    HW2 2130   1.720   1.579   2.506  1.3429 -1.6539  0.2579
  711SOL     OW 2131   2.625   2.946   1.041 -0.2849  0.7362 -0.0703
  711SOL    HW1 2132   2.594   3.018   0.976 -1.6387 -0.1777 -1.1388
  711SOL    HW2 2133   2.721   2.960   1.073  0.2574  1.5014 -1.4924
  712SOL     OW 2134   1.391   2.205   1.971 -0.0658  0.0793  0.5437
  712SOL    HW1 2135   1.490   2.240   1.990  0.8676 -0.3738 -2.0360
  712SOL    HW2 2136   1.373   2.175   1.870 -1.8491  2.4251  0.7203
  713SOL     OW 2137   2.875   1.481   2.539  0.7056  0.2912 -0.0789
  713SOL    HW1 2138   2.869   1.387   2.491  0.1360  0.0694 -1.7445
  713SOL    HW2 2139   2.862   1.471   2.644  0.4994  0.3521  1.0334
  714SOL     OW 2140   2.721   0.524   2.457 -0.1367 -0.3599 -0.4802
  714SOL    HW1 2141   2.673   0.471   2.534  0.7939  0.1687  0.3792
  714SOL    HW2 2142   2.674   0.510   2.363 -2.2296  0.4132 -0.7943
  715SOL     OW 2143   1.581   2.030   1.122 -0.1649 -0.3923 -0.5926
  715SOL    HW1 2144   1.487   2.045   1.085 -0.3127  0.7638  0.3090
  715SOL    HW2 2145   1.588   2.049   1.228 -0.6288  1.2555 -0.7459
  716SOL     OW 2146   1.166   0.171   1.480  0.4717  0.1406 -0.3571
  716SOL    HW1 2147   1.064   0.180   1.443 -3.7987 -2.5593 -0.4397
  716SOL    HW2 2148   1.234   0.248   1.457  0.3933  0.2909 -0.7792
  717SOL     OW 2149   1.167   0.521   1.555 -0.0348 -0.4994 -0.0604
  717SOL    HW1 2150   1.235   0.595   1.581 -0.7275 -0.1620  2.3232
  717SOL    HW2 2151   1.167   0.484   1.460 -0.0486 -3.0344  3.6568
  718SOL     OW 2152   0.681   0.907   1.009  0.3017  0.4692 -0.2008
  718SOL    HW1 2153   0.654   0.887   0.909  0.3190  2.4615 -0.6159
  718SOL    HW2 2154   0.682   1.010   1.028 -0.4150  2.2534 -2.1923
  719SOL     OW 2155   0.592   1.782   2.285  0.5985  0.1282 -0.1732
  719SOL    HW1 2156   0.676   1.811   2.342  1.1076  1.4882  0.4189
  719SOL    HW2 2157   0.527   1.716   2.325 -3.2306  0.7319 -1.0794
  720SOL     OW 2158   2.185   1.156   0.325  0.4038  0.4710  0.4847
  720SOL    HW1 2159   2.210   1.079   0.255  1.5181 -1.2150  0.2350
  720SOL    HW2 2160   2.163   1.114   0.424 -0.4529  0.2752  0.8366
  721SOL     OW 2161   2.271   3.013   2.117 -0.2989 -0.0381  0.0196
  721SOL    HW1 2162   2.259   3.081   2.042  1.9630  0.9148  1.9771
  721SOL    HW2 2163   2.184   3.005   2.168 -1.5102 -0.7224 -0.4433
  722SOL     OW 2164   2.357   1.593   0.514  0.5192 -0.6052 -0.1855
  722SOL    HW1 2165   2.407   1.599   0.423  1.0021  1.9029  0.2964
  722SOL    HW2 2166   2.280   1.663   0.532 -3.6761 -2.1977 -2.8546
  723SOL     OW 2167   2.569   2.740   1.926 -0.6428 -0.4541 -0.0637
  723SOL    HW1 2168   2.615   2.813   1.980 -0.9890 -2.4613  0.1241
  723SOL    HW2 2169   2.470   2.725   1.961 -2.1791  0.5378  0.5587
  724SOL     OW 2170   0.515   2.478   2.412 -0.0037  0.3899  0.3263
  724SOL    HW1 2171   0.417   2.492   2.438  1.1041  0.4702 -2.0627
  724SOL    HW2 2172   0.586   2.503   2.485 -1.3468  3.3579 -0.8354
  725SOL     OW 2173   2.468   2.830   1.524  0.1808  0.2788 -0.2282
  725SOL    HW1 2174   2.490   2.853   1.425 -1.4124  0.8687 -1.8669
  725SOL    HW2 2175   2.489   2.728   1.543  2.4614 -1.5940  1.5416
  726SOL     OW 2176   2.517   2.318   0.721 -0.5429  0.0854 -0.2997
  726SOL    HW1 2177   2.459   2.402   0.697  1.5307 -1.4091  0.1756
  726SOL    HW2 2178   2.513   2.244   0.644 -0.1054 -4.8605 -2.2333
  727SOL     OW 2179   0.131   3.102   0.059  0.4024  0.1113 -0.6726
  727SOL    HW1 2180   0.189   3.017   0.057  2.4261  0.5836  2.5017
  727SOL    HW2 2181   0.047   3.092  -0.004  0.6983  0.1943  2.2838
  728SOL     OW 2182   2.898   0.645   0.958  0.4570  0.3743 -0.0565
  728SOL    HW1 2183   2.820   0.647   0.896  0.1072 -0.3870  1.4509
  728SOL    HW2 2184   2.862   0.636   1.055  0.5565  0.3437 -0.3054
  729SOL     OW 2185   3.051   2.514   0.780  0.0634 -0.0609  0.2121
  729SOL    HW1 2186   3.014   2.421   0.772  1.9022 -4.4264  0.1870
  729SOL    HW2 2187   3.136   2.517   0.718  0.2912 -1.4686 -0.3584
  730SOL     OW 2188   2.637   0.730   0.869 -0.2652 -0.2787 -0.4917
  730SOL    HW1 2189   2.593   0.827   0.859  0.2644  0.9809 -1.1686
  730SOL    HW2 2190   2.675   0.707   0.776 -0.7283  2.3290  2.0667
  731SOL     OW 2191   0.076   2.088   2.512  0.8322 -0.8941 -0.2443
  731SOL    HW1 2192   0.101   2.120   2.607 -3.1083 -0.5221  1.6162
  731SOL    HW2 2193  -0.000   2.152   2.477 -1.4481 -0.7749 -0.0064
  732SOL     OW 2194   1.187   2.837   1.943  0.1535 -0.2845 -0.1057
  732SOL    HW1 2195   1.191   2.785   2.031  1.0300 -0.3921  0.7620
  732SOL    HW2 2196   1.174   2.773   1.863 -0.1996 -1.8843 -1.2105
  733SOL     OW 2197   3.043   0.590   2.214 -0.1099  0.1293  0.1428
  733SOL    HW1 2198   3.105   0.651   2.164 -1.4387 -3.5713  0.9679
  733SOL    HW2 2199   2.982   0.533   2.150  0.8622 -3.5940 -2.5834
  734SOL     OW 2200   1.435   0.387   2.686 -0.1635 -0.1899  0.3308
  734SOL    HW1 2201   1.432   0.472   2.745 -1.9232  0.6591 -0.6230
  734SOL    HW2 2202   1.379   0.312   2.731 -0.7052  1.5881 -0.1130
  735SOL     OW 2203   2.886   2.671   2.278  0.2883  0.0209 -0.2059
  735SOL    HW1 2204   2.853   2.608   2.207 -1.8514  0.7177 -0.4619
  735SOL    HW2 2205   2.973   2.720   2.257 -1.4975 -1.5798 -0.6885
  736SOL     OW 2206   0.829   0.310   2.568 -0.4899 -0.2577  0.7119
  736SOL    HW1 2207   0.733   0.329   2.610 -1.8318  1.7866 -0.1012
  736SOL    HW2 2208   0.821   0.272   2.467  1.7305  2.0643 -4.7968
  737SOL     OW 2209   2.653   0.470   2.835  0.4844  0.3263  0.2075
  737SOL    HW1 2210   2.626   0.430   2.929  2.5572  0.3587  0.6232
  737SOL    HW2 2211   2.755   0.478   2.821 -0.4516  1.6546  0.0836
  738SOL     OW 2212   1.639   1.258   2.890 -0.2616  0.4459  0.4049
  738SOL    HW1 2213   1.744   1.252   2.864  3.1322 -1.1665  0.0473
  738SOL    HW2 2214   1.587   1.172   2.861 -1.2925  0.2652 -0.4277
  739SOL     OW 2215   1.728   0.671   0.670  0.8627 -0.6247 -0.3948
  739SOL    HW1 2216   1.773   0.670   0.764  0.6200 -0.4001 -1.1686
  739SOL    HW2 2217   1.756   0.589   0.619 -0.1401 -0.3520  0.8664
  740SOL     OW 2218   1.993   1.907   2.321 -0.3020 -0.5906 -0.9116
  740SOL    HW1 2219   2.037   1.821   2.354  0.2493 -1.0548  2.1593
  740SOL    HW2 2220   1.909   1.881   2.260 -0.2824  0.2293 -0.9638
  741SOL     OW 2221   2.556   0.070   2.533 -0.1449 -0.6988 -0.2464
  741SOL    HW1 2222   2.660   0.089   2.528  0.3415 -0.6641  2.5333
  741SOL    HW2 2223   2.510   0.074   2.442  0.2133 -3.8955  0.3207
  742SOL     OW 2224   2.214   1.406   0.190  0.0407  0.4937  0.3613
  742SOL    HW1 2225   2.159   1.483   0.233  2.2426 -1.0062  2.2962
  742SOL    HW2 2226   2.211   1.314   0.241 -0.5407  3.6552 -1.6167
  743SOL     OW 2227   1.835   0.672   2.641 -0.0564  0.4676  0.0093
  743SOL    HW1 2228   1.806   0.600   2.569  2.3757  3.4632 -0.5153
  743SOL    HW2 2229   1.755   0.732   2.667  0.0089  1.9231  3.5399
  744SOL     OW 2230   2.620   2.114   0.177 -0.1935  0.5224 -0.2884
  744SOL    HW1 2231   2.534   2.141   0.136  1.3983  1.3528  0.6262
  744SOL    HW2 2232   2.638   2.010   0.186  3.2340  0.3687  4.4973
  745SOL     OW 2233   2.143   2.641   2.268 -0.2069 -0.6216  0.8680
  745SOL    HW1 2234   2.041   2.630   2.268  0.2046  0.5291  1.8902
  745SOL    HW2 2235   2.182   2.607   2.359  2.2522  2.1805  0.0700
  746SOL     OW 2236   3.062   2.614   1.748  0.3720  0.2551  0.3279
  746SOL    HW1 2237   3.139   2.632   1.677  0.7559 -3.5973 -1.8837
  746SOL    HW2 2238   3.026   2.700   1.798 -1.1246 -0.0637  0.3150
  747SOL     OW 2239   0.044   1.747   1.706 -0.0630  0.0170 -0.6076
  747SOL    HW1 2240  -0.017   1.662   1.673 -0.7346 -0.4840 -2.3642
  747SOL    HW2 2241   0.117   1.778   1.637  3.8126  1.3220 -1.0209
  748SOL     OW 2242   1.827   2.731   2.873  0.2878 -0.0425 -0.3613
  748SOL    HW1 2243   1.819   2.812   2.933 -1.8624 -3.1464 -1.6636
  748SOL    HW2 2244   1.734   2.705   2.835  0.0427  3.4272  0.2325
  749SOL     OW 2245   1.353   3.027   0.904 -1.0248  0.6502  1.0987
  749SOL    HW1 2246   1.269   2.959   0.916  1.6078 -0.2966  0.2972
  749SOL    HW2 2247   1.422   2.995   0.835 -1.0343 -0.1385  0.4732
  750SOL     OW 2248   2.273   0.181   1.878 -0.0803 -0.1026  0.5778
  750SOL    HW1 2249   2.275   0.243   1.795 -0.7241 -0.2787  0.4375
  750SOL    HW2 2250   2.303   0.229   1.962 -2.3558 -1.6801  1.7724
  751SOL     OW 2251   0.872   2.122   2.811  0.1067  0.8624 -0.2577
  751SOL    HW1 2252   0.927   2.105   2.899  1.1740  1.7960 -0.8658
  751SOL    HW2 2253   0.772   2.105   2.824  0.1853  0.6697 -0.6103
  752SOL     OW 2254   1.317   0.862   1.285  0.0631 -0.0581  0.7392
  752SOL    HW1 2255   1.396   0.925   1.264  2.2634 -1.2041  2.4494
  752SOL    HW2 2256   1.360   0.770   1.309  0.9290 -2.4634 -0.4638
  753SOL     OW 2257   0.918   2.608   1.653  0.0343  0.0311 -0.1294
  753SOL    HW1 2258   1.023   2.605   1.668  2.9278 -0.8663 -2.6861
  753SOL    HW2 2259   0.886   2.702   1.616 -0.4208  0.0736  1.0575
  754SOL     OW 2260   1.103   1.237   3.000  0.1315  0.1556 -0.5237
  754SOL    HW1 2261   1.171   1.195   2.935 -2.0689 -0.4797  1.7053
  754SOL    HW2 2262   1.126   1.331   3.040 -2.4451 -1.1611  2.3765
  755SOL     OW 2263   2.003   0.466   2.225  0.2715 -0.2518  0.5597
  755SOL    HW1 2264   2.066   0.402   2.277 -0.1019 -1.1272 -1.4895
  755SOL    HW2 2265   1.910   0.488   2.269  0.5689 -0.7807 -0.9382
  756SOL     OW 2266   2.559   1.022   2.967  0.2373  0.6948  0.3235
  756SOL    HW1 2267   2.661   1.033   2.985 -0.3367  0.3921 -0.5549
  756SOL    HW2 2268   2.513   0.927   2.988 -0.8622 -2.7067 -0.7817
  757SOL     OW 2269   0.057   0.536   1.921 -0.5888 -0.3068 -0.5117
  757SOL    HW1 2270   0.048   0.487   1.827  1.0203  1.5138 -1.6852
  757SOL    HW2 2271   0.027   0.480   2.001  1.2170  1.9081 -1.6233
  758SOL     OW 2272   2.314   0.106   1.507  0.3616 -0.9673 -0.7753
  758SOL    HW1 2273   2.267   0.016   1.529  3.7394  0.6757 -0.7193
  758SOL    HW2 2274   2.332   0.124   1.404  1.5316 -0.8917  0.5342
  759SOL     OW 2275   1.708   0.124   0.039 -0.0377  0.2111  0.1268
  759SOL    HW1 2276   1.655   0.083  -0.040 -1.3810 -2.1806  3.5980
  759SOL    HW2 2277   1.813   0.102   0.032  1.4122 -1.3885  1.0556
  760SOL     OW 2278   2.695   2.070   2.827 -0.3549  0.0716  0.0425
  760SOL    HW1 2279   2.721   1.995   2.895  1.5599  0.4975  1.8057
  760SOL    HW2 2280   2.666   2.158   2.871 -0.0030 -1.3856 -1.3104
  761SOL     OW 2281   1.896   1.709   1.706  0.0571  0.6484 -0.0689
  761SOL    HW1 2282   1.929   1.615   1.711 -0.5449  0.9360  1.1243
  761SOL    HW2 2283   1.835   1.720   1.626  1.2252  0.5850  0.2868
  762SOL     OW 2284   0.516   2.352   0.963 -0.2863  0.1008 -0.0880
  762SOL    HW1 2285   0.574   2.330   0.882  0.8708 -3.6754 -1.9856
  762SOL    HW2 2286   0.556   2.433   1.017 -0.4152 -0.3379  0.1690
  763SOL     OW 2287   2.098   1.579   2.977  0.3870 -0.4469 -0.3572
  763SOL    HW1 2288   2.186   1.534   2.956  0.6290 -2.4758 -0.6151
  763SOL    HW2 2289   2.038   1.528   3.047  1.7846 -1.2303  3.7728
  764SOL     OW 2290   0.670   0.625   0.823 -0.2445 -0.4842  0.1257
  764SOL    HW1 2291   0.604   0.549   0.799 -1.8516  3.4336 -2.6153
  764SOL    HW2 2292   0.762   0.597   0.854 -0.3811 -0.6324 -1.2482
  765SOL     OW 2293   0.712   0.226   0.760 -0.4067 -0.3046 -0.6305
  765SOL    HW1 2294   0.790   0.291   0.722 -1.3965  0.2220 -3.2382
  765SOL    HW2 2295   0.680   0.265   0.851  0.2858  5.6681  0.6936
  766SOL     OW 2296   2.849   2.109   0.007 -0.3727  0.5330  0.7119
  766SOL    HW1 2297   2.756   2.129   0.040  1.8863  1.2347 -1.1114
  766SOL    HW2 2298   2.896   2.200  -0.010 -1.1003  1.6692 -0.2943
  767SOL     OW 2299   2.770   1.607   0.612  0.4246 -0.1637  0.8484
  767SOL    HW1 2300   2.693   1.650   0.665  0.2740 -1.3907  2.8660
  767SOL    HW2 2301   2.854   1.671   0.623  0.2056 -1.1753 -5.2208
  768SOL     OW 2302   1.039   0.057   0.271 -0.5475  0.0387  0.2148
  768SOL    HW1 2303   0.986   0.064   0.358  0.8600 -0.0529 -2.4857
  768SOL    HW2 2304   1.144   0.076   0.288  2.5865 -5.5711 -1.4121
  769SOL     OW 2305   1.052   1.944   2.272 -0.1348 -0.2007 -0.5894
  769SOL    HW1 2306   0.949   1.965   2.283 -0.7845 -2.5655  0.1065
  769SOL    HW2 2307   1.087   1.910   2.361 -0.0816  0.1623 -3.1269
  770SOL     OW 2308   0.179   1.138   2.298  0.2766 -0.7468  0.0578
  770SOL    HW1 2309   0.173   1.214   2.369  1.3563 -0.2779  3.4193
  770SOL    HW2 2310   0.085   1.113   2.261  0.5982  0.0513  1.8031
  771SOL     OW 2311   2.964   2.834   1.882  0.0508 -0.2416  0.0413
  771SOL    HW1 2312   2.931   2.900   1.808  1.8324  0.1336 -2.6025
  771SOL    HW2 2313   2.962   2.869   1.982  1.3489  0.8396  0.0522
  772SOL     OW 2314   2.190   0.216   2.920  0.1811  0.2638 -0.7730
  772SOL    HW1 2315   2.246   0.129   2.918 -4.1478  0.1678 -0.3949
  772SOL    HW2 2316   2.174   0.265   3.015 -1.0049  3.1664 -1.9635
  773SOL     OW 2317   0.720   2.141   2.427  0.0001  0.0746  0.2036
  773SOL    HW1 2318   0.678   2.191   2.343  0.1178 -0.7817  0.0442
  773SOL    HW2 2319   0.659   2.160   2.508  2.7963 -0.1202 -1.9283
  774SOL     OW 2320   2.047   3.097   2.611  0.1581  0.3292  0.7215
  774SOL    HW1 2321   2.043   3.196   2.638 -1.3168 -1.5637  0.7879
  774SOL    HW2 2322   2.102   3.034   2.683  1.9029 -1.7439  0.4977
  775SOL     OW 2323   2.523   2.873   2.374 -0.0015 -0.3335  0.1359
  775SOL    HW1 2324   2.492   2.972   2.379  0.9792 -2.7616 -2.5064
  775SOL    HW2 2325   2.578   2.839   2.454 -2.0381 -2.0332 -1.1224
  776SOL     OW 2326   3.105   1.251   0.193 -0.5118  0.5975  0.1018
  776SOL    HW1 2327   3.072   1.194   0.111  0.6544 -2.5802  0.0956
  776SOL    HW2 2328   3.054   1.238   0.282  2.9042  1.6680 -0.8437
  777SOL     OW 2329   0.360   2.852   0.409  0.1153  0.0733  0.0770
  777SOL    HW1 2330   0.271   2.909   0.422 -2.1208  3.0704  3.1216
  777SOL    HW2 2331   0.443   2.908   0.393  0.6535  1.6432  1.3304
  778SOL     OW 2332   1.357   1.937   0.182 -0.4966  0.3890  0.1233
  778SOL    HW1 2333   1.286   1.967   0.249 -0.7816 -0.1855 -2.3662
  778SOL    HW2 2334   1.410   2.016   0.132  1.2298 -1.6155  0.0097
  779SOL     OW 2335   0.173   0.840   0.486 -0.2980 -0.3551  0.0350
  779SOL    HW1 2336   0.103   0.772   0.452  1.2231 -0.2757  1.0110
  779SOL    HW2 2337   0.128   0.921   0.533 -0.5764  1.7428 -0.6805
  780SOL     OW 2338   0.099   0.208   2.300  0.6967 -0.0051 -0.3185
  780SOL    HW1 2339   0.153   0.296   2.296  0.4159  0.1898 -2.0574
  780SOL    HW2 2340   0.155   0.133   2.264 -0.8599  0.8677 -2.2453
  781SOL     OW 2341   0.654   1.702   1.520 -0.0170  0.5410  0.2050
  781SOL    HW1 2342   0.732   1.667   1.581  0.6834  0.8296  0.9801
  781SOL    HW2 2343   0.567   1.658   1.556  1.4844 -0.5345 -1.3370
  782SOL     OW 2344   2.588   0.089   0.907 -0.1288  0.6417 -0.5896
  782SOL    HW1 2345   2.519   0.089   0.835  0.1914 -2.3829  0.0423
  782SOL    HW2 2346   2.557   0.156   0.982 -0.0550 -0.8542  0.1556
  783SOL     OW 2347   2.860   0.747   2.549 -0.0684  0.3791  0.7305
  783SOL    HW1 2348   2.814   0.788   2.631 -1.6742 -1.8574 -2.6100
  783SOL    HW2 2349   2.812   0.659   2.515  3.5230  1.1651 -0.1008
  784SOL     OW 2350   1.464   2.205   0.085  0.2832 -0.4573 -0.1103
  784SOL    HW1 2351   1.543   2.265   0.118  0.2681 -1.8732  2.8729
  784SOL    HW2 2352   1.431   2.234  -0.014 -0.5777  4.5469 -1.5931
  785SOL     OW 2353   2.133   0.319   0.066  0.1913  0.3012  0.0911
  785SOL    HW1 2354   2.061   0.336   0.136  0.2228  1.0865  2.3546
  785SOL    HW2 2355   2.147   0.404   0.010 -3.0178 -0.7574  1.5107
  786SOL     OW 2356   2.005   2.173   2.220 -0.1349  0.0302 -0.5865
  786SOL    HW1 2357   2.006   2.083   2.283  1.0074  1.0547 -1.3568
  786SOL    HW2 2358   2.085   2.175   2.153 -0.7678 -1.3652 -2.0767
  787SOL     OW 2359   1.393   0.559   1.019  0.7938  0.7680 -0.4529
  787SOL    HW1 2360   1.320   0.636   1.039 -0.1804  1.5418  0.1225
  787SOL    HW2 2361   1.433   0.557   0.922  0.8319  0.5916  0.6386
  788SOL     OW 2362   1.263   0.395   0.062 -0.4386  0.5293 -0.3930
  788SOL    HW1 2363   1.184   0.410   0.002  1.2163 -1.0071  1.2075
  788SOL    HW2 2364   1.250   0.455   0.143  0.2941 -1.2897 -1.8181
  789SOL     OW 2365   2.566   0.101   1.855 -0.0926 -0.2891 -0.8858
  789SOL    HW1 2366   2.463   0.115   1.879 -2.7338 -0.2588 -0.4683
  789SOL    HW2 2367   2.590   0.008   1.812 -1.3133  1.8184  3.0108
  790SOL     OW 2368   2.676   2.779   0.790 -0.3607 -0.4126 -0.3821
  790SOL    HW1 2369   2.728   2.825   0.717 -0.3022  1.9394  3.2476
  790SOL    HW2 2370   2.664   2.836   0.879  0.3645  1.9554  0.8803
  791SOL     OW 2371   1.924   1.193   0.209 -0.5481  0.1199 -0.0060
  791SOL    HW1 2372   1.838   1.157   0.250 -2.4807 -0.5926 -0.6523
  791SOL    HW2 2373   2.016   1.168   0.253 -0.5398  1.6849  1.4259
  792SOL     OW 2374   0.435   1.971   2.168  0.0134  0.9671 -0.3224
  792SOL    HW1 2375   0.491   1.907   2.225  1.0934  1.5941  0.4501
  792SOL    HW2 2376   0.363   2.017   2.227 -0.1623  2.6282  1.8289
  793SOL     OW 2377   2.081   1.574   2.146  0.3917 -0.1825  0.1435
  793SOL    HW1 2378   2.176   1.609   2.124  0.9375 -1.7731  1.7301
  793SOL    HW2 2379   2.077   1.472   2.131 -0.0410  4.1314 -1.6558
  794SOL     OW 2380   0.466   1.339   2.400 -0.4026  0.1820  0.3975
  794SOL    HW1 2381   0.469   1.300   2.305 -0.5438 -2.1170  1.7721
  794SOL    HW2 2382   0.435   1.438   2.409 -0.5143 -0.1162  1.7652
  795SOL     OW 2383   2.466   2.279   1.814 -0.5745  0.2063 -0.8640
  795SOL    HW1 2384   2.443   2.330   1.901 -2.7693 -0.8793 -0.7487
  795SOL    HW2 2385   2.412   2.193   1.803 -0.4231  0.5908 -0.1065
  796SOL     OW 2386   3.045   1.119   2.683  0.3365 -0.0724 -0.0932
  796SOL    HW1 2387   2.946   1.109   2.703  1.5960 -0.4179 -2.3628
  796SOL    HW2 2388   3.106   1.134   2.762 -0.4183 -2.1942 -1.2414
  797SOL     OW 2389   0.777   0.622   1.402  0.0310 -0.5744  0.0256
  797SOL    HW1 2390   0.857   0.649   1.463  0.1589 -0.2312  0.1184
  797SOL    HW2 2391   0.724   0.698   1.358  0.1228 -0.3510 -0.3681
  798SOL     OW 2392   1.335   0.302   1.116  0.3012  0.5390  0.3447
  798SOL    HW1 2393   1.335   0.326   1.211  2.6483 -1.3694 -1.6405
  798SOL    HW2 2394   1.365   0.385   1.056  0.0725 -0.7388  1.3304
  799SOL     OW 2395   1.912   2.727   1.045 -0.0813 -0.7243 -0.2424
  799SOL    HW1 2396   1.913   2.662   1.124  0.3575  2.8774  2.1408
  799SOL    HW2 2397   1.820   2.733   0.997  1.8924  0.3306  0.4969
  800SOL     OW 2398   2.953   0.732   1.884 -0.4189  0.4038  0.4683
  800SOL    HW1 2399   2.966   0.834   1.907 -0.5290  1.1167 -1.0987
  800SOL    HW2 2400   3.035   0.670   1.910 -0.1252 -2.3677  0.9218
  801SOL     OW 2401   1.943   2.234   0.088 -0.4656  0.7018  0.5259
  801SOL    HW1 2402   1.867   2.234   0.021  3.7957 -0.2180  0.0345
  801SOL    HW2 2403   2.031   2.183   0.059  0.1848 -0.3246  1.0503
  802SOL     OW 2404   0.689   0.804   2.534  0.5340  0.5072  0.1429
  802SOL    HW1 2405   0.749   0.779   2.452 -0.8565  1.4429 -0.1910
  802SOL    HW2 2406   0.593   0.770   2.520 -0.5156 -2.6123 -0.2481
  803SOL     OW 2407   0.969   0.033   0.840 -0.1486 -0.1223 -0.4926
  803SOL    HW1 2408   1.054   0.084   0.872 -2.4086  2.0147 -2.8347
  803SOL    HW2 2409   0.928   0.071   0.754 -0.5105 -1.7222  1.0973
  804SOL     OW 2410   0.309   0.033   2.166  0.2882  0.1124 -0.2365
  804SOL    HW1 2411   0.325   0.137   2.159 -1.2454  0.9349  0.0439
  804SOL    HW2 2412   0.263   0.000   2.078  1.1272 -0.2203 -0.9679
  805SOL     OW 2413   2.360   0.333   0.409  0.3616  0.1455  0.5717
  805SOL    HW1 2414   2.430   0.358   0.479 -1.0591 -1.4603  1.1987
  805SOL    HW2 2415   2.401   0.295   0.322 -1.4675 -0.4280  0.1870
  806SOL     OW 2416   0.642   2.451   1.795 -0.3660  0.2836  0.3956
  806SOL    HW1 2417   0.616   2.550   1.780  0.8707  1.4810 -0.1240
  806SOL    HW2 2418   0.698   2.419   1.713  1.8350  3.3074  1.3018
  807SOL     OW 2419   2.491   0.845   0.351  0.2001 -0.0868  0.0664
  807SOL    HW1 2420   2.563   0.873   0.427  0.3366 -1.3921 -0.7313
  807SOL    HW2 2421   2.475   0.912   0.273 -1.6447  0.2644 -0.9382
  808SOL     OW 2422   0.602   2.065   2.912  0.6854 -0.6520 -0.7212
  808SOL    HW1 2423   0.564   2.142   2.969  1.0143  0.1883 -0.0917
  808SOL    HW2 2424   0.571   1.971   2.937  0.2519 -0.3311 -0.5149
  809SOL     OW 2425   2.659   1.956   1.880 -0.4388 -0.2534 -0.0717
  809SOL    HW1 2426   2.752   2.007   1.883 -1.2869  3.0438 -1.4920
  809SOL    HW2 2427   2.604   1.989   1.798 -0.5460 -1.6822 -2.2728
  810SOL     OW 2428   2.105   1.066   0.561  0.2267 -0.0104 -0.5805
  810SOL    HW1 2429   2.116   0.977   0.613 -1.9794  0.7259  1.3377
  810SOL    HW2 2430   2.103   1.157   0.614  0.1062  1.4161  1.6069
  811SOL     OW 2431   1.329   2.505   1.191 -0.0660  0.0178  0.8382
  811SOL    HW1 2432   1.307   2.415   1.232 -1.5776  0.5602  0.1497
  811SOL    HW2 2433   1.261   2.580   1.221 -0.2888  1.4820  1.0872
  812SOL     OW 2434   1.412   0.746   1.943  0.0969 -0.1312 -0.5096
  812SOL    HW1 2435   1.443   0.837   1.969 -1.6830 -2.2995 -1.3506
  812SOL    HW2 2436   1.319   0.728   1.979  2.5801  1.6638  1.3161
  813SOL     OW 2437   1.706   2.069   2.513 -0.1699  0.8175  0.5772
  813SOL    HW1 2438   1.783   1.999   2.543  2.5601  0.0130  0.4438
  813SOL    HW2 2439   1.650   2.034   2.431 -0.2765 -1.7612 -0.8454
  814SOL     OW 2440   2.908   1.517   2.831 -0.0057 -0.7465  0.1817
  814SOL    HW1 2441   2.998   1.495   2.880 -0.0457 -0.2684  0.8234
  814SOL    HW2 2442   2.893   1.615   2.820 -1.3945 -1.4057  2.7113
  815SOL     OW 2443   2.159   2.901   2.779  0.3872 -0.2161  0.0279
  815SOL    HW1 2444   2.139   2.822   2.841  0.0768  0.4106  0.6697
  815SOL    HW2 2445   2.238   2.967   2.805  0.6460  0.9890 -1.5645
  816SOL     OW 2446   1.647   0.324   1.595  0.1326 -0.2481  0.1324
  816SOL    HW1 2447   1.688   0.232   1.624 -1.1710  1.1791 -0.8479
  816SOL    HW2 2448   1.570   0.345   1.660 -2.1539  0.8970 -0.7994
  817SOL     OW 2449   0.383   1.156   2.573  0.1876 -0.4551  0.3419
  817SOL    HW1 2450   0.282   1.172   2.600 -1.1886 -1.9092 -1.1047
  817SOL    HW2 2451   0.431   1.226   2.508  0.6018  0.2736  3.0672
  818SOL     OW 2452   1.902   0.903   0.401  0.7913  0.2677 -0.6168
  818SOL    HW1 2453   2.000   0.931   0.409  1.3785 -0.7690 -2.8615
  818SOL    HW2 2454   1.834   0.960   0.463 -0.7373  1.4050  0.0720
  819SOL     OW 2455   2.754   2.965   2.957  0.1680  0.3334 -0.0018
  819SOL    HW1 2456   2.818   2.877   2.952 -0.4352  0.0041  0.4940
  819SOL    HW2 2457   2.665   2.944   2.905  1.0973 -1.2380 -1.9740
  820SOL     OW 2458   1.237   1.061   0.631 -0.5629  0.3827 -0.6713
  820SOL    HW1 2459   1.227   1.155   0.678  2.2442 -1.3433  0.0869
  820SOL    HW2 2460   1.252   0.987   0.706 -0.0012 -1.8824  1.5305
  821SOL     OW 2461   0.008   1.279   0.688  0.4287 -0.0019  0.4454
  821SOL    HW1 2462  -0.026   1.263   0.785 -0.1548 -3.1154 -3.9829
  821SOL    HW2 2463   0.061   1.367   0.672  2.2897 -1.0738 -1.5035
  822SOL     OW 2464   2.566   1.720   2.424  0.2260  0.2522  0.0818
  822SOL    HW1 2465   2.601   1.784   2.500  1.3257  0.6756  2.5386
  822SOL    HW2 2466   2.489   1.765   2.372  1.1938  1.7424  0.2269
  823SOL     OW 2467   2.063   0.908   1.192 -0.3333  0.1420 -0.4419
  823SOL    HW1 2468   2.010   0.879   1.278 -1.9585 -1.5121 -0.8908
  823SOL    HW2 2469   2.003   0.970   1.136 -0.6150 -2.8675  1.8881
  824SOL     OW 2470   0.265   2.040   2.811  0.3277 -0.3450  0.5513
  824SOL    HW1 2471   0.218   1.959   2.862  0.4939 -0.5620  3.0557
  824SOL    HW2 2472   0.336   2.002   2.745  0.6651  0.4357  0.9801
  825SOL     OW 2473   1.294   1.109   0.286  0.0200 -0.8636 -0.1199
  825SOL    HW1 2474   1.315   1.198   0.241  0.8418 -3.2459  0.0457
  825SOL    HW2 2475   1.219   1.117   0.354 -0.1773  1.6962  1.5940
  826SOL     OW 2476   1.877   0.674   1.616 -0.0537 -0.0431  0.2827
  826SOL    HW1 2477   1.962   0.615   1.626  0.0731  1.6629  1.1038
  826SOL    HW2 2478   1.812   0.625   1.547 -0.6033 -0.3466  1.5459
  827SOL     OW 2479   0.676   1.206   0.199  0.1625  0.9693  0.0663
  827SOL    HW1 2480   0.768   1.154   0.181  2.3549  1.3535 -1.5653
  827SOL    HW2 2481   0.599   1.150   0.247 -1.8479  2.6976  0.8347
  828SOL     OW 2482   2.586   0.158   1.596  0.4728  0.9762  0.1117
  828SOL    HW1 2483   2.493   0.147   1.555  2.1059  0.8647  1.8339
  828SOL    HW2 2484   2.577   0.160   1.700  2.5499  1.9253  1.2101
  829SOL     OW 2485   2.770   2.485   3.016  0.0375 -0.5134 -0.1267
  829SOL    HW1 2486   2.698   2.410   3.024 -0.0854  0.6174  0.5830
  829SOL    HW2 2487   2.734   2.579   3.020  2.2370  0.2929 -4.7659
  830SOL     OW 2488   2.799   0.967   3.056 -0.4494  0.6046  0.1601
  830SOL    HW1 2489   2.870   1.046   3.041 -0.2662  1.8765  0.8724
  830SOL    HW2 2490   2.843   0.887   3.111  1.1049  0.0910  0.5598
  831SOL     OW 2491   3.094   0.667   0.410 -0.3430  0.1570  0.0122
  831SOL    HW1 2492   3.066   0.619   0.500 -0.2647  2.3665  1.3924
  831SOL    HW2 2493   3.145   0.597   0.349 -0.6132 -1.1107 -1.1015
  832SOL     OW 2494   1.818   0.749   2.978  0.4077  0.0440 -0.3180
  832SOL    HW1 2495   1.728   0.790   2.953 -0.2914 -0.1890  0.0503
  832SOL    HW2 2496   1.803   0.655   3.019 -1.3777  1.6817  0.3033
  833SOL     OW 2497   2.441   2.147   0.520 -0.7849 -0.1465 -0.5513
  833SOL    HW1 2498   2.346   2.167   0.489 -1.4841 -0.4585  0.3220
  833SOL    HW2 2499   2.462   2.045   0.527  0.6175  1.4951  1.1519
  834SOL     OW 2500   0.203   0.219   0.475 -0.1849  0.3392 -0.3781
  834SOL    HW1 2501   0.242   0.126   0.514 -0.7667 -1.4039  3.9726
  834SOL    HW2 2502   0.149   0.217   0.387  0.0712 -2.0789  0.9505
  835SOL     OW 2503   2.310   1.572   1.083 -0.2653 -0.2531 -0.2064
  835SOL    HW1 2504   2.249   1.629   1.020 -0.1915 -1.4954 -0.8423
  835SOL    HW2 2505   2.405   1.559   1.056 -1.6913  0.1621  2.8211
  836SOL     OW 2506   1.619   0.828   2.593  0.5013  0.0031  0.3474
  836SOL    HW1 2507   1.519   0.802   2.601 -2.8415 -0.1621  0.9388
  836SOL    HW2 2508   1.652   0.826   2.494  0.5822 -0.8343 -2.0197
  837SOL     OW 2509   1.704   0.132   0.533 -0.2667 -0.1034 -0.0925
  837SOL    HW1 2510   1.667   0.188   0.614 -1.4912 -1.0242 -1.4789
  837SOL    HW2 2511   1.634   0.125   0.453 -0.2568 -0.6086 -1.7830
  838SOL     OW 2512   1.175   1.559   2.818 -0.0603 -0.2101 -0.1560
  838SOL    HW1 2513   1.144   1.532   2.913  1.6000 -0.1191  0.0368
  838SOL    HW2 2514   1.136   1.502   2.738 -0.2399 -0.7596  0.5184
  839SOL     OW 2515   1.696   0.309   1.030  0.1694 -0.5485 -0.3595
  839SOL    HW1 2516   1.717   0.388   1.095  0.7426  0.6410 -2.2513
  839SOL    HW2 2517   1.686   0.221   1.088  1.9021 -0.0610 -0.0197
  840SOL     OW 2518   2.563   2.948   1.767  1.0979  0.4079  0.1770
  840SOL    HW1 2519   2.511   2.914   1.681 -0.2557 -1.0075 -2.5634
  840SOL    HW2 2520   2.557   2.879   1.841  3.9347  0.5115  1.1775
  841SOL     OW 2521   1.514   0.828   2.981 -0.0731 -0.4504  0.3102
  841SOL    HW1 2522   1.442   0.856   3.054 -0.4912  2.0572  4.6568
  841SOL    HW2 2523   1.522   0.906   2.911  1.0246  1.7556 -0.2235
  842SOL     OW 2524   0.821   1.549   0.955  0.8591 -0.2801 -0.2918
  842SOL    HW1 2525   0.801   1.633   1.011  1.8020  0.2721 -1.0147
  842SOL    HW2 2526   0.744   1.504   0.906  3.0050  0.2000  0.1510
  843SOL     OW 2527   0.072   0.060   1.434  0.1388  0.0879  0.4074
  843SOL    HW1 2528   0.174   0.086   1.436 -0.9857 -0.2200  0.1835
  843SOL    HW2 2529   0.048  -0.032   1.473  1.2603 -0.6403  1.1702
  844SOL     OW 2530   0.799   2.529   0.305 -0.4665 -0.9152  0.0196
  844SOL    HW1 2531   0.734   2.507   0.385 -1.7227  0.8006 -2.4133
  844SOL    HW2 2532   0.754   2.576   0.222 -0.0022 -3.2272  0.7880
  845SOL     OW 2533   1.627   2.899   1.365 -0.3732  0.1422 -0.0980
  845SOL    HW1 2534   1.683   2.884   1.452  0.2393  0.6263 -1.4397
  845SOL    HW2 2535   1.525   2.891   1.381  0.1829  0.6569  1.3478
  846SOL     OW 2536   1.532   2.930   0.734  0.2610 -0.0342  0.4223
  846SOL    HW1 2537   1.546   2.865   0.660  1.9192  2.9050 -0.9339
  846SOL    HW2 2538   1.613   2.939   0.795  0.6606 -0.7297 -0.4670
  847SOL     OW 2539   2.052   1.660   0.302 -0.1849 -0.1091 -0.1155
  847SOL    HW1 2540   2.016   1.586   0.363  1.8471  1.0275 -1.8430
  847SOL    HW2 2541   1.994   1.744   0.291 -0.1650  1.5124 -0.1966
  848SOL     OW 2542   2.466   0.856   2.585  0.2256 -0.2403  0.3207
  848SOL    HW1 2543   2.429   0.939   2.634  2.0853  3.4752 -1.8194
  848SOL    HW2 2544   2.400   0.774   2.585  1.6031 -1.1863 -2.3498
  849SOL     OW 2545   2.595   0.808   2.344 -0.2215  0.2765  0.1600
  849SOL    HW1 2546   2.681   0.757   2.361  0.8727 -0.0037 -0.8643
  849SOL    HW2 2547   2.537   0.820   2.430  2.6547 -0.6388  0.6480
  850SOL     OW 2548   1.535   0.105   1.347 -0.3979  0.0996  0.1748
  850SOL    HW1 2549   1.568   0.089   1.253  2.5501  3.9263 -0.1511
  850SOL    HW2 2550   1.454   0.048   1.380 -1.5949 -0.3579  2.6009
  851SOL     OW 2551   0.448   1.805   0.602 -0.2300  0.0094 -0.0050
  851SOL    HW1 2552   0.483   1.896   0.637  0.9182  1.5923 -0.3487
  851SOL    HW2 2553   0.518   1.752   0.547  0.8244 -0.7752  2.4820
  852SOL     OW 2554   0.764   2.133   1.664 -0.0611 -0.1052  0.6673
  852SOL    HW1 2555   0.775   2.235   1.654 -2.5678  0.4872 -0.3184
  852SOL    HW2 2556   0.696   2.121   1.739  0.4905 -1.7644 -1.5844
  853SOL     OW 2557   2.571   1.494   2.585 -0.5368  0.4036 -0.0309
  853SOL    HW1 2558   2.493   1.426   2.569 -0.4411 -1.7516  1.0760
  853SOL    HW2 2559   2.574   1.579   2.519 -0.1985  3.6752 -0.5567
  854SOL     OW 2560   2.405   1.412   1.701  0.3782  0.3723 -0.4859
  854SOL    HW1 2561   2.401   1.426   1.601  0.2546  1.7089  2.0321
  854SOL    HW2 2562   2.374   1.314   1.729  1.6342  0.1122  0.8464
  855SOL     OW 2563   2.049   2.415   0.947  0.4193 -0.8639 -0.7024
  855SOL    HW1 2564   2.032   2.508   0.909  2.9533  1.6573 -0.8957
  855SOL    HW2 2565   2.117   2.411   1.025  0.0167  1.3728  3.2565
  856SOL     OW 2566   1.357   1.493   0.901 -0.0620  0.5192  0.0619
  856SOL    HW1 2567   1.415   1.568   0.944 -1.6540  0.3509 -1.5959
  856SOL    HW2 2568   1.257   1.503   0.925 -3.0276  0.3570  0.9424
  857SOL     OW 2569   3.058   2.691   1.022  0.4881 -0.8536  0.0967
  857SOL    HW1 2570   3.003   2.613   0.979  2.4521  0.0497 -0.2759
  857SOL    HW2 2571   3.161   2.680   1.013  2.5949  1.8560 -3.3846
  858SOL     OW 2572   2.324   2.012   1.721 -0.2710 -0.3180  0.9485
  858SOL    HW1 2573   2.254   1.950   1.677  2.1587  1.4211  1.0050
  858SOL    HW2 2574   2.418   2.008   1.673 -0.7006  0.6018 -0.8221
  859SOL     OW 2575   2.495   0.555   1.028  0.0034  0.3123  0.3544
  859SOL    HW1 2576   2.555   0.618   0.971  1.8875  0.8182 -0.3438
  859SOL    HW2 2577   2.529   0.459   1.050 -0.4881 -1.6518  1.9797
  860SOL     OW 2578   1.955   2.819   0.419  0.2655 -0.3004  0.2813
  860SOL    HW1 2579   1.895   2.790   0.332 -4.4182  2.9173 -1.7278
  860SOL    HW2 2580   2.056   2.809   0.405 -2.4245 -0.0736  0.8180
  861SOL     OW 2581   1.105   2.464   2.850 -0.2711  0.1820 -0.6003
  861SOL    HW1 2582   1.129   2.551   2.801  1.5840 -0.4450  0.9815
  861SOL    HW2 2583   1.089   2.478   2.948  1.1130 -0.7689 -2.1321
  862SOL     OW 2584   2.828   2.574   1.609 -0.1067 -0.0074 -0.2253
  862SOL    HW1 2585   2.914   2.599   1.662 -0.1529  0.5031 -1.5298
  862SOL    HW2 2586   2.799   2.654   1.548 -1.6913 -2.1503  0.7616
  863SOL     OW 2587   1.850   2.717   0.176  0.1043 -0.4284  0.0242
  863SOL    HW1 2588   1.902   2.630   0.193  3.4107  0.3995 -2.3693
  863SOL    HW2 2589   1.755   2.693   0.145  1.9842 -0.7486  0.3587
  864SOL     OW 2590   1.909   1.192   2.853  0.0666  0.0067  0.1333
  864SOL    HW1 2591   1.916   1.127   2.772  2.2556  0.9418  0.3567
  864SOL    HW2 2592   1.971   1.167   2.930 -1.7081  0.6467 -0.2369
  865SOL     OW 2593   2.217   1.812   0.616  0.5631  0.5642 -0.3763
  865SOL    HW1 2594   2.273   1.858   0.689 -0.1074  1.8549 -2.3261
  865SOL    HW2 2595   2.116   1.790   0.643  0.8125 -0.7094  2.1337
  866SOL     OW 2596   2.909   2.911   1.023  0.7805  0.5027 -0.2514
  866SOL    HW1 2597   2.930   2.971   0.940  0.5068  1.2106  1.8153
  866SOL    HW2 2598   2.975   2.825   1.029  2.1536 -1.1447  2.1228
  867SOL     OW 2599   0.317   1.356   0.907  0.4339 -0.5206 -0.1203
  867SOL    HW1 2600   0.319   1.269   0.845 -1.1850 -2.0218  0.7686
  867SOL    HW2 2601   0.246   1.421   0.878  0.1558 -0.3014  0.4125
  868SOL     OW 2602   0.728   1.869   1.975 -0.2527 -0.0170  0.4612
  868SOL    HW1 2603   0.694   1.858   2.070  0.4846  2.9137  0.4397
  868SOL    HW2 2604   0.691   1.962   1.934 -1.1339 -0.2855  0.4825
  869SOL     OW 2605   2.573   1.938   1.604 -0.1566  0.1297 -0.1944
  869SOL    HW1 2606   2.656   1.997   1.606  1.3495  1.2237 -1.4382
  869SOL    HW2 2607   2.589   1.839   1.634  1.0563 -1.1243 -2.3196
  870SOL     OW 2608   2.224   2.640   1.259  0.5301  0.7896  0.0305
  870SOL    HW1 2609   2.224   2.533   1.258  1.8171 -3.9066  1.9208
  870SOL    HW2 2610   2.256   2.669   1.350 -2.0605  1.6593  1.0173
  871SOL     OW 2611   3.029   2.210   0.528  0.1049 -0.2390  0.2258
  871SOL    HW1 2612   2.969   2.191   0.611  1.6539  0.9187  1.8781
  871SOL    HW2 2613   2.975   2.259   0.457 -0.2467 -0.7860  0.6557
  872SOL     OW 2614   2.116   0.509   1.683  0.2057 -0.7177 -0.5605
  872SOL    HW1 2615   2.057   0.501   1.771  2.5959 -1.6723  0.8968
  872SOL    HW2 2616   2.211   0.468   1.694  0.4722 -0.4007 -0.1975
  873SOL     OW 2617   1.716   2.129   3.030 -0.2059  0.2628 -0.3302
  873SOL    HW1 2618   1.627   2.161   3.072 -1.0977 -1.3183 -1.5992
  873SOL    HW2 2619   1.699   2.094   2.933 -0.1879  2.6792  0.1499
  874SOL     OW 2620   0.693   2.450   0.756 -0.5446 -0.1540 -0.4588
  874SOL    HW1 2621   0.668   2.547   0.779  2.0791 -2.7168  0.2482
  874SOL    HW2 2622   0.792   2.425   0.783  0.6026 -3.9573 -0.4061
  875SOL     OW 2623   2.344   1.505   1.407 -0.1977  0.4557  0.3626
  875SOL    HW1 2624   2.414   1.582   1.419 -0.0787  0.9175  0.8342
  875SOL    HW2 2625   2.305   1.496   1.305 -2.0988  1.3374 -1.0249
  876SOL     OW 2626   0.081   2.233   2.755  0.2773  0.1644  0.3797
  876SOL    HW1 2627   0.151   2.178   2.806  2.2663 -1.6718  1.7800
  876SOL    HW2 2628   0.104   2.330   2.766  0.6862 -0.7104  0.3367
  877SOL     OW 2629   2.914   2.662   0.578  0.2334 -0.2004 -0.0098
  877SOL    HW1 2630   2.893   2.767   0.587 -0.8126  0.3069 -1.4254
  877SOL    HW2 2631   2.941   2.620   0.669 -0.1446 -0.5086 -0.6342
  878SOL     OW 2632   2.762   1.487   2.246  0.1161  0.3334 -0.2320
  878SOL    HW1 2633   2.859   1.497   2.212  1.6313 -1.4947  0.1387
  878SOL    HW2 2634   2.740   1.545   2.325 -0.8814 -0.2526 -2.0550
  879SOL     OW 2635   2.378   0.101   1.233 -0.1503 -0.3639  0.3065
  879SOL    HW1 2636   2.403   0.005   1.266 -1.1994  0.6409 -0.5564
  879SOL    HW2 2637   2.322   0.100   1.144 -0.6803 -0.2220  0.2454
  880SOL     OW 2638   0.748   0.496   2.229 -0.6444  0.1141  0.6095
  880SOL    HW1 2639   0.688   0.450   2.298 -0.7002  1.3259 -1.7886
  880SOL    HW2 2640   0.797   0.428   2.168 -1.8080 -0.2657  1.1792
  881SOL     OW 2641   0.864   0.051   0.490 -0.3678  0.0114 -0.7690
  881SOL    HW1 2642   0.897  -0.050   0.507  0.8099 -2.0878  2.3117
  881SOL    HW2 2643   0.765   0.072   0.463 -3.3049  2.9298  0.3923
  882SOL     OW 2644   2.708   1.684   1.706  0.1748  0.2352  0.3933
  882SOL    HW1 2645   2.807   1.688   1.670 -0.8078 -0.1656  1.2278
  882SOL    HW2 2646   2.712   1.706   1.804 -0.2184  1.6634 -1.9624
  883SOL     OW 2647   0.914   0.557   0.948  0.5133  0.6602  0.6198
  883SOL    HW1 2648   0.939   0.649   0.992  1.6979 -0.5066  1.2737
  883SOL    HW2 2649   0.898   0.478   1.017 -0.9775 -1.1945  0.3712
  884SOL     OW 2650   1.194   1.734   1.179  0.7159  0.6555 -0.3991
  884SOL    HW1 2651   1.173   1.666   1.105  0.5052 -0.2765 -0.5083
  884SOL    HW2 2652   1.187   1.841   1.149 -0.3425  2.1814  1.8986
  885SOL     OW 2653   2.313   1.778   2.298 -0.0170 -0.3528 -0.1818
  885SOL    HW1 2654   2.242   1.734   2.363  0.9149 -0.1024  0.6835
  885SOL    HW2 2655   2.301   1.876   2.270  0.1572 -1.5209  3.4758
  886SOL     OW 2656   2.603   0.394   1.793 -0.0185  0.3266 -0.2336
  886SOL    HW1 2657   2.603   0.303   1.840 -0.5131 -0.1579 -2.1296
  886SOL    HW2 2658   2.699   0.438   1.790  1.0115  2.1510 -0.3233
  887SOL     OW 2659   0.103   1.997   1.350 -0.4229  0.8292 -0.3081
  887SOL    HW1 2660   0.048   1.948   1.276  0.8865  0.6205 -0.0653
  887SOL    HW2 2661   0.145   2.085   1.318 -0.3621 -1.0185 -2.4189
  888SOL     OW 2662   0.574   1.215   1.531  0.4216  0.5471  0.0144
  888SOL    HW1 2663   0.591   1.254   1.438  0.6414 -0.3694 -0.4599
  888SOL    HW2 2664   0.505   1.136   1.527 -3.1127 -0.5672  0.1063
  889SOL     OW 2665   0.817   2.467   2.176  0.6885  0.2995  0.1953
  889SOL    HW1 2666   0.731   2.406   2.188 -0.7413 -0.4761 -1.4932
  889SOL    HW2 2667   0.852   2.485   2.075  0.6025 -1.6482 -1.7540
  890SOL     OW 2668   2.418   2.426   0.223 -0.2040  0.1934 -0.3944
  890SOL    HW1 2669   2.441   2.466   0.129  2.8798 -1.0394 -1.2257
  890SOL    HW2 2670   2.376   2.493   0.292  0.9194  0.8848  0.9956
  891SOL     OW 2671   2.553   1.722   0.725  0.1328 -0.6561  0.4229
  891SOL    HW1 2672   2.581   1.690   0.818  0.9920  2.3190 -1.1297
  891SOL    HW2 2673   2.475   1.670   0.689  2.1422  3.1727  0.2837
  892SOL     OW 2674   0.354   0.318   2.238  0.2083  0.2456 -0.2635
  892SOL    HW1 2675   0.376   0.394   2.168  1.9148  1.6590 -1.4711
  892SOL    HW2 2676   0.405   0.326   2.325 -0.0260 -0.9705  0.2300
  893SOL     OW 2677   1.700   0.248   2.734  0.3429  0.4261  0.4254
  893SOL    HW1 2678   1.779   0.303   2.773  0.4312  2.8445 -1.0515
  893SOL    HW2 2679   1.615   0.312   2.725 -0.2348  2.2311  0.1351
  894SOL     OW 2680   2.111   2.036   0.017 -0.0440 -0.2421 -0.1527
  894SOL    HW1 2681   2.110   2.003  -0.081 -0.5768 -1.7104 -2.6217
  894SOL    HW2 2682   2.140   1.958   0.075  2.2629  1.8715  0.4825
  895SOL     OW 2683   2.813   1.427   0.939 -0.7091  0.0942 -0.4863
  895SOL    HW1 2684   2.905   1.383   0.929  0.9602 -0.8212  0.3507
  895SOL    HW2 2685   2.810   1.533   0.929 -1.4446 -1.5827 -2.7754
  896SOL     OW 2686   1.774   1.807   1.198  0.3477  0.1764  0.5904
  896SOL    HW1 2687   1.817   1.743   1.127  1.5737  0.6345 -0.3410
  896SOL    HW2 2688   1.727   1.888   1.156  1.1034 -1.1797  0.5931
  897SOL     OW 2689   0.336   0.538   3.074  0.6874 -0.1738  0.7101
  897SOL    HW1 2690   0.284   0.567   2.990 -0.7681 -2.0220  3.6898
  897SOL    HW2 2691   0.429   0.581   3.088  1.9076  0.3017 -3.0568
  898SOL     OW 2692   0.556   2.868   1.088  0.1084 -0.2508 -0.2788
  898SOL    HW1 2693   0.516   2.959   1.122 -1.4051  1.3091 -1.3224
  898SOL    HW2 2694   0.635   2.839   1.153 -0.3720 -1.2296  0.1565
  899SOL     OW 2695   2.831   0.924   1.283 -0.2179 -0.1672  0.4688
  899SOL    HW1 2696   2.769   0.941   1.200  2.8962  1.4275 -0.8162
  899SOL    HW2 2697   2.931   0.947   1.261 -0.8498 -0.6719 -1.0941
  900SOL     OW 2698   0.969   2.534   2.421 -0.5721 -0.2388  0.1552
  900SOL    HW1 2699   0.916   2.521   2.332 -3.9209 -1.2070  0.8890
  900SOL    HW2 2700   0.930   2.476   2.504  0.2465  1.5476 -0.4408
  901SOL     OW 2701   1.916   2.344   1.376  0.1968 -0.2041  0.0647
  901SOL    HW1 2702   1.903   2.306   1.280 -0.0442  0.3743  1.0258
  901SOL    HW2 2703   2.012   2.335   1.407  0.3542  2.5495 -1.3711
  902SOL     OW 2704   2.576   1.651   1.457  0.3428 -0.2611 -0.3108
  902SOL    HW1 2705   2.617   1.663   1.552  0.9723 -0.3018 -0.2386
  902SOL    HW2 2706   2.652   1.625   1.384  2.2254 -0.5246 -1.4116
  903SOL     OW 2707   0.240   2.467   1.963  0.1823  0.0214 -0.0011
  903SOL    HW1 2708   0.149   2.424   1.929 -1.8587  1.4094 -1.5335
  903SOL    HW2 2709   0.264   2.557   1.914 -1.5968 -0.7568 -1.3272
  904SOL     OW 2710   2.036   0.813   2.520 -0.0146  0.2782 -0.3742
  904SOL    HW1 2711   1.960   0.741   2.542  0.3086  0.8213 -0.0147
  904SOL    HW2 2712   2.048   0.818   2.418 -0.5201  1.2524 -1.2934
  905SOL     OW 2713   2.850   0.101   2.563  0.1582 -0.6594 -0.1617
  905SOL    HW1 2714   2.920   0.024   2.550 -1.4114 -1.8750 -0.4892
  905SOL    HW2 2715   2.891   0.199   2.548 -2.0575  0.0308 -0.9409
  906SOL     OW 2716   0.199   1.695   1.924 -0.1712  0.3792  0.2456
  906SOL    HW1 2717   0.122   1.729   1.857  0.3159  1.7420 -0.4377
  906SOL    HW2 2718   0.290   1.749   1.932  0.8066 -2.8272  0.4537
  907SOL     OW 2719   0.260   2.453   1.034 -0.3406  0.4305 -0.2324
  907SOL    HW1 2720   0.347   2.397   1.022  1.5266  1.4434  1.5000
  907SOL    HW2 2721   0.194   2.434   0.955 -1.3152 -2.8107  0.7132
  908SOL     OW 2722   2.773   2.984   0.361 -0.5530 -0.1143  0.3379
  908SOL    HW1 2723   2.741   3.053   0.285 -1.3869 -0.5803  1.0061
  908SOL    HW2 2724   2.825   2.908   0.316 -0.4019  1.1667 -0.8708
  909SOL     OW 2725   0.788   1.040   2.645 -0.9305 -0.3678 -0.1605
  909SOL    HW1 2726   0.769   0.946   2.612  1.3394 -1.0882  0.0738
  909SOL    HW2 2727   0.868   1.085   2.600 -0.7215  1.2117  1.6002
  910SOL     OW 2728   1.758   1.881   2.172 -0.2363  0.3672  0.2772
  910SOL    HW1 2729   1.771   1.903   2.069 -0.7366 -0.9160 -2.1447
  910SOL    HW2 2730   1.675   1.928   2.210 -2.9453  0.7526  1.5693
  911SOL     OW 2731   1.810   2.940   1.598 -0.0927 -0.2221 -0.0957
  911SOL    HW1 2732   1.862   2.922   1.508 -1.9539 -1.0298  0.4195
  911SOL    HW2 2733   1.841   2.875   1.673  3.0198  0.7774  0.2422
  912SOL     OW 2734   2.857   0.993   0.713 -0.3469  0.2485 -0.3691
  912SOL    HW1 2735   2.913   0.964   0.795 -0.5427  1.8266 -2.2950
  912SOL    HW2 2736   2.817   1.088   0.738 -1.1553  0.5487 -0.9562
  913SOL     OW 2737   2.573   1.282   1.505  0.3489 -0.3895 -0.3921
  913SOL    HW1 2738   2.613   1.185   1.515  1.8712  0.4063  1.5129
  913SOL    HW2 2739   2.596   1.328   1.417 -0.9693  0.3233  1.5052
  914SOL     OW 2740   2.804   0.617   1.219  0.2008  0.2492  0.2637
  914SOL    HW1 2741   2.765   0.523   1.240  1.3856 -1.6491  0.5989
  914SOL    HW2 2742   2.795   0.695   1.288  2.9877 -0.5297  2.2389
  915SOL     OW 2743   1.173   0.746   1.091  0.2783  0.7873  0.1757
  915SOL    HW1 2744   1.212   0.804   1.175  0.4654  3.6836  0.2936
  915SOL    HW2 2745   1.071   0.724   1.096 -1.7797  0.2897 -2.2127
  916SOL     OW 2746   0.602   0.016   0.633  0.2776 -0.2695  1.2598
  916SOL    HW1 2747   0.639   0.096   0.689 -0.0434 -1.0654 -1.2983
  916SOL    HW2 2748   0.576   0.047   0.539  0.4766 -0.0261  2.6136
  917SOL     OW 2749   2.836   2.615   1.978 -0.6877 -0.0679 -0.1067
  917SOL    HW1 2750   2.734   2.635   1.968  0.3566  2.4247  3.3903
  917SOL    HW2 2751   2.899   2.694   1.940  0.8153 -1.1694 -0.7775
  918SOL     OW 2752   1.018   2.131   3.056  0.3612  0.4590  0.1297
  918SOL    HW1 2753   0.986   2.198   3.131 -0.3819 -0.8301  0.5859
  918SOL    HW2 2754   1.091   2.158   2.985  1.6296  2.1369  1.5824
  919SOL     OW 2755   0.852   1.638   2.890 -0.2476  0.3118 -0.1407
  919SOL    HW1 2756   0.896   1.710   2.826  0.3903  0.4870 -0.1990
  919SOL    HW2 2757   0.795   1.569   2.835 -0.0848 -0.1432  2.5876
  920SOL     OW 2758   1.197   1.851   2.493 -0.2158 -0.5794  0.0713
  920SOL    HW1 2759   1.280   1.820   2.437  1.7557  1.4433 -1.6790
  920SOL    HW2 2760   1.203   1.844   2.598 -0.1936  1.5730  1.2492
  921SOL     OW 2761   1.049   0.024   2.613 -0.0285 -0.0819  0.2581
  921SOL    HW1 2762   1.014  -0.034   2.537  0.5845  0.1444 -0.4650
  921SOL    HW2 2763   0.970   0.075   2.662 -3.5546  1.5535  1.8967
  922SOL     OW 2764   2.145   2.387   2.783 -1.0564  0.1831 -0.1715
  922SOL    HW1 2765   2.177   2.286   2.776  2.2025  0.1486  2.1028
  922SOL    HW2 2766   2.089   2.422   2.701 -0.3369 -0.4797  1.3216
  923SOL     OW 2767   1.267   2.670   0.269  0.0447  0.6020  0.0106
  923SOL    HW1 2768   1.335   2.749   0.286 -0.8923 -1.7750 -0.5303
  923SOL    HW2 2769   1.314   2.576   0.266 -0.9536  1.8063 -0.7470
  924SOL     OW 2770   2.859   1.554   0.165  0.0786 -0.5377 -0.7081
  924SOL    HW1 2771   2.777   1.562   0.102  0.7566 -0.8528  0.3431
  924SOL    HW2 2772   2.946   1.523   0.119  0.9160  0.2708  0.2485
  925SOL     OW 2773   3.096   2.874   1.515 -0.4601  0.3704  0.3822
  925SOL    HW1 2774   3.009   2.884   1.577 -3.1054 -0.9134  1.0883
  925SOL    HW2 2775   3.068   2.833   1.421 -0.1326  1.9002 -0.9759
  926SOL     OW 2776   1.305   2.797   1.265  0.1341  0.0203 -0.1658
  926SOL    HW1 2777   1.348   2.810   1.171 -0.6488  1.6138  0.8424
  926SOL    HW2 2778   1.292   2.891   1.310 -1.5385  1.3436 -1.5512
  927SOL     OW 2779   0.333   2.668   1.775 -0.0014 -0.4970 -0.1099
  927SOL    HW1 2780   0.309   2.591   1.704  1.1571  1.0933 -2.7017
  927SOL    HW2 2781   0.283   2.755   1.751  0.7935  0.6411 -1.0243
  928SOL     OW 2782   1.541   2.050   2.283 -0.3761  0.1149 -0.0227
  928SOL    HW1 2783   1.588   2.122   2.224  0.4011 -0.7137 -0.1422
  928SOL    HW2 2784   1.438   2.062   2.295 -3.6688 -0.7657  2.9892
  929SOL     OW 2785   2.409   2.498   2.866  0.6165 -0.5566  0.1620
  929SOL    HW1 2786   2.306   2.468   2.869 -0.3421 -0.6402 -0.6210
  929SOL    HW2 2787   2.460   2.477   2.775 -0.2280 -1.4317 -1.3981
  930SOL     OW 2788   2.209   2.015   1.082  0.5015 -0.1125 -0.0404
  930SOL    HW1 2789   2.180   1.967   1.167 -1.2954  4.0543 -1.4817
  930SOL    HW2 2790   2.295   2.075   1.091  0.7958  3.4597  0.9117
  931SOL     OW 2791   0.538   1.713   2.737 -0.1164  0.1273 -0.0415
  931SOL    HW1 2792   0.596   1.759   2.809  2.4927 -1.5104 -0.3759
  931SOL    HW2 2793   0.572   1.612   2.720  2.8825 -0.8653  2.7552
  932SOL     OW 2794   0.480   0.147   2.996 -0.2659  0.0402 -0.5725
  932SOL    HW1 2795   0.552   0.195   3.042 -1.2708  0.5211 -1.9350
  932SOL    HW2 2796   0.477   0.049   3.034 -1.2113  0.2682  1.4684
  933SOL     OW 2797   1.005   0.797   3.066  0.1706  0.2768 -0.6865
  933SOL    HW1 2798   1.019   0.823   3.165 -1.0940 -0.8722 -3.0536
  933SOL    HW2 2799   0.978   0.873   3.001 -0.3102  0.5685 -0.7596
  934SOL     OW 2800   0.781   2.969   2.650  0.1353 -0.0677 -0.6384
  934SOL    HW1 2801   0.779   2.917   2.559 -0.7040  0.9688 -2.5331
  934SOL    HW2 2802   0.838   2.923   2.727 -1.7137  1.0905  1.7272
  935SOL     OW 2803   0.029   0.569   0.824 -0.4921  0.3490  0.5083
  935SOL    HW1 2804   0.008   0.523   0.728  0.8575 -2.0335 -4.3408
  935SOL    HW2 2805  -0.056   0.614   0.869 -2.2294 -0.6817 -0.8010
  936SOL     OW 2806   1.113   2.779   0.078 -0.3001  0.7132 -0.1068
  936SOL    HW1 2807   1.168   2.836   0.009 -3.1551  0.6372 -0.4899
  936SOL    HW2 2808   1.180   2.738   0.150  0.4416  1.0958  2.0961
  937SOL     OW 2809   1.900   2.632   2.100 -0.0739 -0.1040  0.0952
  937SOL    HW1 2810   1.822   2.668   2.151  2.6908  0.6303 -2.7818
  937SOL    HW2 2811   1.951   2.714   2.057  4.2589 -2.2474 -0.5892
  938SOL     OW 2812   2.781   2.108   1.612  0.4605  0.3687  0.0341
  938SOL    HW1 2813   2.735   2.197   1.628  0.4489  1.3207  0.7393
  938SOL    HW2 2814   2.877   2.106   1.651  0.1260  1.0901  0.3781
  939SOL     OW 2815   2.885   1.210   2.425  0.2777 -0.4214 -0.1982
  939SOL    HW1 2816   2.948   1.182   2.348 -3.0098  1.1247 -1.8918
  939SOL    HW2 2817   2.907   1.178   2.520 -1.2841 -0.7285 -1.4577
  940SOL     OW 2818   1.031   0.398   2.725  0.1424 -0.2850 -0.3658
  940SOL    HW1 2819   1.104   0.329   2.738  0.1267  1.1419 -0.9224
  940SOL    HW2 2820   0.960   0.368   2.656 -3.5346  0.6707  1.3440
  941SOL     OW 2821   0.060   2.787   2.265 -0.1985 -0.5834 -0.2236
  941SOL    HW1 2822   0.115   2.699   2.261 -1.2151  1.6478  1.7006
  941SOL    HW2 2823   0.114   2.871   2.310 -2.5528  2.0060  0.0113
  942SOL     OW 2824   0.144   0.075   2.556 -0.2303  0.6401  0.1966
  942SOL    HW1 2825   0.188   0.121   2.640  1.3709  2.9017  2.0165
  942SOL    HW2 2826   0.106   0.145   2.492 -1.8536 -0.0412 -2.7167
  943SOL     OW 2827   2.099   1.675   2.408 -0.0590  0.4931  0.4449
  943SOL    HW1 2828   2.063   1.641   2.319  0.0023  0.0396 -2.1709
  943SOL    HW2 2829   2.094   1.594   2.473  0.2822 -0.2104  0.5247
  944SOL     OW 2830   2.173   2.324   1.464  0.3019  0.1382  0.5080
  944SOL    HW1 2831   2.255   2.377   1.501  2.3039  3.6160 -1.4420
  944SOL    HW2 2832   2.132   2.258   1.534 -1.7173 -1.6597  0.5712
  945SOL     OW 2833   0.672   1.499   0.236 -0.1696 -0.2110  0.1861
  945SOL    HW1 2834   0.608   1.519   0.155  0.6904  0.9861 -0.6394
  945SOL    HW2 2835   0.701   1.399   0.249 -1.3456 -2.6389  1.9220
  946SOL     OW 2836   0.419   0.920   2.451 -0.5038  0.0733 -0.1687
  946SOL    HW1 2837   0.322   0.875   2.444 -0.2916 -0.9326 -0.0134
  946SOL    HW2 2838   0.417   1.018   2.497  0.0863  1.9234  1.3605
  947SOL     OW 2839   1.536   0.528   3.074 -0.4425 -0.5487 -0.2239
  947SOL    HW1 2840   1.528   0.579   2.992  1.4162 -0.7742  0.7480
  947SOL    HW2 2841   1.451   0.472   3.094  0.5086  0.3838  0.8677
  948SOL     OW 2842   1.839   3.045   2.145  0.3680 -0.1701  0.3218
  948SOL    HW1 2843   1.895   3.008   2.070  1.2273  2.9621 -1.7505
  948SOL    HW2 2844   1.822   2.982   2.226  0.3674  1.9932  0.1435
  949SOL     OW 2845   0.608   2.467   0.494  0.2163  0.3394  0.2205
  949SOL    HW1 2846   0.605   2.570   0.496 -3.4097 -0.8339  0.7611
  949SOL    HW2 2847   0.672   2.440   0.569 -1.5937  1.3956  1.3448
  950SOL     OW 2848   0.200   2.216   3.065  0.4319 -0.4810 -0.3070
  950SOL    HW1 2849   0.138   2.288   3.022 -1.1403  1.4292  0.4288
  950SOL    HW2 2850   0.224   2.143   2.996 -0.9162  1.2111 -0.4405
  951SOL     OW 2851   1.243   2.689   2.755  0.2593  0.2954 -0.7625
  951SOL    HW1 2852   1.286   2.652   2.842  0.9100 -2.6949 -2.8703
  951SOL    HW2 2853   1.309   2.720   2.680  0.9194  3.3983 -3.5129
  952SOL     OW 2854   0.015   1.711   0.379  0.0644  0.5978 -0.0706
  952SOL    HW1 2855   0.076   1.793   0.371  1.0576  2.4571  2.1504
  952SOL    HW2 2856   0.034   1.651   0.452  2.1460 -1.1098 -3.7886
  953SOL     OW 2857   2.540   1.787   0.210 -0.2608 -0.7202  0.1253
  953SOL    HW1 2858   2.507   1.687   0.203  0.9538  0.4210 -0.3211
  953SOL    HW2 2859   2.542   1.843   0.124  2.0230  2.3851  2.7434
  954SOL     OW 2860   2.231   0.542   0.922  0.0667  0.3422  0.1449
  954SOL    HW1 2861   2.221   0.565   0.819  1.5605 -0.9956 -0.6349
  954SOL    HW2 2862   2.333   0.534   0.948  0.1489 -1.0488  2.1615
  955SOL     OW 2863   0.171   2.592   1.303 -0.4349 -0.1823 -0.4224
  955SOL    HW1 2864   0.077   2.631   1.305  0.9024  1.0847  3.4211
  955SOL    HW2 2865   0.227   2.615   1.214  0.6318  0.5260 -2.9437
  956SOL     OW 2866   2.830   2.441   2.505 -0.2668  0.1792 -0.5880
  956SOL    HW1 2867   2.833   2.343   2.472 -3.4599 -0.1836 -0.0630
  956SOL    HW2 2868   2.885   2.511   2.448 -0.1660 -0.4454  1.0349
  957SOL     OW 2869   1.655   2.060   2.784 -0.5140 -0.0015  0.2328
  957SOL    HW1 2870   1.609   1.970   2.753 -2.9385 -1.0184 -1.6000
  957SOL    HW2 2871   1.685   2.117   2.703  0.9785  2.9282  1.5072
  958SOL     OW 2872   2.554   2.309   2.999  0.2358  0.2712 -0.2992
  958SOL    HW1 2873   2.506   2.391   2.960  2.0287  0.0332  0.0440
  958SOL    HW2 2874   2.482   2.238   3.019 -1.0910  2.5827 -0.8152
  959SOL     OW 2875   0.249   2.808   0.053  0.1669  0.3209 -0.0433
  959SOL    HW1 2876   0.155   2.784   0.013 -1.3767  0.0100  0.2477
  959SOL    HW2 2877   0.305   2.726   0.078  1.8489  0.1190  1.0647
  960SOL     OW 2878   2.020   0.490   1.937  0.9228  0.0775  0.2341
  960SOL    HW1 2879   1.937   0.556   1.922  1.0882 -1.7123 -0.6398
  960SOL    HW2 2880   2.006   0.438   2.027 -0.5026 -1.5355  0.2126
  961SOL     OW 2881   2.567   1.854   0.997  0.3768 -0.4466 -0.1398
  961SOL    HW1 2882   2.569   1.945   0.947 -0.9555 -0.9924  3.3346
  961SOL    HW2 2883   2.545   1.863   1.099 -1.8434  1.6819 -0.4231
  962SOL     OW 2884   1.317   0.946   0.038 -0.1946  0.5224  0.2410
  962SOL    HW1 2885   1.292   0.980  -0.058  0.5331  1.0943 -0.3008
  962SOL    HW2 2886   1.307   1.008   0.118 -0.7960 -0.0140 -1.4140
  963SOL     OW 2887   2.217   2.570   1.831  0.2398  0.0914  0.3579
  963SOL    HW1 2888   2.177   2.478   1.863  0.0697  1.8093 -0.2720
  963SOL    HW2 2889   2.245   2.626   1.908 -1.2752 -0.8745 -0.4492
  964SOL     OW 2890   2.353   0.378   1.676  0.0498 -0.1160  0.2746
  964SOL    HW1 2891   2.444   0.397   1.720 -1.8987 -0.9238 -0.5226
  964SOL    HW2 2892   2.366   0.374   1.571  1.3168 -0.8924  1.2540
  965SOL     OW 2893   2.637   3.068   0.138 -0.3318  0.4924 -0.4379
  965SOL    HW1 2894   2.684   3.042   0.049 -0.9219 -0.1255  0.5057
  965SOL    HW2 2895   2.530   3.068   0.140 -0.1144 -0.0381  0.9551
  966SOL     OW 2896   2.632   2.576   2.194  0.1250 -0.0744 -0.1383
  966SOL    HW1 2897   2.687   2.653   2.232  0.7289 -0.3355 -1.1779
  966SOL    HW2 2898   2.539   2.608   2.162 -0.3517 -1.6936 -1.5609
  967SOL     OW 2899   2.800   2.832   2.494  0.5776 -0.0035  0.1397
  967SOL    HW1 2900   2.826   2.761   2.422  1.0035 -1.4772  1.0624
  967SOL    HW2 2901   2.876   2.904   2.510  1.4366 -0.8900 -0.2989
  968SOL     OW 2902   1.902   1.041   2.627 -0.1352 -0.4319 -0.0814
  968SOL    HW1 2903   1.817   1.076   2.585 -0.3558 -1.5548  1.1685
  968SOL    HW2 2904   1.955   0.969   2.571  2.6970 -2.5324 -1.9181
  969SOL     OW 2905   2.854   2.454   1.125 -0.2414 -0.9664  0.3582
  969SOL    HW1 2906   2.820   2.448   1.027  1.4750 -1.7142 -0.1986
  969SOL    HW2 2907   2.856   2.362   1.180  0.0990 -1.4286  2.0181
  970SOL     OW 2908   1.021   2.088   1.817  0.1254  0.2673  0.2253
  970SOL    HW1 2909   0.934   2.114   1.765 -0.0107 -0.0360  2.0451
  970SOL    HW2 2910   1.035   2.137   1.910 -0.4675 -1.2438  0.8360
  971SOL     OW 2911   2.926   2.094   1.945  0.0132 -0.2564 -0.8890
  971SOL    HW1 2912   2.913   2.192   1.980 -2.0638 -0.8430  2.2688
  971SOL    HW2 2913   2.972   2.083   1.847 -1.0928 -1.9548 -0.8773
  972SOL     OW 2914   1.979   2.482   0.232  0.0340 -0.1828 -0.2988
  972SOL    HW1 2915   1.988   2.395   0.183 -0.7934  1.4648 -0.5441
  972SOL    HW2 2916   2.012   2.468   0.330 -0.8049  1.0896 -2.9797
  973SOL     OW 2917   1.278   1.032   1.906 -0.0022 -0.4456  0.3623
  973SOL    HW1 2918   1.230   1.003   1.819  0.4607 -3.3649  0.9413
  973SOL    HW2 2919   1.248   1.124   1.949  0.7448  1.2472 -2.2403
  974SOL     OW 2920   1.615   0.559   1.990 -0.4946  0.1177  0.3254
  974SOL    HW1 2921   1.703   0.604   1.949 -1.4644  4.2896 -0.8134
  974SOL    HW2 2922   1.532   0.621   1.974  0.5937  2.0381  0.2194
  975SOL     OW 2923   2.359   3.049   0.065  0.2345 -0.0847  0.0438
  975SOL    HW1 2924   2.320   2.954   0.071  0.7511  1.1883 -0.5984
  975SOL    HW2 2925   2.362   3.092  -0.030  1.3197  1.4554  1.8022
  976SOL     OW 2926   1.915   2.857   2.367  0.2651  0.3646  0.4416
  976SOL    HW1 2927   1.823   2.807   2.360  3.6439 -2.0482 -0.6324
  976SOL    HW2 2928   1.965   2.831   2.457  0.7973 -0.0018  3.0278
  977SOL     OW 2929   0.449   0.649   1.003 -0.7343 -0.5775 -0.0118
  977SOL    HW1 2930   0.377   0.682   0.932  1.0439  3.1775 -2.0836
  977SOL    HW2 2931   0.548   0.653   0.969 -0.7984  3.6145 -2.1490
   3.10000   3.10000   3.10000
