1000 SPC/Fw water molecules t=   1.36000 step= 1360
 2931
    1SOL     OW    1   2.521   0.321   2.647 -0.6092 -0.5732  0.6062
    1SOL    HW1    2   2.521   0.221   2.636 -0.4094 -2.2235  0.3392
    1SOL    HW2    3   2.560   0.357   2.736 -2.3531 -2.3924 -0.1272
    2SOL     OW    4   2.757   2.988   1.378 -0.1443  0.0628  0.0802
    2SOL    HW1    5   2.848   3.019   1.333 -0.8784 -3.7231  3.6457
    2SOL    HW2    6   2.723   3.054   1.450 -0.0171 -0.4710 -0.6688
    3SOL     OW    7   2.647   2.578   0.433  0.0770 -0.0209 -0.2809
    3SOL    HW1    8   2.603   2.486   0.448  1.8364 -1.1764  0.3527
    3SOL    HW2    9   2.692   2.619   0.520 -0.0099  0.0814  1.8721
    4SOL     OW   10   1.227   1.495   2.418  0.4469 -0.1179 -0.0425
    4SOL    HW1   11   1.178   1.525   2.328 -2.1136 -0.1794  0.8670
    4SOL    HW2   12   1.280   1.406   2.409 -3.2788  0.6987  0.2887
    5SOL     OW   13   1.171   1.558   2.902 -0.0252 -0.1868 -0.0205
    5SOL    HW1   14   1.214   1.635   2.955  0.0423 -2.3347 -0.2175
    5SOL    HW2   15   1.078   1.582   2.860  0.3161  0.8132 -4.0531
    6SOL     OW   16   0.258   1.845   3.013 -0.0086 -0.7108  0.1379
    6SOL    HW1   17   0.162   1.847   3.043  3.4892  1.5188  0.8496
    6SOL    HW2   18   0.326   1.779   3.059  1.9251  0.4731 -1.7911
    7SOL     OW   19   2.504   0.898   1.053 -0.3137  0.5685  0.1714
    7SOL    HW1   20   2.415   0.849   1.079 -1.7971  1.8881 -0.7354
    7SOL    HW2   21   2.554   0.846   0.976 -2.0170 -0.0098 -1.5055
    8SOL     OW   22   0.390   0.640   1.497 -1.0635  0.8775  0.3558
    8SOL    HW1   23   0.485   0.598   1.511  0.5991  3.1251  1.3588
    8SOL    HW2   24   0.376   0.691   1.407 -0.5571  3.6170 -1.2229
    9SOL     OW   25   1.166   0.846   2.422 -0.7023 -0.1228  0.1200
    9SOL    HW1   26   1.218   0.890   2.343  0.1281 -0.3405  2.1628
    9SOL    HW2   27   1.122   0.757   2.398 -0.2596 -0.4623 -1.3553
   10SOL     OW   28   0.681   1.376   1.300 -0.0655 -0.6721  0.1572
   10SOL    HW1   29   0.583   1.390   1.255  1.1730  1.9676 -2.9099
   10SOL    HW2   30   0.734   1.465   1.312  1.9427  1.9725  1.6576
   11SOL     OW   31   2.312   2.823   0.822 -0.0896  0.1072  0.0594
   11SOL    HW1   32   2.281   2.802   0.918 -1.7665  2.4572  0.4947
   11SOL    HW2   33   2.418   2.816   0.800 -0.8478 -1.0288 -0.0166
   12SOL     OW   34   1.484   0.861   0.431  0.7434  0.4957  0.0057
   12SOL    HW1   35   1.441   0.935   0.372 -2.1280  0.4311  0.1533
   12SOL    HW2   36   1.517   0.784   0.373 -0.7873  1.7157 -1.1169
   13SOL     OW   37   2.414   0.734   1.761  0.3969 -0.2452  0.3852
   13SOL    HW1   38   2.355   0.671   1.811 -0.5757 -0.4512 -0.0323
   13SOL    HW2   39   2.442   0.707   1.664 -0.7934 -2.1548 -1.9958
   14SOL     OW   40   1.939   0.026   0.622  0.2597  0.0410 -0.6965
   14SOL    HW1   41   1.843   0.057   0.609  0.5548 -0.6035  2.3363
   14SOL    HW2   42   1.942  -0.030   0.710  0.9547 -0.5976 -0.0923
   15SOL     OW   43   1.907   2.106   2.635 -0.2185  0.1760 -0.3030
   15SOL    HW1   44   1.876   2.189   2.691  0.9920  0.5146 -0.8387
   15SOL    HW2   45   1.845   2.023   2.648  1.4987 -2.1605  1.8260
   16SOL     OW   46   1.597   1.706   2.988  0.1869  0.2334  0.2579
   16SOL    HW1   47   1.588   1.620   3.048 -1.4318  0.1317  0.6082
   16SOL    HW2   48   1.669   1.774   3.027 -2.4075  2.4837 -2.1317
   17SOL     OW   49   0.114   0.420   0.173 -0.6667  0.0201 -0.3219
   17SOL    HW1   50   0.214   0.441   0.141  2.6895 -1.3844  0.7372
   17SOL    HW2   51   0.051   0.429   0.090 -1.3606 -1.4204 -1.2561
   18SOL     OW   52   0.929   2.992   2.165 -0.5639 -0.1242 -0.1881
   18SOL    HW1   53   0.863   2.912   2.190 -2.9849  1.2720 -1.1640
   18SOL    HW2   54   0.985   2.963   2.084  2.0039  1.1000 -1.6706
   19SOL     OW   55   0.539   0.845   1.894  0.3600  0.2484  0.1220
   19SOL    HW1   56   0.588   0.779   1.955  1.3932 -0.0906  1.2499
   19SOL    HW2   57   0.599   0.931   1.876  1.6037 -0.3767 -1.4930
   20SOL     OW   58   0.225   2.829   0.858  0.7461 -0.1795 -0.3678
   20SOL    HW1   59   0.135   2.882   0.836 -2.2366  0.3934  1.4902
   20SOL    HW2   60   0.221   2.727   0.832  0.3369  0.0262  4.3420
   21SOL     OW   61   2.765   0.254   1.955  0.2444  0.0756  0.0950
   21SOL    HW1   62   2.727   0.185   1.885  2.2716  0.1955 -0.2244
   21SOL    HW2   63   2.841   0.215   2.014  0.4857 -0.6224  1.9518
   22SOL     OW   64   2.360   0.200   0.122  0.2763 -0.0344 -0.0281
   22SOL    HW1   65   2.378   0.100   0.081  3.2838 -2.4417  0.3611
   22SOL    HW2   66   2.320   0.261   0.045 -1.6690  1.2891 -0.7004
   23SOL     OW   67   2.813   0.562   0.664  0.3847  0.3050  0.1950
   23SOL    HW1   68   2.823   0.474   0.608  0.0103 -0.1533  0.0150
   23SOL    HW2   69   2.794   0.640   0.598  2.5173  1.5504  1.7397
   24SOL     OW   70   0.238   1.870   0.458 -0.5980 -0.1622 -0.6586
   24SOL    HW1   71   0.174   1.912   0.381  0.3918  1.5235 -1.2667
   24SOL    HW2   72   0.339   1.892   0.446  0.2986  0.0718 -2.1325
   25SOL     OW   73   2.213   0.635   0.216 -0.2222  0.1030  0.3818
   25SOL    HW1   74   2.200   0.648   0.114  2.4313 -1.0884 -1.7298
   25SOL    HW2   75   2.259   0.543   0.232  2.8390  2.7467  0.1518
   26SOL     OW   76   2.449   2.138   2.100 -0.3979 -0.7646  0.0782
   26SOL    HW1   77   2.528   2.206   2.119  0.5580  0.3277  2.1313
   26SOL    HW2   78   2.466   2.081   2.013  0.3106  0.9059 -1.3818
   27SOL     OW   79   0.618   2.961   0.252 -0.4632  0.4701 -0.2760
   27SOL    HW1   80   0.715   2.998   0.232 -1.0351 -0.3818 -0.7015
   27SOL    HW2   81   0.571   2.947   0.161 -1.1419 -0.1607 -2.0710
   28SOL     OW   82   1.577   0.110   0.338  0.4584 -0.2146  0.3928
   28SOL    HW1   83   1.634   0.067   0.266 -1.6195  0.0748 -0.5572
   28SOL    HW2   84   1.607   0.209   0.349  1.6198 -1.3923 -0.3862
   29SOL     OW   85   1.956   0.565   0.268  0.0759  0.0099 -0.0866
   29SOL    HW1   86   1.898   0.620   0.334  1.0163  1.6845  1.1003
   29SOL    HW2   87   2.054   0.588   0.290  1.2430 -0.0122 -1.2869
   30SOL     OW   88   0.168   2.085   0.871 -0.8619 -0.2137 -0.0308
   30SOL    HW1   89   0.182   2.010   0.804  2.5136 -0.6891  2.7120
   30SOL    HW2   90   0.067   2.107   0.886 -0.5839  0.5566 -0.7320
   31SOL     OW   91   2.179   0.092   2.418 -0.0944 -0.6737 -0.1361
   31SOL    HW1   92   2.129   0.074   2.505 -0.8156 -3.0575 -2.3852
   31SOL    HW2   93   2.130   0.050   2.336  3.8268 -1.2505 -1.0666
   32SOL     OW   94   2.953   0.005   0.265 -0.1077 -0.2484  0.2327
   32SOL    HW1   95   2.932  -0.073   0.331 -0.1696 -3.0478  0.1689
   32SOL    HW2   96   3.048   0.051   0.273 -0.8913 -1.6686  0.8194
   33SOL     OW   97   0.885   0.259   0.615 -0.6605 -0.9486  0.6268
   33SOL    HW1   98   0.863   0.199   0.530  0.9436 -1.3720 -2.1539
   33SOL    HW2   99   0.970   0.315   0.607 -2.6186  1.0428  0.6475
   34SOL     OW  100   0.298   2.732   1.101 -0.3433 -0.3496  0.6712
   34SOL    HW1  101   0.271   2.779   1.011 -0.5995  0.7727 -0.3955
   34SOL    HW2  102   0.398   2.748   1.120  0.0228 -1.3295  1.7350
   35SOL     OW  103   0.034   0.113   1.874 -0.6765  0.1911 -0.3347
   35SOL    HW1  104   0.040   0.010   1.903 -3.6437  0.0972 -0.4840
   35SOL    HW2  105  -0.018   0.131   1.785 -2.6992 -0.9419  2.6992
   36SOL     OW  106   1.820   1.205   1.543  0.1085 -0.6496 -0.6226
   36SOL    HW1  107   1.910   1.151   1.553  0.7510 -1.5269 -0.9833
   36SOL    HW2  108   1.815   1.282   1.474 -3.5940 -1.0869  1.5636
   37SOL     OW  109   1.175   0.200   0.971 -0.7589 -0.6671  0.0217
   37SOL    HW1  110   1.212   0.287   1.014  1.2817  0.3419  2.1381
   37SOL    HW2  111   1.244   0.126   0.973 -0.6204  0.5242  0.5256
   38SOL     OW  112   1.144   2.889   2.377  0.2429  0.2040  0.9120
   38SOL    HW1  113   1.058   2.855   2.427 -3.4326 -0.3090  0.1439
   38SOL    HW2  114   1.124   2.985   2.354  2.3493 -1.6554  0.3894
   39SOL     OW  115   2.390   1.362   3.029  0.9590  0.2494  0.2130
   39SOL    HW1  116   2.465   1.286   3.038  1.7122  0.1186  0.0206
   39SOL    HW2  117   2.345   1.377   3.123 -1.9990 -1.4504 -0.6858
   40SOL     OW  118   2.017   2.477   2.617  0.1383  0.2689  0.0934
   40SOL    HW1  119   1.999   2.573   2.593  0.9007 -1.0223 -1.0154
   40SOL    HW2  120   1.985   2.413   2.537 -2.0344  0.0756  0.6769
   41SOL     OW  121   3.034   0.652   2.793 -0.2595 -0.2063  0.2264
   41SOL    HW1  122   2.938   0.700   2.808 -1.8890  1.4738 -1.0656
   41SOL    HW2  123   3.025   0.553   2.760 -2.6627 -0.4371 -3.3743
   42SOL     OW  124   1.761   1.778   0.540 -0.2913 -0.2847 -0.2167
   42SOL    HW1  125   1.722   1.682   0.559  0.6015 -1.6099 -0.5209
   42SOL    HW2  126   1.785   1.790   0.442 -0.2011  1.9909  2.5275
   43SOL     OW  127   0.491   1.680   1.261  0.4615  0.1313  0.0402
   43SOL    HW1  128   0.502   1.597   1.201  2.9208  0.5103  0.1120
   43SOL    HW2  129   0.415   1.664   1.330  3.2146 -0.4064 -1.8839
   44SOL     OW  130   1.675   2.422   3.014 -0.1025  0.2808 -0.3859
   44SOL    HW1  131   1.572   2.447   3.017 -1.8797  1.3801  1.4270
   44SOL    HW2  132   1.710   2.428   2.916  2.3044  0.0142 -2.2048
   45SOL     OW  133   0.379   1.910   2.570 -0.1605 -0.0362 -0.0489
   45SOL    HW1  134   0.341   1.902   2.472 -3.6284  4.1348 -1.5924
   45SOL    HW2  135   0.434   1.826   2.600 -0.5727  0.2486 -1.0061
   46SOL     OW  136   1.303   0.652   0.185 -0.2879 -0.0784  1.0299
   46SOL    HW1  137   1.293   0.739   0.129  0.8050  0.7686  1.3016
   46SOL    HW2  138   1.220   0.587   0.179  0.5247  2.0538  1.2264
   47SOL     OW  139   0.189   2.481   1.592 -0.1213 -0.6126 -0.5480
   47SOL    HW1  140   0.136   2.400   1.561 -0.7967 -1.7390  0.6996
   47SOL    HW2  141   0.257   2.514   1.520  2.4186  0.8667 -0.7382
   48SOL     OW  142   2.640   0.601   0.147  0.4016 -0.3778  0.0370
   48SOL    HW1  143   2.626   0.601   0.252  0.4714  1.4993  1.4982
   48SOL    HW2  144   2.738   0.638   0.116  3.4610  0.4358 -0.0316
   49SOL     OW  145   0.302   0.759   1.738 -0.5732  0.1228  0.4623
   49SOL    HW1  146   0.372   0.801   1.803  0.9071 -0.6075  1.0730
   49SOL    HW2  147   0.338   0.714   1.651 -0.9817  1.9168  0.5254
   50SOL     OW  148   1.724   1.140   0.291  0.0948 -0.2550 -0.3552
   50SOL    HW1  149   1.748   1.051   0.241  0.4555  1.0729  0.2537
   50SOL    HW2  150   1.665   1.123   0.377  0.5781 -0.5851 -0.4226
   51SOL     OW  151   3.026   1.760   0.263  0.2269  0.3013 -0.5030
   51SOL    HW1  152   2.970   1.700   0.200  0.2886 -0.0142  0.0970
   51SOL    HW2  153   3.091   1.701   0.324 -0.2291  0.6781  2.5922
   52SOL     OW  154   0.816   2.143   0.647 -0.5216 -0.3100  0.0985
   52SOL    HW1  155   0.715   2.134   0.639  1.8730 -0.6545  1.0715
   52SOL    HW2  156   0.861   2.070   0.709  1.2735 -1.0520  3.3373
   53SOL     OW  157   0.169   0.436   1.584 -0.2764 -0.3566  0.0840
   53SOL    HW1  158   0.258   0.489   1.588 -0.8833  0.6586  0.0980
   53SOL    HW2  159   0.107   0.466   1.507  0.4539 -1.9877  3.2350
   54SOL     OW  160   1.790   0.498   3.062 -0.0345  0.0524  0.2689
   54SOL    HW1  161   1.832   0.421   3.122 -0.8495 -1.7071  0.6838
   54SOL    HW2  162   1.689   0.521   3.078 -1.5124 -1.2329 -0.1270
   55SOL     OW  163   0.747   2.893   0.705  0.6718  0.1040 -0.1238
   55SOL    HW1  164   0.704   2.987   0.703  2.5466  1.7752  0.4207
   55SOL    HW2  165   0.836   2.890   0.652  2.3522  1.1115 -1.2547
   56SOL     OW  166   0.572   1.615   0.004 -0.2429 -0.0535 -0.8240
   56SOL    HW1  167   0.502   1.664   0.065 -0.7724  0.1907  0.5824
   56SOL    HW2  168   0.543   1.517  -0.027  0.9375 -1.8889 -1.4821
   57SOL     OW  169   1.768   2.498   2.414  0.2806 -0.0193  0.2222
   57SOL    HW1  170   1.812   2.406   2.384  1.4442 -0.6162 -0.6109
   57SOL    HW2  171   1.673   2.486   2.456  1.7378 -0.2785 -3.4111
   58SOL     OW  172   0.651   0.271   1.131  0.2445  0.1412 -0.1065
   58SOL    HW1  173   0.568   0.285   1.188  1.7074 -1.3728  0.8997
   58SOL    HW2  174   0.669   0.169   1.127 -0.7054  0.7184 -1.5676
   59SOL     OW  175   0.425   2.409   2.730  0.7049 -0.0308 -0.0645
   59SOL    HW1  176   0.449   2.307   2.699 -0.6615 -0.3139  1.3984
   59SOL    HW2  177   0.482   2.446   2.806 -1.1880  2.3671 -0.2677
   60SOL     OW  178   2.289   2.129   2.340 -0.1918 -0.2183  0.2194
   60SOL    HW1  179   2.349   2.146   2.253  1.0150  0.0669 -1.9120
   60SOL    HW2  180   2.325   2.181   2.425 -0.7375  1.8453  0.8539
   61SOL     OW  181   1.223   0.641   0.469  0.1432  0.1163  1.0276
   61SOL    HW1  182   1.128   0.685   0.477 -0.2787  1.4806  1.0882
   61SOL    HW2  183   1.253   0.647   0.368  2.4191  0.1583 -3.3645
   62SOL     OW  184   2.713   1.731   2.784 -0.1261  0.1504 -0.6407
   62SOL    HW1  185   2.664   1.669   2.719 -0.4718 -2.6613  1.4396
   62SOL    HW2  186   2.816   1.708   2.799 -1.1089  1.4672  1.7654
   63SOL     OW  187   0.555   0.901   0.192  0.0534  0.4707  0.3176
   63SOL    HW1  188   0.599   0.969   0.125 -1.0351 -1.0578 -1.9333
   63SOL    HW2  189   0.625   0.877   0.266  0.5881 -0.4477 -1.0712
   64SOL     OW  190   3.043   0.553   2.361 -0.3486  0.7309 -0.1573
   64SOL    HW1  191   2.972   0.610   2.416 -0.9853  1.5206  0.8550
   64SOL    HW2  192   3.074   0.617   2.281  2.1292  3.4574 -1.5088
   65SOL     OW  193   0.207   1.446   0.699 -0.2908 -0.0976 -0.0177
   65SOL    HW1  194   0.216   1.525   0.770 -1.3541 -2.2904  0.8801
   65SOL    HW2  195   0.258   1.480   0.617  1.1095 -1.3767  0.1747
   66SOL     OW  196   2.537   0.393   0.526 -0.1477  0.2664 -0.0228
   66SOL    HW1  197   2.639   0.374   0.515  1.6040 -0.8548 -0.9402
   66SOL    HW2  198   2.491   0.331   0.590 -0.3615  2.7428 -1.3856
   67SOL     OW  199   0.643   2.481   1.446  0.2639 -0.6382 -0.0483
   67SOL    HW1  200   0.732   2.446   1.493 -0.8664  1.8846  1.7081
   67SOL    HW2  201   0.570   2.409   1.438 -1.7897 -0.0762  1.1871
   68SOL     OW  202   0.997   1.066   2.507  0.3389 -0.2756 -0.5630
   68SOL    HW1  203   1.071   1.004   2.465  0.8408  0.6259  0.1815
   68SOL    HW2  204   0.929   1.106   2.433 -4.7269 -0.2011  2.7417
   69SOL     OW  205   0.764   2.733   2.218  0.7073  0.2384  0.3176
   69SOL    HW1  206   0.792   2.640   2.181 -0.0190  0.1945  0.3184
   69SOL    HW2  207   0.661   2.731   2.233 -0.8252 -1.6750 -1.9950
   70SOL     OW  208   0.447   0.113   2.525 -0.0711  0.1866 -0.5510
   70SOL    HW1  209   0.366   0.069   2.570 -0.9015 -4.3605 -0.0020
   70SOL    HW2  210   0.527   0.049   2.539  0.9811  0.6736  0.0656
   71SOL     OW  211   1.117   1.789   0.314 -0.4601 -0.2285 -0.7670
   71SOL    HW1  212   1.060   1.719   0.370 -1.9812 -1.1351  3.0234
   71SOL    HW2  213   1.071   1.819   0.226 -0.2104 -3.0010  0.8770
   72SOL     OW  214   1.820   0.181   2.175 -0.1947  0.0790 -0.2903
   72SOL    HW1  215   1.858   0.273   2.181  0.5401 -1.0094  1.4867
   72SOL    HW2  216   1.888   0.104   2.204  1.9580 -0.7794  2.5540
   73SOL     OW  217   2.796   2.162   2.378 -0.1886 -0.2399  0.3936
   73SOL    HW1  218   2.800   2.064   2.342  0.6750 -1.0234 -1.5317
   73SOL    HW2  219   2.828   2.164   2.478 -0.9345 -1.3841  1.7052
   74SOL     OW  220   2.665   2.869   2.186  0.3113  0.0311  0.3678
   74SOL    HW1  221   2.687   2.825   2.274  1.6823  1.1146  1.0582
   74SOL    HW2  222   2.755   2.917   2.149  1.1568  0.3267  0.1614
   75SOL     OW  223   0.961   0.849   1.058 -0.1859  0.8942  0.4560
   75SOL    HW1  224   0.877   0.905   1.025 -0.5262 -0.5006 -0.1679
   75SOL    HW2  225   0.991   0.858   1.158  1.5110 -1.8152 -0.5448
   76SOL     OW  226   1.852   1.239   2.438  0.4225  0.6234  0.2036
   76SOL    HW1  227   1.757   1.276   2.459 -1.2467 -1.4930  1.8863
   76SOL    HW2  228   1.911   1.322   2.426  0.4572  0.1529  1.2482
   77SOL     OW  229   2.921   0.935   1.037 -0.1613  0.0465  0.3329
   77SOL    HW1  230   2.897   0.842   0.995 -0.6256  0.7436 -0.1643
   77SOL    HW2  231   3.001   0.935   1.108 -0.1941 -0.7272 -1.7795
   78SOL     OW  232   2.013   1.386   1.396  0.2560 -0.5042 -0.6257
   78SOL    HW1  233   2.108   1.416   1.425  0.6935 -0.8191 -1.8311
   78SOL    HW2  234   1.966   1.467   1.352 -1.8531 -1.3378  3.4041
   79SOL     OW  235   0.664   1.414   0.791  0.2416 -0.3897  0.1053
   79SOL    HW1  236   0.564   1.398   0.814 -1.6300  1.7067 -0.9287
   79SOL    HW2  237   0.706   1.345   0.734  1.6768  1.3499  1.2341
   80SOL     OW  238   0.630   0.500   1.504  0.0784  0.0376 -0.1227
   80SOL    HW1  239   0.696   0.550   1.443 -0.0415  0.1956 -0.9007
   80SOL    HW2  240   0.607   0.404   1.479  0.6241 -2.1984  2.6341
   81SOL     OW  241   0.997   1.310   2.601  0.1803  0.3397  0.3069
   81SOL    HW1  242   0.991   1.207   2.599  0.8249 -0.8872  1.8353
   81SOL    HW2  243   0.946   1.353   2.525  0.1502 -0.6366  0.7064
   82SOL     OW  244   1.004   2.847   1.542  0.3758 -0.6129  0.2772
   82SOL    HW1  245   0.993   2.748   1.521 -0.8255 -0.0747 -0.2730
   82SOL    HW2  246   0.996   2.912   1.463  0.7618  1.6331  0.8927
   83SOL     OW  247   2.548   2.378   0.880 -0.0489  0.3255  0.2589
   83SOL    HW1  248   2.473   2.333   0.831 -0.8149 -0.6592 -3.2594
   83SOL    HW2  249   2.537   2.481   0.876 -0.2469 -0.4487  0.3315
   84SOL     OW  250   0.733   0.016   2.360  0.3508  0.1396 -0.7424
   84SOL    HW1  251   0.695  -0.040   2.438  0.2807  0.7068 -0.0959
   84SOL    HW2  252   0.813  -0.030   2.307  2.7023 -1.7671  1.1472
   85SOL     OW  253   0.286   1.634   1.433 -0.1935 -0.1128 -0.2323
   85SOL    HW1  254   0.245   1.730   1.440 -1.7228 -0.3985 -2.0166
   85SOL    HW2  255   0.327   1.606   1.527  3.3447 -3.1987  1.1030
   86SOL     OW  256   0.437   1.060   1.535 -0.0833  0.0402  0.3652
   86SOL    HW1  257   0.381   1.003   1.470  1.5906  0.5397  3.2659
   86SOL    HW2  258   0.533   1.019   1.551 -1.5105  0.4603  3.6703
   87SOL     OW  259   1.648   0.669   0.268 -0.2050 -0.0199 -0.0049
   87SOL    HW1  260   1.714   0.742   0.274 -3.6619 -1.0398 -2.1937
   87SOL    HW2  261   1.622   0.649   0.170  0.7582  1.5044  3.0368
   88SOL     OW  262   1.580   1.359   0.266  1.0946  0.1329  0.7911
   88SOL    HW1  263   1.646   1.278   0.262  0.4496 -0.5642 -1.2995
   88SOL    HW2  264   1.481   1.334   0.275 -0.2240 -0.5571 -0.4901
   89SOL     OW  265   3.082   0.297   0.631  0.5101  0.1851  0.2700
   89SOL    HW1  266   3.157   0.236   0.589 -0.9332  2.7192  1.8264
   89SOL    HW2  267   2.988   0.268   0.607  0.4439  1.0344  0.4299
   90SOL     OW  268   0.804   1.581   0.139 -0.1491 -0.3212  0.7381
   90SOL    HW1  269   0.859   1.507   0.095 -0.2778  0.6677  1.2687
   90SOL    HW2  270   0.718   1.607   0.087 -2.7461  1.0673  0.8300
   91SOL     OW  271   1.215   1.465   1.771  0.2195  0.1072  0.2606
   91SOL    HW1  272   1.204   1.513   1.863 -0.0546  1.4333  0.5383
   91SOL    HW2  273   1.302   1.407   1.765  1.8375 -3.4736 -1.1569
   92SOL     OW  274   0.015   0.950   1.232 -0.0748  0.1135 -0.0215
   92SOL    HW1  275   0.065   1.037   1.201 -1.5182 -0.3108  0.9970
   92SOL    HW2  276   0.002   0.940   1.336  1.4988 -2.5269 -1.3627
   93SOL     OW  277   3.086   2.723   0.038 -0.2256 -0.3037  0.2039
   93SOL    HW1  278   3.039   2.721  -0.056  2.7027  0.2865 -0.6592
   93SOL    HW2  279   3.093   2.631   0.088 -0.3714  2.2385  0.8178
   94SOL     OW  280   1.492   1.415   1.753 -0.3155 -0.1550 -0.5355
   94SOL    HW1  281   1.556   1.341   1.788  0.1706 -0.7669  0.6802
   94SOL    HW2  282   1.521   1.513   1.770 -0.3599 -1.8461  0.2338
   95SOL     OW  283   1.399   2.505   2.958 -0.1792 -0.2655 -0.0873
   95SOL    HW1  284   1.304   2.526   3.004 -1.5945 -1.9475  2.8367
   95SOL    HW2  285   1.396   2.412   2.911 -0.0986  0.2752 -2.1380
   96SOL     OW  286   0.562   2.106   1.304  0.0790 -0.1366 -0.1323
   96SOL    HW1  287   0.498   2.070   1.232 -0.8875  1.3180 -2.5439
   96SOL    HW2  288   0.630   2.037   1.339  0.0188 -1.5206 -1.6049
   97SOL     OW  289   0.305   1.613   2.437 -0.0130  0.3956 -0.2336
   97SOL    HW1  290   0.256   1.673   2.371 -0.1593  0.0035 -0.4314
   97SOL    HW2  291   0.298   1.638   2.540  0.4512  0.5036  0.0278
   98SOL     OW  292   2.172   1.615   1.202  0.2566  0.0207  0.3158
   98SOL    HW1  293   2.083   1.563   1.192  1.6072 -0.2080  0.6342
   98SOL    HW2  294   2.259   1.581   1.152  2.0395  1.4869 -1.2375
   99SOL     OW  295   2.566   2.118   1.308 -0.2350  0.6513  0.2021
   99SOL    HW1  296   2.608   2.143   1.401 -0.4648  0.0292  0.1468
   99SOL    HW2  297   2.527   2.023   1.301 -0.9009 -0.9525 -0.5298
  100SOL     OW  298   2.305   0.410   2.108  0.1403  0.0672 -0.1710
  100SOL    HW1  299   2.246   0.413   2.192 -1.1651  1.1934 -0.5232
  100SOL    HW2  300   2.403   0.397   2.129 -1.1714 -1.8095  2.8692
  101SOL     OW  301   0.396   1.534   0.509 -0.2202  0.2132  0.2663
  101SOL    HW1  302   0.408   1.621   0.560 -1.7597 -2.3705 -1.8766
  101SOL    HW2  303   0.468   1.520   0.432  1.3490 -2.0464  3.7589
  102SOL     OW  304   2.300   1.072   0.821 -0.0334 -0.0535  0.2120
  102SOL    HW1  305   2.235   0.997   0.783 -1.0661 -1.0544 -1.2634
  102SOL    HW2  306   2.401   1.064   0.788 -1.4807 -1.6437 -0.8162
  103SOL     OW  307   2.237   0.078   0.339  0.0911 -0.7853 -0.6176
  103SOL    HW1  308   2.276   0.137   0.260 -0.6514 -0.4952  0.2959
  103SOL    HW2  309   2.300   0.066   0.421  0.1116  1.8359 -0.0889
  104SOL     OW  310   0.048   1.882   2.092  0.3523 -0.6708 -0.1533
  104SOL    HW1  311   0.088   1.840   2.005  1.2168  0.9323 -0.4043
  104SOL    HW2  312  -0.059   1.876   2.101 -2.3323 -1.7614  2.6736
  105SOL     OW  313   1.287   2.098   0.783  0.6138  0.0820 -0.4696
  105SOL    HW1  314   1.280   2.131   0.686  1.4626 -1.4263 -0.8911
  105SOL    HW2  315   1.315   2.000   0.785 -0.2004 -1.8877 -0.2795
  106SOL     OW  316   2.077   0.400   1.403  0.3818  0.4552 -0.1470
  106SOL    HW1  317   2.020   0.313   1.398  1.3884  2.1668 -3.6874
  106SOL    HW2  318   2.086   0.436   1.499 -0.9094  0.1391 -1.4905
  107SOL     OW  319   1.981   2.941   1.192  0.1267 -0.0541  0.2896
  107SOL    HW1  320   1.921   3.023   1.216  0.8343  0.4430  0.4053
  107SOL    HW2  321   1.928   2.867   1.142 -3.6033 -0.2294  1.1544
  108SOL     OW  322   0.876   2.834   1.169  0.1528 -0.3246  0.3328
  108SOL    HW1  323   0.878   2.734   1.200  0.8269 -1.1733 -2.5108
  108SOL    HW2  324   0.970   2.879   1.182  1.2411 -0.3319 -1.8939
  109SOL     OW  325   2.152   0.156   0.775 -0.3742  0.4667 -0.5589
  109SOL    HW1  326   2.074   0.124   0.713  0.4257 -2.6110 -0.4911
  109SOL    HW2  327   2.159   0.095   0.860  0.8250 -0.0368 -0.0461
  110SOL     OW  328   0.465   2.797   2.778 -0.3303 -0.0611  0.3138
  110SOL    HW1  329   0.432   2.770   2.681  0.3743 -1.2935 -1.8065
  110SOL    HW2  330   0.531   2.732   2.809 -1.4261  1.7582  1.3372
  111SOL     OW  331   1.285   0.494   2.332 -0.4996 -0.1486 -0.1345
  111SOL    HW1  332   1.191   0.516   2.362  0.6060  0.0162 -2.4299
  111SOL    HW2  333   1.340   0.444   2.406 -0.4586  0.0704  2.3772
  112SOL     OW  334   1.776   0.417   1.498  0.2098 -0.3393  0.4273
  112SOL    HW1  335   1.739   0.443   1.400 -1.9496 -0.1634  0.4530
  112SOL    HW2  336   1.701   0.391   1.562  0.4158 -0.3274  4.1875
  113SOL     OW  337   2.400   1.690   1.717  0.5676 -0.4576 -0.0327
  113SOL    HW1  338   2.415   1.589   1.722 -2.2194  0.7609  1.1751
  113SOL    HW2  339   2.410   1.733   1.808 -1.3424 -1.9014 -0.6785
  114SOL     OW  340   0.287   0.498   1.195 -0.3829 -0.7374 -0.0121
  114SOL    HW1  341   0.366   0.550   1.140  0.0243  1.2649  0.7592
  114SOL    HW2  342   0.216   0.567   1.229 -0.5143 -2.1226  1.4650
  115SOL     OW  343   2.789   1.518   1.261 -0.4231  0.2548 -0.6364
  115SOL    HW1  344   2.777   1.414   1.259 -1.1152 -0.5269 -2.5434
  115SOL    HW2  345   2.863   1.553   1.201  3.6413  0.3166 -0.2130
  116SOL     OW  346   1.903   0.957   0.676  0.4805 -0.7929  0.3185
  116SOL    HW1  347   1.811   0.908   0.660 -2.6481  3.9516 -0.6720
  116SOL    HW2  348   1.880   1.059   0.687 -1.7351 -0.6900 -1.0214
  117SOL     OW  349   1.133   0.373   0.567 -0.1106 -0.2500 -0.1476
  117SOL    HW1  350   1.178   0.465   0.537 -0.1858  2.0646 -1.5027
  117SOL    HW2  351   1.146   0.303   0.498  0.7573  1.5697 -0.6059
  118SOL     OW  352   1.095   1.201   1.125  0.1437 -0.3379 -0.1086
  118SOL    HW1  353   1.027   1.167   1.195 -1.9643  2.4149 -0.0866
  118SOL    HW2  354   1.130   1.292   1.156 -0.6838 -1.2038  0.8221
  119SOL     OW  355   1.861   1.598   2.200  0.5146 -0.4002  0.0152
  119SOL    HW1  356   1.814   1.679   2.157 -0.7437  1.2475 -0.6805
  119SOL    HW2  357   1.960   1.591   2.174 -0.6631 -0.5942  1.1541
  120SOL     OW  358   2.906   2.799   0.240 -0.0250 -0.0938  0.0932
  120SOL    HW1  359   2.969   2.792   0.157  1.0782 -2.7948 -1.5318
  120SOL    HW2  360   2.813   2.756   0.233 -2.3400  0.7169  2.2949
  121SOL     OW  361   1.856   0.732   2.156  0.4036  0.4043  0.5747
  121SOL    HW1  362   1.889   0.806   2.092 -2.7267  1.7286  0.8087
  121SOL    HW2  363   1.877   0.639   2.115 -2.1804 -0.0565 -0.3867
  122SOL     OW  364   2.592   2.501   1.341 -0.2644  0.0033  0.2242
  122SOL    HW1  365   2.658   2.447   1.276  3.7160  0.3867  1.7703
  122SOL    HW2  366   2.595   2.477   1.442 -2.0337  2.9319 -1.4519
  123SOL     OW  367   1.715   0.132   1.719 -0.1560  0.6117  0.4669
  123SOL    HW1  368   1.718   0.051   1.662  0.6262  1.3259 -1.2843
  123SOL    HW2  369   1.809   0.166   1.736 -2.0553 -0.4553  1.7257
  124SOL     OW  370   3.048   0.470   1.110  0.0181 -0.0081  0.2430
  124SOL    HW1  371   2.975   0.523   1.159  0.1485  0.6616  0.3631
  124SOL    HW2  372   3.072   0.500   1.013  0.4173 -0.5172 -2.2384
  125SOL     OW  373   0.902   1.912   0.764  0.2364 -0.2115  0.0423
  125SOL    HW1  374   0.997   1.870   0.767 -0.4553  2.4966 -0.1269
  125SOL    HW2  375   0.846   1.889   0.848 -0.9295 -2.4302  2.8553
  126SOL     OW  376   1.962   2.269   2.440  0.1378  0.2148  1.0700
  126SOL    HW1  377   2.024   2.216   2.372 -1.2021 -0.4134 -0.4504
  126SOL    HW2  378   1.936   2.202   2.520  1.0988 -1.6164  1.0627
  127SOL     OW  379   0.895   0.974   0.207  0.1830  0.0665  0.6440
  127SOL    HW1  380   0.939   1.019   0.289 -0.3973 -2.8692  0.1536
  127SOL    HW2  381   0.922   0.872   0.197 -2.0176 -0.5324  1.3917
  128SOL     OW  382   0.947   0.268   1.416 -0.0156 -0.2408 -0.0930
  128SOL    HW1  383   0.907   0.343   1.354  1.0373  2.6941 -2.4203
  128SOL    HW2  384   0.888   0.181   1.415  1.1538 -5.0710  0.5073
  129SOL     OW  385   1.873   0.657   1.850  0.0827  0.4534 -0.2201
  129SOL    HW1  386   1.884   0.649   1.748 -3.3559 -0.6036  0.8068
  129SOL    HW2  387   1.903   0.751   1.888  1.5273 -3.2510 -2.0544
  130SOL     OW  388   1.419   2.252   1.005 -0.1798 -0.0695  0.1699
  130SOL    HW1  389   1.379   2.207   0.921 -0.0461 -1.9159  1.5285
  130SOL    HW2  390   1.494   2.325   0.981  1.6309 -0.0785 -3.3113
  131SOL     OW  391   3.049   1.395   1.356 -0.0619  0.9587  0.0688
  131SOL    HW1  392   3.006   1.317   1.405 -0.3568  0.6756  1.4781
  131SOL    HW2  393   3.143   1.415   1.392  2.7094  3.9313 -0.0118
  132SOL     OW  394   2.048   2.378   0.515 -0.2947 -0.4731  0.5941
  132SOL    HW1  395   1.960   2.435   0.510 -1.3292 -0.4180  0.6304
  132SOL    HW2  396   2.037   2.291   0.571  0.1292  0.6071 -3.0304
  133SOL     OW  397   1.791   2.344   2.726  0.4634  0.0901 -0.3132
  133SOL    HW1  398   1.696   2.360   2.693  0.4231  4.3692  0.2360
  133SOL    HW2  399   1.860   2.421   2.711 -0.9526  0.6951 -1.4736
  134SOL     OW  400   2.683   2.376   1.599  0.3089  0.1230  0.3825
  134SOL    HW1  401   2.621   2.380   1.683  0.2794  1.0813 -0.9399
  134SOL    HW2  402   2.777   2.418   1.605  0.4326 -0.7575 -1.5301
  135SOL     OW  403   0.691   1.443   2.674  0.1380 -0.7114  0.4167
  135SOL    HW1  404   0.708   1.370   2.748  0.0048  0.5660  0.4314
  135SOL    HW2  405   0.697   1.411   2.576  0.8060 -0.5968  3.6827
  136SOL     OW  406   1.207   2.014   0.439 -0.4203 -0.0992 -0.5791
  136SOL    HW1  407   1.127   2.080   0.443 -0.4340  1.6823  0.8291
  136SOL    HW2  408   1.172   1.917   0.413  0.6573  0.9341 -3.9128
  137SOL     OW  409   0.406   1.216   2.237 -0.0825  0.5814 -0.4559
  137SOL    HW1  410   0.306   1.219   2.270  2.8650 -0.7490 -0.3422
  137SOL    HW2  411   0.444   1.118   2.240  0.3732  0.1226  0.0447
  138SOL     OW  412   2.446   1.552   0.309 -0.0513  0.1290 -0.0894
  138SOL    HW1  413   2.375   1.507   0.251  0.0931 -0.5322 -0.4037
  138SOL    HW2  414   2.495   1.477   0.360  0.3218 -1.9770 -1.3220
  139SOL     OW  415   1.851   2.636   1.514  0.3500  0.2281  0.4637
  139SOL    HW1  416   1.754   2.649   1.469 -0.2270  2.0590 -0.3063
  139SOL    HW2  417   1.907   2.562   1.463  1.2416 -0.3539  1.8132
  140SOL     OW  418   3.002   2.983   2.604 -0.0883 -0.0871  0.1867
  140SOL    HW1  419   3.063   2.899   2.580  1.6060  0.5705  2.5650
  140SOL    HW2  420   3.047   3.074   2.579 -1.1305 -2.5594  1.0539
  141SOL     OW  421   1.333   1.634   1.570 -0.2507 -0.2397  0.0097
  141SOL    HW1  422   1.236   1.669   1.543 -0.8151 -0.9236 -3.1170
  141SOL    HW2  423   1.326   1.559   1.642 -0.9167 -0.8033 -0.0403
  142SOL     OW  424   1.518   0.619   2.231  0.2490  0.4304  0.0644
  142SOL    HW1  425   1.561   0.598   2.138  1.6846 -0.2914  0.2566
  142SOL    HW2  426   1.422   0.590   2.245  2.0435 -0.3152  0.0197
  143SOL     OW  427   2.778   0.812   0.556  0.6565  0.5601 -0.0043
  143SOL    HW1  428   2.847   0.838   0.491 -0.7793 -0.1421  0.2328
  143SOL    HW2  429   2.802   0.841   0.654  1.8940 -0.8309 -2.2794
  144SOL     OW  430   2.902   1.179   1.477  0.0214  0.1654 -0.5959
  144SOL    HW1  431   2.866   1.189   1.576 -2.8235  2.2088  0.1656
  144SOL    HW2  432   2.960   1.094   1.461  2.3057  0.8360 -0.5646
  145SOL     OW  433   0.940   1.825   0.126 -0.6820  0.2617 -0.3678
  145SOL    HW1  434   0.947   1.842   0.026  4.3605  0.3484  0.6199
  145SOL    HW2  435   0.895   1.732   0.149 -2.2615  2.1297 -0.9270
  146SOL     OW  436   2.452   0.668   1.490  0.1552  0.0413  0.2574
  146SOL    HW1  437   2.398   0.585   1.465  4.2594 -0.2578 -0.8962
  146SOL    HW2  438   2.410   0.759   1.459  1.4924  0.3426 -0.6491
  147SOL     OW  439   1.092   2.518   0.577  0.2327  0.3704 -0.3074
  147SOL    HW1  440   1.050   2.573   0.501 -1.1496  0.4803  1.5842
  147SOL    HW2  441   1.183   2.468   0.554 -0.0085 -1.2410 -0.4964
  148SOL     OW  442   1.586   1.459   0.009 -0.4152  0.2109 -0.6148
  148SOL    HW1  443   1.568   1.389  -0.062 -0.0767 -0.5920  0.5028
  148SOL    HW2  444   1.578   1.421   0.104 -0.5893  0.5670 -1.6165
  149SOL     OW  445   0.690   1.498   1.958  0.4395  0.3290  0.7408
  149SOL    HW1  446   0.593   1.464   1.976 -0.9070  0.9437  1.3527
  149SOL    HW2  447   0.736   1.443   1.883  2.2893  0.6583 -0.0810
  150SOL     OW  448   3.033   1.212   0.972 -0.0845 -0.3418  0.0486
  150SOL    HW1  449   3.096   1.226   1.049 -1.4907 -1.2191 -2.4915
  150SOL    HW2  450   2.970   1.132   0.984 -0.4703  1.8714  1.3110
  151SOL     OW  451   0.268   0.815   2.052  1.1303 -0.1558 -0.4571
  151SOL    HW1  452   0.280   0.897   1.989 -0.4032  0.2513  0.0987
  151SOL    HW2  453   0.302   0.723   2.014  0.4488  1.9525 -2.4445
  152SOL     OW  454   1.434   1.818   1.167 -0.2965  0.7361 -0.9247
  152SOL    HW1  455   1.486   1.909   1.176  0.1475 -0.7083 -0.6662
  152SOL    HW2  456   1.338   1.832   1.140  1.5662  1.3879  0.4085
  153SOL     OW  457   0.195   1.519   0.207 -0.4854  0.0610  0.1323
  153SOL    HW1  458   0.160   1.421   0.200 -0.0109 -3.6032  0.9659
  153SOL    HW2  459   0.163   1.568   0.295 -0.7996  0.7913  2.1027
  154SOL     OW  460   2.288   1.865   2.781 -0.1822 -0.7680 -0.3200
  154SOL    HW1  461   2.311   1.765   2.782 -2.5113 -0.7895  1.1517
  154SOL    HW2  462   2.363   1.916   2.729 -0.9230 -1.9223  1.4874
  155SOL     OW  463   2.454   1.247   0.349 -0.6429  0.0261 -0.3296
  155SOL    HW1  464   2.543   1.199   0.348 -1.7707 -2.1927  0.5102
  155SOL    HW2  465   2.373   1.183   0.330  0.5037 -0.3397 -0.3626
  156SOL     OW  466   2.465   0.820   0.735  0.1824 -0.5477 -0.2480
  156SOL    HW1  467   2.385   0.849   0.795  1.1005  0.6288 -0.4361
  156SOL    HW2  468   2.475   0.886   0.659 -1.9064  0.6264  0.3910
  157SOL     OW  469   1.230   2.959   3.014 -0.1506 -0.4906  0.0094
  157SOL    HW1  470   1.298   2.949   2.939 -1.2293 -2.3762  1.0576
  157SOL    HW2  471   1.245   3.049   3.072 -2.0644 -0.4874  1.0607
  158SOL     OW  472   1.017   1.871   1.830  0.8383 -0.1188 -0.2083
  158SOL    HW1  473   1.048   1.962   1.796  0.8311  0.1014  0.9123
  158SOL    HW2  474   0.955   1.883   1.912  0.7119  1.2421 -0.2346
  159SOL     OW  475   0.868   0.429   1.217 -0.0378  0.2281 -0.0377
  159SOL    HW1  476   0.839   0.524   1.244  2.6444  3.5756 -0.5631
  159SOL    HW2  477   0.791   0.372   1.169 -1.7707  0.2129  0.5398
  160SOL     OW  478   1.374   2.431   1.520  0.6254 -0.4934 -0.1917
  160SOL    HW1  479   1.326   2.352   1.565 -3.3033  1.2840 -2.8932
  160SOL    HW2  480   1.477   2.416   1.512  3.5599  0.8666  0.8683
  161SOL     OW  481   3.056   2.695   0.470 -0.0919 -0.8811  0.2149
  161SOL    HW1  482   3.017   2.603   0.500 -0.6349 -3.4721 -1.3363
  161SOL    HW2  483   3.004   2.719   0.386 -0.9512  0.0803 -1.8902
  162SOL     OW  484   2.571   1.815   0.472 -0.1149  0.3920 -0.3512
  162SOL    HW1  485   2.588   1.826   0.373  1.5173 -1.4037  2.5038
  162SOL    HW2  486   2.557   1.715   0.499  3.5745  0.8133 -2.8431
  163SOL     OW  487   1.946   2.663   0.757 -0.0466  0.0531 -0.2758
  163SOL    HW1  488   1.942   2.679   0.654  1.1588  1.3747  0.6453
  163SOL    HW2  489   1.997   2.576   0.775  0.0204  0.1538 -2.6204
  164SOL     OW  490   3.054   0.244   1.235 -0.5135 -0.4359 -0.7802
  164SOL    HW1  491   3.051   0.336   1.189  2.2340 -0.6847 -1.5312
  164SOL    HW2  492   3.136   0.219   1.291 -1.0149  0.6013 -2.3012
  165SOL     OW  493   1.099   1.420   0.674  0.3367 -0.3316  0.1730
  165SOL    HW1  494   1.085   1.445   0.772 -0.4200 -3.5588 -1.4154
  165SOL    HW2  495   1.112   1.504   0.614  0.5112 -0.0582 -0.9029
  166SOL     OW  496   1.553   1.016   1.767 -0.4533  0.4896  0.2229
  166SOL    HW1  497   1.481   1.015   1.838  2.1085 -2.4286 -0.4597
  166SOL    HW2  498   1.595   1.110   1.760 -1.0239 -1.2386 -1.4493
  167SOL     OW  499   0.783   1.938   1.451 -0.0109  0.3953  0.2605
  167SOL    HW1  500   0.809   2.004   1.531  0.7222  1.9107  2.3234
  167SOL    HW2  501   0.729   1.857   1.483 -1.5847 -0.6114 -0.8178
  168SOL     OW  502   1.568   2.345   0.159 -0.0821  0.0401  0.1245
  168SOL    HW1  503   1.623   2.375   0.071  1.2918 -0.0256 -1.0165
  168SOL    HW2  504   1.629   2.329   0.242  1.2538  0.5769 -0.3332
  169SOL     OW  505   0.080   2.578   2.213  0.1793 -0.0484 -0.3489
  169SOL    HW1  506   0.133   2.532   2.139 -2.2820  3.4082  0.1828
  169SOL    HW2  507   0.127   2.559   2.307  0.6578  1.0178 -0.2554
  170SOL     OW  508   1.142   0.211   2.049  0.4421  0.0731  0.2841
  170SOL    HW1  509   1.224   0.238   2.102 -3.9435 -0.9292 -0.4369
  170SOL    HW2  510   1.155   0.187   1.949  0.9314  1.0354 -0.4332
  171SOL     OW  511   0.222   0.851   2.386 -0.0345  0.2871  0.0929
  171SOL    HW1  512   0.125   0.855   2.409  1.6676  0.0571  0.3641
  171SOL    HW2  513   0.246   0.865   2.285  3.0483 -0.8535 -0.9686
  172SOL     OW  514   0.947   1.020   2.914 -0.0015  0.4357 -0.7737
  172SOL    HW1  515   0.928   1.086   2.994 -0.3972 -0.1261  1.9680
  172SOL    HW2  516   0.862   0.984   2.866 -1.1228  0.2412 -1.1571
  173SOL     OW  517   0.514   2.455   0.152 -0.5019  0.0256 -0.7636
  173SOL    HW1  518   0.497   2.383   0.073  1.0484 -1.0004 -2.2574
  173SOL    HW2  519   0.422   2.489   0.194 -1.7803  1.9683  0.2400
  174SOL     OW  520   1.502   2.860   1.083  0.8048  0.2849  0.1372
  174SOL    HW1  521   1.584   2.908   1.039 -1.3613  0.0911 -0.3125
  174SOL    HW2  522   1.473   2.778   1.025 -2.2603 -2.7233 -0.4622
  175SOL     OW  523   0.417   3.048   1.687 -0.3052  0.3001  0.2275
  175SOL    HW1  524   0.492   3.057   1.760  0.9039 -0.0405  0.5603
  175SOL    HW2  525   0.353   3.130   1.691 -1.4624  0.2805  0.5728
  176SOL     OW  526   2.611   0.357   0.025  0.3517  0.0995 -0.0007
  176SOL    HW1  527   2.627   0.452   0.057 -0.6951 -0.0081 -1.6780
  176SOL    HW2  528   2.587   0.287   0.098  0.5015 -1.9996  1.0390
  177SOL     OW  529   0.327   0.296   0.996  0.1916  0.1548  0.1504
  177SOL    HW1  530   0.286   0.202   1.003  0.0419  1.4799 -0.7201
  177SOL    HW2  531   0.309   0.347   1.087  1.9647  1.1736  0.6719
  178SOL     OW  532   0.013   2.741   2.557  0.3904 -0.0591 -0.2836
  178SOL    HW1  533  -0.003   2.648   2.519 -0.4913  0.8789 -0.3690
  178SOL    HW2  534   0.080   2.736   2.635  0.2478 -0.0891  0.9831
  179SOL     OW  535   3.017   1.547   1.104 -0.6095 -0.5532 -0.1000
  179SOL    HW1  536   3.109   1.585   1.076  0.3638  2.2590  0.8162
  179SOL    HW2  537   3.028   1.472   1.174 -1.1195  0.9061 -1.7915
  180SOL     OW  538   0.200   1.387   1.769  0.0418  0.0518 -0.0532
  180SOL    HW1  539   0.271   1.320   1.799 -3.9858  0.5705 -1.7835
  180SOL    HW2  540   0.135   1.414   1.850 -0.2477 -0.6980 -0.3127
  181SOL     OW  541   2.966   1.946   2.525 -0.5517 -0.2665  0.4177
  181SOL    HW1  542   3.041   2.013   2.482  3.2341  2.7619 -1.9256
  181SOL    HW2  543   2.885   1.916   2.463 -0.8093  0.4361  2.3536
  182SOL     OW  544   2.339   1.279   1.267  0.1546  0.0202 -0.1110
  182SOL    HW1  545   2.258   1.248   1.210  1.1353  0.2305 -0.0137
  182SOL    HW2  546   2.376   1.367   1.247 -1.2817 -2.1041 -0.1993
  183SOL     OW  547   1.378   2.278   2.471 -0.2384  0.9611 -0.5319
  183SOL    HW1  548   1.330   2.188   2.470 -0.2990  1.9407  0.9164
  183SOL    HW2  549   1.478   2.270   2.446  0.7437  0.9034 -2.5735
  184SOL     OW  550   2.157   0.862   0.736  0.7446  0.6088  0.9345
  184SOL    HW1  551   2.058   0.896   0.713 -0.0712 -0.5211 -1.5245
  184SOL    HW2  552   2.168   0.758   0.704 -0.7086 -0.2423 -0.8040
  185SOL     OW  553   1.527   2.746   2.030 -0.0406 -0.1533  0.4128
  185SOL    HW1  554   1.467   2.818   1.988  3.5252  1.1809 -1.0720
  185SOL    HW2  555   1.571   2.777   2.118  0.0297 -0.3072  0.1348
  186SOL     OW  556   0.064   2.193   1.647  0.2765  0.2431 -0.3570
  186SOL    HW1  557   0.046   2.252   1.737 -0.6878  1.2063  3.4140
  186SOL    HW2  558   0.154   2.138   1.653 -0.2231 -1.7200 -1.2994
  187SOL     OW  559   1.361   0.631   1.649 -0.3040 -0.3072  0.6410
  187SOL    HW1  560   1.457   0.676   1.667 -0.9045  0.2904  1.3913
  187SOL    HW2  561   1.355   0.541   1.701  0.2997  1.5143 -3.6420
  188SOL     OW  562   2.787   2.719   1.416 -0.7112 -0.3830 -0.0139
  188SOL    HW1  563   2.776   2.823   1.406 -3.5260  0.4901 -0.1052
  188SOL    HW2  564   2.736   2.672   1.341  1.1854  2.2581 -0.0910
  189SOL     OW  565   0.879   1.184   1.400  0.1768  0.6622 -0.3543
  189SOL    HW1  566   0.962   1.218   1.457  0.1411 -1.4591  0.3911
  189SOL    HW2  567   0.823   1.265   1.372  2.7303 -0.0959  0.5174
  190SOL     OW  568   1.475   1.863   1.549 -0.3359  0.4080  0.1807
  190SOL    HW1  569   1.424   1.772   1.562  0.8765  1.8798  0.7693
  190SOL    HW2  570   1.495   1.904   1.641  1.1534  0.8423 -3.5325
  191SOL     OW  571   0.924   0.822   1.528  0.3442 -0.4120  0.0661
  191SOL    HW1  572   0.960   0.766   1.607 -0.2486 -1.9014 -2.4560
  191SOL    HW2  573   0.990   0.835   1.450  1.5751 -1.4124 -0.0845
  192SOL     OW  574   1.854   2.470   1.104  0.0359 -0.1471  0.3546
  192SOL    HW1  575   1.757   2.470   1.066  0.6841  0.0803 -0.6014
  192SOL    HW2  576   1.920   2.412   1.055  3.3499  0.2408  1.7102
  193SOL     OW  577   0.523   0.529   0.411  0.2289  0.7966  0.3953
  193SOL    HW1  578   0.505   0.430   0.448 -2.6869 -1.4998  1.2004
  193SOL    HW2  579   0.567   0.538   0.320 -0.2900 -0.5355  0.6791
  194SOL     OW  580   0.316   0.912   1.319  0.4083  0.1934 -0.2492
  194SOL    HW1  581   0.234   0.850   1.313 -2.7186 -0.1614  1.0910
  194SOL    HW2  582   0.365   0.930   1.229  1.0121 -1.9219  1.4446
  195SOL     OW  583   0.980   2.893   0.533 -0.7389  0.3240  0.6761
  195SOL    HW1  584   0.967   2.810   0.470  1.6183 -0.1290 -2.1788
  195SOL    HW2  585   1.063   2.948   0.498  1.4986  0.4081 -0.4275
  196SOL     OW  586   0.241   1.357   1.349  0.7646  0.3424  0.0495
  196SOL    HW1  587   0.253   1.455   1.374 -2.1020 -0.6102 -0.1104
  196SOL    HW2  588   0.231   1.294   1.432  0.9576 -1.0401 -2.1933
  197SOL     OW  589   0.825   2.010   0.331  0.0276  0.2990  0.4645
  197SOL    HW1  590   0.802   1.958   0.416 -0.4858 -0.3089 -1.0666
  197SOL    HW2  591   0.862   1.945   0.262  0.8181 -1.2513  0.2640
  198SOL     OW  592   0.286   1.233   0.351  0.0996 -0.0770  0.0347
  198SOL    HW1  593   0.185   1.226   0.329 -1.9893  0.4530  0.3537
  198SOL    HW2  594   0.302   1.324   0.395 -0.6209  1.9794 -0.6868
  199SOL     OW  595   2.278   0.467   2.585 -0.2624  0.2908  0.0074
  199SOL    HW1  596   2.202   0.414   2.635 -1.6589 -1.6014 -0.4841
  199SOL    HW2  597   2.372   0.430   2.616  0.0960  2.9635 -1.8914
  200SOL     OW  598   0.007   2.965   0.809 -0.2986 -0.0415 -0.0326
  200SOL    HW1  599   0.030   3.048   0.872 -0.4001  1.5393  2.1464
  200SOL    HW2  600  -0.076   2.977   0.745 -2.5353  0.2804 -1.6178
  201SOL     OW  601   0.949   0.742   0.515 -0.3913 -0.0461 -0.2332
  201SOL    HW1  602   0.942   0.801   0.598 -2.0057  0.7755  1.1184
  201SOL    HW2  603   0.882   0.656   0.528 -1.8939 -3.1164  0.7000
  202SOL     OW  604   0.414   1.218   1.854  1.2714  0.9560  0.0374
  202SOL    HW1  605   0.497   1.158   1.833 -1.0223 -0.0111  2.0638
  202SOL    HW2  606   0.448   1.290   1.921 -1.6939  0.4307  1.1568
  203SOL     OW  607   0.608   0.227   1.564  0.2499  0.2752 -0.0782
  203SOL    HW1  608   0.619   0.175   1.475  0.5144 -3.1350 -0.5439
  203SOL    HW2  609   0.684   0.204   1.630  1.4221 -1.2854  0.3914
  204SOL     OW  610   2.113   1.813   2.991 -0.2528 -0.2259  0.1897
  204SOL    HW1  611   2.122   1.711   3.020 -0.9723 -1.6622 -0.7992
  204SOL    HW2  612   2.184   1.838   2.912  0.9007  2.0479 -4.5682
  205SOL     OW  613   1.836   1.879   3.095  0.0855  0.4045  0.6903
  205SOL    HW1  614   1.914   1.843   3.038 -0.6181 -1.2070 -1.3946
  205SOL    HW2  615   1.781   1.957   3.051  0.3874  1.1838 -2.0016
  206SOL     OW  616   2.406   2.790   0.378  0.2835 -0.3744 -0.4228
  206SOL    HW1  617   2.411   2.700   0.423 -0.8551  0.4741 -2.0354
  206SOL    HW2  618   2.495   2.815   0.333 -2.6024  0.9486  1.0274
  207SOL     OW  619   0.710   1.745   2.884 -0.0051 -0.2918 -0.4157
  207SOL    HW1  620   0.786   1.671   2.863  1.7507  0.8808  1.3012
  207SOL    HW2  621   0.644   1.708   2.959  2.3287 -0.4307  1.9661
  208SOL     OW  622   1.099   1.679   1.258 -0.3532  0.1959 -0.8064
  208SOL    HW1  623   1.101   1.764   1.198 -0.8913  1.1984  2.2365
  208SOL    HW2  624   1.044   1.686   1.346 -3.2780 -5.9645 -2.7856
  209SOL     OW  625   0.201   0.990   3.093  0.0881  0.1013 -0.2815
  209SOL    HW1  626   0.162   0.926   3.024 -1.3489  1.1268  1.3069
  209SOL    HW2  627   0.211   0.940   3.183 -1.3026  0.6254 -1.0314
  210SOL     OW  628   1.713   0.484   1.228  0.2169 -0.1582  0.1703
  210SOL    HW1  629   1.649   0.566   1.210 -3.8595  0.5856 -0.1741
  210SOL    HW2  630   1.813   0.517   1.220 -1.8095  0.7987 -0.5769
  211SOL     OW  631   2.028   1.022   1.562  0.4470  0.1840  0.4648
  211SOL    HW1  632   2.067   0.948   1.618 -0.4571  1.3248 -5.1477
  211SOL    HW2  633   2.098   1.093   1.532 -0.8262  1.3859 -3.8731
  212SOL     OW  634   0.035   0.970   1.504  0.2925 -0.5663 -0.2101
  212SOL    HW1  635   0.093   1.048   1.548  1.1233  0.4041 -0.6183
  212SOL    HW2  636   0.032   0.880   1.561  1.9732 -0.4987  0.6878
  213SOL     OW  637   2.743   0.232   0.264  0.4102 -0.1250 -0.4132
  213SOL    HW1  638   2.838   0.216   0.238  0.3310  2.3140 -1.3492
  213SOL    HW2  639   2.679   0.152   0.251 -2.7150 -2.5512 -1.0484
  214SOL     OW  640   2.151   0.360   2.335 -0.0502 -0.3023  0.0747
  214SOL    HW1  641   2.206   0.421   2.402  0.1212  0.1925  0.4981
  214SOL    HW2  642   2.154   0.266   2.368 -0.7334  2.4970 -0.8702
  215SOL     OW  643   1.673   2.273   2.097 -0.6238  0.2023 -0.1959
  215SOL    HW1  644   1.771   2.304   2.087 -1.0126  0.4266  1.4380
  215SOL    HW2  645   1.612   2.349   2.137 -0.2605  0.5276  1.9594
  216SOL     OW  646   2.164   0.604   0.636 -0.3046  0.4408 -0.8693
  216SOL    HW1  647   2.142   0.501   0.620  0.0669 -4.5516 -3.8503
  216SOL    HW2  648   2.189   0.653   0.547  1.0368 -0.9709 -2.2822
  217SOL     OW  649   0.895   2.824   2.530  0.4382  0.3370  0.1897
  217SOL    HW1  650   0.902   2.745   2.598  4.9501  1.4866  0.8679
  217SOL    HW2  651   0.848   2.798   2.445  2.1569  1.1581  3.0594
  218SOL     OW  652   1.883   1.463   0.064 -0.3317 -0.0411 -0.2105
  218SOL    HW1  653   1.779   1.454   0.051 -1.0988  0.1650 -2.0415
  218SOL    HW2  654   1.924   1.379   0.115  0.7609 -1.9112  1.1669
  219SOL     OW  655   2.487   1.287   2.535  0.2698 -0.1994  0.2158
  219SOL    HW1  656   2.536   1.249   2.455 -3.1507 -1.1246  0.0582
  219SOL    HW2  657   2.479   1.221   2.610 -1.7468  1.1193 -1.9380
  220SOL     OW  658   1.428   1.027   1.407  0.1998 -0.3478  0.4561
  220SOL    HW1  659   1.523   0.983   1.396  0.0853 -3.8905 -0.9646
  220SOL    HW2  660   1.378   1.043   1.313 -2.4908  0.7240  0.3666
  221SOL     OW  661   1.338   0.946   2.202  0.4629 -0.1206 -0.1283
  221SOL    HW1  662   1.336   0.976   2.106  2.5806 -1.7437 -1.4936
  221SOL    HW2  663   1.429   0.979   2.249  2.8188  2.5674 -1.1037
  222SOL     OW  664   1.091   0.146   1.226 -0.4180  0.1230  0.6170
  222SOL    HW1  665   1.048   0.208   1.295  0.7159 -0.3563  1.5179
  222SOL    HW2  666   1.092   0.184   1.129  1.4140  0.0591 -1.3416
  223SOL     OW  667   2.700   0.914   2.101  0.0880 -0.3910 -0.5668
  223SOL    HW1  668   2.659   0.998   2.136  1.1610 -1.5808 -0.0960
  223SOL    HW2  669   2.804   0.913   2.111  0.0766  0.3224 -2.1706
  224SOL     OW  670   1.484   1.050   2.719  0.8441 -0.4555 -0.0793
  224SOL    HW1  671   1.537   0.976   2.675 -1.0810  2.5977  3.7813
  224SOL    HW2  672   1.513   1.146   2.693 -0.7413  2.3429  1.4602
  225SOL     OW  673   2.974   2.681   2.870 -0.0864 -0.5644 -0.4156
  225SOL    HW1  674   2.895   2.673   2.808  0.5299 -2.2187 -0.7387
  225SOL    HW2  675   3.047   2.745   2.836 -0.4903  3.2505 -0.3963
  226SOL     OW  676   2.379   1.619   2.777 -0.0021 -0.0978 -0.1585
  226SOL    HW1  677   2.442   1.582   2.708 -0.1462  2.6390 -1.4748
  226SOL    HW2  678   2.358   1.543   2.845 -1.1704  0.1046 -0.9694
  227SOL     OW  679   0.860   0.234   3.069  0.1092  0.3616  0.4130
  227SOL    HW1  680   0.897   0.332   3.067 -1.1552  2.9445 -0.9803
  227SOL    HW2  681   0.791   0.219   2.990  0.6059 -2.3039 -0.9261
  228SOL     OW  682   2.406   0.599   2.817  0.2445  0.0067 -0.4010
  228SOL    HW1  683   2.445   0.678   2.764 -0.0615 -1.3874  0.9047
  228SOL    HW2  684   2.489   0.536   2.833  2.4076  0.8179  0.5746
  229SOL     OW  685   0.561   0.464   1.786 -0.5336  0.1855  0.0190
  229SOL    HW1  686   0.584   0.373   1.834  0.0330 -1.1094 -1.5280
  229SOL    HW2  687   0.600   0.466   1.693  0.6046  2.3784  3.0097
  230SOL     OW  688   1.871   1.211   2.036  0.0131  0.1081  0.5555
  230SOL    HW1  689   1.946   1.274   2.000  1.3304  0.2629  3.0739
  230SOL    HW2  690   1.793   1.259   2.089  0.7010  0.7156  1.4786
  231SOL     OW  691   0.676   1.061   3.092  0.3496 -0.2044 -0.1000
  231SOL    HW1  692   0.746   1.140   3.101 -3.3138 -0.7352 -0.1046
  231SOL    HW2  693   0.580   1.096   3.092 -2.6875  2.4989 -1.4024
  232SOL     OW  694   2.457   2.998   2.821  0.0588  0.3674 -0.1087
  232SOL    HW1  695   2.502   2.903   2.840 -1.1352 -0.8240  1.3410
  232SOL    HW2  696   2.489   3.034   2.725  0.9834  1.2813 -1.1424
  233SOL     OW  697   1.761   1.255   1.226 -0.2371 -0.0720 -0.2831
  233SOL    HW1  698   1.801   1.267   1.133 -0.1114 -0.4768  0.5552
  233SOL    HW2  699   1.770   1.159   1.256  2.0668  2.5436  0.6889
  234SOL     OW  700   1.612   2.533   1.842  0.5397  0.5018 -0.0799
  234SOL    HW1  701   1.590   2.582   1.926 -0.0191 -1.4091 -1.2915
  234SOL    HW2  702   1.567   2.436   1.843 -1.4907  3.1754 -0.1265
  235SOL     OW  703   0.027   2.976   2.873 -0.1346 -0.5542  0.0160
  235SOL    HW1  704  -0.051   2.985   2.801  1.2366 -1.8679  0.3406
  235SOL    HW2  705   0.002   3.025   2.963 -1.6701  1.6056  2.7036
  236SOL     OW  706   2.897   0.685   0.114  0.3454 -0.5624  0.1197
  236SOL    HW1  707   2.971   0.730   0.173  0.1014 -2.8648 -0.0911
  236SOL    HW2  708   2.926   0.591   0.077  2.7375 -1.3093 -1.8448
  237SOL     OW  709   1.471   1.642   0.954 -0.4919  0.4419  0.2210
  237SOL    HW1  710   1.570   1.609   0.930  0.5407 -1.1578 -0.4184
  237SOL    HW2  711   1.464   1.705   1.035  1.2271  1.3079 -2.3930
  238SOL     OW  712   1.889   1.234   0.760 -0.2447 -0.0595 -0.4945
  238SOL    HW1  713   1.924   1.248   0.856  0.8960 -0.3499  1.6315
  238SOL    HW2  714   1.791   1.269   0.736 -0.7658 -0.5942  1.7078
  239SOL     OW  715   2.057   0.296   2.767 -0.6474 -0.5428  0.1756
  239SOL    HW1  716   2.103   0.245   2.840 -1.3184  2.4528 -1.3681
  239SOL    HW2  717   1.972   0.354   2.792  0.2875  3.2790  0.0841
  240SOL     OW  718   0.925   0.684   0.220 -0.0002  0.5987 -0.3949
  240SOL    HW1  719   0.981   0.601   0.185  0.1061 -2.7391  3.8082
  240SOL    HW2  720   0.926   0.701   0.325 -1.4333  0.5267  2.6669
  241SOL     OW  721   0.586   0.081   0.399  0.1017 -0.0759 -0.2957
  241SOL    HW1  722   0.620   0.155   0.340 -0.8585 -2.8978  0.6970
  241SOL    HW2  723   0.593  -0.012   0.347 -0.9310 -0.3035  0.2424
  242SOL     OW  724   0.622   2.569   1.175 -0.2388 -0.0251  0.5569
  242SOL    HW1  725   0.635   2.553   1.276  0.0641 -0.9095 -0.1795
  242SOL    HW2  726   0.602   2.668   1.156  2.2307 -1.9881 -0.7811
  243SOL     OW  727   1.042   0.541   2.413 -0.0103 -0.1564 -0.0314
  243SOL    HW1  728   0.962   0.578   2.352 -1.2817  2.3589 -1.1897
  243SOL    HW2  729   1.016   0.492   2.505 -2.3287 -0.5411 -0.6922
  244SOL     OW  730   2.766   1.880   2.360  0.1031  0.4881  0.3925
  244SOL    HW1  731   2.796   1.846   2.269 -0.6177 -0.4308  3.3214
  244SOL    HW2  732   2.674   1.843   2.393 -0.2130  2.0556  1.1121
  245SOL     OW  733   2.173   0.917   2.179 -0.3233  0.2190 -0.2358
  245SOL    HW1  734   2.273   0.920   2.211  0.3084 -0.3278  2.4216
  245SOL    HW2  735   2.124   1.003   2.221  1.8628  2.4287 -0.3147
  246SOL     OW  736   0.226   2.886   1.722  0.1707 -0.1862  0.5641
  246SOL    HW1  737   0.143   2.917   1.668  2.4356 -0.4304  3.4885
  246SOL    HW2  738   0.309   2.938   1.690 -1.4986  1.1309 -1.5168
  247SOL     OW  739   2.239   0.637   3.013 -0.0143 -0.3051  0.5917
  247SOL    HW1  740   2.301   0.616   2.935 -1.1469  3.3483  1.0354
  247SOL    HW2  741   2.191   0.728   2.994  0.8012 -2.0538  0.4197
  248SOL     OW  742   2.201   1.830   1.570 -0.4077  0.6130  0.2948
  248SOL    HW1  743   2.279   1.791   1.625  0.4114 -2.0746  2.2719
  248SOL    HW2  744   2.111   1.782   1.601  2.3502 -2.0105 -1.8061
  249SOL     OW  745   1.943   1.885   1.867  0.0251 -0.3864 -1.0701
  249SOL    HW1  746   1.957   1.828   1.779  2.4665 -2.9624 -0.4126
  249SOL    HW2  747   2.021   1.950   1.887  0.8910 -0.0800 -3.4261
  250SOL     OW  748   1.099   0.712   1.883  0.2285  0.5721 -0.0788
  250SOL    HW1  749   1.113   0.633   1.952  1.6320  1.6229  2.8401
  250SOL    HW2  750   1.087   0.681   1.784 -2.1044  0.2425  3.1662
  251SOL     OW  751   3.009   1.629   2.548 -0.2227 -0.4253  0.5015
  251SOL    HW1  752   2.994   1.731   2.545 -0.3785 -1.2084  2.3996
  251SOL    HW2  753   2.917   1.577   2.533  0.1430 -3.3030 -2.3399
  252SOL     OW  754   1.595   0.748   1.712  0.1444  0.3671  0.0195
  252SOL    HW1  755   1.697   0.742   1.709 -0.9041  0.1220 -0.4965
  252SOL    HW2  756   1.570   0.837   1.759  0.1234 -0.6571  2.1059
  253SOL     OW  757   0.989   1.593   0.457 -0.1368 -0.7029  0.2709
  253SOL    HW1  758   0.984   1.499   0.412 -0.0289 -1.8725  1.0515
  253SOL    HW2  759   0.912   1.607   0.526  1.0786 -3.3081 -1.3551
  254SOL     OW  760   2.029   2.200   1.663  0.3228  0.5061  0.2341
  254SOL    HW1  761   1.988   2.124   1.607 -0.2694  0.6502  0.9697
  254SOL    HW2  762   1.954   2.257   1.703 -0.5428 -0.5210  0.7904
  255SOL     OW  763   0.148   1.191   2.903 -0.0653 -0.2741  0.1220
  255SOL    HW1  764   0.219   1.265   2.899 -0.4589  2.0890  1.5476
  255SOL    HW2  765   0.174   1.119   2.973 -0.7447  1.9654 -2.6434
  256SOL     OW  766   2.844   1.390   1.862 -0.4407 -0.3733  0.3885
  256SOL    HW1  767   2.800   1.477   1.835  2.7888 -1.8829 -0.6340
  256SOL    HW2  768   2.789   1.304   1.832  1.3711 -0.8845 -1.0067
  257SOL     OW  769   0.791   0.144   1.743  0.2066 -0.8393  0.3700
  257SOL    HW1  770   0.859   0.214   1.713  0.5898  0.7074  1.9112
  257SOL    HW2  771   0.832   0.055   1.768 -0.7780  3.2979  0.2332
  258SOL     OW  772   2.979   1.222   0.501 -0.3178  0.0581 -0.2912
  258SOL    HW1  773   2.885   1.269   0.501 -1.2964  0.3871  0.7827
  258SOL    HW2  774   3.038   1.234   0.589  0.6668 -3.5538 -1.8190
  259SOL     OW  775   0.393   2.891   3.042 -0.2541  0.6565 -0.1205
  259SOL    HW1  776   0.334   2.833   3.106  0.6495 -0.2787  1.1890
  259SOL    HW2  777   0.418   2.846   2.947 -0.3423 -1.8300 -1.0403
  260SOL     OW  778   2.717   0.730   2.802  0.3032  0.2503 -0.2245
  260SOL    HW1  779   2.646   0.803   2.781  2.8720  0.6047 -0.5227
  260SOL    HW2  780   2.680   0.637   2.830  0.8650  3.2081  2.7603
  261SOL     OW  781   2.696   1.268   1.289 -0.4485 -0.5603 -0.3268
  261SOL    HW1  782   2.656   1.227   1.200 -0.6962  0.4556 -3.9307
  261SOL    HW2  783   2.762   1.212   1.348 -0.0389 -0.2781 -0.0437
  262SOL     OW  784   1.369   2.978   1.930 -0.0517  0.0552  0.5091
  262SOL    HW1  785   1.411   3.073   1.932  1.4917 -0.6620 -0.4057
  262SOL    HW2  786   1.264   2.970   1.946 -2.5711  0.7491 -2.3843
  263SOL     OW  787   0.845   0.690   2.289 -0.1913 -0.1429 -0.0377
  263SOL    HW1  788   0.773   0.628   2.254 -0.4171  1.7415  1.0713
  263SOL    HW2  789   0.889   0.752   2.213 -1.3604 -4.6399 -3.5476
  264SOL     OW  790   2.251   0.804   0.421  0.4390 -0.0321  1.0734
  264SOL    HW1  791   2.253   0.760   0.325  0.5285 -1.4837  0.8065
  264SOL    HW2  792   2.346   0.837   0.452  3.7283 -2.5328 -2.3436
  265SOL     OW  793   0.947   2.436   2.614 -0.1475 -0.8793  0.1447
  265SOL    HW1  794   0.998   2.504   2.680  2.7444  1.3441  1.6492
  265SOL    HW2  795   0.922   2.347   2.655 -0.1588  0.5608  0.9078
  266SOL     OW  796   1.332   1.775   3.052  0.1367 -0.2124  0.3885
  266SOL    HW1  797   1.348   1.805   3.149  0.9094 -1.2531  0.1317
  266SOL    HW2  798   1.426   1.754   3.010 -0.2045 -0.2950 -3.2136
  267SOL     OW  799   1.069   0.072   2.302  0.8886 -0.2866 -0.2461
  267SOL    HW1  800   1.020   0.004   2.237 -0.9162  1.1901  0.9748
  267SOL    HW2  801   1.074   0.169   2.256 -0.5260  0.1355 -3.9106
  268SOL     OW  802   0.761   1.263   1.047  0.8945  0.1984 -0.2348
  268SOL    HW1  803   0.717   1.309   1.127 -0.4743 -0.2134 -3.7609
  268SOL    HW2  804   0.805   1.340   0.985  1.0344  2.8643 -1.7618
  269SOL     OW  805   2.355   2.500   1.582  0.4685  0.2746  0.1420
  269SOL    HW1  806   2.414   2.417   1.603 -1.7126  0.6984 -0.6376
  269SOL    HW2  807   2.319   2.559   1.662  0.5004 -2.1672  0.7196
  270SOL     OW  808   0.131   2.965   1.968  0.0155 -0.5881  0.0049
  270SOL    HW1  809   0.155   2.927   1.873 -1.0933  0.5618  0.1079
  270SOL    HW2  810   0.098   2.891   2.031  2.8827 -2.3632 -0.2674
  271SOL     OW  811   0.435   1.401   1.154  0.6493  0.1496 -0.5118
  271SOL    HW1  812   0.424   1.397   1.053 -0.0021  1.4140  1.8130
  271SOL    HW2  813   0.357   1.364   1.209  1.7508 -0.5760  0.8878
  272SOL     OW  814   1.995   2.981   1.946 -0.7159  0.4951  0.3696
  272SOL    HW1  815   1.918   2.945   1.891  1.4642  0.2630  3.6798
  272SOL    HW2  816   2.069   3.021   1.889  1.6824 -0.2029  2.5452
  273SOL     OW  817   1.482   1.471   2.743  0.1390  0.5412 -0.4234
  273SOL    HW1  818   1.398   1.442   2.687 -0.4308  1.6721 -1.9341
  273SOL    HW2  819   1.488   1.421   2.831  0.5262  0.4290  0.2358
  274SOL     OW  820   1.168   0.516   2.061 -0.0130 -0.3685  0.1496
  274SOL    HW1  821   1.141   0.415   2.049 -0.3047  1.4650  0.8042
  274SOL    HW2  822   1.207   0.531   2.158 -1.3229  0.1748  1.2424
  275SOL     OW  823   0.651   2.134   1.904 -0.4120  0.1844  0.2117
  275SOL    HW1  824   0.624   2.212   1.972  1.7816  0.8521 -0.4155
  275SOL    HW2  825   0.567   2.100   1.852 -0.5979 -0.6013  0.2324
  276SOL     OW  826   2.189   1.099   2.791 -0.2562 -0.5773  0.1690
  276SOL    HW1  827   2.120   1.118   2.717  0.0626 -1.5545  1.8785
  276SOL    HW2  828   2.157   1.023   2.857 -1.7434 -1.5485  0.1611
  277SOL     OW  829   0.024   0.809   0.265  0.0372  0.2890  0.4013
  277SOL    HW1  830   0.116   0.857   0.263  0.0253  0.3291  1.8475
  277SOL    HW2  831   0.031   0.721   0.320 -0.5038  0.8314 -0.2233
  278SOL     OW  832   0.215   0.239   2.940  0.4490  0.0215  0.3204
  278SOL    HW1  833   0.300   0.179   2.955  0.2999 -2.7533  1.6897
  278SOL    HW2  834   0.224   0.335   2.969  0.7729 -1.1799 -1.1687
  279SOL     OW  835   0.265   0.036   0.926  0.6113  0.5616  0.5341
  279SOL    HW1  836   0.277  -0.069   0.934 -1.1804  0.9427 -1.1242
  279SOL    HW2  837   0.332   0.076   0.861  0.9204  1.4013  0.4183
  280SOL     OW  838   1.602   2.972   2.393 -0.2837  0.7204  0.0135
  280SOL    HW1  839   1.650   3.037   2.466  2.9066 -0.4131  2.1557
  280SOL    HW2  840   1.539   3.019   2.325  0.5737 -1.2379 -0.6949
  281SOL     OW  841   0.564   0.973   2.286 -0.1067 -0.4665  0.2316
  281SOL    HW1  842   0.611   0.887   2.251  0.3348 -0.1895  0.4035
  281SOL    HW2  843   0.535   0.967   2.384  0.4078  0.3446 -1.1537
  282SOL     OW  844   1.773   2.481   0.514  0.1193  0.2144  0.5055
  282SOL    HW1  845   1.725   2.405   0.461 -1.0241  0.5454  1.6173
  282SOL    HW2  846   1.750   2.575   0.475  1.7107  0.7764 -2.7887
  283SOL     OW  847   1.174   0.942   0.764 -0.7089 -0.1166 -0.0028
  283SOL    HW1  848   1.215   0.905   0.854 -1.7529  2.0255  0.4530
  283SOL    HW2  849   1.119   1.030   0.778  0.6693 -0.3965  0.4239
  284SOL     OW  850   2.234   2.813   2.497  0.3207  0.3297  0.1750
  284SOL    HW1  851   2.324   2.839   2.452 -3.7574  0.2479  0.6432
  284SOL    HW2  852   2.229   2.832   2.597 -2.5757 -0.1752  0.6700
  285SOL     OW  853   1.402   3.095   2.567 -0.2174  0.5224 -0.5764
  285SOL    HW1  854   1.447   3.099   2.475  0.3382  1.8797  2.7085
  285SOL    HW2  855   1.303   3.120   2.570 -0.7031  1.0063  1.3432
  286SOL     OW  856   0.429   0.432   0.764  0.1474  0.6467  0.5947
  286SOL    HW1  857   0.373   0.399   0.847  0.8124 -2.4463 -0.1023
  286SOL    HW2  858   0.469   0.355   0.701  0.7505 -0.9928  0.6900
  287SOL     OW  859   0.072   1.295   2.574 -0.0297 -0.2071  0.8408
  287SOL    HW1  860   0.011   1.219   2.616 -0.3674  1.2430  1.6033
  287SOL    HW2  861   0.059   1.395   2.610  1.4951  3.1945  0.8510
  288SOL     OW  862   1.595   2.734   1.634 -0.3330 -0.0821 -0.3805
  288SOL    HW1  863   1.595   2.653   1.700  0.5750  1.2837 -0.7940
  288SOL    HW2  864   1.585   2.714   1.537 -0.4013  0.6197 -0.8325
  289SOL     OW  865   0.583   2.732   0.864  0.0386 -0.4267 -0.0490
  289SOL    HW1  866   0.651   2.791   0.812  1.6824 -2.4689  2.7202
  289SOL    HW2  867   0.547   2.772   0.954 -0.2145 -0.2939  2.9554
  290SOL     OW  868   2.816   1.129   1.740 -0.4031  0.1974 -0.4970
  290SOL    HW1  869   2.758   1.045   1.762 -0.5584 -0.5395  2.0316
  290SOL    HW2  870   2.911   1.112   1.786 -2.7550 -0.4222  2.2344
  291SOL     OW  871   1.972   3.085   0.040 -0.5674 -0.2237 -0.0675
  291SOL    HW1  872   1.999   3.108   0.133  1.4084 -0.9194 -3.6576
  291SOL    HW2  873   2.037   3.124  -0.031 -0.4405  1.2957  2.2541
  292SOL     OW  874   3.029   1.237   3.104 -0.0157 -0.2726 -0.1455
  292SOL    HW1  875   2.946   1.283   3.064  2.9845  3.2861 -0.2680
  292SOL    HW2  876   3.098   1.219   3.037 -0.6515  0.2784  3.8303
  293SOL     OW  877   0.573   2.144   0.279  0.8646 -0.4843 -0.3648
  293SOL    HW1  878   0.567   2.230   0.334 -0.7637 -1.3919  0.3465
  293SOL    HW2  879   0.661   2.090   0.306  1.2692 -1.4866  2.4628
  294SOL     OW  880   1.817   2.332   1.788  0.2373  0.0551  0.1901
  294SOL    HW1  881   1.884   2.336   1.874  1.8806 -1.1355  1.1705
  294SOL    HW2  882   1.737   2.400   1.790 -0.2436 -0.2998  1.0718
  295SOL     OW  883   0.985   1.046   0.448  0.1003  0.4566 -0.3887
  295SOL    HW1  884   1.076   1.007   0.464  0.5739  2.0978 -0.1792
  295SOL    HW2  885   0.922   1.024   0.530  0.8142 -1.6231  0.7018
  296SOL     OW  886   1.195   2.129   2.732  0.0264  0.1769  0.7202
  296SOL    HW1  887   1.115   2.193   2.731  1.2654 -1.2701  0.5655
  296SOL    HW2  888   1.207   2.097   2.636  0.6204 -2.1984  2.6584
  297SOL     OW  889   1.349   0.574   1.285  0.4733  0.0484  0.3038
  297SOL    HW1  890   1.382   0.485   1.330  0.5282  1.1460 -1.2306
  297SOL    HW2  891   1.422   0.635   1.249 -2.3917 -1.2044  0.6365
  298SOL     OW  892   0.521   1.381   2.991  0.0450  0.1226  0.0963
  298SOL    HW1  893   0.476   1.309   3.054  2.5131 -0.7000 -0.7791
  298SOL    HW2  894   0.581   1.341   2.913  0.2442 -0.5320 -2.0132
  299SOL     OW  895   0.427   0.277   1.308 -0.3620 -0.1921  0.3428
  299SOL    HW1  896   0.366   0.359   1.284  0.6594 -0.7581  0.5242
  299SOL    HW2  897   0.389   0.230   1.395 -0.9313 -0.9438 -0.8042
  300SOL     OW  898   1.269   1.733   2.574 -0.2504 -0.0394  0.2413
  300SOL    HW1  899   1.258   1.632   2.541  0.1456 -2.8710  0.8082
  300SOL    HW2  900   1.359   1.750   2.625  0.7142  1.6925 -2.2601
  301SOL     OW  901   0.441   0.270   0.512 -0.3263 -0.1518 -0.0677
  301SOL    HW1  902   0.341   0.262   0.499 -0.6473  1.2786  0.3623
  301SOL    HW2  903   0.496   0.207   0.458 -3.7985 -2.9817  1.3790
  302SOL     OW  904   1.235   2.458   2.295  0.7677  0.3113 -0.5849
  302SOL    HW1  905   1.141   2.490   2.324  0.9697 -0.6849 -1.3071
  302SOL    HW2  906   1.290   2.424   2.380  1.7056 -0.9742 -0.2547
  303SOL     OW  907   0.938   2.431   0.813  0.2598 -0.4261 -0.3974
  303SOL    HW1  908   1.010   2.437   0.734  1.9595 -1.8779 -1.7066
  303SOL    HW2  909   0.975   2.486   0.894 -1.4102 -0.4217 -0.0505
  304SOL     OW  910   0.068   1.913   0.679  0.3706  0.1407  0.1694
  304SOL    HW1  911   0.145   1.898   0.619 -2.6583 -3.3542  0.3208
  304SOL    HW2  912  -0.005   1.982   0.644  2.1071  2.0881 -0.9095
  305SOL     OW  913   1.598   0.875   0.695 -0.5310 -0.6012 -0.1893
  305SOL    HW1  914   1.520   0.861   0.629  3.2263  1.2312 -1.1509
  305SOL    HW2  915   1.630   0.777   0.722  2.8207 -1.1026  1.4539
  306SOL     OW  916   0.427   1.945   1.889 -0.2735 -0.4053  0.5396
  306SOL    HW1  917   0.505   1.880   1.874  2.0627 -0.0761 -0.3476
  306SOL    HW2  918   0.425   1.979   1.987  1.1076 -0.3256  1.7648
  307SOL     OW  919   3.032   0.881   2.487  0.6672  0.3463 -0.4274
  307SOL    HW1  920   3.063   0.950   2.560  0.6040  0.1090 -0.7993
  307SOL    HW2  921   2.956   0.818   2.523  0.6995  0.1392  0.4424
  308SOL     OW  922   1.575   2.680   2.834 -0.3772  0.2777 -0.2895
  308SOL    HW1  923   1.535   2.658   2.744  0.3021  2.4633  1.4609
  308SOL    HW2  924   1.520   2.633   2.910 -1.1710  0.1675  0.6959
  309SOL     OW  925   1.243   0.157   1.792  0.1002  0.3237  0.1214
  309SOL    HW1  926   1.343   0.130   1.817 -1.4701 -3.0575  1.2627
  309SOL    HW2  927   1.226   0.156   1.687 -0.5650 -0.5520 -0.7466
  310SOL     OW  928   1.509   2.580   0.673 -0.1464  0.6983 -0.4108
  310SOL    HW1  929   1.486   2.612   0.771 -2.5166 -0.3595  5.3915
  310SOL    HW2  930   1.567   2.647   0.625  0.0855 -1.1610  2.2964
  311SOL     OW  931   1.151   0.989   1.739  0.2799  0.3988  0.3465
  311SOL    HW1  932   1.135   0.906   1.798 -0.9831 -0.0644  0.9822
  311SOL    HW2  933   1.198   0.961   1.648  0.7605 -1.2616 -1.8792
  312SOL     OW  934   1.544   0.667   1.118 -0.0539 -0.2316 -0.2572
  312SOL    HW1  935   1.565   0.764   1.099 -0.9127 -1.0378  2.3610
  312SOL    HW2  936   1.511   0.624   1.032  2.0688  0.7384 -2.6074
  313SOL     OW  937   1.622   1.341   0.726  0.8089 -0.3757  0.3766
  313SOL    HW1  938   1.536   1.347   0.794 -1.0422 -0.4576 -2.4240
  313SOL    HW2  939   1.610   1.269   0.651  1.1201 -1.0328 -0.9972
  314SOL     OW  940   2.984   3.088   3.090 -0.0984  0.0466 -0.1899
  314SOL    HW1  941   2.974   3.095   3.191  1.9873  2.2129  0.6507
  314SOL    HW2  942   2.897   3.055   3.042 -2.6998  0.5390 -0.6098
  315SOL     OW  943   1.178   0.245   2.757 -0.3463 -0.2318 -0.2214
  315SOL    HW1  944   1.190   0.164   2.691 -2.8488 -0.2220  0.2412
  315SOL    HW2  945   1.174   0.221   2.855  2.1393  1.8032 -0.1129
  316SOL     OW  946   1.735   2.092   0.888 -0.5989 -0.1031  0.2179
  316SOL    HW1  947   1.707   2.090   0.992  1.2646 -0.5441  0.8915
  316SOL    HW2  948   1.733   2.185   0.845  0.3752  1.1803  1.5657
  317SOL     OW  949   1.163   0.636   2.759 -0.8392 -0.0552  0.1742
  317SOL    HW1  950   1.117   0.681   2.837 -0.1933 -1.6739 -0.0911
  317SOL    HW2  951   1.102   0.571   2.698 -3.9107 -1.7362 -0.3979
  318SOL     OW  952   1.432   0.004   2.236  0.1899 -0.2583  0.4294
  318SOL    HW1  953   1.436   0.100   2.197 -0.1239  1.2781 -0.3300
  318SOL    HW2  954   1.345  -0.044   2.205 -2.4520  0.8108 -1.0729
  319SOL     OW  955   0.663   2.343   2.918  0.1859  0.1133 -0.1085
  319SOL    HW1  956   0.621   2.287   2.994  1.4127  2.8985  2.1655
  319SOL    HW2  957   0.727   2.296   2.852  2.0491  1.5955  2.5467
  320SOL     OW  958   1.659   2.252   0.406 -0.0125 -0.1480  0.1675
  320SOL    HW1  959   1.727   2.183   0.406 -1.2802 -1.1296 -1.9528
  320SOL    HW2  960   1.566   2.213   0.433 -1.4234 -2.4537 -1.0256
  321SOL     OW  961   1.676   2.764   0.574  0.2076  0.0755 -0.6613
  321SOL    HW1  962   1.618   2.824   0.509 -0.4525 -0.2818  1.5750
  321SOL    HW2  963   1.775   2.786   0.563 -1.0599  0.6642 -0.2105
  322SOL     OW  964   2.601   1.127   2.310  0.2831  0.2109 -0.3385
  322SOL    HW1  965   2.699   1.115   2.335 -1.9520 -0.3826  1.0700
  322SOL    HW2  966   2.549   1.042   2.336  0.0108 -0.8787  0.5633
  323SOL     OW  967   1.163   2.658   0.802 -0.1449  0.6233 -0.5048
  323SOL    HW1  968   1.135   2.635   0.700  2.2957 -0.3754  2.0114
  323SOL    HW2  969   1.130   2.753   0.835 -0.9912  1.2512  2.2943
  324SOL     OW  970   0.215   2.548   2.445 -0.5377  0.0957 -0.1418
  324SOL    HW1  971   0.140   2.513   2.508 -1.7576 -2.1140 -1.0657
  324SOL    HW2  972   0.269   2.628   2.480 -1.6638 -1.7709 -0.7967
  325SOL     OW  973   1.213   3.013   0.456 -0.3186  0.2151 -0.0387
  325SOL    HW1  974   1.253   3.041   0.367  1.1644  0.5960  3.0064
  325SOL    HW2  975   1.241   3.077   0.533 -1.6760  0.7590 -1.7355
  326SOL     OW  976   2.468   0.782   0.002 -0.3023 -0.5726 -0.6564
  326SOL    HW1  977   2.395   0.722  -0.044  1.1540  1.7254  0.0482
  326SOL    HW2  978   2.540   0.728   0.055  3.0780  2.1665 -1.4168
  327SOL     OW  979   2.792   0.301   0.538  0.1316 -0.9188 -0.5614
  327SOL    HW1  980   2.785   0.260   0.447 -1.3579  3.5220  0.9119
  327SOL    HW2  981   2.800   0.229   0.611  2.4482 -1.0758 -1.3472
  328SOL     OW  982   2.613   0.640   0.411 -0.4406  0.0796  0.0834
  328SOL    HW1  983   2.685   0.699   0.456 -2.4259 -0.3288  2.4733
  328SOL    HW2  984   2.556   0.582   0.479 -3.7034 -1.4081 -2.2747
  329SOL     OW  985   2.922   2.972   2.097  0.3302  1.0795 -0.4083
  329SOL    HW1  986   2.994   2.923   2.156 -0.0578  0.3125  1.5890
  329SOL    HW2  987   2.926   3.076   2.101  0.7733  2.9241 -0.8076
  330SOL     OW  988   0.598   0.201   1.929 -0.2318  0.5854 -0.2748
  330SOL    HW1  989   0.638   0.158   1.845  0.4285  1.2046  1.7126
  330SOL    HW2  990   0.576   0.142   2.008  2.7202  1.2293 -0.4114
  331SOL     OW  991   3.018   1.905   1.112  0.2935 -0.2007  0.4714
  331SOL    HW1  992   2.988   1.884   1.016  0.1322 -0.1020 -2.2447
  331SOL    HW2  993   2.956   1.871   1.189  1.0012 -3.2345  0.4563
  332SOL     OW  994   0.412   1.177   0.068  0.2966 -0.1984 -0.1707
  332SOL    HW1  995   0.349   1.095   0.038  0.9679  0.2092  1.1034
  332SOL    HW2  996   0.369   1.214   0.158  0.1582  0.0679  1.3334
  333SOL     OW  997   2.922   0.987   0.373 -0.7046 -0.6356  0.7670
  333SOL    HW1  998   2.962   1.069   0.429  0.6671 -3.0339  0.6594
  333SOL    HW2  999   2.992   0.929   0.333 -3.2777  4.4311  0.8898
  334SOL     OW 1000   1.693   1.262   1.820 -0.6467 -0.6230 -0.3249
  334SOL    HW1 1001   1.759   1.263   1.736  0.4768  0.4367 -2.8670
  334SOL    HW2 1002   1.743   1.219   1.902 -0.7679 -2.8979 -0.1793
  335SOL     OW 1003   1.967   2.738   2.608 -0.4407 -0.0662  0.7021
  335SOL    HW1 1004   1.882   2.755   2.662  1.7267 -1.8921  2.8143
  335SOL    HW2 1005   2.045   2.785   2.652 -0.9079 -0.7932 -1.7362
  336SOL     OW 1006   0.241   0.014   2.705  0.3269 -0.2992  0.3892
  336SOL    HW1 1007   0.322   0.043   2.766  2.2068  0.7611 -0.2716
  336SOL    HW2 1008   0.175  -0.045   2.754 -0.1185 -0.1022  0.3799
  337SOL     OW 1009   0.926   2.920   2.964 -0.4566 -0.7073  0.4055
  337SOL    HW1 1010   0.902   2.829   3.007  2.7429  3.1947 -2.9121
  337SOL    HW2 1011   1.025   2.946   2.984 -1.0967  1.1460  2.3061
  338SOL     OW 1012   0.035   0.962   0.667 -0.5544 -0.3611 -0.3136
  338SOL    HW1 1013  -0.069   0.949   0.688 -1.2530  1.1663  1.4990
  338SOL    HW2 1014   0.059   1.060   0.648  1.5347 -1.9280 -1.1841
  339SOL     OW 1015   1.682   1.354   2.167 -0.9998 -0.2659 -0.4441
  339SOL    HW1 1016   1.584   1.370   2.178 -1.1261  0.4832  2.6734
  339SOL    HW2 1017   1.740   1.429   2.135 -0.9138  0.4431  1.4487
  340SOL     OW 1018   2.229   0.786   1.175 -0.3597  0.4190 -0.0933
  340SOL    HW1 1019   2.129   0.814   1.174  1.5671 -0.4150 -0.9006
  340SOL    HW2 1020   2.239   0.689   1.145  0.7822 -0.3568  0.3935
  341SOL     OW 1021   1.907   2.098   0.345 -0.3751 -0.4138  0.1208
  341SOL    HW1 1022   1.932   2.105   0.245 -2.3535 -2.4146  0.9860
  341SOL    HW2 1023   1.987   2.081   0.407  0.2348 -1.4397  0.8170
  342SOL     OW 1024   2.166   2.117   2.752 -0.2545 -0.8248 -0.4153
  342SOL    HW1 1025   2.184   2.015   2.767 -0.3344 -0.3446  1.8498
  342SOL    HW2 1026   2.085   2.130   2.692 -0.6487 -1.7422  1.8751
  343SOL     OW 1027   0.422   0.777   2.761 -0.1592  0.0488 -0.3577
  343SOL    HW1 1028   0.456   0.822   2.675  0.5670 -0.7440 -0.1582
  343SOL    HW2 1029   0.481   0.805   2.846 -0.9241 -1.1831  0.3516
  344SOL     OW 1030   1.898   1.497   0.393  0.3635 -0.0030  0.5431
  344SOL    HW1 1031   1.896   1.435   0.311 -0.3769  0.1225 -0.0110
  344SOL    HW2 1032   1.803   1.515   0.431 -0.3620 -1.8027 -0.3556
  345SOL     OW 1033   1.400   2.242   2.870 -0.2636 -0.1304 -0.0139
  345SOL    HW1 1034   1.314   2.209   2.818 -1.7098 -0.8454  1.3158
  345SOL    HW2 1035   1.490   2.196   2.841 -1.2214  1.9842 -1.2206
  346SOL     OW 1036   2.345   0.901   1.401  0.4034 -0.3771  0.0394
  346SOL    HW1 1037   2.312   0.996   1.434 -0.1098  0.6489  0.8023
  346SOL    HW2 1038   2.293   0.871   1.312  0.1405  1.4626 -0.0003
  347SOL     OW 1039   0.712   2.718   1.619 -0.3618  0.0370  0.7863
  347SOL    HW1 1040   0.642   2.743   1.690  0.6732  0.0200 -1.1836
  347SOL    HW2 1041   0.675   2.737   1.522  0.2083  1.1686 -1.4798
  348SOL     OW 1042   0.168   0.792   2.876  0.2121  0.0597 -0.3435
  348SOL    HW1 1043   0.079   0.742   2.847  0.2452  2.1768  0.8149
  348SOL    HW2 1044   0.250   0.786   2.811 -1.0746  1.3468 -0.3092
  349SOL     OW 1045   1.836   0.458   2.798  0.4907 -0.1128  0.1592
  349SOL    HW1 1046   1.827   0.528   2.723  0.6740  1.1747  0.5619
  349SOL    HW2 1047   1.819   0.491   2.898  1.3433 -2.4690  2.2424
  350SOL     OW 1048   1.693   0.360   0.359  0.7427 -0.0477  0.0511
  350SOL    HW1 1049   1.743   0.370   0.447 -0.3689 -0.4504  0.0330
  350SOL    HW2 1050   1.644   0.446   0.336 -1.9096  0.0628  0.7735
  351SOL     OW 1051   0.936   0.837   2.066 -0.0105  0.2087 -0.4951
  351SOL    HW1 1052   0.976   0.938   2.073  1.8341  0.6028 -0.3480
  351SOL    HW2 1053   0.976   0.779   1.990  0.7975 -2.0576 -1.1165
  352SOL     OW 1054   2.081   1.360   0.575 -0.5262 -0.3137  0.2512
  352SOL    HW1 1055   2.031   1.409   0.495  0.5267  0.3664 -2.0289
  352SOL    HW2 1056   2.036   1.366   0.667  2.0196 -2.1588  2.2533
  353SOL     OW 1057   2.195   2.806   1.070 -0.2029  0.4045  0.1011
  353SOL    HW1 1058   2.253   2.740   1.120 -0.5184 -0.7568 -0.4849
  353SOL    HW2 1059   2.124   2.847   1.131 -1.4004  1.1445  0.5976
  354SOL     OW 1060   0.290   1.443   2.867  0.0698 -0.3286 -0.1853
  354SOL    HW1 1061   0.285   1.497   2.778  1.0683  1.1856  1.7016
  354SOL    HW2 1062   0.382   1.446   2.914 -2.7943  0.7494 -0.2879
  355SOL     OW 1063   0.746   1.596   0.612  0.1129  0.1071  0.1808
  355SOL    HW1 1064   0.706   1.556   0.701  0.7574  2.9296  2.1197
  355SOL    HW2 1065   0.699   1.567   0.523  0.4927 -1.2003 -0.0024
  356SOL     OW 1066   0.860   0.297   2.030  0.4084 -0.2730  0.1191
  356SOL    HW1 1067   0.955   0.253   2.012  2.6653 -1.9284 -3.2234
  356SOL    HW2 1068   0.782   0.257   1.976 -0.5199 -0.2312  0.3795
  357SOL     OW 1069   1.011   1.339   0.367 -0.3241  0.0650  0.1285
  357SOL    HW1 1070   1.113   1.342   0.354 -1.3286  0.6393  1.0758
  357SOL    HW2 1071   0.973   1.255   0.407 -1.3232  3.0991 -1.6514
  358SOL     OW 1072   1.623   1.525   0.513  0.0993  0.0952  0.2420
  358SOL    HW1 1073   1.608   1.477   0.599 -1.3242  1.4313 -2.3919
  358SOL    HW2 1074   1.562   1.484   0.442  0.2209 -0.2050  3.8914
  359SOL     OW 1075   1.607   2.583   0.291  0.6304 -0.4252  0.4217
  359SOL    HW1 1076   1.557   2.498   0.266 -0.1522  2.1727  0.7408
  359SOL    HW2 1077   1.553   2.647   0.350  0.4803 -0.4010  0.3194
  360SOL     OW 1078   0.784   0.521   0.574  0.1597 -0.1613  0.2806
  360SOL    HW1 1079   0.689   0.523   0.533  3.4510  2.5990 -0.8839
  360SOL    HW2 1080   0.822   0.425   0.599  1.1531 -1.8277  2.9839
  361SOL     OW 1081   1.323   1.269   0.634  0.4139  0.2897 -0.3265
  361SOL    HW1 1082   1.390   1.331   0.682 -0.8475 -0.9392 -1.2912
  361SOL    HW2 1083   1.223   1.302   0.655 -0.0565 -1.9222  1.8482
  362SOL     OW 1084   1.378   1.756   0.713 -0.1795  0.5520 -0.2562
  362SOL    HW1 1085   1.389   1.721   0.811 -0.5203 -0.0612 -0.5269
  362SOL    HW2 1086   1.459   1.814   0.683  1.6933 -3.1352  0.4053
  363SOL     OW 1087   1.236   1.310   2.066  0.5155  0.0295 -0.0305
  363SOL    HW1 1088   1.313   1.383   2.077  2.2419  2.2573  0.2473
  363SOL    HW2 1089   1.156   1.329   2.129 -1.3617  0.8446  0.7963
  364SOL     OW 1090   0.532   2.363   2.041  0.4805 -0.2371  0.0019
  364SOL    HW1 1091   0.427   2.368   2.041  0.3130  0.2257  0.6816
  364SOL    HW2 1092   0.577   2.401   1.955  0.4834  1.3693  0.3120
  365SOL     OW 1093   1.046   1.993   1.335 -0.4673 -0.0126 -0.1448
  365SOL    HW1 1094   0.948   1.973   1.361 -0.6323  2.6772 -0.8810
  365SOL    HW2 1095   1.044   2.046   1.244 -0.1098  1.1878  1.5776
  366SOL     OW 1096   2.858   1.945   0.351 -0.1028  0.1421 -0.3595
  366SOL    HW1 1097   2.768   1.932   0.295 -0.7556 -1.4699 -1.2412
  366SOL    HW2 1098   2.933   1.875   0.327  1.7004  3.9035 -2.7405
  367SOL     OW 1099   0.933   1.183   0.025 -0.8560  0.4482 -0.2606
  367SOL    HW1 1100   0.921   1.113   0.104  0.6995 -0.1474  0.2251
  367SOL    HW2 1101   0.999   1.257   0.055  0.1860 -1.4364  1.9695
  368SOL     OW 1102   1.470   0.535   0.572  0.3320  0.9358 -0.6229
  368SOL    HW1 1103   1.398   0.597   0.530  2.1827 -0.3370  2.5846
  368SOL    HW2 1104   1.559   0.584   0.598 -1.7222  2.9349 -1.5192
  369SOL     OW 1105   0.390   1.722   0.175  0.4247 -0.0781 -0.4008
  369SOL    HW1 1106   0.442   1.780   0.240  0.7078  0.6980 -0.7513
  369SOL    HW2 1107   0.299   1.692   0.211  0.9611 -1.8025 -2.3645
  370SOL     OW 1108   0.404   2.104   1.036 -0.4939  0.4669  0.2587
  370SOL    HW1 1109   0.429   2.206   1.034 -3.6128  1.3184 -1.0634
  370SOL    HW2 1110   0.320   2.087   0.975 -2.4923 -0.8461 -2.8933
  371SOL     OW 1111   2.871   2.224   2.643  0.4036  0.2712  0.4757
  371SOL    HW1 1112   2.820   2.147   2.695 -0.1676  0.4567 -2.2982
  371SOL    HW2 1113   2.909   2.293   2.713 -1.1099 -0.3207  3.1690
  372SOL     OW 1114   1.059   2.100   1.076  0.0549  0.2801  1.1632
  372SOL    HW1 1115   0.963   2.109   1.033 -0.3349 -0.2214  0.0976
  372SOL    HW2 1116   1.125   2.163   1.026  0.8737  1.4994  1.8687
  373SOL     OW 1117   1.928   1.908   0.992 -0.1120  0.4498 -0.0456
  373SOL    HW1 1118   2.018   1.950   1.021  1.9271 -3.1286  0.0141
  373SOL    HW2 1119   1.854   1.974   0.968 -2.8320 -1.4592 -0.5121
  374SOL     OW 1120   1.858   0.415   0.567 -0.3752  0.2733  0.2959
  374SOL    HW1 1121   1.845   0.378   0.662  1.8644 -0.8687 -1.6993
  374SOL    HW2 1122   1.957   0.399   0.528  2.7125 -3.4253 -0.9197
  375SOL     OW 1123   2.389   2.195   1.094 -0.0058  0.4381  0.6822
  375SOL    HW1 1124   2.430   2.153   1.009 -0.7547 -0.8234  0.0274
  375SOL    HW2 1125   2.453   2.202   1.174  0.5729  1.0598  1.5981
  376SOL     OW 1126   3.056   0.552   1.403  0.3388  0.5034 -0.3662
  376SOL    HW1 1127   3.028   0.604   1.491  0.2720  1.0888  0.4370
  376SOL    HW2 1128   3.022   0.460   1.389  0.1410  1.0508 -1.9906
  377SOL     OW 1129   2.165   2.927   0.307 -0.0560 -0.2377 -0.3872
  377SOL    HW1 1130   2.169   3.031   0.321 -1.0865 -1.2222  2.4628
  377SOL    HW2 1131   2.244   2.882   0.355 -2.1333 -0.5708  0.7558
  378SOL     OW 1132   1.749   1.834   2.521  0.4862  0.7179 -0.4232
  378SOL    HW1 1133   1.833   1.875   2.473 -2.3289 -0.7922 -1.5866
  378SOL    HW2 1134   1.694   1.768   2.459  0.0419  0.1140  0.1222
  379SOL     OW 1135   0.732   0.148   2.823  0.5626 -0.1475 -0.5702
  379SOL    HW1 1136   0.788   0.066   2.798 -0.2161  1.2083  3.0733
  379SOL    HW2 1137   0.723   0.224   2.754  0.3365  2.1977 -1.0705
  380SOL     OW 1138   1.575   1.147   0.536 -0.1741 -0.0907 -0.2833
  380SOL    HW1 1139   1.478   1.174   0.511 -1.5839 -1.3872  0.9885
  380SOL    HW2 1140   1.584   1.055   0.580 -0.7150  0.3500  1.2703
  381SOL     OW 1141   1.357   1.213   1.581  0.1064  0.7579  0.5390
  381SOL    HW1 1142   1.402   1.154   1.511 -0.0297  2.3311  0.0903
  381SOL    HW2 1143   1.428   1.272   1.630 -1.0308 -1.1384  1.7799
  382SOL     OW 1144   1.829   0.897   0.229 -0.1381  0.0798  0.2194
  382SOL    HW1 1145   1.846   0.864   0.133  0.3126 -1.5368  1.1389
  382SOL    HW2 1146   1.899   0.870   0.302 -0.3623 -1.2431  0.6672
  383SOL     OW 1147   2.594   0.997   1.491 -0.1972 -0.1529  0.1078
  383SOL    HW1 1148   2.507   0.962   1.461 -0.4256 -0.4555 -0.1894
  383SOL    HW2 1149   2.661   1.010   1.414  0.4486 -1.6011  1.7634
  384SOL     OW 1150   0.872   2.231   0.160 -0.4093 -0.0498 -0.6356
  384SOL    HW1 1151   0.830   2.323   0.179  1.1372  0.3847 -2.0962
  384SOL    HW2 1152   0.870   2.167   0.244 -2.1509  0.0262  0.6383
  385SOL     OW 1153   2.964   1.994   1.661 -0.5197  0.1264  0.1186
  385SOL    HW1 1154   3.031   2.072   1.622 -0.4421  1.6190  1.6644
  385SOL    HW2 1155   3.016   1.902   1.652 -0.8718 -0.2211 -0.9365
  386SOL     OW 1156   0.469   1.075   0.468 -0.1855 -0.5266  0.0416
  386SOL    HW1 1157   0.458   0.975   0.480  0.0031  3.0545  1.1091
  386SOL    HW2 1158   0.389   1.122   0.414 -1.4251  1.7615  0.5418
  387SOL     OW 1159   0.909   0.388   1.654 -0.0883 -0.5548  0.1095
  387SOL    HW1 1160   0.980   0.467   1.646  0.6557 -2.6348 -0.9414
  387SOL    HW2 1161   0.873   0.350   1.564 -1.7279 -1.8216  0.4817
  388SOL     OW 1162   1.192   2.731   1.746  0.0943 -0.1094 -0.2922
  388SOL    HW1 1163   1.170   2.749   1.644  1.2503  0.4336 -0.4877
  388SOL    HW2 1164   1.251   2.647   1.763 -1.4139  1.1889  0.2090
  389SOL     OW 1165   0.122   2.970   1.281 -0.1840 -0.1969  0.8812
  389SOL    HW1 1166   0.022   2.995   1.260 -0.9712  1.3962  2.7630
  389SOL    HW2 1167   0.147   2.871   1.279  0.1615 -2.8648  0.9368
  390SOL     OW 1168   1.064   0.974   1.304  0.0737  0.1698  0.3396
  390SOL    HW1 1169   1.154   0.960   1.354 -0.3476 -1.8198 -2.0537
  390SOL    HW2 1170   0.992   1.033   1.352  0.8566  3.2977  2.3614
  391SOL     OW 1171   2.179   1.111   1.085 -0.4549 -0.2459  0.0746
  391SOL    HW1 1172   2.109   1.038   1.099  1.1354  3.4328 -2.5506
  391SOL    HW2 1173   2.231   1.105   0.995  1.0015  0.8493  0.4253
  392SOL     OW 1174   0.890   2.644   3.039  0.2586 -0.2852  0.2202
  392SOL    HW1 1175   0.984   2.620   3.005  2.1572 -1.6209 -1.0798
  392SOL    HW2 1176   0.865   2.584   3.114  2.8189  0.5026 -1.6491
  393SOL     OW 1177   0.342   0.536   1.982 -0.6989 -0.5888  0.3293
  393SOL    HW1 1178   0.315   0.436   1.980  1.1157  1.2075 -1.1958
  393SOL    HW2 1179   0.410   0.548   1.903 -0.0282 -0.3746 -2.7252
  394SOL     OW 1180   2.990   1.935   2.795  0.5945  0.3842  0.1349
  394SOL    HW1 1181   3.063   2.000   2.835 -0.8370  0.0810 -0.7671
  394SOL    HW2 1182   2.991   1.938   2.690 -0.1467  0.9902 -1.4230
  395SOL     OW 1183   1.597   1.983   0.665 -0.1711 -0.3838 -0.1791
  395SOL    HW1 1184   1.662   1.917   0.615  1.0965 -0.9027 -0.4042
  395SOL    HW2 1185   1.643   2.031   0.745  1.3970 -0.1377  0.1290
  396SOL     OW 1186   2.819   1.832   1.273 -0.1213 -0.6232  0.3133
  396SOL    HW1 1187   2.791   1.738   1.302  2.4446 -1.1929 -0.4567
  396SOL    HW2 1188   2.785   1.905   1.340 -1.3627  1.3595  1.0251
  397SOL     OW 1189   1.028   2.230   0.500 -0.1530  0.3285  0.3299
  397SOL    HW1 1190   0.930   2.202   0.534  0.1777 -0.3747 -2.5508
  397SOL    HW2 1191   1.035   2.332   0.479 -0.7817  1.7705 -2.3657
  398SOL     OW 1192   2.163   0.004   1.006 -0.0248 -0.3924  0.0533
  398SOL    HW1 1193   2.179  -0.069   1.077 -1.2364  1.6600  0.4309
  398SOL    HW2 1194   2.078   0.064   1.024 -0.9937  1.2296 -1.1151
  399SOL     OW 1195   3.093   2.438   2.565  0.3386 -0.0661 -0.1738
  399SOL    HW1 1196   3.009   2.378   2.542  1.5100  0.3115  0.0594
  399SOL    HW2 1197   3.141   2.410   2.653 -0.1083  0.1222  2.8070
  400SOL     OW 1198   0.809   1.638   1.365 -0.1555  0.0455  0.6253
  400SOL    HW1 1199   0.744   1.692   1.425  1.1533 -1.5525  0.4351
  400SOL    HW2 1200   0.827   1.686   1.276  2.6205  1.9209  0.6949
  401SOL     OW 1201   1.863   0.104   1.263 -0.1724  0.3241 -0.7276
  401SOL    HW1 1202   1.907   0.093   1.359  1.6766 -1.1074  1.6887
  401SOL    HW2 1203   1.759   0.112   1.259 -1.6685 -1.6177  1.2509
  402SOL     OW 1204   1.300   0.134   3.091  0.0499 -0.0232 -0.4159
  402SOL    HW1 1205   1.375   0.109   3.025  0.7843 -2.6549  1.6384
  402SOL    HW2 1206   1.253   0.220   3.069  0.4522 -1.1241 -0.8624
  403SOL     OW 1207   2.272   1.778   0.952 -0.1443  0.6111 -0.9049
  403SOL    HW1 1208   2.372   1.767   0.964 -3.8174 -1.3467 -0.6733
  403SOL    HW2 1209   2.230   1.853   1.008  1.2114 -0.6438  1.4853
  404SOL     OW 1210   0.172   2.473   2.809  0.5570  0.2663  0.8024
  404SOL    HW1 1211   0.266   2.465   2.768 -0.0790 -0.6135 -3.4619
  404SOL    HW2 1212   0.146   2.573   2.822 -1.9539  1.8265 -0.4313
  405SOL     OW 1213   0.123   2.472   0.695 -0.6379  0.4715 -0.0359
  405SOL    HW1 1214   0.122   2.393   0.625  0.8543  2.5923 -0.0567
  405SOL    HW2 1215   0.186   2.555   0.669  0.3218 -0.6549 -1.3955
  406SOL     OW 1216   0.081   1.524   3.043 -0.4528  0.1225  0.4793
  406SOL    HW1 1217   0.154   1.500   2.976 -0.0196  1.0284  0.8702
  406SOL    HW2 1218   0.119   1.577   3.129  0.6158  0.0177  0.3462
  407SOL     OW 1219   1.540   0.939   1.008 -0.0211  0.8847  0.0476
  407SOL    HW1 1220   1.527   0.942   0.905  2.3467  1.1897 -2.0321
  407SOL    HW2 1221   1.459   0.978   1.065  1.3204 -1.9571 -1.5039
  408SOL     OW 1222   1.609   2.447   0.966 -0.1759  0.2078  0.2125
  408SOL    HW1 1223   1.669   2.431   0.881  0.7098  0.1609 -1.5223
  408SOL    HW2 1224   1.547   2.529   0.956  1.4580  1.5974  1.2224
  409SOL     OW 1225   0.639   0.833   0.758  0.3109 -0.4030  0.0930
  409SOL    HW1 1226   0.569   0.818   0.683  1.1336  1.9489 -1.6460
  409SOL    HW2 1227   0.669   0.741   0.790 -1.8855  1.4471  0.9008
  410SOL     OW 1228   1.313   2.019   1.391  0.0433  0.3068  0.0020
  410SOL    HW1 1229   1.365   1.941   1.447  1.7360 -1.6894 -0.2360
  410SOL    HW2 1230   1.220   1.996   1.361 -1.0230 -1.0286 -1.7975
  411SOL     OW 1231   2.632   1.897   3.036  0.5125 -0.4778 -0.8167
  411SOL    HW1 1232   2.574   1.943   2.966  1.3808  0.0585 -0.3019
  411SOL    HW2 1233   2.696   1.832   2.990  1.4791 -0.1212 -1.1619
  412SOL     OW 1234   1.487   2.479   2.175  0.1521  0.2720 -0.0994
  412SOL    HW1 1235   1.501   2.578   2.146  0.3981 -0.8996 -1.0479
  412SOL    HW2 1236   1.391   2.465   2.217 -0.0261 -2.0533  1.9365
  413SOL     OW 1237   3.023   0.228   2.914 -0.1498  0.1736  0.0792
  413SOL    HW1 1238   2.990   0.152   2.975 -2.4417 -0.0172 -0.3432
  413SOL    HW2 1239   3.128   0.235   2.927  1.4025 -1.7044  3.2706
  414SOL     OW 1240   1.900   1.552   1.200 -0.2460  0.2149 -0.1295
  414SOL    HW1 1241   1.852   1.637   1.172 -4.7940 -0.5216  1.4549
  414SOL    HW2 1242   1.845   1.467   1.179  2.3373  1.7420 -1.8887
  415SOL     OW 1243   0.350   2.231   0.732  0.3760  0.0020  0.6912
  415SOL    HW1 1244   0.340   2.336   0.728  1.3483  0.1672  1.3536
  415SOL    HW2 1245   0.282   2.196   0.799  2.8181  1.2991 -1.7774
  416SOL     OW 1246   0.372   1.080   1.055 -0.0193 -0.1062 -0.1707
  416SOL    HW1 1247   0.333   1.015   0.985 -1.1527  0.5654  3.6308
  416SOL    HW2 1248   0.459   1.121   1.019 -2.4361 -2.7891  0.0442
  417SOL     OW 1249   2.235   2.306   2.013  0.1811  0.3127 -0.5600
  417SOL    HW1 1250   2.308   2.258   2.065 -0.9257  1.2812  2.0119
  417SOL    HW2 1251   2.154   2.246   1.989 -0.1486 -3.6546 -2.4729
  418SOL     OW 1252   1.082   0.578   1.339 -0.6666  0.4087  0.0883
  418SOL    HW1 1253   1.012   0.534   1.274 -0.3552  3.6241 -0.8339
  418SOL    HW2 1254   1.186   0.585   1.312  1.4500  0.2227 -1.7285
  419SOL     OW 1255   0.974   0.507   2.980  0.7249  0.1331 -0.4236
  419SOL    HW1 1256   0.928   0.496   2.892  1.5247  1.0891 -1.9945
  419SOL    HW2 1257   1.002   0.602   2.991 -1.5426  0.3404 -0.5254
  420SOL     OW 1258   0.096   2.261   0.515 -0.2048 -0.1755  0.3399
  420SOL    HW1 1259   0.178   2.223   0.464 -0.2122 -0.5239 -1.2403
  420SOL    HW2 1260   0.020   2.192   0.531 -0.5629 -0.2462 -3.2375
  421SOL     OW 1261   0.312   2.991   0.645 -0.0248 -0.6092 -0.0470
  421SOL    HW1 1262   0.296   2.923   0.718  1.3278  2.0554  0.1095
  421SOL    HW2 1263   0.407   3.033   0.647 -0.9287  0.7939  0.9350
  422SOL     OW 1264   1.027   2.554   1.034 -0.1848  0.8142 -0.1268
  422SOL    HW1 1265   1.087   2.590   0.955  1.4774 -0.9998  0.3645
  422SOL    HW2 1266   1.053   2.594   1.125 -0.7891 -0.3834  2.0064
  423SOL     OW 1267   0.135   0.709   1.280  0.3246  0.0962 -0.5172
  423SOL    HW1 1268   0.068   0.657   1.345 -1.2828  1.9394  0.4777
  423SOL    HW2 1269   0.094   0.788   1.222 -0.1856  2.5502 -1.8308
  424SOL     OW 1270   1.029   2.224   2.035  0.7441 -0.4654  0.1004
  424SOL    HW1 1271   1.062   2.321   2.026  0.6913  0.8689  0.8459
  424SOL    HW2 1272   1.003   2.194   2.134 -1.0831 -1.5813  1.1151
  425SOL     OW 1273   1.988   1.292   1.000  0.0773 -0.0483 -0.0281
  425SOL    HW1 1274   2.054   1.225   1.047 -0.2432 -0.8661  0.7979
  425SOL    HW2 1275   2.029   1.383   0.994 -2.3886 -0.3087 -0.6703
  426SOL     OW 1276   1.519   1.607   1.378  0.4140 -0.1439  0.2268
  426SOL    HW1 1277   1.508   1.682   1.306  1.3170  2.3231 -2.0767
  426SOL    HW2 1278   1.440   1.598   1.443  2.7654 -0.4161 -1.1719
  427SOL     OW 1279   1.939   2.349   2.071  0.2766 -0.3347 -0.1575
  427SOL    HW1 1280   1.989   2.282   2.135  2.3297 -2.1684  1.6631
  427SOL    HW2 1281   1.940   2.445   2.105  2.1869 -1.2008 -2.0639
  428SOL     OW 1282   0.878   3.061   0.163  0.9891 -0.8717 -0.3580
  428SOL    HW1 1283   0.891   3.123   0.082 -0.7350 -2.1371  1.4428
  428SOL    HW2 1284   0.953   2.992   0.165  0.1993  0.8073 -1.2305
  429SOL     OW 1285   1.321   0.079   0.257  0.3873  0.1947 -0.0918
  429SOL    HW1 1286   1.424   0.093   0.275 -0.0695 -0.2821 -1.3564
  429SOL    HW2 1287   1.300   0.083   0.154  1.2548  0.7844  0.7825
  430SOL     OW 1288   2.816   1.416   0.310  0.7333  0.0551 -0.0682
  430SOL    HW1 1289   2.866   1.457   0.231  5.0602  0.6908 -0.5445
  430SOL    HW2 1290   2.851   1.454   0.399 -2.8430 -3.3813 -0.2967
  431SOL     OW 1291   2.115   1.547   0.886 -0.4545 -0.6015  0.5536
  431SOL    HW1 1292   2.197   1.607   0.912 -1.1592  0.5694  1.9859
  431SOL    HW2 1293   2.035   1.605   0.866  1.3661 -0.8964  2.6267
  432SOL     OW 1294   2.897   2.249   1.169  0.7531  0.2225 -0.7203
  432SOL    HW1 1295   2.889   2.147   1.174 -3.9547 -0.9071  1.4132
  432SOL    HW2 1296   2.957   2.280   1.246  2.0237  0.7972 -0.6893
  433SOL     OW 1297   1.823   0.328   0.829  0.0826 -0.6724 -0.4400
  433SOL    HW1 1298   1.732   0.354   0.863 -3.9467 -3.5516 -2.0277
  433SOL    HW2 1299   1.864   0.266   0.905 -0.8527 -0.4766  0.2367
  434SOL     OW 1300   1.528   0.294   0.698  0.6043  0.2237  0.3617
  434SOL    HW1 1301   1.503   0.372   0.634  1.5770 -1.3949 -4.1600
  434SOL    HW2 1302   1.531   0.315   0.799 -0.0720  0.8078 -1.3813
  435SOL     OW 1303   1.436   1.504   2.084 -0.0584 -0.0246  0.3486
  435SOL    HW1 1304   1.443   1.578   2.158 -2.5401  1.0214  0.4178
  435SOL    HW2 1305   1.484   1.538   1.996  0.6558  1.6114 -3.3836
  436SOL     OW 1306   1.698   2.734   2.284 -0.0706 -0.0384  0.2728
  436SOL    HW1 1307   1.654   2.805   2.342 -0.9151  0.4230  0.4073
  436SOL    HW2 1308   1.731   2.648   2.338 -0.1942 -1.0281  0.1699
  437SOL     OW 1309   1.100   2.932   0.948  0.2260 -0.4709 -0.2107
  437SOL    HW1 1310   1.059   2.999   0.881  2.8118 -0.3859 -0.8881
  437SOL    HW2 1311   1.073   2.948   1.045 -1.5315 -3.1207 -1.0468
  438SOL     OW 1312   0.990   2.603   1.325 -0.1200  0.4277  0.2921
  438SOL    HW1 1313   1.081   2.626   1.375 -0.1531 -1.8276 -1.0316
  438SOL    HW2 1314   0.976   2.501   1.324 -2.2820 -1.8004 -1.2282
  439SOL     OW 1315   0.685   1.774   1.107  0.1891 -0.2082  0.6556
  439SOL    HW1 1316   0.663   1.847   1.037 -0.3100 -1.6801 -1.3298
  439SOL    HW2 1317   0.603   1.755   1.167  1.1586 -0.6715 -0.5070
  440SOL     OW 1318   1.035   2.529   1.948  0.2684  0.5069  0.1186
  440SOL    HW1 1319   0.994   2.539   1.851 -1.7209 -0.1167 -1.5499
  440SOL    HW2 1320   1.142   2.520   1.953  0.3988 -0.9666 -0.6417
  441SOL     OW 1321   0.516   2.722   1.422  0.3569  0.1150 -0.3091
  441SOL    HW1 1322   0.560   2.630   1.422 -0.5353 -2.6543 -0.2074
  441SOL    HW2 1323   0.407   2.719   1.424  0.7595  2.5199  1.8639
  442SOL     OW 1324   2.259   0.725   2.503 -0.1439  0.5203 -0.4338
  442SOL    HW1 1325   2.256   0.625   2.538 -1.9586 -0.8474  0.5582
  442SOL    HW2 1326   2.170   0.750   2.458  0.0641 -0.1960  0.5068
  443SOL     OW 1327   1.217   2.717   2.155 -0.5469 -0.0008  1.2062
  443SOL    HW1 1328   1.178   2.771   2.230 -0.5679 -1.5123 -0.8326
  443SOL    HW2 1329   1.206   2.617   2.176  4.4552 -3.4364  0.4237
  444SOL     OW 1330   1.092   1.268   1.579 -0.1659  0.1734 -0.3819
  444SOL    HW1 1331   1.195   1.238   1.576  0.5963 -2.3582 -0.2418
  444SOL    HW2 1332   1.082   1.325   1.666  0.2697  1.1777 -0.0503
  445SOL     OW 1333   0.020   2.319   1.888 -0.2121 -0.5226  0.6936
  445SOL    HW1 1334   0.004   2.414   1.850 -1.2718 -2.3478  0.2329
  445SOL    HW2 1335  -0.056   2.283   1.946  1.8652 -0.2426  0.6908
  446SOL     OW 1336   0.205   1.907   2.317 -0.2639 -0.6279 -0.1998
  446SOL    HW1 1337   0.160   1.996   2.356  0.6749 -0.0074  2.5529
  446SOL    HW2 1338   0.149   1.883   2.228 -1.0665 -0.9417 -0.1795
  447SOL     OW 1339   1.207   1.679   1.936  0.8357  0.0447 -0.2713
  447SOL    HW1 1340   1.136   1.753   1.921 -0.1760  0.0655 -1.3213
  447SOL    HW2 1341   1.293   1.692   1.881  0.8784 -1.8972  1.4808
  448SOL     OW 1342   0.170   1.555   2.044  0.1947  0.1745 -0.0291
  448SOL    HW1 1343   0.185   1.648   1.991 -0.6764  2.8278 -0.7463
  448SOL    HW2 1344   0.139   1.559   2.146 -0.0058 -0.2168 -2.0172
  449SOL     OW 1345   1.984   2.951   0.824  0.5942 -0.2014  0.1782
  449SOL    HW1 1346   2.064   2.967   0.883 -0.5632 -0.4655  0.5221
  449SOL    HW2 1347   1.993   2.852   0.795 -1.5312 -0.2591 -0.4471
  450SOL     OW 1348   2.324   1.331   0.772 -0.0557 -0.1338  0.1812
  450SOL    HW1 1349   2.272   1.242   0.786 -1.7015 -0.1964 -1.0921
  450SOL    HW2 1350   2.261   1.411   0.758 -0.2012  3.5814  1.2872
  451SOL     OW 1351   1.389  -0.000   1.440  0.4853  0.3175  0.5378
  451SOL    HW1 1352   1.322   0.079   1.450 -0.0406 -0.7020  0.9255
  451SOL    HW2 1353   1.406  -0.049   1.529 -0.3723 -0.1853 -0.5739
  452SOL     OW 1354   2.656   2.303   2.190 -0.0296  0.1171  0.4919
  452SOL    HW1 1355   2.583   2.368   2.226 -0.5411  0.3485  2.4482
  452SOL    HW2 1356   2.703   2.254   2.269  1.1465  0.6449  2.0389
  453SOL     OW 1357   2.434   2.675   3.066 -0.4290  0.1138  0.7139
  453SOL    HW1 1358   2.345   2.721   3.103 -1.5536  1.3848 -0.0071
  453SOL    HW2 1359   2.413   2.617   2.977  2.7218 -2.0546 -1.7299
  454SOL     OW 1360   1.015   1.092   2.086 -0.6947 -0.3038  0.1678
  454SOL    HW1 1361   0.957   1.110   2.003 -0.5541  0.0120  2.3384
  454SOL    HW2 1362   1.101   1.143   2.089 -1.4991 -1.3448  0.1955
  455SOL     OW 1363   0.653   2.607   2.897  0.5404  0.0380 -0.1461
  455SOL    HW1 1364   0.745   2.649   2.928  1.4321 -1.2412 -3.3358
  455SOL    HW2 1365   0.654   2.506   2.919  0.2495  0.8748  0.1442
  456SOL     OW 1366   0.492   1.894   0.388  0.0999 -0.6558  0.1900
  456SOL    HW1 1367   0.572   1.860   0.439 -4.0276  0.0868 -1.0294
  456SOL    HW2 1368   0.501   1.990   0.350 -0.3075 -0.8694  0.7002
  457SOL     OW 1369   0.362   2.609   0.723  0.7754 -0.4684  0.0940
  457SOL    HW1 1370   0.328   2.667   0.643 -2.6008  2.9380  1.0162
  457SOL    HW2 1371   0.447   2.649   0.760 -1.7175  0.8635 -2.7617
  458SOL     OW 1372   2.973   3.055   1.213  0.7738 -0.2571  0.4612
  458SOL    HW1 1373   2.997   3.138   1.162 -2.3873 -1.9349  1.4737
  458SOL    HW2 1374   2.949   2.977   1.147 -1.8364  2.3652 -2.4128
  459SOL     OW 1375   2.184   2.537   0.849 -0.7268  0.2323  1.0446
  459SOL    HW1 1376   2.236   2.607   0.904 -1.6811  0.4191  0.5110
  459SOL    HW2 1377   2.238   2.504   0.762 -0.0881 -0.4168  0.0076
  460SOL     OW 1378   1.143   1.944   2.936 -0.0027  0.0053 -0.0751
  460SOL    HW1 1379   1.193   2.020   2.881  0.7213  1.1704 -0.3444
  460SOL    HW2 1380   1.211   1.877   2.986  1.8553  2.2879  0.8367
  461SOL     OW 1381   0.480   2.139   2.675  0.0150  0.1067  0.1756
  461SOL    HW1 1382   0.417   2.062   2.635 -2.5136  1.9357 -1.5155
  461SOL    HW2 1383   0.525   2.113   2.766 -0.2511  1.3035 -0.0898
  462SOL     OW 1384   0.936   1.157   1.840  0.4023  0.2552  0.2244
  462SOL    HW1 1385   1.006   1.111   1.773 -2.5759 -0.1056 -0.4026
  462SOL    HW2 1386   0.906   1.244   1.799 -1.1908  0.8042  0.4053
  463SOL     OW 1387   0.455   0.781   0.538 -0.0082  0.4706  0.2202
  463SOL    HW1 1388   0.479   0.686   0.496 -1.5942 -0.4497 -0.0076
  463SOL    HW2 1389   0.354   0.777   0.560  0.4323 -2.4087 -1.9501
  464SOL     OW 1390   0.596   2.223   2.283  0.2695  0.0362  0.4827
  464SOL    HW1 1391   0.588   2.283   2.368 -1.9018  0.7405 -0.2980
  464SOL    HW2 1392   0.559   2.273   2.199  2.8624  1.7569 -3.5956
  465SOL     OW 1393   0.282   0.905   0.830 -0.0725 -0.0184  0.3226
  465SOL    HW1 1394   0.196   0.945   0.797  0.2793 -0.0479 -0.5090
  465SOL    HW2 1395   0.286   0.798   0.818  1.7148 -1.8000 -0.4382
  466SOL     OW 1396   1.360   1.123   1.157  0.4447 -0.5414 -0.4044
  466SOL    HW1 1397   1.397   1.196   1.223 -0.8234 -1.5191 -1.4434
  466SOL    HW2 1398   1.261   1.132   1.128  0.4179  0.9359 -4.3880
  467SOL     OW 1399   0.508   0.317   2.326 -0.1166 -0.0899  0.4338
  467SOL    HW1 1400   0.477   0.397   2.385  0.5678  1.0881 -0.9312
  467SOL    HW2 1401   0.495   0.226   2.373  1.2828 -1.1115 -0.0207
  468SOL     OW 1402   0.441   2.319   1.679 -0.6448  0.0156 -0.6998
  468SOL    HW1 1403   0.515   2.361   1.737 -2.0724  0.0078  1.6806
  468SOL    HW2 1404   0.461   2.327   1.580  1.4954  3.7654  0.3233
  469SOL     OW 1405   1.498   1.335   1.286 -0.0545  0.0072  0.3101
  469SOL    HW1 1406   1.592   1.319   1.247 -0.1669  0.3116 -4.1668
  469SOL    HW2 1407   1.503   1.424   1.344 -0.6961 -0.0430  2.2391
  470SOL     OW 1408   3.020   1.686   0.755 -0.6023  0.0909 -0.5777
  470SOL    HW1 1409   3.077   1.774   0.738  0.3229 -1.5171  0.0334
  470SOL    HW2 1410   2.928   1.704   0.797 -1.5201 -3.5053 -1.8469
  471SOL     OW 1411   2.634   1.370   2.141 -0.1778 -0.0268  0.2307
  471SOL    HW1 1412   2.619   1.298   2.216  1.7904  1.5288  0.7956
  471SOL    HW2 1413   2.724   1.418   2.157  1.0303 -0.2066  0.7339
  472SOL     OW 1414   1.120   2.464   3.061 -0.5483 -0.0220 -0.2251
  472SOL    HW1 1415   1.171   2.476   3.151  1.7690 -1.9767 -0.2975
  472SOL    HW2 1416   1.087   2.368   3.042  1.0660 -1.2761 -0.6296
  473SOL     OW 1417   1.050   1.496   0.926 -0.3855 -0.4103 -0.1673
  473SOL    HW1 1418   0.952   1.523   0.936 -0.5275  0.5172 -2.9682
  473SOL    HW2 1419   1.106   1.507   1.018 -1.9975 -0.1025  1.6361
  474SOL     OW 1420   0.754   1.235   0.618  0.7614 -0.2232 -0.5323
  474SOL    HW1 1421   0.754   1.237   0.514  2.2453 -1.1726 -1.3064
  474SOL    HW2 1422   0.811   1.160   0.660  0.2075 -0.3678  2.1161
  475SOL     OW 1423   2.830   0.155   0.762 -0.6015 -0.4475 -0.2146
  475SOL    HW1 1424   2.919   0.176   0.809 -0.0475 -3.0559  1.7515
  475SOL    HW2 1425   2.749   0.160   0.827  0.0658 -0.1692  2.2337
  476SOL     OW 1426   0.904   2.985   1.786  0.4638  0.1459  0.3146
  476SOL    HW1 1427   0.967   2.942   1.852  2.3624  2.1472 -1.0986
  476SOL    HW2 1428   0.917   2.942   1.694  2.3047  1.3558 -0.3254
  477SOL     OW 1429   1.428   0.335   2.493 -0.3148 -0.0776 -0.5329
  477SOL    HW1 1430   1.421   0.343   2.595  0.5767  0.7150 -0.1478
  477SOL    HW2 1431   1.472   0.243   2.469 -1.1687 -0.1180 -1.3808
  478SOL     OW 1432   2.252   1.831   0.246  0.2417 -0.5287 -0.4190
  478SOL    HW1 1433   2.206   1.742   0.234  0.9518 -0.2128 -0.3514
  478SOL    HW2 1434   2.353   1.823   0.213  1.9773  0.6725  1.3061
  479SOL     OW 1435   1.271   1.071   2.909 -0.5298 -0.1517 -0.9750
  479SOL    HW1 1436   1.345   1.056   2.835 -1.2817 -2.6884 -0.5397
  479SOL    HW2 1437   1.171   1.094   2.886 -3.3765  0.6431 -0.5490
  480SOL     OW 1438   2.511   2.302   0.384  0.3707 -0.2148 -0.1588
  480SOL    HW1 1439   2.493   2.200   0.380  2.0243  0.8600  5.0311
  480SOL    HW2 1440   2.452   2.354   0.315  0.4850  0.2073 -2.7236
  481SOL     OW 1441   1.045   1.182   0.827  0.3076  0.6114  0.0431
  481SOL    HW1 1442   1.033   1.277   0.790  0.0743 -0.0205  0.8750
  481SOL    HW2 1443   1.047   1.185   0.929  1.0519 -1.0680 -1.0606
  482SOL     OW 1444   1.595   0.323   2.025 -0.0546  0.3119  0.1953
  482SOL    HW1 1445   1.590   0.427   2.014 -0.6296 -2.1470 -0.2496
  482SOL    HW2 1446   1.684   0.288   2.054  2.4206 -0.4598 -4.0139
  483SOL     OW 1447   0.192   2.383   1.269  0.2567  0.2697  0.1151
  483SOL    HW1 1448   0.097   2.359   1.302  0.7154  1.0223  0.0598
  483SOL    HW2 1449   0.192   2.424   1.176 -0.2547 -0.0258  1.5548
  484SOL     OW 1450   1.688   0.977   1.382  0.0261 -0.0792  0.2441
  484SOL    HW1 1451   1.754   0.899   1.387 -0.4520 -1.1490  0.6265
  484SOL    HW2 1452   1.701   1.050   1.455  4.0945  0.7260  0.4901
  485SOL     OW 1453   0.651   1.084   1.810  0.2305  0.3766 -0.0781
  485SOL    HW1 1454   0.659   1.039   1.721 -0.8134 -1.1234 -2.2886
  485SOL    HW2 1455   0.739   1.120   1.852 -2.0028  1.1691  0.3743
  486SOL     OW 1456   0.953   1.938   2.467  0.3423  0.4189  0.7263
  486SOL    HW1 1457   0.979   1.891   2.557 -0.0934  0.2651  1.0658
  486SOL    HW2 1458   0.867   1.987   2.489 -0.5134 -3.5581  0.8693
  487SOL     OW 1459   1.748   1.550   0.910 -0.3750  0.0841 -0.0868
  487SOL    HW1 1460   1.719   1.464   0.855 -2.6474 -1.4613 -4.1135
  487SOL    HW2 1461   1.816   1.610   0.861  1.2507 -0.0258  2.2500
  488SOL     OW 1462   2.955   0.891   2.229 -0.2246  0.3929 -0.3183
  488SOL    HW1 1463   3.012   0.819   2.175  0.7051  0.5024 -1.9040
  488SOL    HW2 1464   2.986   0.902   2.327 -1.2638  0.5691  0.7128
  489SOL     OW 1465   2.773   0.252   1.302 -0.3278 -0.2523 -0.3315
  489SOL    HW1 1466   2.727   0.188   1.369  2.5527  1.1973 -0.7670
  489SOL    HW2 1467   2.868   0.218   1.283  2.9598  1.0740 -1.5704
  490SOL     OW 1468   1.448   2.937   2.793 -0.2460  0.1297  0.6810
  490SOL    HW1 1469   1.499   2.846   2.790  1.9118 -0.3843 -2.5901
  490SOL    HW2 1470   1.463   2.997   2.705  1.1797  0.7202 -1.3681
  491SOL     OW 1471   1.788   1.475   2.672 -0.1832  0.0750  0.3171
  491SOL    HW1 1472   1.756   1.512   2.763  2.2476  1.6488  0.8597
  491SOL    HW2 1473   1.887   1.470   2.669 -2.5478  1.6180 -1.1231
  492SOL     OW 1474   0.522   2.031   0.680 -0.0306  1.0163  0.4118
  492SOL    HW1 1475   0.555   2.016   0.775  0.7724 -0.9523 -0.0509
  492SOL    HW2 1476   0.443   2.099   0.674 -0.9543 -2.5352 -0.7754
  493SOL     OW 1477   0.441   1.413   2.045  0.0873 -0.1492 -0.3018
  493SOL    HW1 1478   0.357   1.472   2.047  0.8596 -1.6478  0.5550
  493SOL    HW2 1479   0.436   1.340   2.123 -1.6092  0.6029  0.5541
  494SOL     OW 1480   2.631   2.702   0.174  0.1114 -0.2837 -0.7842
  494SOL    HW1 1481   2.609   2.637   0.254  0.4019 -1.2215 -0.1329
  494SOL    HW2 1482   2.567   2.685   0.093  1.6482 -1.4251  0.7143
  495SOL     OW 1483   2.729   2.667   2.692 -0.3319 -0.6976 -0.0849
  495SOL    HW1 1484   2.682   2.576   2.665  0.1355  0.1232 -1.7234
  495SOL    HW2 1485   2.779   2.707   2.611 -0.3920  0.7200 -0.5475
  496SOL     OW 1486   2.031   2.174   0.712 -0.4152 -0.2773 -0.1749
  496SOL    HW1 1487   2.063   2.194   0.810  2.5145 -0.0576  1.3884
  496SOL    HW2 1488   2.093   2.102   0.666 -0.0574  2.2109  0.0098
  497SOL     OW 1489   0.199   2.969   2.407 -0.4250 -0.4789 -0.2486
  497SOL    HW1 1490   0.166   3.035   2.479 -0.0364  0.5611 -1.8261
  497SOL    HW2 1491   0.252   3.021   2.336  1.1515 -1.4221 -1.3420
  498SOL     OW 1492   1.214   1.451   1.179  0.0940  0.2536 -0.2400
  498SOL    HW1 1493   1.296   1.414   1.228 -1.2323 -0.0317 -3.7550
  498SOL    HW2 1494   1.168   1.527   1.227 -1.6803 -1.2203 -0.4893
  499SOL     OW 1495   0.727   1.851   0.540  0.3179 -0.0235  0.4295
  499SOL    HW1 1496   0.736   1.753   0.569  0.1203  0.9427 -4.6385
  499SOL    HW2 1497   0.771   1.916   0.609  3.1502 -0.3696  0.6874
  500SOL     OW 1498   1.461   2.975   1.655 -0.4126  0.2465  0.7322
  500SOL    HW1 1499   1.414   2.953   1.746  1.0474 -0.9516  2.1292
  500SOL    HW2 1500   1.521   2.897   1.626 -1.0146  0.5546  2.3949
  501SOL     OW 1501   0.829   1.122   2.298 -0.6084 -0.1981  0.0378
  501SOL    HW1 1502   0.729   1.105   2.273 -2.0437  2.4064 -0.5498
  501SOL    HW2 1503   0.893   1.073   2.228  0.1748 -0.0671 -2.1178
  502SOL     OW 1504   2.608   0.944   1.758 -0.7726 -0.2727 -0.2376
  502SOL    HW1 1505   2.624   0.973   1.660  1.6794  1.5760  2.2979
  502SOL    HW2 1506   2.553   0.854   1.766  0.6284 -0.5294 -1.3209
  503SOL     OW 1507   1.295   0.121   0.631 -0.1010 -0.4680 -0.9605
  503SOL    HW1 1508   1.237   0.193   0.678  1.3126  1.3469  0.6135
  503SOL    HW2 1509   1.387   0.162   0.603  2.9112  2.3842  0.1547
  504SOL     OW 1510   3.038   2.319   1.410 -0.3950  0.0740  0.3550
  504SOL    HW1 1511   2.957   2.377   1.447  0.5541 -2.3327  0.3315
  504SOL    HW2 1512   3.068   2.256   1.486  1.9695 -3.1051 -1.8746
  505SOL     OW 1513   2.264   1.177   1.521 -0.2963 -0.0892  0.2209
  505SOL    HW1 1514   2.305   1.214   1.430  0.8241 -0.5600 -3.2440
  505SOL    HW2 1515   2.325   1.189   1.602 -0.2940 -0.7769 -2.4441
  506SOL     OW 1516   2.003   0.221   1.761 -0.4313  0.2754 -0.3447
  506SOL    HW1 1517   2.072   0.142   1.776  1.7100 -2.6905 -2.1596
  506SOL    HW2 1518   1.997   0.276   1.846  3.7055 -0.9982 -0.4076
  507SOL     OW 1519   0.536   0.683   2.171  0.2799 -0.0598  0.0437
  507SOL    HW1 1520   0.452   0.665   2.109 -2.1695 -1.8151 -3.5351
  507SOL    HW2 1521   0.604   0.611   2.152 -1.5484 -0.5469 -1.6868
  508SOL     OW 1522   0.250   1.622   0.906 -0.1076  0.0392  0.3218
  508SOL    HW1 1523   0.353   1.627   0.886  1.3659 -1.8599  1.9134
  508SOL    HW2 1524   0.225   1.682   0.989  0.5519  0.1360  1.1537
  509SOL     OW 1525   1.349   1.252   2.371 -0.3101  0.2505  1.2711
  509SOL    HW1 1526   1.278   1.200   2.425  4.4037  1.0405 -0.8432
  509SOL    HW2 1527   1.414   1.192   2.322 -0.5848 -1.5838  1.5716
  510SOL     OW 1528   1.287   2.026   2.057 -0.2817 -0.2988  0.0530
  510SOL    HW1 1529   1.223   2.111   2.048 -0.4762 -0.9378 -0.4026
  510SOL    HW2 1530   1.233   1.951   2.101  1.6419 -0.7193  1.9929
  511SOL     OW 1531   3.075   2.678   1.342 -0.9074 -0.5816 -0.2620
  511SOL    HW1 1532   3.087   2.649   1.245  1.0548  1.5252 -1.3732
  511SOL    HW2 1533   2.976   2.686   1.376 -0.8965 -3.2680 -0.8507
  512SOL     OW 1534   2.355   0.417   1.392 -0.1703  0.1857 -0.0384
  512SOL    HW1 1535   2.255   0.407   1.362  1.9231  0.4980 -0.7224
  512SOL    HW2 1536   2.415   0.364   1.328  0.5332  0.7626 -0.5428
  513SOL     OW 1537   2.477   2.042   0.859  0.0651 -1.0062  0.3895
  513SOL    HW1 1538   2.410   2.094   0.799 -0.2845 -0.6068 -0.8082
  513SOL    HW2 1539   2.546   1.987   0.802 -2.1340  1.8669 -1.2566
  514SOL     OW 1540   0.595   2.804   0.497  0.3529  0.3545 -1.2619
  514SOL    HW1 1541   0.597   2.849   0.405  0.3540 -0.2883 -0.3538
  514SOL    HW2 1542   0.648   2.848   0.572 -1.6538 -0.7419  0.8428
  515SOL     OW 1543   2.015   1.139   2.257  0.1064  0.0748 -0.2570
  515SOL    HW1 1544   1.971   1.142   2.158 -0.7912 -1.4005 -2.5875
  515SOL    HW2 1545   1.953   1.167   2.344  1.5997  2.8155  3.5150
  516SOL     OW 1546   0.272   0.258   1.952  0.2524  0.4413  0.4110
  516SOL    HW1 1547   0.350   0.224   1.891  2.2839  1.2412 -0.2417
  516SOL    HW2 1548   0.181   0.229   1.920  2.0819  2.2083 -0.4555
  517SOL     OW 1549   0.406   3.036   1.177 -1.1480  0.1411  0.2147
  517SOL    HW1 1550   0.433   3.132   1.168  2.3848 -0.1968  1.3694
  517SOL    HW2 1551   0.311   3.019   1.203 -0.5211 -0.6967 -1.0834
  518SOL     OW 1552   2.187   3.091   1.753 -0.3963 -0.2506 -0.1818
  518SOL    HW1 1553   2.263   3.145   1.794 -2.7543  1.1514 -1.7659
  518SOL    HW2 1554   2.219   3.021   1.683  0.3295 -2.6614 -1.2827
  519SOL     OW 1555   2.368   2.233   2.587  0.8012 -0.4068 -0.6410
  519SOL    HW1 1556   2.285   2.222   2.652  0.1363 -0.3819  1.0423
  519SOL    HW2 1557   2.425   2.322   2.593  1.7467  1.1810  2.2016
  520SOL     OW 1558   1.740   2.876   1.874  0.0259 -0.0506 -0.0209
  520SOL    HW1 1559   1.653   2.829   1.914 -1.1794 -0.2830 -2.0064
  520SOL    HW2 1560   1.819   2.806   1.868  0.6999 -1.7888  0.0861
  521SOL     OW 1561   0.553   3.080   2.132  0.0168 -0.0810  0.0731
  521SOL    HW1 1562   0.451   3.073   2.148  0.5266  1.3139 -1.3349
  521SOL    HW2 1563   0.616   3.087   2.213 -0.2540 -0.3582 -1.5139
  522SOL     OW 1564   0.205   1.889   1.435 -0.0309  0.3998  0.5635
  522SOL    HW1 1565   0.254   1.956   1.496 -0.7635  1.3781  1.0053
  522SOL    HW2 1566   0.166   1.935   1.351 -0.2543 -1.1755 -1.8128
  523SOL     OW 1567   2.255   2.919   1.548 -0.2490 -0.8181  0.1019
  523SOL    HW1 1568   2.328   2.847   1.563 -0.5268 -0.6609 -0.6244
  523SOL    HW2 1569   2.166   2.882   1.501  0.9946 -0.8759  0.5170
  524SOL     OW 1570   0.187   2.774   2.775  0.3346 -0.4121 -0.5191
  524SOL    HW1 1571   0.129   2.845   2.825 -2.8663 -0.3175 -0.5355
  524SOL    HW2 1572   0.289   2.772   2.787  0.9126 -0.7576 -1.2300
  525SOL     OW 1573   2.154   1.961   0.481  0.2987 -0.4386  0.4274
  525SOL    HW1 1574   2.150   1.893   0.558 -2.0905  0.5750  2.3663
  525SOL    HW2 1575   2.158   1.925   0.384 -0.8716 -0.0837 -0.4414
  526SOL     OW 1576   0.393   1.528   1.642  0.5059 -0.8025 -0.6841
  526SOL    HW1 1577   0.298   1.495   1.673  0.9571  2.8613  0.1316
  526SOL    HW2 1578   0.458   1.450   1.625  0.6933 -2.1448  1.0563
  527SOL     OW 1579   1.090   2.967   1.259 -0.4273 -0.2178  0.1691
  527SOL    HW1 1580   1.189   2.934   1.271  1.2434  0.6970  1.6802
  527SOL    HW2 1581   1.085   3.070   1.256 -1.5873 -2.2349  0.7892
  528SOL     OW 1582   1.359   2.413   0.510  0.1100 -0.3130  0.0711
  528SOL    HW1 1583   1.382   2.311   0.507 -2.6652 -0.4721  1.9988
  528SOL    HW2 1584   1.420   2.464   0.580  0.5701 -0.1522 -0.0812
  529SOL     OW 1585   1.931   1.738   0.780 -0.2266 -0.5980  1.0270
  529SOL    HW1 1586   1.878   1.781   0.701 -0.4753  0.3914  0.0439
  529SOL    HW2 1587   1.930   1.801   0.869 -3.1931 -0.0772  0.6240
  530SOL     OW 1588   0.284   2.500   0.313 -0.0916 -0.5897  0.5175
  530SOL    HW1 1589   0.246   2.576   0.373  1.3585 -1.7357 -0.5749
  530SOL    HW2 1590   0.348   2.432   0.360  1.3644 -1.9553  0.3766
  531SOL     OW 1591   1.812   1.017   0.995 -0.2210  0.2284  0.2347
  531SOL    HW1 1592   1.836   1.021   0.892  0.2041 -0.9962 -1.0064
  531SOL    HW2 1593   1.713   1.003   1.013 -0.3669 -2.1180 -1.3781
  532SOL     OW 1594   0.506   1.088   0.796 -0.0932 -0.8167  0.1374
  532SOL    HW1 1595   0.556   1.090   0.706  3.0211 -1.0306  1.0866
  532SOL    HW2 1596   0.453   0.996   0.804 -0.4688 -0.7598  0.1897
  533SOL     OW 1597   1.762   0.021   2.588  0.3292 -0.2868 -0.1356
  533SOL    HW1 1598   1.853  -0.018   2.607 -1.8066 -2.9202 -1.2917
  533SOL    HW2 1599   1.730   0.083   2.664  1.5303 -0.2738 -0.8189
  534SOL     OW 1600   0.320   0.217   1.624  0.8812 -0.7549 -0.2818
  534SOL    HW1 1601   0.426   0.224   1.620  2.7814 -0.4179  1.8912
  534SOL    HW2 1602   0.269   0.310   1.604 -0.9544  0.5499 -1.6485
  535SOL     OW 1603   1.970   0.334   0.135  0.1254 -0.0543  0.3122
  535SOL    HW1 1604   1.943   0.425   0.181  0.0122 -1.4383 -2.5730
  535SOL    HW2 1605   1.963   0.255   0.199  0.2936  2.8533 -1.6981
  536SOL     OW 1606   1.403   2.634   0.946 -0.0560  0.2470  0.2964
  536SOL    HW1 1607   1.378   2.589   1.035  1.2494 -0.5021 -0.6036
  536SOL    HW2 1608   1.314   2.650   0.890 -2.2759  2.3926  0.4230
  537SOL     OW 1609   0.823   0.298   2.402 -0.3771  0.3602 -0.0829
  537SOL    HW1 1610   0.799   0.367   2.328 -1.9702 -1.0554 -1.7933
  537SOL    HW2 1611   0.794   0.205   2.372  0.5832  0.4000 -0.5889
  538SOL     OW 1612   1.673   2.322   1.479  0.0331 -0.4145 -0.4972
  538SOL    HW1 1613   1.677   2.222   1.449  1.1850 -0.6364 -2.4784
  538SOL    HW2 1614   1.752   2.382   1.448  0.9648  1.8347 -0.9692
  539SOL     OW 1615   0.161   1.643   2.687 -0.1861  0.1955 -0.2528
  539SOL    HW1 1616   0.078   1.647   2.622  0.3976 -1.7908 -3.2363
  539SOL    HW2 1617   0.175   1.725   2.746  1.6075 -1.2414  0.6505
  540SOL     OW 1618   2.656   1.743   1.917 -0.0612  0.3117  0.1542
  540SOL    HW1 1619   2.595   1.668   1.959 -3.8396  1.1498  1.2851
  540SOL    HW2 1620   2.626   1.838   1.923 -1.5929  0.1267  0.4536
  541SOL     OW 1621   0.520   2.193   0.014  0.1163 -0.1544 -0.1741
  541SOL    HW1 1622   0.530   2.157   0.112 -0.1845  0.1668 -0.0602
  541SOL    HW2 1623   0.421   2.185  -0.020  1.3264 -1.9937  2.4339
  542SOL     OW 1624   2.223   2.555   0.423 -0.0816  0.4012 -0.1668
  542SOL    HW1 1625   2.172   2.644   0.413 -1.4355 -1.2518  0.8746
  542SOL    HW2 1626   2.165   2.475   0.448  1.1280  0.4123  0.6176
  543SOL     OW 1627   1.128   1.809   1.559  0.1234 -0.0297 -0.1454
  543SOL    HW1 1628   1.117   1.835   1.660 -1.6452 -5.3941  0.0333
  543SOL    HW2 1629   1.080   1.870   1.494 -0.5307  2.4047  1.0474
  544SOL     OW 1630   1.098   0.458   0.176  0.4452 -0.0577  0.1311
  544SOL    HW1 1631   1.086   0.403   0.260  0.0431  1.8273 -1.1512
  544SOL    HW2 1632   1.134   0.404   0.097 -1.8717  2.0220 -0.3804
  545SOL     OW 1633   1.117   1.749   0.811  0.0115  0.8278 -0.2188
  545SOL    HW1 1634   1.203   1.753   0.751  2.8625  1.3863 -1.1467
  545SOL    HW2 1635   1.081   1.653   0.825 -1.6229  0.1659  0.1858
  546SOL     OW 1636   2.640   1.527   3.033 -0.0685 -0.1246 -0.2555
  546SOL    HW1 1637   2.632   1.592   2.955  0.7735  2.0784 -2.4643
  546SOL    HW2 1638   2.553   1.473   3.048 -0.0218  0.1061  1.4377
  547SOL     OW 1639   0.631   3.003   2.609 -0.0132 -0.2234  0.1158
  547SOL    HW1 1640   0.716   3.018   2.669  0.8602  1.4152  0.4190
  547SOL    HW2 1641   0.552   2.955   2.663  0.1029  0.9699 -2.3298
  548SOL     OW 1642   2.089   0.871   2.987 -0.1264 -0.3965 -0.2061
  548SOL    HW1 1643   2.002   0.817   2.999  2.5296  0.5491 -1.1371
  548SOL    HW2 1644   2.097   0.958   3.044  0.3641 -0.5616 -0.8790
  549SOL     OW 1645   0.668   0.573   0.187 -0.5014  0.8444  0.2223
  549SOL    HW1 1646   0.606   0.627   0.124 -1.8429 -1.0530  0.5609
  549SOL    HW2 1647   0.773   0.607   0.179  5.3582  0.6697  1.9300
  550SOL     OW 1648   2.619   2.797   2.900  0.0552 -0.5028  0.3461
  550SOL    HW1 1649   2.560   2.748   2.971 -1.3167  0.5640  2.6629
  550SOL    HW2 1650   2.664   2.737   2.831 -0.2142  2.4157  0.1862
  551SOL     OW 1651   0.282   0.865   0.261 -0.4311  0.5413  0.5573
  551SOL    HW1 1652   0.382   0.876   0.230 -0.9359 -1.7565  0.7838
  551SOL    HW2 1653   0.264   0.830   0.355 -0.9622  1.4046 -1.4622
  552SOL     OW 1654   0.621   2.989   1.889 -0.0627  0.0355 -0.8053
  552SOL    HW1 1655   0.597   3.019   1.984  3.5378 -1.0336  1.4266
  552SOL    HW2 1656   0.724   2.975   1.871  1.5228  0.9830 -2.3740
  553SOL     OW 1657   2.903   2.450   0.359 -0.0634 -0.3425 -0.1555
  553SOL    HW1 1658   2.889   2.361   0.402 -2.8038 -0.4041  1.3138
  553SOL    HW2 1659   2.818   2.490   0.313 -0.7810 -0.6849  1.5972
  554SOL     OW 1660   2.126   0.355   0.530 -0.3628 -0.3570 -0.3724
  554SOL    HW1 1661   2.195   0.373   0.455 -1.2862 -2.9907 -0.6397
  554SOL    HW2 1662   2.170   0.291   0.603 -1.1926 -0.0529  0.8255
  555SOL     OW 1663   0.367   2.769   2.504 -0.1195  0.3284  0.0945
  555SOL    HW1 1664   0.303   2.846   2.475 -0.0668  3.0567 -2.3236
  555SOL    HW2 1665   0.427   2.748   2.419 -0.0198 -1.4447  1.2088
  556SOL     OW 1666   0.855   2.363   1.552 -0.2137 -0.8347 -0.3123
  556SOL    HW1 1667   0.900   2.426   1.620  2.2400 -0.8699  0.6103
  556SOL    HW2 1668   0.915   2.356   1.466 -0.9229  1.0065  0.5416
  557SOL     OW 1669   0.147   2.023   0.232 -0.0691 -0.7708  0.3464
  557SOL    HW1 1670   0.054   2.031   0.197 -0.0528  0.9114  0.0680
  557SOL    HW2 1671   0.214   2.067   0.172  0.9581 -0.3346  2.9012
  558SOL     OW 1672   2.782   2.205   0.427 -0.2682 -0.1867  0.3885
  558SOL    HW1 1673   2.683   2.232   0.416 -0.4995  1.0921 -1.0669
  558SOL    HW2 1674   2.807   2.113   0.395  0.9231  0.0290 -0.3062
  559SOL     OW 1675   0.433   2.318   1.404  0.2073  0.2315 -0.2438
  559SOL    HW1 1676   0.347   2.351   1.360  2.1634  0.3386  0.6028
  559SOL    HW2 1677   0.469   2.228   1.364  0.2771 -0.5309 -0.7276
  560SOL     OW 1678   2.112   1.121   3.078 -0.0306 -0.1758  0.5895
  560SOL    HW1 1679   2.158   1.144   3.172  1.1269  3.2376 -0.5017
  560SOL    HW2 1680   2.153   1.170   2.998 -0.2169 -1.0678  0.7872
  561SOL     OW 1681   0.006   1.870   0.003 -0.3812  0.3240  0.4196
  561SOL    HW1 1682  -0.017   1.837   0.097  1.1823  1.1028 -0.1124
  561SOL    HW2 1683  -0.056   1.953  -0.013 -2.2454 -4.2093 -2.6460
  562SOL     OW 1684   1.009   2.164   2.304  0.5395  0.0492  0.1335
  562SOL    HW1 1685   0.981   2.240   2.372 -0.8625  6.1159  1.4246
  562SOL    HW2 1686   1.019   2.071   2.351 -0.2033 -1.1892 -0.5616
  563SOL     OW 1687   0.698   2.544   2.633 -0.0790 -0.6204  0.3597
  563SOL    HW1 1688   0.792   2.509   2.612 -1.4509 -0.9526 -3.5322
  563SOL    HW2 1689   0.685   2.578   2.728  1.8484  1.0698 -1.5160
  564SOL     OW 1690   2.850   1.377   2.909  0.3122  0.5081  0.2523
  564SOL    HW1 1691   2.762   1.389   2.967  0.3202 -1.1762  0.3010
  564SOL    HW2 1692   2.892   1.469   2.885  0.8818  1.4948 -0.5422
  565SOL     OW 1693   2.498   1.995   2.652 -0.6288 -0.3361 -0.0441
  565SOL    HW1 1694   2.443   2.082   2.648 -0.5213  2.0674  2.3540
  565SOL    HW2 1695   2.594   2.007   2.694  0.7906  1.4122  0.0093
  566SOL     OW 1696   1.995   2.871   1.471 -0.3476  0.0888  0.5012
  566SOL    HW1 1697   1.949   2.782   1.488  0.5241 -0.2021  0.4271
  566SOL    HW2 1698   1.994   2.906   1.372 -1.3288  1.4733 -1.1796
  567SOL     OW 1699   2.403   3.070   2.358  0.7119  0.2924  0.3194
  567SOL    HW1 1700   2.339   3.138   2.405  2.0450  0.1688  1.1724
  567SOL    HW2 1701   2.402   3.089   2.256 -2.0514  3.2759 -1.7965
  568SOL     OW 1702   1.535   1.801   0.246  0.1630  0.6862  0.4923
  568SOL    HW1 1703   1.498   1.897   0.232  0.8225  1.0961 -1.2558
  568SOL    HW2 1704   1.637   1.794   0.263 -0.5701 -0.4874 -0.1207
  569SOL     OW 1705   0.271   0.649   0.784  0.0347 -0.0197  0.1500
  569SOL    HW1 1706   0.335   0.575   0.779 -1.3886  2.1787  1.5473
  569SOL    HW2 1707   0.173   0.621   0.764  2.3837 -1.9895  0.2042
  570SOL     OW 1708   0.646   0.853   2.925  0.1120  0.7765 -0.0810
  570SOL    HW1 1709   0.703   0.839   2.842  0.6869 -1.0234 -1.7304
  570SOL    HW2 1710   0.679   0.930   2.990  0.1612  2.0755 -1.4528
  571SOL     OW 1711   0.791   3.087   1.089  0.5729  0.5388  0.5425
  571SOL    HW1 1712   0.825   3.134   0.999 -0.3408  1.9752 -0.5689
  571SOL    HW2 1713   0.837   2.992   1.105  0.3792 -0.2821  3.6142
  572SOL     OW 1714   1.633   2.663   1.364 -0.5585 -0.0442  0.4205
  572SOL    HW1 1715   1.622   2.594   1.284  1.6311 -1.1237  2.3724
  572SOL    HW2 1716   1.638   2.761   1.336 -1.2979 -2.0657  0.6354
  573SOL     OW 1717   2.959   0.488   2.022  0.5571  0.1723 -0.1356
  573SOL    HW1 1718   2.877   0.427   2.042  1.7482  0.5667 -0.6731
  573SOL    HW2 1719   3.020   0.449   1.947  3.2485 -0.8363 -3.1596
  574SOL     OW 1720   0.159   1.758   1.111  0.2158  0.1516 -0.1418
  574SOL    HW1 1721   0.203   1.745   1.205  0.5437  0.4900  0.6391
  574SOL    HW2 1722   0.068   1.815   1.113  0.2008  1.5756  0.8114
  575SOL     OW 1723   0.839   2.189   0.965  0.5853 -0.2527  0.0759
  575SOL    HW1 1724   0.793   2.252   1.037  1.2165  1.1896  3.3032
  575SOL    HW2 1725   0.878   2.245   0.885 -0.1065 -3.5309 -0.2556
  576SOL     OW 1726   2.858   2.981   1.665 -0.2391 -0.2720  0.2743
  576SOL    HW1 1727   2.759   2.961   1.706 -0.7127  1.0464  0.1316
  576SOL    HW2 1728   2.874   3.086   1.660  2.5418  0.9033  0.3933
  577SOL     OW 1729   2.608   1.191   0.002  0.8115  0.6634  0.1601
  577SOL    HW1 1730   2.615   1.095  -0.044 -2.4974  1.2169  0.5414
  577SOL    HW2 1731   2.672   1.186   0.088  1.3543  0.6998  0.3054
  578SOL     OW 1732   1.401   2.770   2.472 -0.3971  0.3056  0.2750
  578SOL    HW1 1733   1.310   2.789   2.431 -0.1879 -0.1566  0.4129
  578SOL    HW2 1734   1.466   2.852   2.467  0.9698 -1.9369 -1.9253
  579SOL     OW 1735   0.018   2.466   0.193 -0.8538 -0.1071 -0.6834
  579SOL    HW1 1736  -0.062   2.471   0.260  0.1112  1.4072  0.0449
  579SOL    HW2 1737   0.105   2.438   0.242  1.4094  2.4225 -0.1336
  580SOL     OW 1738   0.970   2.644   0.371  0.5293 -0.1970  0.3209
  580SOL    HW1 1739   1.044   2.668   0.308 -0.5722 -2.1498  0.2304
  580SOL    HW2 1740   0.891   2.584   0.332  0.7813  0.7560  2.2508
  581SOL     OW 1741   1.224   2.647   1.442  0.2616 -0.2649 -0.3104
  581SOL    HW1 1742   1.274   2.559   1.467 -2.0523 -1.0156 -0.6560
  581SOL    HW2 1743   1.283   2.728   1.418 -1.3731  1.9490 -0.9089
  582SOL     OW 1744   1.494   0.115   1.878  0.4279  0.3183 -0.0587
  582SOL    HW1 1745   1.522   0.198   1.933 -3.0765  0.6659  2.5808
  582SOL    HW2 1746   1.572   0.074   1.822  2.9019 -2.1841 -0.0732
  583SOL     OW 1747   2.425   3.073   0.533  0.1232 -0.3195  0.1084
  583SOL    HW1 1748   2.511   3.024   0.496  1.1913 -1.0467 -2.7444
  583SOL    HW2 1749   2.345   3.015   0.567  1.0583 -1.1979  0.0952
  584SOL     OW 1750   1.555   1.097   2.270  1.0076 -0.1867 -0.0245
  584SOL    HW1 1751   1.613   1.179   2.237  1.7244 -2.0985  2.2761
  584SOL    HW2 1752   1.605   1.009   2.287  0.3100  2.4120 -1.7298
  585SOL     OW 1753   2.107   2.657   2.883 -0.3062 -0.3018 -0.0334
  585SOL    HW1 1754   2.125   2.559   2.881  0.6218  2.0984  0.4587
  585SOL    HW2 1755   2.005   2.683   2.879 -0.2464  1.4049  0.6155
  586SOL     OW 1756   2.879   0.369   1.562  0.5404  0.5696 -0.4417
  586SOL    HW1 1757   2.851   0.463   1.608 -0.3174  3.1425  1.5971
  586SOL    HW2 1758   2.802   0.337   1.506  2.7282  0.2683 -1.5357
  587SOL     OW 1759   2.065   1.493   2.642 -0.0447 -0.2711  0.2823
  587SOL    HW1 1760   2.116   1.415   2.598  2.6509  1.0511  1.3883
  587SOL    HW2 1761   2.088   1.501   2.742  0.1160 -0.3272 -1.1073
  588SOL     OW 1762   0.494   2.713   2.261  0.4919  0.2787  0.3060
  588SOL    HW1 1763   0.409   2.729   2.200 -0.2843  2.3027  0.0562
  588SOL    HW2 1764   0.511   2.615   2.277  2.3268  0.1508 -0.7801
  589SOL     OW 1765   2.195   1.292   2.476  0.0303 -0.3423  0.0531
  589SOL    HW1 1766   2.146   1.231   2.409  1.1514 -1.0880  0.6189
  589SOL    HW2 1767   2.301   1.287   2.469  0.4215 -0.8560 -0.7910
  590SOL     OW 1768   2.319   1.758   2.037  0.7656  0.3598  0.4033
  590SOL    HW1 1769   2.385   1.680   2.036 -2.4364  2.7904  1.3872
  590SOL    HW2 1770   2.310   1.815   2.122  0.9427 -1.7491 -1.5291
  591SOL     OW 1771   1.240   2.436   0.225 -0.6007  0.3435 -0.0448
  591SOL    HW1 1772   1.272   2.363   0.162 -0.5963 -2.1430 -1.4846
  591SOL    HW2 1773   1.273   2.414   0.322 -0.2582  0.7944 -1.6037
  592SOL     OW 1774   1.784   2.341   0.743  0.5155 -0.0028  0.0160
  592SOL    HW1 1775   1.756   2.411   0.669 -0.8679 -1.2558  0.6261
  592SOL    HW2 1776   1.876   2.303   0.729  1.2382  1.1467 -1.5860
  593SOL     OW 1777   0.704   0.279   0.224  0.0093 -0.5117  0.1383
  593SOL    HW1 1778   0.786   0.250   0.164 -0.4686  1.8860 -0.6764
  593SOL    HW2 1779   0.676   0.377   0.209  2.7649 -1.6762 -0.3008
  594SOL     OW 1780   1.052   1.827   2.698  0.2175  0.2797 -0.0505
  594SOL    HW1 1781   1.143   1.789   2.660  0.1717  1.8393  3.4060
  594SOL    HW2 1782   1.078   1.885   2.783  2.1288  0.4072  0.5533
  595SOL     OW 1783   1.572   0.068   0.995  0.3028  0.2393 -0.4602
  595SOL    HW1 1784   1.657   0.010   0.976  1.3164  0.5757  0.2740
  595SOL    HW2 1785   1.490   0.032   0.941 -2.1684 -0.4030 -0.2706
  596SOL     OW 1786   0.032   1.552   2.295 -0.0553 -0.0942 -0.0040
  596SOL    HW1 1787   0.098   1.481   2.338 -0.1674  0.0345  3.9132
  596SOL    HW2 1788  -0.017   1.606   2.373 -0.7561 -2.2488  0.4737
  597SOL     OW 1789   1.918   2.673   1.800  0.0538  0.4908  0.1775
  597SOL    HW1 1790   1.863   2.670   1.714  1.1063  1.3212 -0.5993
  597SOL    HW2 1791   1.995   2.607   1.803 -2.4273 -0.2009 -0.8989
  598SOL     OW 1792   2.540   2.902   1.226  0.4382 -0.1199 -0.6298
  598SOL    HW1 1793   2.622   2.943   1.283 -0.0440  1.3598  0.0979
  598SOL    HW2 1794   2.566   2.893   1.126 -0.7821 -1.3137  0.5915
  599SOL     OW 1795   2.878   0.305   2.470 -0.6278  0.4087 -0.1159
  599SOL    HW1 1796   2.961   0.328   2.416 -1.5696 -0.9591 -0.5877
  599SOL    HW2 1797   2.794   0.318   2.416  0.7292  0.1654 -0.2194
  600SOL     OW 1798   2.825   1.152   2.723  0.2374  0.6007  0.6784
  600SOL    HW1 1799   2.791   1.080   2.786 -0.9398  1.4809 -2.4744
  600SOL    HW2 1800   2.806   1.247   2.764  1.0294  1.3100  0.2119
  601SOL     OW 1801   3.090   1.342   2.011 -0.1267 -0.1697 -0.0368
  601SOL    HW1 1802   3.007   1.373   1.952  1.3052 -0.0979  0.7773
  601SOL    HW2 1803   3.142   1.417   2.057  1.7420  0.2693  1.1236
  602SOL     OW 1804   1.444   1.652   2.309 -0.0736 -1.0024 -0.4405
  602SOL    HW1 1805   1.363   1.614   2.363  0.2506 -0.5908 -0.4651
  602SOL    HW2 1806   1.535   1.633   2.363  1.0934 -1.5951 -1.0095
  603SOL     OW 1807   0.686   1.171   2.765  0.0324  0.0011 -0.6163
  603SOL    HW1 1808   0.597   1.170   2.711 -0.4943  1.9362 -0.7577
  603SOL    HW2 1809   0.751   1.098   2.741  1.7283  1.1156  1.1646
  604SOL     OW 1810   2.438   1.002   0.163  0.0220  0.1269 -0.2632
  604SOL    HW1 1811   2.460   1.072   0.093  0.4845  1.9458  0.6979
  604SOL    HW2 1812   2.420   0.910   0.116 -0.4270  1.4279 -1.6874
  605SOL     OW 1813   2.500   1.186   1.984 -0.2535  0.2910  0.2536
  605SOL    HW1 1814   2.571   1.116   1.955 -0.3858 -0.8563 -0.2768
  605SOL    HW2 1815   2.539   1.257   2.054 -0.2631  1.1198 -2.2575
  606SOL     OW 1816   1.512   2.541   2.554 -0.6388  0.4365  0.0868
  606SOL    HW1 1817   1.462   2.627   2.511  0.8501  4.0182 -0.7425
  606SOL    HW2 1818   1.449   2.458   2.552 -1.3103  0.9194 -3.3611
  607SOL     OW 1819   1.361   1.582   0.312  0.0948 -0.1306 -0.0503
  607SOL    HW1 1820   1.272   1.628   0.326  1.8859 -1.2299 -0.0653
  607SOL    HW2 1821   1.432   1.649   0.290  0.6472  0.3131 -0.5695
  608SOL     OW 1822   1.450   2.823   0.393 -0.2342  0.3933  0.2227
  608SOL    HW1 1823   1.463   2.864   0.299 -1.8261  1.6180 -0.3387
  608SOL    HW2 1824   1.398   2.880   0.463  1.0654  0.9762  1.3722
  609SOL     OW 1825   1.288   1.346   0.208  0.3052  0.2608 -0.9292
  609SOL    HW1 1826   1.313   1.443   0.242 -1.4313  1.2777  1.4071
  609SOL    HW2 1827   1.255   1.342   0.113  1.2016  0.5939  2.3840
  610SOL     OW 1828   2.991   1.168   2.229  0.7580  0.9325  0.5440
  610SOL    HW1 1829   2.977   1.067   2.219  0.3205  1.6667  1.5985
  610SOL    HW2 1830   3.008   1.221   2.141 -1.5300  0.1565 -0.9227
  611SOL     OW 1831   2.536   0.265   1.184 -0.2455  0.0474 -0.1427
  611SOL    HW1 1832   2.472   0.181   1.192 -0.0146 -0.2520 -3.1139
  611SOL    HW2 1833   2.639   0.239   1.198 -0.2498  2.6867  2.9634
  612SOL     OW 1834   0.728   2.297   1.178  0.2273  0.1283  0.3694
  612SOL    HW1 1835   0.669   2.236   1.234  3.6743  0.5192 -0.4834
  612SOL    HW2 1836   0.681   2.388   1.147  0.9281  0.2779 -2.4850
  613SOL     OW 1837   0.861   1.375   2.392  0.3534 -0.0911 -0.1773
  613SOL    HW1 1838   0.845   1.453   2.330  2.2189  0.6591  3.3383
  613SOL    HW2 1839   0.847   1.285   2.346 -0.3345  0.9185  0.0873
  614SOL     OW 1840   1.566   1.677   1.857 -0.2175 -0.3790 -0.4971
  614SOL    HW1 1841   1.534   1.775   1.849 -1.1718 -0.3166 -2.5415
  614SOL    HW2 1842   1.667   1.663   1.864  0.6986 -2.5967 -2.3941
  615SOL     OW 1843   0.752   1.367   1.735 -0.4538  0.1223 -0.6976
  615SOL    HW1 1844   0.656   1.358   1.684 -3.3407  1.1452 -0.5515
  615SOL    HW2 1845   0.813   1.444   1.703 -1.5913 -0.1413  0.0725
  616SOL     OW 1846   1.122   1.571   2.174 -0.0104 -0.4229 -0.0537
  616SOL    HW1 1847   1.019   1.551   2.172  1.7891  2.4920 -0.3027
  616SOL    HW2 1848   1.163   1.590   2.081 -1.5240 -1.1743  0.5645
  617SOL     OW 1849   2.975   1.537   1.618 -0.2881 -0.1497  0.1521
  617SOL    HW1 1850   2.978   1.481   1.703  0.4060 -1.7186 -1.0293
  617SOL    HW2 1851   2.944   1.478   1.536  0.5592 -1.6321  1.6025
  618SOL     OW 1852   1.938   1.975   1.438 -0.3378 -0.9789 -0.0610
  618SOL    HW1 1853   2.013   1.976   1.367  2.6443  0.1301  0.7893
  618SOL    HW2 1854   1.907   1.879   1.464  0.2009 -2.7888  1.3262
  619SOL     OW 1855   1.704   0.454   2.380 -0.4059 -0.1614 -0.6516
  619SOL    HW1 1856   1.631   0.517   2.332  1.8795  0.6893 -1.0370
  619SOL    HW2 1857   1.656   0.366   2.404 -1.7423  2.1352 -1.3044
  620SOL     OW 1858   2.196   2.927   0.597 -0.2105 -0.2064  0.2145
  620SOL    HW1 1859   2.124   3.000   0.616 -2.6044  2.1852 -2.2009
  620SOL    HW2 1860   2.213   2.866   0.679 -2.1522  0.8348 -0.9502
  621SOL     OW 1861   2.183   1.869   1.296  0.7599  0.5819  0.1618
  621SOL    HW1 1862   2.168   1.869   1.397 -1.6479  1.2698 -2.2783
  621SOL    HW2 1863   2.170   1.775   1.250  1.3877  2.8267  0.9474
  622SOL     OW 1864   2.160   0.840   1.723  0.1322  0.2602  0.2323
  622SOL    HW1 1865   2.239   0.793   1.675 -0.3278  0.5598  2.4488
  622SOL    HW2 1866   2.145   0.805   1.818  1.7740 -1.2020 -0.5835
  623SOL     OW 1867   1.362   0.757   2.619 -0.2708  0.1997 -0.2832
  623SOL    HW1 1868   1.289   0.720   2.686 -0.9869 -0.1797  3.0934
  623SOL    HW2 1869   1.318   0.787   2.528  1.4615  0.9245 -1.6568
  624SOL     OW 1870   0.494   0.711   0.006 -0.1756  0.3854 -0.6265
  624SOL    HW1 1871   0.546   0.754  -0.073  0.2504 -0.1022  0.4936
  624SOL    HW2 1872   0.495   0.769   0.085  0.4653  1.2138 -1.7300
  625SOL     OW 1873   2.799   1.748   0.908 -0.0505 -0.0033 -0.2226
  625SOL    HW1 1874   2.727   1.778   0.977  0.9616  0.4807  0.6127
  625SOL    HW2 1875   2.808   1.645   0.904 -2.2149 -0.7369 -0.5392
  626SOL     OW 1876   0.533   2.735   1.846  0.2688  0.4311  0.2335
  626SOL    HW1 1877   0.557   2.834   1.859 -0.2529  0.2940 -0.1309
  626SOL    HW2 1878   0.433   2.717   1.869 -0.1187  1.2532 -1.3781
  627SOL     OW 1879   0.695   0.996   1.517 -0.5981  0.3565 -0.2168
  627SOL    HW1 1880   0.771   0.931   1.544  0.4012  2.7611 -3.0732
  627SOL    HW2 1881   0.735   1.074   1.460  0.1350  3.6672  1.4722
  628SOL     OW 1882   2.412   0.194   0.688  0.1168  0.4399  0.1777
  628SOL    HW1 1883   2.423   0.110   0.623  0.7232  2.2049 -1.4593
  628SOL    HW2 1884   2.320   0.191   0.730  1.7262 -0.3781  0.6455
  629SOL     OW 1885   1.971   0.907   1.984 -0.0534 -0.1864 -0.0721
  629SOL    HW1 1886   2.053   0.895   2.046 -1.8400  3.0977  1.4512
  629SOL    HW2 1887   1.954   1.005   1.955  2.3395 -1.1877 -0.5938
  630SOL     OW 1888   2.793   2.170   0.781 -0.0373 -0.2877 -0.1500
  630SOL    HW1 1889   2.716   2.239   0.797 -0.9115 -2.8073  0.0026
  630SOL    HW2 1890   2.747   2.089   0.741  0.0366  0.4128  3.5021
  631SOL     OW 1891   2.982   0.135   2.112  0.1974  0.6489  0.1218
  631SOL    HW1 1892   3.023   0.180   2.201  1.0798  1.4117 -0.6620
  631SOL    HW2 1893   3.044   0.152   2.030 -1.6863 -3.2041 -3.4089
  632SOL     OW 1894   2.387   2.536   0.631 -0.2136 -0.4621 -0.3259
  632SOL    HW1 1895   2.459   2.589   0.680 -1.2565  1.9432 -1.1314
  632SOL    HW2 1896   2.347   2.582   0.547 -0.4301  1.2648  1.6813
  633SOL     OW 1897   1.576   1.274   2.539 -0.2123 -0.3267  0.2357
  633SOL    HW1 1898   1.603   1.351   2.604  2.0652  1.8578 -1.9871
  633SOL    HW2 1899   1.503   1.301   2.472 -0.2505  1.3659 -0.4550
  634SOL     OW 1900   0.633   1.983   0.951 -0.0233  0.0728  0.8549
  634SOL    HW1 1901   0.537   2.008   0.977 -0.9039  0.2132  1.3786
  634SOL    HW2 1902   0.701   2.063   0.951 -0.6521  0.4499 -1.0133
  635SOL     OW 1903   0.020   2.315   3.058  0.1855 -0.1125  0.0586
  635SOL    HW1 1904  -0.027   2.356   2.974 -1.4468  0.2413 -0.2105
  635SOL    HW2 1905   0.013   2.371   3.149  1.3453  1.1158 -0.2017
  636SOL     OW 1906   2.292   2.789   2.036 -0.4948 -0.0277 -0.4564
  636SOL    HW1 1907   2.309   2.893   2.060  4.3068  3.4182  1.6174
  636SOL    HW2 1908   2.232   2.743   2.110  2.2532  0.4696  1.4999
  637SOL     OW 1909   2.557   0.683   2.043 -0.5032  0.3661 -0.2256
  637SOL    HW1 1910   2.541   0.708   1.942  0.9126  2.7780 -2.0183
  637SOL    HW2 1911   2.609   0.762   2.087  2.1286 -1.8949  1.5751
  638SOL     OW 1912   2.478   1.854   1.305  0.4421 -0.0054  0.5919
  638SOL    HW1 1913   2.374   1.849   1.312  0.7145  1.5123  1.7447
  638SOL    HW2 1914   2.524   1.780   1.361 -3.4969  2.2987 -1.3773
  639SOL     OW 1915   1.259   2.220   1.640 -0.2591 -0.1199 -0.4279
  639SOL    HW1 1916   1.235   2.162   1.560 -0.8591 -0.4954  1.2778
  639SOL    HW2 1917   1.193   2.203   1.715  4.2153  0.5505 -0.6004
  640SOL     OW 1918   0.192   1.192   1.558 -0.1546 -0.0078  0.3134
  640SOL    HW1 1919   0.173   1.242   1.649 -2.4858 -1.0065  1.8728
  640SOL    HW2 1920   0.284   1.142   1.550 -1.1317  0.3179  0.9766
  641SOL     OW 1921   2.014   0.083   1.521 -0.5950  0.6205 -0.5090
  641SOL    HW1 1922   2.007   0.155   1.592  2.3175 -0.2974 -2.1796
  641SOL    HW2 1923   2.025  -0.014   1.557 -2.2512 -0.2314 -0.7222
  642SOL     OW 1924   1.936   0.123   0.315  0.2031  0.3951  0.5931
  642SOL    HW1 1925   2.028   0.085   0.339 -0.8091  0.9543  0.3595
  642SOL    HW2 1926   1.882   0.158   0.395  1.0925 -0.3877 -1.4369
  643SOL     OW 1927   2.865   1.913   2.061 -0.0904 -0.0372 -0.1249
  643SOL    HW1 1928   2.833   1.826   2.009  0.2696 -0.2595  0.0646
  643SOL    HW2 1929   2.832   1.997   2.008  2.2368 -2.0907  0.0994
  644SOL     OW 1930   2.181   2.321   1.192 -0.0472 -0.1446 -0.0529
  644SOL    HW1 1931   2.262   2.295   1.133  0.3660  0.5185 -0.0076
  644SOL    HW2 1932   2.187   2.309   1.296  1.5302 -0.1324  0.8177
  645SOL     OW 1933   0.606   0.794   1.160  0.1065 -0.6484 -0.3814
  645SOL    HW1 1934   0.558   0.733   1.091  1.9454 -0.6823  2.2326
  645SOL    HW2 1935   0.643   0.880   1.113  0.0802 -0.5770  1.7692
  646SOL     OW 1936   1.511   1.937   1.822  0.4761  0.2681 -0.4552
  646SOL    HW1 1937   1.604   1.982   1.834  1.7805  0.0152 -0.1833
  646SOL    HW2 1938   1.439   1.982   1.879  2.1586  0.3444 -2.3980
  647SOL     OW 1939   0.850   0.967   0.684  0.0888 -0.3199  0.0164
  647SOL    HW1 1940   0.890   0.987   0.776 -0.4841  0.2573 -1.0485
  647SOL    HW2 1941   0.772   0.897   0.702 -0.7997 -1.5035  3.1860
  648SOL     OW 1942   0.121   0.162   0.289  1.0013  0.1486  0.5845
  648SOL    HW1 1943   0.172   0.102   0.223  0.7270 -2.7845 -1.4166
  648SOL    HW2 1944   0.110   0.262   0.250 -2.1365  0.9846 -1.5711
  649SOL     OW 1945   3.070   0.160   0.925  0.4363  0.1297  0.3057
  649SOL    HW1 1946   3.167   0.154   0.894  0.7272  0.0116  1.6842
  649SOL    HW2 1947   3.054   0.223   1.005 -2.1447  0.3439 -0.4263
  650SOL     OW 1948   2.712   0.717   1.392 -0.0312 -0.5569 -0.0098
  650SOL    HW1 1949   2.613   0.688   1.424 -1.1169  2.6707 -0.4654
  650SOL    HW2 1950   2.716   0.812   1.350 -0.0426  1.6495  0.3786
  651SOL     OW 1951   0.905   1.592   1.635 -0.1566  0.3761 -0.3478
  651SOL    HW1 1952   0.984   1.647   1.674  0.4944  1.5761 -0.5883
  651SOL    HW2 1953   0.858   1.624   1.552 -2.8614 -0.2554 -0.8014
  652SOL     OW 1954   2.251   2.483   2.451  0.0357 -0.2823 -0.5022
  652SOL    HW1 1955   2.186   2.449   2.528 -1.5839 -0.4152  0.6330
  652SOL    HW2 1956   2.219   2.568   2.406 -0.2770 -4.4309 -0.1680
  653SOL     OW 1957   2.731   1.168   0.246 -0.3223 -0.0858  0.2019
  653SOL    HW1 1958   2.755   1.269   0.259  1.5597 -0.9806  0.3407
  653SOL    HW2 1959   2.799   1.102   0.289  2.2234  0.1268  1.6596
  654SOL     OW 1960   1.257   2.278   1.245  0.4238  0.1719  0.5358
  654SOL    HW1 1961   1.293   2.213   1.316 -1.3024 -1.7750  1.7834
  654SOL    HW2 1962   1.307   2.272   1.151  0.8356  2.0753 -1.2731
  655SOL     OW 1963   0.220   1.018   1.845 -0.3015 -0.4038  0.0223
  655SOL    HW1 1964   0.237   0.945   1.769 -0.8262  1.4530 -1.7516
  655SOL    HW2 1965   0.288   1.100   1.849  0.0021  2.2855 -3.3308
  656SOL     OW 1966   2.533   2.471   2.584 -0.4366  0.1283 -0.0200
  656SOL    HW1 1967   2.622   2.464   2.524  1.1250  1.1799  1.1389
  656SOL    HW2 1968   2.449   2.497   2.531  2.5168 -1.6250  1.9701
  657SOL     OW 1969   3.053   1.085   1.895 -0.1350  0.4129  0.2147
  657SOL    HW1 1970   3.057   1.160   1.967 -1.7402  0.8553  0.7050
  657SOL    HW2 1971   3.148   1.040   1.878 -1.3364 -1.1365  1.1529
  658SOL     OW 1972   1.635   0.185   2.381 -0.3856 -0.4460 -0.0615
  658SOL    HW1 1973   1.699   0.131   2.442  1.9684 -1.1647 -2.6134
  658SOL    HW2 1974   1.676   0.180   2.283  2.3380 -2.1758 -2.3213
  659SOL     OW 1975   1.395   0.626   2.900  0.0058  0.0288  0.0053
  659SOL    HW1 1976   1.447   0.717   2.918  1.0077 -0.3020  1.2390
  659SOL    HW2 1977   1.303   0.632   2.852 -1.6171 -1.1418  3.0972
  660SOL     OW 1978   1.466   0.350   1.413  0.4002 -0.0230 -0.5806
  660SOL    HW1 1979   1.492   0.372   1.507 -1.9721  0.6054 -2.1682
  660SOL    HW2 1980   1.529   0.283   1.357 -0.4765 -2.9524  0.0927
  661SOL     OW 1981   2.531   1.174   0.648  0.2665  0.1813  0.4166
  661SOL    HW1 1982   2.517   1.139   0.550  0.5841 -0.4414  0.9132
  661SOL    HW2 1983   2.465   1.255   0.671 -0.7922  2.9001 -0.1493
  662SOL     OW 1984   1.325   0.419   1.828 -0.2144 -0.3535 -0.3463
  662SOL    HW1 1985   1.285   0.322   1.813  0.0570 -0.8607  2.0066
  662SOL    HW2 1986   1.297   0.456   1.922 -0.6329 -0.0204  0.5335
  663SOL     OW 1987   0.832   1.563   2.182 -0.1807  0.2994 -0.0794
  663SOL    HW1 1988   0.780   1.640   2.226  0.7618  0.4843 -1.8785
  663SOL    HW2 1989   0.774   1.519   2.101 -1.6128 -1.4566 -4.0167
  664SOL     OW 1990   1.663   2.038   1.405 -0.0178 -0.7719 -0.4992
  664SOL    HW1 1991   1.612   1.978   1.474 -0.7947  2.1217  1.1476
  664SOL    HW2 1992   1.767   2.021   1.405  1.7339 -1.7033 -1.5121
  665SOL     OW 1993   2.184   0.693   2.015 -0.2564 -0.1023 -0.3603
  665SOL    HW1 1994   2.231   0.606   2.034  1.9531  0.6982 -3.0524
  665SOL    HW2 1995   2.187   0.761   2.091  0.8570 -0.2899 -2.0588
  666SOL     OW 1996   0.457   2.345   0.477  0.2839 -0.6292  0.4154
  666SOL    HW1 1997   0.519   2.424   0.493  2.2181  0.3790 -1.1635
  666SOL    HW2 1998   0.410   2.300   0.557  1.6467  0.0688 -2.0137
  667SOL     OW 1999   1.951   0.200   1.026  0.2998  0.0293 -0.1210
  667SOL    HW1 2000   2.018   0.278   1.031  0.3516  2.7078 -1.6824
  667SOL    HW2 2001   1.927   0.157   1.119 -1.1130 -2.0581 -1.5951
  668SOL     OW 2002   1.996   0.544   1.190  0.1085 -0.1125  0.7159
  668SOL    HW1 2003   2.074   0.568   1.126  2.2223  1.1677 -0.0988
  668SOL    HW2 2004   2.018   0.486   1.271 -0.7366  0.0643 -1.2957
  669SOL     OW 2005   3.029   2.179   0.927  0.2262 -1.2667 -1.2641
  669SOL    HW1 2006   2.937   2.189   0.880  0.0933 -0.9320  1.0968
  669SOL    HW2 2007   3.023   2.237   1.010  1.4435 -0.1523 -1.1774
  670SOL     OW 2008   2.861   2.330   2.019 -0.1493 -0.2471 -0.3511
  670SOL    HW1 2009   2.787   2.302   2.091  1.1567  0.8541  0.1247
  670SOL    HW2 2010   2.856   2.434   2.009 -0.3488  1.9521 -0.6956
  671SOL     OW 2011   1.748   1.744   1.433 -0.3501 -0.3972  0.4079
  671SOL    HW1 2012   1.760   1.755   1.329 -0.4661  0.5713 -0.8901
  671SOL    HW2 2013   1.664   1.678   1.446  0.4407 -0.1519 -0.0506
  672SOL     OW 2014   0.454   0.598   2.432  0.3790  0.6637  0.8878
  672SOL    HW1 2015   0.450   0.651   2.341  0.2191  0.2950 -1.1232
  672SOL    HW2 2016   0.373   0.619   2.492 -2.5876  0.2992  2.3105
  673SOL     OW 2017   0.143   1.183   1.139  0.1504  0.3303  0.2584
  673SOL    HW1 2018   0.171   1.238   1.222  1.8663  2.7084 -0.5977
  673SOL    HW2 2019   0.230   1.148   1.085 -0.0846 -2.3281  0.0116
  674SOL     OW 2020   1.555   2.894   0.144 -0.0741  0.3216 -0.3083
  674SOL    HW1 2021   1.590   2.984   0.105 -2.4324 -2.2144  2.6678
  674SOL    HW2 2022   1.600   2.813   0.102 -0.7344 -0.5194 -0.1556
  675SOL     OW 2023   1.659   0.843   2.293  0.2213  0.0654 -0.3237
  675SOL    HW1 2024   1.739   0.801   2.242  3.3994 -0.4025 -0.4873
  675SOL    HW2 2025   1.578   0.787   2.262 -2.0628  1.0576 -0.7766
  676SOL     OW 2026   2.494   1.555   2.003  0.2930 -0.3915 -0.4291
  676SOL    HW1 2027   2.462   1.510   1.915  1.1825  0.5379  0.0476
  676SOL    HW2 2028   2.546   1.494   2.062 -0.6061  0.9840  0.4254
  677SOL     OW 2029   1.832   0.619   0.931 -0.1992  0.1646  1.3120
  677SOL    HW1 2030   1.871   0.642   1.023 -0.7846 -2.3989  0.3083
  677SOL    HW2 2031   1.816   0.519   0.913  0.2631  0.4115  1.2148
  678SOL     OW 2032   0.032   0.750   1.665  0.7175  0.4881  0.0546
  678SOL    HW1 2033   0.125   0.730   1.701 -1.4095 -1.5318 -1.6481
  678SOL    HW2 2034  -0.034   0.782   1.735 -0.5397 -2.5786 -0.4223
  679SOL     OW 2035   2.544   1.149   1.101 -0.5000  0.1345  0.3310
  679SOL    HW1 2036   2.459   1.177   1.151  1.5562 -0.5361 -0.2166
  679SOL    HW2 2037   2.538   1.045   1.083  0.1171  1.1277  0.8674
  680SOL     OW 2038   2.821   0.650   1.638 -0.1536  0.5147 -0.2378
  680SOL    HW1 2039   2.775   0.681   1.551 -2.4121 -0.3408  0.1147
  680SOL    HW2 2040   2.825   0.727   1.705  0.4821 -1.3135  1.0432
  681SOL     OW 2041   2.989   0.115   1.608 -0.0827  0.1084 -0.1406
  681SOL    HW1 2042   3.051   0.101   1.526  1.7867  2.4458 -0.0929
  681SOL    HW2 2043   2.948   0.212   1.602  1.2543 -1.6986  1.2648
  682SOL     OW 2044   0.796   0.055   1.394 -0.0717 -0.1009  0.2172
  682SOL    HW1 2045   0.714  -0.005   1.425  0.0524 -2.5523  2.8566
  682SOL    HW2 2046   0.845   0.020   1.308  0.0649 -0.2902  0.8588
  683SOL     OW 2047   1.361   0.274   2.194  0.2690 -0.6070  0.3631
  683SOL    HW1 2048   1.341   0.350   2.260 -1.5591 -0.3248 -2.4405
  683SOL    HW2 2049   1.441   0.297   2.127 -2.2114  4.0579 -1.7047
  684SOL     OW 2050   1.433   2.139   0.497  0.7900 -0.0032 -0.3379
  684SOL    HW1 2051   1.492   2.081   0.563  0.4736 -0.6487  2.1074
  684SOL    HW2 2052   1.344   2.090   0.463  0.8173 -0.1819 -2.7695
  685SOL     OW 2053   2.186   2.002   1.934 -0.0905 -0.4598  0.6157
  685SOL    HW1 2054   2.229   2.050   1.851  1.5165  0.5403 -1.1486
  685SOL    HW2 2055   2.243   1.931   1.977  2.3772  1.6538 -2.3740
  686SOL     OW 2056   1.531   1.743   2.655  0.0636 -0.2397  0.1390
  686SOL    HW1 2057   1.518   1.646   2.698 -2.0731 -1.2402  0.0373
  686SOL    HW2 2058   1.635   1.757   2.637  3.5036  0.4791  3.4783
  687SOL     OW 2059   1.307   2.522   1.893  0.4970 -0.2872  0.1819
  687SOL    HW1 2060   1.362   2.437   1.882  1.7148  0.3716 -0.7727
  687SOL    HW2 2061   1.346   2.590   1.963 -2.0764  1.9374 -3.5271
  688SOL     OW 2062   2.077   1.445   1.681 -0.1503 -0.3697 -0.6354
  688SOL    HW1 2063   2.153   1.502   1.648 -0.9907  0.0822  1.7528
  688SOL    HW2 2064   2.039   1.382   1.608  1.2865 -1.2025  1.4407
  689SOL     OW 2065   2.460   1.103   2.762  0.1847  0.3665  0.0693
  689SOL    HW1 2066   2.359   1.107   2.774  0.3750  2.6907 -3.0616
  689SOL    HW2 2067   2.507   1.075   2.854  1.7732 -0.1477  2.3710
  690SOL     OW 2068   2.209   2.760   0.084  0.2251  0.1524 -0.5939
  690SOL    HW1 2069   2.127   2.730   0.023 -1.8528 -0.1773 -1.7477
  690SOL    HW2 2070   2.187   2.821   0.168  2.9421  2.8802  0.5070
  691SOL     OW 2071   2.605   0.413   2.133  0.3410 -0.0191  0.1250
  691SOL    HW1 2072   2.617   0.342   2.057  0.7073  0.3386 -0.5443
  691SOL    HW2 2073   2.614   0.508   2.095  1.2701 -0.9410  1.0134
  692SOL     OW 2074   2.792   1.208   0.713 -0.2898 -0.0132  0.0198
  692SOL    HW1 2075   2.692   1.200   0.689 -0.9737 -0.6683 -1.0539
  692SOL    HW2 2076   2.817   1.285   0.779  0.2849 -0.3304 -0.9180
  693SOL     OW 2077   2.874   3.008   0.674  0.1686  0.6110 -0.1513
  693SOL    HW1 2078   2.865   3.099   0.717  0.4389 -0.7286  0.1728
  693SOL    HW2 2079   2.818   2.997   0.590  1.1088 -0.4132 -0.9136
  694SOL     OW 2080   2.425   2.236   0.050 -0.8038  0.1645 -0.3238
  694SOL    HW1 2081   2.390   2.331   0.071  0.0173 -2.9372  1.0999
  694SOL    HW2 2082   2.355   2.167   0.036  2.2561 -0.9226  2.1828
  695SOL     OW 2083   0.597   2.993   1.486 -0.6031  0.6986 -0.0110
  695SOL    HW1 2084   0.562   2.914   1.426  0.2342 -1.8109  0.0642
  695SOL    HW2 2085   0.529   3.022   1.561 -1.0484  1.8301  3.0343
  696SOL     OW 2086   2.677   1.924   0.706  0.2504 -0.1936 -0.1663
  696SOL    HW1 2087   2.739   1.867   0.773  0.5818 -1.2596 -0.0182
  696SOL    HW2 2088   2.639   1.869   0.626 -2.0649  2.5389  0.2967
  697SOL     OW 2089   1.747   2.056   1.821 -0.1798  0.2669 -0.8075
  697SOL    HW1 2090   1.830   2.005   1.855  2.5835  1.1381  0.8625
  697SOL    HW2 2091   1.773   2.150   1.791 -0.2612 -0.0255  1.4173
  698SOL     OW 2092   2.890   0.375   2.736  0.1559  0.4241  0.3744
  698SOL    HW1 2093   2.883   0.347   2.639 -1.3563  2.1732 -1.5547
  698SOL    HW2 2094   2.925   0.297   2.801 -2.2497 -2.9986 -0.7782
  699SOL     OW 2095   1.508   0.065   2.933  0.0108  0.6735  0.3333
  699SOL    HW1 2096   1.501  -0.030   2.896  3.8583  1.0003 -1.5066
  699SOL    HW2 2097   1.581   0.116   2.877  3.4153 -1.3964  0.2396
  700SOL     OW 2098   0.975   2.316   1.310 -0.1958  0.5476  0.3089
  700SOL    HW1 2099   1.073   2.298   1.279 -0.4017  0.6222 -0.8505
  700SOL    HW2 2100   0.904   2.300   1.233 -1.7444 -2.0648 -2.3644
  701SOL     OW 2101   1.908   2.818   0.009 -0.2297 -0.0255  0.5192
  701SOL    HW1 2102   1.891   2.749   0.083  0.3588  0.4403  3.2599
  701SOL    HW2 2103   1.918   2.912   0.048  1.3124 -1.3833  0.0518
  702SOL     OW 2104   2.091   1.331   1.913  0.3911  0.1845 -0.1228
  702SOL    HW1 2105   2.146   1.247   1.901 -0.3364  2.0298  0.1041
  702SOL    HW2 2106   2.069   1.379   1.821 -0.6270  1.5819 -0.9066
  703SOL     OW 2107   1.911   0.829   1.410  0.1837 -0.4458  0.0710
  703SOL    HW1 2108   1.918   0.741   1.462  0.2430 -1.0951  0.9430
  703SOL    HW2 2109   1.952   0.910   1.459 -1.5141 -2.1034 -1.4570
  704SOL     OW 2110   0.302   2.092   1.661 -0.1079 -0.2882  0.0900
  704SOL    HW1 2111   0.345   2.037   1.734 -0.3305  0.1185  0.1933
  704SOL    HW2 2112   0.348   2.188   1.653 -1.6884 -2.9678 -3.5562
  705SOL     OW 2113   2.539   1.396   0.938  0.0326  0.1182 -0.7859
  705SOL    HW1 2114   2.469   1.370   0.866 -1.9547 -0.0615  0.5494
  705SOL    HW2 2115   2.553   1.322   1.008 -0.3366  0.1259  2.0893
  706SOL     OW 2116   0.641   1.776   1.835 -0.4170  0.0302 -0.3645
  706SOL    HW1 2117   0.625   1.680   1.871  1.6038  2.2158  0.1703
  706SOL    HW2 2118   0.705   1.830   1.893 -1.1903 -1.1974  1.5471
  707SOL     OW 2119   2.260   1.116   1.864  0.3712 -0.0175 -0.4901
  707SOL    HW1 2120   2.343   1.134   1.924  2.8146 -0.2656  1.6135
  707SOL    HW2 2121   2.252   1.024   1.815  0.5590  0.9494 -0.7214
  708SOL     OW 2122   3.020   0.477   3.067  0.7493 -0.5898  0.4910
  708SOL    HW1 2123   3.022   0.542   2.989  1.4734 -2.0162 -1.4041
  708SOL    HW2 2124   2.998   0.382   3.025  2.1520  0.4902 -3.5571
  709SOL     OW 2125   1.814   1.838   0.268 -0.0792 -0.7892  0.2207
  709SOL    HW1 2126   1.847   1.919   0.319  2.2484 -3.1254  2.2252
  709SOL    HW2 2127   1.830   1.849   0.165 -1.9891 -0.6054  1.9453
  710SOL     OW 2128   1.698   1.578   2.413 -0.1450 -0.4311  0.2756
  710SOL    HW1 2129   1.771   1.562   2.345  2.4698 -1.0451  0.4146
  710SOL    HW2 2130   1.727   1.567   2.510  0.7051  1.8915  2.3198
  711SOL     OW 2131   2.648   2.915   0.974 -0.6067 -0.3224 -0.2063
  711SOL    HW1 2132   2.639   3.004   0.927  1.6272  0.4275  0.7043
  711SOL    HW2 2133   2.736   2.863   0.958 -0.5972  1.8067  3.2050
  712SOL     OW 2134   1.485   2.302   1.812  0.4055  0.3675 -0.8401
  712SOL    HW1 2135   1.557   2.228   1.834  2.5880  2.3539 -0.6287
  712SOL    HW2 2136   1.418   2.266   1.742  0.6752  0.3798  0.3987
  713SOL     OW 2137   2.784   1.507   2.490 -0.0431 -0.1332  0.1010
  713SOL    HW1 2138   2.802   1.402   2.483 -4.2144 -1.9463 -1.6710
  713SOL    HW2 2139   2.691   1.518   2.544 -0.3003  0.4443  2.3451
  714SOL     OW 2140   2.660   0.458   2.383  0.0844  0.5760  0.3155
  714SOL    HW1 2141   2.583   0.446   2.451 -0.1887 -2.9002  2.4800
  714SOL    HW2 2142   2.628   0.437   2.283  0.4595 -0.8820 -1.8623
  715SOL     OW 2143   1.572   2.041   1.141 -0.5168  0.4863 -0.4559
  715SOL    HW1 2144   1.508   2.117   1.107 -2.0255  1.8679 -2.3244
  715SOL    HW2 2145   1.595   2.048   1.239  0.3951 -0.5793  0.0233
  716SOL     OW 2146   1.221   0.233   1.520 -0.1537  0.0634 -0.0065
  716SOL    HW1 2147   1.122   0.258   1.494 -2.1161  0.0068  1.0969
  716SOL    HW2 2148   1.290   0.297   1.477 -0.3462  0.1033  0.7243
  717SOL     OW 2149   1.091   0.619   1.613 -0.0326 -0.0245 -0.0032
  717SOL    HW1 2150   1.190   0.637   1.642 -0.0612 -1.9634 -4.2275
  717SOL    HW2 2151   1.086   0.584   1.516 -0.8962  0.9859  1.6368
  718SOL     OW 2152   0.723   0.982   0.997 -0.1140 -0.2315  0.6912
  718SOL    HW1 2153   0.675   0.954   0.909 -0.0731  1.4293  2.2652
  718SOL    HW2 2154   0.725   1.087   1.012 -2.3111 -0.7290 -1.5805
  719SOL     OW 2155   0.750   1.831   2.283  0.1627  0.2400 -0.5167
  719SOL    HW1 2156   0.829   1.864   2.336 -1.6508 -2.0522 -0.0220
  719SOL    HW2 2157   0.662   1.876   2.314  4.2899 -1.0717  1.0108
  720SOL     OW 2158   2.200   1.103   0.252  0.3178 -0.0850 -0.1675
  720SOL    HW1 2159   2.287   1.047   0.230 -1.8479 -0.6841  0.1080
  720SOL    HW2 2160   2.160   1.082   0.345  0.7734  0.5926 -1.9932
  721SOL     OW 2161   2.303   3.092   2.082  0.3515  0.8553 -0.4629
  721SOL    HW1 2162   2.314   3.175   2.017 -0.9705  1.4819 -2.3164
  721SOL    HW2 2163   2.217   3.091   2.139  2.4537 -1.3680  0.0869
  722SOL     OW 2164   2.397   1.622   0.562  0.1258  0.0358  0.5939
  722SOL    HW1 2165   2.399   1.587   0.465  3.0240 -0.1414  0.9032
  722SOL    HW2 2166   2.305   1.663   0.592  1.9732  0.8667 -0.1992
  723SOL     OW 2167   2.558   2.755   1.959  0.3286  0.3746 -0.3703
  723SOL    HW1 2168   2.602   2.801   2.038 -1.8663  0.2992 -1.4352
  723SOL    HW2 2169   2.455   2.745   1.983 -0.6341 -0.9352 -1.9530
  724SOL     OW 2170   0.523   2.477   2.424 -0.1019 -0.2657  0.6918
  724SOL    HW1 2171   0.419   2.481   2.451 -1.7240  0.1475  1.1551
  724SOL    HW2 2172   0.585   2.483   2.512  0.2494  0.0894  0.8374
  725SOL     OW 2173   2.481   2.764   1.553 -0.0602 -0.5383 -0.6319
  725SOL    HW1 2174   2.535   2.786   1.466 -0.6104  2.7799 -0.7303
  725SOL    HW2 2175   2.430   2.676   1.550 -1.6482  2.0235  0.5847
  726SOL     OW 2176   2.351   2.226   0.675 -0.1089  0.1881 -0.0580
  726SOL    HW1 2177   2.323   2.317   0.648  0.1351 -0.8314  2.2240
  726SOL    HW2 2178   2.390   2.171   0.591 -0.0753  0.8843 -2.0687
  727SOL     OW 2179   0.222   0.008   0.090  0.3963 -0.1099  0.5765
  727SOL    HW1 2180   0.305  -0.029   0.037  0.6678  0.2608 -1.8524
  727SOL    HW2 2181   0.135  -0.039   0.066  0.0601  0.1909 -0.9963
  728SOL     OW 2182   2.844   0.665   0.970  0.0399  0.4380  0.4289
  728SOL    HW1 2183   2.790   0.616   0.893 -1.5591 -3.3684  1.2327
  728SOL    HW2 2184   2.822   0.621   1.060 -1.6513 -2.6375  0.6152
  729SOL     OW 2185   2.903   2.439   0.695 -0.3863 -0.0043 -0.3862
  729SOL    HW1 2186   2.864   2.361   0.756  1.5298  2.4638  0.0542
  729SOL    HW2 2187   2.997   2.414   0.663 -1.0783 -2.7844  2.5247
  730SOL     OW 2188   2.590   0.587   0.821 -1.0468  0.1550 -0.3289
  730SOL    HW1 2189   2.541   0.675   0.791 -1.4557  2.6749  0.2009
  730SOL    HW2 2190   2.670   0.566   0.762  0.5915 -1.5072 -2.3279
  731SOL     OW 2191   0.062   2.135   2.428 -1.0851  0.1924 -0.4663
  731SOL    HW1 2192   0.100   2.181   2.518 -1.2938  0.0853  4.0510
  731SOL    HW2 2193   0.026   2.205   2.366 -1.2304  0.7998 -1.5160
  732SOL     OW 2194   1.094   2.870   1.953 -1.0096  0.4662  0.4504
  732SOL    HW1 2195   1.116   2.812   2.034 -2.1560  1.6643  1.8077
  732SOL    HW2 2196   1.121   2.827   1.859 -0.7915  1.8517 -1.6585
  733SOL     OW 2197   0.013   0.703   2.115 -0.0123  0.4481 -1.0355
  733SOL    HW1 2198   0.108   0.737   2.093  2.1139 -0.5816 -2.9344
  733SOL    HW2 2199  -0.017   0.612   2.071  1.5182  1.5856 -0.1741
  734SOL     OW 2200   1.429   0.376   2.768 -0.0057 -0.1946  0.2942
  734SOL    HW1 2201   1.444   0.467   2.815  0.5307 -2.5927 -0.1099
  734SOL    HW2 2202   1.329   0.350   2.771 -1.3717 -1.0476  1.8414
  735SOL     OW 2203   2.901   2.624   2.247 -0.6221  0.3957  0.2336
  735SOL    HW1 2204   2.883   2.634   2.145 -1.8951  1.0512  1.4644
  735SOL    HW2 2205   3.000   2.594   2.268 -0.1415 -1.5315  0.8640
  736SOL     OW 2206   0.735   0.451   2.613  0.7896  0.3776  0.4904
  736SOL    HW1 2207   0.715   0.544   2.569 -3.2959  3.9763 -1.8562
  736SOL    HW2 2208   0.755   0.374   2.547  1.8933  1.0335 -1.6830
  737SOL     OW 2209   2.641   0.457   2.859 -0.4694  0.6618  0.0730
  737SOL    HW1 2210   2.649   0.411   2.952  0.3065  2.3776 -1.8592
  737SOL    HW2 2211   2.729   0.449   2.801  0.0559  1.5700  1.8003
  738SOL     OW 2212   1.576   1.233   2.934 -0.0555 -0.0550  0.6661
  738SOL    HW1 2213   1.680   1.242   2.934  1.9282 -1.6189 -0.9326
  738SOL    HW2 2214   1.541   1.160   2.874  0.5611 -0.4749 -1.7723
  739SOL     OW 2215   1.730   0.634   0.678 -0.0572  0.5183 -0.1344
  739SOL    HW1 2216   1.771   0.622   0.774 -0.6695 -0.7686 -0.8523
  739SOL    HW2 2217   1.766   0.566   0.607 -0.0063 -0.1589 -1.7752
  740SOL     OW 2218   1.960   1.866   2.310  0.1589 -0.0980 -0.8635
  740SOL    HW1 2219   2.002   1.801   2.384 -1.0099 -0.6183 -1.0040
  740SOL    HW2 2220   1.910   1.816   2.236  2.4977 -0.2885 -1.9187
  741SOL     OW 2221   2.526   0.040   2.590 -0.6212 -0.1629 -0.1447
  741SOL    HW1 2222   2.629   0.050   2.600 -1.8580 -0.8054  0.0437
  741SOL    HW2 2223   2.492   0.018   2.494 -3.5505  1.6378 -1.5816
  742SOL     OW 2224   2.253   1.399   0.159  0.1431 -0.4819 -0.2294
  742SOL    HW1 2225   2.180   1.475   0.168 -3.3077 -1.0517 -1.1817
  742SOL    HW2 2226   2.231   1.314   0.213  2.0908 -4.0595 -1.2207
  743SOL     OW 2227   1.804   0.627   2.582 -0.0166 -0.2100 -0.4606
  743SOL    HW1 2228   1.765   0.556   2.518 -0.5433 -0.5030 -0.6644
  743SOL    HW2 2229   1.740   0.712   2.582  0.1192  0.2007  1.4346
  744SOL     OW 2230   2.697   2.129   0.061 -0.0514 -0.4968  0.2160
  744SOL    HW1 2231   2.613   2.172   0.094  0.0432  0.4556 -1.2593
  744SOL    HW2 2232   2.680   2.035   0.033  1.8638  2.3043 -1.8915
  745SOL     OW 2233   2.146   2.681   2.234 -0.0270 -0.0276 -0.4635
  745SOL    HW1 2234   2.050   2.663   2.202  2.6416  1.0335  0.0155
  745SOL    HW2 2235   2.157   2.763   2.299 -1.9669  1.3534 -2.9424
  746SOL     OW 2236  -0.002   2.579   1.816  0.1813 -0.6087  0.2011
  746SOL    HW1 2237   0.098   2.597   1.809 -0.6478 -0.4700 -0.5209
  746SOL    HW2 2238  -0.057   2.659   1.853  2.4103 -0.3139 -2.0367
  747SOL     OW 2239   0.014   1.770   1.628 -0.2056 -0.0457  0.0635
  747SOL    HW1 2240  -0.032   1.680   1.615 -0.1746 -0.2136  0.3312
  747SOL    HW2 2241   0.089   1.792   1.556 -0.8790 -1.6078 -2.6720
  748SOL     OW 2242   1.829   2.776   2.852 -0.5083 -0.2899  0.1747
  748SOL    HW1 2243   1.849   2.824   2.944  1.2733 -0.0708 -0.6249
  748SOL    HW2 2244   1.728   2.746   2.851 -0.7800  0.3673 -2.0939
  749SOL     OW 2245   1.337   3.083   0.875 -0.2995  0.0209 -0.5576
  749SOL    HW1 2246   1.265   3.013   0.887  1.9170  1.2759  1.1635
  749SOL    HW2 2247   1.346   3.116   0.777  0.7049 -2.0450  1.9248
  750SOL     OW 2248   2.324   0.202   1.877 -0.2738 -0.1516  0.3152
  750SOL    HW1 2249   2.364   0.278   1.824 -2.2096 -1.1717  0.9787
  750SOL    HW2 2250   2.260   0.245   1.947 -1.6914  0.5800  2.9895
  751SOL     OW 2251   0.881   2.206   2.735 -1.0559  0.2746  0.3589
  751SOL    HW1 2252   0.910   2.212   2.833 -0.4606  1.5696 -0.5735
  751SOL    HW2 2253   0.820   2.125   2.716 -1.1070 -1.9108  1.7742
  752SOL     OW 2254   1.263   0.853   1.521 -0.4765  0.2292  0.1191
  752SOL    HW1 2255   1.340   0.922   1.497 -0.4144  1.6796  0.3671
  752SOL    HW2 2256   1.307   0.765   1.564  0.0306  0.1666 -0.0037
  753SOL     OW 2257   0.938   2.601   1.676 -0.0517  0.5135 -0.0093
  753SOL    HW1 2258   1.019   2.660   1.698 -2.0820 -1.4529  2.5784
  753SOL    HW2 2259   0.849   2.652   1.656  0.3587  4.6044  0.7500
  754SOL     OW 2260   1.226   1.336   3.043  0.0599 -0.0323 -0.2920
  754SOL    HW1 2261   1.248   1.246   2.995 -0.4735 -2.3765 -3.2666
  754SOL    HW2 2262   1.214   1.421   2.981 -1.7641  1.3031  1.2831
  755SOL     OW 2263   1.919   0.445   2.220 -0.3176  0.5470  0.6223
  755SOL    HW1 2264   2.003   0.436   2.281  0.9399  0.8848 -0.6883
  755SOL    HW2 2265   1.833   0.459   2.274 -2.1490  0.1315  0.3661
  756SOL     OW 2266   2.630   0.960   2.952 -0.1735  0.2041  0.5134
  756SOL    HW1 2267   2.734   0.960   2.973  2.7009 -0.9080  2.1036
  756SOL    HW2 2268   2.582   0.884   3.012 -0.1662  1.5374 -0.8192
  757SOL     OW 2269   3.091   0.440   1.794  0.4730 -0.0292 -0.2306
  757SOL    HW1 2270   3.080   0.541   1.794  1.3272  0.2863  3.1986
  757SOL    HW2 2271   3.156   0.405   1.719  2.7540  0.4028  0.9736
  758SOL     OW 2272   2.400   0.068   1.459 -0.4805 -0.5232  0.0569
  758SOL    HW1 2273   2.348   0.000   1.517 -0.1535 -2.3924 -0.4187
  758SOL    HW2 2274   2.386   0.065   1.359 -0.4910 -0.3502  1.5500
  759SOL     OW 2275   1.682   0.038   0.087 -0.0070 -0.2763 -0.1761
  759SOL    HW1 2276   1.633   0.096   0.009 -1.7027 -1.5731 -2.6407
  759SOL    HW2 2277   1.785   0.037   0.079  0.7993  0.8980  1.3669
  760SOL     OW 2278   2.718   2.044   2.813 -0.1384 -0.4330 -0.4455
  760SOL    HW1 2279   2.801   1.980   2.825 -1.2601 -2.6797 -1.4188
  760SOL    HW2 2280   2.712   2.100   2.900 -0.9063 -0.9715  1.6284
  761SOL     OW 2281   1.947   1.725   1.624  0.0880 -0.0796 -0.0211
  761SOL    HW1 2282   1.973   1.624   1.642  0.4801 -1.2909 -0.1478
  761SOL    HW2 2283   1.852   1.735   1.578  0.8407  0.5067  0.3011
  762SOL     OW 2284   0.492   2.401   1.000  0.4636  0.9284 -0.1103
  762SOL    HW1 2285   0.536   2.411   0.907  0.3254  1.6337  2.7187
  762SOL    HW2 2286   0.514   2.486   1.059  0.2172  0.6959 -0.0745
  763SOL     OW 2287   2.108   1.513   2.991  0.4394 -0.0536 -0.1193
  763SOL    HW1 2288   2.177   1.453   3.033  0.0587  0.8497 -0.2005
  763SOL    HW2 2289   2.012   1.494   3.013  0.3692  1.6915  0.8214
  764SOL     OW 2290   0.687   0.579   0.886  0.1989 -0.4871  0.2059
  764SOL    HW1 2291   0.665   0.484   0.860 -1.3153  0.6428 -0.4142
  764SOL    HW2 2292   0.788   0.584   0.915 -0.3646 -3.3720  1.4518
  765SOL     OW 2293   0.684   0.229   0.835 -0.1873  0.2327 -0.4794
  765SOL    HW1 2294   0.758   0.264   0.775 -2.5939  1.4147 -0.5649
  765SOL    HW2 2295   0.665   0.277   0.926 -0.2425 -0.2337 -1.7399
  766SOL     OW 2296   2.972   2.092   3.097  0.3610 -0.0134 -0.0391
  766SOL    HW1 2297   2.880   2.112   3.136  1.3220 -0.6599  4.0451
  766SOL    HW2 2298   3.023   2.180   3.069 -1.3528 -0.8503  1.0482
  767SOL     OW 2299   2.903   1.573   0.530 -0.1691  0.0062  0.4773
  767SOL    HW1 2300   2.801   1.580   0.551  0.7527  0.4619 -2.5039
  767SOL    HW2 2301   2.960   1.589   0.614 -1.1670 -1.8054  3.1246
  768SOL     OW 2302   1.077   0.233   0.329 -0.2087  0.3291 -0.1239
  768SOL    HW1 2303   0.996   0.174   0.368 -2.3444 -1.2745  2.5585
  768SOL    HW2 2304   1.153   0.172   0.294  0.4179  0.4068 -0.0364
  769SOL     OW 2305   1.133   1.845   2.235  0.6498 -0.3262 -0.5465
  769SOL    HW1 2306   1.089   1.851   2.327  1.5114 -1.3071  0.4453
  769SOL    HW2 2307   1.145   1.737   2.223  0.3883 -1.6281  1.4164
  770SOL     OW 2308   0.137   1.298   2.315 -0.0849 -0.3931  1.0262
  770SOL    HW1 2309   0.141   1.284   2.419 -1.1558  1.7640  0.6642
  770SOL    HW2 2310   0.067   1.235   2.271 -1.6822 -3.3645  0.9571
  771SOL     OW 2311   2.970   2.826   1.878 -0.2762  0.0295  0.6347
  771SOL    HW1 2312   2.945   2.856   1.782 -3.0880  0.6807 -0.4763
  771SOL    HW2 2313   2.965   2.898   1.949  2.2670 -2.3060 -2.0156
  772SOL     OW 2314   2.178   0.115   2.960 -0.3337  0.2822 -0.1922
  772SOL    HW1 2315   2.273   0.072   2.946  1.0991 -2.3471 -0.0265
  772SOL    HW2 2316   2.172   0.216   2.981 -0.1508 -1.9431 -0.7645
  773SOL     OW 2317   0.704   2.068   2.517  0.0221 -0.2105 -0.6257
  773SOL    HW1 2318   0.677   2.122   2.433  0.2504  0.8554  0.4816
  773SOL    HW2 2319   0.630   2.072   2.589 -0.1556  0.6132  0.8154
  774SOL     OW 2320   2.043   0.033   2.652 -0.0349  0.0483 -0.1436
  774SOL    HW1 2321   2.032   0.119   2.714  2.6855  1.3566  2.6568
  774SOL    HW2 2322   2.099  -0.043   2.693 -0.7833  3.7828  1.4783
  775SOL     OW 2323   2.546   2.848   2.473 -0.1196  0.2014 -0.6479
  775SOL    HW1 2324   2.518   2.931   2.419  1.0177  0.3166  0.2426
  775SOL    HW2 2325   2.645   2.832   2.485  0.1060 -0.7608 -2.9011
  776SOL     OW 2326   0.037   1.254   0.259 -0.7636  0.4219 -0.3915
  776SOL    HW1 2327  -0.012   1.234   0.169  1.8998  0.3707 -1.1704
  776SOL    HW2 2328  -0.015   1.230   0.346  0.9701  0.1676  4.0837
  777SOL     OW 2329   0.232   2.724   0.495 -0.3704 -0.0200 -0.3870
  777SOL    HW1 2330   0.131   2.728   0.509  0.5043 -0.6464  1.6674
  777SOL    HW2 2331   0.276   2.817   0.505  1.0580 -0.3008  1.0039
  778SOL     OW 2332   1.338   1.992   0.187 -0.2525 -0.1612  0.0739
  778SOL    HW1 2333   1.309   1.992   0.288  0.8592 -0.1845  0.4358
  778SOL    HW2 2334   1.339   2.085   0.144 -1.2829 -1.1053  1.2600
  779SOL     OW 2335   0.170   0.784   0.507  0.0926 -0.2535 -0.0555
  779SOL    HW1 2336   0.106   0.702   0.504 -0.2775 -0.1015 -0.0088
  779SOL    HW2 2337   0.137   0.859   0.574 -0.6681  2.8046  0.6338
  780SOL     OW 2338   0.021   0.281   2.323  0.1393 -0.8651  0.0979
  780SOL    HW1 2339  -0.001   0.384   2.328 -0.6388  0.0323  3.3446
  780SOL    HW2 2340   0.120   0.258   2.290 -0.4259 -1.2514  0.0800
  781SOL     OW 2341   0.617   1.729   1.565 -0.3866  0.3383  0.1452
  781SOL    HW1 2342   0.627   1.762   1.663 -1.1657 -1.2242  1.8923
  781SOL    HW2 2343   0.538   1.663   1.548 -4.5491 -0.9202 -2.2459
  782SOL     OW 2344   2.570   0.150   0.912  0.1156 -0.0482  0.5509
  782SOL    HW1 2345   2.511   0.177   0.829 -0.3528  0.8205  0.4063
  782SOL    HW2 2346   2.544   0.207   0.991  0.8065 -0.6216  1.1130
  783SOL     OW 2347   2.814   0.654   2.510  0.2134 -0.2220 -0.2980
  783SOL    HW1 2348   2.760   0.698   2.590 -1.3960  1.9850  1.3987
  783SOL    HW2 2349   2.765   0.573   2.460 -0.8821 -1.5719 -2.8524
  784SOL     OW 2350   1.347   2.240   0.054 -0.7497 -0.7146 -0.3227
  784SOL    HW1 2351   1.431   2.275   0.099 -1.3684 -2.2555  1.0946
  784SOL    HW2 2352   1.362   2.185  -0.033 -0.3024 -2.3110 -0.8479
  785SOL     OW 2353   2.177   0.368   3.073 -0.0072 -0.2767  0.3959
  785SOL    HW1 2354   2.085   0.348   3.127 -1.2526  1.8654 -1.7461
  785SOL    HW2 2355   2.181   0.470   3.055 -1.9534 -0.7786  0.0290
  786SOL     OW 2356   2.066   2.137   2.214 -0.2653  0.3979 -0.0745
  786SOL    HW1 2357   2.028   2.040   2.223 -0.6829 -2.5787 -1.6407
  786SOL    HW2 2358   2.158   2.155   2.266  0.4805 -0.5317  1.5334
  787SOL     OW 2359   1.407   0.587   0.870 -0.0068 -0.1298 -0.0046
  787SOL    HW1 2360   1.363   0.679   0.877  0.2790 -1.1424 -0.8380
  787SOL    HW2 2361   1.422   0.562   0.770 -1.3097 -0.6621 -0.2216
  788SOL     OW 2362   1.215   0.397   3.018 -0.3163 -0.2038 -0.0239
  788SOL    HW1 2363   1.121   0.429   2.983  0.8002  0.7209 -1.9084
  788SOL    HW2 2364   1.289   0.468   3.020 -0.2366  3.1938  0.4221
  789SOL     OW 2365   2.569   0.110   1.791  0.0214  0.1755  0.4980
  789SOL    HW1 2366   2.485   0.146   1.853 -0.8507  1.2280 -1.8402
  789SOL    HW2 2367   2.584   0.007   1.792  0.0979 -0.6488  0.3169
  790SOL     OW 2368   2.556   2.653   0.832  0.9555 -0.5507  0.2206
  790SOL    HW1 2369   2.653   2.631   0.786  4.5889 -0.4964 -0.8240
  790SOL    HW2 2370   2.556   2.736   0.894 -0.9335  4.1345 -1.1808
  791SOL     OW 2371   1.952   1.264   0.229  0.9480 -0.3711 -0.2749
  791SOL    HW1 2372   1.867   1.222   0.278 -2.5891  0.7769  0.2415
  791SOL    HW2 2373   2.021   1.189   0.214  0.8075 -0.0209 -1.4624
  792SOL     OW 2374   0.423   2.000   2.176 -0.2322 -0.6458 -0.0900
  792SOL    HW1 2375   0.468   2.060   2.250 -2.6534  0.2544  0.5333
  792SOL    HW2 2376   0.351   1.935   2.213 -0.4836  1.9631 -0.4416
  793SOL     OW 2377   2.131   1.564   2.102 -0.0300 -0.2537  0.5139
  793SOL    HW1 2378   2.206   1.635   2.067 -0.6406 -1.4735  1.3833
  793SOL    HW2 2379   2.137   1.475   2.053 -1.3936  2.3813 -0.3002
  794SOL     OW 2380   0.443   1.384   2.484 -0.3975 -0.0961 -0.0990
  794SOL    HW1 2381   0.457   1.331   2.392 -0.5846  0.2324  0.6425
  794SOL    HW2 2382   0.420   1.487   2.467 -1.5991 -0.2711  0.6274
  795SOL     OW 2383   2.509   2.335   1.803  0.2434 -0.2575 -0.1829
  795SOL    HW1 2384   2.501   2.364   1.898  2.4785 -2.5627  0.6714
  795SOL    HW2 2385   2.447   2.257   1.779 -0.3420  2.7434 -1.0791
  796SOL     OW 2386   3.073   1.050   2.710 -0.1678 -0.1644 -0.0969
  796SOL    HW1 2387   2.987   1.090   2.762 -1.1015  1.1851 -0.3834
  796SOL    HW2 2388   3.149   1.046   2.782  0.9560 -0.5087  0.1739
  797SOL     OW 2389   0.775   0.671   1.345 -0.3028  0.0264 -0.2984
  797SOL    HW1 2390   0.829   0.733   1.412  1.3203 -1.0746  0.0713
  797SOL    HW2 2391   0.704   0.716   1.281 -0.8222  3.6516 -1.0344
  798SOL     OW 2392   1.271   0.427   1.062 -0.6520  0.1724 -0.7867
  798SOL    HW1 2393   1.285   0.489   1.147 -0.9037  2.1274 -1.3726
  798SOL    HW2 2394   1.333   0.462   0.989 -2.0410 -1.3726  1.1761
  799SOL     OW 2395   1.897   2.739   1.020 -0.8939  0.7243  0.1812
  799SOL    HW1 2396   1.896   2.660   1.084  1.5481  1.8631 -1.1733
  799SOL    HW2 2397   1.912   2.714   0.924  1.7776 -0.1585  1.4125
  800SOL     OW 2398   2.966   0.819   1.867  0.2521 -0.3054  0.1538
  800SOL    HW1 2399   2.970   0.923   1.866 -0.5710 -0.7564 -1.9784
  800SOL    HW2 2400   2.971   0.776   1.961  3.2153  1.6396 -0.6332
  801SOL     OW 2401   1.983   2.128   0.063  0.0816  0.0951  0.4987
  801SOL    HW1 2402   1.905   2.071   0.018  1.0216 -4.4732 -1.0442
  801SOL    HW2 2403   2.078   2.091   0.045 -1.0304  0.7199  3.5349
  802SOL     OW 2404   0.705   0.719   2.531 -0.2098 -0.2535  0.4745
  802SOL    HW1 2405   0.747   0.740   2.439 -2.4047 -1.8377  1.0711
  802SOL    HW2 2406   0.608   0.677   2.522  0.7542 -1.2767  0.1063
  803SOL     OW 2407   0.947   0.078   0.882 -0.4776  0.1272 -0.5409
  803SOL    HW1 2408   1.033   0.119   0.918 -1.0942 -2.9051  0.6216
  803SOL    HW2 2409   0.929   0.112   0.786  0.2149 -1.1119 -1.5407
  804SOL     OW 2410   0.291   3.080   2.168 -0.2209  0.6397 -0.1150
  804SOL    HW1 2411   0.268   3.170   2.216 -1.2059 -0.5516  0.5495
  804SOL    HW2 2412   0.222   3.044   2.096 -0.7328  0.0017  0.8400
  805SOL     OW 2413   2.335   0.404   0.298  0.2158 -0.5481 -0.1632
  805SOL    HW1 2414   2.418   0.407   0.361 -0.5200 -1.8062  0.5061
  805SOL    HW2 2415   2.343   0.342   0.218 -0.1168  2.5851  1.1316
  806SOL     OW 2416   0.625   2.476   1.810 -0.2028 -0.1175  0.8421
  806SOL    HW1 2417   0.577   2.569   1.820  0.9808 -1.0005 -0.0496
  806SOL    HW2 2418   0.721   2.484   1.772 -0.3222  0.1037 -0.5146
  807SOL     OW 2419   2.484   0.933   0.435 -0.0287 -0.1381  0.1024
  807SOL    HW1 2420   2.571   0.884   0.455  1.7702  0.7618 -3.0246
  807SOL    HW2 2421   2.479   0.988   0.347  0.2645 -0.8498  3.1683
  808SOL     OW 2422   0.615   2.003   2.881 -0.4956 -0.0386 -0.0584
  808SOL    HW1 2423   0.619   2.038   2.979 -0.1976  0.3123 -0.5753
  808SOL    HW2 2424   0.669   1.915   2.874 -1.3434  1.6596  0.6229
  809SOL     OW 2425   2.543   2.006   1.890 -0.4954 -0.1018  0.3158
  809SOL    HW1 2426   2.624   2.063   1.895 -1.4818  0.7927  1.0584
  809SOL    HW2 2427   2.518   1.988   1.791  3.0478 -0.1533 -0.2687
  810SOL     OW 2428   2.145   1.095   0.517 -0.3471 -0.0964  0.6573
  810SOL    HW1 2429   2.135   1.037   0.599 -1.0692  1.6412 -0.1109
  810SOL    HW2 2430   2.135   1.192   0.538 -1.8757 -1.0262  1.2596
  811SOL     OW 2431   1.361   2.562   1.202 -0.6965  0.3049  0.3424
  811SOL    HW1 2432   1.350   2.470   1.249  2.1723 -1.5389 -2.5468
  811SOL    HW2 2433   1.326   2.636   1.263 -1.1629  0.5964  0.7507
  812SOL     OW 2434   1.404   0.781   1.941 -0.2799 -0.3487 -0.5138
  812SOL    HW1 2435   1.314   0.745   1.914  0.5750  0.3771  0.1563
  812SOL    HW2 2436   1.388   0.871   1.983 -1.3216  1.3178 -0.5710
  813SOL     OW 2437   1.588   2.064   2.426  0.0368 -0.2398 -0.1058
  813SOL    HW1 2438   1.626   1.980   2.469 -0.9321  0.9839  0.2086
  813SOL    HW2 2439   1.576   2.052   2.322  1.1964 -1.9507 -1.4530
  814SOL     OW 2440   2.969   1.623   2.896 -0.5224  0.5096  0.3683
  814SOL    HW1 2441   3.038   1.576   2.960 -0.5425  2.1299 -3.3017
  814SOL    HW2 2442   2.992   1.725   2.882 -2.1051  1.7567  1.3975
  815SOL     OW 2443   2.194   2.900   2.764 -0.3876  0.1232 -0.3476
  815SOL    HW1 2444   2.169   2.812   2.817  1.0025 -0.4782 -1.8204
  815SOL    HW2 2445   2.288   2.939   2.788 -2.7097  0.1485 -0.4831
  816SOL     OW 2446   1.571   0.352   1.685 -0.3183  0.3292 -0.1243
  816SOL    HW1 2447   1.631   0.276   1.714 -1.9096 -1.3094 -1.0648
  816SOL    HW2 2448   1.496   0.377   1.755  0.8826 -0.3298  0.7625
  817SOL     OW 2449   0.386   1.184   2.656  0.1423  0.2487 -0.1088
  817SOL    HW1 2450   0.299   1.186   2.710  0.0964 -2.5695  0.5563
  817SOL    HW2 2451   0.393   1.261   2.584  1.5040 -0.8668 -2.4755
  818SOL     OW 2452   1.977   0.813   0.443 -0.3577  0.1949  0.2418
  818SOL    HW1 2453   2.080   0.797   0.430 -0.4451 -0.9522 -1.2531
  818SOL    HW2 2454   1.963   0.865   0.529  0.7678 -0.3212 -1.2923
  819SOL     OW 2455   2.727   2.986   3.067 -0.1347  0.1678  0.5072
  819SOL    HW1 2456   2.738   2.912   3.141 -0.2453  1.7038  0.2309
  819SOL    HW2 2457   2.676   2.943   2.987 -1.2519  2.6820  1.6743
  820SOL     OW 2458   1.244   1.037   0.524  0.1259  0.2936 -0.1198
  820SOL    HW1 2459   1.280   1.135   0.553  1.4967  1.0134  1.6624
  820SOL    HW2 2460   1.221   0.975   0.607 -0.6238  0.6109 -1.7713
  821SOL     OW 2461   0.035   1.245   0.715  0.2716 -0.1359  0.4426
  821SOL    HW1 2462   0.006   1.219   0.806  0.5104  0.3401 -0.9770
  821SOL    HW2 2463   0.121   1.308   0.703  1.5560  0.5463 -0.5146
  822SOL     OW 2464   2.513   1.801   2.460 -0.0513 -0.3462 -0.2727
  822SOL    HW1 2465   2.507   1.869   2.538  0.5983 -1.0972 -0.6339
  822SOL    HW2 2466   2.433   1.809   2.393 -0.2892 -1.6389  2.0642
  823SOL     OW 2467   1.990   0.905   1.152 -0.2229  0.3095  0.8143
  823SOL    HW1 2468   1.950   0.887   1.248  1.1844  1.3026 -0.5954
  823SOL    HW2 2469   1.919   0.948   1.091  1.7549  1.4599 -0.6469
  824SOL     OW 2470   0.219   1.986   2.786  0.1568 -0.3541 -0.4910
  824SOL    HW1 2471   0.240   1.932   2.874 -1.4621  1.2175  0.6597
  824SOL    HW2 2472   0.276   1.940   2.708  1.1738  0.7245 -2.3587
  825SOL     OW 2473   1.329   1.058   0.265  0.2041  0.3879  0.0967
  825SOL    HW1 2474   1.320   1.152   0.229 -0.8015  0.7281 -0.7796
  825SOL    HW2 2475   1.255   1.043   0.343 -2.1136  0.4580 -1.2605
  826SOL     OW 2476   1.932   0.616   1.585 -0.2335 -0.0865 -0.5760
  826SOL    HW1 2477   2.024   0.593   1.627  0.8427  0.5409 -3.3856
  826SOL    HW2 2478   1.877   0.532   1.561  2.1637  0.1647 -0.3632
  827SOL     OW 2479   0.681   1.215   0.312  0.4983 -0.7093  0.5409
  827SOL    HW1 2480   0.763   1.169   0.271  1.2801  0.3105 -0.2246
  827SOL    HW2 2481   0.613   1.150   0.357  0.4188 -3.0616  2.2926
  828SOL     OW 2482   2.661   0.116   1.510  0.5883  0.2803  0.2393
  828SOL    HW1 2483   2.562   0.124   1.481 -1.4502 -1.6261  0.1802
  828SOL    HW2 2484   2.670   0.130   1.612  1.6258  1.3166 -1.6905
  829SOL     OW 2485   2.968   2.412   2.839 -0.0278  0.3331  0.2757
  829SOL    HW1 2486   2.885   2.393   2.899  1.8912 -0.7506  4.4610
  829SOL    HW2 2487   2.976   2.511   2.808  0.5697  2.7421  2.3517
  830SOL     OW 2488   2.877   0.945   3.038 -0.0469 -0.4990 -0.3553
  830SOL    HW1 2489   2.930   1.015   3.099  1.1669  1.1515  0.6817
  830SOL    HW2 2490   2.875   0.849   3.083  1.4568 -0.2789  1.6772
  831SOL     OW 2491   0.011   0.547   0.418 -0.1384 -0.0406 -0.2358
  831SOL    HW1 2492   0.001   0.471   0.488 -1.7807  2.1008  0.7753
  831SOL    HW2 2493   0.046   0.504   0.328  0.4044 -1.4963 -0.1594
  832SOL     OW 2494   1.845   0.776   3.056 -0.1393 -0.0419  0.2876
  832SOL    HW1 2495   1.746   0.801   3.030 -0.5958  0.4275  1.4777
  832SOL    HW2 2496   1.864   0.679   3.086 -0.3854  3.4791  3.8413
  833SOL     OW 2497   2.426   2.049   0.444 -0.1976 -0.3451 -0.1255
  833SOL    HW1 2498   2.320   2.026   0.450 -1.4024  1.2673  1.0667
  833SOL    HW2 2499   2.483   1.965   0.449  0.9296  0.8767 -1.6912
  834SOL     OW 2500   0.180   0.120   0.546  0.4125  0.2657  0.0670
  834SOL    HW1 2501   0.227   0.028   0.574  3.6290  2.8406 -0.8633
  834SOL    HW2 2502   0.164   0.127   0.441  1.7287  0.8467 -1.7699
  835SOL     OW 2503   2.470   1.522   1.163  0.6618  0.3388  0.1252
  835SOL    HW1 2504   2.530   1.601   1.180  0.1566 -3.3075  1.0920
  835SOL    HW2 2505   2.491   1.466   1.075  1.3092  1.3931 -0.5916
  836SOL     OW 2506   1.628   0.828   2.582  0.1633 -0.2319  0.4524
  836SOL    HW1 2507   1.531   0.794   2.602  1.3170  0.5371 -0.4866
  836SOL    HW2 2508   1.636   0.849   2.481  0.8623 -0.2894  0.6026
  837SOL     OW 2509   1.655   0.062   0.606  0.3867  0.3844  0.0181
  837SOL    HW1 2510   1.629   0.146   0.661  2.0777  1.5148 -0.6556
  837SOL    HW2 2511   1.617   0.067   0.508 -0.4412  0.2096  1.4690
  838SOL     OW 2512   1.234   1.358   2.713 -0.1919 -0.0727 -0.5661
  838SOL    HW1 2513   1.208   1.436   2.776  0.2531  1.2531 -2.5340
  838SOL    HW2 2514   1.153   1.331   2.650  0.2644  1.2746 -2.0669
  839SOL     OW 2515   1.605   0.372   0.974 -0.3370 -0.3256 -0.6506
  839SOL    HW1 2516   1.623   0.416   1.068 -1.8109 -0.3257  1.1281
  839SOL    HW2 2517   1.592   0.269   0.988  2.3222  0.4631  2.5351
  840SOL     OW 2518   2.609   2.927   1.740  0.8138  0.3834 -0.3362
  840SOL    HW1 2519   2.594   2.879   1.650  2.2923 -1.2462  1.1839
  840SOL    HW2 2520   2.583   2.861   1.815 -2.2298  1.6466 -0.8474
  841SOL     OW 2521   1.543   0.858   2.970 -0.0103  0.0199 -0.1550
  841SOL    HW1 2522   1.482   0.939   2.998 -2.2021 -1.9756 -0.2682
  841SOL    HW2 2523   1.597   0.872   2.883 -1.7569 -2.4186 -2.5620
  842SOL     OW 2524   0.791   1.551   0.996  0.4170  0.1035 -0.0519
  842SOL    HW1 2525   0.740   1.628   1.053  0.7168  2.5278  2.7556
  842SOL    HW2 2526   0.733   1.511   0.920 -0.1694  0.9843 -0.6941
  843SOL     OW 2527   0.115   0.127   1.432  0.2642 -0.3955 -0.4110
  843SOL    HW1 2528   0.165   0.157   1.515 -0.6372 -1.6152  2.0065
  843SOL    HW2 2529   0.135   0.030   1.406 -0.2741  0.3728 -0.1211
  844SOL     OW 2530   0.772   2.480   0.243  0.1311  0.2248  0.1954
  844SOL    HW1 2531   0.742   2.499   0.340 -0.9397  1.3231  1.9875
  844SOL    HW2 2532   0.695   2.492   0.173  1.0768  5.0634 -2.0936
  845SOL     OW 2533   1.694   2.936   1.348 -0.0890  0.6674 -0.8473
  845SOL    HW1 2534   1.739   2.931   1.443 -1.4420  0.4544  1.2770
  845SOL    HW2 2535   1.653   3.027   1.323 -0.8802 -0.7697 -1.7104
  846SOL     OW 2536   1.712   2.960   0.913  0.4586 -0.0763 -0.2221
  846SOL    HW1 2537   1.671   2.977   0.818 -0.0016  0.1343  0.3423
  846SOL    HW2 2538   1.800   2.908   0.915 -0.0543 -1.6467  0.2330
  847SOL     OW 2539   2.093   1.608   0.213  0.0575  0.5366 -0.3076
  847SOL    HW1 2540   2.038   1.606   0.302 -1.7354 -0.4023  0.3512
  847SOL    HW2 2541   2.027   1.611   0.134  3.3745 -1.3981  0.1816
  848SOL     OW 2542   2.468   0.808   2.667 -0.1813  0.0097 -0.0694
  848SOL    HW1 2543   2.482   0.907   2.694  1.7675 -1.0743 -0.0712
  848SOL    HW2 2544   2.383   0.793   2.618  0.3308  0.4379 -1.1478
  849SOL     OW 2545   2.433   0.840   2.311 -0.2007  0.0924  0.2285
  849SOL    HW1 2546   2.489   0.768   2.268 -2.2569  2.4263  1.0519
  849SOL    HW2 2547   2.375   0.807   2.392 -1.3104 -1.1634 -0.2211
  850SOL     OW 2548   1.573   0.120   1.278  0.6207  0.8128  0.0649
  850SOL    HW1 2549   1.548   0.083   1.181  3.2394  2.0961 -1.4019
  850SOL    HW2 2550   1.494   0.102   1.344  2.5061  1.6628 -0.6544
  851SOL     OW 2551   0.464   1.751   0.683 -0.2341  0.6124  0.2845
  851SOL    HW1 2552   0.464   1.841   0.633  2.7416  1.1764  1.8676
  851SOL    HW2 2553   0.561   1.720   0.700  1.0759 -1.1938 -1.6672
  852SOL     OW 2554   0.808   2.111   1.662 -0.3975  0.0851 -0.2982
  852SOL    HW1 2555   0.818   2.202   1.610 -1.6847 -0.1722  0.4808
  852SOL    HW2 2556   0.764   2.129   1.751 -0.8911  1.8086  0.9913
  853SOL     OW 2557   2.544   1.555   2.588 -0.1653 -0.0961 -0.2620
  853SOL    HW1 2558   2.516   1.468   2.537 -3.0326 -0.2118 -1.3111
  853SOL    HW2 2559   2.535   1.644   2.538  2.9429 -1.9161  0.5513
  854SOL     OW 2560   2.428   1.415   1.782 -0.7436 -0.2150 -0.1442
  854SOL    HW1 2561   2.471   1.378   1.695 -1.7290  0.5930 -0.3654
  854SOL    HW2 2562   2.409   1.339   1.849  0.3914 -0.2523 -2.7401
  855SOL     OW 2563   2.038   2.333   0.956 -0.1353 -0.1107  0.2860
  855SOL    HW1 2564   2.079   2.414   0.904 -1.6195  0.0118 -0.7847
  855SOL    HW2 2565   2.075   2.315   1.047 -4.1827  1.4997 -0.3117
  856SOL     OW 2566   1.400   1.378   0.922  0.2524 -0.6960 -0.4122
  856SOL    HW1 2567   1.397   1.473   0.968  0.3859  0.9719  1.5138
  856SOL    HW2 2568   1.344   1.306   0.980 -0.8770  0.8618  0.5198
  857SOL     OW 2569   2.985   2.633   1.072  0.3433 -0.8841 -0.0105
  857SOL    HW1 2570   2.897   2.580   1.082  1.4623 -2.7106 -1.2432
  857SOL    HW2 2571   3.047   2.591   1.001 -2.1788  0.7803  1.3910
  858SOL     OW 2572   2.314   2.160   1.692 -0.4923 -0.1091  0.6951
  858SOL    HW1 2573   2.216   2.178   1.654 -2.1414  2.2564 -1.0637
  858SOL    HW2 2574   2.369   2.082   1.651  1.9597  1.3925  2.0193
  859SOL     OW 2575   2.448   0.500   1.043  0.4388 -0.0500 -0.6182
  859SOL    HW1 2576   2.524   0.530   0.973 -1.4174 -1.3273  0.3764
  859SOL    HW2 2577   2.475   0.425   1.105 -2.4913  2.5468  0.3924
  860SOL     OW 2578   1.956   2.776   0.466  0.3459 -0.3448  0.0079
  860SOL    HW1 2579   1.951   2.730   0.377 -0.8870  3.1345  2.2178
  860SOL    HW2 2580   2.019   2.860   0.472  0.5015  0.4648 -0.2817
  861SOL     OW 2581   1.103   2.603   2.758 -0.0215  0.3380  0.1631
  861SOL    HW1 2582   1.147   2.693   2.749 -1.1929 -2.2290  0.4343
  861SOL    HW2 2583   1.136   2.545   2.837  2.0615  1.5181 -1.9973
  862SOL     OW 2584   2.926   2.532   1.577  0.1450  0.3108 -0.6174
  862SOL    HW1 2585   3.012   2.539   1.634  1.2856  0.2941 -1.6696
  862SOL    HW2 2586   2.888   2.619   1.549  0.3290  3.4911  0.4225
  863SOL     OW 2587   1.866   2.622   0.210  0.0341 -0.1631  0.0780
  863SOL    HW1 2588   1.907   2.524   0.199 -1.0334 -0.9913 -0.1427
  863SOL    HW2 2589   1.766   2.631   0.226  1.5180  0.2006  1.7272
  864SOL     OW 2590   1.870   1.185   2.936 -0.1507  0.3555  0.4961
  864SOL    HW1 2591   1.883   1.131   2.851  0.9571 -0.8906  1.5346
  864SOL    HW2 2592   1.959   1.182   2.994  0.7721  0.4241 -1.7490
  865SOL     OW 2593   2.189   1.784   0.692 -0.0338 -0.2697 -0.5371
  865SOL    HW1 2594   2.245   1.787   0.784  0.9261 -0.6840  1.1788
  865SOL    HW2 2595   2.085   1.767   0.712 -0.2469 -0.7375  3.7948
  866SOL     OW 2596   2.958   2.882   1.022 -0.0289 -0.1272  0.4337
  866SOL    HW1 2597   2.999   2.913   0.933 -0.3681  0.5220 -0.5314
  866SOL    HW2 2598   2.990   2.782   1.048  0.0743 -1.0044 -0.8719
  867SOL     OW 2599   0.419   1.328   0.868  0.2709 -0.0659  0.2836
  867SOL    HW1 2600   0.445   1.232   0.835  0.0065  0.5655  0.0546
  867SOL    HW2 2601   0.346   1.377   0.809  1.0360  1.8071 -2.3536
  868SOL     OW 2602   0.823   1.926   2.019  0.1720 -0.0553  0.2114
  868SOL    HW1 2603   0.785   1.901   2.115 -1.2507 -0.1071  1.1560
  868SOL    HW2 2604   0.788   2.019   1.980  2.7371 -1.1643  0.6306
  869SOL     OW 2605   2.478   1.994   1.590  0.0303  0.5378 -0.0352
  869SOL    HW1 2606   2.576   2.028   1.586 -1.4803  1.7736 -1.9433
  869SOL    HW2 2607   2.454   1.927   1.516  1.7560 -0.4822  1.3704
  870SOL     OW 2608   2.265   2.600   1.230  0.3539 -0.7867  0.1017
  870SOL    HW1 2609   2.202   2.520   1.228  0.2007 -1.1198  0.7620
  870SOL    HW2 2610   2.352   2.587   1.290  2.5419 -2.2950  0.9745
  871SOL     OW 2611   2.989   2.077   0.565 -0.0670  0.1338  0.0556
  871SOL    HW1 2612   2.925   2.127   0.628  0.2227 -3.5475 -0.3570
  871SOL    HW2 2613   2.950   2.033   0.477 -1.6936  0.5488 -1.1365
  872SOL     OW 2614   2.145   0.496   1.697 -0.0577  0.2707  0.0728
  872SOL    HW1 2615   2.110   0.482   1.793 -1.4972  0.0359 -0.0716
  872SOL    HW2 2616   2.247   0.464   1.690  0.8458 -0.2964  2.3025
  873SOL     OW 2617   1.733   2.084   2.969  0.3700  0.5421  0.2162
  873SOL    HW1 2618   1.723   2.186   2.981 -1.8967 -0.7201 -2.6794
  873SOL    HW2 2619   1.678   2.046   2.891  1.2159 -0.6080  0.9527
  874SOL     OW 2620   0.664   2.461   0.757  0.0413  0.5952 -0.1547
  874SOL    HW1 2621   0.619   2.533   0.812  0.1105  1.6280  0.5339
  874SOL    HW2 2622   0.767   2.446   0.783  0.8412 -2.0447  0.5113
  875SOL     OW 2623   2.266   1.560   1.473  0.2981  0.3136  0.1023
  875SOL    HW1 2624   2.363   1.598   1.491 -0.3653  0.9025  2.8314
  875SOL    HW2 2625   2.230   1.603   1.388  0.4636 -2.3915  1.6780
  876SOL     OW 2626   0.151   2.235   2.692  0.1133 -0.2474 -0.0789
  876SOL    HW1 2627   0.158   2.142   2.742  0.4665  1.0117 -0.1035
  876SOL    HW2 2628   0.173   2.309   2.758  0.5318 -1.8756  1.2128
  877SOL     OW 2629   2.753   2.674   0.660 -0.0134  0.2495  0.4267
  877SOL    HW1 2630   2.812   2.759   0.670 -3.1029 -1.5900 -2.0798
  877SOL    HW2 2631   2.805   2.585   0.669 -0.4474 -0.5836 -1.9274
  878SOL     OW 2632   2.878   1.444   2.244  0.0483 -0.6014 -1.0602
  878SOL    HW1 2633   2.968   1.489   2.215  1.8743 -0.9425 -0.0717
  878SOL    HW2 2634   2.846   1.478   2.337  1.6234  1.3612  1.0929
  879SOL     OW 2635   2.391   0.026   1.179 -0.0733 -0.2359  0.2751
  879SOL    HW1 2636   2.430  -0.070   1.179 -2.0151 -0.8573 -0.3701
  879SOL    HW2 2637   2.319   0.034   1.108  0.5894 -1.6719  0.3236
  880SOL     OW 2638   0.716   0.443   2.198  0.5560  0.2231 -0.3713
  880SOL    HW1 2639   0.634   0.396   2.235 -0.0695 -0.2507  1.2619
  880SOL    HW2 2640   0.756   0.395   2.115  0.3697 -0.1031 -3.0705
  881SOL     OW 2641   0.894   0.044   0.419  0.2797  0.0099 -0.6476
  881SOL    HW1 2642   0.916  -0.039   0.475  3.0886 -1.1879  2.4945
  881SOL    HW2 2643   0.883   0.027   0.316  1.0256  0.1526  0.6540
  882SOL     OW 2644   2.714   1.613   1.670  0.5961 -0.0675 -0.4364
  882SOL    HW1 2645   2.808   1.626   1.636 -0.2966  0.4383 -0.8257
  882SOL    HW2 2646   2.686   1.679   1.748  1.6903  0.2629 -0.5876
  883SOL     OW 2647   0.961   0.591   0.971  0.4393 -0.6603 -0.1047
  883SOL    HW1 2648   0.961   0.691   1.009 -0.5744  2.1350  2.4264
  883SOL    HW2 2649   1.057   0.561   0.951  0.2558  1.1944  1.1636
  884SOL     OW 2650   1.175   1.843   1.049 -0.1378  0.4850 -0.5642
  884SOL    HW1 2651   1.167   1.791   0.957  0.0459  0.3705 -2.8372
  884SOL    HW2 2652   1.135   1.936   1.055  0.1009  0.1603  0.3669
  885SOL     OW 2653   2.299   1.852   2.304 -0.6198  0.0394  0.1318
  885SOL    HW1 2654   2.226   1.801   2.366 -0.2918 -0.0694  3.3752
  885SOL    HW2 2655   2.306   1.956   2.320 -1.7486  3.2208 -1.9666
  886SOL     OW 2656   2.664   0.469   1.778  0.0653 -0.1070  0.2892
  886SOL    HW1 2657   2.717   0.395   1.820 -0.0039  0.8559 -0.1885
  886SOL    HW2 2658   2.723   0.547   1.741  1.6724 -0.7457 -0.5043
  887SOL     OW 2659   0.111   2.052   1.246 -0.7059 -0.1348  0.3604
  887SOL    HW1 2660   0.027   2.010   1.198  1.1047 -0.1114 -1.2845
  887SOL    HW2 2661   0.152   2.133   1.195  1.0056  1.4111 -1.1542
  888SOL     OW 2662   0.546   1.308   1.562 -0.2580 -0.3177  0.1754
  888SOL    HW1 2663   0.577   1.349   1.474  2.7188 -3.1268 -1.3077
  888SOL    HW2 2664   0.500   1.218   1.541  0.3223  1.5874 -0.3668
  889SOL     OW 2665   0.841   2.473   2.143  0.1708 -0.0217 -0.2646
  889SOL    HW1 2666   0.777   2.392   2.113 -0.2443  0.1084 -0.8925
  889SOL    HW2 2667   0.921   2.501   2.077  1.3617  1.8688 -1.2438
  890SOL     OW 2668   2.356   2.472   0.194  0.1581  0.0425 -0.2470
  890SOL    HW1 2669   2.361   2.552   0.126 -0.1930  0.4631 -0.2216
  890SOL    HW2 2670   2.293   2.498   0.274  0.2327  1.6247  0.7173
  891SOL     OW 2671   2.633   1.521   0.647  0.1451  0.0704 -0.7386
  891SOL    HW1 2672   2.635   1.483   0.743  1.1305 -3.0845  0.7594
  891SOL    HW2 2673   2.538   1.561   0.617 -4.2611  0.2083  2.0265
  892SOL     OW 2674   0.273   0.264   2.211 -0.3906  0.7554  0.4836
  892SOL    HW1 2675   0.262   0.270   2.108 -1.0117  1.2414  2.6852
  892SOL    HW2 2676   0.365   0.306   2.242  1.2034  0.2659  0.0957
  893SOL     OW 2677   1.682   0.219   2.766  0.1778 -0.2080 -0.0142
  893SOL    HW1 2678   1.763   0.287   2.759  2.5438 -0.1770  0.0856
  893SOL    HW2 2679   1.587   0.266   2.763 -0.6394  0.1401 -2.2123
  894SOL     OW 2680   2.225   2.019   0.052 -0.6146  0.2775 -0.2562
  894SOL    HW1 2681   2.189   1.974  -0.037  2.4757  0.4270 -0.0694
  894SOL    HW2 2682   2.228   1.945   0.128 -2.9991 -1.9250  1.0834
  895SOL     OW 2683   2.874   1.428   0.861  0.7234  0.0230 -0.0738
  895SOL    HW1 2684   2.936   1.371   0.927  0.6406  1.3100  2.4959
  895SOL    HW2 2685   2.925   1.478   0.789  2.3485 -0.7852 -0.7712
  896SOL     OW 2686   1.734   1.782   1.162 -0.3981 -0.2620 -0.0929
  896SOL    HW1 2687   1.792   1.842   1.100 -2.2606  0.9770 -1.7245
  896SOL    HW2 2688   1.635   1.772   1.132 -0.2225  0.8265  0.9990
  897SOL     OW 2689   0.275   0.556   3.048 -0.2276 -0.4047  0.3391
  897SOL    HW1 2690   0.228   0.621   2.987  0.0176  1.4254  2.3478
  897SOL    HW2 2691   0.359   0.593   3.090  0.3342  1.8933 -0.6565
  898SOL     OW 2692   0.568   2.829   1.124  0.0361  0.1250  0.0826
  898SOL    HW1 2693   0.503   2.905   1.163 -1.5049  0.4677  0.3641
  898SOL    HW2 2694   0.670   2.850   1.144  0.0519 -1.4206 -0.3243
  899SOL     OW 2695   2.723   0.954   1.240 -0.7052  0.3798  0.2438
  899SOL    HW1 2696   2.637   0.965   1.189  2.3663  2.0834 -0.5408
  899SOL    HW2 2697   2.803   0.974   1.177 -2.5998  0.4502 -1.2397
  900SOL     OW 2698   0.994   2.547   2.362  0.4463 -0.1519 -0.6368
  900SOL    HW1 2699   0.907   2.531   2.308 -0.8898 -0.9671 -3.1633
  900SOL    HW2 2700   0.991   2.509   2.455 -2.1753  3.9540 -1.3818
  901SOL     OW 2701   1.934   2.406   1.362  0.3447  0.4773 -0.3802
  901SOL    HW1 2702   1.908   2.423   1.263 -1.9177  1.3492 -2.3703
  901SOL    HW2 2703   2.031   2.367   1.370  3.4093  0.0493  1.7382
  902SOL     OW 2704   2.584   1.650   1.437  0.0043 -0.2582  0.1546
  902SOL    HW1 2705   2.624   1.650   1.535  0.1500 -0.0796  0.5157
  902SOL    HW2 2706   2.633   1.583   1.380 -2.1035  0.1057 -0.1844
  903SOL     OW 2707   0.248   2.449   2.019  0.0932 -0.4184  0.5612
  903SOL    HW1 2708   0.169   2.386   1.989 -1.0471  1.8165 -0.1922
  903SOL    HW2 2709   0.270   2.509   1.940 -1.4067 -1.1301 -0.3373
  904SOL     OW 2710   1.988   0.750   2.420 -0.2518  0.3882  1.2590
  904SOL    HW1 2711   1.951   0.694   2.498  1.0337 -0.8156 -2.2453
  904SOL    HW2 2712   1.929   0.747   2.334 -0.4106 -0.2787  0.7434
  905SOL     OW 2713   2.795   0.062   2.588 -0.5284 -0.6506  0.0398
  905SOL    HW1 2714   2.866  -0.014   2.603 -0.2948 -1.4446  2.6489
  905SOL    HW2 2715   2.840   0.149   2.548 -0.9645  0.0723 -0.1415
  906SOL     OW 2716   0.185   1.782   1.860  0.6926  0.3548  0.5420
  906SOL    HW1 2717   0.136   1.752   1.772  0.5709  1.6697  0.1151
  906SOL    HW2 2718   0.279   1.823   1.849  1.6281  0.7523  0.9576
  907SOL     OW 2719   0.169   2.497   1.010 -0.0357  0.1345  0.4541
  907SOL    HW1 2720   0.229   2.578   1.023 -0.5257  0.1988  0.3707
  907SOL    HW2 2721   0.187   2.458   0.917  1.3162  4.8311 -1.5749
  908SOL     OW 2722   2.692   2.972   0.451 -0.2013  0.1774  0.3419
  908SOL    HW1 2723   2.650   2.997   0.358  0.1937 -4.0037 -0.4198
  908SOL    HW2 2724   2.742   2.878   0.447  0.3005 -1.1169 -1.7337
  909SOL     OW 2725   0.818   0.916   2.670  0.4624 -0.4528 -0.0050
  909SOL    HW1 2726   0.758   0.859   2.608 -0.6561 -1.7668  1.2643
  909SOL    HW2 2727   0.909   0.947   2.627 -0.3993  0.5715 -2.6141
  910SOL     OW 2728   1.764   1.828   2.078 -0.3151 -0.3804  0.2357
  910SOL    HW1 2729   1.812   1.852   1.986 -0.3747  0.3614  0.5536
  910SOL    HW2 2730   1.690   1.899   2.105 -0.8813 -2.0119 -0.2404
  911SOL     OW 2731   1.791   2.980   1.602  0.1470  0.1020  0.1867
  911SOL    HW1 2732   1.877   2.936   1.564 -0.4048 -1.7728 -2.1879
  911SOL    HW2 2733   1.753   2.938   1.688 -1.4917  1.7006 -0.8436
  912SOL     OW 2734   2.868   0.952   0.765 -0.3930 -0.4941 -0.5851
  912SOL    HW1 2735   2.888   0.936   0.865 -0.8676 -0.5524  0.5827
  912SOL    HW2 2736   2.837   1.050   0.746  0.1194 -1.4278 -2.8957
  913SOL     OW 2737   2.558   1.278   1.572 -0.3596  0.3040  0.3147
  913SOL    HW1 2738   2.605   1.184   1.557  1.4526  1.5917 -1.1492
  913SOL    HW2 2739   2.538   1.322   1.484 -1.0468  0.2196 -0.5042
  914SOL     OW 2740   2.802   0.521   1.227  0.1748  0.0398  0.1932
  914SOL    HW1 2741   2.802   0.422   1.260  2.9372 -0.6332 -0.3349
  914SOL    HW2 2742   2.764   0.596   1.288 -4.5384  1.6879 -0.1634
  915SOL     OW 2743   1.212   0.822   0.998 -0.1328  0.0062  0.3726
  915SOL    HW1 2744   1.251   0.773   1.078 -2.0939 -1.3039 -0.0318
  915SOL    HW2 2745   1.109   0.839   1.008  1.5840 -2.5836 -1.7899
  916SOL     OW 2746   0.587   0.022   0.669 -0.5466  0.6527 -0.2533
  916SOL    HW1 2747   0.613   0.104   0.725 -0.1401 -1.1803  1.5945
  916SOL    HW2 2748   0.566   0.042   0.569 -0.9750 -0.4002 -1.0186
  917SOL     OW 2749   2.811   2.609   1.986 -0.0347  0.5238 -0.3856
  917SOL    HW1 2750   2.706   2.629   1.981 -3.3972  1.1127 -1.0457
  917SOL    HW2 2751   2.860   2.669   1.917 -0.1653 -0.0870 -1.5400
  918SOL     OW 2752   1.001   2.214   3.031 -0.6399 -0.2718  0.4461
  918SOL    HW1 2753   0.957   2.231   3.125 -0.4723 -1.4812  0.5362
  918SOL    HW2 2754   1.051   2.126   3.020 -1.3123 -0.3493 -0.5466
  919SOL     OW 2755   0.914   1.587   2.806  0.3236 -0.3410 -0.2418
  919SOL    HW1 2756   0.934   1.670   2.747 -0.6546 -0.1789 -2.3064
  919SOL    HW2 2757   0.859   1.516   2.755 -1.1168 -1.4145  0.4860
  920SOL     OW 2758   1.259   2.008   2.495 -0.6187  0.4056 -0.3536
  920SOL    HW1 2759   1.270   2.024   2.396 -0.2050 -0.0836  2.6192
  920SOL    HW2 2760   1.265   1.908   2.513  2.0589  1.7029 -0.5457
  921SOL     OW 2761   1.106   0.051   2.567  0.2740 -0.3351 -0.2547
  921SOL    HW1 2762   1.089   0.070   2.469  0.9458 -0.1876 -0.3597
  921SOL    HW2 2763   1.022   0.032   2.625  2.7613 -3.1076 -0.2036
  922SOL     OW 2764   2.147   2.386   2.822  0.2969  0.2755 -0.9378
  922SOL    HW1 2765   2.151   2.283   2.838 -1.3469 -0.8744 -0.5128
  922SOL    HW2 2766   2.113   2.412   2.726  1.8832 -0.5769 -4.6963
  923SOL     OW 2767   1.243   2.704   0.247 -0.6671  0.5342 -0.2932
  923SOL    HW1 2768   1.311   2.734   0.322 -1.9774  0.1019  1.0035
  923SOL    HW2 2769   1.242   2.602   0.239  2.2699  0.3089 -0.0041
  924SOL     OW 2770   2.905   1.567   0.085  0.5896  0.1123 -0.1792
  924SOL    HW1 2771   2.814   1.566   0.036 -1.3565 -2.1444 -0.8909
  924SOL    HW2 2772   2.975   1.510   0.034 -0.6812 -2.0062  0.9257
  925SOL     OW 2773   3.104   2.909   1.581  0.1732 -0.3731  0.4924
  925SOL    HW1 2774   3.008   2.931   1.613  0.5206 -0.4279  0.7664
  925SOL    HW2 2775   3.104   2.863   1.486 -0.0327  2.5352 -0.1086
  926SOL     OW 2776   1.347   2.870   1.313  0.0981  0.5084  0.1169
  926SOL    HW1 2777   1.421   2.860   1.238 -0.4068  0.1727 -1.8922
  926SOL    HW2 2778   1.356   2.959   1.368  0.8381  2.7742 -3.2075
  927SOL     OW 2779   0.276   2.633   1.795 -0.3696 -0.1623  0.2085
  927SOL    HW1 2780   0.267   2.570   1.712  0.3536  0.2799  1.1562
  927SOL    HW2 2781   0.256   2.735   1.769  0.7411  2.2100  2.9299
  928SOL     OW 2782   1.569   2.014   2.130 -0.1201  0.1794 -0.2938
  928SOL    HW1 2783   1.608   2.111   2.106  2.8974 -0.9959  1.7994
  928SOL    HW2 2784   1.461   2.008   2.124 -2.0710 -1.6806  0.8698
  929SOL     OW 2785   2.409   2.482   2.856  0.1252 -0.0035 -0.1502
  929SOL    HW1 2786   2.330   2.419   2.842 -2.5044 -2.3394 -0.9059
  929SOL    HW2 2787   2.461   2.493   2.763 -0.8491  0.8617 -1.4058
  930SOL     OW 2788   2.174   2.017   1.066  0.1150 -0.1847  0.1115
  930SOL    HW1 2789   2.164   1.985   1.163  0.0892  2.7292 -0.1418
  930SOL    HW2 2790   2.243   2.096   1.060  1.0300 -0.9373  4.0069
  931SOL     OW 2791   0.537   1.708   2.659  0.4008 -0.2848 -0.1419
  931SOL    HW1 2792   0.597   1.764   2.719 -1.5903 -1.1430 -1.8870
  931SOL    HW2 2793   0.556   1.609   2.663 -2.3914  1.8842 -0.5080
  932SOL     OW 2794   0.458   0.050   2.913 -0.3953  0.1168 -0.1603
  932SOL    HW1 2795   0.560   0.079   2.897  1.6947 -0.1025 -1.6782
  932SOL    HW2 2796   0.459  -0.038   2.967  0.3960  0.8010 -1.6410
  933SOL     OW 2797   1.066   0.770   2.992 -0.1248 -0.0430 -0.2492
  933SOL    HW1 2798   1.131   0.826   3.050  0.0931  1.8991 -1.1998
  933SOL    HW2 2799   0.976   0.818   2.972 -0.7303 -0.4658 -0.4545
  934SOL     OW 2800   0.876   3.034   2.712 -0.1828  0.5647  0.2121
  934SOL    HW1 2801   0.894   2.979   2.623 -2.7549  0.6707 -2.1920
  934SOL    HW2 2802   0.877   2.979   2.800 -2.7705  0.3989  1.3700
  935SOL     OW 2803   3.080   0.521   0.787 -0.1439 -0.6130 -0.1094
  935SOL    HW1 2804   3.094   0.429   0.735 -0.2269  2.0917 -0.0825
  935SOL    HW2 2805   2.988   0.561   0.771 -0.5168 -1.7055 -3.6676
  936SOL     OW 2806   1.110   2.911   0.145 -0.4885 -0.0805  0.2011
  936SOL    HW1 2807   1.156   2.922   0.057 -0.9081 -0.1717  1.7204
  936SOL    HW2 2808   1.167   2.842   0.200 -0.6143 -0.9237  1.2483
  937SOL     OW 2809   1.900   2.620   2.105 -0.4011 -0.1041 -0.2125
  937SOL    HW1 2810   1.834   2.687   2.158 -0.6626  0.8467  3.7185
  937SOL    HW2 2811   1.907   2.633   2.003  0.3277 -2.0016  0.3079
  938SOL     OW 2812   2.722   2.096   1.570  0.2636  0.4078 -0.8052
  938SOL    HW1 2813   2.715   2.200   1.587  0.7050  1.4056  4.2065
  938SOL    HW2 2814   2.811   2.053   1.603  2.7601 -0.1892  0.3803
  939SOL     OW 2815   2.830   1.256   2.469 -0.5729 -0.2565 -0.1088
  939SOL    HW1 2816   2.904   1.233   2.402 -0.7194 -0.6778 -0.2042
  939SOL    HW2 2817   2.831   1.193   2.550 -0.5202  0.0837 -0.2872
  940SOL     OW 2818   0.992   0.449   2.662  0.1265 -0.4969 -0.4757
  940SOL    HW1 2819   1.033   0.367   2.704  2.7056  2.3922  0.2572
  940SOL    HW2 2820   0.891   0.451   2.657  0.5636  3.4507 -2.3940
  941SOL     OW 2821   0.044   2.862   2.214  0.1227 -0.1882  0.5294
  941SOL    HW1 2822   0.035   2.760   2.207 -1.9908 -3.7693  1.8061
  941SOL    HW2 2823   0.104   2.898   2.286 -0.3138 -2.1539 -0.8058
  942SOL     OW 2824   0.046   0.127   2.551 -0.2994 -0.4595 -0.0131
  942SOL    HW1 2825   0.126   0.149   2.617  0.4095  1.1884 -0.0907
  942SOL    HW2 2826   0.021   0.206   2.489  0.1266 -0.9664  0.8228
  943SOL     OW 2827   2.108   1.688   2.433  0.0212  0.2812  0.1782
  943SOL    HW1 2828   2.140   1.632   2.352  0.4456  2.9730 -2.2172
  943SOL    HW2 2829   2.076   1.643   2.517 -2.0954  0.6444  1.0437
  944SOL     OW 2830   2.172   2.326   1.461 -0.4663  0.0766 -0.1282
  944SOL    HW1 2831   2.219   2.413   1.491  1.4158 -0.4979 -0.0511
  944SOL    HW2 2832   2.113   2.283   1.534  0.0831 -0.5573 -2.6165
  945SOL     OW 2833   0.618   1.483   0.365 -0.1617 -0.0999 -0.3178
  945SOL    HW1 2834   0.666   1.531   0.289  1.1294 -0.6762  2.0134
  945SOL    HW2 2835   0.636   1.383   0.355  0.6978  2.8464 -1.9472
  946SOL     OW 2836   0.440   0.926   2.512 -0.4898 -0.0843  0.0207
  946SOL    HW1 2837   0.348   0.890   2.476 -0.4877  1.3114 -2.5812
  946SOL    HW2 2838   0.423   1.002   2.583  3.7846 -0.9626 -1.4330
  947SOL     OW 2839   1.548   0.577   0.028 -0.0720 -0.2064 -0.2603
  947SOL    HW1 2840   1.518   0.606  -0.069  0.4547 -0.6335 -1.4822
  947SOL    HW2 2841   1.471   0.565   0.089 -0.5066  3.7086 -2.2183
  948SOL     OW 2842   2.055   3.083   2.194 -0.0466  0.3289  0.2376
  948SOL    HW1 2843   2.028   3.062   2.092 -2.8437 -0.0428 -0.5747
  948SOL    HW2 2844   2.013   3.016   2.262 -0.0166  0.1512 -1.3555
  949SOL     OW 2845   0.688   2.542   0.500  0.2067  0.0506 -0.1156
  949SOL    HW1 2846   0.646   2.638   0.485 -1.2939  0.8003  0.3915
  949SOL    HW2 2847   0.706   2.508   0.599  0.9748  0.5361  0.1944
  950SOL     OW 2848   0.247   2.154   3.054  0.5729  0.4598  0.3168
  950SOL    HW1 2849   0.162   2.215   3.065  0.6758  1.7221  2.6878
  950SOL    HW2 2850   0.247   2.088   2.975  2.9535  0.7818 -0.2533
  951SOL     OW 2851   1.183   2.858   2.709 -0.4448 -0.1232  0.3731
  951SOL    HW1 2852   1.145   2.928   2.639 -0.1388 -0.1577  1.9457
  951SOL    HW2 2853   1.277   2.886   2.745 -0.0992  1.2660  0.0260
  952SOL     OW 2854   0.094   1.644   0.437  0.0653  0.0206 -0.0158
  952SOL    HW1 2855   0.164   1.716   0.461 -1.3782 -3.1206  0.1835
  952SOL    HW2 2856   0.041   1.598   0.511 -0.3026 -0.6094  1.8044
  953SOL     OW 2857   2.514   1.782   0.173  0.2016 -0.1310  0.9442
  953SOL    HW1 2858   2.497   1.687   0.204  0.7184  3.3581 -0.3903
  953SOL    HW2 2859   2.567   1.783   0.084 -1.3447  0.1025 -1.6637
  954SOL     OW 2860   2.188   0.528   0.985  0.4099  0.0302 -0.4356
  954SOL    HW1 2861   2.177   0.550   0.885 -0.7665 -0.2722  2.6969
  954SOL    HW2 2862   2.287   0.521   1.018  0.3397  2.8425 -0.4937
  955SOL     OW 2863   0.256   2.686   1.369 -0.2042  0.2672 -0.6565
  955SOL    HW1 2864   0.153   2.675   1.373 -1.2622  0.0667 -2.4072
  955SOL    HW2 2865   0.294   2.690   1.271  1.1624  1.5373  1.6149
  956SOL     OW 2866   2.756   2.451   2.450  0.2494  0.9045  0.0605
  956SOL    HW1 2867   2.775   2.343   2.462 -2.0893 -2.5048  0.6461
  956SOL    HW2 2868   2.786   2.487   2.361 -1.5435  0.6452 -0.3501
  957SOL     OW 2869   1.551   2.010   2.745  0.4948 -0.5575 -0.4398
  957SOL    HW1 2870   1.543   1.909   2.749 -1.8714 -2.5705  2.2211
  957SOL    HW2 2871   1.543   2.050   2.651  0.6707 -1.0631 -0.6381
  958SOL     OW 2872   2.730   2.321   2.956 -0.1440  0.2115 -0.1008
  958SOL    HW1 2873   2.654   2.385   2.944 -0.2294 -0.0182  2.0127
  958SOL    HW2 2874   2.722   2.273   3.046 -2.1276  1.1107  0.3398
  959SOL     OW 2875   0.245   2.744   0.129  0.0609 -0.1708 -0.1510
  959SOL    HW1 2876   0.148   2.722   0.102 -0.7853  1.7082  1.8210
  959SOL    HW2 2877   0.280   2.671   0.197  1.3401 -1.9700  1.4972
  960SOL     OW 2878   1.982   0.434   1.936 -0.1869  0.6446  0.0167
  960SOL    HW1 2879   1.943   0.521   1.893 -0.0425 -0.9830  2.9247
  960SOL    HW2 2880   1.973   0.436   2.040 -1.0405  1.3866  1.8497
  961SOL     OW 2881   2.564   1.829   1.033  0.3533  0.2566 -0.2940
  961SOL    HW1 2882   2.531   1.917   0.989  1.4225  0.1940 -1.1096
  961SOL    HW2 2883   2.563   1.841   1.134 -0.0561 -0.5691 -1.3477
  962SOL     OW 2884   1.271   0.900   0.045  0.5105 -0.2315  0.3209
  962SOL    HW1 2885   1.263   0.952  -0.042 -0.0562 -0.0874  1.0704
  962SOL    HW2 2886   1.294   0.961   0.126  2.0588 -1.8400  0.7528
  963SOL     OW 2887   2.205   2.552   1.848  0.1789 -0.3404  0.1164
  963SOL    HW1 2888   2.217   2.459   1.897  2.4115  1.3063  2.2633
  963SOL    HW2 2889   2.226   2.637   1.910 -0.7341  2.8000  1.2450
  964SOL     OW 2890   2.408   0.429   1.689  0.4027  0.1451  0.0648
  964SOL    HW1 2891   2.508   0.434   1.723  0.0531 -1.9924 -1.4898
  964SOL    HW2 2892   2.400   0.413   1.583  2.8759 -1.1574  0.2493
  965SOL     OW 2893   2.602   3.075   0.211 -0.1963 -0.0080 -0.8915
  965SOL    HW1 2894   2.667   3.068   0.133  2.5924 -0.3619  0.2075
  965SOL    HW2 2895   2.505   3.055   0.189  2.7339  1.6821  1.7700
  966SOL     OW 2896   2.470   2.460   2.298 -0.1212  0.3412  0.5300
  966SOL    HW1 2897   2.384   2.466   2.356 -2.6191  1.6657  1.0915
  966SOL    HW2 2898   2.481   2.543   2.238  0.5470 -1.7043 -1.6537
  967SOL     OW 2899   2.814   2.786   2.451  0.5876 -0.0857  0.4532
  967SOL    HW1 2900   2.840   2.706   2.385 -0.0378 -2.0583  0.1042
  967SOL    HW2 2901   2.889   2.849   2.481 -0.8139 -0.6524  2.2447
  968SOL     OW 2902   1.911   1.080   2.667  0.1589 -0.4208 -0.5127
  968SOL    HW1 2903   1.886   1.128   2.576 -1.8548 -1.7561  1.3444
  968SOL    HW2 2904   1.918   0.980   2.655 -2.5222  3.3007  1.3640
  969SOL     OW 2905   2.730   2.456   1.082 -0.0822 -0.2415 -0.0753
  969SOL    HW1 2906   2.644   2.434   1.025 -1.8706  1.1180  0.6325
  969SOL    HW2 2907   2.796   2.376   1.099 -1.5520 -0.5013 -0.3960
  970SOL     OW 2908   1.047   2.136   1.788  0.0974 -0.2590 -0.7345
  970SOL    HW1 2909   0.956   2.112   1.746 -0.5304 -0.1497  2.1490
  970SOL    HW2 2910   1.041   2.169   1.888  2.6526 -0.8843 -0.3173
  971SOL     OW 2911   2.811   2.104   1.880  0.2628  0.5389  0.1541
  971SOL    HW1 2912   2.828   2.192   1.932 -0.4496 -1.3236  1.5795
  971SOL    HW2 2913   2.874   2.092   1.800 -2.0784  0.0948  0.2585
  972SOL     OW 2914   2.025   2.359   0.206  0.7729  0.1147 -0.0241
  972SOL    HW1 2915   2.002   2.277   0.144  0.6644 -1.3023 -0.0530
  972SOL    HW2 2916   2.022   2.331   0.306  0.6513  2.2491  2.7493
  973SOL     OW 2917   1.334   1.066   1.950  0.0671  0.1833  0.2678
  973SOL    HW1 2918   1.273   1.038   1.869 -2.3227  0.1090 -1.0064
  973SOL    HW2 2919   1.320   1.165   1.977  0.3182  1.5113 -1.2894
  974SOL     OW 2920   1.602   0.588   1.986 -0.3103  0.4102 -0.5546
  974SOL    HW1 2921   1.670   0.618   1.912  1.4169  1.7725 -1.2427
  974SOL    HW2 2922   1.517   0.651   1.981 -1.6721  0.9231  0.2246
  975SOL     OW 2923   2.363   3.020   0.043  0.2953  0.3333  0.2057
  975SOL    HW1 2924   2.293   2.947   0.066 -2.5327 -0.8255 -0.9291
  975SOL    HW2 2925   2.397   3.014  -0.053 -2.4154  1.5135  1.4388
  976SOL     OW 2926   1.933   2.894   2.365 -0.2120 -0.2886 -0.3882
  976SOL    HW1 2927   1.843   2.870   2.323  1.5521  1.0099  2.4756
  976SOL    HW2 2928   1.955   2.850   2.460  1.3215  0.7479  0.7858
  977SOL     OW 2929   0.451   0.642   1.002 -0.4122 -0.4019 -0.6910
  977SOL    HW1 2930   0.369   0.656   0.937  0.8240 -3.5458 -1.3501
  977SOL    HW2 2931   0.525   0.594   0.951  3.2761 -0.5445  0.6362
   3.10000   3.10000   3.10000
