1000 SPC/Fw water molecules t=   1.87000 step= 1870
 2931
    1SOL     OW    1   2.509   0.315   2.681  0.3655 -0.4706  0.7235
    1SOL    HW1    2   2.525   0.220   2.643 -0.4909 -2.9377  0.5219
    1SOL    HW2    3   2.578   0.345   2.757  2.5735 -2.9065 -0.0453
    2SOL     OW    4   2.763   2.839   1.325  1.1310 -0.5647 -0.9568
    2SOL    HW1    5   2.857   2.829   1.285 -1.3123 -0.4558  0.9624
    2SOL    HW2    6   2.762   2.892   1.413 -0.8065 -1.8598 -2.4010
    3SOL     OW    7   2.736   2.450   0.449  0.2298  0.1364  0.9454
    3SOL    HW1    8   2.633   2.446   0.423  0.0171  0.4606 -2.0155
    3SOL    HW2    9   2.768   2.521   0.518  1.2936  3.1642 -1.9730
    4SOL     OW   10   1.242   1.569   2.450 -0.2044  0.4150 -0.1037
    4SOL    HW1   11   1.178   1.591   2.370 -1.1435  0.1806 -0.3852
    4SOL    HW2   12   1.212   1.488   2.509 -3.1254  1.6766 -1.7926
    5SOL     OW   13   1.153   1.589   2.914  0.3329 -0.2873 -0.3891
    5SOL    HW1   14   1.191   1.658   2.980  0.3788  1.3923  0.8170
    5SOL    HW2   15   1.051   1.599   2.896 -3.0806 -0.6697 -0.5325
    6SOL     OW   16   0.179   1.844   0.032 -0.0182  0.2720 -0.3537
    6SOL    HW1   17   0.101   1.867   0.094  1.9786 -3.5135 -0.6175
    6SOL    HW2   18   0.211   1.749   0.060  1.8486  4.0852 -1.3025
    7SOL     OW   19   2.535   0.872   1.027  0.1181 -0.8492 -0.1531
    7SOL    HW1   20   2.444   0.846   1.073 -0.5809 -0.3585  0.7070
    7SOL    HW2   21   2.553   0.831   0.931  2.9455  1.3738  1.1015
    8SOL     OW   22   0.443   0.734   1.511  0.5767  0.1563 -0.2093
    8SOL    HW1   23   0.535   0.697   1.542  1.2727  0.9972  1.4011
    8SOL    HW2   24   0.437   0.762   1.412  0.3081  1.1892 -0.1036
    9SOL     OW   25   1.098   0.892   2.344  0.6784 -0.8405 -0.2171
    9SOL    HW1   26   1.169   0.913   2.267  2.9275 -0.7129 -2.0679
    9SOL    HW2   27   1.051   0.803   2.352  0.3776 -0.2840 -1.4806
   10SOL     OW   28   0.607   1.477   1.266 -0.5867  0.1676 -0.5059
   10SOL    HW1   29   0.528   1.463   1.195 -0.3907  0.6958  0.2140
   10SOL    HW2   30   0.629   1.576   1.288  0.8982 -0.2750 -1.0721
   11SOL     OW   31   2.334   2.825   0.940  0.5526  0.1157 -0.0236
   11SOL    HW1   32   2.304   2.798   1.031  1.9054 -1.3640  1.6478
   11SOL    HW2   33   2.432   2.865   0.946  1.2648  0.5997 -0.6253
   12SOL     OW   34   1.458   0.835   0.493 -0.5751 -0.3201  0.1743
   12SOL    HW1   35   1.365   0.789   0.498 -1.2421  1.5114  0.3728
   12SOL    HW2   36   1.520   0.775   0.435  0.1236  2.0843  3.2261
   13SOL     OW   37   2.437   0.741   1.821 -0.0026 -0.6136  0.4128
   13SOL    HW1   38   2.367   0.689   1.874  1.5333  0.4083  0.2824
   13SOL    HW2   39   2.489   0.678   1.751 -0.3802 -1.2218  2.5807
   14SOL     OW   40   1.932   3.040   0.633 -0.4281 -0.3261  0.4948
   14SOL    HW1   41   1.840   3.094   0.616  0.8557 -1.7827  0.8540
   14SOL    HW2   42   1.958   3.027   0.733  1.0088  2.9287 -0.0865
   15SOL     OW   43   1.904   2.117   2.662 -0.6352 -0.3176 -0.6217
   15SOL    HW1   44   1.817   2.135   2.718  2.3424 -2.0146 -1.2356
   15SOL    HW2   45   1.903   2.023   2.613  0.2730  0.5346  1.3266
   16SOL     OW   46   1.552   1.762   3.001  0.2809 -0.2620 -0.6187
   16SOL    HW1   47   1.547   1.712   3.091  1.0841  1.4199  0.8398
   16SOL    HW2   48   1.648   1.791   2.989 -0.6548 -1.2685  1.9707
   17SOL     OW   49   0.071   0.461   0.195 -0.6045 -0.2440  0.5911
   17SOL    HW1   50   0.167   0.438   0.168 -0.0213  1.3804  1.3234
   17SOL    HW2   51   0.031   0.509   0.117  1.5778  1.1697  2.2143
   18SOL     OW   52   0.853   2.831   2.214 -0.7842 -0.2367  0.9846
   18SOL    HW1   53   0.810   2.753   2.272  0.2671 -0.4877  2.7568
   18SOL    HW2   54   0.907   2.799   2.130  1.4820 -0.2424 -0.0764
   19SOL     OW   55   0.506   0.932   1.930 -0.3745 -0.6595 -0.0270
   19SOL    HW1   56   0.530   0.870   2.005 -0.8047  0.2508 -1.3011
   19SOL    HW2   57   0.558   1.020   1.933 -1.6142 -2.1385  1.8003
   20SOL     OW   58   0.231   2.781   0.729 -0.4071  0.1749  0.6558
   20SOL    HW1   59   0.127   2.785   0.725 -3.8409  0.3087 -0.1045
   20SOL    HW2   60   0.268   2.691   0.685 -0.8674  1.7847  0.8100
   21SOL     OW   61   2.808   0.274   1.988  0.8837 -0.3185 -0.0743
   21SOL    HW1   62   2.729   0.213   1.963  0.9928  2.1593  0.8618
   21SOL    HW2   63   2.866   0.233   2.062  1.4497 -0.9869 -1.2544
   22SOL     OW   64   2.419   0.199   0.100  0.3133  0.5664 -0.3258
   22SOL    HW1   65   2.443   0.114   0.047  0.9959 -0.3039 -3.5430
   22SOL    HW2   66   2.349   0.251   0.053 -1.0895 -1.3049 -0.7899
   23SOL     OW   67   2.820   0.494   0.664  0.0587  0.1730 -0.2741
   23SOL    HW1   68   2.900   0.438   0.636 -2.3447 -1.7047  2.0814
   23SOL    HW2   69   2.822   0.586   0.628  2.1418 -1.8956 -0.7395
   24SOL     OW   70   0.275   1.925   0.460 -0.5552 -0.1805  0.2128
   24SOL    HW1   71   0.249   1.999   0.391 -0.9918 -0.9026  0.5828
   24SOL    HW2   72   0.373   1.897   0.447  1.1286  0.3710 -0.7820
   25SOL     OW   73   2.282   0.597   0.249  0.2340 -0.3788  0.0787
   25SOL    HW1   74   2.272   0.585   0.146  0.9000  2.1188 -0.4178
   25SOL    HW2   75   2.317   0.513   0.299 -1.5090 -0.5371 -1.9945
   26SOL     OW   76   2.468   2.161   2.140  0.9556  0.6264  0.6084
   26SOL    HW1   77   2.552   2.213   2.173  0.6823 -0.6431 -1.4503
   26SOL    HW2   78   2.489   2.106   2.056  0.2989  1.2091  1.0525
   27SOL     OW   79   0.643   3.006   0.153  0.2421  0.3176  0.7757
   27SOL    HW1   80   0.719   3.066   0.108 -4.3061 -1.0461 -0.3309
   27SOL    HW2   81   0.568   2.969   0.088  0.8147 -2.0212  0.3733
   28SOL     OW   82   1.552   0.185   0.320 -0.1427  0.1735 -0.5241
   28SOL    HW1   83   1.597   0.160   0.228  0.1886 -0.0722  1.2348
   28SOL    HW2   84   1.626   0.231   0.381  0.8195 -1.0130  3.3721
   29SOL     OW   85   2.030   0.553   0.308 -0.4115 -0.4451 -0.3231
   29SOL    HW1   86   1.994   0.635   0.362  1.6497  1.6609 -0.6871
   29SOL    HW2   87   2.127   0.566   0.281  0.5490  0.7129  1.0949
   30SOL     OW   88   0.209   2.139   0.887 -0.0369 -0.2696  0.1215
   30SOL    HW1   89   0.203   2.073   0.810 -1.2945  1.3358  1.0639
   30SOL    HW2   90   0.119   2.155   0.935  1.7018 -0.9641 -0.7585
   31SOL     OW   91   2.101   0.108   2.377  0.2390  0.0993 -0.3435
   31SOL    HW1   92   2.048   0.094   2.466 -1.1442  0.3911 -0.9066
   31SOL    HW2   93   2.060   0.043   2.303 -0.8563 -0.6179  0.3244
   32SOL     OW   94   3.076   3.057   0.234  0.2586 -0.4769 -0.3016
   32SOL    HW1   95   3.037   2.966   0.268  1.5551  0.8895  0.1070
   32SOL    HW2   96   3.174   3.054   0.200 -3.0095  1.4802 -0.9365
   33SOL     OW   97   0.856   0.292   0.639  0.5986 -0.2970  0.3692
   33SOL    HW1   98   0.851   0.201   0.589  0.4000  0.7010  1.7005
   33SOL    HW2   99   0.950   0.327   0.645 -2.4305 -2.5816  0.7780
   34SOL     OW  100   0.336   2.656   1.025  0.3332  0.0044 -0.2980
   34SOL    HW1  101   0.260   2.679   0.954 -1.1898 -0.6936 -1.0684
   34SOL    HW2  102   0.426   2.707   1.014  0.3601 -2.1067 -0.6544
   35SOL     OW  103   0.101   0.217   1.881  0.3434 -0.0586  0.2394
   35SOL    HW1  104   0.106   0.114   1.909 -1.2844 -1.8482 -2.5423
   35SOL    HW2  105   0.046   0.221   1.794 -1.8501  1.9006  0.5314
   36SOL     OW  106   1.877   1.216   1.471 -0.4334  0.4878 -0.5653
   36SOL    HW1  107   1.970   1.187   1.508  1.0156  2.1163  0.6299
   36SOL    HW2  108   1.883   1.285   1.395 -1.1888 -2.7438 -0.7249
   37SOL     OW  109   1.164   0.254   1.013  0.2487 -0.2748 -0.3071
   37SOL    HW1  110   1.180   0.352   0.993 -1.0939 -1.8023 -0.0984
   37SOL    HW2  111   1.227   0.184   0.962 -0.5858 -0.7554  0.3897
   38SOL     OW  112   1.113   2.798   2.445 -0.6383  0.6984  0.2162
   38SOL    HW1  113   1.027   2.765   2.495  0.0097  0.7635  0.6788
   38SOL    HW2  114   1.105   2.896   2.414  2.7276 -0.0179  1.4342
   39SOL     OW  115   2.468   1.410   2.992  0.2579  0.3610  0.3263
   39SOL    HW1  116   2.530   1.327   3.005 -0.8655 -1.5174 -2.3551
   39SOL    HW2  117   2.378   1.403   3.043  1.9516  2.8902  0.4347
   40SOL     OW  118   2.047   2.493   2.533 -0.2082 -0.0085  0.6313
   40SOL    HW1  119   1.981   2.570   2.536  0.2018 -2.2305  2.7263
   40SOL    HW2  120   2.002   2.420   2.469 -3.1325  0.0067 -0.2537
   41SOL     OW  121   3.017   0.704   2.812 -0.1325  0.0878 -0.0633
   41SOL    HW1  122   3.008   0.801   2.853 -1.5556  0.7756  1.8573
   41SOL    HW2  123   2.939   0.678   2.753  0.6575 -1.2306 -2.0876
   42SOL     OW  124   1.715   1.772   0.487  0.6182 -0.2158 -0.2473
   42SOL    HW1  125   1.705   1.666   0.490 -1.0869 -0.0550 -1.4157
   42SOL    HW2  126   1.724   1.807   0.390  0.9780 -0.6448  1.1286
   43SOL     OW  127   0.449   1.737   1.125 -0.7371  0.7018  0.3822
   43SOL    HW1  128   0.450   1.656   1.065  0.0185  3.0192 -2.3811
   43SOL    HW2  129   0.377   1.738   1.201  1.5125  3.5119  0.6445
   44SOL     OW  130   1.701   2.356   2.946  0.1403  0.0072  0.2092
   44SOL    HW1  131   1.615   2.411   2.970  1.4554  0.2317  0.0299
   44SOL    HW2  132   1.743   2.388   2.855  2.1708  2.0437  1.3741
   45SOL     OW  133   0.363   1.945   2.625  0.1558  0.1686 -0.5858
   45SOL    HW1  134   0.301   1.919   2.546 -2.6195 -0.7124 -0.4641
   45SOL    HW2  135   0.439   1.880   2.641  1.6535  1.0979  1.2789
   46SOL     OW  136   1.323   0.713   0.247 -0.7778  0.0156  0.4218
   46SOL    HW1  137   1.302   0.810   0.246  1.1326 -1.3126  0.2592
   46SOL    HW2  138   1.256   0.652   0.199  1.3003  2.0402  0.2923
   47SOL     OW  139   0.147   2.349   1.593  0.3945 -0.4876  0.3288
   47SOL    HW1  140   0.069   2.296   1.639 -2.7530  0.9286 -1.5949
   47SOL    HW2  141   0.121   2.397   1.503  0.0876  2.0372  1.3867
   48SOL     OW  142   2.638   0.712   0.131  0.1329 -0.4048 -0.0579
   48SOL    HW1  143   2.641   0.693   0.236  0.5443 -1.0402 -0.3223
   48SOL    HW2  144   2.735   0.737   0.097  2.2039 -1.6754  0.0666
   49SOL     OW  145   0.327   0.839   1.725  0.5837  0.1923  0.3062
   49SOL    HW1  146   0.390   0.886   1.790  0.5595 -0.2363 -0.9168
   49SOL    HW2  147   0.380   0.781   1.655 -1.1748 -0.2165 -1.8912
   50SOL     OW  148   1.686   1.104   0.322 -0.1656  0.3242 -0.1749
   50SOL    HW1  149   1.712   1.012   0.284  0.6626 -1.1966  1.4500
   50SOL    HW2  150   1.622   1.088   0.403 -1.0424  1.2632  1.8838
   51SOL     OW  151   2.963   1.745   0.304 -0.7474 -0.7999  0.3016
   51SOL    HW1  152   2.957   1.676   0.229 -1.1064  0.8187 -0.6137
   51SOL    HW2  153   3.051   1.737   0.360 -2.0910 -0.1585 -0.5043
   52SOL     OW  154   0.796   2.172   0.571  0.4865  0.2785 -0.2599
   52SOL    HW1  155   0.704   2.205   0.542  0.0006  1.4670 -0.7661
   52SOL    HW2  156   0.791   2.095   0.640 -2.1825  0.4162  0.7823
   53SOL     OW  157   0.287   0.468   1.472  0.1115  0.1921  0.2798
   53SOL    HW1  158   0.342   0.552   1.493 -0.1783 -0.1232  0.2064
   53SOL    HW2  159   0.242   0.483   1.382 -2.1478  1.2812  2.5989
   54SOL     OW  160   1.749   0.429   0.003  0.9787  0.5243 -0.2745
   54SOL    HW1  161   1.830   0.383   0.049  1.4777 -0.0013  0.6189
   54SOL    HW2  162   1.666   0.432   0.064  1.9230  0.3468  1.1472
   55SOL     OW  163   0.782   2.909   0.641 -0.0747 -0.6133  0.2898
   55SOL    HW1  164   0.760   3.009   0.616  2.0726 -1.2513 -1.9819
   55SOL    HW2  165   0.882   2.888   0.623 -0.4213  0.0428  0.0723
   56SOL     OW  166   0.527   1.582   3.023 -0.1613  0.5958  0.5083
   56SOL    HW1  167   0.462   1.617   3.101 -0.5138  1.9701  0.9455
   56SOL    HW2  168   0.517   1.482   2.994 -3.2263 -1.1413  0.8073
   57SOL     OW  169   1.696   2.472   2.360 -0.3219  0.6266  0.3739
   57SOL    HW1  170   1.779   2.410   2.365 -1.4423 -1.0884 -0.7745
   57SOL    HW2  171   1.663   2.495   2.456 -1.9257 -1.4588 -0.2035
   58SOL     OW  172   0.635   0.190   1.066  0.3206 -0.2616 -0.4020
   58SOL    HW1  173   0.555   0.177   1.135 -1.5751 -0.8447  1.5305
   58SOL    HW2  174   0.693   0.106   1.049  3.1980  1.6555  0.2098
   59SOL     OW  175   0.460   2.376   2.575 -0.0957 -0.0311  0.3067
   59SOL    HW1  176   0.498   2.276   2.574 -1.7351 -1.1129  2.1287
   59SOL    HW2  177   0.534   2.441   2.601  0.5105 -2.4694 -0.0956
   60SOL     OW  178   2.316   2.070   2.340  0.0515  0.4720  0.9260
   60SOL    HW1  179   2.372   2.112   2.265  0.9786 -0.5913  1.5132
   60SOL    HW2  180   2.342   2.093   2.438  1.0057 -0.7658  0.9371
   61SOL     OW  181   1.204   0.641   0.485 -0.2861  0.2985 -0.4068
   61SOL    HW1  182   1.099   0.655   0.472 -0.5257 -1.2463 -1.4355
   61SOL    HW2  183   1.258   0.657   0.399  1.6950 -1.5665 -1.3802
   62SOL     OW  184   2.804   1.682   2.693 -0.1887  0.4992  0.0034
   62SOL    HW1  185   2.721   1.644   2.736 -0.9576  0.3425 -0.2513
   62SOL    HW2  186   2.888   1.682   2.757 -1.1699 -2.1293 -1.1720
   63SOL     OW  187   0.548   0.834   0.192 -0.1231 -0.2037  0.6106
   63SOL    HW1  188   0.611   0.905   0.151 -2.3712 -0.1497  1.9255
   63SOL    HW2  189   0.564   0.815   0.295 -0.9891 -2.1933  0.8215
   64SOL     OW  190   3.024   0.566   2.381  0.5508  0.2759 -0.0543
   64SOL    HW1  191   2.956   0.596   2.448  1.6183  1.8400 -0.8410
   64SOL    HW2  192   3.013   0.614   2.290 -1.2064 -1.9970 -1.7383
   65SOL     OW  193   0.167   1.442   0.635 -0.4888  0.5238  0.2852
   65SOL    HW1  194   0.173   1.524   0.704  0.7406  1.7301 -1.6679
   65SOL    HW2  195   0.228   1.455   0.552 -1.7071  0.4974 -0.2877
   66SOL     OW  196   2.596   0.313   0.515  0.3605 -0.4150  0.4908
   66SOL    HW1  197   2.696   0.281   0.524 -2.0253 -1.7106  2.3581
   66SOL    HW2  198   2.539   0.251   0.573  2.2090  3.8502 -3.0658
   67SOL     OW  199   0.571   2.506   1.523 -0.0360 -0.1606  0.5346
   67SOL    HW1  200   0.667   2.483   1.562 -0.7172  0.7289  0.3872
   67SOL    HW2  201   0.510   2.423   1.523 -0.1533 -0.9386 -2.2082
   68SOL     OW  202   0.910   1.022   2.513 -0.4569 -0.3533  0.5975
   68SOL    HW1  203   0.989   0.961   2.496  0.1871  1.5745  0.5888
   68SOL    HW2  204   0.865   1.054   2.424 -1.1394 -0.2511  1.0775
   69SOL     OW  205   0.748   2.611   2.327 -0.5028  0.2539 -0.8073
   69SOL    HW1  206   0.796   2.545   2.262 -1.1562 -1.2710 -2.7490
   69SOL    HW2  207   0.650   2.588   2.337 -2.2297  3.9404  0.8772
   70SOL     OW  208   0.535   0.169   2.568  0.3514  0.0213 -0.1199
   70SOL    HW1  209   0.451   0.162   2.630  0.7107  0.2693  0.1554
   70SOL    HW2  210   0.586   0.078   2.573  1.1269 -0.2756  0.1079
   71SOL     OW  211   1.072   1.754   0.313 -0.2741  0.5932  0.3721
   71SOL    HW1  212   0.998   1.787   0.378  1.5511 -0.1458  0.8544
   71SOL    HW2  213   1.048   1.765   0.212  1.3223  0.3908  1.1546
   72SOL     OW  214   1.855   0.223   2.152 -0.3821 -0.7128 -0.0886
   72SOL    HW1  215   1.897   0.302   2.093  0.7360 -0.1167 -1.3972
   72SOL    HW2  216   1.913   0.132   2.153  1.8531  0.5805  0.9927
   73SOL     OW  217   2.754   2.200   2.460  0.5691  0.0949 -0.8077
   73SOL    HW1  218   2.746   2.105   2.423 -2.6943  0.1219  0.1788
   73SOL    HW2  219   2.823   2.197   2.538 -3.2185  0.9182  1.1189
   74SOL     OW  220   2.671   2.974   2.140  0.0460  0.4184 -0.2788
   74SOL    HW1  221   2.601   2.945   2.208  3.2451  0.6946 -2.1831
   74SOL    HW2  222   2.765   2.984   2.185 -0.4521 -0.8305 -2.7747
   75SOL     OW  223   0.934   0.800   1.167  0.3833  0.3775 -0.3118
   75SOL    HW1  224   0.841   0.823   1.125 -2.0477  2.8545  1.3327
   75SOL    HW2  225   0.962   0.856   1.250 -1.6956 -0.7731  0.2360
   76SOL     OW  226   1.844   1.265   2.610 -0.2221 -0.1111 -0.6318
   76SOL    HW1  227   1.742   1.245   2.632 -3.0719  0.7140  0.0962
   76SOL    HW2  228   1.865   1.368   2.613  4.4571  1.0768  1.5113
   77SOL     OW  229   2.945   0.900   1.030  0.2253 -0.0387 -0.1006
   77SOL    HW1  230   2.899   0.807   1.043  1.1768 -0.0640 -0.1381
   77SOL    HW2  231   3.029   0.913   1.090  0.4090  1.8657  1.5662
   78SOL     OW  232   1.951   1.454   1.315 -0.3228  0.3391 -0.7317
   78SOL    HW1  233   2.035   1.476   1.256  0.2324  0.9529 -2.3245
   78SOL    HW2  234   1.863   1.473   1.269  0.5683  1.1164  0.2051
   79SOL     OW  235   0.649   1.486   0.842 -0.0360  0.5561  0.1780
   79SOL    HW1  236   0.545   1.458   0.846 -3.6966  2.8823  1.7896
   79SOL    HW2  237   0.712   1.402   0.835 -2.3576 -2.7718 -1.3987
   80SOL     OW  238   0.696   0.474   1.576  0.0796 -0.4073 -0.3148
   80SOL    HW1  239   0.695   0.529   1.486  2.8956 -0.9341 -1.2713
   80SOL    HW2  240   0.675   0.373   1.573  1.5814  2.0981 -1.3982
   81SOL     OW  241   1.055   1.297   2.476  0.0486 -0.0964 -0.6232
   81SOL    HW1  242   0.954   1.266   2.463  0.4373  1.6667  0.2684
   81SOL    HW2  243   1.119   1.247   2.410 -1.3914 -0.9509 -0.3356
   82SOL     OW  244   0.941   2.936   1.633  0.0722 -0.1101  0.6560
   82SOL    HW1  245   0.972   2.845   1.602 -0.8260 -0.1370 -0.2925
   82SOL    HW2  246   1.011   3.007   1.601 -0.3086  1.3475 -0.3669
   83SOL     OW  247   2.621   2.347   0.910  0.1889  0.3759 -0.1516
   83SOL    HW1  248   2.549   2.306   0.853 -0.0898  0.4730 -0.2971
   83SOL    HW2  249   2.640   2.447   0.884  0.8119 -1.5268 -0.7292
   84SOL     OW  250   0.755   3.071   2.328  0.4617 -0.1200  0.5540
   84SOL    HW1  251   0.719   3.044   2.419 -0.5903 -2.7738 -2.2980
   84SOL    HW2  252   0.773   2.991   2.265  2.7141 -0.7204 -2.4062
   85SOL     OW  253   0.278   1.691   1.343 -0.9459  0.1289 -0.0085
   85SOL    HW1  254   0.239   1.763   1.407  2.5426  1.1645 -2.5881
   85SOL    HW2  255   0.348   1.629   1.394 -1.5511 -1.6513 -1.0941
   86SOL     OW  256   0.472   1.062   1.401 -0.1991  0.0519 -0.1788
   86SOL    HW1  257   0.450   1.008   1.316 -0.6484  1.6633  0.9771
   86SOL    HW2  258   0.540   1.025   1.469  0.3304  0.3831  0.5880
   87SOL     OW  259   1.619   0.658   0.357 -0.2705  0.3376  0.0869
   87SOL    HW1  260   1.700   0.724   0.358  0.4577 -1.1515 -2.5456
   87SOL    HW2  261   1.583   0.630   0.264 -1.9414  0.0314  3.5240
   88SOL     OW  262   1.545   1.333   0.268  0.0004  0.1318  0.7752
   88SOL    HW1  263   1.607   1.247   0.266 -2.5730  3.3260  2.0322
   88SOL    HW2  264   1.450   1.318   0.236  1.4881  2.1943 -0.4098
   89SOL     OW  265   3.068   0.353   0.669 -0.4295 -0.3991 -0.7468
   89SOL    HW1  266   3.172   0.348   0.675 -1.2592  2.0375  1.1714
   89SOL    HW2  267   3.018   0.261   0.678 -1.8771 -0.8190  1.1521
   90SOL     OW  268   0.758   1.564   0.119  0.4846  0.1755  0.2988
   90SOL    HW1  269   0.851   1.529   0.090 -1.8002 -0.6448 -1.6071
   90SOL    HW2  270   0.693   1.587   0.042  0.2919  2.5440  0.9010
   91SOL     OW  271   1.280   1.526   1.679 -0.5061  0.5340 -1.0367
   91SOL    HW1  272   1.251   1.575   1.765 -1.6925 -0.9115  1.8646
   91SOL    HW2  273   1.364   1.469   1.695  0.2320 -1.8981  0.6711
   92SOL     OW  274   0.068   0.972   1.159  0.0359 -0.4425 -0.9999
   92SOL    HW1  275   0.086   1.067   1.114  0.9657  2.5969 -1.0141
   92SOL    HW2  276   0.070   0.977   1.267 -0.5428 -1.3883  2.5532
   93SOL     OW  277   3.036   2.659   0.058 -0.0716  0.5914 -0.0023
   93SOL    HW1  278   2.982   2.664  -0.029 -2.8400  0.0147  1.3561
   93SOL    HW2  279   3.098   2.579   0.062 -2.5326 -3.0491 -0.1525
   94SOL     OW  280   1.544   1.401   1.641  0.2588  1.0422 -0.5010
   94SOL    HW1  281   1.579   1.306   1.653  0.0131 -1.0544 -1.4660
   94SOL    HW2  282   1.614   1.468   1.608  1.9412 -0.9213 -0.3193
   95SOL     OW  283   1.387   2.476   2.935  0.5983 -0.1868 -0.0736
   95SOL    HW1  284   1.316   2.498   3.012  0.8090  1.1205  1.3130
   95SOL    HW2  285   1.393   2.377   2.911  1.0674  0.3731 -1.4089
   96SOL     OW  286   0.594   2.166   1.265  0.3144 -0.0184  0.0393
   96SOL    HW1  287   0.529   2.133   1.190 -0.7255 -0.4664  0.3469
   96SOL    HW2  288   0.613   2.100   1.342  0.9051  1.6190 -0.1431
   97SOL     OW  289   0.271   1.608   2.405  0.3901  0.2415  0.3502
   97SOL    HW1  290   0.286   1.698   2.358 -1.7921  3.1344 -2.1306
   97SOL    HW2  291   0.257   1.619   2.507  0.1784 -2.5013  1.4840
   98SOL     OW  292   2.261   1.680   1.214  0.4086 -0.1469  0.5116
   98SOL    HW1  293   2.235   1.581   1.200  4.8158  1.7978  1.0895
   98SOL    HW2  294   2.343   1.700   1.152  0.9876 -1.9024  0.3523
   99SOL     OW  295   2.636   2.079   1.258 -0.4111  0.1585 -0.8913
   99SOL    HW1  296   2.683   2.146   1.328  2.6555  0.3641  1.1162
   99SOL    HW2  297   2.569   2.021   1.308 -2.7975  0.1549 -0.7117
  100SOL     OW  298   2.338   0.384   2.111  0.2445  0.3342  0.1826
  100SOL    HW1  299   2.286   0.363   2.200 -1.0954  0.5012 -1.8800
  100SOL    HW2  300   2.438   0.393   2.123 -2.1339  1.9326  2.7631
  101SOL     OW  301   0.327   1.511   0.401  0.0371 -0.3778 -0.1562
  101SOL    HW1  302   0.350   1.576   0.481 -1.6117 -1.9482 -0.9456
  101SOL    HW2  303   0.400   1.503   0.324 -0.2703  1.1068  0.7330
  102SOL     OW  304   2.291   1.045   0.891  0.1534 -0.1115  0.2431
  102SOL    HW1  305   2.263   0.947   0.881 -0.2121 -0.8143 -0.3858
  102SOL    HW2  306   2.355   1.078   0.810 -1.3822 -1.0274 -1.3890
  103SOL     OW  307   2.257   0.056   0.369 -0.2986 -0.4165 -0.4744
  103SOL    HW1  308   2.298   0.134   0.321 -1.3849  3.3266 -2.3617
  103SOL    HW2  309   2.331  -0.006   0.408  0.1573  2.8078  1.3559
  104SOL     OW  310   0.012   1.814   2.185  0.9094  0.0745  0.0341
  104SOL    HW1  311   0.069   1.815   2.095  1.3654  1.3454 -1.0003
  104SOL    HW2  312  -0.079   1.849   2.163  3.8087  0.6512 -2.7484
  105SOL     OW  313   1.279   2.090   0.788 -0.2985  0.0420  0.2772
  105SOL    HW1  314   1.225   2.142   0.721 -1.5286 -2.5807  0.2329
  105SOL    HW2  315   1.286   1.988   0.770  0.2654 -0.3204  0.0171
  106SOL     OW  316   2.136   0.409   1.442  0.0218 -0.2727  0.2480
  106SOL    HW1  317   2.041   0.381   1.401 -0.1133 -1.8858 -2.6028
  106SOL    HW2  318   2.141   0.390   1.544 -0.2238  1.4044  2.5658
  107SOL     OW  319   1.922   2.912   1.170  0.1783  0.0574  0.4824
  107SOL    HW1  320   1.850   2.977   1.214  1.0867 -1.7639  0.1240
  107SOL    HW2  321   1.866   2.837   1.123 -1.0023  1.0196  0.4891
  108SOL     OW  322   0.894   2.775   1.075  0.8516  0.0137 -0.1746
  108SOL    HW1  323   0.904   2.683   1.026 -1.2771  0.3168  0.9088
  108SOL    HW2  324   0.977   2.795   1.139  1.9302 -4.1744  1.5225
  109SOL     OW  325   2.195   0.124   0.744  0.1460 -0.5454  0.2063
  109SOL    HW1  326   2.127   0.061   0.697  1.1421  0.1562  0.5096
  109SOL    HW2  327   2.156   0.162   0.833 -1.5665 -0.5025 -0.3616
  110SOL     OW  328   0.505   2.835   2.749  0.0798  0.0033  0.8403
  110SOL    HW1  329   0.498   2.827   2.646 -1.2414 -1.5866  1.9723
  110SOL    HW2  330   0.575   2.769   2.789 -2.0175  0.7774 -0.6614
  111SOL     OW  331   1.321   0.624   2.359 -0.3114  0.2328  0.6075
  111SOL    HW1  332   1.226   0.591   2.390  0.7105 -1.1598  0.0446
  111SOL    HW2  333   1.395   0.566   2.399 -1.7259 -0.4548  0.4423
  112SOL     OW  334   1.753   0.535   1.527 -0.0052 -0.0580 -0.5591
  112SOL    HW1  335   1.728   0.581   1.435 -0.3299 -2.4275  0.2896
  112SOL    HW2  336   1.673   0.515   1.583  1.7630  2.7172  4.3941
  113SOL     OW  337   2.265   1.687   1.785  0.4107  0.1141 -0.6298
  113SOL    HW1  338   2.318   1.599   1.753  0.0219 -1.3902  0.8755
  113SOL    HW2  339   2.289   1.710   1.882 -0.6479 -1.6500  0.4081
  114SOL     OW  340   0.298   0.426   1.167  0.3462  0.3268  0.5726
  114SOL    HW1  341   0.201   0.452   1.140  1.0661  0.5646  0.5921
  114SOL    HW2  342   0.366   0.483   1.116  0.9411  3.5584 -0.8509
  115SOL     OW  343   2.692   1.548   1.267  0.5709  0.9672  0.2408
  115SOL    HW1  344   2.679   1.444   1.258 -1.4992  1.6868 -1.7386
  115SOL    HW2  345   2.787   1.574   1.243 -0.0323 -0.4372  2.9029
  116SOL     OW  346   1.892   0.929   0.656 -0.3898 -0.0017 -0.1407
  116SOL    HW1  347   1.801   0.882   0.668  0.6510  1.6552  0.5865
  116SOL    HW2  348   1.898   1.029   0.649  1.2886 -0.8608 -3.3595
  117SOL     OW  349   1.115   0.370   0.556 -0.7556  0.0682 -0.7435
  117SOL    HW1  350   1.142   0.473   0.571  2.6279  0.8867 -0.2642
  117SOL    HW2  351   1.084   0.337   0.462  0.6934  0.1011 -0.8141
  118SOL     OW  352   1.147   1.237   1.105  0.0311 -0.1079  0.5581
  118SOL    HW1  353   1.085   1.215   1.187  1.4212  1.4722  2.5334
  118SOL    HW2  354   1.175   1.334   1.099 -1.5639 -2.9286 -1.5579
  119SOL     OW  355   1.891   1.603   2.211  0.5216 -0.4249  0.8705
  119SOL    HW1  356   1.821   1.678   2.189 -0.1584  1.5968  1.4063
  119SOL    HW2  357   1.958   1.586   2.133 -2.5322  1.5763  0.5327
  120SOL     OW  358   2.972   2.812   0.295  0.3811 -0.1149  0.2810
  120SOL    HW1  359   2.982   2.773   0.199  0.3277  1.0768  0.4891
  120SOL    HW2  360   2.880   2.799   0.341  4.0607  0.3001 -2.0397
  121SOL     OW  361   2.007   0.800   2.324  0.0543 -0.0228  0.0322
  121SOL    HW1  362   2.044   0.885   2.280  2.1078 -0.5480  1.2492
  121SOL    HW2  363   2.017   0.710   2.270  0.0507 -1.2839 -1.5038
  122SOL     OW  364   2.596   2.476   1.391 -0.2791 -0.3945  0.4084
  122SOL    HW1  365   2.653   2.451   1.305  0.3357 -1.1189  2.1298
  122SOL    HW2  366   2.610   2.414   1.470 -1.6845  1.6964  0.6996
  123SOL     OW  367   1.642   0.200   1.641  0.3485 -0.0577 -0.0367
  123SOL    HW1  368   1.651   0.108   1.596 -0.0256  0.4390  2.3853
  123SOL    HW2  369   1.732   0.230   1.685 -0.5258 -1.7153  1.0139
  124SOL     OW  370   3.035   0.396   1.151 -0.1832 -0.0466  0.3090
  124SOL    HW1  371   2.967   0.436   1.219 -0.7124  2.2779 -0.4399
  124SOL    HW2  372   3.021   0.427   1.050 -0.5148 -0.1536  3.0716
  125SOL     OW  373   0.911   1.943   0.729  0.5412 -0.8198 -0.8585
  125SOL    HW1  374   0.998   1.895   0.762 -0.1570  0.2269  0.2684
  125SOL    HW2  375   0.845   1.959   0.805 -0.2421 -1.1323  2.3384
  126SOL     OW  376   1.912   2.290   2.413  0.5318 -0.6330  0.2427
  126SOL    HW1  377   1.987   2.241   2.358 -1.8339  0.1951  0.6700
  126SOL    HW2  378   1.898   2.242   2.504  0.8435 -0.1186  0.3145
  127SOL     OW  379   0.937   0.944   0.178  0.6186 -0.2917  0.3119
  127SOL    HW1  380   0.949   0.981   0.272  2.3861 -1.0527 -0.6328
  127SOL    HW2  381   0.933   0.839   0.180 -1.7514 -0.7868 -0.4924
  128SOL     OW  382   0.896   0.183   1.388 -0.2485  0.0659  0.5361
  128SOL    HW1  383   0.874   0.242   1.306  0.0578  1.1644 -0.8650
  128SOL    HW2  384   0.847   0.093   1.377 -0.1413 -1.7903  2.2686
  129SOL     OW  385   1.894   0.694   1.874  0.2108 -0.1748 -0.0029
  129SOL    HW1  386   1.923   0.676   1.775  3.5161 -0.2178 -2.2990
  129SOL    HW2  387   1.934   0.784   1.907 -0.8477 -2.3761  1.4019
  130SOL     OW  388   1.393   2.183   1.022  0.2830  0.3054 -0.0230
  130SOL    HW1  389   1.346   2.142   0.938  0.0599  2.2071  0.9638
  130SOL    HW2  390   1.461   2.258   0.990  0.2253  0.7384  0.2084
  131SOL     OW  391   3.052   1.386   1.427  0.1118  0.4579 -0.7154
  131SOL    HW1  392   2.998   1.304   1.451 -1.5227 -3.3316  1.0232
  131SOL    HW2  393   3.141   1.358   1.380  0.5685 -2.0470  0.6515
  132SOL     OW  394   2.054   2.439   0.556 -0.6808  0.0677 -0.0532
  132SOL    HW1  395   1.952   2.453   0.556 -0.5226  0.2801 -0.2579
  132SOL    HW2  396   2.073   2.335   0.584 -1.0666 -1.5381  0.4780
  133SOL     OW  397   1.749   2.488   2.709  0.0015 -0.1627  0.2043
  133SOL    HW1  398   1.650   2.485   2.671 -1.8450 -1.3666 -2.8821
  133SOL    HW2  399   1.777   2.576   2.760 -1.8241 -0.8677  2.4417
  134SOL     OW  400   2.586   2.404   1.656 -0.6924  0.0329  0.6373
  134SOL    HW1  401   2.537   2.364   1.741 -1.9143  1.6400 -1.4959
  134SOL    HW2  402   2.656   2.476   1.679 -1.7355 -1.2789  0.2808
  135SOL     OW  403   0.798   1.325   2.672 -0.6481 -0.2340 -0.6997
  135SOL    HW1  404   0.729   1.252   2.700  0.0085 -1.0866 -2.3770
  135SOL    HW2  405   0.803   1.340   2.574  1.2563 -1.3878  3.2176
  136SOL     OW  406   1.206   2.005   0.423  0.0491  0.2177 -0.1819
  136SOL    HW1  407   1.134   2.082   0.446 -1.2536  0.6149 -1.0611
  136SOL    HW2  408   1.160   1.912   0.399 -0.0767 -0.3046  1.4405
  137SOL     OW  409   0.458   1.152   2.271 -0.1534 -0.4158 -0.3174
  137SOL    HW1  410   0.355   1.134   2.267 -1.1498  0.3226  0.6088
  137SOL    HW2  411   0.507   1.073   2.313 -0.5472 -2.0667 -1.7804
  138SOL     OW  412   2.425   1.489   0.281  0.2486  0.2172  0.5458
  138SOL    HW1  413   2.382   1.435   0.204  1.2060 -0.5549  0.2219
  138SOL    HW2  414   2.492   1.422   0.334 -2.6834 -0.7843  0.4837
  139SOL     OW  415   1.914   2.637   1.569  0.2562 -0.5334  0.0553
  139SOL    HW1  416   1.821   2.680   1.544 -1.1759  1.2935 -1.3821
  139SOL    HW2  417   1.942   2.569   1.495  1.8557  0.9688 -0.2677
  140SOL     OW  418   3.043   3.007   2.641 -0.0318  0.5239  0.0027
  140SOL    HW1  419   3.085   2.910   2.618  1.4415 -0.5907 -0.0525
  140SOL    HW2  420   3.089   3.082   2.577  3.1657  0.5764  3.8695
  141SOL     OW  421   1.272   1.638   1.428 -0.1040 -0.3403  0.4377
  141SOL    HW1  422   1.170   1.663   1.407 -1.3670  0.1272 -0.9611
  141SOL    HW2  423   1.291   1.602   1.524  0.6130  0.4170  0.5795
  142SOL     OW  424   1.587   0.642   2.242  0.1432  0.1618 -0.1307
  142SOL    HW1  425   1.597   0.632   2.141  0.1643 -1.1912 -0.4073
  142SOL    HW2  426   1.492   0.665   2.273  0.4554  0.3028 -1.6763
  143SOL     OW  427   2.811   0.790   0.562  0.3820  0.1402 -0.0867
  143SOL    HW1  428   2.869   0.813   0.481 -0.6059  0.7812  1.0945
  143SOL    HW2  429   2.834   0.849   0.648 -0.1009 -1.2231  0.8072
  144SOL     OW  430   2.926   1.105   1.418  0.5538 -0.2333 -0.5316
  144SOL    HW1  431   2.872   1.122   1.508 -0.6059 -1.7894  1.0958
  144SOL    HW2  432   3.016   1.056   1.430 -0.2010 -0.9684 -0.0278
  145SOL     OW  433   0.958   1.822   0.046  0.3692  0.6262 -0.0463
  145SOL    HW1  434   0.991   1.856  -0.049 -0.6020  1.6498 -2.5826
  145SOL    HW2  435   0.882   1.750   0.037 -2.0593  3.5506  0.2864
  146SOL     OW  436   2.485   0.630   1.535 -0.4090 -0.5461  0.3253
  146SOL    HW1  437   2.471   0.531   1.511 -1.3116  2.5644  1.1697
  146SOL    HW2  438   2.415   0.685   1.480 -0.6522  1.8248 -3.1232
  147SOL     OW  439   1.086   2.518   0.541 -0.8775 -0.4061 -0.4315
  147SOL    HW1  440   1.049   2.580   0.464  0.9369  3.4221 -0.4041
  147SOL    HW2  441   1.176   2.470   0.518 -0.6822  1.3550  2.2982
  148SOL     OW  442   1.576   1.403   0.000 -0.1840 -0.2097  0.2989
  148SOL    HW1  443   1.591   1.307  -0.037  1.0126 -1.0993  1.3821
  148SOL    HW2  444   1.553   1.408   0.102  0.6527 -0.5337 -2.0703
  149SOL     OW  445   0.700   1.471   1.993 -0.4424 -0.5544 -0.3271
  149SOL    HW1  446   0.611   1.448   2.045  0.2255 -1.6394 -0.4151
  149SOL    HW2  447   0.698   1.454   1.893  0.4484  1.3636 -0.8996
  150SOL     OW  448   2.952   1.216   1.015 -0.3217  0.4017 -0.4166
  150SOL    HW1  449   3.038   1.246   1.065 -1.3074  3.2954  0.0739
  150SOL    HW2  450   2.918   1.115   1.040  0.5603 -2.3098  4.3279
  151SOL     OW  451   0.153   0.830   2.108 -0.6523 -0.0396  0.4091
  151SOL    HW1  452   0.156   0.927   2.069  0.6343 -0.2900 -0.4308
  151SOL    HW2  453   0.211   0.759   2.059  0.1563  2.1670  0.8742
  152SOL     OW  454   1.437   1.880   1.110 -0.5358 -0.2216 -0.0636
  152SOL    HW1  455   1.466   1.980   1.102 -1.2341 -0.6697  1.8448
  152SOL    HW2  456   1.336   1.880   1.102  0.8733  0.5929  0.8875
  153SOL     OW  457   0.060   1.507   0.261  0.3185  0.0156  0.0134
  153SOL    HW1  458  -0.023   1.451   0.282  0.2249  0.7935 -3.8379
  153SOL    HW2  459   0.103   1.553   0.345 -0.5140  1.8791 -0.9931
  154SOL     OW  460   2.261   1.871   2.784 -0.2938  0.5326  0.4445
  154SOL    HW1  461   2.275   1.771   2.793 -0.6576 -0.5353 -3.2074
  154SOL    HW2  462   2.343   1.914   2.731  1.4667 -0.3883 -0.9752
  155SOL     OW  463   2.627   1.331   0.358  0.2394  0.9597 -0.4021
  155SOL    HW1  464   2.663   1.402   0.425 -1.7414  0.5131  2.3156
  155SOL    HW2  465   2.704   1.292   0.299 -0.6644 -0.2543  1.2677
  156SOL     OW  466   2.510   0.815   0.773  0.3982  0.0898 -0.5109
  156SOL    HW1  467   2.412   0.809   0.804  1.8215 -0.8740 -0.6791
  156SOL    HW2  468   2.527   0.848   0.681  0.0621  1.4604  0.0804
  157SOL     OW  469   1.222   3.092   3.019  0.2105  0.5490 -0.0285
  157SOL    HW1  470   1.296   3.059   2.957 -1.8158 -0.4621  1.3413
  157SOL    HW2  471   1.247   3.187   3.054 -1.0565 -1.1557  0.3208
  158SOL     OW  472   1.074   1.860   1.861 -0.3010 -1.0842 -0.2889
  158SOL    HW1  473   1.108   1.953   1.830  0.6714 -2.7143  3.7290
  158SOL    HW2  474   0.981   1.870   1.919 -2.6233  0.5542 -0.0612
  159SOL     OW  475   0.803   0.376   1.216  0.2158 -0.4481 -0.6458
  159SOL    HW1  476   0.744   0.449   1.255  0.6155  1.2981 -1.8672
  159SOL    HW2  477   0.761   0.350   1.123 -1.4075 -1.3415 -1.1736
  160SOL     OW  478   1.374   2.471   1.437  0.1137 -0.1462  0.3182
  160SOL    HW1  479   1.317   2.394   1.476 -1.5199  1.2131 -0.3001
  160SOL    HW2  480   1.476   2.453   1.439 -1.2125  0.7131  3.0866
  161SOL     OW  481   0.057   2.659   0.406 -0.1881  0.3984 -0.2644
  161SOL    HW1  482   0.024   2.563   0.395 -0.2844 -0.6802 -1.6650
  161SOL    HW2  483  -0.002   2.729   0.363 -1.3088  0.8071  0.7946
  162SOL     OW  484   2.539   1.934   0.461  1.0229  0.1006  0.4165
  162SOL    HW1  485   2.605   1.944   0.377  0.1382 -0.7367 -0.9291
  162SOL    HW2  486   2.497   1.832   0.457 -1.0945 -1.1592  0.8040
  163SOL     OW  487   1.922   2.701   0.812 -0.4681 -0.4748  0.3961
  163SOL    HW1  488   1.887   2.692   0.716 -2.1820 -0.3164  2.1394
  163SOL    HW2  489   2.010   2.646   0.822 -2.1979  0.6727 -3.6486
  164SOL     OW  490   3.043   0.151   1.245 -0.0950  0.0306  0.0748
  164SOL    HW1  491   3.034   0.252   1.209 -2.1937 -0.5576  0.7143
  164SOL    HW2  492   3.110   0.155   1.325  0.7740  1.0316 -0.6051
  165SOL     OW  493   1.110   1.403   0.657  0.0529 -0.5020 -0.1982
  165SOL    HW1  494   1.083   1.469   0.731 -4.4374 -0.7920 -1.5332
  165SOL    HW2  495   1.041   1.412   0.578 -0.1261  0.6922 -1.5148
  166SOL     OW  496   1.556   0.935   1.822 -0.0600 -0.5247 -0.1999
  166SOL    HW1  497   1.471   0.989   1.834  0.4679 -1.5865  0.5425
  166SOL    HW2  498   1.633   0.993   1.785 -0.1681 -2.9575  0.7564
  167SOL     OW  499   0.676   2.023   1.514  0.2140 -0.0544 -0.1137
  167SOL    HW1  500   0.689   2.099   1.584 -3.1101 -0.6791  0.1878
  167SOL    HW2  501   0.633   1.935   1.551  0.3947 -0.8959 -0.3030
  168SOL     OW  502   1.666   2.303   0.132  0.5951  0.0486  0.2361
  168SOL    HW1  503   1.734   2.311   0.054 -0.0547  0.2888  1.5143
  168SOL    HW2  504   1.703   2.282   0.223 -0.5944  1.9755 -1.1870
  169SOL     OW  505   3.048   2.595   2.153 -0.0116 -0.2719 -0.1622
  169SOL    HW1  506   3.050   2.510   2.096  0.8065  0.7816  1.6574
  169SOL    HW2  507   3.078   2.570   2.252 -2.2297  0.0211  0.2469
  170SOL     OW  508   1.173   0.143   2.103 -0.4591 -0.1162  0.2262
  170SOL    HW1  509   1.258   0.167   2.162  0.0069  1.1016 -0.0689
  170SOL    HW2  510   1.188   0.167   2.003 -0.0115  2.9831 -0.3214
  171SOL     OW  511   0.187   0.867   2.440 -0.3991  0.2796 -0.1815
  171SOL    HW1  512   0.092   0.866   2.480 -1.8188  2.2315 -1.5349
  171SOL    HW2  513   0.201   0.940   2.365 -2.2865 -1.0906  0.3875
  172SOL     OW  514   0.992   0.990   2.780  0.3162  0.3816  0.2649
  172SOL    HW1  515   0.942   1.058   2.840 -1.6374  1.0696 -0.8971
  172SOL    HW2  516   0.958   1.002   2.679 -1.0909 -0.5973 -0.7042
  173SOL     OW  517   0.363   2.552   3.045 -0.5535  0.0960  0.0026
  173SOL    HW1  518   0.341   2.513   2.950 -0.3372  0.0008 -0.9938
  173SOL    HW2  519   0.410   2.489   3.115  1.5762 -2.1024  0.2013
  174SOL     OW  520   1.458   2.851   0.988  0.0433  0.1352 -0.4976
  174SOL    HW1  521   1.548   2.888   0.957 -0.0881 -1.3061  0.4541
  174SOL    HW2  522   1.440   2.751   0.967 -0.5066  0.4160  1.2418
  175SOL     OW  523   0.457   3.076   1.711 -0.3871  0.5776 -0.2520
  175SOL    HW1  524   0.525   3.074   1.792 -0.3873 -0.0091 -2.1144
  175SOL    HW2  525   0.447   3.172   1.670 -1.3815 -1.7019 -2.3508
  176SOL     OW  526   2.526   0.489   0.047  0.1194 -0.2809  0.8451
  176SOL    HW1  527   2.572   0.572   0.084  1.0235 -0.6544 -1.4068
  176SOL    HW2  528   2.496   0.428   0.121 -2.8258  2.0503 -0.6868
  177SOL     OW  529   0.354   0.133   0.804 -0.8121 -0.7027 -0.0458
  177SOL    HW1  530   0.337   0.048   0.862 -1.8789 -3.3594  2.7538
  177SOL    HW2  531   0.444   0.183   0.827  0.7696  1.4856 -1.3989
  178SOL     OW  532   0.026   2.714   2.641 -0.7918 -0.1467 -0.5359
  178SOL    HW1  533  -0.002   2.611   2.647 -0.0791 -0.7429 -0.4941
  178SOL    HW2  534   0.115   2.740   2.686 -2.6805  0.2268  0.4752
  179SOL     OW  535   2.967   1.600   1.238  0.1047 -0.5632  0.1437
  179SOL    HW1  536   3.056   1.626   1.192 -0.2203 -0.4594 -0.7916
  179SOL    HW2  537   2.976   1.532   1.313 -1.2992  1.4392 -0.0686
  180SOL     OW  538   0.277   1.392   1.748  0.3410 -0.8053 -0.4467
  180SOL    HW1  539   0.349   1.354   1.813 -0.9453 -0.2688 -0.4798
  180SOL    HW2  540   0.232   1.476   1.795  1.5956  2.6031  1.5459
  181SOL     OW  541   3.000   1.753   2.487  0.1396  0.0860 -0.5771
  181SOL    HW1  542   3.011   1.758   2.383 -2.4458 -1.4030 -1.2373
  181SOL    HW2  543   2.908   1.789   2.509  2.7872  2.4503  1.7320
  182SOL     OW  544   2.197   1.406   1.176  0.2509 -0.0878  0.6024
  182SOL    HW1  545   2.199   1.329   1.250  1.4820 -1.0507 -0.2696
  182SOL    HW2  546   2.250   1.376   1.094 -0.5022 -0.2645  1.8602
  183SOL     OW  547   1.409   2.225   2.445 -0.6490 -0.2823  0.0873
  183SOL    HW1  548   1.325   2.165   2.470 -1.5292  1.4023 -0.7290
  183SOL    HW2  549   1.485   2.167   2.404 -1.3220  1.0072  1.9806
  184SOL     OW  550   2.228   0.782   0.822  0.4881  0.3646  0.2203
  184SOL    HW1  551   2.136   0.824   0.794 -0.5752 -0.2594 -0.4123
  184SOL    HW2  552   2.238   0.676   0.800 -1.2852 -2.3385 -0.8216
  185SOL     OW  553   1.578   2.734   2.015  0.2048  0.2973  0.3788
  185SOL    HW1  554   1.519   2.821   2.013 -0.7562  0.0745 -1.4937
  185SOL    HW2  555   1.610   2.711   2.112  0.3663 -0.6927  1.7748
  186SOL     OW  556   0.020   2.151   1.801 -0.5094 -0.0689  0.0577
  186SOL    HW1  557   0.012   2.193   1.896  1.2951 -2.8416  3.2893
  186SOL    HW2  558   0.104   2.092   1.780 -0.4294 -0.0627  1.1536
  187SOL     OW  559   1.321   0.672   1.654 -0.2813  0.0145  0.4547
  187SOL    HW1  560   1.422   0.695   1.639 -1.6396 -0.4786 -1.6628
  187SOL    HW2  561   1.305   0.615   1.734 -0.6244 -1.1092 -1.1859
  188SOL     OW  562   2.695   2.669   1.571  0.2446 -0.2887 -0.3485
  188SOL    HW1  563   2.685   2.773   1.583 -2.0468 -0.2586  2.2462
  188SOL    HW2  564   2.656   2.639   1.484 -0.7740  2.6095  1.1645
  189SOL     OW  565   0.864   1.176   1.399  0.3734 -0.9335  0.3681
  189SOL    HW1  566   0.901   1.254   1.459 -0.8777 -0.6083  0.1850
  189SOL    HW2  567   0.834   1.200   1.302 -0.3346 -1.6907  0.4437
  190SOL     OW  568   1.429   1.837   1.515 -0.4508 -0.0772  0.0475
  190SOL    HW1  569   1.356   1.775   1.481 -0.9104 -0.0954  2.8170
  190SOL    HW2  570   1.425   1.846   1.619 -1.2441 -1.3360 -0.1188
  191SOL     OW  571   0.877   0.761   1.502 -0.1347 -0.1619 -0.1326
  191SOL    HW1  572   0.913   0.699   1.571 -0.2204  0.8624 -2.4182
  191SOL    HW2  573   0.947   0.820   1.450  2.2148 -3.1082  0.5015
  192SOL     OW  574   1.839   2.436   1.125 -0.2608 -0.2951  0.0303
  192SOL    HW1  575   1.743   2.413   1.113  1.0754  0.8497  3.1860
  192SOL    HW2  576   1.905   2.416   1.048  3.7026  0.0541  0.3998
  193SOL     OW  577   0.494   0.499   0.388 -0.0226 -0.0294  0.1459
  193SOL    HW1  578   0.415   0.437   0.387  2.1934 -0.5319 -1.0544
  193SOL    HW2  579   0.544   0.504   0.297  0.1613 -2.2107  2.5800
  194SOL     OW  580   0.407   0.763   1.220 -0.0208 -0.7741 -0.3669
  194SOL    HW1  581   0.307   0.767   1.251 -2.8837 -1.2923 -0.1130
  194SOL    HW2  582   0.425   0.698   1.141 -0.0797 -0.1261 -0.0282
  195SOL     OW  583   1.034   2.909   0.515 -0.3197  0.5582 -0.0261
  195SOL    HW1  584   1.020   2.825   0.457 -0.7169  2.2123 -0.3306
  195SOL    HW2  585   1.127   2.951   0.497  0.2371 -1.3285  2.2163
  196SOL     OW  586   0.212   1.360   1.349 -0.1501 -0.0280  0.3768
  196SOL    HW1  587   0.268   1.429   1.405 -1.6691  0.3419  1.9420
  196SOL    HW2  588   0.218   1.266   1.398 -0.6329 -1.0492  0.5821
  197SOL     OW  589   0.779   1.978   0.237  0.3602  0.1247  0.1700
  197SOL    HW1  590   0.791   1.927   0.325 -0.4163  0.1035 -1.5252
  197SOL    HW2  591   0.834   1.942   0.159  0.4124 -1.4276 -0.7286
  198SOL     OW  592   0.291   1.217   0.310  0.3859  0.1310 -0.5149
  198SOL    HW1  593   0.190   1.208   0.297  1.4693 -2.6573  1.7040
  198SOL    HW2  594   0.317   1.304   0.356 -2.0440 -0.2346  0.6355
  199SOL     OW  595   2.265   0.405   2.646  0.2293  0.0020  0.2764
  199SOL    HW1  596   2.189   0.365   2.706  0.8701 -0.3751 -2.1757
  199SOL    HW2  597   2.360   0.369   2.671 -2.1389  1.0475 -1.4422
  200SOL     OW  598   3.074   2.887   0.767 -0.4177  0.1639 -0.6825
  200SOL    HW1  599   3.106   2.982   0.799 -0.2268  0.5755 -0.2000
  200SOL    HW2  600   3.008   2.893   0.688  2.0721 -0.5351 -1.1002
  201SOL     OW  601   0.944   0.663   0.514  0.3970  0.0470 -0.1523
  201SOL    HW1  602   0.939   0.744   0.575  0.4868 -2.4082 -0.9939
  201SOL    HW2  603   0.869   0.598   0.542 -0.6473 -2.3021 -2.2442
  202SOL     OW  604   0.458   1.276   1.905 -0.0868  0.7189 -0.0651
  202SOL    HW1  605   0.542   1.227   1.868 -0.6907  1.0263  1.6671
  202SOL    HW2  606   0.477   1.321   1.997 -0.3083 -0.9779  0.8651
  203SOL     OW  607   0.639   0.171   1.568 -0.2139  0.1727  0.5005
  203SOL    HW1  608   0.659   0.102   1.492 -1.0898  1.4952  1.3328
  203SOL    HW2  609   0.693   0.150   1.651 -0.7405  0.6814 -1.0125
  204SOL     OW  610   2.072   1.850   2.982  0.0378 -0.2112  0.0921
  204SOL    HW1  611   2.041   1.750   3.002 -1.4804 -1.0384  0.4985
  204SOL    HW2  612   2.157   1.862   2.917  0.6144  0.0348 -0.7001
  205SOL     OW  613   1.804   1.887   3.008 -0.4919  0.1274 -0.1368
  205SOL    HW1  614   1.904   1.898   2.990 -1.1847  1.8042 -1.0266
  205SOL    HW2  615   1.752   1.974   2.985 -1.7828  0.8602  0.2598
  206SOL     OW  616   2.369   2.728   0.305  0.7242 -0.3319  0.1239
  206SOL    HW1  617   2.318   2.675   0.377  0.9258 -0.0317 -1.1589
  206SOL    HW2  618   2.443   2.680   0.250 -0.0311  2.9654  0.1124
  207SOL     OW  619   0.718   1.725   2.907  0.2086  0.4130  0.0028
  207SOL    HW1  620   0.778   1.661   2.850 -2.1716 -0.8097 -1.1424
  207SOL    HW2  621   0.631   1.685   2.944  2.9627  0.4845  0.7594
  208SOL     OW  622   1.029   1.578   1.220  0.0381  0.3362 -0.3211
  208SOL    HW1  623   0.957   1.618   1.159  3.1149 -0.6856  0.2293
  208SOL    HW2  624   0.984   1.538   1.306 -0.0794  1.1216  0.2714
  209SOL     OW  625   0.235   1.018   3.063  0.1322 -0.3579  0.0972
  209SOL    HW1  626   0.244   0.950   2.985 -0.0118 -0.9343 -2.1318
  209SOL    HW2  627   0.228   0.966   3.156  3.3903  3.9934  2.0190
  210SOL     OW  628   1.731   0.626   1.257  0.3822  0.4277 -0.3380
  210SOL    HW1  629   1.671   0.690   1.201  1.6616  2.3336 -1.8665
  210SOL    HW2  630   1.830   0.629   1.231 -0.7362 -1.8506  1.9464
  211SOL     OW  631   2.115   1.130   1.577 -0.2260 -0.2652  0.7137
  211SOL    HW1  632   2.173   1.076   1.643 -0.4216  2.1103 -0.3414
  211SOL    HW2  633   2.186   1.200   1.531  0.8238  1.4348 -0.3484
  212SOL     OW  634   0.088   0.977   1.431 -0.6563 -0.2341 -0.2653
  212SOL    HW1  635   0.142   1.044   1.494  0.4223 -1.2427  1.5631
  212SOL    HW2  636   0.076   0.884   1.473  2.1932 -1.0004 -1.3791
  213SOL     OW  637   2.831   0.054   0.325  0.5015  0.1804 -0.6230
  213SOL    HW1  638   2.928   0.030   0.312  0.8283 -1.3216  3.3702
  213SOL    HW2  639   2.762   0.004   0.266 -0.4105  0.6288  3.1223
  214SOL     OW  640   2.212   0.356   2.363  0.0461 -0.1207 -0.2272
  214SOL    HW1  641   2.267   0.374   2.451 -0.4553  1.1535  1.5544
  214SOL    HW2  642   2.154   0.269   2.359  1.4342  2.1806 -0.7831
  215SOL     OW  643   1.693   2.279   2.074 -0.1104 -0.3666 -0.0011
  215SOL    HW1  644   1.784   2.322   2.081  0.7230 -1.9299  1.6909
  215SOL    HW2  645   1.618   2.349   2.078 -0.2762  1.4278 -1.6232
  216SOL     OW  646   2.300   0.527   0.767 -0.2741  0.1143  0.4613
  216SOL    HW1  647   2.260   0.474   0.680  0.6136 -0.4886 -2.9723
  216SOL    HW2  648   2.382   0.483   0.806  1.0875 -0.0131 -1.3898
  217SOL     OW  649   0.907   2.697   2.580 -0.6793 -0.4440 -0.3731
  217SOL    HW1  650   0.921   2.649   2.675  0.6258 -0.1596 -2.5995
  217SOL    HW2  651   0.846   2.651   2.519  0.1858  0.5116  1.1618
  218SOL     OW  652   1.854   1.412   0.022 -0.5674 -0.7204 -0.2150
  218SOL    HW1  653   1.752   1.411   0.002  1.9565 -1.4150 -0.6976
  218SOL    HW2  654   1.880   1.322   0.068 -2.4239  0.3600  1.6819
  219SOL     OW  655   2.417   1.249   2.513  0.1376 -0.5024  0.3620
  219SOL    HW1  656   2.481   1.202   2.444 -0.4468  1.2240 -1.7666
  219SOL    HW2  657   2.416   1.192   2.599  2.1376 -0.0413 -1.8313
  220SOL     OW  658   1.449   1.059   1.386 -0.4074  0.6362  0.7100
  220SOL    HW1  659   1.546   1.022   1.410  1.7437  1.1077  1.1263
  220SOL    HW2  660   1.434   1.070   1.282 -2.2452 -0.6565 -0.4841
  221SOL     OW  661   1.296   0.965   2.152 -0.5568  0.5486 -0.7040
  221SOL    HW1  662   1.303   1.007   2.060 -0.1031 -1.2508  2.2989
  221SOL    HW2  663   1.374   0.999   2.216 -0.4193  0.8860  0.9121
  222SOL     OW  664   1.162   0.054   1.198  0.0157  0.1652 -0.1242
  222SOL    HW1  665   1.159   0.084   1.299 -0.7951 -0.9354 -0.5438
  222SOL    HW2  666   1.169   0.134   1.130  1.5286  1.8242  1.4469
  223SOL     OW  667   2.725   0.971   2.126  0.3608 -0.1994  0.5588
  223SOL    HW1  668   2.674   1.024   2.199  1.1096 -0.4194  0.7560
  223SOL    HW2  669   2.825   0.949   2.153 -0.1861 -0.7796  0.1548
  224SOL     OW  670   1.495   0.986   2.827  0.2597 -0.2588 -0.5848
  224SOL    HW1  671   1.547   0.938   2.755 -1.5714  3.7353  0.1186
  224SOL    HW2  672   1.500   1.092   2.823  1.8165  1.1674  1.1944
  225SOL     OW  673   2.956   2.684   2.876  0.2774 -0.2388 -0.4948
  225SOL    HW1  674   2.897   2.669   2.796  0.8303  0.7591  0.7373
  225SOL    HW2  675   3.052   2.713   2.842 -0.3285  2.3642  0.2195
  226SOL     OW  676   2.411   1.638   2.812 -0.0331 -0.3644  0.7914
  226SOL    HW1  677   2.474   1.609   2.734 -2.1072 -0.3069  2.3351
  226SOL    HW2  678   2.414   1.578   2.896  0.2228  0.5171 -0.5293
  227SOL     OW  679   0.927   0.280   3.002 -0.5509  0.0631 -0.3023
  227SOL    HW1  680   0.923   0.384   3.020  2.4616 -1.0605  0.5788
  227SOL    HW2  681   0.881   0.250   2.912  0.8295 -2.8563  0.1512
  228SOL     OW  682   2.425   0.664   2.905 -0.6975  0.3847  0.0163
  228SOL    HW1  683   2.470   0.733   2.839  1.0175  1.0699 -1.4202
  228SOL    HW2  684   2.492   0.592   2.932  0.2205 -2.1320  0.4781
  229SOL     OW  685   0.715   0.670   1.815  0.7697  0.4268 -0.4725
  229SOL    HW1  686   0.803   0.675   1.875  1.4085  1.9270  0.0448
  229SOL    HW2  687   0.711   0.606   1.736 -0.7464 -0.6155  0.9963
  230SOL     OW  688   1.883   1.224   1.915  0.2042 -0.3770  0.3397
  230SOL    HW1  689   1.974   1.268   1.891  0.9571  0.7564 -0.7093
  230SOL    HW2  690   1.828   1.272   1.988  2.1038 -1.2417 -2.4657
  231SOL     OW  691   0.682   1.040   0.014 -0.1059 -0.4796  0.0876
  231SOL    HW1  692   0.768   1.094  -0.019 -0.9471  0.3340  4.5208
  231SOL    HW2  693   0.601   1.099   0.049 -2.4712  1.5408  1.8254
  232SOL     OW  694   2.415   2.963   2.776 -0.0118  0.2828 -0.5754
  232SOL    HW1  695   2.479   2.883   2.788 -0.3132  0.6788  1.9614
  232SOL    HW2  696   2.449   3.040   2.717 -0.1395  0.5605 -1.9090
  233SOL     OW  697   1.795   1.121   1.182  0.3512 -0.1322  0.3846
  233SOL    HW1  698   1.819   1.200   1.118 -1.2120 -0.8896 -1.2675
  233SOL    HW2  699   1.869   1.048   1.189  0.4162 -0.3878  1.1012
  234SOL     OW  700   1.647   2.522   1.834 -0.1079 -0.1552  0.2142
  234SOL    HW1  701   1.609   2.574   1.916 -1.1813  0.3374  0.0635
  234SOL    HW2  702   1.588   2.437   1.793  0.7126 -2.3805  0.5234
  235SOL     OW  703   0.071   3.011   2.885  0.5824  0.3414  0.5538
  235SOL    HW1  704   0.005   3.032   2.807  0.5297  3.1393  1.0543
  235SOL    HW2  705   0.042   3.064   2.970 -2.1102 -1.5793  1.0094
  236SOL     OW  706   2.902   0.752   0.061 -0.6134  0.4986 -0.2938
  236SOL    HW1  707   2.955   0.777   0.145 -0.9540  2.5343  0.5865
  236SOL    HW2  708   2.926   0.660   0.026 -0.5299  0.2467 -0.1267
  237SOL     OW  709   1.533   1.694   0.917 -0.5084  0.0135  0.0374
  237SOL    HW1  710   1.626   1.649   0.929  4.4643  2.1576 -1.9200
  237SOL    HW2  711   1.488   1.736   1.003  0.3774 -1.2148 -2.0670
  238SOL     OW  712   1.925   1.196   0.730  0.1435  0.0795 -0.0704
  238SOL    HW1  713   1.950   1.202   0.830  0.3414 -0.1364 -1.0786
  238SOL    HW2  714   1.829   1.240   0.712 -3.8789  0.4145  0.1526
  239SOL     OW  715   2.049   0.333   2.834  0.5714  0.2035  0.2023
  239SOL    HW1  716   2.097   0.339   2.923 -2.2596  2.5622 -2.4948
  239SOL    HW2  717   1.948   0.363   2.834  0.3097  1.0798 -1.2359
  240SOL     OW  718   0.920   0.681   0.230 -0.7302 -0.2525 -0.6321
  240SOL    HW1  719   0.995   0.626   0.188 -1.0526  0.5449 -1.8598
  240SOL    HW2  720   0.911   0.676   0.333 -1.7338  2.6509  0.0350
  241SOL     OW  721   0.541   0.159   0.303 -0.1793  0.3927 -0.0979
  241SOL    HW1  722   0.624   0.216   0.287  0.5157 -0.1833  1.3775
  241SOL    HW2  723   0.549   0.063   0.258 -0.1938 -1.5621 -1.1569
  242SOL     OW  724   0.609   2.605   1.265  0.1845  0.7292  0.3367
  242SOL    HW1  725   0.585   2.595   1.370 -1.5361 -1.5568  1.4376
  242SOL    HW2  726   0.651   2.697   1.246 -2.7256 -0.9221  0.9691
  243SOL     OW  727   1.049   0.594   2.393 -0.1821 -0.1338  0.2853
  243SOL    HW1  728   0.955   0.601   2.355  0.7791 -0.3171  0.1121
  243SOL    HW2  729   1.053   0.539   2.478 -1.3187  0.3008 -2.9025
  244SOL     OW  730   2.784   1.934   2.405  0.5286 -0.7281 -0.1251
  244SOL    HW1  731   2.816   1.916   2.309  1.4633  0.9375 -0.5171
  244SOL    HW2  732   2.706   1.877   2.432  1.0967  0.9374 -1.0801
  245SOL     OW  733   2.102   1.021   2.229  0.1607 -0.0211 -0.2478
  245SOL    HW1  734   2.194   1.010   2.276 -0.6347  0.0258  1.1650
  245SOL    HW2  735   2.059   1.115   2.239  0.6996  2.8160 -1.3546
  246SOL     OW  736   0.257   2.917   1.819 -0.1713  0.2508  0.1959
  246SOL    HW1  737   0.207   2.890   1.732 -1.7156  1.2309  1.4441
  246SOL    HW2  738   0.334   2.981   1.798 -0.9523  4.7101  0.0215
  247SOL     OW  739   2.218   0.585   3.076 -0.4823 -0.1087  0.2963
  247SOL    HW1  740   2.298   0.617   3.017 -0.9324  0.4629 -0.4274
  247SOL    HW2  741   2.134   0.652   3.075 -3.0100  0.7091 -0.2147
  248SOL     OW  742   2.157   1.888   1.626  0.2356 -0.1737 -0.0589
  248SOL    HW1  743   2.195   1.810   1.676  0.7766  1.0803  0.8491
  248SOL    HW2  744   2.066   1.917   1.669  0.4423  2.7110  2.4274
  249SOL     OW  745   1.884   1.884   1.875 -0.4351 -0.7067 -0.3308
  249SOL    HW1  746   1.884   1.815   1.799  0.3226 -2.4163  2.0721
  249SOL    HW2  747   1.979   1.902   1.914  0.4628 -0.4004  0.0850
  250SOL     OW  748   1.038   0.696   1.854  0.3348  0.1410  0.2836
  250SOL    HW1  749   1.097   0.665   1.939 -0.7265 -1.5752  3.5658
  250SOL    HW2  750   1.036   0.632   1.770  1.0875 -1.2999 -0.7451
  251SOL     OW  751   3.052   1.490   2.604 -0.2947 -0.5423 -0.5879
  251SOL    HW1  752   3.029   1.577   2.554 -0.4590 -1.6188  2.6121
  251SOL    HW2  753   2.977   1.419   2.599 -0.5600  0.9077 -1.9776
  252SOL     OW  754   1.551   0.789   1.582  0.2848 -0.4572 -0.1459
  252SOL    HW1  755   1.605   0.847   1.516  2.5835 -2.7598 -0.6568
  252SOL    HW2  756   1.549   0.833   1.677 -0.5913 -1.9002 -0.1266
  253SOL     OW  757   0.949   1.470   0.439  0.5870 -0.1675 -0.4345
  253SOL    HW1  758   0.983   1.472   0.340  0.5026  0.4071 -0.4596
  253SOL    HW2  759   0.865   1.535   0.455  0.2824 -1.5607  1.0329
  254SOL     OW  760   2.013   2.199   1.659 -0.0700  0.4673  0.4642
  254SOL    HW1  761   1.954   2.135   1.597  0.4666 -0.4886  1.1022
  254SOL    HW2  762   1.959   2.256   1.728 -0.0092  1.6996 -2.3609
  255SOL     OW  763   0.068   1.215   2.954 -0.1581 -0.0392  0.0846
  255SOL    HW1  764   0.118   1.298   2.923 -1.4284  1.9793  0.2169
  255SOL    HW2  765   0.131   1.153   3.007 -1.0838  2.3922 -2.8011
  256SOL     OW  766   2.763   1.429   1.797  0.2502  0.3746  0.4292
  256SOL    HW1  767   2.711   1.471   1.874  3.1491 -1.5564  2.6468
  256SOL    HW2  768   2.713   1.338   1.760 -3.1452 -0.5117 -1.4229
  257SOL     OW  769   0.813   0.198   1.862 -0.0317 -0.6439  0.2869
  257SOL    HW1  770   0.856   0.217   1.773 -1.0659 -1.6739  0.6216
  257SOL    HW2  771   0.855   0.116   1.919 -0.9432  2.3066  0.5729
  258SOL     OW  772   2.960   1.183   0.518  0.1180 -0.3753 -0.3446
  258SOL    HW1  773   2.860   1.198   0.542  1.2269 -0.8746  1.0663
  258SOL    HW2  774   3.021   1.197   0.605 -2.8250 -1.4142 -0.6836
  259SOL     OW  775   0.444   2.949   3.030 -0.4109  0.4828  0.1842
  259SOL    HW1  776   0.363   2.901   3.074  1.0508  1.4941  0.4871
  259SOL    HW2  777   0.469   2.900   2.939  1.0767 -1.2104 -2.7984
  260SOL     OW  778   2.709   0.702   2.783 -0.5483 -0.7022  0.0024
  260SOL    HW1  779   2.621   0.711   2.734  1.8754 -0.2315 -0.6434
  260SOL    HW2  780   2.711   0.614   2.838  1.6009 -0.5276 -0.6618
  261SOL     OW  781   2.673   1.271   1.301  0.4601 -0.3148 -0.1645
  261SOL    HW1  782   2.591   1.224   1.257  1.4792  0.3041 -0.3119
  261SOL    HW2  783   2.761   1.220   1.292 -2.1625 -1.3249  1.5480
  262SOL     OW  784   1.417   2.946   2.011  0.5294  0.4080 -0.3507
  262SOL    HW1  785   1.435   3.030   1.951  1.0409 -3.0496 -3.0684
  262SOL    HW2  786   1.320   2.906   2.001 -1.5097  0.2957 -0.5487
  263SOL     OW  787   0.797   0.669   2.281 -0.1596  0.0525 -0.7217
  263SOL    HW1  788   0.730   0.593   2.259 -0.2283  1.2163  0.9670
  263SOL    HW2  789   0.826   0.725   2.190  0.3481 -1.7333 -0.3193
  264SOL     OW  790   2.271   0.814   0.440  0.2804  0.3526  0.3484
  264SOL    HW1  791   2.297   0.723   0.399 -0.2228 -0.4849  0.6640
  264SOL    HW2  792   2.350   0.855   0.489 -0.4723  2.1159  0.5710
  265SOL     OW  793   0.860   2.315   2.633 -0.1930 -0.8314 -0.2136
  265SOL    HW1  794   0.869   2.313   2.739 -1.5944  3.7398  1.3318
  265SOL    HW2  795   0.789   2.256   2.594  1.0541  0.8619  2.5210
  266SOL     OW  796   1.272   1.809   3.043  0.2831  0.1579  0.6107
  266SOL    HW1  797   1.274   1.859   3.136  1.6717  0.7142 -2.0027
  266SOL    HW2  798   1.370   1.792   3.004 -0.2621 -0.0440  0.4209
  267SOL     OW  799   1.056   3.041   2.293  0.5597 -0.6208 -0.1055
  267SOL    HW1  800   0.998   2.955   2.267  1.6981 -0.9519 -3.5799
  267SOL    HW2  801   1.098   3.097   2.208 -1.3941  0.1532 -1.3940
  268SOL     OW  802   0.825   1.306   1.159 -0.9665 -0.2786  0.7717
  268SOL    HW1  803   0.767   1.387   1.190 -1.1586  0.1324 -1.0411
  268SOL    HW2  804   0.888   1.328   1.075  1.7219  0.0269 -0.4497
  269SOL     OW  805   2.329   2.525   1.602  0.0487 -0.3707  0.6626
  269SOL    HW1  806   2.432   2.512   1.611 -2.3585  0.9943  0.9235
  269SOL    HW2  807   2.277   2.537   1.690 -0.8011 -1.5331 -3.3808
  270SOL     OW  808   0.123   3.046   2.014 -0.1616 -0.0544 -0.6070
  270SOL    HW1  809   0.160   2.981   1.937 -2.0867  0.2913 -0.2847
  270SOL    HW2  810   0.081   2.987   2.085 -0.4951  0.7341  0.4509
  271SOL     OW  811   0.395   1.421   1.106 -0.3652 -0.1307  0.1891
  271SOL    HW1  812   0.370   1.389   1.010  1.7519 -0.5562 -0.0315
  271SOL    HW2  813   0.338   1.377   1.181 -0.5236 -2.1063  2.7160
  272SOL     OW  814   1.867   0.029   1.894  0.0227 -0.0873 -0.1904
  272SOL    HW1  815   1.817  -0.059   1.867 -0.3825 -2.0807  2.9416
  272SOL    HW2  816   1.855   0.110   1.830 -0.2422  0.9802  0.2221
  273SOL     OW  817   1.435   1.450   2.854  0.0748  0.7149 -0.5172
  273SOL    HW1  818   1.333   1.448   2.853  0.0040 -0.8665 -1.2287
  273SOL    HW2  819   1.469   1.429   2.951 -1.2253  1.3141  1.1345
  274SOL     OW  820   1.184   0.580   2.080 -0.4208 -0.9297  0.5179
  274SOL    HW1  821   1.113   0.510   2.107  0.0535  3.0188 -0.9876
  274SOL    HW2  822   1.230   0.620   2.163  1.2338 -0.7156 -0.8517
  275SOL     OW  823   0.635   2.109   1.976  0.0111  0.1556  0.2202
  275SOL    HW1  824   0.548   2.054   1.977  0.5540  2.9294 -0.4738
  275SOL    HW2  825   0.619   2.210   1.951 -1.0931  1.1335  0.7973
  276SOL     OW  826   2.261   0.944   2.870  0.0100 -0.0771  0.4252
  276SOL    HW1  827   2.182   0.974   2.811 -0.4285 -1.1187  0.1636
  276SOL    HW2  828   2.291   0.847   2.855 -0.3862  1.4343  0.2894
  277SOL     OW  829   3.087   0.770   0.249 -0.1930 -0.1007  0.0555
  277SOL    HW1  830   3.183   0.778   0.212 -0.5602 -0.2602 -0.3996
  277SOL    HW2  831   3.073   0.708   0.331  0.0692 -1.5092 -1.7051
  278SOL     OW  832   0.316   0.232   0.015  0.8034  0.2791 -0.0749
  278SOL    HW1  833   0.380   0.180  -0.048  1.2673 -1.0184 -0.2162
  278SOL    HW2  834   0.326   0.333   0.004  0.9869 -1.8335 -0.7262
  279SOL     OW  835   0.261   2.987   0.929 -0.0969 -0.2278 -0.0285
  279SOL    HW1  836   0.321   2.948   1.003 -4.5607 -0.1867 -0.0286
  279SOL    HW2  837   0.241   2.923   0.848 -0.3381  1.7038 -2.5424
  280SOL     OW  838   1.586   2.891   2.438  0.2235  0.0414  0.2751
  280SOL    HW1  839   1.640   2.930   2.519  2.1280  2.0837  0.9377
  280SOL    HW2  840   1.513   2.951   2.401  2.3055 -1.0170  0.2896
  281SOL     OW  841   0.573   0.932   2.368  0.6477  0.1453 -0.3058
  281SOL    HW1  842   0.540   0.852   2.311  1.2179  4.6165 -2.9753
  281SOL    HW2  843   0.583   0.909   2.470  1.3273  1.4009  0.5612
  282SOL     OW  844   1.787   2.463   0.536 -0.2446 -0.2922 -0.2412
  282SOL    HW1  845   1.758   2.371   0.493 -0.9324  2.4775  0.0040
  282SOL    HW2  846   1.723   2.536   0.507  0.3758 -1.3274  0.4720
  283SOL     OW  847   1.177   0.934   0.787 -0.2172 -0.5862 -0.3527
  283SOL    HW1  848   1.202   0.879   0.871 -0.8092  1.1572 -0.1363
  283SOL    HW2  849   1.138   1.029   0.812  1.6053  1.0795 -3.5244
  284SOL     OW  850   2.260   2.831   2.455 -0.2986  0.1733  0.1282
  284SOL    HW1  851   2.352   2.835   2.407 -2.5386 -0.9523 -1.2571
  284SOL    HW2  852   2.262   2.872   2.548  1.3461  0.4082 -0.7026
  285SOL     OW  853   1.324   3.066   2.570  0.2809 -0.1295 -0.6417
  285SOL    HW1  854   1.346   3.048   2.474 -1.7407  0.0507  0.1538
  285SOL    HW2  855   1.239   3.123   2.577  2.8515 -1.7090  0.1167
  286SOL     OW  856   0.253   0.346   0.649 -0.0974 -0.4118 -0.4220
  286SOL    HW1  857   0.288   0.266   0.698 -2.7058 -0.5092  2.2483
  286SOL    HW2  858   0.269   0.329   0.545  0.6611  1.0744 -0.9157
  287SOL     OW  859   0.101   1.249   2.523  0.3039 -0.2042 -0.2612
  287SOL    HW1  860   0.050   1.194   2.591 -0.4863  0.4583 -1.4087
  287SOL    HW2  861   0.082   1.352   2.522 -0.9939 -1.1304 -1.4239
  288SOL     OW  862   1.509   2.672   1.649 -0.0270  0.4106 -0.4779
  288SOL    HW1  863   1.576   2.620   1.714  0.9876 -1.2812  1.1237
  288SOL    HW2  864   1.557   2.712   1.568 -0.3758 -3.6674 -0.5118
  289SOL     OW  865   0.635   2.770   0.790 -0.1138 -0.3443 -0.2486
  289SOL    HW1  866   0.703   2.823   0.733 -2.7563 -0.2212  1.7252
  289SOL    HW2  867   0.597   2.834   0.863 -0.8023  3.1225 -3.1880
  290SOL     OW  868   2.834   1.104   1.689  0.0680 -0.1957 -0.0351
  290SOL    HW1  869   2.759   1.047   1.726 -1.1676  0.5340 -2.1673
  290SOL    HW2  870   2.924   1.106   1.746 -2.5202  1.6686  2.1392
  291SOL     OW  871   1.924   0.010   0.075  0.0542  0.3533  0.3131
  291SOL    HW1  872   1.952   0.036   0.174  1.9355  0.3719  0.8991
  291SOL    HW2  873   2.008   0.031   0.014  0.4314 -0.6682 -2.4182
  292SOL     OW  874   2.984   1.290   0.031 -0.2443 -0.2142  0.3134
  292SOL    HW1  875   2.886   1.295  -0.012 -1.1366  0.1853  0.1074
  292SOL    HW2  876   3.050   1.268  -0.047  0.9943  0.4737 -0.2763
  293SOL     OW  877   0.522   2.062   0.260 -0.3465  0.2058 -0.6871
  293SOL    HW1  878   0.500   2.141   0.328 -3.3152 -1.3465 -0.1502
  293SOL    HW2  879   0.628   2.040   0.258  0.7736 -0.0552  1.0328
  294SOL     OW  880   1.869   2.353   1.820  0.3377  0.0783 -0.2109
  294SOL    HW1  881   1.895   2.352   1.920  2.8505 -0.0147 -0.2489
  294SOL    HW2  882   1.790   2.415   1.799  0.4853  0.1971  2.2563
  295SOL     OW  883   0.961   1.019   0.459 -0.2682  0.3437  0.4096
  295SOL    HW1  884   1.056   1.058   0.493  0.6728  0.5797  0.3637
  295SOL    HW2  885   0.928   0.943   0.528 -0.0419 -1.2379  1.0296
  296SOL     OW  886   1.153   2.126   2.727 -0.0783  0.0703 -0.8625
  296SOL    HW1  887   1.090   2.190   2.681  1.4127 -0.7009 -0.2020
  296SOL    HW2  888   1.194   2.060   2.658  0.0286 -1.4317  2.1196
  297SOL     OW  889   1.309   0.591   1.237  0.7258  0.2900 -0.1054
  297SOL    HW1  890   1.343   0.553   1.325  0.8407  1.1762 -2.1013
  297SOL    HW2  891   1.382   0.587   1.162 -0.2258 -0.1480  0.7287
  298SOL     OW  892   0.469   1.322   2.960  0.0998  0.5495 -0.3485
  298SOL    HW1  893   0.488   1.280   3.056  0.6029 -1.0894  0.5445
  298SOL    HW2  894   0.527   1.281   2.887  0.2067  1.3147  2.2985
  299SOL     OW  895   0.407   0.182   1.247  0.3273  0.5261  0.0686
  299SOL    HW1  896   0.365   0.268   1.210  2.2498 -2.1716 -1.2258
  299SOL    HW2  897   0.395   0.178   1.353 -0.1500  2.1263 -2.3255
  300SOL     OW  898   1.293   1.782   2.574 -1.4701  0.0358  0.0535
  300SOL    HW1  899   1.274   1.699   2.513 -1.6543 -3.9578  1.6241
  300SOL    HW2  900   1.370   1.758   2.640 -3.1570 -1.7736 -1.4965
  301SOL     OW  901   0.305   0.274   0.389  0.0796  0.1396 -0.0108
  301SOL    HW1  902   0.221   0.218   0.388 -0.1165  0.6434  1.4806
  301SOL    HW2  903   0.387   0.232   0.347 -0.9938  1.2863 -1.4313
  302SOL     OW  904   1.249   2.395   2.299  0.5757  0.0302  0.0466
  302SOL    HW1  905   1.150   2.366   2.312  0.4118  0.4579  2.4504
  302SOL    HW2  906   1.312   2.351   2.365  1.3924  1.0663 -0.9213
  303SOL     OW  907   0.865   2.459   0.747  0.7541  0.0803 -0.4663
  303SOL    HW1  908   0.924   2.444   0.662  1.9828 -3.6625 -1.7865
  303SOL    HW2  909   0.914   2.482   0.836 -1.7276  1.2071  0.1149
  304SOL     OW  910   0.144   1.921   0.705 -0.1354 -0.2964 -0.4068
  304SOL    HW1  911   0.204   1.886   0.631  3.8204  1.4995  1.8246
  304SOL    HW2  912   0.045   1.941   0.671 -0.2963  0.8907 -1.5057
  305SOL     OW  913   1.656   0.780   0.685  0.0517 -0.2484 -0.4941
  305SOL    HW1  914   1.564   0.782   0.636 -0.4470 -3.1167  1.9035
  305SOL    HW2  915   1.696   0.682   0.687  1.3130 -0.3132 -0.3881
  306SOL     OW  916   0.425   1.917   1.984  0.3898  0.3405  0.7617
  306SOL    HW1  917   0.490   1.859   1.927 -0.6924 -1.9797  2.1669
  306SOL    HW2  918   0.444   1.919   2.084 -1.1718  0.2874 -2.0481
  307SOL     OW  919   3.033   0.901   2.597 -0.3947 -0.1344  0.4090
  307SOL    HW1  920   3.042   0.986   2.650 -0.5820 -0.0651 -0.9604
  307SOL    HW2  921   3.053   0.816   2.650  1.0350  1.6702 -1.0609
  308SOL     OW  922   1.478   2.701   2.808  0.1801  0.8778 -0.2729
  308SOL    HW1  923   1.424   2.710   2.720  0.2827 -0.1604 -0.4162
  308SOL    HW2  924   1.458   2.609   2.854  0.0948 -1.2818  0.2313
  309SOL     OW  925   1.147   0.196   1.824 -0.1375  0.3749 -0.3612
  309SOL    HW1  926   1.225   0.149   1.778 -1.3381 -0.9661  0.5348
  309SOL    HW2  927   1.072   0.216   1.756  0.1092  1.1214 -0.0477
  310SOL     OW  928   1.418   2.573   0.655 -0.6854  0.2666  0.0004
  310SOL    HW1  929   1.410   2.578   0.757 -0.8479  1.8387  1.1980
  310SOL    HW2  930   1.501   2.628   0.620 -1.3781 -2.0563 -0.0794
  311SOL     OW  931   1.121   0.936   1.733 -0.0253  0.2367 -0.7299
  311SOL    HW1  932   1.083   0.857   1.791  1.5583  1.3485  1.4844
  311SOL    HW2  933   1.169   0.905   1.647  0.2743 -0.5215  0.4024
  312SOL     OW  934   1.481   0.628   1.016 -0.0888 -0.0828 -0.2355
  312SOL    HW1  935   1.510   0.728   1.001  2.3047 -2.0902  0.0949
  312SOL    HW2  936   1.424   0.592   0.935 -0.4355  0.9965  0.3801
  313SOL     OW  937   1.656   1.296   0.713 -0.2256  0.4773 -0.4300
  313SOL    HW1  938   1.594   1.348   0.776  2.0689 -0.1369  1.1007
  313SOL    HW2  939   1.615   1.220   0.655 -0.4385 -1.7845  1.1968
  314SOL     OW  940   3.015   0.021   3.074 -0.1663  0.4503 -0.3417
  314SOL    HW1  941   3.044   0.013   3.172  0.6985 -0.3114  0.7201
  314SOL    HW2  942   2.930  -0.036   3.054  1.6248 -0.1017  0.0303
  315SOL     OW  943   1.173   0.219   2.794 -0.9608 -0.0410 -0.4693
  315SOL    HW1  944   1.139   0.145   2.728  0.0771  1.0841 -0.1163
  315SOL    HW2  945   1.173   0.185   2.891 -1.0391  1.8045 -0.7398
  316SOL     OW  946   1.753   2.060   0.853  0.0282  0.0012 -0.1402
  316SOL    HW1  947   1.684   2.050   0.931 -0.6531  3.4500 -2.0135
  316SOL    HW2  948   1.762   2.159   0.830  0.7164  0.6593 -1.5314
  317SOL     OW  949   1.176   0.708   2.728 -0.2394 -0.4766  0.2700
  317SOL    HW1  950   1.125   0.730   2.816  0.4193  0.6191 -0.6310
  317SOL    HW2  951   1.144   0.624   2.680 -0.6130  0.1301  0.4060
  318SOL     OW  952   1.413   3.052   2.305  0.2591 -0.4751 -0.2817
  318SOL    HW1  953   1.415   3.156   2.296 -1.2588 -0.4654 -3.5734
  318SOL    HW2  954   1.392   3.008   2.210 -0.9702 -0.9287 -2.6645
  319SOL     OW  955   0.618   2.390   3.037  0.3688 -0.0276  0.1218
  319SOL    HW1  956   0.561   2.307   3.067 -1.1541  1.1794  0.6235
  319SOL    HW2  957   0.706   2.367   2.993  2.0866  0.6268  1.7364
  320SOL     OW  958   1.701   2.245   0.411  0.2414 -0.1117  0.0225
  320SOL    HW1  959   1.756   2.163   0.383 -0.7191 -0.0484 -0.5514
  320SOL    HW2  960   1.609   2.214   0.446  0.3099 -1.8277 -0.0870
  321SOL     OW  961   1.607   2.704   0.513 -0.0863  0.2356 -0.0531
  321SOL    HW1  962   1.550   2.761   0.445  0.0446 -1.8641  2.3828
  321SOL    HW2  963   1.707   2.728   0.505  0.8604 -1.3480 -2.1872
  322SOL     OW  964   2.541   1.076   2.342  0.0828 -0.2044  0.6748
  322SOL    HW1  965   2.611   1.021   2.396 -0.4777  2.5844 -0.6204
  322SOL    HW2  966   2.472   1.013   2.300  0.0795 -0.5889 -1.1278
  323SOL     OW  967   1.175   2.703   0.759  0.9620 -0.2556  0.7064
  323SOL    HW1  968   1.189   2.652   0.668 -0.0070 -1.1686  0.4396
  323SOL    HW2  969   1.114   2.791   0.753 -3.1379  2.0035 -1.9330
  324SOL     OW  970   0.070   2.525   2.409  0.1490 -0.4407 -0.3317
  324SOL    HW1  971   0.010   2.468   2.475 -2.0656  0.3946 -2.3445
  324SOL    HW2  972   0.095   2.620   2.443  2.0399  0.0701 -0.0275
  325SOL     OW  973   1.286   3.028   0.413 -0.3171  0.0919  0.0979
  325SOL    HW1  974   1.239   3.057   0.324 -3.2881 -0.0888 -1.9374
  325SOL    HW2  975   1.293   3.105   0.483 -0.7893  3.2723 -1.7978
  326SOL     OW  976   2.455   0.885   0.019  0.5281 -0.4106  0.5123
  326SOL    HW1  977   2.358   0.862   0.047 -0.0051  0.0084 -3.1065
  326SOL    HW2  978   2.522   0.818   0.060  2.0617 -2.1631  0.3501
  327SOL     OW  979   2.839   0.185   0.561  0.4725  0.0981  0.1852
  327SOL    HW1  980   2.849   0.135   0.469 -1.1581  1.1736 -0.7270
  327SOL    HW2  981   2.854   0.126   0.648 -0.2519  0.1304  0.5487
  328SOL     OW  982   2.653   0.596   0.397  0.1183 -0.2051  0.5555
  328SOL    HW1  983   2.734   0.635   0.450  0.6096 -0.1325  2.4823
  328SOL    HW2  984   2.626   0.505   0.438 -0.4378 -0.5274 -0.9024
  329SOL     OW  985   2.927   3.064   2.246 -0.0961  0.2065 -0.2699
  329SOL    HW1  986   2.994   2.992   2.275 -1.0563  0.9130 -0.4313
  329SOL    HW2  987   2.970   3.146   2.201  1.4580  0.3505 -0.7117
  330SOL     OW  988   0.567   0.338   2.004  0.9908  0.1588  0.8249
  330SOL    HW1  989   0.603   0.339   1.908  1.3911  1.3697  0.7408
  330SOL    HW2  990   0.583   0.253   2.058  0.4214  2.5778  1.4129
  331SOL     OW  991   0.008   1.935   1.126  0.1002  0.0805  0.3381
  331SOL    HW1  992  -0.002   1.968   1.031 -2.5843 -1.4978 -0.1204
  331SOL    HW2  993  -0.079   1.941   1.182 -0.1502  2.9233 -0.2608
  332SOL     OW  994   0.438   1.148   0.101  0.1128 -0.0045  0.7791
  332SOL    HW1  995   0.362   1.102   0.050  0.6813  0.2454 -0.1174
  332SOL    HW2  996   0.408   1.171   0.200  0.2721 -0.7896  0.1007
  333SOL     OW  997   2.910   0.957   0.372  0.0271  0.1562  0.2980
  333SOL    HW1  998   2.911   1.047   0.436  0.3728  0.6174 -1.3210
  333SOL    HW2  999   3.001   0.947   0.324 -5.3189 -0.1317  0.2836
  334SOL     OW 1000   1.710   1.168   1.721 -0.1272  0.4637  0.3467
  334SOL    HW1 1001   1.756   1.183   1.625  0.3784 -1.0091 -2.2602
  334SOL    HW2 1002   1.781   1.186   1.800 -2.4104  0.6448  2.3133
  335SOL     OW 1003   1.945   2.754   2.604 -0.0032  0.0300  0.1922
  335SOL    HW1 1004   1.868   2.754   2.672  0.9751  1.7126 -2.0893
  335SOL    HW2 1005   2.033   2.803   2.636  0.5339  0.9833  0.9509
  336SOL     OW 1006   0.279   0.106   2.741 -0.1302 -0.2962  0.4923
  336SOL    HW1 1007   0.350   0.129   2.819  0.7949  1.5165 -0.9265
  336SOL    HW2 1008   0.199   0.048   2.771 -1.5303  0.3403 -0.1006
  337SOL     OW 1009   0.781   2.817   3.047  0.2486 -1.3558 -0.0959
  337SOL    HW1 1010   0.841   2.740   3.089 -0.3926  2.7272 -2.1992
  337SOL    HW2 1011   0.769   2.885   3.128 -2.6107 -1.3195  2.2826
  338SOL     OW 1012   0.077   0.943   0.716  0.5943 -0.1202  0.3161
  338SOL    HW1 1013  -0.011   0.896   0.747 -0.7330  1.1201  1.4090
  338SOL    HW2 1014   0.072   1.045   0.711  0.2594  1.1104  1.4516
  339SOL     OW 1015   1.769   1.369   2.147 -0.0823  0.3747  0.0063
  339SOL    HW1 1016   1.672   1.379   2.119  1.4786 -0.7385  0.4721
  339SOL    HW2 1017   1.807   1.458   2.182 -2.2241 -0.9487  1.9481
  340SOL     OW 1018   2.275   0.776   1.112  0.7119  0.3283  0.9115
  340SOL    HW1 1019   2.176   0.795   1.128  2.8676  1.5538  0.5771
  340SOL    HW2 1020   2.285   0.674   1.081  1.3286 -0.9199 -0.4285
  341SOL     OW 1021   1.885   2.067   0.297  0.6900  0.4659 -0.5665
  341SOL    HW1 1022   1.901   2.145   0.233  0.6947 -0.8619  1.0918
  341SOL    HW2 1023   1.961   2.054   0.364  0.0271 -1.0585 -1.8341
  342SOL     OW 1024   2.145   2.136   2.766 -0.5496 -0.2678  0.0686
  342SOL    HW1 1025   2.174   2.037   2.788  0.5603 -1.5097 -0.7400
  342SOL    HW2 1026   2.055   2.136   2.715 -1.1202 -0.8450 -1.1089
  343SOL     OW 1027   0.357   0.836   2.878  0.0776 -0.4624 -0.0321
  343SOL    HW1 1028   0.342   0.893   2.792  1.4419  0.3076 -1.8109
  343SOL    HW2 1029   0.446   0.845   2.928 -2.7449  2.4106  0.4673
  344SOL     OW 1030   1.936   1.419   0.358 -0.3618 -0.3417  0.5503
  344SOL    HW1 1031   1.945   1.334   0.301  1.8544  0.1237 -0.5589
  344SOL    HW2 1032   1.838   1.451   0.374  1.0836 -0.1279  1.5836
  345SOL     OW 1033   1.406   2.187   2.852 -0.1780 -0.0887 -0.3186
  345SOL    HW1 1034   1.309   2.181   2.814  1.4922 -2.1521 -0.5456
  345SOL    HW2 1035   1.466   2.115   2.811 -3.2420  2.2961 -1.9132
  346SOL     OW 1036   2.285   0.824   1.401 -0.2178  0.1084  0.6928
  346SOL    HW1 1037   2.192   0.855   1.423 -0.2338  1.1316  1.0214
  346SOL    HW2 1038   2.292   0.771   1.313  0.6171  1.4093 -0.9532
  347SOL     OW 1039   0.716   2.794   1.703  0.1079  0.4811 -0.3275
  347SOL    HW1 1040   0.773   2.865   1.664 -2.0835 -2.9444  1.3205
  347SOL    HW2 1041   0.618   2.805   1.675 -0.4879  0.2664  2.5197
  348SOL     OW 1042   0.186   0.621   2.831 -0.1030  0.3343 -0.0371
  348SOL    HW1 1043   0.089   0.650   2.804  0.8282  1.2921 -2.6249
  348SOL    HW2 1044   0.247   0.701   2.850 -0.6956  0.1506  1.5205
  349SOL     OW 1045   1.789   0.421   2.826  0.4788  0.1102 -0.0379
  349SOL    HW1 1046   1.767   0.511   2.782 -1.1215  0.5407 -0.4478
  349SOL    HW2 1047   1.765   0.419   2.929  0.9450 -2.4752  0.8726
  350SOL     OW 1048   1.748   0.368   0.389 -0.1737 -0.3799  0.2038
  350SOL    HW1 1049   1.836   0.343   0.446  1.3190  0.4721 -1.2537
  350SOL    HW2 1050   1.758   0.474   0.372  3.3522  1.4335  0.7157
  351SOL     OW 1051   0.880   0.798   2.061  1.2836  0.7686 -0.6425
  351SOL    HW1 1052   0.890   0.899   2.069  0.6704 -1.8325 -2.2445
  351SOL    HW2 1053   0.918   0.761   1.971  0.7219  1.3902 -3.5996
  352SOL     OW 1054   2.079   1.436   0.585  0.1354  1.0997 -0.0436
  352SOL    HW1 1055   2.040   1.418   0.490  1.1679  1.2043  1.6099
  352SOL    HW2 1056   2.012   1.423   0.659 -1.3203  1.4904 -3.8422
  353SOL     OW 1057   2.180   2.701   1.149 -0.1800  0.6859  0.3054
  353SOL    HW1 1058   2.244   2.642   1.212 -1.1985 -2.3777 -1.2550
  353SOL    HW2 1059   2.084   2.720   1.184 -0.1196 -2.2738  1.8017
  354SOL     OW 1060   0.213   1.413   2.886 -0.1507 -0.3319  0.1398
  354SOL    HW1 1061   0.225   1.475   2.803  0.7683 -3.1497 -1.5707
  354SOL    HW2 1062   0.307   1.368   2.908  2.1414  1.1363 -0.7363
  355SOL     OW 1063   0.733   1.599   0.591  0.3927 -0.2700 -1.1267
  355SOL    HW1 1064   0.716   1.562   0.688 -0.4629 -2.8600 -0.8678
  355SOL    HW2 1065   0.685   1.537   0.520 -0.0656  0.0015  0.8923
  356SOL     OW 1066   0.997   0.357   2.093  0.3250  0.0274 -0.3776
  356SOL    HW1 1067   1.065   0.279   2.113  0.0267  0.9147  1.6082
  356SOL    HW2 1068   0.920   0.334   2.029  0.2541  1.1443  1.4119
  357SOL     OW 1069   1.030   1.506   0.142 -0.3168  1.1909  0.4533
  357SOL    HW1 1070   1.069   1.427   0.086  1.3800  2.0415  0.4362
  357SOL    HW2 1071   1.109   1.559   0.184  0.0506 -2.4304  0.7290
  358SOL     OW 1072   1.691   1.498   0.461 -0.3971 -0.0245  0.1505
  358SOL    HW1 1073   1.668   1.442   0.542  0.7759 -1.1465  0.5004
  358SOL    HW2 1074   1.652   1.458   0.373 -1.0945 -0.6642  1.0837
  359SOL     OW 1075   1.622   2.574   0.190 -0.1768  0.3346 -0.2035
  359SOL    HW1 1076   1.634   2.471   0.182  2.6138  1.1550  0.8042
  359SOL    HW2 1077   1.545   2.599   0.256 -0.0785 -0.5701 -0.2349
  360SOL     OW 1078   0.714   0.513   0.555 -0.9985  0.0252 -0.1239
  360SOL    HW1 1079   0.633   0.504   0.492  3.9489  1.9857  1.5246
  360SOL    HW2 1080   0.769   0.425   0.576 -0.9580  1.7519 -2.0628
  361SOL     OW 1081   1.359   1.299   0.587  0.0537  0.2232 -0.7651
  361SOL    HW1 1082   1.403   1.362   0.658  0.3626 -0.7471  1.3088
  361SOL    HW2 1083   1.272   1.349   0.554 -2.6847  3.2326 -0.5356
  362SOL     OW 1084   1.408   1.844   0.728 -0.1413  0.6410  0.2336
  362SOL    HW1 1085   1.467   1.788   0.793 -1.5499 -0.6746 -2.4177
  362SOL    HW2 1086   1.461   1.913   0.671  2.1924 -2.8352 -0.0958
  363SOL     OW 1087   1.254   1.323   1.917 -0.0836 -0.4003  0.1855
  363SOL    HW1 1088   1.325   1.320   1.990  0.5736 -1.9205 -3.1864
  363SOL    HW2 1089   1.196   1.407   1.918  0.6295 -0.2222  2.1041
  364SOL     OW 1090   0.553   2.397   1.986  0.0771  0.5543  0.3622
  364SOL    HW1 1091   0.450   2.403   2.012 -0.1503  0.7702  1.7120
  364SOL    HW2 1092   0.591   2.495   1.971  0.7931 -1.0628 -0.6612
  365SOL     OW 1093   0.918   1.950   1.420 -0.4720  0.1095 -0.1069
  365SOL    HW1 1094   0.835   1.992   1.465  0.9233  1.6852  1.2598
  365SOL    HW2 1095   0.937   1.985   1.324  3.4529  0.4362  0.8762
  366SOL     OW 1096   2.721   1.873   0.254 -0.5000 -0.2218  0.3014
  366SOL    HW1 1097   2.649   1.805   0.220  0.5940  0.9710 -0.5916
  366SOL    HW2 1098   2.799   1.823   0.294 -3.8976 -3.0288 -0.6613
  367SOL     OW 1099   0.931   1.087   3.040  0.1952  0.1848  0.0841
  367SOL    HW1 1100   0.930   1.025   3.126 -0.8642  1.1151  0.7787
  367SOL    HW2 1101   1.000   1.161   3.056 -2.7239  1.2470 -0.6624
  368SOL     OW 1102   1.471   0.470   0.495 -0.1390  0.0761 -0.0523
  368SOL    HW1 1103   1.384   0.472   0.442  0.7107 -3.5531 -0.1665
  368SOL    HW2 1104   1.544   0.536   0.454  4.6545 -1.6072  1.0371
  369SOL     OW 1105   0.315   1.625   0.148 -0.7580 -0.5698 -0.1767
  369SOL    HW1 1106   0.366   1.689   0.212  1.8143  0.7352 -1.1102
  369SOL    HW2 1107   0.239   1.572   0.194  3.5316  0.0217  0.5584
  370SOL     OW 1108   0.439   2.127   1.024  0.0677 -0.1818 -0.2260
  370SOL    HW1 1109   0.481   2.223   0.999  1.8217 -1.3632  0.6844
  370SOL    HW2 1110   0.341   2.117   0.984 -0.2345  0.2311 -2.0404
  371SOL     OW 1111   2.908   2.153   2.678  0.3159 -0.2254 -0.2422
  371SOL    HW1 1112   2.983   2.086   2.689 -1.9251  1.5963  2.5757
  371SOL    HW2 1113   2.900   2.221   2.755 -0.8013  2.0774 -1.7440
  372SOL     OW 1114   0.976   2.097   1.148 -0.1052  1.0957 -0.9560
  372SOL    HW1 1115   0.921   2.140   1.071  0.6248  2.1978  1.0276
  372SOL    HW2 1116   1.053   2.157   1.179  0.0597  0.3445  1.4746
  373SOL     OW 1117   1.901   1.862   1.022  0.2960 -0.4969 -0.3903
  373SOL    HW1 1118   1.996   1.871   1.064 -1.6005  1.6860 -2.3851
  373SOL    HW2 1119   1.869   1.942   0.966 -0.1719  0.2456  0.5025
  374SOL     OW 1120   1.942   0.275   0.556  0.2881 -0.3153  0.6420
  374SOL    HW1 1121   1.912   0.264   0.654  1.4202 -0.1861 -1.1956
  374SOL    HW2 1122   2.030   0.336   0.551  2.5027  0.1835 -2.5264
  375SOL     OW 1123   2.424   2.136   1.097 -0.2678 -0.5550 -0.5491
  375SOL    HW1 1124   2.461   2.117   0.999 -0.8978 -4.0617 -0.8590
  375SOL    HW2 1125   2.496   2.124   1.173  1.7361  0.2475  1.5908
  376SOL     OW 1126   3.071   0.604   1.451  0.4878 -0.3851  0.5869
  376SOL    HW1 1127   3.098   0.661   1.531 -2.4710 -1.5408 -1.2425
  376SOL    HW2 1128   3.008   0.526   1.470 -1.6654  2.6886  1.5915
  377SOL     OW 1129   2.269   2.939   0.164  0.0680  0.0139 -0.4827
  377SOL    HW1 1130   2.248   3.019   0.228  3.1659  0.1746 -0.1480
  377SOL    HW2 1131   2.285   2.854   0.222  0.8010  0.6663 -0.3136
  378SOL     OW 1132   1.904   1.902   2.496 -0.0288 -0.3692 -0.3570
  378SOL    HW1 1133   1.998   1.862   2.496 -1.0548  0.7066 -0.6945
  378SOL    HW2 1134   1.831   1.830   2.482  1.5113  0.1338 -0.4286
  379SOL     OW 1135   0.788   0.159   2.767  0.3650  0.1659  0.6016
  379SOL    HW1 1136   0.822   0.064   2.748 -0.5166 -0.3394 -1.5232
  379SOL    HW2 1137   0.792   0.224   2.686  1.5686  0.9239 -3.8760
  380SOL     OW 1138   1.550   1.094   0.562 -0.5192  0.1088  0.3680
  380SOL    HW1 1139   1.481   1.175   0.548  0.4828  1.4512  0.3908
  380SOL    HW2 1140   1.507   1.003   0.558  0.4327 -0.2473  1.9594
  381SOL     OW 1141   1.267   1.282   1.436  0.1851 -0.2761 -0.0067
  381SOL    HW1 1142   1.302   1.185   1.447 -0.3029 -2.1714  0.9788
  381SOL    HW2 1143   1.330   1.359   1.472  0.4790  1.5039 -2.9187
  382SOL     OW 1144   1.804   0.852   0.274  0.1224 -0.6020 -0.2410
  382SOL    HW1 1145   1.808   0.795   0.185 -1.3404 -1.1188 -1.8346
  382SOL    HW2 1146   1.889   0.841   0.339  3.1935  1.1206 -0.6513
  383SOL     OW 1147   2.499   0.989   1.473 -0.0766 -0.3000 -0.3493
  383SOL    HW1 1148   2.418   0.925   1.473  1.9110 -2.3577  0.6879
  383SOL    HW2 1149   2.571   0.961   1.397  0.8720 -1.3221 -0.7294
  384SOL     OW 1150   0.964   2.282   0.239 -0.3994 -0.2342  0.3188
  384SOL    HW1 1151   0.876   2.330   0.236  0.6007 -1.1598  0.9187
  384SOL    HW2 1152   0.988   2.240   0.332  2.6781 -1.3084 -2.2893
  385SOL     OW 1153   2.905   2.036   1.621 -0.2152 -0.3101 -0.0772
  385SOL    HW1 1154   3.007   2.065   1.635  0.3207  1.1320 -0.1743
  385SOL    HW2 1155   2.883   1.938   1.646 -0.7244 -0.3950  1.1006
  386SOL     OW 1156   0.486   1.040   0.480  0.1537 -0.6960 -0.8149
  386SOL    HW1 1157   0.467   0.940   0.490  1.4135  0.0879  0.7086
  386SOL    HW2 1158   0.433   1.093   0.402  2.7608  0.8359 -0.6647
  387SOL     OW 1159   0.951   0.268   1.637  0.0997 -0.1266  0.0402
  387SOL    HW1 1160   0.995   0.361   1.636  1.6202 -1.9581 -1.2455
  387SOL    HW2 1161   0.922   0.240   1.540 -0.5238  3.3424  0.2468
  388SOL     OW 1162   1.232   2.738   1.796  0.1781  0.4394  0.5862
  388SOL    HW1 1163   1.274   2.733   1.701  1.6480 -1.8740  2.6977
  388SOL    HW2 1164   1.245   2.646   1.842 -1.7839  0.8294  0.6218
  389SOL     OW 1165   0.133   2.924   1.342 -0.7406  0.1799  0.1224
  389SOL    HW1 1166   0.035   2.936   1.310  1.7666  1.6484  0.5933
  389SOL    HW2 1167   0.167   2.827   1.335 -0.7428  1.4462  1.1741
  390SOL     OW 1168   1.036   0.964   1.354 -0.1073  0.0349  0.0279
  390SOL    HW1 1169   1.119   0.934   1.405 -1.1655 -1.8929  0.5182
  390SOL    HW2 1170   0.993   1.053   1.381  0.7839  1.0146 -1.7461
  391SOL     OW 1171   2.144   1.127   1.127  0.0460 -0.9045 -0.1531
  391SOL    HW1 1172   2.075   1.058   1.165 -0.3672  1.7020  0.1730
  391SOL    HW2 1173   2.185   1.110   1.033  0.5552 -0.3103  0.9892
  392SOL     OW 1174   0.910   2.596   0.050 -0.0567 -0.0175 -0.3271
  392SOL    HW1 1175   1.006   2.553   0.038  2.7245  0.9013  0.5378
  392SOL    HW2 1176   0.855   2.543   0.118  1.1590 -0.7113 -1.6988
  393SOL     OW 1177   0.330   0.672   1.956  0.3543 -0.0663 -0.5340
  393SOL    HW1 1178   0.303   0.571   1.952  1.7963  1.3462  0.0488
  393SOL    HW2 1179   0.326   0.717   1.860 -0.2037 -0.9133 -1.2702
  394SOL     OW 1180   3.081   1.928   2.694  0.5348 -0.0911  0.3113
  394SOL    HW1 1181   3.151   1.894   2.762 -1.6152 -0.8326  0.7269
  394SOL    HW2 1182   3.065   1.868   2.616 -2.2905  2.6382 -0.3517
  395SOL     OW 1183   1.625   1.976   0.628  0.5850 -0.3451  0.3479
  395SOL    HW1 1184   1.657   1.898   0.561  0.0473 -1.4253 -0.5165
  395SOL    HW2 1185   1.689   1.995   0.708  0.3516 -1.2671 -2.0619
  396SOL     OW 1186   2.906   1.892   1.308  0.1589  0.7291  0.5241
  396SOL    HW1 1187   2.891   1.795   1.278 -1.5766  1.6516 -0.5289
  396SOL    HW2 1188   2.917   1.902   1.412  0.5750 -0.2878 -1.8816
  397SOL     OW 1189   1.048   2.220   0.486  0.1369  0.3649 -0.2213
  397SOL    HW1 1190   0.951   2.200   0.526  1.0299 -0.3210 -1.3826
  397SOL    HW2 1191   1.078   2.311   0.521 -1.1191  0.7640 -0.1213
  398SOL     OW 1192   2.190   3.046   1.171  0.2417  0.3392  0.2512
  398SOL    HW1 1193   2.107   2.981   1.163 -0.1694  1.7807  1.2611
  398SOL    HW2 1194   2.156   3.142   1.161 -0.4190  0.1898 -0.3619
  399SOL     OW 1195   3.057   2.439   2.641  0.2716 -0.5016 -0.0638
  399SOL    HW1 1196   2.971   2.395   2.611  2.1035 -2.3476 -2.0148
  399SOL    HW2 1197   3.124   2.362   2.674  0.9088 -1.2170  0.3432
  400SOL     OW 1198   0.658   1.731   1.351 -0.3310  0.7772  0.3345
  400SOL    HW1 1199   0.621   1.774   1.437  0.4932 -2.0048  0.2729
  400SOL    HW2 1200   0.655   1.790   1.261  5.9029  2.8949  1.8939
  401SOL     OW 1201   1.845   0.305   1.149  0.1258 -0.0248 -0.2761
  401SOL    HW1 1202   1.851   0.328   1.249 -2.2933  2.0872  1.3138
  401SOL    HW2 1203   1.757   0.325   1.102  1.4895  0.4207  0.7489
  402SOL     OW 1204   1.346   0.247   3.088 -0.3322 -0.4067 -0.0319
  402SOL    HW1 1205   1.434   0.226   3.034 -0.0455  2.0982 -1.3695
  402SOL    HW2 1206   1.289   0.326   3.048  1.0037 -0.1861  1.0729
  403SOL     OW 1207   2.220   1.887   0.813 -0.4768 -0.1059 -0.1727
  403SOL    HW1 1208   2.319   1.898   0.782  0.1700 -3.6671 -3.0532
  403SOL    HW2 1209   2.213   1.925   0.911 -0.7387  1.5662  2.6721
  404SOL     OW 1210   0.286   2.481   2.754  0.2358  0.2040  0.0874
  404SOL    HW1 1211   0.358   2.446   2.689 -0.0459 -1.9044  2.1165
  404SOL    HW2 1212   0.288   2.583   2.777  1.0838 -1.1236 -2.5035
  405SOL     OW 1213   0.148   2.393   0.710  0.2573  0.7824 -1.0043
  405SOL    HW1 1214   0.131   2.309   0.643  0.1060 -3.8862 -1.7908
  405SOL    HW2 1215   0.218   2.465   0.670  0.5301  2.1128  0.5869
  406SOL     OW 1216   0.050   1.549   3.055  0.0493  0.3876 -0.3663
  406SOL    HW1 1217   0.124   1.514   2.987  0.5596  0.6598 -3.8368
  406SOL    HW2 1218   0.067   1.527   3.156 -0.9143 -0.4834  0.1871
  407SOL     OW 1219   1.615   0.875   0.958  0.3489 -0.2273 -0.0332
  407SOL    HW1 1220   1.604   0.870   0.857  1.6478 -0.0206 -0.0314
  407SOL    HW2 1221   1.572   0.960   0.997  0.2756 -2.0955  0.6625
  408SOL     OW 1222   1.569   2.372   0.978 -0.0108  0.5079  0.1994
  408SOL    HW1 1223   1.638   2.367   0.900 -0.4837  1.0715  0.5091
  408SOL    HW2 1224   1.516   2.461   0.977  1.3259 -1.4267  2.2269
  409SOL     OW 1225   0.611   0.834   0.698 -0.3741 -0.3067 -0.6109
  409SOL    HW1 1226   0.556   0.806   0.616 -0.9281 -1.7927  2.2655
  409SOL    HW2 1227   0.599   0.773   0.783 -0.5158  1.7946 -1.6387
  410SOL     OW 1228   1.201   2.028   1.428 -0.2756 -0.0679  0.3817
  410SOL    HW1 1229   1.263   1.965   1.476 -4.8566 -0.4262 -1.5791
  410SOL    HW2 1230   1.101   1.997   1.427 -0.9572  0.4535 -1.3451
  411SOL     OW 1231   2.527   1.827   3.010  0.2734 -0.1037  0.2932
  411SOL    HW1 1232   2.572   1.918   3.021  1.7028 -2.2104 -0.8469
  411SOL    HW2 1233   2.446   1.833   2.944  0.6978 -2.4212 -1.1690
  412SOL     OW 1234   1.498   2.453   2.160 -0.0231 -0.1905  0.4224
  412SOL    HW1 1235   1.565   2.447   2.242 -0.2375 -0.2195  0.2449
  412SOL    HW2 1236   1.400   2.426   2.181  0.0544  0.4906  0.6407
  413SOL     OW 1237   0.031   0.254   3.034  0.1178 -0.2942 -0.1125
  413SOL    HW1 1238  -0.027   0.173   3.061 -0.5968  1.0145  1.1786
  413SOL    HW2 1239   0.129   0.236   3.043  0.3757 -2.6941 -0.6628
  414SOL     OW 1240   1.736   1.519   1.135 -0.3933  0.4549 -0.1120
  414SOL    HW1 1241   1.694   1.610   1.160  0.1911 -0.3635 -0.1912
  414SOL    HW2 1242   1.765   1.522   1.033 -0.2914  0.7312  1.7002
  415SOL     OW 1243   0.361   2.160   0.659  0.4479  0.4134 -0.1893
  415SOL    HW1 1244   0.328   2.197   0.755  2.4849  1.7241  2.9928
  415SOL    HW2 1245   0.284   2.146   0.589  1.8171 -0.4651 -3.4994
  416SOL     OW 1246   0.360   1.100   1.081 -0.1841  0.0602  0.0626
  416SOL    HW1 1247   0.333   1.023   1.014 -0.9059 -1.1356 -0.0995
  416SOL    HW2 1248   0.462   1.128   1.070 -0.1657  1.8589 -2.4262
  417SOL     OW 1249   2.359   2.437   2.119 -0.4315  0.0494 -0.0494
  417SOL    HW1 1250   2.393   2.342   2.111  1.9496 -0.6409  0.7928
  417SOL    HW2 1251   2.327   2.462   2.216 -0.6669  1.7809  1.8145
  418SOL     OW 1252   1.038   0.530   1.324 -0.3164 -0.0623  0.1898
  418SOL    HW1 1253   0.965   0.485   1.267 -0.8071  1.3324 -1.9647
  418SOL    HW2 1254   1.133   0.547   1.277  1.4859 -0.0887 -1.2097
  419SOL     OW 1255   0.879   0.547   2.965 -0.2113  0.5776 -0.4103
  419SOL    HW1 1256   0.793   0.572   2.913  1.1306  1.4010  2.6384
  419SOL    HW2 1257   0.952   0.618   2.981  2.2626 -2.6948  1.6246
  420SOL     OW 1258   0.128   2.187   0.512 -0.2708  0.2011  0.4681
  420SOL    HW1 1259   0.139   2.152   0.410 -0.8435 -1.6897 -1.7392
  420SOL    HW2 1260   0.038   2.151   0.559 -2.4139 -1.2930  2.9532
  421SOL     OW 1261   0.313   2.968   0.534  0.1810  0.1246  0.0403
  421SOL    HW1 1262   0.284   2.898   0.608  1.4659 -0.3412  0.6846
  421SOL    HW2 1263   0.381   3.037   0.568  0.9645 -1.4364 -0.5459
  422SOL     OW 1264   1.019   2.563   0.949 -0.6438  0.0945 -0.3852
  422SOL    HW1 1265   1.074   2.629   0.888  0.6438  0.9772  0.7864
  422SOL    HW2 1266   1.072   2.529   1.030  1.6135  1.0564  0.5828
  423SOL     OW 1267   0.134   0.723   1.259  0.1895 -0.6628 -0.2088
  423SOL    HW1 1268   0.055   0.699   1.325  2.0604 -1.5919  1.6099
  423SOL    HW2 1269   0.115   0.796   1.189  0.2943  1.3672 -2.5348
  424SOL     OW 1270   1.132   2.216   2.048 -0.1408 -0.1106 -0.1407
  424SOL    HW1 1271   1.098   2.314   2.044 -1.5577 -0.1823 -2.7112
  424SOL    HW2 1272   1.081   2.167   2.124 -0.8084 -0.2584 -1.2054
  425SOL     OW 1273   1.931   1.301   0.987 -0.2888 -0.2877  0.2160
  425SOL    HW1 1274   2.014   1.269   1.045 -0.9301 -2.8073  0.8937
  425SOL    HW2 1275   1.926   1.399   0.956 -0.1366 -0.6184 -2.3879
  426SOL     OW 1276   1.457   1.601   1.215  0.6849  0.4165  0.5839
  426SOL    HW1 1277   1.451   1.706   1.205 -1.6722  1.9664  1.9062
  426SOL    HW2 1278   1.400   1.577   1.300 -0.1462  0.0281 -1.6611
  427SOL     OW 1279   1.943   2.398   2.092 -0.3312  0.7716 -0.2099
  427SOL    HW1 1280   2.012   2.346   2.150 -0.1102 -0.7954 -0.5530
  427SOL    HW2 1281   1.944   2.497   2.102 -0.9849 -2.8972 -1.6567
  428SOL     OW 1282   0.875   0.061   0.073 -0.1740  0.0213 -0.8614
  428SOL    HW1 1283   0.910   0.122  -0.003 -2.4085  0.0474  0.0667
  428SOL    HW2 1284   0.952   0.006   0.120  0.5421  0.4786  2.0873
  429SOL     OW 1285   1.297   0.164   0.249  0.1557 -0.1224 -0.0009
  429SOL    HW1 1286   1.387   0.168   0.300 -3.0966 -1.6733 -0.7543
  429SOL    HW2 1287   1.302   0.188   0.145  1.2544  0.3537  0.1837
  430SOL     OW 1288   2.883   1.384   0.279 -0.2222  0.4377 -0.1584
  430SOL    HW1 1289   2.902   1.394   0.183  1.1975 -1.2032  2.6124
  430SOL    HW2 1290   2.839   1.463   0.329  1.0042 -3.5815 -1.2329
  431SOL     OW 1291   2.059   1.571   0.904  0.0693 -0.2126  0.0808
  431SOL    HW1 1292   2.093   1.629   0.981  0.0794  0.2358 -1.4498
  431SOL    HW2 1293   2.026   1.624   0.823 -1.8611 -0.6312  0.2547
  432SOL     OW 1294   2.917   2.154   1.221  0.5164  0.1817 -0.0579
  432SOL    HW1 1295   2.895   2.054   1.246 -1.0007  0.3141  2.2576
  432SOL    HW2 1296   2.942   2.209   1.304  0.6701 -1.7451 -1.2816
  433SOL     OW 1297   1.851   0.264   0.826  0.6685 -0.1144 -0.0247
  433SOL    HW1 1298   1.773   0.321   0.867 -1.2920 -1.0942  0.4299
  433SOL    HW2 1299   1.910   0.204   0.887 -1.4266  2.3018 -1.6400
  434SOL     OW 1300   1.551   0.295   0.663  0.4988 -0.7642  0.6895
  434SOL    HW1 1301   1.523   0.370   0.589  0.2934  1.8646  1.4424
  434SOL    HW2 1302   1.571   0.331   0.760 -0.1398  1.0685 -1.8195
  435SOL     OW 1303   1.479   1.409   2.118  0.0147  0.3262 -0.0777
  435SOL    HW1 1304   1.470   1.478   2.201 -2.2607  0.0182  0.4755
  435SOL    HW2 1305   1.492   1.457   2.028 -2.2099 -0.3109 -0.5384
  436SOL     OW 1306   1.718   2.727   2.268 -0.1222 -0.1799 -0.5043
  436SOL    HW1 1307   1.667   2.790   2.333  1.0643 -1.3301 -1.7957
  436SOL    HW2 1308   1.714   2.626   2.301 -1.1917 -2.4088  0.7654
  437SOL     OW 1309   1.125   2.968   0.911  0.1247 -0.0385 -0.2522
  437SOL    HW1 1310   1.053   3.043   0.897  1.0142  0.2227  2.1351
  437SOL    HW2 1311   1.104   2.915   0.995 -0.5881  1.8626 -2.0248
  438SOL     OW 1312   1.031   2.707   1.511  0.4653 -0.1224  0.1549
  438SOL    HW1 1313   1.133   2.717   1.483  2.0930  0.4957 -1.0643
  438SOL    HW2 1314   0.986   2.622   1.470 -3.9869 -1.8358 -0.9419
  439SOL     OW 1315   0.704   1.855   1.093  0.0684 -0.1732  0.4764
  439SOL    HW1 1316   0.738   1.952   1.068  0.8243  0.1130  3.4067
  439SOL    HW2 1317   0.602   1.842   1.077  0.5760  0.3391 -0.5268
  440SOL     OW 1318   1.059   2.485   1.979  0.0669 -0.3667  0.4138
  440SOL    HW1 1319   0.998   2.551   1.927 -2.7561  0.7033  0.0211
  440SOL    HW2 1320   1.161   2.504   1.977  0.3454 -1.7221 -1.4949
  441SOL     OW 1321   0.368   2.692   1.490  0.2140  0.0158  0.3587
  441SOL    HW1 1322   0.429   2.615   1.515  1.9595  3.0072 -2.4542
  441SOL    HW2 1323   0.322   2.683   1.397  0.3726  2.2615  0.2494
  442SOL     OW 1324   2.249   0.658   2.535 -0.1101  0.1792 -0.4649
  442SOL    HW1 1325   2.242   0.562   2.581 -1.2325 -1.5697 -0.3808
  442SOL    HW2 1326   2.159   0.706   2.551 -0.5635  1.8483 -0.4436
  443SOL     OW 1327   1.209   2.655   2.236  0.2648 -0.2797 -0.3449
  443SOL    HW1 1328   1.188   2.708   2.320 -0.6513 -1.5908 -0.9377
  443SOL    HW2 1329   1.192   2.554   2.252  1.2389 -0.6312 -1.3488
  444SOL     OW 1330   1.022   1.335   1.547  0.5135 -0.5740  0.0058
  444SOL    HW1 1331   1.116   1.311   1.506 -0.3277  1.0531  0.2059
  444SOL    HW2 1332   0.992   1.429   1.519  1.9450 -0.4891 -0.9028
  445SOL     OW 1333   3.083   2.390   1.980  0.1502  0.0664 -0.7256
  445SOL    HW1 1334   3.088   2.457   1.903 -1.1275  1.3942  1.8338
  445SOL    HW2 1335   2.989   2.350   1.986  0.5119  0.4508  0.0875
  446SOL     OW 1336   0.213   1.899   2.369 -0.0222 -0.3008  0.3855
  446SOL    HW1 1337   0.193   1.990   2.415 -2.9334 -1.8141  1.3995
  446SOL    HW2 1338   0.134   1.860   2.319  2.2799  0.4394  0.3913
  447SOL     OW 1339   1.227   1.635   1.932  0.1465  0.1643 -0.2454
  447SOL    HW1 1340   1.169   1.720   1.928  3.5031  1.4184  0.4854
  447SOL    HW2 1341   1.328   1.658   1.944 -0.0028  0.9599 -0.9719
  448SOL     OW 1342   0.120   1.563   1.919 -0.0360 -0.0385  0.2204
  448SOL    HW1 1343   0.127   1.666   1.919 -1.0075 -0.7923  1.3345
  448SOL    HW2 1344   0.147   1.524   2.015 -2.0678  3.1063 -1.3916
  449SOL     OW 1345   2.017   2.983   0.874  0.0952 -0.4247  0.6164
  449SOL    HW1 1346   2.062   2.986   0.965  1.1329 -1.1867  1.0769
  449SOL    HW2 1347   1.990   2.884   0.849  0.4813 -0.8953 -2.6563
  450SOL     OW 1348   2.273   1.340   0.927  0.0365 -0.3386 -0.1723
  450SOL    HW1 1349   2.262   1.260   0.862  1.5285 -2.8327 -0.3490
  450SOL    HW2 1350   2.227   1.431   0.908 -1.3312  3.5003 -0.9071
  451SOL     OW 1351   1.411   0.046   1.437  0.3143  0.3459 -0.1491
  451SOL    HW1 1352   1.317   0.090   1.447 -2.6020 -2.6708 -0.8204
  451SOL    HW2 1353   1.428  -0.023   1.514  0.9315  0.5064 -0.5335
  452SOL     OW 1354   2.637   2.338   2.246 -0.4631 -1.0192  0.1063
  452SOL    HW1 1355   2.608   2.438   2.261 -2.6072  3.5352 -1.4945
  452SOL    HW2 1356   2.664   2.290   2.337 -0.5876  1.3533 -0.4267
  453SOL     OW 1357   2.434   2.599   3.042 -0.0321  0.5889 -0.0803
  453SOL    HW1 1358   2.373   2.683   3.049  1.2623 -0.4613 -1.4573
  453SOL    HW2 1359   2.420   2.540   2.960  0.4814  0.7066 -0.0368
  454SOL     OW 1360   0.969   1.068   2.033  0.0424 -0.2546 -0.3001
  454SOL    HW1 1361   0.960   1.101   1.938 -2.3103 -0.1547  2.0982
  454SOL    HW2 1362   1.064   1.091   2.068  0.4063 -2.7705  1.1079
  455SOL     OW 1363   0.635   2.627   2.905  0.1473 -0.2647 -0.1825
  455SOL    HW1 1364   0.680   2.699   2.967  0.0332 -2.2812 -0.5069
  455SOL    HW2 1365   0.601   2.545   2.961 -0.0833 -2.3325 -0.2280
  456SOL     OW 1366   0.516   1.774   0.335 -0.4632 -0.1237 -0.3057
  456SOL    HW1 1367   0.601   1.724   0.340 -1.9533  1.1263 -1.9284
  456SOL    HW2 1368   0.528   1.865   0.281  0.9124  0.2158  2.0422
  457SOL     OW 1369   0.364   2.558   0.620  0.0266 -0.3032 -0.2222
  457SOL    HW1 1370   0.367   2.593   0.521 -1.0444  0.3962 -0.2948
  457SOL    HW2 1371   0.455   2.539   0.665 -0.4957  0.3294 -1.5201
  458SOL     OW 1372   2.993   2.976   1.223  0.1153  0.0082 -0.0615
  458SOL    HW1 1373   2.970   3.075   1.199  1.6525 -1.3383  1.2681
  458SOL    HW2 1374   2.986   2.911   1.143 -0.5639 -1.5743  1.9657
  459SOL     OW 1375   2.158   2.586   0.866  0.3945  0.0348 -0.7892
  459SOL    HW1 1376   2.180   2.659   0.938 -0.6580  0.5389 -0.9792
  459SOL    HW2 1377   2.238   2.552   0.807 -1.0002  1.5946  1.2297
  460SOL     OW 1378   1.059   1.920   2.913 -0.0532  0.2338 -0.1514
  460SOL    HW1 1379   1.075   1.998   2.844 -1.5201  1.0394 -1.3475
  460SOL    HW2 1380   1.147   1.876   2.943 -2.3461 -1.4370 -2.3451
  461SOL     OW 1381   0.552   2.113   2.680 -0.1458  0.2832 -0.0288
  461SOL    HW1 1382   0.476   2.051   2.645 -0.9377  2.7295  2.1113
  461SOL    HW2 1383   0.612   2.065   2.752  0.6546 -0.9047  0.3242
  462SOL     OW 1384   0.973   1.161   1.776 -0.1200 -0.4721 -0.3816
  462SOL    HW1 1385   1.002   1.066   1.749  2.2429  0.3979  0.6819
  462SOL    HW2 1386   1.022   1.233   1.727  0.0090  2.1287 -2.8426
  463SOL     OW 1387   0.452   0.750   0.477  0.1696  0.1533 -0.5576
  463SOL    HW1 1388   0.472   0.649   0.449 -2.8433 -1.1040 -3.5703
  463SOL    HW2 1389   0.349   0.765   0.481  1.9213  2.7443  0.8051
  464SOL     OW 1390   0.504   2.252   2.234  0.2494 -0.5306  0.1801
  464SOL    HW1 1391   0.422   2.311   2.267 -0.9871 -2.6685  2.0299
  464SOL    HW2 1392   0.540   2.283   2.141 -0.3791 -0.4278 -1.3416
  465SOL     OW 1393   0.292   0.896   0.872 -0.1264 -0.5506 -0.3070
  465SOL    HW1 1394   0.197   0.919   0.829 -1.2715  2.2666  2.1395
  465SOL    HW2 1395   0.337   0.808   0.842 -1.0089  0.7979 -0.8617
  466SOL     OW 1396   1.388   1.094   1.128 -0.1805  0.4822  0.2895
  466SOL    HW1 1397   1.469   1.155   1.114 -1.5374  0.4669  0.9117
  466SOL    HW2 1398   1.301   1.141   1.099  1.0269  1.4857 -1.3388
  467SOL     OW 1399   0.463   0.391   2.436  0.0286  0.4301  0.1219
  467SOL    HW1 1400   0.434   0.480   2.481  0.5090  1.3400 -3.3768
  467SOL    HW2 1401   0.500   0.314   2.491 -0.4835  1.2925 -1.6315
  468SOL     OW 1402   0.494   2.235   1.725 -0.0775  0.6578 -0.2444
  468SOL    HW1 1403   0.508   2.331   1.760  0.3105  0.3880 -1.8452
  468SOL    HW2 1404   0.464   2.236   1.624  0.1894  0.2842 -0.4232
  469SOL     OW 1405   1.594   1.284   1.104 -0.1587  0.6053 -0.0916
  469SOL    HW1 1406   1.661   1.221   1.151 -1.0876 -1.9481  1.4794
  469SOL    HW2 1407   1.605   1.387   1.124 -0.3435  1.2477 -0.1548
  470SOL     OW 1408   3.000   1.613   0.748 -0.2015 -0.2428  0.3074
  470SOL    HW1 1409   3.086   1.623   0.803 -1.7089 -2.8911 -1.4780
  470SOL    HW2 1410   2.922   1.668   0.782  2.6104  2.3441  0.3338
  471SOL     OW 1411   2.604   1.291   2.184 -0.3684  0.1598  0.0778
  471SOL    HW1 1412   2.568   1.212   2.251 -3.3685 -1.8042 -0.1721
  471SOL    HW2 1413   2.659   1.364   2.237  0.6146 -0.3222  0.1452
  472SOL     OW 1414   1.147   2.449   3.083  0.3067 -0.2624 -0.4881
  472SOL    HW1 1415   1.205   2.448   3.170 -0.6370  0.5008  1.1661
  472SOL    HW2 1416   1.130   2.357   3.043 -2.3785  0.3760  1.7757
  473SOL     OW 1417   1.046   1.542   0.881 -0.0228 -0.3632  0.3008
  473SOL    HW1 1418   0.953   1.561   0.916  2.2619  1.4598  0.2310
  473SOL    HW2 1419   1.116   1.506   0.951 -0.4155  0.0519  0.5533
  474SOL     OW 1420   0.790   1.251   0.777 -0.6353  0.2966  0.1460
  474SOL    HW1 1421   0.757   1.255   0.680 -0.5817  0.1825 -0.3980
  474SOL    HW2 1422   0.886   1.214   0.782  1.0514  0.2420 -0.0795
  475SOL     OW 1423   2.893   0.041   0.810 -0.0092 -0.5560  0.4341
  475SOL    HW1 1424   2.980   0.042   0.867 -3.5966  1.8020 -1.8042
  475SOL    HW2 1425   2.812   0.067   0.871  1.0729 -0.0248  0.5961
  476SOL     OW 1426   0.946   3.069   1.934  0.3411  0.3138  0.8676
  476SOL    HW1 1427   1.021   3.065   2.004  1.4792 -2.4060  0.2473
  476SOL    HW2 1428   0.967   3.007   1.854  0.1340 -0.9875  0.9503
  477SOL     OW 1429   1.487   0.419   2.442  0.1567  0.0487  0.1220
  477SOL    HW1 1430   1.443   0.393   2.533  1.2542 -1.2032 -1.3845
  477SOL    HW2 1431   1.567   0.354   2.418 -1.0238 -1.1465  0.1655
  478SOL     OW 1432   2.193   1.826   0.248 -0.0204  0.7379  0.1412
  478SOL    HW1 1433   2.150   1.736   0.238  0.3985  1.0365  0.5437
  478SOL    HW2 1434   2.297   1.823   0.237 -0.5690 -0.5013 -0.7146
  479SOL     OW 1435   1.198   1.144   2.846  1.2397  0.9635  0.1270
  479SOL    HW1 1436   1.253   1.165   2.760  1.4339  1.6962  0.9357
  479SOL    HW2 1437   1.136   1.057   2.830 -2.0607 -1.5287 -0.5463
  480SOL     OW 1438   2.493   2.333   0.393  0.1330 -0.1968  0.6951
  480SOL    HW1 1439   2.449   2.255   0.450 -0.2337 -2.3496 -1.4990
  480SOL    HW2 1440   2.428   2.369   0.322 -0.4963  0.5509  0.5241
  481SOL     OW 1441   1.046   1.189   0.833  0.0540 -0.0492 -0.0746
  481SOL    HW1 1442   1.087   1.257   0.766 -1.3391 -0.5837  0.7272
  481SOL    HW2 1443   1.073   1.192   0.934 -0.0620 -1.0814 -0.0418
  482SOL     OW 1444   1.608   0.278   1.996 -0.6424  0.4578  0.2259
  482SOL    HW1 1445   1.614   0.369   1.942 -0.0320  1.1551 -0.1955
  482SOL    HW2 1446   1.699   0.248   2.034  2.5313 -2.1344  0.4740
  483SOL     OW 1447   0.118   2.362   1.319 -0.5261  0.1568 -0.0501
  483SOL    HW1 1448   0.019   2.347   1.339 -0.9671  0.6541 -1.5204
  483SOL    HW2 1449   0.126   2.381   1.216 -1.2851  2.8622  2.6320
  484SOL     OW 1450   1.699   0.940   1.394 -0.1963  0.3725 -0.2207
  484SOL    HW1 1451   1.790   0.921   1.444 -0.0457 -1.1747 -0.7283
  484SOL    HW2 1452   1.718   1.001   1.310 -2.7115  0.5938 -2.7388
  485SOL     OW 1453   0.675   1.143   1.792 -0.2646  0.4655  0.3667
  485SOL    HW1 1454   0.655   1.082   1.710 -1.2873 -0.5099 -0.5910
  485SOL    HW2 1455   0.773   1.178   1.799  0.4896 -2.7759  1.5141
  486SOL     OW 1456   0.882   1.908   2.447 -0.7571 -0.0441  0.0845
  486SOL    HW1 1457   0.934   1.877   2.533 -0.7967 -0.5318  1.7663
  486SOL    HW2 1458   0.826   1.993   2.460 -2.4347  1.2493 -1.0695
  487SOL     OW 1459   1.760   1.527   0.848  0.5384  0.3946  0.0390
  487SOL    HW1 1460   1.749   1.447   0.787 -1.3765 -0.8106 -0.3471
  487SOL    HW2 1461   1.819   1.599   0.805  1.9361  1.0542  0.5326
  488SOL     OW 1462   2.982   0.944   2.230 -0.1400  0.1333 -0.7999
  488SOL    HW1 1463   3.025   0.848   2.211 -0.2246  1.8950  0.3907
  488SOL    HW2 1464   2.987   0.959   2.331 -1.6714 -0.6194  1.7854
  489SOL     OW 1465   2.764   0.203   1.347 -0.2078  0.1044  0.8124
  489SOL    HW1 1466   2.759   0.188   1.449  0.4897  2.3497 -1.5561
  489SOL    HW2 1467   2.853   0.172   1.304 -0.8042 -2.2446  1.7032
  490SOL     OW 1468   1.402   3.005   2.838 -0.2021  0.1807 -0.0823
  490SOL    HW1 1469   1.432   2.907   2.830  1.6487  1.3609 -0.7770
  490SOL    HW2 1470   1.387   3.032   2.742  0.7945 -0.1724  0.6815
  491SOL     OW 1471   1.902   1.553   2.682 -0.3047  0.0322  0.5381
  491SOL    HW1 1472   1.874   1.584   2.776  0.9929 -1.6145 -2.2880
  491SOL    HW2 1473   1.998   1.577   2.659 -1.5990 -3.6214 -1.9172
  492SOL     OW 1474   0.503   1.924   0.734  0.3912  0.6114  0.2181
  492SOL    HW1 1475   0.590   1.974   0.770  1.5686  2.1049 -0.0410
  492SOL    HW2 1476   0.439   1.987   0.687 -0.6632 -0.5375 -1.7931
  493SOL     OW 1477   0.493   1.408   2.153  0.3293  0.2396 -0.8342
  493SOL    HW1 1478   0.402   1.458   2.144  1.2230  1.5514  3.6200
  493SOL    HW2 1479   0.478   1.314   2.197 -0.8659  0.5030  0.5133
  494SOL     OW 1480   2.585   2.597   0.171 -0.3804 -0.3809  0.3461
  494SOL    HW1 1481   2.669   2.550   0.201 -1.5973 -2.1295  0.9044
  494SOL    HW2 1482   2.571   2.596   0.065  0.3958 -1.0406 -1.6284
  495SOL     OW 1483   2.740   2.672   2.688  0.2611 -0.5293 -0.1723
  495SOL    HW1 1484   2.743   2.584   2.631  0.4245  1.1175  1.0383
  495SOL    HW2 1485   2.735   2.755   2.630 -3.0470  1.4656 -0.7538
  496SOL     OW 1486   2.051   2.210   0.706  0.9812 -0.2662 -0.1300
  496SOL    HW1 1487   2.076   2.250   0.805 -1.3829  0.5265 -0.3424
  496SOL    HW2 1488   2.101   2.128   0.681 -1.2294  2.3619  0.6742
  497SOL     OW 1489   0.252   2.965   2.397  0.2610  0.2657 -0.3138
  497SOL    HW1 1490   0.220   3.035   2.468  0.2776  0.4736 -0.9128
  497SOL    HW2 1491   0.298   3.026   2.325  0.6422  0.2315 -0.1857
  498SOL     OW 1492   1.242   1.480   1.068  0.1148 -0.0116  0.4826
  498SOL    HW1 1493   1.330   1.506   1.117 -3.1512  1.1217 -2.1555
  498SOL    HW2 1494   1.163   1.521   1.127  0.0263  0.2352  2.9855
  499SOL     OW 1495   0.880   1.845   0.489  0.1276 -0.3509  0.5659
  499SOL    HW1 1496   0.836   1.757   0.501 -1.0567  2.0704  1.0072
  499SOL    HW2 1497   0.889   1.889   0.584  0.5152  0.0895 -1.6382
  500SOL     OW 1498   1.445   2.959   1.661 -0.1232 -0.1673  0.0972
  500SOL    HW1 1499   1.468   2.993   1.754 -3.3418  1.5953  1.6017
  500SOL    HW2 1500   1.446   2.854   1.660 -0.9749  1.6046 -0.7836
  501SOL     OW 1501   0.793   1.114   2.287  0.2518 -0.3920 -0.3110
  501SOL    HW1 1502   0.707   1.052   2.301 -1.0073 -0.7486 -0.0549
  501SOL    HW2 1503   0.824   1.112   2.189 -2.6304  0.8156  2.8968
  502SOL     OW 1504   2.592   0.955   1.748 -0.3147 -0.1624  0.0959
  502SOL    HW1 1505   2.576   0.970   1.649 -0.6355 -0.0220  1.2426
  502SOL    HW2 1506   2.541   0.878   1.795 -1.0625 -0.2722  1.9228
  503SOL     OW 1507   1.312   0.154   0.634  0.0984  0.0986 -0.3667
  503SOL    HW1 1508   1.237   0.209   0.588 -1.4982 -1.8723 -0.6605
  503SOL    HW2 1509   1.404   0.203   0.632 -0.1064 -0.4672 -0.7343
  504SOL     OW 1510   2.969   2.315   1.443  0.1212 -0.2706 -0.2999
  504SOL    HW1 1511   2.986   2.403   1.497 -0.1541 -1.5728 -2.6999
  504SOL    HW2 1512   2.888   2.261   1.475 -0.4787 -2.8378  0.4577
  505SOL     OW 1513   2.293   1.300   1.477 -0.3748  0.3928 -0.0860
  505SOL    HW1 1514   2.316   1.402   1.473 -2.9312  1.1711  0.4938
  505SOL    HW2 1515   2.374   1.244   1.488 -1.8758  1.9130  2.6681
  506SOL     OW 1516   1.873   0.288   1.762  0.3189  0.4652 -0.9586
  506SOL    HW1 1517   1.965   0.271   1.715 -2.1493  1.1267  0.5876
  506SOL    HW2 1518   1.888   0.340   1.848  0.2756 -0.4985 -1.1274
  507SOL     OW 1519   0.484   0.753   2.169  0.5132 -0.0831  0.3747
  507SOL    HW1 1520   0.422   0.736   2.087  2.8925  0.6141 -1.2706
  507SOL    HW2 1521   0.552   0.673   2.174  2.8767  0.4986  0.4669
  508SOL     OW 1522   0.192   1.603   0.855 -0.1652 -0.8322  0.0676
  508SOL    HW1 1523   0.268   1.671   0.826  0.1284  0.5742 -0.3800
  508SOL    HW2 1524   0.164   1.615   0.955  2.3538  1.4805  0.6256
  509SOL     OW 1525   1.327   1.195   2.583 -0.5099  0.0107 -0.0108
  509SOL    HW1 1526   1.263   1.271   2.608  0.6819 -3.3560  1.6108
  509SOL    HW2 1527   1.280   1.097   2.577 -2.6636 -1.2406 -0.7594
  510SOL     OW 1528   1.353   2.023   2.041  0.3545  0.3248  0.0999
  510SOL    HW1 1529   1.274   2.095   2.038  0.5727 -0.2748  1.4512
  510SOL    HW2 1530   1.335   1.945   2.102  4.0842  2.1839 -0.5899
  511SOL     OW 1531   3.037   2.638   1.293 -0.6153 -0.0081 -0.0928
  511SOL    HW1 1532   3.001   2.579   1.216  1.0217 -1.0385 -0.2009
  511SOL    HW2 1533   3.019   2.600   1.387 -1.3107  1.3898 -3.0057
  512SOL     OW 1534   2.406   0.373   1.434 -0.4479 -0.3806 -0.0015
  512SOL    HW1 1535   2.310   0.398   1.412  0.1176 -0.1479 -0.8360
  512SOL    HW2 1536   2.424   0.269   1.424  3.0410 -1.3147 -0.6632
  513SOL     OW 1537   2.503   1.999   0.840 -0.0352  0.3631  0.2717
  513SOL    HW1 1538   2.449   2.069   0.785  2.0276  2.3842 -0.5104
  513SOL    HW2 1539   2.597   1.981   0.798  1.8367  0.9477  2.4950
  514SOL     OW 1540   0.689   2.807   0.393  0.1686  0.5244 -0.8275
  514SOL    HW1 1541   0.654   2.880   0.332  0.3694 -1.6204 -1.0437
  514SOL    HW2 1542   0.715   2.841   0.485 -1.2109  0.1282 -1.6089
  515SOL     OW 1543   1.938   1.223   2.329 -0.2175 -0.0033 -0.1183
  515SOL    HW1 1544   1.877   1.256   2.254  2.1287  3.3297 -0.2705
  515SOL    HW2 1545   1.874   1.221   2.414  0.1236  0.0456 -0.0074
  516SOL     OW 1546   0.293   0.414   1.994 -0.2380  0.1463  0.3481
  516SOL    HW1 1547   0.400   0.392   1.991  2.1585  1.3082  0.9410
  516SOL    HW2 1548   0.237   0.358   1.927 -0.4001 -0.5030 -0.5265
  517SOL     OW 1549   0.368   2.991   1.199 -0.6949 -0.6119  0.1979
  517SOL    HW1 1550   0.387   3.091   1.215 -0.7092  0.7186  2.0100
  517SOL    HW2 1551   0.286   2.962   1.250  1.6387 -4.5770 -0.9004
  518SOL     OW 1552   2.109   0.180   1.664 -0.3258  0.1956  1.0709
  518SOL    HW1 1553   2.141   0.203   1.758 -2.8345 -0.4204  0.9876
  518SOL    HW2 1554   2.168   0.104   1.621  0.4747 -1.1177  0.2031
  519SOL     OW 1555   2.347   2.175   2.580  0.5031  0.1318  0.6726
  519SOL    HW1 1556   2.271   2.173   2.653 -1.2238 -0.5869  0.3710
  519SOL    HW2 1557   2.394   2.265   2.558 -2.1072 -1.1095  0.3531
  520SOL     OW 1558   1.759   2.886   1.827 -0.1896  0.0031 -0.0604
  520SOL    HW1 1559   1.687   2.860   1.896  0.4721  1.1395 -0.5930
  520SOL    HW2 1560   1.841   2.821   1.816  0.7233  0.8535 -2.5956
  521SOL     OW 1561   0.603   0.100   2.163 -0.0614  0.0536 -0.1348
  521SOL    HW1 1562   0.501   0.070   2.161 -0.1462  4.1401  0.3491
  521SOL    HW2 1563   0.661   0.055   2.239 -0.1880 -2.5673 -1.6502
  522SOL     OW 1564   0.213   1.906   1.529  0.0021 -0.2833 -0.4583
  522SOL    HW1 1565   0.234   1.967   1.609 -0.7525 -1.7265  1.7292
  522SOL    HW2 1566   0.206   1.960   1.439 -0.5007 -0.0266  1.4236
  523SOL     OW 1567   2.263   3.034   1.605  0.2830 -0.1079  0.0989
  523SOL    HW1 1568   2.279   2.941   1.564 -0.1978 -0.9972  0.7824
  523SOL    HW2 1569   2.177   3.027   1.661  1.6418 -0.6880 -0.0545
  524SOL     OW 1570   0.238   2.787   2.795  0.6369  0.0934  0.5404
  524SOL    HW1 1571   0.191   2.859   2.849 -1.7338 -1.8726 -1.9408
  524SOL    HW2 1572   0.336   2.807   2.773 -2.4964 -4.1645  0.4949
  525SOL     OW 1573   2.106   1.948   0.476 -0.5135 -0.7250  0.3776
  525SOL    HW1 1574   2.120   1.886   0.555  0.7431  1.7280 -1.1957
  525SOL    HW2 1575   2.120   1.897   0.383 -0.3965 -3.1759  0.8374
  526SOL     OW 1576   0.396   1.534   1.544 -0.4487 -0.8018  0.2273
  526SOL    HW1 1577   0.353   1.473   1.614  0.2888 -2.1776 -1.5925
  526SOL    HW2 1578   0.483   1.491   1.516 -0.5274  1.6636  0.2490
  527SOL     OW 1579   1.127   2.877   1.195 -0.5397 -0.0451 -0.3590
  527SOL    HW1 1580   1.232   2.872   1.207  2.0353 -0.9347 -1.8701
  527SOL    HW2 1581   1.099   2.977   1.197 -0.7144 -1.5053  0.4683
  528SOL     OW 1582   1.336   2.385   0.481 -0.2078  0.3172  0.1722
  528SOL    HW1 1583   1.380   2.295   0.466 -0.7116  1.0714 -0.2155
  528SOL    HW2 1584   1.387   2.450   0.544 -1.0282  1.9880  1.4829
  529SOL     OW 1585   1.880   1.729   0.707  0.4860  0.3951 -0.5085
  529SOL    HW1 1586   1.841   1.758   0.617 -2.4917  0.4261  0.4844
  529SOL    HW2 1587   1.851   1.794   0.783 -0.5541 -1.2395 -1.9699
  530SOL     OW 1588   0.355   2.452   0.211 -0.5581  0.8319 -0.2820
  530SOL    HW1 1589   0.348   2.543   0.250  4.4852 -0.7434 -1.8614
  530SOL    HW2 1590   0.412   2.393   0.270  0.8850 -1.0131  0.7817
  531SOL     OW 1591   1.874   0.817   0.938 -0.1109  0.0413 -0.2275
  531SOL    HW1 1592   1.906   0.869   0.847  0.4082  1.3122 -0.7815
  531SOL    HW2 1593   1.769   0.822   0.957 -1.7586 -0.1588  0.3674
  532SOL     OW 1594   0.449   1.129   0.748  0.4925  0.5361  0.2106
  532SOL    HW1 1595   0.458   1.095   0.647 -3.6269 -0.6653 -1.1820
  532SOL    HW2 1596   0.430   1.050   0.817 -1.6215 -1.7618 -1.8854
  533SOL     OW 1597   1.703   0.012   2.576 -0.2131  0.1172 -0.0808
  533SOL    HW1 1598   1.801  -0.015   2.595 -0.6679  0.8626  1.8225
  533SOL    HW2 1599   1.675   0.104   2.619 -1.7546  2.1644  1.6939
  534SOL     OW 1600   0.368   0.201   1.521 -0.6200  0.2688 -0.7884
  534SOL    HW1 1601   0.474   0.205   1.528  1.0135  0.7969  0.5351
  534SOL    HW2 1602   0.318   0.294   1.519 -0.3589  1.1455 -1.8430
  535SOL     OW 1603   1.965   0.334   0.165  0.1422  0.1230 -0.4486
  535SOL    HW1 1604   1.998   0.413   0.229  0.7298 -1.8505  2.2173
  535SOL    HW2 1605   1.941   0.256   0.226 -1.1298  1.9157  1.0235
  536SOL     OW 1606   1.367   2.598   0.924 -0.1119  0.1784  0.5445
  536SOL    HW1 1607   1.321   2.563   1.008  0.1506  1.5059 -0.6821
  536SOL    HW2 1608   1.293   2.640   0.869  0.3175 -1.2420 -0.0891
  537SOL     OW 1609   0.889   0.262   2.330  0.4490 -0.1399 -0.0727
  537SOL    HW1 1610   0.910   0.321   2.241 -1.3888  2.0722 -2.4902
  537SOL    HW2 1611   0.848   0.169   2.303 -1.5644 -3.9475  0.9057
  538SOL     OW 1612   1.642   2.398   1.411 -0.5530 -0.0778 -0.1324
  538SOL    HW1 1613   1.648   2.293   1.406 -1.5991 -1.1935 -1.7509
  538SOL    HW2 1614   1.736   2.442   1.428  1.3732 -1.1795  1.1513
  539SOL     OW 1615   0.197   1.588   2.686  0.0684  0.1082  0.4298
  539SOL    HW1 1616   0.107   1.534   2.666 -0.7617 -0.1360  0.8758
  539SOL    HW2 1617   0.182   1.675   2.737  1.9398 -1.0470 -0.3658
  540SOL     OW 1618   2.648   1.748   1.939  0.3427 -0.2713  0.2971
  540SOL    HW1 1619   2.600   1.661   1.978 -4.1867  1.1513 -0.1574
  540SOL    HW2 1620   2.579   1.821   1.912 -1.0561  0.5135  1.1915
  541SOL     OW 1621   0.495   2.147   0.001 -0.0025  0.0124 -0.2171
  541SOL    HW1 1622   0.497   2.111   0.099 -0.2830 -1.5758 -0.1820
  541SOL    HW2 1623   0.403   2.133  -0.049 -1.0218 -2.0968 -0.3340
  542SOL     OW 1624   2.263   2.607   0.541 -0.0588  0.2270  0.1137
  542SOL    HW1 1625   2.243   2.704   0.573 -0.4189  1.1609  0.3356
  542SOL    HW2 1626   2.173   2.550   0.540  0.2953 -1.3730 -3.0404
  543SOL     OW 1627   1.073   1.783   1.592 -0.5366  0.0942  0.1275
  543SOL    HW1 1628   1.060   1.818   1.694 -2.2882 -3.0468 -0.1110
  543SOL    HW2 1629   1.002   1.829   1.533 -0.7423 -0.9721  0.5399
  544SOL     OW 1630   1.131   0.544   0.127 -0.1424 -0.4259  0.6289
  544SOL    HW1 1631   1.118   0.450   0.167 -2.6646 -0.0681  0.5216
  544SOL    HW2 1632   1.178   0.544   0.030 -1.3630  0.2086 -0.2300
  545SOL     OW 1633   1.126   1.797   0.814 -0.2610 -0.2145 -0.1356
  545SOL    HW1 1634   1.210   1.788   0.751 -0.7240  2.8568  0.7798
  545SOL    HW2 1635   1.079   1.706   0.833  2.3028 -3.1798  0.4965
  546SOL     OW 1636   2.661   1.591   2.994 -0.0237 -0.2910  0.0776
  546SOL    HW1 1637   2.622   1.689   3.002 -0.2025  2.8358  1.9365
  546SOL    HW2 1638   2.592   1.519   3.016  1.0965 -0.7464  0.7180
  547SOL     OW 1639   0.659   3.003   2.574  0.6524 -0.2084  0.3748
  547SOL    HW1 1640   0.715   2.974   2.655  0.9344  0.5723  0.0934
  547SOL    HW2 1641   0.579   2.932   2.545  3.4687 -1.2196 -1.6300
  548SOL     OW 1642   2.037   0.783   3.034  0.4194  0.2950  0.2809
  548SOL    HW1 1643   1.939   0.754   3.051 -0.6407  0.4276  0.5675
  548SOL    HW2 1644   2.063   0.874   3.076 -0.9227  1.2527  0.5335
  549SOL     OW 1645   0.686   0.566   0.180 -0.1907 -0.4290 -0.1722
  549SOL    HW1 1646   0.640   0.596   0.093  2.1460  0.0340  2.6365
  549SOL    HW2 1647   0.775   0.620   0.202  0.6997 -0.9308  0.8014
  550SOL     OW 1648   2.583   2.772   2.891  0.2750  0.2821  0.3659
  550SOL    HW1 1649   2.520   2.700   2.934 -0.9809  0.8715 -0.3751
  550SOL    HW2 1650   2.651   2.734   2.824 -0.8743 -1.3436 -0.2990
  551SOL     OW 1651   0.257   0.869   0.201 -0.1075  0.1634  0.1618
  551SOL    HW1 1652   0.359   0.846   0.193  1.3314 -2.6783 -0.4514
  551SOL    HW2 1653   0.227   0.884   0.296  2.3839 -2.3805  2.2585
  552SOL     OW 1654   0.620   3.040   1.934  0.0096 -0.2454 -0.5362
  552SOL    HW1 1655   0.631   3.095   2.019  0.8537 -0.8860  0.4701
  552SOL    HW2 1656   0.706   2.989   1.903 -0.7918 -0.6061 -0.3252
  553SOL     OW 1657   3.017   2.421   0.373  0.3788 -0.0168 -0.2149
  553SOL    HW1 1658   3.035   2.350   0.444  3.3898 -0.9747  2.6816
  553SOL    HW2 1659   2.923   2.460   0.385  1.7539 -0.5108  3.0645
  554SOL     OW 1660   2.226   0.358   0.558  0.2230 -0.2868  0.5927
  554SOL    HW1 1661   2.276   0.316   0.479 -0.3020 -0.1002  0.7190
  554SOL    HW2 1662   2.217   0.290   0.637 -0.5227  0.4034  1.2663
  555SOL     OW 1663   0.489   2.831   2.471 -0.4001 -0.0759 -0.0609
  555SOL    HW1 1664   0.402   2.880   2.466  3.0706  0.5193  0.5127
  555SOL    HW2 1665   0.497   2.749   2.402  0.6581 -1.5018  1.0982
  556SOL     OW 1666   0.846   2.381   1.593  0.3090 -0.6224 -0.3612
  556SOL    HW1 1667   0.880   2.439   1.667 -1.0402  0.1137  0.2624
  556SOL    HW2 1668   0.898   2.394   1.504 -0.5266 -0.9962  1.2794
  557SOL     OW 1669   0.193   2.120   0.249 -0.6758  1.1024 -0.6151
  557SOL    HW1 1670   0.098   2.082   0.234 -2.7812 -1.9846  1.1408
  557SOL    HW2 1671   0.225   2.182   0.175  1.7626  1.9222  1.7602
  558SOL     OW 1672   2.850   2.180   0.404 -0.0099  0.3697  0.1639
  558SOL    HW1 1673   2.815   2.270   0.439 -0.5761 -5.1944 -2.4444
  558SOL    HW2 1674   2.810   2.146   0.318  2.0625  0.0504  2.4865
  559SOL     OW 1675   0.423   2.268   1.464  0.1847 -0.0605  0.3871
  559SOL    HW1 1676   0.326   2.292   1.435  3.2599 -2.7356 -0.2604
  559SOL    HW2 1677   0.472   2.227   1.383  0.9532 -2.2341 -0.3943
  560SOL     OW 1678   2.152   1.027   0.013  0.6688  0.0135 -0.1969
  560SOL    HW1 1679   2.201   1.087   0.089  2.1360  1.0628  2.2675
  560SOL    HW2 1680   2.211   1.004  -0.072  3.5704 -1.1894  0.3340
  561SOL     OW 1681   3.068   1.977   0.183 -0.6841  0.4230 -0.5540
  561SOL    HW1 1682   3.001   1.921   0.239  0.1500  0.4884 -1.3431
  561SOL    HW2 1683   3.043   1.999   0.085 -0.4885  1.9146  1.5202
  562SOL     OW 1684   1.013   2.091   2.261 -0.1094 -0.4151  0.4693
  562SOL    HW1 1685   1.009   2.184   2.304  0.7553  1.6767 -1.9272
  562SOL    HW2 1686   0.983   2.012   2.322  2.0023  1.4962 -0.0822
  563SOL     OW 1687   0.662   2.541   2.651  0.1706  0.1707  0.3157
  563SOL    HW1 1688   0.756   2.505   2.622 -0.9583  1.7621  0.2622
  563SOL    HW2 1689   0.657   2.579   2.748  0.4605 -1.6535  0.0639
  564SOL     OW 1690   2.862   1.429   2.843  0.1633  0.2641  0.6999
  564SOL    HW1 1691   2.793   1.496   2.874  1.6796 -1.7454 -1.0662
  564SOL    HW2 1692   2.942   1.466   2.791  1.4650 -0.8104 -0.4822
  565SOL     OW 1693   2.480   1.954   2.665 -0.4863  0.2553 -0.4019
  565SOL    HW1 1694   2.448   2.051   2.644  2.1444  0.2829  0.7669
  565SOL    HW2 1695   2.581   1.952   2.692 -2.6976 -0.2202 -2.3998
  566SOL     OW 1696   1.956   2.906   1.463  0.9987  0.3281 -0.0454
  566SOL    HW1 1697   1.976   2.809   1.499  0.4304 -0.3530  3.9144
  566SOL    HW2 1698   2.007   2.931   1.375  3.5168  1.8563 -0.1967
  567SOL     OW 1699   2.360   0.033   2.307  0.0721  0.3575 -0.0414
  567SOL    HW1 1700   2.276   0.062   2.358  0.7159  1.4735  0.2185
  567SOL    HW2 1701   2.330   0.021   2.207 -2.1729  0.2314  0.2827
  568SOL     OW 1702   1.475   1.770   0.212  0.1670  0.0039 -0.1538
  568SOL    HW1 1703   1.414   1.853   0.208  1.0299 -2.2099  0.0375
  568SOL    HW2 1704   1.574   1.793   0.208 -2.7253 -1.3378  1.2075
  569SOL     OW 1705   0.276   0.534   0.856  0.0645  0.0527  0.2541
  569SOL    HW1 1706   0.275   0.462   0.784  1.8722 -0.6241  2.5362
  569SOL    HW2 1707   0.184   0.582   0.866  0.0970  1.5617  1.1410
  570SOL     OW 1708   0.663   0.853   2.895 -0.1453 -0.6308 -0.0152
  570SOL    HW1 1709   0.682   0.883   2.800  1.9146 -0.2906  0.3598
  570SOL    HW2 1710   0.694   0.921   2.970 -3.0464 -0.8923  0.9285
  571SOL     OW 1711   0.793   3.039   1.076  0.0237 -0.4447  0.1312
  571SOL    HW1 1712   0.867   3.095   1.029 -2.0954  0.4824 -1.6520
  571SOL    HW2 1713   0.818   2.937   1.082 -1.8316  0.1984  0.3751
  572SOL     OW 1714   1.670   2.743   1.433 -0.3590 -0.0265 -0.0456
  572SOL    HW1 1715   1.618   2.678   1.376  0.6151  2.0801  0.6628
  572SOL    HW2 1716   1.661   2.843   1.403  0.7010  1.3797 -3.8564
  573SOL     OW 1717   3.025   0.457   1.936  0.1535  0.2807  0.4825
  573SOL    HW1 1718   2.947   0.383   1.929 -1.0671  2.2499 -0.6783
  573SOL    HW2 1719   3.118   0.421   1.907  0.2141 -0.1823 -0.1820
  574SOL     OW 1720   0.122   1.677   1.121  0.0352  0.4207  0.2214
  574SOL    HW1 1721   0.178   1.645   1.204  2.1198  3.0658  0.0178
  574SOL    HW2 1722   0.115   1.779   1.115 -0.1526 -1.3017 -2.3449
  575SOL     OW 1723   0.833   2.279   0.970  0.4097 -0.0751 -0.6170
  575SOL    HW1 1724   0.803   2.336   1.052 -3.3221  1.8138 -2.5883
  575SOL    HW2 1725   0.861   2.340   0.896 -0.0300 -2.2049  1.2690
  576SOL     OW 1726   2.945   3.024   1.670 -0.1623  0.6036 -0.4833
  576SOL    HW1 1727   2.838   3.030   1.675  0.1996  1.8788  0.4526
  576SOL    HW2 1728   2.986   3.115   1.658 -0.1962 -1.7043  3.9356
  577SOL     OW 1729   2.665   1.210   3.071 -0.0916 -0.3679 -0.0337
  577SOL    HW1 1730   2.676   1.133   3.004 -2.9466 -0.5753 -3.1918
  577SOL    HW2 1731   2.693   1.189   3.172 -0.5634 -0.7785  2.2267
  578SOL     OW 1732   1.376   2.717   2.555 -0.0863 -0.0754  0.3711
  578SOL    HW1 1733   1.292   2.731   2.499 -0.1865 -2.6009  2.4259
  578SOL    HW2 1734   1.461   2.758   2.511  0.6265  0.1149 -0.8741
  579SOL     OW 1735   0.085   2.426   0.127 -0.0717  0.5510 -0.2159
  579SOL    HW1 1736   0.019   2.433   0.211  0.7649  0.6446 -1.7861
  579SOL    HW2 1737   0.184   2.450   0.147  0.5160 -1.1246 -1.5381
  580SOL     OW 1738   0.968   2.697   0.353  0.1338 -0.2299 -0.4711
  580SOL    HW1 1739   1.039   2.716   0.280  0.5401  1.7496 -0.8572
  580SOL    HW2 1740   0.871   2.712   0.321 -0.1701 -1.9471 -1.5515
  581SOL     OW 1741   1.282   2.720   1.440 -0.4356 -1.0660 -0.0255
  581SOL    HW1 1742   1.323   2.627   1.432 -1.6519  1.1730  0.2194
  581SOL    HW2 1743   1.335   2.797   1.403 -2.7284 -0.4168 -1.1787
  582SOL     OW 1744   1.474   0.086   1.853 -0.7301  0.1922 -0.1354
  582SOL    HW1 1745   1.524   0.148   1.917 -1.5177 -2.3567 -1.1139
  582SOL    HW2 1746   1.481   0.119   1.756 -1.3534  0.1028  0.1551
  583SOL     OW 1747   2.451   2.993   0.478  0.6395 -0.2287  0.0308
  583SOL    HW1 1748   2.544   2.943   0.472  3.1821 -0.4094 -0.0854
  583SOL    HW2 1749   2.376   2.930   0.512 -0.6626  1.1335 -2.5228
  584SOL     OW 1750   1.522   1.063   2.264 -0.7233 -0.6042  0.3362
  584SOL    HW1 1751   1.546   1.164   2.254  1.7959 -2.7976 -0.1997
  584SOL    HW2 1752   1.599   1.004   2.305  1.2935  1.6541 -0.2355
  585SOL     OW 1753   2.023   2.676   2.908 -0.2261 -0.1755 -0.4977
  585SOL    HW1 1754   2.050   2.578   2.883  1.1428  0.7714 -0.4247
  585SOL    HW2 1755   1.921   2.689   2.897  3.3605  2.2109 -0.5990
  586SOL     OW 1756   2.916   0.395   1.568 -0.4302 -0.2829  0.3574
  586SOL    HW1 1757   2.895   0.487   1.621  0.0056  1.6582 -0.6487
  586SOL    HW2 1758   2.860   0.318   1.589  1.8151  0.5195  0.0838
  587SOL     OW 1759   2.193   1.477   2.772 -0.3160 -0.4078 -0.4804
  587SOL    HW1 1760   2.182   1.436   2.679  1.3751  1.1229  2.1990
  587SOL    HW2 1761   2.290   1.514   2.787 -2.5386  1.1894  1.1336
  588SOL     OW 1762   0.443   2.638   2.285 -0.2287 -0.5490 -0.6170
  588SOL    HW1 1763   0.417   2.697   2.198 -0.8513  1.5040 -2.6111
  588SOL    HW2 1764   0.402   2.546   2.282  1.1496  0.7324  1.4041
  589SOL     OW 1765   2.169   1.382   2.503 -0.0259 -0.1131 -0.2491
  589SOL    HW1 1766   2.106   1.310   2.472  0.4271  0.0958 -0.4057
  589SOL    HW2 1767   2.268   1.355   2.478 -1.2954 -1.7822  0.1079
  590SOL     OW 1768   2.339   1.675   2.056  0.0837  0.0501 -0.1032
  590SOL    HW1 1769   2.417   1.604   2.050 -0.1218 -2.0739 -0.4916
  590SOL    HW2 1770   2.329   1.723   2.149 -2.7025  0.6715 -0.4942
  591SOL     OW 1771   1.293   2.415   0.205 -0.3630 -0.4452 -0.0056
  591SOL    HW1 1772   1.335   2.342   0.148 -0.0648 -2.1940 -1.1549
  591SOL    HW2 1773   1.304   2.398   0.308 -2.1867 -0.4075 -1.4268
  592SOL     OW 1774   1.800   2.364   0.811 -0.0145 -0.1630 -0.5176
  592SOL    HW1 1775   1.809   2.395   0.712  2.1046 -3.3062  0.5314
  592SOL    HW2 1776   1.894   2.335   0.855  0.0797  0.2932 -2.0210
  593SOL     OW 1777   0.762   0.299   0.171 -0.0018 -0.2202  0.0715
  593SOL    HW1 1778   0.772   0.270   0.073 -1.3035  0.7529  1.0255
  593SOL    HW2 1779   0.742   0.400   0.184  2.5787  0.6675  0.5002
  594SOL     OW 1780   1.025   1.828   2.649 -0.1768  0.1700 -0.1817
  594SOL    HW1 1781   1.127   1.794   2.631  0.3540 -2.0205 -0.4250
  594SOL    HW2 1782   1.002   1.838   2.753 -0.5441  0.1532  3.2211
  595SOL     OW 1783   1.565   0.136   1.005  0.1621 -0.2092 -0.2167
  595SOL    HW1 1784   1.642   0.087   0.955 -1.0489 -1.5851 -0.4182
  595SOL    HW2 1785   1.471   0.090   0.987  0.4146 -2.8769 -0.9987
  596SOL     OW 1786   0.203   1.455   2.159  0.5008  0.6682 -0.2159
  596SOL    HW1 1787   0.119   1.393   2.164  1.8313 -2.7636  1.6683
  596SOL    HW2 1788   0.217   1.500   2.248  0.5160 -0.9756 -3.5551
  597SOL     OW 1789   1.975   2.692   1.826 -0.7569  0.3279  0.0062
  597SOL    HW1 1790   1.937   2.655   1.736  0.5281  0.5411 -3.8194
  597SOL    HW2 1791   2.063   2.641   1.856 -1.3138  0.1367  1.8152
  598SOL     OW 1792   2.495   2.779   1.240  0.5765  0.3295 -0.5643
  598SOL    HW1 1793   2.600   2.770   1.242  0.3993 -0.6473 -0.2073
  598SOL    HW2 1794   2.447   2.693   1.207 -0.0970 -0.0333  0.0297
  599SOL     OW 1795   2.888   0.298   2.526  0.2209  0.0940 -0.1432
  599SOL    HW1 1796   2.968   0.323   2.475 -2.0412  3.1458  0.8840
  599SOL    HW2 1797   2.802   0.338   2.487  0.8699 -0.0021 -2.7406
  600SOL     OW 1798   2.753   1.204   2.752 -0.1506  0.1179 -0.3089
  600SOL    HW1 1799   2.654   1.228   2.733  1.8647  0.6969 -3.7711
  600SOL    HW2 1800   2.802   1.263   2.824 -0.2675 -0.6170  1.6953
  601SOL     OW 1801   3.011   1.368   1.889  0.3398  0.0503  0.1974
  601SOL    HW1 1802   2.918   1.394   1.844  1.4429 -1.6037 -2.1249
  601SOL    HW2 1803   3.077   1.446   1.875  1.0870  0.4419 -1.7863
  602SOL     OW 1804   1.497   1.579   2.353 -0.5366  0.6353  0.5556
  602SOL    HW1 1805   1.404   1.574   2.392  1.6198 -0.4164  1.5228
  602SOL    HW2 1806   1.566   1.561   2.428  1.6277 -0.8049 -1.4117
  603SOL     OW 1807   0.570   1.169   2.738 -0.2420 -0.1827  0.2069
  603SOL    HW1 1808   0.488   1.184   2.680  2.5166  0.6617 -0.9422
  603SOL    HW2 1809   0.613   1.076   2.723  3.9623  0.5039  0.0055
  604SOL     OW 1810   2.522   1.010   0.258 -0.0624 -0.7983 -0.0448
  604SOL    HW1 1811   2.602   1.071   0.274 -1.4253 -2.1192  0.9966
  604SOL    HW2 1812   2.513   0.967   0.166  2.8793 -0.1787  1.4334
  605SOL     OW 1813   2.597   1.210   1.918 -0.1655 -0.2524  0.3060
  605SOL    HW1 1814   2.602   1.107   1.900 -0.5069 -0.2109 -0.7543
  605SOL    HW2 1815   2.605   1.235   2.021 -0.1139  1.2288  0.2850
  606SOL     OW 1816   1.511   2.458   2.590 -0.4270  0.1031 -0.3012
  606SOL    HW1 1817   1.437   2.526   2.566 -3.0519 -0.7735  0.0114
  606SOL    HW2 1818   1.491   2.361   2.558  0.0789  3.3141 -2.3609
  607SOL     OW 1819   1.275   1.571   0.287 -0.2167 -0.2230 -0.5855
  607SOL    HW1 1820   1.194   1.632   0.320 -2.0766 -3.8122  0.3171
  607SOL    HW2 1821   1.359   1.626   0.260  0.9626 -2.4329 -0.9361
  608SOL     OW 1822   1.432   2.826   0.317 -0.1002  0.2555  0.1273
  608SOL    HW1 1823   1.504   2.878   0.261 -1.1224  0.4394  1.4222
  608SOL    HW2 1824   1.372   2.896   0.369 -0.4816  2.2779 -0.7615
  609SOL     OW 1825   1.288   1.292   0.181 -0.3329  0.5223 -0.0832
  609SOL    HW1 1826   1.260   1.364   0.255 -1.4155  1.6775  2.0323
  609SOL    HW2 1827   1.252   1.311   0.084 -1.0076 -3.5057  0.5957
  610SOL     OW 1828   3.090   1.243   2.142  0.1609 -0.0168 -0.2026
  610SOL    HW1 1829   3.043   1.158   2.169  1.0830 -0.9188 -2.9025
  610SOL    HW2 1830   3.057   1.296   2.059  0.7836  0.6240 -2.3188
  611SOL     OW 1831   2.546   0.203   1.161  0.2373 -0.2811 -0.0704
  611SOL    HW1 1832   2.498   0.116   1.197  0.7796  0.1225  0.2761
  611SOL    HW2 1833   2.624   0.232   1.228 -0.0628 -1.8383 -0.3836
  612SOL     OW 1834   0.758   2.376   1.236  0.2931 -0.0465  0.0999
  612SOL    HW1 1835   0.696   2.299   1.264  3.1600 -2.1638 -0.8092
  612SOL    HW2 1836   0.700   2.462   1.239 -0.8639 -0.9151  1.0034
  613SOL     OW 1837   0.771   1.370   2.392  0.0667  0.1290  0.6665
  613SOL    HW1 1838   0.803   1.445   2.329 -0.0323  0.3785 -0.1153
  613SOL    HW2 1839   0.745   1.282   2.345 -1.6937  1.1330 -1.0607
  614SOL     OW 1840   1.510   1.675   1.951  0.0813  0.1703  0.0758
  614SOL    HW1 1841   1.522   1.727   1.869 -0.0326 -1.9360  0.7591
  614SOL    HW2 1842   1.584   1.704   2.020 -1.3705  1.7086  1.0433
  615SOL     OW 1843   0.707   1.457   1.713  0.2903 -0.4363 -0.4578
  615SOL    HW1 1844   0.674   1.384   1.644  0.3902 -0.6945 -0.1219
  615SOL    HW2 1845   0.790   1.501   1.687 -2.2610  0.3371  1.0627
  616SOL     OW 1846   1.115   1.618   2.209 -0.3348  0.3112  0.3984
  616SOL    HW1 1847   1.012   1.594   2.189 -1.0484 -1.2322 -0.3812
  616SOL    HW2 1848   1.168   1.633   2.122 -2.0617 -0.3880 -2.4489
  617SOL     OW 1849   2.898   1.577   1.582  0.0991 -0.1926 -0.2672
  617SOL    HW1 1850   2.869   1.523   1.666  1.4483 -0.3421 -2.0977
  617SOL    HW2 1851   2.937   1.512   1.508 -0.9668 -1.4690 -0.6169
  618SOL     OW 1852   1.879   1.980   1.500 -0.3445 -0.2869  0.2671
  618SOL    HW1 1853   1.967   1.978   1.439  0.3644 -3.4457 -0.6363
  618SOL    HW2 1854   1.852   1.886   1.525 -0.3754  1.4339  1.4727
  619SOL     OW 1855   1.785   0.541   2.399 -0.2484  0.0365 -0.1351
  619SOL    HW1 1856   1.715   0.575   2.328 -0.7735 -1.3499  1.7572
  619SOL    HW2 1857   1.780   0.438   2.405  1.1224  3.2340  0.2215
  620SOL     OW 1858   2.237   2.876   0.651  0.0310 -1.0678  0.2596
  620SOL    HW1 1859   2.146   2.920   0.631  0.7463 -0.1589 -2.1154
  620SOL    HW2 1860   2.270   2.886   0.746 -2.6187 -2.9141 -1.3604
  621SOL     OW 1861   2.129   1.892   1.360 -0.1118  1.2680 -0.1001
  621SOL    HW1 1862   2.134   1.887   1.467 -0.4929 -0.5574  2.2887
  621SOL    HW2 1863   2.158   1.799   1.318  0.2531 -3.0167 -0.9079
  622SOL     OW 1864   2.242   0.954   1.783 -0.3638  0.1035 -1.2903
  622SOL    HW1 1865   2.286   0.868   1.755 -5.3015 -0.5421  0.2814
  622SOL    HW2 1866   2.160   0.937   1.840 -3.1401  1.3472 -0.9124
  623SOL     OW 1867   1.271   0.909   2.565  0.1354  0.1369 -0.8344
  623SOL    HW1 1868   1.212   0.858   2.634  1.4127 -1.8712 -1.0228
  623SOL    HW2 1869   1.234   0.928   2.469  0.7085 -1.0946  0.7123
  624SOL     OW 1870   0.567   0.662   3.061  0.2304 -0.3011 -0.1314
  624SOL    HW1 1871   0.610   0.717   2.988 -2.7104 -3.1371  2.7830
  624SOL    HW2 1872   0.528   0.715   3.137  1.2890 -2.6507 -3.3110
  625SOL     OW 1873   2.806   1.788   0.827 -0.2509  0.0561 -0.0621
  625SOL    HW1 1874   2.777   1.852   0.907 -2.1796  0.8783  0.8154
  625SOL    HW2 1875   2.718   1.742   0.791 -1.8587 -0.3481  1.2686
  626SOL     OW 1876   0.435   2.837   2.047  0.6312 -0.0159 -0.2822
  626SOL    HW1 1877   0.497   2.919   2.043  2.4262  0.4543 -0.9373
  626SOL    HW2 1878   0.349   2.860   1.996 -1.1093  2.9246  2.3803
  627SOL     OW 1879   0.696   0.988   1.540  0.4194 -0.9504  0.3668
  627SOL    HW1 1880   0.750   0.907   1.542 -2.5940  0.0803 -0.0899
  627SOL    HW2 1881   0.752   1.070   1.504  0.4776 -1.9072  0.6350
  628SOL     OW 1882   2.464   0.117   0.658  0.0102  0.3614  0.4534
  628SOL    HW1 1883   2.472   0.042   0.582  3.0479  0.2016 -0.1764
  628SOL    HW2 1884   2.378   0.120   0.715 -1.2308  0.0503 -2.7901
  629SOL     OW 1885   2.005   0.953   1.956  0.1186 -0.0692  0.3481
  629SOL    HW1 1886   2.056   0.952   2.047  0.9376 -0.6481  1.5467
  629SOL    HW2 1887   1.949   1.043   1.947  2.8887 -0.4653  1.4504
  630SOL     OW 1888   2.849   2.230   0.767 -0.4054 -0.1256  0.2812
  630SOL    HW1 1889   2.771   2.260   0.836  1.0868  0.8859 -0.0871
  630SOL    HW2 1890   2.827   2.144   0.719 -1.3020  1.4485  4.0605
  631SOL     OW 1891   3.038   0.204   2.140 -0.2877 -0.0201 -0.2913
  631SOL    HW1 1892   3.077   0.247   2.230  0.2706 -0.4606  0.8616
  631SOL    HW2 1893   3.103   0.218   2.058  0.6573  2.0972 -2.6791
  632SOL     OW 1894   2.417   2.501   0.735  0.0581  0.1125 -0.3862
  632SOL    HW1 1895   2.480   2.576   0.762 -0.4831  1.0028  2.1491
  632SOL    HW2 1896   2.359   2.531   0.649 -1.3338 -1.0081 -1.3566
  633SOL     OW 1897   1.545   1.244   2.739 -0.2245 -0.4792  0.4231
  633SOL    HW1 1898   1.529   1.337   2.783 -1.9243  0.1953  0.2833
  633SOL    HW2 1899   1.477   1.225   2.664  0.0430  1.2621 -1.1855
  634SOL     OW 1900   0.687   2.066   0.875  0.0329  0.1882 -0.4721
  634SOL    HW1 1901   0.592   2.077   0.907 -1.9977  0.0283  0.0235
  634SOL    HW2 1902   0.742   2.155   0.896  0.2082  0.5725  0.8062
  635SOL     OW 1903   3.101   2.254   3.041 -0.6140  0.3308 -0.1643
  635SOL    HW1 1904   3.047   2.305   2.963 -2.9108 -0.4075 -0.8681
  635SOL    HW2 1905   3.123   2.317   3.125  2.4313  0.0063 -1.6422
  636SOL     OW 1906   2.352   2.837   1.974 -0.0482 -0.4744 -0.3212
  636SOL    HW1 1907   2.344   2.944   1.982  2.9240  1.4250 -0.1582
  636SOL    HW2 1908   2.295   2.786   2.045 -1.6559  0.6265 -1.2289
  637SOL     OW 1909   2.559   0.739   2.110 -0.2248 -0.0094 -0.5432
  637SOL    HW1 1910   2.496   0.749   2.030 -0.0535 -0.5879  0.3563
  637SOL    HW2 1911   2.628   0.815   2.128  2.0041 -0.3262 -0.7552
  638SOL     OW 1912   2.418   1.930   1.384 -0.0358 -0.1167 -0.5693
  638SOL    HW1 1913   2.327   1.976   1.386 -0.7751 -0.4976 -0.4530
  638SOL    HW2 1914   2.419   1.834   1.342  0.0821  1.8715  2.1021
  639SOL     OW 1915   1.285   2.238   1.581  0.1662  0.7444  0.6298
  639SOL    HW1 1916   1.254   2.164   1.512 -1.1414  1.0017 -0.7354
  639SOL    HW2 1917   1.227   2.234   1.667  1.2530 -0.5159 -0.6311
  640SOL     OW 1918   0.251   1.179   1.532  0.1929  0.1446 -0.3502
  640SOL    HW1 1919   0.284   1.225   1.622  3.0359  0.6332  0.2624
  640SOL    HW2 1920   0.325   1.122   1.486 -1.6253 -0.2641  0.3518
  641SOL     OW 1921   1.878   0.298   1.425  0.1903  0.4354  0.3457
  641SOL    HW1 1922   1.818   0.370   1.467 -0.8974  3.3748  1.2267
  641SOL    HW2 1923   1.892   0.219   1.493 -0.4188  1.4442  0.8029
  642SOL     OW 1924   1.982   0.120   0.343 -0.3642 -0.3102 -0.5844
  642SOL    HW1 1925   2.080   0.087   0.358  0.8903 -0.1945  1.3382
  642SOL    HW2 1926   1.943   0.169   0.425  0.6165 -1.5157 -3.2900
  643SOL     OW 1927   2.842   1.885   2.111  0.0359  0.3426 -0.7579
  643SOL    HW1 1928   2.782   1.822   2.053  0.4265  0.2341  1.6875
  643SOL    HW2 1929   2.844   1.980   2.071  1.5515  0.2259  1.7252
  644SOL     OW 1930   2.227   2.314   1.184 -0.1764 -0.6103 -0.7888
  644SOL    HW1 1931   2.308   2.259   1.146 -1.2577  0.7359 -2.6808
  644SOL    HW2 1932   2.182   2.278   1.267 -0.9161  2.1187 -2.0317
  645SOL     OW 1933   0.677   0.859   1.097  0.3771  0.2313  0.0682
  645SOL    HW1 1934   0.573   0.838   1.094 -0.9121  1.1481  3.6521
  645SOL    HW2 1935   0.683   0.966   1.081 -0.1230  0.6828 -0.2746
  646SOL     OW 1936   1.444   1.905   1.796  0.2483  0.6880 -0.3827
  646SOL    HW1 1937   1.526   1.959   1.787  0.0206 -2.3735 -2.1991
  646SOL    HW2 1938   1.384   1.936   1.873 -0.9863 -2.0298 -2.5579
  647SOL     OW 1939   0.877   0.892   0.667  0.0896  0.1047  0.1541
  647SOL    HW1 1940   0.932   0.884   0.749  0.2508 -1.7734 -2.2900
  647SOL    HW2 1941   0.775   0.887   0.689 -0.2802 -2.5754 -2.7696
  648SOL     OW 1942   0.028   0.227   0.327  0.0959  0.3930  0.2324
  648SOL    HW1 1943  -0.007   0.152   0.272  1.5222 -0.8895 -0.4132
  648SOL    HW2 1944   0.033   0.320   0.278 -0.6196  1.5839  1.3696
  649SOL     OW 1945   0.040   0.051   0.991  0.5215 -0.0151  0.5870
  649SOL    HW1 1946   0.133   0.006   0.975 -0.3235  1.2117  0.4618
  649SOL    HW2 1947   0.029   0.106   1.081  2.3481  0.8425  0.6381
  650SOL     OW 1948   2.741   0.718   1.455  0.0118 -0.2758  0.0251
  650SOL    HW1 1949   2.638   0.695   1.477 -1.4377  2.7660 -1.8180
  650SOL    HW2 1950   2.744   0.782   1.370  0.5925 -1.2933 -0.3061
  651SOL     OW 1951   0.889   1.593   1.470  0.6169 -0.2247 -0.0501
  651SOL    HW1 1952   0.965   1.655   1.494 -0.7689 -4.8700  1.4363
  651SOL    HW2 1953   0.805   1.636   1.425  0.1941  1.6927 -1.5298
  652SOL     OW 1954   2.266   2.511   2.354  0.1140  0.0839 -0.0273
  652SOL    HW1 1955   2.187   2.510   2.429 -0.7854  2.2723 -0.5854
  652SOL    HW2 1956   2.253   2.596   2.301 -0.7639 -1.5529  1.6910
  653SOL     OW 1957   2.802   1.128   0.202 -0.0066  0.0219 -0.0938
  653SOL    HW1 1958   2.869   1.202   0.233 -0.9828 -2.8170 -1.1688
  653SOL    HW2 1959   2.822   1.033   0.243 -0.0070 -1.0706  4.2820
  654SOL     OW 1960   1.209   2.219   1.204  0.3385  0.0405 -0.2581
  654SOL    HW1 1961   1.232   2.148   1.276 -2.0155 -0.1031 -1.0090
  654SOL    HW2 1962   1.282   2.213   1.128 -0.3522  2.4562 -0.4041
  655SOL     OW 1963   0.212   1.046   1.916 -0.2484 -0.1496 -0.0618
  655SOL    HW1 1964   0.251   0.974   1.846 -2.3862 -0.6503  1.1684
  655SOL    HW2 1965   0.282   1.125   1.930  2.9841  1.1147 -0.2927
  656SOL     OW 1966   2.449   2.420   2.561 -0.5726  0.9001 -0.9429
  656SOL    HW1 1967   2.541   2.418   2.520  0.1181  0.8759  1.3719
  656SOL    HW2 1968   2.378   2.475   2.514 -1.3653 -2.2697  0.4146
  657SOL     OW 1969   3.062   1.100   1.873  0.2190 -0.0041 -0.4043
  657SOL    HW1 1970   3.041   1.200   1.887 -2.3365  0.0055 -1.4298
  657SOL    HW2 1971   3.165   1.080   1.888  1.8252  1.1367  1.0064
  658SOL     OW 1972   1.723   0.245   2.393  0.4351 -0.6739  0.5013
  658SOL    HW1 1973   1.721   0.157   2.442 -1.7220  4.8960 -0.8454
  658SOL    HW2 1974   1.750   0.228   2.293 -0.3979  0.3646 -1.3229
  659SOL     OW 1975   1.417   0.619   2.813  0.1760 -0.0544 -0.6442
  659SOL    HW1 1976   1.501   0.680   2.810  1.8442 -2.4429  3.1016
  659SOL    HW2 1977   1.338   0.665   2.767  1.0550  1.0623  0.6366
  660SOL     OW 1978   1.364   0.395   1.446 -0.3453 -0.0421 -0.4151
  660SOL    HW1 1979   1.420   0.403   1.533  1.1778  1.8874 -1.1833
  660SOL    HW2 1980   1.414   0.333   1.372  0.9128  1.4396  1.4784
  661SOL     OW 1981   2.434   1.135   0.645 -0.0080  0.4277 -0.6234
  661SOL    HW1 1982   2.475   1.043   0.621 -0.6676 -0.5267  1.8668
  661SOL    HW2 1983   2.378   1.176   0.572 -1.2640 -1.3999 -0.8501
  662SOL     OW 1984   1.286   0.431   1.856 -0.1046 -0.2106  0.5526
  662SOL    HW1 1985   1.229   0.341   1.841 -0.9137 -2.8890 -1.5730
  662SOL    HW2 1986   1.256   0.475   1.947  3.8378  3.2001  2.5775
  663SOL     OW 1987   0.828   1.584   2.211  0.1419 -0.0337  0.5944
  663SOL    HW1 1988   0.773   1.678   2.234  2.3263  3.0753 -1.1019
  663SOL    HW2 1989   0.787   1.528   2.132 -0.0630  2.1727  3.0162
  664SOL     OW 1990   1.613   2.078   1.410 -0.5001  0.1792  0.4553
  664SOL    HW1 1991   1.541   2.017   1.445 -0.8970  1.1621 -0.1461
  664SOL    HW2 1992   1.708   2.034   1.416 -1.3291 -0.2780  0.9536
  665SOL     OW 1993   2.256   0.598   1.976 -0.9754 -0.2585 -0.1349
  665SOL    HW1 1994   2.308   0.519   2.018  2.0606  0.9446 -2.7361
  665SOL    HW2 1995   2.190   0.640   2.039  0.6404  1.6928  0.4578
  666SOL     OW 1996   0.524   2.254   0.463  0.5651 -0.7631 -0.3112
  666SOL    HW1 1997   0.573   2.342   0.466 -0.7759 -1.0598 -1.0368
  666SOL    HW2 1998   0.466   2.224   0.549  2.3993 -2.0508  0.4857
  667SOL     OW 1999   2.079   0.229   0.983 -0.6339  0.0512  0.1825
  667SOL    HW1 2000   2.151   0.307   1.005  2.8354  0.0927 -1.8881
  667SOL    HW2 2001   2.002   0.232   1.050  1.4493 -0.2293  0.6344
  668SOL     OW 2002   2.076   0.618   1.268  0.1021 -0.5051 -0.7044
  668SOL    HW1 2003   2.101   0.578   1.172 -1.1997 -1.5088 -0.5850
  668SOL    HW2 2004   2.116   0.556   1.339  0.3249  0.5708 -1.5863
  669SOL     OW 2005   3.030   2.236   0.972 -0.4758  0.6182 -0.0453
  669SOL    HW1 2006   2.960   2.224   0.901 -0.3318 -0.9402  3.9577
  669SOL    HW2 2007   2.987   2.217   1.066  0.3875  2.7896 -0.4941
  670SOL     OW 2008   2.817   2.372   2.016  0.2057  0.2906  0.0851
  670SOL    HW1 2009   2.761   2.339   2.099 -0.7714  0.9556 -1.1013
  670SOL    HW2 2010   2.775   2.455   1.971  1.3789  0.0858  1.2279
  671SOL     OW 2011   1.684   1.767   1.449 -0.1222  0.3278  0.2580
  671SOL    HW1 2012   1.713   1.791   1.347  3.0099  0.5925 -2.3930
  671SOL    HW2 2013   1.581   1.779   1.462 -0.3354 -2.0413  1.3643
  672SOL     OW 2014   0.403   0.666   2.431  0.5360 -0.3939 -0.4416
  672SOL    HW1 2015   0.457   0.688   2.345 -0.2546 -2.3839  1.6502
  672SOL    HW2 2016   0.325   0.733   2.455 -0.5531 -0.7989 -0.1862
  673SOL     OW 2017   0.126   1.252   1.101  0.1100 -0.1886  0.8171
  673SOL    HW1 2018   0.131   1.333   1.165  0.6718 -0.8889 -1.8467
  673SOL    HW2 2019   0.217   1.210   1.080 -0.9393 -0.0376 -0.6807
  674SOL     OW 2020   1.599   2.953   0.148 -0.1486  0.2392  0.0006
  674SOL    HW1 2021   1.618   3.051   0.137 -0.8347 -1.1109 -1.2963
  674SOL    HW2 2022   1.658   2.890   0.089  0.5650 -0.0584 -1.3671
  675SOL     OW 2023   1.707   0.878   2.357 -0.6815 -0.0496  0.5760
  675SOL    HW1 2024   1.811   0.878   2.353  1.4799  1.4126  0.4757
  675SOL    HW2 2025   1.668   0.800   2.300 -2.6942  3.1342 -1.5418
  676SOL     OW 2026   2.543   1.485   1.988  0.0564 -0.2694 -0.5349
  676SOL    HW1 2027   2.498   1.442   1.903  0.5116  0.1661  0.2888
  676SOL    HW2 2028   2.586   1.421   2.056  0.2108  0.2535 -1.1152
  677SOL     OW 2029   1.946   0.538   0.941 -0.0510 -0.5253  0.0996
  677SOL    HW1 2030   1.912   0.633   0.933 -1.2490  0.9917  2.2717
  677SOL    HW2 2031   1.916   0.480   1.023  1.3495 -0.3713  1.5487
  678SOL     OW 2032   0.068   0.735   1.690 -0.1157 -0.2356  0.2880
  678SOL    HW1 2033   0.163   0.775   1.708 -1.2969 -1.6197  1.0116
  678SOL    HW2 2034  -0.003   0.777   1.756  0.8206 -2.3920  1.3222
  679SOL     OW 2035   2.481   1.163   1.151  0.5214 -0.1758  0.1092
  679SOL    HW1 2036   2.380   1.165   1.158  1.7989 -0.7910  0.7191
  679SOL    HW2 2037   2.510   1.072   1.112  0.5600 -1.6946  0.3505
  680SOL     OW 2038   2.857   0.630   1.692  0.0152 -0.3933  0.2942
  680SOL    HW1 2039   2.819   0.652   1.601  1.9384 -0.0431 -1.9259
  680SOL    HW2 2040   2.878   0.717   1.741 -1.5303  0.7114 -1.5853
  681SOL     OW 2041   3.058   0.170   1.627  0.0577  0.5046  0.1990
  681SOL    HW1 2042   3.123   0.142   1.549 -3.4234  1.0993 -1.3532
  681SOL    HW2 2043   3.020   0.269   1.613 -0.2920  0.4568 -0.1988
  682SOL     OW 2044   0.728   3.069   1.358  0.2637 -0.2103  0.0222
  682SOL    HW1 2045   0.658   3.010   1.407 -0.3738  1.1323  2.9087
  682SOL    HW2 2046   0.740   3.064   1.258 -1.5498 -0.5957  0.8046
  683SOL     OW 2047   1.423   0.217   2.223  0.1426  0.4174 -0.2161
  683SOL    HW1 2048   1.429   0.295   2.291 -0.3520  2.3769 -3.1775
  683SOL    HW2 2049   1.491   0.225   2.148 -0.3445 -1.4933 -0.7795
  684SOL     OW 2050   1.457   2.145   0.483 -0.3551 -0.1752 -0.5048
  684SOL    HW1 2051   1.516   2.091   0.551 -0.7078  2.1442  2.3143
  684SOL    HW2 2052   1.360   2.107   0.472 -1.0132  1.3360  0.2442
  685SOL     OW 2053   2.130   1.925   2.020  0.1473  0.1197  0.1060
  685SOL    HW1 2054   2.200   1.996   1.987  1.0874  1.0248  0.6996
  685SOL    HW2 2055   2.178   1.840   2.056  0.3058  0.9067  1.7958
  686SOL     OW 2056   1.500   1.699   2.732 -0.3265 -0.6325 -0.5357
  686SOL    HW1 2057   1.453   1.606   2.748 -0.1635 -0.4026 -2.7723
  686SOL    HW2 2058   1.529   1.744   2.826 -4.1523 -0.0842  3.5660
  687SOL     OW 2059   1.321   2.493   1.921 -0.0296  0.0211  0.3508
  687SOL    HW1 2060   1.368   2.415   1.876  1.9313  2.6880 -0.8712
  687SOL    HW2 2061   1.386   2.552   1.980  0.7920 -2.8554 -0.1304
  688SOL     OW 2062   2.046   1.509   1.577  0.4676 -0.5543 -0.4067
  688SOL    HW1 2063   2.144   1.522   1.543  0.8662 -1.2178  0.9266
  688SOL    HW2 2064   1.992   1.470   1.497  2.0761 -2.4017  2.1956
  689SOL     OW 2065   2.459   1.079   2.748 -0.9165  0.2857  0.1102
  689SOL    HW1 2066   2.369   1.074   2.800 -1.1836  1.2022 -1.8903
  689SOL    HW2 2067   2.536   1.031   2.805  2.5487 -0.0971 -0.0089
  690SOL     OW 2068   2.246   2.793   3.030  0.0730  0.0960  0.3541
  690SOL    HW1 2069   2.157   2.779   2.975  0.0901  0.4230  1.7960
  690SOL    HW2 2070   2.239   2.840   3.122 -2.6210  0.4088  3.0348
  691SOL     OW 2071   2.593   0.453   2.130 -0.0589  0.2210  0.1308
  691SOL    HW1 2072   2.672   0.404   2.087 -0.9652  0.1269  0.7419
  691SOL    HW2 2073   2.601   0.555   2.124 -0.9345 -0.1760  0.0010
  692SOL     OW 2074   2.722   1.209   0.668 -0.3731 -0.7872  0.4233
  692SOL    HW1 2075   2.628   1.225   0.633  0.7001  0.2566 -1.2686
  692SOL    HW2 2076   2.747   1.270   0.753 -0.1374  0.0400  3.1237
  693SOL     OW 2077   2.828   2.926   0.641  0.4158 -0.4780  0.2273
  693SOL    HW1 2078   2.829   2.995   0.721  1.0429  0.0210  0.9364
  693SOL    HW2 2079   2.792   2.969   0.558  0.8143 -0.4298 -0.8534
  694SOL     OW 2080   2.410   2.187   0.058  0.3819  0.4362  0.3476
  694SOL    HW1 2081   2.382   2.278   0.104 -1.9645 -0.2552 -0.5228
  694SOL    HW2 2082   2.334   2.126   0.077 -1.7728  2.6486 -2.5083
  695SOL     OW 2083   0.546   2.923   1.493 -0.0105  0.4085  0.5937
  695SOL    HW1 2084   0.485   2.839   1.480  0.6133  0.5423 -0.4591
  695SOL    HW2 2085   0.507   2.991   1.558 -1.1369  1.0635  2.6463
  696SOL     OW 2086   2.721   1.996   0.657 -0.5173  0.2612 -0.2548
  696SOL    HW1 2087   2.783   1.915   0.678  1.3813  2.2559  1.3450
  696SOL    HW2 2088   2.656   1.982   0.579 -0.4791  0.7948 -0.6785
  697SOL     OW 2089   1.694   2.056   1.758 -0.1704  0.3510  0.1686
  697SOL    HW1 2090   1.759   2.019   1.832  0.1773 -1.0868  1.8834
  697SOL    HW2 2091   1.739   2.051   1.666  0.1634  0.1193  0.8054
  698SOL     OW 2092   2.939   0.345   2.794 -0.4689  0.3404  0.4429
  698SOL    HW1 2093   2.929   0.310   2.698  1.3757  0.1150  0.3840
  698SOL    HW2 2094   3.027   0.314   2.848  0.1431  0.3334 -2.9534
  699SOL     OW 2095   1.546   0.111   2.923  0.2240 -0.1084  0.3382
  699SOL    HW1 2096   1.492   0.025   2.897 -1.3404 -0.8831 -2.8176
  699SOL    HW2 2097   1.567   0.166   2.838 -0.1883  0.3329  0.5447
  700SOL     OW 2098   0.987   2.446   1.349 -0.4032  0.4825  0.0769
  700SOL    HW1 2099   1.056   2.384   1.310 -0.8935 -0.0711  1.2127
  700SOL    HW2 2100   0.894   2.426   1.297 -1.3282 -2.8787 -1.4850
  701SOL     OW 2101   1.824   2.850   3.083  0.2525 -0.5072 -0.3818
  701SOL    HW1 2102   1.865   2.784   3.151  0.6586 -1.2181 -0.5988
  701SOL    HW2 2103   1.855   2.948   3.102 -0.8558 -0.9471  1.3346
  702SOL     OW 2104   2.106   1.360   1.799  0.3102  0.3042 -0.0271
  702SOL    HW1 2105   2.190   1.303   1.789 -0.9464 -0.5735 -1.3583
  702SOL    HW2 2106   2.058   1.388   1.707  0.1387 -0.6945 -1.1809
  703SOL     OW 2107   1.972   0.900   1.466  0.3774 -0.3516 -0.1493
  703SOL    HW1 2108   1.977   0.817   1.527  1.8975 -0.4970  1.9020
  703SOL    HW2 2109   2.037   0.978   1.495  1.3038 -0.6199 -0.5531
  704SOL     OW 2110   0.285   2.052   1.769  0.3766 -0.0413 -0.7079
  704SOL    HW1 2111   0.322   2.017   1.858  0.1654 -3.0875 -1.4256
  704SOL    HW2 2112   0.336   2.131   1.722  0.0042 -2.4893  0.6112
  705SOL     OW 2113   2.541   1.420   0.874 -0.6430  0.2384  0.0832
  705SOL    HW1 2114   2.456   1.367   0.897  1.1128 -0.6474  0.6001
  705SOL    HW2 2115   2.613   1.391   0.942  0.6711 -0.8081 -0.5351
  706SOL     OW 2116   0.621   1.773   1.860  0.0291  0.2351 -0.2395
  706SOL    HW1 2117   0.616   1.671   1.887 -1.3763 -0.2135 -1.4950
  706SOL    HW2 2118   0.703   1.828   1.891  2.1821 -1.1933 -0.0032
  707SOL     OW 2119   2.348   1.208   1.770 -0.0135 -0.1136 -0.8215
  707SOL    HW1 2120   2.453   1.217   1.790  0.0114  1.1556 -0.9096
  707SOL    HW2 2121   2.316   1.104   1.773  1.1113 -1.6724 -2.2357
  708SOL     OW 2122   3.030   0.519   3.065 -0.4427  0.0663  0.4024
  708SOL    HW1 2123   3.036   0.566   2.974 -0.4453  1.4970 -2.2230
  708SOL    HW2 2124   3.050   0.422   3.067 -1.4034  0.2903  0.6525
  709SOL     OW 2125   1.759   1.832   0.222 -0.1781  0.2573 -0.3325
  709SOL    HW1 2126   1.816   1.903   0.271  0.1126 -0.6899  3.0184
  709SOL    HW2 2127   1.795   1.813   0.128  0.2554 -1.2424  3.2264
  710SOL     OW 2128   1.752   1.683   2.443 -0.3941 -0.0658 -0.3487
  710SOL    HW1 2129   1.786   1.620   2.368  1.5914  1.7151 -0.9131
  710SOL    HW2 2130   1.755   1.628   2.533  1.2856  2.4261  3.2765
  711SOL     OW 2131   2.616   2.912   0.974 -0.1468 -1.0698  0.1155
  711SOL    HW1 2132   2.622   3.017   0.967 -0.5753  1.4556  0.3158
  711SOL    HW2 2133   2.676   2.876   1.051  0.0972  0.1836  1.3946
  712SOL     OW 2134   1.514   2.315   1.758  0.1102 -0.0151  0.3967
  712SOL    HW1 2135   1.588   2.239   1.764 -0.4530 -0.8264 -0.6985
  712SOL    HW2 2136   1.443   2.285   1.687 -2.0887  0.1573  2.4203
  713SOL     OW 2137   2.837   1.313   2.515 -0.2723  0.2114  0.0026
  713SOL    HW1 2138   2.824   1.229   2.458  1.4813 -2.7899 -0.9038
  713SOL    HW2 2139   2.813   1.295   2.617  0.1827 -0.8292  0.7130
  714SOL     OW 2140   2.661   0.431   2.451 -0.5098 -0.0411 -0.2178
  714SOL    HW1 2141   2.589   0.383   2.505 -1.1092 -0.2552 -1.0321
  714SOL    HW2 2142   2.633   0.451   2.354  0.4609 -0.2098 -0.6073
  715SOL     OW 2143   1.640   2.078   1.113 -0.8566  0.7580  0.0876
  715SOL    HW1 2144   1.582   2.167   1.102  0.9196  2.4090 -2.6041
  715SOL    HW2 2145   1.664   2.051   1.208  1.6166  0.4248  0.2441
  716SOL     OW 2146   1.185   0.182   1.453 -0.1555 -0.7954  0.0299
  716SOL    HW1 2147   1.085   0.180   1.456 -0.3339  0.0324 -1.2650
  716SOL    HW2 2148   1.225   0.277   1.446 -0.0286 -1.5820  3.1606
  717SOL     OW 2149   1.050   0.528   1.605  0.3967 -0.5622  0.1169
  717SOL    HW1 2150   1.155   0.546   1.604 -0.4930 -1.2609  2.4027
  717SOL    HW2 2151   1.006   0.531   1.508  0.0624  2.5669 -0.9538
  718SOL     OW 2152   0.648   1.121   1.019 -0.0527  0.6599  0.3675
  718SOL    HW1 2153   0.661   1.126   0.918 -2.1419  1.1622  1.5378
  718SOL    HW2 2154   0.685   1.204   1.070 -0.4795 -0.9040  0.2419
  719SOL     OW 2155   0.702   1.800   2.263  0.0204  0.2831  0.5056
  719SOL    HW1 2156   0.778   1.839   2.327  3.0196  0.2866  0.0378
  719SOL    HW2 2157   0.612   1.846   2.286  4.2228 -0.9056  0.2542
  720SOL     OW 2158   2.270   1.165   0.217  0.1211 -0.0640  0.4373
  720SOL    HW1 2159   2.364   1.123   0.221 -1.4825 -3.1261  0.9478
  720SOL    HW2 2160   2.219   1.181   0.307 -1.3211 -1.5133 -0.3774
  721SOL     OW 2161   2.258   3.091   2.014  0.8750 -0.1996  0.0965
  721SOL    HW1 2162   2.249   3.173   1.953  0.2378  1.3420  0.1128
  721SOL    HW2 2163   2.174   3.083   2.073  1.2435  0.7334  0.2457
  722SOL     OW 2164   2.431   1.702   0.493  0.3318  0.4090  0.1512
  722SOL    HW1 2165   2.423   1.624   0.424  0.0481  0.9823 -0.5040
  722SOL    HW2 2166   2.340   1.713   0.548  0.1131 -2.2003 -0.1328
  723SOL     OW 2167   2.613   2.874   1.905  0.1382  0.2612  0.0846
  723SOL    HW1 2168   2.646   2.905   1.996 -2.6705 -2.2123  0.8413
  723SOL    HW2 2169   2.510   2.852   1.909 -3.7011  3.9610 -0.8482
  724SOL     OW 2170   0.307   2.410   2.335 -0.1957  0.1728 -0.2107
  724SOL    HW1 2171   0.207   2.443   2.345 -1.0129 -0.5029 -2.8778
  724SOL    HW2 2172   0.350   2.390   2.425  1.4095  0.0581  0.4083
  725SOL     OW 2173   2.320   2.796   1.464  0.2320  0.3448  0.0340
  725SOL    HW1 2174   2.384   2.791   1.375  2.9368  0.4024 -0.8739
  725SOL    HW2 2175   2.304   2.700   1.509 -1.3986 -1.5774  2.2031
  726SOL     OW 2176   2.385   2.241   0.782 -0.4168  0.3973 -0.6037
  726SOL    HW1 2177   2.380   2.343   0.785  1.0478 -1.4408  0.5549
  726SOL    HW2 2178   2.390   2.210   0.682 -2.7575 -0.0273 -1.3298
  727SOL     OW 2179   0.230   0.003   0.147 -0.3491  0.2647 -0.2016
  727SOL    HW1 2180   0.267  -0.052   0.069 -1.0464 -0.5112  0.2155
  727SOL    HW2 2181   0.268   0.098   0.153  0.1255 -1.0438  1.7859
  728SOL     OW 2182   2.809   0.672   1.072 -0.5875  0.3765 -0.3181
  728SOL    HW1 2183   2.736   0.642   1.002  0.6154 -0.3043 -0.4430
  728SOL    HW2 2184   2.806   0.623   1.163 -0.5522 -2.6744 -0.6526
  729SOL     OW 2185   2.986   2.471   0.710  0.3496  0.2314 -0.3668
  729SOL    HW1 2186   2.941   2.375   0.734  0.5026  0.2624 -1.9366
  729SOL    HW2 2187   3.092   2.463   0.709  2.5495 -0.0855  0.9697
  730SOL     OW 2188   2.623   0.580   0.845 -0.2811  0.1250  0.6154
  730SOL    HW1 2189   2.589   0.669   0.800  0.4954  0.4482 -2.6393
  730SOL    HW2 2190   2.683   0.526   0.778  3.0620 -0.2892 -2.3697
  731SOL     OW 2191   0.153   2.128   2.486  0.5876  0.4660  0.5240
  731SOL    HW1 2192   0.127   2.157   2.582  0.2475  0.6172 -0.5983
  731SOL    HW2 2193   0.190   2.202   2.428  3.9955  3.4242  0.4386
  732SOL     OW 2194   1.141   2.839   2.021 -0.2634 -0.2484 -0.1341
  732SOL    HW1 2195   1.184   2.778   2.092 -1.6334  1.6577  0.7974
  732SOL    HW2 2196   1.159   2.807   1.925  1.8462 -1.4631  1.7639
  733SOL     OW 2197   3.022   0.682   2.134  0.1426 -0.1737 -0.2167
  733SOL    HW1 2198   3.114   0.727   2.135 -0.8550 -0.7421  0.7999
  733SOL    HW2 2199   3.011   0.608   2.061 -2.1413  0.1999  0.5223
  734SOL     OW 2200   1.376   0.370   2.685  0.0810 -0.1546 -0.1067
  734SOL    HW1 2201   1.402   0.466   2.726  0.1059  0.6662  3.2016
  734SOL    HW2 2202   1.314   0.314   2.743  0.4883  1.9674 -1.0135
  735SOL     OW 2203   2.799   2.639   2.282 -0.1151  0.3462 -0.2183
  735SOL    HW1 2204   2.713   2.642   2.222 -1.5795  2.0190  1.1770
  735SOL    HW2 2205   2.888   2.631   2.223 -0.2485  0.3023 -1.2331
  736SOL     OW 2206   0.805   0.377   2.582 -0.1543 -0.1366 -0.4327
  736SOL    HW1 2207   0.753   0.469   2.575  1.2235  0.4817 -2.0081
  736SOL    HW2 2208   0.826   0.342   2.485 -0.0580  0.2631  1.7741
  737SOL     OW 2209   2.670   0.451   2.883 -0.0747 -0.6885  0.5557
  737SOL    HW1 2210   2.652   0.466   2.985 -1.5191 -0.4537 -1.1900
  737SOL    HW2 2211   2.756   0.396   2.858 -0.5960  2.1171 -0.4023
  738SOL     OW 2212   1.670   1.136   3.078 -0.3379  0.1202  1.0631
  738SOL    HW1 2213   1.769   1.117   3.041  0.5579 -3.0960  0.9032
  738SOL    HW2 2214   1.635   1.055   3.134 -0.4129 -1.1349  3.1345
  739SOL     OW 2215   1.810   0.534   0.695  0.0818  0.2753 -0.0907
  739SOL    HW1 2216   1.870   0.528   0.781  2.3700  1.5773  1.5823
  739SOL    HW2 2217   1.826   0.462   0.626  0.8047  0.1006  1.3371
  740SOL     OW 2218   1.895   2.047   2.138  0.1245  0.4787  0.3379
  740SOL    HW1 2219   1.946   1.993   2.067  0.4483  2.0305  0.7755
  740SOL    HW2 2220   1.797   2.061   2.116 -1.5850  0.2619 -0.2284
  741SOL     OW 2221   2.523   0.029   2.610  0.4207 -0.7811  0.1374
  741SOL    HW1 2222   2.624   0.004   2.593  1.8964  1.1926 -0.1635
  741SOL    HW2 2223   2.460  -0.013   2.545  0.9688 -0.2676  0.1929
  742SOL     OW 2224   2.264   1.400   0.089 -0.2048  0.4024  0.3073
  742SOL    HW1 2225   2.190   1.466   0.115  0.6075 -0.4456 -0.6913
  742SOL    HW2 2226   2.273   1.318   0.146  1.9445  0.7135 -1.9133
  743SOL     OW 2227   1.756   0.649   2.647  0.0758  0.2678  0.0419
  743SOL    HW1 2228   1.781   0.605   2.553  0.9253 -0.4303 -0.4033
  743SOL    HW2 2229   1.686   0.726   2.639  0.6021 -0.5934  3.7996
  744SOL     OW 2230   2.682   2.090   0.104  0.2988  0.4681  0.5611
  744SOL    HW1 2231   2.584   2.132   0.104 -1.0516  0.6159 -0.4003
  744SOL    HW2 2232   2.684   1.999   0.163 -6.0710 -0.1669 -0.1213
  745SOL     OW 2233   2.205   2.751   2.202  0.4783  0.4327 -0.0190
  745SOL    HW1 2234   2.111   2.742   2.157  0.0482  1.3698 -1.5020
  745SOL    HW2 2235   2.200   2.808   2.296 -1.0096  0.1080  1.2814
  746SOL     OW 2236   3.075   2.602   1.807 -0.0413  0.2188 -0.4242
  746SOL    HW1 2237   3.178   2.606   1.799 -2.1822  0.5018  2.1565
  746SOL    HW2 2238   3.033   2.691   1.840  0.5797 -2.1871  0.4842
  747SOL     OW 2239   0.024   1.783   1.679 -0.3200 -0.1165  0.3236
  747SOL    HW1 2240  -0.027   1.704   1.639  0.5747 -1.4615 -0.4470
  747SOL    HW2 2241   0.085   1.836   1.615 -0.2456 -1.0772  1.7389
  748SOL     OW 2242   1.757   2.718   2.855  0.6874 -0.2954 -0.2670
  748SOL    HW1 2243   1.776   2.763   2.948 -1.1309 -0.1685 -3.5160
  748SOL    HW2 2244   1.655   2.723   2.832 -0.0190 -1.4097  1.9862
  749SOL     OW 2245   1.326   0.070   0.891  0.6971  0.4565 -0.2137
  749SOL    HW1 2246   1.282  -0.024   0.914  1.2797 -1.5809  0.7444
  749SOL    HW2 2247   1.314   0.090   0.789  0.7525 -1.2284 -0.5876
  750SOL     OW 2248   2.277   0.239   1.876  0.2779 -0.4480 -0.1334
  750SOL    HW1 2249   2.335   0.296   1.812 -0.7679  0.9477  0.2314
  750SOL    HW2 2250   2.255   0.298   1.961  0.5070  1.2540  3.0707
  751SOL     OW 2251   0.860   2.259   2.913  0.1967 -0.2159  0.3500
  751SOL    HW1 2252   0.925   2.251   2.992  0.4431 -0.4655 -2.4993
  751SOL    HW2 2253   0.802   2.177   2.903 -1.1482  0.6722  0.7994
  752SOL     OW 2254   1.252   0.893   1.504 -0.2833 -0.8816 -0.4495
  752SOL    HW1 2255   1.319   0.960   1.457 -1.8425  0.5557 -1.5707
  752SOL    HW2 2256   1.298   0.801   1.525  0.1667  0.3063  1.2521
  753SOL     OW 2257   0.901   2.608   1.750 -0.1586 -0.4225 -0.3630
  753SOL    HW1 2258   0.991   2.648   1.714  0.6385 -0.1254  1.3012
  753SOL    HW2 2259   0.816   2.658   1.717  0.0080 -0.6435  0.4215
  754SOL     OW 2260   1.136   1.325   3.044  0.2322  0.0315  0.0257
  754SOL    HW1 2261   1.150   1.258   2.965 -0.4191 -0.8665 -0.9825
  754SOL    HW2 2262   1.125   1.423   3.008 -0.5936 -1.0508 -0.1357
  755SOL     OW 2263   2.027   0.520   2.259  0.2296 -0.0365  0.3694
  755SOL    HW1 2264   2.099   0.457   2.309  0.7024 -1.0525 -0.0089
  755SOL    HW2 2265   1.938   0.531   2.310  0.3798  0.8714 -0.0909
  756SOL     OW 2266   2.639   0.966   2.925  0.0242 -0.1237  0.3570
  756SOL    HW1 2267   2.696   0.894   2.876  1.1562  2.3191 -0.1668
  756SOL    HW2 2268   2.584   0.931   3.007  2.4498 -0.2493 -1.1655
  757SOL     OW 2269   0.166   0.456   1.715 -0.0537 -0.3608  0.0497
  757SOL    HW1 2270   0.112   0.543   1.711 -0.9361 -0.0816 -1.4763
  757SOL    HW2 2271   0.225   0.446   1.625  3.2875  0.3554  0.4666
  758SOL     OW 2272   2.486   0.067   1.499 -0.6965  0.0686 -0.2665
  758SOL    HW1 2273   2.402   0.029   1.552 -2.2139  0.9241  1.1317
  758SOL    HW2 2274   2.491   0.018   1.408 -0.0815 -1.2133  0.2671
  759SOL     OW 2275   1.658   0.102   0.088 -0.3235  0.8846  0.0567
  759SOL    HW1 2276   1.626   0.086  -0.012  2.8351  0.4951 -2.7140
  759SOL    HW2 2277   1.762   0.092   0.101  0.4550  0.8073 -0.4569
  760SOL     OW 2278   2.738   1.957   2.758  0.4984  0.0462  0.1148
  760SOL    HW1 2279   2.775   1.869   2.719  0.7215  4.9232 -3.9642
  760SOL    HW2 2280   2.780   2.044   2.720 -2.6069  1.8783 -0.3826
  761SOL     OW 2281   1.882   1.737   1.643 -0.7338  0.2913  0.7011
  761SOL    HW1 2282   1.935   1.647   1.630 -0.9198 -2.1218  1.3836
  761SOL    HW2 2283   1.801   1.735   1.582  0.1632  0.9431 -0.2283
  762SOL     OW 2284   0.512   2.395   0.985 -0.2504 -0.0682  0.1737
  762SOL    HW1 2285   0.517   2.451   0.901 -1.1089 -1.3822  0.6511
  762SOL    HW2 2286   0.546   2.449   1.070  0.5484  2.4474 -1.3274
  763SOL     OW 2287   2.002   1.586   2.961 -0.0548  0.2827 -0.3643
  763SOL    HW1 2288   2.077   1.553   2.898  0.9203 -0.9038 -0.9477
  763SOL    HW2 2289   1.941   1.515   3.003  1.4608 -0.5894  2.4999
  764SOL     OW 2290   0.691   0.588   0.834  0.4546 -0.0282 -0.3341
  764SOL    HW1 2291   0.697   0.559   0.734 -2.3350  0.2357 -0.8344
  764SOL    HW2 2292   0.784   0.604   0.881  0.2777  1.0813  1.0851
  765SOL     OW 2293   0.633   0.232   0.805  0.0435 -0.0562 -0.1051
  765SOL    HW1 2294   0.712   0.270   0.749 -1.0592  0.7556 -0.9917
  765SOL    HW2 2295   0.644   0.235   0.907 -0.3887 -1.4410  1.6056
  766SOL     OW 2296   3.014   1.962   2.981 -0.4010 -0.1070 -1.0583
  766SOL    HW1 2297   2.948   1.981   2.905 -1.8085  1.1484 -1.6970
  766SOL    HW2 2298   3.089   2.031   2.988 -2.6977  0.0087  0.1060
  767SOL     OW 2299   2.734   1.564   0.483 -0.5797 -0.3075  0.0651
  767SOL    HW1 2300   2.684   1.590   0.568 -0.6252 -0.8577 -1.7680
  767SOL    HW2 2301   2.830   1.596   0.485 -0.4452  0.6450  0.8785
  768SOL     OW 2302   1.063   0.299   0.284  0.1726  0.1967  0.3158
  768SOL    HW1 2303   0.972   0.262   0.249  2.7679  1.4783  1.0710
  768SOL    HW2 2304   1.142   0.236   0.273 -1.2028  0.9692  2.8537
  769SOL     OW 2305   1.337   1.797   2.246  0.4417 -0.8388 -0.3422
  769SOL    HW1 2306   1.425   1.758   2.283  2.2519 -2.2918  0.1036
  769SOL    HW2 2307   1.259   1.729   2.259  2.4192  1.2034  0.6760
  770SOL     OW 2308   0.194   1.137   2.297  0.3404  0.7100  0.0779
  770SOL    HW1 2309   0.165   1.186   2.386 -0.8423 -0.4909 -2.3883
  770SOL    HW2 2310   0.145   1.176   2.211 -3.4890  0.1148 -1.6604
  771SOL     OW 2311   2.960   2.839   1.896 -0.0242 -0.0945 -0.3410
  771SOL    HW1 2312   2.978   2.917   1.830  1.2910  2.1519  0.2907
  771SOL    HW2 2313   2.970   2.864   1.990  0.6988  0.1762 -1.4051
  772SOL     OW 2314   2.144   0.071   3.013  0.6788  0.0864  0.3471
  772SOL    HW1 2315   2.225   0.036   2.960 -0.5078 -0.3914 -2.0461
  772SOL    HW2 2316   2.165   0.164   3.046 -0.3223  0.9680  0.2605
  773SOL     OW 2317   0.738   2.136   2.474 -0.0025 -0.2285 -0.4310
  773SOL    HW1 2318   0.720   2.177   2.381  0.8471  2.7231 -0.2788
  773SOL    HW2 2319   0.651   2.112   2.520  1.4801 -1.7761 -0.6643
  774SOL     OW 2320   1.966   0.014   2.668  0.2842 -0.3928 -0.1241
  774SOL    HW1 2321   2.012   0.083   2.728  0.6405  0.9297  0.6711
  774SOL    HW2 2322   2.002  -0.081   2.692 -2.6041  1.8031 -0.6960
  775SOL     OW 2323   2.496   2.910   2.337 -0.1809 -0.4173 -0.2515
  775SOL    HW1 2324   2.461   3.012   2.334  0.0323 -0.7972  2.1331
  775SOL    HW2 2325   2.589   2.896   2.385 -0.8495  0.3533 -0.4045
  776SOL     OW 2326   0.014   1.153   0.253  0.2958  0.4317 -0.0211
  776SOL    HW1 2327  -0.013   1.205   0.166 -0.0663  1.4455  1.0073
  776SOL    HW2 2328  -0.036   1.182   0.337  3.4251  1.8328 -0.6362
  777SOL     OW 2329   0.320   2.718   0.402 -0.2511  0.3565 -0.3198
  777SOL    HW1 2330   0.222   2.684   0.403  1.2714 -0.5590 -3.6388
  777SOL    HW2 2331   0.337   2.820   0.428  1.8943  0.3912 -0.4483
  778SOL     OW 2332   1.313   1.996   0.170 -0.5999  0.1704 -0.1540
  778SOL    HW1 2333   1.279   2.017   0.265 -1.4127  0.8145 -1.1883
  778SOL    HW2 2334   1.330   2.080   0.111 -0.1259  1.9580  0.1407
  779SOL     OW 2335   0.181   0.798   0.493  0.8504 -0.2905 -0.3108
  779SOL    HW1 2336   0.100   0.731   0.491 -1.2415  0.3636  1.1269
  779SOL    HW2 2337   0.170   0.861   0.578 -0.0166  1.1252  2.0542
  780SOL     OW 2338   0.057   0.309   2.362  0.5815  0.2347  0.1274
  780SOL    HW1 2339   0.011   0.399   2.355  4.6846 -0.5772  3.4866
  780SOL    HW2 2340   0.155   0.317   2.324  0.2515 -0.1523 -0.0094
  781SOL     OW 2341   0.557   1.787   1.603  0.0415  0.0204 -0.0823
  781SOL    HW1 2342   0.588   1.774   1.699 -1.7806  0.2009 -1.8393
  781SOL    HW2 2343   0.475   1.730   1.575 -0.0644  0.9509 -2.0327
  782SOL     OW 2344   2.611   0.084   0.894 -0.5046  0.6074  0.0546
  782SOL    HW1 2345   2.578   0.105   0.797 -1.0608 -1.5862 -2.2512
  782SOL    HW2 2346   2.578   0.158   0.963 -1.9934  0.9470  1.4048
  783SOL     OW 2347   2.841   0.636   2.562  0.3937 -0.1230  0.2462
  783SOL    HW1 2348   2.795   0.674   2.649 -1.5987  0.3918  0.3693
  783SOL    HW2 2349   2.783   0.561   2.527 -0.5262  2.3769  1.2450
  784SOL     OW 2350   1.426   2.220   0.027  0.2643  0.2526  0.6991
  784SOL    HW1 2351   1.524   2.244   0.047 -2.1532 -1.7824 -2.5584
  784SOL    HW2 2352   1.405   2.227  -0.077 -2.7975  0.6518 -0.9681
  785SOL     OW 2353   2.187   0.321   0.011  0.2461 -0.2165 -0.6240
  785SOL    HW1 2354   2.104   0.317   0.078 -1.2016  0.7632  1.2057
  785SOL    HW2 2355   2.208   0.422  -0.016 -2.8547  3.4537 -0.4723
  786SOL     OW 2356   2.101   2.200   2.249  0.4551  0.1265 -0.0243
  786SOL    HW1 2357   2.022   2.143   2.213 -2.6911  1.5638  0.8628
  786SOL    HW2 2358   2.176   2.145   2.297  1.6725 -1.3347  2.5825
  787SOL     OW 2359   1.353   0.633   0.718  0.0559 -0.1323 -0.1770
  787SOL    HW1 2360   1.274   0.692   0.684 -1.6285 -2.4360  1.2273
  787SOL    HW2 2361   1.407   0.596   0.631 -1.1487  1.2600  2.2634
  788SOL     OW 2362   1.226   0.490   2.987 -0.2583  0.2607 -0.2995
  788SOL    HW1 2363   1.147   0.465   2.922  3.3467 -1.4914  0.3051
  788SOL    HW2 2364   1.307   0.528   2.938  1.6966 -2.8927  2.3767
  789SOL     OW 2365   2.631   0.090   1.903 -0.5426  0.5373  0.5072
  789SOL    HW1 2366   2.530   0.095   1.922  2.4382 -0.1337  0.2028
  789SOL    HW2 2367   2.667  -0.005   1.920  2.2174 -1.3423 -0.4392
  790SOL     OW 2368   2.649   2.648   0.846  0.1267 -1.0277 -0.0670
  790SOL    HW1 2369   2.718   2.657   0.767  2.7402 -1.1086  1.7542
  790SOL    HW2 2370   2.607   2.737   0.880 -2.3127  1.8405  0.6483
  791SOL     OW 2371   1.929   1.174   0.219  0.0323  0.0004  0.1305
  791SOL    HW1 2372   1.826   1.161   0.248 -1.8717 -1.1321  1.1078
  791SOL    HW2 2373   1.968   1.095   0.170 -0.0587  2.8171 -0.8847
  792SOL     OW 2374   0.447   1.974   2.253  0.3035  0.2647 -0.1226
  792SOL    HW1 2375   0.486   2.068   2.246  0.8002  0.1038 -2.2904
  792SOL    HW2 2376   0.363   1.966   2.315 -1.2087  1.8958  1.7276
  793SOL     OW 2377   2.095   1.547   2.017 -0.2964  0.5015 -0.1024
  793SOL    HW1 2378   2.194   1.580   2.041 -1.9202 -1.1177 -1.3621
  793SOL    HW2 2379   2.099   1.487   1.932  5.2104  2.1341 -1.4691
  794SOL     OW 2380   0.577   1.540   2.478  0.2432 -0.0386  0.0659
  794SOL    HW1 2381   0.657   1.473   2.464  0.0394 -0.6966  0.6731
  794SOL    HW2 2382   0.519   1.542   2.393 -1.8630  1.5075  0.4791
  795SOL     OW 2383   2.422   2.362   1.851 -0.5224  0.2729 -0.0951
  795SOL    HW1 2384   2.387   2.425   1.928 -2.8798  2.6874  0.6953
  795SOL    HW2 2385   2.356   2.284   1.832  4.3735  0.0379 -0.8848
  796SOL     OW 2386   3.054   1.152   2.722  0.0587  0.2865  0.0123
  796SOL    HW1 2387   2.951   1.160   2.726  0.7454  0.0378  0.9486
  796SOL    HW2 2388   3.097   1.173   2.816  1.0099 -0.0485  1.2473
  797SOL     OW 2389   0.697   0.614   1.345  0.2007  0.7550  0.2046
  797SOL    HW1 2390   0.779   0.674   1.375 -2.4420  1.9007 -0.8723
  797SOL    HW2 2391   0.648   0.665   1.272  3.3520  0.2855  1.8158
  798SOL     OW 2392   1.214   0.525   0.946 -0.2380  0.0774  1.1300
  798SOL    HW1 2393   1.211   0.613   1.008 -2.0128  1.3294 -0.6665
  798SOL    HW2 2394   1.243   0.541   0.846  1.0393  0.6631  2.8031
  799SOL     OW 2395   1.788   2.711   1.051  0.0326  0.1172  0.4339
  799SOL    HW1 2396   1.757   2.621   1.099  0.7253 -1.4849 -1.1083
  799SOL    HW2 2397   1.848   2.685   0.966 -3.5738 -2.5080 -1.1868
  800SOL     OW 2398   2.981   0.835   1.855 -0.4320  0.0652  0.1511
  800SOL    HW1 2399   3.005   0.936   1.855 -2.8832 -1.9497  0.0457
  800SOL    HW2 2400   2.955   0.798   1.947  1.1439  0.8309 -2.2762
  801SOL     OW 2401   1.998   2.237   0.110  0.6316  0.0863 -0.2689
  801SOL    HW1 2402   1.989   2.305   0.032 -0.1286 -0.5114  0.5695
  801SOL    HW2 2403   2.068   2.161   0.088  1.6174 -1.0255  0.9292
  802SOL     OW 2404   0.684   0.633   2.533  0.2018 -1.0914 -0.4057
  802SOL    HW1 2405   0.738   0.651   2.446  0.2530  0.8402  0.5430
  802SOL    HW2 2406   0.584   0.623   2.517  1.0723  0.7812  1.6771
  803SOL     OW 2407   0.952   0.104   0.894 -0.1086 -0.5226  0.3214
  803SOL    HW1 2408   1.022   0.163   0.951  0.9900 -0.2575  1.8270
  803SOL    HW2 2409   0.911   0.150   0.807 -1.1943  1.6849 -0.9161
  804SOL     OW 2410   0.338   0.023   2.193  0.1820 -0.1893  0.4701
  804SOL    HW1 2411   0.328   0.122   2.230  0.6087 -0.5517 -0.4696
  804SOL    HW2 2412   0.272  -0.001   2.116  2.5245  0.3411  1.2475
  805SOL     OW 2413   2.393   0.342   0.324 -0.0158 -0.4775 -0.6220
  805SOL    HW1 2414   2.472   0.349   0.387 -2.0697 -0.6661  0.0040
  805SOL    HW2 2415   2.414   0.297   0.236 -1.0243  0.9979  0.3390
  806SOL     OW 2416   0.638   2.661   1.975  0.2487 -0.1806  0.6683
  806SOL    HW1 2417   0.564   2.715   2.018  0.0909 -0.8447 -3.0174
  806SOL    HW2 2418   0.709   2.720   1.926  1.7632 -0.0315  0.9665
  807SOL     OW 2419   2.557   0.912   0.511  0.4839  0.1063  0.2787
  807SOL    HW1 2420   2.639   0.846   0.515  3.4595 -0.4709 -2.3414
  807SOL    HW2 2421   2.549   0.957   0.416 -0.3055 -1.4063  1.2028
  808SOL     OW 2422   0.697   2.020   2.902 -0.2230 -0.0555 -0.5829
  808SOL    HW1 2423   0.616   2.064   2.954 -0.5973  2.2197  1.5748
  808SOL    HW2 2424   0.719   1.918   2.923  0.1437 -1.1665 -0.8989
  809SOL     OW 2425   2.552   2.012   1.910 -0.1358  0.4918  0.2065
  809SOL    HW1 2426   2.643   2.046   1.942 -1.4751 -0.2217 -1.1348
  809SOL    HW2 2427   2.552   2.027   1.806  1.3796  1.8657  1.3248
  810SOL     OW 2428   2.197   1.189   0.484  0.2150  0.3510  0.0965
  810SOL    HW1 2429   2.116   1.130   0.479 -0.0608  4.1852 -0.6167
  810SOL    HW2 2430   2.176   1.280   0.523  0.3779 -0.5403  0.6976
  811SOL     OW 2431   1.243   2.516   1.162 -0.1274 -0.2110  0.4218
  811SOL    HW1 2432   1.223   2.425   1.194  1.1209  0.7048 -0.1472
  811SOL    HW2 2433   1.301   2.564   1.223 -0.0839 -0.8101 -1.0405
  812SOL     OW 2434   1.460   0.754   1.998  0.3066 -0.5031  0.1435
  812SOL    HW1 2435   1.375   0.786   2.039  3.9523  3.3054 -0.1759
  812SOL    HW2 2436   1.498   0.826   1.934 -0.7467 -2.4855 -0.9380
  813SOL     OW 2437   1.619   2.057   2.394 -0.2128  0.2902  0.0470
  813SOL    HW1 2438   1.718   2.067   2.416  0.5397 -0.7895  1.0494
  813SOL    HW2 2439   1.607   2.030   2.294 -0.8048  0.1961 -2.9119
  814SOL     OW 2440   2.980   1.702   2.901 -0.4343 -0.3219 -0.0878
  814SOL    HW1 2441   3.053   1.638   2.936 -2.9127 -0.0548  0.4623
  814SOL    HW2 2442   2.989   1.793   2.952  2.4353  0.0991  0.3203
  815SOL     OW 2443   2.159   2.878   2.726 -0.4717  0.1814  0.4543
  815SOL    HW1 2444   2.126   2.808   2.799  0.0275  1.8834  1.5668
  815SOL    HW2 2445   2.256   2.913   2.747 -0.6265  1.2080 -0.3286
  816SOL     OW 2446   1.497   0.423   1.675  0.9183  0.6154  0.2385
  816SOL    HW1 2447   1.539   0.326   1.669  0.4686  0.7218  1.7530
  816SOL    HW2 2448   1.442   0.430   1.760  0.2657 -0.5553 -0.2928
  817SOL     OW 2449   0.371   1.255   2.556  0.4935 -0.0915  0.2183
  817SOL    HW1 2450   0.268   1.270   2.528 -2.2871 -0.3916  0.4675
  817SOL    HW2 2451   0.437   1.280   2.479  2.3081 -2.5948 -0.1657
  818SOL     OW 2452   1.993   0.777   0.462 -0.5378 -0.1606  0.3882
  818SOL    HW1 2453   2.096   0.810   0.453  2.0050  0.7890  2.2572
  818SOL    HW2 2454   1.945   0.816   0.547 -2.4859  0.7745 -0.1861
  819SOL     OW 2455   2.814   2.893   3.012  0.9882 -0.5486  0.2283
  819SOL    HW1 2456   2.893   2.837   2.987 -1.3159  1.6786  0.0935
  819SOL    HW2 2457   2.733   2.854   2.973  0.1175  3.1456 -1.0146
  820SOL     OW 2458   1.199   1.080   0.561 -0.2825 -0.7941 -0.6312
  820SOL    HW1 2459   1.271   1.159   0.578  1.0833  2.6973  0.1199
  820SOL    HW2 2460   1.207   1.001   0.635 -2.7037 -3.2453  2.7992
  821SOL     OW 2461   0.029   1.223   0.759  0.3963 -0.4321  0.4399
  821SOL    HW1 2462  -0.028   1.231   0.841  0.1048 -1.5890 -1.1886
  821SOL    HW2 2463   0.075   1.316   0.736  1.5803  0.3538 -0.1959
  822SOL     OW 2464   2.569   1.771   2.451  0.0270  0.0231  0.0259
  822SOL    HW1 2465   2.534   1.836   2.527 -1.7899 -1.5021 -0.9563
  822SOL    HW2 2466   2.491   1.745   2.386 -0.9890 -0.8820 -0.6678
  823SOL     OW 2467   2.005   0.901   1.202  0.3720 -0.2119 -0.0588
  823SOL    HW1 2468   2.009   0.884   1.311  1.4519 -1.8231  1.2153
  823SOL    HW2 2469   1.953   0.829   1.149 -1.2824  0.6551  0.1853
  824SOL     OW 2470   0.210   1.809   2.853 -0.1993 -0.3362  0.1128
  824SOL    HW1 2471   0.186   1.802   2.952  1.4727 -2.3186 -0.0671
  824SOL    HW2 2472   0.267   1.891   2.827  0.9740 -0.4763  0.5340
  825SOL     OW 2473   1.262   1.030   0.282  0.1104  0.1165  0.0332
  825SOL    HW1 2474   1.255   1.129   0.244 -3.6234 -1.7604  0.0631
  825SOL    HW2 2475   1.238   1.022   0.383 -2.5836 -0.0755  0.6989
  826SOL     OW 2476   1.978   0.672   1.608  0.0937  0.5955  0.3154
  826SOL    HW1 2477   2.060   0.610   1.631 -0.8478 -1.5359  2.2618
  826SOL    HW2 2478   1.893   0.620   1.572  1.6016 -3.2604  1.4810
  827SOL     OW 2479   0.732   1.210   0.510 -0.1137  0.1592 -0.4332
  827SOL    HW1 2480   0.814   1.147   0.495  0.8920  0.1586 -0.2839
  827SOL    HW2 2481   0.639   1.158   0.506 -1.3309 -3.1465  0.4831
  828SOL     OW 2482   2.733   0.162   1.643  0.3043 -0.2408  0.4790
  828SOL    HW1 2483   2.659   0.124   1.579  1.6245 -2.8635  0.0760
  828SOL    HW2 2484   2.704   0.159   1.742  0.3090  1.1393 -2.0190
  829SOL     OW 2485   2.909   2.369   2.884  0.4201 -0.0101  0.4052
  829SOL    HW1 2486   2.828   2.355   2.950  1.4986  1.5824  0.4917
  829SOL    HW2 2487   2.917   2.471   2.864 -2.4745  0.9443 -3.3001
  830SOL     OW 2488   2.986   0.937   2.959  0.6010 -0.0064 -0.0530
  830SOL    HW1 2489   2.987   1.032   2.996  1.2980 -1.0517  0.7280
  830SOL    HW2 2490   2.960   0.872   3.036 -0.2113  1.5418 -0.0303
  831SOL     OW 2491   3.093   0.579   0.447 -0.2133 -0.4045 -0.2438
  831SOL    HW1 2492   3.093   0.500   0.514 -2.0410 -1.8620 -2.1575
  831SOL    HW2 2493   3.130   0.546   0.356 -2.5437  1.9385 -1.6627
  832SOL     OW 2494   1.795   0.714   0.042  0.1718 -0.4878  0.1889
  832SOL    HW1 2495   1.701   0.752   0.016 -2.7364 -2.4828 -0.4908
  832SOL    HW2 2496   1.811   0.622   0.006 -1.7263  0.3545  0.7130
  833SOL     OW 2497   2.364   2.127   0.529  0.0603  0.1333 -0.7949
  833SOL    HW1 2498   2.275   2.075   0.520  0.6771  0.4785  0.6605
  833SOL    HW2 2499   2.436   2.059   0.501 -1.3432 -0.0165 -0.5667
  834SOL     OW 2500   0.066   0.074   0.575 -0.3870  0.1067 -0.2300
  834SOL    HW1 2501   0.146   0.021   0.533 -2.1478 -1.2670  1.6578
  834SOL    HW2 2502   0.017   0.130   0.508  1.4753 -0.4095  0.5758
  835SOL     OW 2503   2.505   1.704   1.101  0.6694  0.3892 -0.2397
  835SOL    HW1 2504   2.550   1.633   1.156  1.7090  1.1044 -0.9906
  835SOL    HW2 2505   2.583   1.757   1.054 -0.1882 -0.6316 -0.4113
  836SOL     OW 2506   1.559   0.865   2.594  0.3343  0.0026 -0.2730
  836SOL    HW1 2507   1.457   0.876   2.600  0.6233  0.9499 -2.1783
  836SOL    HW2 2508   1.596   0.912   2.507  0.7005 -0.0304 -4.6415
  837SOL     OW 2509   1.674   0.057   0.595 -0.2688 -0.6359  0.9660
  837SOL    HW1 2510   1.671   0.152   0.631  1.7859 -0.3353  0.4120
  837SOL    HW2 2511   1.604   0.036   0.524  0.6397 -0.0213  1.4259
  838SOL     OW 2512   1.192   1.420   2.685  0.4882 -0.5992 -0.3269
  838SOL    HW1 2513   1.190   1.505   2.742  1.5632 -0.1853 -3.1091
  838SOL    HW2 2514   1.097   1.408   2.642  0.8525 -3.5144  0.4368
  839SOL     OW 2515   1.656   0.397   0.963 -1.0637 -0.1849  0.7262
  839SOL    HW1 2516   1.611   0.483   1.003  0.9780  1.8936 -1.3911
  839SOL    HW2 2517   1.594   0.318   0.973  1.4121  2.5804 -1.0647
  840SOL     OW 2518   2.661   2.955   1.638  0.2063 -0.0788  0.1597
  840SOL    HW1 2519   2.610   3.043   1.628 -1.5251 -1.5126 -2.9517
  840SOL    HW2 2520   2.653   2.918   1.734 -0.8274  1.1670  1.8598
  841SOL     OW 2521   1.536   0.841   3.070 -0.1353  0.2794 -0.2484
  841SOL    HW1 2522   1.445   0.845   3.119  1.9095  1.4962 -3.8406
  841SOL    HW2 2523   1.531   0.895   2.979 -3.3327 -0.3011  1.5672
  842SOL     OW 2524   0.803   1.620   1.022 -0.1345 -0.3698  0.2740
  842SOL    HW1 2525   0.771   1.712   1.060  0.2767  0.2897  0.9084
  842SOL    HW2 2526   0.725   1.570   0.974  1.1316  2.5555  0.6297
  843SOL     OW 2527   0.117   0.089   1.444 -0.1080 -0.4644 -0.1120
  843SOL    HW1 2528   0.204   0.129   1.488  1.1114  0.5086 -0.0164
  843SOL    HW2 2529   0.137   0.001   1.398 -0.5561  0.8461  0.3037
  844SOL     OW 2530   0.723   2.443   0.208  0.7721  0.2898 -0.2425
  844SOL    HW1 2531   0.673   2.479   0.292  0.4618 -2.6902  1.3499
  844SOL    HW2 2532   0.671   2.452   0.117 -0.0840 -2.2909 -0.0245
  845SOL     OW 2533   1.737   0.012   1.297 -0.4894  0.2336  0.5092
  845SOL    HW1 2534   1.722  -0.001   1.400  0.2727  0.5203 -0.6101
  845SOL    HW2 2535   1.740   0.107   1.269  0.6963  1.3505  1.4330
  846SOL     OW 2536   1.693   3.006   0.888  0.1012 -0.0410  0.0031
  846SOL    HW1 2537   1.697   2.985   0.786 -0.1669 -0.4656 -1.7587
  846SOL    HW2 2538   1.780   2.970   0.941  1.8109  0.4601  0.0156
  847SOL     OW 2539   2.072   1.572   0.191  0.0159 -0.5359  0.0375
  847SOL    HW1 2540   2.016   1.525   0.270 -0.4201  0.2821  2.6457
  847SOL    HW2 2541   2.018   1.578   0.107 -0.4819  1.2785  2.1758
  848SOL     OW 2542   2.483   0.800   2.654 -0.2517  0.1033  0.5060
  848SOL    HW1 2543   2.469   0.901   2.645  2.3073 -2.9049 -0.8415
  848SOL    HW2 2544   2.411   0.733   2.621  1.0595  0.9526  0.8576
  849SOL     OW 2545   2.356   0.835   2.283 -0.2643  0.0091 -0.0090
  849SOL    HW1 2546   2.427   0.788   2.227 -1.5215 -1.6861  3.8951
  849SOL    HW2 2547   2.330   0.778   2.372 -2.3733  1.3144  1.5010
  850SOL     OW 2548   1.505   0.245   1.263  0.2238 -0.5489  0.2322
  850SOL    HW1 2549   1.528   0.221   1.167  2.2994 -0.5290  0.1316
  850SOL    HW2 2550   1.493   0.158   1.319 -1.4655  0.9046  1.0183
  851SOL     OW 2551   0.440   1.672   0.629 -0.2765  0.1076  0.3856
  851SOL    HW1 2552   0.446   1.772   0.663 -2.2988 -2.7836  3.8645
  851SOL    HW2 2553   0.532   1.634   0.605 -0.8925  1.7541  0.7146
  852SOL     OW 2554   0.853   2.171   1.789  0.0079 -0.2734 -0.1564
  852SOL    HW1 2555   0.836   2.255   1.721  2.2136  0.0855  1.5922
  852SOL    HW2 2556   0.787   2.171   1.866  0.3726 -0.0248 -1.9031
  853SOL     OW 2557   2.527   1.502   2.594  0.0933 -0.0001 -0.2580
  853SOL    HW1 2558   2.481   1.422   2.550 -0.5863  1.8893  1.7541
  853SOL    HW2 2559   2.594   1.546   2.533 -3.1801 -1.7620  1.9770
  854SOL     OW 2560   2.435   1.473   1.743 -0.5357  0.1432 -0.2727
  854SOL    HW1 2561   2.504   1.493   1.670 -1.9006  2.9667  1.1512
  854SOL    HW2 2562   2.377   1.389   1.733  0.5334  0.6688 -1.4717
  855SOL     OW 2563   2.048   2.344   0.961  0.4964  0.4263  0.3070
  855SOL    HW1 2564   2.089   2.438   0.931  1.6223  0.1254  1.3816
  855SOL    HW2 2565   2.092   2.314   1.050  0.3705  2.5626 -2.3766
  856SOL     OW 2566   1.416   1.452   0.826  0.0465 -0.3364 -0.4632
  856SOL    HW1 2567   1.437   1.548   0.862  0.9985 -0.1843  2.9026
  856SOL    HW2 2568   1.370   1.395   0.902  1.2859  0.8897  0.4656
  857SOL     OW 2569   2.921   2.523   1.064  0.1782  0.6598  0.0615
  857SOL    HW1 2570   2.880   2.434   1.097  0.0434  0.5678  0.3113
  857SOL    HW2 2571   2.959   2.511   0.970 -1.4021 -0.1653 -1.1951
  858SOL     OW 2572   2.294   2.122   1.776  0.2225 -0.3321 -0.1673
  858SOL    HW1 2573   2.199   2.135   1.746 -0.0798 -1.5304  0.8672
  858SOL    HW2 2574   2.356   2.062   1.720 -1.1929 -0.5242  1.5421
  859SOL     OW 2575   2.456   0.427   1.037  1.0037  0.3508 -0.0099
  859SOL    HW1 2576   2.533   0.458   0.971 -0.6319  0.8006  0.4005
  859SOL    HW2 2577   2.479   0.359   1.112 -0.1886  1.8029  2.3603
  860SOL     OW 2578   1.870   2.785   0.533  0.9399  0.1766 -0.0873
  860SOL    HW1 2579   1.887   2.742   0.442 -4.0486  0.6573 -1.3429
  860SOL    HW2 2580   1.910   2.880   0.551 -0.5184  0.8014  0.6588
  861SOL     OW 2581   0.986   2.589   2.817 -0.0869  0.4352  0.7418
  861SOL    HW1 2582   1.071   2.645   2.827  1.6269 -2.2869  1.4318
  861SOL    HW2 2583   0.967   2.542   2.905  2.4441  2.2438 -0.0098
  862SOL     OW 2584   2.961   2.551   1.564 -0.2386 -0.4863  0.8914
  862SOL    HW1 2585   3.005   2.593   1.649 -1.2688 -1.4138  0.4064
  862SOL    HW2 2586   2.862   2.575   1.556 -0.0917 -0.5265  1.5834
  863SOL     OW 2587   1.900   2.670   0.207  0.4050  1.0297 -0.8089
  863SOL    HW1 2588   1.975   2.596   0.210  0.5241 -0.1929 -2.8558
  863SOL    HW2 2589   1.812   2.623   0.195  0.4106 -1.2650  2.6501
  864SOL     OW 2590   1.919   1.105   2.991  0.0860 -0.1898 -0.2716
  864SOL    HW1 2591   1.942   1.088   2.893  2.8476  0.3322  1.2378
  864SOL    HW2 2592   2.008   1.093   3.045  0.9572 -0.3300 -0.9066
  865SOL     OW 2593   2.177   1.700   0.601  0.3419  0.2843  0.5422
  865SOL    HW1 2594   2.186   1.745   0.692  2.4373  1.3112 -0.3455
  865SOL    HW2 2595   2.160   1.595   0.589  0.6600 -1.0466 -1.0126
  866SOL     OW 2596   2.930   2.807   1.023  0.7463 -0.6190 -0.4114
  866SOL    HW1 2597   2.987   2.833   0.940 -1.0251  0.5105 -1.4254
  866SOL    HW2 2598   2.919   2.701   1.029 -1.0360 -2.7473 -0.8522
  867SOL     OW 2599   0.405   1.363   0.830 -0.7941  0.0207  0.0757
  867SOL    HW1 2600   0.423   1.268   0.800 -1.6363  0.3256 -1.8553
  867SOL    HW2 2601   0.320   1.405   0.784 -2.1868  1.7536  0.8282
  868SOL     OW 2602   0.844   1.899   2.018 -0.0520  0.4042  0.4885
  868SOL    HW1 2603   0.815   1.854   2.107 -0.9369  0.2268 -1.4615
  868SOL    HW2 2604   0.811   2.002   2.007 -0.2618 -0.2561 -3.1932
  869SOL     OW 2605   2.536   1.953   1.628 -0.4027 -0.2495 -0.2233
  869SOL    HW1 2606   2.613   1.886   1.646  3.2237  1.4123  2.1701
  869SOL    HW2 2607   2.491   1.938   1.531 -2.8878 -0.2480 -2.2523
  870SOL     OW 2608   2.361   2.523   1.251 -0.4349 -0.0323  0.4782
  870SOL    HW1 2609   2.300   2.444   1.216 -1.4426  0.3970  2.2145
  870SOL    HW2 2610   2.448   2.482   1.301  1.1867 -0.0762  1.1554
  871SOL     OW 2611   2.997   1.996   0.527 -0.5348  0.2110 -0.0847
  871SOL    HW1 2612   2.935   2.070   0.487 -1.9920 -0.6887 -0.4683
  871SOL    HW2 2613   2.990   1.900   0.484  1.7246 -1.9581 -0.5274
  872SOL     OW 2614   2.196   0.524   1.710  0.3269  0.2587  0.5209
  872SOL    HW1 2615   2.202   0.565   1.811 -1.2036  2.5501 -1.5021
  872SOL    HW2 2616   2.283   0.472   1.691 -1.8232  0.6352  1.2654
  873SOL     OW 2617   1.688   2.094   2.872 -0.3434  0.6691  0.3044
  873SOL    HW1 2618   1.653   2.179   2.915  0.0519 -1.9018 -1.1057
  873SOL    HW2 2619   1.658   2.070   2.778  1.7606  2.1944  2.6008
  874SOL     OW 2620   0.590   2.507   0.755 -0.7203 -0.7125 -0.0376
  874SOL    HW1 2621   0.595   2.605   0.785  0.2769 -1.8290 -0.2672
  874SOL    HW2 2622   0.690   2.470   0.749  1.4122  3.1549  2.0609
  875SOL     OW 2623   2.336   1.556   1.442 -0.0803  0.4227 -0.4189
  875SOL    HW1 2624   2.429   1.599   1.471  1.2634  1.4172 -0.5206
  875SOL    HW2 2625   2.307   1.589   1.349 -3.4734 -0.8305  2.8555
  876SOL     OW 2626   0.154   2.248   2.744  0.4463  0.5197  0.0124
  876SOL    HW1 2627   0.177   2.172   2.807 -0.3239 -0.7611  0.0976
  876SOL    HW2 2628   0.212   2.333   2.747  2.8886  2.4681 -1.4349
  877SOL     OW 2629   2.811   2.664   0.610  0.2941 -0.4077  0.1172
  877SOL    HW1 2630   2.820   2.765   0.627  5.0347 -1.6034  0.0086
  877SOL    HW2 2631   2.884   2.610   0.652 -1.2058 -1.4683  2.0255
  878SOL     OW 2632   2.747   1.502   2.328 -0.4150 -0.5342  0.9990
  878SOL    HW1 2633   2.735   1.602   2.321  1.1244 -1.7667  3.2133
  878SOL    HW2 2634   2.792   1.469   2.413  2.2438  0.4044 -1.4985
  879SOL     OW 2635   2.438   3.044   1.263  0.4359 -0.1572 -0.3079
  879SOL    HW1 2636   2.478   2.949   1.245  1.5225  2.1680  0.0403
  879SOL    HW2 2637   2.335   3.044   1.236 -1.4583  1.2595 -1.7842
  880SOL     OW 2638   0.588   0.496   2.221  0.4420 -0.0633 -0.6882
  880SOL    HW1 2639   0.566   0.454   2.312 -0.1077 -1.3003 -0.0967
  880SOL    HW2 2640   0.571   0.441   2.137  1.7686  1.5304  0.6618
  881SOL     OW 2641   0.868   0.080   0.464  0.4405  0.0125 -0.1924
  881SOL    HW1 2642   0.924  -0.009   0.470 -0.2537 -0.8025  0.5190
  881SOL    HW2 2643   0.849   0.108   0.367  2.2364  0.3477  0.6525
  882SOL     OW 2644   2.750   1.792   1.672 -0.1798  0.3359 -0.0645
  882SOL    HW1 2645   2.803   1.716   1.629  0.1682  0.0292  1.5865
  882SOL    HW2 2646   2.754   1.783   1.779  2.0863 -1.0676 -0.5347
  883SOL     OW 2647   0.938   0.581   0.967  0.1220 -0.7727 -0.2971
  883SOL    HW1 2648   0.910   0.640   1.048 -0.8895  2.1327 -1.5495
  883SOL    HW2 2649   1.030   0.538   0.982  0.2302  0.9246 -0.2253
  884SOL     OW 2650   1.164   1.921   1.065 -0.1250 -0.1024 -0.1319
  884SOL    HW1 2651   1.159   1.888   0.969  1.3440  0.0680  0.3803
  884SOL    HW2 2652   1.078   1.969   1.101 -0.5638  0.2557 -0.4941
  885SOL     OW 2653   2.318   1.791   2.306  0.0194 -0.3015 -0.3675
  885SOL    HW1 2654   2.262   1.747   2.388  0.8317 -1.8626  0.8670
  885SOL    HW2 2655   2.328   1.896   2.311 -3.5458  1.1068  1.1131
  886SOL     OW 2656   2.683   0.459   1.810 -0.4407 -0.0110  0.0121
  886SOL    HW1 2657   2.727   0.389   1.865  1.4865  0.7266  0.9234
  886SOL    HW2 2658   2.750   0.534   1.777 -0.3443  1.4961 -0.8407
  887SOL     OW 2659   0.201   2.055   1.300  0.0939 -0.5557 -0.5189
  887SOL    HW1 2660   0.137   2.008   1.235 -0.8958 -0.2009  1.7823
  887SOL    HW2 2661   0.185   2.157   1.291  0.8533 -0.3303 -2.4236
  888SOL     OW 2662   0.582   1.302   1.496 -0.2362  0.3389 -0.1477
  888SOL    HW1 2663   0.635   1.370   1.438 -2.3428  2.7591 -0.4470
  888SOL    HW2 2664   0.530   1.234   1.444  0.8138  3.7891 -0.2000
  889SOL     OW 2665   0.834   2.402   2.133  0.0112  0.0906  0.0641
  889SOL    HW1 2666   0.751   2.373   2.081  1.6810 -1.1594  2.7496
  889SOL    HW2 2667   0.921   2.416   2.083 -0.5343 -0.3012  0.1461
  890SOL     OW 2668   2.326   2.427   0.185 -0.1750 -0.2563  0.7998
  890SOL    HW1 2669   2.361   2.461   0.095 -1.7585  1.3487  1.0915
  890SOL    HW2 2670   2.221   2.444   0.196 -1.5730 -2.2674  0.2042
  891SOL     OW 2671   2.590   1.665   0.713  0.7937  0.5209  0.0157
  891SOL    HW1 2672   2.580   1.587   0.783 -1.3424 -0.9235  0.4960
  891SOL    HW2 2673   2.519   1.664   0.636 -0.3322  0.4712  0.0155
  892SOL     OW 2674   0.311   0.288   2.240 -0.3581 -0.4707  0.0382
  892SOL    HW1 2675   0.294   0.357   2.160  0.1220  2.4066  2.8436
  892SOL    HW2 2676   0.377   0.318   2.318  0.2883  2.9188  1.2736
  893SOL     OW 2677   1.622   0.238   2.680  0.0383  0.1499  0.2600
  893SOL    HW1 2678   1.704   0.297   2.715 -0.0236 -1.6757  0.9691
  893SOL    HW2 2679   1.543   0.301   2.675  2.4857  0.6784  0.3241
  894SOL     OW 2680   2.162   2.043   0.061 -0.5770  0.7804 -0.2812
  894SOL    HW1 2681   2.144   1.990  -0.030 -0.4133  2.1009 -0.4601
  894SOL    HW2 2682   2.167   1.981   0.147  0.2473 -0.9126 -0.7261
  895SOL     OW 2683   2.839   1.404   0.832  0.1213 -0.2515  0.3495
  895SOL    HW1 2684   2.878   1.328   0.892 -2.0398 -1.8782  1.2963
  895SOL    HW2 2685   2.910   1.461   0.785 -1.6965 -4.0593  0.5223
  896SOL     OW 2686   1.698   1.795   1.178  0.1006 -0.4430 -0.3489
  896SOL    HW1 2687   1.779   1.824   1.121 -0.1404 -1.4817  0.3490
  896SOL    HW2 2688   1.611   1.852   1.160  2.4376  3.0781 -0.0737
  897SOL     OW 2689   0.329   0.509   3.053 -0.1172 -0.4700  0.3843
  897SOL    HW1 2690   0.273   0.523   2.964 -0.2306  0.6755  0.0170
  897SOL    HW2 2691   0.413   0.569   3.054  0.2864 -2.7428 -0.9367
  898SOL     OW 2692   0.565   2.926   1.002  0.4705  0.2215 -0.3748
  898SOL    HW1 2693   0.505   2.922   1.087  0.7743  0.9083  0.2053
  898SOL    HW2 2694   0.649   2.989   1.020  2.1872 -0.9423 -2.7093
  899SOL     OW 2695   2.717   0.928   1.283 -0.3440  0.1485  0.0965
  899SOL    HW1 2696   2.682   0.927   1.190 -0.9726  1.5119 -0.5704
  899SOL    HW2 2697   2.816   0.956   1.298  0.5648  1.9660 -1.9057
  900SOL     OW 2698   0.993   2.345   2.380  0.2003  0.7047  0.3070
  900SOL    HW1 2699   0.928   2.379   2.305 -2.2306  0.1908  0.2398
  900SOL    HW2 2700   0.958   2.344   2.477  0.8202 -0.4559 -0.2896
  901SOL     OW 2701   2.008   2.479   1.351 -0.5137  0.1033 -0.1704
  901SOL    HW1 2702   1.956   2.462   1.264  2.1643  0.4306  0.0565
  901SOL    HW2 2703   2.097   2.425   1.361  3.0098 -0.0509 -0.9793
  902SOL     OW 2704   2.569   1.690   1.484 -0.2030 -0.6734 -0.3028
  902SOL    HW1 2705   2.617   1.728   1.571 -0.0581  0.9636  3.0008
  902SOL    HW2 2706   2.632   1.654   1.407  0.5268 -0.5738 -2.7727
  903SOL     OW 2707   0.280   2.442   1.999 -0.1348  0.5632 -0.4310
  903SOL    HW1 2708   0.185   2.403   2.025 -0.9380 -1.1004 -1.3919
  903SOL    HW2 2709   0.280   2.497   1.917  0.0638  0.5144 -0.2837
  904SOL     OW 2710   2.009   0.765   2.602 -0.7372  0.1283  0.2935
  904SOL    HW1 2711   1.917   0.735   2.639  2.1992 -0.6169 -2.9809
  904SOL    HW2 2712   2.012   0.755   2.494  0.2079  0.1191 -0.7401
  905SOL     OW 2713   2.789   0.033   2.537  0.2945  0.0328  0.5301
  905SOL    HW1 2714   2.870  -0.003   2.589 -2.1095  1.8951 -1.6353
  905SOL    HW2 2715   2.803   0.134   2.510  1.9942 -0.7719  0.5317
  906SOL     OW 2716   0.120   1.846   1.940 -0.1158  0.2201 -0.4616
  906SOL    HW1 2717   0.065   1.857   1.852 -1.6034  0.7091  1.6454
  906SOL    HW2 2718   0.220   1.863   1.939 -0.4775  2.2929 -0.0307
  907SOL     OW 2719   0.190   2.384   1.058  0.2730 -0.1261  0.2261
  907SOL    HW1 2720   0.270   2.445   1.049 -0.8972  0.7935  1.3945
  907SOL    HW2 2721   0.164   2.336   0.969 -1.9340  0.8819 -0.7774
  908SOL     OW 2722   2.700   2.827   0.376 -0.0556 -0.4494 -0.5659
  908SOL    HW1 2723   2.702   2.902   0.301 -1.8651  2.9918  0.2014
  908SOL    HW2 2724   2.660   2.739   0.339 -2.1121 -0.3247 -1.3368
  909SOL     OW 2725   0.688   0.906   2.638 -0.5540  0.6225  0.0427
  909SOL    HW1 2726   0.687   0.801   2.641  1.0676 -2.5304  0.6112
  909SOL    HW2 2727   0.774   0.935   2.585  1.6943 -1.7950  4.1734
  910SOL     OW 2728   1.732   1.804   2.082 -0.3163  0.2782  0.3676
  910SOL    HW1 2729   1.778   1.824   1.992 -2.1228 -0.7691  0.8928
  910SOL    HW2 2730   1.688   1.891   2.118  0.2287 -0.6280  0.6743
  911SOL     OW 2731   1.750   3.048   1.583  0.3895  0.0083 -0.1147
  911SOL    HW1 2732   1.841   3.007   1.555 -2.8683  2.1229  0.1273
  911SOL    HW2 2733   1.702   2.998   1.657  0.1082 -0.9016 -2.1723
  912SOL     OW 2734   2.863   0.955   0.777  0.2322  0.2030  0.0562
  912SOL    HW1 2735   2.884   0.941   0.877  0.5305  1.1371 -0.6538
  912SOL    HW2 2736   2.794   1.031   0.764  0.2376  1.1101  0.1483
  913SOL     OW 2737   2.579   1.283   1.541  0.3225 -0.1330 -0.5167
  913SOL    HW1 2738   2.555   1.186   1.570  0.2214  0.6698  2.7831
  913SOL    HW2 2739   2.619   1.282   1.447 -0.0517  0.9798 -0.4446
  914SOL     OW 2740   2.801   0.482   1.304 -0.4517  0.0244  0.0883
  914SOL    HW1 2741   2.794   0.385   1.337 -2.4752  0.5063 -1.4022
  914SOL    HW2 2742   2.747   0.540   1.369 -1.9018  0.3365  1.7290
  915SOL     OW 2743   1.179   0.811   1.042 -0.4733 -0.3725 -0.0826
  915SOL    HW1 2744   1.250   0.832   1.111  0.5451  0.8474  1.4073
  915SOL    HW2 2745   1.087   0.790   1.089 -0.7414 -0.5078  1.1161
  916SOL     OW 2746   0.603   0.031   0.589  0.3297  0.1402 -0.0559
  916SOL    HW1 2747   0.588   0.098   0.667 -1.0834 -0.8276 -1.2792
  916SOL    HW2 2748   0.646   0.074   0.506 -0.3760 -1.3261 -0.7792
  917SOL     OW 2749   2.734   2.597   1.878  0.1656  0.0963 -0.1894
  917SOL    HW1 2750   2.688   2.693   1.906 -0.4270  4.0536 -0.9503
  917SOL    HW2 2751   2.781   2.597   1.789 -1.3015 -0.1117 -0.7774
  918SOL     OW 2752   1.080   2.192   3.087  0.4730  0.5549 -0.0856
  918SOL    HW1 2753   1.056   2.209   3.185  0.1037 -2.3439 -2.1234
  918SOL    HW2 2754   1.085   2.090   3.065 -0.3827  0.3499  0.9803
  919SOL     OW 2755   0.897   1.577   2.779 -0.0353  0.3234  0.1857
  919SOL    HW1 2756   0.911   1.650   2.704  1.1383  0.9776  0.5153
  919SOL    HW2 2757   0.863   1.487   2.734  0.9204 -0.2363  0.1284
  920SOL     OW 2758   1.221   2.028   2.465  0.0492 -0.6971  0.1556
  920SOL    HW1 2759   1.170   2.025   2.375 -1.3521 -2.6285  1.1044
  920SOL    HW2 2760   1.238   1.930   2.497 -0.7227 -3.9021 -0.8042
  921SOL     OW 2761   1.039   0.095   2.550 -0.0235  0.7528 -0.3748
  921SOL    HW1 2762   1.021   0.021   2.480  0.4609 -3.9057  0.5269
  921SOL    HW2 2763   0.982   0.176   2.536 -1.6936 -3.6145 -0.3865
  922SOL     OW 2764   2.124   2.431   2.788  0.7336  0.2558  0.2832
  922SOL    HW1 2765   2.111   2.329   2.783  1.3465  0.4716  1.5654
  922SOL    HW2 2766   2.105   2.471   2.693  1.0202 -2.4671  1.9545
  923SOL     OW 2767   1.202   2.733   0.222  0.5135 -0.0280 -0.1735
  923SOL    HW1 2768   1.285   2.775   0.269  0.0707  0.7811  0.6256
  923SOL    HW2 2769   1.210   2.633   0.217 -0.1314  0.8412  2.6431
  924SOL     OW 2770   2.901   1.591   0.070  0.8069  0.4711 -0.1573
  924SOL    HW1 2771   2.819   1.611   0.007  0.0308 -1.1567 -0.9402
  924SOL    HW2 2772   2.981   1.546   0.022  1.2060  0.4744  3.4890
  925SOL     OW 2773   0.079   2.892   1.625 -0.0082 -0.3126  0.1695
  925SOL    HW1 2774  -0.026   2.923   1.628  0.4841  0.4365 -1.2243
  925SOL    HW2 2775   0.124   2.912   1.534  0.1485  1.6504  1.8034
  926SOL     OW 2776   1.415   2.912   1.262  0.1154  0.2750 -0.2138
  926SOL    HW1 2777   1.450   2.903   1.162 -1.4179  1.1378 -1.3946
  926SOL    HW2 2778   1.411   3.013   1.287  0.8101 -1.5506 -1.1258
  927SOL     OW 2779   0.237   2.582   1.754  0.0357  0.5503 -0.4102
  927SOL    HW1 2780   0.185   2.519   1.691  1.3012 -2.3087 -0.0145
  927SOL    HW2 2781   0.290   2.658   1.705  0.3761  2.2173 -0.4775
  928SOL     OW 2782   1.607   2.043   2.132  0.0460  0.1541  0.1150
  928SOL    HW1 2783   1.637   2.140   2.103  1.3524 -1.8377  1.0581
  928SOL    HW2 2784   1.519   2.026   2.083  1.1770  0.4361  1.1557
  929SOL     OW 2785   2.387   2.421   2.853  0.2312 -0.1938  0.5075
  929SOL    HW1 2786   2.285   2.416   2.850  0.3136 -0.2550 -0.6468
  929SOL    HW2 2787   2.425   2.425   2.756  1.1648 -0.5189  0.4383
  930SOL     OW 2788   2.187   1.986   1.097 -0.5322  0.2857 -0.7038
  930SOL    HW1 2789   2.178   1.941   1.190 -0.7627  1.7778 -0.1382
  930SOL    HW2 2790   2.276   2.034   1.096 -0.4600 -2.7100  0.9663
  931SOL     OW 2791   0.560   1.755   2.674 -0.2914 -0.0982 -0.3910
  931SOL    HW1 2792   0.614   1.738   2.760 -2.1073  3.8306 -0.8565
  931SOL    HW2 2793   0.548   1.680   2.606 -3.4842 -1.6869  0.0273
  932SOL     OW 2794   0.503   0.108   2.935  0.0195  0.0879  0.7154
  932SOL    HW1 2795   0.587   0.125   2.879 -0.6447 -0.1119 -0.1765
  932SOL    HW2 2796   0.493   0.015   2.981 -1.2981  1.6712  1.0725
  933SOL     OW 2797   1.072   0.776   2.979 -0.2728 -0.6160  0.4329
  933SOL    HW1 2798   1.163   0.807   3.021  0.6503  0.0497  0.7194
  933SOL    HW2 2799   1.004   0.854   2.956 -1.4591  0.6467 -0.8714
  934SOL     OW 2800   0.873   2.979   2.800 -0.0792  0.5351  0.4571
  934SOL    HW1 2801   0.969   2.927   2.787 -0.2505 -2.9145  1.3917
  934SOL    HW2 2802   0.820   2.935   2.877  0.6825 -3.0602 -0.4795
  935SOL     OW 2803   3.050   0.527   0.910 -0.5081  0.1429 -1.1737
  935SOL    HW1 2804   3.040   0.473   0.817  0.9535  1.3908 -0.6845
  935SOL    HW2 2805   2.965   0.579   0.939  1.2662 -0.6764  1.1135
  936SOL     OW 2806   1.133   3.002   0.165  0.3010  0.1054 -0.3035
  936SOL    HW1 2807   1.168   3.020   0.067 -0.3225  1.1661  1.6392
  936SOL    HW2 2808   1.142   2.902   0.189 -0.7663 -1.2523  1.0897
  937SOL     OW 2809   1.940   2.704   2.100  0.1135  0.3414 -0.0548
  937SOL    HW1 2810   1.842   2.709   2.127 -1.7009 -0.9458 -1.2101
  937SOL    HW2 2811   1.944   2.710   1.997 -1.0894  0.2858  0.3064
  938SOL     OW 2812   2.731   2.213   1.522 -0.0632  0.1796 -0.3378
  938SOL    HW1 2813   2.654   2.270   1.566  1.4273  3.2123  0.2004
  938SOL    HW2 2814   2.776   2.145   1.585 -0.8400  1.1987 -0.7717
  939SOL     OW 2815   2.749   0.978   2.519  0.2040  0.0103  0.1255
  939SOL    HW1 2816   2.821   0.899   2.512  2.3492 -1.5332 -0.4129
  939SOL    HW2 2817   2.715   0.993   2.612  0.9891 -1.6282  0.2249
  940SOL     OW 2818   1.048   0.451   2.664  0.0489  0.0191  0.0678
  940SOL    HW1 2819   1.116   0.373   2.668  1.5634 -2.4638 -0.2601
  940SOL    HW2 2820   0.957   0.415   2.635 -2.3979 -0.5761 -0.8992
  941SOL     OW 2821   0.066   2.857   2.209 -0.2515  0.3048 -0.5252
  941SOL    HW1 2822   0.047   2.760   2.180  1.5061 -0.0069 -0.0965
  941SOL    HW2 2823   0.140   2.875   2.280 -0.9007 -0.7930  2.1508
  942SOL     OW 2824   0.104   0.083   2.511  0.2370 -0.2117 -0.5166
  942SOL    HW1 2825   0.171   0.101   2.594  0.3155  0.7053  2.0372
  942SOL    HW2 2826   0.082   0.176   2.467  0.9655  2.4129  1.5008
  943SOL     OW 2827   2.111   1.669   2.446  0.1057  0.3197 -0.6698
  943SOL    HW1 2828   2.145   1.571   2.466  0.6098  0.9938  0.5238
  943SOL    HW2 2829   2.041   1.691   2.367 -1.7694  2.0983 -1.7549
  944SOL     OW 2830   2.182   2.290   1.467 -0.1325 -0.2337 -0.6400
  944SOL    HW1 2831   2.240   2.366   1.491  1.3184 -0.3447 -2.4881
  944SOL    HW2 2832   2.117   2.259   1.545  0.3432  0.7114 -1.1677
  945SOL     OW 2833   0.653   1.436   0.354  0.2981 -0.5416  0.0449
  945SOL    HW1 2834   0.701   1.461   0.265 -1.0523  2.0950 -0.8416
  945SOL    HW2 2835   0.695   1.350   0.398 -0.1433  0.3656 -0.0088
  946SOL     OW 2836   0.324   0.992   2.654  0.3862 -0.0755  0.6864
  946SOL    HW1 2837   0.287   0.929   2.582 -0.7602 -1.0545 -1.4164
  946SOL    HW2 2838   0.326   1.093   2.629 -1.7669 -0.3036  1.9960
  947SOL     OW 2839   1.529   0.408   0.177  0.0980 -0.0321  0.1178
  947SOL    HW1 2840   1.544   0.323   0.239 -0.7958  0.1786  0.0860
  947SOL    HW2 2841   1.447   0.397   0.119 -2.2889 -0.5542  0.7443
  948SOL     OW 2842   2.008   3.088   2.124 -0.0719 -0.5212 -0.3024
  948SOL    HW1 2843   1.958   3.100   2.034 -0.9180 -0.8478  0.3564
  948SOL    HW2 2844   1.977   3.010   2.185 -0.8464  2.9623 -0.1546
  949SOL     OW 2845   0.630   2.546   0.454  0.9904 -0.0407 -0.1851
  949SOL    HW1 2846   0.644   2.643   0.419  2.1238 -0.1702  1.2408
  949SOL    HW2 2847   0.659   2.543   0.552 -1.8071  3.9920  0.2913
  950SOL     OW 2848   0.224   2.113   3.012 -0.9301  0.2003  0.0007
  950SOL    HW1 2849   0.141   2.179   3.024 -0.4986  1.9333  1.3050
  950SOL    HW2 2850   0.222   2.022   3.065 -1.4114 -0.1229  1.0166
  951SOL     OW 2851   1.165   2.817   2.797 -0.5161  0.1948  0.4216
  951SOL    HW1 2852   1.225   2.773   2.730 -2.3517 -4.0606  1.5906
  951SOL    HW2 2853   1.210   2.899   2.842  2.3002  2.1710 -2.4182
  952SOL     OW 2854   0.105   1.706   0.475 -0.3496 -0.4331  0.1719
  952SOL    HW1 2855   0.168   1.782   0.458  2.8347  0.4016  2.7235
  952SOL    HW2 2856   0.114   1.670   0.572  0.1960  3.6489  0.0782
  953SOL     OW 2857   2.480   1.727   0.165 -0.1495  0.2910 -0.4652
  953SOL    HW1 2858   2.429   1.640   0.185  2.0583  1.7462 -2.9360
  953SOL    HW2 2859   2.498   1.746   0.064 -2.5653 -2.0409 -1.2384
  954SOL     OW 2860   2.193   0.476   1.063 -0.2586  0.6252 -0.0651
  954SOL    HW1 2861   2.144   0.506   0.978 -1.3591 -1.2591  3.6533
  954SOL    HW2 2862   2.295   0.454   1.052  2.2002 -0.4796 -1.6451
  955SOL     OW 2863   0.213   2.660   1.289  0.1393  0.2601 -0.4137
  955SOL    HW1 2864   0.120   2.621   1.295  2.0431  1.1531 -1.3369
  955SOL    HW2 2865   0.255   2.651   1.194  0.6957  0.4962 -1.5129
  956SOL     OW 2866   2.736   2.467   2.495  0.1770  0.3841  0.1949
  956SOL    HW1 2867   2.770   2.369   2.482 -0.4630 -1.3303  0.1420
  956SOL    HW2 2868   2.763   2.533   2.417  1.6947 -1.8050  0.5160
  957SOL     OW 2869   1.562   2.005   2.661  0.4047  0.0726  0.1658
  957SOL    HW1 2870   1.561   1.901   2.684 -0.3705 -3.1205  1.9261
  957SOL    HW2 2871   1.551   2.031   2.557 -0.8872 -0.2225 -0.8879
  958SOL     OW 2872   2.651   2.299   3.000 -0.1816 -0.0853 -0.4026
  958SOL    HW1 2873   2.552   2.308   2.978 -0.6012 -4.4482  0.4841
  958SOL    HW2 2874   2.674   2.209   3.051 -0.1943  0.5930  0.4728
  959SOL     OW 2875   0.241   2.797   0.026  0.4724 -0.2966 -0.1749
  959SOL    HW1 2876   0.172   2.782   0.099  0.3442 -0.2528  0.1953
  959SOL    HW2 2877   0.288   2.707   0.005  0.8896 -1.4979  1.0446
  960SOL     OW 2878   1.953   0.445   2.001 -0.0009  0.1930  1.4181
  960SOL    HW1 2879   1.910   0.522   1.941 -0.7541 -1.3080  0.9258
  960SOL    HW2 2880   1.996   0.485   2.088  0.2128  3.8115  0.4678
  961SOL     OW 2881   2.680   1.949   1.034  0.6692  0.9597  0.1070
  961SOL    HW1 2882   2.606   1.977   0.964 -1.4501 -0.4016  1.2809
  961SOL    HW2 2883   2.674   1.995   1.130  2.5731  0.3585  2.8620
  962SOL     OW 2884   1.280   0.952   0.021 -0.2525  0.2443 -0.6128
  962SOL    HW1 2885   1.283   1.023  -0.049  0.0943  0.3442  2.5274
  962SOL    HW2 2886   1.256   0.986   0.116 -1.7059  1.1788 -1.2276
  963SOL     OW 2887   2.220   2.583   1.912 -0.6306 -0.3904  0.1101
  963SOL    HW1 2888   2.216   2.521   1.996  0.8957 -0.8523  2.4471
  963SOL    HW2 2889   2.286   2.665   1.921  0.0776  2.0275  1.3389
  964SOL     OW 2890   2.432   0.390   1.732 -0.4074 -0.2989  0.7758
  964SOL    HW1 2891   2.532   0.409   1.748  0.3636  0.1755  0.0310
  964SOL    HW2 2892   2.420   0.348   1.637  1.4023 -0.3075  0.0473
  965SOL     OW 2893   2.685   2.991   0.150 -0.3648 -0.4272  0.8841
  965SOL    HW1 2894   2.754   2.944   0.081  1.1493 -2.0446  1.2088
  965SOL    HW2 2895   2.589   3.009   0.116  1.5636  3.7017  0.9360
  966SOL     OW 2896   2.540   2.643   2.192  0.0378  0.1229  0.7270
  966SOL    HW1 2897   2.470   2.578   2.149 -0.8936  0.4086 -0.0359
  966SOL    HW2 2898   2.509   2.740   2.179  1.7599 -0.3102 -0.8338
  967SOL     OW 2899   2.736   2.859   2.474 -0.4589  0.1568 -0.1660
  967SOL    HW1 2900   2.775   2.788   2.406 -1.0140 -2.0912  0.6592
  967SOL    HW2 2901   2.792   2.945   2.478 -1.4979 -1.8012  0.9748
  968SOL     OW 2902   1.993   1.048   2.723 -0.6295  0.1499 -0.0198
  968SOL    HW1 2903   1.955   1.130   2.667  3.1993  0.9213  0.5669
  968SOL    HW2 2904   1.991   0.964   2.662 -1.5487  2.1455  0.7127
  969SOL     OW 2905   2.725   2.351   1.177  0.3414  0.3221  0.3136
  969SOL    HW1 2906   2.660   2.378   1.103  1.7400  0.5081  1.5545
  969SOL    HW2 2907   2.771   2.259   1.159  0.4258 -0.0487  1.5208
  970SOL     OW 2908   1.120   2.124   1.786 -0.0428 -0.0485 -0.0398
  970SOL    HW1 2909   1.018   2.143   1.774  1.1161 -0.6223  0.2736
  970SOL    HW2 2910   1.150   2.174   1.872 -1.7125 -3.0495 -1.2841
  971SOL     OW 2911   2.825   2.094   1.941  0.1643  0.2411 -0.2593
  971SOL    HW1 2912   2.824   2.196   1.966  0.6203 -1.4269  1.5277
  971SOL    HW2 2913   2.873   2.071   1.851 -1.8785 -3.5599  1.1489
  972SOL     OW 2914   2.066   2.447   0.260  0.7183 -0.0202  0.1977
  972SOL    HW1 2915   2.043   2.352   0.224 -0.3680 -0.6066  2.3909
  972SOL    HW2 2916   2.064   2.450   0.367  1.0319 -0.9382  0.1298
  973SOL     OW 2917   1.312   1.064   1.883 -0.4586 -0.4981 -0.3450
  973SOL    HW1 2918   1.254   1.014   1.820 -0.1531  0.0814  0.5026
  973SOL    HW2 2919   1.288   1.167   1.882  0.4993  0.4160 -0.2987
  974SOL     OW 2920   1.651   0.560   1.933 -0.5599  0.5728  0.8129
  974SOL    HW1 2921   1.746   0.593   1.905  1.2129 -2.1147  0.8243
  974SOL    HW2 2922   1.569   0.629   1.921 -3.1940 -1.1662  1.4022
  975SOL     OW 2923   2.445   3.043   3.051  0.4709  0.0997  0.0993
  975SOL    HW1 2924   2.374   2.994   3.110 -2.4917  0.5572  0.2499
  975SOL    HW2 2925   2.446   3.018   2.953 -1.8992  0.2580  2.7501
  976SOL     OW 2926   1.953   2.904   2.338  0.3880  0.3580  0.3257
  976SOL    HW1 2927   1.886   2.852   2.282 -1.1201  0.3594  0.6861
  976SOL    HW2 2928   1.954   2.864   2.436  1.8901 -1.4630  4.8957
  977SOL     OW 2929   0.483   0.607   1.008 -0.1023 -0.6854 -0.5612
  977SOL    HW1 2930   0.396   0.591   0.943 -1.7326 -2.9484 -2.4423
  977SOL    HW2 2931   0.568   0.595   0.950 -1.3995  0.1125 -3.7800
   3.10000   3.10000   3.10000
