1000 SPC/Fw water molecules t=   1.67000 step= 1670
 2931
    1SOL     OW    1   2.488   0.392   2.656  0.0308 -0.6713 -0.2594
    1SOL    HW1    2   2.481   0.294   2.627  2.7644  1.0541  1.2700
    1SOL    HW2    3   2.583   0.408   2.702  1.6905 -1.4382 -0.0856
    2SOL     OW    4   2.711   2.977   1.384 -0.6041 -0.2046  0.1946
    2SOL    HW1    5   2.807   2.971   1.342  1.8805 -1.9131 -2.2210
    2SOL    HW2    6   2.712   2.958   1.483 -1.0674 -2.3894 -0.5358
    3SOL     OW    7   2.704   2.496   0.374  0.0905  0.2263 -0.0714
    3SOL    HW1    8   2.618   2.438   0.393  0.6706 -0.1077  0.0146
    3SOL    HW2    9   2.731   2.560   0.450  1.2358  0.8398 -1.3637
    4SOL     OW   10   1.327   1.587   2.441  0.0435  0.2001 -0.0047
    4SOL    HW1   11   1.275   1.571   2.356  1.4131 -1.2418 -0.2206
    4SOL    HW2   12   1.306   1.516   2.514  0.2485 -1.7801 -1.3909
    5SOL     OW   13   1.114   1.529   3.027  0.0937  0.1818  0.1241
    5SOL    HW1   14   1.187   1.605   3.043 -0.0802  0.3662  1.5631
    5SOL    HW2   15   1.037   1.553   2.960  0.1427 -2.6341 -0.2341
    6SOL     OW   16   0.265   1.810   3.084 -0.2439 -0.3980 -0.0975
    6SOL    HW1   17   0.181   1.815   3.151 -0.4275  3.1051 -0.2780
    6SOL    HW2   18   0.311   1.716   3.095  2.9164 -1.7758  2.4239
    7SOL     OW   19   2.494   0.918   1.023  0.0389 -0.2573  1.2464
    7SOL    HW1   20   2.401   0.895   1.059 -0.7326  0.8526  0.6781
    7SOL    HW2   21   2.506   0.882   0.925  2.1107 -1.2334 -0.3882
    8SOL     OW   22   0.409   0.662   1.549  0.8700 -0.9638  0.2325
    8SOL    HW1   23   0.486   0.591   1.557  1.0897 -0.8505  1.2988
    8SOL    HW2   24   0.409   0.723   1.463  1.9434 -0.4807  0.4546
    9SOL     OW   25   1.139   0.884   2.329 -0.2968  0.1931 -0.1537
    9SOL    HW1   26   1.219   0.905   2.262  0.8928  0.8571  1.9356
    9SOL    HW2   27   1.120   0.782   2.344 -0.0298  4.8103  2.7234
   10SOL     OW   28   0.732   1.414   1.245 -0.0585  0.0076  0.3029
   10SOL    HW1   29   0.645   1.369   1.211 -2.2268 -1.5394 -0.4825
   10SOL    HW2   30   0.723   1.506   1.283 -0.2042 -2.4579 -1.5982
   11SOL     OW   31   2.341   2.883   0.915 -0.4442  0.1267  0.2881
   11SOL    HW1   32   2.303   2.823   0.991  0.1026  1.1512 -1.4914
   11SOL    HW2   33   2.444   2.910   0.926  3.2415 -0.6603 -0.0020
   12SOL     OW   34   1.514   0.882   0.451  0.5532 -0.7663  0.2054
   12SOL    HW1   35   1.417   0.866   0.421  0.9768  0.8281  2.9013
   12SOL    HW2   36   1.573   0.817   0.397 -1.6573 -1.4991  0.7636
   13SOL     OW   37   2.468   0.730   1.817 -0.4672 -0.2837  0.2765
   13SOL    HW1   38   2.419   0.677   1.890  0.5793  0.0850 -3.1751
   13SOL    HW2   39   2.463   0.686   1.722 -0.5299 -0.4633  0.8172
   14SOL     OW   40   1.956   0.023   0.607  0.0883  0.3508 -0.1177
   14SOL    HW1   41   1.862   0.073   0.589 -2.3497  1.4962 -1.8459
   14SOL    HW2   42   1.969  -0.023   0.697  0.5687  0.9358 -0.6339
   15SOL     OW   43   1.917   2.086   2.674 -0.0145  0.3785  0.0213
   15SOL    HW1   44   1.841   2.065   2.743 -1.8575  0.4546 -0.3856
   15SOL    HW2   45   1.928   2.017   2.599  0.7614 -1.4426 -0.1731
   16SOL     OW   46   1.612   1.730   3.032 -0.9632  0.5135 -0.5584
   16SOL    HW1   47   1.599   1.630   3.058 -1.2069 -0.2206  1.1360
   16SOL    HW2   48   1.706   1.772   3.063  2.3398  0.4059 -1.1358
   17SOL     OW   49   0.117   0.466   0.177 -0.0371  0.1689 -0.3436
   17SOL    HW1   50   0.211   0.495   0.137  0.0774 -0.9797 -1.0899
   17SOL    HW2   51   0.039   0.489   0.106 -0.8511  0.8333  2.1887
   18SOL     OW   52   0.919   2.913   2.132  0.2826 -0.1718 -0.0023
   18SOL    HW1   53   0.905   2.846   2.212 -0.7893  0.3883  0.7617
   18SOL    HW2   54   0.999   2.896   2.068 -3.2612 -0.0339 -0.8446
   19SOL     OW   55   0.578   0.893   1.921 -0.7477 -0.0822 -0.1521
   19SOL    HW1   56   0.627   0.871   2.009 -0.4819  0.9871 -0.4080
   19SOL    HW2   57   0.623   0.970   1.866  1.8066 -0.0253 -1.5615
   20SOL     OW   58   0.207   2.820   0.796 -0.0044 -0.2205 -0.1431
   20SOL    HW1   59   0.106   2.817   0.793  1.8984 -2.1974 -2.4016
   20SOL    HW2   60   0.247   2.728   0.752  0.1415 -3.6194 -0.0172
   21SOL     OW   61   2.740   0.298   2.052  0.4158 -0.0317 -0.1175
   21SOL    HW1   62   2.712   0.227   1.980  1.4025 -3.2108  0.5185
   21SOL    HW2   63   2.838   0.280   2.082 -1.4191  0.8933  3.0206
   22SOL     OW   64   2.353   0.206   0.129  0.0031 -0.1192 -0.0064
   22SOL    HW1   65   2.376   0.139   0.054  1.0478  1.8734 -0.9587
   22SOL    HW2   66   2.277   0.267   0.094  2.3075 -3.2380 -2.2639
   23SOL     OW   67   2.807   0.549   0.680  0.4283 -0.5596  0.1269
   23SOL    HW1   68   2.849   0.474   0.624  1.2636 -0.9629 -0.8282
   23SOL    HW2   69   2.818   0.644   0.639 -2.9732  1.5393  3.2564
   24SOL     OW   70   0.311   1.881   0.452 -0.1750  0.5437  0.1996
   24SOL    HW1   71   0.292   1.972   0.399  0.0344  2.9908 -1.9941
   24SOL    HW2   72   0.401   1.839   0.422  0.4512  1.8239  1.6547
   25SOL     OW   73   2.286   0.601   0.188 -0.4219  0.0547  0.2575
   25SOL    HW1   74   2.296   0.576   0.090  1.2849 -1.9095  2.4090
   25SOL    HW2   75   2.340   0.534   0.249 -1.0424  0.1460  2.0113
   26SOL     OW   76   2.454   2.124   2.103  0.2192  0.0031  0.4177
   26SOL    HW1   77   2.527   2.165   2.165  1.9119  0.5783 -2.0563
   26SOL    HW2   78   2.495   2.067   2.024 -0.1534 -0.4532 -0.3127
   27SOL     OW   79   0.609   2.988   0.158  0.2353  0.6593 -0.7247
   27SOL    HW1   80   0.704   3.024   0.140  0.9401  0.1944 -1.3246
   27SOL    HW2   81   0.562   2.973   0.071 -2.7106  1.8042  0.7140
   28SOL     OW   82   1.572   0.138   0.293 -0.0582 -0.2018 -0.0187
   28SOL    HW1   83   1.604   0.086   0.207 -1.7183  1.2648  0.0974
   28SOL    HW2   84   1.599   0.238   0.288  3.0634  0.9148 -1.0212
   29SOL     OW   85   2.024   0.593   0.289  0.3694 -0.5167 -0.0895
   29SOL    HW1   86   1.999   0.671   0.351 -0.3714  1.2350  0.7252
   29SOL    HW2   87   2.110   0.617   0.235  0.7168 -1.2166  1.7823
   30SOL     OW   88   0.187   2.068   0.907  0.0003 -0.2307 -0.5927
   30SOL    HW1   89   0.175   2.022   0.814  1.5233 -2.1612 -1.0489
   30SOL    HW2   90   0.095   2.100   0.947 -2.6254  0.8101 -0.3375
   31SOL     OW   91   2.133   0.057   2.401 -0.0643  0.2664  0.6502
   31SOL    HW1   92   2.081   0.024   2.486 -0.1979 -0.2258 -0.2231
   31SOL    HW2   93   2.082   0.025   2.315 -3.0977  2.1549 -0.1532
   32SOL     OW   94   3.075   3.072   0.260 -0.6945  0.3468 -0.6193
   32SOL    HW1   95   3.040   2.974   0.266 -2.9982  0.1940  0.1117
   32SOL    HW2   96   3.174   3.079   0.217 -0.8089  1.3930 -2.6637
   33SOL     OW   97   0.924   0.188   0.649 -0.0627 -0.0904  0.2382
   33SOL    HW1   98   0.929   0.127   0.565  0.0605 -0.3865 -2.9542
   33SOL    HW2   99   0.993   0.269   0.648 -0.4057 -0.1955 -1.7984
   34SOL     OW  100   0.356   2.698   1.025  0.5496  0.5534 -0.5789
   34SOL    HW1  101   0.328   2.751   0.943 -1.5057 -1.1280  1.2318
   34SOL    HW2  102   0.439   2.734   1.074 -0.0886 -1.4421 -0.5454
   35SOL     OW  103   0.053   0.133   1.904  0.0816  0.1327 -0.2427
   35SOL    HW1  104   0.093   0.038   1.911 -0.0607 -0.9787 -0.8801
   35SOL    HW2  105   0.015   0.148   1.810 -0.8633 -3.7101  0.2932
   36SOL     OW  106   1.945   1.145   1.515  0.0344  0.1047 -0.2338
   36SOL    HW1  107   2.037   1.105   1.533  0.4603  1.8329 -1.9810
   36SOL    HW2  108   1.944   1.242   1.474 -0.6835  2.3346  0.5579
   37SOL     OW  109   1.115   0.249   0.994 -0.2332  0.5637  0.2861
   37SOL    HW1  110   1.106   0.334   0.938 -0.2125 -0.0264  0.6698
   37SOL    HW2  111   1.193   0.187   0.959  3.5496 -1.8590  2.6677
   38SOL     OW  112   1.156   2.840   2.428 -0.4918 -0.3505 -0.3801
   38SOL    HW1  113   1.076   2.819   2.488 -1.3790 -2.2699 -0.0734
   38SOL    HW2  114   1.173   2.942   2.413  4.6705 -2.7916  0.9639
   39SOL     OW  115   2.476   1.424   3.012  0.1426  0.0963 -0.2633
   39SOL    HW1  116   2.554   1.363   3.045  0.8810  1.5491  0.8307
   39SOL    HW2  117   2.389   1.415   3.074  1.2694  2.3290  1.7882
   40SOL     OW  118   2.038   2.547   2.543  0.9659 -0.3270 -0.7977
   40SOL    HW1  119   1.985   2.642   2.543  2.2184  1.2774 -2.4086
   40SOL    HW2  120   1.974   2.470   2.506 -2.3774 -2.5580  0.9671
   41SOL     OW  121   3.057   0.742   2.781 -0.0953 -0.7500 -0.3767
   41SOL    HW1  122   3.014   0.813   2.844  2.3238  2.6084 -0.0874
   41SOL    HW2  123   2.999   0.689   2.715  0.7958  0.6128  0.4608
   42SOL     OW  124   1.783   1.729   0.524 -0.2965  0.2828  0.0344
   42SOL    HW1  125   1.735   1.638   0.522 -1.1067  0.9569 -0.9082
   42SOL    HW2  126   1.803   1.769   0.429 -0.6746 -1.0596  0.1272
   43SOL     OW  127   0.464   1.669   1.120  0.1137  0.2067 -0.0708
   43SOL    HW1  128   0.495   1.572   1.122  1.6206  0.5595 -1.2097
   43SOL    HW2  129   0.408   1.697   1.205 -3.8895  2.8288 -0.4722
   44SOL     OW  130   1.661   2.337   2.959  0.2276  0.0828 -0.8874
   44SOL    HW1  131   1.559   2.351   2.963  0.0811 -0.6509  1.0177
   44SOL    HW2  132   1.709   2.390   2.886  0.6535 -2.5551 -0.5505
   45SOL     OW  133   0.365   1.901   2.587  0.3302  0.0846  0.5819
   45SOL    HW1  134   0.348   1.912   2.486  0.9330 -0.4128  3.8049
   45SOL    HW2  135   0.452   1.845   2.611 -2.3704  0.9280  3.8700
   46SOL     OW  136   1.279   0.744   0.258  1.3219 -0.0700 -0.1947
   46SOL    HW1  137   1.272   0.834   0.203 -1.5158 -0.0028 -1.9980
   46SOL    HW2  138   1.243   0.657   0.204  0.1846 -2.8980 -1.4214
   47SOL     OW  139   0.111   2.419   1.579 -0.1914 -0.0985  0.3903
   47SOL    HW1  140   0.077   2.333   1.619  1.6982  1.4770 -0.5891
   47SOL    HW2  141   0.141   2.405   1.484  0.2609 -2.0152  1.1236
   48SOL     OW  142   2.642   0.675   0.116 -0.5527 -0.4140 -0.1061
   48SOL    HW1  143   2.609   0.659   0.213  0.8143  1.8562 -1.0055
   48SOL    HW2  144   2.743   0.682   0.116 -2.2196  2.2657  1.3821
   49SOL     OW  145   0.361   0.825   1.769 -0.4415  0.5628 -0.3213
   49SOL    HW1  146   0.436   0.853   1.837  0.2784 -1.5968 -0.7512
   49SOL    HW2  147   0.403   0.766   1.691 -0.4583 -0.8232 -1.3426
   50SOL     OW  148   1.743   1.094   0.309  0.1140 -0.2141 -0.1941
   50SOL    HW1  149   1.748   0.992   0.283 -0.0603  0.2106  2.8784
   50SOL    HW2  150   1.676   1.114   0.387 -1.0810  0.3587 -1.1948
   51SOL     OW  151   2.968   1.780   0.341 -0.6906 -0.8694 -0.0076
   51SOL    HW1  152   2.895   1.706   0.351 -0.9767 -1.1419 -0.8733
   51SOL    HW2  153   3.062   1.736   0.356  1.4508  0.9464 -0.6215
   52SOL     OW  154   0.757   2.177   0.546  0.7588 -0.3448  0.1046
   52SOL    HW1  155   0.659   2.213   0.534  2.4055  0.9201  1.0559
   52SOL    HW2  156   0.758   2.093   0.604 -0.9546  0.5715  1.4312
   53SOL     OW  157   0.281   0.412   1.456  0.5323  0.4370 -0.7305
   53SOL    HW1  158   0.329   0.496   1.489 -1.9403  1.3442 -0.4584
   53SOL    HW2  159   0.263   0.419   1.353 -1.2642 -0.4898 -0.3017
   54SOL     OW  160   1.716   0.424   0.001 -0.3763 -0.0345  0.1152
   54SOL    HW1  161   1.779   0.377   0.065 -2.2810  0.2612  1.8907
   54SOL    HW2  162   1.619   0.421   0.037  0.9636 -1.8344 -0.5582
   55SOL     OW  163   0.740   2.970   0.612  0.8498 -0.2469  0.3077
   55SOL    HW1  164   0.669   3.049   0.605  1.7653  2.3710 -0.6984
   55SOL    HW2  165   0.827   2.998   0.563  0.4562 -1.1616 -2.9658
   56SOL     OW  166   0.583   1.529   3.055 -0.1039 -0.3669 -0.7038
   56SOL    HW1  167   0.515   1.546   3.134  0.5288  0.1113 -1.4748
   56SOL    HW2  168   0.553   1.453   2.993 -0.3902  1.5219  2.2962
   57SOL     OW  169   1.680   2.468   2.336  0.4372  0.1014 -0.5490
   57SOL    HW1  170   1.775   2.434   2.356 -0.8248 -0.9233 -0.1522
   57SOL    HW2  171   1.625   2.464   2.426 -0.8959 -1.4353  0.1436
   58SOL     OW  172   0.657   0.223   1.070 -0.5628 -0.5020  0.1596
   58SOL    HW1  173   0.563   0.207   1.108  0.4218  0.1683 -1.4920
   58SOL    HW2  174   0.716   0.136   1.075  1.9064  0.7670 -0.6489
   59SOL     OW  175   0.447   2.372   2.660 -0.0367  0.3205 -0.7852
   59SOL    HW1  176   0.476   2.277   2.697  1.1549 -3.0542 -0.1574
   59SOL    HW2  177   0.530   2.433   2.642  0.2547 -2.4371 -2.0566
   60SOL     OW  178   2.288   2.046   2.317  0.6448 -0.2807 -0.4904
   60SOL    HW1  179   2.345   2.054   2.231 -1.1725  2.0365  0.1408
   60SOL    HW2  180   2.328   2.097   2.401 -1.2711 -0.0278  0.0275
   61SOL     OW  181   1.184   0.636   0.508  0.0057  0.0861 -0.3770
   61SOL    HW1  182   1.085   0.667   0.527  1.3520  1.2170  2.1206
   61SOL    HW2  183   1.221   0.671   0.420  2.5837 -2.9082  2.5513
   62SOL     OW  184   2.789   1.734   2.688  0.5825 -0.2160 -0.5045
   62SOL    HW1  185   2.708   1.673   2.681 -0.5266  1.2888 -0.0624
   62SOL    HW2  186   2.865   1.697   2.753  3.4267 -2.6266  0.0095
   63SOL     OW  187   0.541   0.928   0.209  0.3020 -0.6447 -0.0879
   63SOL    HW1  188   0.608   0.973   0.142 -0.2386 -0.8351 -0.8009
   63SOL    HW2  189   0.535   0.972   0.303  0.8466  1.1129  1.2159
   64SOL     OW  190   2.985   0.561   2.333 -0.0104 -0.6406  0.5874
   64SOL    HW1  191   2.924   0.619   2.400  1.3607 -0.2647 -1.3397
   64SOL    HW2  192   3.003   0.622   2.246 -0.9336  2.3353  0.7850
   65SOL     OW  193   0.239   1.437   0.722  0.1582  0.1937 -0.7836
   65SOL    HW1  194   0.234   1.535   0.758  0.1123  1.7760 -1.3308
   65SOL    HW2  195   0.281   1.429   0.629  1.5974  0.0288  1.8190
   66SOL     OW  196   2.574   0.339   0.566 -0.1084  0.0579  0.1205
   66SOL    HW1  197   2.673   0.319   0.584  2.2958  0.8328 -0.9227
   66SOL    HW2  198   2.510   0.269   0.615  0.0814 -1.9483  0.5730
   67SOL     OW  199   0.601   2.526   1.467 -0.0495  0.0383 -0.6394
   67SOL    HW1  200   0.684   2.507   1.532  0.6514 -0.4888  2.4408
   67SOL    HW2  201   0.523   2.458   1.478 -0.6225  3.7099  0.1122
   68SOL     OW  202   0.894   0.976   2.443  0.0740 -0.0708  0.4244
   68SOL    HW1  203   0.981   0.941   2.394 -1.4250 -1.0756  0.4940
   68SOL    HW2  204   0.831   1.044   2.392  1.2696  3.1806 -1.8142
   69SOL     OW  205   0.778   2.660   2.351 -0.6447 -0.6123  0.2977
   69SOL    HW1  206   0.822   2.626   2.263  2.0535  2.5878 -0.1072
   69SOL    HW2  207   0.677   2.682   2.343  0.6647 -0.4461  3.0252
   70SOL     OW  208   0.453   0.160   2.551  0.3251  0.1579  0.3952
   70SOL    HW1  209   0.382   0.124   2.622 -1.3227  0.1253  0.0033
   70SOL    HW2  210   0.532   0.088   2.541  0.3832 -0.8090 -0.0426
   71SOL     OW  211   1.048   1.753   0.314 -0.7149 -0.1215 -0.4962
   71SOL    HW1  212   0.998   1.679   0.361  0.6512 -1.4891 -0.5237
   71SOL    HW2  213   1.006   1.777   0.222 -0.2506  3.0405 -1.3595
   72SOL     OW  214   1.851   0.261   2.164  0.0563  0.2615 -0.1297
   72SOL    HW1  215   1.913   0.344   2.160 -1.6663 -1.7041  2.2886
   72SOL    HW2  216   1.901   0.172   2.162  0.1528  1.8840  1.2255
   73SOL     OW  217   2.773   2.198   2.496 -0.4579  0.0076 -0.3550
   73SOL    HW1  218   2.749   2.106   2.456  1.6872  2.1875 -1.7565
   73SOL    HW2  219   2.830   2.185   2.583 -0.3410  0.9536 -1.1491
   74SOL     OW  220   2.699   2.910   2.125  0.0862  0.4314 -0.6041
   74SOL    HW1  221   2.608   2.899   2.175  0.1971  0.0603 -1.2764
   74SOL    HW2  222   2.772   2.942   2.198  3.3645  0.3115  1.9569
   75SOL     OW  223   0.963   0.811   1.161 -0.2499  0.2944  0.1186
   75SOL    HW1  224   0.861   0.802   1.157  1.3699 -0.1717 -0.1480
   75SOL    HW2  225   0.997   0.872   1.237 -2.0553 -3.3150  0.2423
   76SOL     OW  226   1.853   1.281   2.579 -0.4040  0.3236  1.3132
   76SOL    HW1  227   1.752   1.255   2.590  0.8771  3.0196 -1.5690
   76SOL    HW2  228   1.874   1.370   2.628  1.2752 -1.4723 -1.0998
   77SOL     OW  229   2.908   0.970   1.044 -0.1332 -0.2874  0.2586
   77SOL    HW1  230   2.883   0.868   1.036  0.2614 -0.7165  2.6910
   77SOL    HW2  231   2.992   0.976   1.102 -0.0023 -0.0437 -2.2032
   78SOL     OW  232   1.998   1.409   1.334 -0.4011  0.8531  0.2417
   78SOL    HW1  233   2.064   1.371   1.262  1.1727 -1.0885  0.7190
   78SOL    HW2  234   1.902   1.426   1.295  1.3876  1.4168  1.1994
   79SOL     OW  235   0.715   1.444   0.834  0.0860  0.1294 -0.1277
   79SOL    HW1  236   0.616   1.415   0.827  1.9576 -3.2573 -2.9624
   79SOL    HW2  237   0.778   1.364   0.800  0.8418  1.9989  2.4921
   80SOL     OW  238   0.586   0.455   1.569  0.2291  0.4713 -0.1187
   80SOL    HW1  239   0.585   0.489   1.469  0.6816 -1.6251 -0.4321
   80SOL    HW2  240   0.620   0.353   1.581 -0.3179  0.2348 -0.5074
   81SOL     OW  241   1.074   1.257   2.538  0.1342  0.0219 -0.5509
   81SOL    HW1  242   1.045   1.162   2.524  1.3503  1.2738  1.1489
   81SOL    HW2  243   1.032   1.320   2.470  0.2943 -0.0776  0.9065
   82SOL     OW  244   0.902   2.924   1.503 -0.3324  1.1377 -0.0057
   82SOL    HW1  245   0.991   2.879   1.469 -1.3204 -0.8924  0.2097
   82SOL    HW2  246   0.851   2.983   1.432 -1.2917  2.9339  0.8342
   83SOL     OW  247   2.630   2.359   0.859  0.3225  0.7983 -0.5486
   83SOL    HW1  248   2.539   2.327   0.826  2.5635 -0.2107  2.7150
   83SOL    HW2  249   2.642   2.466   0.858  1.3064  3.0240 -0.3771
   84SOL     OW  250   0.772   0.026   2.274  0.1410 -0.7815  0.3048
   84SOL    HW1  251   0.715  -0.018   2.352  1.3883 -3.2323 -0.2860
   84SOL    HW2  252   0.821  -0.046   2.216  1.1587 -0.9305 -1.0740
   85SOL     OW  253   0.285   1.704   1.360 -0.0471  0.5862  0.1909
   85SOL    HW1  254   0.248   1.800   1.379  1.0819  1.0660 -0.7836
   85SOL    HW2  255   0.319   1.657   1.442  0.9166  1.3115 -1.4725
   86SOL     OW  256   0.415   1.048   1.491  0.6703 -0.0320 -0.1885
   86SOL    HW1  257   0.383   0.988   1.408  0.2076 -0.8441  0.3681
   86SOL    HW2  258   0.491   1.006   1.547  1.4016 -0.1155 -1.1181
   87SOL     OW  259   1.616   0.665   0.298 -0.5261  0.0706  0.3739
   87SOL    HW1  260   1.703   0.721   0.281 -0.6633 -0.2427 -1.6489
   87SOL    HW2  261   1.560   0.630   0.214 -0.0811 -3.7157 -2.8793
   88SOL     OW  262   1.588   1.338   0.263 -0.3355 -0.5070 -0.0712
   88SOL    HW1  263   1.637   1.246   0.254  2.4712 -2.1829 -2.6543
   88SOL    HW2  264   1.491   1.336   0.233 -1.0889 -0.4584 -0.3778
   89SOL     OW  265   0.023   0.405   0.638 -0.2090 -0.1344  0.8609
   89SOL    HW1  266   0.114   0.357   0.661  2.1155  0.1757  0.2642
   89SOL    HW2  267  -0.043   0.352   0.581 -1.3204 -0.4416  1.2479
   90SOL     OW  268   0.760   1.532   0.152 -0.1164  0.7722 -0.0487
   90SOL    HW1  269   0.838   1.461   0.159 -0.2664 -1.2676  1.0964
   90SOL    HW2  270   0.697   1.521   0.071 -0.2220 -0.1315  0.9897
   91SOL     OW  271   1.279   1.494   1.750  0.9207  0.4442 -0.5498
   91SOL    HW1  272   1.220   1.546   1.820 -0.4143 -2.3576 -0.4446
   91SOL    HW2  273   1.323   1.416   1.804 -1.4181  1.0647  1.7643
   92SOL     OW  274   0.011   1.005   1.222 -0.2286 -0.1768  0.1719
   92SOL    HW1  275   0.064   1.078   1.168  1.8624 -3.0158  0.0557
   92SOL    HW2  276   0.018   1.020   1.325  1.5196 -0.6001 -2.2172
   93SOL     OW  277   3.089   2.666   0.076 -0.3396 -1.0351 -0.2398
   93SOL    HW1  278   3.013   2.648   0.001 -1.2327  0.4855 -2.1381
   93SOL    HW2  279   3.140   2.574   0.105 -1.5604 -2.6754 -0.8653
   94SOL     OW  280   1.504   1.287   1.677 -0.4570  0.1235  0.0347
   94SOL    HW1  281   1.585   1.231   1.703 -1.8646  0.4958 -0.7191
   94SOL    HW2  282   1.532   1.388   1.660  2.9718  0.5664 -0.4667
   95SOL     OW  283   1.334   2.468   2.920  0.4316 -0.1295 -0.1091
   95SOL    HW1  284   1.246   2.493   2.970 -0.7742 -0.5937  2.0075
   95SOL    HW2  285   1.332   2.367   2.894  1.1427  3.4695 -2.5132
   96SOL     OW  286   0.589   2.174   1.328 -0.3743 -0.3676 -0.0454
   96SOL    HW1  287   0.544   2.143   1.241 -0.6582  1.9292 -0.7199
   96SOL    HW2  288   0.603   2.102   1.404 -0.8371 -0.5191  0.3837
   97SOL     OW  289   0.248   1.610   2.427  0.2062  0.4856 -0.3087
   97SOL    HW1  290   0.263   1.709   2.411 -0.5576 -2.5909 -0.4789
   97SOL    HW2  291   0.232   1.583   2.528  2.4879 -3.5902 -1.7758
   98SOL     OW  292   2.164   1.664   1.203 -0.1808  0.1131 -0.0533
   98SOL    HW1  293   2.121   1.586   1.256  2.3988 -0.2457 -0.0907
   98SOL    HW2  294   2.241   1.635   1.138  0.2928 -4.0854 -0.4554
   99SOL     OW  295   2.641   2.048   1.264 -0.9629 -0.6439  0.4012
   99SOL    HW1  296   2.699   2.111   1.327  1.0097 -1.1963  2.5265
   99SOL    HW2  297   2.572   2.000   1.324 -0.8210  2.4860  0.5518
  100SOL     OW  298   2.325   0.371   2.138 -0.0811  0.1004 -0.3338
  100SOL    HW1  299   2.263   0.372   2.225 -2.3986 -2.6595  0.6641
  100SOL    HW2  300   2.422   0.412   2.158 -0.4905 -0.5445  2.0419
  101SOL     OW  301   0.360   1.496   0.480  0.0034 -0.4157 -0.8636
  101SOL    HW1  302   0.389   1.583   0.534 -0.6707  0.0683  3.6109
  101SOL    HW2  303   0.439   1.455   0.422  4.7098 -3.8447 -0.1540
  102SOL     OW  304   2.234   1.062   0.816  0.0596 -0.3247 -0.2424
  102SOL    HW1  305   2.199   0.971   0.790  1.6751  3.1535  2.9505
  102SOL    HW2  306   2.333   1.078   0.783  1.5419  0.3095 -2.0597
  103SOL     OW  307   2.280   0.083   0.370 -0.4942  0.1874  0.5276
  103SOL    HW1  308   2.326   0.115   0.283 -0.8966 -0.9328  0.7834
  103SOL    HW2  309   2.350   0.034   0.435  2.3329  1.0221  1.1629
  104SOL     OW  310   3.063   1.785   2.226 -0.5753  0.0794 -0.4266
  104SOL    HW1  311   3.120   1.738   2.151 -1.1137 -0.8039 -0.9773
  104SOL    HW2  312   2.968   1.812   2.199  3.0535 -1.4382 -1.5222
  105SOL     OW  313   1.361   2.096   0.776 -0.4731 -0.2167  0.1220
  105SOL    HW1  314   1.379   2.159   0.695 -0.7199 -0.9109 -1.3493
  105SOL    HW2  315   1.336   2.001   0.742 -0.2422 -0.7351 -2.0888
  106SOL     OW  316   2.137   0.408   1.418 -0.4797  0.0298  0.2143
  106SOL    HW1  317   2.060   0.338   1.413  0.0017 -3.3391 -1.3163
  106SOL    HW2  318   2.157   0.448   1.509  0.9849  1.0394 -0.2473
  107SOL     OW  319   1.904   2.890   1.162 -0.3523  0.6610  0.0945
  107SOL    HW1  320   1.830   2.968   1.180 -2.1547  1.5367  1.5311
  107SOL    HW2  321   1.865   2.817   1.097 -1.0511  2.7175 -2.7314
  108SOL     OW  322   0.830   2.823   1.166 -0.0402 -0.1572 -0.3647
  108SOL    HW1  323   0.840   2.749   1.096  0.9943  0.7181 -0.9812
  108SOL    HW2  324   0.920   2.834   1.213  0.0395  2.1183 -2.9559
  109SOL     OW  325   2.166   0.177   0.712  0.2569 -0.3943 -0.1667
  109SOL    HW1  326   2.095   0.126   0.656 -0.8951 -2.0053  1.1145
  109SOL    HW2  327   2.127   0.212   0.800  0.4595 -1.4218 -0.4965
  110SOL     OW  328   0.503   2.784   2.748 -0.4279  0.7287  0.0383
  110SOL    HW1  329   0.495   2.802   2.646 -1.0192  1.1660 -1.2889
  110SOL    HW2  330   0.588   2.723   2.779  0.2697 -0.6387  0.9366
  111SOL     OW  331   1.310   0.547   2.274  0.6067  0.3610 -0.5147
  111SOL    HW1  332   1.231   0.594   2.329  0.4607  1.1940  4.1597
  111SOL    HW2  333   1.359   0.476   2.331 -0.5111  2.2595 -0.1412
  112SOL     OW  334   1.736   0.436   1.522 -0.6287  0.4107  0.4800
  112SOL    HW1  335   1.689   0.486   1.439  0.1277  1.7795 -3.7034
  112SOL    HW2  336   1.668   0.432   1.600  1.0315  1.3905 -1.6666
  113SOL     OW  337   2.379   1.698   1.787 -0.3769 -0.4802  0.1889
  113SOL    HW1  338   2.398   1.596   1.772  0.3369 -0.4415  0.4733
  113SOL    HW2  339   2.350   1.725   1.883  0.5747 -2.0359 -1.7792
  114SOL     OW  340   0.312   0.413   1.161 -0.0255 -0.2160  0.0976
  114SOL    HW1  341   0.216   0.457   1.176 -5.1386 -0.4989  0.7003
  114SOL    HW2  342   0.343   0.433   1.063 -2.4925  0.1269 -0.5247
  115SOL     OW  343   2.711   1.547   1.256 -0.5415 -0.2488  0.5121
  115SOL    HW1  344   2.694   1.445   1.278 -1.9888 -1.4233 -0.8438
  115SOL    HW2  345   2.802   1.556   1.204  0.0154  0.6189  3.1857
  116SOL     OW  346   1.914   0.886   0.756  0.1108 -0.2747  0.1037
  116SOL    HW1  347   1.821   0.854   0.717 -1.9112 -0.8880 -1.4893
  116SOL    HW2  348   1.916   0.988   0.774 -1.1614  1.1865  0.2947
  117SOL     OW  349   1.142   0.364   0.562  0.1517  0.0329 -0.1731
  117SOL    HW1  350   1.168   0.466   0.570 -0.0755  0.3686 -1.2798
  117SOL    HW2  351   1.140   0.334   0.459  0.8945  2.5662  1.1494
  118SOL     OW  352   1.137   1.221   1.076  0.4077 -0.0740 -0.1972
  118SOL    HW1  353   1.070   1.188   1.144 -0.4590 -1.3677  0.6612
  118SOL    HW2  354   1.144   1.328   1.077  0.7383  1.4176  0.3433
  119SOL     OW  355   1.837   1.580   2.193  0.0127 -0.1359  0.1664
  119SOL    HW1  356   1.801   1.645   2.121  0.9532  0.3574  0.0216
  119SOL    HW2  357   1.929   1.531   2.167  0.9587 -0.2035 -1.0330
  120SOL     OW  358   2.965   2.816   0.263  0.3682 -0.1898  0.4073
  120SOL    HW1  359   3.031   2.766   0.201 -1.4198 -0.2819 -0.1816
  120SOL    HW2  360   2.862   2.800   0.244 -0.0250 -0.6803  1.2585
  121SOL     OW  361   2.004   0.799   2.321  0.4158 -0.5175  0.1199
  121SOL    HW1  362   2.048   0.886   2.278 -1.6713 -1.3572  0.9023
  121SOL    HW2  363   2.000   0.714   2.260  1.4407 -2.5571  0.6829
  122SOL     OW  364   2.619   2.504   1.319 -0.3050  0.2927  0.2335
  122SOL    HW1  365   2.668   2.476   1.231  1.4813 -2.4014 -2.2452
  122SOL    HW2  366   2.652   2.454   1.404  1.8556  1.1785 -0.5270
  123SOL     OW  367   1.657   0.138   1.706 -0.1422  0.2551 -0.0720
  123SOL    HW1  368   1.689   0.057   1.645  1.6063 -0.1050 -1.1301
  123SOL    HW2  369   1.744   0.178   1.757  2.6156  0.2195 -0.9329
  124SOL     OW  370   3.052   0.390   1.135 -0.4924  0.5306  0.4210
  124SOL    HW1  371   2.972   0.444   1.166  0.0889  1.3409 -1.3790
  124SOL    HW2  372   3.085   0.416   1.040  1.9540  1.5042  1.0048
  125SOL     OW  373   0.858   1.998   0.753  0.2011 -0.1512 -0.6269
  125SOL    HW1  374   0.960   1.986   0.781  0.7232  1.3371  0.5987
  125SOL    HW2  375   0.807   2.048   0.822  2.1843 -1.4279 -2.6208
  126SOL     OW  376   1.883   2.319   2.457 -0.2266  0.0919 -0.4401
  126SOL    HW1  377   1.951   2.269   2.392 -0.9981  0.7992 -1.5469
  126SOL    HW2  378   1.863   2.252   2.531  1.2962 -0.6784  0.0215
  127SOL     OW  379   0.899   0.977   0.199  0.0186  0.1662 -0.3710
  127SOL    HW1  380   0.903   1.007   0.301 -1.0493 -2.0767  0.4859
  127SOL    HW2  381   0.898   0.874   0.190 -1.1173 -0.9140 -1.8046
  128SOL     OW  382   0.942   0.225   1.440 -0.4386 -0.6711  0.1148
  128SOL    HW1  383   0.891   0.310   1.396  2.5089 -0.6894  0.4526
  128SOL    HW2  384   0.929   0.136   1.385 -0.3396  1.2196  1.7447
  129SOL     OW  385   1.863   0.713   1.836 -0.0757 -0.2811  0.4877
  129SOL    HW1  386   1.874   0.682   1.740 -1.7384 -1.2453  1.2012
  129SOL    HW2  387   1.902   0.812   1.851 -0.0877  1.4680  1.6802
  130SOL     OW  388   1.358   2.256   0.999 -0.0213 -0.9359  0.5612
  130SOL    HW1  389   1.350   2.205   0.905  1.1024 -2.2945  1.4212
  130SOL    HW2  390   1.442   2.316   1.002 -0.1390 -1.6961  1.4507
  131SOL     OW  391   3.063   1.423   1.396 -0.5798 -0.5390  0.4942
  131SOL    HW1  392   3.048   1.320   1.403  1.4795  0.8784  0.2719
  131SOL    HW2  393   3.167   1.437   1.380  2.2549 -3.7413 -1.6412
  132SOL     OW  394   2.070   2.427   0.561  0.0700  0.4851 -0.1146
  132SOL    HW1  395   1.967   2.435   0.545  1.1527 -0.4995  0.4008
  132SOL    HW2  396   2.095   2.348   0.623  1.6236 -2.1076 -1.6075
  133SOL     OW  397   1.750   2.509   2.756  0.0281  0.4101 -0.1119
  133SOL    HW1  398   1.674   2.492   2.689  2.5884 -1.7336  1.4171
  133SOL    HW2  399   1.756   2.608   2.794 -0.3707  0.8198  2.3412
  134SOL     OW  400   2.661   2.399   1.595 -0.8650 -0.1373  0.3837
  134SOL    HW1  401   2.610   2.368   1.680  0.4218 -1.2136  1.8514
  134SOL    HW2  402   2.698   2.497   1.608  1.3568  1.0100 -2.8425
  135SOL     OW  403   0.815   1.423   2.655  0.3213 -0.1895  0.2228
  135SOL    HW1  404   0.764   1.346   2.702  1.7182 -3.2696  1.5169
  135SOL    HW2  405   0.817   1.414   2.548 -2.4413 -1.6386  0.0779
  136SOL     OW  406   1.172   2.014   0.405 -0.6159  0.0650 -0.1321
  136SOL    HW1  407   1.116   2.092   0.441  2.4498 -1.1198  1.7733
  136SOL    HW2  408   1.116   1.928   0.395 -1.0328  0.4246  0.0768
  137SOL     OW  409   0.417   1.217   2.333 -0.0028  0.0673 -0.1152
  137SOL    HW1  410   0.319   1.176   2.342 -2.6105 -0.7645 -1.0073
  137SOL    HW2  411   0.489   1.150   2.365 -1.0625  1.1455  2.2773
  138SOL     OW  412   2.446   1.502   0.235  0.3399 -0.3118 -0.3697
  138SOL    HW1  413   2.366   1.476   0.176 -0.8914 -2.4072  2.0856
  138SOL    HW2  414   2.450   1.444   0.322 -0.2815 -1.1954  2.2136
  139SOL     OW  415   1.871   2.668   1.594 -0.3447 -0.3083 -0.2257
  139SOL    HW1  416   1.770   2.670   1.575 -0.4600  1.3988 -1.5642
  139SOL    HW2  417   1.909   2.592   1.531 -0.8569  0.5803  1.0493
  140SOL     OW  418   2.975   2.951   2.560  0.6205  0.0161  0.0472
  140SOL    HW1  419   3.031   2.877   2.602  1.8777  1.3159  0.6591
  140SOL    HW2  420   3.032   3.037   2.557  0.9822  1.0606 -1.6327
  141SOL     OW  421   1.313   1.648   1.487  0.2838 -0.3085 -0.6153
  141SOL    HW1  422   1.237   1.712   1.509  2.9482  2.6874  0.2021
  141SOL    HW2  423   1.303   1.551   1.526  0.0831 -0.6179 -0.6050
  142SOL     OW  424   1.576   0.692   2.241  0.6444 -0.2373 -0.4718
  142SOL    HW1  425   1.551   0.718   2.142 -1.7148 -0.4081  0.1613
  142SOL    HW2  426   1.488   0.665   2.297 -0.6239  0.3006  0.8743
  143SOL     OW  427   2.745   0.807   0.550 -0.1016 -0.3555 -0.4825
  143SOL    HW1  428   2.796   0.826   0.461  0.1628 -1.6528 -0.4313
  143SOL    HW2  429   2.777   0.870   0.631 -0.1113  1.8377  3.2862
  144SOL     OW  430   2.901   1.151   1.447  0.1286 -0.5454 -0.5282
  144SOL    HW1  431   2.888   1.164   1.550  2.0085  1.6702 -0.1453
  144SOL    HW2  432   2.969   1.076   1.417 -1.0098 -0.8221 -1.4407
  145SOL     OW  433   0.883   1.768   0.105  0.2840 -0.7175  0.1244
  145SOL    HW1  434   0.903   1.783   0.006 -0.1606 -0.1943  1.4785
  145SOL    HW2  435   0.842   1.671   0.125  2.1965 -1.7523  0.5333
  146SOL     OW  436   2.453   0.658   1.507  0.3876 -0.5043  0.1087
  146SOL    HW1  437   2.452   0.573   1.441  1.3686 -0.1338  0.3249
  146SOL    HW2  438   2.399   0.735   1.465  0.2967 -1.1153 -0.0571
  147SOL     OW  439   1.067   2.483   0.563 -0.0818 -0.3908  0.1250
  147SOL    HW1  440   1.048   2.561   0.499 -0.3631 -1.5523 -0.8059
  147SOL    HW2  441   1.161   2.439   0.556  0.3296 -0.7124  1.1197
  148SOL     OW  442   1.577   1.452   0.004  0.2384 -0.4430 -0.3049
  148SOL    HW1  443   1.603   1.353  -0.026 -0.7253 -2.3375  3.0393
  148SOL    HW2  444   1.556   1.459   0.108  0.3659 -0.2176  0.9459
  149SOL     OW  445   0.658   1.492   1.977  0.7597  0.1261 -0.1056
  149SOL    HW1  446   0.568   1.465   2.026  0.5297 -0.6190  0.0263
  149SOL    HW2  447   0.672   1.451   1.882 -3.2609 -0.6950  1.6810
  150SOL     OW  448   3.032   1.183   0.930 -0.2231  0.1745  0.3253
  150SOL    HW1  449   3.117   1.202   0.991 -0.5781 -2.7036 -3.0225
  150SOL    HW2  450   2.970   1.108   0.967 -0.3894 -1.1141 -0.8810
  151SOL     OW  451   0.137   0.908   2.097 -0.5877 -0.4878  0.0302
  151SOL    HW1  452   0.165   0.989   2.039 -0.5465 -1.3471  1.6429
  151SOL    HW2  453   0.204   0.824   2.100  1.1662 -1.3298 -0.0410
  152SOL     OW  454   1.479   1.867   1.104  0.0628 -0.0612  0.3522
  152SOL    HW1  455   1.538   1.951   1.083  2.5150  1.9587 -0.2034
  152SOL    HW2  456   1.376   1.897   1.097 -1.2842  2.2875  0.2043
  153SOL     OW  457   0.142   1.496   0.249 -0.5793 -0.0670  0.6965
  153SOL    HW1  458   0.086   1.411   0.229  0.3716  0.3191 -1.0851
  153SOL    HW2  459   0.132   1.530   0.345 -0.7559  1.3370  1.2950
  154SOL     OW  460   2.343   1.821   2.783  0.6992  0.4816  0.6138
  154SOL    HW1  461   2.368   1.718   2.776  1.4569  3.2722 -2.3611
  154SOL    HW2  462   2.402   1.882   2.720 -0.1613  2.4870 -0.8920
  155SOL     OW  463   2.469   1.323   0.434  0.8267 -0.1421  0.3026
  155SOL    HW1  464   2.560   1.298   0.397  0.1470  1.1162  1.4561
  155SOL    HW2  465   2.392   1.258   0.411  0.2805 -0.5059 -4.0653
  156SOL     OW  466   2.454   0.813   0.764 -0.1183 -0.7688  0.0269
  156SOL    HW1  467   2.348   0.820   0.762 -1.7560  3.7125 -1.6242
  156SOL    HW2  468   2.500   0.876   0.698 -1.0057 -0.6114  2.5072
  157SOL     OW  469   1.269   3.077   3.070  0.4190  0.3761 -0.4266
  157SOL    HW1  470   1.320   3.029   2.994 -2.7866  1.7912  0.4117
  157SOL    HW2  471   1.312   3.171   3.069 -0.5609  0.7638  0.4730
  158SOL     OW  472   1.092   1.929   1.829 -0.1934 -0.1880  0.5349
  158SOL    HW1  473   1.137   2.020   1.848 -2.6294 -0.7863 -0.1260
  158SOL    HW2  474   1.004   1.921   1.877 -1.3763  1.4705  0.5035
  159SOL     OW  475   0.775   0.418   1.277 -0.3521  0.3180 -0.3235
  159SOL    HW1  476   0.728   0.505   1.308  1.1649 -1.5508 -1.6455
  159SOL    HW2  477   0.720   0.372   1.199 -1.0965  0.8058 -1.8849
  160SOL     OW  478   1.426   2.470   1.447  0.2427  0.3306 -0.3144
  160SOL    HW1  479   1.380   2.389   1.495 -1.1633 -0.5278 -2.2399
  160SOL    HW2  480   1.528   2.457   1.423  0.9295 -1.1301  1.3412
  161SOL     OW  481   0.014   2.618   0.441  0.1530  0.2553 -0.2389
  161SOL    HW1  482  -0.019   2.520   0.407 -0.5642 -0.8068 -1.7042
  161SOL    HW2  483  -0.053   2.694   0.410  1.5963 -1.6275 -0.4328
  162SOL     OW  484   2.513   1.883   0.492 -0.2604  0.2595  0.1412
  162SOL    HW1  485   2.551   1.860   0.397  0.4831  0.6422 -1.2180
  162SOL    HW2  486   2.451   1.797   0.510  0.0278 -3.4464 -2.8843
  163SOL     OW  487   1.977   2.744   0.761  0.1108 -0.4339  0.2439
  163SOL    HW1  488   1.964   2.772   0.659  0.7904  1.1773 -2.2423
  163SOL    HW2  489   2.039   2.660   0.767  0.6132 -1.1739  1.1796
  164SOL     OW  490   3.096   0.141   1.218  0.2455 -0.5630  0.1278
  164SOL    HW1  491   3.094   0.246   1.201 -1.1767  2.2293  1.5891
  164SOL    HW2  492   3.134   0.121   1.317  1.8978  0.6574  2.4770
  165SOL     OW  493   1.111   1.453   0.620 -0.0655 -0.2662 -0.3264
  165SOL    HW1  494   1.108   1.529   0.690 -1.6668  0.6035 -2.2641
  165SOL    HW2  495   1.043   1.457   0.543 -1.4124  0.5798  0.3257
  166SOL     OW  496   1.510   1.002   1.830  0.1963  0.2850  0.3518
  166SOL    HW1  497   1.431   1.053   1.877 -0.8909 -0.1972  0.9113
  166SOL    HW2  498   1.589   1.067   1.803  0.0668 -0.3326 -3.4461
  167SOL     OW  499   0.668   2.019   1.529 -0.0339 -0.1945  0.1487
  167SOL    HW1  500   0.621   2.080   1.598  0.1819  0.7067 -1.2906
  167SOL    HW2  501   0.669   1.917   1.549  1.7168  2.4000  1.9333
  168SOL     OW  502   1.629   2.294   0.142 -0.3479 -0.0670 -0.3418
  168SOL    HW1  503   1.715   2.314   0.090  2.5610 -1.7934  1.2232
  168SOL    HW2  504   1.641   2.261   0.241  0.4242  0.0138 -0.5885
  169SOL     OW  505   3.096   2.575   2.171 -0.3822  0.0289 -0.6505
  169SOL    HW1  506   3.092   2.492   2.107  0.7862  1.2098 -0.3941
  169SOL    HW2  507   3.157   2.552   2.252 -0.4099  1.8661  1.3399
  170SOL     OW  508   1.147   0.138   2.062  0.0067 -0.3068  0.0090
  170SOL    HW1  509   1.243   0.172   2.093  1.0891  0.7499 -1.4791
  170SOL    HW2  510   1.137   0.135   1.961 -0.3979 -0.5438  2.1883
  171SOL     OW  511   0.165   0.864   2.421 -0.1456 -0.2094  0.2236
  171SOL    HW1  512   0.088   0.834   2.484  0.9827  2.6218 -1.6876
  171SOL    HW2  513   0.139   0.939   2.353 -0.8645  0.6980  0.0549
  172SOL     OW  514   1.010   0.990   2.839  0.0089 -0.2192 -0.4534
  172SOL    HW1  515   0.942   1.036   2.904 -0.9954 -1.7630 -0.3256
  172SOL    HW2  516   0.954   0.950   2.762 -1.2870 -1.3885 -1.6880
  173SOL     OW  517   0.391   2.583   0.030 -0.5204  0.0716  0.0188
  173SOL    HW1  518   0.377   2.521  -0.053 -1.4539  3.8817  1.4556
  173SOL    HW2  519   0.370   2.532   0.118 -1.0313 -0.1531 -4.5821
  174SOL     OW  520   1.463   2.868   1.045 -0.0705  0.1517  0.0342
  174SOL    HW1  521   1.547   2.923   1.015 -0.5623 -0.0958 -0.5857
  174SOL    HW2  522   1.455   2.777   0.997 -0.1365 -1.2644  0.9156
  175SOL     OW  523   0.475   3.046   1.716  0.4511 -0.2538  0.2509
  175SOL    HW1  524   0.527   3.063   1.801  0.7424 -1.7611 -0.5154
  175SOL    HW2  525   0.426   3.128   1.681  0.3618 -1.4553 -0.2898
  176SOL     OW  526   2.646   0.449   3.064 -0.5541  0.9963  0.5900
  176SOL    HW1  527   2.630   0.525   3.132 -0.2413  1.4550 -1.2026
  176SOL    HW2  528   2.697   0.369   3.103  0.8280 -0.0127 -1.5981
  177SOL     OW  529   0.393   0.264   0.874  0.2415 -0.8713 -0.7639
  177SOL    HW1  530   0.350   0.174   0.890 -0.4880  2.1120  1.7211
  177SOL    HW2  531   0.494   0.263   0.860  1.1788  2.7842  0.8099
  178SOL     OW  532   0.009   2.738   2.664 -0.5265  0.2838  0.6889
  178SOL    HW1  533  -0.008   2.636   2.638 -2.7507 -1.0380 -0.0521
  178SOL    HW2  534   0.097   2.760   2.718 -1.5856  0.4387  2.0323
  179SOL     OW  535   2.976   1.602   1.200  0.0317  0.4208  0.2703
  179SOL    HW1  536   3.060   1.626   1.148 -2.1577  2.6961 -2.3892
  179SOL    HW2  537   2.997   1.530   1.277  0.3417  0.1087  0.1774
  180SOL     OW  538   0.259   1.399   1.742  0.3308  1.1195 -0.2098
  180SOL    HW1  539   0.334   1.334   1.784 -0.2435 -0.6282  0.6110
  180SOL    HW2  540   0.187   1.421   1.812 -0.8401 -0.1963 -0.9590
  181SOL     OW  541   2.984   1.798   2.479 -0.2187 -0.4104 -0.0172
  181SOL    HW1  542   3.017   1.784   2.380  3.8944 -0.6446  2.1279
  181SOL    HW2  543   2.881   1.794   2.499  0.6357 -0.0743 -0.2391
  182SOL     OW  544   2.242   1.368   1.193 -0.6041  0.4257 -0.0755
  182SOL    HW1  545   2.251   1.273   1.151  2.3482 -1.5849 -0.9528
  182SOL    HW2  546   2.324   1.427   1.159 -0.2079 -1.0956  0.1503
  183SOL     OW  547   1.433   2.241   2.411  0.8515 -0.5440 -0.0350
  183SOL    HW1  548   1.365   2.170   2.442  0.8797 -0.1727  1.5932
  183SOL    HW2  549   1.525   2.200   2.399  0.6005  2.0130 -0.3977
  184SOL     OW  550   2.180   0.789   0.745 -0.0797  0.0026 -0.3792
  184SOL    HW1  551   2.092   0.810   0.791  1.6051 -1.9715 -1.1770
  184SOL    HW2  552   2.199   0.689   0.749 -0.8853  3.1005  0.0468
  185SOL     OW  553   1.582   2.791   2.000 -0.0966 -0.0162  0.0596
  185SOL    HW1  554   1.491   2.838   2.021  0.8950  1.0364 -0.3266
  185SOL    HW2  555   1.634   2.765   2.084  0.4058 -1.3300 -1.9907
  186SOL     OW  556   0.084   2.207   1.775 -0.4485 -0.3518  0.4597
  186SOL    HW1  557   0.031   2.259   1.845 -0.6828  0.2155 -2.5522
  186SOL    HW2  558   0.155   2.134   1.800 -2.0331  0.0887  0.2700
  187SOL     OW  559   1.333   0.693   1.652 -0.4717  0.2189 -0.3531
  187SOL    HW1  560   1.424   0.692   1.606  2.3901  2.4745 -0.3049
  187SOL    HW2  561   1.330   0.616   1.722 -2.2159  0.4022 -1.5647
  188SOL     OW  562   2.710   2.668   1.564 -0.2034  0.0255  0.5827
  188SOL    HW1  563   2.644   2.740   1.602 -1.3488  3.1623  0.4715
  188SOL    HW2  564   2.685   2.639   1.464 -0.4072 -0.9416  0.6043
  189SOL     OW  565   0.949   1.203   1.334 -0.5220  0.3926 -0.0161
  189SOL    HW1  566   0.966   1.235   1.433 -0.1452  1.2949 -1.1670
  189SOL    HW2  567   0.893   1.267   1.273  1.8857  0.8294 -0.7611
  190SOL     OW  568   1.473   1.896   1.504 -0.4571 -0.0045  0.2644
  190SOL    HW1  569   1.425   1.806   1.483 -0.3715 -0.0931 -2.4627
  190SOL    HW2  570   1.467   1.922   1.606 -1.1769  1.2168  2.2139
  191SOL     OW  571   0.845   0.777   1.507  0.1369  0.4236 -0.1883
  191SOL    HW1  572   0.895   0.690   1.547 -0.8041  2.8377  0.5090
  191SOL    HW2  573   0.907   0.840   1.448  0.7711 -0.1903 -0.6855
  192SOL     OW  574   1.816   2.438   1.097 -0.1189 -0.2132  0.1323
  192SOL    HW1  575   1.712   2.417   1.079 -3.8133 -0.3144  2.3981
  192SOL    HW2  576   1.880   2.363   1.071  5.6534  1.1362 -0.7171
  193SOL     OW  577   0.545   0.583   0.435 -0.3760  0.1143 -0.4015
  193SOL    HW1  578   0.479   0.502   0.440  0.4802 -1.7184 -1.4824
  193SOL    HW2  579   0.604   0.579   0.344 -0.8448 -0.9454 -2.0615
  194SOL     OW  580   0.387   0.819   1.309 -0.0461  0.1002 -0.8312
  194SOL    HW1  581   0.291   0.799   1.280  2.9494  0.2675 -2.5876
  194SOL    HW2  582   0.457   0.824   1.229  1.0655  0.3006  0.2161
  195SOL     OW  583   1.028   2.949   0.506  0.5194  0.2469  0.3278
  195SOL    HW1  584   1.017   2.849   0.475 -0.6509 -0.6238  2.5632
  195SOL    HW2  585   1.131   2.974   0.508  1.0314 -0.8505  3.4629
  196SOL     OW  586   0.241   1.421   1.309 -0.1682 -0.3373  0.3684
  196SOL    HW1  587   0.264   1.522   1.320  1.7650 -2.6485  1.8294
  196SOL    HW2  588   0.246   1.367   1.398  0.4626 -3.2019 -1.7849
  197SOL     OW  589   0.846   1.979   0.291  0.0166 -1.1631 -0.7308
  197SOL    HW1  590   0.877   1.935   0.383  0.9323 -1.5747  1.1668
  197SOL    HW2  591   0.859   1.914   0.214  1.3597  0.9790 -0.1613
  198SOL     OW  592   0.272   1.208   0.348 -0.2520 -0.2963 -0.2790
  198SOL    HW1  593   0.172   1.195   0.312 -2.9654 -1.2706  2.4758
  198SOL    HW2  594   0.281   1.308   0.382 -0.8935  0.7793  1.0327
  199SOL     OW  595   2.219   0.450   2.592  0.1710 -0.6918 -0.1317
  199SOL    HW1  596   2.158   0.392   2.648 -1.0442  1.1715  1.1928
  199SOL    HW2  597   2.318   0.440   2.626  1.7109 -0.2691  0.0033
  200SOL     OW  598   3.030   2.885   0.807  0.2958 -0.1483 -0.2716
  200SOL    HW1  599   3.047   2.976   0.853 -0.7761  0.8757  0.6775
  200SOL    HW2  600   2.951   2.887   0.738  2.2511 -0.9024 -2.2879
  201SOL     OW  601   0.906   0.698   0.505 -0.1250 -0.1859  0.3672
  201SOL    HW1  602   0.903   0.787   0.566  2.7699  0.0516 -0.7658
  201SOL    HW2  603   0.872   0.615   0.559 -0.4813  1.8431  2.3714
  202SOL     OW  604   0.471   1.220   1.863  0.3490 -0.2776  0.6996
  202SOL    HW1  605   0.560   1.190   1.819  0.2404 -0.0103  0.2703
  202SOL    HW2  606   0.484   1.270   1.949 -0.7774  1.8463  0.3835
  203SOL     OW  607   0.685   0.191   1.577  0.3803 -0.2948 -0.5040
  203SOL    HW1  608   0.709   0.117   1.511 -0.6092 -2.4289  1.3187
  203SOL    HW2  609   0.770   0.224   1.625 -1.4822  0.2391 -1.2861
  204SOL     OW  610   2.107   1.826   2.926 -0.0746 -0.1869  0.4089
  204SOL    HW1  611   2.081   1.730   2.944 -3.5091  1.5722 -1.8330
  204SOL    HW2  612   2.182   1.831   2.860 -2.0442  1.5438  1.3310
  205SOL     OW  613   1.838   1.900   3.062  0.1298  0.0580 -0.1475
  205SOL    HW1  614   1.933   1.887   3.018 -1.0543  1.4748 -2.4476
  205SOL    HW2  615   1.779   1.960   2.999  0.3326 -0.5587 -1.3292
  206SOL     OW  616   2.356   2.710   0.286  0.3130 -0.3502  0.1757
  206SOL    HW1  617   2.286   2.671   0.350 -1.8488  1.7794  1.3684
  206SOL    HW2  618   2.421   2.641   0.243  1.3964 -2.0538 -1.4596
  207SOL     OW  619   0.696   1.744   2.927 -0.6249  0.0333  0.5678
  207SOL    HW1  620   0.787   1.720   2.882  0.2075  0.0458 -0.4312
  207SOL    HW2  621   0.645   1.666   2.976  0.6324 -0.3316  1.1651
  208SOL     OW  622   0.986   1.548   1.271 -0.0642  0.2714 -0.1688
  208SOL    HW1  623   0.909   1.605   1.229  0.2993  0.1298 -0.0765
  208SOL    HW2  624   0.998   1.567   1.373 -1.1555 -0.8564  1.6067
  209SOL     OW  625   0.251   0.970   3.042 -0.4580  0.4276 -0.0024
  209SOL    HW1  626   0.290   0.953   2.948 -2.5418  1.0773  2.8067
  209SOL    HW2  627   0.249   0.878   3.089 -1.4145  0.3928  2.1201
  210SOL     OW  628   1.680   0.562   1.288 -0.7677 -0.0536  0.6938
  210SOL    HW1  629   1.624   0.566   1.204  0.6416 -1.1400  2.5939
  210SOL    HW2  630   1.780   0.596   1.277  0.0226  0.8723  1.6470
  211SOL     OW  631   2.195   1.024   1.569  0.3954 -0.3732 -0.2436
  211SOL    HW1  632   2.199   1.044   1.675 -1.2164  1.1348 -0.3183
  211SOL    HW2  633   2.211   1.111   1.518 -3.0730  2.2748  1.2387
  212SOL     OW  634   0.034   1.037   1.491 -0.4495  0.4750  0.3318
  212SOL    HW1  635   0.091   1.119   1.506  1.4703 -1.3435  0.6373
  212SOL    HW2  636   0.049   0.958   1.557 -1.0490  0.0094 -0.7237
  213SOL     OW  637   2.826   0.061   0.368  0.5583 -0.6628  0.3359
  213SOL    HW1  638   2.921   0.027   0.336  1.5841 -0.7203 -1.7150
  213SOL    HW2  639   2.743   0.028   0.313 -4.3626 -0.8169  0.8295
  214SOL     OW  640   2.164   0.345   2.355  0.2155  0.5132  0.2491
  214SOL    HW1  641   2.194   0.394   2.440 -0.0242  0.5964  2.1784
  214SOL    HW2  642   2.136   0.241   2.370 -0.3709 -1.9102 -1.7610
  215SOL     OW  643   1.656   2.249   2.063  0.1429  0.7260  0.6668
  215SOL    HW1  644   1.754   2.279   2.088 -1.6665 -0.9023 -0.2159
  215SOL    HW2  645   1.584   2.319   2.090 -0.6697 -1.3040 -1.8665
  216SOL     OW  646   2.226   0.523   0.738  0.8194 -0.0608  0.7849
  216SOL    HW1  647   2.219   0.482   0.646  0.9324 -1.6279  0.0962
  216SOL    HW2  648   2.292   0.467   0.793 -4.1893 -1.4311 -0.6134
  217SOL     OW  649   0.941   2.736   2.564  0.0644  0.3888 -0.3002
  217SOL    HW1  650   0.983   2.679   2.640  4.2117 -1.5812  2.1006
  217SOL    HW2  651   0.880   2.682   2.498  1.4386  0.5005 -0.4757
  218SOL     OW  652   1.874   1.425   0.026  0.1616 -0.5214 -0.0760
  218SOL    HW1  653   1.771   1.440   0.023 -0.8953  0.2209 -1.5690
  218SOL    HW2  654   1.892   1.325   0.036  1.3477  0.3914  1.2550
  219SOL     OW  655   2.456   1.292   2.520 -0.4585 -0.5339 -0.2513
  219SOL    HW1  656   2.474   1.248   2.427  1.6498  2.5758 -1.6093
  219SOL    HW2  657   2.468   1.223   2.600 -1.7597 -1.3937 -0.5721
  220SOL     OW  658   1.384   1.017   1.328  0.2053 -0.1835 -0.0210
  220SOL    HW1  659   1.479   1.023   1.366 -0.7429 -0.2822 -0.0252
  220SOL    HW2  660   1.375   1.002   1.227 -0.1372 -0.6261  1.2150
  221SOL     OW  661   1.372   0.938   2.193 -0.9246 -0.7418  0.2577
  221SOL    HW1  662   1.325   0.973   2.105 -0.2271 -1.4284  1.8168
  221SOL    HW2  663   1.456   0.993   2.210  0.5193  0.4962  0.3113
  222SOL     OW  664   1.172   0.075   1.221 -0.1866 -0.2726 -0.3200
  222SOL    HW1  665   1.190   0.131   1.308  0.4941 -0.0222 -0.9101
  222SOL    HW2  666   1.145   0.129   1.138 -0.0860 -1.6797 -1.1995
  223SOL     OW  667   2.732   0.944   2.131  0.1478 -0.3273  0.1849
  223SOL    HW1  668   2.706   1.034   2.092 -0.7801 -2.6040  0.5760
  223SOL    HW2  669   2.820   0.947   2.188 -1.7327  2.2200  2.3130
  224SOL     OW  670   1.535   1.003   2.792 -0.6733 -0.6718  1.1613
  224SOL    HW1  671   1.528   0.919   2.722  1.5095  0.2618 -1.9603
  224SOL    HW2  672   1.569   1.087   2.745 -3.7143  0.6252  0.7025
  225SOL     OW  673   2.954   2.680   2.924 -0.0600  0.3828 -0.3140
  225SOL    HW1  674   2.884   2.687   2.848  2.9451  0.0269  1.9583
  225SOL    HW2  675   3.047   2.716   2.900  1.4588 -3.4556  2.6723
  226SOL     OW  676   2.426   1.550   2.765  0.0617  0.6383 -0.2491
  226SOL    HW1  677   2.502   1.523   2.694  2.6526  0.4778  0.2682
  226SOL    HW2  678   2.426   1.493   2.856  1.7548  1.7485  2.6667
  227SOL     OW  679   0.866   0.264   3.073  0.5248  0.4677  0.1203
  227SOL    HW1  680   0.915   0.351   3.047  2.7582  1.0023  1.1807
  227SOL    HW2  681   0.823   0.218   2.992  0.2148  0.8088 -2.6689
  228SOL     OW  682   2.445   0.670   2.850 -0.4727  0.0081  0.2783
  228SOL    HW1  683   2.461   0.712   2.753  1.8832 -2.7462 -2.0175
  228SOL    HW2  684   2.492   0.579   2.857  0.3212  1.9265  1.1454
  229SOL     OW  685   0.507   0.570   1.824  1.0057  0.9610 -0.1032
  229SOL    HW1  686   0.578   0.612   1.886  1.4145  1.0989  3.5761
  229SOL    HW2  687   0.540   0.529   1.731  3.0589  0.7617  1.5877
  230SOL     OW  688   1.869   1.213   1.943  0.2002  0.3014  0.0825
  230SOL    HW1  689   1.924   1.291   1.906 -0.4438  0.2662 -0.3731
  230SOL    HW2  690   1.851   1.223   2.047  1.6344  2.2537  1.9244
  231SOL     OW  691   0.613   1.087   3.077 -0.4189  0.4958 -0.1388
  231SOL    HW1  692   0.699   1.148   3.066  2.4973  0.5277  1.3199
  231SOL    HW2  693   0.539   1.141   3.115  3.5052 -0.4055 -1.8688
  232SOL     OW  694   2.392   3.026   2.793  0.0465 -0.6704  0.2568
  232SOL    HW1  695   2.467   2.955   2.781  0.4022 -0.7019  0.8750
  232SOL    HW2  696   2.386   3.093   2.717 -0.8111 -0.7016  1.6504
  233SOL     OW  697   1.792   1.165   1.084  0.0933  0.0855  0.2417
  233SOL    HW1  698   1.871   1.207   1.029  0.3389  1.4595  2.5665
  233SOL    HW2  699   1.822   1.094   1.153  2.1136  0.8503 -1.8438
  234SOL     OW  700   1.635   2.525   1.840 -0.0933 -0.1588  0.0212
  234SOL    HW1  701   1.620   2.586   1.923  1.8844 -1.1728 -0.2035
  234SOL    HW2  702   1.582   2.434   1.827 -3.7230 -2.1151 -0.9671
  235SOL     OW  703   3.101   2.970   2.825  0.2874 -0.0660 -0.0838
  235SOL    HW1  704   3.044   3.016   2.750  0.4677  0.3343 -1.9585
  235SOL    HW2  705   3.078   3.006   2.919  0.0903  1.6121  0.0101
  236SOL     OW  706   2.914   0.691   0.072  0.2606 -0.0970  0.2258
  236SOL    HW1  707   2.984   0.724   0.142 -0.3872  0.1589 -0.9267
  236SOL    HW2  708   2.960   0.637  -0.005 -0.5354  2.7972  2.3381
  237SOL     OW  709   1.491   1.678   0.883  1.1612  0.3199 -0.1869
  237SOL    HW1  710   1.572   1.619   0.898  0.2296  0.2286 -0.5312
  237SOL    HW2  711   1.464   1.741   0.965 -0.9101  0.9335  1.6714
  238SOL     OW  712   1.884   1.200   0.760  0.0643 -0.1967  0.2157
  238SOL    HW1  713   1.933   1.249   0.840 -1.4370 -1.7514 -2.1662
  238SOL    HW2  714   1.783   1.200   0.777  1.1734  2.2698  0.7196
  239SOL     OW  715   2.004   0.224   2.773 -0.3673  0.5556  0.0718
  239SOL    HW1  716   2.053   0.173   2.857 -0.5913 -0.4383  2.1943
  239SOL    HW2  717   1.927   0.286   2.797 -0.1894  1.1932  1.8544
  240SOL     OW  718   0.944   0.698   0.240  0.2158 -0.1100  0.2924
  240SOL    HW1  719   1.027   0.635   0.222 -1.4759  1.3586 -1.0380
  240SOL    HW2  720   0.923   0.712   0.341 -0.3300  1.9284 -2.2990
  241SOL     OW  721   0.568   0.133   0.313  0.4943  0.0627 -0.1777
  241SOL    HW1  722   0.641   0.197   0.264  1.3633 -2.2327  0.4385
  241SOL    HW2  723   0.563   0.038   0.272 -2.0995 -2.0573  1.9744
  242SOL     OW  724   0.631   2.572   1.178 -0.6838  0.6563 -0.0543
  242SOL    HW1  725   0.620   2.576   1.276 -0.2069 -3.0369 -1.5031
  242SOL    HW2  726   0.623   2.666   1.137  0.3931 -0.8669  2.3492
  243SOL     OW  727   1.071   0.625   2.391  0.2247  0.4684  0.2759
  243SOL    HW1  728   0.985   0.649   2.352  1.4001 -0.5364  0.1147
  243SOL    HW2  729   1.059   0.569   2.481 -1.6688  0.5223  2.3362
  244SOL     OW  730   2.676   1.962   2.357  0.1073 -0.0004  0.2745
  244SOL    HW1  731   2.733   1.938   2.269  1.8852  1.6700 -1.1904
  244SOL    HW2  732   2.623   1.880   2.395  0.1025  0.1479 -0.3400
  245SOL     OW  733   2.117   1.013   2.227 -0.6655  0.4640  0.1529
  245SOL    HW1  734   2.221   1.007   2.237 -0.0798  0.4336  0.3464
  245SOL    HW2  735   2.079   1.107   2.247 -0.1781 -0.5285 -0.4645
  246SOL     OW  736   0.313   2.838   1.799  0.0186  0.1992 -0.2061
  246SOL    HW1  737   0.242   2.821   1.723 -1.1812 -1.2040 -1.8659
  246SOL    HW2  738   0.383   2.907   1.771  0.1785 -1.4164  2.9385
  247SOL     OW  739   2.239   0.575   3.008 -0.0731 -0.0828  0.0002
  247SOL    HW1  740   2.306   0.614   2.940  1.3613 -0.0750  4.1793
  247SOL    HW2  741   2.162   0.637   3.027 -1.4231 -0.5904  0.3548
  248SOL     OW  742   2.197   1.804   1.594  0.5247  0.2729  0.5015
  248SOL    HW1  743   2.281   1.779   1.644 -1.5385  0.8711 -3.3403
  248SOL    HW2  744   2.117   1.745   1.624 -2.7934 -0.7606  0.5312
  249SOL     OW  745   1.889   1.910   1.788  0.5631  0.2404  0.4725
  249SOL    HW1  746   1.907   1.858   1.698 -1.1190  1.0709  0.7918
  249SOL    HW2  747   1.976   1.931   1.841  1.0537  0.5392 -0.7714
  250SOL     OW  748   0.949   0.725   1.871 -0.0857 -0.0880 -0.3823
  250SOL    HW1  749   1.018   0.658   1.906 -0.7124  1.9385  1.1648
  250SOL    HW2  750   0.883   0.693   1.794 -0.1406 -0.7822  1.3645
  251SOL     OW  751   3.022   1.522   2.552 -0.0833 -0.7037  0.7640
  251SOL    HW1  752   3.005   1.624   2.537  0.0350 -1.5531 -2.1017
  251SOL    HW2  753   2.947   1.456   2.522  1.1040 -0.4273  1.3969
  252SOL     OW  754   1.574   0.850   1.578 -0.0264 -0.0487  0.1278
  252SOL    HW1  755   1.622   0.900   1.502 -0.4106 -2.6287 -0.7037
  252SOL    HW2  756   1.565   0.904   1.667  0.5204 -0.6046  0.8629
  253SOL     OW  757   0.929   1.527   0.407  0.2685 -0.4861 -0.3810
  253SOL    HW1  758   0.921   1.442   0.354  1.9246  0.9124  1.5415
  253SOL    HW2  759   0.839   1.543   0.455  0.6518 -0.6005  0.0048
  254SOL     OW  760   2.069   2.179   1.639 -0.3060 -0.1556  0.3712
  254SOL    HW1  761   2.026   2.106   1.583 -0.4629  0.7793 -0.6552
  254SOL    HW2  762   1.999   2.244   1.681  1.8015 -2.2379  0.3075
  255SOL     OW  763   0.118   1.181   2.914 -0.0188  0.4598  0.1397
  255SOL    HW1  764   0.167   1.268   2.894 -1.1770  1.4573  0.7362
  255SOL    HW2  765   0.183   1.119   2.974 -0.5775 -1.1469  1.6334
  256SOL     OW  766   2.817   1.425   1.767 -0.3575  0.0586 -0.2276
  256SOL    HW1  767   2.734   1.487   1.741  0.5973 -0.2071 -0.4732
  256SOL    HW2  768   2.815   1.329   1.730  0.3191 -1.7159  0.9737
  257SOL     OW  769   0.882   0.247   1.878 -0.0026 -0.0071 -0.0778
  257SOL    HW1  770   0.952   0.289   1.813  0.3043 -0.6923  1.7762
  257SOL    HW2  771   0.858   0.142   1.856 -0.5340 -5.3063 -0.5814
  258SOL     OW  772   2.964   1.161   0.518 -0.1314  0.2333  0.2548
  258SOL    HW1  773   2.880   1.208   0.549  0.3962  0.6703 -2.3716
  258SOL    HW2  774   3.052   1.200   0.557 -0.0135  4.7797  0.3640
  259SOL     OW  775   0.473   2.936   3.007  0.2456 -0.0294  0.4008
  259SOL    HW1  776   0.375   2.907   3.035  1.2988  1.1553  0.4209
  259SOL    HW2  777   0.495   2.875   2.927 -4.3014 -2.7855  0.4286
  260SOL     OW  778   2.738   0.749   2.734  0.2619  0.2390  0.6708
  260SOL    HW1  779   2.638   0.767   2.698 -1.8718 -2.0255  1.3572
  260SOL    HW2  780   2.746   0.696   2.826  0.9614 -0.9351  2.2719
  261SOL     OW  781   2.691   1.281   1.317 -0.1055 -0.5096  0.0333
  261SOL    HW1  782   2.635   1.244   1.234  1.5311 -4.8086 -0.5701
  261SOL    HW2  783   2.778   1.228   1.345  0.3550  2.9993 -0.5678
  262SOL     OW  784   1.354   2.963   2.055  0.1904  0.2777 -0.1557
  262SOL    HW1  785   1.390   3.049   2.004 -0.6939 -1.2091 -1.6749
  262SOL    HW2  786   1.265   2.923   2.026  1.3792 -0.1183  1.4067
  263SOL     OW  787   0.810   0.639   2.301  0.0692 -0.3320 -0.0148
  263SOL    HW1  788   0.770   0.559   2.250 -0.8040  3.4353  0.4426
  263SOL    HW2  789   0.819   0.723   2.239  1.9558  1.3536 -0.6827
  264SOL     OW  790   2.277   0.818   0.401  0.0399  0.0017  0.4086
  264SOL    HW1  791   2.303   0.769   0.312  1.4539 -0.4235 -0.7890
  264SOL    HW2  792   2.359   0.873   0.431  0.3979 -0.3705  0.5764
  265SOL     OW  793   0.923   2.399   2.589 -0.3314 -0.0964  0.5995
  265SOL    HW1  794   0.975   2.445   2.665 -0.0984 -1.8337  2.4889
  265SOL    HW2  795   0.871   2.313   2.625  1.3497 -0.0166  0.5641
  266SOL     OW  796   1.298   1.782   3.058  0.0001  0.2016  0.2625
  266SOL    HW1  797   1.326   1.811   3.150  0.2767  1.9450 -2.8112
  266SOL    HW2  798   1.375   1.787   2.995 -0.8144 -0.7186 -0.3961
  267SOL     OW  799   1.077   0.034   2.334  0.2593 -0.5069 -0.0959
  267SOL    HW1  800   0.977   0.032   2.306  1.6135 -3.6811  1.4850
  267SOL    HW2  801   1.122   0.039   2.243 -0.4085 -0.0780 -0.6216
  268SOL     OW  802   0.847   1.267   1.055  0.0862  0.5395  0.5537
  268SOL    HW1  803   0.815   1.352   1.107  0.5460 -1.0243  0.0222
  268SOL    HW2  804   0.924   1.287   0.991  0.8192  0.8726 -1.0809
  269SOL     OW  805   2.373   2.548   1.581 -0.0079  0.3442 -0.0770
  269SOL    HW1  806   2.469   2.529   1.550  1.3534  0.8133 -0.3929
  269SOL    HW2  807   2.358   2.545   1.683  3.2891 -3.9716  1.5994
  270SOL     OW  808   0.165   2.991   1.973 -0.0723 -0.0545  0.3571
  270SOL    HW1  809   0.201   2.921   1.901 -1.6382 -1.1008 -3.2914
  270SOL    HW2  810   0.141   2.940   2.060  0.8935 -0.4574 -1.9975
  271SOL     OW  811   0.472   1.386   1.123 -0.7880 -0.1311 -0.0766
  271SOL    HW1  812   0.442   1.360   1.023  0.1279 -1.2142  0.0831
  271SOL    HW2  813   0.395   1.373   1.190  1.2922 -3.8202 -0.9069
  272SOL     OW  814   1.896   3.098   1.926 -0.3460  0.0259 -0.0435
  272SOL    HW1  815   1.834   3.025   1.881 -2.2484 -1.2765  2.9051
  272SOL    HW2  816   1.893   3.193   1.886  1.4780  1.1337  0.2466
  273SOL     OW  817   1.461   1.482   2.820 -0.0884 -0.2169  0.5215
  273SOL    HW1  818   1.366   1.463   2.782  0.7663 -2.4258  0.6430
  273SOL    HW2  819   1.470   1.451   2.917  1.5944 -1.1203 -0.2918
  274SOL     OW  820   1.103   0.530   2.041  0.1179  0.1880  0.6100
  274SOL    HW1  821   1.025   0.465   2.068 -3.0049 -0.0434  1.7056
  274SOL    HW2  822   1.180   0.515   2.104  0.3657  1.4454  1.6366
  275SOL     OW  823   0.646   2.123   1.915 -0.0410 -0.5699  0.6129
  275SOL    HW1  824   0.606   2.215   1.945  0.5128  2.2651 -1.5811
  275SOL    HW2  825   0.587   2.080   1.845  1.3885 -0.5783 -1.1898
  276SOL     OW  826   2.226   0.930   2.850 -0.4292  0.1581  0.1286
  276SOL    HW1  827   2.153   0.989   2.807 -1.4323 -0.2227 -0.8944
  276SOL    HW2  828   2.216   0.832   2.822  0.8612 -0.9188 -1.9691
  277SOL     OW  829   3.086   0.761   0.262  0.1006 -0.5555 -0.2128
  277SOL    HW1  830   3.171   0.823   0.257  0.8798  0.5061 -0.0333
  277SOL    HW2  831   3.104   0.675   0.319  0.5692  0.8880  1.8809
  278SOL     OW  832   0.252   0.238   3.037 -0.1340 -0.2479 -0.4535
  278SOL    HW1  833   0.324   0.190   2.979  1.7280  1.6871 -0.8144
  278SOL    HW2  834   0.283   0.334   3.072 -1.5337 -0.6138  0.4058
  279SOL     OW  835   0.276   3.086   0.902  0.2950 -0.6497  0.5854
  279SOL    HW1  836   0.326   3.075   0.995 -0.3703  2.6935  3.8158
  279SOL    HW2  837   0.252   2.998   0.860  1.4519 -0.1460  1.2843
  280SOL     OW  838   1.620   2.918   2.434 -0.8787 -0.1885 -0.3613
  280SOL    HW1  839   1.690   2.970   2.486 -0.0826  0.7402 -1.3955
  280SOL    HW2  840   1.541   2.976   2.393 -0.0445 -0.9098  0.0084
  281SOL     OW  841   0.535   0.939   2.299  0.4195 -0.1819  0.5760
  281SOL    HW1  842   0.486   0.868   2.244 -0.1962  1.6371 -0.2814
  281SOL    HW2  843   0.541   0.912   2.395  3.1886 -0.1905 -1.1337
  282SOL     OW  844   1.792   2.458   0.544  0.0548  0.1859  0.0651
  282SOL    HW1  845   1.725   2.385   0.500 -2.7181 -1.4529 -1.2714
  282SOL    HW2  846   1.749   2.553   0.539  0.0202  1.9847  2.7297
  283SOL     OW  847   1.155   0.902   0.749 -0.3167  0.4040 -0.0152
  283SOL    HW1  848   1.174   0.854   0.838  0.7716  1.0324  0.8905
  283SOL    HW2  849   1.155   1.005   0.763 -0.3556  1.8896  0.6725
  284SOL     OW  850   2.234   2.805   2.458  0.3109  0.1094 -0.0848
  284SOL    HW1  851   2.335   2.804   2.423  2.0878 -2.7644 -2.0220
  284SOL    HW2  852   2.234   2.819   2.560 -1.6840  1.5162  0.2838
  285SOL     OW  853   1.322   3.056   2.620  0.0619 -0.5179  0.0404
  285SOL    HW1  854   1.363   3.069   2.525  1.3311 -2.0032  1.0176
  285SOL    HW2  855   1.234   3.110   2.635 -0.1424  2.2580  1.7939
  286SOL     OW  856   0.305   0.447   0.658 -0.5157 -0.6404  0.2329
  286SOL    HW1  857   0.340   0.397   0.740 -1.6268  1.1366 -2.5401
  286SOL    HW2  858   0.363   0.412   0.577  0.5718 -0.5294 -1.7284
  287SOL     OW  859   0.091   1.311   2.588 -0.2067 -0.3987 -0.8869
  287SOL    HW1  860   0.036   1.248   2.650  0.1027  3.8260 -1.0316
  287SOL    HW2  861   0.049   1.405   2.568  0.0766  1.8863  1.9830
  288SOL     OW  862   1.531   2.741   1.676  0.0731 -0.2009  0.1532
  288SOL    HW1  863   1.552   2.654   1.727  0.0454 -2.0969 -0.1103
  288SOL    HW2  864   1.556   2.736   1.577  1.7029 -1.1651  1.6119
  289SOL     OW  865   0.635   2.777   0.809  0.0132  0.0508 -0.1993
  289SOL    HW1  866   0.669   2.830   0.725 -0.2557  1.6680 -0.1565
  289SOL    HW2  867   0.637   2.834   0.891  1.7893  3.4456 -3.3334
  290SOL     OW  868   2.823   1.141   1.712 -0.3717 -0.6570 -0.2541
  290SOL    HW1  869   2.749   1.071   1.724  0.4269  2.5606  1.5595
  290SOL    HW2  870   2.916   1.114   1.750  1.6717  2.1114  1.1082
  291SOL     OW  871   1.945   3.074   0.034 -0.3181 -0.1620  0.0169
  291SOL    HW1  872   2.001   3.061   0.120  1.7685 -0.1436 -0.8936
  291SOL    HW2  873   2.010   3.126  -0.028  0.0839  1.6308 -0.3504
  292SOL     OW  874   2.995   1.170   3.058  0.0855  0.2764 -0.1305
  292SOL    HW1  875   2.910   1.223   3.028 -0.2805  0.4359 -1.1288
  292SOL    HW2  876   3.078   1.193   2.999 -2.2035 -1.3696  3.6625
  293SOL     OW  877   0.581   2.073   0.280 -0.3612  0.2990 -0.0388
  293SOL    HW1  878   0.542   2.121   0.361  1.4492 -0.1957 -0.6701
  293SOL    HW2  879   0.682   2.060   0.294  0.2595 -1.7099 -2.0459
  294SOL     OW  880   1.879   2.347   1.754 -0.1645 -0.0071  0.0950
  294SOL    HW1  881   1.882   2.331   1.856  1.6579  1.4392  2.3911
  294SOL    HW2  882   1.795   2.402   1.722 -1.2955  0.1060  1.2354
  295SOL     OW  883   0.955   1.062   0.455 -1.1857  0.8013  0.3177
  295SOL    HW1  884   1.058   1.078   0.456 -2.3941 -2.6510 -1.3259
  295SOL    HW2  885   0.930   1.022   0.544 -0.8280  1.1673 -0.2371
  296SOL     OW  886   1.097   2.167   2.746  0.1517 -0.0617  0.1123
  296SOL    HW1  887   1.001   2.194   2.780  1.4933  0.0938  2.4591
  296SOL    HW2  888   1.106   2.152   2.643 -0.3107 -3.2055 -1.3865
  297SOL     OW  889   1.271   0.536   1.166 -0.3364  0.0463  0.0263
  297SOL    HW1  890   1.318   0.460   1.220  0.8428 -0.3381  1.4305
  297SOL    HW2  891   1.326   0.625   1.158  3.8338  0.7987  0.0484
  298SOL     OW  892   0.463   1.316   2.934 -0.2404  0.3689  0.3055
  298SOL    HW1  893   0.445   1.255   3.015  1.2438  0.2155  1.7998
  298SOL    HW2  894   0.515   1.270   2.858 -0.7227 -0.2891  1.3279
  299SOL     OW  895   0.445   0.190   1.251 -0.0421 -0.3403 -0.2720
  299SOL    HW1  896   0.394   0.275   1.223  2.4024 -0.6490 -0.7682
  299SOL    HW2  897   0.435   0.174   1.351  0.0617 -1.3672  0.4574
  300SOL     OW  898   1.358   1.819   2.586 -0.1644  0.3817 -0.0819
  300SOL    HW1  899   1.335   1.736   2.534  2.5638 -1.8786  1.3743
  300SOL    HW2  900   1.417   1.800   2.668  1.5291  0.3837 -1.0604
  301SOL     OW  901   0.417   0.334   0.405 -0.1688 -1.0570 -0.7495
  301SOL    HW1  902   0.318   0.317   0.371 -0.2002 -1.2210 -0.8769
  301SOL    HW2  903   0.484   0.267   0.358 -2.0364 -0.7839 -1.4537
  302SOL     OW  904   1.270   2.435   2.310 -0.4759 -0.3454  0.1865
  302SOL    HW1  905   1.174   2.401   2.281 -1.3535 -0.1750  0.1424
  302SOL    HW2  906   1.329   2.360   2.354  0.7917 -1.9951 -3.9277
  303SOL     OW  907   0.937   2.447   0.827 -0.1092 -0.0160 -0.4585
  303SOL    HW1  908   0.980   2.449   0.735 -2.7394 -3.0220 -1.0567
  303SOL    HW2  909   0.961   2.526   0.892  0.1112 -1.7460  0.4984
  304SOL     OW  910   0.143   1.931   0.677  0.0718  0.0239  0.0151
  304SOL    HW1  911   0.224   1.909   0.616 -1.0794 -0.9579  3.7487
  304SOL    HW2  912   0.056   1.953   0.626 -1.8176  2.3909 -0.1546
  305SOL     OW  913   1.645   0.877   0.693  0.6070 -0.1472  0.2615
  305SOL    HW1  914   1.596   0.896   0.603  3.2633 -2.6659  0.9983
  305SOL    HW2  915   1.682   0.782   0.701  2.0124  0.7582 -2.6907
  306SOL     OW  916   0.379   1.843   1.961 -0.7896 -0.3567 -0.1639
  306SOL    HW1  917   0.463   1.792   1.928 -0.1122  0.7996  0.0609
  306SOL    HW2  918   0.398   1.898   2.051 -2.1798  2.3038 -1.2653
  307SOL     OW  919   3.010   0.883   2.518  0.2807  0.0419 -0.0533
  307SOL    HW1  920   3.019   0.947   2.601 -1.1653  1.4228 -0.0970
  307SOL    HW2  921   2.934   0.811   2.530 -0.3838 -2.5700 -2.0232
  308SOL     OW  922   1.461   2.695   2.814 -0.5735  0.3188  0.0158
  308SOL    HW1  923   1.450   2.712   2.710  0.5062 -1.4750  1.8297
  308SOL    HW2  924   1.419   2.608   2.847  0.6874  1.8902  1.5740
  309SOL     OW  925   1.238   0.173   1.797 -0.5881 -0.1318  0.5972
  309SOL    HW1  926   1.331   0.129   1.801  0.6485  0.9280 -0.9098
  309SOL    HW2  927   1.193   0.169   1.705 -0.1856  1.9281 -0.3663
  310SOL     OW  928   1.488   2.508   0.667  0.0843 -1.0025 -0.0691
  310SOL    HW1  929   1.432   2.523   0.749  0.9312 -1.9655 -1.4267
  310SOL    HW2  930   1.536   2.596   0.630 -1.8791 -1.8372 -1.6521
  311SOL     OW  931   1.040   0.969   1.766  0.5750 -0.4256  0.1435
  311SOL    HW1  932   1.001   0.880   1.804 -2.9594  0.6992  0.2913
  311SOL    HW2  933   1.087   0.962   1.676 -1.4442  0.9372 -0.1632
  312SOL     OW  934   1.532   0.620   1.049 -0.2892 -0.0782 -0.0852
  312SOL    HW1  935   1.562   0.719   1.053 -0.0838 -1.2046  0.0219
  312SOL    HW2  936   1.486   0.602   0.959 -1.9817 -2.6719  1.6529
  313SOL     OW  937   1.621   1.251   0.782 -0.3248  0.5021  0.2534
  313SOL    HW1  938   1.548   1.293   0.847  0.0315  1.7019  1.0366
  313SOL    HW2  939   1.581   1.190   0.709  3.3627 -0.1467  1.0617
  314SOL     OW  940   2.990   3.089   3.085  0.3613 -0.4752  0.7294
  314SOL    HW1  941   3.006   3.086   3.188  0.0372 -0.6140 -1.6658
  314SOL    HW2  942   2.906   3.033   3.053 -0.2157 -0.4897  0.9857
  315SOL     OW  943   1.189   0.203   2.806  0.0513  0.2127  0.6193
  315SOL    HW1  944   1.125   0.161   2.735  1.1398 -1.6533 -2.0415
  315SOL    HW2  945   1.155   0.187   2.901  1.0557 -0.0610 -1.0061
  316SOL     OW  946   1.773   2.074   0.890  0.7446 -0.2157 -0.1366
  316SOL    HW1  947   1.714   2.097   0.978 -2.0769  3.4601  2.5774
  316SOL    HW2  948   1.797   2.161   0.842  0.9441  0.4835  1.9538
  317SOL     OW  949   1.167   0.700   2.753  0.0601 -0.0983 -0.0571
  317SOL    HW1  950   1.144   0.735   2.848 -2.0060  2.3057 -1.8818
  317SOL    HW2  951   1.105   0.625   2.717 -0.6873  1.0422 -2.9273
  318SOL     OW  952   1.413   3.085   2.339 -0.3079 -0.2121  0.4595
  318SOL    HW1  953   1.374   3.171   2.298 -0.9169 -2.6587 -1.5675
  318SOL    HW2  954   1.426   3.021   2.263 -0.6422  0.4614  1.2344
  319SOL     OW  955   0.653   2.399   3.028 -0.4006 -0.3464  0.3587
  319SOL    HW1  956   0.592   2.316   3.056 -2.9959 -2.5309 -1.6114
  319SOL    HW2  957   0.734   2.368   2.969 -0.3711 -0.0845 -0.7343
  320SOL     OW  958   1.684   2.232   0.398  0.4829  0.3537  0.5670
  320SOL    HW1  959   1.767   2.165   0.404  0.0346 -0.3494  1.9387
  320SOL    HW2  960   1.597   2.188   0.440 -0.1991 -2.9238 -0.8497
  321SOL     OW  961   1.657   2.713   0.552 -0.1588  0.1403 -0.2790
  321SOL    HW1  962   1.593   2.779   0.501 -1.0695 -0.2441 -3.9744
  321SOL    HW2  963   1.750   2.755   0.563 -0.4046 -1.7249  1.4669
  322SOL     OW  964   2.569   1.132   2.307 -0.3264 -0.2707 -0.0971
  322SOL    HW1  965   2.638   1.128   2.391  1.7580 -1.4711  1.1337
  322SOL    HW2  966   2.536   1.038   2.290 -0.1196  1.1724 -2.0693
  323SOL     OW  967   1.140   2.705   0.782  0.0209 -0.1114 -0.5627
  323SOL    HW1  968   1.069   2.707   0.705 -1.1263  1.8647  0.9076
  323SOL    HW2  969   1.134   2.797   0.822  2.7979 -1.5678 -1.7569
  324SOL     OW  970   0.123   2.557   2.418 -0.8169  0.4559  0.0238
  324SOL    HW1  971   0.040   2.515   2.463 -0.9881 -1.0111 -0.9406
  324SOL    HW2  972   0.166   2.635   2.472 -1.9793  0.0901 -0.0171
  325SOL     OW  973   1.279   3.060   0.451  0.7825 -0.8830 -0.3104
  325SOL    HW1  974   1.287   3.109   0.361  1.0994  2.3030  2.3273
  325SOL    HW2  975   1.319   3.125   0.523  0.6371  0.8909 -0.1428
  326SOL     OW  976   2.472   0.869   0.022 -0.1571 -0.1251  0.0517
  326SOL    HW1  977   2.414   0.806  -0.039 -3.7250 -0.0933  0.0626
  326SOL    HW2  978   2.555   0.819   0.057 -1.5360  0.4219 -0.8710
  327SOL     OW  979   2.874   0.290   0.552 -0.2250 -0.2101 -0.2778
  327SOL    HW1  980   2.841   0.232   0.467 -0.8751 -1.2644 -2.5247
  327SOL    HW2  981   2.882   0.230   0.640  0.8783  0.4339  0.5885
  328SOL     OW  982   2.595   0.599   0.375  0.3957 -0.7402 -0.4460
  328SOL    HW1  983   2.647   0.625   0.460  0.3402  0.8013 -0.5538
  328SOL    HW2  984   2.531   0.517   0.387 -0.9555  0.2092 -1.1178
  329SOL     OW  985   2.925   3.022   2.234 -0.6284  0.4848  0.3242
  329SOL    HW1  986   3.006   2.954   2.236 -0.9745  0.0741 -0.2065
  329SOL    HW2  987   2.948   3.115   2.197 -0.1752 -0.8407  2.3202
  330SOL     OW  988   0.535   0.227   1.880 -0.3233  0.7542  0.5490
  330SOL    HW1  989   0.625   0.235   1.830  2.5246 -0.0683  0.5908
  330SOL    HW2  990   0.543   0.199   1.982 -0.5898 -0.8659  2.0381
  331SOL     OW  991   3.089   1.873   1.117  0.7676  0.3044 -0.5516
  331SOL    HW1  992   3.065   1.925   1.029 -2.6844  2.3410  2.6919
  331SOL    HW2  993   3.008   1.845   1.175  0.9085 -1.4197 -2.0297
  332SOL     OW  994   0.376   1.194   0.046 -0.2683 -0.2615  0.0049
  332SOL    HW1  995   0.317   1.116   0.015  1.1386 -0.8594  2.0371
  332SOL    HW2  996   0.352   1.218   0.145  1.1051  0.0436  2.9916
  333SOL     OW  997   2.910   0.954   0.359  0.3364 -0.7235 -0.4325
  333SOL    HW1  998   2.952   1.021   0.423  0.7943  1.5167  4.4994
  333SOL    HW2  999   2.978   0.874   0.343  1.1234 -1.6141 -1.2942
  334SOL     OW 1000   1.734   1.130   1.717 -0.1586 -0.5767 -0.2967
  334SOL    HW1 1001   1.798   1.107   1.642 -1.8606  1.4131 -0.3368
  334SOL    HW2 1002   1.787   1.160   1.801 -2.2008  1.5078 -1.6781
  335SOL     OW 1003   1.920   2.804   2.609  0.4802  0.4809 -0.1116
  335SOL    HW1 1004   1.849   2.796   2.686  0.7709 -0.1952  0.3829
  335SOL    HW2 1005   2.015   2.829   2.639 -0.3320  0.8263 -0.8096
  336SOL     OW 1006   0.262   0.058   2.746 -0.5715  0.1985  0.1668
  336SOL    HW1 1007   0.343   0.097   2.797  1.4489  1.1536 -0.6771
  336SOL    HW2 1008   0.203  -0.003   2.800 -0.2863  2.5564  1.0762
  337SOL     OW 1009   0.913   2.866   3.016 -0.3564  0.2688  0.1592
  337SOL    HW1 1010   0.920   2.774   3.075  0.4749 -3.3419  2.7090
  337SOL    HW2 1011   0.904   2.940   3.080 -0.5419 -1.6126  1.1919
  338SOL     OW 1012   0.010   0.952   0.732  0.5943  0.2267  0.0384
  338SOL    HW1 1013  -0.094   0.946   0.740  0.1969  1.4649  2.0370
  338SOL    HW2 1014   0.047   1.046   0.707  0.1686 -1.7581 -0.3920
  339SOL     OW 1015   1.770   1.314   2.187  0.0519  0.1208  0.0236
  339SOL    HW1 1016   1.693   1.327   2.112 -0.5689 -2.6116 -2.8863
  339SOL    HW2 1017   1.798   1.410   2.223  2.2100  0.4565  2.0502
  340SOL     OW 1018   2.243   0.833   1.064  0.1876 -0.1560  0.1862
  340SOL    HW1 1019   2.172   0.881   1.122  1.3336 -0.5901 -0.5655
  340SOL    HW2 1020   2.231   0.734   1.058  0.9664  0.0332 -2.2193
  341SOL     OW 1021   1.931   2.099   0.392 -0.6498 -0.0725 -0.3003
  341SOL    HW1 1022   1.930   2.130   0.290 -0.2233 -0.3697 -1.9799
  341SOL    HW2 1023   2.008   2.030   0.416  0.4723 -0.4546 -0.2046
  342SOL     OW 1024   2.186   2.121   2.728  0.5201  0.7394  0.0934
  342SOL    HW1 1025   2.178   2.070   2.819  0.9293  0.3067  1.1956
  342SOL    HW2 1026   2.093   2.118   2.675  0.7186 -0.1899  2.3336
  343SOL     OW 1027   0.366   0.889   2.814  0.6137  0.1378 -0.3847
  343SOL    HW1 1028   0.338   0.926   2.723 -0.6606 -1.2931  0.4691
  343SOL    HW2 1029   0.469   0.878   2.830  0.5344 -0.8058 -0.3134
  344SOL     OW 1030   1.938   1.466   0.360  0.1358 -0.1409 -0.1815
  344SOL    HW1 1031   1.951   1.371   0.322  0.1246  2.2194 -0.3456
  344SOL    HW2 1032   1.850   1.477   0.417 -0.3195  0.2265  1.5161
  345SOL     OW 1033   1.340   2.200   2.851  0.2669 -0.0927  0.5633
  345SOL    HW1 1034   1.247   2.180   2.816  0.7968 -2.0430 -2.3852
  345SOL    HW2 1035   1.419   2.167   2.790  0.0045 -0.1485 -1.9106
  346SOL     OW 1036   2.298   0.841   1.393 -0.3421  0.2938 -0.0483
  346SOL    HW1 1037   2.267   0.909   1.469  0.3141  1.0479  1.7116
  346SOL    HW2 1038   2.217   0.790   1.350 -1.7175  0.6028 -3.4148
  347SOL     OW 1039   0.739   2.774   1.674 -0.0334  0.4416  0.1098
  347SOL    HW1 1040   0.813   2.828   1.618  0.7707  1.6196  0.2623
  347SOL    HW2 1041   0.654   2.773   1.621 -0.5368 -0.5159  0.3206
  348SOL     OW 1042   0.181   0.658   2.885  0.3546 -0.2480 -0.5134
  348SOL    HW1 1043   0.098   0.684   2.830  1.3323 -0.9550 -3.5916
  348SOL    HW2 1044   0.254   0.731   2.877 -1.7542  0.5525  0.2426
  349SOL     OW 1045   1.794   0.435   2.832 -0.4339 -0.2063 -0.5548
  349SOL    HW1 1046   1.767   0.521   2.780  0.3770 -1.1916  1.5327
  349SOL    HW2 1047   1.763   0.434   2.934  0.7955 -2.0858 -0.1138
  350SOL     OW 1048   1.677   0.384   0.368 -0.3614 -0.2787  0.1308
  350SOL    HW1 1049   1.762   0.368   0.424  2.6724  2.3220 -1.5467
  350SOL    HW2 1050   1.674   0.477   0.330  1.4693  0.4239  2.8986
  351SOL     OW 1051   0.844   0.846   2.123  0.2161 -0.2478 -0.0685
  351SOL    HW1 1052   0.879   0.945   2.125  0.0739  1.6497 -1.8399
  351SOL    HW2 1053   0.863   0.798   2.037  2.3525  0.8843  1.2812
  352SOL     OW 1054   2.070   1.325   0.599  0.3282  0.2899  0.1307
  352SOL    HW1 1055   2.036   1.400   0.536 -0.7255  1.2178 -0.3557
  352SOL    HW2 1056   1.996   1.268   0.650 -0.5533  0.7546 -2.3633
  353SOL     OW 1057   2.216   2.711   1.110 -0.1830 -0.7134  0.2042
  353SOL    HW1 1058   2.273   2.631   1.138  1.0234  2.5295  4.0897
  353SOL    HW2 1059   2.192   2.762   1.194  0.5112  0.2587 -1.8328
  354SOL     OW 1060   0.232   1.423   2.891 -0.1460  0.0167  0.1323
  354SOL    HW1 1061   0.229   1.472   2.799  0.7298  0.4687  0.7815
  354SOL    HW2 1062   0.332   1.400   2.916  1.3855 -0.8698 -1.9355
  355SOL     OW 1063   0.715   1.578   0.579  0.0467  0.2520  0.3465
  355SOL    HW1 1064   0.728   1.528   0.668  1.2424 -4.2466 -0.9320
  355SOL    HW2 1065   0.662   1.524   0.507 -1.7014 -0.8740 -1.1393
  356SOL     OW 1066   0.943   0.311   2.134  0.7127  0.8891 -0.3806
  356SOL    HW1 1067   1.021   0.248   2.151 -0.5546 -2.7261  0.5923
  356SOL    HW2 1068   0.902   0.294   2.038 -1.2698 -0.4992 -0.1201
  357SOL     OW 1069   0.993   1.371   0.162  0.1011  0.2172 -0.1668
  357SOL    HW1 1070   1.014   1.311   0.080 -2.3509 -0.8578 -2.5151
  357SOL    HW2 1071   1.065   1.446   0.166 -0.1201  1.9901  0.9759
  358SOL     OW 1072   1.683   1.459   0.497 -0.0721  0.2710  0.0815
  358SOL    HW1 1073   1.693   1.380   0.566 -0.5779 -0.6972 -1.3973
  358SOL    HW2 1074   1.625   1.429   0.412 -3.5406  0.7302 -1.6014
  359SOL     OW 1075   1.601   2.586   0.209  0.4405 -0.2497  0.0468
  359SOL    HW1 1076   1.582   2.483   0.199  0.0958 -0.2455 -1.4245
  359SOL    HW2 1077   1.529   2.634   0.265  0.5768  0.3604 -0.2999
  360SOL     OW 1078   0.747   0.464   0.590 -0.1136  0.4000  0.0695
  360SOL    HW1 1079   0.659   0.512   0.542 -2.7488 -0.3433 -0.0077
  360SOL    HW2 1080   0.757   0.362   0.579 -1.3589 -0.8818  1.1386
  361SOL     OW 1081   1.349   1.296   0.625  0.1782  0.4851  0.3369
  361SOL    HW1 1082   1.372   1.326   0.725 -1.3024  2.1270 -0.3822
  361SOL    HW2 1083   1.282   1.364   0.590  0.8890  0.6622  0.5087
  362SOL     OW 1084   1.377   1.838   0.680 -0.2282  0.3722 -0.0860
  362SOL    HW1 1085   1.397   1.765   0.753  0.4210 -0.5139 -1.6681
  362SOL    HW2 1086   1.461   1.866   0.625  0.2699  0.5446  1.7570
  363SOL     OW 1087   1.299   1.345   2.016 -0.1093  0.4988 -0.4908
  363SOL    HW1 1088   1.393   1.374   2.044 -0.6233 -1.8161  0.0256
  363SOL    HW2 1089   1.223   1.405   2.050  1.3419  2.6035 -2.4086
  364SOL     OW 1090   0.545   2.374   1.969  0.5755 -0.4059 -0.0736
  364SOL    HW1 1091   0.443   2.368   1.980  0.5792  1.9429 -1.2238
  364SOL    HW2 1092   0.567   2.454   1.908  0.4472 -0.3871  1.4876
  365SOL     OW 1093   0.938   1.971   1.422 -0.1861  0.1473  0.3422
  365SOL    HW1 1094   0.854   2.021   1.460  0.8438 -1.6792  2.9462
  365SOL    HW2 1095   0.951   1.987   1.319  0.9413 -0.8520 -0.7610
  366SOL     OW 1096   2.740   1.918   0.226 -0.2904 -0.3178  0.1518
  366SOL    HW1 1097   2.668   1.853   0.183 -5.4382 -1.2539 -1.0098
  366SOL    HW2 1098   2.821   1.866   0.269 -0.2182 -3.0783 -0.4999
  367SOL     OW 1099   0.894   1.134   3.070  0.8318 -0.2379 -0.4951
  367SOL    HW1 1100   0.887   1.077   3.157  1.2790 -1.9485  0.5034
  367SOL    HW2 1101   0.985   1.182   3.066 -1.3309  1.9526 -0.9438
  368SOL     OW 1102   1.455   0.555   0.516 -0.2784 -0.0349  0.2172
  368SOL    HW1 1103   1.353   0.578   0.513 -0.8198 -0.9032 -1.8886
  368SOL    HW2 1104   1.499   0.597   0.434  2.4371  0.2960 -0.8242
  369SOL     OW 1105   0.411   1.580   0.159 -0.0924  0.2733 -0.4452
  369SOL    HW1 1106   0.459   1.658   0.204  1.3632 -1.7273 -1.7486
  369SOL    HW2 1107   0.320   1.548   0.207 -1.5156  1.8826  1.3306
  370SOL     OW 1108   0.433   2.196   1.089  0.3769  0.2331 -0.1286
  370SOL    HW1 1109   0.468   2.281   1.039  1.0455  0.2812 -0.7824
  370SOL    HW2 1110   0.343   2.165   1.054  1.7939 -0.1388  1.2822
  371SOL     OW 1111   2.904   2.213   2.749 -0.2545  0.2055 -0.0119
  371SOL    HW1 1112   2.969   2.126   2.749  0.4887 -2.0068 -1.0288
  371SOL    HW2 1113   2.912   2.274   2.833 -1.3714 -0.9095  2.7013
  372SOL     OW 1114   1.002   2.038   1.174  0.0592 -0.0464  0.1087
  372SOL    HW1 1115   0.946   2.096   1.107 -2.3102  0.8583 -0.1434
  372SOL    HW2 1116   1.088   2.087   1.205 -0.9385 -2.0821 -0.0254
  373SOL     OW 1117   1.947   1.922   1.028  0.0582  0.0718  0.2107
  373SOL    HW1 1118   2.050   1.945   1.035  0.0407  2.2579  0.8230
  373SOL    HW2 1119   1.886   1.999   0.995  2.3283 -1.2703 -0.5934
  374SOL     OW 1120   1.909   0.400   0.575  0.2829  0.0103 -0.1801
  374SOL    HW1 1121   1.899   0.319   0.645 -1.2757  0.3032 -1.5268
  374SOL    HW2 1122   2.007   0.412   0.553 -0.2189  0.2246 -1.8362
  375SOL     OW 1123   2.429   2.179   1.119  0.0753 -0.1615  0.2452
  375SOL    HW1 1124   2.459   2.224   1.029  1.6520  0.6580  0.9307
  375SOL    HW2 1125   2.508   2.131   1.167 -2.9134  4.0153  1.9899
  376SOL     OW 1126   0.011   0.635   1.428 -0.2162 -0.1301  0.4250
  376SOL    HW1 1127   0.071   0.690   1.498  0.5951 -2.4156  2.3202
  376SOL    HW2 1128  -0.049   0.559   1.466  1.6202  1.1559 -0.7754
  377SOL     OW 1129   2.191   2.916   0.206  0.0834  0.1770 -0.3285
  377SOL    HW1 1130   2.224   3.003   0.255  2.6468  1.2593 -1.5876
  377SOL    HW2 1131   2.259   2.838   0.228 -0.7243 -0.3100  0.1307
  378SOL     OW 1132   1.895   1.896   2.480 -0.1914 -0.1226  0.8937
  378SOL    HW1 1133   1.950   1.909   2.394  3.6870 -0.3611  1.4505
  378SOL    HW2 1134   1.865   1.800   2.493 -0.1854 -1.2191 -2.1722
  379SOL     OW 1135   0.762   0.163   2.811 -0.4509  0.1660 -0.3023
  379SOL    HW1 1136   0.763   0.070   2.763  1.8636  1.7319 -2.4723
  379SOL    HW2 1137   0.770   0.240   2.748 -1.6736 -3.7405 -1.4267
  380SOL     OW 1138   1.548   1.153   0.504 -0.6829 -1.2995 -0.0418
  380SOL    HW1 1139   1.481   1.224   0.542  0.7834  1.2821  1.8355
  380SOL    HW2 1140   1.501   1.066   0.477 -0.6239  4.2227 -1.9252
  381SOL     OW 1141   1.269   1.287   1.521 -0.5621  0.6364 -0.1225
  381SOL    HW1 1142   1.256   1.210   1.452  1.6490  0.7913  1.4565
  381SOL    HW2 1143   1.363   1.290   1.570  1.0111  1.4244  1.0720
  382SOL     OW 1144   1.825   0.834   0.251  0.5404  0.0671  0.0209
  382SOL    HW1 1145   1.871   0.796   0.167 -0.8846  1.8359 -0.8903
  382SOL    HW2 1146   1.885   0.858   0.332  1.9405  1.3047 -0.5714
  383SOL     OW 1147   2.552   0.980   1.462 -0.8278 -0.3149  0.4131
  383SOL    HW1 1148   2.463   0.944   1.428  4.4633  1.0432 -0.9286
  383SOL    HW2 1149   2.618   0.982   1.384 -0.3851 -0.2778  1.7659
  384SOL     OW 1150   0.924   2.294   0.238  0.6194 -0.3535  0.3683
  384SOL    HW1 1151   0.848   2.366   0.244  1.6660  1.2021  1.1980
  384SOL    HW2 1152   0.947   2.248   0.330  2.1338 -3.2791  1.8563
  385SOL     OW 1153   2.969   2.054   1.670 -0.2852 -0.8590  0.1881
  385SOL    HW1 1154   3.039   2.117   1.710 -0.3715  0.8519 -0.9070
  385SOL    HW2 1155   2.998   1.955   1.662 -0.8896  1.2055 -0.6695
  386SOL     OW 1156   0.481   1.047   0.451  0.1094  0.4060  0.3654
  386SOL    HW1 1157   0.446   0.955   0.483  2.2078  1.1197 -0.9012
  386SOL    HW2 1158   0.404   1.113   0.431 -0.4841  5.0489  1.1893
  387SOL     OW 1159   1.003   0.354   1.663 -0.4817  0.1654 -0.7200
  387SOL    HW1 1160   1.024   0.456   1.654  2.3774  1.0089 -2.3360
  387SOL    HW2 1161   0.999   0.304   1.572  3.1750 -0.1330 -1.2951
  388SOL     OW 1162   1.215   2.692   1.736  0.4802  0.2260  0.2292
  388SOL    HW1 1163   1.255   2.700   1.639 -1.5112 -1.1124 -2.9696
  388SOL    HW2 1164   1.282   2.643   1.799  0.7420  0.4810  0.5819
  389SOL     OW 1165   0.153   2.914   1.350 -0.4591 -0.1248 -0.1929
  389SOL    HW1 1166   0.067   2.896   1.291 -2.1956  0.2730 -1.8716
  389SOL    HW2 1167   0.231   2.848   1.333  0.8457  0.1214 -0.1509
  390SOL     OW 1168   1.025   0.951   1.377 -0.1210 -0.3477  0.2388
  390SOL    HW1 1169   1.110   0.940   1.441  1.1421 -2.6238 -0.4126
  390SOL    HW2 1170   1.017   1.045   1.333 -0.0335  1.4343  1.3110
  391SOL     OW 1171   2.196   1.110   1.107  0.4138 -0.2798  0.6037
  391SOL    HW1 1172   2.120   1.059   1.163 -4.2526  1.4353  2.3243
  391SOL    HW2 1173   2.204   1.081   1.009  0.6441  1.2595  0.0736
  392SOL     OW 1174   0.883   2.644   0.082 -0.1863 -0.0334  0.5582
  392SOL    HW1 1175   0.963   2.585   0.059 -0.3812  0.2658 -2.0956
  392SOL    HW2 1176   0.806   2.585   0.126  0.6273  0.4417 -1.7961
  393SOL     OW 1177   0.276   0.653   1.994 -0.0892  0.3810 -0.2979
  393SOL    HW1 1178   0.211   0.573   1.974 -0.2682  0.0985 -0.0916
  393SOL    HW2 1179   0.325   0.676   1.908 -0.7025  1.1874 -1.7765
  394SOL     OW 1180   3.037   1.962   2.705  0.1410 -0.4251 -1.0526
  394SOL    HW1 1181   3.133   1.939   2.745  2.1289 -1.1928 -0.1404
  394SOL    HW2 1182   3.017   1.902   2.623 -0.9251  1.1637  1.3487
  395SOL     OW 1183   1.616   1.940   0.589 -0.1293  0.1490  0.5909
  395SOL    HW1 1184   1.682   1.873   0.546 -0.8495  0.3969 -1.0394
  395SOL    HW2 1185   1.644   1.979   0.682 -0.2447 -2.8085  2.6679
  396SOL     OW 1186   2.850   1.838   1.297  0.8627 -0.3573 -0.0822
  396SOL    HW1 1187   2.873   1.739   1.281  1.5841  1.6801 -0.8888
  396SOL    HW2 1188   2.749   1.859   1.279 -0.1937  2.1455 -2.6782
  397SOL     OW 1189   1.022   2.213   0.502  0.1721  0.3146 -0.3585
  397SOL    HW1 1190   0.917   2.202   0.519 -1.6967  0.7285 -1.3466
  397SOL    HW2 1191   1.045   2.311   0.525 -0.3322  0.0050 -0.8009
  398SOL     OW 1192   2.133   3.074   1.100  0.5324 -0.5549  0.2490
  398SOL    HW1 1193   2.060   3.011   1.146 -1.1624 -1.1609  0.5606
  398SOL    HW2 1194   2.096   3.167   1.081  0.4881 -1.3714  0.6185
  399SOL     OW 1195   3.043   2.455   2.630 -0.3857 -0.1976  0.4330
  399SOL    HW1 1196   2.951   2.465   2.578  0.9513 -1.9836  0.1452
  399SOL    HW2 1197   3.033   2.385   2.703 -0.2011 -0.7522 -0.3918
  400SOL     OW 1198   0.697   1.658   1.377 -0.8293 -0.2548 -0.0464
  400SOL    HW1 1199   0.639   1.708   1.453  0.2355  1.7777  1.4542
  400SOL    HW2 1200   0.689   1.695   1.281  0.6055  1.0496 -1.0703
  401SOL     OW 1201   1.851   0.249   1.163 -0.5044  0.2701  0.2336
  401SOL    HW1 1202   1.880   0.225   1.257 -2.7580  3.2639 -0.2153
  401SOL    HW2 1203   1.759   0.295   1.162 -0.2038 -1.0095  1.7874
  402SOL     OW 1204   1.356   0.246   3.088  0.1382 -0.0136 -0.2819
  402SOL    HW1 1205   1.437   0.211   3.029  0.5872  0.4930 -1.0967
  402SOL    HW2 1206   1.287   0.313   3.045 -1.8378  0.0217  0.5636
  403SOL     OW 1207   2.264   1.818   0.893 -0.8470  0.3669 -0.6619
  403SOL    HW1 1208   2.349   1.865   0.851 -3.4155 -2.5987 -0.8591
  403SOL    HW2 1209   2.218   1.874   0.964  0.8681 -2.2975 -1.2283
  404SOL     OW 1210   0.205   2.479   2.753  0.6599 -0.0362 -0.2390
  404SOL    HW1 1211   0.296   2.453   2.711 -0.6893 -0.9276  1.5687
  404SOL    HW2 1212   0.199   2.566   2.810 -0.2586  0.8505 -1.9710
  405SOL     OW 1213   0.089   2.432   0.752 -0.1852 -1.1351  0.0210
  405SOL    HW1 1214   0.079   2.362   0.681  2.0199 -0.8945  0.9392
  405SOL    HW2 1215   0.163   2.499   0.743  0.0104 -1.6859  2.8407
  406SOL     OW 1216   0.059   1.568   3.094  0.5332 -0.8159  0.1028
  406SOL    HW1 1217   0.125   1.527   3.027  0.3395  2.7147 -0.3889
  406SOL    HW2 1218   0.087   1.552   3.193 -1.9138 -2.2468  1.9592
  407SOL     OW 1219   1.564   0.889   0.956  0.3299  0.3611 -0.1545
  407SOL    HW1 1220   1.572   0.891   0.853  1.1871 -0.0303  0.3601
  407SOL    HW2 1221   1.500   0.966   0.991 -0.3745  2.8081  2.6573
  408SOL     OW 1222   1.578   2.407   0.974 -0.4668  0.0709 -0.6982
  408SOL    HW1 1223   1.631   2.390   0.888 -1.5366  0.3089 -1.1452
  408SOL    HW2 1224   1.507   2.486   0.964 -2.4601  0.8092  0.4221
  409SOL     OW 1225   0.658   0.818   0.766  0.2591  1.2555 -0.1949
  409SOL    HW1 1226   0.583   0.826   0.694  1.9291 -0.6117 -1.5698
  409SOL    HW2 1227   0.652   0.736   0.831 -1.1700 -0.8237  1.1674
  410SOL     OW 1228   1.256   2.029   1.391  0.1919  0.0577 -0.1184
  410SOL    HW1 1229   1.350   1.987   1.420  1.0415  0.0896  1.7945
  410SOL    HW2 1230   1.174   2.005   1.444  0.5725 -2.0126 -3.8436
  411SOL     OW 1231   2.515   1.830   2.996 -0.9155 -0.0965 -0.8928
  411SOL    HW1 1232   2.566   1.920   2.981 -0.1543 -0.9462 -0.3471
  411SOL    HW2 1233   2.427   1.831   2.941 -2.2334  0.7524  1.3920
  412SOL     OW 1234   1.482   2.456   2.145 -0.3199 -0.3120 -0.2036
  412SOL    HW1 1235   1.567   2.485   2.198 -0.0617  0.5224 -0.8303
  412SOL    HW2 1236   1.399   2.431   2.200 -0.9260  1.3704 -0.1281
  413SOL     OW 1237  -0.004   0.192   2.952  0.3731  0.4274  0.3097
  413SOL    HW1 1238  -0.038   0.102   2.999 -0.2978  1.1987  0.6735
  413SOL    HW2 1239   0.099   0.207   2.967 -0.8880 -0.3943  1.7749
  414SOL     OW 1240   1.764   1.493   1.203 -0.5186 -0.3367 -0.1208
  414SOL    HW1 1241   1.762   1.593   1.225  0.8817 -0.1793  0.1543
  414SOL    HW2 1242   1.768   1.482   1.098 -0.2984  0.1756 -1.8740
  415SOL     OW 1243   0.323   2.216   0.704 -0.8258 -0.7988  0.5173
  415SOL    HW1 1244   0.277   2.200   0.790  0.0936  0.5677  2.9103
  415SOL    HW2 1245   0.258   2.213   0.627  1.5492  0.8046  0.8372
  416SOL     OW 1246   0.348   1.051   1.048  0.2921  0.5676  0.2739
  416SOL    HW1 1247   0.315   0.984   0.972  3.3956  1.9076 -1.2263
  416SOL    HW2 1248   0.446   1.081   1.035 -0.0442  0.9177  1.1842
  417SOL     OW 1249   2.322   2.437   2.058  0.4122  0.4897  0.2829
  417SOL    HW1 1250   2.326   2.332   2.058  2.8837  1.2953  0.2743
  417SOL    HW2 1251   2.264   2.483   2.131  1.1071  3.8083  0.4390
  418SOL     OW 1252   1.055   0.495   1.344 -0.5534 -0.4145  0.1704
  418SOL    HW1 1253   0.975   0.488   1.283  3.9455  0.4638 -1.5312
  418SOL    HW2 1254   1.137   0.496   1.286 -1.4813 -1.7694 -0.6235
  419SOL     OW 1255   0.930   0.510   2.968  0.2967 -0.3968  0.4327
  419SOL    HW1 1256   0.863   0.554   2.897 -2.3502  0.5150 -0.6964
  419SOL    HW2 1257   0.992   0.579   3.019 -1.0768  2.3747 -2.5997
  420SOL     OW 1258   0.119   2.206   0.508  0.0519 -0.0707 -1.0360
  420SOL    HW1 1259   0.177   2.200   0.424 -0.7098 -0.0683 -0.7546
  420SOL    HW2 1260   0.045   2.132   0.520  0.9863  1.4139  3.6672
  421SOL     OW 1261   0.326   2.927   0.582 -0.0180  0.1314 -0.6250
  421SOL    HW1 1262   0.289   2.885   0.671  0.3891 -0.9389 -1.1607
  421SOL    HW2 1263   0.403   2.995   0.594 -0.0232 -0.0671  0.0659
  422SOL     OW 1264   1.003   2.622   1.037  0.3297 -0.0077  0.3649
  422SOL    HW1 1265   1.071   2.674   0.976  1.4599 -1.3289  0.6796
  422SOL    HW2 1266   1.048   2.591   1.120 -0.7361  1.6029 -2.5138
  423SOL     OW 1267   0.128   0.754   1.214 -0.3736 -0.0109  0.6301
  423SOL    HW1 1268   0.087   0.688   1.283 -0.1958 -1.9208 -1.8030
  423SOL    HW2 1269   0.068   0.831   1.194  1.0478 -1.9544  0.0506
  424SOL     OW 1270   1.181   2.215   2.033  0.5070  0.0124 -0.1972
  424SOL    HW1 1271   1.146   2.313   2.018 -1.0507 -1.3554  1.2333
  424SOL    HW2 1272   1.165   2.186   2.133 -0.5565  2.6616 -0.5050
  425SOL     OW 1273   2.007   1.308   0.977  0.0231 -0.2527 -0.5989
  425SOL    HW1 1274   2.091   1.254   1.009  3.6626  1.8608  1.9188
  425SOL    HW2 1275   2.020   1.414   0.972 -1.8826  0.3278 -2.3824
  426SOL     OW 1276   1.427   1.613   1.237  0.1413 -0.2167 -0.2268
  426SOL    HW1 1277   1.415   1.708   1.203 -1.1506  2.3087  1.8942
  426SOL    HW2 1278   1.388   1.603   1.336  0.0637  0.6126  1.1106
  427SOL     OW 1279   1.922   2.346   2.066  0.5481 -0.1150  0.2844
  427SOL    HW1 1280   1.992   2.311   2.130 -0.2864  0.8733  0.8422
  427SOL    HW2 1281   1.924   2.453   2.059 -1.7683 -2.1516 -1.0465
  428SOL     OW 1282   0.855   0.012   0.101  0.3932  0.4317  0.1395
  428SOL    HW1 1283   0.856   0.106   0.053 -3.0202  0.8003 -1.0884
  428SOL    HW2 1284   0.949  -0.032   0.105 -0.5468 -3.2923  0.3912
  429SOL     OW 1285   1.293   0.160   0.244 -0.8779  0.2868  0.5149
  429SOL    HW1 1286   1.382   0.156   0.298 -0.5175  0.2693  0.2519
  429SOL    HW2 1287   1.310   0.169   0.142  1.1047  1.5767 -1.7942
  430SOL     OW 1288   2.913   1.390   0.301 -0.4310  0.2362 -0.0892
  430SOL    HW1 1289   2.902   1.449   0.214  0.6970 -0.3310  2.4541
  430SOL    HW2 1290   2.892   1.448   0.395  1.8414  2.7648  1.0108
  431SOL     OW 1291   2.057   1.596   0.932  0.3122 -0.3956 -0.1913
  431SOL    HW1 1292   2.140   1.658   0.944 -0.2628  1.8630  4.3432
  431SOL    HW2 1293   1.971   1.654   0.916 -0.2024 -0.7051  1.3951
  432SOL     OW 1294   2.943   2.151   1.216 -0.2119 -0.2682  0.0592
  432SOL    HW1 1295   2.931   2.051   1.237  1.5736  0.1212 -0.0358
  432SOL    HW2 1296   2.971   2.202   1.304 -1.8838 -0.0874  0.9677
  433SOL     OW 1297   1.842   0.195   0.797  0.2755 -0.5016 -0.0083
  433SOL    HW1 1298   1.811   0.259   0.867 -0.8653 -6.6188  0.1983
  433SOL    HW2 1299   1.892   0.110   0.839  0.8035 -0.2919  0.6923
  434SOL     OW 1300   1.586   0.331   0.670 -0.9011 -0.1175 -0.1801
  434SOL    HW1 1301   1.569   0.398   0.598  1.0182 -3.2747  0.4839
  434SOL    HW2 1302   1.622   0.369   0.761  1.4394  2.2097 -2.9945
  435SOL     OW 1303   1.562   1.436   2.040 -0.4743  0.1204  0.4155
  435SOL    HW1 1304   1.578   1.481   2.133 -0.4498 -3.0149  2.6804
  435SOL    HW2 1305   1.529   1.502   1.970  2.6748 -0.5818  1.6666
  436SOL     OW 1306   1.705   2.723   2.239 -0.0191 -0.2834  0.7699
  436SOL    HW1 1307   1.662   2.778   2.318 -0.6757 -1.8483 -0.8035
  436SOL    HW2 1308   1.700   2.624   2.259 -0.3393  0.1467  1.1145
  437SOL     OW 1309   1.087   2.930   0.906 -0.2369  0.5141 -0.1665
  437SOL    HW1 1310   1.016   3.002   0.878 -0.8570  2.4039 -2.4627
  437SOL    HW2 1311   1.093   2.923   1.010 -1.2046 -0.1988  0.8407
  438SOL     OW 1312   1.005   2.670   1.416 -0.4524 -0.3903  0.7308
  438SOL    HW1 1313   1.109   2.664   1.429  1.5774  0.2564  0.0283
  438SOL    HW2 1314   0.945   2.592   1.431 -1.7278  2.1687 -0.8489
  439SOL     OW 1315   0.673   1.826   1.070 -0.2034  0.2762 -0.0516
  439SOL    HW1 1316   0.650   1.912   1.014 -0.4940  1.0527  0.5092
  439SOL    HW2 1317   0.586   1.777   1.105  0.4433 -1.0869 -0.3759
  440SOL     OW 1318   1.084   2.476   1.969 -0.3645  0.7552 -0.2949
  440SOL    HW1 1319   1.018   2.515   1.897 -0.6983 -1.7702  0.3458
  440SOL    HW2 1320   1.184   2.504   1.950 -1.0934  0.9690 -1.6044
  441SOL     OW 1321   0.412   2.694   1.543 -0.1486 -0.5237  0.5656
  441SOL    HW1 1322   0.496   2.632   1.552 -2.1412 -0.2683  0.1834
  441SOL    HW2 1323   0.368   2.688   1.448  0.1071  0.5290 -0.8720
  442SOL     OW 1324   2.261   0.711   2.531  0.4586 -0.5266  0.5129
  442SOL    HW1 1325   2.252   0.607   2.554 -2.1905 -0.9489  1.5452
  442SOL    HW2 1326   2.172   0.759   2.565  1.0060  0.5909 -0.2254
  443SOL     OW 1327   1.187   2.706   2.196  0.0559  0.5405  0.4521
  443SOL    HW1 1328   1.158   2.751   2.288 -1.8140 -0.3573  0.4018
  443SOL    HW2 1329   1.263   2.636   2.206  1.5796  0.1272 -1.5750
  444SOL     OW 1330   0.995   1.320   1.595  0.0173  0.1480 -0.2378
  444SOL    HW1 1331   1.099   1.306   1.583 -0.0505  0.3075 -0.2830
  444SOL    HW2 1332   0.969   1.418   1.574  0.1000 -0.2859  1.0992
  445SOL     OW 1333   3.068   2.387   1.987  0.1922  0.3015  0.2985
  445SOL    HW1 1334   3.074   2.472   1.923 -0.3692 -0.3208 -3.2659
  445SOL    HW2 1335   2.968   2.355   1.993 -1.4607  2.3068 -1.3992
  446SOL     OW 1336   0.210   1.912   2.343  0.1454 -0.0189  0.0386
  446SOL    HW1 1337   0.183   2.001   2.394  0.0908  2.4559 -2.9404
  446SOL    HW2 1338   0.134   1.873   2.281  1.7652 -1.6333  1.7984
  447SOL     OW 1339   1.191   1.672   1.949 -0.0838 -0.6820 -0.1600
  447SOL    HW1 1340   1.125   1.734   1.902  1.1836 -0.9174  0.2133
  447SOL    HW2 1341   1.285   1.714   1.968  0.4690  0.5579 -0.6814
  448SOL     OW 1342   0.099   1.478   1.965  0.4751  0.0885 -0.3696
  448SOL    HW1 1343   0.114   1.578   1.959 -1.8666 -0.6697  3.5270
  448SOL    HW2 1344   0.119   1.444   2.063  2.6106 -1.1724  0.7843
  449SOL     OW 1345   1.992   3.007   0.861  0.2010  0.2305  0.2055
  449SOL    HW1 1346   2.056   3.020   0.942 -3.6813  3.6943 -0.7935
  449SOL    HW2 1347   1.980   2.909   0.830 -0.6503  0.2835 -0.6974
  450SOL     OW 1348   2.276   1.372   0.870 -0.0593  0.0998  0.2135
  450SOL    HW1 1349   2.259   1.271   0.847  1.6976 -2.6752  3.0590
  450SOL    HW2 1350   2.208   1.442   0.842  0.5962  1.8922  4.3083
  451SOL     OW 1351   1.435   0.029   1.454  0.0060 -0.0792 -0.1719
  451SOL    HW1 1352   1.347   0.085   1.451  0.4724 -0.2273 -1.2998
  451SOL    HW2 1353   1.451  -0.014   1.548 -2.0672  0.3310 -0.5295
  452SOL     OW 1354   2.661   2.308   2.258 -0.5049 -0.2039  0.1502
  452SOL    HW1 1355   2.595   2.381   2.274  2.3126 -2.3890  1.1680
  452SOL    HW2 1356   2.705   2.267   2.347  1.1638 -1.2641 -1.7475
  453SOL     OW 1357   2.434   2.601   3.048  0.0252 -0.5434 -0.5312
  453SOL    HW1 1358   2.349   2.658   3.071 -0.3268 -0.7176  0.6947
  453SOL    HW2 1359   2.430   2.546   2.959  0.0071  0.2586 -0.2656
  454SOL     OW 1360   0.948   1.094   2.086  0.4590 -0.7159 -0.5754
  454SOL    HW1 1361   0.942   1.148   1.996 -2.2273  1.6280  2.8279
  454SOL    HW2 1362   1.041   1.057   2.098 -1.5728 -0.4641 -0.2603
  455SOL     OW 1363   0.723   2.629   2.905 -0.3332 -0.4427  0.2711
  455SOL    HW1 1364   0.767   2.703   2.969  0.7106  0.6364  1.2092
  455SOL    HW2 1365   0.676   2.557   2.961 -0.8660  0.7972 -0.0990
  456SOL     OW 1366   0.551   1.782   0.282  0.3102  0.1732  0.3591
  456SOL    HW1 1367   0.644   1.730   0.274 -0.3573 -0.8936 -1.9755
  456SOL    HW2 1368   0.564   1.884   0.262 -1.0388  4.0092  1.5258
  457SOL     OW 1369   0.326   2.595   0.708  0.4168  0.0104 -0.7386
  457SOL    HW1 1370   0.330   2.618   0.606  0.4130 -2.2690 -3.8060
  457SOL    HW2 1371   0.408   2.547   0.749  0.2800 -1.7855 -2.7312
  458SOL     OW 1372   2.968   2.964   1.246 -0.0880 -1.2445 -0.2287
  458SOL    HW1 1373   2.964   3.062   1.210  0.2435  1.5326 -0.6943
  458SOL    HW2 1374   2.973   2.896   1.169 -0.9225 -1.0227 -1.9338
  459SOL     OW 1375   2.084   2.525   0.925 -0.2287  0.3624  0.1593
  459SOL    HW1 1376   2.081   2.590   1.004 -2.0688  2.8012 -2.6782
  459SOL    HW2 1377   2.179   2.519   0.881  3.1782  2.1179  0.1915
  460SOL     OW 1378   1.071   1.922   2.899 -0.0580 -0.0234 -0.6674
  460SOL    HW1 1379   1.062   2.023   2.881 -2.5835  3.0191  3.2292
  460SOL    HW2 1380   1.156   1.899   2.953 -0.6110 -1.1043  1.5623
  461SOL     OW 1381   0.507   2.117   2.703  0.5133  0.0422  0.1598
  461SOL    HW1 1382   0.444   2.052   2.652  4.4170 -0.0739 -4.5423
  461SOL    HW2 1383   0.560   2.078   2.781 -1.2931  0.0518 -0.9486
  462SOL     OW 1384   0.948   1.204   1.837  0.3537  0.5190 -0.4326
  462SOL    HW1 1385   0.978   1.102   1.808  1.1041 -1.3519 -1.8350
  462SOL    HW2 1386   0.979   1.271   1.766 -0.4043 -2.7395  0.3441
  463SOL     OW 1387   0.457   0.794   0.562 -0.4572  0.1025 -0.4525
  463SOL    HW1 1388   0.502   0.716   0.510  1.5904 -0.7501 -0.5123
  463SOL    HW2 1389   0.353   0.795   0.540 -1.8448 -0.4090  1.2382
  464SOL     OW 1390   0.504   2.247   2.222 -0.2729  0.4998 -0.7044
  464SOL    HW1 1391   0.452   2.320   2.275  0.2418  0.1759  0.1050
  464SOL    HW2 1392   0.552   2.280   2.139  0.5854 -0.5104  0.8717
  465SOL     OW 1393   0.226   0.891   0.880 -0.2413 -0.0486 -0.0939
  465SOL    HW1 1394   0.140   0.925   0.832 -1.3695  0.6648 -1.4596
  465SOL    HW2 1395   0.242   0.787   0.886  0.1582 -2.8548 -0.1439
  466SOL     OW 1396   1.376   1.085   1.051 -0.1736 -0.5366 -0.5041
  466SOL    HW1 1397   1.457   1.148   1.078  1.3675 -0.9883 -1.2997
  466SOL    HW2 1398   1.289   1.140   1.045  1.5563  2.2441  1.1248
  467SOL     OW 1399   0.448   0.377   2.384 -0.2441  0.3066  0.3743
  467SOL    HW1 1400   0.441   0.474   2.423 -0.6305  2.5395  0.4949
  467SOL    HW2 1401   0.439   0.299   2.456 -0.2931 -0.6841  0.1127
  468SOL     OW 1402   0.482   2.242   1.685  0.2666 -0.0312  0.3978
  468SOL    HW1 1403   0.499   2.324   1.745 -0.4946  1.0324 -0.0585
  468SOL    HW2 1404   0.457   2.274   1.589  2.4347  0.3787 -0.8377
  469SOL     OW 1405   1.550   1.297   1.115  0.1152 -0.8721 -0.2933
  469SOL    HW1 1406   1.640   1.245   1.107 -2.0090 -1.1150 -2.9226
  469SOL    HW2 1407   1.552   1.388   1.170 -0.4881  1.6796 -0.1256
  470SOL     OW 1408   3.028   1.657   0.737 -0.0005 -0.2467 -0.2293
  470SOL    HW1 1409   3.126   1.685   0.775  1.8545 -2.7466  2.2121
  470SOL    HW2 1410   2.943   1.710   0.774  1.9458  1.4814  1.2968
  471SOL     OW 1411   2.693   1.298   2.130  0.0733 -0.0177  0.5874
  471SOL    HW1 1412   2.645   1.231   2.192 -1.8647 -0.2647  0.1725
  471SOL    HW2 1413   2.738   1.371   2.186 -1.1744 -1.1125  0.4296
  472SOL     OW 1414   1.099   2.465   3.089  0.0378  0.0069  0.3189
  472SOL    HW1 1415   1.186   2.441   3.140 -0.3644 -0.2193  0.4711
  472SOL    HW2 1416   1.034   2.381   3.089 -1.4988  2.1722  0.8627
  473SOL     OW 1417   1.085   1.577   0.879 -0.6130  0.1453 -0.6993
  473SOL    HW1 1418   0.985   1.584   0.912  0.4450  1.4114 -0.6050
  473SOL    HW2 1419   1.150   1.545   0.955  3.2859  0.0297  0.2845
  474SOL     OW 1420   0.816   1.201   0.721 -0.6132  0.4837 -0.0892
  474SOL    HW1 1421   0.751   1.219   0.641  0.4064  0.4651 -0.4623
  474SOL    HW2 1422   0.838   1.100   0.731 -2.9646  0.7277 -0.3475
  475SOL     OW 1423   2.870   0.091   0.731 -0.2293  0.3503 -0.0505
  475SOL    HW1 1424   2.955   0.104   0.792  1.8575 -0.4741  0.4169
  475SOL    HW2 1425   2.784   0.098   0.788 -3.4719  1.0753  0.4892
  476SOL     OW 1426   0.880   3.082   1.818 -0.2272 -0.0824  0.0344
  476SOL    HW1 1427   0.914   3.021   1.894 -0.7967  2.8223  0.6860
  476SOL    HW2 1428   0.906   3.045   1.724  0.3584 -0.3143  1.0583
  477SOL     OW 1429   1.440   0.323   2.424  0.3051  0.2442 -0.3251
  477SOL    HW1 1430   1.422   0.331   2.527 -0.1852 -2.2030 -0.1750
  477SOL    HW2 1431   1.536   0.287   2.404  1.7198  0.2231  0.1151
  478SOL     OW 1432   2.314   1.821   0.232 -0.6010  0.0810 -0.0401
  478SOL    HW1 1433   2.257   1.733   0.210 -0.2709 -0.3914  2.0416
  478SOL    HW2 1434   2.417   1.809   0.215  2.4994  1.8073  0.9157
  479SOL     OW 1435   1.265   1.090   2.908 -0.8623  0.7601 -0.3551
  479SOL    HW1 1436   1.355   1.084   2.850 -2.3578  0.8580  0.1170
  479SOL    HW2 1437   1.183   1.055   2.858  1.2041 -1.0878  0.9858
  480SOL     OW 1438   2.461   2.343   0.385 -0.2400 -0.1585 -0.2506
  480SOL    HW1 1439   2.412   2.274   0.448 -2.8210  0.4231 -0.4155
  480SOL    HW2 1440   2.411   2.361   0.298  0.9410 -0.6989  2.7404
  481SOL     OW 1441   1.132   1.168   0.792 -0.3416  0.4060  0.8675
  481SOL    HW1 1442   1.076   1.233   0.731 -1.1528 -1.2078 -2.2827
  481SOL    HW2 1443   1.153   1.201   0.889  1.4372  1.6471  1.4511
  482SOL     OW 1444   1.610   0.303   2.033  0.2084 -0.5221 -0.1230
  482SOL    HW1 1445   1.633   0.371   1.953  0.1035  1.7527 -0.7961
  482SOL    HW2 1446   1.695   0.275   2.082 -2.6950  1.4147 -1.3245
  483SOL     OW 1447   0.147   2.345   1.300  0.1379  0.2936  0.2382
  483SOL    HW1 1448   0.048   2.350   1.331 -0.8912 -0.9984  0.1362
  483SOL    HW2 1449   0.155   2.395   1.204 -1.0015  2.6713 -1.2722
  484SOL     OW 1450   1.726   0.986   1.384  0.0142 -0.0859 -0.4434
  484SOL    HW1 1451   1.790   0.908   1.383  0.2053  2.2138  0.6074
  484SOL    HW2 1452   1.767   1.073   1.414 -3.0066 -0.1390  1.4646
  485SOL     OW 1453   0.700   1.115   1.772 -0.3876  0.1970 -0.0415
  485SOL    HW1 1454   0.703   1.095   1.672 -1.2578  1.6433  2.2166
  485SOL    HW2 1455   0.791   1.159   1.811 -0.6188  0.7490  0.8809
  486SOL     OW 1456   0.910   1.924   2.467 -0.2345 -0.2691 -0.1148
  486SOL    HW1 1457   0.935   1.859   2.546  1.3106 -1.3211 -0.3935
  486SOL    HW2 1458   0.850   2.010   2.492 -1.0370 -0.3294 -2.0253
  487SOL     OW 1459   1.751   1.488   0.906 -0.0333  0.0244 -0.8400
  487SOL    HW1 1460   1.744   1.407   0.844  0.4285  0.6366  2.8548
  487SOL    HW2 1461   1.803   1.571   0.871 -1.1590 -0.7192  3.7645
  488SOL     OW 1462   2.964   0.953   2.260 -0.3656  0.6453  1.4504
  488SOL    HW1 1463   3.003   0.884   2.190  2.2532  0.0827 -0.7242
  488SOL    HW2 1464   2.990   0.923   2.356 -0.1975 -0.6261 -1.0151
  489SOL     OW 1465   2.792   0.242   1.310  0.7422 -0.6878 -0.5122
  489SOL    HW1 1466   2.727   0.215   1.391  1.1447 -1.4741  0.7772
  489SOL    HW2 1467   2.865   0.176   1.288 -0.9998  0.0249  0.9077
  490SOL     OW 1468   1.412   2.972   2.872  0.1860 -0.2823  0.3213
  490SOL    HW1 1469   1.452   2.875   2.877  1.1418  2.1237 -2.2454
  490SOL    HW2 1470   1.386   2.989   2.769 -2.9547 -3.0467  0.9244
  491SOL     OW 1471   1.880   1.573   2.689  0.2248 -0.6201 -0.2656
  491SOL    HW1 1472   1.856   1.672   2.714  3.8672  2.2843  0.5011
  491SOL    HW2 1473   1.969   1.534   2.726  0.7448  1.6146 -0.8603
  492SOL     OW 1474   0.462   1.957   0.739  0.0768 -0.0115  0.0077
  492SOL    HW1 1475   0.556   1.982   0.779  1.8645  3.3752 -0.2770
  492SOL    HW2 1476   0.396   2.039   0.738 -1.3994 -1.8112  0.0695
  493SOL     OW 1477   0.426   1.409   2.106 -0.3047 -0.0556  0.1586
  493SOL    HW1 1478   0.329   1.444   2.122 -0.4390 -2.5625  0.0874
  493SOL    HW2 1479   0.444   1.333   2.176  2.3929  2.0668  2.1163
  494SOL     OW 1480   2.638   2.655   0.137  0.1254 -0.1269  0.7457
  494SOL    HW1 1481   2.685   2.572   0.181 -0.9571  0.8389 -0.7309
  494SOL    HW2 1482   2.571   2.634   0.060 -1.1031  0.5281  0.6908
  495SOL     OW 1483   2.749   2.682   2.688  0.1228  0.0483 -0.2703
  495SOL    HW1 1484   2.775   2.583   2.658  2.6864 -1.1011  1.0782
  495SOL    HW2 1485   2.753   2.745   2.608  2.0426  1.5747  2.0717
  496SOL     OW 1486   2.099   2.197   0.735 -0.3684 -0.3614 -0.3636
  496SOL    HW1 1487   2.096   2.223   0.828  1.1037  1.1782 -0.6745
  496SOL    HW2 1488   2.096   2.096   0.712 -2.8887  0.4985  2.4263
  497SOL     OW 1489   0.238   2.974   2.411  0.2661 -0.5255  0.4522
  497SOL    HW1 1490   0.171   3.032   2.471  0.5326  2.2266  1.5260
  497SOL    HW2 1491   0.259   3.030   2.323 -0.9509  0.2508 -0.0059
  498SOL     OW 1492   1.198   1.479   1.119 -0.3075 -0.1161 -0.5520
  498SOL    HW1 1493   1.285   1.541   1.131  0.0324  0.8154  2.6365
  498SOL    HW2 1494   1.128   1.493   1.194 -0.2306 -1.0620  1.3421
  499SOL     OW 1495   0.853   1.803   0.529  0.2007  0.8180 -0.3459
  499SOL    HW1 1496   0.800   1.714   0.557  1.1930 -0.9373 -0.0853
  499SOL    HW2 1497   0.890   1.855   0.613  1.9593  2.3212  1.3534
  500SOL     OW 1498   1.413   2.980   1.730  0.2848 -0.0453 -0.9255
  500SOL    HW1 1499   1.465   3.029   1.803  0.2648  1.2456 -1.8037
  500SOL    HW2 1500   1.435   2.877   1.731 -0.2076 -1.4645  0.7905
  501SOL     OW 1501   0.739   1.144   2.256 -0.4062  0.1021  0.5894
  501SOL    HW1 1502   0.673   1.067   2.248 -1.6282 -1.0915  2.5311
  501SOL    HW2 1503   0.825   1.134   2.196  0.0347 -1.0695 -0.6636
  502SOL     OW 1504   2.621   0.971   1.728  0.2378  0.4542 -0.5146
  502SOL    HW1 1505   2.604   0.981   1.621 -2.3655  0.7578 -1.0653
  502SOL    HW2 1506   2.572   0.889   1.773  2.3248 -2.9400  2.1783
  503SOL     OW 1507   1.339   0.183   0.613 -0.0136 -0.1456  0.0295
  503SOL    HW1 1508   1.263   0.253   0.627 -1.2191 -0.4567  0.1177
  503SOL    HW2 1509   1.428   0.230   0.625 -0.2596 -0.4284 -0.1063
  504SOL     OW 1510   2.961   2.374   1.397  0.0219  0.2468  0.3926
  504SOL    HW1 1511   2.965   2.456   1.472  0.7148  4.8752  1.1181
  504SOL    HW2 1512   2.905   2.295   1.429 -1.5716  2.2432 -1.4109
  505SOL     OW 1513   2.296   1.239   1.435  0.7437 -0.0510  0.0832
  505SOL    HW1 1514   2.265   1.310   1.369 -2.0908  0.1204 -2.0295
  505SOL    HW2 1515   2.393   1.251   1.473  0.6021  2.2101  1.2747
  506SOL     OW 1516   1.895   0.248   1.821  0.0011 -0.3562 -0.0998
  506SOL    HW1 1517   1.963   0.235   1.743 -0.8394 -1.8935 -2.9479
  506SOL    HW2 1518   1.932   0.311   1.893 -1.8420 -2.2222  0.0178
  507SOL     OW 1519   0.507   0.658   2.183 -0.0971  0.8123  0.1757
  507SOL    HW1 1520   0.421   0.640   2.125  0.0043  1.0209  0.2850
  507SOL    HW2 1521   0.568   0.570   2.187 -0.7717  0.5973 -0.0047
  508SOL     OW 1522   0.199   1.672   0.861 -1.0899  0.0017 -0.2579
  508SOL    HW1 1523   0.242   1.765   0.858 -1.1519 -0.5739  1.3044
  508SOL    HW2 1524   0.183   1.645   0.960  1.3031 -0.9948 -2.4261
  509SOL     OW 1525   1.366   1.193   2.561  0.3056  0.2782  0.5835
  509SOL    HW1 1526   1.283   1.254   2.545 -0.5164 -2.2234  0.6841
  509SOL    HW2 1527   1.367   1.118   2.497 -2.0023 -1.8684 -0.2740
  510SOL     OW 1528   1.339   1.982   2.037 -0.5082  0.2495 -0.5195
  510SOL    HW1 1529   1.317   2.083   2.034  0.0703  3.1464 -0.9039
  510SOL    HW2 1530   1.280   1.927   2.099  3.4094  0.5951 -1.9550
  511SOL     OW 1531   0.015   2.640   1.311 -0.5316 -0.1039 -0.5157
  511SOL    HW1 1532  -0.054   2.615   1.239 -2.0991 -1.2259  1.4999
  511SOL    HW2 1533  -0.025   2.635   1.411  0.7609  0.0624  1.0538
  512SOL     OW 1534   2.414   0.428   1.355 -0.2558 -0.1420  0.0289
  512SOL    HW1 1535   2.310   0.419   1.360  1.1291  0.6493  1.1916
  512SOL    HW2 1536   2.446   0.430   1.260  2.1973  1.8181  1.2505
  513SOL     OW 1537   2.496   2.004   0.845  0.0514  0.3302 -0.2639
  513SOL    HW1 1538   2.435   2.087   0.845  0.5844 -0.3589  1.5061
  513SOL    HW2 1539   2.555   1.992   0.761 -0.8036 -1.3410 -0.8352
  514SOL     OW 1540   0.673   2.789   0.387  0.1101  0.6035  0.5997
  514SOL    HW1 1541   0.645   2.838   0.298 -2.2034 -0.8079 -1.1508
  514SOL    HW2 1542   0.687   2.854   0.469 -2.4934  2.2565  2.3022
  515SOL     OW 1543   1.968   1.214   2.347  0.4911 -0.1238 -0.0528
  515SOL    HW1 1544   1.894   1.257   2.289  0.0793  1.0131  1.4452
  515SOL    HW2 1545   1.943   1.244   2.445 -3.0384  1.3442  0.3434
  516SOL     OW 1546   0.260   0.298   1.960 -0.1738  0.0398  0.1501
  516SOL    HW1 1547   0.355   0.280   1.923  2.0697  0.6961  2.4583
  516SOL    HW2 1548   0.186   0.243   1.917  3.4935  1.3916 -0.2501
  517SOL     OW 1549   0.357   3.047   1.168  0.2390  0.2830 -0.4457
  517SOL    HW1 1550   0.386   3.134   1.218  0.1591  0.7746 -0.2167
  517SOL    HW2 1551   0.267   3.000   1.204 -1.6126 -0.3705 -2.3499
  518SOL     OW 1552   2.149   0.161   1.679  0.1716  0.4166 -0.6618
  518SOL    HW1 1553   2.227   0.195   1.741 -0.9682  1.3563 -2.4684
  518SOL    HW2 1554   2.160   0.065   1.653 -0.5053  1.3802 -2.0673
  519SOL     OW 1555   2.376   2.179   2.545 -1.0786 -0.4734 -0.6183
  519SOL    HW1 1556   2.308   2.161   2.625  0.2139 -2.6788 -0.2273
  519SOL    HW2 1557   2.425   2.275   2.543  1.2299 -1.0331  0.1944
  520SOL     OW 1558   1.771   2.879   1.793  0.1025 -0.2516 -0.3794
  520SOL    HW1 1559   1.682   2.863   1.853 -0.9425 -2.0961  2.0837
  520SOL    HW2 1560   1.831   2.795   1.778  1.0101 -0.5972 -2.2090
  521SOL     OW 1561   0.567   0.146   2.135  0.2876  0.0836  0.0221
  521SOL    HW1 1562   0.472   0.127   2.174  0.1716  1.4622  0.4738
  521SOL    HW2 1563   0.648   0.117   2.197  0.2598 -0.7565  1.8003
  522SOL     OW 1564   0.202   1.903   1.560  0.0118 -0.4248 -0.5950
  522SOL    HW1 1565   0.257   1.951   1.635  0.2365 -1.1570 -0.5541
  522SOL    HW2 1566   0.201   1.958   1.470  2.0611  0.0070  0.3859
  523SOL     OW 1567   2.192   2.961   1.619  0.7284  0.5882  0.0601
  523SOL    HW1 1568   2.227   2.882   1.562 -1.1691 -0.4216  0.5743
  523SOL    HW2 1569   2.089   2.970   1.601 -1.6555  2.1264 -0.6678
  524SOL     OW 1570   0.247   2.740   2.831  0.3357  0.3510 -0.3081
  524SOL    HW1 1571   0.257   2.762   2.934  0.6061 -2.1445  0.5648
  524SOL    HW2 1572   0.333   2.777   2.776 -0.5555  0.8979 -1.8791
  525SOL     OW 1573   2.127   1.939   0.461 -0.2905 -0.0692  0.2571
  525SOL    HW1 1574   2.096   1.847   0.503  0.1997  1.8487 -1.5821
  525SOL    HW2 1575   2.200   1.927   0.390 -0.2884 -1.5303  1.8225
  526SOL     OW 1576   0.413   1.516   1.544  0.1965 -0.0619  0.4461
  526SOL    HW1 1577   0.348   1.495   1.626  0.3553  0.7907  2.1701
  526SOL    HW2 1578   0.471   1.431   1.515 -1.0767 -0.2946 -1.0801
  527SOL     OW 1579   1.102   2.885   1.194  0.3576 -0.1226  0.2196
  527SOL    HW1 1580   1.135   2.809   1.253 -1.9785 -0.9915 -1.2987
  527SOL    HW2 1581   1.141   2.980   1.224 -0.3206  0.6907  1.2575
  528SOL     OW 1582   1.349   2.390   0.458  0.0548  0.2371  0.0574
  528SOL    HW1 1583   1.362   2.286   0.452  1.4068  1.3893 -0.1988
  528SOL    HW2 1584   1.401   2.434   0.537  0.5644  1.9110 -0.0724
  529SOL     OW 1585   1.835   1.740   0.796 -0.4780 -0.0327 -0.6568
  529SOL    HW1 1586   1.802   1.757   0.701 -0.1612 -1.1712  0.5822
  529SOL    HW2 1587   1.839   1.825   0.856  0.7089  2.1641  0.7554
  530SOL     OW 1588   0.325   2.448   0.311  0.3968  0.1155 -0.9018
  530SOL    HW1 1589   0.297   2.524   0.383  0.1342  1.1549  3.9895
  530SOL    HW2 1590   0.406   2.396   0.342  0.2978  0.0918 -0.5564
  531SOL     OW 1591   1.843   0.816   1.025  0.1535 -0.2633 -0.6520
  531SOL    HW1 1592   1.893   0.830   0.937  4.1953  1.7158 -0.8099
  531SOL    HW2 1593   1.752   0.855   1.030  3.7119  0.5772  2.3062
  532SOL     OW 1594   0.490   1.090   0.735 -0.0220  0.3358  0.4180
  532SOL    HW1 1595   0.495   1.091   0.634 -0.3385  1.3968  2.5681
  532SOL    HW2 1596   0.469   0.994   0.769 -0.1582 -0.1517 -1.3879
  533SOL     OW 1597   1.778   0.044   2.544 -0.0784 -0.0730  0.3086
  533SOL    HW1 1598   1.862  -0.003   2.588 -0.5184  0.3416 -3.1418
  533SOL    HW2 1599   1.727   0.114   2.603  0.6466 -0.0938 -0.9541
  534SOL     OW 1600   0.394   0.167   1.551 -0.3495  0.1930  0.3661
  534SOL    HW1 1601   0.497   0.168   1.564 -0.5221 -2.2583 -1.0435
  534SOL    HW2 1602   0.344   0.258   1.542  0.5091  0.0438  0.9330
  535SOL     OW 1603   1.927   0.341   0.200  0.2317 -0.4869 -0.3967
  535SOL    HW1 1604   1.955   0.431   0.243  2.5055  0.3819 -0.7431
  535SOL    HW2 1605   1.963   0.256   0.241  0.4980  2.7081  1.9762
  536SOL     OW 1606   1.371   2.629   0.934 -0.3840 -0.2797 -0.3374
  536SOL    HW1 1607   1.348   2.592   1.034  3.2309 -1.3504  0.3752
  536SOL    HW2 1608   1.286   2.655   0.877  1.3975 -2.9595  0.5471
  537SOL     OW 1609   0.837   0.281   2.385  0.1970 -0.6368 -0.9498
  537SOL    HW1 1610   0.877   0.338   2.307  1.2519 -0.9213  0.3645
  537SOL    HW2 1611   0.812   0.186   2.355 -0.7461  4.1508  0.9583
  538SOL     OW 1612   1.650   2.348   1.365  0.5426 -0.0399  0.5769
  538SOL    HW1 1613   1.630   2.246   1.367  1.0191  1.6384 -0.2560
  538SOL    HW2 1614   1.747   2.374   1.394 -0.9008  0.8244 -1.6591
  539SOL     OW 1615   0.170   1.609   2.694  0.3321 -0.1394  0.1032
  539SOL    HW1 1616   0.072   1.603   2.668 -0.1468 -0.6929  2.0736
  539SOL    HW2 1617   0.189   1.700   2.743  1.6255 -1.1572 -1.0924
  540SOL     OW 1618   2.657   1.713   1.912 -0.0349  0.0967 -0.5188
  540SOL    HW1 1619   2.616   1.632   1.960  0.5146  1.5956  2.1933
  540SOL    HW2 1620   2.604   1.799   1.926  0.1404 -1.8603  0.4622
  541SOL     OW 1621   0.562   2.154   0.029  0.0574  0.2749  0.2494
  541SOL    HW1 1622   0.566   2.135   0.130 -0.0409 -0.2568 -0.6365
  541SOL    HW2 1623   0.466   2.152  -0.012 -1.0285  2.4683 -0.3382
  542SOL     OW 1624   2.235   2.622   0.507 -0.0968  0.3857  0.3920
  542SOL    HW1 1625   2.203   2.714   0.544  2.4078  1.2482 -1.7855
  542SOL    HW2 1626   2.164   2.544   0.513 -1.0532  2.9586 -0.0081
  543SOL     OW 1627   1.082   1.815   1.561 -0.1735 -0.2340  0.0894
  543SOL    HW1 1628   1.083   1.859   1.658 -1.3833  1.3848  2.8350
  543SOL    HW2 1629   1.035   1.879   1.496  3.1498 -0.9239  0.8531
  544SOL     OW 1630   1.140   0.515   0.166  0.6602  0.1220 -0.2981
  544SOL    HW1 1631   1.124   0.434   0.234  2.8717  2.3528  1.6458
  544SOL    HW2 1632   1.150   0.484   0.063  0.6065 -2.4757 -1.4642
  545SOL     OW 1633   1.103   1.846   0.774  0.4148  0.2575 -0.1571
  545SOL    HW1 1634   1.193   1.856   0.721 -0.3581 -0.4105 -1.0398
  545SOL    HW2 1635   1.075   1.748   0.794 -0.3779  1.5893 -1.0844
  546SOL     OW 1636   2.697   1.590   2.971 -0.7983  0.2922  0.1147
  546SOL    HW1 1637   2.689   1.684   2.935  2.8366  0.3340  1.0762
  546SOL    HW2 1638   2.607   1.538   2.989  1.3303  1.1941 -0.0590
  547SOL     OW 1639   0.661   3.037   2.518  0.1731 -0.0637 -0.0999
  547SOL    HW1 1640   0.710   3.005   2.597 -1.9837  0.4634 -1.8677
  547SOL    HW2 1641   0.586   2.969   2.486 -2.7055 -0.9079 -3.7026
  548SOL     OW 1642   2.058   0.774   3.059  0.4824 -0.4204 -0.5255
  548SOL    HW1 1643   1.956   0.753   3.062  0.0286  0.3465  0.4205
  548SOL    HW2 1644   2.086   0.871   3.081  0.3734 -1.2793 -1.1349
  549SOL     OW 1645   0.706   0.566   0.214 -0.0791 -0.5213 -0.3248
  549SOL    HW1 1646   0.633   0.614   0.151 -0.9699 -0.6641  1.0584
  549SOL    HW2 1647   0.803   0.601   0.211  1.6566 -3.5173  0.0104
  550SOL     OW 1648   2.562   2.809   2.842 -0.0464 -0.3701 -0.0052
  550SOL    HW1 1649   2.530   2.748   2.920  1.6270  0.4886  0.4416
  550SOL    HW2 1650   2.637   2.767   2.780 -0.2089  2.2403  1.6918
  551SOL     OW 1651   0.228   0.879   0.271 -0.2501 -0.4287  0.0280
  551SOL    HW1 1652   0.322   0.889   0.229  1.7679  1.3650  0.6164
  551SOL    HW2 1653   0.236   0.868   0.376  1.5868  1.3256 -0.1310
  552SOL     OW 1654   0.584   3.021   1.976  0.2370  0.7390  0.3831
  552SOL    HW1 1655   0.559   3.101   2.036  0.8443  0.6154 -1.5769
  552SOL    HW2 1656   0.685   3.021   1.950  1.8681  1.5518 -0.1772
  553SOL     OW 1657   2.972   2.398   0.374  1.0140 -0.0078  0.4659
  553SOL    HW1 1658   2.961   2.307   0.416 -0.3412  3.4348 -0.1640
  553SOL    HW2 1659   2.872   2.438   0.372 -2.0361 -1.6520 -1.0612
  554SOL     OW 1660   2.201   0.387   0.518  0.8144 -0.2458  0.3465
  554SOL    HW1 1661   2.267   0.390   0.437 -3.2094  0.4601  0.3995
  554SOL    HW2 1662   2.212   0.302   0.574  0.2301 -0.7063 -0.3180
  555SOL     OW 1663   0.480   2.843   2.477  0.0281  0.1250 -0.6305
  555SOL    HW1 1664   0.390   2.894   2.462  1.1998 -1.3885  3.0925
  555SOL    HW2 1665   0.488   2.762   2.410  3.8566 -1.4089 -2.9940
  556SOL     OW 1666   0.809   2.465   1.607  0.0240  0.5082  0.0730
  556SOL    HW1 1667   0.866   2.516   1.676 -0.9686  1.1602 -2.1211
  556SOL    HW2 1668   0.866   2.426   1.525 -1.3691 -2.5768 -1.8670
  557SOL     OW 1669   0.233   2.093   0.286  0.7686 -0.0811  0.3615
  557SOL    HW1 1670   0.152   2.061   0.238  1.0100  1.5031  5.2959
  557SOL    HW2 1671   0.316   2.095   0.225 -1.2887  0.4562  1.1101
  558SOL     OW 1672   2.831   2.153   0.404  0.4653 -0.5770 -0.1078
  558SOL    HW1 1673   2.755   2.184   0.474 -1.8567  0.8267 -0.1091
  558SOL    HW2 1674   2.806   2.081   0.328 -1.1844 -0.0744  0.5751
  559SOL     OW 1675   0.407   2.352   1.436  0.1119 -0.3228  0.2728
  559SOL    HW1 1676   0.307   2.339   1.391 -2.7245 -2.4660  0.1256
  559SOL    HW2 1677   0.478   2.308   1.374  0.1011  0.9024 -0.1945
  560SOL     OW 1678   2.128   1.051   3.097 -0.2009 -0.5249 -0.1907
  560SOL    HW1 1679   2.188   1.071   3.180 -1.9051  0.1042 -1.2215
  560SOL    HW2 1680   2.174   1.029   3.009 -1.7536  2.4589  2.0238
  561SOL     OW 1681   0.039   1.918   0.150 -0.1438  0.2196  1.2176
  561SOL    HW1 1682  -0.016   1.889   0.235 -0.9859  2.2000  3.8429
  561SOL    HW2 1683  -0.015   1.926   0.057 -1.5706 -0.4747 -1.1097
  562SOL     OW 1684   1.112   2.091   2.281 -0.6182 -0.3723 -0.0966
  562SOL    HW1 1685   1.049   2.165   2.305  0.8838 -2.0154 -1.9149
  562SOL    HW2 1686   1.073   1.993   2.291  1.5056 -2.3676  0.0259
  563SOL     OW 1687   0.668   2.532   2.649 -0.6207 -0.1547  0.3260
  563SOL    HW1 1688   0.757   2.516   2.595  0.8073  1.4937 -0.8918
  563SOL    HW2 1689   0.680   2.560   2.749  0.6034  0.2984  0.7851
  564SOL     OW 1690   2.862   1.393   2.886 -0.1910  0.1940 -0.0378
  564SOL    HW1 1691   2.782   1.462   2.908 -2.8500 -0.2057  0.0731
  564SOL    HW2 1692   2.944   1.440   2.856 -1.8299 -0.4098 -1.0108
  565SOL     OW 1693   2.525   1.959   2.638  0.1514 -0.0065  0.1655
  565SOL    HW1 1694   2.488   2.052   2.611 -1.7881 -0.0774 -0.3428
  565SOL    HW2 1695   2.609   1.975   2.698  0.7071  1.3062  1.1656
  566SOL     OW 1696   1.981   2.902   1.460  0.0423 -0.2678 -0.4429
  566SOL    HW1 1697   1.960   2.825   1.529  1.3302  0.3773 -0.7596
  566SOL    HW2 1698   1.978   2.876   1.360  3.0817 -0.4475 -0.7451
  567SOL     OW 1699   2.391   0.023   2.321 -0.1285 -0.3627  0.3245
  567SOL    HW1 1700   2.291   0.022   2.360 -1.4496  0.6647 -0.0054
  567SOL    HW2 1701   2.388   0.049   2.220  0.6531  0.5234 -0.6438
  568SOL     OW 1702   1.495   1.722   0.281  0.2905 -0.5202 -0.4713
  568SOL    HW1 1703   1.448   1.810   0.245 -2.3951  1.4673 -0.2884
  568SOL    HW2 1704   1.588   1.738   0.324  2.1405  0.0472 -0.7714
  569SOL     OW 1705   0.267   0.598   0.893 -0.0231 -0.5494 -0.0324
  569SOL    HW1 1706   0.303   0.563   0.799  1.5843  1.8267  1.7605
  569SOL    HW2 1707   0.165   0.587   0.898 -1.6116  0.4335  0.7912
  570SOL     OW 1708   0.636   0.880   2.902 -0.0042 -0.4072  0.2322
  570SOL    HW1 1709   0.678   0.903   2.810 -1.4196 -1.1701  2.4155
  570SOL    HW2 1710   0.631   0.961   2.973 -1.1086  0.9625  0.1497
  571SOL     OW 1711   0.761   3.070   1.076 -0.2755 -0.0492 -0.4700
  571SOL    HW1 1712   0.833   3.097   1.007 -0.8347  1.1013 -1.7686
  571SOL    HW2 1713   0.778   2.981   1.128  1.9064 -1.4774  0.4564
  572SOL     OW 1714   1.630   2.684   1.415  0.1711  0.1148  0.3376
  572SOL    HW1 1715   1.675   2.644   1.328  3.5395 -1.7646 -0.8388
  572SOL    HW2 1716   1.576   2.766   1.390  1.0329 -0.0353 -0.2162
  573SOL     OW 1717   3.073   0.492   1.949 -0.4780 -0.3103 -0.7588
  573SOL    HW1 1718   3.065   0.410   2.012  0.6891 -0.1979  0.4006
  573SOL    HW2 1719   3.132   0.482   1.868 -2.9945  1.1523  2.1310
  574SOL     OW 1720   0.156   1.644   1.132 -0.2516  0.3930 -0.7574
  574SOL    HW1 1721   0.209   1.655   1.220  3.4323  0.6740 -2.0459
  574SOL    HW2 1722   0.105   1.732   1.103 -3.6921  0.4091  0.6541
  575SOL     OW 1723   0.861   2.227   0.997 -0.0710  0.1283  0.0788
  575SOL    HW1 1724   0.821   2.282   1.074  0.7426  1.8812 -1.4599
  575SOL    HW2 1725   0.900   2.291   0.921 -0.3460 -1.3664 -3.0524
  576SOL     OW 1726   2.948   3.001   1.730  0.4453  0.0321 -0.0102
  576SOL    HW1 1727   2.852   2.992   1.697 -1.5685 -0.1237  1.0932
  576SOL    HW2 1728   2.991   3.088   1.695 -0.4469 -2.1499  0.5226
  577SOL     OW 1729   2.677   1.220   0.009  0.2576 -0.3453 -0.3728
  577SOL    HW1 1730   2.670   1.133  -0.043 -0.1818  1.9295 -1.7518
  577SOL    HW2 1731   2.700   1.214   0.109 -3.9983  2.8682  1.7785
  578SOL     OW 1732   1.409   2.750   2.552 -0.5148 -0.0286 -0.3787
  578SOL    HW1 1733   1.329   2.774   2.489  0.4787 -2.1632  1.1400
  578SOL    HW2 1734   1.496   2.800   2.526  0.5599 -0.3304 -0.9805
  579SOL     OW 1735   0.072   2.414   0.176  0.4533  0.3284 -0.1909
  579SOL    HW1 1736  -0.013   2.395   0.233  0.5269 -3.1084 -0.5224
  579SOL    HW2 1737   0.160   2.403   0.227 -0.1317  2.6826  0.5669
  580SOL     OW 1738   0.958   2.701   0.418  0.0568 -0.5008 -0.4394
  580SOL    HW1 1739   1.011   2.697   0.328 -1.4718  2.0210  0.4863
  580SOL    HW2 1740   0.854   2.703   0.399 -0.8511 -0.8865 -3.2643
  581SOL     OW 1741   1.278   2.698   1.435  0.5911  0.6942  0.3416
  581SOL    HW1 1742   1.318   2.597   1.448  2.6898 -1.3117  1.5035
  581SOL    HW2 1743   1.348   2.765   1.396 -0.0818  1.4007 -0.7513
  582SOL     OW 1744   1.503   0.074   1.921  0.3440  0.0284  0.2064
  582SOL    HW1 1745   1.517   0.157   1.985  1.8811 -0.4855  1.2765
  582SOL    HW2 1746   1.564   0.081   1.837  0.0935  0.3278 -3.3109
  583SOL     OW 1747   2.452   3.044   0.551 -0.4886 -0.4841 -0.2511
  583SOL    HW1 1748   2.537   3.009   0.513 -2.6177 -0.3117 -0.1511
  583SOL    HW2 1749   2.396   2.973   0.604 -1.3006  2.1479 -1.2761
  584SOL     OW 1750   1.601   1.103   2.270 -0.5905  0.2906 -0.6058
  584SOL    HW1 1751   1.658   1.188   2.262  1.4843  2.9659 -0.1614
  584SOL    HW2 1752   1.649   1.037   2.327  0.1404  1.7048 -0.9161
  585SOL     OW 1753   2.041   2.665   2.878 -0.3368  0.0607  0.2191
  585SOL    HW1 1754   2.068   2.573   2.840 -0.5301  0.6406 -0.7537
  585SOL    HW2 1755   1.937   2.675   2.873 -3.1097  1.9242  1.1893
  586SOL     OW 1756   2.947   0.380   1.601  0.3491 -0.4745  0.4006
  586SOL    HW1 1757   2.930   0.477   1.645 -1.5269  2.8314  2.0499
  586SOL    HW2 1758   2.866   0.353   1.538  2.2975 -0.0619  0.6183
  587SOL     OW 1759   2.149   1.455   2.724 -0.0477 -0.1511  0.9550
  587SOL    HW1 1760   2.155   1.378   2.653  0.7457  0.1985  0.0859
  587SOL    HW2 1761   2.243   1.487   2.752  1.4911  1.9168  0.4266
  588SOL     OW 1762   0.519   2.647   2.297  0.2029  0.0134  0.8382
  588SOL    HW1 1763   0.469   2.666   2.209  0.4994  0.3375 -1.0263
  588SOL    HW2 1764   0.484   2.565   2.349  2.5679  3.7937 -1.1908
  589SOL     OW 1765   2.178   1.329   2.491 -0.2922  0.5630  0.0548
  589SOL    HW1 1766   2.137   1.283   2.408  0.8100  1.8916 -0.0331
  589SOL    HW2 1767   2.283   1.327   2.494  3.3808  0.1277  0.1498
  590SOL     OW 1768   2.310   1.695   2.079 -0.0497 -0.0018  0.3463
  590SOL    HW1 1769   2.377   1.614   2.072  0.0858 -2.9643  0.9957
  590SOL    HW2 1770   2.309   1.721   2.180  0.2641  0.7391 -0.2835
  591SOL     OW 1771   1.313   2.424   0.170  0.7530  0.3012 -0.2110
  591SOL    HW1 1772   1.341   2.333   0.137  0.8409  4.2407  0.4419
  591SOL    HW2 1773   1.336   2.442   0.273  1.2226  2.6044  1.1001
  592SOL     OW 1774   1.776   2.365   0.801 -0.2899 -0.2772  0.6988
  592SOL    HW1 1775   1.783   2.387   0.699 -0.1942  0.2340  0.2297
  592SOL    HW2 1776   1.839   2.420   0.856 -1.0460 -0.0878 -1.6035
  593SOL     OW 1777   0.762   0.294   0.230 -0.8321  0.2116 -0.5491
  593SOL    HW1 1778   0.857   0.282   0.184  1.8729  2.2629  0.6279
  593SOL    HW2 1779   0.730   0.390   0.211  0.4088 -0.4251  0.3377
  594SOL     OW 1780   1.077   1.799   2.660  0.6861  0.0966  0.2529
  594SOL    HW1 1781   1.159   1.829   2.606 -0.9857  2.9429  2.6380
  594SOL    HW2 1782   1.076   1.852   2.747 -1.8782 -2.6583 -0.9741
  595SOL     OW 1783   1.511   0.128   0.990  0.2447  0.4892 -0.0820
  595SOL    HW1 1784   1.588   0.060   0.982 -0.9697  1.7889  0.3810
  595SOL    HW2 1785   1.425   0.109   0.939  0.2019 -4.2305  3.1409
  596SOL     OW 1786   0.138   1.432   2.224  0.4451 -1.0014 -0.3375
  596SOL    HW1 1787   0.048   1.394   2.254 -0.5994 -1.0388 -2.1589
  596SOL    HW2 1788   0.171   1.509   2.291 -0.2922  0.8550 -0.0755
  597SOL     OW 1789   2.041   2.681   1.819 -0.5625  0.5122 -0.0402
  597SOL    HW1 1790   1.997   2.681   1.729  3.0538 -2.2342  2.8920
  597SOL    HW2 1791   2.144   2.663   1.813 -0.9701  0.9995  0.9412
  598SOL     OW 1792   2.490   2.844   1.299 -0.2751  0.3652  0.3223
  598SOL    HW1 1793   2.577   2.898   1.313  3.3142 -0.6355 -1.4911
  598SOL    HW2 1794   2.478   2.816   1.200  0.0630 -3.2818  0.8534
  599SOL     OW 1795   2.879   0.265   2.511  0.0618  0.1125  0.5571
  599SOL    HW1 1796   2.962   0.277   2.445 -1.5403  0.3445 -1.3451
  599SOL    HW2 1797   2.810   0.345   2.501  3.6229  2.9059 -0.4498
  600SOL     OW 1798   2.795   1.162   2.773  0.1733  0.0489  0.0799
  600SOL    HW1 1799   2.742   1.095   2.836 -1.8929  0.2235 -0.7529
  600SOL    HW2 1800   2.810   1.256   2.814 -1.1194  2.4346 -0.7795
  601SOL     OW 1801   2.965   1.336   2.001  0.2054 -0.2181  0.0407
  601SOL    HW1 1802   2.877   1.361   1.947 -0.2742 -0.2562 -3.1977
  601SOL    HW2 1803   3.044   1.386   1.958 -2.1957 -1.3372  0.3071
  602SOL     OW 1804   1.554   1.551   2.301  0.1407  0.0088  0.1238
  602SOL    HW1 1805   1.471   1.559   2.364  0.5886 -1.1296  1.3978
  602SOL    HW2 1806   1.642   1.572   2.352  3.9981 -2.1809 -1.8749
  603SOL     OW 1807   0.603   1.215   2.701 -0.3128 -0.0693 -0.3931
  603SOL    HW1 1808   0.523   1.267   2.656 -1.5507  1.6056  1.2020
  603SOL    HW2 1809   0.627   1.127   2.654 -0.6960 -0.6176 -1.2038
  604SOL     OW 1810   2.516   1.074   0.210  0.8236  0.4309  0.2848
  604SOL    HW1 1811   2.611   1.106   0.238  1.2139 -0.7823  2.3713
  604SOL    HW2 1812   2.508   1.016   0.121  1.3219 -0.1571 -0.8813
  605SOL     OW 1813   2.570   1.167   1.922  0.2785  0.6319 -0.7168
  605SOL    HW1 1814   2.601   1.130   1.833 -0.7481  0.6875 -1.1572
  605SOL    HW2 1815   2.642   1.214   1.975 -0.2126  1.7926 -0.1784
  606SOL     OW 1816   1.529   2.463   2.560  0.3407  0.2120  0.7159
  606SOL    HW1 1817   1.475   2.534   2.607  1.2086 -1.5432  1.5604
  606SOL    HW2 1818   1.471   2.393   2.505 -2.3418  0.6641  1.0649
  607SOL     OW 1819   1.250   1.589   0.244  0.1667 -0.2294  0.2907
  607SOL    HW1 1820   1.178   1.653   0.286 -1.7192 -1.5292  1.9915
  607SOL    HW2 1821   1.344   1.626   0.265 -0.7068 -1.0861 -0.6267
  608SOL     OW 1822   1.370   2.810   0.344 -0.0647 -0.1693 -0.0181
  608SOL    HW1 1823   1.428   2.841   0.263 -1.7638  0.7851 -0.0842
  608SOL    HW2 1824   1.340   2.892   0.397  0.3584  0.9104 -0.8378
  609SOL     OW 1825   1.318   1.346   0.178 -0.7915  0.3926  0.0069
  609SOL    HW1 1826   1.301   1.445   0.209  1.3282  1.0291  2.0249
  609SOL    HW2 1827   1.252   1.314   0.096 -1.4109  1.7526 -0.9614
  610SOL     OW 1828   3.012   1.219   2.234  0.4013 -0.2527 -0.7381
  610SOL    HW1 1829   2.989   1.114   2.229  0.2333  1.5445 -1.6874
  610SOL    HW2 1830   2.982   1.268   2.146 -1.5227 -1.6420  0.3438
  611SOL     OW 1831   2.564   0.211   1.145 -0.1304 -0.6305  0.1762
  611SOL    HW1 1832   2.494   0.142   1.180 -1.3231 -1.9480 -0.5256
  611SOL    HW2 1833   2.639   0.236   1.211  0.1683 -0.6050  3.5341
  612SOL     OW 1834   0.771   2.346   1.211 -0.5329  0.3420  0.6991
  612SOL    HW1 1835   0.707   2.269   1.248  0.1369  0.3238 -0.8473
  612SOL    HW2 1836   0.715   2.431   1.186 -0.4389 -0.0084  0.5285
  613SOL     OW 1837   0.779   1.392   2.393  0.0507 -0.1837 -0.3854
  613SOL    HW1 1838   0.807   1.468   2.325  1.1910  0.3444 -0.9793
  613SOL    HW2 1839   0.754   1.298   2.346 -2.2949 -1.1002 -1.3296
  614SOL     OW 1840   1.519   1.648   1.874 -0.8022 -0.4567  0.3212
  614SOL    HW1 1841   1.468   1.694   1.792  0.5343  1.4246  0.3493
  614SOL    HW2 1842   1.607   1.703   1.903  2.7163 -1.2158  1.7433
  615SOL     OW 1843   0.729   1.457   1.726 -0.0515  0.6168  0.5107
  615SOL    HW1 1844   0.666   1.410   1.663 -0.0991 -1.1726 -1.7932
  615SOL    HW2 1845   0.818   1.492   1.677  0.4149  1.1872  2.0880
  616SOL     OW 1846   1.120   1.553   2.216  0.0553 -0.1642 -0.5258
  616SOL    HW1 1847   1.016   1.545   2.222 -1.3980  3.0180  1.1088
  616SOL    HW2 1848   1.146   1.598   2.128 -1.3755  0.1023  0.6014
  617SOL     OW 1849   3.023   1.568   1.641 -0.6061  0.3367  0.2020
  617SOL    HW1 1850   2.942   1.526   1.688  0.8872 -1.1090 -0.0637
  617SOL    HW2 1851   3.049   1.514   1.558 -0.5404 -1.3570  0.2085
  618SOL     OW 1852   1.900   1.975   1.481 -0.2974  0.2148 -0.0614
  618SOL    HW1 1853   1.966   1.988   1.406  0.6518  1.9565  0.2132
  618SOL    HW2 1854   1.908   1.880   1.522 -0.2306  0.6795 -2.4657
  619SOL     OW 1855   1.770   0.521   2.352  0.0204  0.6861  0.3215
  619SOL    HW1 1856   1.701   0.571   2.288  0.3377  1.8425 -3.3643
  619SOL    HW2 1857   1.735   0.424   2.374  4.3287 -0.5314 -0.3329
  620SOL     OW 1858   2.259   2.916   0.674 -0.1704 -0.2692  0.1674
  620SOL    HW1 1859   2.189   2.986   0.688  0.2919  0.2513  0.5651
  620SOL    HW2 1860   2.289   2.868   0.763 -0.4304 -1.2236  0.8819
  621SOL     OW 1861   2.176   1.908   1.345 -0.2967 -0.0293  0.0821
  621SOL    HW1 1862   2.189   1.883   1.445  1.4259  0.3488 -1.7158
  621SOL    HW2 1863   2.185   1.824   1.289 -0.8127 -0.8573  1.8310
  622SOL     OW 1864   2.221   1.007   1.849  0.3215  0.5506  0.0645
  622SOL    HW1 1865   2.298   0.937   1.871 -0.6760 -2.8054  2.0833
  622SOL    HW2 1866   2.133   0.982   1.895  0.1923 -1.5627 -0.1487
  623SOL     OW 1867   1.287   0.898   2.566  0.1127  0.6280  0.0996
  623SOL    HW1 1868   1.262   0.854   2.653  2.5002 -0.5341  0.4099
  623SOL    HW2 1869   1.224   0.884   2.485  1.9095 -0.0720 -1.9325
  624SOL     OW 1870   0.531   0.699   0.038  0.0276 -0.4749 -0.2862
  624SOL    HW1 1871   0.597   0.703  -0.049  3.3975  4.7730 -1.7839
  624SOL    HW2 1872   0.501   0.796   0.070  1.2175  1.9233 -3.3566
  625SOL     OW 1873   2.773   1.741   0.808  0.5802  0.3190 -0.8292
  625SOL    HW1 1874   2.756   1.722   0.907 -2.2945 -0.3252 -0.4663
  625SOL    HW2 1875   2.734   1.663   0.752  0.1368 -0.0043  0.4934
  626SOL     OW 1876   0.441   2.765   2.033 -0.8861  0.0378  0.2787
  626SOL    HW1 1877   0.495   2.856   2.020 -1.9466  0.8409  1.7826
  626SOL    HW2 1878   0.363   2.760   1.960  0.3615  0.4423 -2.4476
  627SOL     OW 1879   0.746   1.041   1.513 -0.2722 -0.8550 -0.4624
  627SOL    HW1 1880   0.780   0.944   1.540  0.4886  0.3741  0.6319
  627SOL    HW2 1881   0.817   1.085   1.449  2.6505  0.8226 -3.4463
  628SOL     OW 1882   2.431   0.154   0.712 -0.1805 -0.4125 -0.5320
  628SOL    HW1 1883   2.452   0.074   0.646  3.8180 -1.7702 -2.6288
  628SOL    HW2 1884   2.326   0.172   0.731 -1.5975 -1.3220 -0.9074
  629SOL     OW 1885   1.978   0.956   1.977  0.0728 -0.0548 -0.3880
  629SOL    HW1 1886   2.025   0.946   2.067 -3.2165 -0.8633 -1.5860
  629SOL    HW2 1887   1.905   1.031   1.989 -0.3271  1.3563 -0.4269
  630SOL     OW 1888   2.816   2.200   0.743  0.3372 -0.2156 -0.0880
  630SOL    HW1 1889   2.753   2.262   0.799  0.0106  2.9291  2.3776
  630SOL    HW2 1890   2.767   2.117   0.706  1.6641  1.2293 -0.4411
  631SOL     OW 1891   2.971   0.232   2.128 -0.5940 -0.4172 -0.2215
  631SOL    HW1 1892   3.015   0.233   2.224 -1.7029  1.4755 -0.1851
  631SOL    HW2 1893   3.033   0.187   2.060 -0.8861  0.1855  4.0755
  632SOL     OW 1894   2.329   2.512   0.764  1.2779 -0.5361  0.1292
  632SOL    HW1 1895   2.415   2.553   0.803  0.2292 -1.3809 -1.2216
  632SOL    HW2 1896   2.314   2.562   0.673 -1.5716  2.7024 -0.6218
  633SOL     OW 1897   1.596   1.268   2.674  0.2852  0.4601  0.3871
  633SOL    HW1 1898   1.568   1.362   2.711 -2.5926  0.7208 -2.4239
  633SOL    HW2 1899   1.522   1.227   2.614  1.8879 -0.8310  0.6736
  634SOL     OW 1900   0.649   2.090   0.947 -0.2157  0.2598 -0.6959
  634SOL    HW1 1901   0.580   2.137   1.005  3.4161  0.3576 -3.3622
  634SOL    HW2 1902   0.743   2.141   0.961  1.2829  2.3448  0.3603
  635SOL     OW 1903   0.060   2.243   3.018 -0.5904  0.4306 -0.0938
  635SOL    HW1 1904  -0.006   2.271   2.948  2.0944 -0.5313 -1.5669
  635SOL    HW2 1905   0.067   2.308   3.095 -2.0486  0.7149 -1.5904
  636SOL     OW 1906   2.323   2.886   2.041 -0.4615  0.0384 -0.0601
  636SOL    HW1 1907   2.275   2.975   2.042  0.8618  1.4014  1.2193
  636SOL    HW2 1908   2.286   2.821   2.112  2.7383  0.3372 -1.2496
  637SOL     OW 1909   2.608   0.712   2.063  0.0949  0.3669  0.2672
  637SOL    HW1 1910   2.588   0.719   1.958 -0.8396 -2.1210 -1.7478
  637SOL    HW2 1911   2.667   0.792   2.099  0.9598  1.1388  1.1147
  638SOL     OW 1912   2.455   1.895   1.418 -0.6999  0.4103  0.1966
  638SOL    HW1 1913   2.362   1.912   1.389  0.5163 -0.5042  1.0085
  638SOL    HW2 1914   2.487   1.797   1.438  0.4348 -3.3139  0.2033
  639SOL     OW 1915   1.311   2.264   1.554 -0.3434 -0.4236 -0.2222
  639SOL    HW1 1916   1.322   2.176   1.503 -0.1737  0.7997 -2.9339
  639SOL    HW2 1917   1.236   2.264   1.631  0.8901 -0.6645  1.3990
  640SOL     OW 1918   0.218   1.244   1.514 -0.1358  0.3778 -0.8008
  640SOL    HW1 1919   0.244   1.304   1.590  0.3892 -0.3693 -1.7635
  640SOL    HW2 1920   0.288   1.167   1.509 -0.3454 -0.7661  0.4658
  641SOL     OW 1921   1.924   0.249   1.431 -0.2093  0.5830 -0.4815
  641SOL    HW1 1922   1.855   0.318   1.474  1.4651 -0.8332 -3.6335
  641SOL    HW2 1923   1.926   0.157   1.483 -0.8973 -1.9285  0.6308
  642SOL     OW 1924   1.999   0.103   0.304  0.4049  0.1711  0.3794
  642SOL    HW1 1925   2.092   0.103   0.346 -0.5086 -1.5410  0.2879
  642SOL    HW2 1926   1.919   0.089   0.372  1.0873 -0.6334  1.3106
  643SOL     OW 1927   2.811   1.872   2.127 -0.0683  0.6973  0.2814
  643SOL    HW1 1928   2.782   1.801   2.056 -1.5401 -0.1560 -0.4335
  643SOL    HW2 1929   2.826   1.965   2.082 -0.2492  2.6807  2.6457
  644SOL     OW 1930   2.168   2.258   1.242  0.0528  0.1311  0.1351
  644SOL    HW1 1931   2.267   2.229   1.216  1.1233  0.2211 -3.3853
  644SOL    HW2 1932   2.166   2.324   1.324  1.3282  0.9467  1.0971
  645SOL     OW 1933   0.677   0.856   1.157  1.1137 -0.4197 -0.0856
  645SOL    HW1 1934   0.626   0.786   1.101 -0.5151  2.7155 -2.7269
  645SOL    HW2 1935   0.687   0.943   1.104 -1.1283 -1.2757 -2.2261
  646SOL     OW 1936   1.450   1.940   1.781 -0.0592 -0.5801  0.1526
  646SOL    HW1 1937   1.540   1.993   1.770 -2.0297 -0.0481 -0.5771
  646SOL    HW2 1938   1.413   1.953   1.882 -1.7393  0.5266  0.7470
  647SOL     OW 1939   0.891   0.926   0.686  0.5717 -0.4217  0.9783
  647SOL    HW1 1940   0.983   0.908   0.737  0.6987  0.3373  0.8096
  647SOL    HW2 1941   0.812   0.881   0.736 -2.3028  0.0769 -1.6217
  648SOL     OW 1942   0.151   0.243   0.330 -0.8300  0.1405 -0.1955
  648SOL    HW1 1943   0.119   0.153   0.287 -0.6948  2.1820  3.9189
  648SOL    HW2 1944   0.136   0.330   0.269 -1.9135  1.9658  0.2594
  649SOL     OW 1945   3.087   0.023   0.957  0.1036 -0.2805  0.1812
  649SOL    HW1 1946   3.186   0.035   0.922 -1.7704 -0.8758  0.2299
  649SOL    HW2 1947   3.065   0.076   1.044  2.6721  1.8785  0.5644
  650SOL     OW 1948   2.721   0.728   1.443 -0.0291 -0.1137  0.0285
  650SOL    HW1 1949   2.625   0.730   1.476 -0.4748 -0.3809 -1.3942
  650SOL    HW2 1950   2.731   0.789   1.363 -2.0256  1.1416  1.7827
  651SOL     OW 1951   0.918   1.585   1.548  0.0425 -0.1984 -0.6016
  651SOL    HW1 1952   0.990   1.666   1.565  2.3557  0.7388  1.0048
  651SOL    HW2 1953   0.835   1.610   1.489 -0.1975  1.8588 -1.7779
  652SOL     OW 1954   2.287   2.518   2.392 -0.5718 -0.0061 -0.1643
  652SOL    HW1 1955   2.226   2.512   2.475 -2.1684  0.0832  2.4979
  652SOL    HW2 1956   2.255   2.601   2.336  0.1256 -1.5276  1.1374
  653SOL     OW 1957   2.761   1.171   0.273  0.7509  0.4335 -0.1917
  653SOL    HW1 1958   2.804   1.265   0.301  4.5429 -0.8007 -0.8041
  653SOL    HW2 1959   2.819   1.093   0.301 -2.7533 -0.0852 -0.3041
  654SOL     OW 1960   1.210   2.228   1.225 -0.0939 -0.1970 -0.0797
  654SOL    HW1 1961   1.211   2.143   1.289  1.1270  0.6439 -0.9475
  654SOL    HW2 1962   1.264   2.209   1.138 -0.0741 -0.2463  0.5984
  655SOL     OW 1963   0.242   1.055   1.855  0.4614  0.5242  0.5513
  655SOL    HW1 1964   0.282   0.961   1.828  0.0776  0.5076  0.9530
  655SOL    HW2 1965   0.317   1.120   1.851 -0.7556 -3.4347  0.5601
  656SOL     OW 1966   2.494   2.431   2.577 -0.0473 -0.1377  0.3157
  656SOL    HW1 1967   2.588   2.417   2.537 -0.1803 -2.0370 -1.1095
  656SOL    HW2 1968   2.431   2.496   2.519 -1.8997  1.7377 -0.8059
  657SOL     OW 1969   3.055   1.123   1.861 -0.3188 -0.1831  0.4153
  657SOL    HW1 1970   3.042   1.211   1.916  0.0308 -0.4680 -0.4826
  657SOL    HW2 1971   3.155   1.106   1.838  0.3036 -0.0647  0.5168
  658SOL     OW 1972   1.685   0.239   2.380  0.0217 -0.1986 -0.2707
  658SOL    HW1 1973   1.735   0.160   2.438 -0.8317 -1.7631  1.2298
  658SOL    HW2 1974   1.737   0.244   2.294 -3.0286 -0.8931 -0.6047
  659SOL     OW 1975   1.404   0.600   2.860 -0.2792  0.5555 -0.3627
  659SOL    HW1 1976   1.491   0.654   2.877  1.3110  0.5943 -0.0195
  659SOL    HW2 1977   1.329   0.658   2.814 -0.0119  0.9342  1.2759
  660SOL     OW 1978   1.410   0.408   1.398  0.1011  0.3525  0.0064
  660SOL    HW1 1979   1.438   0.405   1.498  2.7524  0.2451 -2.8122
  660SOL    HW2 1980   1.489   0.386   1.331  0.3014  1.2716 -2.6102
  661SOL     OW 1981   2.465   1.144   0.673 -0.0058 -0.4562 -0.2023
  661SOL    HW1 1982   2.451   1.064   0.606 -1.0487 -1.0883 -0.9563
  661SOL    HW2 1983   2.453   1.234   0.624  1.4914 -0.1492  0.3911
  662SOL     OW 1984   1.287   0.455   1.822 -0.0235 -0.1505 -0.0726
  662SOL    HW1 1985   1.268   0.357   1.810  2.0896 -0.2134  0.1819
  662SOL    HW2 1986   1.237   0.496   1.898  1.1013  1.1791 -2.8825
  663SOL     OW 1987   0.856   1.566   2.168  0.1977 -0.5528  0.2476
  663SOL    HW1 1988   0.826   1.656   2.205 -0.3028  0.5563  1.6775
  663SOL    HW2 1989   0.817   1.536   2.079 -0.1718 -1.0932  1.8905
  664SOL     OW 1990   1.658   2.081   1.401 -0.1105  0.7107 -0.4048
  664SOL    HW1 1991   1.573   2.037   1.445  0.6433  1.4045  1.1508
  664SOL    HW2 1992   1.748   2.040   1.435  1.8476  2.1434 -0.9158
  665SOL     OW 1993   2.298   0.604   1.988  0.4360 -0.0382  0.1511
  665SOL    HW1 1994   2.297   0.511   2.037 -0.5513 -4.0646 -0.8806
  665SOL    HW2 1995   2.256   0.682   2.042  0.4026  2.1821 -1.3067
  666SOL     OW 1996   0.500   2.264   0.494 -0.5433  0.0760 -0.6381
  666SOL    HW1 1997   0.545   2.359   0.504 -1.3502  0.5543 -1.7516
  666SOL    HW2 1998   0.429   2.242   0.570 -3.2036 -0.3173  1.3573
  667SOL     OW 1999   2.091   0.253   0.989  0.0715 -0.4693  0.2553
  667SOL    HW1 2000   2.162   0.321   1.013  1.0308  0.2346  1.4328
  667SOL    HW2 2001   2.017   0.246   1.062 -2.2129 -0.2958 -3.0140
  668SOL     OW 2002   1.973   0.570   1.255  0.9993  1.2740  0.6187
  668SOL    HW1 2003   2.003   0.542   1.162  0.3786  0.8528  0.5041
  668SOL    HW2 2004   2.013   0.508   1.328  1.2173  1.3691 -1.2000
  669SOL     OW 2005   2.994   2.078   0.947  0.3481 -0.0910  0.0755
  669SOL    HW1 2006   2.920   2.125   0.882 -0.1152  1.2932 -2.3693
  669SOL    HW2 2007   2.987   2.119   1.048  0.1540  2.5759  3.1999
  670SOL     OW 2008   2.774   2.335   2.009 -0.1031 -0.5391  0.1235
  670SOL    HW1 2009   2.727   2.329   2.103 -0.1713  0.5675  2.8405
  670SOL    HW2 2010   2.778   2.432   1.971  0.3878 -2.5766 -1.5835
  671SOL     OW 2011   1.689   1.683   1.466 -0.7926  0.2074 -0.0697
  671SOL    HW1 2012   1.730   1.713   1.379 -2.7494 -0.9521  1.0933
  671SOL    HW2 2013   1.588   1.702   1.461  2.7659  1.5724  2.4189
  672SOL     OW 2014   0.403   0.676   2.436 -0.7253 -0.3541 -0.0815
  672SOL    HW1 2015   0.445   0.670   2.338  1.8223 -1.2571 -0.8863
  672SOL    HW2 2016   0.322   0.735   2.442  3.3894  0.2459 -0.2681
  673SOL     OW 2017   0.148   1.223   1.135 -0.1049  0.5398 -0.5835
  673SOL    HW1 2018   0.188   1.291   1.202  0.9382  4.1367 -1.6106
  673SOL    HW2 2019   0.222   1.164   1.095  0.6533 -0.6083 -1.7082
  674SOL     OW 2020   1.536   2.881   0.149  0.1337  0.4904  0.2534
  674SOL    HW1 2021   1.589   2.974   0.137 -0.8788  1.4918 -2.4138
  674SOL    HW2 2022   1.586   2.798   0.115  0.6837 -1.0919  0.0537
  675SOL     OW 2023   1.742   0.866   2.352 -0.5009  0.1144  0.8065
  675SOL    HW1 2024   1.843   0.848   2.356 -2.9928  1.6367  0.7931
  675SOL    HW2 2025   1.685   0.790   2.307 -0.6914  1.9649  0.3899
  676SOL     OW 2026   2.498   1.503   2.040 -0.3431  0.5517  0.2235
  676SOL    HW1 2027   2.487   1.469   1.940  2.4251  0.2057 -2.6248
  676SOL    HW2 2028   2.569   1.451   2.099 -1.8045 -0.2451  0.5131
  677SOL     OW 2029   1.866   0.559   0.941  0.1502  0.3270 -0.3478
  677SOL    HW1 2030   1.851   0.646   0.999 -1.5316 -1.1098 -3.6581
  677SOL    HW2 2031   1.803   0.478   0.966  1.4402 -0.4755 -0.2380
  678SOL     OW 2032   0.091   0.838   1.654 -0.3089 -0.4755 -0.1239
  678SOL    HW1 2033   0.185   0.856   1.700  2.0129  1.5238  0.0478
  678SOL    HW2 2034   0.017   0.822   1.726 -0.9673  1.0294  0.5138
  679SOL     OW 2035   2.503   1.179   1.145 -0.7800  0.9567  0.1756
  679SOL    HW1 2036   2.405   1.173   1.188 -1.3959  0.2798  2.7660
  679SOL    HW2 2037   2.522   1.091   1.088 -0.5667 -0.1471 -0.5403
  680SOL     OW 2038   2.858   0.655   1.678  0.3706 -0.0537  0.2070
  680SOL    HW1 2039   2.818   0.695   1.590  4.1078 -0.7036  0.9484
  680SOL    HW2 2040   2.890   0.730   1.748  0.2770  1.1103  0.3230
  681SOL     OW 2041   3.049   0.133   1.649  0.4150  0.6392 -0.1893
  681SOL    HW1 2042   3.131   0.102   1.596 -1.6390  0.1180 -0.1359
  681SOL    HW2 2043   3.012   0.228   1.618  0.6800  1.7590 -3.2259
  682SOL     OW 2044   0.728   3.093   1.375  0.2894 -0.6001  0.2802
  682SOL    HW1 2045   0.646   3.033   1.409  1.6215  0.4507  2.7717
  682SOL    HW2 2046   0.735   3.110   1.269  0.7593 -0.1946 -0.6874
  683SOL     OW 2047   1.378   0.239   2.170  0.5536  0.1688  0.1327
  683SOL    HW1 2048   1.373   0.283   2.266  0.6578  1.4472  2.5096
  683SOL    HW2 2049   1.459   0.280   2.120  0.3008 -0.3633  0.3299
  684SOL     OW 2050   1.421   2.106   0.461  0.6714  0.3883  0.0528
  684SOL    HW1 2051   1.489   2.036   0.496  0.7769  1.2592  0.4182
  684SOL    HW2 2052   1.331   2.063   0.428  0.8947 -0.6258  1.3371
  685SOL     OW 2053   2.114   1.945   1.962  0.0036  0.1901 -0.1172
  685SOL    HW1 2054   2.171   2.009   1.905 -0.6790 -0.4072  2.6235
  685SOL    HW2 2055   2.178   1.878   2.009  0.1122  0.9433 -0.8969
  686SOL     OW 2056   1.533   1.747   2.773 -0.0831 -0.5522  0.4880
  686SOL    HW1 2057   1.530   1.644   2.750  2.2207  1.3745  1.4880
  686SOL    HW2 2058   1.566   1.757   2.869 -0.7973  0.1340 -0.8150
  687SOL     OW 2059   1.354   2.515   1.902  0.0728 -0.0625 -0.2218
  687SOL    HW1 2060   1.382   2.429   1.858  1.8393  0.9432  2.1965
  687SOL    HW2 2061   1.397   2.527   1.995 -1.4234  2.9897  2.1248
  688SOL     OW 2062   2.095   1.503   1.599 -0.4625  0.3271 -0.0406
  688SOL    HW1 2063   2.190   1.511   1.559 -1.3497 -2.1670  1.1296
  688SOL    HW2 2064   2.036   1.467   1.519  0.1459 -1.5091  0.3110
  689SOL     OW 2065   2.433   1.094   2.709 -0.1787 -0.5587 -0.4053
  689SOL    HW1 2066   2.339   1.079   2.749  0.8537  0.3037 -2.0571
  689SOL    HW2 2067   2.507   1.053   2.763 -0.1858  0.3021 -2.0952
  690SOL     OW 2068   2.210   2.749   3.075  0.0944  0.1023 -0.1035
  690SOL    HW1 2069   2.131   2.739   3.005 -1.0547  0.4986  1.7780
  690SOL    HW2 2070   2.185   2.781   3.168  1.6608  1.0239 -4.1285
  691SOL     OW 2071   2.576   0.479   2.182  0.2475 -0.2038 -0.9887
  691SOL    HW1 2072   2.630   0.403   2.134  2.9261  0.1901  0.9630
  691SOL    HW2 2073   2.591   0.571   2.128  2.3626  0.3237  1.2174
  692SOL     OW 2074   2.739   1.202   0.684  0.0678  0.1283 -0.2140
  692SOL    HW1 2075   2.636   1.184   0.706  1.9525 -1.3074  0.4068
  692SOL    HW2 2076   2.784   1.285   0.731  2.0048  1.7334 -0.8943
  693SOL     OW 2077   2.857   2.944   0.588 -0.0418 -0.6102  0.3992
  693SOL    HW1 2078   2.861   3.042   0.632 -0.9480 -1.2839  1.9186
  693SOL    HW2 2079   2.807   2.943   0.496  0.9360 -1.4588  1.5988
  694SOL     OW 2080   2.376   2.113   0.075  0.6399 -0.4754 -0.1888
  694SOL    HW1 2081   2.355   2.215   0.103 -1.7744  3.1020  4.1407
  694SOL    HW2 2082   2.294   2.050   0.072  0.3424  3.5045 -0.0880
  695SOL     OW 2083   0.546   2.915   1.488  0.2059 -0.5457 -0.2911
  695SOL    HW1 2084   0.504   2.815   1.497 -1.4286 -1.4664  0.8466
  695SOL    HW2 2085   0.511   2.979   1.563  0.5690  1.1373 -4.1249
  696SOL     OW 2086   2.725   1.964   0.670  0.3794  0.0091 -0.5174
  696SOL    HW1 2087   2.752   1.886   0.736  1.4881 -0.7119  3.4465
  696SOL    HW2 2088   2.670   1.931   0.588  0.8564 -1.7551 -1.7557
  697SOL     OW 2089   1.678   2.081   1.740  0.2103 -0.5060 -0.3521
  697SOL    HW1 2090   1.756   2.020   1.769 -0.7284  2.1376  1.3084
  697SOL    HW2 2091   1.697   2.148   1.662 -4.4347 -0.6507 -1.0528
  698SOL     OW 2092   2.927   0.315   2.791 -0.6433  0.0361 -0.5096
  698SOL    HW1 2093   2.929   0.294   2.694  1.5915 -1.3953  3.8653
  698SOL    HW2 2094   2.990   0.260   2.850  0.3652  0.8099  0.6397
  699SOL     OW 2095   1.532   0.118   2.931 -0.1670  0.1568 -0.2008
  699SOL    HW1 2096   1.516   0.016   2.921 -3.0375  1.7864  1.3141
  699SOL    HW2 2097   1.571   0.159   2.843 -1.3830  1.0384  1.4296
  700SOL     OW 2098   0.985   2.356   1.406  0.2829  0.3811  0.1706
  700SOL    HW1 2099   1.084   2.343   1.373 -1.5987 -1.7740  0.6722
  700SOL    HW2 2100   0.923   2.340   1.327  0.8769 -2.3176  0.2711
  701SOL     OW 2101   1.862   2.806   0.035  0.3204  0.1289 -0.3891
  701SOL    HW1 2102   1.869   2.790   0.136 -1.9272  0.3671 -1.1697
  701SOL    HW2 2103   1.903   2.902   0.013 -0.3527  2.0808  1.1016
  702SOL     OW 2104   2.091   1.394   1.866 -0.4261 -0.2303 -0.0952
  702SOL    HW1 2105   2.176   1.345   1.911 -0.5988  1.7027 -0.9505
  702SOL    HW2 2106   2.105   1.443   1.774  0.3461 -1.0280 -3.0159
  703SOL     OW 2107   1.989   0.841   1.470  0.5217  0.1753 -0.2414
  703SOL    HW1 2108   1.961   0.753   1.517  1.4148  1.1321  0.1295
  703SOL    HW2 2109   2.048   0.907   1.527  0.6429  0.5717  2.3325
  704SOL     OW 2110   0.326   2.042   1.774 -0.7526  0.3014  0.7229
  704SOL    HW1 2111   0.342   1.991   1.864  2.3531  0.3875  0.3513
  704SOL    HW2 2112   0.389   2.128   1.750  0.7814  4.0261 -1.6398
  705SOL     OW 2113   2.541   1.413   0.845  0.0555  0.4130 -0.5267
  705SOL    HW1 2114   2.437   1.389   0.853  1.0002 -0.0734 -1.2337
  705SOL    HW2 2115   2.587   1.404   0.934 -1.1478 -0.2100 -3.3382
  706SOL     OW 2116   0.643   1.758   1.915  0.5218  0.5598  0.3709
  706SOL    HW1 2117   0.635   1.652   1.938  0.4156 -1.6558 -1.4919
  706SOL    HW2 2118   0.737   1.799   1.932 -2.0942 -0.4522 -1.5832
  707SOL     OW 2119   2.306   1.242   1.950  0.4849  0.2729  0.1470
  707SOL    HW1 2120   2.396   1.225   1.993 -1.1669  0.3882 -1.7500
  707SOL    HW2 2121   2.267   1.154   1.908  0.1579  0.0268 -1.3798
  708SOL     OW 2122   3.063   0.493   3.032 -0.2261  0.7774  0.3328
  708SOL    HW1 2123   3.136   0.547   2.976  1.2270 -1.4966  1.7234
  708SOL    HW2 2124   3.077   0.386   3.015  0.0495  0.2506 -0.8344
  709SOL     OW 2125   1.768   1.861   0.288 -0.1179 -0.0252 -0.2090
  709SOL    HW1 2126   1.796   1.939   0.345 -0.2766 -0.6504 -1.0166
  709SOL    HW2 2127   1.810   1.868   0.188 -2.6340  0.6098 -3.9013
  710SOL     OW 2128   1.759   1.646   2.454  0.2469  0.4795  0.0348
  710SOL    HW1 2129   1.813   1.609   2.373 -3.1123  2.1765  1.1536
  710SOL    HW2 2130   1.790   1.606   2.542 -0.6858  0.7438 -1.6096
  711SOL     OW 2131   2.634   2.950   0.965 -0.3421 -0.2369  0.1647
  711SOL    HW1 2132   2.624   3.045   0.932 -1.5068 -3.2314  0.1952
  711SOL    HW2 2133   2.722   2.940   1.016 -2.4976  2.4369 -0.7410
  712SOL     OW 2134   1.470   2.276   1.777  0.4988 -0.1565 -0.0175
  712SOL    HW1 2135   1.528   2.190   1.769  1.0284 -0.9666 -1.4493
  712SOL    HW2 2136   1.408   2.282   1.694  0.0968  0.7597  2.0194
  713SOL     OW 2137   2.833   1.353   2.479  0.3483  0.5139 -0.3590
  713SOL    HW1 2138   2.840   1.247   2.478  0.5936  2.4895  0.8362
  713SOL    HW2 2139   2.750   1.384   2.542 -1.8118 -0.0755  1.5627
  714SOL     OW 2140   2.645   0.447   2.454  0.7905 -0.5051  0.6768
  714SOL    HW1 2141   2.572   0.412   2.521  0.2246  0.9167 -0.3192
  714SOL    HW2 2142   2.606   0.472   2.359  2.9699 -0.0309 -0.3780
  715SOL     OW 2143   1.616   2.124   1.121  0.6134  0.5263 -0.2050
  715SOL    HW1 2144   1.589   2.223   1.106 -1.3802  0.7442 -1.0818
  715SOL    HW2 2145   1.655   2.099   1.214  1.3522 -0.5786 -2.1097
  716SOL     OW 2146   1.223   0.215   1.458 -0.1744 -0.1646  0.3330
  716SOL    HW1 2147   1.121   0.241   1.456 -0.0227  0.2872 -3.6165
  716SOL    HW2 2148   1.287   0.297   1.443  1.6439  0.7128 -0.8212
  717SOL     OW 2149   1.060   0.620   1.597 -0.6538 -0.4129  0.0385
  717SOL    HW1 2150   1.143   0.669   1.637  0.7760  0.6715  0.2502
  717SOL    HW2 2151   1.077   0.580   1.506 -0.3213 -2.0999  0.7860
  718SOL     OW 2152   0.657   1.086   0.981 -0.0218 -0.0741  0.1869
  718SOL    HW1 2153   0.641   1.107   0.884  0.2038 -0.3988  0.0387
  718SOL    HW2 2154   0.735   1.142   1.017  1.9447 -0.9034 -0.0858
  719SOL     OW 2155   0.755   1.841   2.247 -0.3522 -0.4313 -0.3291
  719SOL    HW1 2156   0.803   1.882   2.327 -0.4015 -0.5628  2.4416
  719SOL    HW2 2157   0.649   1.856   2.260 -3.0812  3.4784 -0.6788
  720SOL     OW 2158   2.255   1.121   0.235  0.1344  0.5946 -0.0521
  720SOL    HW1 2159   2.358   1.090   0.239  0.7258  1.6928 -0.9253
  720SOL    HW2 2160   2.212   1.141   0.330 -1.4028  0.8942 -0.3846
  721SOL     OW 2161   2.208   0.043   2.053  0.4651 -0.5940 -0.8017
  721SOL    HW1 2162   2.226   0.107   1.974 -0.8370  0.1787  0.5688
  721SOL    HW2 2163   2.113   0.054   2.094  0.5017 -0.9692 -1.7453
  722SOL     OW 2164   2.361   1.671   0.501  0.4305  0.1045 -0.1491
  722SOL    HW1 2165   2.337   1.675   0.404  1.2535 -0.9888  2.2627
  722SOL    HW2 2166   2.283   1.644   0.562 -0.7210  1.1955 -0.3331
  723SOL     OW 2167   2.565   2.840   1.896 -0.0359  0.2757 -0.0282
  723SOL    HW1 2168   2.631   2.872   1.975 -1.4305 -2.3715 -0.4313
  723SOL    HW2 2169   2.470   2.827   1.931 -0.1909 -0.8977  1.3776
  724SOL     OW 2170   0.375   2.427   2.416 -0.7374 -0.3762  0.1727
  724SOL    HW1 2171   0.275   2.452   2.408 -0.0890  0.4136 -1.3195
  724SOL    HW2 2172   0.396   2.400   2.511  0.5365  0.2280 -2.9762
  725SOL     OW 2173   2.276   2.757   1.447 -0.3430  0.1248  0.4886
  725SOL    HW1 2174   2.340   2.818   1.394  0.4476  1.8624 -1.3996
  725SOL    HW2 2175   2.311   2.671   1.486 -1.8967  0.5611  0.0733
  726SOL     OW 2176   2.384   2.253   0.797 -0.3091 -0.1015  0.3694
  726SOL    HW1 2177   2.327   2.341   0.780 -0.6011 -1.8109 -0.7647
  726SOL    HW2 2178   2.386   2.196   0.710  2.4831 -1.9282  0.0462
  727SOL     OW 2179   0.223   3.086   0.155  0.4926 -0.5862  0.1300
  727SOL    HW1 2180   0.291   3.008   0.135  0.5500 -2.5459 -0.7581
  727SOL    HW2 2181   0.253   3.181   0.124 -0.0565 -0.4814  1.3387
  728SOL     OW 2182   2.812   0.704   1.044  1.0647 -0.3303 -0.1825
  728SOL    HW1 2183   2.737   0.656   0.989 -0.4282  1.4545 -0.5642
  728SOL    HW2 2184   2.819   0.659   1.138  1.1717 -3.2238 -2.7415
  729SOL     OW 2185   2.902   2.466   0.760  0.1991  0.0125  0.1053
  729SOL    HW1 2186   2.894   2.363   0.742 -0.0654 -1.0657  1.8491
  729SOL    HW2 2187   2.997   2.494   0.753 -1.1366 -2.8015  0.0705
  730SOL     OW 2188   2.610   0.570   0.878  0.4890  0.3830 -0.1128
  730SOL    HW1 2189   2.568   0.658   0.846 -1.3099 -3.4632  0.1650
  730SOL    HW2 2190   2.652   0.519   0.803 -1.5882  5.0053  0.7535
  731SOL     OW 2191   0.055   2.128   2.464  0.1490 -0.2172  0.0525
  731SOL    HW1 2192   0.106   2.157   2.554  1.4925 -4.7773  1.3174
  731SOL    HW2 2193  -0.025   2.072   2.491  2.8543  4.3397  0.2359
  732SOL     OW 2194   1.135   2.833   1.973 -0.3263 -0.2088  0.6781
  732SOL    HW1 2195   1.151   2.761   2.051 -0.8090 -2.3686  0.1256
  732SOL    HW2 2196   1.166   2.798   1.880 -1.4518 -1.0063 -0.4593
  733SOL     OW 2197   3.027   0.721   2.105  0.3700  0.1879  0.1263
  733SOL    HW1 2198   3.123   0.764   2.104  0.1360 -0.2453  0.4203
  733SOL    HW2 2199   3.029   0.626   2.061 -0.7591 -0.0922 -2.8424
  734SOL     OW 2200   1.404   0.361   2.702  0.3541 -0.2490  0.1514
  734SOL    HW1 2201   1.396   0.462   2.735 -1.7942  2.8166 -0.3913
  734SOL    HW2 2202   1.337   0.295   2.744  0.3916  0.9409 -1.8104
  735SOL     OW 2203   2.826   2.591   2.277 -0.6931  0.3260 -0.1107
  735SOL    HW1 2204   2.739   2.581   2.224  3.6833 -2.7043 -0.6718
  735SOL    HW2 2205   2.908   2.596   2.217  1.3252  0.7934  0.7557
  736SOL     OW 2206   0.790   0.364   2.643 -0.1436  0.3079  0.6071
  736SOL    HW1 2207   0.760   0.458   2.653  0.3852  0.1362  2.1124
  736SOL    HW2 2208   0.764   0.336   2.545 -3.3463  0.2533  1.5411
  737SOL     OW 2209   2.689   0.463   2.810  0.7255  0.0833  0.0579
  737SOL    HW1 2210   2.677   0.459   2.916 -1.2920  0.7749  3.1022
  737SOL    HW2 2211   2.782   0.426   2.784  2.5159  0.6663 -0.7622
  738SOL     OW 2212   1.660   1.207   3.031 -0.4802 -0.0762 -0.1516
  738SOL    HW1 2213   1.758   1.191   2.995  1.2574 -0.7303 -0.1326
  738SOL    HW2 2214   1.599   1.151   2.969  3.5854 -0.7139 -0.8732
  739SOL     OW 2215   1.746   0.620   0.692 -0.3334 -0.3194 -0.1167
  739SOL    HW1 2216   1.804   0.617   0.778  1.1394 -1.5828 -1.2138
  739SOL    HW2 2217   1.795   0.562   0.619 -0.6885  0.1252  0.4837
  740SOL     OW 2218   1.925   1.969   2.144 -0.6742  0.5717 -0.2037
  740SOL    HW1 2219   1.995   1.975   2.065 -1.6211 -0.3585 -2.2673
  740SOL    HW2 2220   1.846   1.910   2.124  1.4557  0.1961  1.0425
  741SOL     OW 2221   2.495   0.144   2.558 -0.2175  0.4163 -0.5304
  741SOL    HW1 2222   2.583   0.101   2.595  0.6001  0.2121  0.9011
  741SOL    HW2 2223   2.471   0.117   2.459  0.7411  0.7346  0.8288
  742SOL     OW 2224   2.259   1.375   0.089  0.3920 -0.2707 -0.4500
  742SOL    HW1 2225   2.166   1.410   0.116 -2.7217  2.4164 -2.4181
  742SOL    HW2 2226   2.290   1.291   0.142 -1.3281 -3.3850 -2.6320
  743SOL     OW 2227   1.751   0.622   2.609  0.1712  0.4019  0.4011
  743SOL    HW1 2228   1.764   0.587   2.515  0.4878  1.9886  0.0456
  743SOL    HW2 2229   1.675   0.694   2.614 -1.0950  0.8086  3.7588
  744SOL     OW 2230   2.630   2.089   0.017 -0.0236 -0.1783 -0.6582
  744SOL    HW1 2231   2.529   2.109   0.031 -0.0055  0.3008  2.2178
  744SOL    HW2 2232   2.672   2.033   0.096  0.9315 -0.9359  0.8679
  745SOL     OW 2233   2.175   2.718   2.208  0.7130  0.0307 -0.1658
  745SOL    HW1 2234   2.087   2.718   2.157  3.0319 -0.6063  0.0024
  745SOL    HW2 2235   2.169   2.770   2.296 -1.2643  3.3964 -1.3837
  746SOL     OW 2236  -0.001   2.617   1.836  0.3253 -0.1982  0.2013
  746SOL    HW1 2237   0.104   2.614   1.825  0.2011  2.0153  0.9942
  746SOL    HW2 2238  -0.039   2.697   1.893  0.9809 -1.2904  2.8840
  747SOL     OW 2239   0.009   1.811   1.723  0.6569  0.3044  0.4401
  747SOL    HW1 2240  -0.027   1.714   1.704  0.4099  1.4691  0.5849
  747SOL    HW2 2241   0.099   1.831   1.671  1.9780  0.5801  1.3504
  748SOL     OW 2242   1.752   2.771   2.888  0.0904 -0.6062 -0.1449
  748SOL    HW1 2243   1.802   2.782   2.980  0.7321  1.8433  0.7618
  748SOL    HW2 2244   1.651   2.779   2.893  1.4009  3.2581  2.0261
  749SOL     OW 2245   1.274   0.074   0.862  0.1827 -0.2211  0.2563
  749SOL    HW1 2246   1.249  -0.027   0.854  0.1355 -1.0823  0.5625
  749SOL    HW2 2247   1.275   0.121   0.767  0.3794  1.6303  2.4239
  750SOL     OW 2248   2.351   0.232   1.883 -0.9482  0.2579 -0.0365
  750SOL    HW1 2249   2.391   0.284   1.799 -2.5329 -1.2275  1.5757
  750SOL    HW2 2250   2.360   0.283   1.968 -0.3386  0.1370 -3.4719
  751SOL     OW 2251   0.834   2.235   2.853 -0.6155  0.0761  0.0008
  751SOL    HW1 2252   0.876   2.246   2.951 -1.3719 -0.5559  3.1627
  751SOL    HW2 2253   0.773   2.151   2.852  2.0435 -1.1682 -1.7032
  752SOL     OW 2254   1.235   0.938   1.542  0.0973  0.3048 -0.4129
  752SOL    HW1 2255   1.302   0.973   1.472 -1.8087  0.8449 -0.1875
  752SOL    HW2 2256   1.270   0.854   1.592 -0.5257 -0.0279 -1.1446
  753SOL     OW 2257   0.927   2.614   1.803  0.0452 -0.2634  0.7765
  753SOL    HW1 2258   1.022   2.650   1.768  2.6195 -1.9926 -0.7160
  753SOL    HW2 2259   0.846   2.679   1.802  0.0182 -1.4201  0.3808
  754SOL     OW 2260   1.146   1.272   3.055  0.7953  0.1561 -0.3462
  754SOL    HW1 2261   1.191   1.209   2.992 -0.3504  2.2302  0.5494
  754SOL    HW2 2262   1.148   1.374   3.025 -0.2023  0.4026 -0.7653
  755SOL     OW 2263   2.006   0.534   2.212  0.1422  0.6586 -0.3564
  755SOL    HW1 2264   2.084   0.480   2.260  2.0925 -4.1114 -2.6487
  755SOL    HW2 2265   1.918   0.537   2.267  1.1710  0.5225 -1.4925
  756SOL     OW 2266   2.632   0.974   2.921  0.2364 -0.3708  0.0426
  756SOL    HW1 2267   2.712   0.922   2.894 -1.6096  0.2304  0.1929
  756SOL    HW2 2268   2.562   0.919   2.972 -1.0453 -0.2332  1.3499
  757SOL     OW 2269   0.106   0.547   1.690 -0.6451 -0.0707 -0.3482
  757SOL    HW1 2270   0.140   0.645   1.676  0.9253 -1.3358  0.7312
  757SOL    HW2 2271   0.121   0.482   1.610 -0.6321 -1.5023 -2.2381
  758SOL     OW 2272   2.426   3.095   1.526  0.4874  0.1449 -0.7092
  758SOL    HW1 2273   2.346   3.041   1.563 -0.4216  1.9327  0.2949
  758SOL    HW2 2274   2.428   3.097   1.421 -0.2602  0.3648  1.5101
  759SOL     OW 2275   1.660   0.013   0.068  0.0718  0.9921 -0.1111
  759SOL    HW1 2276   1.610   0.052  -0.009 -0.1972 -0.3949  0.1964
  759SOL    HW2 2277   1.762   0.002   0.062 -1.4666  0.5329 -0.3460
  760SOL     OW 2278   2.734   2.005   2.817  0.0382  0.0078  0.2601
  760SOL    HW1 2279   2.807   1.933   2.793 -0.0811 -0.0444  1.7300
  760SOL    HW2 2280   2.767   2.101   2.800  2.9948 -3.8562 -2.4148
  761SOL     OW 2281   1.909   1.731   1.599 -0.1965  0.0397  0.0009
  761SOL    HW1 2282   1.957   1.640   1.610 -1.0081 -2.0061 -0.8183
  761SOL    HW2 2283   1.812   1.715   1.560  0.1722  1.9461  1.2987
  762SOL     OW 2284   0.537   2.413   0.955  0.1061  0.2307  0.5353
  762SOL    HW1 2285   0.582   2.445   0.866  0.8265 -2.4089  0.0944
  762SOL    HW2 2286   0.577   2.459   1.038 -0.9900  2.3417  3.3932
  763SOL     OW 2287   2.027   1.563   2.954 -0.6937  0.1733 -0.3099
  763SOL    HW1 2288   2.079   1.503   2.883  2.0495  2.8848 -1.8826
  763SOL    HW2 2289   1.946   1.516   3.005 -0.8630  1.3301 -1.1872
  764SOL     OW 2290   0.669   0.531   0.873 -0.3237  0.1579 -0.1580
  764SOL    HW1 2291   0.672   0.462   0.794 -0.7656  0.9817 -1.7046
  764SOL    HW2 2292   0.769   0.559   0.895  1.7487  0.5485  1.7456
  765SOL     OW 2293   0.652   0.207   0.799 -0.3971 -0.4828  0.3566
  765SOL    HW1 2294   0.746   0.207   0.750  0.6867 -1.9734 -0.6108
  765SOL    HW2 2295   0.655   0.238   0.899 -0.2950  0.2690 -0.3589
  766SOL     OW 2296   2.942   2.036   3.070 -0.0172 -0.5946 -0.8490
  766SOL    HW1 2297   2.844   2.067   3.060  0.7011  1.8362  0.5980
  766SOL    HW2 2298   3.010   2.116   3.086  1.5684  0.4928  1.1092
  767SOL     OW 2299   2.845   1.571   0.503 -0.0410  0.1730 -0.1684
  767SOL    HW1 2300   2.747   1.580   0.547  0.5338  0.4268  2.0136
  767SOL    HW2 2301   2.918   1.577   0.576  0.9835  0.1125 -1.2169
  768SOL     OW 2302   1.058   0.279   0.283  0.2573  0.1503 -0.1689
  768SOL    HW1 2303   0.980   0.226   0.326 -1.7641 -3.3571  0.0293
  768SOL    HW2 2304   1.143   0.223   0.270  0.5596  0.2668  0.3671
  769SOL     OW 2305   1.229   1.821   2.304  0.7301  0.0903  0.8831
  769SOL    HW1 2306   1.299   1.802   2.374 -0.5524  1.2165 -1.5157
  769SOL    HW2 2307   1.172   1.731   2.283 -3.1075 -1.2176 -0.5657
  770SOL     OW 2308   0.140   1.137   2.353 -0.3028  0.3432 -0.4792
  770SOL    HW1 2309   0.127   1.173   2.448 -2.3266 -1.0367 -2.3322
  770SOL    HW2 2310   0.058   1.155   2.303  2.7293 -1.1408 -0.0587
  771SOL     OW 2311   2.939   2.835   1.934  0.5235 -0.5581  0.0989
  771SOL    HW1 2312   2.944   2.911   1.865 -1.7169  0.3316 -1.1274
  771SOL    HW2 2313   2.885   2.865   2.022  0.9903  1.7201 -2.1683
  772SOL     OW 2314   2.121   0.101   2.983 -0.4070 -0.1937  0.4572
  772SOL    HW1 2315   2.209   0.049   2.999  1.5429  0.4230 -0.7514
  772SOL    HW2 2316   2.110   0.187   3.043  0.5917  1.3133 -0.1597
  773SOL     OW 2317   0.668   2.101   2.483 -0.0724  0.5089  0.3460
  773SOL    HW1 2318   0.622   2.136   2.396  1.1038  1.7496 -0.6621
  773SOL    HW2 2319   0.611   2.115   2.571  1.6936 -1.7916  0.9052
  774SOL     OW 2320   2.024   3.071   2.646 -0.1804  0.2437  0.8802
  774SOL    HW1 2321   2.028   3.163   2.686 -0.9459 -1.8512 -0.7415
  774SOL    HW2 2322   2.093   3.006   2.695  0.7780 -2.1640  0.3452
  775SOL     OW 2323   2.500   2.866   2.366 -0.5263  0.4949  0.4453
  775SOL    HW1 2324   2.466   2.962   2.343  1.6691  3.4375  2.0130
  775SOL    HW2 2325   2.594   2.867   2.406 -1.2713 -0.3061  0.2045
  776SOL     OW 2326   0.014   1.223   0.234  0.1519 -0.3801  0.6820
  776SOL    HW1 2327  -0.003   1.150   0.158 -2.5243  0.9135 -3.6760
  776SOL    HW2 2328  -0.072   1.270   0.275  0.4859 -0.3516  1.4450
  777SOL     OW 2329   0.279   2.707   0.453  0.4776 -0.2941 -0.2095
  777SOL    HW1 2330   0.179   2.677   0.437  0.7195 -0.3802 -0.8659
  777SOL    HW2 2331   0.291   2.801   0.497  1.0399  0.4062  0.1698
  778SOL     OW 2332   1.336   1.950   0.190 -0.4184 -0.4202  0.1279
  778SOL    HW1 2333   1.268   1.962   0.270  0.3894  0.9127  1.1362
  778SOL    HW2 2334   1.352   2.040   0.136 -2.0555  0.8028 -0.8448
  779SOL     OW 2335   0.184   0.808   0.534 -0.2282  0.2802 -0.2990
  779SOL    HW1 2336   0.163   0.710   0.505 -0.7641 -0.5577  3.3530
  779SOL    HW2 2337   0.130   0.833   0.613  2.3301  0.7585  0.0351
  780SOL     OW 2338   0.006   0.309   2.379  0.1864 -0.1895 -0.5914
  780SOL    HW1 2339  -0.033   0.406   2.379  1.9571 -0.2478 -0.4378
  780SOL    HW2 2340   0.102   0.309   2.340  1.2551  1.8738 -1.2628
  781SOL     OW 2341   0.588   1.742   1.617  0.1166  0.8219 -0.5057
  781SOL    HW1 2342   0.620   1.779   1.712 -1.5740 -0.5533 -0.5263
  781SOL    HW2 2343   0.535   1.654   1.624 -0.5741  0.3154  0.3396
  782SOL     OW 2344   2.642   0.117   0.881  0.0361  0.5809 -0.0553
  782SOL    HW1 2345   2.550   0.123   0.830  2.1228  3.1191 -1.0106
  782SOL    HW2 2346   2.636   0.149   0.979  2.2700 -2.8459 -1.5459
  783SOL     OW 2347   2.817   0.677   2.499  0.0696 -0.4959 -0.5057
  783SOL    HW1 2348   2.799   0.709   2.595 -2.2722 -1.3642 -0.0595
  783SOL    HW2 2349   2.762   0.592   2.479  0.1980  2.4158  3.4587
  784SOL     OW 2350   1.383   2.176   0.036 -0.2079  0.4020 -0.2149
  784SOL    HW1 2351   1.488   2.199   0.055  0.2017  0.9422 -1.3048
  784SOL    HW2 2352   1.364   2.164  -0.064  1.3043  3.5295 -2.2469
  785SOL     OW 2353   2.138   0.347   0.015  0.5639 -0.0016 -0.2149
  785SOL    HW1 2354   2.055   0.367   0.067 -0.1128  0.2990  1.5043
  785SOL    HW2 2355   2.172   0.431  -0.027 -1.3214  0.1540  1.1058
  786SOL     OW 2356   2.048   2.159   2.305 -0.0665  0.2805 -0.5559
  786SOL    HW1 2357   1.992   2.092   2.246  3.7489  2.1628  0.9798
  786SOL    HW2 2358   2.151   2.134   2.312 -0.6301  3.8015  1.2572
  787SOL     OW 2359   1.430   0.613   0.793  0.0446  0.1812 -0.7185
  787SOL    HW1 2360   1.359   0.687   0.781  0.5273 -2.0549  1.9822
  787SOL    HW2 2361   1.447   0.572   0.697 -0.0049 -0.9232 -2.8085
  788SOL     OW 2362   1.214   0.471   3.008 -0.0182  0.3836 -0.5850
  788SOL    HW1 2363   1.127   0.477   2.951 -2.3330 -0.3610 -2.8720
  788SOL    HW2 2364   1.297   0.509   2.965 -1.0453  0.7954  2.2922
  789SOL     OW 2365   2.658   0.092   1.878  0.7756 -0.5033 -0.1583
  789SOL    HW1 2366   2.553   0.082   1.873 -2.8400  1.5860  0.4951
  789SOL    HW2 2367   2.711   0.007   1.864 -1.2833  0.2479  1.3565
  790SOL     OW 2368   2.614   2.668   0.810  0.3069 -0.0650  0.4964
  790SOL    HW1 2369   2.641   2.685   0.709 -1.1513 -1.5178 -2.0541
  790SOL    HW2 2370   2.630   2.742   0.879 -0.5100 -1.6926 -1.7515
  791SOL     OW 2371   1.965   1.217   0.229 -0.1749 -0.7282 -0.6123
  791SOL    HW1 2372   1.880   1.169   0.258 -1.6409  0.8425  0.6012
  791SOL    HW2 2373   2.034   1.167   0.166  0.0366 -1.1404  0.7737
  792SOL     OW 2374   0.425   1.969   2.186 -0.0254 -0.3557  0.2283
  792SOL    HW1 2375   0.470   2.065   2.201  1.2679 -1.0894  0.8521
  792SOL    HW2 2376   0.348   1.949   2.255  0.0106  1.5933  1.6482
  793SOL     OW 2377   2.097   1.494   2.120 -0.0198 -0.8327 -0.9390
  793SOL    HW1 2378   2.160   1.576   2.127 -0.2613  4.2774 -1.2497
  793SOL    HW2 2379   2.080   1.450   2.031  4.5396  1.8951 -0.1661
  794SOL     OW 2380   0.521   1.515   2.453 -0.0758  0.2836 -0.4031
  794SOL    HW1 2381   0.610   1.460   2.447  1.7774  1.2892  2.2081
  794SOL    HW2 2382   0.442   1.499   2.391  2.6358  0.2746 -0.5855
  795SOL     OW 2383   2.502   2.296   1.800 -0.3081 -0.3624  0.0366
  795SOL    HW1 2384   2.535   2.324   1.890 -1.0367  2.1872 -1.6801
  795SOL    HW2 2385   2.412   2.240   1.811 -0.4648  0.4485 -0.0147
  796SOL     OW 2386   3.046   1.085   2.718  0.1084  0.2826 -0.3223
  796SOL    HW1 2387   2.948   1.114   2.751  0.1276 -1.1946 -2.6336
  796SOL    HW2 2388   3.117   1.102   2.795 -2.0859  0.2865  0.6906
  797SOL     OW 2389   0.651   0.650   1.350  0.0674 -0.2038  0.4284
  797SOL    HW1 2390   0.696   0.698   1.433  1.5761  0.0476  0.3602
  797SOL    HW2 2391   0.662   0.718   1.269 -1.3143 -2.0360 -2.1827
  798SOL     OW 2392   1.177   0.514   0.906  0.5425  0.0370 -0.1263
  798SOL    HW1 2393   1.203   0.527   1.006  0.2785  1.9941  2.8289
  798SOL    HW2 2394   1.255   0.536   0.841 -1.5940  1.4158 -0.1613
  799SOL     OW 2395   1.832   2.698   0.994  0.1179  0.2454 -0.5091
  799SOL    HW1 2396   1.830   2.595   1.013  2.3291 -2.5169  0.7303
  799SOL    HW2 2397   1.887   2.715   0.906  0.4609 -2.3813 -0.9229
  800SOL     OW 2398   2.992   0.844   1.854  0.9051 -0.1499  0.0576
  800SOL    HW1 2399   3.013   0.947   1.859 -0.7864  1.3340  2.2420
  800SOL    HW2 2400   2.986   0.794   1.948 -1.7365 -0.5769  1.5200
  801SOL     OW 2401   1.962   2.176   0.102 -0.0547 -0.2015  0.2132
  801SOL    HW1 2402   1.867   2.148   0.073 -0.8578  0.0926 -2.7477
  801SOL    HW2 2403   2.030   2.101   0.076  0.5833  2.4485 -3.4178
  802SOL     OW 2404   0.682   0.623   2.539  0.0325  0.5693  1.2043
  802SOL    HW1 2405   0.744   0.631   2.453  0.6077 -1.0095 -0.6942
  802SOL    HW2 2406   0.580   0.624   2.514 -0.6990 -0.4623 -1.6428
  803SOL     OW 2407   0.928   0.077   0.896 -0.0244  0.2623 -0.0579
  803SOL    HW1 2408   0.988   0.142   0.955  0.8896 -1.4859 -0.6902
  803SOL    HW2 2409   0.903   0.111   0.802 -0.7638 -1.5135  0.7008
  804SOL     OW 2410   0.288   0.031   2.180 -0.3621  0.6550 -0.1908
  804SOL    HW1 2411   0.259   0.128   2.189 -1.1813  1.4341 -0.3140
  804SOL    HW2 2412   0.252  -0.018   2.095 -0.0208  1.0869 -2.8278
  805SOL     OW 2413   2.413   0.385   0.337 -0.1950  0.2864 -0.3427
  805SOL    HW1 2414   2.486   0.340   0.401  1.5105  0.8504  0.6376
  805SOL    HW2 2415   2.387   0.319   0.254  0.2416  0.4433 -0.5219
  806SOL     OW 2416   0.570   2.620   1.848 -0.4285  0.6595  0.5853
  806SOL    HW1 2417   0.512   2.681   1.915 -2.1450  1.3651 -1.6957
  806SOL    HW2 2418   0.637   2.673   1.789  2.7357  0.4997  0.0936
  807SOL     OW 2419   2.514   0.950   0.467 -0.2195  0.1939  0.0962
  807SOL    HW1 2420   2.590   0.887   0.489 -0.7007  2.7848 -0.3613
  807SOL    HW2 2421   2.524   0.988   0.369  2.5880 -0.4056  1.1931
  808SOL     OW 2422   0.657   2.020   2.905  0.4261  0.1512  0.2611
  808SOL    HW1 2423   0.638   2.062   2.996  1.0040  1.1162 -0.6927
  808SOL    HW2 2424   0.658   1.915   2.900  0.7680  0.8853 -2.2199
  809SOL     OW 2425   2.588   1.971   1.915 -0.1164 -0.0078  0.6215
  809SOL    HW1 2426   2.690   2.006   1.920  1.7350  1.2074 -2.8034
  809SOL    HW2 2427   2.550   1.983   1.817  0.2612  0.9357 -3.2603
  810SOL     OW 2428   2.206   1.115   0.491 -0.0493  0.0194  0.3443
  810SOL    HW1 2429   2.133   1.040   0.492 -2.0493 -0.6778 -0.4172
  810SOL    HW2 2430   2.182   1.192   0.555 -3.5522 -1.8213  1.9777
  811SOL     OW 2431   1.294   2.504   1.155 -0.1252 -0.9539 -0.3737
  811SOL    HW1 2432   1.236   2.422   1.126 -0.8183 -1.6699 -3.8021
  811SOL    HW2 2433   1.341   2.488   1.248  0.6540  2.1337  1.5321
  812SOL     OW 2434   1.479   0.746   1.945  0.7434 -0.4249  0.8858
  812SOL    HW1 2435   1.383   0.704   1.946 -0.1033  0.4474 -1.7538
  812SOL    HW2 2436   1.483   0.844   1.903 -2.1561  2.9781  0.6548
  813SOL     OW 2437   1.666   2.069   2.391  0.4385 -0.3785  0.0989
  813SOL    HW1 2438   1.763   2.049   2.427  0.2826  0.5324  1.6930
  813SOL    HW2 2439   1.652   2.045   2.291 -0.3970  1.4400  0.6174
  814SOL     OW 2440   2.981   1.670   2.891 -0.7002 -0.1033  0.1602
  814SOL    HW1 2441   2.996   1.595   2.963  1.3371 -0.7783  2.1343
  814SOL    HW2 2442   3.029   1.754   2.920  1.2616 -0.0361 -1.2252
  815SOL     OW 2443   2.184   2.874   2.737 -0.2758 -0.1626 -0.1987
  815SOL    HW1 2444   2.160   2.783   2.782  1.1092 -1.7917  0.2403
  815SOL    HW2 2445   2.271   2.918   2.777 -0.3397 -0.5430 -3.0724
  816SOL     OW 2446   1.486   0.373   1.646 -0.2030  1.1091 -0.8135
  816SOL    HW1 2447   1.536   0.283   1.670 -0.2786 -1.6776 -1.1020
  816SOL    HW2 2448   1.409   0.398   1.712 -1.3770 -4.1986 -0.3918
  817SOL     OW 2449   0.367   1.316   2.614 -0.1312 -0.2885 -0.6133
  817SOL    HW1 2450   0.264   1.312   2.612  1.0766 -1.8867  2.3637
  817SOL    HW2 2451   0.417   1.390   2.562 -2.2633  1.1386  2.1090
  818SOL     OW 2452   2.009   0.867   0.465 -0.0201 -0.1471 -0.1778
  818SOL    HW1 2453   2.100   0.824   0.442 -1.8963  0.0343  2.9039
  818SOL    HW2 2454   1.990   0.858   0.566 -1.7364  1.5780 -2.6135
  819SOL     OW 2455   2.796   2.899   3.012  0.0307  0.3482 -1.0391
  819SOL    HW1 2456   2.856   2.811   3.021  1.4123  1.0538  1.3648
  819SOL    HW2 2457   2.720   2.884   2.943  0.0887  1.6645  2.3806
  820SOL     OW 2458   1.258   1.038   0.535 -0.4886 -0.1961  0.0562
  820SOL    HW1 2459   1.300   1.124   0.573  2.9598 -3.0123 -1.8638
  820SOL    HW2 2460   1.204   0.976   0.597 -0.9848  2.5313 -1.7072
  821SOL     OW 2461   0.064   1.236   0.691 -0.5878 -0.1600  0.2839
  821SOL    HW1 2462   0.020   1.240   0.790 -1.5992  1.9412 -0.5402
  821SOL    HW2 2463   0.135   1.311   0.690  0.8561  2.2321 -0.4140
  822SOL     OW 2464   2.534   1.729   2.475 -0.0683  0.2894 -0.2507
  822SOL    HW1 2465   2.535   1.810   2.544 -0.9515  3.1520 -1.2471
  822SOL    HW2 2466   2.447   1.725   2.418  0.8622  0.4116 -0.2849
  823SOL     OW 2467   2.026   0.913   1.217  0.1117 -0.4436 -0.5942
  823SOL    HW1 2468   2.024   0.897   1.320  0.8497 -1.9878  1.6158
  823SOL    HW2 2469   1.953   0.868   1.163  1.1851 -0.2956  1.8038
  824SOL     OW 2470   0.183   1.875   2.804  0.3816 -0.4392  0.7481
  824SOL    HW1 2471   0.230   1.858   2.896 -1.3383  0.1416  0.3828
  824SOL    HW2 2472   0.243   1.907   2.723 -1.6171  0.0997 -1.0100
  825SOL     OW 2473   1.300   1.067   0.269 -0.1708  0.0812  0.3359
  825SOL    HW1 2474   1.308   1.170   0.247  3.1531 -0.1889 -0.0514
  825SOL    HW2 2475   1.286   1.048   0.366  0.4800 -2.4777  0.4519
  826SOL     OW 2476   1.944   0.608   1.580  0.1977  0.2062 -0.2558
  826SOL    HW1 2477   2.028   0.561   1.614 -1.6926  0.0945  2.9817
  826SOL    HW2 2478   1.868   0.544   1.547  1.3382 -1.2000 -0.2028
  827SOL     OW 2479   0.706   1.176   0.468  0.5872 -0.0341  0.9183
  827SOL    HW1 2480   0.798   1.130   0.454 -1.7790 -0.4235 -1.3054
  827SOL    HW2 2481   0.627   1.113   0.478  0.0412 -0.1195 -2.1675
  828SOL     OW 2482   2.642   0.167   1.540  0.3544  0.5477  0.3988
  828SOL    HW1 2483   2.556   0.114   1.527 -0.2820 -0.3308  0.7147
  828SOL    HW2 2484   2.658   0.194   1.641  0.8604  1.9958  1.7017
  829SOL     OW 2485   2.930   2.375   2.974  0.4669 -0.3587 -0.3257
  829SOL    HW1 2486   2.828   2.377   3.011 -0.7372  0.6236  0.8422
  829SOL    HW2 2487   2.957   2.472   2.952 -1.5100  0.3495 -0.1362
  830SOL     OW 2488   2.919   0.925   2.999  0.2369  0.4358  0.2484
  830SOL    HW1 2489   2.958   1.014   3.031 -0.6479  0.3900  0.0073
  830SOL    HW2 2490   2.947   0.851   3.066  1.6429 -0.1210 -0.1798
  831SOL     OW 2491   0.115   0.567   0.440 -0.4737  0.1645 -0.2685
  831SOL    HW1 2492   0.073   0.509   0.515  0.6624  1.7544  1.3454
  831SOL    HW2 2493   0.140   0.513   0.357 -0.3194  1.3538 -0.5700
  832SOL     OW 2494   1.791   0.717   3.067 -0.0282  0.0434  0.4009
  832SOL    HW1 2495   1.705   0.773   3.051 -2.0526 -0.4929  0.2543
  832SOL    HW2 2496   1.770   0.614   3.074 -2.1324  1.2828  1.8700
  833SOL     OW 2497   2.357   2.122   0.527  0.0212  0.1363  0.3428
  833SOL    HW1 2498   2.269   2.068   0.513 -1.1776 -0.7843  0.4188
  833SOL    HW2 2499   2.440   2.062   0.497  0.4136  0.7714  1.2570
  834SOL     OW 2500   0.135   0.056   0.552 -0.6086  0.2978 -0.1694
  834SOL    HW1 2501   0.205  -0.020   0.558  1.3724 -1.9653  1.0609
  834SOL    HW2 2502   0.132   0.102   0.460 -0.9532 -2.1266 -0.0875
  835SOL     OW 2503   2.440   1.626   1.160  0.3875  0.3168  0.6009
  835SOL    HW1 2504   2.528   1.580   1.193  0.5930  3.1738  1.7928
  835SOL    HW2 2505   2.466   1.715   1.108  2.2003  1.7271 -2.1760
  836SOL     OW 2506   1.559   0.814   2.572 -0.2722  0.0042 -0.7888
  836SOL    HW1 2507   1.453   0.838   2.580 -1.2649  2.8520 -0.8123
  836SOL    HW2 2508   1.598   0.837   2.478  2.1373  0.4143  0.4800
  837SOL     OW 2509   1.717   0.114   0.535  0.5893 -0.4109  0.3904
  837SOL    HW1 2510   1.709   0.204   0.585  2.6452 -0.8992 -0.0166
  837SOL    HW2 2511   1.661   0.111   0.446 -1.8248  1.3741 -1.6578
  838SOL     OW 2512   1.225   1.469   2.696 -0.7366  0.2444  0.0530
  838SOL    HW1 2513   1.184   1.556   2.736  1.1751  0.3466 -1.1765
  838SOL    HW2 2514   1.152   1.394   2.697 -1.4506  1.2935 -0.1638
  839SOL     OW 2515   1.655   0.381   0.968  0.6450  0.0653  0.0227
  839SOL    HW1 2516   1.588   0.457   0.985  0.8015  1.8507 -0.4195
  839SOL    HW2 2517   1.601   0.291   0.985  1.7474 -0.9280 -2.0282
  840SOL     OW 2518   2.650   2.965   1.656 -0.1984 -0.0686  0.3985
  840SOL    HW1 2519   2.567   3.017   1.616 -0.4469 -1.1747 -1.7050
  840SOL    HW2 2520   2.618   2.911   1.741 -1.6479  2.3705  0.4064
  841SOL     OW 2521   1.537   0.822   3.014  0.9335 -0.1920  0.9541
  841SOL    HW1 2522   1.521   0.882   3.097 -3.5451  2.6017  1.3118
  841SOL    HW2 2523   1.554   0.885   2.937 -1.3086  0.2651 -2.2892
  842SOL     OW 2524   0.829   1.620   1.001  0.1271 -0.6296 -0.0950
  842SOL    HW1 2525   0.777   1.706   1.017  0.3750  0.6249  1.8625
  842SOL    HW2 2526   0.780   1.551   0.935 -2.0983  1.4314 -1.8127
  843SOL     OW 2527   0.161   0.051   1.472  0.0294  0.2456  0.2039
  843SOL    HW1 2528   0.259   0.074   1.505  1.6272 -0.9526  0.6709
  843SOL    HW2 2529   0.161  -0.049   1.431  2.4574  0.3761 -3.0368
  844SOL     OW 2530   0.695   2.491   0.210 -0.2883 -0.4574 -0.0665
  844SOL    HW1 2531   0.641   2.480   0.298  0.5836 -0.7826  0.4698
  844SOL    HW2 2532   0.657   2.451   0.122 -0.3211  0.5283 -1.0548
  845SOL     OW 2533   1.740   3.091   1.241  0.9492  0.0514 -0.6196
  845SOL    HW1 2534   1.716   3.062   1.337  1.6356 -0.6730  1.9484
  845SOL    HW2 2535   1.722   3.192   1.223 -2.0724 -0.6599 -0.1870
  846SOL     OW 2536   1.708   3.034   0.925  0.0013  0.3862 -0.2719
  846SOL    HW1 2537   1.687   3.050   0.824 -0.7881 -2.2330  2.1163
  846SOL    HW2 2538   1.807   3.016   0.946 -0.6981  1.6974  0.8711
  847SOL     OW 2539   2.105   1.626   0.186  0.0722  0.3790 -0.5628
  847SOL    HW1 2540   2.052   1.610   0.272  1.9487  1.6555  0.8733
  847SOL    HW2 2541   2.043   1.642   0.100  1.2061  0.7462  0.4002
  848SOL     OW 2542   2.494   0.814   2.624 -0.1124 -0.0561  0.2055
  848SOL    HW1 2543   2.506   0.918   2.628  3.9053  2.0149 -0.0790
  848SOL    HW2 2544   2.403   0.780   2.584 -0.6368 -1.5632  2.0982
  849SOL     OW 2545   2.366   0.826   2.287  0.1657  0.0568  0.2864
  849SOL    HW1 2546   2.438   0.766   2.241 -0.1557  0.2876  2.3429
  849SOL    HW2 2547   2.316   0.774   2.357 -0.3455 -1.5629 -0.6363
  850SOL     OW 2548   1.547   0.207   1.249 -0.7849  0.7364  0.4970
  850SOL    HW1 2549   1.525   0.174   1.154  0.0279  2.2311  0.5797
  850SOL    HW2 2550   1.506   0.145   1.324 -1.2556 -0.0579  1.0243
  851SOL     OW 2551   0.460   1.691   0.641 -0.5611 -1.2753 -0.3721
  851SOL    HW1 2552   0.439   1.791   0.655  0.6768  0.0388  2.1154
  851SOL    HW2 2553   0.561   1.677   0.640  0.2511 -2.2838 -3.4857
  852SOL     OW 2554   0.828   2.191   1.711 -0.1765 -0.3972  0.2588
  852SOL    HW1 2555   0.776   2.273   1.667 -3.6504  1.7013 -1.9366
  852SOL    HW2 2556   0.782   2.165   1.800  2.3084 -1.0287 -2.0478
  853SOL     OW 2557   2.613   1.494   2.593  0.8639 -0.6365  0.1448
  853SOL    HW1 2558   2.556   1.423   2.541 -2.1611 -0.1374  0.7031
  853SOL    HW2 2559   2.610   1.586   2.536  0.7234  3.6711 -0.1074
  854SOL     OW 2560   2.434   1.428   1.788  0.5345 -0.5707 -0.1632
  854SOL    HW1 2561   2.457   1.416   1.685  0.2186 -1.8897 -1.5775
  854SOL    HW2 2562   2.404   1.340   1.839  2.1391 -2.1049 -1.0797
  855SOL     OW 2563   2.019   2.275   1.004  0.0573 -0.4507  0.3263
  855SOL    HW1 2564   2.045   2.371   0.974  0.4601  1.5000  0.4396
  855SOL    HW2 2565   2.066   2.246   1.097  0.4647  0.3053  2.8943
  856SOL     OW 2566   1.407   1.405   0.877  0.4442  0.1190 -0.3995
  856SOL    HW1 2567   1.417   1.506   0.864 -0.5529  0.6600  1.2409
  856SOL    HW2 2568   1.428   1.385   0.977 -1.9513 -1.3205  2.1582
  857SOL     OW 2569   2.887   2.543   1.014 -0.1367 -0.1310  0.3915
  857SOL    HW1 2570   2.870   2.449   1.058  2.0202 -2.5884 -0.1282
  857SOL    HW2 2571   2.873   2.538   0.909 -3.9797 -1.0884  0.7013
  858SOL     OW 2572   2.274   2.090   1.780  0.9289  0.0691  0.0239
  858SOL    HW1 2573   2.197   2.125   1.719  2.8692 -0.6666 -0.5057
  858SOL    HW2 2574   2.358   2.048   1.730 -0.4516  1.5305 -2.3253
  859SOL     OW 2575   2.399   0.401   0.963  0.0031 -1.1460  0.0149
  859SOL    HW1 2576   2.470   0.464   0.918  1.5132  3.9093 -0.8946
  859SOL    HW2 2577   2.439   0.320   1.006 -0.3905 -1.7596  0.5882
  860SOL     OW 2578   1.958   2.836   0.503 -0.1814  0.0333  0.3004
  860SOL    HW1 2579   1.935   2.795   0.406 -1.7707  0.1463  0.4596
  860SOL    HW2 2580   1.956   2.943   0.509  0.5116  1.7212  1.5096
  861SOL     OW 2581   1.019   2.549   2.809 -0.4213 -0.6931 -0.2907
  861SOL    HW1 2582   1.095   2.623   2.811  0.4393  0.6162  2.6564
  861SOL    HW2 2583   0.961   2.555   2.897 -1.1987 -1.3725  1.4898
  862SOL     OW 2584   2.977   2.608   1.562  0.0896  0.0811 -0.1138
  862SOL    HW1 2585   3.041   2.610   1.646  0.5841  0.0641  0.4712
  862SOL    HW2 2586   2.883   2.645   1.585  1.6581 -0.0094  1.2917
  863SOL     OW 2587   1.891   2.644   0.280 -1.1063  0.6119  0.2522
  863SOL    HW1 2588   1.952   2.559   0.270 -1.6852 -2.0457 -2.1773
  863SOL    HW2 2589   1.790   2.622   0.263  1.6770 -1.5799 -1.0061
  864SOL     OW 2590   1.911   1.131   2.955  0.3399  0.0725 -0.3153
  864SOL    HW1 2591   1.925   1.095   2.860 -1.7976 -0.6252 -0.5302
  864SOL    HW2 2592   1.995   1.112   3.014  3.5243 -1.3215  0.0177
  865SOL     OW 2593   2.108   1.693   0.650 -0.1535  0.6772 -0.6038
  865SOL    HW1 2594   2.169   1.733   0.727  2.0903  1.3064  0.8793
  865SOL    HW2 2595   2.028   1.639   0.682 -0.9964 -1.4709 -0.0139
  866SOL     OW 2596   2.880   2.818   1.013  0.5308 -0.2094  0.6570
  866SOL    HW1 2597   2.933   2.835   0.925 -1.5789  0.0772  2.8388
  866SOL    HW2 2598   2.853   2.720   1.023  1.6339 -0.0948  1.1504
  867SOL     OW 2599   0.458   1.335   0.839  0.3323  0.3507 -0.4330
  867SOL    HW1 2600   0.472   1.231   0.822 -1.5974  1.3130  2.2796
  867SOL    HW2 2601   0.367   1.368   0.798 -2.8795 -0.5450 -0.5213
  868SOL     OW 2602   0.844   1.938   1.991  0.3466 -0.7655  0.0476
  868SOL    HW1 2603   0.812   1.910   2.084 -1.2884 -1.7268 -2.2819
  868SOL    HW2 2604   0.796   2.019   1.949 -2.7405  0.0017 -1.8099
  869SOL     OW 2605   2.515   2.034   1.654 -0.1646 -0.1147  0.2169
  869SOL    HW1 2606   2.582   2.111   1.653 -3.6936 -1.7133  1.5751
  869SOL    HW2 2607   2.508   1.978   1.569  0.3289  0.1127  1.8484
  870SOL     OW 2608   2.393   2.533   1.179 -0.0642 -0.1257 -0.0514
  870SOL    HW1 2609   2.345   2.443   1.199  0.4953  1.1507 -0.8789
  870SOL    HW2 2610   2.479   2.534   1.238  1.4813 -1.5109 -0.2880
  871SOL     OW 2611   3.034   1.989   0.510  0.5641  0.2248  0.1720
  871SOL    HW1 2612   2.985   2.079   0.480  1.1288 -1.0063  0.6567
  871SOL    HW2 2613   3.015   1.907   0.449  3.5588  0.4864 -1.5956
  872SOL     OW 2614   2.172   0.476   1.675 -0.0354 -0.6725  0.1819
  872SOL    HW1 2615   2.140   0.503   1.767  1.3083  1.0140  0.4422
  872SOL    HW2 2616   2.257   0.420   1.682  0.4231  0.5435 -0.4929
  873SOL     OW 2617   1.721   2.078   2.872  0.4298 -0.3769 -0.3143
  873SOL    HW1 2618   1.703   2.176   2.914 -2.7390  0.5012 -2.0451
  873SOL    HW2 2619   1.644   2.042   2.806  0.9705  0.1365 -0.0449
  874SOL     OW 2620   0.678   2.504   0.746 -0.9098  0.1229 -0.1932
  874SOL    HW1 2621   0.671   2.608   0.747  0.9214 -2.8019  3.2202
  874SOL    HW2 2622   0.771   2.462   0.775  0.3775  1.6878  1.0489
  875SOL     OW 2623   2.307   1.549   1.439  0.3451  0.8687 -0.7283
  875SOL    HW1 2624   2.407   1.565   1.452  0.8945  0.1912  1.2463
  875SOL    HW2 2625   2.268   1.588   1.352 -1.1170  1.0027  0.7998
  876SOL     OW 2626   0.162   2.204   2.693 -0.3894  0.2394 -0.0844
  876SOL    HW1 2627   0.210   2.146   2.770 -0.3499 -0.1273  1.1740
  876SOL    HW2 2628   0.178   2.309   2.705  0.2778 -1.0811 -0.3080
  877SOL     OW 2629   2.792   2.652   0.580 -0.3412 -0.0286 -0.0307
  877SOL    HW1 2630   2.833   2.750   0.559  0.0893  1.0481  0.4595
  877SOL    HW2 2631   2.843   2.596   0.649 -0.2698  4.2947  0.0482
  878SOL     OW 2632   2.760   1.533   2.265 -0.0314 -0.4205  0.2039
  878SOL    HW1 2633   2.739   1.632   2.255  0.3630  1.4361  3.2549
  878SOL    HW2 2634   2.837   1.512   2.328  0.8525 -0.6715  0.7059
  879SOL     OW 2635   2.400   0.011   1.237  0.2091 -0.0125  0.4140
  879SOL    HW1 2636   2.424  -0.087   1.260  0.2707  0.2316  0.7107
  879SOL    HW2 2637   2.312   0.012   1.182 -0.1502  0.9942  0.7583
  880SOL     OW 2638   0.641   0.422   2.191 -0.6418  0.1741  0.1115
  880SOL    HW1 2639   0.577   0.400   2.277  0.0877  2.9007  2.4443
  880SOL    HW2 2640   0.640   0.348   2.112 -0.8507 -0.4454 -2.6912
  881SOL     OW 2641   0.917   0.055   0.403 -0.5819  0.6493  0.6298
  881SOL    HW1 2642   0.961  -0.034   0.437 -2.5323  0.4181 -0.3553
  881SOL    HW2 2643   0.871   0.046   0.307  0.2321  2.5921 -0.2895
  882SOL     OW 2644   2.751   1.708   1.648 -0.1635  1.2298 -0.5570
  882SOL    HW1 2645   2.840   1.697   1.603 -1.3963 -0.8087  2.6918
  882SOL    HW2 2646   2.752   1.702   1.753 -0.0435 -0.0820  2.8356
  883SOL     OW 2647   0.918   0.628   0.964 -0.0808  0.0044  0.2452
  883SOL    HW1 2648   0.930   0.655   1.060 -1.9847  0.2174 -0.6637
  883SOL    HW2 2649   1.008   0.590   0.925 -0.8253 -0.4021 -1.5795
  884SOL     OW 2650   1.193   1.841   1.066 -0.9543 -0.2814  0.4695
  884SOL    HW1 2651   1.159   1.831   0.967 -0.4044  0.1292 -0.6464
  884SOL    HW2 2652   1.129   1.897   1.129  1.5151  2.8359  1.7332
  885SOL     OW 2653   2.274   1.750   2.351  0.2212  0.3729  0.1505
  885SOL    HW1 2654   2.204   1.684   2.390 -1.4043 -0.0425 -2.8190
  885SOL    HW2 2655   2.245   1.845   2.340  1.6704 -3.7689 -1.8074
  886SOL     OW 2656   2.670   0.465   1.796  0.0824 -0.2564  0.5076
  886SOL    HW1 2657   2.703   0.441   1.893 -0.6016  0.9075 -1.8645
  886SOL    HW2 2658   2.729   0.544   1.756  1.3978  0.7808  1.3977
  887SOL     OW 2659   0.187   2.017   1.322  0.3104 -0.4066  0.3865
  887SOL    HW1 2660   0.137   1.961   1.247 -0.2052 -1.8983  1.1021
  887SOL    HW2 2661   0.189   2.118   1.298 -1.3112  0.7016 -1.7120
  888SOL     OW 2662   0.585   1.330   1.481 -0.0729 -0.1059  0.0559
  888SOL    HW1 2663   0.657   1.373   1.421  0.2256 -5.8572 -1.7713
  888SOL    HW2 2664   0.604   1.225   1.499 -1.0688  0.4740  1.5200
  889SOL     OW 2665   0.869   2.493   2.134 -0.0859 -0.3745 -0.5315
  889SOL    HW1 2666   0.777   2.452   2.097 -0.3351 -2.3831 -1.0598
  889SOL    HW2 2667   0.952   2.493   2.068 -1.0762 -2.6568  0.5280
  890SOL     OW 2668   2.318   2.380   0.116 -0.3737  0.1631 -0.5209
  890SOL    HW1 2669   2.357   2.461   0.058 -0.6403  1.6644  2.8515
  890SOL    HW2 2670   2.215   2.394   0.129 -1.8325  0.3670  0.1639
  891SOL     OW 2671   2.610   1.545   0.616 -0.0029  0.1766  0.7766
  891SOL    HW1 2672   2.608   1.490   0.704 -0.1776  1.5939 -0.3081
  891SOL    HW2 2673   2.525   1.542   0.561  1.9700 -0.1066 -0.1456
  892SOL     OW 2674   0.227   0.317   2.227  0.1838  0.0974  0.4604
  892SOL    HW1 2675   0.229   0.328   2.121 -0.4663 -1.6002 -1.1200
  892SOL    HW2 2676   0.305   0.351   2.285 -0.5485 -2.2497  1.7213
  893SOL     OW 2677   1.649   0.236   2.710 -0.6720 -0.3661  0.4241
  893SOL    HW1 2678   1.720   0.310   2.732  0.4804  1.2500 -1.2108
  893SOL    HW2 2679   1.558   0.284   2.691 -0.0378  1.1568 -0.3112
  894SOL     OW 2680   2.140   1.959   0.057  0.0236 -0.2255  0.4996
  894SOL    HW1 2681   2.127   1.929  -0.043 -2.4799  0.4379 -1.2176
  894SOL    HW2 2682   2.192   1.892   0.113  0.3075 -0.2397  0.5562
  895SOL     OW 2683   2.892   1.430   0.818  0.0344  0.2473  0.0106
  895SOL    HW1 2684   2.915   1.370   0.897 -0.6096  0.0881  0.5691
  895SOL    HW2 2685   2.964   1.505   0.805 -0.9457  2.0431  2.7763
  896SOL     OW 2686   1.750   1.774   1.211  0.5465 -0.1248 -0.2729
  896SOL    HW1 2687   1.840   1.793   1.166 -0.0907  0.5374 -0.1038
  896SOL    HW2 2688   1.674   1.834   1.173 -0.7328  1.9987 -0.4968
  897SOL     OW 2689   0.315   0.501   3.071 -0.2707 -0.1994  0.1129
  897SOL    HW1 2690   0.264   0.569   3.011  0.6005 -1.2142 -1.5843
  897SOL    HW2 2691   0.410   0.535   3.091 -1.9035  0.8955 -1.1372
  898SOL     OW 2692   0.545   2.856   1.132  0.0931  0.0781 -0.4682
  898SOL    HW1 2693   0.476   2.934   1.139 -0.3027 -1.4295 -0.2055
  898SOL    HW2 2694   0.613   2.865   1.207  0.4603 -0.1964 -1.4469
  899SOL     OW 2695   2.697   0.928   1.238  0.0662  0.1840  0.1520
  899SOL    HW1 2696   2.645   0.873   1.168  1.2980  1.4289 -0.3174
  899SOL    HW2 2697   2.774   0.984   1.195  1.9871 -1.1499 -2.2170
  900SOL     OW 2698   0.976   2.346   2.328 -0.2147 -0.2493  0.0905
  900SOL    HW1 2699   0.921   2.407   2.262  1.2799 -1.1723  0.7587
  900SOL    HW2 2700   0.972   2.378   2.431  2.8773  0.5593 -1.1456
  901SOL     OW 2701   1.894   2.435   1.391  0.2401  0.1124  0.1411
  901SOL    HW1 2702   1.880   2.433   1.286  0.9416  1.1545  0.8365
  901SOL    HW2 2703   1.988   2.421   1.427 -2.1145 -0.2719 -0.8800
  902SOL     OW 2704   2.556   1.643   1.460  0.4817  0.3202 -0.6120
  902SOL    HW1 2705   2.609   1.669   1.546 -1.1737 -0.4123  1.9174
  902SOL    HW2 2706   2.614   1.603   1.383 -2.3334 -0.1575  0.0593
  903SOL     OW 2707   0.271   2.336   1.963 -0.1393  0.4746 -0.0854
  903SOL    HW1 2708   0.185   2.348   2.023 -1.1704  1.7227  2.6137
  903SOL    HW2 2709   0.272   2.405   1.882 -0.3914  0.2051  1.9942
  904SOL     OW 2710   1.965   0.791   2.590  0.2429  0.1974 -0.0332
  904SOL    HW1 2711   1.887   0.727   2.616  1.1889 -1.1793 -0.8943
  904SOL    HW2 2712   1.982   0.786   2.490 -1.1009  0.4289 -2.2744
  905SOL     OW 2713   2.745   0.039   2.641  0.3570 -0.0025 -0.2935
  905SOL    HW1 2714   2.792  -0.050   2.619  0.3536  2.2449 -1.3473
  905SOL    HW2 2715   2.781   0.120   2.586 -0.8950  2.9082 -1.6475
  906SOL     OW 2716   0.102   1.751   1.973  0.1989  1.0657 -0.2397
  906SOL    HW1 2717   0.047   1.776   1.883 -0.6637  1.2014 -0.2233
  906SOL    HW2 2718   0.206   1.772   1.967 -1.5853 -0.7870 -0.5682
  907SOL     OW 2719   0.187   2.461   1.048  0.0943 -0.2640 -0.0164
  907SOL    HW1 2720   0.285   2.498   1.048  0.8356 -0.4455  0.5131
  907SOL    HW2 2721   0.145   2.459   0.953  0.1920 -0.9933 -2.6134
  908SOL     OW 2722   2.628   2.863   0.417 -0.0893 -0.2402 -0.2328
  908SOL    HW1 2723   2.598   2.865   0.318  1.2674 -0.4551 -2.2947
  908SOL    HW2 2724   2.618   2.776   0.471 -0.2034 -0.8794  1.2303
  909SOL     OW 2725   0.712   0.903   2.617 -0.1971  0.2450 -0.7424
  909SOL    HW1 2726   0.672   0.814   2.586  0.7720  0.7655 -2.3996
  909SOL    HW2 2727   0.785   0.931   2.543 -0.8438 -2.8584 -3.3847
  910SOL     OW 2728   1.761   1.764   2.024 -0.3473 -0.1380  0.1472
  910SOL    HW1 2729   1.806   1.812   1.943 -0.1479  2.5632  1.2190
  910SOL    HW2 2730   1.690   1.827   2.069 -1.2559 -1.1031 -1.3809
  911SOL     OW 2731   1.759   3.022   1.565 -0.9477  0.1552  0.9282
  911SOL    HW1 2732   1.842   2.990   1.506 -0.1934 -3.0269 -0.3418
  911SOL    HW2 2733   1.749   2.969   1.657  0.6488 -1.2737  1.0180
  912SOL     OW 2734   2.800   0.976   0.788  0.0746 -0.0335 -0.4188
  912SOL    HW1 2735   2.840   0.972   0.883 -0.4482 -0.1999 -1.2175
  912SOL    HW2 2736   2.814   1.067   0.738 -0.8992  0.4414  0.3240
  913SOL     OW 2737   2.548   1.277   1.547 -0.3111  0.4422  0.1553
  913SOL    HW1 2738   2.574   1.194   1.605  1.2993 -0.1910  2.4599
  913SOL    HW2 2739   2.603   1.278   1.459 -2.4031 -0.7533  1.2065
  914SOL     OW 2740   2.801   0.536   1.256  0.1088  0.2260  0.4270
  914SOL    HW1 2741   2.785   0.429   1.264  0.9458 -2.7144  0.4535
  914SOL    HW2 2742   2.739   0.595   1.319  0.3125  3.0815 -0.3054
  915SOL     OW 2743   1.210   0.859   1.015 -0.3777  0.2170  0.6308
  915SOL    HW1 2744   1.253   0.952   1.027 -1.2692 -0.6459  1.3610
  915SOL    HW2 2745   1.132   0.838   1.083 -1.3206  0.3211  2.6320
  916SOL     OW 2746   0.550   0.046   0.601 -0.0448  0.5134  0.1093
  916SOL    HW1 2747   0.581   0.103   0.685  0.1337  1.9116  1.3355
  916SOL    HW2 2748   0.520   0.100   0.516  0.1438  1.2116 -0.6890
  917SOL     OW 2749   2.772   2.591   1.911  0.1104  0.3603 -0.3436
  917SOL    HW1 2750   2.699   2.660   1.896 -0.0008  0.5145 -0.3179
  917SOL    HW2 2751   2.865   2.645   1.909 -1.5447  0.7010 -2.4239
  918SOL     OW 2752   0.983   2.213   3.088  0.2326 -0.1071  0.3927
  918SOL    HW1 2753   0.956   2.227   3.190  0.4662 -0.6873  1.5898
  918SOL    HW2 2754   1.050   2.135   3.077  0.5411 -0.3201  2.3536
  919SOL     OW 2755   0.919   1.636   2.823 -0.3090 -0.4429 -0.6743
  919SOL    HW1 2756   0.970   1.700   2.759 -2.3587 -3.3796 -3.5380
  919SOL    HW2 2757   0.881   1.562   2.763  0.8140 -1.5680  0.8543
  920SOL     OW 2758   1.253   2.050   2.514 -0.5996  0.0358  0.0831
  920SOL    HW1 2759   1.213   2.047   2.412 -1.2221  0.3099 -2.6768
  920SOL    HW2 2760   1.294   1.956   2.537 -1.0069 -3.0831 -1.6695
  921SOL     OW 2761   1.037   0.143   2.590  0.1785 -0.2027  0.2019
  921SOL    HW1 2762   1.069   0.085   2.512  1.7932  0.8414 -0.4048
  921SOL    HW2 2763   0.967   0.218   2.560 -4.1392  1.1163  0.4281
  922SOL     OW 2764   2.100   2.409   2.767 -0.4184 -0.1555  0.1244
  922SOL    HW1 2765   2.071   2.309   2.769 -0.8309 -0.7091  0.8749
  922SOL    HW2 2766   2.062   2.452   2.675 -1.5829  0.5038 -2.0947
  923SOL     OW 2767   1.150   2.701   0.235 -0.5301 -0.4954 -0.4654
  923SOL    HW1 2768   1.245   2.747   0.256  2.1041  0.8815 -0.7544
  923SOL    HW2 2769   1.163   2.605   0.192 -0.6539  1.2392 -2.3284
  924SOL     OW 2770   2.866   1.566   0.103 -0.3269 -0.0197 -0.1311
  924SOL    HW1 2771   2.796   1.561   0.028  0.7628 -2.7507 -0.1436
  924SOL    HW2 2772   2.962   1.594   0.071 -0.7227  2.4920  2.4952
  925SOL     OW 2773   0.070   2.858   1.650  0.3830  0.1313 -0.4290
  925SOL    HW1 2774  -0.020   2.895   1.680  0.0824 -0.3983 -0.7239
  925SOL    HW2 2775   0.102   2.880   1.555  0.5804  1.3673  1.0190
  926SOL     OW 2776   1.442   2.870   1.316 -0.0465 -0.0208 -0.1421
  926SOL    HW1 2777   1.438   2.867   1.211  2.5342  2.4381 -2.0797
  926SOL    HW2 2778   1.454   2.970   1.345  0.0550  0.1978 -1.3546
  927SOL     OW 2779   0.282   2.534   1.784 -0.9002 -0.0187 -0.0458
  927SOL    HW1 2780   0.221   2.491   1.710 -1.1244 -0.4404  0.1324
  927SOL    HW2 2781   0.342   2.611   1.751  0.7829  0.1450  2.0095
  928SOL     OW 2782   1.604   1.985   2.110  0.0735  0.5265 -0.4468
  928SOL    HW1 2783   1.644   2.080   2.083 -2.1401  2.3168 -0.7511
  928SOL    HW2 2784   1.507   1.984   2.077  0.6833  2.6602  0.6572
  929SOL     OW 2785   2.377   2.469   2.828 -0.6560 -0.1802  0.2320
  929SOL    HW1 2786   2.274   2.457   2.817  2.7379  0.2246  0.3456
  929SOL    HW2 2787   2.425   2.457   2.733 -1.0080 -0.4117 -1.0648
  930SOL     OW 2788   2.210   2.008   1.091 -0.5933  0.0104 -0.3129
  930SOL    HW1 2789   2.182   1.998   1.188  0.9084  0.1103  1.2899
  930SOL    HW2 2790   2.293   2.068   1.084  0.8105 -0.8566 -0.4862
  931SOL     OW 2791   0.575   1.728   2.624  0.3059  0.2194  0.5191
  931SOL    HW1 2792   0.641   1.721   2.702  2.7720  2.0200  2.0781
  931SOL    HW2 2793   0.550   1.642   2.574 -2.0894  1.1557 -2.5999
  932SOL     OW 2794   0.484   0.113   2.919  0.7762  0.1822 -0.2311
  932SOL    HW1 2795   0.569   0.133   2.865  0.9071  1.4440 -0.4230
  932SOL    HW2 2796   0.488   0.024   2.974 -2.3698 -1.6406 -0.8243
  933SOL     OW 2797   1.062   0.788   3.017  0.3433 -0.0250  0.1838
  933SOL    HW1 2798   1.137   0.832   3.076 -0.2808 -1.4563 -0.6449
  933SOL    HW2 2799   0.998   0.857   2.972  1.8539 -0.5264  0.6458
  934SOL     OW 2800   0.795   2.956   2.748  0.2122 -0.3521  0.4612
  934SOL    HW1 2801   0.807   2.881   2.682  1.0488 -2.9018  1.2162
  934SOL    HW2 2802   0.840   2.935   2.838 -0.2814 -1.0382 -1.7101
  935SOL     OW 2803   3.080   0.515   0.886 -0.1023  0.6014  0.5187
  935SOL    HW1 2804   3.087   0.468   0.792  0.7118  0.1676 -3.5833
  935SOL    HW2 2805   3.013   0.589   0.891  0.8564  0.8978  0.5806
  936SOL     OW 2806   1.101   2.942   0.133  0.6012  0.1740 -0.4243
  936SOL    HW1 2807   1.180   2.969   0.068 -0.5722  1.5812  1.0256
  936SOL    HW2 2808   1.108   2.846   0.169 -2.1374  0.3852 -1.1362
  937SOL     OW 2809   1.942   2.614   2.077 -0.0168  0.2301  0.2987
  937SOL    HW1 2810   1.857   2.659   2.113 -0.1946  1.2030  1.3415
  937SOL    HW2 2811   1.969   2.643   1.976  0.7934 -1.4585 -1.4465
  938SOL     OW 2812   2.782   2.176   1.486 -0.0540  0.2120  0.6855
  938SOL    HW1 2813   2.736   2.239   1.552  1.2577 -0.4900  1.8900
  938SOL    HW2 2814   2.856   2.120   1.531 -2.3573 -0.3526 -0.2016
  939SOL     OW 2815   2.747   1.086   2.510 -0.5034 -0.5689  0.2318
  939SOL    HW1 2816   2.799   1.005   2.476  0.6633 -1.2924  2.5593
  939SOL    HW2 2817   2.767   1.104   2.613 -3.3370 -1.1164 -0.1623
  940SOL     OW 2818   1.072   0.464   2.619 -0.1908 -0.3523 -0.0081
  940SOL    HW1 2819   1.151   0.396   2.641  2.0931 -0.2998  1.9719
  940SOL    HW2 2820   0.973   0.415   2.619 -0.2819 -1.3070 -1.4044
  941SOL     OW 2821   0.059   2.841   2.207  0.4492 -0.1358  0.1757
  941SOL    HW1 2822   0.027   2.745   2.195  1.0380  2.4175  1.2123
  941SOL    HW2 2823   0.098   2.863   2.302  1.2456 -1.0268 -0.8050
  942SOL     OW 2824   0.063   0.084   2.558 -0.1162 -0.3504  0.1238
  942SOL    HW1 2825   0.134   0.106   2.628  1.1730 -0.4426  1.7483
  942SOL    HW2 2826   0.027   0.169   2.512  1.3507  0.5192  3.0895
  943SOL     OW 2827   2.059   1.597   2.426 -0.1990 -0.0226  0.4251
  943SOL    HW1 2828   2.055   1.527   2.345 -0.1170 -2.7010 -1.6184
  943SOL    HW2 2829   2.084   1.562   2.519 -0.0120  0.9613  2.0855
  944SOL     OW 2830   2.155   2.403   1.475  0.0053 -0.4959 -0.3369
  944SOL    HW1 2831   2.240   2.455   1.507 -1.5768  1.0563  0.1075
  944SOL    HW2 2832   2.134   2.314   1.537 -0.3093 -4.5923  1.4703
  945SOL     OW 2833   0.616   1.446   0.380  0.0808  0.2155  0.9005
  945SOL    HW1 2834   0.642   1.494   0.291 -0.2886  1.8171  1.0378
  945SOL    HW2 2835   0.651   1.347   0.382  0.2466 -0.6337 -0.1954
  946SOL     OW 2836   0.370   1.012   2.565 -0.5223 -0.2693  0.7095
  946SOL    HW1 2837   0.298   0.965   2.511  1.0179  1.9520  0.0146
  946SOL    HW2 2838   0.358   1.115   2.584  1.1294  0.5678  0.2819
  947SOL     OW 2839   1.468   0.450   0.109  0.1673 -0.5470 -0.2043
  947SOL    HW1 2840   1.400   0.517   0.154 -0.8969  0.9806  3.4365
  947SOL    HW2 2841   1.422   0.361   0.083  0.7398  1.0339  0.4368
  948SOL     OW 2842   1.949   0.006   2.186 -0.0094 -0.0463 -0.2112
  948SOL    HW1 2843   1.914  -0.002   2.091  0.7083  0.2575 -1.2543
  948SOL    HW2 2844   1.919  -0.077   2.246  0.6884  0.3313  1.9174
  949SOL     OW 2845   0.623   2.510   0.477 -0.2981 -0.5718 -0.2575
  949SOL    HW1 2846   0.613   2.602   0.428 -0.1678  0.6798 -0.4493
  949SOL    HW2 2847   0.648   2.521   0.579 -2.2779  2.3677 -0.1869
  950SOL     OW 2848   0.308   2.111   3.025  0.1710  0.1801 -0.5118
  950SOL    HW1 2849   0.225   2.171   3.031  0.6844  0.4534 -1.7620
  950SOL    HW2 2850   0.290   2.008   3.027  0.1718 -0.0650  2.4225
  951SOL     OW 2851   1.177   2.761   2.769 -0.6145  0.4370 -0.0936
  951SOL    HW1 2852   1.162   2.824   2.683  0.7935 -0.1918 -2.8088
  951SOL    HW2 2853   1.255   2.792   2.831  0.8590 -1.4800  0.8555
  952SOL     OW 2854   0.076   1.655   0.484 -0.0215  0.3287  0.0455
  952SOL    HW1 2855   0.172   1.686   0.502 -4.0694 -2.6446 -0.8395
  952SOL    HW2 2856   0.027   1.621   0.568  2.9263  0.9391  1.2142
  953SOL     OW 2857   2.571   1.732   0.166  0.1499  0.2848  0.3497
  953SOL    HW1 2858   2.542   1.635   0.207  2.2079 -0.7425  0.8743
  953SOL    HW2 2859   2.587   1.733   0.065  2.3729 -0.4844  0.7339
  954SOL     OW 2860   2.177   0.547   1.019  0.4089  0.1411  0.1709
  954SOL    HW1 2861   2.121   0.541   0.927 -0.7847 -1.6497 -0.1428
  954SOL    HW2 2862   2.275   0.524   1.011  0.4209  1.7353 -1.0945
  955SOL     OW 2863   0.287   2.667   1.301 -0.0634 -0.5546  0.4333
  955SOL    HW1 2864   0.182   2.642   1.304 -0.1626  1.0172  0.3159
  955SOL    HW2 2865   0.319   2.686   1.202 -2.2353 -0.1603 -1.0503
  956SOL     OW 2866   2.789   2.464   2.511  0.6217  0.3371  0.6141
  956SOL    HW1 2867   2.785   2.364   2.501 -1.8853  0.4866  1.1311
  956SOL    HW2 2868   2.811   2.517   2.423  0.5611 -1.9796  1.9056
  957SOL     OW 2869   1.542   2.070   2.647  0.3525  0.0740  0.1537
  957SOL    HW1 2870   1.493   1.994   2.601  0.8676  3.5534  0.3321
  957SOL    HW2 2871   1.615   2.122   2.588  0.9496  1.4340  0.5348
  958SOL     OW 2872   2.672   2.338   3.008 -0.1524 -0.2100 -0.0351
  958SOL    HW1 2873   2.584   2.368   2.960  0.9815  1.0963  0.4820
  958SOL    HW2 2874   2.647   2.259   3.072 -0.7071 -2.0316  2.3473
  959SOL     OW 2875   0.241   2.815  -0.000  0.5696  0.1233  0.0783
  959SOL    HW1 2876   0.144   2.805   0.038  0.6447  2.7173 -1.1002
  959SOL    HW2 2877   0.300   2.731   0.021 -1.2372  0.0755 -0.1668
  960SOL     OW 2878   2.022   0.514   1.934  0.1500  0.1091  0.2326
  960SOL    HW1 2879   1.942   0.579   1.912 -0.8665  3.4718  1.5836
  960SOL    HW2 2880   2.030   0.505   2.035 -0.9785 -1.6371 -0.5144
  961SOL     OW 2881   2.597   1.855   1.048  0.3645  0.5459 -0.4086
  961SOL    HW1 2882   2.557   1.870   0.956  0.7688 -0.2637  0.7010
  961SOL    HW2 2883   2.623   1.942   1.092  0.9001 -2.8948  1.6518
  962SOL     OW 2884   1.248   0.959   0.029 -0.3172 -0.2663 -0.0921
  962SOL    HW1 2885   1.260   1.015  -0.061 -0.1309  0.3174  2.2130
  962SOL    HW2 2886   1.280   1.004   0.119  0.6100  1.8398 -0.0702
  963SOL     OW 2887   2.297   2.641   1.881  0.4595  0.1045  0.2449
  963SOL    HW1 2888   2.317   2.558   1.939 -0.7089  2.1806  0.2875
  963SOL    HW2 2889   2.275   2.724   1.934 -0.1690 -1.8338  0.6893
  964SOL     OW 2890   2.429   0.378   1.680  0.1094  0.1438  0.4307
  964SOL    HW1 2891   2.510   0.431   1.720  2.5357 -2.1445 -1.1305
  964SOL    HW2 2892   2.428   0.396   1.579  0.6428  2.3158 -1.1055
  965SOL     OW 2893   2.638   3.004   0.120  0.1038  0.3420 -0.3542
  965SOL    HW1 2894   2.721   2.968   0.074  3.2195 -4.6016 -0.2026
  965SOL    HW2 2895   2.551   3.027   0.064 -1.3443  2.5952 -1.6187
  966SOL     OW 2896   2.560   2.585   2.170 -0.1411  0.1406 -0.6954
  966SOL    HW1 2897   2.500   2.569   2.089 -1.8037  0.0650  1.3974
  966SOL    HW2 2898   2.526   2.662   2.232  0.4406 -0.6436  1.1816
  967SOL     OW 2899   2.750   2.831   2.440  0.3959  0.5159  0.3997
  967SOL    HW1 2900   2.782   2.773   2.360  0.0559 -0.0248 -2.4620
  967SOL    HW2 2901   2.825   2.897   2.478  0.5042  0.5580  0.7374
  968SOL     OW 2902   2.041   1.028   2.682  0.3009 -0.5128  0.7305
  968SOL    HW1 2903   1.987   1.110   2.645 -2.4851  1.8273 -2.1770
  968SOL    HW2 2904   1.995   0.937   2.647 -1.3666 -2.0619  0.8838
  969SOL     OW 2905   2.740   2.337   1.140  0.0648  0.2379  0.5907
  969SOL    HW1 2906   2.712   2.321   1.039  0.0386 -0.5285 -0.1630
  969SOL    HW2 2907   2.806   2.265   1.175  0.8045  0.3922 -0.2697
  970SOL     OW 2908   1.120   2.224   1.743  0.0922  0.2895  0.2411
  970SOL    HW1 2909   1.016   2.217   1.730 -1.8053 -1.4633  0.4177
  970SOL    HW2 2910   1.148   2.224   1.845  3.2402  2.9068  1.1485
  971SOL     OW 2911   2.830   2.079   1.946  0.2444 -0.6392 -0.1833
  971SOL    HW1 2912   2.812   2.182   1.962 -1.8291  1.2575  0.7693
  971SOL    HW2 2913   2.894   2.058   1.867  3.6686 -1.5187  0.1000
  972SOL     OW 2914   2.027   2.397   0.249  0.7347  0.0840 -0.1106
  972SOL    HW1 2915   1.993   2.319   0.195  1.6341  2.1461  0.8291
  972SOL    HW2 2916   2.022   2.383   0.350 -2.5628 -0.2320  0.3485
  973SOL     OW 2917   1.250   1.078   1.970  0.5412 -0.4995 -0.3878
  973SOL    HW1 2918   1.210   1.047   1.877 -2.5892  2.4216  0.4061
  973SOL    HW2 2919   1.242   1.186   1.976  0.9087  2.8314 -0.6300
  974SOL     OW 2920   1.668   0.538   1.894  0.0759  0.2910 -0.2333
  974SOL    HW1 2921   1.745   0.602   1.876  0.7056 -1.5946 -1.0758
  974SOL    HW2 2922   1.583   0.583   1.930 -1.1054  1.8482  3.5540
  975SOL     OW 2923   2.348   3.049   3.076  0.5149 -0.1032 -0.3308
  975SOL    HW1 2924   2.309   2.960   3.104  1.0434  2.7639 -1.1025
  975SOL    HW2 2925   2.394   3.046   2.981  0.4117 -1.5460  2.3855
  976SOL     OW 2926   1.914   2.873   2.340 -0.3458  0.0621 -0.6728
  976SOL    HW1 2927   1.820   2.835   2.305  1.2637  0.2809  0.0773
  976SOL    HW2 2928   1.928   2.857   2.440  0.6632  0.9934  0.3749
  977SOL     OW 2929   0.501   0.691   1.028 -0.1156 -0.2613 -0.3014
  977SOL    HW1 2930   0.402   0.675   1.003 -1.8728 -2.2568 -1.0489
  977SOL    HW2 2931   0.562   0.620   0.991 -1.9449  2.0477 -0.9196
   3.10000   3.10000   3.10000
