1000 SPC/Fw water molecules t=   1.11000 step= 1110
 2931
    1SOL     OW    1   2.559   0.340   2.633  0.4036 -0.2207 -0.3899
    1SOL    HW1    2   2.533   0.240   2.616 -0.3288  0.3173 -3.6567
    1SOL    HW2    3   2.635   0.351   2.700 -2.1961 -1.3848 -0.0236
    2SOL     OW    4   2.738   3.018   1.391  0.7426  0.1176 -0.4422
    2SOL    HW1    5   2.825   3.025   1.339  0.4782 -1.4821  2.0351
    2SOL    HW2    6   2.710   3.099   1.449  0.1658 -1.9222 -0.8259
    3SOL     OW    7   2.607   2.611   0.437  0.1350 -0.3524 -0.2059
    3SOL    HW1    8   2.590   2.510   0.424  0.7855 -1.4461  0.3015
    3SOL    HW2    9   2.694   2.632   0.488 -1.8939  1.9817  2.3855
    4SOL     OW   10   1.227   1.553   2.336 -0.1546 -0.4145  0.5887
    4SOL    HW1   11   1.163   1.584   2.259  0.5084 -2.5045  3.2710
    4SOL    HW2   12   1.190   1.474   2.385  1.6005  0.5948 -0.3535
    5SOL     OW   13   1.150   1.544   3.022 -0.2731  0.5657 -0.0215
    5SOL    HW1   14   1.217   1.622   3.032 -0.0876 -2.0984  0.6815
    5SOL    HW2   15   1.052   1.569   3.055 -2.4271  2.4523 -2.7772
    6SOL     OW   16   0.173   1.740   2.984  0.9605 -0.1066  0.0512
    6SOL    HW1   17   0.110   1.784   3.050 -1.2043 -1.3441 -0.4135
    6SOL    HW2   18   0.261   1.721   3.033 -0.7047  2.8526 -2.1120
    7SOL     OW   19   2.571   0.905   1.061 -0.3637  0.0495 -0.2372
    7SOL    HW1   20   2.484   0.886   1.111  0.1366 -1.7416  0.9018
    7SOL    HW2   21   2.581   0.846   0.977 -0.6998 -0.1862 -0.7633
    8SOL     OW   22   0.410   0.607   1.496  0.7539 -0.1139 -0.3464
    8SOL    HW1   23   0.505   0.580   1.525  1.3418  0.8099 -3.5947
    8SOL    HW2   24   0.381   0.577   1.398 -1.1482 -0.0268 -2.5010
    9SOL     OW   25   1.202   0.929   2.425  0.5595  0.0138 -0.0375
    9SOL    HW1   26   1.249   0.950   2.337 -2.5792 -0.4950  0.7379
    9SOL    HW2   27   1.155   0.838   2.436 -1.0419  0.6267  2.8450
   10SOL     OW   28   0.665   1.373   1.307 -0.5491 -0.3003 -0.1188
   10SOL    HW1   29   0.569   1.395   1.274 -0.6951 -0.2899  1.3004
   10SOL    HW2   30   0.732   1.460   1.299  3.1621  1.6876  1.1484
   11SOL     OW   31   2.311   2.814   0.849  0.3608  0.4892 -0.3811
   11SOL    HW1   32   2.278   2.836   0.950  0.3900  0.6012  0.7201
   11SOL    HW2   33   2.415   2.799   0.845 -2.7247 -0.4638 -0.9064
   12SOL     OW   34   1.512   0.861   0.389 -0.3197 -0.3673  1.0371
   12SOL    HW1   35   1.444   0.919   0.337 -1.4290 -1.1162  2.3060
   12SOL    HW2   36   1.521   0.770   0.344 -1.6749 -0.3886  1.4378
   13SOL     OW   37   2.472   0.712   1.771  0.0485  0.0051  0.0258
   13SOL    HW1   38   2.392   0.679   1.828 -1.7893 -2.0219 -0.3594
   13SOL    HW2   39   2.482   0.669   1.672 -0.9229  1.5944 -2.3356
   14SOL     OW   40   1.846   0.098   0.682 -0.1696  0.1275  0.1945
   14SOL    HW1   41   1.754   0.108   0.633 -1.1162 -1.0961  1.3062
   14SOL    HW2   42   1.848   0.013   0.740  1.2736 -1.6301 -2.4010
   15SOL     OW   43   1.931   2.090   2.734 -1.2278  0.0688  0.1323
   15SOL    HW1   44   1.882   2.179   2.717 -1.2468 -0.5628  0.3980
   15SOL    HW2   45   1.885   2.012   2.680  1.2330  0.6016 -2.1229
   16SOL     OW   46   1.625   1.695   2.991 -0.1538  0.1396  0.1417
   16SOL    HW1   47   1.622   1.600   3.040  0.2278  0.7611  1.7388
   16SOL    HW2   48   1.714   1.748   3.013 -0.8687 -2.4209 -0.5240
   17SOL     OW   49   0.077   0.452   0.157 -0.4683 -0.1747  0.0274
   17SOL    HW1   50   0.165   0.484   0.101  2.1500  1.6490 -1.7411
   17SOL    HW2   51  -0.011   0.470   0.103 -2.0190  0.8544 -0.6679
   18SOL     OW   52   0.926   2.947   2.140 -0.5489  0.4818  0.0202
   18SOL    HW1   53   0.830   2.909   2.123  1.6377 -0.0111 -0.5813
   18SOL    HW2   54   0.993   2.907   2.066  1.5533 -1.8042 -2.0961
   19SOL     OW   55   0.536   0.815   1.896 -0.5158  0.2188 -0.6884
   19SOL    HW1   56   0.572   0.775   1.988 -0.5196 -0.7878  1.2413
   19SOL    HW2   57   0.586   0.899   1.855 -1.9831 -0.5533  2.3873
   20SOL     OW   58   0.183   2.793   0.870  0.2032  0.1382 -0.2743
   20SOL    HW1   59   0.099   2.855   0.844 -2.6200  0.3529  0.3892
   20SOL    HW2   60   0.208   2.731   0.788 -0.0868 -0.2980 -0.5199
   21SOL     OW   61   2.690   0.262   2.006  0.1061 -0.2776 -0.6005
   21SOL    HW1   62   2.666   0.199   1.929  0.1410  1.1031  1.9003
   21SOL    HW2   63   2.761   0.215   2.068 -0.4567 -0.5311  0.4934
   22SOL     OW   64   2.329   0.271   0.153  0.0435 -0.3169 -0.1334
   22SOL    HW1   65   2.329   0.167   0.127 -1.2422 -0.6721 -0.7983
   22SOL    HW2   66   2.264   0.327   0.093 -1.7377  0.6961 -0.2640
   23SOL     OW   67   2.788   0.591   0.623  0.1626  0.2206  0.6732
   23SOL    HW1   68   2.779   0.485   0.619 -2.0649 -2.7959 -2.0226
   23SOL    HW2   69   2.750   0.636   0.535 -2.0127  0.9335  1.6969
   24SOL     OW   70   0.223   1.943   0.424  0.1844 -0.2638  0.4349
   24SOL    HW1   71   0.174   2.009   0.352  0.3089  1.1545 -0.4774
   24SOL    HW2   72   0.325   1.920   0.403  4.1088 -1.4992 -0.2055
   25SOL     OW   73   2.248   0.649   0.247  0.2692  0.8836  0.0791
   25SOL    HW1   74   2.243   0.675   0.144 -0.4876  1.2610 -0.7191
   25SOL    HW2   75   2.298   0.563   0.271 -0.3418  0.0650 -2.2194
   26SOL     OW   76   2.477   2.163   2.063 -0.4863  0.2989 -0.3638
   26SOL    HW1   77   2.565   2.219   2.087  0.4542 -1.0358 -0.1643
   26SOL    HW2   78   2.499   2.079   2.002  2.8274 -0.4160  1.3729
   27SOL     OW   79   0.585   2.901   0.203 -0.0097 -0.0894  0.8448
   27SOL    HW1   80   0.689   2.909   0.195 -0.0217 -0.4627  0.7459
   27SOL    HW2   81   0.533   2.915   0.114  1.4433 -3.2211 -2.7818
   28SOL     OW   82   1.587   0.178   0.294 -0.1373 -0.0183  0.4080
   28SOL    HW1   83   1.657   0.145   0.223 -0.5297  0.4438 -2.2854
   28SOL    HW2   84   1.590   0.280   0.313  1.2772 -0.0522  0.8201
   29SOL     OW   85   1.977   0.579   0.330 -0.3976 -0.3649 -0.3760
   29SOL    HW1   86   1.941   0.674   0.330 -2.1560  1.4619  2.4011
   29SOL    HW2   87   2.075   0.579   0.295  1.7906 -1.9133 -1.4078
   30SOL     OW   88   0.154   2.044   0.929  0.3938  0.9126  0.0658
   30SOL    HW1   89   0.139   1.997   0.837 -0.6575  1.5926 -1.0746
   30SOL    HW2   90   0.079   2.119   0.938  0.3363  1.3508 -1.6464
   31SOL     OW   91   2.149   0.003   2.377 -0.3556  0.5897  0.3709
   31SOL    HW1   92   2.091  -0.002   2.460 -2.7237  1.7234 -1.2844
   31SOL    HW2   93   2.094   0.014   2.289  2.4629 -4.8059 -0.3764
   32SOL     OW   94   2.987   0.031   0.226  0.8332 -0.3976 -0.8372
   32SOL    HW1   95   2.967  -0.075   0.236 -1.6382 -2.4616 -0.3841
   32SOL    HW2   96   3.085   0.064   0.229 -1.1366  1.7599  1.8197
   33SOL     OW   97   0.898   0.332   0.591 -0.2987  0.2057  0.3555
   33SOL    HW1   98   0.861   0.244   0.549 -2.4955  2.7454 -1.4835
   33SOL    HW2   99   0.997   0.344   0.571 -0.7270  0.7454 -0.6618
   34SOL     OW  100   0.340   2.723   1.082  0.3615 -0.1549 -0.2924
   34SOL    HW1  101   0.285   2.718   0.992 -1.9613 -2.3384  3.2481
   34SOL    HW2  102   0.433   2.769   1.077 -0.3967  0.6129 -0.4294
   35SOL     OW  103   0.023   0.108   1.899  0.6725 -0.3586 -0.1494
   35SOL    HW1  104   0.069   0.019   1.923  1.8709  1.5797  1.3838
   35SOL    HW2  105  -0.011   0.113   1.802  3.7745  0.9066 -1.4826
   36SOL     OW  106   1.925   1.260   1.631  0.4506 -1.0144 -0.7019
   36SOL    HW1  107   1.995   1.183   1.611 -0.7009  0.8408  0.6234
   36SOL    HW2  108   1.942   1.337   1.564 -0.3897 -1.4890  0.0852
   37SOL     OW  109   1.173   0.227   0.972 -0.1543  0.4515 -0.1908
   37SOL    HW1  110   1.208   0.316   1.013 -0.8000  2.9751  1.2772
   37SOL    HW2  111   1.248   0.164   0.945  1.8374  0.7098 -2.0258
   38SOL     OW  112   1.141   2.811   2.408  0.1354  0.1967 -0.9250
   38SOL    HW1  113   1.065   2.735   2.401 -1.5700 -3.1829 -2.5593
   38SOL    HW2  114   1.103   2.904   2.391  0.6631 -0.2275  1.8839
   39SOL     OW  115   2.309   1.452   3.057  0.1601 -0.2973  0.2250
   39SOL    HW1  116   2.363   1.361   3.049  0.2096  1.5490 -0.7962
   39SOL    HW2  117   2.298   1.484   3.158  0.4413  0.2643  0.3686
   40SOL     OW  118   1.988   2.437   2.560  0.2878  0.6010  0.8268
   40SOL    HW1  119   1.988   2.540   2.537  1.8738  1.8679 -1.7832
   40SOL    HW2  120   1.932   2.384   2.489 -1.4215  1.2099  3.5978
   41SOL     OW  121   3.026   0.673   2.808  0.1379 -0.3502  0.1424
   41SOL    HW1  122   2.938   0.733   2.802 -0.6043  1.2141  0.0787
   41SOL    HW2  123   3.019   0.582   2.758 -0.9377 -0.6718 -4.8219
   42SOL     OW  124   1.773   1.800   0.463 -0.0900  0.0096  0.0423
   42SOL    HW1  125   1.706   1.722   0.479 -1.0290  2.7806 -0.2313
   42SOL    HW2  126   1.786   1.824   0.366 -1.8743  0.9003  1.0614
   43SOL     OW  127   0.422   1.693   1.141 -0.3950  0.1109  0.0908
   43SOL    HW1  128   0.415   1.592   1.174 -0.1544 -1.5033  2.6121
   43SOL    HW2  129   0.326   1.725   1.125  0.7077 -0.8663  4.9425
   44SOL     OW  130   1.720   2.380   3.008 -0.4265 -0.5906 -0.1812
   44SOL    HW1  131   1.625   2.425   3.009  0.6546 -0.3315  0.6948
   44SOL    HW2  132   1.757   2.362   2.908 -1.7398 -0.6041 -0.1641
   45SOL     OW  133   0.354   1.905   2.628 -0.1769  0.0507 -0.0712
   45SOL    HW1  134   0.311   1.889   2.537 -0.1158  1.0461 -0.5678
   45SOL    HW2  135   0.399   1.818   2.663 -0.7863 -0.0763 -2.4395
   46SOL     OW  136   1.272   0.621   0.143  0.5223 -0.1104  0.0308
   46SOL    HW1  137   1.277   0.724   0.117  1.5739  0.8112  1.0887
   46SOL    HW2  138   1.175   0.590   0.162  2.6537  1.0437 -1.0438
   47SOL     OW  139   0.229   2.534   1.550  0.1567 -0.6194  0.4070
   47SOL    HW1  140   0.177   2.449   1.568 -0.1855  2.2121  1.2652
   47SOL    HW2  141   0.224   2.555   1.444  1.5360 -0.4730  1.1764
   48SOL     OW  142   2.630   0.627   0.135  0.2515  0.2661  0.1774
   48SOL    HW1  143   2.619   0.594   0.236  2.8400 -0.6011  2.5649
   48SOL    HW2  144   2.718   0.684   0.124 -2.1859  0.5973 -3.3027
   49SOL     OW  145   0.297   0.746   1.728  0.0836 -0.0833 -0.9260
   49SOL    HW1  146   0.382   0.785   1.779 -1.9635  0.4327  2.5850
   49SOL    HW2  147   0.331   0.699   1.642  1.4930 -0.8606  0.3408
   50SOL     OW  148   1.676   1.134   0.348  0.3934 -0.1227  0.0001
   50SOL    HW1  149   1.667   1.048   0.285 -2.0825 -1.0976 -0.5223
   50SOL    HW2  150   1.640   1.110   0.447 -2.6355 -0.1098 -0.3391
   51SOL     OW  151   2.946   1.749   0.256  0.8140  0.3137  0.3086
   51SOL    HW1  152   2.882   1.674   0.227  1.9968 -2.4320  1.5758
   51SOL    HW2  153   3.019   1.708   0.324  1.6660  0.4547  0.1701
   52SOL     OW  154   0.802   2.105   0.585 -0.2345  0.6839  0.3298
   52SOL    HW1  155   0.702   2.119   0.585  1.9495  1.9671  0.0150
   52SOL    HW2  156   0.830   2.015   0.639  0.2107 -1.3455 -0.2216
   53SOL     OW  157   0.243   0.431   1.593  0.0424 -0.5752  0.3143
   53SOL    HW1  158   0.317   0.502   1.561  0.6137 -0.9321 -0.3268
   53SOL    HW2  159   0.145   0.465   1.600  1.0330 -2.0675  0.6152
   54SOL     OW  160   1.813   0.504   3.055  0.5450 -0.4489 -0.0570
   54SOL    HW1  161   1.883   0.461   3.122  2.3512  0.0891  0.0561
   54SOL    HW2  162   1.712   0.487   3.082 -4.1253  0.6702  0.9234
   55SOL     OW  163   0.766   2.880   0.697  0.3580 -0.3198 -0.2806
   55SOL    HW1  164   0.703   2.966   0.700 -0.5149  0.8573  2.2366
   55SOL    HW2  165   0.857   2.884   0.642  1.6144  3.1460 -0.6242
   56SOL     OW  166   0.622   1.571   0.009  0.0025  0.6747  0.0558
   56SOL    HW1  167   0.529   1.598   0.055 -1.0313 -0.5143  1.4485
   56SOL    HW2  168   0.601   1.495  -0.059  1.4368  0.3422  2.2376
   57SOL     OW  169   1.743   2.523   2.337 -0.3413 -0.1148 -0.0681
   57SOL    HW1  170   1.781   2.421   2.338 -0.7942 -1.3152  0.7651
   57SOL    HW2  171   1.691   2.535   2.422 -0.9397 -1.3761 -3.1918
   58SOL     OW  172   0.704   0.287   1.075 -0.5759  0.3981 -0.2542
   58SOL    HW1  173   0.607   0.296   1.102  0.5570  0.5379  1.6040
   58SOL    HW2  174   0.740   0.192   1.080 -0.6362  3.1605  3.2548
   59SOL     OW  175   0.394   2.300   2.725  0.5017 -0.2583  0.0160
   59SOL    HW1  176   0.428   2.202   2.706 -1.8817  0.1090  0.2332
   59SOL    HW2  177   0.454   2.348   2.788 -0.1122  1.3181 -1.3452
   60SOL     OW  178   2.326   2.096   2.280 -0.1954  0.1802  0.3382
   60SOL    HW1  179   2.405   2.147   2.225  1.4187  0.3490  2.4752
   60SOL    HW2  180   2.310   2.142   2.372  0.3841  1.9597 -0.1737
   61SOL     OW  181   1.287   0.605   0.445 -0.9806 -0.8299  0.1370
   61SOL    HW1  182   1.198   0.653   0.466 -1.3940 -2.0161  0.6275
   61SOL    HW2  183   1.307   0.605   0.340  1.7198  0.4542 -2.8477
   62SOL     OW  184   2.715   1.782   2.926  0.2309 -0.7772 -0.1727
   62SOL    HW1  185   2.668   1.720   2.857 -1.9715  1.8186 -2.0576
   62SOL    HW2  186   2.817   1.796   2.904 -0.7718  0.7542  1.8910
   63SOL     OW  187   0.521   0.806   0.199  0.0012  0.1427  0.6823
   63SOL    HW1  188   0.570   0.881   0.146  1.6976  0.6951  0.8510
   63SOL    HW2  189   0.519   0.829   0.300 -0.7576  0.6226  0.9455
   64SOL     OW  190   0.045   0.431   2.454 -0.7441  0.1602 -0.0850
   64SOL    HW1  191   0.141   0.463   2.472 -3.0506  1.5191 -4.5030
   64SOL    HW2  192  -0.003   0.486   2.374 -1.5738  1.0799  2.9677
   65SOL     OW  193   0.174   1.504   0.598 -0.1368 -0.2479  0.9228
   65SOL    HW1  194   0.199   1.557   0.680  1.6642 -1.2750 -3.7843
   65SOL    HW2  195   0.255   1.451   0.560  0.4929  0.2207  0.9056
   66SOL     OW  196   2.545   0.361   0.573  0.1050  0.1835 -0.2818
   66SOL    HW1  197   2.645   0.350   0.595 -0.2113 -1.1736 -0.2473
   66SOL    HW2  198   2.495   0.285   0.616 -2.6057  1.5217 -2.4475
   67SOL     OW  199   0.561   2.473   1.445 -0.0344 -0.3125 -0.2563
   67SOL    HW1  200   0.649   2.422   1.461 -1.5652  1.1973  1.2448
   67SOL    HW2  201   0.481   2.413   1.420 -1.0533  0.0150 -0.1885
   68SOL     OW  202   0.977   1.055   2.510 -0.4648 -0.8000  0.8408
   68SOL    HW1  203   1.072   1.006   2.494 -0.6493 -2.4008  0.7817
   68SOL    HW2  204   0.932   1.083   2.414  2.1997  0.8602 -0.7921
   69SOL     OW  205   0.699   2.792   2.156  0.0809  0.3783  0.0035
   69SOL    HW1  206   0.761   2.713   2.149 -3.0925  0.7459 -0.3463
   69SOL    HW2  207   0.601   2.766   2.190  1.0356  1.6872 -1.4474
   70SOL     OW  208   0.478   0.195   2.610  0.4459 -0.7349 -0.6307
   70SOL    HW1  209   0.379   0.180   2.639 -0.5873 -0.5745 -0.8159
   70SOL    HW2  210   0.537   0.118   2.638 -0.7387  0.6004 -0.5128
   71SOL     OW  211   1.120   1.792   0.397 -0.6220  0.2820 -0.9014
   71SOL    HW1  212   1.096   1.705   0.456  1.2018 -0.2175  1.7087
   71SOL    HW2  213   1.073   1.796   0.308 -0.5638  2.2312  0.4962
   72SOL     OW  214   1.819   0.198   2.161 -0.5459  0.1264  0.1635
   72SOL    HW1  215   1.866   0.288   2.172  0.5461  1.6015 -0.5966
   72SOL    HW2  216   1.884   0.108   2.154  0.9597 -0.3962 -1.1225
   73SOL     OW  217   2.814   2.185   2.389 -0.1112  0.4687 -0.3097
   73SOL    HW1  218   2.840   2.093   2.351 -0.1677  2.2819  1.9796
   73SOL    HW2  219   2.841   2.195   2.488  0.5449  0.1115  0.2599
   74SOL     OW  220   2.678   2.850   2.180 -0.3471  0.1274  0.2331
   74SOL    HW1  221   2.651   2.834   2.278  1.9828 -0.4024  2.7388
   74SOL    HW2  222   2.779   2.884   2.170 -3.2852  1.0111  0.4060
   75SOL     OW  223   0.969   0.840   1.112  0.7170 -0.3198 -0.1735
   75SOL    HW1  224   0.894   0.890   1.061 -0.0936 -1.2522  0.2598
   75SOL    HW2  225   0.962   0.874   1.209 -1.3946  2.9392 -0.1022
   76SOL     OW  226   1.737   1.194   2.494  1.0915 -0.4747 -0.4132
   76SOL    HW1  227   1.636   1.198   2.477 -0.9332 -1.4964 -2.1248
   76SOL    HW2  228   1.770   1.288   2.523 -1.8841  0.6075  0.3995
   77SOL     OW  229   2.930   0.958   1.005  0.0030 -0.0342  0.1613
   77SOL    HW1  230   2.898   0.863   0.978  0.5509  0.6639  0.7495
   77SOL    HW2  231   2.993   0.956   1.084  0.1848 -0.5320 -0.6583
   78SOL     OW  232   1.999   1.484   1.458 -0.2049  0.3027  0.1404
   78SOL    HW1  233   2.101   1.485   1.449 -0.2584  2.1510 -1.6514
   78SOL    HW2  234   1.955   1.497   1.368 -0.0058  0.2266  1.4660
   79SOL     OW  235   0.620   1.407   0.789  0.1974  0.4095 -0.0563
   79SOL    HW1  236   0.516   1.419   0.811 -0.4836 -2.2953 -0.2699
   79SOL    HW2  237   0.626   1.357   0.696  0.7520 -2.4203 -1.9429
   80SOL     OW  238   0.654   0.476   1.557  0.3538 -0.6261 -0.6218
   80SOL    HW1  239   0.696   0.518   1.473 -0.6037 -0.4553  0.7031
   80SOL    HW2  240   0.624   0.377   1.538  0.5097 -2.3144 -0.7910
   81SOL     OW  241   1.049   1.310   2.623 -0.0692 -0.2003  0.1684
   81SOL    HW1  242   1.017   1.220   2.583  3.6206 -0.4363 -0.2628
   81SOL    HW2  243   0.995   1.382   2.575  2.2367 -0.4891 -0.1087
   82SOL     OW  244   0.955   3.010   1.533 -0.4760 -0.0394 -0.3442
   82SOL    HW1  245   0.860   2.990   1.502  0.5789 -1.7877 -2.2095
   82SOL    HW2  246   1.024   2.998   1.458 -0.2788  1.3428 -0.3313
   83SOL     OW  247   2.624   2.393   0.841 -0.1049 -0.1544 -0.3487
   83SOL    HW1  248   2.525   2.397   0.838 -0.5463 -0.4406 -1.3233
   83SOL    HW2  249   2.667   2.406   0.748 -2.4020 -3.8709  0.9881
   84SOL     OW  250   0.656   3.052   2.402  0.8328  0.4420  0.2262
   84SOL    HW1  251   0.606   3.074   2.489 -0.2135 -1.3119 -0.8993
   84SOL    HW2  252   0.703   2.958   2.403 -1.6074  2.1991  1.3300
   85SOL     OW  253   0.288   1.614   1.437 -0.1179 -0.4261 -0.1011
   85SOL    HW1  254   0.294   1.718   1.430 -0.1858  0.0932  0.1597
   85SOL    HW2  255   0.347   1.578   1.522  1.3739  2.3209  2.4739
   86SOL     OW  256   0.455   1.048   1.515  0.0838  0.7240 -0.5193
   86SOL    HW1  257   0.413   0.999   1.435  0.8062  2.9960 -2.0248
   86SOL    HW2  258   0.557   1.031   1.514 -0.3052 -0.0615 -0.6533
   87SOL     OW  259   1.603   0.651   0.242  0.7562 -0.1312  0.4104
   87SOL    HW1  260   1.663   0.731   0.218  2.8752  2.1636  1.5089
   87SOL    HW2  261   1.583   0.582   0.169  2.8299  1.4835  0.8005
   88SOL     OW  262   1.532   1.359   0.272  0.4609  0.1501  0.0237
   88SOL    HW1  263   1.594   1.280   0.299  1.8899  0.1486  2.4954
   88SOL    HW2  264   1.432   1.333   0.278 -1.6758  1.1011  1.3120
   89SOL     OW  265   3.088   0.446   0.583  0.5547 -0.6506 -0.1148
   89SOL    HW1  266   3.136   0.361   0.557 -1.4150  2.4399  1.4647
   89SOL    HW2  267   2.987   0.433   0.593  0.7762 -0.6798 -1.6810
   90SOL     OW  268   0.887   1.561   0.053 -0.0844  0.0237  0.0555
   90SOL    HW1  269   0.910   1.504   0.134 -1.3247  0.1200 -1.5868
   90SOL    HW2  270   0.785   1.561   0.030 -0.5710  0.9093 -2.8588
   91SOL     OW  271   1.237   1.478   1.792  0.1334  0.0077 -0.3401
   91SOL    HW1  272   1.206   1.572   1.829 -1.6000 -1.2056  2.2122
   91SOL    HW2  273   1.345   1.463   1.798  0.5154  0.8663 -0.6275
   92SOL     OW  274   3.094   0.945   1.237  0.2492  0.5537 -0.1411
   92SOL    HW1  275   3.133   1.036   1.208  0.0296 -1.5051 -2.5528
   92SOL    HW2  276   3.109   0.927   1.337 -0.0826  0.2114 -0.7028
   93SOL     OW  277   3.071   2.742   0.041 -0.2654 -0.4669  0.5539
   93SOL    HW1  278   3.049   2.754  -0.062  1.9033  0.9058  1.2405
   93SOL    HW2  279   3.095   2.641   0.061 -1.1233  0.4697  0.0047
   94SOL     OW  280   1.494   1.468   1.811  0.1270  0.1153  0.5111
   94SOL    HW1  281   1.575   1.403   1.798 -0.5745  0.2013 -1.7373
   94SOL    HW2  282   1.522   1.549   1.866 -3.3367 -1.0225 -1.3441
   95SOL     OW  283   1.445   2.509   2.998  0.4443  0.0993 -0.4287
   95SOL    HW1  284   1.362   2.549   3.052  1.0304 -0.4479  0.4282
   95SOL    HW2  285   1.427   2.412   2.962  1.2972 -1.8947  0.3694
   96SOL     OW  286   0.561   2.103   1.317 -0.1824 -0.0587  0.3762
   96SOL    HW1  287   0.501   2.050   1.249  0.3112  1.2020 -1.8235
   96SOL    HW2  288   0.620   2.041   1.376  0.8893  0.5716  0.0382
   97SOL     OW  289   0.329   1.617   2.443 -0.6429  0.4502  0.1661
   97SOL    HW1  290   0.307   1.713   2.427 -3.3757 -0.9405 -0.1104
   97SOL    HW2  291   0.315   1.581   2.538 -2.0929 -0.8904 -1.6205
   98SOL     OW  292   2.093   1.641   1.178  0.6206 -0.2818  0.1220
   98SOL    HW1  293   2.001   1.598   1.196 -2.1728 -0.9527  0.2477
   98SOL    HW2  294   2.167   1.578   1.146  1.8348 -0.8246  2.2729
   99SOL     OW  295   2.536   2.050   1.298  0.4273  0.1794  0.4047
   99SOL    HW1  296   2.552   2.100   1.387  2.9397  0.7927  0.1730
   99SOL    HW2  297   2.489   1.958   1.310 -1.5354 -1.0622  1.2293
  100SOL     OW  298   2.307   0.399   2.094 -0.6601  0.4404 -0.0521
  100SOL    HW1  299   2.242   0.373   2.169  0.1167  1.1239  2.3775
  100SOL    HW2  300   2.393   0.447   2.121  0.0297  0.9531  1.9546
  101SOL     OW  301   0.414   1.496   0.476  0.3241  0.0556  0.1315
  101SOL    HW1  302   0.424   1.592   0.513  1.3640  1.3232 -1.5919
  101SOL    HW2  303   0.506   1.456   0.449 -1.0511 -0.2956 -1.7016
  102SOL     OW  304   2.258   1.045   0.826  0.5158  0.6117 -0.5326
  102SOL    HW1  305   2.169   1.016   0.775 -0.5448 -0.7629  2.1427
  102SOL    HW2  306   2.334   1.083   0.771  0.1709 -5.8434 -0.4696
  103SOL     OW  307   2.219   0.082   0.372 -0.4412  0.9083 -0.0127
  103SOL    HW1  308   2.253   0.175   0.345  0.5662 -1.5514 -0.4453
  103SOL    HW2  309   2.262   0.050   0.464  1.5118 -2.6966 -0.1365
  104SOL     OW  310   0.096   1.815   2.139 -0.1189  0.6274 -0.3747
  104SOL    HW1  311   0.111   1.803   2.037  0.8396 -0.2181 -1.2583
  104SOL    HW2  312  -0.009   1.822   2.155  0.2843 -0.4302 -2.2613
  105SOL     OW  313   1.285   2.099   0.784 -0.2232  0.3600 -0.2369
  105SOL    HW1  314   1.325   2.134   0.696  0.4884 -1.2018  1.2063
  105SOL    HW2  315   1.202   2.041   0.762 -0.2760  0.3394  0.3776
  106SOL     OW  316   2.128   0.373   1.406 -0.0940 -0.4746 -0.3305
  106SOL    HW1  317   2.103   0.275   1.425  2.7640  0.6598 -1.1043
  106SOL    HW2  318   2.114   0.433   1.490  0.4710 -1.4771 -0.8506
  107SOL     OW  319   1.909   2.957   1.236  0.5259 -0.4518 -0.2765
  107SOL    HW1  320   1.855   3.031   1.289  0.2224  0.3103  2.9590
  107SOL    HW2  321   1.851   2.878   1.201 -2.0540 -0.9941 -1.9070
  108SOL     OW  322   0.803   2.798   1.282  0.2676  0.2260 -0.1407
  108SOL    HW1  323   0.845   2.705   1.303 -1.5232  0.1676 -2.2081
  108SOL    HW2  324   0.876   2.868   1.252 -1.8894  0.0659 -0.0070
  109SOL     OW  325   2.115   0.114   0.767 -0.2816  0.4976 -0.3453
  109SOL    HW1  326   2.023   0.145   0.728 -0.4299 -0.6851 -0.4288
  109SOL    HW2  327   2.103   0.070   0.861  0.9807  0.7603 -0.3955
  110SOL     OW  328   0.486   2.816   2.765  0.1711 -0.1312 -0.6857
  110SOL    HW1  329   0.446   2.758   2.685  1.1269 -0.0072  0.6723
  110SOL    HW2  330   0.548   2.762   2.832  1.8668 -1.3696  1.8654
  111SOL     OW  331   1.286   0.473   2.333 -0.8513 -0.3489 -0.0475
  111SOL    HW1  332   1.225   0.535   2.391 -3.6142  0.2410  2.1460
  111SOL    HW2  333   1.356   0.420   2.390 -1.7507  1.1217  0.5404
  112SOL     OW  334   1.747   0.504   1.477  0.4654 -0.1906  0.3337
  112SOL    HW1  335   1.718   0.473   1.380  0.1845 -0.6797 -0.2634
  112SOL    HW2  336   1.686   0.450   1.551  0.0323 -3.4073  2.4133
  113SOL     OW  337   2.378   1.637   1.766  0.6146 -0.4624 -0.3524
  113SOL    HW1  338   2.438   1.557   1.763 -0.5036  1.5068  1.2394
  113SOL    HW2  339   2.386   1.693   1.850  0.1771 -0.3892 -2.7198
  114SOL     OW  340   0.334   0.530   1.239 -0.2018 -0.0465 -0.0897
  114SOL    HW1  341   0.363   0.595   1.160 -2.8911 -3.6660  0.8604
  114SOL    HW2  342   0.232   0.551   1.259 -0.8951  2.7444 -3.1839
  115SOL     OW  343   2.737   1.634   1.203  0.4779 -0.1164  0.3735
  115SOL    HW1  344   2.710   1.540   1.233 -0.8078  0.6131  0.2618
  115SOL    HW2  345   2.839   1.629   1.165  5.3080  0.8146  1.8388
  116SOL     OW  346   1.780   1.011   0.595  0.2916  0.5388  0.6260
  116SOL    HW1  347   1.716   0.931   0.607  2.9601  1.0269 -2.4713
  116SOL    HW2  348   1.765   1.095   0.653 -1.1332 -2.2721 -1.0955
  117SOL     OW  349   1.171   0.366   0.553  0.0452  0.6186 -0.3252
  117SOL    HW1  350   1.227   0.457   0.532 -0.2700 -0.8887  1.1815
  117SOL    HW2  351   1.158   0.305   0.469 -1.8224 -0.6448 -0.8873
  118SOL     OW  352   1.099   1.176   1.113 -0.4352  0.3342  0.6423
  118SOL    HW1  353   1.046   1.119   1.175 -0.1608  2.4018 -0.4903
  118SOL    HW2  354   1.114   1.271   1.149 -2.9356  1.2384 -0.5825
  119SOL     OW  355   1.825   1.586   2.158 -0.1492 -0.1499  0.0762
  119SOL    HW1  356   1.793   1.685   2.160 -1.5731 -0.2128 -1.4941
  119SOL    HW2  357   1.925   1.578   2.128  0.5893  0.2783 -1.7117
  120SOL     OW  358   2.928   2.857   0.234  0.1609  0.2217  0.8149
  120SOL    HW1  359   3.006   2.831   0.171 -1.2481 -2.2329  0.7218
  120SOL    HW2  360   2.846   2.800   0.196 -0.8027 -1.4232 -0.3747
  121SOL     OW  361   1.938   0.740   2.232 -0.2111 -0.3175 -0.0671
  121SOL    HW1  362   1.960   0.817   2.164 -1.0980 -0.6335 -1.0416
  121SOL    HW2  363   1.959   0.647   2.194 -1.8829  0.6045 -0.5404
  122SOL     OW  364   2.678   2.560   1.314  0.5990  0.3028  0.0350
  122SOL    HW1  365   2.714   2.503   1.232  3.9288 -2.3135 -0.6239
  122SOL    HW2  366   2.588   2.605   1.300  1.1267  0.3710  1.2973
  123SOL     OW  367   1.757   0.036   1.708  0.0909  0.3249  0.2642
  123SOL    HW1  368   1.801  -0.052   1.670  4.1228 -0.6167 -0.7343
  123SOL    HW2  369   1.820   0.097   1.757 -2.7592  0.6919 -0.8587
  124SOL     OW  370   0.059   0.442   1.098 -0.2279  0.5076  0.7368
  124SOL    HW1  371   0.057   0.526   1.155 -0.1264  0.9754 -0.0070
  124SOL    HW2  372   0.067   0.471   0.994  0.4755  1.9502 -1.4220
  125SOL     OW  373   0.875   1.879   0.726  0.6933  0.2483  0.3605
  125SOL    HW1  374   0.966   1.831   0.746 -0.0518  1.6161  0.4128
  125SOL    HW2  375   0.817   1.892   0.814 -0.2294  1.0776  1.8228
  126SOL     OW  376   1.833   2.268   2.423 -0.2149  0.1239 -0.2707
  126SOL    HW1  377   1.907   2.241   2.359  1.1209 -0.0016  2.8251
  126SOL    HW2  378   1.774   2.186   2.447  3.1207 -0.6317 -2.9349
  127SOL     OW  379   0.937   0.922   0.175 -0.4333  0.1956  0.0876
  127SOL    HW1  380   0.992   0.972   0.244 -0.1864 -0.0207 -1.5243
  127SOL    HW2  381   0.911   0.823   0.203  0.5577  1.1327 -0.8905
  128SOL     OW  382   0.912   0.215   1.394 -0.3894  1.0268  0.1975
  128SOL    HW1  383   0.924   0.294   1.322 -1.2150 -2.7643 -0.5881
  128SOL    HW2  384   0.900   0.126   1.339  1.7536 -1.2217 -0.4841
  129SOL     OW  385   1.856   0.669   1.862  0.2918  0.5082  0.4636
  129SOL    HW1  386   1.864   0.680   1.757  0.2335  2.6048  0.5367
  129SOL    HW2  387   1.879   0.755   1.913  1.9927 -5.0322  1.0123
  130SOL     OW  388   1.407   2.144   1.030  0.9955  0.0953  0.2287
  130SOL    HW1  389   1.359   2.119   0.941 -2.4151  0.3634  2.5698
  130SOL    HW2  390   1.489   2.210   1.009  0.1163  0.3432  0.8612
  131SOL     OW  391   3.003   1.409   1.367  0.3797 -0.6034  0.1372
  131SOL    HW1  392   2.944   1.340   1.423 -2.0322 -1.3215  0.5462
  131SOL    HW2  393   3.103   1.373   1.369  2.8767  0.4123  2.1655
  132SOL     OW  394   2.038   2.425   0.470  0.1280 -0.2728 -0.1059
  132SOL    HW1  395   1.956   2.497   0.478  2.1100  3.5435  1.8011
  132SOL    HW2  396   2.024   2.348   0.534 -2.1397  0.2613 -2.3572
  133SOL     OW  397   1.774   2.351   2.729 -0.4927 -0.2621  0.1527
  133SOL    HW1  398   1.675   2.357   2.694  1.3996  2.6155 -2.6900
  133SOL    HW2  399   1.845   2.382   2.657  0.5248 -2.0037  0.8168
  134SOL     OW  400   2.669   2.301   1.600  0.2026 -0.4931 -0.1460
  134SOL    HW1  401   2.582   2.326   1.649  0.6294 -0.2429  0.3285
  134SOL    HW2  402   2.741   2.375   1.614  1.7661 -1.7307  0.9122
  135SOL     OW  403   0.723   1.457   2.684  0.0366  0.0310 -0.0952
  135SOL    HW1  404   0.700   1.364   2.728  0.9523 -2.0187  1.3116
  135SOL    HW2  405   0.750   1.450   2.586 -1.8090  1.0850 -0.0043
  136SOL     OW  406   1.224   2.035   0.481  0.7393  0.0483  0.6549
  136SOL    HW1  407   1.147   2.107   0.483  0.0278 -1.2237 -0.5542
  136SOL    HW2  408   1.186   1.943   0.455  2.0731  2.3833 -2.0801
  137SOL     OW  409   0.438   1.194   2.240 -0.3180  0.1879  0.4286
  137SOL    HW1  410   0.342   1.176   2.234  3.2074 -2.2249  0.5956
  137SOL    HW2  411   0.491   1.108   2.258  0.3430 -0.2454  2.5126
  138SOL     OW  412   2.499   1.506   0.268  0.2610  0.5206 -0.2628
  138SOL    HW1  413   2.402   1.481   0.245 -0.8558 -0.7308 -0.6268
  138SOL    HW2  414   2.548   1.437   0.324 -0.6740 -1.3311 -1.5697
  139SOL     OW  415   1.903   2.628   1.389  0.0141 -0.0737  1.0514
  139SOL    HW1  416   1.804   2.661   1.388  0.4802  2.0215 -0.1821
  139SOL    HW2  417   1.913   2.521   1.380 -1.2945 -0.8835 -0.2248
  140SOL     OW  418   3.005   2.969   2.522  0.8299  0.2026  0.2823
  140SOL    HW1  419   3.065   2.882   2.522 -0.4087  0.9527  2.3862
  140SOL    HW2  420   3.061   3.050   2.495 -0.3040 -3.1944 -0.3010
  141SOL     OW  421   1.317   1.706   1.613 -0.2238  0.3766  0.8014
  141SOL    HW1  422   1.252   1.784   1.636  1.4057  0.5592  2.2775
  141SOL    HW2  423   1.285   1.618   1.657 -2.5716 -0.2915 -1.8413
  142SOL     OW  424   1.540   0.605   2.256  0.1264 -0.1189 -0.3386
  142SOL    HW1  425   1.576   0.592   2.159  1.5497  0.3670  1.2863
  142SOL    HW2  426   1.449   0.563   2.270  3.2866 -0.2645  2.2700
  143SOL     OW  427   2.747   0.905   0.503  0.5091  0.1782  0.4737
  143SOL    HW1  428   2.789   0.963   0.430  0.7046 -0.4473 -1.7699
  143SOL    HW2  429   2.802   0.894   0.587  1.0511 -1.1630 -1.5291
  144SOL     OW  430   2.876   1.185   1.515 -0.3819 -0.7234  0.5099
  144SOL    HW1  431   2.863   1.198   1.621 -0.3446  0.7693 -0.1060
  144SOL    HW2  432   2.913   1.090   1.489  2.1202  0.3107  0.6319
  145SOL     OW  433   1.039   1.820   0.132 -0.1735 -0.1312 -0.0492
  145SOL    HW1  434   1.124   1.836   0.074  0.2357 -0.4211 -1.1286
  145SOL    HW2  435   0.973   1.753   0.082  1.4043 -1.9321 -0.1887
  146SOL     OW  436   2.453   0.665   1.510 -0.0114 -0.0341  0.3363
  146SOL    HW1  437   2.406   0.590   1.461  0.6446  3.7391  1.6392
  146SOL    HW2  438   2.437   0.757   1.466  1.6805 -0.1524  3.9825
  147SOL     OW  439   1.103   2.556   0.601  0.2728  0.4118  0.1834
  147SOL    HW1  440   1.048   2.616   0.541  2.0920  2.0834  2.3600
  147SOL    HW2  441   1.189   2.528   0.550 -1.8584  0.9979  2.4028
  148SOL     OW  442   1.611   1.451   0.021  0.2384 -0.6540 -0.3551
  148SOL    HW1  443   1.618   1.369  -0.044 -0.0148  1.6882 -0.9161
  148SOL    HW2  444   1.593   1.420   0.120  2.1699 -1.0571  0.0351
  149SOL     OW  445   0.644   1.452   1.959 -0.0242  0.3291 -0.1935
  149SOL    HW1  446   0.542   1.433   1.979 -0.6052 -0.0229 -2.6801
  149SOL    HW2  447   0.689   1.379   1.897 -0.2573 -0.5040 -2.3982
  150SOL     OW  448   3.045   1.227   0.964 -0.3322 -0.2921  0.5743
  150SOL    HW1  449   3.112   1.245   1.040  2.0971  2.2659 -0.7963
  150SOL    HW2  450   3.014   1.129   0.946  0.2995 -2.0571  0.7317
  151SOL     OW  451   0.140   0.698   2.105  0.3554  0.0312  0.4879
  151SOL    HW1  452   0.125   0.757   2.020 -1.7192  0.8617  0.3887
  151SOL    HW2  453   0.216   0.627   2.091  0.4145  0.3937 -1.7947
  152SOL     OW  454   1.459   1.795   1.179 -0.0549 -0.0921 -0.4126
  152SOL    HW1  455   1.502   1.882   1.222 -2.5973 -1.4903  0.0734
  152SOL    HW2  456   1.360   1.806   1.162  0.5865 -0.5303 -0.4963
  153SOL     OW  457   0.132   1.561   0.210  0.1910 -0.6082  0.1202
  153SOL    HW1  458   0.105   1.456   0.202  0.1057 -1.4590  0.1383
  153SOL    HW2  459   0.104   1.607   0.301  1.5933 -0.3848  1.3779
  154SOL     OW  460   2.362   1.891   2.859 -0.1616  0.6558  0.0733
  154SOL    HW1  461   2.409   1.796   2.849 -0.9587  0.2610  0.5081
  154SOL    HW2  462   2.400   1.958   2.792 -1.6340 -3.1955  0.4322
  155SOL     OW  463   2.528   1.159   0.398  0.1412 -0.5946 -0.2056
  155SOL    HW1  464   2.598   1.197   0.334  0.1045 -0.2812  1.1005
  155SOL    HW2  465   2.434   1.159   0.353  2.9014  0.0369 -1.2301
  156SOL     OW  466   2.466   0.869   0.779  0.0710 -0.2700 -0.4955
  156SOL    HW1  467   2.391   0.924   0.828 -1.8285 -1.7760 -1.1875
  156SOL    HW2  468   2.485   0.913   0.691 -3.0590 -0.5533 -1.2748
  157SOL     OW  469   1.226   3.000   2.956  0.7260  0.0740  0.2103
  157SOL    HW1  470   1.296   2.954   2.893  3.9064 -0.3068  1.2384
  157SOL    HW2  471   1.269   3.089   2.997 -1.7315 -0.5162 -0.7003
  158SOL     OW  472   0.982   1.872   1.891 -0.3970  0.8419 -0.2912
  158SOL    HW1  473   1.004   1.971   1.857 -0.2990  3.1380  0.2364
  158SOL    HW2  474   0.895   1.859   1.946 -0.9985 -1.3469 -1.4381
  159SOL     OW  475   0.880   0.440   1.196  0.2696  0.2713 -0.1755
  159SOL    HW1  476   0.828   0.520   1.251 -1.3477  2.2047 -0.4677
  159SOL    HW2  477   0.805   0.381   1.150  1.3296  3.0571  0.5648
  160SOL     OW  478   1.352   2.450   1.585 -0.2273  0.8660 -0.4548
  160SOL    HW1  479   1.318   2.360   1.629  0.9523 -0.2974  0.3406
  160SOL    HW2  480   1.456   2.439   1.563  2.7506  0.8803 -1.1180
  161SOL     OW  481   3.092   2.917   0.478 -0.1247 -0.7683 -0.4005
  161SOL    HW1  482   3.045   2.825   0.476 -3.3853 -0.1480 -0.8053
  161SOL    HW2  483   3.062   2.977   0.404 -2.2538 -2.8915 -2.0525
  162SOL     OW  484   2.602   1.854   0.486 -0.2899 -0.7460 -0.1238
  162SOL    HW1  485   2.582   1.826   0.390  3.1093  1.0800  0.4187
  162SOL    HW2  486   2.581   1.789   0.564 -2.2279  1.0408  0.1883
  163SOL     OW  487   1.956   2.729   0.736  0.6924 -0.5006 -0.1204
  163SOL    HW1  488   1.951   2.754   0.634  0.9734 -1.2899  0.6418
  163SOL    HW2  489   2.022   2.649   0.748  2.9529  0.1316 -1.4402
  164SOL     OW  490   3.047   0.198   1.253 -0.1025 -0.6128  0.0363
  164SOL    HW1  491   3.059   0.277   1.182  2.8864  4.6757 -0.0111
  164SOL    HW2  492   3.114   0.201   1.336  0.4680 -3.4819  3.5237
  165SOL     OW  493   1.002   1.379   0.750  0.7404  0.4518  0.2127
  165SOL    HW1  494   0.946   1.430   0.819  0.2101 -3.0164 -0.4030
  165SOL    HW2  495   1.014   1.448   0.668  0.8052  2.3688  0.4988
  166SOL     OW  496   1.587   1.010   1.807  0.0072 -0.0878  0.2523
  166SOL    HW1  497   1.512   1.023   1.878  3.8336  2.1557  1.8210
  166SOL    HW2  498   1.648   1.094   1.810 -0.2037 -1.4689  1.6275
  167SOL     OW  499   0.749   1.976   1.478  0.4495  0.2462 -0.1561
  167SOL    HW1  500   0.761   2.050   1.556 -1.0791  1.3792  0.2975
  167SOL    HW2  501   0.696   1.887   1.513  0.2952 -2.2955  2.8626
  168SOL     OW  502   1.625   2.353   0.159 -0.4473  0.0872 -0.5224
  168SOL    HW1  503   1.693   2.366   0.081  1.3653 -0.0730  2.8342
  168SOL    HW2  504   1.672   2.327   0.250  1.8325 -0.1476 -3.0268
  169SOL     OW  505   0.177   2.577   2.231 -0.0602 -0.1632  0.4018
  169SOL    HW1  506   0.224   2.534   2.153  0.9370  0.2094  1.8334
  169SOL    HW2  507   0.190   2.523   2.319  1.9509 -2.0519 -2.7880
  170SOL     OW  508   1.107   0.227   2.007  0.3126 -0.2416 -0.3826
  170SOL    HW1  509   1.160   0.198   2.087 -1.2492  4.7554 -1.6519
  170SOL    HW2  510   1.152   0.194   1.918 -0.4800 -0.3467  1.6778
  171SOL     OW  511   0.176   0.802   2.368  0.1277 -0.5272 -0.0649
  171SOL    HW1  512   0.095   0.825   2.422  3.1587 -2.4541 -0.3561
  171SOL    HW2  513   0.154   0.785   2.268  2.0433 -1.5283  0.6640
  172SOL     OW  514   0.957   0.968   2.890  0.2864 -0.0176  0.2249
  172SOL    HW1  515   0.909   1.044   2.946  0.2267  2.7463 -0.6176
  172SOL    HW2  516   0.918   0.964   2.795 -2.4435 -2.3201 -0.0002
  173SOL     OW  517   0.565   2.550   0.124 -0.2155 -0.5785 -0.2680
  173SOL    HW1  518   0.529   2.563   0.029  1.3558 -2.3339  0.1720
  173SOL    HW2  519   0.507   2.570   0.206  3.1287 -2.5582  3.0186
  174SOL     OW  520   1.533   2.788   1.029 -0.2379  0.3499 -0.2340
  174SOL    HW1  521   1.573   2.849   0.957 -0.8773 -4.1390  0.6508
  174SOL    HW2  522   1.505   2.693   0.987 -1.5375 -1.9695 -2.9960
  175SOL     OW  523   0.474   3.056   1.721  0.2373  0.3583 -0.1543
  175SOL    HW1  524   0.549   3.023   1.787 -1.1128 -2.1270  0.6717
  175SOL    HW2  525   0.472   3.162   1.712  1.0360  2.0521  1.8906
  176SOL     OW  526   2.549   0.394   0.015 -0.5791 -0.1766  0.6081
  176SOL    HW1  527   2.581   0.470   0.070 -2.4254 -2.7973  0.0201
  176SOL    HW2  528   2.469   0.344   0.059  1.1813 -3.2655 -0.9793
  177SOL     OW  529   0.295   0.334   0.921  0.0849 -0.4105 -0.0046
  177SOL    HW1  530   0.250   0.244   0.893  4.3362 -3.1817  3.3955
  177SOL    HW2  531   0.283   0.348   1.023 -2.0223 -0.7626 -1.2725
  178SOL     OW  532   0.047   2.753   2.566 -0.3289  0.1937  0.4521
  178SOL    HW1  533   0.004   2.662   2.553 -1.4437 -0.0821  1.5122
  178SOL    HW2  534   0.136   2.749   2.620 -0.0234 -0.8708  0.0112
  179SOL     OW  535   3.015   1.580   1.163 -0.5161  0.0036  0.2463
  179SOL    HW1  536   3.063   1.518   1.095  1.5300 -0.0953 -0.3508
  179SOL    HW2  537   2.999   1.529   1.254  0.2676  1.0228 -1.4732
  180SOL     OW  538   0.188   1.290   1.812 -0.3263  0.5919  0.2869
  180SOL    HW1  539   0.255   1.231   1.857  1.0980  0.2802 -1.8066
  180SOL    HW2  540   0.144   1.363   1.869  0.9713 -1.4288 -2.5317
  181SOL     OW  541   0.006   1.894   2.473 -0.7141  0.6074  0.0500
  181SOL    HW1  542   0.053   1.991   2.477  0.8904  0.9087 -1.6447
  181SOL    HW2  543  -0.082   1.904   2.425  1.6539 -2.0087 -0.0528
  182SOL     OW  544   2.350   1.221   1.198  0.4132 -0.5940  0.6109
  182SOL    HW1  545   2.288   1.152   1.146 -1.3471  1.0852 -2.5888
  182SOL    HW2  546   2.337   1.322   1.180  3.3336  3.0411  1.0294
  183SOL     OW  547   1.419   2.254   2.540 -0.4969  0.3132 -0.1515
  183SOL    HW1  548   1.333   2.198   2.554 -1.7878 -0.5063  1.0388
  183SOL    HW2  549   1.496   2.187   2.508 -0.4669 -2.4340  1.7228
  184SOL     OW  550   2.028   0.939   0.705 -0.3319  0.3208  0.7371
  184SOL    HW1  551   1.941   0.967   0.663  2.6871 -0.8560  2.7621
  184SOL    HW2  552   2.014   0.853   0.761 -2.0909  2.0315 -3.2804
  185SOL     OW  553   1.570   2.762   1.947  0.1578 -0.5263 -0.0064
  185SOL    HW1  554   1.510   2.844   1.951 -0.3980 -0.7796  1.7521
  185SOL    HW2  555   1.631   2.756   2.031 -1.5340 -2.4427  0.9383
  186SOL     OW  556   0.133   2.245   1.658 -0.6717 -0.1721  0.1141
  186SOL    HW1  557   0.098   2.302   1.742  0.5292 -0.7718 -2.2736
  186SOL    HW2  558   0.215   2.189   1.683 -2.1911 -2.4077 -1.9692
  187SOL     OW  559   1.383   0.675   1.646  0.2384 -0.3017 -0.1279
  187SOL    HW1  560   1.462   0.727   1.607  0.5822 -1.7355  2.4660
  187SOL    HW2  561   1.396   0.636   1.737 -0.1674  1.2239 -0.6883
  188SOL     OW  562   2.813   2.773   1.448 -0.1732 -0.1310 -0.1909
  188SOL    HW1  563   2.791   2.876   1.462  1.1219 -0.2835 -0.6853
  188SOL    HW2  564   2.747   2.719   1.390 -0.2454 -0.9705 -0.5860
  189SOL     OW  565   0.903   1.181   1.455 -0.4615  0.0716 -0.5827
  189SOL    HW1  566   0.973   1.214   1.528  0.0206  1.5803 -3.2959
  189SOL    HW2  567   0.830   1.251   1.433  1.5077 -0.1359  2.9133
  190SOL     OW  568   1.455   1.943   1.614  0.2796 -0.2048 -0.2295
  190SOL    HW1  569   1.442   1.839   1.613  1.3004  1.3691 -1.0663
  190SOL    HW2  570   1.493   1.964   1.707 -0.0650 -3.9725  1.9258
  191SOL     OW  571   0.913   0.754   1.496 -0.3717 -0.0978 -0.3906
  191SOL    HW1  572   0.970   0.708   1.571 -1.3979 -2.6878 -0.1908
  191SOL    HW2  573   0.962   0.831   1.446 -2.4381  3.2831 -0.0519
  192SOL     OW  574   1.853   2.316   1.095 -0.2444  0.2205  0.6399
  192SOL    HW1  575   1.751   2.301   1.069 -0.5583  2.5188  2.1437
  192SOL    HW2  576   1.917   2.274   1.024  0.5119 -0.0759 -1.1228
  193SOL     OW  577   0.521   0.543   0.420 -0.5018 -0.1657 -0.1979
  193SOL    HW1  578   0.464   0.463   0.459 -0.3880 -1.9368  1.1313
  193SOL    HW2  579   0.581   0.519   0.342 -0.1706 -1.4681  0.0277
  194SOL     OW  580   0.354   0.883   1.294 -0.2002  0.4638 -0.0107
  194SOL    HW1  581   0.348   0.782   1.289 -0.6345 -0.7579  1.7269
  194SOL    HW2  582   0.347   0.929   1.201 -1.8775 -1.1326  0.1359
  195SOL     OW  583   1.023   2.920   0.534 -0.1315 -0.6314  0.4799
  195SOL    HW1  584   1.002   2.834   0.474  0.5208  0.9671 -0.6968
  195SOL    HW2  585   1.123   2.959   0.539 -0.9117  0.9717  0.8743
  196SOL     OW  586   0.192   1.338   1.361  0.0222  0.4339 -0.2972
  196SOL    HW1  587   0.212   1.441   1.373 -1.1165  1.7813  0.7862
  196SOL    HW2  588   0.209   1.283   1.449  1.9572  0.7488 -0.8991
  197SOL     OW  589   0.824   2.047   0.235 -0.2762  0.1725  0.2871
  197SOL    HW1  590   0.826   1.994   0.322  1.0610 -3.3457 -3.2781
  197SOL    HW2  591   0.896   2.025   0.164 -0.0057  0.3637 -1.4644
  198SOL     OW  592   0.291   1.275   0.352  0.3934  0.2946  0.3693
  198SOL    HW1  593   0.215   1.295   0.285  0.0356  1.8888  1.5971
  198SOL    HW2  594   0.328   1.356   0.398  2.5543  1.5982 -0.8037
  199SOL     OW  595   2.307   0.397   2.556 -0.4682  0.8043  0.2630
  199SOL    HW1  596   2.243   0.374   2.642 -2.2383  2.9461  4.1184
  199SOL    HW2  597   2.408   0.381   2.578 -2.2556 -0.3000  2.3385
  200SOL     OW  598   3.083   2.942   0.734 -0.2324  0.0956  0.3081
  200SOL    HW1  599   2.981   2.955   0.750 -0.3116  2.8659  1.1600
  200SOL    HW2  600   3.106   2.942   0.632  3.1470 -2.7706  0.0107
  201SOL     OW  601   1.040   0.699   0.539 -0.3654 -0.3548 -0.2969
  201SOL    HW1  602   1.059   0.721   0.635 -4.0123 -1.8071 -0.0985
  201SOL    HW2  603   0.942   0.662   0.530  3.3309  2.4228  0.7406
  202SOL     OW  604   0.392   1.124   1.948 -0.3465  0.2464 -0.4756
  202SOL    HW1  605   0.480   1.081   1.913 -0.3945  2.1050 -0.6048
  202SOL    HW2  606   0.396   1.194   2.026  2.6280 -0.7434  1.3662
  203SOL     OW  607   0.596   0.210   1.485  0.0086 -0.1327 -0.1538
  203SOL    HW1  608   0.665   0.173   1.414  1.9184  0.9677 -1.0202
  203SOL    HW2  609   0.615   0.174   1.582  1.1627 -0.5974  1.9454
  204SOL     OW  610   2.095   1.787   2.909  0.0658  0.2781  0.2623
  204SOL    HW1  611   2.094   1.683   2.910 -0.7247  2.3779  1.5173
  204SOL    HW2  612   2.181   1.828   2.856 -0.8193  3.6256 -0.7875
  205SOL     OW  613   1.860   1.829   3.023  0.0035 -0.3560  0.1718
  205SOL    HW1  614   1.952   1.821   2.974 -0.3922 -0.1165  1.7157
  205SOL    HW2  615   1.825   1.928   3.027 -2.6120 -0.1906 -0.2005
  206SOL     OW  616   2.431   2.807   0.344 -0.0192  0.1224  0.2147
  206SOL    HW1  617   2.466   2.717   0.384 -1.2412 -0.1648 -0.5674
  206SOL    HW2  618   2.512   2.873   0.333 -0.7101 -2.0557 -0.2379
  207SOL     OW  619   0.685   1.833   2.942 -0.4020  0.3006 -0.4219
  207SOL    HW1  620   0.775   1.794   2.903  0.3796  0.9041 -0.2844
  207SOL    HW2  621   0.639   1.763   3.007  0.7030  0.1819  2.7901
  208SOL     OW  622   1.163   1.594   1.404  0.0622  0.5884 -0.0754
  208SOL    HW1  623   1.136   1.648   1.322  0.1128  0.3380 -0.8298
  208SOL    HW2  624   1.165   1.655   1.491 -0.1889  2.5405 -0.1569
  209SOL     OW  625   0.245   0.932   3.060 -0.1302  0.0358  0.1136
  209SOL    HW1  626   0.229   0.846   3.006  1.7156 -0.8432  1.4095
  209SOL    HW2  627   0.236   0.916   3.160  0.1285  0.9549 -0.4025
  210SOL     OW  628   1.731   0.489   1.163 -0.0299  0.3665  0.1261
  210SOL    HW1  629   1.680   0.583   1.173  1.6931  0.7971  0.3239
  210SOL    HW2  630   1.834   0.495   1.174 -2.3187  1.5471  1.2516
  211SOL     OW  631   2.093   1.058   1.600 -0.7427 -0.3042  0.0803
  211SOL    HW1  632   2.139   1.000   1.669 -3.0023  0.7401 -0.2491
  211SOL    HW2  633   2.167   1.113   1.554  0.8131  1.5414  2.5993
  212SOL     OW  634   0.012   0.968   1.505  0.0254 -0.1931  0.2899
  212SOL    HW1  635   0.086   1.039   1.531 -1.7266  2.2970  0.0506
  212SOL    HW2  636   0.019   0.879   1.560  1.3927  0.0069  1.7373
  213SOL     OW  637   2.769   0.170   0.382 -0.8477  0.0064 -0.0751
  213SOL    HW1  638   2.841   0.162   0.317 -1.9014  2.4368  0.0778
  213SOL    HW2  639   2.722   0.078   0.395 -2.7930 -0.6715  2.0332
  214SOL     OW  640   2.190   0.304   2.334  0.3634  0.4423 -0.3099
  214SOL    HW1  641   2.215   0.354   2.424  0.0897 -2.8724  0.5665
  214SOL    HW2  642   2.240   0.218   2.326  1.1228  2.3418 -0.5470
  215SOL     OW  643   1.617   2.324   2.084  0.1034  0.0780  0.0800
  215SOL    HW1  644   1.717   2.344   2.071  1.1914 -1.7771  2.9510
  215SOL    HW2  645   1.567   2.397   2.139  0.7722  0.1951 -3.3011
  216SOL     OW  646   2.200   0.631   0.693  0.3200  0.4435 -0.3311
  216SOL    HW1  647   2.184   0.531   0.653 -2.9780 -0.4277 -1.7734
  216SOL    HW2  648   2.185   0.710   0.624  0.0775  0.9056  1.5998
  217SOL     OW  649   0.757   2.800   2.437  0.2803 -0.1236  0.1687
  217SOL    HW1  650   0.734   2.704   2.472 -0.8413  1.0444  1.5646
  217SOL    HW2  651   0.765   2.801   2.337  2.4283  0.1628  2.0886
  218SOL     OW  652   1.902   1.430   0.024 -0.2215  0.3765 -0.0400
  218SOL    HW1  653   1.800   1.450   0.006 -0.3154  0.5469 -2.9641
  218SOL    HW2  654   1.913   1.370   0.114  0.0372 -1.6430  2.5486
  219SOL     OW  655   2.440   1.311   2.513  0.3084 -0.3184  0.1937
  219SOL    HW1  656   2.490   1.302   2.425 -0.7802 -1.1345  1.5014
  219SOL    HW2  657   2.436   1.225   2.570  0.5840  1.3491  1.8228
  220SOL     OW  658   1.468   1.063   1.303 -0.0551 -0.3978  0.0460
  220SOL    HW1  659   1.571   1.070   1.326  1.9666  0.1001 -0.2059
  220SOL    HW2  660   1.442   1.083   1.202 -2.8019  1.5437  0.8802
  221SOL     OW  661   1.283   0.981   2.174 -0.0132 -0.1476  0.1062
  221SOL    HW1  662   1.228   1.056   2.133 -0.3806  0.1866  0.6613
  221SOL    HW2  663   1.385   0.991   2.159 -2.4629  2.1474  1.0534
  222SOL     OW  664   1.113   0.071   1.198  0.0946  0.2414 -0.1531
  222SOL    HW1  665   1.168   0.098   1.282  0.1069 -0.5176  0.2520
  222SOL    HW2  666   1.118   0.150   1.124 -0.5441  1.1968 -1.4925
  223SOL     OW  667   2.718   0.942   2.160 -0.4212 -0.6335 -0.4578
  223SOL    HW1  668   2.681   1.028   2.207 -0.7627  1.7434 -2.0011
  223SOL    HW2  669   2.811   0.906   2.191 -2.0110 -1.4812  0.3756
  224SOL     OW  670   1.512   1.086   2.729  0.3619 -0.0608  0.1734
  224SOL    HW1  671   1.572   1.019   2.681 -2.7833  3.4524  2.0620
  224SOL    HW2  672   1.472   1.158   2.658 -2.3874  1.8125  0.4233
  225SOL     OW  673   2.978   2.764   2.884  0.5611 -0.6902 -0.1860
  225SOL    HW1  674   2.897   2.771   2.829  1.2846  0.3846  3.0916
  225SOL    HW2  675   3.061   2.734   2.830  1.2520 -1.2795 -1.2448
  226SOL     OW  676   2.454   1.622   2.879  0.1421 -0.0114  0.9684
  226SOL    HW1  677   2.471   1.579   2.786 -1.5969 -0.7050 -2.9908
  226SOL    HW2  678   2.402   1.555   2.942  1.7685 -0.5865 -0.4917
  227SOL     OW  679   0.849   0.153   0.006 -0.2893  0.3232 -0.5651
  227SOL    HW1  680   0.850   0.255  -0.012 -0.9604  2.4891 -2.0082
  227SOL    HW2  681   0.777   0.100  -0.050 -3.0642  1.9539 -3.4895
  228SOL     OW  682   2.427   0.586   2.868 -0.0978 -0.1813  0.5393
  228SOL    HW1  683   2.437   0.640   2.785  3.5872  0.4681 -0.4052
  228SOL    HW2  684   2.500   0.512   2.881 -0.3173 -2.1401  0.7716
  229SOL     OW  685   0.568   0.492   1.819 -0.3681  0.7657  0.1655
  229SOL    HW1  686   0.536   0.390   1.829  3.3466  0.5733 -1.1423
  229SOL    HW2  687   0.604   0.524   1.726 -0.1919 -1.1477 -0.5718
  230SOL     OW  688   1.944   1.155   2.078  0.2239  0.1037 -0.0718
  230SOL    HW1  689   1.999   1.212   2.011  1.0403  2.1382  0.9929
  230SOL    HW2  690   1.848   1.197   2.095 -1.3501 -1.0030 -2.1441
  231SOL     OW  691   0.635   1.028   0.063  0.5384  0.4444 -0.3507
  231SOL    HW1  692   0.728   1.063   0.047 -2.0746 -0.0529  0.2587
  231SOL    HW2  693   0.566   1.105   0.079 -0.2461  2.4830  0.3962
  232SOL     OW  694   2.430   3.073   2.894  0.2225  0.3637  0.6596
  232SOL    HW1  695   2.480   2.980   2.904  0.3917 -0.2147 -1.7877
  232SOL    HW2  696   2.465   3.124   2.809  1.6749 -0.7940 -0.7622
  233SOL     OW  697   1.697   1.218   1.130  1.0210 -0.2979  0.3543
  233SOL    HW1  698   1.715   1.191   1.032  2.0639 -1.4281  0.6905
  233SOL    HW2  699   1.727   1.148   1.200 -1.4476  0.6602 -0.9825
  234SOL     OW  700   1.567   2.499   1.870  0.1664 -0.5357 -0.4665
  234SOL    HW1  701   1.572   2.593   1.916 -1.0946  1.6705 -1.5473
  234SOL    HW2  702   1.565   2.427   1.942  3.8944  1.6286 -0.0986
  235SOL     OW  703   3.102   3.045   2.811 -0.7477 -0.1558 -0.2734
  235SOL    HW1  704   3.051   3.031   2.724  2.4158 -0.8263 -1.0446
  235SOL    HW2  705   3.047   3.094   2.889 -0.4225  0.9483  2.0012
  236SOL     OW  706   2.875   0.748   0.076 -0.4868  0.3190 -0.4153
  236SOL    HW1  707   2.951   0.773   0.141 -1.7068  0.1418  0.7762
  236SOL    HW2  708   2.896   0.653   0.031  0.1597 -1.0062  0.4312
  237SOL     OW  709   1.566   1.646   0.958  0.0638 -0.1310  0.1820
  237SOL    HW1  710   1.670   1.654   0.956 -2.6665 -1.5907 -0.8333
  237SOL    HW2  711   1.523   1.696   1.038 -1.5253 -0.9285  0.6046
  238SOL     OW  712   1.795   1.252   0.828 -0.2258 -0.2465 -0.8968
  238SOL    HW1  713   1.848   1.321   0.890  1.0422 -0.0340  0.8679
  238SOL    HW2  714   1.725   1.304   0.774 -0.3735 -2.7182  0.6420
  239SOL     OW  715   2.108   0.320   2.720 -0.0104 -0.2660  0.9856
  239SOL    HW1  716   2.144   0.275   2.804  0.5712  0.3975  1.0284
  239SOL    HW2  717   2.012   0.363   2.732 -0.3860  0.5356 -0.6940
  240SOL     OW  718   0.936   0.647   0.269  0.0707 -0.1122 -0.1837
  240SOL    HW1  719   0.986   0.558   0.238 -1.0528 -0.6158 -0.1153
  240SOL    HW2  720   0.958   0.677   0.366 -0.3150  2.7280 -0.8820
  241SOL     OW  721   0.612   0.044   0.394  0.2030 -0.1423  0.6162
  241SOL    HW1  722   0.646   0.124   0.336  0.9625  2.7100 -0.0036
  241SOL    HW2  723   0.597  -0.042   0.343 -0.4532  1.2918  1.2221
  242SOL     OW  724   0.601   2.499   1.149 -0.0209 -0.4690 -0.4959
  242SOL    HW1  725   0.585   2.531   1.246  1.2538 -2.6690  0.3880
  242SOL    HW2  726   0.583   2.576   1.084 -0.6924 -0.7025  0.4758
  243SOL     OW  727   1.074   0.609   2.506 -0.1459 -0.1460 -0.2554
  243SOL    HW1  728   0.983   0.637   2.461  0.9100 -2.5124  0.2646
  243SOL    HW2  729   1.051   0.549   2.590  0.8325 -2.7596 -0.7074
  244SOL     OW  730   2.846   1.884   2.340 -0.2298 -0.6370 -0.2117
  244SOL    HW1  731   2.850   1.867   2.241  0.5116 -1.0744  1.0251
  244SOL    HW2  732   2.776   1.823   2.384  4.0956 -0.6643 -0.7791
  245SOL     OW  733   2.278   0.840   2.147 -1.3441  0.7032 -0.3705
  245SOL    HW1  734   2.370   0.880   2.176 -0.7213 -1.5657  1.4903
  245SOL    HW2  735   2.212   0.821   2.227  1.0830  1.9203 -2.1819
  246SOL     OW  736   0.233   2.927   1.721 -0.6026 -0.3508 -0.5341
  246SOL    HW1  737   0.179   2.943   1.637  1.1527 -0.9308  3.4710
  246SOL    HW2  738   0.323   2.978   1.725 -1.8945 -0.0315 -2.1415
  247SOL     OW  739   2.205   0.644   3.013 -0.2278 -0.1327 -0.2653
  247SOL    HW1  740   2.279   0.626   2.942  1.5231 -2.1002 -1.6272
  247SOL    HW2  741   2.162   0.740   3.014 -2.1641 -0.2109 -1.5527
  248SOL     OW  742   2.164   1.820   1.600  0.0959  0.3540 -0.2480
  248SOL    HW1  743   2.243   1.771   1.649  3.2889 -0.1031  1.0978
  248SOL    HW2  744   2.077   1.835   1.651  1.7062 -1.6196  0.5532
  249SOL     OW  745   1.859   1.956   1.938  0.6914  0.6254 -0.3207
  249SOL    HW1  746   1.858   1.894   1.853  0.2505 -1.2137  1.3418
  249SOL    HW2  747   1.951   1.998   1.953  0.3118  2.0278 -0.1582
  250SOL     OW  748   1.087   0.682   1.881 -0.1897  0.1162 -0.4664
  250SOL    HW1  749   1.127   0.614   1.951 -0.8191  0.6206 -1.0388
  250SOL    HW2  750   1.085   0.639   1.789 -0.8159  0.2693  1.2560
  251SOL     OW  751   0.044   1.625   2.520 -0.2739 -0.0039  0.9400
  251SOL    HW1  752   0.022   1.719   2.489 -2.1488 -0.9784  1.4580
  251SOL    HW2  753  -0.039   1.568   2.542 -0.1111 -0.1207 -2.2142
  252SOL     OW  754   1.611   0.819   1.570  0.2324 -0.5647  0.2625
  252SOL    HW1  755   1.699   0.809   1.528 -0.3819  0.7625  0.5008
  252SOL    HW2  756   1.609   0.883   1.648  0.4381  1.2188  0.4144
  253SOL     OW  757   1.008   1.567   0.546 -0.3356  0.4714  0.3088
  253SOL    HW1  758   0.996   1.493   0.471 -2.0181 -2.5400  0.0328
  253SOL    HW2  759   0.920   1.613   0.571  1.5618 -1.3923  0.9119
  254SOL     OW  760   2.040   2.171   1.633 -0.4646  0.4946  0.0249
  254SOL    HW1  761   2.005   2.110   1.558  0.5696  0.7431  0.1931
  254SOL    HW2  762   1.967   2.211   1.697  0.5639  0.9477  1.8611
  255SOL     OW  763   0.110   1.127   2.932  0.1678  0.3670  0.2361
  255SOL    HW1  764   0.166   1.217   2.916  4.7156  3.4567  1.6057
  255SOL    HW2  765   0.169   1.061   2.984  1.6431 -0.3383  0.9625
  256SOL     OW  766   2.826   1.405   1.770  0.6884 -0.1180 -0.0913
  256SOL    HW1  767   2.751   1.469   1.786  2.5023  0.1803  1.4756
  256SOL    HW2  768   2.803   1.305   1.789  1.2493  0.5426 -2.4665
  257SOL     OW  769   0.755   0.145   1.750 -0.2289 -0.2164 -0.2713
  257SOL    HW1  770   0.845   0.194   1.717 -0.8289  2.8723  0.3885
  257SOL    HW2  771   0.778   0.048   1.765  0.0728  0.5668 -2.2900
  258SOL     OW  772   3.013   1.237   0.443  0.1044 -0.2514  0.4978
  258SOL    HW1  773   2.948   1.307   0.403 -0.0787 -1.6406 -0.5924
  258SOL    HW2  774   3.042   1.267   0.536 -2.7290 -1.8717 -1.3232
  259SOL     OW  775   0.464   2.930   3.059 -0.0667 -0.1111 -0.2847
  259SOL    HW1  776   0.371   2.894   3.098 -1.6837 -1.2150  0.4689
  259SOL    HW2  777   0.491   2.882   2.968  0.9613  1.0652  2.2172
  260SOL     OW  778   2.755   0.734   2.796 -0.8504 -0.7795 -0.0246
  260SOL    HW1  779   2.657   0.741   2.757  0.3634  0.6062 -1.0349
  260SOL    HW2  780   2.771   0.732   2.898  1.6235 -1.1851  0.2612
  261SOL     OW  781   2.706   1.373   1.269 -0.2158  0.0840  0.7746
  261SOL    HW1  782   2.674   1.290   1.209 -0.0576  0.5989 -1.6310
  261SOL    HW2  783   2.793   1.347   1.321 -2.1826  1.5440  1.3909
  262SOL     OW  784   1.390   2.959   1.979 -0.0491  0.3948 -0.0726
  262SOL    HW1  785   1.418   3.035   1.915  1.0771  0.4678  3.2756
  262SOL    HW2  786   1.295   2.925   1.953  1.3395 -0.2895  0.7345
  263SOL     OW  787   0.853   0.679   2.357  0.0466 -0.5692 -0.5441
  263SOL    HW1  788   0.792   0.598   2.342  1.0072 -1.9147  1.8626
  263SOL    HW2  789   0.881   0.737   2.275 -0.7694  1.5675  2.2307
  264SOL     OW  790   2.208   0.817   0.446  0.8361 -0.6572 -0.6372
  264SOL    HW1  791   2.187   0.738   0.378 -3.2029 -1.9666  1.5852
  264SOL    HW2  792   2.310   0.839   0.455  1.9711  0.3184  1.4746
  265SOL     OW  793   0.954   2.452   2.615  0.1234  0.1951  0.4578
  265SOL    HW1  794   1.000   2.501   2.698  2.5765  0.6107  0.7568
  265SOL    HW2  795   0.925   2.356   2.641 -1.4595 -2.9801  1.7821
  266SOL     OW  796   1.309   1.769   3.068  0.3351  0.2138 -1.0036
  266SOL    HW1  797   1.336   1.834   3.140  1.1136 -1.3194 -1.7229
  266SOL    HW2  798   1.390   1.712   3.041  0.5264  1.6685  0.2785
  267SOL     OW  799   1.034   0.028   2.345  0.5817  0.0489 -0.1518
  267SOL    HW1  800   1.015  -0.044   2.272  0.9925 -0.0265  0.3320
  267SOL    HW2  801   0.964   0.108   2.345 -1.4599 -0.8347  2.1677
  268SOL     OW  802   0.613   1.156   1.044  0.2034 -0.2454  0.4638
  268SOL    HW1  803   0.641   1.210   1.123 -2.6070 -0.5373 -2.7931
  268SOL    HW2  804   0.608   1.222   0.960 -1.3541 -0.1170 -0.9524
  269SOL     OW  805   2.307   2.569   1.607 -0.4565 -0.4060  0.2524
  269SOL    HW1  806   2.365   2.486   1.619  2.4006  3.4494 -3.1465
  269SOL    HW2  807   2.264   2.593   1.696  0.1635 -0.8029 -0.4911
  270SOL     OW  808   0.170   2.950   1.988 -0.4534  0.6053 -0.6162
  270SOL    HW1  809   0.202   2.917   1.896 -0.0875  1.2273 -0.3441
  270SOL    HW2  810   0.107   2.884   2.035 -0.0211 -0.7217 -0.7035
  271SOL     OW  811   0.418   1.410   1.195  0.4089 -0.2472  0.2543
  271SOL    HW1  812   0.372   1.421   1.105  1.3647  0.3983  0.8427
  271SOL    HW2  813   0.352   1.373   1.263 -0.7747 -0.8492 -2.4672
  272SOL     OW  814   2.029   2.914   1.936  0.1443 -0.0579 -0.0416
  272SOL    HW1  815   1.945   2.876   1.887  3.8037  2.9925 -0.1115
  272SOL    HW2  816   2.096   2.955   1.867  1.9526 -0.4532 -2.9993
  273SOL     OW  817   1.479   1.443   2.738  0.1291  0.5777  0.0493
  273SOL    HW1  818   1.375   1.448   2.763  0.1970 -0.2788  1.6082
  273SOL    HW2  819   1.534   1.394   2.814  0.9786 -2.5116 -0.7282
  274SOL     OW  820   1.186   0.499   2.058  0.3905  0.1690 -0.1825
  274SOL    HW1  821   1.154   0.411   2.012  1.7830 -0.5885  1.2323
  274SOL    HW2  822   1.213   0.491   2.159 -0.4902 -0.2849  0.5159
  275SOL     OW  823   0.616   2.098   1.878  0.1989 -0.5151  0.1800
  275SOL    HW1  824   0.601   2.190   1.933 -1.0768  2.6289 -1.1807
  275SOL    HW2  825   0.545   2.024   1.901 -0.8423 -1.3991  0.4972
  276SOL     OW  826   2.209   1.030   2.730  0.3704  0.5372  0.4213
  276SOL    HW1  827   2.114   1.040   2.695  1.8269 -0.1114 -0.9029
  276SOL    HW2  828   2.218   0.979   2.822  0.7240  1.4357  0.7399
  277SOL     OW  829  -0.003   0.810   0.225  0.2708 -0.5325  0.2508
  277SOL    HW1  830   0.086   0.855   0.195 -1.0864 -0.5203  1.1734
  277SOL    HW2  831   0.015   0.729   0.285 -0.3060  1.9757  0.1046
  278SOL     OW  832   0.237   0.319   3.002  0.3004  0.1484 -0.6717
  278SOL    HW1  833   0.319   0.255   2.988 -0.8844  1.5301 -0.7644
  278SOL    HW2  834   0.266   0.408   3.041 -2.5140  0.0233  0.7398
  279SOL     OW  835   0.188   0.087   0.889  0.4486 -1.0406  0.4886
  279SOL    HW1  836   0.196   0.023   0.972 -0.1328  0.5312 -0.0152
  279SOL    HW2  837   0.224   0.046   0.801  3.3186 -0.2520  0.2323
  280SOL     OW  838   1.599   2.930   2.423  0.0645  0.8912  0.4305
  280SOL    HW1  839   1.631   2.993   2.499 -1.6698 -1.2282  0.7534
  280SOL    HW2  840   1.557   2.981   2.346 -0.7235 -2.3948  1.3331
  281SOL     OW  841   0.569   0.945   2.258  0.4495  0.0896  0.5479
  281SOL    HW1  842   0.557   0.862   2.194 -0.4310  1.3391  2.1110
  281SOL    HW2  843   0.506   0.936   2.339  0.2446  0.6329  0.3602
  282SOL     OW  844   1.779   2.504   0.510  0.0875 -0.0068 -0.2959
  282SOL    HW1  845   1.718   2.450   0.448 -1.1475 -1.1111  1.1946
  282SOL    HW2  846   1.732   2.580   0.561 -0.7356  1.2270  0.7796
  283SOL     OW  847   1.233   0.930   0.829  0.2359  0.1881 -0.2674
  283SOL    HW1  848   1.240   0.876   0.915  2.1263 -0.5414 -0.8879
  283SOL    HW2  849   1.172   1.011   0.828 -1.0079 -0.1795 -2.4162
  284SOL     OW  850   2.249   2.835   2.543 -0.4791  0.7655  0.0614
  284SOL    HW1  851   2.325   2.865   2.486 -4.5103 -1.7999 -0.4933
  284SOL    HW2  852   2.239   2.895   2.628  1.1740  2.2764  2.1026
  285SOL     OW  853   1.335   3.034   2.568  0.0039 -0.0482 -0.2302
  285SOL    HW1  854   1.344   3.019   2.470 -0.5216  0.4988  3.5646
  285SOL    HW2  855   1.242   3.063   2.602  0.0764  2.8614  1.4062
  286SOL     OW  856   0.440   0.427   0.717 -0.0732  0.1732 -0.2120
  286SOL    HW1  857   0.378   0.384   0.791 -1.5686  1.5133  1.6612
  286SOL    HW2  858   0.434   0.375   0.623  2.7784 -0.2763 -0.3579
  287SOL     OW  859   0.095   1.267   2.495 -0.2395 -0.7934  0.0059
  287SOL    HW1  860   0.055   1.201   2.562  4.1747 -0.4738 -1.7262
  287SOL    HW2  861   0.083   1.369   2.521  0.2887  3.6626 -3.6865
  288SOL     OW  862   1.595   2.651   1.620 -0.4560 -0.3782  0.0345
  288SOL    HW1  863   1.578   2.602   1.708  1.3814 -0.5657 -3.0916
  288SOL    HW2  864   1.639   2.597   1.549  1.1824 -1.1515 -1.5534
  289SOL     OW  865   0.630   2.734   0.866 -0.1774  0.4734 -0.0887
  289SOL    HW1  866   0.674   2.800   0.800 -0.9071 -0.2440 -1.1615
  289SOL    HW2  867   0.597   2.786   0.951 -1.4704  1.4684 -1.3449
  290SOL     OW  868   2.805   1.145   1.785 -0.1745  0.2117  0.3493
  290SOL    HW1  869   2.730   1.076   1.777 -0.7618  0.4238  1.5789
  290SOL    HW2  870   2.894   1.111   1.820 -3.4452 -0.2950 -0.2332
  291SOL     OW  871   2.003   0.015   0.015  0.0595  0.3670  0.0290
  291SOL    HW1  872   2.007   0.056   0.109 -0.0010 -0.9215  2.2115
  291SOL    HW2  873   2.072   0.042  -0.061  1.7355 -1.2036 -0.5311
  292SOL     OW  874   3.010   1.193   3.077  0.2323  0.4157 -0.5722
  292SOL    HW1  875   2.949   1.243   3.011  0.6050 -1.4176  1.7313
  292SOL    HW2  876   3.082   1.140   3.030 -1.9326 -0.5580  1.2608
  293SOL     OW  877   0.550   2.134   0.266  0.2009  0.6532  0.3442
  293SOL    HW1  878   0.526   2.211   0.322  0.4951 -0.6513  2.3280
  293SOL    HW2  879   0.652   2.107   0.267  2.6323  3.2751 -0.4662
  294SOL     OW  880   1.838   2.284   1.765 -0.0340 -0.1161  0.1454
  294SOL    HW1  881   1.856   2.345   1.852  1.6902 -0.1057  0.6940
  294SOL    HW2  882   1.771   2.324   1.697  0.7223 -1.0884 -3.4788
  295SOL     OW  883   0.970   1.072   0.428 -0.1085 -0.5656  0.2956
  295SOL    HW1  884   1.068   1.044   0.449  3.2272 -0.2030  0.9596
  295SOL    HW2  885   0.913   1.077   0.511  2.0490  0.5268 -0.3655
  296SOL     OW  886   1.181   2.125   2.601  0.5593 -0.2126  0.3493
  296SOL    HW1  887   1.088   2.165   2.590  1.0703 -2.1474 -2.2998
  296SOL    HW2  888   1.201   2.039   2.541  1.5266 -0.8821 -2.0308
  297SOL     OW  889   1.396   0.632   1.322 -0.4311 -0.2073 -0.1871
  297SOL    HW1  890   1.411   0.560   1.398  0.3895  0.9129 -1.3889
  297SOL    HW2  891   1.480   0.668   1.275 -0.8213 -0.5586 -5.4526
  298SOL     OW  892   0.502   1.358   2.988 -0.2211  0.3110 -0.2204
  298SOL    HW1  893   0.472   1.297   3.063  0.7133  2.3068  2.3710
  298SOL    HW2  894   0.552   1.309   2.904 -2.3538 -0.3996 -0.3466
  299SOL     OW  895   0.465   0.284   1.212  0.0419 -0.2045  0.0683
  299SOL    HW1  896   0.419   0.370   1.244  0.1526  1.3738  2.2107
  299SOL    HW2  897   0.530   0.250   1.286  0.5102  0.1642 -1.2687
  300SOL     OW  898   1.254   1.706   2.675  0.1067 -0.7952 -0.3970
  300SOL    HW1  899   1.239   1.606   2.713 -0.4058 -0.6841  2.4396
  300SOL    HW2  900   1.344   1.746   2.697 -0.4235  2.1136 -0.2542
  301SOL     OW  901   0.379   0.286   0.489 -0.6991  0.2778 -0.0011
  301SOL    HW1  902   0.277   0.281   0.500 -1.2591 -1.5884 -2.7624
  301SOL    HW2  903   0.419   0.233   0.414  0.9589 -0.2167  0.9362
  302SOL     OW  904   1.279   2.419   2.367  0.4919  0.1838 -0.1371
  302SOL    HW1  905   1.203   2.469   2.411  1.0050  3.1094 -0.1889
  302SOL    HW2  906   1.331   2.353   2.433 -2.3288 -1.3747 -0.3933
  303SOL     OW  907   0.950   2.391   0.796  0.1057  0.3138 -0.3350
  303SOL    HW1  908   1.001   2.453   0.727 -0.3348 -0.4245  1.4477
  303SOL    HW2  909   0.972   2.418   0.895 -3.0356  1.2114  0.7550
  304SOL     OW  910   0.102   1.953   0.671  0.0187  0.1022  0.1389
  304SOL    HW1  911   0.174   1.972   0.599  2.8238  0.1342 -0.5751
  304SOL    HW2  912   0.010   1.993   0.652  0.4559  1.6022  3.6774
  305SOL     OW  913   1.596   0.830   0.655 -0.4270  0.2735  0.2587
  305SOL    HW1  914   1.579   0.837   0.554  2.6992 -1.8518  0.5459
  305SOL    HW2  915   1.652   0.744   0.690 -0.9236 -0.9028 -0.3745
  306SOL     OW  916   0.439   1.881   1.892  0.6604 -0.2449  0.2426
  306SOL    HW1  917   0.525   1.831   1.868  1.3107 -0.1954  0.3403
  306SOL    HW2  918   0.429   1.892   1.993  1.7152 -0.2207  0.0033
  307SOL     OW  919   3.064   0.878   2.506  0.3266 -0.2444  0.2073
  307SOL    HW1  920   3.077   0.931   2.595  0.3595  0.6464 -0.3372
  307SOL    HW2  921   2.994   0.798   2.522 -0.3462  1.3489  1.9650
  308SOL     OW  922   1.559   2.674   2.785  0.5466  0.4069 -0.2266
  308SOL    HW1  923   1.549   2.637   2.692 -1.1851  1.5519  1.7628
  308SOL    HW2  924   1.508   2.609   2.850  2.9967 -3.0295 -1.0439
  309SOL     OW  925   1.276   0.205   1.770 -0.6228 -0.1689  0.3206
  309SOL    HW1  926   1.358   0.143   1.782 -1.8380  0.5919 -2.9445
  309SOL    HW2  927   1.218   0.173   1.689 -1.4031 -0.4937 -0.9810
  310SOL     OW  928   1.528   2.568   0.690 -0.2176 -0.5023 -0.3092
  310SOL    HW1  929   1.474   2.568   0.782  0.0895 -1.5113  1.1340
  310SOL    HW2  930   1.551   2.663   0.663  1.2992  1.8668  4.2605
  311SOL     OW  931   1.157   0.913   1.694 -0.1682 -0.1852  0.6659
  311SOL    HW1  932   1.121   0.842   1.760 -1.9007 -1.3772  0.9668
  311SOL    HW2  933   1.183   0.873   1.599  0.2293 -0.5704 -1.1647
  312SOL     OW  934   1.571   0.743   1.146 -0.0261  0.4226  0.2719
  312SOL    HW1  935   1.586   0.838   1.122 -0.7791 -0.8160 -0.5262
  312SOL    HW2  936   1.530   0.693   1.069 -2.0375 -0.0340  1.4786
  313SOL     OW  937   1.582   1.408   0.701  0.1766  0.0879 -0.0026
  313SOL    HW1  938   1.513   1.472   0.750  2.4292  0.6904 -0.9091
  313SOL    HW2  939   1.546   1.308   0.698  0.5478 -3.9903  1.4130
  314SOL     OW  940   2.968   0.042   3.040 -0.1390 -0.5629  0.7803
  314SOL    HW1  941   2.980   0.034   3.145 -1.1968  0.8961 -0.2239
  314SOL    HW2  942   2.874  -0.002   3.020  1.2613 -0.1349  1.8091
  315SOL     OW  943   1.121   0.233   2.823 -0.4053  0.2255 -0.3880
  315SOL    HW1  944   1.104   0.162   2.749 -0.7655  1.8504 -1.3572
  315SOL    HW2  945   1.130   0.196   2.919  0.2971 -1.3621  1.5311
  316SOL     OW  946   1.769   2.066   0.954 -0.1272 -0.2477  0.1676
  316SOL    HW1  947   1.709   2.049   1.041 -1.4674  2.0494 -2.2286
  316SOL    HW2  948   1.736   2.139   0.890 -0.1873  0.4103 -0.3833
  317SOL     OW  949   1.195   0.675   2.821  0.0316 -0.3255  0.3014
  317SOL    HW1  950   1.154   0.736   2.893  1.8551 -1.1533  3.6116
  317SOL    HW2  951   1.124   0.600   2.782 -1.8719 -0.8765 -0.3359
  318SOL     OW  952   1.412   3.019   2.244  0.5643 -0.0508 -0.5972
  318SOL    HW1  953   1.362   3.109   2.247 -1.4745 -0.7539 -2.1070
  318SOL    HW2  954   1.408   2.976   2.151  0.6913  0.1712 -0.6458
  319SOL     OW  955   0.585   2.423   2.920  0.0636 -0.2776 -0.4849
  319SOL    HW1  956   0.550   2.358   2.992 -0.7891  0.9431 -1.9966
  319SOL    HW2  957   0.664   2.382   2.872 -3.3598  1.4730  0.0054
  320SOL     OW  958   1.681   2.243   0.410  0.5019 -0.4440  0.4946
  320SOL    HW1  959   1.766   2.193   0.410 -0.6822 -1.4165 -0.9051
  320SOL    HW2  960   1.594   2.190   0.443  0.7075 -0.2325  0.7319
  321SOL     OW  961   1.673   2.782   0.572  0.1451  0.1743 -0.3120
  321SOL    HW1  962   1.602   2.791   0.494  2.8789  0.4257  0.9860
  321SOL    HW2  963   1.766   2.824   0.545  0.2601  0.2108 -1.4584
  322SOL     OW  964   2.585   1.131   2.327  0.1743 -0.1383 -0.3154
  322SOL    HW1  965   2.658   1.152   2.395  1.0941 -1.5829 -1.2776
  322SOL    HW2  966   2.534   1.045   2.353 -0.5089 -2.1353 -0.4508
  323SOL     OW  967   1.186   2.696   0.868 -0.5658  0.2057 -0.7552
  323SOL    HW1  968   1.156   2.653   0.780 -0.8445  1.0058  2.1991
  323SOL    HW2  969   1.116   2.772   0.898 -1.6932 -1.7633  1.5324
  324SOL     OW  970   0.267   2.447   2.498 -0.0784  0.7946  0.7801
  324SOL    HW1  971   0.269   2.377   2.575 -2.3566  1.6873 -0.6873
  324SOL    HW2  972   0.239   2.543   2.524  2.0051 -0.7170 -2.8052
  325SOL     OW  973   1.265   3.053   0.448 -0.0618 -0.6713 -0.2657
  325SOL    HW1  974   1.307   3.089   0.362 -2.0960 -0.0179  1.2246
  325SOL    HW2  975   1.286   3.110   0.534 -2.2287 -1.1965 -1.7751
  326SOL     OW  976   2.445   0.782   0.003 -0.2236 -0.1209 -0.5148
  326SOL    HW1  977   2.371   0.714  -0.019  1.8438 -0.2539  2.4030
  326SOL    HW2  978   2.521   0.728   0.057  0.0824 -0.4414 -1.6686
  327SOL     OW  979   2.819   0.308   0.618 -0.1083  0.5710 -0.7761
  327SOL    HW1  980   2.811   0.265   0.525 -1.6885 -2.2195  2.5432
  327SOL    HW2  981   2.848   0.242   0.699 -1.5350 -1.8104 -2.4041
  328SOL     OW  982   2.592   0.576   0.399 -0.1445  0.3254 -0.0601
  328SOL    HW1  983   2.550   0.671   0.419  1.5189  0.1001  0.5413
  328SOL    HW2  984   2.559   0.498   0.466  0.7435  0.2137  2.5801
  329SOL     OW  985   2.941   2.951   2.162 -0.7758 -0.2890 -0.2453
  329SOL    HW1  986   3.016   2.896   2.213 -0.5941 -2.9403 -0.5328
  329SOL    HW2  987   2.951   3.056   2.171  0.4747  1.4194  1.3680
  330SOL     OW  988   0.535   0.217   1.888  0.3784 -0.2474 -0.2849
  330SOL    HW1  989   0.617   0.205   1.828  2.6700  2.6276 -1.5598
  330SOL    HW2  990   0.531   0.137   1.948  0.5691 -1.4047  1.0847
  331SOL     OW  991   2.997   1.962   1.104  0.3430  0.0971 -0.0016
  331SOL    HW1  992   2.984   2.054   1.059 -2.0878  0.1800 -2.2504
  331SOL    HW2  993   2.926   1.939   1.177  2.4932 -2.5114 -0.7815
  332SOL     OW  994   0.407   1.187   0.082 -0.0343  0.3386  0.2613
  332SOL    HW1  995   0.363   1.106   0.035  1.7040  3.7345  1.4902
  332SOL    HW2  996   0.358   1.209   0.170 -3.0678 -1.4602 -1.4376
  333SOL     OW  997   2.920   1.047   0.247  0.6551 -0.2676 -0.2369
  333SOL    HW1  998   2.972   1.096   0.321 -0.6884 -2.9254  0.5519
  333SOL    HW2  999   2.968   0.970   0.204 -1.5887  2.5381  0.1495
  334SOL     OW 1000   1.716   1.280   1.824 -0.6500  0.0380 -0.1219
  334SOL    HW1 1001   1.801   1.270   1.760  1.2471 -1.6263 -1.4223
  334SOL    HW2 1002   1.745   1.303   1.921 -1.0132  0.4592  1.6509
  335SOL     OW 1003   2.003   2.712   2.586 -0.0266  0.1409 -0.3682
  335SOL    HW1 1004   1.950   2.710   2.673  1.6493  0.6860  0.7833
  335SOL    HW2 1005   2.091   2.762   2.587 -1.3183  1.2499 -1.7652
  336SOL     OW 1006   0.241   0.089   2.712  0.3239 -0.1183 -0.0931
  336SOL    HW1 1007   0.320   0.071   2.779 -1.2997 -0.0709  1.0214
  336SOL    HW2 1008   0.153   0.046   2.747  0.1086 -1.2831  2.0542
  337SOL     OW 1009   1.012   2.872   2.862 -0.7554 -0.3787  0.6991
  337SOL    HW1 1010   0.938   2.852   2.929  3.2731 -1.1108  0.6197
  337SOL    HW2 1011   1.093   2.922   2.912 -1.1560  1.2504 -0.1386
  338SOL     OW 1012   0.071   1.017   0.662  0.3090  0.0601  0.1498
  338SOL    HW1 1013  -0.032   0.993   0.675  1.4848 -2.6164  1.3359
  338SOL    HW2 1014   0.082   1.120   0.649  0.9552  0.6969  1.4989
  339SOL     OW 1015   1.712   1.320   2.097  0.3633 -0.3042  0.5375
  339SOL    HW1 1016   1.609   1.313   2.107 -2.8961  1.6077 -2.0533
  339SOL    HW2 1017   1.755   1.412   2.076  1.5779  0.0033 -1.0908
  340SOL     OW 1018   2.292   0.785   1.152 -0.4279 -0.4333  0.3943
  340SOL    HW1 1019   2.191   0.767   1.134  2.1231 -1.1775  0.5937
  340SOL    HW2 1020   2.348   0.717   1.101  1.0133 -0.4690  0.7364
  341SOL     OW 1021   1.916   2.092   0.290  0.2150 -0.1330  0.0971
  341SOL    HW1 1022   1.926   2.150   0.206 -1.1607 -1.2386 -0.5324
  341SOL    HW2 1023   2.005   2.083   0.345  2.9910 -0.4361 -0.7682
  342SOL     OW 1024   2.193   2.117   2.793 -0.4454  0.3980 -0.2068
  342SOL    HW1 1025   2.225   2.039   2.855  0.9120  2.7211 -0.6177
  342SOL    HW2 1026   2.090   2.129   2.793  0.3583 -0.7481  2.8165
  343SOL     OW 1027   0.368   0.830   2.779 -0.1169 -0.0898  1.1385
  343SOL    HW1 1028   0.402   0.811   2.686 -1.8233 -2.0706 -0.0688
  343SOL    HW2 1029   0.452   0.833   2.841  0.7324 -1.7861 -1.7480
  344SOL     OW 1030   1.939   1.467   0.433 -0.6177 -0.0126 -0.0251
  344SOL    HW1 1031   1.931   1.378   0.378 -0.3493  0.1751 -2.1388
  344SOL    HW2 1032   1.850   1.514   0.460 -0.4935 -0.3087  0.8539
  345SOL     OW 1033   1.414   2.255   2.903  0.0763 -0.2591 -0.7578
  345SOL    HW1 1034   1.315   2.244   2.875 -1.1317  0.6745  1.0734
  345SOL    HW2 1035   1.478   2.186   2.861  1.0633  1.9379  0.0682
  346SOL     OW 1036   2.350   0.887   1.397  0.4037 -0.5057 -0.1600
  346SOL    HW1 1037   2.313   0.985   1.405 -2.0031  0.7114 -0.8302
  346SOL    HW2 1038   2.317   0.835   1.311  1.7638  1.5087  0.5140
  347SOL     OW 1039   0.746   2.726   1.612  0.1404 -0.1620  0.4552
  347SOL    HW1 1040   0.690   2.723   1.697 -0.5933  2.7637 -2.2511
  347SOL    HW2 1041   0.731   2.818   1.560  0.8544  0.6538 -1.3830
  348SOL     OW 1042   0.172   0.713   2.919 -0.0541  0.5987 -0.4005
  348SOL    HW1 1043   0.079   0.717   2.874  3.7898 -1.1023  0.9859
  348SOL    HW2 1044   0.250   0.751   2.858  0.2390 -1.9740  0.3016
  349SOL     OW 1045   1.871   0.442   2.787  0.3167 -0.6113 -0.4685
  349SOL    HW1 1046   1.861   0.540   2.751  0.9927  0.6060  1.5147
  349SOL    HW2 1047   1.859   0.446   2.894  1.3846 -2.4789 -1.2312
  350SOL     OW 1048   1.649   0.425   0.388 -0.3558 -0.3366 -0.0336
  350SOL    HW1 1049   1.724   0.424   0.459  2.5256 -2.1110 -0.6846
  350SOL    HW2 1050   1.635   0.520   0.345 -0.4672  1.4126 -0.1257
  351SOL     OW 1051   0.982   0.803   2.120  0.2526  0.4098 -0.5828
  351SOL    HW1 1052   1.033   0.893   2.117 -1.9936  0.0437 -0.8356
  351SOL    HW2 1053   1.003   0.747   2.036  1.0019 -2.8593  0.1799
  352SOL     OW 1054   2.044   1.337   0.652  0.9938  0.4374  0.2118
  352SOL    HW1 1055   2.008   1.411   0.584 -0.6004  1.3004  1.5899
  352SOL    HW2 1056   1.962   1.310   0.710 -2.1020 -1.8888 -0.6921
  353SOL     OW 1057   2.142   2.795   1.104 -0.1567  0.8297 -0.0860
  353SOL    HW1 1058   2.216   2.745   1.163  0.6071 -1.0592  1.5847
  353SOL    HW2 1059   2.072   2.719   1.077 -1.9617  1.0692 -0.9436
  354SOL     OW 1060   0.240   1.367   2.874 -0.3615  0.1799 -0.5137
  354SOL    HW1 1061   0.224   1.441   2.804 -3.2023 -0.1009  0.6492
  354SOL    HW2 1062   0.331   1.359   2.916 -1.3548  1.9102  0.1598
  355SOL     OW 1063   0.707   1.597   0.579  0.5495  0.1234 -0.3982
  355SOL    HW1 1064   0.677   1.538   0.662 -0.6999 -0.0735 -1.1658
  355SOL    HW2 1065   0.723   1.532   0.497 -0.1953  0.4895 -3.4841
  356SOL     OW 1066   0.803   0.337   2.042 -0.3700 -0.1696  0.3268
  356SOL    HW1 1067   0.902   0.303   2.021  2.4370 -2.6275  0.3381
  356SOL    HW2 1068   0.750   0.364   1.959 -1.4787  2.1410 -3.4807
  357SOL     OW 1069   1.024   1.325   0.310 -0.4719 -0.1527 -0.2564
  357SOL    HW1 1070   1.127   1.328   0.313  0.0660  0.4736  1.7798
  357SOL    HW2 1071   0.981   1.239   0.339 -1.3517  1.5582  0.8958
  358SOL     OW 1072   1.668   1.547   0.480 -0.7490  0.0367 -0.3340
  358SOL    HW1 1073   1.636   1.503   0.568  2.5628  0.6320 -1.6549
  358SOL    HW2 1074   1.606   1.524   0.406  2.9637 -3.4211  1.5831
  359SOL     OW 1075   1.569   2.637   0.212 -0.1327 -0.7253 -0.1675
  359SOL    HW1 1076   1.567   2.539   0.190  1.7339  0.9230  3.7272
  359SOL    HW2 1077   1.497   2.671   0.282  0.4731  0.4608  1.7264
  360SOL     OW 1078   0.787   0.581   0.526  0.0761 -0.4958  0.1247
  360SOL    HW1 1079   0.687   0.584   0.499  1.5397 -0.2286  0.5019
  360SOL    HW2 1080   0.818   0.480   0.551 -1.5257  0.9972  0.8242
  361SOL     OW 1081   1.250   1.303   0.667  0.3708  0.1657  0.0405
  361SOL    HW1 1082   1.297   1.355   0.743 -1.3999  0.4355 -1.5721
  361SOL    HW2 1083   1.148   1.322   0.669  1.7555  1.4335 -0.6250
  362SOL     OW 1084   1.382   1.812   0.821 -0.0334 -0.4440 -0.3136
  362SOL    HW1 1085   1.435   1.737   0.872  0.2039 -1.8492 -2.3947
  362SOL    HW2 1086   1.450   1.866   0.763 -0.3711 -0.7215 -0.4374
  363SOL     OW 1087   1.230   1.332   2.050  0.1399  0.1248  0.1289
  363SOL    HW1 1088   1.315   1.384   2.088 -0.0455  3.3111 -1.3855
  363SOL    HW2 1089   1.187   1.380   1.967  2.0918  2.0091 -0.4694
  364SOL     OW 1090   0.530   2.327   1.983 -0.3537  0.2663  0.4365
  364SOL    HW1 1091   0.430   2.351   1.994  1.1262 -0.8463  1.4786
  364SOL    HW2 1092   0.570   2.363   1.894  0.1706 -0.1238 -0.6322
  365SOL     OW 1093   0.982   1.972   1.337 -0.1567  0.4066 -0.4949
  365SOL    HW1 1094   0.885   1.970   1.380  0.1176 -1.1674  1.0038
  365SOL    HW2 1095   0.976   2.004   1.238 -1.3471 -0.4842  1.0766
  366SOL     OW 1096   2.831   1.952   0.387  0.2053 -0.1216 -0.1183
  366SOL    HW1 1097   2.731   1.929   0.415  0.9631  0.6157 -1.2730
  366SOL    HW2 1098   2.882   1.871   0.342 -0.0268 -1.5351 -0.4507
  367SOL     OW 1099   0.881   1.140   3.090  0.0144 -0.0126 -0.3299
  367SOL    HW1 1100   0.914   1.061   3.150 -0.5934  2.8469 -0.4386
  367SOL    HW2 1101   0.953   1.211   3.070 -1.0520  0.5395 -0.6775
  368SOL     OW 1102   1.446   0.554   0.664  0.4589 -0.7092 -0.5752
  368SOL    HW1 1103   1.383   0.601   0.591 -1.3196 -1.9724  0.7811
  368SOL    HW2 1104   1.550   0.575   0.672  0.3349 -2.5051  0.7836
  369SOL     OW 1105   0.363   1.680   0.105  0.1519 -0.1961  0.4370
  369SOL    HW1 1106   0.405   1.738   0.179  1.0999  0.7062  2.2972
  369SOL    HW2 1107   0.271   1.642   0.139 -1.0798  0.0780  1.9020
  370SOL     OW 1108   0.421   2.034   1.025  0.1771 -0.2022  0.6416
  370SOL    HW1 1109   0.436   2.137   1.015 -2.3629  0.7025 -1.4624
  370SOL    HW2 1110   0.316   2.005   1.019 -0.4831 -1.3016  1.3848
  371SOL     OW 1111   2.911   2.207   2.646 -0.4588 -0.2921  0.3019
  371SOL    HW1 1112   2.854   2.167   2.726  1.6735  2.7507  0.4108
  371SOL    HW2 1113   3.009   2.235   2.672 -1.5922  0.3963 -0.5570
  372SOL     OW 1114   1.040   2.013   1.054 -0.1131  0.0118  0.2315
  372SOL    HW1 1115   0.968   2.052   0.990 -2.0397 -0.1001 -0.2077
  372SOL    HW2 1116   1.133   2.056   1.038  1.1911 -1.8324 -0.9762
  373SOL     OW 1117   1.993   1.958   0.840 -0.5823 -0.5491 -0.6038
  373SOL    HW1 1118   2.072   1.964   0.904 -1.3661  2.7880  0.2594
  373SOL    HW2 1119   1.911   2.002   0.883  1.6298  0.8027  2.3064
  374SOL     OW 1120   1.865   0.398   0.570 -0.3845 -0.4133 -0.1033
  374SOL    HW1 1121   1.845   0.327   0.641 -1.3767  1.3848  1.8347
  374SOL    HW2 1122   1.972   0.408   0.550  4.4433  1.3402 -2.2242
  375SOL     OW 1123   2.391   2.149   1.074  0.1354  0.4932 -0.3611
  375SOL    HW1 1124   2.448   2.156   0.985  0.7029 -3.5608 -0.9245
  375SOL    HW2 1125   2.446   2.101   1.152 -0.3975 -1.9526  0.6287
  376SOL     OW 1126   3.057   0.571   1.497 -0.6067  0.0220  0.6167
  376SOL    HW1 1127   3.072   0.650   1.563 -1.5478  1.0204 -0.0949
  376SOL    HW2 1128   3.004   0.494   1.534 -1.2536 -0.7210 -0.1951
  377SOL     OW 1129   2.173   2.922   0.281 -0.7252  0.0979 -0.0636
  377SOL    HW1 1130   2.189   3.021   0.295 -0.0681 -2.7615  2.3571
  377SOL    HW2 1131   2.259   2.868   0.302 -1.4169 -1.9773 -0.2840
  378SOL     OW 1132   1.795   1.859   2.620 -0.2866 -0.0562 -0.1857
  378SOL    HW1 1133   1.842   1.841   2.709 -2.6210  3.1359 -0.3332
  378SOL    HW2 1134   1.806   1.788   2.544 -4.6153 -1.4469 -0.1569
  379SOL     OW 1135   0.698   0.102   2.883 -0.0788 -0.4316 -0.2515
  379SOL    HW1 1136   0.713   0.022   2.821  0.9022  2.0093  2.2492
  379SOL    HW2 1137   0.729   0.188   2.834  1.0662  0.9497  1.3157
  380SOL     OW 1138   1.518   1.141   0.620  0.1734  0.1705  0.1397
  380SOL    HW1 1139   1.419   1.176   0.614  0.7492 -1.1309  1.0694
  380SOL    HW2 1140   1.518   1.044   0.646  0.0843  1.3074 -0.6452
  381SOL     OW 1141   1.338   1.182   1.525  0.0170 -0.0094  0.0189
  381SOL    HW1 1142   1.400   1.160   1.444 -0.0925 -1.5252 -0.4557
  381SOL    HW2 1143   1.341   1.104   1.595  0.9686  0.0579 -1.7666
  382SOL     OW 1144   1.776   0.863   0.176  0.0663  0.0714 -0.1140
  382SOL    HW1 1145   1.817   0.857   0.080  1.1351  1.3740 -0.1373
  382SOL    HW2 1146   1.841   0.882   0.255  0.3236  1.3301  1.3460
  383SOL     OW 1147   2.596   1.028   1.457 -0.0441 -0.3965 -0.4103
  383SOL    HW1 1148   2.504   0.984   1.443 -2.5641  1.0392  0.3911
  383SOL    HW2 1149   2.666   0.993   1.395 -1.6013 -1.6295  3.9878
  384SOL     OW 1150   0.987   2.269   0.119  0.2953 -0.3559 -0.0679
  384SOL    HW1 1151   0.941   2.356   0.152 -1.5431  0.0401  0.9431
  384SOL    HW2 1152   0.992   2.195   0.194  0.0262 -2.8393  0.2266
  385SOL     OW 1153   3.022   2.057   1.643 -0.3249  0.0563  0.0077
  385SOL    HW1 1154   3.102   2.118   1.646 -2.7089 -3.7159  1.4307
  385SOL    HW2 1155   3.051   1.957   1.651  1.6949  1.5818  1.8259
  386SOL     OW 1156   0.484   1.079   0.419 -0.0763 -0.5828  0.2540
  386SOL    HW1 1157   0.485   0.980   0.451 -0.7035 -1.0243 -0.0636
  386SOL    HW2 1158   0.390   1.120   0.397  3.1820  1.3526  0.4663
  387SOL     OW 1159   0.970   0.291   1.668  0.5031 -0.0635  0.5691
  387SOL    HW1 1160   1.041   0.363   1.688 -1.7098 -0.9654  0.9897
  387SOL    HW2 1161   0.934   0.291   1.571 -2.0928  0.9488  0.7965
  388SOL     OW 1162   1.199   2.689   1.733  0.0016 -0.0249  0.1853
  388SOL    HW1 1163   1.214   2.695   1.628  1.9413  2.2936  0.4403
  388SOL    HW2 1164   1.235   2.604   1.784 -1.2261  0.1362  1.7701
  389SOL     OW 1165   0.199   3.006   1.120 -0.0251  0.9580  0.7517
  389SOL    HW1 1166   0.132   2.998   1.196  2.9856  2.8274  1.1296
  389SOL    HW2 1167   0.240   2.917   1.095  1.0754  1.2449 -2.7105
  390SOL     OW 1168   1.015   0.962   1.350  0.1447  0.6695 -0.3789
  390SOL    HW1 1169   1.112   0.943   1.377 -0.1423  1.9366 -0.4592
  390SOL    HW2 1170   0.976   1.046   1.402 -0.8321  3.8917 -0.8905
  391SOL     OW 1171   2.145   1.085   1.078 -0.1222 -0.0344  0.0723
  391SOL    HW1 1172   2.083   1.013   1.106  3.8080  0.3972  1.0425
  391SOL    HW2 1173   2.167   1.075   0.975 -0.9806 -0.8472 -0.0578
  392SOL     OW 1174   0.856   2.751   0.003 -0.2547 -0.0714 -0.1473
  392SOL    HW1 1175   0.904   2.661  -0.016  1.3748 -0.0535 -0.6694
  392SOL    HW2 1176   0.917   2.815   0.051 -4.2307 -2.7103 -0.8391
  393SOL     OW 1177   0.349   0.525   2.007  0.5629 -0.2622  0.0600
  393SOL    HW1 1178   0.290   0.452   1.971  3.3456  0.8864 -0.4183
  393SOL    HW2 1179   0.428   0.560   1.944  0.9203  0.1407 -1.4087
  394SOL     OW 1180   3.066   1.827   2.809 -0.4603 -0.2764 -0.3864
  394SOL    HW1 1181   3.140   1.782   2.869 -3.2942  1.3014  1.6600
  394SOL    HW2 1182   3.093   1.925   2.785  1.2296  1.2349 -0.1660
  395SOL     OW 1183   1.627   1.952   0.682  0.4044  0.4795 -0.0955
  395SOL    HW1 1184   1.687   1.912   0.606  0.8948  0.8867 -1.1357
  395SOL    HW2 1185   1.686   1.983   0.762  1.0296 -0.7826  2.2563
  396SOL     OW 1186   2.845   1.871   1.297  0.2053 -0.0547 -0.1019
  396SOL    HW1 1187   2.777   1.813   1.245 -0.3400  0.9848  0.6758
  396SOL    HW2 1188   2.797   1.926   1.379 -0.6380  0.0772  0.9962
  397SOL     OW 1189   1.041   2.245   0.505 -0.1464 -0.4289  0.0313
  397SOL    HW1 1190   0.967   2.181   0.537 -0.4135  1.3990 -1.8931
  397SOL    HW2 1191   1.031   2.341   0.550 -0.1341  2.2785  0.3294
  398SOL     OW 1192   2.136   3.045   1.008  0.1777  0.0458 -0.3375
  398SOL    HW1 1193   2.115   2.951   1.044 -0.7399  0.6015  1.3406
  398SOL    HW2 1194   2.089   3.121   1.072  0.0246  1.1407 -0.7333
  399SOL     OW 1195   3.027   2.514   2.536  0.5034 -0.4569 -0.8226
  399SOL    HW1 1196   2.935   2.514   2.486  1.1745 -0.7799 -1.3307
  399SOL    HW2 1197   3.040   2.427   2.591 -2.2645 -2.1347  5.0637
  400SOL     OW 1198   0.774   1.622   1.340 -0.2700 -0.2071  0.4770
  400SOL    HW1 1199   0.728   1.658   1.425 -0.1613  1.3736 -3.9599
  400SOL    HW2 1200   0.744   1.679   1.257  3.6518  1.4211 -3.1160
  401SOL     OW 1201   1.794   0.086   1.358 -0.1119  0.3008 -0.7485
  401SOL    HW1 1202   1.851   0.128   1.437 -2.2494 -0.1734  1.2457
  401SOL    HW2 1203   1.694   0.118   1.362 -1.3911  0.9461 -0.8565
  402SOL     OW 1204   1.322   0.141   3.047  0.1054  0.0424  0.6546
  402SOL    HW1 1205   1.424   0.139   3.017  0.3722 -0.4965 -2.0248
  402SOL    HW2 1206   1.295   0.239   3.048  0.0390 -0.1339  0.6825
  403SOL     OW 1207   2.321   1.780   0.880  0.1540 -0.3698 -0.1159
  403SOL    HW1 1208   2.413   1.756   0.915 -1.0574  0.3461 -0.5991
  403SOL    HW2 1209   2.261   1.849   0.935  1.6935  0.2873  0.5553
  404SOL     OW 1210   0.187   2.512   2.809 -0.0187  0.5908 -0.3591
  404SOL    HW1 1211   0.284   2.486   2.821  0.8686 -1.1545  0.6527
  404SOL    HW2 1212   0.171   2.615   2.823 -2.1435  0.3941  0.2188
  405SOL     OW 1213   0.166   2.403   0.664  0.1155  0.0855  0.1776
  405SOL    HW1 1214   0.116   2.407   0.573  0.7797  2.3793 -1.7545
  405SOL    HW2 1215   0.223   2.493   0.677  0.0231 -0.8664  3.9565
  406SOL     OW 1216   0.010   1.491   3.024  0.7962  0.6393  0.1575
  406SOL    HW1 1217   0.055   1.400   3.039 -0.3153 -2.4534  1.8600
  406SOL    HW2 1218   0.075   1.575   3.020  1.2386 -1.1117  0.3595
  407SOL     OW 1219   1.579   0.961   0.887  0.0014  0.1486 -0.2268
  407SOL    HW1 1220   1.560   0.896   0.806 -1.2403 -2.8748  0.4736
  407SOL    HW2 1221   1.490   1.011   0.916  3.0520 -3.5722  1.6177
  408SOL     OW 1222   1.577   2.323   0.939  0.2088  0.0061  0.0569
  408SOL    HW1 1223   1.651   2.323   0.863 -0.0891  1.9932  1.6068
  408SOL    HW2 1224   1.524   2.414   0.944 -3.8282  0.8502 -0.2166
  409SOL     OW 1225   0.648   0.844   0.676 -0.7755  0.1413 -0.4716
  409SOL    HW1 1226   0.589   0.843   0.590 -0.2758 -1.0933  1.3397
  409SOL    HW2 1227   0.646   0.759   0.732 -1.1712 -0.9767  1.3554
  410SOL     OW 1228   1.262   2.054   1.434  0.3974  0.2877 -0.6631
  410SOL    HW1 1229   1.325   1.979   1.471  1.7277 -0.9396 -1.3983
  410SOL    HW2 1230   1.170   2.022   1.417 -1.5729  0.0052  2.2493
  411SOL     OW 1231   2.508   1.856   3.099  0.2741 -0.0310 -0.5855
  411SOL    HW1 1232   2.438   1.894   3.033  1.4115  0.6576  0.2394
  411SOL    HW2 1233   2.587   1.813   3.048  0.2958 -0.1721  0.0863
  412SOL     OW 1234   1.463   2.511   2.192 -0.0597 -0.7440  0.1625
  412SOL    HW1 1235   1.485   2.603   2.235  0.9588 -2.6578  1.6842
  412SOL    HW2 1236   1.392   2.458   2.251 -1.6552 -1.0704 -0.3264
  413SOL     OW 1237   3.078   0.284   2.966 -0.2409  0.3080  0.2501
  413SOL    HW1 1238   3.038   0.190   2.985  1.1549 -1.3807 -0.9935
  413SOL    HW2 1239   3.185   0.297   2.955  0.9329  0.5955 -0.5214
  414SOL     OW 1240   1.824   1.488   1.238 -0.0072  0.6222  0.1930
  414SOL    HW1 1241   1.753   1.553   1.276 -4.1299  2.5037  0.1253
  414SOL    HW2 1242   1.790   1.419   1.165  2.5653  0.4283 -0.9599
  415SOL     OW 1243   0.319   2.167   0.731  0.4257 -0.0178 -0.3890
  415SOL    HW1 1244   0.271   2.257   0.702  0.6820 -0.4215  0.2856
  415SOL    HW2 1245   0.300   2.146   0.827 -0.4938 -0.2106 -0.9789
  416SOL     OW 1246   0.332   1.006   1.039  0.0583  0.3971  0.4458
  416SOL    HW1 1247   0.335   0.966   0.940  1.5184 -3.2154  1.0994
  416SOL    HW2 1248   0.401   1.082   1.047  0.5238 -2.6719 -0.5972
  417SOL     OW 1249   2.169   2.287   1.927  0.6602  0.1282  0.1001
  417SOL    HW1 1250   2.257   2.244   1.960  0.8078  0.3972 -1.6034
  417SOL    HW2 1251   2.097   2.219   1.891 -0.6623 -1.6981  0.6286
  418SOL     OW 1252   1.124   0.509   1.338 -0.5342  0.0440  0.4201
  418SOL    HW1 1253   1.039   0.505   1.278 -1.1768  0.8939  1.9973
  418SOL    HW2 1254   1.216   0.521   1.287  2.6389  0.1033 -3.5459
  419SOL     OW 1255   0.927   0.412   3.003 -0.1735  0.7417  0.0638
  419SOL    HW1 1256   0.920   0.395   2.903  0.9288 -1.1447  0.7039
  419SOL    HW2 1257   0.948   0.511   3.014 -0.9533 -1.6737 -0.7851
  420SOL     OW 1258   0.068   2.255   0.434 -0.6180 -0.5171  0.0041
  420SOL    HW1 1259   0.078   2.206   0.343  0.1928 -0.8918  1.4414
  420SOL    HW2 1260   0.016   2.201   0.505  1.1976  1.1405  2.1050
  421SOL     OW 1261   0.377   2.973   0.691  0.3224  0.6726 -0.3923
  421SOL    HW1 1262   0.357   2.945   0.786 -0.3391  1.2275 -2.4471
  421SOL    HW2 1263   0.456   3.043   0.679 -0.4010 -0.2209  1.3426
  422SOL     OW 1264   1.038   2.513   1.025  0.4025 -0.7195 -0.0113
  422SOL    HW1 1265   1.113   2.563   0.974 -2.0068  0.3929  0.3043
  422SOL    HW2 1266   1.040   2.554   1.120  1.2284  1.9434 -1.4029
  423SOL     OW 1267   0.081   0.669   1.254  0.0558 -0.5808 -0.1618
  423SOL    HW1 1268   0.021   0.646   1.336 -2.0818 -2.7887 -0.5048
  423SOL    HW2 1269   0.080   0.773   1.228  0.0297  4.2531  0.3534
  424SOL     OW 1270   1.016   2.220   2.027 -0.4718 -0.0312 -0.1200
  424SOL    HW1 1271   0.989   2.319   1.999  0.5492  1.8948 -1.5214
  424SOL    HW2 1272   0.975   2.187   2.117 -0.0176 -2.4761 -1.7491
  425SOL     OW 1273   1.993   1.376   0.976  0.2315 -0.6251  0.0847
  425SOL    HW1 1274   2.032   1.289   1.020  0.8294 -0.6166 -0.2486
  425SOL    HW2 1275   2.070   1.440   0.945  0.3357  2.9428  1.0529
  426SOL     OW 1276   1.541   1.610   1.376 -0.2877  0.4385 -0.0029
  426SOL    HW1 1277   1.494   1.697   1.333 -2.1238  0.6284 -1.2494
  426SOL    HW2 1278   1.493   1.582   1.461  1.1303  0.0602 -0.4073
  427SOL     OW 1279   1.881   2.377   2.044  0.3630  0.5361 -0.2145
  427SOL    HW1 1280   1.933   2.318   2.113 -0.2609 -2.6426  1.4195
  427SOL    HW2 1281   1.903   2.476   2.057 -0.3117 -0.3744  0.6778
  428SOL     OW 1282   0.875   2.983   0.199  0.4668  0.4538  0.3944
  428SOL    HW1 1283   0.864   3.085   0.184  0.2637 -0.8271  0.3120
  428SOL    HW2 1284   0.977   2.958   0.181  0.7830  2.1117 -1.5134
  429SOL     OW 1285   1.337   0.068   0.208  0.5915 -0.2360  0.2177
  429SOL    HW1 1286   1.430   0.108   0.238 -0.2814 -0.7672 -1.0851
  429SOL    HW2 1287   1.305   0.096   0.113 -0.9635  0.5300  1.4420
  430SOL     OW 1288   2.825   1.406   0.333 -0.4154 -0.1049 -0.4733
  430SOL    HW1 1289   2.869   1.447   0.244  1.4626 -2.1755 -1.5082
  430SOL    HW2 1290   2.849   1.458   0.417 -0.1189  3.7741 -3.9772
  431SOL     OW 1291   2.141   1.575   0.851 -0.3737 -0.0363  0.1865
  431SOL    HW1 1292   2.202   1.655   0.881  0.0473  0.8673  2.0588
  431SOL    HW2 1293   2.092   1.587   0.764 -0.2611 -1.2304 -0.8724
  432SOL     OW 1294   2.890   2.249   1.218 -0.7192 -0.0259  0.8722
  432SOL    HW1 1295   2.821   2.168   1.212 -0.0519 -1.6904  0.1559
  432SOL    HW2 1296   2.915   2.270   1.319  2.6674  1.6752  0.3207
  433SOL     OW 1297   1.951   0.400   0.862 -0.2304  0.0679 -0.0117
  433SOL    HW1 1298   1.877   0.341   0.900  0.7835 -1.3927  0.6441
  433SOL    HW2 1299   2.032   0.418   0.923  0.3135 -4.2625 -4.1988
  434SOL     OW 1300   1.517   0.291   0.745 -0.4390  0.6585 -0.5606
  434SOL    HW1 1301   1.462   0.380   0.732  0.3187  0.9561 -0.3077
  434SOL    HW2 1302   1.575   0.304   0.825 -4.9761 -0.0052 -2.0799
  435SOL     OW 1303   1.447   1.458   2.144  0.6244  0.3770 -0.3902
  435SOL    HW1 1304   1.434   1.474   2.242 -0.7066 -2.4550 -1.6391
  435SOL    HW2 1305   1.498   1.538   2.092  1.3750 -0.0269 -4.0905
  436SOL     OW 1306   1.676   2.746   2.203  0.1760  0.2645 -0.3180
  436SOL    HW1 1307   1.627   2.786   2.285 -3.2646 -0.4256  0.1143
  436SOL    HW2 1308   1.707   2.652   2.230 -0.2278  1.2058  0.8682
  437SOL     OW 1309   1.046   2.911   0.932 -0.2976 -0.0530  0.3970
  437SOL    HW1 1310   1.016   3.000   0.884  3.3110 -1.8280 -2.1789
  437SOL    HW2 1311   1.018   2.919   1.031  1.1327  1.1644 -0.5597
  438SOL     OW 1312   1.028   2.568   1.281 -0.3365  0.4875 -0.4048
  438SOL    HW1 1313   1.098   2.614   1.339  1.4685 -1.6253 -2.5073
  438SOL    HW2 1314   1.021   2.463   1.298 -1.6381  0.6418  2.6346
  439SOL     OW 1315   0.680   1.720   1.070 -0.1297  0.4086  0.5561
  439SOL    HW1 1316   0.702   1.807   1.018 -2.7251 -0.4935 -2.3909
  439SOL    HW2 1317   0.579   1.715   1.088  0.6485  0.2947  0.8551
  440SOL     OW 1318   0.983   2.486   1.972  0.2410 -0.3049  0.0679
  440SOL    HW1 1319   0.938   2.509   1.880 -1.0863  1.6705 -1.0397
  440SOL    HW2 1320   1.086   2.495   1.972 -2.0881 -3.7115  1.6380
  441SOL     OW 1321   0.464   2.724   1.374  0.5420 -0.1979  0.0471
  441SOL    HW1 1322   0.528   2.651   1.414  2.9379 -0.3205  1.8168
  441SOL    HW2 1323   0.386   2.685   1.315  1.1763 -0.2308  4.0853
  442SOL     OW 1324   2.352   0.648   2.430 -0.1464 -0.0052 -0.3864
  442SOL    HW1 1325   2.350   0.545   2.454 -0.4713  0.3321  2.7895
  442SOL    HW2 1326   2.264   0.696   2.450  0.1058 -1.0065 -0.2013
  443SOL     OW 1327   1.242   2.735   2.159 -0.1667  0.1923 -0.3484
  443SOL    HW1 1328   1.224   2.725   2.260  0.0837  1.4633 -0.3079
  443SOL    HW2 1329   1.265   2.642   2.114  0.7280 -3.4293 -4.1023
  444SOL     OW 1330   1.118   1.287   1.604 -0.9547 -0.1541  0.1264
  444SOL    HW1 1331   1.211   1.241   1.576  1.9534 -0.3476  2.0003
  444SOL    HW2 1332   1.126   1.386   1.630 -0.5680 -0.3917  0.9851
  445SOL     OW 1333   0.028   2.386   1.857  0.1067 -0.0508 -0.5811
  445SOL    HW1 1334   0.030   2.481   1.817  1.3198 -0.7430  3.1856
  445SOL    HW2 1335  -0.056   2.369   1.907  1.2995  0.1720 -1.1137
  446SOL     OW 1336   0.273   1.928   2.337 -0.6099  0.0956 -0.2686
  446SOL    HW1 1337   0.232   2.006   2.389 -0.7043 -0.8112 -1.0290
  446SOL    HW2 1338   0.204   1.884   2.276  0.8587  3.7424  3.6431
  447SOL     OW 1339   1.198   1.716   1.922 -0.1690 -0.1735 -0.0736
  447SOL    HW1 1340   1.115   1.778   1.910  0.5007  1.5323  1.7305
  447SOL    HW2 1341   1.285   1.767   1.904 -1.5155 -1.4664 -3.0554
  448SOL     OW 1342   0.111   1.514   1.981  0.2931  0.6417 -0.5216
  448SOL    HW1 1343   0.101   1.602   1.925 -0.0888 -1.9641 -0.1432
  448SOL    HW2 1344   0.107   1.530   2.081 -2.0588 -1.3240 -2.8265
  449SOL     OW 1345   1.895   2.963   0.858  0.6581 -0.1541  0.1390
  449SOL    HW1 1346   1.980   3.009   0.899  4.1342 -0.6473 -0.7861
  449SOL    HW2 1347   1.916   2.872   0.807  1.0452 -2.4537  0.5994
  450SOL     OW 1348   2.353   1.416   0.722 -0.3231 -0.7388  0.0966
  450SOL    HW1 1349   2.271   1.427   0.783  1.8173 -2.4235 -0.1667
  450SOL    HW2 1350   2.349   1.484   0.641 -1.0809  1.9403  2.3059
  451SOL     OW 1351   1.367   2.985   1.462 -0.4097  0.2618  0.2138
  451SOL    HW1 1352   1.294   3.054   1.477  1.1564 -0.1832 -1.0261
  451SOL    HW2 1353   1.392   2.942   1.553  1.0695  3.2762  0.9331
  452SOL     OW 1354   2.703   2.292   2.168 -0.2070 -0.1520  0.0365
  452SOL    HW1 1355   2.636   2.370   2.188  3.1219  1.9824 -2.0063
  452SOL    HW2 1356   2.741   2.243   2.257  2.1623  0.5363  0.6409
  453SOL     OW 1357   2.484   2.649   3.102 -0.3270  0.0092 -0.6880
  453SOL    HW1 1358   2.403   2.715   3.126  1.2358 -0.6376  2.4533
  453SOL    HW2 1359   2.463   2.584   3.019  0.1423  2.3847  0.6102
  454SOL     OW 1360   1.010   1.164   2.108  0.6020  0.1624 -0.1972
  454SOL    HW1 1361   1.000   1.121   2.014 -1.8240  0.7186 -0.5202
  454SOL    HW2 1362   1.053   1.257   2.106 -0.5789  0.0577  0.5291
  455SOL     OW 1363   0.637   2.689   2.930  0.1977 -0.1600 -0.1398
  455SOL    HW1 1364   0.700   2.725   3.006 -1.9695 -0.5569  1.8851
  455SOL    HW2 1365   0.620   2.588   2.928  1.3691 -1.7142  0.9098
  456SOL     OW 1366   0.461   1.866   0.285 -0.1814 -0.1740  0.4544
  456SOL    HW1 1367   0.545   1.837   0.337 -1.8887 -0.7089  0.3706
  456SOL    HW2 1368   0.461   1.968   0.264 -1.4144 -1.1416  0.2904
  457SOL     OW 1369   0.272   2.653   0.642 -0.2442 -0.1488 -0.0731
  457SOL    HW1 1370   0.252   2.728   0.576  0.4857 -1.0068 -0.5928
  457SOL    HW2 1371   0.362   2.619   0.624 -3.5128 -0.2544  1.1783
  458SOL     OW 1372   2.949   3.044   1.214  0.1985 -0.0487 -0.6714
  458SOL    HW1 1373   2.982   3.141   1.219  1.4399 -1.7893  1.3877
  458SOL    HW2 1374   2.923   3.010   1.118  0.5977 -1.6474  1.0555
  459SOL     OW 1375   2.184   2.564   0.771 -0.1660 -0.3611 -0.4364
  459SOL    HW1 1376   2.209   2.660   0.803 -3.4266  1.1176 -0.7176
  459SOL    HW2 1377   2.263   2.515   0.720 -0.1694 -1.6387  1.7805
  460SOL     OW 1378   1.189   2.004   2.853 -0.8549 -0.2180  0.4277
  460SOL    HW1 1379   1.212   2.044   2.756  2.7286  2.0505  0.6868
  460SOL    HW2 1380   1.239   1.913   2.874  0.6227  0.9648 -0.3053
  461SOL     OW 1381   0.550   2.082   2.681 -0.3766 -0.3016  0.7559
  461SOL    HW1 1382   0.488   2.004   2.654  0.5956 -0.2220  0.5307
  461SOL    HW2 1383   0.587   2.080   2.775  1.9635  2.6766  0.7136
  462SOL     OW 1384   0.965   1.145   1.825 -0.2631 -0.5686  0.2535
  462SOL    HW1 1385   1.024   1.092   1.755  0.7005 -1.0757 -0.0910
  462SOL    HW2 1386   0.928   1.233   1.776  2.1835  5.4784 -2.2348
  463SOL     OW 1387   0.466   0.809   0.471  0.3029 -1.1448  0.3648
  463SOL    HW1 1388   0.495   0.709   0.456  2.4653  1.5331  3.7080
  463SOL    HW2 1389   0.363   0.829   0.482 -1.6690 -0.9151 -0.5022
  464SOL     OW 1390   0.618   2.278   2.238  0.0450 -0.3218  0.1149
  464SOL    HW1 1391   0.567   2.338   2.306 -0.7095 -0.9815  1.3632
  464SOL    HW2 1392   0.597   2.295   2.134  1.5057  0.4215 -1.2902
  465SOL     OW 1393   0.305   0.916   0.774  0.2475 -0.1894 -0.0876
  465SOL    HW1 1394   0.239   0.947   0.706 -2.3322 -0.7501  0.0513
  465SOL    HW2 1395   0.289   0.813   0.787 -1.5482  2.7991  1.7957
  466SOL     OW 1396   1.380   1.113   1.053 -0.7129  0.4184  0.6760
  466SOL    HW1 1397   1.414   1.211   1.047  0.7018 -2.7471 -1.9934
  466SOL    HW2 1398   1.278   1.105   1.068 -0.3393  0.0744  1.8445
  467SOL     OW 1399   0.462   0.365   2.365 -0.3114 -0.1478 -0.2739
  467SOL    HW1 1400   0.423   0.460   2.386 -0.5795 -1.2952  2.0950
  467SOL    HW2 1401   0.459   0.303   2.450 -3.0004  1.9160  0.6270
  468SOL     OW 1402   0.452   2.282   1.673 -0.2656  0.4042 -0.1591
  468SOL    HW1 1403   0.539   2.338   1.681  0.5035 -1.1945 -2.4721
  468SOL    HW2 1404   0.399   2.301   1.590  2.0579 -2.4253 -2.1880
  469SOL     OW 1405   1.503   1.395   1.188  0.2546 -0.2748  0.2027
  469SOL    HW1 1406   1.596   1.348   1.175  4.2562  0.5146 -1.1116
  469SOL    HW2 1407   1.509   1.489   1.229  1.6308 -1.6580  0.7388
  470SOL     OW 1408   3.021   1.673   0.760  0.5078 -0.2500  0.6087
  470SOL    HW1 1409   3.095   1.749   0.765 -1.3332 -0.1468  0.7676
  470SOL    HW2 1410   2.938   1.691   0.823 -0.6705 -0.7188 -0.0738
  471SOL     OW 1411   2.696   1.310   2.127 -0.6224 -0.2360  0.6703
  471SOL    HW1 1412   2.661   1.258   2.210 -1.9374 -2.4191 -1.4917
  471SOL    HW2 1413   2.758   1.393   2.148  1.3346  0.9944  2.8099
  472SOL     OW 1414   1.137   2.475   3.079 -0.1524  0.0238 -0.1310
  472SOL    HW1 1415   1.156   2.461   3.181  3.0439 -0.1502  1.3709
  472SOL    HW2 1416   1.090   2.392   3.036 -2.7708  0.5485 -2.7486
  473SOL     OW 1417   1.122   1.544   1.013 -0.0217 -0.4809 -0.4102
  473SOL    HW1 1418   1.019   1.546   1.032 -3.0784  0.6814  1.9209
  473SOL    HW2 1419   1.171   1.496   1.095 -1.5012 -0.2781 -1.2827
  474SOL     OW 1420   0.696   1.306   0.549  0.2272  0.0837  0.3164
  474SOL    HW1 1421   0.695   1.287   0.447 -2.0295 -0.7007  0.6897
  474SOL    HW2 1422   0.757   1.236   0.599  2.5624 -0.2187 -0.0298
  475SOL     OW 1423   2.844   0.083   0.793 -0.2240  0.0562  0.0894
  475SOL    HW1 1424   2.935   0.136   0.820  2.2968  0.1962  1.4933
  475SOL    HW2 1425   2.761   0.125   0.846 -2.2398 -0.7287  1.6254
  476SOL     OW 1426   0.954   3.019   1.836 -0.1151  0.3211 -0.0926
  476SOL    HW1 1427   1.022   2.977   1.902  0.3233  0.6002  2.5548
  476SOL    HW2 1428   0.996   3.025   1.741  1.6331 -2.1816 -1.6643
  477SOL     OW 1429   1.467   0.326   2.474  0.3595 -0.0525 -0.3838
  477SOL    HW1 1430   1.459   0.342   2.577  2.7044 -2.4313  2.9609
  477SOL    HW2 1431   1.555   0.281   2.445 -1.0760  0.4466  3.0063
  478SOL     OW 1432   2.216   1.853   0.248  0.7185  0.0121  1.0902
  478SOL    HW1 1433   2.159   1.763   0.253 -1.7483 -2.3973 -0.1216
  478SOL    HW2 1434   2.318   1.830   0.242 -0.6737  0.3060 -2.1964
  479SOL     OW 1435   1.266   1.071   2.922 -0.2362  0.1534 -0.2280
  479SOL    HW1 1436   1.338   1.046   2.851 -0.8049  2.2330  1.8437
  479SOL    HW2 1437   1.174   1.033   2.885 -3.2504  0.5056 -1.0442
  480SOL     OW 1438   2.568   2.347   0.395 -0.0930  0.4639 -0.5708
  480SOL    HW1 1439   2.539   2.256   0.434 -2.5035  1.1448 -3.2114
  480SOL    HW2 1440   2.513   2.365   0.308  1.7924 -2.7668 -1.1632
  481SOL     OW 1441   1.001   1.121   0.864  0.1655 -0.0325 -0.9251
  481SOL    HW1 1442   0.997   1.219   0.824  0.4435  0.9963 -3.3815
  481SOL    HW2 1443   1.057   1.123   0.953  0.3266  0.3780 -0.0304
  482SOL     OW 1444   1.558   0.280   2.054  0.5393  0.2984 -0.1668
  482SOL    HW1 1445   1.573   0.375   2.025  0.3291 -2.9631  0.8032
  482SOL    HW2 1446   1.638   0.241   2.113 -0.1439  0.2704  3.3322
  483SOL     OW 1447   0.126   2.319   1.285  0.1699 -0.5909 -0.2645
  483SOL    HW1 1448   0.056   2.314   1.360  0.6612 -0.4525 -0.7053
  483SOL    HW2 1449   0.128   2.412   1.241  1.1414 -0.7870  1.0638
  484SOL     OW 1450   1.746   1.057   1.362 -0.2735 -0.0350 -0.0826
  484SOL    HW1 1451   1.843   1.019   1.368  0.7303 -1.5282  0.0134
  484SOL    HW2 1452   1.712   1.108   1.446  1.8551  1.3396  1.6762
  485SOL     OW 1453   0.673   1.037   1.813 -0.1899 -0.2212 -0.1735
  485SOL    HW1 1454   0.696   1.024   1.712 -2.3923 -0.2878 -1.6366
  485SOL    HW2 1455   0.758   1.070   1.860 -2.9875 -0.0497 -1.5400
  486SOL     OW 1456   0.834   1.952   2.454  0.3761  0.3637 -0.1041
  486SOL    HW1 1457   0.878   1.916   2.541  0.0985  2.9021  0.3279
  486SOL    HW2 1458   0.798   2.047   2.450  1.4573  0.8454  1.8669
  487SOL     OW 1459   1.863   1.644   0.937 -0.3123 -0.3664 -0.4144
  487SOL    HW1 1460   1.897   1.553   0.976  3.1811 -0.6410  2.0221
  487SOL    HW2 1461   1.927   1.681   0.870  0.8395 -1.6176  2.7580
  488SOL     OW 1462   2.960   0.862   2.249 -0.1571  0.2396  0.1547
  488SOL    HW1 1463   3.009   0.783   2.205 -0.1897 -0.1109  1.2414
  488SOL    HW2 1464   2.993   0.890   2.343 -1.8643  0.5871  1.1481
  489SOL     OW 1465   2.755   0.220   1.306 -0.4582 -0.4135  0.5971
  489SOL    HW1 1466   2.717   0.181   1.392  0.5267 -0.9526  0.1960
  489SOL    HW2 1467   2.862   0.219   1.294  2.9449 -0.3980  2.0138
  490SOL     OW 1468   1.454   2.960   2.821 -0.6608 -0.3623  0.3494
  490SOL    HW1 1469   1.479   2.857   2.828  0.0590 -2.2160  1.0420
  490SOL    HW2 1470   1.432   2.989   2.721  0.3606 -0.3412  1.2833
  491SOL     OW 1471   1.805   1.449   2.617  0.8379  0.3179 -0.2756
  491SOL    HW1 1472   1.754   1.460   2.707  1.1655 -0.8963  0.2259
  491SOL    HW2 1473   1.900   1.484   2.615 -0.4579  0.0217 -0.6547
  492SOL     OW 1474   0.517   1.982   0.684  0.0394 -0.2792 -0.0871
  492SOL    HW1 1475   0.577   1.980   0.771  0.9589 -0.3396  3.5601
  492SOL    HW2 1476   0.437   2.050   0.701  2.2852  1.0344  0.6325
  493SOL     OW 1477   0.390   1.404   2.035 -0.1127 -0.3047  0.5448
  493SOL    HW1 1478   0.293   1.435   2.032  0.8442 -0.9546  0.3220
  493SOL    HW2 1479   0.423   1.372   2.129 -1.1722  1.3417 -1.0500
  494SOL     OW 1480   2.724   2.688   0.147 -0.4603  0.0700  0.1788
  494SOL    HW1 1481   2.715   2.645   0.243 -0.1980 -0.8923 -1.0543
  494SOL    HW2 1482   2.653   2.651   0.083 -0.1527  3.2811  2.9120
  495SOL     OW 1483   2.737   2.692   2.740  0.3058 -0.8215 -0.4090
  495SOL    HW1 1484   2.671   2.616   2.708 -1.8775  0.1805 -0.3000
  495SOL    HW2 1485   2.783   2.735   2.658 -0.1296  0.7455 -1.6421
  496SOL     OW 1486   2.058   2.256   0.703 -0.4077 -0.1533 -0.1472
  496SOL    HW1 1487   2.088   2.302   0.791  1.6192 -1.2193 -0.2169
  496SOL    HW2 1488   2.128   2.189   0.666 -1.0286  1.9046  1.7725
  497SOL     OW 1489   0.252   2.973   2.436 -0.1142 -0.1165  0.2898
  497SOL    HW1 1490   0.220   3.047   2.499  0.6419  0.4849 -1.9600
  497SOL    HW2 1491   0.273   3.010   2.339 -0.5352  1.3631  0.3469
  498SOL     OW 1492   1.218   1.403   1.212  0.0358 -0.0565 -0.4044
  498SOL    HW1 1493   1.318   1.380   1.216 -0.9280  1.8968  1.1906
  498SOL    HW2 1494   1.186   1.450   1.299 -0.4131  2.8262 -0.6973
  499SOL     OW 1495   0.693   1.850   0.429  0.3872  0.0729  0.4961
  499SOL    HW1 1496   0.702   1.763   0.482  0.7264 -0.2480 -3.1705
  499SOL    HW2 1497   0.654   1.926   0.489 -0.2053 -0.8707  2.0817
  500SOL     OW 1498   1.434   2.856   1.689  0.6202  0.7005 -0.2067
  500SOL    HW1 1499   1.352   2.796   1.725 -3.0844  2.7813  0.4894
  500SOL    HW2 1500   1.528   2.810   1.682  2.0145 -1.9118  2.5010
  501SOL     OW 1501   0.812   1.126   2.298 -0.1616 -0.0978 -0.5238
  501SOL    HW1 1502   0.739   1.057   2.279 -0.5473 -1.3677 -1.5208
  501SOL    HW2 1503   0.885   1.142   2.219  1.2480 -1.5149 -0.4895
  502SOL     OW 1504   2.595   0.955   1.734  0.6359 -0.2396  0.0791
  502SOL    HW1 1505   2.614   0.966   1.634 -1.0798  0.1244 -1.2041
  502SOL    HW2 1506   2.545   0.865   1.753  0.7773  1.7502 -0.6515
  503SOL     OW 1507   1.303   0.097   0.668 -0.5299  0.0750 -0.4106
  503SOL    HW1 1508   1.258   0.189   0.648 -0.0353  0.9071  1.8407
  503SOL    HW2 1509   1.410   0.099   0.676  1.3900  2.4193  3.4061
  504SOL     OW 1510   3.007   2.330   1.477  0.0091  0.3797 -0.1438
  504SOL    HW1 1511   2.953   2.407   1.524  3.6846 -0.6264  0.7080
  504SOL    HW2 1512   3.063   2.274   1.544 -1.9104 -0.4346  3.9466
  505SOL     OW 1513   2.306   1.161   1.459  0.0290  0.3725  0.4747
  505SOL    HW1 1514   2.317   1.187   1.355  0.0019  2.3902 -4.1740
  505SOL    HW2 1515   2.358   1.227   1.516 -2.4331  0.0237  2.6426
  506SOL     OW 1516   1.964   0.156   1.814 -0.3214  0.2247 -0.5672
  506SOL    HW1 1517   2.054   0.105   1.834  2.8103 -1.9804  0.7075
  506SOL    HW2 1518   1.964   0.255   1.849  1.2023  3.5611 -0.3605
  507SOL     OW 1519   0.520   0.700   2.140 -0.0210  0.2210  0.2066
  507SOL    HW1 1520   0.418   0.675   2.106 -1.2374 -2.3059 -0.4652
  507SOL    HW2 1521   0.577   0.618   2.175 -1.3742 -0.6297 -0.1375
  508SOL     OW 1522   0.274   1.641   0.829 -0.4810 -0.3286  0.4761
  508SOL    HW1 1523   0.325   1.689   0.752 -0.2811 -0.4528  3.1091
  508SOL    HW2 1524   0.283   1.694   0.918 -1.6837  2.5718 -0.6688
  509SOL     OW 1525   1.216   1.260   2.345  0.2457  0.1404 -0.5511
  509SOL    HW1 1526   1.219   1.275   2.242  0.6638  1.0995  0.9514
  509SOL    HW2 1527   1.188   1.165   2.382 -1.0950 -5.4668  3.1610
  510SOL     OW 1528   1.268   1.995   2.130 -0.2044  0.0125 -0.6093
  510SOL    HW1 1529   1.256   2.095   2.096  0.8682  0.1878 -0.7436
  510SOL    HW2 1530   1.180   1.958   2.173 -1.4195 -0.2833  1.7580
  511SOL     OW 1531   3.049   2.763   1.315  0.0412  0.2418 -0.2282
  511SOL    HW1 1532   3.027   2.821   1.235 -1.5519  0.0502 -1.0088
  511SOL    HW2 1533   2.967   2.746   1.370  2.9264  0.1186  0.7276
  512SOL     OW 1534   2.406   0.441   1.368 -0.4508  0.6071 -0.3938
  512SOL    HW1 1535   2.311   0.407   1.384  2.0735  2.0996 -1.5199
  512SOL    HW2 1536   2.460   0.386   1.304 -1.3762 -0.8645 -0.2698
  513SOL     OW 1537   2.542   2.038   0.849  0.0793  0.0422 -0.4773
  513SOL    HW1 1538   2.491   2.112   0.791 -0.6691 -0.0928 -0.5672
  513SOL    HW2 1539   2.627   2.008   0.806 -1.6411 -3.3183  2.5726
  514SOL     OW 1540   0.605   2.743   0.459 -0.1608  0.1895  0.4956
  514SOL    HW1 1541   0.596   2.775   0.361  1.5189  0.6033 -0.1501
  514SOL    HW2 1542   0.671   2.805   0.510 -2.5872  0.1198  1.1397
  515SOL     OW 1543   1.983   1.166   2.355  0.1563 -0.6574 -0.0381
  515SOL    HW1 1544   1.973   1.139   2.255 -2.4796 -0.4851  4.5342
  515SOL    HW2 1545   1.883   1.167   2.387  0.8692  2.3539 -2.7590
  516SOL     OW 1546   0.234   0.301   1.883 -0.1072  0.3672  0.6885
  516SOL    HW1 1547   0.295   0.255   1.811 -0.6702  0.1151 -0.3663
  516SOL    HW2 1548   0.157   0.244   1.909  0.6386  2.3812 -0.1346
  517SOL     OW 1549   0.440   0.015   1.175  0.2627 -0.2466  0.3084
  517SOL    HW1 1550   0.438   0.119   1.172 -0.0853  0.8406  0.3836
  517SOL    HW2 1551   0.346  -0.017   1.145  1.2000 -0.7989  0.2620
  518SOL     OW 1552   2.222   3.084   1.822  1.1654  0.6787  0.2404
  518SOL    HW1 1553   2.298   3.148   1.848 -0.7319  2.0828 -0.1050
  518SOL    HW2 1554   2.222   3.057   1.720  3.1075  1.3907 -2.6862
  519SOL     OW 1555   2.336   2.182   2.562  0.3297  0.6754  0.4594
  519SOL    HW1 1556   2.279   2.151   2.646 -1.5119  0.4614  0.0450
  519SOL    HW2 1557   2.339   2.288   2.543 -0.5760  0.7910 -0.9714
  520SOL     OW 1558   1.818   2.782   1.791 -0.0615  0.6404  0.2709
  520SOL    HW1 1559   1.722   2.784   1.832 -2.6189  1.2188 -2.4159
  520SOL    HW2 1560   1.842   2.683   1.754 -1.6505 -1.2177 -1.4197
  521SOL     OW 1561   0.575   3.080   2.096  0.5832  0.2412  0.9552
  521SOL    HW1 1562   0.478   3.070   2.137 -2.0575  2.4203 -0.4339
  521SOL    HW2 1563   0.652   3.080   2.164 -1.5474  1.6235  1.0276
  522SOL     OW 1564   0.201   1.895   1.470 -0.3181  0.1569  0.2001
  522SOL    HW1 1565   0.246   1.958   1.539 -1.8609  0.2265  0.0004
  522SOL    HW2 1566   0.185   1.948   1.379 -2.1157  4.0133  1.0142
  523SOL     OW 1567   2.244   3.001   1.568 -0.6944  0.3330 -0.4068
  523SOL    HW1 1568   2.335   2.948   1.543  1.3596  1.5457 -1.9998
  523SOL    HW2 1569   2.160   2.951   1.525  1.0334 -1.6359  0.3215
  524SOL     OW 1570   0.160   2.792   2.832 -0.3882  0.0925  0.2956
  524SOL    HW1 1571   0.107   2.881   2.811 -3.1738 -0.5691  1.7773
  524SOL    HW2 1572   0.257   2.820   2.867  0.2734  1.2310  1.1619
  525SOL     OW 1573   2.158   2.032   0.433 -0.2534  0.1574  0.2244
  525SOL    HW1 1574   2.154   1.977   0.522  3.0930 -2.5683  0.6929
  525SOL    HW2 1575   2.173   1.963   0.357  1.5113 -1.8289  1.8780
  526SOL     OW 1576   0.447   1.554   1.647 -0.0314  0.3178  0.1564
  526SOL    HW1 1577   0.505   1.604   1.717 -1.8902 -0.7566 -1.3132
  526SOL    HW2 1578   0.494   1.462   1.623  0.7520  0.7574 -0.7933
  527SOL     OW 1579   1.044   2.923   1.221  0.5064  0.2402 -0.1853
  527SOL    HW1 1580   1.129   2.864   1.216 -0.4439 -1.5712 -0.9527
  527SOL    HW2 1581   1.059   3.022   1.196 -0.1814 -0.4319  0.6628
  528SOL     OW 1582   1.348   2.434   0.547 -0.2087  0.3488  0.6814
  528SOL    HW1 1583   1.334   2.338   0.583 -0.4776 -0.3658 -1.2456
  528SOL    HW2 1584   1.431   2.480   0.593 -2.2285 -1.3277  1.1019
  529SOL     OW 1585   1.946   1.731   0.678 -0.7025  0.3336  0.0939
  529SOL    HW1 1586   1.886   1.727   0.592  1.2437 -1.1700 -2.1409
  529SOL    HW2 1587   1.953   1.827   0.720  0.6769 -3.2112  1.4089
  530SOL     OW 1588   0.320   2.620   0.275 -0.2479  0.2452  0.6367
  530SOL    HW1 1589   0.299   2.684   0.354 -1.5913 -1.3008  1.6341
  530SOL    HW2 1590   0.364   2.529   0.311  0.0531  1.1772 -0.1859
  531SOL     OW 1591   1.851   0.981   0.940 -0.0279  0.3979 -0.0191
  531SOL    HW1 1592   1.890   1.050   0.875 -0.2829 -0.4684  0.6096
  531SOL    HW2 1593   1.750   0.974   0.935  0.1988 -2.5535  0.0710
  532SOL     OW 1594   0.405   1.194   0.706  0.3333 -0.2788 -0.0607
  532SOL    HW1 1595   0.425   1.187   0.602  2.7445  0.9904 -2.1872
  532SOL    HW2 1596   0.377   1.099   0.748  0.2477  0.2587  0.5276
  533SOL     OW 1597   1.739   0.022   2.599 -0.1930 -0.3054 -0.0927
  533SOL    HW1 1598   1.836  -0.007   2.605 -1.0352  1.2875 -0.8775
  533SOL    HW2 1599   1.718   0.082   2.678 -0.0074 -3.2320  0.2322
  534SOL     OW 1600   0.378   0.213   1.623 -0.6184  0.5281  0.3257
  534SOL    HW1 1601   0.463   0.220   1.558  0.2046  2.3500 -0.1421
  534SOL    HW2 1602   0.315   0.301   1.615 -1.0981  0.7463 -1.6692
  535SOL     OW 1603   1.953   0.374   0.163  0.3019  0.2608 -0.9463
  535SOL    HW1 1604   1.941   0.432   0.249  1.1357 -1.5908 -1.0676
  535SOL    HW2 1605   1.924   0.279   0.181  2.2325  2.1553 -0.4086
  536SOL     OW 1606   1.412   2.553   0.942  0.2947  0.2425 -0.1374
  536SOL    HW1 1607   1.403   2.531   1.043 -0.3622  1.3855 -0.5603
  536SOL    HW2 1608   1.322   2.589   0.901  2.2980 -0.5863  1.3352
  537SOL     OW 1609   0.805   0.220   2.366 -0.6557  0.2756  0.3895
  537SOL    HW1 1610   0.812   0.291   2.288  1.4906  4.0719  2.6044
  537SOL    HW2 1611   0.745   0.135   2.349 -3.8519  0.7601 -0.6513
  538SOL     OW 1612   1.664   2.364   1.535 -0.3705  0.1913  0.3352
  538SOL    HW1 1613   1.648   2.261   1.540 -3.3832  0.0485  2.5883
  538SOL    HW2 1614   1.720   2.394   1.454 -0.2356  2.5275 -0.9500
  539SOL     OW 1615   0.216   1.605   2.737  0.1096  0.1973  0.0391
  539SOL    HW1 1616   0.145   1.627   2.661 -1.9388 -1.1454  0.6193
  539SOL    HW2 1617   0.212   1.671   2.816  0.5916  0.3623 -1.5895
  540SOL     OW 1618   2.701   1.681   1.915 -0.2120  0.7368  0.2520
  540SOL    HW1 1619   2.731   1.626   1.999 -0.1726 -1.1381 -0.3235
  540SOL    HW2 1620   2.645   1.767   1.937 -3.8234  3.4823 -3.2274
  541SOL     OW 1621   0.479   2.221   0.011 -0.2612 -0.7642  0.2505
  541SOL    HW1 1622   0.508   2.186   0.104  4.2974 -1.2370 -0.3091
  541SOL    HW2 1623   0.384   2.198  -0.013  2.2689  1.6070  0.8867
  542SOL     OW 1624   2.264   2.579   0.444 -0.2815  0.1095  0.2279
  542SOL    HW1 1625   2.235   2.668   0.400  1.3563 -0.4481 -1.2541
  542SOL    HW2 1626   2.191   2.525   0.492 -1.2671  1.5103  0.7710
  543SOL     OW 1627   1.077   1.838   1.557  0.3480  0.1461 -0.4372
  543SOL    HW1 1628   1.016   1.880   1.628  2.4167  0.5062 -0.5811
  543SOL    HW2 1629   1.052   1.866   1.463  0.1001 -0.6249  0.3055
  544SOL     OW 1630   0.993   0.423   0.169 -0.1141  0.3828 -0.4526
  544SOL    HW1 1631   1.017   0.346   0.234 -2.1135  1.4572 -1.1497
  544SOL    HW2 1632   0.954   0.380   0.083  2.0064  0.4418  1.7425
  545SOL     OW 1633   1.120   1.739   0.796 -0.5313 -0.7558  0.1254
  545SOL    HW1 1634   1.219   1.779   0.816  0.7473  0.4680  2.0040
  545SOL    HW2 1635   1.106   1.642   0.833  0.2870 -1.9903 -0.9417
  546SOL     OW 1636   2.668   1.489   3.052 -0.5915 -0.2949 -0.8207
  546SOL    HW1 1637   2.622   1.565   2.999  0.0403  2.5843 -3.1159
  546SOL    HW2 1638   2.599   1.415   3.080  0.8059 -1.6828 -1.6212
  547SOL     OW 1639   0.596   3.045   2.658 -0.4250 -0.3282  0.3331
  547SOL    HW1 1640   0.702   3.010   2.658  1.2629 -1.6203  1.6247
  547SOL    HW2 1641   0.531   2.964   2.674  0.9627 -0.2979  0.3222
  548SOL     OW 1642   2.102   0.880   2.987 -0.2495  0.3009 -0.4875
  548SOL    HW1 1643   2.009   0.854   2.973  1.0109 -1.0257  0.2055
  548SOL    HW2 1644   2.110   0.974   3.031 -0.6189 -0.1902 -1.2604
  549SOL     OW 1645   0.690   0.506   0.223 -0.0420  0.2350  0.0484
  549SOL    HW1 1646   0.664   0.544   0.129  2.8525 -0.8646 -1.0363
  549SOL    HW2 1647   0.785   0.558   0.252  1.5721 -0.5945 -0.5946
  550SOL     OW 1648   2.549   2.822   2.878  0.6743  0.0804  0.3330
  550SOL    HW1 1649   2.530   2.743   2.944  2.2558 -0.8125 -0.7070
  550SOL    HW2 1650   2.618   2.783   2.814 -1.6576 -2.1599  0.3490
  551SOL     OW 1651   0.250   0.890   0.216 -0.2960 -0.5930  0.2938
  551SOL    HW1 1652   0.340   0.838   0.206  0.7347  1.2151 -3.6545
  551SOL    HW2 1653   0.217   0.887   0.313  2.7749  0.8166  1.7892
  552SOL     OW 1654   0.705   2.955   1.886 -0.8232 -0.5742 -0.0227
  552SOL    HW1 1655   0.661   2.997   1.973 -1.6522 -0.6292  4.6391
  552SOL    HW2 1656   0.805   2.988   1.870 -0.6499 -0.6884 -0.2863
  553SOL     OW 1657   2.980   2.527   0.355  0.0586 -0.0138  0.3517
  553SOL    HW1 1658   2.931   2.435   0.349 -3.2662 -2.5884 -1.0040
  553SOL    HW2 1659   2.949   2.588   0.436  0.1262  0.4412  0.3651
  554SOL     OW 1660   2.169   0.376   0.565 -0.0418  0.3135 -0.0883
  554SOL    HW1 1661   2.228   0.392   0.483  3.1830 -1.3042  1.6735
  554SOL    HW2 1662   2.211   0.311   0.631 -2.6415 -2.3525 -1.5122
  555SOL     OW 1663   0.384   2.730   2.519  0.3535 -0.6463  0.1869
  555SOL    HW1 1664   0.328   2.820   2.506  0.2677  3.4866 -0.4625
  555SOL    HW2 1665   0.445   2.715   2.438  1.0942  0.8116  1.0202
  556SOL     OW 1666   0.838   2.409   1.498  0.6167 -0.0301  0.1391
  556SOL    HW1 1667   0.859   2.511   1.518 -2.1393  2.8067 -0.0909
  556SOL    HW2 1668   0.913   2.363   1.444 -1.1366 -0.4387 -0.6165
  557SOL     OW 1669   0.075   2.087   0.207  0.5288  0.6859  0.4680
  557SOL    HW1 1670   0.036   1.998   0.174 -0.7354  2.0414 -0.5471
  557SOL    HW2 1671   0.127   2.126   0.128  2.6096  0.3448  2.1857
  558SOL     OW 1672   2.827   2.279   0.315 -0.7196  0.1698  0.3620
  558SOL    HW1 1673   2.724   2.291   0.318  0.2045  1.7551  2.3557
  558SOL    HW2 1674   2.864   2.185   0.307 -3.4251 -1.1904  0.1813
  559SOL     OW 1675   0.376   2.285   1.388  0.0080 -0.2197  0.0056
  559SOL    HW1 1676   0.287   2.306   1.338 -3.0453  2.8182  1.8424
  559SOL    HW2 1677   0.437   2.216   1.337 -0.2786 -0.9592  0.8574
  560SOL     OW 1678   2.095   1.143   3.055  0.2672  0.7585  0.1596
  560SOL    HW1 1679   2.127   1.158   3.153  1.1935  1.0817 -1.0258
  560SOL    HW2 1680   2.140   1.206   2.987  0.3808  1.4051  1.0548
  561SOL     OW 1681   3.070   1.853   0.029 -0.1823 -0.0359  0.5194
  561SOL    HW1 1682   3.032   1.791   0.102 -1.4858 -1.3781  0.0868
  561SOL    HW2 1683   3.015   1.939   0.015 -2.1672  0.0596  1.5423
  562SOL     OW 1684   0.975   2.230   2.331 -0.2681  0.0036  0.0104
  562SOL    HW1 1685   0.887   2.258   2.375 -1.5359 -1.2586  1.6733
  562SOL    HW2 1686   1.042   2.299   2.302 -0.2478 -6.9818 -0.5292
  563SOL     OW 1687   0.718   2.578   2.619 -0.3809  0.0578  0.1208
  563SOL    HW1 1688   0.813   2.531   2.609  0.0073  2.2944 -1.7895
  563SOL    HW2 1689   0.711   2.624   2.710  2.9044  0.5240 -1.6004
  564SOL     OW 1690   2.852   1.329   2.902 -0.8203 -0.1516  0.1092
  564SOL    HW1 1691   2.765   1.374   2.931  1.0491 -1.6284 -0.1866
  564SOL    HW2 1692   2.905   1.398   2.844  0.9796 -1.0359 -0.8353
  565SOL     OW 1693   2.534   2.012   2.639  0.1030  0.4965  0.1181
  565SOL    HW1 1694   2.463   2.069   2.580 -2.1032 -0.1516 -2.1992
  565SOL    HW2 1695   2.601   2.070   2.696  1.2093  1.0238  0.7443
  566SOL     OW 1696   2.080   2.836   1.415  0.1041  0.5341  0.6725
  566SOL    HW1 1697   2.036   2.741   1.416  1.5671 -1.2703  0.7123
  566SOL    HW2 1698   2.050   2.889   1.327  2.2833 -0.8915 -0.1397
  567SOL     OW 1699   2.415   3.091   2.362  0.0210 -0.3562  0.5289
  567SOL    HW1 1700   2.316   3.107   2.390  2.8777  3.7078 -0.4065
  567SOL    HW2 1701   2.427   3.053   2.266 -3.6890 -0.4161 -2.1973
  568SOL     OW 1702   1.511   1.752   0.238  0.4312 -0.3160 -0.4667
  568SOL    HW1 1703   1.443   1.815   0.192 -1.5664  0.4880  1.3068
  568SOL    HW2 1704   1.606   1.783   0.220  0.4538 -2.0444 -1.2210
  569SOL     OW 1705   0.292   0.636   0.842  0.3746 -0.5666  0.5252
  569SOL    HW1 1706   0.363   0.578   0.800  1.7085  1.2543  1.2658
  569SOL    HW2 1707   0.201   0.591   0.838  2.0245  1.8102 -1.2859
  570SOL     OW 1708   0.605   0.871   2.923 -0.2867 -0.3373  0.1837
  570SOL    HW1 1709   0.675   0.900   2.853  4.7182 -1.7540 -0.1008
  570SOL    HW2 1710   0.608   0.933   3.004  2.5090  0.0388  0.2819
  571SOL     OW 1711   0.793   3.093   1.016  0.1547 -0.9453  0.2431
  571SOL    HW1 1712   0.873   3.126   0.950 -1.1299  2.1801 -1.4794
  571SOL    HW2 1713   0.761   2.997   0.997  0.6364  0.1929  1.7620
  572SOL     OW 1714   1.618   2.590   1.323  0.1488 -0.2955  0.0325
  572SOL    HW1 1715   1.538   2.560   1.263  3.6480  2.1610 -0.5972
  572SOL    HW2 1716   1.610   2.689   1.348  1.3057 -1.0099  1.6127
  573SOL     OW 1717   2.893   0.519   2.007  0.5354 -0.2726 -0.1473
  573SOL    HW1 1718   2.813   0.458   2.017  1.1858  1.9684  1.3657
  573SOL    HW2 1719   2.970   0.479   1.947  3.3046 -2.8278 -1.7369
  574SOL     OW 1720   0.164   1.748   1.078  0.0229  0.3667  0.0927
  574SOL    HW1 1721   0.143   1.850   1.054 -3.1335  2.5113  1.7553
  574SOL    HW2 1722   0.091   1.705   1.141  0.2247  0.6725  0.4364
  575SOL     OW 1723   0.849   2.161   0.919 -0.6070  0.4835  0.2731
  575SOL    HW1 1724   0.809   2.207   1.008  1.2312  2.5551  0.0606
  575SOL    HW2 1725   0.882   2.236   0.855 -1.1804 -0.8496  0.6043
  576SOL     OW 1726   2.884   3.019   1.693 -0.5760 -0.5523 -0.6721
  576SOL    HW1 1727   2.787   3.015   1.664 -0.3056  2.2543  1.0697
  576SOL    HW2 1728   2.920   3.116   1.705 -1.2523  0.9751  0.3541
  577SOL     OW 1729   2.475   1.223   0.007  0.3148 -0.5757 -0.0814
  577SOL    HW1 1730   2.497   1.152  -0.066  2.5643 -1.2185  2.4177
  577SOL    HW2 1731   2.551   1.236   0.076 -1.1753 -2.9844 -1.0241
  578SOL     OW 1732   1.411   2.720   2.430  0.7179  0.0087  0.0969
  578SOL    HW1 1733   1.313   2.752   2.426 -1.0491 -2.7560  0.4579
  578SOL    HW2 1734   1.481   2.795   2.426 -1.2978 -1.3925  1.7311
  579SOL     OW 1735   0.062   2.500   0.156 -0.3251 -0.0760  0.1516
  579SOL    HW1 1736  -0.016   2.503   0.224 -1.0651 -0.1226 -1.3561
  579SOL    HW2 1737   0.154   2.507   0.207 -1.4713  1.8187  2.1062
  580SOL     OW 1738   0.974   2.688   0.385 -1.0104 -0.2154 -0.2124
  580SOL    HW1 1739   1.066   2.684   0.334  1.7995 -1.9926 -1.9088
  580SOL    HW2 1740   0.896   2.638   0.340  0.8145  0.7364  4.3346
  581SOL     OW 1741   1.238   2.661   1.462 -0.1804 -0.1744  0.1538
  581SOL    HW1 1742   1.293   2.590   1.515  2.7811  3.0825 -2.1401
  581SOL    HW2 1743   1.298   2.732   1.420 -0.1856  1.8352  2.0392
  582SOL     OW 1744   1.511   0.065   1.849  0.0906 -0.0068 -0.0281
  582SOL    HW1 1745   1.522   0.136   1.926  0.3168 -0.1974 -0.1865
  582SOL    HW2 1746   1.607   0.036   1.815  0.3403 -1.9230  0.3930
  583SOL     OW 1747   2.458   3.066   0.559 -0.1698  0.0185  0.0579
  583SOL    HW1 1748   2.519   3.017   0.491  2.4488  0.5084 -1.1330
  583SOL    HW2 1749   2.382   3.007   0.588 -1.6638  3.1026  0.6008
  584SOL     OW 1750   1.551   1.035   2.143 -0.0087  1.1143  0.1942
  584SOL    HW1 1751   1.591   1.124   2.108 -1.1666 -0.3375  0.2137
  584SOL    HW2 1752   1.613   0.984   2.205 -2.7742 -1.6465  0.5613
  585SOL     OW 1753   2.146   2.672   2.933  0.0571 -0.0102 -0.1330
  585SOL    HW1 1754   2.183   2.587   2.893  1.2409 -0.8314  0.9552
  585SOL    HW2 1755   2.040   2.666   2.937  0.5332 -1.3984  1.2454
  586SOL     OW 1756   2.824   0.370   1.612 -0.2418 -0.0601  0.3724
  586SOL    HW1 1757   2.820   0.459   1.676  0.9713 -0.4200  3.3651
  586SOL    HW2 1758   2.730   0.351   1.575  1.9283 -0.4188  0.1000
  587SOL     OW 1759   2.071   1.561   2.621  0.2748 -0.1269  0.4989
  587SOL    HW1 1760   2.119   1.494   2.553  2.1981  0.8699 -2.3327
  587SOL    HW2 1761   2.088   1.550   2.722  1.5086  0.2087  0.6096
  588SOL     OW 1762   0.463   2.667   2.253 -0.3015 -0.4742 -0.2999
  588SOL    HW1 1763   0.370   2.650   2.208 -0.8757 -1.1701  1.8149
  588SOL    HW2 1764   0.499   2.580   2.297 -0.3802 -1.3721  1.0976
  589SOL     OW 1765   2.150   1.345   2.480 -0.4931 -0.2617 -0.3360
  589SOL    HW1 1766   2.088   1.279   2.429 -1.4212  1.7072 -1.9809
  589SOL    HW2 1767   2.246   1.310   2.504  0.3032 -0.1885  2.0662
  590SOL     OW 1768   2.351   1.681   2.040 -0.0944  0.3624  0.1808
  590SOL    HW1 1769   2.405   1.594   2.052 -1.0829 -1.8862 -2.3328
  590SOL    HW2 1770   2.350   1.734   2.128 -0.4607  1.3919 -0.0334
  591SOL     OW 1771   1.291   2.418   0.232 -0.7680  1.0603 -0.2941
  591SOL    HW1 1772   1.342   2.359   0.161  1.5597 -0.6156 -1.5757
  591SOL    HW2 1773   1.275   2.370   0.322  0.3206  1.1408 -1.3428
  592SOL     OW 1774   1.791   2.269   0.741 -0.3013 -0.1484 -0.5964
  592SOL    HW1 1775   1.740   2.338   0.680  2.3257  2.8998  2.2853
  592SOL    HW2 1776   1.890   2.262   0.715  0.4775  0.3739  1.2587
  593SOL     OW 1777   0.695   0.232   0.241  0.2680  0.1866 -0.5737
  593SOL    HW1 1778   0.740   0.179   0.166 -1.2466 -2.5621  1.4017
  593SOL    HW2 1779   0.716   0.331   0.246 -0.5123 -1.6267  1.0086
  594SOL     OW 1780   1.021   1.850   2.675  0.6418 -0.6271 -0.0141
  594SOL    HW1 1781   1.100   1.795   2.648 -0.4720  1.5982 -0.2373
  594SOL    HW2 1782   1.051   1.922   2.743  1.7767 -2.5634 -1.9154
  595SOL     OW 1783   1.528   0.009   1.077  0.2243  0.2523 -0.2128
  595SOL    HW1 1784   1.603  -0.035   1.024 -1.6693 -1.3774  0.4253
  595SOL    HW2 1785   1.439  -0.003   1.023 -1.0958 -0.5832 -0.0303
  596SOL     OW 1786   0.030   1.456   2.247  0.4045  0.4373  0.2889
  596SOL    HW1 1787   0.027   1.360   2.289  0.6431  1.8241  2.3887
  596SOL    HW2 1788   0.090   1.514   2.309 -2.7287 -0.0080  0.9233
  597SOL     OW 1789   1.941   2.547   1.719 -0.1876  0.2495  0.1916
  597SOL    HW1 1790   1.914   2.524   1.624 -1.4023 -0.0926  0.4394
  597SOL    HW2 1791   2.039   2.554   1.753 -0.6807 -1.5390 -0.3132
  598SOL     OW 1792   2.548   2.955   1.209 -0.1109 -0.1933  0.6344
  598SOL    HW1 1793   2.618   2.967   1.285  1.7288 -1.5880 -0.6287
  598SOL    HW2 1794   2.595   2.944   1.119  1.0803  0.7950  1.1945
  599SOL     OW 1795   2.882   0.324   2.503 -0.3432  0.6015 -0.0265
  599SOL    HW1 1796   2.969   0.363   2.463 -0.7344 -2.3570 -1.1714
  599SOL    HW2 1797   2.794   0.379   2.493 -0.8866 -0.2335  0.7018
  600SOL     OW 1798   2.800   1.105   2.744 -0.5042  0.6398 -0.3064
  600SOL    HW1 1799   2.775   1.019   2.794  0.4238  2.5462  2.4542
  600SOL    HW2 1800   2.820   1.181   2.815  0.0365  1.4869  0.1179
  601SOL     OW 1801   2.996   1.328   1.978  0.3717 -0.3945  0.1966
  601SOL    HW1 1802   2.930   1.354   1.906  1.7903  1.0964  2.7571
  601SOL    HW2 1803   3.060   1.404   2.005  2.6547 -0.5169  0.0839
  602SOL     OW 1804   1.417   1.741   2.306  0.2039  0.3183 -0.5468
  602SOL    HW1 1805   1.339   1.668   2.323 -1.5586 -0.1094 -1.2635
  602SOL    HW2 1806   1.507   1.719   2.353 -1.7868  0.8698  0.9748
  603SOL     OW 1807   0.593   1.227   2.760  0.2307 -0.1700  0.2226
  603SOL    HW1 1808   0.505   1.194   2.714 -0.9731  0.0105  1.0987
  603SOL    HW2 1809   0.659   1.147   2.759  1.2521 -1.9630 -1.0451
  604SOL     OW 1810   2.373   0.995   0.160  0.3211  0.1525  0.0740
  604SOL    HW1 1811   2.418   1.074   0.117  0.1249  0.1104 -1.4151
  604SOL    HW2 1812   2.395   0.906   0.115 -0.5208  2.2595  0.9671
  605SOL     OW 1813   2.538   1.152   1.946 -0.1326 -0.3968 -0.1446
  605SOL    HW1 1814   2.580   1.068   1.897 -0.5657 -2.2303 -1.9116
  605SOL    HW2 1815   2.603   1.203   2.010 -2.2992 -0.9000 -2.4157
  606SOL     OW 1816   1.534   2.519   2.563  0.2700 -0.6819  0.4142
  606SOL    HW1 1817   1.499   2.600   2.502  3.3601 -1.4578 -0.7521
  606SOL    HW2 1818   1.467   2.441   2.581 -2.1469 -0.4206 -1.7192
  607SOL     OW 1819   1.320   1.595   0.344  0.1749 -0.2066 -0.1074
  607SOL    HW1 1820   1.271   1.653   0.409  0.9040 -0.7917 -0.7424
  607SOL    HW2 1821   1.395   1.644   0.291  1.2771  1.4743 -1.9839
  608SOL     OW 1822   1.424   2.817   0.392  0.3742 -0.1089  0.1680
  608SOL    HW1 1823   1.493   2.865   0.331  0.8730  0.6328 -0.9714
  608SOL    HW2 1824   1.382   2.881   0.459  0.4657 -1.3890  2.5686
  609SOL     OW 1825   1.276   1.334   0.248  0.3673 -0.2857  0.6914
  609SOL    HW1 1826   1.283   1.440   0.271 -1.5767  1.5079  0.2846
  609SOL    HW2 1827   1.255   1.312   0.151 -2.2630 -0.6653 -0.5616
  610SOL     OW 1828   2.952   1.166   2.248 -0.6634 -0.2301  0.1499
  610SOL    HW1 1829   2.937   1.064   2.230 -0.0937 -0.4191 -2.8666
  610SOL    HW2 1830   2.942   1.224   2.162  2.0973  1.3874 -0.3096
  611SOL     OW 1831   2.535   0.280   1.161 -0.0057  0.1916 -0.3029
  611SOL    HW1 1832   2.475   0.194   1.153  1.9487 -1.0366  0.4809
  611SOL    HW2 1833   2.620   0.265   1.220  0.3917  0.3580 -1.9276
  612SOL     OW 1834   0.767   2.263   1.167 -0.0339 -0.2919 -0.2438
  612SOL    HW1 1835   0.695   2.223   1.228 -1.5085 -0.2889 -2.5020
  612SOL    HW2 1836   0.725   2.351   1.124 -0.0394 -0.3628  1.1055
  613SOL     OW 1837   0.835   1.402   2.423 -0.6158 -0.1166 -0.4549
  613SOL    HW1 1838   0.834   1.467   2.340  0.7708  0.0999 -1.9870
  613SOL    HW2 1839   0.809   1.307   2.390 -0.0018 -1.8917 -1.7016
  614SOL     OW 1840   1.558   1.706   1.961 -0.1936  0.4130 -0.0632
  614SOL    HW1 1841   1.505   1.791   1.941 -0.0143 -0.5841 -1.1253
  614SOL    HW2 1842   1.644   1.730   2.011 -1.3483  0.6881  2.8454
  615SOL     OW 1843   0.812   1.341   1.706  0.5786 -0.0145  0.3816
  615SOL    HW1 1844   0.721   1.316   1.654 -2.0405 -2.5033  0.9200
  615SOL    HW2 1845   0.859   1.428   1.673 -0.1832  3.8907  1.0191
  616SOL     OW 1846   1.037   1.596   2.147  0.4721  0.2286 -0.3593
  616SOL    HW1 1847   0.942   1.567   2.149  1.0522  1.3048 -0.3799
  616SOL    HW2 1848   1.073   1.624   2.056  3.3247 -1.5055  1.4368
  617SOL     OW 1849   2.962   1.558   1.593 -0.1975  0.0358 -0.8944
  617SOL    HW1 1850   2.936   1.494   1.671 -0.1629 -0.3222 -1.5373
  617SOL    HW2 1851   2.966   1.515   1.499 -1.6805  2.2910  2.3098
  618SOL     OW 1852   1.891   1.996   1.450  0.4846  0.9454 -0.8571
  618SOL    HW1 1853   1.886   1.994   1.349 -1.0542  0.4621 -1.5488
  618SOL    HW2 1854   1.853   1.908   1.491  1.0525 -0.8086 -0.2731
  619SOL     OW 1855   1.758   0.508   2.413 -0.2359  0.3508  0.4873
  619SOL    HW1 1856   1.671   0.555   2.387  0.0033 -2.0151  2.1941
  619SOL    HW2 1857   1.750   0.404   2.426 -1.9878  0.5963  0.9004
  620SOL     OW 1858   2.218   2.974   0.665  0.0584 -0.4594 -0.2891
  620SOL    HW1 1859   2.160   3.048   0.714 -1.8319  1.3318  0.0571
  620SOL    HW2 1860   2.253   2.906   0.732 -1.8253  3.2839  0.1598
  621SOL     OW 1861   2.124   1.861   1.322 -0.5103 -0.2594 -0.1478
  621SOL    HW1 1862   2.126   1.842   1.425  0.7515 -0.6840  2.1890
  621SOL    HW2 1863   2.097   1.784   1.264  1.2474  1.2855 -1.9079
  622SOL     OW 1864   2.248   0.894   1.794  0.0574 -0.4934 -0.1715
  622SOL    HW1 1865   2.350   0.915   1.785  1.2904  1.7782 -0.8808
  622SOL    HW2 1866   2.224   0.798   1.830 -0.2731 -2.1459 -2.0694
  623SOL     OW 1867   1.367   0.809   2.642 -0.0794  0.2015 -0.6685
  623SOL    HW1 1868   1.305   0.745   2.702 -1.1018 -0.0391  0.4939
  623SOL    HW2 1869   1.308   0.857   2.572 -0.5636 -1.2250  0.2384
  624SOL     OW 1870   0.589   0.639   3.079 -0.0685  0.1002 -0.7264
  624SOL    HW1 1871   0.620   0.691   2.996 -0.4488 -1.4926  2.2411
  624SOL    HW2 1872   0.571   0.693   3.165 -1.6585 -0.6833 -0.1739
  625SOL     OW 1873   2.853   1.748   0.960 -1.1406 -0.0400  0.3009
  625SOL    HW1 1874   2.764   1.781   1.000  0.0217  1.2129 -0.4608
  625SOL    HW2 1875   2.934   1.788   1.007 -0.1207 -1.2598 -0.9898
  626SOL     OW 1876   0.612   2.694   1.852 -0.0710 -0.4767  0.2310
  626SOL    HW1 1877   0.638   2.787   1.892  0.2704 -0.8084 -0.6355
  626SOL    HW2 1878   0.517   2.688   1.811  1.7302 -0.6526 -0.3992
  627SOL     OW 1879   0.729   0.988   1.517 -0.1241 -0.2124  0.7756
  627SOL    HW1 1880   0.736   0.897   1.472  0.4877  2.5729 -0.3111
  627SOL    HW2 1881   0.791   1.063   1.482  1.2739 -1.6382  1.9761
  628SOL     OW 1882   2.395   0.176   0.731  0.2232 -0.4704 -0.0355
  628SOL    HW1 1883   2.439   0.105   0.669  3.2432  3.7020 -1.2026
  628SOL    HW2 1884   2.289   0.172   0.746 -3.6333 -1.6349 -0.2048
  629SOL     OW 1885   1.952   0.901   1.983 -0.0885 -0.1304  0.3707
  629SOL    HW1 1886   2.049   0.871   1.994 -1.1968 -1.0871  0.1136
  629SOL    HW2 1887   1.928   1.001   2.008 -2.6674 -0.3183  0.2424
  630SOL     OW 1888   2.849   2.212   0.845 -0.6006  0.3230 -0.7732
  630SOL    HW1 1889   2.757   2.253   0.833 -1.5140 -4.6385  0.0184
  630SOL    HW2 1890   2.852   2.120   0.799  0.6311 -1.0472 -1.7257
  631SOL     OW 1891   2.940   0.135   2.101 -0.3260 -0.0458  0.5591
  631SOL    HW1 1892   2.978   0.191   2.183 -0.6655 -1.7639 -1.4292
  631SOL    HW2 1893   3.009   0.132   2.021 -1.4839  2.1370 -2.5155
  632SOL     OW 1894   2.430   2.514   0.677 -0.3245  0.1866 -0.0025
  632SOL    HW1 1895   2.459   2.601   0.730 -0.7525  3.0133  0.6516
  632SOL    HW2 1896   2.427   2.526   0.572 -0.9242 -1.6348  0.2426
  633SOL     OW 1897   1.473   1.252   2.513  0.5389  0.4120  0.0268
  633SOL    HW1 1898   1.479   1.330   2.583  1.2245  0.6701  0.6452
  633SOL    HW2 1899   1.392   1.253   2.447 -1.4633 -0.4671 -0.1085
  634SOL     OW 1900   0.680   1.951   0.932 -0.2609  0.3263 -0.3924
  634SOL    HW1 1901   0.589   1.986   0.972 -1.5824  0.5604 -0.8270
  634SOL    HW2 1902   0.750   2.029   0.927 -3.0729  1.8131  0.1036
  635SOL     OW 1903   3.089   2.320   3.057  0.0117 -0.0135 -0.1538
  635SOL    HW1 1904   3.028   2.373   2.987 -1.6427  2.6658 -0.8779
  635SOL    HW2 1905   3.103   2.378   3.146  2.0066  0.0702  0.4706
  636SOL     OW 1906   2.277   2.712   2.092 -0.1275 -0.0807 -0.0978
  636SOL    HW1 1907   2.288   2.820   2.090  2.4488  2.5305 -0.8473
  636SOL    HW2 1908   2.243   2.682   2.184 -0.6925 -1.1687 -2.5412
  637SOL     OW 1909   2.605   0.726   2.025 -0.4605  0.4552 -0.0765
  637SOL    HW1 1910   2.552   0.724   1.930  0.1906  0.6619 -2.3181
  637SOL    HW2 1911   2.634   0.823   2.051 -0.7718  0.9755 -0.8256
  638SOL     OW 1912   2.399   1.805   1.248  0.1348  0.2818  0.7257
  638SOL    HW1 1913   2.300   1.843   1.246 -0.7262 -0.9069  0.0620
  638SOL    HW2 1914   2.428   1.761   1.336 -1.3148 -1.2214 -1.1779
  639SOL     OW 1915   1.309   2.182   1.706  0.3545  0.2348 -0.1112
  639SOL    HW1 1916   1.358   2.139   1.624 -0.8819  1.1138 -1.1909
  639SOL    HW2 1917   1.227   2.124   1.726  1.3142 -1.4756  0.8947
  640SOL     OW 1918   0.218   1.154   1.561  0.1912 -0.0922 -0.4730
  640SOL    HW1 1919   0.221   1.193   1.657  1.6665  1.0264 -0.6202
  640SOL    HW2 1920   0.309   1.109   1.541 -0.4267 -1.4734 -0.1277
  641SOL     OW 1921   2.035   0.144   1.534  0.2542 -0.3190  0.7462
  641SOL    HW1 1922   1.975   0.147   1.618 -1.2486 -0.0728 -2.4568
  641SOL    HW2 1923   2.119   0.083   1.542 -1.9996 -4.3121  0.5208
  642SOL     OW 1924   1.946   0.127   0.296  0.0288 -0.3067  0.3664
  642SOL    HW1 1925   2.042   0.117   0.326 -2.2751 -3.4200  0.0607
  642SOL    HW2 1926   1.878   0.134   0.370  1.8907  0.2524 -2.0771
  643SOL     OW 1927   2.891   1.866   2.068 -0.4894 -0.1180  0.5892
  643SOL    HW1 1928   2.841   1.799   2.006  1.9657  0.3547 -1.2844
  643SOL    HW2 1929   2.902   1.952   2.014 -0.1600 -2.4031  0.9814
  644SOL     OW 1930   2.268   2.379   1.209 -0.0676 -0.5222 -0.2227
  644SOL    HW1 1931   2.324   2.299   1.167 -0.3741 -0.0029 -3.7121
  644SOL    HW2 1932   2.240   2.363   1.313 -0.3346  2.0991  0.4923
  645SOL     OW 1933   0.644   0.870   1.274 -0.1370 -0.2579 -0.3618
  645SOL    HW1 1934   0.545   0.886   1.297  2.6310  4.0959  0.4347
  645SOL    HW2 1935   0.653   0.853   1.170 -0.4159  1.2169 -0.4489
  646SOL     OW 1936   1.423   1.922   1.909  0.8274  0.0282 -0.5990
  646SOL    HW1 1937   1.500   1.991   1.887  0.0013  2.0790 -0.5242
  646SOL    HW2 1938   1.357   1.952   1.983  0.2253 -0.8093  0.1053
  647SOL     OW 1939   0.817   1.076   0.651  0.2621  0.0742 -0.6414
  647SOL    HW1 1940   0.870   1.088   0.740 -0.3330 -0.5353  0.8939
  647SOL    HW2 1941   0.740   1.001   0.655 -2.1874 -0.7964  2.1308
  648SOL     OW 1942   0.118   0.184   0.224  0.2901  0.3273  0.1996
  648SOL    HW1 1943   0.143   0.124   0.141  2.9343 -1.6991 -0.4522
  648SOL    HW2 1944   0.114   0.287   0.201 -2.5516 -1.6438 -0.0643
  649SOL     OW 1945   3.048   0.230   0.881  0.0422  0.4611  0.0785
  649SOL    HW1 1946   3.126   0.158   0.885  2.7653  1.7714 -1.6728
  649SOL    HW2 1947   3.058   0.314   0.942 -1.1334 -0.1863  1.5317
  650SOL     OW 1948   2.713   0.654   1.431 -0.4207 -0.4564  0.4769
  650SOL    HW1 1949   2.611   0.654   1.457  2.2439  2.2220  1.2660
  650SOL    HW2 1950   2.749   0.736   1.376  0.4971  0.0781  0.5396
  651SOL     OW 1951   0.942   1.565   1.585  0.1240 -0.3445  0.1131
  651SOL    HW1 1952   0.900   1.657   1.615  1.5481  0.6430 -1.6774
  651SOL    HW2 1953   0.978   1.560   1.490 -1.3525  0.0307 -0.0366
  652SOL     OW 1954   2.286   2.452   2.525 -0.7188  0.1272  0.5235
  652SOL    HW1 1955   2.213   2.393   2.570 -0.5873 -0.9718 -2.0637
  652SOL    HW2 1956   2.251   2.500   2.445  2.9024 -1.7955  1.3791
  653SOL     OW 1957   2.688   1.190   0.175 -0.0903 -0.0328 -0.1846
  653SOL    HW1 1958   2.727   1.284   0.203 -0.3630 -0.3388  2.7683
  653SOL    HW2 1959   2.747   1.107   0.209  1.0475 -0.6643  0.0061
  654SOL     OW 1960   1.297   2.256   1.260 -0.1175  0.0379 -0.0772
  654SOL    HW1 1961   1.292   2.186   1.340  0.8097 -1.6907 -1.3378
  654SOL    HW2 1962   1.332   2.208   1.172 -0.1330  1.0905  2.4547
  655SOL     OW 1963   0.193   0.964   1.864  0.8776  0.3655 -0.2164
  655SOL    HW1 1964   0.228   0.886   1.807 -0.9306  1.5098 -0.3410
  655SOL    HW2 1965   0.271   1.022   1.903 -1.3929  1.0362  2.4114
  656SOL     OW 1966   2.549   2.505   2.626 -0.2510  0.3461  0.4650
  656SOL    HW1 1967   2.619   2.460   2.559  0.9581 -2.1482  4.1523
  656SOL    HW2 1968   2.452   2.502   2.604  1.6858  1.7577  2.4776
  657SOL     OW 1969   3.038   1.055   1.940  0.6773  0.2978 -0.0439
  657SOL    HW1 1970   3.044   1.162   1.943  2.8682 -0.1745 -1.7047
  657SOL    HW2 1971   3.130   1.016   1.918 -0.2774  1.3595  0.9766
  658SOL     OW 1972   1.724   0.230   2.410 -0.0172  0.2815  0.0446
  658SOL    HW1 1973   1.735   0.158   2.485 -1.9721  2.2674  0.4831
  658SOL    HW2 1974   1.752   0.194   2.313  2.3701 -1.1940  1.6639
  659SOL     OW 1975   1.461   0.652   2.942 -0.1127  0.4169 -0.1158
  659SOL    HW1 1976   1.491   0.751   2.960 -0.8126 -0.8865 -0.4579
  659SOL    HW2 1977   1.377   0.649   2.884 -0.2197 -2.8374  1.5203
  660SOL     OW 1978   1.397   0.353   1.457  0.1895 -0.5010 -0.0944
  660SOL    HW1 1979   1.453   0.374   1.535  1.3535 -2.3145 -0.1116
  660SOL    HW2 1980   1.434   0.273   1.401 -1.0162  1.3291 -0.7365
  661SOL     OW 1981   2.507   1.190   0.662  0.3546  0.1061  0.7413
  661SOL    HW1 1982   2.520   1.183   0.559 -2.1501 -2.0117  0.9981
  661SOL    HW2 1983   2.439   1.270   0.686 -2.2361  0.5544 -0.1493
  662SOL     OW 1984   1.369   0.448   1.846 -0.1537  0.0770  0.6586
  662SOL    HW1 1985   1.312   0.368   1.813  0.0409  1.7617  0.1642
  662SOL    HW2 1986   1.336   0.483   1.938 -0.3254 -1.3998  0.0907
  663SOL     OW 1987   0.759   1.552   2.195  0.2701  0.1379 -0.3272
  663SOL    HW1 1988   0.719   1.643   2.222 -2.0363  2.6795 -1.0042
  663SOL    HW2 1989   0.684   1.494   2.139 -1.4365 -2.4834 -1.1375
  664SOL     OW 1990   1.639   2.093   1.493  0.1270  0.5432  0.3572
  664SOL    HW1 1991   1.586   2.021   1.553 -0.3259  1.0466  0.0543
  664SOL    HW2 1992   1.737   2.062   1.475 -1.8942 -0.8593 -2.6488
  665SOL     OW 1993   2.264   0.650   1.960 -0.4240 -0.1124  0.2511
  665SOL    HW1 1994   2.278   0.554   1.997  3.5903 -1.1516  0.1693
  665SOL    HW2 1995   2.262   0.714   2.040  0.2265 -1.9538 -0.4400
  666SOL     OW 1996   0.378   2.348   0.412  0.1013  0.0133  0.8049
  666SOL    HW1 1997   0.452   2.385   0.474  1.6777 -0.6030  0.1688
  666SOL    HW2 1998   0.298   2.318   0.466  3.1532  0.0086 -1.1000
  667SOL     OW 1999   1.984   0.144   1.175  0.3210  0.1288 -0.1105
  667SOL    HW1 2000   1.975   0.246   1.149 -2.2055  1.5671 -1.4543
  667SOL    HW2 2001   1.898   0.119   1.230  0.5916  0.6924 -1.0346
  668SOL     OW 2002   1.994   0.500   1.194 -0.2841 -0.2576  0.3945
  668SOL    HW1 2003   2.056   0.530   1.116  0.0985 -2.0200  0.4142
  668SOL    HW2 2004   2.038   0.470   1.279 -0.3635 -0.5201  1.1325
  669SOL     OW 2005   3.066   2.217   0.996 -0.1177  0.3411 -0.3315
  669SOL    HW1 2006   2.978   2.213   0.932 -1.8332 -0.6068 -3.4065
  669SOL    HW2 2007   3.032   2.246   1.094  0.9693 -2.0044  3.7937
  670SOL     OW 2008   2.852   2.340   1.938  0.1064  0.2283  0.2291
  670SOL    HW1 2009   2.792   2.308   2.015  0.1689 -0.7007 -1.2545
  670SOL    HW2 2010   2.858   2.449   1.937 -1.6311  2.8820  0.4180
  671SOL     OW 2011   1.767   1.750   1.455 -0.1820 -0.7596 -0.2532
  671SOL    HW1 2012   1.817   1.771   1.365 -2.8065 -2.0315 -3.5215
  671SOL    HW2 2013   1.697   1.670   1.442 -2.1368  2.8275 -1.7402
  672SOL     OW 2014   0.377   0.620   2.361 -0.3509  0.0964 -0.3269
  672SOL    HW1 2015   0.446   0.681   2.310  0.0022 -0.2240 -0.0118
  672SOL    HW2 2016   0.295   0.679   2.395 -2.3028  1.7774 -0.0037
  673SOL     OW 2017   0.136   1.172   1.173  0.3321 -0.2555 -0.3528
  673SOL    HW1 2018   0.164   1.239   1.245  2.8280 -0.3021  0.9826
  673SOL    HW2 2019   0.215   1.131   1.120 -0.8647 -1.9002  2.2537
  674SOL     OW 2020   1.606   2.930   0.229 -0.2121  0.4547  0.0192
  674SOL    HW1 2021   1.603   3.011   0.165  0.0779 -2.8555 -0.4948
  674SOL    HW2 2022   1.637   2.845   0.174 -0.7355 -1.0127 -0.8487
  675SOL     OW 2023   1.670   0.826   2.313 -0.6758  0.1036  0.0067
  675SOL    HW1 2024   1.767   0.792   2.286  2.5238  2.5451  1.3737
  675SOL    HW2 2025   1.595   0.753   2.287 -0.2771  2.6367  1.3500
  676SOL     OW 2026   2.479   1.452   2.015 -0.1676  0.4245  0.0279
  676SOL    HW1 2027   2.478   1.422   1.918 -0.1322 -0.9069  2.9557
  676SOL    HW2 2028   2.552   1.401   2.070  2.6627 -0.2928  0.3352
  677SOL     OW 2029   1.961   0.702   0.830  0.0776 -0.3541 -0.8464
  677SOL    HW1 2030   1.990   0.716   0.931  0.7737 -0.2375  1.4854
  677SOL    HW2 2031   1.962   0.601   0.798  0.3759 -2.6827 -1.2517
  678SOL     OW 2032   0.043   0.759   1.683  0.7221 -0.7352 -0.7568
  678SOL    HW1 2033   0.140   0.749   1.712 -1.6974  1.1283 -0.8529
  678SOL    HW2 2034  -0.017   0.793   1.762 -1.1883 -0.1544 -0.7252
  679SOL     OW 2035   2.599   1.175   1.110  0.0143 -0.7094  0.0893
  679SOL    HW1 2036   2.505   1.193   1.151 -1.0255 -1.1237  1.4149
  679SOL    HW2 2037   2.602   1.076   1.074 -4.1800 -1.5871  2.3288
  680SOL     OW 2038   2.780   0.625   1.714 -0.3650 -0.1946 -0.5108
  680SOL    HW1 2039   2.759   0.645   1.614 -0.4827  1.3327  0.5310
  680SOL    HW2 2040   2.815   0.704   1.768  0.7323 -0.5800 -0.7721
  681SOL     OW 2041   3.004   0.174   1.648 -0.8132 -0.5217 -0.6337
  681SOL    HW1 2042   3.095   0.165   1.595 -0.9661 -0.0136 -0.4436
  681SOL    HW2 2043   2.930   0.235   1.614  2.6319 -1.5422  2.8212
  682SOL     OW 2044   0.704   0.032   1.283 -0.0902 -0.0163  0.2505
  682SOL    HW1 2045   0.650  -0.050   1.320  1.4197  1.9610 -1.6306
  682SOL    HW2 2046   0.734   0.018   1.185 -2.5349  2.7454  2.6707
  683SOL     OW 2047   1.329   0.206   2.199 -0.4611  0.3281 -0.2233
  683SOL    HW1 2048   1.301   0.284   2.260  2.4073  0.9229  1.8743
  683SOL    HW2 2049   1.417   0.231   2.144  0.2891  1.5878 -0.4079
  684SOL     OW 2050   1.468   2.125   0.556 -0.1735  0.2901  0.0023
  684SOL    HW1 2051   1.512   2.057   0.624 -0.6420  1.5719  0.7181
  684SOL    HW2 2052   1.377   2.091   0.517  0.6548  0.6973  0.2398
  685SOL     OW 2053   2.164   2.006   1.954 -0.2314  0.2176 -0.2382
  685SOL    HW1 2054   2.235   1.995   1.873  1.5890  2.2582 -0.1137
  685SOL    HW2 2055   2.190   1.963   2.043  1.9606 -0.3873 -1.6293
  686SOL     OW 2056   1.514   1.804   2.762  0.0885  0.3108 -0.0853
  686SOL    HW1 2057   1.529   1.788   2.865 -0.4585 -2.0048  0.1000
  686SOL    HW2 2058   1.580   1.743   2.710  0.6515 -2.6488  2.7415
  687SOL     OW 2059   1.262   2.498   1.974  0.0683  0.7589 -0.3263
  687SOL    HW1 2060   1.265   2.394   1.961 -0.6915 -0.3669  0.6644
  687SOL    HW2 2061   1.341   2.540   2.025 -4.3088  1.5879 -0.7279
  688SOL     OW 2062   2.068   1.579   1.752 -0.0948 -0.7642 -0.2245
  688SOL    HW1 2063   2.169   1.589   1.765 -0.2901 -0.6205  0.5320
  688SOL    HW2 2064   2.051   1.548   1.654 -0.4487 -1.3903  1.4089
  689SOL     OW 2065   2.469   1.073   2.657  0.4029  0.5122 -0.0913
  689SOL    HW1 2066   2.372   1.035   2.666 -1.8710  0.1529  3.4059
  689SOL    HW2 2067   2.518   1.075   2.752 -2.6371 -1.0130  0.6447
  690SOL     OW 2068   2.272   2.802   0.053  0.3245 -0.2827  0.2734
  690SOL    HW1 2069   2.205   2.742  -0.000  2.2689  1.6220 -1.0629
  690SOL    HW2 2070   2.216   2.851   0.123  1.7006  0.9169 -1.5939
  691SOL     OW 2071   2.578   0.489   2.141 -0.4333 -0.3476 -1.2173
  691SOL    HW1 2072   2.614   0.414   2.074  0.4217 -0.4829  1.6430
  691SOL    HW2 2073   2.580   0.587   2.102 -0.8471 -0.0677 -2.3694
  692SOL     OW 2074   2.766   1.213   0.713  0.2457  0.1503  0.3563
  692SOL    HW1 2075   2.663   1.191   0.702 -0.4927 -2.2929  0.0993
  692SOL    HW2 2076   2.786   1.285   0.782 -0.5701 -0.5317 -1.6789
  693SOL     OW 2077   2.778   2.954   0.658 -0.0412 -0.3604 -0.5159
  693SOL    HW1 2078   2.804   3.036   0.714 -0.3029 -0.2748  0.9798
  693SOL    HW2 2079   2.735   2.970   0.564 -0.9177 -0.3219  0.4696
  694SOL     OW 2080   2.399   2.213   0.082  0.4911  0.0712  0.1049
  694SOL    HW1 2081   2.375   2.306   0.114  2.7617 -1.7381 -1.2056
  694SOL    HW2 2082   2.317   2.161   0.050  0.1756  1.5381  0.5509
  695SOL     OW 2083   0.601   2.954   1.492 -0.0929  0.1117 -0.1456
  695SOL    HW1 2084   0.541   2.886   1.439  2.6835 -0.0710  1.2783
  695SOL    HW2 2085   0.552   2.986   1.581  0.9554 -1.2986  0.7202
  696SOL     OW 2086   2.835   1.950   0.753 -0.6116  0.7267 -0.5903
  696SOL    HW1 2087   2.809   1.867   0.815 -0.0587  0.9764  0.1217
  696SOL    HW2 2088   2.874   1.915   0.664 -0.1682 -2.2543 -1.1831
  697SOL     OW 2089   1.639   2.082   1.816 -0.0029 -0.0230  0.0183
  697SOL    HW1 2090   1.711   2.024   1.872  1.4565 -1.9720  3.2054
  697SOL    HW2 2091   1.678   2.166   1.777 -0.2977 -0.0860  0.6117
  698SOL     OW 2092   2.962   0.395   2.763  0.2364 -0.3089 -0.0575
  698SOL    HW1 2093   2.976   0.353   2.668  2.3822 -3.2780 -1.2116
  698SOL    HW2 2094   3.010   0.343   2.839 -0.0527  0.0318 -0.7798
  699SOL     OW 2095   1.569   0.088   2.946  0.2579 -0.5447  0.0512
  699SOL    HW1 2096   1.546  -0.006   2.912  1.6284 -0.4469  3.5327
  699SOL    HW2 2097   1.603   0.159   2.875  0.5789  1.5174  1.7774
  700SOL     OW 2098   1.014   2.307   1.311  0.2813 -0.2451  0.2023
  700SOL    HW1 2099   1.115   2.286   1.306 -1.4591 -0.7797 -2.0510
  700SOL    HW2 2100   0.951   2.253   1.242 -1.5180  1.1625 -1.8443
  701SOL     OW 2101   1.937   2.840   3.068 -0.0826 -0.1931 -0.7786
  701SOL    HW1 2102   1.898   2.781   3.145 -2.7544 -1.2616  0.1024
  701SOL    HW2 2103   1.948   2.941   3.085 -0.5610 -0.0342  0.2332
  702SOL     OW 2104   2.044   1.337   1.922  0.4358  0.2170 -0.3874
  702SOL    HW1 2105   2.135   1.292   1.923  1.4875 -0.3432 -2.3204
  702SOL    HW2 2106   2.010   1.359   1.826  1.2962 -0.1341  1.1817
  703SOL     OW 2107   1.954   0.888   1.410  0.2002 -0.1616 -0.1573
  703SOL    HW1 2108   1.966   0.791   1.449  0.3890 -0.8362  0.6503
  703SOL    HW2 2109   1.998   0.955   1.473  1.2282  1.4179  0.4183
  704SOL     OW 2110   0.342   2.039   1.678 -0.5872  0.2832 -0.8500
  704SOL    HW1 2111   0.376   1.978   1.754  2.1750 -0.4631 -0.1879
  704SOL    HW2 2112   0.404   2.122   1.672  0.6630 -2.8636  1.3648
  705SOL     OW 2113   2.498   1.389   0.964  0.0812  0.0892 -0.1445
  705SOL    HW1 2114   2.489   1.389   0.862  0.3662 -1.8259  0.4181
  705SOL    HW2 2115   2.557   1.308   1.002  1.1937 -3.3303  0.0012
  706SOL     OW 2116   0.656   1.713   1.829 -0.3192  0.2586 -0.1128
  706SOL    HW1 2117   0.671   1.615   1.860 -3.7733  1.2707 -0.9752
  706SOL    HW2 2118   0.706   1.780   1.894 -1.0931  1.8598  0.1016
  707SOL     OW 2119   2.257   1.171   1.874 -0.7208 -0.3609  0.1589
  707SOL    HW1 2120   2.354   1.187   1.913  2.6897  0.5490  0.3268
  707SOL    HW2 2121   2.237   1.072   1.851 -1.4246  0.0688  1.7445
  708SOL     OW 2122   2.981   0.528   3.037  0.0837 -1.0976 -0.1620
  708SOL    HW1 2123   3.010   0.600   2.970 -4.1971 -0.4907  1.1358
  708SOL    HW2 2124   2.973   0.433   3.002 -0.2208  5.1558  1.0029
  709SOL     OW 2125   1.779   1.853   0.209 -0.0920  0.0886 -0.1367
  709SOL    HW1 2126   1.814   1.950   0.225 -2.3862  2.9363  0.6247
  709SOL    HW2 2127   1.791   1.827   0.110  2.1244  3.0770  0.5527
  710SOL     OW 2128   1.697   1.621   2.412 -0.5927  0.1415  0.1357
  710SOL    HW1 2129   1.735   1.610   2.316  2.1066 -2.0212 -1.8933
  710SOL    HW2 2130   1.741   1.562   2.485  0.4900 -0.9461 -0.3227
  711SOL     OW 2131   2.694   2.967   0.966 -0.3706 -0.2285 -0.6104
  711SOL    HW1 2132   2.656   3.054   0.927 -2.7454 -0.2348  0.4548
  711SOL    HW2 2133   2.797   2.954   0.956 -1.5230  0.7977  2.5717
  712SOL     OW 2134   1.359   2.242   1.986  0.3967 -0.0402  0.2573
  712SOL    HW1 2135   1.459   2.239   2.009  1.2638 -2.7673 -1.0421
  712SOL    HW2 2136   1.343   2.216   1.888  0.0331 -2.5028 -0.5974
  713SOL     OW 2137   2.937   1.458   2.585 -0.1425  0.4598 -0.1906
  713SOL    HW1 2138   2.876   1.393   2.537 -0.0076  1.5343  1.1602
  713SOL    HW2 2139   2.893   1.507   2.663 -1.1687 -1.4090 -2.9383
  714SOL     OW 2140   2.673   0.506   2.420 -0.1130 -0.6027 -0.6103
  714SOL    HW1 2141   2.604   0.470   2.490 -1.4918 -1.7312  0.5923
  714SOL    HW2 2142   2.635   0.501   2.321  0.1337 -0.5787 -2.4280
  715SOL     OW 2143   1.595   2.043   1.204  0.0534  0.0089 -0.3267
  715SOL    HW1 2144   1.515   2.070   1.140 -1.2712  0.9998  0.3309
  715SOL    HW2 2145   1.583   2.083   1.299 -0.2332 -2.1664  2.6691
  716SOL     OW 2146   1.190   0.162   1.483  0.0318  0.6085  0.6177
  716SOL    HW1 2147   1.087   0.173   1.468 -0.3282 -0.8562 -1.3950
  716SOL    HW2 2148   1.234   0.256   1.472 -1.5724  1.4411  0.0847
  717SOL     OW 2149   1.109   0.573   1.616  0.4389  0.4430  0.5208
  717SOL    HW1 2150   1.206   0.594   1.632 -1.0501  1.3530  1.8317
  717SOL    HW2 2151   1.098   0.539   1.520 -2.8445  0.2446 -0.5391
  718SOL     OW 2152   0.721   0.929   0.940  0.1316  0.3209 -0.4175
  718SOL    HW1 2153   0.689   0.894   0.850  1.3603 -0.9155 -0.3287
  718SOL    HW2 2154   0.674   1.009   0.988  0.4226 -0.7461  1.3571
  719SOL     OW 2155   0.680   1.797   2.278 -0.3948  0.0769 -0.6461
  719SOL    HW1 2156   0.749   1.838   2.343 -0.5930  0.4057 -1.6666
  719SOL    HW2 2157   0.594   1.784   2.334  2.2146  1.7803 -1.0151
  720SOL     OW 2158   2.178   1.158   0.253 -0.1864 -0.0968 -0.0800
  720SOL    HW1 2159   2.249   1.096   0.209  0.0942  0.4908  0.6529
  720SOL    HW2 2160   2.170   1.136   0.353 -1.6013 -0.6817  1.2362
  721SOL     OW 2161   2.282   2.998   2.107 -0.2898  0.0376 -0.7038
  721SOL    HW1 2162   2.234   3.013   2.014  1.1805 -1.6582 -1.8753
  721SOL    HW2 2163   2.222   3.007   2.190  3.2523 -2.2678 -1.0401
  722SOL     OW 2164   2.358   1.620   0.556 -0.6803  0.5474  0.8521
  722SOL    HW1 2165   2.390   1.615   0.458  0.2462  0.5660  1.1968
  722SOL    HW2 2166   2.309   1.710   0.576  2.6639 -1.3903  1.2821
  723SOL     OW 2167   2.524   2.714   1.994  0.5187 -0.7005  0.4210
  723SOL    HW1 2168   2.578   2.771   2.065  0.2873 -0.7076  2.6424
  723SOL    HW2 2169   2.422   2.708   2.014  1.9061 -0.6694  0.8691
  724SOL     OW 2170   0.534   2.464   2.424 -0.1333  0.1024 -0.2692
  724SOL    HW1 2171   0.430   2.462   2.458 -0.9722  3.3960  0.1852
  724SOL    HW2 2172   0.601   2.478   2.507  1.9410 -0.3924 -0.5466
  725SOL     OW 2173   2.430   2.794   1.513 -0.0963 -0.6722  0.0416
  725SOL    HW1 2174   2.429   2.788   1.408  1.2791  0.3475  0.7411
  725SOL    HW2 2175   2.374   2.721   1.556 -0.7953  1.2907 -1.3231
  726SOL     OW 2176   2.428   2.240   0.689 -0.7544 -0.5518 -0.6789
  726SOL    HW1 2177   2.416   2.340   0.674  1.7980  2.5382 -0.2923
  726SOL    HW2 2178   2.441   2.190   0.600 -3.1428  0.2780  2.0606
  727SOL     OW 2179   0.140   3.069   0.042  0.1298 -0.3600  0.3183
  727SOL    HW1 2180   0.190   2.981   0.065  0.1618 -1.0964 -0.4001
  727SOL    HW2 2181   0.107   3.069  -0.054  0.4311 -2.4137 -1.3778
  728SOL     OW 2182   2.866   0.683   0.972  0.2279  0.0096  0.2608
  728SOL    HW1 2183   2.766   0.669   0.932  0.4108  1.6718 -0.5169
  728SOL    HW2 2184   2.884   0.659   1.072  0.6332  0.3381 -0.5959
  729SOL     OW 2185   3.005   2.496   0.757 -0.6583  0.3328  0.1179
  729SOL    HW1 2186   2.935   2.436   0.803  1.5344  3.6545 -4.0939
  729SOL    HW2 2187   3.100   2.458   0.756 -2.9685 -0.5020  0.6189
  730SOL     OW 2188   2.628   0.658   0.836 -0.7027 -0.5035  0.4955
  730SOL    HW1 2189   2.549   0.721   0.811  1.2574  2.9100 -0.9943
  730SOL    HW2 2190   2.706   0.656   0.762  1.2715  0.0130 -4.5937
  731SOL     OW 2191   0.139   2.169   2.435  0.1759 -0.2331  0.2822
  731SOL    HW1 2192   0.116   2.210   2.530 -3.3200  0.2101  0.1850
  731SOL    HW2 2193   0.140   2.241   2.363  2.3753 -1.7204 -3.6117
  732SOL     OW 2194   1.131   2.846   1.942 -0.3345 -0.4871 -0.0498
  732SOL    HW1 2195   1.180   2.804   2.027  0.8940 -0.1435 -1.2098
  732SOL    HW2 2196   1.145   2.787   1.857 -1.1937  3.9314  0.7394
  733SOL     OW 2197   3.040   0.556   2.236  0.0566 -0.1690 -0.5549
  733SOL    HW1 2198   3.125   0.605   2.188  1.0361  2.9175 -0.8302
  733SOL    HW2 2199   2.961   0.541   2.171  2.2122 -1.7106  2.9330
  734SOL     OW 2200   1.418   0.360   2.759 -0.1340  0.7226 -0.0351
  734SOL    HW1 2201   1.432   0.453   2.798 -1.3228 -2.0200 -0.0889
  734SOL    HW2 2202   1.325   0.316   2.780 -0.5881 -1.6610 -0.4615
  735SOL     OW 2203   2.882   2.634   2.239 -0.0974 -0.1813 -0.0888
  735SOL    HW1 2204   2.867   2.646   2.136  1.5699  3.0367  1.8696
  735SOL    HW2 2205   2.984   2.654   2.261  0.9907  0.3971  0.2098
  736SOL     OW 2206   0.750   0.301   2.668  0.2267  0.1481 -0.1860
  736SOL    HW1 2207   0.644   0.298   2.663 -4.0788  0.4407 -0.0271
  736SOL    HW2 2208   0.791   0.290   2.575 -1.1463  2.6192 -2.1958
  737SOL     OW 2209   2.679   0.392   2.872  0.0794 -0.4799 -0.4837
  737SOL    HW1 2210   2.632   0.379   2.965 -2.1477 -2.0189 -1.9564
  737SOL    HW2 2211   2.776   0.431   2.873  0.3802  1.2582 -0.7996
  738SOL     OW 2212   1.613   1.263   2.917 -0.5035 -0.0389  0.3013
  738SOL    HW1 2213   1.714   1.256   2.896 -0.2052 -1.0328 -0.4963
  738SOL    HW2 2214   1.558   1.196   2.858 -2.9518 -2.4527  0.2112
  739SOL     OW 2215   1.730   0.608   0.691 -0.2602 -0.1598  0.3868
  739SOL    HW1 2216   1.791   0.649   0.761  0.6416 -1.2395 -3.5648
  739SOL    HW2 2217   1.776   0.526   0.643 -1.5392  0.7233 -1.2246
  740SOL     OW 2218   2.009   1.921   2.261  0.2655  0.0759  0.9895
  740SOL    HW1 2219   2.043   1.857   2.336 -0.0877 -0.2165 -2.8951
  740SOL    HW2 2220   1.951   1.866   2.198 -1.8078 -0.3477  1.4788
  741SOL     OW 2221   2.534   0.066   2.633 -0.0249  0.3191  0.5164
  741SOL    HW1 2222   2.634   0.064   2.611 -0.6863  0.9531 -0.1012
  741SOL    HW2 2223   2.486   0.019   2.551 -0.3459  1.5435 -0.5867
  742SOL     OW 2224   2.236   1.460   0.236 -0.3513  0.3015 -0.6288
  742SOL    HW1 2225   2.148   1.515   0.224  1.2329  1.8926 -2.2450
  742SOL    HW2 2226   2.213   1.360   0.251  0.3704 -1.3040  0.2204
  743SOL     OW 2227   1.826   0.670   2.617 -0.3670 -0.0291 -0.2888
  743SOL    HW1 2228   1.808   0.611   2.533 -2.5586 -0.7169 -1.8421
  743SOL    HW2 2229   1.754   0.744   2.628  1.2842 -2.2999 -2.5927
  744SOL     OW 2230   2.646   2.095   0.083  0.9646  0.4923 -0.7147
  744SOL    HW1 2231   2.552   2.140   0.119 -1.7921  2.5331 -1.4812
  744SOL    HW2 2232   2.624   1.995   0.071  0.1620 -2.4576 -0.5471
  745SOL     OW 2233   2.168   2.637   2.333 -0.5835 -0.3064  0.2031
  745SOL    HW1 2234   2.086   2.635   2.271  2.9635  3.0376 -1.6237
  745SOL    HW2 2235   2.157   2.694   2.420  1.0344  1.8429 -1.4063
  746SOL     OW 2236   3.065   2.641   1.724 -0.1988 -0.5565 -0.1393
  746SOL    HW1 2237   3.141   2.674   1.664  0.6545  0.6528 -1.5712
  746SOL    HW2 2238   3.028   2.713   1.788  0.5235 -0.2403  1.1295
  747SOL     OW 2239   0.001   1.792   1.623  0.2544  0.4447  0.0006
  747SOL    HW1 2240  -0.041   1.702   1.608 -0.9049  0.4176 -1.5320
  747SOL    HW2 2241   0.072   1.815   1.548  1.1120 -0.2432  3.1309
  748SOL     OW 2242   1.847   2.737   2.825  0.1683 -0.0944  0.0367
  748SOL    HW1 2243   1.896   2.800   2.897 -0.0957 -0.1969  0.8961
  748SOL    HW2 2244   1.742   2.719   2.826  0.0180  2.3465 -0.2796
  749SOL     OW 2245   1.307   3.060   0.945  0.7434  0.2221 -0.4802
  749SOL    HW1 2246   1.274   2.995   1.017 -1.7883 -0.2208  0.7352
  749SOL    HW2 2247   1.242   3.053   0.864  1.7100 -1.1504  0.0128
  750SOL     OW 2248   2.382   0.201   1.854  0.5094  0.0682  0.1636
  750SOL    HW1 2249   2.393   0.264   1.774  1.7500  0.7626  1.8035
  750SOL    HW2 2250   2.360   0.255   1.940 -1.4210 -0.0737  1.0953
  751SOL     OW 2251   0.920   2.194   2.719  0.5152  0.7981 -0.6374
  751SOL    HW1 2252   0.977   2.214   2.805  0.5827  0.8819 -0.8353
  751SOL    HW2 2253   0.827   2.149   2.742 -1.1578  0.1200 -0.5543
  752SOL     OW 2254   1.258   0.865   1.409 -0.2526  0.0916  0.8230
  752SOL    HW1 2255   1.337   0.931   1.392 -1.1161 -2.8912 -1.1030
  752SOL    HW2 2256   1.290   0.766   1.396  0.9317  3.3782 -0.7072
  753SOL     OW 2257   0.940   2.579   1.715  0.4387  0.1251 -0.1691
  753SOL    HW1 2258   1.033   2.621   1.702  0.1722 -2.5217  0.6307
  753SOL    HW2 2259   0.865   2.645   1.682 -1.6417  2.2169  2.3938
  754SOL     OW 2260   1.132   1.272   3.097  0.6078  0.6775  0.4687
  754SOL    HW1 2261   1.210   1.229   3.038  3.7478 -0.9365  0.2199
  754SOL    HW2 2262   1.118   1.371   3.068  1.2569  1.5435 -1.9380
  755SOL     OW 2263   1.966   0.449   2.217  0.6270 -0.2844 -0.7093
  755SOL    HW1 2264   2.040   0.412   2.283  0.7479 -0.2998 -0.8208
  755SOL    HW2 2265   1.880   0.475   2.274 -1.3592  3.0248 -0.1506
  756SOL     OW 2266   2.554   1.004   2.967 -0.2403 -0.6875  0.0032
  756SOL    HW1 2267   2.659   0.992   2.991  0.8640  0.3761  2.4243
  756SOL    HW2 2268   2.502   0.916   2.981  3.2907  1.8698 -1.8611
  757SOL     OW 2269   3.061   0.443   1.781 -0.3706  0.0989  0.3091
  757SOL    HW1 2270   3.155   0.443   1.817 -0.6796 -1.4789  2.8732
  757SOL    HW2 2271   3.032   0.361   1.724  3.2038  0.6320 -1.5792
  758SOL     OW 2272   2.395   0.084   1.420 -0.0503  0.0855 -0.2818
  758SOL    HW1 2273   2.327   0.031   1.480  0.2808 -2.9839  2.8252
  758SOL    HW2 2274   2.371   0.067   1.322  3.0208 -0.3258 -2.1753
  759SOL     OW 2275   1.715   0.082   0.070 -0.2211 -0.4539 -0.2226
  759SOL    HW1 2276   1.666   0.099  -0.021 -1.4614  0.0497  1.0044
  759SOL    HW2 2277   1.800   0.028   0.054 -0.3276 -0.6488 -2.2465
  760SOL     OW 2278   2.734   2.096   2.819  0.1503  0.0832 -0.5073
  760SOL    HW1 2279   2.747   2.017   2.885  1.6178  0.8408  0.1526
  760SOL    HW2 2280   2.706   2.186   2.870 -3.0308  1.8024  0.3074
  761SOL     OW 2281   1.899   1.786   1.719  0.0986 -0.0317  0.3120
  761SOL    HW1 2282   1.948   1.695   1.749  0.4173  1.3336 -1.7609
  761SOL    HW2 2283   1.839   1.771   1.635  1.0882  0.7175  1.2620
  762SOL     OW 2284   0.460   2.315   0.965 -0.0396 -0.0428  0.2441
  762SOL    HW1 2285   0.511   2.361   0.888 -0.0851  0.3156  1.9857
  762SOL    HW2 2286   0.495   2.365   1.049  1.4607  0.9204  0.7990
  763SOL     OW 2287   2.080   1.514   2.928 -0.0029 -0.5365  0.2697
  763SOL    HW1 2288   2.171   1.494   2.968 -0.4729 -0.7031 -1.3603
  763SOL    HW2 2289   2.000   1.472   2.975 -0.7919  1.9209 -0.1422
  764SOL     OW 2290   0.614   0.597   0.853  0.2947 -0.0387  0.4081
  764SOL    HW1 2291   0.589   0.521   0.785  0.9108 -1.0727 -1.3002
  764SOL    HW2 2292   0.715   0.586   0.881  1.2309  0.5666 -2.3654
  765SOL     OW 2293   0.706   0.241   0.799 -0.0861 -0.3000  0.2751
  765SOL    HW1 2294   0.767   0.298   0.733  2.6885  0.2046 -2.1745
  765SOL    HW2 2295   0.701   0.276   0.900 -0.0939 -1.0333 -0.2765
  766SOL     OW 2296   2.923   2.089   3.099  0.2482  0.2687 -0.2168
  766SOL    HW1 2297   2.824   2.087   3.139 -1.7131  0.0144 -1.5198
  766SOL    HW2 2298   2.952   2.180   3.061 -1.2588 -1.1640  0.3464
  767SOL     OW 2299   2.811   1.562   0.591  0.1192 -0.2250 -0.6084
  767SOL    HW1 2300   2.728   1.597   0.645  3.1525  0.1041  0.8211
  767SOL    HW2 2301   2.896   1.596   0.643  1.5157  2.2141  0.9077
  768SOL     OW 2302   1.105   0.207   0.362  0.2871  0.3936  0.7489
  768SOL    HW1 2303   1.031   0.142   0.407  1.4888 -2.7978  0.3499
  768SOL    HW2 2304   1.171   0.153   0.307 -0.2334  0.4989 -2.2416
  769SOL     OW 2305   1.024   1.903   2.233  0.8570  0.0010 -0.1216
  769SOL    HW1 2306   0.979   1.926   2.322  2.6231 -3.8180  0.6222
  769SOL    HW2 2307   1.030   1.805   2.202 -0.1512  1.7604 -0.2267
  770SOL     OW 2308   0.166   1.168   2.247 -0.0906  0.9836 -0.1152
  770SOL    HW1 2309   0.149   1.203   2.342  0.8898  1.8190 -2.0288
  770SOL    HW2 2310   0.087   1.111   2.206 -2.1198 -0.4009  0.3198
  771SOL     OW 2311   2.991   2.850   1.906 -0.6868  0.6086  0.1111
  771SOL    HW1 2312   2.957   2.908   1.825 -0.0262  0.0496  1.1336
  771SOL    HW2 2313   2.973   2.900   1.993  1.9652 -0.9236 -1.0406
  772SOL     OW 2314   2.192   0.165   2.934 -0.8666 -0.5041 -0.0814
  772SOL    HW1 2315   2.289   0.121   2.924  1.3061 -2.5087 -0.3488
  772SOL    HW2 2316   2.182   0.246   2.996  2.5386  1.1679  0.5668
  773SOL     OW 2317   0.702   2.204   2.488 -0.4134  0.3080 -0.2362
  773SOL    HW1 2318   0.660   2.197   2.393 -0.5120  1.4835 -0.8570
  773SOL    HW2 2319   0.637   2.170   2.565 -2.4243 -2.5670  1.5251
  774SOL     OW 2320   2.004   0.023   2.643  0.3705  0.0064  0.2893
  774SOL    HW1 2321   1.981   0.128   2.651 -0.7887  1.1135 -0.6783
  774SOL    HW2 2322   2.064  -0.018   2.714 -0.4034  1.6941  1.4763
  775SOL     OW 2323   2.522   2.826   2.429  0.0483 -0.7706  0.2006
  775SOL    HW1 2324   2.489   2.923   2.419 -2.6781 -0.4976  0.3724
  775SOL    HW2 2325   2.616   2.811   2.473  3.2783  3.4119 -0.7996
  776SOL     OW 2326   0.066   1.305   0.201  0.9773  0.0600 -0.2670
  776SOL    HW1 2327   0.023   1.260   0.118  0.4113  1.3223  1.3429
  776SOL    HW2 2328   0.043   1.244   0.287 -1.8885 -2.0140  0.6159
  777SOL     OW 2329   0.270   2.847   0.433 -0.5436 -0.5424  1.0037
  777SOL    HW1 2330   0.178   2.886   0.428  1.0475  2.4731  0.9144
  777SOL    HW2 2331   0.330   2.906   0.496  2.0638  0.1272 -1.6088
  778SOL     OW 2332   1.319   1.953   0.182  0.4532  0.1915  0.0689
  778SOL    HW1 2333   1.255   1.933   0.266  1.9226 -1.9416  1.9644
  778SOL    HW2 2334   1.316   2.051   0.147 -0.5383 -0.1670 -0.1342
  779SOL     OW 2335   0.198   0.852   0.489  0.0510  0.2052  0.0873
  779SOL    HW1 2336   0.150   0.760   0.479 -1.0723  0.0476 -0.6570
  779SOL    HW2 2337   0.142   0.915   0.552  1.5404  0.0375  1.1723
  780SOL     OW 2338   0.090   0.270   2.250  0.2492  0.2971  0.5158
  780SOL    HW1 2339   0.071   0.352   2.308 -0.3058 -1.0863  1.3554
  780SOL    HW2 2340   0.185   0.269   2.207 -1.7537 -0.6262  1.1410
  781SOL     OW 2341   0.629   1.757   1.552  0.0288 -0.3434  0.0898
  781SOL    HW1 2342   0.644   1.765   1.656 -1.9506 -1.6948 -0.3667
  781SOL    HW2 2343   0.532   1.724   1.520 -1.1816 -2.2928  0.9630
  782SOL     OW 2344   2.601   0.182   0.918 -0.3967 -0.3840  0.1644
  782SOL    HW1 2345   2.506   0.193   0.870 -1.5626  0.6592  1.3869
  782SOL    HW2 2346   2.603   0.237   1.005 -1.3803 -0.7244  2.3810
  783SOL     OW 2347   2.865   0.712   2.541  0.1963 -0.1062 -0.5528
  783SOL    HW1 2348   2.811   0.708   2.636  2.5299 -0.1261  1.2765
  783SOL    HW2 2349   2.811   0.666   2.464 -1.2442  1.8770 -0.3721
  784SOL     OW 2350   1.396   2.196   0.079 -0.2536  0.1680 -0.2934
  784SOL    HW1 2351   1.483   2.223   0.128  1.2307 -1.0367  1.5660
  784SOL    HW2 2352   1.401   2.208  -0.023  1.0733  0.8510 -0.7306
  785SOL     OW 2353   2.153   0.387   3.083  0.2668 -0.2955 -0.1558
  785SOL    HW1 2354   2.071   0.387   3.148  0.2106 -1.2977 -3.8744
  785SOL    HW2 2355   2.181   0.481   3.042  1.4173  0.8566 -3.4871
  786SOL     OW 2356   2.007   2.199   2.235 -0.2134  0.0165 -0.2425
  786SOL    HW1 2357   2.002   2.094   2.243 -0.8580 -3.1658  0.2881
  786SOL    HW2 2358   2.096   2.225   2.191 -1.7070  1.9963  0.8559
  787SOL     OW 2359   1.436   0.624   0.929 -0.3609 -0.3494 -0.3251
  787SOL    HW1 2360   1.347   0.661   0.964 -1.1980 -1.8390  0.3552
  787SOL    HW2 2361   1.429   0.597   0.829  0.2910 -0.2173 -0.8695
  788SOL     OW 2362   1.241   0.391   3.060 -0.2990  0.2022 -0.4916
  788SOL    HW1 2363   1.138   0.392   3.035 -0.7890  2.9039  0.7666
  788SOL    HW2 2364   1.272   0.476   3.115 -1.8078  3.5145  1.4321
  789SOL     OW 2365   2.588   0.017   1.803 -0.1767 -0.0121  0.1456
  789SOL    HW1 2366   2.503   0.072   1.830  2.1810 -1.9645 -4.2808
  789SOL    HW2 2367   2.563  -0.087   1.789  0.1509 -3.7567 -0.3905
  790SOL     OW 2368   2.573   2.716   0.828  0.3766  0.0936  0.7915
  790SOL    HW1 2369   2.645   2.793   0.823  0.8400  2.2498 -2.7417
  790SOL    HW2 2370   2.593   2.647   0.898  1.5141 -1.1775  2.2132
  791SOL     OW 2371   1.916   1.245   0.270 -0.2357  0.5569  0.3071
  791SOL    HW1 2372   1.825   1.194   0.298  0.8106 -1.3539  0.6252
  791SOL    HW2 2373   1.994   1.177   0.263  0.1529 -0.5326 -0.7148
  792SOL     OW 2374   0.437   1.986   2.132  0.3122  0.0762 -0.0342
  792SOL    HW1 2375   0.496   2.066   2.168  1.1963  1.9104 -4.3839
  792SOL    HW2 2376   0.359   1.953   2.190  1.4286 -2.0445  0.6616
  793SOL     OW 2377   2.077   1.583   2.090  0.2453 -0.2978 -0.3649
  793SOL    HW1 2378   2.174   1.623   2.070 -1.3860  0.4171 -2.2748
  793SOL    HW2 2379   2.061   1.491   2.038  0.4648 -1.4272 -2.5530
  794SOL     OW 2380   0.444   1.356   2.475  0.6401 -0.3057  0.3424
  794SOL    HW1 2381   0.436   1.296   2.390 -1.4556 -1.6750  2.7875
  794SOL    HW2 2382   0.416   1.454   2.453 -0.3555 -2.1252 -1.9800
  795SOL     OW 2383   2.419   2.323   1.713  0.4069  0.5108  0.7141
  795SOL    HW1 2384   2.441   2.337   1.810  2.3687  1.9343 -0.1214
  795SOL    HW2 2385   2.374   2.230   1.703  4.9886  1.0014  0.9266
  796SOL     OW 2386   0.002   1.097   2.680  0.4903  0.0887  0.3316
  796SOL    HW1 2387  -0.098   1.117   2.708  0.9230 -0.0757  1.0285
  796SOL    HW2 2388   0.065   1.079   2.763 -2.4275 -0.6917  1.5215
  797SOL     OW 2389   0.747   0.616   1.342 -0.0475  0.3403  0.2795
  797SOL    HW1 2390   0.831   0.657   1.390 -1.4928  1.0924  0.8407
  797SOL    HW2 2391   0.692   0.696   1.299 -1.2510 -1.7592 -0.5680
  798SOL     OW 2392   1.336   0.422   1.105 -0.1777 -0.1518 -0.5639
  798SOL    HW1 2393   1.391   0.427   1.196  0.7432  1.4571 -1.6278
  798SOL    HW2 2394   1.363   0.494   1.038 -0.6164  1.3197  0.0685
  799SOL     OW 2395   1.947   2.615   1.058  0.3189 -0.2739 -0.0746
  799SOL    HW1 2396   1.927   2.516   1.077 -2.6174  1.0757 -2.5704
  799SOL    HW2 2397   1.873   2.670   1.016 -1.5691  1.1998  0.0660
  800SOL     OW 2398   2.947   0.800   1.880 -0.7070  0.5989 -0.4917
  800SOL    HW1 2399   2.968   0.893   1.922 -0.4197  1.6625 -0.4157
  800SOL    HW2 2400   2.891   0.732   1.932 -3.1024  1.7201 -3.0300
  801SOL     OW 2401   1.988   2.200   0.031  0.6862 -0.0582  0.1158
  801SOL    HW1 2402   1.920   2.182  -0.050 -1.7538 -0.5023 -1.1678
  801SOL    HW2 2403   2.074   2.145   0.028  1.1740  1.5393  3.2637
  802SOL     OW 2404   0.610   0.819   2.587  0.1917  0.2513 -0.0861
  802SOL    HW1 2405   0.657   0.738   2.541  3.9885  1.6409 -2.3547
  802SOL    HW2 2406   0.526   0.857   2.534  0.6024 -0.7927  0.5530
  803SOL     OW 2407   0.974   0.088   0.828  0.4744  0.4349  0.6857
  803SOL    HW1 2408   1.041   0.147   0.881 -0.2273 -0.9897  2.5428
  803SOL    HW2 2409   0.907   0.152   0.778  0.5244  0.2740  1.0943
  804SOL     OW 2410   0.315   3.068   2.183 -0.0628 -0.6023  0.7560
  804SOL    HW1 2411   0.333   3.173   2.182 -0.0850  0.5597  2.3187
  804SOL    HW2 2412   0.255   3.033   2.101  0.8205 -1.2607 -1.5557
  805SOL     OW 2413   2.341   0.406   0.368  0.2312 -0.2137 -0.7160
  805SOL    HW1 2414   2.427   0.401   0.431 -2.4651 -1.7313 -0.3228
  805SOL    HW2 2415   2.355   0.351   0.281  1.5797  1.3381  1.1544
  806SOL     OW 2416   0.698   2.442   1.789  0.5937  0.4556  0.0288
  806SOL    HW1 2417   0.658   2.525   1.841  3.6138 -0.4084  2.0651
  806SOL    HW2 2418   0.785   2.468   1.734  3.7500 -0.9173  1.2859
  807SOL     OW 2419   2.509   0.831   0.407 -0.5606  0.5694  0.1198
  807SOL    HW1 2420   2.595   0.870   0.447 -1.3156  1.7946  4.8047
  807SOL    HW2 2421   2.486   0.866   0.314 -1.0274 -1.7567  1.0928
  808SOL     OW 2422   0.633   2.097   2.932 -0.0510 -0.7445  0.2363
  808SOL    HW1 2423   0.580   2.144   3.007  1.2942  0.0215 -2.2822
  808SOL    HW2 2424   0.655   1.998   2.948 -1.0517 -0.0467 -0.9288
  809SOL     OW 2425   2.587   1.980   1.884 -0.2524  0.2592 -0.4219
  809SOL    HW1 2426   2.689   2.010   1.877  1.8455  2.5525 -1.0642
  809SOL    HW2 2427   2.535   1.961   1.797 -0.2490 -3.1013  0.7523
  810SOL     OW 2428   2.203   1.102   0.533  0.2377  0.0049 -0.5311
  810SOL    HW1 2429   2.160   1.013   0.554  3.5623  1.0158  1.2391
  810SOL    HW2 2430   2.175   1.178   0.592  1.2471 -1.3129 -2.2528
  811SOL     OW 2431   1.378   2.510   1.208  0.2312 -0.1142 -0.2935
  811SOL    HW1 2432   1.331   2.417   1.237  2.2553  0.6463 -1.4979
  811SOL    HW2 2433   1.335   2.592   1.253  0.2961 -0.8925  0.0752
  812SOL     OW 2434   1.419   0.736   1.972  0.0281 -0.1041  0.3087
  812SOL    HW1 2435   1.434   0.793   2.057 -0.2706 -2.4165  0.8504
  812SOL    HW2 2436   1.358   0.786   1.905 -0.8956 -0.8478 -1.7637
  813SOL     OW 2437   1.663   2.066   2.484  0.0795 -0.3736 -0.3344
  813SOL    HW1 2438   1.701   1.980   2.521 -1.3708 -1.3543 -1.1716
  813SOL    HW2 2439   1.613   2.056   2.393  2.6908  2.4498 -0.4742
  814SOL     OW 2440   2.931   1.575   2.833  0.1033  0.3667  0.6430
  814SOL    HW1 2441   2.985   1.556   2.918 -0.7457  0.9906 -2.1417
  814SOL    HW2 2442   2.970   1.658   2.781 -0.1748 -2.5718 -0.0257
  815SOL     OW 2443   2.189   2.945   2.772 -0.0927  0.1930 -0.0927
  815SOL    HW1 2444   2.161   2.861   2.829 -1.0847  2.3149 -0.8216
  815SOL    HW2 2445   2.268   2.989   2.813 -2.4901  0.1386 -1.6372
  816SOL     OW 2446   1.602   0.335   1.668 -0.0760  0.6638  0.6441
  816SOL    HW1 2447   1.595   0.235   1.649 -1.1573  0.2993 -1.8172
  816SOL    HW2 2448   1.540   0.369   1.743 -1.8056 -2.2076 -1.9098
  817SOL     OW 2449   0.372   1.158   2.631  0.0662  0.5150 -0.1251
  817SOL    HW1 2450   0.272   1.161   2.629  1.9719 -1.1587  0.2909
  817SOL    HW2 2451   0.411   1.242   2.582  0.9281 -1.3948  2.2427
  818SOL     OW 2452   1.963   0.917   0.398  0.1996 -1.2081  0.0263
  818SOL    HW1 2453   2.065   0.893   0.425  1.4972 -0.1820  1.1560
  818SOL    HW2 2454   1.916   0.971   0.468  0.3049  0.1950 -1.0672
  819SOL     OW 2455   2.757   2.948   3.024  0.3211  0.2821  0.5422
  819SOL    HW1 2456   2.850   2.910   3.003  1.8254  1.0247  0.3345
  819SOL    HW2 2457   2.685   2.915   2.954  0.7112 -1.9126 -1.4520
  820SOL     OW 2458   1.210   1.048   0.565 -0.0749 -0.5317 -0.1903
  820SOL    HW1 2459   1.208   1.152   0.594  0.5393  0.2452 -1.0485
  820SOL    HW2 2460   1.223   0.987   0.647 -2.2867  2.5379 -1.3275
  821SOL     OW 2461   0.031   1.294   0.685  0.5099  0.1596 -0.2030
  821SOL    HW1 2462  -0.019   1.316   0.774 -0.7884  1.8411  3.2163
  821SOL    HW2 2463   0.064   1.385   0.648  1.3104  0.0678 -0.6514
  822SOL     OW 2464   2.601   1.779   2.454  0.0218  0.1070  0.1298
  822SOL    HW1 2465   2.585   1.859   2.519  1.1373 -0.8214 -0.2976
  822SOL    HW2 2466   2.526   1.766   2.385  0.2641  0.4075  1.9433
  823SOL     OW 2467   2.010   0.807   1.122  0.0037  0.1545  0.6213
  823SOL    HW1 2468   1.967   0.806   1.216  0.2776  2.0330 -1.3615
  823SOL    HW2 2469   1.949   0.851   1.048 -3.0756  0.4846 -1.7091
  824SOL     OW 2470   0.183   2.000   2.814 -0.3498  0.5606 -0.4313
  824SOL    HW1 2471   0.178   1.929   2.885  0.4537  1.0110 -1.7927
  824SOL    HW2 2472   0.247   1.970   2.735 -0.4942 -3.3306  1.5953
  825SOL     OW 2473   1.292   1.040   0.295  0.3388 -0.1069  0.1781
  825SOL    HW1 2474   1.241   1.131   0.282 -2.0715  1.6755 -1.2189
  825SOL    HW2 2475   1.285   1.006   0.394 -0.4538  1.2866 -2.5914
  826SOL     OW 2476   1.953   0.650   1.548  0.3665  0.4155  0.0054
  826SOL    HW1 2477   2.029   0.593   1.588 -1.6968 -1.3772 -0.0053
  826SOL    HW2 2478   1.870   0.593   1.522 -0.0609 -0.0300  0.0301
  827SOL     OW 2479   0.744   1.203   0.284 -0.3287 -0.1132 -0.2670
  827SOL    HW1 2480   0.820   1.175   0.223  0.6285 -1.2164  0.3006
  827SOL    HW2 2481   0.674   1.133   0.293  0.9136 -2.3970 -0.1578
  828SOL     OW 2482   2.629   0.141   1.536  0.3439 -0.8528 -0.5203
  828SOL    HW1 2483   2.536   0.148   1.484 -3.0468  2.2419  0.3895
  828SOL    HW2 2484   2.613   0.120   1.634 -0.8587 -1.4666 -1.5880
  829SOL     OW 2485   2.894   2.441   2.913  0.2374 -0.0464 -0.6358
  829SOL    HW1 2486   2.803   2.391   2.923 -0.0485 -0.2015 -0.3063
  829SOL    HW2 2487   2.876   2.542   2.894  1.1600 -0.3008 -0.4449
  830SOL     OW 2488   2.807   0.978   3.047 -0.1107  0.2783 -0.0017
  830SOL    HW1 2489   2.864   1.055   3.085  2.3067 -1.9064 -0.2626
  830SOL    HW2 2490   2.824   0.888   3.093  2.3466  1.3372 -0.7358
  831SOL     OW 2491   0.107   0.602   0.396  0.7837 -0.4998  0.3078
  831SOL    HW1 2492   0.087   0.544   0.479  0.1882 -1.0854 -1.3819
  831SOL    HW2 2493   0.106   0.546   0.307  0.4710 -1.5790  1.9460
  832SOL     OW 2494   1.833   0.796   3.012  0.0473 -0.0304 -0.0089
  832SOL    HW1 2495   1.742   0.831   2.970  1.4172  2.1444 -1.8931
  832SOL    HW2 2496   1.836   0.694   3.022  1.6423 -1.3497 -2.6556
  833SOL     OW 2497   2.466   2.096   0.447 -0.4868 -0.3743  0.4949
  833SOL    HW1 2498   2.376   2.056   0.412  1.8333 -1.7707  0.5291
  833SOL    HW2 2499   2.538   2.021   0.444 -0.6179 -2.6196 -1.3735
  834SOL     OW 2500   0.107   0.203   0.495  0.1196 -0.5860  0.1855
  834SOL    HW1 2501   0.132   0.114   0.534  1.3280  0.6273 -0.0492
  834SOL    HW2 2502   0.112   0.202   0.386 -1.0867  1.9774 -0.6644
  835SOL     OW 2503   2.349   1.501   1.163  0.4035 -0.0354 -0.3703
  835SOL    HW1 2504   2.364   1.601   1.177  0.1101 -1.9231  2.0230
  835SOL    HW2 2505   2.414   1.469   1.083  1.1964 -2.4743  0.4824
  836SOL     OW 2506   1.622   0.856   2.602  0.6099  0.0542 -0.5818
  836SOL    HW1 2507   1.524   0.821   2.613  3.1235 -2.8725 -2.3270
  836SOL    HW2 2508   1.656   0.862   2.505  0.6281  2.0141  0.9640
  837SOL     OW 2509   1.598   0.124   0.560  0.2521 -0.2557 -0.5274
  837SOL    HW1 2510   1.564   0.204   0.620 -1.7205  1.2572 -0.4884
  837SOL    HW2 2511   1.587   0.143   0.458 -1.3685 -1.9054 -0.8083
  838SOL     OW 2512   1.211   1.472   2.790 -0.6311 -0.3626  0.2019
  838SOL    HW1 2513   1.167   1.505   2.879  0.2446 -1.2368  1.5435
  838SOL    HW2 2514   1.149   1.408   2.738  2.3623 -0.9220 -1.0732
  839SOL     OW 2515   1.684   0.255   0.974 -0.1823 -0.1499  0.1163
  839SOL    HW1 2516   1.696   0.325   1.053 -0.2362 -1.4959  1.2888
  839SOL    HW2 2517   1.634   0.171   1.006 -2.4702  1.5141  1.2766
  840SOL     OW 2518   2.522   2.860   1.755 -0.2273  0.5361 -0.2086
  840SOL    HW1 2519   2.481   2.835   1.668  1.1473 -0.4659  2.1469
  840SOL    HW2 2520   2.518   2.784   1.824  2.0051  0.5731 -1.1775
  841SOL     OW 2521   1.582   0.911   2.963  0.2218  0.2653  0.3451
  841SOL    HW1 2522   1.581   0.965   3.049 -2.1126 -0.2209  0.9351
  841SOL    HW2 2523   1.589   0.964   2.876  0.1798  0.6615 -1.2402
  842SOL     OW 2524   0.834   1.519   0.953  0.6745  0.0329  0.5101
  842SOL    HW1 2525   0.802   1.610   0.998  2.6217  1.2493 -0.4015
  842SOL    HW2 2526   0.752   1.473   0.898  0.1424 -3.5420  0.6025
  843SOL     OW 2527   0.146   0.131   1.486  0.4605 -0.3645  0.1644
  843SOL    HW1 2528   0.239   0.157   1.523  2.4465 -0.0672 -3.7444
  843SOL    HW2 2529   0.142   0.030   1.485 -0.2415  1.7212 -0.5192
  844SOL     OW 2530   0.772   2.496   0.300 -0.4814 -0.1771 -0.4157
  844SOL    HW1 2531   0.716   2.475   0.383  0.3289 -0.5537  1.9653
  844SOL    HW2 2532   0.717   2.512   0.214  1.3041 -0.6847 -2.5367
  845SOL     OW 2533   1.632   2.846   1.368  0.0667  0.3879  0.1408
  845SOL    HW1 2534   1.711   2.882   1.427  0.1593  0.0357 -0.9132
  845SOL    HW2 2535   1.557   2.916   1.367 -0.5147 -0.1070 -2.5769
  846SOL     OW 2536   1.634   2.977   0.836  0.6536  0.1374 -0.0360
  846SOL    HW1 2537   1.614   3.047   0.761 -0.8754 -0.5342  1.4908
  846SOL    HW2 2538   1.733   2.965   0.867  0.6735 -1.6180  2.5023
  847SOL     OW 2539   2.019   1.645   0.242 -0.1580  0.5975 -0.4185
  847SOL    HW1 2540   1.983   1.598   0.332 -0.9236 -0.0649  1.1381
  847SOL    HW2 2541   1.937   1.671   0.183  0.1764 -4.2911 -0.0096
  848SOL     OW 2542   2.511   0.797   2.663  0.2965  0.1754  0.5929
  848SOL    HW1 2543   2.504   0.897   2.631 -0.1054 -0.5522  0.4785
  848SOL    HW2 2544   2.520   0.741   2.577  1.0140 -1.2699 -2.1699
  849SOL     OW 2545   2.500   0.863   2.338 -0.0342  0.7083  0.3847
  849SOL    HW1 2546   2.573   0.834   2.273 -0.4616  0.2460  2.5013
  849SOL    HW2 2547   2.432   0.787   2.362 -2.2518  1.7089 -1.7696
  850SOL     OW 2548   1.510   0.105   1.340 -0.0311 -0.1702  0.3249
  850SOL    HW1 2549   1.512   0.052   1.245 -3.3167  0.3376 -0.0780
  850SOL    HW2 2550   1.467   0.042   1.411 -1.2260 -0.0520 -0.2831
  851SOL     OW 2551   0.465   1.714   0.640 -0.2965 -0.5368  0.2880
  851SOL    HW1 2552   0.464   1.816   0.651 -0.2548 -2.9474  1.2402
  851SOL    HW2 2553   0.558   1.679   0.609 -1.5058 -0.8549 -2.2737
  852SOL     OW 2554   0.784   2.153   1.677  0.0337 -0.2598 -0.5071
  852SOL    HW1 2555   0.795   2.247   1.637  0.1708 -3.6177  0.0829
  852SOL    HW2 2556   0.713   2.146   1.758 -2.1363  3.1800  0.8302
  853SOL     OW 2557   2.481   1.572   2.616 -0.1812 -0.1397 -0.4752
  853SOL    HW1 2558   2.478   1.478   2.568  0.6846 -0.1427 -0.8024
  853SOL    HW2 2559   2.526   1.640   2.557  1.6535  0.0854  2.9103
  854SOL     OW 2560   2.523   1.348   1.762 -0.0450  0.6031  0.5076
  854SOL    HW1 2561   2.547   1.322   1.663 -0.4042  1.4330 -0.8803
  854SOL    HW2 2562   2.514   1.265   1.821  0.2765 -0.6205 -1.9338
  855SOL     OW 2563   2.110   2.350   0.979  0.2959  0.4978  0.1571
  855SOL    HW1 2564   2.124   2.435   0.923  0.4648 -0.1627 -1.2139
  855SOL    HW2 2565   2.152   2.354   1.071  0.0550 -1.1869  0.9740
  856SOL     OW 2566   1.341   1.479   0.868  0.0516 -0.2116  0.4573
  856SOL    HW1 2567   1.418   1.524   0.921 -0.4778 -0.2167  2.1708
  856SOL    HW2 2568   1.246   1.487   0.912  3.0888  0.7549 -2.5119
  857SOL     OW 2569   2.965   2.648   1.037  0.2808 -0.1599 -0.2124
  857SOL    HW1 2570   2.903   2.573   1.075  0.0846  0.0462  1.3362
  857SOL    HW2 2571   3.027   2.614   0.966 -2.9741  0.2307  1.7733
  858SOL     OW 2572   2.300   2.076   1.717  0.1903  0.4746 -0.3355
  858SOL    HW1 2573   2.205   2.086   1.671 -0.0126 -0.2378  0.3388
  858SOL    HW2 2574   2.364   2.025   1.655  2.1388  3.0714  0.5220
  859SOL     OW 2575   2.433   0.553   1.027  0.0347  0.0088 -0.0436
  859SOL    HW1 2576   2.502   0.576   0.954 -2.6942 -0.5686  2.9981
  859SOL    HW2 2577   2.463   0.472   1.081 -2.1437  0.6577  0.3689
  860SOL     OW 2578   1.937   2.829   0.466 -0.0707 -0.2892  0.5368
  860SOL    HW1 2579   1.895   2.785   0.387  2.5528  1.0168 -1.1984
  860SOL    HW2 2580   2.003   2.912   0.450  1.2918  1.9797  1.0274
  861SOL     OW 2581   1.068   2.548   2.823  0.0266  0.4226 -0.4739
  861SOL    HW1 2582   1.122   2.618   2.767  0.5203 -3.0947 -1.4182
  861SOL    HW2 2583   1.097   2.540   2.923 -2.5271 -0.3484 -1.4736
  862SOL     OW 2584   2.843   2.514   1.590  0.3167 -0.6609  0.2194
  862SOL    HW1 2585   2.906   2.576   1.644 -2.6727  1.4132  0.3027
  862SOL    HW2 2586   2.766   2.561   1.538 -1.4389  1.8450 -1.2330
  863SOL     OW 2587   1.841   2.686   0.182  0.3048 -0.1985  0.3279
  863SOL    HW1 2588   1.904   2.606   0.160 -0.6029  0.9282 -1.3215
  863SOL    HW2 2589   1.741   2.655   0.190 -2.5146  1.6050  1.3592
  864SOL     OW 2590   1.879   1.154   2.872  0.2357 -0.5336  0.1002
  864SOL    HW1 2591   1.917   1.100   2.789  2.4077 -1.6289  1.9188
  864SOL    HW2 2592   1.947   1.177   2.948 -3.1164  2.0953 -0.3813
  865SOL     OW 2593   2.212   1.829   0.620  0.2035 -0.1409  0.5896
  865SOL    HW1 2594   2.275   1.817   0.705 -0.8223 -0.5842  0.6451
  865SOL    HW2 2595   2.112   1.813   0.646  1.1694 -0.1257 -0.1359
  866SOL     OW 2596   2.946   2.932   0.972 -0.0865  0.1560  0.5375
  866SOL    HW1 2597   3.035   2.954   0.922  1.8989 -1.2681 -2.6575
  866SOL    HW2 2598   2.939   2.833   1.002  0.2282  1.4936 -0.9322
  867SOL     OW 2599   0.332   1.396   0.937 -0.3051  0.2881 -0.0440
  867SOL    HW1 2600   0.324   1.308   0.888 -1.7558 -0.6971  1.4687
  867SOL    HW2 2601   0.311   1.481   0.875 -3.6264  0.1614  0.5244
  868SOL     OW 2602   0.748   1.883   2.025  0.4456  0.5487  0.1136
  868SOL    HW1 2603   0.703   1.855   2.118  0.5000  0.3019 -0.2404
  868SOL    HW2 2604   0.725   1.977   1.993  1.6754 -0.1889  1.4347
  869SOL     OW 2605   2.531   1.937   1.593 -0.3232 -0.1499  0.1093
  869SOL    HW1 2606   2.628   1.972   1.569  0.2001 -1.0098  1.0033
  869SOL    HW2 2607   2.527   1.837   1.575  1.0711  0.4687 -1.9845
  870SOL     OW 2608   2.309   2.653   1.284  0.1408 -0.4618  0.2490
  870SOL    HW1 2609   2.307   2.554   1.252 -0.4979 -2.5347  0.5286
  870SOL    HW2 2610   2.242   2.679   1.365 -1.0920  2.2679  1.3889
  871SOL     OW 2611   2.980   2.109   0.579  0.0371 -0.4085  0.2521
  871SOL    HW1 2612   2.925   2.191   0.603  2.2668  1.4167  0.5488
  871SOL    HW2 2613   2.925   2.039   0.519  1.4213 -1.8454 -1.7427
  872SOL     OW 2614   2.124   0.476   1.673  0.1693  0.1672  0.5180
  872SOL    HW1 2615   2.062   0.465   1.754 -1.9843 -0.2371  0.0535
  872SOL    HW2 2616   2.224   0.449   1.687  0.9397 -1.1368  0.4233
  873SOL     OW 2617   1.734   2.064   3.029 -0.1202  0.0123 -0.7527
  873SOL    HW1 2618   1.742   2.149   3.087  1.8213 -1.0890 -0.7779
  873SOL    HW2 2619   1.662   2.069   2.951 -0.5992  0.0217  0.9094
  874SOL     OW 2620   0.652   2.481   0.802 -0.0836 -0.1597 -0.3352
  874SOL    HW1 2621   0.648   2.585   0.823  0.8658  3.0009 -0.1372
  874SOL    HW2 2622   0.751   2.447   0.815 -1.9957  0.4906 -0.4349
  875SOL     OW 2623   2.272   1.500   1.440  0.4285 -0.6660 -0.0035
  875SOL    HW1 2624   2.356   1.540   1.493  1.5047 -1.9504  1.4835
  875SOL    HW2 2625   2.297   1.477   1.343  1.5071  1.2439 -1.4050
  876SOL     OW 2626   0.088   2.240   2.714  0.1279 -0.5286 -0.6795
  876SOL    HW1 2627   0.132   2.156   2.753 -2.5554  3.9430 -0.8513
  876SOL    HW2 2628   0.120   2.324   2.765  2.8627 -1.7863 -2.2043
  877SOL     OW 2629   2.881   2.695   0.547 -0.4190 -0.0706 -0.0372
  877SOL    HW1 2630   2.858   2.788   0.576  1.8313 -1.6636  0.6242
  877SOL    HW2 2631   2.910   2.636   0.629  0.5678 -0.8646  0.7216
  878SOL     OW 2632   2.813   1.574   2.184  0.4177  0.6027 -0.1365
  878SOL    HW1 2633   2.914   1.575   2.198 -1.0774  2.0891  1.6266
  878SOL    HW2 2634   2.761   1.616   2.262  0.7284  2.3133 -0.4653
  879SOL     OW 2635   2.368   0.038   1.149 -0.3075 -0.3484 -0.1091
  879SOL    HW1 2636   2.431  -0.045   1.172  2.0471 -1.4854 -2.0514
  879SOL    HW2 2637   2.286   0.020   1.088 -0.4483  1.2681 -1.2047
  880SOL     OW 2638   0.672   0.485   2.241  0.2559  0.2182 -0.2989
  880SOL    HW1 2639   0.584   0.432   2.272 -1.3399  0.7133  1.0631
  880SOL    HW2 2640   0.727   0.433   2.167  1.2204 -1.4117  0.0225
  881SOL     OW 2641   0.882   0.074   0.489 -0.8577  0.1544  0.2908
  881SOL    HW1 2642   0.927  -0.017   0.511  0.6301  1.1330  0.8721
  881SOL    HW2 2643   0.786   0.059   0.459  2.5500  3.9173 -1.1451
  882SOL     OW 2644   2.719   1.691   1.648 -0.3138 -0.6738 -0.7810
  882SOL    HW1 2645   2.819   1.691   1.620 -0.2866  1.8097  1.0109
  882SOL    HW2 2646   2.705   1.682   1.754  1.5314 -2.1254 -2.0898
  883SOL     OW 2647   0.868   0.611   0.970 -0.3632 -0.5563 -0.2593
  883SOL    HW1 2648   0.917   0.700   0.999 -0.2159  2.2941 -0.6195
  883SOL    HW2 2649   0.888   0.537   1.037 -0.8921 -0.1788  1.2114
  884SOL     OW 2650   1.181   1.781   1.145  0.2216  0.3270 -0.2860
  884SOL    HW1 2651   1.137   1.695   1.104  1.2190 -1.5808  1.2016
  884SOL    HW2 2652   1.136   1.861   1.108 -0.6805 -0.0530  2.2026
  885SOL     OW 2653   2.347   1.811   2.295 -0.1624 -0.0729 -0.0213
  885SOL    HW1 2654   2.261   1.764   2.334 -0.1358 -2.2895 -2.3124
  885SOL    HW2 2655   2.344   1.921   2.294  1.0725  4.2657  1.9966
  886SOL     OW 2656   2.587   0.435   1.814  0.0523  0.8227 -0.0285
  886SOL    HW1 2657   2.628   0.367   1.881 -0.7834 -1.0985 -2.3964
  886SOL    HW2 2658   2.630   0.527   1.805  1.2170  0.7704  2.9813
  887SOL     OW 2659   0.116   2.023   1.252  0.5296  0.1110 -0.4108
  887SOL    HW1 2660   0.048   1.967   1.196 -0.7661 -1.3304  1.7316
  887SOL    HW2 2661   0.115   2.127   1.228  1.5658  2.5323 -1.6678
  888SOL     OW 2662   0.556   1.334   1.564 -0.5361  0.0659  0.0555
  888SOL    HW1 2663   0.601   1.341   1.472 -1.3556 -0.0620 -0.2073
  888SOL    HW2 2664   0.522   1.242   1.586 -0.8802  2.1658 -2.3345
  889SOL     OW 2665   0.823   2.544   2.180  0.4271  0.0591  0.4190
  889SOL    HW1 2666   0.767   2.459   2.200  1.1385  3.0051  2.5363
  889SOL    HW2 2667   0.873   2.537   2.091 -1.2605  3.7429  1.1981
  890SOL     OW 2668   2.385   2.460   0.206 -0.4946  0.4251  0.4546
  890SOL    HW1 2669   2.410   2.533   0.136 -1.3273 -0.7400 -2.0147
  890SOL    HW2 2670   2.332   2.500   0.288 -1.7714  2.3198  1.5742
  891SOL     OW 2671   2.610   1.648   0.768  0.1442 -0.5282 -0.1856
  891SOL    HW1 2672   2.614   1.667   0.868 -1.4923 -2.8160 -0.0143
  891SOL    HW2 2673   2.519   1.606   0.738 -1.2115  1.7644  2.5016
  892SOL     OW 2674   0.364   0.245   2.148 -0.6055  0.2655 -0.3091
  892SOL    HW1 2675   0.407   0.263   2.057  1.0936 -2.0881  2.2967
  892SOL    HW2 2676   0.379   0.322   2.218 -2.3271  0.0185 -0.1066
  893SOL     OW 2677   1.678   0.249   2.734  0.2796 -0.2768 -0.0449
  893SOL    HW1 2678   1.750   0.320   2.768  0.8420  0.7420 -0.0417
  893SOL    HW2 2679   1.582   0.283   2.746  0.5504 -0.2231  1.1081
  894SOL     OW 2680   2.194   2.007   0.012 -0.0714  0.5372 -0.2910
  894SOL    HW1 2681   2.176   1.944  -0.065  1.4889  2.7995  2.5615
  894SOL    HW2 2682   2.200   1.955   0.103  0.6669 -2.8732  0.2167
  895SOL     OW 2683   2.851   1.429   0.892  0.2225 -0.2385 -0.6591
  895SOL    HW1 2684   2.899   1.341   0.923 -0.6368 -0.2575 -0.8414
  895SOL    HW2 2685   2.852   1.498   0.965  0.4899  1.9393  0.6589
  896SOL     OW 2686   1.814   1.854   1.211 -0.0927  0.3611 -0.2774
  896SOL    HW1 2687   1.811   1.798   1.124  0.7254  1.2306 -1.3604
  896SOL    HW2 2688   1.733   1.922   1.222 -0.6313  1.0083  1.2534
  897SOL     OW 2689   0.284   0.566   0.013 -0.3958 -0.3776 -0.7812
  897SOL    HW1 2690   0.238   0.617  -0.066 -4.2554 -1.3835 -2.1565
  897SOL    HW2 2691   0.388   0.583   0.022  1.6251 -3.7403  0.9826
  898SOL     OW 2692   0.577   2.866   1.105  0.2962 -0.3597  0.0444
  898SOL    HW1 2693   0.540   2.962   1.131 -0.2178 -1.8448  0.5706
  898SOL    HW2 2694   0.645   2.832   1.176 -0.9859 -1.3603 -0.0634
  899SOL     OW 2695   2.768   0.890   1.282 -0.0972 -0.1355 -0.1720
  899SOL    HW1 2696   2.711   0.881   1.196 -0.0576  1.6980  1.1672
  899SOL    HW2 2697   2.866   0.920   1.271 -2.2499  2.5643  0.1907
  900SOL     OW 2698   1.030   2.577   2.368 -0.8908 -0.6357 -0.1864
  900SOL    HW1 2699   0.961   2.551   2.294 -1.6672  1.1276  2.7467
  900SOL    HW2 2700   1.009   2.527   2.457 -1.6846  1.0873  2.7484
  901SOL     OW 2701   1.897   2.351   1.364 -0.1478 -0.0939  0.4686
  901SOL    HW1 2702   1.868   2.328   1.265 -0.1879 -0.2464  0.4229
  901SOL    HW2 2703   2.003   2.344   1.375  0.0125  1.9729  1.0334
  902SOL     OW 2704   2.518   1.665   1.445 -0.3134  0.2344 -0.1594
  902SOL    HW1 2705   2.581   1.656   1.528  1.0167  0.0150 -0.0396
  902SOL    HW2 2706   2.547   1.610   1.367 -0.3901 -0.0711 -0.1719
  903SOL     OW 2707   0.255   2.479   1.967 -0.1373 -0.0845 -0.4486
  903SOL    HW1 2708   0.157   2.447   1.961  1.3555  0.4600 -0.6326
  903SOL    HW2 2709   0.293   2.540   1.891  2.4705  1.4511 -0.7580
  904SOL     OW 2710   2.074   0.733   2.465  0.1378 -0.8681 -0.4006
  904SOL    HW1 2711   2.011   0.709   2.541 -0.7824  0.7774 -0.9649
  904SOL    HW2 2712   2.022   0.749   2.373  0.6900 -1.1563 -0.5087
  905SOL     OW 2713   2.818   0.065   2.569 -0.1760  0.1069  0.2577
  905SOL    HW1 2714   2.889  -0.011   2.557 -1.0201 -1.5496  1.0974
  905SOL    HW2 2715   2.856   0.158   2.546  4.4184 -1.7645 -0.9087
  906SOL     OW 2716   0.142   1.767   1.866 -0.4126  0.5998 -0.6258
  906SOL    HW1 2717   0.079   1.776   1.783 -1.6076  1.3537  0.0710
  906SOL    HW2 2718   0.232   1.817   1.859  3.5845 -2.0923  2.0821
  907SOL     OW 2719   0.133   2.421   0.993  0.1012  0.4019  0.0950
  907SOL    HW1 2720   0.228   2.384   1.003 -2.6503  0.4284 -2.1565
  907SOL    HW2 2721   0.060   2.351   0.993  1.2532  2.6488  1.5302
  908SOL     OW 2722   2.684   2.945   0.379 -0.4224 -0.1814  0.2636
  908SOL    HW1 2723   2.654   3.004   0.300  1.0233  0.9514  0.3520
  908SOL    HW2 2724   2.774   2.892   0.359 -0.4972  1.0747  0.7215
  909SOL     OW 2725   0.766   1.033   2.685  0.2644 -0.4455  0.4025
  909SOL    HW1 2726   0.708   0.952   2.658  1.5100  0.9854  0.4570
  909SOL    HW2 2727   0.839   1.049   2.611 -0.3068 -1.0808  2.2377
  910SOL     OW 2728   1.743   1.835   2.142 -0.0361  0.0667  0.1954
  910SOL    HW1 2729   1.771   1.888   2.056  2.5917 -1.2712  2.2850
  910SOL    HW2 2730   1.688   1.888   2.212  2.3278 -0.7727 -1.5921
  911SOL     OW 2731   1.864   2.927   1.562  0.2465 -0.2124  0.6558
  911SOL    HW1 2732   1.933   2.889   1.492  3.8233  0.1334  0.7586
  911SOL    HW2 2733   1.849   2.862   1.641  1.3548  0.5887  1.2495
  912SOL     OW 2734   2.898   0.989   0.738  0.0565  0.1585 -0.0819
  912SOL    HW1 2735   2.912   0.952   0.835 -1.2293 -0.6550  2.3077
  912SOL    HW2 2736   2.844   1.078   0.737 -0.1592  0.3902  2.8360
  913SOL     OW 2737   2.546   1.289   1.496 -0.3045 -0.1491  0.9089
  913SOL    HW1 2738   2.582   1.193   1.494  0.8095  0.8830 -1.3128
  913SOL    HW2 2739   2.576   1.344   1.412 -1.0705  1.5297 -1.9316
  914SOL     OW 2740   2.894   0.562   1.225 -0.6857 -0.1618  0.2568
  914SOL    HW1 2741   2.947   0.475   1.229 -1.3917  2.4053 -1.7348
  914SOL    HW2 2742   2.859   0.580   1.321 -2.1212 -0.1498 -0.6065
  915SOL     OW 2743   1.231   0.772   1.072 -0.2094  0.1117 -0.2049
  915SOL    HW1 2744   1.305   0.800   1.135  3.1398  0.4183 -0.7834
  915SOL    HW2 2745   1.134   0.784   1.107 -0.4093  1.8053 -0.5768
  916SOL     OW 2746   0.591   0.014   0.674  0.1779 -0.2211 -0.4111
  916SOL    HW1 2747   0.615   0.099   0.730  1.0802  1.7863 -0.0135
  916SOL    HW2 2748   0.604   0.025   0.571  1.2110 -0.6662 -0.2377
  917SOL     OW 2749   2.838   2.615   1.960 -0.3896 -0.3810  0.3229
  917SOL    HW1 2750   2.742   2.631   1.917 -1.8130 -0.9777 -0.9508
  917SOL    HW2 2751   2.899   2.695   1.933 -0.7370  2.9892  3.5493
  918SOL     OW 2752   1.048   2.221   2.966  0.1670  0.2118  0.5360
  918SOL    HW1 2753   1.021   2.222   3.068  1.2633  0.1478 -0.7835
  918SOL    HW2 2754   1.090   2.128   2.940  4.1903  3.2282 -1.9662
  919SOL     OW 2755   0.864   1.661   2.815  0.3283 -0.2573  0.4894
  919SOL    HW1 2756   0.934   1.708   2.759 -0.9053 -0.8881  0.1283
  919SOL    HW2 2757   0.810   1.590   2.763  0.0770 -1.4565 -1.4042
  920SOL     OW 2758   1.238   1.877   2.466 -0.0254  0.7001  0.6187
  920SOL    HW1 2759   1.310   1.856   2.397 -2.0386  2.2322  2.5440
  920SOL    HW2 2760   1.224   1.794   2.527  0.4828 -0.2162 -0.5571
  921SOL     OW 2761   1.079   0.021   2.618  0.5685  0.1751  0.3501
  921SOL    HW1 2762   1.074   0.049   2.518 -0.0482 -1.0120 -0.6095
  921SOL    HW2 2763   1.000  -0.033   2.640  4.6677 -0.6573 -0.0058
  922SOL     OW 2764   2.180   2.411   2.797  0.7816  0.1576  0.1958
  922SOL    HW1 2765   2.181   2.312   2.826 -0.4741  0.3774  2.6744
  922SOL    HW2 2766   2.092   2.442   2.749 -3.2774  1.7470  0.4096
  923SOL     OW 2767   1.224   2.664   0.256  0.5547  0.0517 -0.3366
  923SOL    HW1 2768   1.299   2.723   0.300  1.4346  1.0542 -0.9529
  923SOL    HW2 2769   1.254   2.563   0.243  0.9567 -1.7375 -1.3434
  924SOL     OW 2770   2.903   1.519   0.098 -0.3023 -0.0878 -0.5428
  924SOL    HW1 2771   2.817   1.505   0.041 -1.5460 -3.0976 -1.9589
  924SOL    HW2 2772   2.990   1.479   0.058 -0.2525  1.8643 -0.6861
  925SOL     OW 2773   0.047   2.966   1.513  0.3575  0.8521 -0.4905
  925SOL    HW1 2774  -0.032   3.005   1.565 -1.0512 -3.5970  2.7656
  925SOL    HW2 2775   0.019   2.903   1.436 -1.0234  0.2479  1.3768
  926SOL     OW 2776   1.333   2.821   1.236  0.3464 -0.1338  0.5127
  926SOL    HW1 2777   1.409   2.817   1.161  1.7560 -1.2019 -0.2239
  926SOL    HW2 2778   1.352   2.892   1.311 -0.8986 -0.2540  1.3822
  927SOL     OW 2779   0.347   2.668   1.760 -0.4717  0.0780  0.5473
  927SOL    HW1 2780   0.332   2.609   1.677 -0.3706  0.9488 -0.9285
  927SOL    HW2 2781   0.296   2.760   1.745  0.6845  0.5512 -0.1649
  928SOL     OW 2782   1.542   2.054   2.236 -0.3685 -0.7405 -0.5317
  928SOL    HW1 2783   1.561   2.134   2.173  2.3343 -1.8618 -0.4558
  928SOL    HW2 2784   1.456   2.003   2.203  2.2151  2.7502 -0.7163
  929SOL     OW 2785   2.449   2.472   2.900 -0.2940  0.3478 -0.5594
  929SOL    HW1 2786   2.361   2.422   2.873 -3.1256 -1.0913 -1.0656
  929SOL    HW2 2787   2.504   2.500   2.818 -0.3104  0.8433  1.7097
  930SOL     OW 2788   2.175   1.957   1.041  0.1102 -0.0033  0.1469
  930SOL    HW1 2789   2.115   1.934   1.122 -0.5653  0.9909  1.0307
  930SOL    HW2 2790   2.240   2.035   1.058 -1.2392 -1.8109 -0.6866
  931SOL     OW 2791   0.567   1.708   2.717  0.0603 -0.0380  0.1165
  931SOL    HW1 2792   0.592   1.743   2.811 -1.7354  2.2291 -0.3481
  931SOL    HW2 2793   0.581   1.612   2.682 -0.8515 -1.3313  0.6550
  932SOL     OW 2794   0.422   0.088   2.967 -0.4703  0.3412 -0.1998
  932SOL    HW1 2795   0.517   0.137   2.959 -1.0780 -2.9232  1.1068
  932SOL    HW2 2796   0.430  -0.009   2.994 -0.6905  0.8798  0.3065
  933SOL     OW 2797   1.044   0.769   3.037  0.0979 -0.5034 -0.4977
  933SOL    HW1 2798   1.024   0.793   3.137 -0.2759  0.7101  0.5781
  933SOL    HW2 2799   1.009   0.843   2.969 -0.0244 -0.6167 -1.1844
  934SOL     OW 2800   0.848   2.931   2.654  0.4867  0.5519 -0.5478
  934SOL    HW1 2801   0.815   2.852   2.595 -0.1578 -0.8961  1.8497
  934SOL    HW2 2802   0.917   2.894   2.720  1.0168  2.0443  2.6151
  935SOL     OW 2803   0.020   0.557   0.838 -0.1185 -0.2496 -0.5305
  935SOL    HW1 2804   0.003   0.519   0.744 -0.8342 -0.3432  1.7532
  935SOL    HW2 2805  -0.054   0.617   0.877  0.1370  4.1758  1.3339
  936SOL     OW 2806   1.087   2.876   0.086 -0.0932 -0.0139  0.0588
  936SOL    HW1 2807   1.149   2.937   0.031  2.6998  3.5205  0.5899
  936SOL    HW2 2808   1.145   2.804   0.134  1.7343  1.5584 -0.1880
  937SOL     OW 2809   1.958   2.622   2.099  0.3330  0.5642  0.4048
  937SOL    HW1 2810   1.888   2.648   2.175 -1.8149 -2.8000 -2.8099
  937SOL    HW2 2811   1.985   2.697   2.037 -1.5333 -2.1874 -0.8276
  938SOL     OW 2812   2.773   2.052   1.515  0.0869  0.2686 -0.6117
  938SOL    HW1 2813   2.741   2.143   1.560 -1.0588 -2.0976  0.9550
  938SOL    HW2 2814   2.868   2.018   1.548  0.4380 -2.6111 -0.9675
  939SOL     OW 2815   2.799   1.212   2.483  0.3747  0.3516 -0.2612
  939SOL    HW1 2816   2.872   1.208   2.411  4.0797  0.0899  2.7208
  939SOL    HW2 2817   2.806   1.130   2.548  1.7866 -1.4749  1.0260
  940SOL     OW 2818   1.006   0.475   2.739 -0.2475  0.2748 -0.1126
  940SOL    HW1 2819   1.062   0.389   2.757 -4.2990 -0.4466  0.7742
  940SOL    HW2 2820   0.909   0.446   2.721  1.7120 -4.0405 -0.7884
  941SOL     OW 2821   0.073   2.828   2.279  0.0608  0.5729 -0.1971
  941SOL    HW1 2822   0.121   2.732   2.257  3.8084 -3.5199 -2.6744
  941SOL    HW2 2823   0.121   2.887   2.348  2.2357 -1.0115  0.8231
  942SOL     OW 2824   0.058   0.100   2.461  0.0254  0.5160 -0.1528
  942SOL    HW1 2825   0.104   0.155   2.535 -1.6903  2.3014 -1.4535
  942SOL    HW2 2826   0.059   0.153   2.375 -2.7747  0.4346  3.1166
  943SOL     OW 2827   2.108   1.704   2.394 -0.4555 -0.6787 -0.4831
  943SOL    HW1 2828   2.084   1.650   2.311  1.0148  2.9453  0.4571
  943SOL    HW2 2829   2.108   1.647   2.477  0.3318 -1.4318 -0.8740
  944SOL     OW 2830   2.161   2.364   1.466 -0.4960 -0.1791  0.1129
  944SOL    HW1 2831   2.191   2.442   1.528 -1.3785  0.7317 -0.5602
  944SOL    HW2 2832   2.129   2.288   1.533 -0.8407  3.7875  2.5902
  945SOL     OW 2833   0.721   1.493   0.302  0.0444  0.1501  0.6552
  945SOL    HW1 2834   0.704   1.541   0.213  2.2443 -2.8394  0.1415
  945SOL    HW2 2835   0.725   1.393   0.287 -1.9250  2.4782  2.4595
  946SOL     OW 2836   0.389   0.929   2.474  0.1927  0.0354  0.2705
  946SOL    HW1 2837   0.296   0.898   2.435 -2.1258  1.6277  0.0144
  946SOL    HW2 2838   0.376   0.987   2.558  1.1898 -2.2608  0.5520
  947SOL     OW 2839   1.555   0.463   0.043 -0.1705  0.3479  0.5088
  947SOL    HW1 2840   1.495   0.536  -0.004 -0.2118 -1.3581  0.2487
  947SOL    HW2 2841   1.520   0.372   0.033 -1.9690 -0.9543 -0.5323
  948SOL     OW 2842   1.961   3.063   2.160  0.1055  0.2033  0.4048
  948SOL    HW1 2843   1.969   3.006   2.070  0.8749 -0.4334  0.9537
  948SOL    HW2 2844   1.947   2.992   2.235  2.3852 -0.1768  3.8549
  949SOL     OW 2845   0.577   2.485   0.540  0.5870 -0.0628  0.2740
  949SOL    HW1 2846   0.602   2.586   0.512 -0.6035  0.7499  0.3568
  949SOL    HW2 2847   0.609   2.476   0.641 -2.1124 -0.3637  0.4002
  950SOL     OW 2848   0.200   2.153   3.051 -0.1947 -0.7294  0.4602
  950SOL    HW1 2849   0.131   2.233   3.043  3.4420  0.1657 -1.6902
  950SOL    HW2 2850   0.189   2.092   2.971  0.1244 -0.0669  0.2588
  951SOL     OW 2851   1.203   2.770   2.717  0.0803  0.4565 -0.6929
  951SOL    HW1 2852   1.202   2.821   2.623 -2.3045 -0.8711 -2.2227
  951SOL    HW2 2853   1.129   2.805   2.782  0.0697  2.2720 -0.7719
  952SOL     OW 2854   0.040   1.690   0.456  0.6820  0.0407  0.2888
  952SOL    HW1 2855   0.083   1.780   0.477 -2.5819  0.0727 -3.0423
  952SOL    HW2 2856   0.081   1.607   0.512  1.7890 -4.6332 -2.7316
  953SOL     OW 2857   2.468   1.770   0.265 -0.3232  0.2696 -0.4246
  953SOL    HW1 2858   2.489   1.670   0.270  1.8025  0.6581  0.8855
  953SOL    HW2 2859   2.493   1.807   0.167  2.8051 -0.7418 -2.4716
  954SOL     OW 2860   2.175   0.541   0.950 -0.1367 -0.0246  0.1574
  954SOL    HW1 2861   2.172   0.595   0.863  0.3992  0.1529  1.7745
  954SOL    HW2 2862   2.273   0.531   0.982 -0.3750 -0.2067 -0.0846
  955SOL     OW 2863   0.185   2.637   1.288 -0.2980  0.2166 -0.0951
  955SOL    HW1 2864   0.090   2.683   1.311 -1.9138 -0.5306  0.1155
  955SOL    HW2 2865   0.234   2.685   1.214 -0.5660  0.3218  3.4658
  956SOL     OW 2866   2.743   2.460   2.441  0.2456  0.2395 -0.2771
  956SOL    HW1 2867   2.747   2.358   2.409  0.0400  1.8055 -1.8111
  956SOL    HW2 2868   2.787   2.517   2.368  2.2507  2.4660 -0.0513
  957SOL     OW 2869   1.582   2.068   2.790 -0.2443  0.2329  0.0969
  957SOL    HW1 2870   1.539   1.974   2.778  0.3704 -1.3840  0.4777
  957SOL    HW2 2871   1.604   2.102   2.696  1.5779 -2.0331  0.2847
  958SOL     OW 2872   2.667   2.285   2.987  0.8917 -0.3478  0.1265
  958SOL    HW1 2873   2.583   2.345   2.974  1.0170 -1.2093 -0.6392
  958SOL    HW2 2874   2.659   2.208   3.062  1.9510  1.2582  1.3108
  959SOL     OW 2875   0.252   2.807   0.065 -0.5408  0.3938 -0.6704
  959SOL    HW1 2876   0.154   2.777   0.056 -1.0688  0.6935 -0.2792
  959SOL    HW2 2877   0.299   2.752   0.142 -0.2921 -0.0594 -0.4572
  960SOL     OW 2878   1.962   0.423   1.922 -0.5377 -0.6452 -0.7196
  960SOL    HW1 2879   1.908   0.506   1.895 -0.1671  0.0829  1.7579
  960SOL    HW2 2880   1.973   0.408   2.028  1.0688 -0.9584  0.4228
  961SOL     OW 2881   2.584   1.810   1.031  0.0864  0.0662  0.2152
  961SOL    HW1 2882   2.550   1.901   0.994 -1.7079  1.5425 -1.7460
  961SOL    HW2 2883   2.527   1.780   1.111 -0.0005 -0.2461  0.9515
  962SOL     OW 2884   1.282   0.886   0.061 -0.5301  0.2045 -0.5012
  962SOL    HW1 2885   1.271   0.924  -0.033  1.1081  0.4224 -0.2466
  962SOL    HW2 2886   1.284   0.959   0.135 -1.1129 -2.8966  2.2829
  963SOL     OW 2887   2.214   2.541   1.874 -0.1891 -0.2354  0.3267
  963SOL    HW1 2888   2.206   2.439   1.902 -0.7779  1.0388  2.8097
  963SOL    HW2 2889   2.244   2.611   1.953 -0.9164  2.4187 -0.3312
  964SOL     OW 2890   2.377   0.375   1.650  0.4220  0.4755  0.0708
  964SOL    HW1 2891   2.462   0.417   1.699 -0.3363  1.1696  1.3376
  964SOL    HW2 2892   2.387   0.369   1.546  0.3216 -2.8008  0.9601
  965SOL     OW 2893   2.611   3.059   0.145 -0.9093 -0.1293  0.3767
  965SOL    HW1 2894   2.668   3.042   0.060  0.9187  1.0609  0.2603
  965SOL    HW2 2895   2.518   3.077   0.119  1.2233 -0.1660  3.2247
  966SOL     OW 2896   2.485   2.484   2.206 -0.6342 -0.0691 -0.2092
  966SOL    HW1 2897   2.439   2.510   2.294 -0.7455 -0.1712  0.9294
  966SOL    HW2 2898   2.497   2.559   2.138  2.5131  1.2053  2.6538
  967SOL     OW 2899   2.813   2.764   2.490  0.2432 -0.3858 -0.7946
  967SOL    HW1 2900   2.821   2.724   2.395 -0.5002 -2.0467  0.6071
  967SOL    HW2 2901   2.873   2.845   2.499 -1.4476 -0.2822 -1.8672
  968SOL     OW 2902   1.949   1.030   2.614 -0.2240  0.7216 -0.0780
  968SOL    HW1 2903   1.890   1.109   2.569  0.5748  0.3455 -1.7744
  968SOL    HW2 2904   1.964   0.960   2.540 -0.4252  3.0981  2.0223
  969SOL     OW 2905   2.764   2.463   1.092 -0.4400 -0.0230  0.5708
  969SOL    HW1 2906   2.707   2.428   1.010  0.8989  1.1878 -1.7116
  969SOL    HW2 2907   2.825   2.391   1.133 -2.2723 -0.0985  2.0676
  970SOL     OW 2908   1.051   2.115   1.796  0.1590 -0.5512  0.4633
  970SOL    HW1 2909   0.961   2.140   1.754 -0.2317 -0.5835 -1.7903
  970SOL    HW2 2910   1.062   2.155   1.891  3.3217  0.3516 -0.1662
  971SOL     OW 2911   2.845   2.058   1.859 -0.3848  0.0895 -0.1670
  971SOL    HW1 2912   2.848   2.160   1.879  3.3017 -0.8407 -0.0585
  971SOL    HW2 2913   2.907   2.050   1.780  0.2720 -1.0486  0.1569
  972SOL     OW 2914   1.966   2.437   0.175 -0.3957 -0.5326 -0.5280
  972SOL    HW1 2915   1.965   2.357   0.106  2.0070 -0.0239 -0.3304
  972SOL    HW2 2916   2.000   2.409   0.270 -0.9988 -5.6245 -0.0391
  973SOL     OW 2917   1.305   1.067   1.872  0.3157  0.1931 -0.1556
  973SOL    HW1 2918   1.250   1.011   1.801 -0.9501 -3.1117  0.3092
  973SOL    HW2 2919   1.272   1.163   1.878  0.9115  0.4849 -0.6413
  974SOL     OW 2920   1.638   0.555   1.981  0.1642 -0.3581  0.0198
  974SOL    HW1 2921   1.725   0.597   1.940  0.4462  3.9561 -1.1401
  974SOL    HW2 2922   1.548   0.600   1.947 -2.5519  1.8153  0.2172
  975SOL     OW 2923   2.341   3.072   0.036  0.0170 -0.4426 -0.3578
  975SOL    HW1 2924   2.316   2.967   0.046  1.9062 -1.7739  0.6345
  975SOL    HW2 2925   2.374   3.090  -0.062  0.6862 -1.1893 -1.1152
  976SOL     OW 2926   1.918   2.837   2.318  0.1761 -0.2072  0.0516
  976SOL    HW1 2927   1.820   2.836   2.288 -1.4379  0.4571 -0.6092
  976SOL    HW2 2928   1.932   2.823   2.419  1.5306 -0.3233 -1.2206
  977SOL     OW 2929   0.458   0.708   1.054 -0.0641  0.2195 -0.6460
  977SOL    HW1 2930   0.383   0.720   0.987  1.9029  0.7181 -1.5139
  977SOL    HW2 2931   0.543   0.668   1.011  2.4745  0.2432 -0.1785
   3.10000   3.10000   3.10000
