1000 SPC/Fw water molecules t=   1.37000 step= 1370
 2931
    1SOL     OW    1   2.514   0.315   2.652 -0.7255 -0.5935  0.4467
    1SOL    HW1    2   2.514   0.207   2.636 -1.3409 -3.0892 -1.2132
    1SOL    HW2    3   2.547   0.343   2.743 -0.6658  0.2627  0.6318
    2SOL     OW    4   2.754   2.988   1.379 -0.2245 -0.0463  0.1446
    2SOL    HW1    5   2.849   2.995   1.354 -1.4973 -2.0625  1.2098
    2SOL    HW2    6   2.725   3.063   1.443  0.3849  1.3233 -1.1494
    3SOL     OW    7   2.647   2.577   0.431 -0.0014 -0.1595 -0.2261
    3SOL    HW1    8   2.616   2.478   0.440  0.2595 -0.9968 -1.8239
    3SOL    HW2    9   2.681   2.620   0.521 -1.4856  0.5313 -0.9762
    4SOL     OW   10   1.231   1.496   2.417  0.3000  0.1124 -0.1929
    4SOL    HW1   11   1.164   1.520   2.343  0.1887  0.4796  2.8607
    4SOL    HW2   12   1.258   1.399   2.409 -0.7870 -0.3191  0.9611
    5SOL     OW   13   1.171   1.556   2.900  0.1314 -0.2525 -0.2611
    5SOL    HW1   14   1.211   1.632   2.957 -0.2308  0.8068  0.5008
    5SOL    HW2   15   1.086   1.589   2.846 -0.4273  0.3053  0.1198
    6SOL     OW   16   0.261   1.839   3.012  0.3409 -0.7685 -0.0561
    6SOL    HW1   17   0.179   1.850   3.072 -0.9302  2.0120  2.1416
    6SOL    HW2   18   0.327   1.783   3.064  0.6952  1.6872 -0.7646
    7SOL     OW   19   2.500   0.901   1.054 -0.4172  0.0829 -0.0274
    7SOL    HW1   20   2.402   0.878   1.080 -0.4558  2.4712 -0.1288
    7SOL    HW2   21   2.535   0.854   0.970 -2.8246  0.7870  0.8162
    8SOL     OW   22   0.379   0.649   1.500 -0.9111  1.0860  0.3471
    8SOL    HW1   23   0.480   0.622   1.516 -1.0191  0.1429  0.8934
    8SOL    HW2   24   0.370   0.716   1.417 -2.2535  2.1709  1.1902
    9SOL     OW   25   1.160   0.845   2.422 -0.5015  0.0154 -0.1043
    9SOL    HW1   26   1.223   0.883   2.352  0.3924 -1.0506  0.3408
    9SOL    HW2   27   1.116   0.754   2.394 -1.2629 -1.1073  0.2370
   10SOL     OW   28   0.680   1.373   1.301 -0.2074 -0.1650  0.0820
   10SOL    HW1   29   0.606   1.394   1.234  3.2205 -1.1155  0.5582
   10SOL    HW2   30   0.742   1.459   1.330  0.5422 -0.2476  1.5161
   11SOL     OW   31   2.310   2.824   0.822 -0.0905 -0.0046  0.0054
   11SOL    HW1   32   2.276   2.840   0.922 -1.0621  4.4250  0.1351
   11SOL    HW2   33   2.405   2.799   0.820 -4.5301 -0.9808  1.8757
   12SOL     OW   34   1.491   0.866   0.430  0.6853  0.6325 -0.0339
   12SOL    HW1   35   1.421   0.933   0.391 -1.1803 -1.2545  1.5214
   12SOL    HW2   36   1.520   0.789   0.368  0.3074  0.1923 -1.3550
   13SOL     OW   37   2.419   0.730   1.762  0.5902 -0.5164 -0.0059
   13SOL    HW1   38   2.355   0.669   1.822 -0.7731 -0.2366  4.2231
   13SOL    HW2   39   2.435   0.690   1.664  0.9924 -0.6269 -0.6476
   14SOL     OW   40   1.942   0.026   0.618  0.4211 -0.0174 -0.3208
   14SOL    HW1   41   1.841   0.053   0.611 -1.3551 -1.2557  0.2842
   14SOL    HW2   42   1.964  -0.043   0.695  0.5312 -1.1996 -1.7187
   15SOL     OW   43   1.905   2.106   2.635 -0.1807 -0.1666  0.1879
   15SOL    HW1   44   1.863   2.188   2.684 -2.9675 -0.6750 -0.8262
   15SOL    HW2   45   1.862   2.018   2.664  1.4810  0.7522  0.9792
   16SOL     OW   46   1.597   1.709   2.989  0.0282  0.4587  0.0100
   16SOL    HW1   47   1.592   1.628   3.055  1.5317  1.0879 -0.1253
   16SOL    HW2   48   1.654   1.780   3.031 -1.5050 -1.6225  1.6867
   17SOL     OW   49   0.108   0.419   0.170 -0.5702 -0.1499 -0.1266
   17SOL    HW1   50   0.209   0.432   0.144 -3.3681 -0.1293 -1.5265
   17SOL    HW2   51   0.046   0.430   0.086  1.0643  1.6632 -0.6021
   18SOL     OW   52   0.923   2.990   2.163 -0.7662 -0.2446 -0.0446
   18SOL    HW1   53   0.847   2.920   2.162  0.8348  0.4822 -4.0801
   18SOL    HW2   54   0.986   2.972   2.077 -0.3854 -0.7190 -1.3579
   19SOL     OW   55   0.543   0.847   1.895  0.2969  0.0735 -0.0027
   19SOL    HW1   56   0.594   0.787   1.965  1.2008  1.6673  1.3070
   19SOL    HW2   57   0.596   0.930   1.862 -0.7979 -0.3482  0.0069
   20SOL     OW   58   0.232   2.828   0.855  0.4646 -0.1320 -0.1283
   20SOL    HW1   59   0.134   2.870   0.843  1.3460 -1.0505 -0.4303
   20SOL    HW2   60   0.229   2.727   0.859  2.1031  0.6968  1.3782
   21SOL     OW   61   2.769   0.254   1.956  0.4242 -0.0018  0.0294
   21SOL    HW1   62   2.734   0.188   1.887 -0.3482  1.0474  1.4824
   21SOL    HW2   63   2.833   0.211   2.030 -0.8660 -0.6295  1.6115
   22SOL     OW   64   2.363   0.199   0.120  0.3856 -0.1930 -0.1180
   22SOL    HW1   65   2.392   0.106   0.086 -1.7871  4.2191 -0.9083
   22SOL    HW2   66   2.306   0.252   0.048 -0.6813 -3.3854 -0.2087
   23SOL     OW   67   2.817   0.564   0.667  0.4826  0.0413  0.5184
   23SOL    HW1   68   2.816   0.480   0.605 -1.1135  2.9197 -2.1106
   23SOL    HW2   69   2.822   0.654   0.616  2.7684 -0.2620 -0.0985
   24SOL     OW   70   0.232   1.871   0.451 -0.6024  0.3131 -0.9633
   24SOL    HW1   71   0.181   1.922   0.378  0.7130 -0.6865  1.9559
   24SOL    HW2   72   0.337   1.870   0.434 -0.4075 -3.7772  0.6468
   25SOL     OW   73   2.213   0.635   0.217  0.0612  0.0830 -0.0048
   25SOL    HW1   74   2.220   0.648   0.112  2.3064 -0.5093  0.2354
   25SOL    HW2   75   2.281   0.569   0.259  1.5801  1.8803  2.4427
   26SOL     OW   76   2.445   2.133   2.102 -0.3891 -0.3060  0.3799
   26SOL    HW1   77   2.525   2.188   2.143 -0.6680 -2.9635  1.6593
   26SOL    HW2   78   2.470   2.084   2.013  0.3788 -0.2576  1.0584
   27SOL     OW   79   0.614   2.965   0.247 -0.3558  0.3340 -0.4362
   27SOL    HW1   80   0.712   2.989   0.226 -1.3055 -1.6870 -2.7183
   27SOL    HW2   81   0.555   2.938   0.163 -0.3975 -0.8500 -0.1756
   28SOL     OW   82   1.583   0.108   0.341  0.5921 -0.1635  0.4729
   28SOL    HW1   83   1.613   0.059   0.253 -1.3505 -0.9266 -2.6988
   28SOL    HW2   84   1.622   0.204   0.349  1.7560 -0.2008 -0.4555
   29SOL     OW   85   1.956   0.566   0.269 -0.1485  0.0095 -0.0303
   29SOL    HW1   86   1.907   0.626   0.339  3.1426  1.2207  1.2597
   29SOL    HW2   87   2.059   0.586   0.253 -0.3001  1.9788 -2.7230
   30SOL     OW   88   0.165   2.084   0.873  0.0323 -0.1821  0.2485
   30SOL    HW1   89   0.166   1.992   0.822 -3.5560 -2.7969  0.6371
   30SOL    HW2   90   0.064   2.112   0.877 -0.2002  1.8455 -0.2111
   31SOL     OW   91   2.177   0.086   2.417 -0.2739 -0.4233 -0.1981
   31SOL    HW1   92   2.118   0.047   2.494 -1.9129 -2.3503  0.2008
   31SOL    HW2   93   2.161   0.039   2.328  1.8314 -0.5602 -0.2143
   32SOL     OW   94   2.953   3.103   0.267  0.1919 -0.3653  0.3995
   32SOL    HW1   95   2.934   3.009   0.310 -1.2228 -0.8758 -4.0833
   32SOL    HW2   96   3.043   3.139   0.294 -1.3932  0.1739  1.5410
   33SOL     OW   97   0.878   0.250   0.620 -0.7825 -0.9556  0.3779
   33SOL    HW1   98   0.872   0.185   0.538 -0.1661 -1.4882  2.9795
   33SOL    HW2   99   0.961   0.315   0.617  1.4974  0.4861  1.5011
   34SOL     OW  100   0.295   2.728   1.107 -0.2130 -0.3788  0.4780
   34SOL    HW1  101   0.271   2.789   1.024  1.1097  1.3069  1.9090
   34SOL    HW2  102   0.397   2.741   1.131  0.2496  0.2531 -0.1701
   35SOL     OW  103   0.025   0.114   1.871 -1.0391 -0.1183 -0.2352
   35SOL    HW1  104   0.033   0.018   1.904  2.0669  2.8604 -0.0619
   35SOL    HW2  105  -0.039   0.133   1.795 -0.8393  1.3204  0.2574
   36SOL     OW  106   1.818   1.197   1.539 -0.1496 -0.7077 -0.4037
   36SOL    HW1  107   1.909   1.147   1.527 -1.5158 -1.3394 -0.4283
   36SOL    HW2  108   1.814   1.270   1.468 -0.3472 -0.7763 -0.8510
   37SOL     OW  109   1.169   0.194   0.972 -0.7131 -0.7001  0.1831
   37SOL    HW1  110   1.204   0.289   1.011 -0.2987  1.1069 -1.1887
   37SOL    HW2  111   1.241   0.118   0.962  1.1614 -1.2661 -2.1423
   38SOL     OW  112   1.145   2.889   2.387  0.2533 -0.3293  0.9728
   38SOL    HW1  113   1.051   2.855   2.421 -0.4026  3.5414 -1.2444
   38SOL    HW2  114   1.149   2.987   2.356 -0.3527  1.9951  0.9195
   39SOL     OW  115   2.400   1.364   3.031  1.0474  0.1748  0.1503
   39SOL    HW1  116   2.479   1.299   3.041 -0.3505  2.8857  1.7218
   39SOL    HW2  117   2.339   1.365   3.116  1.6566 -1.5931  0.2251
   40SOL     OW  118   2.018   2.478   2.614  0.0560 -0.1745 -0.4553
   40SOL    HW1  119   2.002   2.581   2.597 -1.2012  2.6374 -0.1683
   40SOL    HW2  120   1.972   2.413   2.548 -0.1052  2.0246  0.7862
   41SOL     OW  121   3.028   0.649   2.796 -0.9392 -0.3125  0.1740
   41SOL    HW1  122   2.949   0.715   2.795  3.9811  0.5503 -0.2084
   41SOL    HW2  123   3.012   0.568   2.730  0.2607  1.7678 -1.4337
   42SOL     OW  124   1.758   1.775   0.540 -0.2909 -0.4549  0.2092
   42SOL    HW1  125   1.719   1.679   0.538 -1.0210  1.1321 -1.9899
   42SOL    HW2  126   1.781   1.802   0.444 -0.3362  1.6609 -1.5175
   43SOL     OW  127   0.497   1.680   1.260  0.4786 -0.0122 -0.0189
   43SOL    HW1  128   0.517   1.595   1.205 -0.0858 -0.9362  0.8665
   43SOL    HW2  129   0.424   1.663   1.326  0.5087 -0.0933 -1.0386
   44SOL     OW  130   1.673   2.423   3.010 -0.2750  0.0479 -0.2833
   44SOL    HW1  131   1.576   2.467   3.005  1.9618  2.1239 -3.8242
   44SOL    HW2  132   1.724   2.436   2.918 -0.1116  1.6141  0.7031
   45SOL     OW  133   0.375   1.911   2.569 -0.5218  0.1235 -0.1255
   45SOL    HW1  134   0.323   1.917   2.476 -0.7847 -0.6278  0.1963
   45SOL    HW2  135   0.431   1.825   2.570 -0.4309  0.7792 -3.5171
   46SOL     OW  136   1.301   0.652   0.195 -0.2431  0.0256  0.9776
   46SOL    HW1  137   1.296   0.743   0.144 -0.1349  0.2334  1.5133
   46SOL    HW2  138   1.217   0.597   0.185  0.9229  0.6765  0.7417
   47SOL     OW  139   0.188   2.476   1.586  0.0192 -0.3540 -0.5348
   47SOL    HW1  140   0.141   2.384   1.561  0.5351 -2.7334 -0.3362
   47SOL    HW2  141   0.253   2.505   1.508 -1.7857 -1.5188 -2.0542
   48SOL     OW  142   2.646   0.599   0.147  0.8499  0.0083  0.0488
   48SOL    HW1  143   2.619   0.616   0.249 -2.1320  0.6249 -1.1523
   48SOL    HW2  144   2.746   0.629   0.129 -1.6332 -2.1141  0.5215
   49SOL     OW  145   0.298   0.761   1.743 -0.0432  0.1732  0.4625
   49SOL    HW1  146   0.381   0.785   1.802 -0.4894 -1.0285  1.2596
   49SOL    HW2  147   0.327   0.730   1.649 -3.6652  0.6638 -0.9991
   50SOL     OW  148   1.724   1.137   0.288  0.0072 -0.4518 -0.2181
   50SOL    HW1  149   1.762   1.049   0.251  1.3020  0.0025  2.2302
   50SOL    HW2  150   1.676   1.124   0.377  1.7898  0.9617 -1.0274
   51SOL     OW  151   3.029   1.762   0.257  0.3020  0.2550 -0.6577
   51SOL    HW1  152   2.978   1.688   0.203  1.5057 -1.9644  0.4978
   51SOL    HW2  153   3.076   1.723   0.341 -2.2432  2.4838 -0.5152
   52SOL     OW  154   0.811   2.139   0.649 -0.4149 -0.3921  0.2399
   52SOL    HW1  155   0.710   2.127   0.650 -1.8248 -0.9632  1.0587
   52SOL    HW2  156   0.862   2.074   0.717 -0.5479  0.3658 -0.8219
   53SOL     OW  157   0.169   0.432   1.585  0.1085 -0.2014  0.0069
   53SOL    HW1  158   0.243   0.505   1.582 -1.4796  1.2614 -0.5339
   53SOL    HW2  159   0.096   0.456   1.521 -1.9583 -1.6002  1.2695
   54SOL     OW  160   1.790   0.497   3.066  0.0836 -0.4396  0.4958
   54SOL    HW1  161   1.827   0.417   3.121  2.0362  0.8443 -1.5716
   54SOL    HW2  162   1.687   0.516   3.087 -0.7544  1.9473  0.4419
   55SOL     OW  163   0.755   2.896   0.702  0.8187  0.2287 -0.1796
   55SOL    HW1  164   0.716   2.994   0.715  0.3145  1.5684  1.0658
   55SOL    HW2  165   0.850   2.888   0.652  2.0308 -0.0732 -0.5949
   56SOL     OW  166   0.570   1.616   3.096 -0.1033  0.1389 -0.7538
   56SOL    HW1  167   0.494   1.645   3.166 -0.6460 -1.0638  0.4162
   56SOL    HW2  168   0.550   1.519   3.058  1.3176  1.3352 -2.3075
   57SOL     OW  169   1.772   2.497   2.415  0.3742 -0.1093  0.0675
   57SOL    HW1  170   1.823   2.412   2.387 -0.2881  1.8707  1.4688
   57SOL    HW2  171   1.675   2.484   2.433  1.0510 -0.6348 -1.8984
   58SOL     OW  172   0.653   0.272   1.130  0.3662  0.1676 -0.2837
   58SOL    HW1  173   0.576   0.282   1.201 -0.5038 -2.4806  2.2047
   58SOL    HW2  174   0.683   0.176   1.107  0.5103  0.3679 -0.2455
   59SOL     OW  175   0.430   2.410   2.728  0.4438 -0.1670 -0.1812
   59SOL    HW1  176   0.450   2.312   2.720 -0.8338  3.6977  0.9155
   59SOL    HW2  177   0.491   2.449   2.803  2.1442  0.6352 -0.0088
   60SOL     OW  178   2.290   2.128   2.342  0.2842 -0.0829  0.0825
   60SOL    HW1  179   2.355   2.140   2.259  0.4308 -0.7315  2.4526
   60SOL    HW2  180   2.319   2.186   2.425 -0.1080 -0.6232 -0.5853
   61SOL     OW  181   1.224   0.642   0.476  0.2356 -0.0703  0.8069
   61SOL    HW1  182   1.137   0.698   0.492  1.4302  1.8001 -0.6397
   61SOL    HW2  183   1.268   0.654   0.377 -1.1851  1.9997  1.4516
   62SOL     OW  184   2.712   1.732   2.779 -0.0069 -0.0579 -0.4002
   62SOL    HW1  185   2.667   1.650   2.732 -0.4960 -0.9813  0.8685
   62SOL    HW2  186   2.806   1.709   2.806 -2.3727  0.2070  0.1406
   63SOL     OW  187   0.556   0.905   0.195  0.0008  0.3032  0.2631
   63SOL    HW1  188   0.594   0.957   0.114  0.6524 -0.8643  0.3937
   63SOL    HW2  189   0.629   0.875   0.258  0.3509  0.7147 -1.2726
   64SOL     OW  190   3.040   0.562   2.358 -0.1368  0.6593 -0.3095
   64SOL    HW1  191   2.968   0.605   2.422  0.3180  1.0607 -1.9019
   64SOL    HW2  192   3.085   0.626   2.288 -2.2646  1.8415  3.0413
   65SOL     OW  193   0.206   1.445   0.699 -0.2393 -0.4554  0.1055
   65SOL    HW1  194   0.197   1.512   0.775  0.4593  1.2636 -2.2968
   65SOL    HW2  195   0.274   1.477   0.623  2.7418  3.5527  1.6645
   66SOL     OW  196   2.536   0.397   0.524 -0.1937  0.3465 -0.3350
   66SOL    HW1  197   2.636   0.362   0.520 -0.2285 -0.6058  0.6472
   66SOL    HW2  198   2.483   0.344   0.596 -2.4185  0.6605  2.4776
   67SOL     OW  199   0.644   2.477   1.444  0.0560 -0.2126 -0.1610
   67SOL    HW1  200   0.720   2.444   1.504 -1.5265 -0.7583 -0.2759
   67SOL    HW2  201   0.566   2.404   1.441 -0.9666 -1.2351 -1.1972
   68SOL     OW  202   0.999   1.063   2.504  0.0903 -0.3934 -0.3199
   68SOL    HW1  203   1.061   0.998   2.451 -2.5382 -0.9452 -1.1638
   68SOL    HW2  204   0.915   1.073   2.445  2.4863 -4.2191  0.3687
   69SOL     OW  205   0.770   2.735   2.221  0.6453  0.3754  0.3299
   69SOL    HW1  206   0.812   2.647   2.183  1.1283  0.0313  0.1563
   69SOL    HW2  207   0.664   2.742   2.223  0.3890  0.6892 -0.6336
   70SOL     OW  208   0.446   0.112   2.520 -0.0611 -0.0194 -0.6970
   70SOL    HW1  209   0.361   0.060   2.563  0.0518 -1.5282  0.6224
   70SOL    HW2  210   0.540   0.071   2.537 -0.2570  0.5470  1.3128
   71SOL     OW  211   1.113   1.784   0.310 -0.3699 -0.6219 -0.1906
   71SOL    HW1  212   1.063   1.723   0.383  1.7135  0.6315  0.4704
   71SOL    HW2  213   1.055   1.795   0.227 -1.8091 -1.6961  0.0402
   72SOL     OW  214   1.820   0.181   2.174  0.2341 -0.1819 -0.1337
   72SOL    HW1  215   1.857   0.279   2.191 -0.1793  3.7693  0.8732
   72SOL    HW2  216   1.882   0.104   2.207 -2.3010  0.2231 -1.4653
   73SOL     OW  217   2.795   2.160   2.383 -0.1732 -0.1122  0.3643
   73SOL    HW1  218   2.796   2.065   2.337 -0.7683 -0.0562  1.3629
   73SOL    HW2  219   2.821   2.157   2.485  0.2135 -0.8539  0.5267
   74SOL     OW  220   2.671   2.869   2.189  0.6606  0.1709  0.0013
   74SOL    HW1  221   2.687   2.833   2.287  1.0913  0.7506  2.5528
   74SOL    HW2  222   2.750   2.918   2.146 -1.3447 -1.2290  2.0097
   75SOL     OW  223   0.958   0.856   1.061 -0.5857  0.7806  0.5859
   75SOL    HW1  224   0.869   0.905   1.050  0.5057 -1.3463  0.3789
   75SOL    HW2  225   0.987   0.876   1.158  1.4990  2.4405 -0.8037
   76SOL     OW  226   1.855   1.245   2.441  0.4161  0.4010  0.2416
   76SOL    HW1  227   1.756   1.252   2.478  0.3156  0.6687  2.0286
   76SOL    HW2  228   1.908   1.334   2.448 -3.7226  3.1589  4.0439
   77SOL     OW  229   2.919   0.935   1.039 -0.0650 -0.2416  0.2569
   77SOL    HW1  230   2.889   0.838   1.012 -2.1865 -0.1035  1.6445
   77SOL    HW2  231   3.001   0.932   1.098 -1.3537  2.3865 -1.0772
   78SOL     OW  232   2.016   1.381   1.391  0.3108 -0.7810 -0.2977
   78SOL    HW1  233   2.114   1.411   1.400 -0.6692  1.8395 -3.5310
   78SOL    HW2  234   1.951   1.455   1.367  1.0517  0.3767  0.3581
   79SOL     OW  235   0.666   1.414   0.794  0.0900  0.2084  0.4412
   79SOL    HW1  236   0.565   1.387   0.807 -0.1799 -1.2717  1.6847
   79SOL    HW2  237   0.708   1.341   0.728  2.5360 -2.4433 -3.3574
   80SOL     OW  238   0.629   0.501   1.504 -0.1276  0.1538  0.0984
   80SOL    HW1  239   0.691   0.543   1.429 -0.2541  0.1338 -2.1464
   80SOL    HW2  240   0.632   0.394   1.503  2.4888 -1.8558  2.9373
   81SOL     OW  241   0.999   1.314   2.607  0.1966  0.3241  0.7614
   81SOL    HW1  242   1.004   1.208   2.604  1.8824 -0.5461 -0.0126
   81SOL    HW2  243   0.946   1.347   2.521 -0.8365  0.6293 -2.0440
   82SOL     OW  244   1.008   2.842   1.545  0.2936 -0.3262  0.1748
   82SOL    HW1  245   0.980   2.750   1.504 -1.3815 -1.3409 -0.6187
   82SOL    HW2  246   1.010   2.913   1.467  2.3066  1.5532  0.3412
   83SOL     OW  247   2.547   2.381   0.882 -0.1119  0.1732  0.2071
   83SOL    HW1  248   2.484   2.327   0.810  0.1335 -0.8019 -3.0899
   83SOL    HW2  249   2.540   2.484   0.873  0.0870  0.8082 -1.4862
   84SOL     OW  250   0.737   0.016   2.353  0.5342 -0.1191 -0.7237
   84SOL    HW1  251   0.696  -0.028   2.440 -0.6479  1.2960  0.7930
   84SOL    HW2  252   0.825  -0.030   2.320 -0.0455  1.3059  0.2680
   85SOL     OW  253   0.284   1.631   1.429 -0.3598 -0.4138 -0.7021
   85SOL    HW1  254   0.251   1.730   1.444  2.5352  0.2256  2.9182
   85SOL    HW2  255   0.339   1.600   1.517 -0.4845  1.1425 -0.4452
   86SOL     OW  256   0.433   1.060   1.541 -0.4824 -0.1146  0.6514
   86SOL    HW1  257   0.393   0.998   1.471  0.7567  0.2722 -1.8800
   86SOL    HW2  258   0.527   1.027   1.564 -0.5735  1.9809 -0.3810
   87SOL     OW  259   1.646   0.669   0.269 -0.3674 -0.0401  0.0951
   87SOL    HW1  260   1.700   0.757   0.272  0.1519  4.1269 -0.2336
   87SOL    HW2  261   1.612   0.636   0.181 -0.6727 -1.9555  1.2295
   88SOL     OW  262   1.589   1.360   0.273  0.7907  0.1757  0.5870
   88SOL    HW1  263   1.647   1.273   0.263  0.8682 -0.2160  1.2738
   88SOL    HW2  264   1.485   1.341   0.265 -0.4007  2.2144 -0.9892
   89SOL     OW  265   3.087   0.301   0.634  0.6601  0.4163  0.1498
   89SOL    HW1  266   3.157   0.237   0.606 -1.2480 -0.2224  2.5270
   89SOL    HW2  267   2.992   0.270   0.603 -0.1778 -0.2964 -0.9533
   90SOL     OW  268   0.801   1.580   0.147 -0.3622 -0.0820  0.7711
   90SOL    HW1  269   0.854   1.506   0.101  0.0417 -0.6067  1.0586
   90SOL    HW2  270   0.709   1.597   0.093 -1.1293 -1.1039  0.3551
   91SOL     OW  271   1.217   1.464   1.772  0.1679 -0.2776 -0.0831
   91SOL    HW1  272   1.212   1.523   1.859  1.2745  1.0031 -0.2321
   91SOL    HW2  273   1.302   1.398   1.774 -0.2338  0.4206  2.1473
   92SOL     OW  274   0.013   0.950   1.231 -0.0608  0.1963 -0.0709
   92SOL    HW1  275   0.056   1.041   1.210 -1.2614 -0.3778 -1.0225
   92SOL    HW2  276   0.023   0.932   1.331  1.1015 -0.6315 -0.8099
   93SOL     OW  277   3.083   2.720   0.040 -0.3841 -0.4731  0.2047
   93SOL    HW1  278   3.063   2.706  -0.059  2.4600 -0.3338  0.6129
   93SOL    HW2  279   3.084   2.630   0.086 -0.3167  0.5466  0.0710
   94SOL     OW  280   1.488   1.413   1.748 -0.2536 -0.1546 -0.3672
   94SOL    HW1  281   1.561   1.345   1.786  0.2865 -0.9810 -1.1290
   94SOL    HW2  282   1.512   1.509   1.770 -3.0682  0.7084 -1.1927
   95SOL     OW  283   1.396   2.502   2.958 -0.4676 -0.1759  0.1327
   95SOL    HW1  284   1.316   2.504   3.022  3.4216 -2.4559 -0.5985
   95SOL    HW2  285   1.399   2.412   2.901 -0.0484 -1.2279 -0.2918
   96SOL     OW  286   0.562   2.104   1.301 -0.0016 -0.2479 -0.3996
   96SOL    HW1  287   0.503   2.084   1.215  0.7035  1.0655 -1.7529
   96SOL    HW2  288   0.627   2.025   1.325  0.3647 -1.7909 -0.6278
   97SOL     OW  289   0.305   1.617   2.435 -0.0137  0.5966 -0.0413
   97SOL    HW1  290   0.253   1.682   2.371 -0.0487  0.9016 -1.7586
   97SOL    HW2  291   0.289   1.643   2.532 -0.4782 -1.5498 -1.7911
   98SOL     OW  292   2.177   1.616   1.206  0.6894 -0.0003  0.3970
   98SOL    HW1  293   2.091   1.562   1.185 -1.5025  1.6006  0.1538
   98SOL    HW2  294   2.255   1.587   1.144 -0.1143  1.6599  0.7631
   99SOL     OW  295   2.563   2.124   1.310 -0.2564  0.6142  0.2281
   99SOL    HW1  296   2.606   2.141   1.400  0.4413  0.8676 -1.2263
   99SOL    HW2  297   2.527   2.023   1.301 -0.1351 -0.5835 -0.8296
  100SOL     OW  298   2.306   0.411   2.107 -0.0206  0.1002 -0.1859
  100SOL    HW1  299   2.229   0.412   2.177 -1.6390 -1.0403 -1.2246
  100SOL    HW2  300   2.402   0.389   2.145  1.8237 -0.4171  1.6646
  101SOL     OW  301   0.393   1.534   0.511 -0.2590 -0.1276  0.2146
  101SOL    HW1  302   0.399   1.624   0.556 -0.8852  1.5205  0.0271
  101SOL    HW2  303   0.480   1.504   0.472 -1.0516 -0.4629  3.9929
  102SOL     OW  304   2.299   1.069   0.823 -0.1021 -0.4639  0.1888
  102SOL    HW1  305   2.234   0.991   0.790  0.6034 -0.2385  2.0944
  102SOL    HW2  306   2.391   1.069   0.782 -1.9106  2.4112  0.5061
  103SOL     OW  307   2.237   0.073   0.334  0.1059 -0.2462 -0.4121
  103SOL    HW1  308   2.270   0.130   0.256 -1.7407 -1.7761 -0.9616
  103SOL    HW2  309   2.303   0.072   0.415 -0.1030 -1.2332  0.0161
  104SOL     OW  310   0.051   1.875   2.092  0.1872 -0.8715  0.0545
  104SOL    HW1  311   0.083   1.858   1.995 -0.1761  2.3799 -0.3290
  104SOL    HW2  312  -0.055   1.869   2.095  2.3255  0.6304 -1.3555
  105SOL     OW  313   1.295   2.098   0.778  0.7926  0.0005 -0.3162
  105SOL    HW1  314   1.285   2.129   0.679 -0.0554 -0.4708 -1.5391
  105SOL    HW2  315   1.307   1.993   0.791 -0.7259 -1.2656 -0.1739
  106SOL     OW  316   2.082   0.405   1.400  0.4793  0.3435 -0.2905
  106SOL    HW1  317   2.024   0.324   1.382  0.3569  1.1860 -0.4184
  106SOL    HW2  318   2.073   0.429   1.499 -1.1069 -1.3166 -0.0346
  107SOL     OW  319   1.980   2.940   1.196 -0.1280 -0.0049  0.4608
  107SOL    HW1  320   1.938   3.032   1.218  1.9766  0.9559 -0.2217
  107SOL    HW2  321   1.914   2.872   1.147 -0.7318  0.3881 -0.6054
  108SOL     OW  322   0.877   2.830   1.171  0.0951 -0.4511  0.0833
  108SOL    HW1  323   0.882   2.727   1.180  0.1501 -0.0375 -1.2850
  108SOL    HW2  324   0.969   2.875   1.195 -1.5042 -0.6759  3.8982
  109SOL     OW  325   2.148   0.159   0.769 -0.3034  0.2725 -0.7502
  109SOL    HW1  326   2.076   0.113   0.710 -0.1341 -0.4976  0.5565
  109SOL    HW2  327   2.173   0.108   0.856  0.6338  1.3763 -1.0115
  110SOL     OW  328   0.461   2.796   2.779 -0.6488  0.0687  0.0021
  110SOL    HW1  329   0.447   2.769   2.678  2.3751 -0.7614  0.6223
  110SOL    HW2  330   0.532   2.735   2.830  3.0327 -2.9181  2.5935
  111SOL     OW  331   1.282   0.493   2.330 -0.1550 -0.1162 -0.3463
  111SOL    HW1  332   1.182   0.515   2.357 -3.4144  0.4484  0.6786
  111SOL    HW2  333   1.332   0.451   2.414  0.9017  0.1625 -0.3011
  112SOL     OW  334   1.777   0.413   1.502  0.0787 -0.3599  0.3121
  112SOL    HW1  335   1.725   0.431   1.415 -0.3341 -2.1210  3.3195
  112SOL    HW2  336   1.713   0.393   1.587 -0.2801  0.1633  2.2319
  113SOL     OW  337   2.405   1.685   1.717  0.4006 -0.3830 -0.0285
  113SOL    HW1  338   2.397   1.582   1.725 -1.4844 -2.3099  0.2614
  113SOL    HW2  339   2.395   1.734   1.808 -1.7438  1.3789  0.8244
  114SOL     OW  340   0.286   0.491   1.195  0.0584 -0.6221 -0.0616
  114SOL    HW1  341   0.352   0.551   1.148 -3.9663 -1.8617  1.5193
  114SOL    HW2  342   0.209   0.545   1.239 -0.4902 -1.7052  0.2544
  115SOL     OW  343   2.785   1.523   1.254 -0.5370  0.5969 -0.6711
  115SOL    HW1  344   2.752   1.423   1.248 -3.3747  1.3087  0.4599
  115SOL    HW2  345   2.881   1.540   1.204  2.7057 -1.0428 -1.0559
  116SOL     OW  346   1.902   0.952   0.679  0.0021 -0.3334  0.2543
  116SOL    HW1  347   1.810   0.907   0.659  0.4977  0.6062  0.5653
  116SOL    HW2  348   1.917   1.055   0.684  2.7601 -2.4852 -0.4234
  117SOL     OW  349   1.133   0.373   0.565  0.0562  0.2369 -0.0398
  117SOL    HW1  350   1.161   0.472   0.546 -1.9993 -1.2702  1.1427
  117SOL    HW2  351   1.142   0.307   0.482 -0.5016 -0.5419 -4.4605
  118SOL     OW  352   1.096   1.199   1.124  0.1165 -0.1912 -0.2238
  118SOL    HW1  353   1.010   1.168   1.173 -1.1493  0.5695 -2.1128
  118SOL    HW2  354   1.132   1.295   1.144 -0.9823  1.6551 -0.3755
  119SOL     OW  355   1.865   1.594   2.200  0.4408 -0.4369 -0.0281
  119SOL    HW1  356   1.816   1.675   2.148 -0.0570 -0.0701 -1.4996
  119SOL    HW2  357   1.963   1.584   2.169  1.0261 -0.9558 -1.6956
  120SOL     OW  358   2.906   2.798   0.242 -0.1614 -0.2278  0.1429
  120SOL    HW1  359   2.962   2.764   0.158  0.6221 -1.4260  0.9693
  120SOL    HW2  360   2.806   2.765   0.231 -1.2079  1.0432 -0.1280
  121SOL     OW  361   1.860   0.736   2.163  0.3986  0.3504  0.7904
  121SOL    HW1  362   1.874   0.811   2.092  0.0470 -0.7114 -1.5567
  121SOL    HW2  363   1.859   0.644   2.116 -0.9825  1.3377  0.0974
  122SOL     OW  364   2.589   2.501   1.341 -0.0336 -0.0104  0.1548
  122SOL    HW1  365   2.674   2.460   1.302 -1.9327  2.7276  1.4538
  122SOL    HW2  366   2.586   2.490   1.441 -1.6461  1.2452 -0.5196
  123SOL     OW  367   1.715   0.136   1.723 -0.0098  0.5067  0.4401
  123SOL    HW1  368   1.724   0.058   1.650  1.8487 -1.6235 -2.6762
  123SOL    HW2  369   1.807   0.171   1.756  2.0090  0.9197  2.1972
  124SOL     OW  370   3.050   0.470   1.109  0.2122  0.1596 -0.3126
  124SOL    HW1  371   2.976   0.530   1.155 -0.3930 -0.1302  1.1557
  124SOL    HW2  372   3.065   0.502   1.009  0.3841 -0.2807 -0.4888
  125SOL     OW  373   0.902   1.910   0.766 -0.0673 -0.1212  0.3178
  125SOL    HW1  374   1.000   1.881   0.765  0.2726  0.1050 -0.4923
  125SOL    HW2  375   0.850   1.874   0.854 -0.0187 -1.0657  0.4203
  126SOL     OW  376   1.965   2.271   2.450  0.2958  0.2220  0.7299
  126SOL    HW1  377   1.993   2.234   2.357 -4.2953  2.3338  0.3729
  126SOL    HW2  378   1.938   2.196   2.518  0.8947  0.3133 -2.5722
  127SOL     OW  379   0.897   0.974   0.212  0.2622 -0.2576  0.5257
  127SOL    HW1  380   0.930   0.997   0.307 -1.2548 -1.2003  2.0043
  127SOL    HW2  381   0.890   0.874   0.195 -3.3005  2.6250 -1.4220
  128SOL     OW  382   0.947   0.267   1.416  0.1635  0.0548  0.0366
  128SOL    HW1  383   0.917   0.327   1.331  0.4817 -1.9934 -2.0834
  128SOL    HW2  384   0.892   0.171   1.405 -1.6672 -0.7769 -0.8131
  129SOL     OW  385   1.872   0.662   1.848 -0.2279  0.6177 -0.2320
  129SOL    HW1  386   1.869   0.648   1.746  0.2205  0.1887 -0.3176
  129SOL    HW2  387   1.927   0.740   1.873  1.7466 -2.1421 -1.6322
  130SOL     OW  388   1.417   2.251   1.006 -0.1143 -0.1586  0.1359
  130SOL    HW1  389   1.373   2.189   0.934 -0.7615 -1.4965  0.1875
  130SOL    HW2  390   1.492   2.316   0.969 -1.6826 -1.3323  0.2777
  131SOL     OW  391   3.049   1.405   1.357 -0.1201  1.2272 -0.0644
  131SOL    HW1  392   3.011   1.320   1.410  1.0638 -1.7692  1.2538
  131SOL    HW2  393   3.149   1.431   1.384  1.0983 -0.6194  0.2732
  132SOL     OW  394   2.043   2.374   0.520 -0.6171 -0.3269  0.3654
  132SOL    HW1  395   1.949   2.420   0.520 -0.3064 -1.4801  0.8714
  132SOL    HW2  396   2.040   2.285   0.565  1.1190 -0.5874  0.4902
  133SOL     OW  397   1.794   2.347   2.723  0.2533  0.6302 -0.3526
  133SOL    HW1  398   1.699   2.385   2.696 -1.4476  0.7718  0.2654
  133SOL    HW2  399   1.876   2.408   2.702  3.3262 -3.7871  0.2077
  134SOL     OW  400   2.687   2.376   1.601  0.4735  0.1103  0.1813
  134SOL    HW1  401   2.633   2.389   1.688  0.0413 -0.7823  0.3734
  134SOL    HW2  402   2.775   2.431   1.606  0.0849  2.1059 -1.0355
  135SOL     OW  403   0.693   1.437   2.680  0.3321 -0.8400  0.6877
  135SOL    HW1  404   0.706   1.359   2.744 -1.0132  0.2572 -0.3619
  135SOL    HW2  405   0.703   1.406   2.586 -0.1289  2.4754 -0.5139
  136SOL     OW  406   1.203   2.013   0.432 -0.2506 -0.0116 -0.6975
  136SOL    HW1  407   1.127   2.084   0.457 -1.0795 -0.3639  1.3396
  136SOL    HW2  408   1.166   1.935   0.376 -2.4252  2.8760 -2.2011
  137SOL     OW  409   0.406   1.220   2.233  0.0744  0.5045 -0.3686
  137SOL    HW1  410   0.313   1.225   2.268  1.4953  0.1487 -0.6784
  137SOL    HW2  411   0.455   1.128   2.239 -0.0644  1.3252  0.3378
  138SOL     OW  412   2.445   1.549   0.307  0.0228 -0.2953 -0.1232
  138SOL    HW1  413   2.368   1.516   0.242 -1.7530 -0.2511 -1.4707
  138SOL    HW2  414   2.509   1.473   0.341  1.2527 -0.9813 -2.4867
  139SOL     OW  415   1.856   2.639   1.519  0.6228  0.2629  0.3774
  139SOL    HW1  416   1.767   2.655   1.468  2.9855 -0.5178  0.8673
  139SOL    HW2  417   1.900   2.553   1.483 -2.2013 -0.3356  2.2632
  140SOL     OW  418   3.002   2.981   2.607  0.1730 -0.0645  0.3782
  140SOL    HW1  419   3.062   2.898   2.595 -1.8643  0.1128  0.1138
  140SOL    HW2  420   3.047   3.068   2.583 -0.2884 -1.1386  0.1993
  141SOL     OW  421   1.330   1.629   1.570 -0.2078 -0.5439 -0.1055
  141SOL    HW1  422   1.245   1.673   1.527  2.0119  1.0259  0.4022
  141SOL    HW2  423   1.304   1.554   1.638 -3.2538 -0.1394 -0.7431
  142SOL     OW  424   1.522   0.623   2.233  0.3485  0.3309  0.3571
  142SOL    HW1  425   1.562   0.600   2.138  0.1808  0.9694 -0.9245
  142SOL    HW2  426   1.429   0.578   2.249 -0.7497 -1.8449  1.7838
  143SOL     OW  427   2.784   0.814   0.555  0.6483  0.0818 -0.1503
  143SOL    HW1  428   2.836   0.860   0.474 -1.6411  3.9921 -3.8858
  143SOL    HW2  429   2.812   0.856   0.643 -0.6198  2.3722 -1.7189
  144SOL     OW  430   2.902   1.181   1.471  0.0631  0.2552 -0.5421
  144SOL    HW1  431   2.851   1.181   1.563 -0.8071 -1.6771 -2.2135
  144SOL    HW2  432   2.976   1.107   1.476  1.3355  1.4085  1.4194
  145SOL     OW  433   0.932   1.829   0.122 -0.8829  0.4214 -0.4250
  145SOL    HW1  434   0.984   1.837   0.032  3.2816 -1.0024  0.2657
  145SOL    HW2  435   0.872   1.747   0.125 -1.4829  1.8815 -3.3463
  146SOL     OW  436   2.456   0.669   1.493  0.3240  0.1543  0.2261
  146SOL    HW1  437   2.428   0.582   1.444  2.7189 -1.4950 -1.8876
  146SOL    HW2  438   2.409   0.749   1.446 -0.2910 -0.9556 -0.2242
  147SOL     OW  439   1.095   2.521   0.576  0.4577  0.1035 -0.0842
  147SOL    HW1  440   1.044   2.572   0.500 -1.1261  0.1490 -0.9209
  147SOL    HW2  441   1.179   2.475   0.537 -0.7698  1.8524 -0.8460
  148SOL     OW  442   1.583   1.460   0.003 -0.2419  0.1304 -0.6219
  148SOL    HW1  443   1.565   1.378  -0.060 -0.6485 -2.4520 -0.3444
  148SOL    HW2  444   1.569   1.440   0.104 -1.0660  2.4140  1.4516
  149SOL     OW  445   0.694   1.502   1.966  0.3622  0.5136  0.8026
  149SOL    HW1  446   0.596   1.468   1.990  0.4098 -0.2156  1.8802
  149SOL    HW2  447   0.731   1.447   1.882 -1.5825 -0.4996 -1.0178
  150SOL     OW  448   3.030   1.209   0.971 -0.3702 -0.3005 -0.0202
  150SOL    HW1  449   3.111   1.211   1.036  3.7126 -1.9092 -0.9149
  150SOL    HW2  450   2.961   1.138   0.994 -0.7055  0.2699  0.5508
  151SOL     OW  451   0.278   0.813   2.048  0.9778 -0.2825 -0.6007
  151SOL    HW1  452   0.272   0.902   1.994 -1.1743  0.8471  1.7435
  151SOL    HW2  453   0.304   0.735   1.991 -0.4772  1.2181 -0.4237
  152SOL     OW  454   1.433   1.823   1.158  0.0544  0.4285 -0.8152
  152SOL    HW1  455   1.485   1.911   1.162 -1.2594 -0.0801 -2.2813
  152SOL    HW2  456   1.331   1.838   1.138 -2.6733 -0.1631 -0.7356
  153SOL     OW  457   0.188   1.519   0.210 -0.7175 -0.0497  0.4426
  153SOL    HW1  458   0.166   1.414   0.209  0.3614  0.0769  0.2224
  153SOL    HW2  459   0.157   1.563   0.301 -0.5251 -0.4716 -0.4984
  154SOL     OW  460   2.284   1.859   2.779 -0.5432 -0.3543 -0.1371
  154SOL    HW1  461   2.303   1.754   2.784  1.0475 -2.6972 -0.4619
  154SOL    HW2  462   2.365   1.902   2.736 -0.0024 -1.4906  0.5276
  155SOL     OW  463   2.448   1.246   0.346 -0.6675 -0.1326 -0.2128
  155SOL    HW1  464   2.542   1.199   0.338  1.1657  0.0898 -2.4359
  155SOL    HW2  465   2.364   1.192   0.331 -0.0982  1.5001  0.5334
  156SOL     OW  466   2.466   0.817   0.733  0.1574 -0.2853 -0.0026
  156SOL    HW1  467   2.385   0.833   0.794 -0.7734 -1.5394 -1.8066
  156SOL    HW2  468   2.474   0.874   0.645 -0.4979 -1.1052 -2.5805
  157SOL     OW  469   1.227   2.955   3.015 -0.3683 -0.1561  0.1835
  157SOL    HW1  470   1.302   2.935   2.947  1.3178 -1.6217  0.4753
  157SOL    HW2  471   1.245   3.046   3.055  0.4172 -2.4121 -3.8492
  158SOL     OW  472   1.026   1.870   1.829  0.9409 -0.3182 -0.0474
  158SOL    HW1  473   1.063   1.965   1.800  1.7428  1.9040  0.2143
  158SOL    HW2  474   0.955   1.872   1.905 -0.1609 -1.7012 -1.0845
  159SOL     OW  475   0.867   0.432   1.217 -0.2615  0.3340  0.0169
  159SOL    HW1  476   0.846   0.537   1.230 -0.6302  1.9393 -0.6282
  159SOL    HW2  477   0.782   0.386   1.179  0.9739  1.0279  1.2173
  160SOL     OW  478   1.382   2.429   1.516  0.8305  0.0553 -0.4686
  160SOL    HW1  479   1.323   2.348   1.547  0.0869 -1.8882 -0.7193
  160SOL    HW2  480   1.483   2.398   1.531 -0.5093 -2.6238  1.4523
  161SOL     OW  481   3.053   2.684   0.471 -0.2066 -0.9143  0.3646
  161SOL    HW1  482   3.027   2.583   0.486 -0.5249 -1.6178 -4.1577
  161SOL    HW2  483   3.016   2.733   0.382 -0.5760 -0.3655 -1.6142
  162SOL     OW  484   2.572   1.818   0.467  0.2953  0.2652 -0.5471
  162SOL    HW1  485   2.597   1.830   0.370  0.4035  1.2854 -1.8385
  162SOL    HW2  486   2.568   1.723   0.505 -0.5383  1.8739  2.5657
  163SOL     OW  487   1.945   2.664   0.753 -0.0592  0.3533 -0.4536
  163SOL    HW1  488   1.942   2.699   0.657  0.2935  0.2660  0.5798
  163SOL    HW2  489   2.005   2.581   0.769  1.6937  0.7748 -1.0331
  164SOL     OW  490   3.048   0.239   1.227 -0.4880 -0.5694 -0.8160
  164SOL    HW1  491   3.067   0.330   1.175 -0.5003  1.3094 -2.7097
  164SOL    HW2  492   3.126   0.208   1.288 -1.4737 -3.9564  1.8294
  165SOL     OW  493   1.102   1.415   0.675  0.3249 -0.5444 -0.0774
  165SOL    HW1  494   1.085   1.447   0.773  0.3682  2.8629  1.6270
  165SOL    HW2  495   1.105   1.500   0.614 -1.3310 -0.8623  0.2801
  166SOL     OW  496   1.549   1.019   1.768 -0.2993  0.0884  0.0905
  166SOL    HW1  497   1.484   1.018   1.847 -0.7396  2.7525  1.5364
  166SOL    HW2  498   1.587   1.112   1.758 -1.0528  0.4725  0.9217
  167SOL     OW  499   0.783   1.942   1.454  0.0472  0.4676  0.4260
  167SOL    HW1  500   0.797   2.008   1.537 -1.2884  0.1918 -0.8096
  167SOL    HW2  501   0.710   1.870   1.481 -2.7582  0.7558 -0.2003
  168SOL     OW  502   1.569   2.346   0.158  0.2422  0.0048 -0.1157
  168SOL    HW1  503   1.626   2.370   0.074 -0.5640 -0.8023  1.5469
  168SOL    HW2  504   1.623   2.320   0.244 -1.8197 -1.8202  0.3674
  169SOL     OW  505   0.080   2.579   2.211 -0.0496  0.1475 -0.0751
  169SOL    HW1  506   0.130   2.549   2.129  0.8564  0.7276 -0.7812
  169SOL    HW2  507   0.140   2.567   2.294  0.7280  0.2768 -3.1132
  170SOL     OW  508   1.143   0.213   2.050  0.1300  0.2127 -0.1318
  170SOL    HW1  509   1.221   0.222   2.113  0.5132 -2.1412  3.3496
  170SOL    HW2  510   1.178   0.191   1.953  1.1005 -0.3981 -0.0596
  171SOL     OW  511   0.224   0.853   2.386  0.2029  0.2238 -0.1829
  171SOL    HW1  512   0.120   0.857   2.397 -3.1522  0.3334 -0.6043
  171SOL    HW2  513   0.246   0.850   2.284 -0.9848 -1.6791  0.6855
  172SOL     OW  514   0.947   1.023   2.907  0.0585  0.2678 -0.6637
  172SOL    HW1  515   0.929   1.083   2.992 -0.0753  0.4451 -1.4579
  172SOL    HW2  516   0.863   1.000   2.850  0.8636  2.4257 -2.0130
  173SOL     OW  517   0.509   2.456   0.143 -0.5344  0.1421 -1.0087
  173SOL    HW1  518   0.499   2.380   0.076 -1.3087  1.6442  3.2239
  173SOL    HW2  519   0.416   2.485   0.181  0.6710 -2.8096 -2.7626
  174SOL     OW  520   1.508   2.861   1.084  0.6019  0.1093  0.2427
  174SOL    HW1  521   1.579   2.904   1.025 -0.5884 -1.9175 -1.8305
  174SOL    HW2  522   1.462   2.778   1.033  0.1003  0.5998 -0.2022
  175SOL     OW  523   0.417   3.053   1.689  0.1679  0.5782  0.1022
  175SOL    HW1  524   0.490   3.049   1.765 -1.3950  0.4279  1.3134
  175SOL    HW2  525   0.355   3.138   1.694  2.5366  2.1841  1.0547
  176SOL     OW  526   2.615   0.357   0.023  0.2972  0.0282 -0.1519
  176SOL    HW1  527   2.616   0.453   0.067 -0.4923  2.0208  0.7236
  176SOL    HW2  528   2.602   0.289   0.103  1.9406 -1.0544 -0.9481
  177SOL     OW  529   0.329   0.299   0.997  0.3662  0.5231 -0.1657
  177SOL    HW1  530   0.287   0.206   1.004 -0.1463  0.6392  3.1022
  177SOL    HW2  531   0.321   0.357   1.083 -0.9365 -1.4197 -0.6922
  178SOL     OW  532   0.017   2.741   2.555  0.2866  0.1449 -0.1176
  178SOL    HW1  533  -0.008   2.647   2.519  0.2047 -1.8332  1.1050
  178SOL    HW2  534   0.090   2.737   2.632  2.0135 -1.1090 -0.7731
  179SOL     OW  535   3.012   1.542   1.103 -0.5316 -0.4098 -0.0702
  179SOL    HW1  536   3.097   1.602   1.082 -1.2767  0.8157  0.8651
  179SOL    HW2  537   3.030   1.471   1.173  2.2557 -0.1318  0.6353
  180SOL     OW  538   0.197   1.387   1.769 -0.4461 -0.0220  0.1352
  180SOL    HW1  539   0.269   1.319   1.793  1.8712  0.5166  0.0501
  180SOL    HW2  540   0.138   1.411   1.847  1.9800 -0.2260 -1.7582
  181SOL     OW  541   2.965   1.945   2.529 -0.0506 -0.0545  0.1902
  181SOL    HW1  542   3.030   2.011   2.475 -1.6710 -1.8980  2.5016
  181SOL    HW2  543   2.881   1.927   2.473  0.0002 -0.0168  2.3630
  182SOL     OW  544   2.340   1.277   1.266  0.0291 -0.3013 -0.0489
  182SOL    HW1  545   2.265   1.241   1.206  0.5816 -1.8770 -0.2438
  182SOL    HW2  546   2.376   1.373   1.241  1.9122  3.8075 -1.0314
  183SOL     OW  547   1.377   2.289   2.466  0.0524  1.1716 -0.6198
  183SOL    HW1  548   1.324   2.202   2.488 -1.7863  1.2631  2.9642
  183SOL    HW2  549   1.470   2.265   2.422 -1.0821 -0.8208 -2.0808
  184SOL     OW  550   2.162   0.866   0.743  0.2335  0.1871  0.4708
  184SOL    HW1  551   2.064   0.899   0.726  1.5973 -0.4463  3.2297
  184SOL    HW2  552   2.180   0.769   0.713  1.2550  3.8645  2.2162
  185SOL     OW  553   1.527   2.745   2.033  0.0174 -0.1863  0.3216
  185SOL    HW1  554   1.487   2.829   1.986  0.0520  1.7492  0.8509
  185SOL    HW2  555   1.577   2.768   2.122  0.9624 -1.1903  0.6295
  186SOL     OW  556   0.063   2.197   1.644 -0.1992  0.4099 -0.0657
  186SOL    HW1  557   0.053   2.237   1.743  0.6672 -1.8125 -2.2659
  186SOL    HW2  558   0.151   2.139   1.640 -0.4426  1.5113 -1.8280
  187SOL     OW  559   1.358   0.629   1.654 -0.1414 -0.0553  0.5075
  187SOL    HW1  560   1.446   0.676   1.679 -2.8762 -2.0130  0.7756
  187SOL    HW2  561   1.355   0.535   1.688  0.7594 -0.0263 -0.0129
  188SOL     OW  562   2.780   2.718   1.414 -0.5390 -0.0798 -0.1070
  188SOL    HW1  563   2.757   2.820   1.421 -1.4749 -0.8384  0.7789
  188SOL    HW2  564   2.733   2.663   1.342 -1.9481 -1.2640  0.2675
  189SOL     OW  565   0.883   1.190   1.398  0.5618  0.4153 -0.1997
  189SOL    HW1  566   0.955   1.210   1.469 -2.5727  1.8182  0.6566
  189SOL    HW2  567   0.831   1.271   1.366  0.8893  1.3412 -0.5443
  190SOL     OW  568   1.472   1.868   1.550 -0.2081  0.4992 -0.0098
  190SOL    HW1  569   1.425   1.780   1.570  0.2238  1.7317  1.0399
  190SOL    HW2  570   1.503   1.912   1.636 -0.2219 -0.0917  1.4272
  191SOL     OW  571   0.927   0.818   1.527  0.4369 -0.4630 -0.1949
  191SOL    HW1  572   0.957   0.741   1.589 -1.7386 -2.3860 -0.1066
  191SOL    HW2  573   0.999   0.837   1.453 -0.2776  2.9186 -0.5444
  192SOL     OW  574   1.855   2.469   1.109 -0.0409 -0.0355  0.4422
  192SOL    HW1  575   1.766   2.460   1.057 -0.0626 -0.5652  0.3819
  192SOL    HW2  576   1.930   2.416   1.052  2.4972 -0.5444 -1.7557
  193SOL     OW  577   0.525   0.535   0.418  0.0666  0.4609  0.9005
  193SOL    HW1  578   0.480   0.443   0.443 -2.0729  3.0427  0.1293
  193SOL    HW2  579   0.573   0.532   0.323  2.0189  1.0908 -1.5994
  194SOL     OW  580   0.320   0.914   1.319  0.4573  0.2215  0.1111
  194SOL    HW1  581   0.234   0.850   1.312  0.4601 -0.9227 -0.3370
  194SOL    HW2  582   0.373   0.912   1.233  0.9594 -1.1995  0.6892
  195SOL     OW  583   0.975   2.896   0.536 -0.5284  0.3357  0.2010
  195SOL    HW1  584   0.961   2.807   0.481 -0.6307  0.0878  1.9574
  195SOL    HW2  585   1.071   2.944   0.525  0.8046 -1.9033  2.4479
  196SOL     OW  586   0.248   1.360   1.347  0.6508  0.2555 -0.2613
  196SOL    HW1  587   0.245   1.456   1.386  0.5166  0.5971  1.9222
  196SOL    HW2  588   0.235   1.290   1.422  0.1724  0.4279 -0.3101
  197SOL     OW  589   0.825   2.011   0.335 -0.0442  0.3048  0.2413
  197SOL    HW1  590   0.792   1.959   0.420 -0.9311 -1.7714  1.4538
  197SOL    HW2  591   0.874   1.953   0.259  1.5676 -0.3682 -0.4053
  198SOL     OW  592   0.285   1.234   0.352  0.1045  0.0234  0.0923
  198SOL    HW1  593   0.184   1.225   0.315 -1.0121  1.4047 -2.0795
  198SOL    HW2  594   0.314   1.331   0.384  0.5473  1.8722 -0.9505
  199SOL     OW  595   2.273   0.469   2.584 -0.5632  0.1664 -0.2973
  199SOL    HW1  596   2.207   0.404   2.634  2.1361 -0.7143  0.3769
  199SOL    HW2  597   2.368   0.446   2.610 -2.0926  0.4427  0.3091
  200SOL     OW  598   3.103   2.966   0.810 -0.5959  0.3694  0.2058
  200SOL    HW1  599   3.118   3.056   0.864 -0.3134 -0.4026 -1.9990
  200SOL    HW2  600   3.024   2.980   0.738  0.8317 -1.2885 -1.3873
  201SOL     OW  601   0.943   0.738   0.513 -0.6285 -0.5787 -0.2756
  201SOL    HW1  602   0.931   0.814   0.589 -1.6511  1.4682 -0.2711
  201SOL    HW2  603   0.890   0.648   0.535  1.9310  2.1621  1.9745
  202SOL     OW  604   0.424   1.227   1.854  0.6492  0.8523 -0.2004
  202SOL    HW1  605   0.505   1.164   1.852  2.5558  2.9310  3.2781
  202SOL    HW2  606   0.431   1.292   1.934  0.5359 -1.0272  1.0136
  203SOL     OW  607   0.612   0.227   1.562  0.3055 -0.0668 -0.3045
  203SOL    HW1  608   0.615   0.160   1.480 -0.7316 -0.8103  0.0505
  203SOL    HW2  609   0.679   0.200   1.641 -0.2879 -0.3494  2.2587
  204SOL     OW  610   2.112   1.811   2.990 -0.0759 -0.3619 -0.2699
  204SOL    HW1  611   2.113   1.707   2.997 -0.6793  1.3068 -2.4132
  204SOL    HW2  612   2.159   1.839   2.898 -3.1564 -0.9797  1.3195
  205SOL     OW  613   1.837   1.883   3.100  0.1407  0.2866  0.3614
  205SOL    HW1  614   1.912   1.831   3.046  1.0578 -1.8749  2.1513
  205SOL    HW2  615   1.791   1.965   3.047  0.1309  1.9483  0.7633
  206SOL     OW  616   2.407   2.788   0.375  0.0659 -0.0402 -0.3158
  206SOL    HW1  617   2.411   2.687   0.397  0.6120 -2.3686 -3.3568
  206SOL    HW2  618   2.490   2.816   0.328 -0.4552 -1.2310 -1.0726
  207SOL     OW  619   0.710   1.741   2.882  0.0739 -0.4192 -0.0167
  207SOL    HW1  620   0.800   1.697   2.866 -1.4328  3.2781  0.0807
  207SOL    HW2  621   0.664   1.712   2.970  2.2207  0.5021 -1.0216
  208SOL     OW  622   1.094   1.679   1.252 -0.5385 -0.2088 -0.4827
  208SOL    HW1  623   1.094   1.777   1.224 -0.2803  0.8793  2.6009
  208SOL    HW2  624   1.014   1.653   1.310 -2.5226 -2.0192 -3.8405
  209SOL     OW  625   0.202   0.991   3.090  0.1013  0.1710 -0.1770
  209SOL    HW1  626   0.161   0.927   3.018  0.6991 -2.1062 -0.9430
  209SOL    HW2  627   0.205   0.952   3.185 -0.6538  0.6687 -0.4836
  210SOL     OW  628   1.714   0.484   1.230  0.0521 -0.1299  0.2581
  210SOL    HW1  629   1.634   0.551   1.204  1.1764 -0.2302 -1.2390
  210SOL    HW2  630   1.806   0.522   1.212 -2.0237  1.2729 -0.8800
  211SOL     OW  631   2.031   1.027   1.563  0.3865  0.4719 -0.1812
  211SOL    HW1  632   2.083   0.951   1.607  1.7117 -0.6824  2.3240
  211SOL    HW2  633   2.101   1.091   1.517  0.9181  0.1991  0.0626
  212SOL     OW  634   0.037   0.965   1.503  0.2731 -0.4626 -0.1078
  212SOL    HW1  635   0.098   1.046   1.524 -0.7630 -1.2976 -3.4706
  212SOL    HW2  636   0.051   0.882   1.564  0.6913  1.0193 -0.5067
  213SOL     OW  637   2.745   0.230   0.262  0.0385 -0.2478 -0.1875
  213SOL    HW1  638   2.840   0.218   0.216  2.2287  0.3279 -2.9986
  213SOL    HW2  639   2.689   0.138   0.244  0.4822 -1.8936  0.1237
  214SOL     OW  640   2.152   0.360   2.337  0.1403  0.2262  0.1776
  214SOL    HW1  641   2.198   0.418   2.408 -1.4530 -2.1118  0.8792
  214SOL    HW2  642   2.148   0.261   2.364  0.0603 -2.4537  0.8880
  215SOL     OW  643   1.666   2.275   2.096 -0.8007  0.2435  0.0166
  215SOL    HW1  644   1.768   2.299   2.093  0.1396  0.0470  0.4229
  215SOL    HW2  645   1.604   2.346   2.141  0.1010 -0.1896 -1.1813
  216SOL     OW  646   2.162   0.606   0.624 -0.2175  0.0686 -1.1831
  216SOL    HW1  647   2.142   0.501   0.602 -0.4325  1.9141 -0.9584
  216SOL    HW2  648   2.204   0.663   0.546  1.5567  2.3640  0.8605
  217SOL     OW  649   0.902   2.829   2.533  0.7588  0.5566  0.3330
  217SOL    HW1  650   0.946   2.758   2.593  3.6770  1.7693 -1.6592
  217SOL    HW2  651   0.851   2.784   2.458 -0.8708 -2.9478  0.7773
  218SOL     OW  652   1.881   1.462   0.061 -0.2600 -0.0891 -0.3942
  218SOL    HW1  653   1.781   1.460   0.034  1.2823  0.8095 -1.1910
  218SOL    HW2  654   1.906   1.376   0.120 -2.8280  0.2133  0.0422
  219SOL     OW  655   2.488   1.285   2.535 -0.0253 -0.1373 -0.1355
  219SOL    HW1  656   2.518   1.234   2.450 -0.5205 -2.4440 -1.0591
  219SOL    HW2  657   2.470   1.225   2.617  0.0579 -0.6209  2.6703
  220SOL     OW  658   1.429   1.023   1.410 -0.0573 -0.5373  0.0675
  220SOL    HW1  659   1.521   0.976   1.387  0.4505  1.7965  0.5215
  220SOL    HW2  660   1.380   1.051   1.322  2.2533  0.7106  1.7585
  221SOL     OW  661   1.345   0.945   2.201  0.9290 -0.0141  0.1071
  221SOL    HW1  662   1.324   0.970   2.099 -3.1771  0.8806 -1.4817
  221SOL    HW2  663   1.424   0.999   2.243 -2.6568  0.8419 -1.3789
  222SOL     OW  664   1.088   0.145   1.231 -0.2175 -0.4091  0.4165
  222SOL    HW1  665   1.048   0.215   1.299 -0.7443  1.5580  1.1384
  222SOL    HW2  666   1.104   0.190   1.137  1.1596  0.3676  1.1803
  223SOL     OW  667   2.702   0.910   2.095  0.1889 -0.3873 -0.6773
  223SOL    HW1  668   2.657   0.991   2.143 -1.0813  0.5680  1.8942
  223SOL    HW2  669   2.804   0.906   2.107 -0.0873 -1.1678  1.1095
  224SOL     OW  670   1.491   1.049   2.722  0.8285  0.0619  0.3365
  224SOL    HW1  671   1.550   0.984   2.675  1.3645 -0.4538 -1.0289
  224SOL    HW2  672   1.506   1.142   2.673 -1.8401 -1.5893 -2.7836
  225SOL     OW  673   2.974   2.678   2.865  0.1615 -0.2476 -0.5237
  225SOL    HW1  674   2.887   2.664   2.805 -3.3213 -0.8989 -1.0204
  225SOL    HW2  675   3.025   2.767   2.838 -1.9308  2.3288  0.5020
  226SOL     OW  676   2.377   1.618   2.778 -0.5383 -0.0559  0.4616
  226SOL    HW1  677   2.443   1.596   2.696  1.9837 -1.7518 -2.0289
  226SOL    HW2  678   2.354   1.534   2.831  1.7368 -1.9309 -3.2103
  227SOL     OW  679   0.860   0.239   3.073  0.0115  0.4949  0.3665
  227SOL    HW1  680   0.883   0.340   3.055 -1.6062 -0.4227 -1.9239
  227SOL    HW2  681   0.813   0.192   2.993  3.0797 -1.0833  1.0785
  228SOL     OW  682   2.411   0.598   2.815  0.3032 -0.2699  0.1113
  228SOL    HW1  683   2.427   0.679   2.753  0.9389 -0.6949 -2.2145
  228SOL    HW2  684   2.493   0.537   2.838  1.4761  2.4912 -2.2125
  229SOL     OW  685   0.555   0.465   1.787 -0.7208  0.0228  0.3275
  229SOL    HW1  686   0.581   0.374   1.824 -0.1420  1.8090 -1.8568
  229SOL    HW2  687   0.608   0.498   1.705  1.8458  2.7835 -0.1428
  230SOL     OW  688   1.871   1.212   2.041  0.0309  0.1634  0.6013
  230SOL    HW1  689   1.958   1.267   2.019  0.9290 -1.5185  0.1999
  230SOL    HW2  690   1.801   1.261   2.099  0.4711 -0.4625 -0.2878
  231SOL     OW  691   0.675   1.062   3.091 -0.1360  0.2449 -0.0594
  231SOL    HW1  692   0.750   1.128   3.100  0.8365 -2.4560 -0.1527
  231SOL    HW2  693   0.573   1.101   3.082 -1.2740  0.9827 -0.2531
  232SOL     OW  694   2.455   3.001   2.820 -0.2567  0.2988 -0.0229
  232SOL    HW1  695   2.509   2.915   2.842  1.8740  3.4757 -1.7990
  232SOL    HW2  696   2.492   3.047   2.733 -0.1562  0.0627  2.2975
  233SOL     OW  697   1.759   1.255   1.222 -0.1707  0.1590 -0.4723
  233SOL    HW1  698   1.806   1.260   1.130  1.0933 -1.9819 -0.8713
  233SOL    HW2  699   1.778   1.169   1.273  0.1857 -0.1633  1.9235
  234SOL     OW  700   1.617   2.537   1.841  0.5701  0.3558 -0.2141
  234SOL    HW1  701   1.596   2.598   1.923 -0.0871  2.5487  0.9768
  234SOL    HW2  702   1.554   2.462   1.819  0.2056  4.1289 -1.8569
  235SOL     OW  703   0.025   2.970   2.874 -0.2565 -0.5135  0.0994
  235SOL    HW1  704  -0.039   2.976   2.797  2.1007  0.0614  0.4184
  235SOL    HW2  705  -0.013   3.021   2.961 -1.4099 -1.3954 -1.5333
  236SOL     OW  706   2.903   0.677   0.114  0.7229 -0.7573 -0.0066
  236SOL    HW1  707   2.969   0.721   0.178 -1.2406  0.3478  0.3573
  236SOL    HW2  708   2.943   0.597   0.056  0.6890  0.4852 -2.4591
  237SOL     OW  709   1.467   1.646   0.955 -0.1024  0.2737 -0.0968
  237SOL    HW1  710   1.563   1.607   0.942 -2.3049  0.8550  2.1257
  237SOL    HW2  711   1.463   1.720   1.027 -1.8033  1.9071  0.4366
  238SOL     OW  712   1.885   1.232   0.756 -0.5886 -0.1156 -0.3222
  238SOL    HW1  713   1.930   1.246   0.855  3.2903 -0.8462  0.6129
  238SOL    HW2  714   1.790   1.269   0.755  0.7295 -0.6169 -0.7270
  239SOL     OW  715   2.050   0.292   2.766 -0.7361 -0.2630 -0.0351
  239SOL    HW1  716   2.093   0.256   2.851 -0.2055 -0.5233  2.0451
  239SOL    HW2  717   1.989   0.375   2.785  1.4886  0.3530 -2.9616
  240SOL     OW  718   0.926   0.688   0.219  0.0825  0.2182  0.3209
  240SOL    HW1  719   0.979   0.597   0.210  0.2928  0.6290 -0.6743
  240SOL    HW2  720   0.911   0.719   0.321 -1.4198  3.3308 -2.1756
  241SOL     OW  721   0.586   0.079   0.396 -0.1917 -0.1986 -0.2332
  241SOL    HW1  722   0.634   0.147   0.335  3.0108  0.2333 -1.5960
  241SOL    HW2  723   0.582  -0.014   0.354 -0.5960  1.4392  0.3273
  242SOL     OW  724   0.619   2.566   1.180 -0.2630 -0.4063  0.3264
  242SOL    HW1  725   0.644   2.545   1.279  1.1842  0.2728  0.6646
  242SOL    HW2  726   0.624   2.667   1.162  1.9185  0.5968  2.6180
  243SOL     OW  727   1.040   0.541   2.411 -0.6711  0.1375 -0.3155
  243SOL    HW1  728   0.966   0.600   2.364  2.8016  1.6329  1.3684
  243SOL    HW2  729   1.006   0.491   2.494  2.6010  0.3586 -1.4565
  244SOL     OW  730   2.767   1.885   2.365 -0.0202  0.4489  0.4432
  244SOL    HW1  731   2.788   1.839   2.278 -0.5428 -0.4697 -0.2286
  244SOL    HW2  732   2.671   1.861   2.399 -0.3326  1.6813  0.5895
  245SOL     OW  733   2.172   0.922   2.179 -0.0907  0.4877 -0.1122
  245SOL    HW1  734   2.264   0.896   2.224 -1.9827 -0.7625  1.7264
  245SOL    HW2  735   2.125   1.009   2.209  1.8276 -1.3493 -0.4434
  246SOL     OW  736   0.227   2.883   1.729 -0.1633 -0.5445  0.8215
  246SOL    HW1  737   0.138   2.891   1.680  0.2618 -3.3864 -0.7877
  246SOL    HW2  738   0.307   2.946   1.696  0.1621  1.9691  0.6399
  247SOL     OW  739   2.238   0.636   3.019 -0.1570 -0.0046  0.7901
  247SOL    HW1  740   2.297   0.614   2.935 -0.2178 -1.2304 -2.0035
  247SOL    HW2  741   2.175   0.716   3.012 -1.1384 -2.1034  1.0631
  248SOL     OW  742   2.198   1.834   1.575 -0.4063  0.4015  0.3843
  248SOL    HW1  743   2.283   1.791   1.628  0.6132 -0.6568  0.8513
  248SOL    HW2  744   2.112   1.783   1.575  1.5622  1.7565 -1.3222
  249SOL     OW  745   1.945   1.881   1.855  0.3595 -0.4697 -1.2536
  249SOL    HW1  746   1.961   1.803   1.786 -1.3783 -1.5299  0.9884
  249SOL    HW2  747   2.031   1.937   1.878  1.3167 -1.6900  0.9598
  250SOL     OW  748   1.102   0.718   1.883  0.3054  0.5608  0.0808
  250SOL    HW1  749   1.129   0.651   1.960  1.6529  1.9186  0.1547
  250SOL    HW2  750   1.068   0.667   1.803 -1.2474 -1.1677  1.5094
  251SOL     OW  751   3.008   1.625   2.552  0.1877 -0.3522  0.3074
  251SOL    HW1  752   2.977   1.722   2.570 -2.8783 -0.8782  2.4727
  251SOL    HW2  753   2.926   1.566   2.521  0.2221  0.6426  0.3451
  252SOL     OW  754   1.597   0.751   1.712  0.0369  0.0471  0.0148
  252SOL    HW1  755   1.697   0.742   1.695  0.5632  1.9024 -1.0205
  252SOL    HW2  756   1.569   0.840   1.761  1.8122  2.0145 -1.0683
  253SOL     OW  757   0.987   1.585   0.460 -0.2464 -0.7320  0.4081
  253SOL    HW1  758   1.001   1.489   0.415  1.7576 -0.4231 -0.2342
  253SOL    HW2  759   0.913   1.592   0.527  0.2477 -0.7269 -0.3192
  254SOL     OW  760   2.031   2.204   1.664  0.2370  0.4089 -0.0754
  254SOL    HW1  761   1.995   2.121   1.615 -0.2478 -0.5573  1.1228
  254SOL    HW2  762   1.957   2.261   1.714 -0.8315  0.5522  1.0486
  255SOL     OW  763   0.148   1.189   2.904 -0.0958 -0.1780  0.0247
  255SOL    HW1  764   0.195   1.284   2.909 -2.1032  1.2057  1.1082
  255SOL    HW2  765   0.180   1.123   2.971  2.1594  1.5435  0.3587
  256SOL     OW  766   2.841   1.386   1.866 -0.1692 -0.5443  0.2636
  256SOL    HW1  767   2.801   1.469   1.823 -1.3672  0.5874 -1.3235
  256SOL    HW2  768   2.805   1.303   1.818  2.6692  0.8010 -0.1803
  257SOL     OW  769   0.793   0.137   1.746  0.1997 -0.5053  0.4110
  257SOL    HW1  770   0.857   0.222   1.738 -0.2837  1.8519  2.1729
  257SOL    HW2  771   0.842   0.051   1.766  2.3869 -3.1971 -0.6606
  258SOL     OW  772   2.977   1.222   0.495 -0.2198  0.0293 -0.3479
  258SOL    HW1  773   2.888   1.265   0.528  0.6824 -1.6481  0.8447
  258SOL    HW2  774   3.035   1.216   0.579  0.9243 -1.3744 -3.0451
  259SOL     OW  775   0.390   2.897   3.040 -0.2490  0.4598 -0.3491
  259SOL    HW1  776   0.348   2.839   3.118  1.0843  1.6226  2.3226
  259SOL    HW2  777   0.413   2.841   2.956 -0.2310  2.3260  2.3122
  260SOL     OW  778   2.723   0.732   2.799  0.6098  0.1910 -0.3068
  260SOL    HW1  779   2.658   0.806   2.779  1.6243  0.1460 -0.4579
  260SOL    HW2  780   2.678   0.661   2.855  0.7549  1.7250  1.8166
  261SOL     OW  781   2.692   1.264   1.286 -0.2576 -0.5538 -0.4186
  261SOL    HW1  782   2.659   1.215   1.197 -1.6351  0.0442  1.2070
  261SOL    HW2  783   2.762   1.203   1.332  0.4698  0.7663 -0.1587
  262SOL     OW  784   1.368   2.976   1.935 -0.2532 -0.0954  0.4550
  262SOL    HW1  785   1.417   3.068   1.926  1.6811 -0.9539 -0.2039
  262SOL    HW2  786   1.266   2.987   1.920  2.2741  0.1533 -1.5772
  263SOL     OW  787   0.843   0.689   2.286 -0.2440 -0.0575 -0.5564
  263SOL    HW1  788   0.766   0.618   2.278 -0.6991 -2.7899  3.0752
  263SOL    HW2  789   0.884   0.722   2.199 -0.3716 -0.9638  1.2048
  264SOL     OW  790   2.257   0.801   0.430  0.5218 -0.6023  0.7273
  264SOL    HW1  791   2.234   0.739   0.349 -2.2662 -1.2561  3.5751
  264SOL    HW2  792   2.357   0.837   0.440 -0.2653  2.0149 -0.4226
  265SOL     OW  793   0.947   2.430   2.615  0.1796 -0.2745  0.0824
  265SOL    HW1  794   1.017   2.489   2.671  0.8114 -2.3661 -1.7787
  265SOL    HW2  795   0.916   2.342   2.665 -1.5797 -2.5387  1.3532
  266SOL     OW  796   1.333   1.773   3.054 -0.1188 -0.1598  0.0894
  266SOL    HW1  797   1.357   1.794   3.153  2.6680 -1.3443 -0.1265
  266SOL    HW2  798   1.418   1.748   2.998  0.4132 -0.5436  2.1380
  267SOL     OW  799   1.077   0.070   2.297  0.6366 -0.1058 -0.7168
  267SOL    HW1  800   1.011   0.001   2.260  0.4514  0.2223  2.7242
  267SOL    HW2  801   1.086   0.158   2.243  1.7543 -3.0364  0.4938
  268SOL     OW  802   0.770   1.266   1.042  1.0170  0.1627 -0.6484
  268SOL    HW1  803   0.711   1.296   1.118  0.1730 -0.5149 -0.0637
  268SOL    HW2  804   0.806   1.341   0.980 -1.5457 -0.9660  2.2973
  269SOL     OW  805   2.359   2.504   1.584  0.3499  0.2459  0.6754
  269SOL    HW1  806   2.408   2.416   1.597  0.9019 -0.1090 -4.3190
  269SOL    HW2  807   2.314   2.531   1.672 -2.3587 -0.2506 -1.6249
  270SOL     OW  808   0.131   2.959   1.968 -0.0621 -0.4181  0.0101
  270SOL    HW1  809   0.159   2.931   1.873  1.4519 -0.6890  0.9284
  270SOL    HW2  810   0.119   2.881   2.036  1.3204 -1.2738  0.6938
  271SOL     OW  811   0.443   1.404   1.150  0.9612  0.3772 -0.4323
  271SOL    HW1  812   0.415   1.390   1.053 -0.3275 -1.7138 -1.2371
  271SOL    HW2  813   0.372   1.362   1.216  1.5460  0.3125  2.2683
  272SOL     OW  814   1.991   2.988   1.953 -0.3352  0.8223  0.8853
  272SOL    HW1  815   1.912   2.950   1.903 -2.3657  0.6015  0.1700
  272SOL    HW2  816   2.071   3.003   1.885  0.1900 -2.4025 -2.5747
  273SOL     OW  817   1.484   1.478   2.738  0.0793  0.7533 -0.5644
  273SOL    HW1  818   1.396   1.446   2.690  0.0434 -0.4958  0.9073
  273SOL    HW2  819   1.493   1.425   2.828  1.3378  0.0542  0.5891
  274SOL     OW  820   1.170   0.512   2.063  0.1477 -0.4845  0.2559
  274SOL    HW1  821   1.121   0.425   2.055 -2.0053  2.5582  1.4328
  274SOL    HW2  822   1.189   0.537   2.161 -2.0416 -0.4806 -1.2153
  275SOL     OW  823   0.648   2.136   1.905 -0.1778  0.2918  0.1199
  275SOL    HW1  824   0.626   2.215   1.965 -0.7764 -1.4835 -2.1265
  275SOL    HW2  825   0.560   2.096   1.868 -0.4777 -0.0219  2.8449
  276SOL     OW  826   2.185   1.092   2.794 -0.5476 -0.8510  0.4860
  276SOL    HW1  827   2.117   1.116   2.720 -0.3759  0.6020 -0.5722
  276SOL    HW2  828   2.159   1.009   2.850  1.5711 -1.0209 -1.6903
  277SOL     OW  829   0.021   0.812   0.268 -0.6060  0.2347  0.3330
  277SOL    HW1  830   0.117   0.854   0.267  0.3525 -1.1994 -0.6133
  277SOL    HW2  831   0.018   0.723   0.320 -1.2730  0.1948  0.0018
  278SOL     OW  832   0.218   0.238   2.943  0.3538 -0.2310  0.4457
  278SOL    HW1  833   0.295   0.171   2.965 -1.4914 -0.2946 -0.1411
  278SOL    HW2  834   0.251   0.336   2.962  3.0325  2.1808 -0.7972
  279SOL     OW  835   0.270   0.042   0.931  0.3689  0.4833  0.4316
  279SOL    HW1  836   0.270  -0.058   0.926 -0.0390  2.8910 -0.6922
  279SOL    HW2  837   0.341   0.085   0.865  1.6047  0.2837 -0.0154
  280SOL     OW  838   1.601   2.975   2.396  0.0790  0.2645  0.3737
  280SOL    HW1  839   1.660   3.035   2.457 -0.8201 -2.0880 -2.3056
  280SOL    HW2  840   1.555   3.040   2.328  1.5285  2.2547  0.6609
  281SOL     OW  841   0.565   0.970   2.286  0.2031 -0.2468 -0.0756
  281SOL    HW1  842   0.601   0.881   2.249 -2.0152  0.0961 -1.1279
  281SOL    HW2  843   0.523   0.955   2.380 -2.3967 -1.6921  0.2398
  282SOL     OW  844   1.775   2.484   0.517  0.3402  0.2328  0.2114
  282SOL    HW1  845   1.715   2.405   0.485 -1.0836  0.3051  1.9847
  282SOL    HW2  846   1.762   2.572   0.462 -0.0185 -1.0377 -0.5285
  283SOL     OW  847   1.167   0.942   0.765 -0.7528  0.1365  0.1252
  283SOL    HW1  848   1.196   0.899   0.853 -1.9310 -1.9265 -1.6379
  283SOL    HW2  849   1.123   1.035   0.772  0.4918  0.6236 -1.0443
  284SOL     OW  850   2.235   2.816   2.498  0.1211  0.2767  0.0402
  284SOL    HW1  851   2.322   2.850   2.468  0.2295  0.1754  1.6493
  284SOL    HW2  852   2.224   2.846   2.598 -0.5931  1.8884  0.5991
  285SOL     OW  853   1.399  -0.000   2.565 -0.3116  0.5423 -0.2077
  285SOL    HW1  854   1.443   0.022   2.477  0.4035  1.8968 -0.1608
  285SOL    HW2  855   1.298   0.031   2.560 -1.3237  0.9199 -0.5537
  286SOL     OW  856   0.430   0.435   0.771  0.2242 -0.1697  0.6681
  286SOL    HW1  857   0.390   0.384   0.853  1.8288  0.6438  1.7947
  286SOL    HW2  858   0.471   0.375   0.697 -0.5130  5.7167 -0.8121
  287SOL     OW  859   0.072   1.295   2.583 -0.1820  0.1898  1.1575
  287SOL    HW1  860   0.014   1.234   2.640  2.5171  0.6259  0.7866
  287SOL    HW2  861   0.071   1.393   2.621  2.2087 -2.0660 -0.0693
  288SOL     OW  862   1.591   2.735   1.630 -0.4834 -0.0086 -0.2296
  288SOL    HW1  863   1.604   2.656   1.692  1.2307  1.4387  0.6448
  288SOL    HW2  864   1.585   2.699   1.529 -0.0190 -1.3455 -3.5072
  289SOL     OW  865   0.583   2.727   0.864  0.0269 -0.3781  0.2486
  289SOL    HW1  866   0.667   2.770   0.825  1.4348 -2.6669 -1.9775
  289SOL    HW2  867   0.567   2.763   0.963  0.6965 -2.3638  0.1338
  290SOL     OW  868   2.813   1.128   1.737 -0.2313  0.0001 -0.2080
  290SOL    HW1  869   2.731   1.067   1.765 -1.2033  2.4962  0.8203
  290SOL    HW2  870   2.893   1.132   1.799 -3.6556  0.3681  0.5206
  291SOL     OW  871   1.968   3.084   0.039 -0.2864 -0.0057 -0.2142
  291SOL    HW1  872   1.995   3.099   0.137 -0.8538 -0.4204  2.8696
  291SOL    HW2  873   2.021   3.128  -0.036 -2.3939 -0.2202 -0.8308
  292SOL     OW  874   3.027   1.234   3.103 -0.3325 -0.2069 -0.1261
  292SOL    HW1  875   2.974   1.308   3.055  1.7408  1.6136 -0.9109
  292SOL    HW2  876   3.116   1.218   3.054  4.5630 -1.2226  0.9754
  293SOL     OW  877   0.583   2.138   0.277  0.9366 -0.8112 -0.1449
  293SOL    HW1  878   0.549   2.220   0.334 -1.5877 -0.3450  1.0170
  293SOL    HW2  879   0.670   2.092   0.311  0.6751  2.4342 -0.2506
  294SOL     OW  880   1.821   2.332   1.792  0.5170  0.0618  0.8137
  294SOL    HW1  881   1.877   2.334   1.878 -2.4985 -0.9974 -2.5070
  294SOL    HW2  882   1.747   2.405   1.798  1.7698  0.1569 -1.1650
  295SOL     OW  883   0.984   1.050   0.446 -0.2021  0.4581 -0.1001
  295SOL    HW1  884   1.091   1.048   0.460  2.8007  5.0616  0.6797
  295SOL    HW2  885   0.929   1.012   0.524  1.5231 -0.9888 -1.2230
  296SOL     OW  886   1.195   2.131   2.740  0.1612  0.2402  1.0348
  296SOL    HW1  887   1.108   2.183   2.728 -1.3716 -2.0121 -3.1238
  296SOL    HW2  888   1.213   2.070   2.657 -1.0492 -2.2859  0.2039
  297SOL     OW  889   1.352   0.574   1.288  0.2522 -0.2453  0.3240
  297SOL    HW1  890   1.396   0.493   1.331 -0.4811  0.7948  1.0625
  297SOL    HW2  891   1.422   0.632   1.241  0.2112  1.5425 -2.5114
  298SOL     OW  892   0.523   1.380   2.991  0.2670 -0.4942 -0.0499
  298SOL    HW1  893   0.494   1.306   3.057  0.9014  0.9684  0.7146
  298SOL    HW2  894   0.571   1.345   2.905 -1.6596  1.6584  0.1621
  299SOL     OW  895   0.423   0.275   1.311 -0.2724 -0.3634  0.3309
  299SOL    HW1  896   0.372   0.360   1.285 -0.2776 -0.2969  1.2247
  299SOL    HW2  897   0.381   0.222   1.386 -1.0235  1.6976 -2.2353
  300SOL     OW  898   1.267   1.731   2.577 -0.0194 -0.2560  0.2700
  300SOL    HW1  899   1.253   1.632   2.546 -1.3011  2.1898 -0.1645
  300SOL    HW2  900   1.369   1.752   2.590  0.8142 -0.8944 -3.8050
  301SOL     OW  901   0.437   0.270   0.511 -0.5729  0.2322 -0.0547
  301SOL    HW1  902   0.332   0.272   0.515 -2.3291  1.4615  2.7789
  301SOL    HW2  903   0.475   0.177   0.477  0.9148 -4.7697  0.9862
  302SOL     OW  904   1.245   2.461   2.289  1.2036  0.2457 -0.5318
  302SOL    HW1  905   1.145   2.485   2.312  0.0488 -0.1462 -0.3568
  302SOL    HW2  906   1.286   2.402   2.364 -2.9568 -1.9252 -2.8125
  303SOL     OW  907   0.939   2.425   0.808 -0.0445 -0.8013 -0.6544
  303SOL    HW1  908   1.013   2.431   0.735 -0.3509  1.8872  3.4817
  303SOL    HW2  909   0.964   2.477   0.895  1.7099 -0.4721 -1.5361
  304SOL     OW  910   0.071   1.914   0.681  0.2697  0.1121  0.1269
  304SOL    HW1  911   0.129   1.864   0.608  0.4704 -4.9660 -2.6737
  304SOL    HW2  912   0.016   1.991   0.639  1.3551 -0.2631  1.3706
  305SOL     OW  913   1.593   0.870   0.695 -0.5055 -0.2883  0.0893
  305SOL    HW1  914   1.555   0.860   0.601  4.8861 -2.2518 -2.6833
  305SOL    HW2  915   1.657   0.786   0.706  0.2679  1.2625 -4.1147
  306SOL     OW  916   0.426   1.941   1.895 -0.2662 -0.2968  0.4553
  306SOL    HW1  917   0.511   1.883   1.864  1.2989 -0.7714 -0.8067
  306SOL    HW2  918   0.427   1.969   1.998  0.1633 -1.6377  2.1952
  307SOL     OW  919   3.039   0.884   2.484  0.5896  0.3413 -0.3016
  307SOL    HW1  920   3.068   0.951   2.558  0.0849 -0.1537 -0.0319
  307SOL    HW2  921   2.972   0.814   2.518  2.6390 -0.1297 -1.1988
  308SOL     OW  922   1.570   2.684   2.832 -0.5296  0.4574 -0.1949
  308SOL    HW1  923   1.540   2.661   2.737  0.2590 -1.7235 -1.8722
  308SOL    HW2  924   1.512   2.634   2.903 -1.0473 -0.0996 -2.3023
  309SOL     OW  925   1.243   0.159   1.793 -0.0425  0.1604  0.1083
  309SOL    HW1  926   1.328   0.107   1.817 -1.7524 -0.2242 -1.1000
  309SOL    HW2  927   1.226   0.159   1.690  0.2936  1.3935  1.5101
  310SOL     OW  928   1.505   2.586   0.673 -0.5894  0.3557  0.1048
  310SOL    HW1  929   1.471   2.598   0.775 -0.8720 -0.5148 -1.3029
  310SOL    HW2  930   1.584   2.651   0.650  3.2183  1.7735  2.9266
  311SOL     OW  931   1.155   0.991   1.743  0.3874  0.1448  0.4424
  311SOL    HW1  932   1.117   0.911   1.800 -2.0199 -0.0784 -0.1309
  311SOL    HW2  933   1.189   0.956   1.648 -1.0906 -0.4239  0.8994
  312SOL     OW  934   1.543   0.665   1.114 -0.1601 -0.2743 -0.2483
  312SOL    HW1  935   1.564   0.766   1.119  0.4026  1.9141  0.1216
  312SOL    HW2  936   1.535   0.628   1.015  2.2249  1.5172 -2.9960
  313SOL     OW  937   1.628   1.337   0.730  0.4516 -0.3847  0.4545
  313SOL    HW1  938   1.544   1.343   0.786  4.0874 -1.0408 -0.3720
  313SOL    HW2  939   1.626   1.268   0.649  1.2290  0.2762  0.2331
  314SOL     OW  940   2.983   3.089   3.087 -0.2589  0.1616 -0.4338
  314SOL    HW1  941   2.987   3.108   3.193  2.3422  1.3015  2.1130
  314SOL    HW2  942   2.882   3.060   3.064 -0.7043 -0.3204  1.6878
  315SOL     OW  943   1.174   0.244   2.755 -0.4641 -0.0294 -0.2703
  315SOL    HW1  944   1.153   0.162   2.698 -3.6074  0.8930  0.8391
  315SOL    HW2  945   1.195   0.221   2.855  2.3516 -1.0866  1.0733
  316SOL     OW  946   1.729   2.091   0.892 -0.6312 -0.0287  0.5806
  316SOL    HW1  947   1.701   2.088   0.989 -2.0005 -0.9144 -2.1792
  316SOL    HW2  948   1.749   2.190   0.856  2.6177  0.8043 -0.6863
  317SOL     OW  949   1.154   0.634   2.761 -1.0477 -0.1802  0.2101
  317SOL    HW1  950   1.111   0.685   2.842 -0.6517  2.4438  1.4604
  317SOL    HW2  951   1.088   0.570   2.708  1.2906  0.3388  0.7858
  318SOL     OW  952   1.431   0.002   2.238 -0.1202 -0.2079  0.1150
  318SOL    HW1  953   1.440   0.107   2.223 -0.6625  0.4206  3.5556
  318SOL    HW2  954   1.341  -0.042   2.206  0.0802  0.4369  0.1086
  319SOL     OW  955   0.665   2.345   2.918  0.2387  0.1046  0.1579
  319SOL    HW1  956   0.637   2.297   3.006 -0.4769  1.2816  1.2825
  319SOL    HW2  957   0.742   2.295   2.876  0.9439  0.6376  0.4341
  320SOL     OW  958   1.659   2.250   0.407 -0.0026  0.0794  0.0161
  320SOL    HW1  959   1.738   2.179   0.384  4.5656 -3.0713 -2.8872
  320SOL    HW2  960   1.562   2.207   0.429 -0.9081 -1.1590  0.9419
  321SOL     OW  961   1.678   2.765   0.568  0.0638  0.1963 -0.6564
  321SOL    HW1  962   1.611   2.819   0.518  1.4460 -1.4228  0.7103
  321SOL    HW2  963   1.776   2.796   0.553  0.6478  2.1628 -2.6829
  322SOL     OW  964   2.603   1.128   2.308  0.1157  0.1444 -0.3129
  322SOL    HW1  965   2.696   1.129   2.350 -0.2712  0.7186  2.7517
  322SOL    HW2  966   2.540   1.044   2.326  0.1659 -0.8417 -0.9250
  323SOL     OW  967   1.163   2.666   0.801  0.0678  0.9166  0.1066
  323SOL    HW1  968   1.138   2.635   0.711 -0.1217  0.2879  3.3540
  323SOL    HW2  969   1.112   2.754   0.824 -1.2160 -1.4765 -3.0416
  324SOL     OW  970   0.210   2.547   2.442 -0.4038 -0.1684 -0.3907
  324SOL    HW1  971   0.136   2.496   2.500 -0.3143 -1.9656 -0.8853
  324SOL    HW2  972   0.249   2.626   2.495 -2.0475  0.7258  2.4594
  325SOL     OW  973   1.211   3.016   0.457 -0.0790  0.4197  0.2085
  325SOL    HW1  974   1.252   3.047   0.367 -1.1217  0.4241 -2.2054
  325SOL    HW2  975   1.218   3.086   0.531 -2.5293  0.4939  0.3028
  326SOL     OW  976   2.467   0.779   3.096  0.0197 -0.3437 -0.6489
  326SOL    HW1  977   2.399   0.714   3.063  0.6164 -0.1883  1.6360
  326SOL    HW2  978   2.545   0.723   3.140 -0.5907 -1.2668 -1.0613
  327SOL     OW  979   2.795   0.294   0.533  0.3881 -0.2750 -0.4416
  327SOL    HW1  980   2.770   0.268   0.436 -1.6559 -2.0261 -2.9844
  327SOL    HW2  981   2.806   0.211   0.596 -0.8465 -3.4258 -1.7139
  328SOL     OW  982   2.608   0.641   0.412 -0.6134  0.1665  0.1646
  328SOL    HW1  983   2.653   0.695   0.488 -3.4002 -0.6804  2.6821
  328SOL    HW2  984   2.543   0.570   0.451  0.7185 -1.2454 -2.9970
  329SOL     OW  985   2.925   2.984   2.094  0.3339  1.2288 -0.1030
  329SOL    HW1  986   2.991   2.935   2.159 -0.4499  0.0910 -0.8419
  329SOL    HW2  987   2.939   3.089   2.101  0.1934  1.4271  0.1421
  330SOL     OW  988   0.596   0.208   1.927 -0.2161  0.5425 -0.2672
  330SOL    HW1  989   0.656   0.168   1.854  2.5564  2.6565 -1.1247
  330SOL    HW2  990   0.592   0.146   2.011 -0.4066  0.6768  2.7857
  331SOL     OW  991   3.022   1.902   1.116  0.3172 -0.4769  0.2449
  331SOL    HW1  992   2.992   1.891   1.014  1.6336  2.2160 -1.2060
  331SOL    HW2  993   2.954   1.850   1.178 -0.6213 -0.3524  0.7440
  332SOL     OW  994   0.414   1.175   0.067  0.2429 -0.1961 -0.1969
  332SOL    HW1  995   0.355   1.098   0.039  0.1702  2.7224  2.2977
  332SOL    HW2  996   0.393   1.214   0.161  1.9121 -2.4516 -1.5327
  333SOL     OW  997   2.915   0.982   0.381 -0.7178 -0.4940  0.8817
  333SOL    HW1  998   2.947   1.054   0.443 -3.0423 -1.7725 -0.0542
  333SOL    HW2  999   2.982   0.937   0.320  0.6335 -0.5123 -2.6909
  334SOL     OW 1000   1.689   1.255   1.815 -0.4016 -0.7979 -0.5398
  334SOL    HW1 1001   1.745   1.259   1.726 -0.9767 -2.0249  1.1767
  334SOL    HW2 1002   1.738   1.202   1.891  0.9176 -0.6243 -2.4019
  335SOL     OW 1003   1.961   2.739   2.614 -0.7489  0.1356  0.5234
  335SOL    HW1 1004   1.899   2.736   2.698  2.3791 -1.1355  4.7122
  335SOL    HW2 1005   2.053   2.782   2.635  2.1376  0.6210 -1.3090
  336SOL     OW 1006   0.247   0.011   2.709  0.8329 -0.3195  0.3972
  336SOL    HW1 1007   0.324   0.044   2.769 -0.8537 -0.1622  0.5791
  336SOL    HW2 1008   0.174  -0.038   2.768 -1.0988  0.4936  2.4647
  337SOL     OW 1009   0.922   2.915   2.967 -0.2663 -0.4016  0.2249
  337SOL    HW1 1010   0.910   2.822   2.996  0.6242 -1.1951 -0.6466
  337SOL    HW2 1011   1.011   2.957   2.997 -2.3063 -0.2619  0.5103
  338SOL     OW 1012   0.030   0.958   0.664 -0.6289 -0.3634 -0.2960
  338SOL    HW1 1013  -0.064   0.961   0.706  2.3372 -0.0905  1.1933
  338SOL    HW2 1014   0.065   1.055   0.647  0.4148  0.5669  0.5424
  339SOL     OW 1015   1.672   1.351   2.164 -0.9883 -0.0880 -0.2969
  339SOL    HW1 1016   1.572   1.380   2.189 -4.7300 -1.2053  0.6914
  339SOL    HW2 1017   1.729   1.439   2.159  2.6358  1.0029  2.2554
  340SOL     OW 1018   2.228   0.789   1.175  0.1155  0.4036 -0.0269
  340SOL    HW1 1019   2.132   0.822   1.158  0.2051  0.4723 -2.0729
  340SOL    HW2 1020   2.243   0.689   1.145 -0.8724 -0.4424 -0.6055
  341SOL     OW 1021   1.902   2.092   0.347 -0.4323 -0.6133  0.2995
  341SOL    HW1 1022   1.921   2.093   0.247 -0.7873 -0.0594 -0.2881
  341SOL    HW2 1023   1.989   2.070   0.403  0.5790 -0.9118 -0.2831
  342SOL     OW 1024   2.163   2.109   2.748 -0.2444 -0.7695 -0.3171
  342SOL    HW1 1025   2.196   2.017   2.781  1.8104  0.6164  0.1715
  342SOL    HW2 1026   2.068   2.105   2.705 -2.6125 -3.5741  0.6912
  343SOL     OW 1027   0.420   0.778   2.758 -0.2110  0.0116 -0.2953
  343SOL    HW1 1028   0.460   0.816   2.669  0.1082 -0.1598 -0.6107
  343SOL    HW2 1029   0.479   0.795   2.838 -0.3531 -0.6058 -3.2613
  344SOL     OW 1030   1.900   1.497   0.398  0.1796 -0.0596  0.5063
  344SOL    HW1 1031   1.909   1.433   0.315  2.0846 -0.7558  0.4737
  344SOL    HW2 1032   1.804   1.505   0.437  0.2947 -0.5373  0.8940
  345SOL     OW 1033   1.397   2.241   2.869 -0.2272 -0.2757 -0.2430
  345SOL    HW1 1034   1.311   2.199   2.829 -0.1562  0.6906  1.8327
  345SOL    HW2 1035   1.477   2.201   2.824 -0.9551  1.0909 -0.3780
  346SOL     OW 1036   2.349   0.900   1.401  0.2304  0.0366 -0.0398
  346SOL    HW1 1037   2.311   0.986   1.445 -0.2714 -2.7664  0.1497
  346SOL    HW2 1038   2.302   0.871   1.314  1.6475 -0.0013  1.9973
  347SOL     OW 1039   0.708   2.720   1.625 -0.3674  0.3446  0.6285
  347SOL    HW1 1040   0.638   2.741   1.696 -0.9314 -0.4939  1.2802
  347SOL    HW2 1041   0.678   2.742   1.527 -0.2968 -0.1601  1.8447
  348SOL     OW 1042   0.169   0.793   2.875 -0.1531  0.0761 -0.2460
  348SOL    HW1 1043   0.084   0.756   2.836  1.9871  1.8574  0.1903
  348SOL    HW2 1044   0.246   0.789   2.807  0.7865  0.4118  1.4144
  349SOL     OW 1045   1.841   0.456   2.799  0.5810 -0.2469  0.3723
  349SOL    HW1 1046   1.830   0.544   2.742  0.2408  1.6536  0.0732
  349SOL    HW2 1047   1.828   0.478   2.901  0.5874 -1.8868 -0.4655
  350SOL     OW 1048   1.698   0.359   0.359  0.3730 -0.2124  0.0393
  350SOL    HW1 1049   1.757   0.376   0.444  2.8249  2.2745  0.2456
  350SOL    HW2 1050   1.637   0.444   0.337 -0.5295  1.3830 -0.3343
  351SOL     OW 1051   0.936   0.838   2.061  0.1111  0.0192 -0.4971
  351SOL    HW1 1052   0.982   0.929   2.073 -2.5857 -2.0032  1.5010
  351SOL    HW2 1053   0.987   0.779   1.987  0.6977 -0.2443 -0.4659
  352SOL     OW 1054   2.078   1.356   0.576 -0.3282 -0.2878  0.0017
  352SOL    HW1 1055   2.017   1.414   0.514 -0.4129 -0.1306  2.6863
  352SOL    HW2 1056   2.026   1.353   0.668 -1.5861 -2.0524  0.3765
  353SOL     OW 1057   2.194   2.811   1.072  0.0496  0.4956  0.1482
  353SOL    HW1 1058   2.230   2.727   1.127 -2.0656 -2.7348  1.8220
  353SOL    HW2 1059   2.107   2.850   1.121 -3.1174  0.8165 -1.3323
  354SOL     OW 1060   0.289   1.440   2.865 -0.2355 -0.1958 -0.1620
  354SOL    HW1 1061   0.283   1.510   2.790 -1.3001  0.9374  1.0697
  354SOL    HW2 1062   0.375   1.441   2.918 -0.0908 -1.7729  0.2057
  355SOL     OW 1063   0.747   1.599   0.612 -0.1222  0.0511 -0.0342
  355SOL    HW1 1064   0.722   1.554   0.702  3.7756 -0.5298 -0.2657
  355SOL    HW2 1065   0.703   1.538   0.539  1.8552 -1.9776  0.6216
  356SOL     OW 1066   0.866   0.292   2.030  0.6116 -0.5650 -0.2248
  356SOL    HW1 1067   0.957   0.250   1.998 -0.4172  0.6680  0.5858
  356SOL    HW2 1068   0.781   0.258   1.978 -0.9662  0.1780 -0.1460
  357SOL     OW 1069   1.007   1.341   0.367 -0.2603  0.1152 -0.0556
  357SOL    HW1 1070   1.108   1.335   0.362 -0.2275  0.1465 -0.3095
  357SOL    HW2 1071   0.971   1.254   0.405 -1.1003 -1.5586  0.2519
  358SOL     OW 1072   1.624   1.526   0.515  0.3241  0.2907  0.2171
  358SOL    HW1 1073   1.613   1.485   0.609 -0.1461 -1.3062  1.9915
  358SOL    HW2 1074   1.567   1.496   0.437  0.1666  0.7029 -1.0195
  359SOL     OW 1075   1.613   2.581   0.297  0.5574 -0.0121  0.6264
  359SOL    HW1 1076   1.556   2.504   0.258  0.0110 -0.5366 -1.9655
  359SOL    HW2 1077   1.559   2.652   0.351  0.3406  1.3895  0.1835
  360SOL     OW 1078   0.788   0.520   0.577  0.4466 -0.2132  0.2951
  360SOL    HW1 1079   0.704   0.525   0.522  0.8018  0.4395 -1.1662
  360SOL    HW2 1080   0.798   0.421   0.610 -2.3185  1.9482 -0.0169
  361SOL     OW 1081   1.326   1.271   0.630  0.2371  0.1666 -0.3108
  361SOL    HW1 1082   1.390   1.332   0.680 -0.0990  0.4999  0.0025
  361SOL    HW2 1083   1.230   1.289   0.661  2.7898 -0.2553 -1.1183
  362SOL     OW 1084   1.377   1.762   0.712 -0.0752  0.5901  0.0906
  362SOL    HW1 1085   1.389   1.708   0.800  0.3736 -1.4904 -1.5904
  362SOL    HW2 1086   1.466   1.790   0.670 -0.4063 -1.6448 -2.3781
  363SOL     OW 1087   1.241   1.311   2.066  0.6004  0.1618  0.1185
  363SOL    HW1 1088   1.320   1.383   2.071  0.4924 -1.0237 -0.8509
  363SOL    HW2 1089   1.158   1.341   2.124  0.3256  1.6480 -0.6557
  364SOL     OW 1090   0.536   2.360   2.041  0.3964 -0.2872 -0.0409
  364SOL    HW1 1091   0.434   2.375   2.052  1.1683 -0.1271  2.5977
  364SOL    HW2 1092   0.574   2.419   1.963  0.7716  1.3134  0.9188
  365SOL     OW 1093   1.039   1.993   1.333 -0.5959 -0.0859 -0.1251
  365SOL    HW1 1094   0.941   1.993   1.368 -1.2940  2.3433  0.2704
  365SOL    HW2 1095   1.059   2.055   1.254  0.1170 -0.1307  1.1427
  366SOL     OW 1096   2.856   1.948   0.346 -0.3474  0.3371 -0.7044
  366SOL    HW1 1097   2.775   1.918   0.292  2.1407 -0.0327  1.7799
  366SOL    HW2 1098   2.943   1.905   0.309  1.0111  2.3016 -0.0675
  367SOL     OW 1099   0.925   1.188   0.026 -0.9472  0.3118  0.3080
  367SOL    HW1 1100   0.919   1.100   0.082  1.0997  0.9716 -2.6990
  367SOL    HW2 1101   1.003   1.252   0.047  0.7971 -1.2101 -1.0518
  368SOL     OW 1102   1.475   0.545   0.567  0.4765  1.1445 -0.3834
  368SOL    HW1 1103   1.389   0.590   0.539 -1.5505 -2.1009  0.6581
  368SOL    HW2 1104   1.557   0.603   0.584 -0.0704  0.6764 -1.3843
  369SOL     OW 1105   0.396   1.722   0.169  0.5888  0.0366 -0.7394
  369SOL    HW1 1106   0.427   1.785   0.249 -2.2567  0.9326  2.5762
  369SOL    HW2 1107   0.314   1.666   0.197  1.9214 -3.4480 -0.7504
  370SOL     OW 1108   0.397   2.110   1.037 -0.7486  0.6069  0.0096
  370SOL    HW1 1109   0.406   2.214   1.034 -2.4451  0.2840 -0.5435
  370SOL    HW2 1110   0.315   2.069   0.981 -0.0242  0.0276  1.9173
  371SOL     OW 1111   2.875   2.227   2.649  0.3207  0.3041  0.5516
  371SOL    HW1 1112   2.816   2.150   2.676  0.4234  1.6242 -0.5521
  371SOL    HW2 1113   2.901   2.288   2.729 -0.8155 -0.9333  0.5716
  372SOL     OW 1114   1.060   2.102   1.087  0.3320  0.1332  1.1046
  372SOL    HW1 1115   0.967   2.118   1.040  1.0191  1.8770  0.4847
  372SOL    HW2 1116   1.132   2.171   1.056  0.1855  0.6955  3.1612
  373SOL     OW 1117   1.925   1.909   0.992 -0.3611  0.1533  0.0021
  373SOL    HW1 1118   2.018   1.954   1.009  0.0238  0.6564 -1.1200
  373SOL    HW2 1119   1.868   1.991   0.953  1.7235  2.5372 -2.6958
  374SOL     OW 1120   1.858   0.416   0.570  0.1952 -0.1889  0.1620
  374SOL    HW1 1121   1.844   0.378   0.666 -2.0341  0.7228  2.3137
  374SOL    HW2 1122   1.950   0.388   0.523 -2.0110  1.4486 -0.5257
  375SOL     OW 1123   2.390   2.199   1.100  0.3005  0.2183  0.4228
  375SOL    HW1 1124   2.431   2.150   1.018 -0.0581  0.2654  0.3985
  375SOL    HW2 1125   2.461   2.199   1.180  1.2464 -0.4572  1.9170
  376SOL     OW 1126   3.061   0.559   1.401  0.3889  0.6669  0.2687
  376SOL    HW1 1127   3.022   0.600   1.486  0.7573  0.8046 -2.2733
  376SOL    HW2 1128   3.008   0.469   1.380 -1.8516 -0.7740 -2.7892
  377SOL     OW 1129   2.164   2.923   0.303 -0.2199 -0.5552 -0.3899
  377SOL    HW1 1130   2.169   3.022   0.330  1.3201 -0.9543 -1.0500
  377SOL    HW2 1131   2.231   2.865   0.358 -0.2543 -2.4403 -0.2412
  378SOL     OW 1132   1.753   1.842   2.515  0.5264  0.7436 -0.8167
  378SOL    HW1 1133   1.825   1.878   2.454 -0.9182  0.7669 -0.6111
  378SOL    HW2 1134   1.699   1.765   2.472  0.9240  0.1428  3.0664
  379SOL     OW 1135   0.736   0.149   2.820  0.3573  0.1602 -0.3451
  379SOL    HW1 1136   0.805   0.078   2.794  2.0874 -0.1615 -0.1687
  379SOL    HW2 1137   0.737   0.220   2.741 -0.1781  0.5177 -0.2972
  380SOL     OW 1138   1.572   1.145   0.534 -0.3825 -0.2571 -0.1645
  380SOL    HW1 1139   1.472   1.168   0.520  0.0254  0.9867  0.1871
  380SOL    HW2 1140   1.589   1.056   0.589  1.9954 -1.1161  1.1353
  381SOL     OW 1141   1.357   1.221   1.587 -0.0853  0.9547  0.6963
  381SOL    HW1 1142   1.403   1.162   1.514  2.0421 -0.0935  0.6409
  381SOL    HW2 1143   1.421   1.271   1.648 -0.2487 -0.3242  0.1446
  382SOL     OW 1144   1.827   0.896   0.231 -0.0636 -0.2363  0.0782
  382SOL    HW1 1145   1.854   0.854   0.140  0.3569 -0.1277 -0.7139
  382SOL    HW2 1146   1.886   0.864   0.312 -2.0776  0.4982  2.2731
  383SOL     OW 1147   2.593   0.997   1.492  0.0625  0.0386  0.1493
  383SOL    HW1 1148   2.501   0.955   1.457 -3.0606 -1.7401 -0.9862
  383SOL    HW2 1149   2.665   0.990   1.419  0.5937 -1.9520 -0.2328
  384SOL     OW 1150   0.868   2.231   0.155 -0.4303 -0.0587 -0.3303
  384SOL    HW1 1151   0.837   2.329   0.174  0.3197  1.2555  0.3860
  384SOL    HW2 1152   0.846   2.168   0.235 -1.9442 -0.2580 -2.0543
  385SOL     OW 1153   2.959   1.997   1.660 -0.4344  0.5947 -0.0436
  385SOL    HW1 1154   3.027   2.073   1.658 -1.3970 -4.4162  3.7358
  385SOL    HW2 1155   3.008   1.905   1.652 -0.0659  1.8026  0.3005
  386SOL     OW 1156   0.469   1.072   0.468  0.0448 -0.2083 -0.0362
  386SOL    HW1 1157   0.443   0.977   0.490 -2.2686 -1.1157  1.0455
  386SOL    HW2 1158   0.388   1.125   0.432  1.8546 -1.1011  2.2910
  387SOL     OW 1159   0.907   0.382   1.656 -0.0117 -0.5120  0.2351
  387SOL    HW1 1160   0.982   0.447   1.640 -1.0798 -2.1064  2.1408
  387SOL    HW2 1161   0.877   0.340   1.565  0.6232 -1.7344  0.4453
  388SOL     OW 1162   1.191   2.731   1.742 -0.0798 -0.0028 -0.5386
  388SOL    HW1 1163   1.195   2.752   1.642  2.4226 -0.0152  1.7970
  388SOL    HW2 1164   1.245   2.649   1.766 -0.8540  0.5071  0.5322
  389SOL     OW 1165   0.122   2.968   1.290 -0.0266 -0.2227  1.0086
  389SOL    HW1 1166   0.022   2.996   1.279  0.9192  1.0629  0.5524
  389SOL    HW2 1167   0.130   2.861   1.289 -0.4520 -0.9502  1.1725
  390SOL     OW 1168   1.063   0.975   1.308 -0.1168  0.0356  0.6112
  390SOL    HW1 1169   1.150   0.943   1.348 -0.5785 -2.0841 -0.9455
  390SOL    HW2 1170   1.019   1.053   1.365  1.8537  1.3764 -0.3389
  391SOL     OW 1171   2.176   1.111   1.085 -0.2414  0.1230 -0.1408
  391SOL    HW1 1172   2.109   1.037   1.090 -0.3562 -1.4711  1.1775
  391SOL    HW2 1173   2.238   1.102   1.000  1.0421 -0.3117  0.5258
  392SOL     OW 1174   0.895   2.641   3.040  0.6492 -0.1504 -0.1315
  392SOL    HW1 1175   0.989   2.613   2.996  0.6718 -1.1255 -0.5898
  392SOL    HW2 1176   0.869   2.585   3.123 -0.8415 -1.0067  3.5521
  393SOL     OW 1177   0.338   0.531   1.982 -0.3770 -0.2574  0.0150
  393SOL    HW1 1178   0.304   0.435   1.988 -0.8667 -0.6921  0.0868
  393SOL    HW2 1179   0.400   0.554   1.898 -0.7584 -1.5954 -0.4133
  394SOL     OW 1180   2.995   1.938   2.795  0.4393  0.2181  0.1272
  394SOL    HW1 1181   3.062   2.002   2.834 -0.3199 -0.4375 -0.9595
  394SOL    HW2 1182   2.984   1.948   2.690 -0.0722  1.2819  0.5940
  395SOL     OW 1183   1.597   1.979   0.663  0.0371 -0.4937 -0.2128
  395SOL    HW1 1184   1.657   1.910   0.610 -0.8519 -0.5413 -0.3469
  395SOL    HW2 1185   1.645   2.026   0.745 -0.0046 -0.7136  0.3551
  396SOL     OW 1186   2.818   1.827   1.277 -0.0763 -0.4486  0.3700
  396SOL    HW1 1187   2.807   1.727   1.304  0.2492 -1.3631  1.3420
  396SOL    HW2 1188   2.770   1.892   1.343 -1.5502 -3.7286  0.4375
  397SOL     OW 1189   1.027   2.234   0.501 -0.0956  0.3824 -0.0241
  397SOL    HW1 1190   0.937   2.196   0.530  2.5573 -0.2205  0.9496
  397SOL    HW2 1191   1.020   2.333   0.468 -1.5012 -0.5868 -0.1342
  398SOL     OW 1192   2.162   0.002   1.006 -0.2275 -0.0879  0.1678
  398SOL    HW1 1193   2.156  -0.070   1.079 -2.4202 -1.0246 -0.4465
  398SOL    HW2 1194   2.078   0.066   1.008  0.9898  0.0074 -2.0723
  399SOL     OW 1195   3.096   2.438   2.565  0.1974 -0.1046  0.0183
  399SOL    HW1 1196   3.017   2.382   2.542  1.3556  2.0142 -0.4115
  399SOL    HW2 1197   3.133   2.413   2.661 -0.1703  0.8964  0.1352
  400SOL     OW 1198   0.808   1.638   1.370 -0.0227 -0.0713  0.5522
  400SOL    HW1 1199   0.734   1.680   1.427 -2.2852 -1.3257 -0.5694
  400SOL    HW2 1200   0.837   1.703   1.292 -0.2730  2.4232  1.2269
  401SOL     OW 1201   1.861   0.105   1.258 -0.1156 -0.0077 -0.1544
  401SOL    HW1 1202   1.914   0.094   1.351  1.9945  1.0748 -2.2149
  401SOL    HW2 1203   1.756   0.110   1.274 -1.1124  1.2720 -0.2892
  402SOL     OW 1204   1.299   0.131   3.087 -0.2103 -0.3764 -0.3324
  402SOL    HW1 1205   1.388   0.105   3.036  2.7238 -0.0918  0.2739
  402SOL    HW2 1206   1.272   0.227   3.055  1.7649  2.8475 -0.9396
  403SOL     OW 1207   2.270   1.783   0.944 -0.0724  0.4065 -0.6721
  403SOL    HW1 1208   2.367   1.757   0.959  1.5557 -1.3164 -0.7050
  403SOL    HW2 1209   2.237   1.858   1.008 -0.6108  1.6937 -1.4274
  404SOL     OW 1210   0.178   2.478   2.817  0.4229  0.4338  0.7117
  404SOL    HW1 1211   0.262   2.464   2.752  1.3172  0.6388 -0.7522
  404SOL    HW2 1212   0.146   2.578   2.814  1.6855  0.6852 -0.9928
  405SOL     OW 1213   0.117   2.477   0.694 -0.4723  0.5183 -0.4233
  405SOL    HW1 1214   0.111   2.396   0.631 -2.6858 -0.3038  2.7168
  405SOL    HW2 1215   0.191   2.542   0.675 -1.0828 -2.9707  2.9954
  406SOL     OW 1216   0.077   1.527   3.048 -0.3587  0.3610  0.5870
  406SOL    HW1 1217   0.149   1.498   2.976 -0.0229 -1.1949 -1.1394
  406SOL    HW2 1218   0.116   1.558   3.136 -1.9477 -3.8291 -0.8220
  407SOL     OW 1219   1.541   0.946   1.007  0.0851  0.6980 -0.0732
  407SOL    HW1 1220   1.538   0.955   0.902  0.8619  0.7348 -0.1541
  407SOL    HW2 1221   1.460   0.985   1.048  1.9397  1.4215 -2.0631
  408SOL     OW 1222   1.609   2.449   0.967  0.2305  0.1384 -0.0367
  408SOL    HW1 1223   1.664   2.432   0.878 -1.3172  0.4977  0.0167
  408SOL    HW2 1224   1.556   2.539   0.967  0.3775  1.1170  0.3240
  409SOL     OW 1225   0.641   0.828   0.758  0.2610 -0.3419  0.0475
  409SOL    HW1 1226   0.578   0.826   0.675 -0.0573 -2.3288 -0.4869
  409SOL    HW2 1227   0.644   0.736   0.807 -4.0879 -2.6683  0.7365
  410SOL     OW 1228   1.313   2.023   1.391  0.1672  0.3196  0.0174
  410SOL    HW1 1229   1.373   1.950   1.434 -0.2861  4.0179 -1.7017
  410SOL    HW2 1230   1.218   1.983   1.357 -2.1848 -1.6777 -0.3870
  411SOL     OW 1231   2.638   1.891   3.028  0.5253 -0.7158 -0.6270
  411SOL    HW1 1232   2.578   1.943   2.962 -0.1225 -0.4443 -1.4856
  411SOL    HW2 1233   2.708   1.830   2.980  1.0522 -0.5289 -1.7889
  412SOL     OW 1234   1.489   2.480   2.174  0.3423 -0.0167 -0.0529
  412SOL    HW1 1235   1.494   2.577   2.141 -1.8553  0.1101  0.1042
  412SOL    HW2 1236   1.396   2.464   2.221  0.6590  1.8691 -1.0571
  413SOL     OW 1237   3.024   0.228   2.918  0.0917  0.0171  0.5683
  413SOL    HW1 1238   2.966   0.153   2.961 -0.1215 -0.9462 -0.6381
  413SOL    HW2 1239   3.129   0.220   2.932 -0.5773 -2.9565 -0.0485
  414SOL     OW 1240   1.896   1.555   1.198 -0.4138  0.1961 -0.2549
  414SOL    HW1 1241   1.822   1.633   1.196 -3.0688  0.6576  2.2577
  414SOL    HW2 1242   1.868   1.465   1.164  2.3807  0.0988 -1.0865
  415SOL     OW 1243   0.354   2.234   0.737  0.4531  0.5499  0.3845
  415SOL    HW1 1244   0.357   2.335   0.748  0.3220 -2.1900  3.7926
  415SOL    HW2 1245   0.283   2.188   0.792 -1.5342  0.3171 -0.8150
  416SOL     OW 1246   0.370   1.077   1.054 -0.1700 -0.3667 -0.0269
  416SOL    HW1 1247   0.324   1.004   1.001  0.6661 -1.2906  0.1932
  416SOL    HW2 1248   0.455   1.106   1.010 -0.7578 -1.7535 -1.6039
  417SOL     OW 1249   2.236   2.308   2.006  0.1029  0.1729 -0.7105
  417SOL    HW1 1250   2.303   2.270   2.078  1.1661  1.4063  1.8301
  417SOL    HW2 1251   2.170   2.232   1.971  0.9200 -0.1752 -2.2056
  418SOL     OW 1252   1.077   0.583   1.340 -0.3402  0.4492 -0.2426
  418SOL    HW1 1253   1.015   0.558   1.264 -1.3712  1.5411  1.2595
  418SOL    HW2 1254   1.179   0.583   1.311 -1.2424  0.6716  4.3698
  419SOL     OW 1255   0.980   0.509   2.974  0.4710 -0.0987 -0.5854
  419SOL    HW1 1256   0.938   0.497   2.877  0.0088  1.4907 -3.3882
  419SOL    HW2 1257   0.995   0.608   3.010 -0.6868  3.1563  1.8343
  420SOL     OW 1258   0.095   2.259   0.518 -0.1171 -0.3055  0.1315
  420SOL    HW1 1259   0.173   2.227   0.457 -0.2078  1.2841 -0.2631
  420SOL    HW2 1260   0.009   2.199   0.513 -1.7556  1.3117 -0.1727
  421SOL     OW 1261   0.313   2.986   0.644  0.3773 -0.3687 -0.1466
  421SOL    HW1 1262   0.291   2.929   0.728 -2.0504 -0.5022  1.5264
  421SOL    HW2 1263   0.403   3.037   0.649 -0.0179 -0.4115 -0.4151
  422SOL     OW 1264   1.026   2.563   1.033 -0.1098  0.8135 -0.2602
  422SOL    HW1 1265   1.106   2.588   0.973  1.0213  0.2099  3.1238
  422SOL    HW2 1266   1.044   2.585   1.135 -0.5149 -0.8340  1.5910
  423SOL     OW 1267   0.137   0.712   1.274 -0.0535  0.4337 -0.5203
  423SOL    HW1 1268   0.063   0.664   1.331  2.2046 -2.1711 -1.8534
  423SOL    HW2 1269   0.096   0.793   1.218  1.8618  0.3743 -1.3036
  424SOL     OW 1270   1.037   2.220   2.037  0.7850 -0.3575  0.3800
  424SOL    HW1 1271   1.060   2.322   2.042 -0.1644  0.5199  0.4648
  424SOL    HW2 1272   1.010   2.185   2.133  1.7466 -1.8455 -1.1970
  425SOL     OW 1273   1.987   1.291   1.000 -0.2690 -0.1595  0.1116
  425SOL    HW1 1274   2.057   1.231   1.049  1.0809  2.5843 -0.4794
  425SOL    HW2 1275   2.024   1.387   0.984  2.0634  1.1749 -1.1119
  426SOL     OW 1276   1.524   1.605   1.377  0.3193 -0.1342 -0.1558
  426SOL    HW1 1277   1.509   1.686   1.309  0.3147 -0.7057  0.2938
  426SOL    HW2 1278   1.452   1.608   1.450  1.2085  0.7396  2.1715
  427SOL     OW 1279   1.942   2.343   2.070  0.1583 -0.7611 -0.1921
  427SOL    HW1 1280   2.003   2.277   2.129  1.1579 -0.1682 -1.4487
  427SOL    HW2 1281   1.961   2.444   2.089  2.1907  1.5845 -0.8288
  428SOL     OW 1282   0.887   3.053   0.160  0.6311 -0.7665 -0.2427
  428SOL    HW1 1283   0.878   3.116   0.083 -0.8185 -1.0935  0.0014
  428SOL    HW2 1284   0.970   2.990   0.155  3.2919 -0.2389 -1.9168
  429SOL     OW 1285   1.324   0.080   0.255  0.2921  0.1466 -0.2060
  429SOL    HW1 1286   1.421   0.091   0.288 -1.4811  0.0346  1.9661
  429SOL    HW2 1287   1.308   0.098   0.155  1.3624  1.7572  0.8563
  430SOL     OW 1288   2.824   1.416   0.307  0.7497 -0.0910 -0.2688
  430SOL    HW1 1289   2.896   1.466   0.246  2.3231  1.5959  1.0577
  430SOL    HW2 1290   2.837   1.443   0.403 -0.5200  0.2949  0.6145
  431SOL     OW 1291   2.112   1.541   0.894 -0.2378 -0.5757  0.8595
  431SOL    HW1 1292   2.188   1.602   0.929 -1.2778 -0.5388  0.8798
  431SOL    HW2 1293   2.026   1.592   0.870 -1.8497 -0.9160 -1.2374
  432SOL     OW 1294   2.905   2.251   1.162  0.7434  0.1976 -0.8350
  432SOL    HW1 1295   2.851   2.163   1.184 -2.5448  2.1902  2.2507
  432SOL    HW2 1296   2.967   2.282   1.244  1.1177 -1.3308  2.1915
  433SOL     OW 1297   1.823   0.321   0.825  0.2268 -0.5404 -0.7032
  433SOL    HW1 1298   1.713   0.320   0.835 -3.5425 -4.2200 -0.3228
  433SOL    HW2 1299   1.874   0.262   0.892 -0.7776 -0.3361 -1.3198
  434SOL     OW 1300   1.534   0.295   0.700  0.5531  0.2263  0.1129
  434SOL    HW1 1301   1.522   0.369   0.624  1.9316 -0.7492 -1.3155
  434SOL    HW2 1302   1.527   0.346   0.789 -0.1056  1.9306  0.1435
  435SOL     OW 1303   1.437   1.504   2.085  0.0469 -0.1310 -0.1266
  435SOL    HW1 1304   1.417   1.575   2.161 -1.5727  0.0703  0.4436
  435SOL    HW2 1305   1.472   1.551   1.994 -1.0984  2.2721  1.2759
  436SOL     OW 1306   1.698   2.734   2.286  0.0493 -0.1361  0.1288
  436SOL    HW1 1307   1.647   2.807   2.345 -0.9929  1.0618  1.0548
  436SOL    HW2 1308   1.722   2.648   2.339 -1.1497  1.4798 -0.3483
  437SOL     OW 1309   1.104   2.926   0.944  0.4401 -0.5225 -0.5474
  437SOL    HW1 1310   1.062   3.000   0.887 -0.7957 -0.1853  1.0542
  437SOL    HW2 1311   1.058   2.926   1.037 -0.9364 -2.5881 -0.1154
  438SOL     OW 1312   0.988   2.606   1.327 -0.2604  0.3522  0.0811
  438SOL    HW1 1313   1.082   2.611   1.367 -0.9583 -2.5971 -0.5060
  438SOL    HW2 1314   0.954   2.505   1.310 -1.0463 -0.3058 -0.4285
  439SOL     OW 1315   0.688   1.771   1.112  0.5563 -0.3811  0.4589
  439SOL    HW1 1316   0.664   1.843   1.039 -0.3795  1.2348  1.1890
  439SOL    HW2 1317   0.609   1.752   1.177 -0.1606  0.3425  1.5623
  440SOL     OW 1318   1.037   2.533   1.948  0.3287  0.2001 -0.2055
  440SOL    HW1 1319   0.988   2.541   1.856 -1.9906  0.6029  2.4823
  440SOL    HW2 1320   1.138   2.523   1.933 -2.1177  1.1902  0.2520
  441SOL     OW 1321   0.520   2.724   1.419  0.1744  0.2394 -0.2041
  441SOL    HW1 1322   0.549   2.620   1.432  0.3659 -1.1316  1.2500
  441SOL    HW2 1323   0.421   2.735   1.434  3.8781  1.3080 -0.6848
  442SOL     OW 1324   2.257   0.729   2.499 -0.2281  0.4539 -0.4793
  442SOL    HW1 1325   2.259   0.633   2.544  0.6760  1.3041  0.1934
  442SOL    HW2 1326   2.163   0.759   2.464 -1.5254  0.4797  1.1914
  443SOL     OW 1327   1.211   2.715   2.165 -0.5344 -0.2288  0.7402
  443SOL    HW1 1328   1.175   2.760   2.251 -0.6167 -1.2528  4.9976
  443SOL    HW2 1329   1.250   2.619   2.192  3.2309  1.1836  3.2680
  444SOL     OW 1330   1.090   1.269   1.576 -0.3281 -0.0210 -0.4393
  444SOL    HW1 1331   1.185   1.226   1.571 -1.5239  1.7039  1.4743
  444SOL    HW2 1332   1.087   1.344   1.649  2.8193  1.3269 -2.6928
  445SOL     OW 1333   0.019   2.313   1.894 -0.1859 -0.5687  0.6511
  445SOL    HW1 1334  -0.005   2.406   1.855  0.4455  0.1677  0.2678
  445SOL    HW2 1335  -0.052   2.282   1.962 -0.2538 -0.6963  2.6156
  446SOL     OW 1336   0.202   1.901   2.316 -0.2890 -0.5925 -0.0393
  446SOL    HW1 1337   0.167   1.980   2.373 -1.0577 -2.8569 -1.3185
  446SOL    HW2 1338   0.139   1.884   2.235 -0.8246  2.4848  2.7564
  447SOL     OW 1339   1.214   1.680   1.935  0.7146  0.0847 -0.1003
  447SOL    HW1 1340   1.147   1.752   1.897  1.1307 -0.1769 -2.4188
  447SOL    HW2 1341   1.305   1.690   1.891  1.2750  0.5172  1.3793
  448SOL     OW 1342   0.173   1.558   2.043  0.1376  0.6478  0.0250
  448SOL    HW1 1343   0.174   1.650   1.994  0.1821 -3.6572 -0.8584
  448SOL    HW2 1344   0.134   1.566   2.135  0.4180 -1.0958 -2.0522
  449SOL     OW 1345   1.991   2.948   0.824  0.5260 -0.0101 -0.3406
  449SOL    HW1 1346   2.059   2.963   0.902  0.9699 -3.3512  3.1840
  449SOL    HW2 1347   1.973   2.849   0.802  0.6457 -1.4633  3.4165
  450SOL     OW 1348   2.323   1.334   0.774  0.1021  0.3984  0.1498
  450SOL    HW1 1349   2.269   1.244   0.777  0.0629  0.2627 -0.6217
  450SOL    HW2 1350   2.261   1.422   0.771 -1.6953  0.6339  0.7858
  451SOL     OW 1351   1.392   0.005   1.444  0.1747  0.7895  0.2949
  451SOL    HW1 1352   1.317   0.074   1.464 -0.4871 -0.3115  1.5548
  451SOL    HW2 1353   1.421  -0.049   1.530  2.6458 -0.4813  1.2357
  452SOL     OW 1354   2.655   2.304   2.197 -0.0815 -0.0245  0.7882
  452SOL    HW1 1355   2.581   2.367   2.242 -0.3130 -0.1074  2.0985
  452SOL    HW2 1356   2.717   2.252   2.266  0.8535 -0.6831 -0.6736
  453SOL     OW 1357   2.431   2.675   3.071 -0.0941 -0.1173  0.3609
  453SOL    HW1 1358   2.334   2.711   3.095 -0.0715 -2.4586 -1.0015
  453SOL    HW2 1359   2.424   2.603   2.994 -1.0349 -0.4271  3.6692
  454SOL     OW 1360   1.008   1.089   2.090 -0.6375 -0.1516  0.3710
  454SOL    HW1 1361   0.959   1.119   2.003 -0.5349  0.3619 -1.4977
  454SOL    HW2 1362   1.103   1.132   2.090  2.4948 -1.4385  1.8205
  455SOL     OW 1363   0.659   2.609   2.894  0.6053  0.4176 -0.3371
  455SOL    HW1 1364   0.752   2.643   2.916 -0.3663 -1.3746  0.9917
  455SOL    HW2 1365   0.647   2.507   2.915 -0.2225 -0.3004 -0.4658
  456SOL     OW 1366   0.492   1.888   0.388  0.0464 -0.5263 -0.0657
  456SOL    HW1 1367   0.568   1.864   0.449  0.5212 -0.5444  2.4842
  456SOL    HW2 1368   0.506   1.984   0.354 -0.7279 -0.6368 -0.7165
  457SOL     OW 1369   0.369   2.607   0.721  0.4570 -0.1837 -0.2169
  457SOL    HW1 1370   0.312   2.666   0.653  0.3228 -0.2304  0.0461
  457SOL    HW2 1371   0.455   2.651   0.759  2.6106  1.1146  1.2052
  458SOL     OW 1372   2.979   3.052   1.218  0.4881 -0.1379  0.5512
  458SOL    HW1 1373   2.989   3.153   1.199 -0.2912  2.7647  4.8220
  458SOL    HW2 1374   2.945   2.987   1.141  1.1900  0.3657 -0.7056
  459SOL     OW 1375   2.177   2.538   0.857 -0.5078  0.0034  0.6608
  459SOL    HW1 1376   2.215   2.617   0.911 -2.8565  0.9789  0.7859
  459SOL    HW2 1377   2.236   2.516   0.776 -1.3423  2.2788  3.6171
  460SOL     OW 1378   1.145   1.945   2.936  0.3357  0.1648  0.0963
  460SOL    HW1 1379   1.180   2.021   2.872 -2.3856 -1.0975 -0.6633
  460SOL    HW2 1380   1.215   1.898   2.993 -1.4343  2.2354 -0.6776
  461SOL     OW 1381   0.481   2.142   2.677  0.0628  0.3293  0.2331
  461SOL    HW1 1382   0.411   2.078   2.635  1.4558  2.1757  0.0407
  461SOL    HW2 1383   0.513   2.098   2.765 -0.8642 -2.0331 -0.8176
  462SOL     OW 1384   0.938   1.160   1.841  0.1278  0.2161  0.1679
  462SOL    HW1 1385   0.991   1.108   1.774 -1.4325  2.0317  0.3757
  462SOL    HW2 1386   0.889   1.246   1.800 -1.4231  1.0977 -2.2714
  463SOL     OW 1387   0.453   0.783   0.539  0.0234  0.1171  0.0789
  463SOL    HW1 1388   0.496   0.700   0.495 -0.0381  2.7986  0.8771
  463SOL    HW2 1389   0.350   0.785   0.555 -0.9567 -0.1385 -0.8225
  464SOL     OW 1390   0.598   2.225   2.287  0.1351  0.2530  0.4684
  464SOL    HW1 1391   0.565   2.297   2.356 -2.3899  1.7953 -1.8810
  464SOL    HW2 1392   0.603   2.266   2.188  3.7635 -1.2298 -0.3256
  465SOL     OW 1393   0.282   0.906   0.834  0.0349  0.1252  0.3733
  465SOL    HW1 1394   0.194   0.939   0.789 -1.1757  0.3093 -0.9907
  465SOL    HW2 1395   0.294   0.803   0.812  0.6675  1.9162  0.5696
  466SOL     OW 1396   1.363   1.116   1.152  0.2532 -0.5190 -0.4999
  466SOL    HW1 1397   1.401   1.195   1.204  2.3019 -0.9959 -2.5054
  466SOL    HW2 1398   1.272   1.142   1.105  0.1151 -0.6840 -1.2950
  467SOL     OW 1399   0.507   0.317   2.329  0.0601  0.0286  0.3737
  467SOL    HW1 1400   0.486   0.401   2.387  1.0025  0.7142  0.5911
  467SOL    HW2 1401   0.503   0.233   2.392  0.1871  1.2308  2.7106
  468SOL     OW 1402   0.436   2.319   1.673 -0.4166 -0.0098 -0.3740
  468SOL    HW1 1403   0.489   2.369   1.748 -2.0450  1.7533  0.2915
  468SOL    HW2 1404   0.454   2.355   1.575 -1.3135  2.8876 -2.2330
  469SOL     OW 1405   1.496   1.335   1.288 -0.5538  0.0495  0.2221
  469SOL    HW1 1406   1.585   1.318   1.230  1.4300  0.8467  0.3800
  469SOL    HW2 1407   1.509   1.417   1.350  3.1360 -1.3726 -1.6864
  470SOL     OW 1408   3.015   1.684   0.747 -0.4649 -0.2106 -0.7414
  470SOL    HW1 1409   3.071   1.768   0.744 -0.8645 -1.7421  0.1298
  470SOL    HW2 1410   2.926   1.712   0.797  0.5118  2.0780  1.3435
  471SOL     OW 1411   2.634   1.370   2.145 -0.0456 -0.0703  0.5974
  471SOL    HW1 1412   2.616   1.298   2.216 -1.1044 -0.3999 -0.9486
  471SOL    HW2 1413   2.732   1.412   2.148  1.4503 -0.9371 -1.0449
  472SOL     OW 1414   1.116   2.463   3.058 -0.0942 -0.1756 -0.2158
  472SOL    HW1 1415   1.167   2.466   3.150 -1.7538  0.8424  0.7156
  472SOL    HW2 1416   1.080   2.366   3.033 -2.7957 -0.1263 -1.9280
  473SOL     OW 1417   1.047   1.493   0.925 -0.2320 -0.2441  0.0773
  473SOL    HW1 1418   0.944   1.523   0.929 -2.8381  0.0130  0.4857
  473SOL    HW2 1419   1.087   1.495   1.018 -1.0200 -2.0094 -3.0610
  474SOL     OW 1420   0.762   1.232   0.613  0.8715 -0.2598 -0.5599
  474SOL    HW1 1421   0.771   1.222   0.511  0.5928 -0.8548  0.1035
  474SOL    HW2 1422   0.808   1.152   0.663 -0.1429 -1.7290  0.3511
  475SOL     OW 1423   2.825   0.151   0.764 -0.4726 -0.4145  0.3152
  475SOL    HW1 1424   2.919   0.148   0.814  1.1437 -1.8390  1.0979
  475SOL    HW2 1425   2.738   0.159   0.825 -2.2261  0.0905 -0.4799
  476SOL     OW 1426   0.909   2.986   1.788  0.2642  0.2788  0.1418
  476SOL    HW1 1427   0.987   2.966   1.856  2.8120  1.3620  1.9171
  476SOL    HW2 1428   0.932   2.958   1.689  1.7038  0.5616 -1.1470
  477SOL     OW 1429   1.424   0.335   2.489 -0.5079  0.0047 -0.5381
  477SOL    HW1 1430   1.436   0.350   2.593  2.5897 -1.0945  0.6907
  477SOL    HW2 1431   1.472   0.252   2.453  1.0362  1.8616  0.4531
  478SOL     OW 1432   2.255   1.827   0.241  0.2990 -0.0587 -0.3148
  478SOL    HW1 1433   2.209   1.731   0.231  0.5338 -3.3313 -1.0882
  478SOL    HW2 1434   2.358   1.824   0.236 -0.9989 -2.0820  1.7884
  479SOL     OW 1435   1.264   1.069   2.901 -0.8760 -0.3220 -1.2002
  479SOL    HW1 1436   1.318   1.042   2.819  0.5804 -0.6676  1.4146
  479SOL    HW2 1437   1.166   1.087   2.867 -1.0044 -0.4964  2.1456
  480SOL     OW 1438   2.516   2.302   0.383  0.6997  0.0403 -0.1868
  480SOL    HW1 1439   2.481   2.212   0.417 -3.2085  1.3894  2.2362
  480SOL    HW2 1440   2.459   2.331   0.299  0.7749 -3.2174 -0.7649
  481SOL     OW 1441   1.047   1.186   0.828  0.2138  0.0944 -0.0079
  481SOL    HW1 1442   1.038   1.280   0.789  0.9109  0.7739  0.7899
  481SOL    HW2 1443   1.059   1.183   0.930  0.9736  2.1856  1.1503
  482SOL     OW 1444   1.594   0.325   2.028 -0.1268  0.2889  0.2377
  482SOL    HW1 1445   1.596   0.422   2.002 -0.1276 -0.6505 -1.3091
  482SOL    HW2 1446   1.693   0.283   2.017  1.6604 -2.6165 -2.7699
  483SOL     OW 1447   0.194   2.385   1.270  0.2535  0.1093  0.2942
  483SOL    HW1 1448   0.102   2.371   1.314  0.6515  1.4745  1.4641
  483SOL    HW2 1449   0.189   2.427   1.175 -0.6658  0.6518 -1.9916
  484SOL     OW 1450   1.690   0.977   1.385  0.3810  0.0114  0.4506
  484SOL    HW1 1451   1.748   0.889   1.383 -0.3794 -1.8454 -1.2863
  484SOL    HW2 1452   1.729   1.053   1.446  0.9049  1.0727 -0.7769
  485SOL     OW 1453   0.652   1.085   1.809  0.1867  0.0555 -0.1354
  485SOL    HW1 1454   0.672   1.052   1.707  0.5453  0.7570 -3.5076
  485SOL    HW2 1455   0.737   1.133   1.838 -0.2256  1.9802  0.0853
  486SOL     OW 1456   0.955   1.941   2.475  0.2733  0.2607  0.4833
  486SOL    HW1 1457   1.000   1.892   2.555 -0.0832  1.2755  1.0755
  486SOL    HW2 1458   0.856   1.973   2.487 -1.9668 -1.0838  3.0025
  487SOL     OW 1459   1.742   1.549   0.907 -0.6970 -0.2077 -0.3773
  487SOL    HW1 1460   1.710   1.482   0.831 -0.2084  2.4008 -0.6670
  487SOL    HW2 1461   1.825   1.606   0.877  0.9756  0.2734  1.2654
  488SOL     OW 1462   2.953   0.896   2.225 -0.0177  0.5348 -0.5958
  488SOL    HW1 1463   3.015   0.826   2.178 -0.8112  1.2508  0.5237
  488SOL    HW2 1464   2.972   0.890   2.330 -2.0021 -1.0994  1.5129
  489SOL     OW 1465   2.773   0.249   1.298  0.1122 -0.1336 -0.4292
  489SOL    HW1 1466   2.746   0.190   1.378  3.5381 -1.1284  1.5327
  489SOL    HW2 1467   2.878   0.241   1.271  1.1945  0.7323 -0.2012
  490SOL     OW 1468   1.447   2.938   2.797 -0.1034  0.1739  0.1881
  490SOL    HW1 1469   1.509   2.851   2.793  0.8961  0.3027  1.7608
  490SOL    HW2 1470   1.448   3.003   2.714 -2.7556 -0.4211  2.5145
  491SOL     OW 1471   1.785   1.477   2.676 -0.4149  0.2759  0.2465
  491SOL    HW1 1472   1.761   1.519   2.767  0.5708  0.1786  0.5902
  491SOL    HW2 1473   1.885   1.479   2.648  2.6640  0.8419 -1.5242
  492SOL     OW 1474   0.524   2.039   0.682  0.1713  0.6915  0.1917
  492SOL    HW1 1475   0.555   2.012   0.778  0.3313 -0.4632  1.0381
  492SOL    HW2 1476   0.439   2.095   0.691  1.1398  0.7185  2.6595
  493SOL     OW 1477   0.441   1.411   2.044 -0.0779 -0.2396 -0.0518
  493SOL    HW1 1478   0.359   1.475   2.037 -0.3193  0.9052 -1.0720
  493SOL    HW2 1479   0.438   1.341   2.121  0.5392  0.9983 -0.9539
  494SOL     OW 1480   2.633   2.699   0.168  0.2854 -0.3016 -0.5451
  494SOL    HW1 1481   2.624   2.636   0.251  1.2488  0.4295 -1.1974
  494SOL    HW2 1482   2.571   2.676   0.090 -0.3878 -0.7967  0.5443
  495SOL     OW 1483   2.728   2.659   2.691  0.0058 -0.8595 -0.1611
  495SOL    HW1 1484   2.671   2.581   2.656 -1.0760  1.4464  0.0215
  495SOL    HW2 1485   2.760   2.721   2.612 -2.7898  1.1789  0.2576
  496SOL     OW 1486   2.029   2.171   0.711 -0.1701 -0.2245 -0.1523
  496SOL    HW1 1487   2.061   2.201   0.808 -1.3902  0.5339 -1.0385
  496SOL    HW2 1488   2.092   2.114   0.658 -0.3608  1.1904  0.5906
  497SOL     OW 1489   0.196   2.966   2.405 -0.1583 -0.4641 -0.0752
  497SOL    HW1 1490   0.160   3.042   2.465 -0.0694  2.1469 -2.1386
  497SOL    HW2 1491   0.254   2.998   2.321 -0.0944 -0.1611 -1.7189
  498SOL     OW 1492   1.213   1.450   1.174 -0.0995 -0.3232 -0.5701
  498SOL    HW1 1493   1.303   1.431   1.217  1.5403  2.6242 -0.3536
  498SOL    HW2 1494   1.173   1.535   1.224  0.9516  3.1639 -0.5722
  499SOL     OW 1495   0.730   1.853   0.543  0.4841  0.3363  0.2950
  499SOL    HW1 1496   0.748   1.753   0.539  0.9450 -0.7074 -2.4959
  499SOL    HW2 1497   0.798   1.893   0.613  1.4622 -2.3974 -0.0156
  500SOL     OW 1498   1.456   2.975   1.666 -0.4492 -0.1074  1.1797
  500SOL    HW1 1499   1.419   2.969   1.763  0.2962  2.6377  1.1115
  500SOL    HW2 1500   1.521   2.898   1.639  0.2188 -0.5818  0.9163
  501SOL     OW 1501   0.822   1.119   2.297 -0.6109 -0.2427 -0.1188
  501SOL    HW1 1502   0.720   1.117   2.273 -0.7250 -0.6522 -0.6741
  501SOL    HW2 1503   0.884   1.094   2.216 -2.7805  2.9125 -0.3012
  502SOL     OW 1504   2.603   0.942   1.757 -0.5547 -0.3851  0.0149
  502SOL    HW1 1505   2.613   0.978   1.660 -2.4719  0.2699 -1.6977
  502SOL    HW2 1506   2.545   0.859   1.753 -0.6750  2.8022  0.1862
  503SOL     OW 1507   1.297   0.120   0.622  0.1769 -0.0703 -0.8260
  503SOL    HW1 1508   1.234   0.185   0.676 -0.9302 -1.3152 -0.8951
  503SOL    HW2 1509   1.398   0.154   0.607  0.7240 -1.4236  0.3315
  504SOL     OW 1510   3.035   2.318   1.412 -0.3594 -0.0456 -0.1184
  504SOL    HW1 1511   2.970   2.369   1.468  4.3035 -2.2431  3.9055
  504SOL    HW2 1512   3.085   2.243   1.468  0.4736 -0.3788  0.7041
  505SOL     OW 1513   2.261   1.175   1.519 -0.1802 -0.2268 -0.3990
  505SOL    HW1 1514   2.295   1.211   1.424 -1.9277  0.1732  0.8564
  505SOL    HW2 1515   2.331   1.189   1.593  0.9112  0.5528  0.1175
  506SOL     OW 1516   2.001   0.220   1.758 -0.3644 -0.2740 -0.4577
  506SOL    HW1 1517   2.068   0.139   1.748 -0.4645  1.2302  0.4670
  506SOL    HW2 1518   2.021   0.288   1.835  3.2999  1.5760 -0.4048
  507SOL     OW 1519   0.537   0.680   2.168 -0.0330 -0.2138 -0.3235
  507SOL    HW1 1520   0.445   0.674   2.112  0.5381  0.5508  1.2408
  507SOL    HW2 1521   0.608   0.602   2.156  1.1214 -3.1768 -0.1042
  508SOL     OW 1522   0.251   1.621   0.909  0.1996 -0.2513  0.1325
  508SOL    HW1 1523   0.353   1.619   0.901 -1.1761  0.8249  2.0649
  508SOL    HW2 1524   0.213   1.680   0.988 -0.5929 -0.0930 -0.6950
  509SOL     OW 1525   1.347   1.253   2.383 -0.2117  0.0435  1.2373
  509SOL    HW1 1526   1.287   1.205   2.443 -0.0724  1.1613  2.6745
  509SOL    HW2 1527   1.419   1.195   2.329  2.2327  0.4642 -0.9972
  510SOL     OW 1528   1.284   2.023   2.058 -0.1482 -0.2213  0.0449
  510SOL    HW1 1529   1.218   2.098   2.046 -0.5009 -3.7974  0.9639
  510SOL    HW2 1530   1.246   1.946   2.121 -0.8681 -0.2285  2.4070
  511SOL     OW 1531   3.067   2.673   1.339 -0.9167 -0.4392 -0.3752
  511SOL    HW1 1532   3.076   2.662   1.233 -0.6652  1.0424 -2.6382
  511SOL    HW2 1533   2.972   2.651   1.366  1.1829 -2.6765  1.2381
  512SOL     OW 1534   2.355   0.419   1.392  0.2373  0.3940  0.0422
  512SOL    HW1 1535   2.256   0.410   1.371  0.6987 -0.7975  1.0826
  512SOL    HW2 1536   2.421   0.370   1.327 -1.0785 -0.4834 -1.2478
  513SOL     OW 1537   2.476   2.033   0.861 -0.0907 -0.8360  0.0886
  513SOL    HW1 1538   2.404   2.094   0.813 -0.9775  0.4707  2.2772
  513SOL    HW2 1539   2.548   1.993   0.800  1.1773  0.2408  0.7958
  514SOL     OW 1540   0.597   2.805   0.484  0.1635  0.0507 -1.2859
  514SOL    HW1 1541   0.611   2.867   0.403  1.0729  2.0601 -1.1878
  514SOL    HW2 1542   0.640   2.849   0.569 -0.2369  0.1211  1.0832
  515SOL     OW 1543   2.018   1.139   2.255 -0.0526  0.1314 -0.2020
  515SOL    HW1 1544   1.955   1.141   2.172  2.6523 -0.8398  1.6270
  515SOL    HW2 1545   1.959   1.180   2.332  3.5549 -1.3832 -1.3215
  516SOL     OW 1546   0.276   0.263   1.954  0.4122  0.5994  0.1125
  516SOL    HW1 1547   0.362   0.240   1.899  0.7291  1.7651  1.5596
  516SOL    HW2 1548   0.189   0.233   1.905 -0.8147 -0.9256 -2.3487
  517SOL     OW 1549   0.396   3.036   1.180 -0.9307 -0.1548  0.2580
  517SOL    HW1 1550   0.431   3.135   1.188  0.5350  1.9048  2.1629
  517SOL    HW2 1551   0.293   3.038   1.201 -3.7633  1.6012  0.5419
  518SOL     OW 1552   2.182   3.087   1.752 -0.7204 -0.4035 -0.1270
  518SOL    HW1 1553   2.251   3.160   1.773  0.3008  2.2367 -2.0615
  518SOL    HW2 1554   2.219   3.014   1.683  0.1152 -0.3637 -0.2108
  519SOL     OW 1555   2.375   2.230   2.582  0.7738 -0.0896 -0.1775
  519SOL    HW1 1556   2.297   2.211   2.651  0.9334 -2.4770 -1.3335
  519SOL    HW2 1557   2.436   2.313   2.607  1.4000 -1.9943 -0.7413
  520SOL     OW 1558   1.741   2.873   1.874  0.1527 -0.4026 -0.0755
  520SOL    HW1 1559   1.647   2.838   1.891  0.9964  1.6729 -2.3406
  520SOL    HW2 1560   1.810   2.795   1.856 -2.0377 -0.3028 -1.5301
  521SOL     OW 1561   0.556   3.080   2.130  0.2979  0.0410 -0.0304
  521SOL    HW1 1562   0.454   3.086   2.149 -0.7333  0.8283 -1.7540
  521SOL    HW2 1563   0.606   3.090   2.219  0.7802  0.5944  0.6215
  522SOL     OW 1564   0.204   1.892   1.441 -0.0319  0.2925  0.6521
  522SOL    HW1 1565   0.242   1.967   1.505 -0.7177  0.5089  2.3825
  522SOL    HW2 1566   0.168   1.942   1.353 -0.7853  1.8000 -0.1244
  523SOL     OW 1567   2.253   2.912   1.550 -0.2149 -0.6015  0.1731
  523SOL    HW1 1568   2.333   2.845   1.553  0.4336 -0.0266 -1.3853
  523SOL    HW2 1569   2.166   2.877   1.512  1.1519  0.2259  2.2935
  524SOL     OW 1570   0.188   2.768   2.769 -0.0906 -0.4237 -0.3376
  524SOL    HW1 1571   0.139   2.846   2.823 -0.7153 -0.4788 -0.7143
  524SOL    HW2 1572   0.291   2.787   2.782  2.0426 -0.4117 -2.2923
  525SOL     OW 1573   2.156   1.959   0.484  0.0118 -0.2275  0.2265
  525SOL    HW1 1574   2.152   1.888   0.565  1.5929  0.1630  3.0196
  525SOL    HW2 1575   2.167   1.903   0.397  2.2831 -1.1832  0.4136
  526SOL     OW 1576   0.400   1.520   1.636  0.5630 -0.7256 -0.5194
  526SOL    HW1 1577   0.317   1.505   1.694  3.0019  1.2098  2.4484
  526SOL    HW2 1578   0.455   1.429   1.635  0.9809 -2.3050 -0.5273
  527SOL     OW 1579   1.087   2.965   1.260 -0.2681 -0.2034  0.1029
  527SOL    HW1 1580   1.184   2.933   1.288 -0.7476 -0.5062  1.5918
  527SOL    HW2 1581   1.077   3.068   1.260  0.4225  1.1212 -0.0077
  528SOL     OW 1582   1.359   2.410   0.510 -0.1401 -0.2686 -0.0023
  528SOL    HW1 1583   1.368   2.308   0.528  0.3016  0.4855  2.0923
  528SOL    HW2 1584   1.421   2.467   0.571 -0.4805 -0.3384 -1.8075
  529SOL     OW 1585   1.927   1.734   0.790 -0.5415 -0.3595  1.1283
  529SOL    HW1 1586   1.878   1.762   0.700 -0.0326 -2.7818  0.2617
  529SOL    HW2 1587   1.912   1.795   0.871 -0.0505 -1.5991 -1.9758
  530SOL     OW 1588   0.284   2.494   0.317 -0.0217 -0.6134  0.6094
  530SOL    HW1 1589   0.263   2.569   0.382  1.2606  0.3816  0.2213
  530SOL    HW2 1590   0.350   2.425   0.364  0.0669 -1.3944 -0.6089
  531SOL     OW 1591   1.809   1.020   0.995 -0.2802  0.2672 -0.1901
  531SOL    HW1 1592   1.843   1.010   0.898  0.7884 -0.8876  1.9111
  531SOL    HW2 1593   1.711   0.980   1.011 -1.6113 -2.5081  1.0339
  532SOL     OW 1594   0.506   1.079   0.797 -0.0894 -0.7173  0.2012
  532SOL    HW1 1595   0.576   1.078   0.720  0.8469 -2.7507  0.3756
  532SOL    HW2 1596   0.445   0.997   0.800  0.3111  1.1242 -2.2133
  533SOL     OW 1597   1.763   0.017   2.585 -0.0790 -0.4053 -0.4849
  533SOL    HW1 1598   1.853  -0.031   2.600  1.9268 -0.3529  0.1775
  533SOL    HW2 1599   1.747   0.088   2.659  1.9476  0.7109 -0.1015
  534SOL     OW 1600   0.330   0.209   1.621  1.0125 -0.6895 -0.3083
  534SOL    HW1 1601   0.432   0.233   1.630 -1.0307  0.7239 -0.2871
  534SOL    HW2 1602   0.273   0.297   1.603  1.1415 -2.9162  0.9165
  535SOL     OW 1603   1.970   0.333   0.136 -0.1666  0.0239  0.0225
  535SOL    HW1 1604   1.953   0.423   0.179  2.2805 -0.6525  0.1870
  535SOL    HW2 1605   1.955   0.259   0.203 -1.3744 -1.2111  0.7761
  536SOL     OW 1606   1.402   2.636   0.947 -0.0564  0.4112 -0.1242
  536SOL    HW1 1607   1.387   2.594   1.043 -1.1177  0.5772  2.7402
  536SOL    HW2 1608   1.311   2.663   0.900  0.2308 -0.4513  1.8231
  537SOL     OW 1609   0.818   0.300   2.400 -0.5121  0.3000 -0.0443
  537SOL    HW1 1610   0.794   0.362   2.318  0.1265 -0.6316 -1.8039
  537SOL    HW2 1611   0.805   0.197   2.385  1.0025 -1.8746  1.0732
  538SOL     OW 1612   1.673   2.319   1.473  0.0977 -0.3688 -0.7118
  538SOL    HW1 1613   1.681   2.223   1.432 -1.1954  0.0295 -0.3561
  538SOL    HW2 1614   1.756   2.380   1.446  0.5533 -0.1924  0.5344
  539SOL     OW 1615   0.161   1.642   2.683  0.1120 -0.0357 -0.4423
  539SOL    HW1 1616   0.076   1.648   2.623 -0.2463  0.0325  2.0196
  539SOL    HW2 1617   0.159   1.727   2.744 -2.3628  0.3869 -0.2855
  540SOL     OW 1618   2.655   1.747   1.919 -0.2053  0.5031  0.2363
  540SOL    HW1 1619   2.586   1.674   1.958  1.2645 -2.5405 -0.6039
  540SOL    HW2 1620   2.619   1.848   1.919  0.3373  4.3500 -1.5248
  541SOL     OW 1621   0.521   2.191   0.013  0.0295 -0.2416 -0.1579
  541SOL    HW1 1622   0.553   2.172   0.111  2.6516  2.0072 -0.7523
  541SOL    HW2 1623   0.424   2.169  -0.009  0.9297 -1.0970  1.4856
  542SOL     OW 1624   2.222   2.560   0.420 -0.2984  0.6101 -0.3434
  542SOL    HW1 1625   2.157   2.640   0.416 -1.0029  0.6715 -0.5597
  542SOL    HW2 1626   2.175   2.475   0.460  1.0997 -1.4681  1.5202
  543SOL     OW 1627   1.128   1.808   1.557 -0.2454 -0.1082 -0.0221
  543SOL    HW1 1628   1.095   1.795   1.652 -1.8022 -2.2975 -2.0338
  543SOL    HW2 1629   1.086   1.895   1.511  0.8468  3.0847  1.0555
  544SOL     OW 1630   1.102   0.461   0.178  0.3315  0.4297  0.1324
  544SOL    HW1 1631   1.087   0.385   0.247 -0.0555 -3.4528 -0.7762
  544SOL    HW2 1632   1.119   0.416   0.088 -1.2105  2.0129 -1.7162
  545SOL     OW 1633   1.118   1.757   0.806  0.1981  0.7757 -0.6232
  545SOL    HW1 1634   1.211   1.753   0.752  0.5602 -0.2201  0.0127
  545SOL    HW2 1635   1.084   1.659   0.828  1.0430 -0.1211  0.7250
  546SOL     OW 1636   2.640   1.526   3.030  0.1394 -0.0162 -0.1885
  546SOL    HW1 1637   2.630   1.595   2.947 -1.2346  0.7789 -1.4665
  546SOL    HW2 1638   2.549   1.480   3.050 -1.2456  0.8761 -0.6352
  547SOL     OW 1639   0.630   3.002   2.608 -0.2752 -0.0180 -0.1970
  547SOL    HW1 1640   0.710   3.024   2.672 -2.0489 -0.0710  0.2910
  547SOL    HW2 1641   0.559   2.954   2.657  3.1131  0.3330 -0.5470
  548SOL     OW 1642   2.091   0.867   2.984  0.0687 -0.3810 -0.2281
  548SOL    HW1 1643   1.998   0.827   2.996 -0.8779  0.3265 -1.1795
  548SOL    HW2 1644   2.093   0.957   3.036  1.2588  0.0195 -1.6983
  549SOL     OW 1645   0.666   0.579   0.190 -0.0275  0.5921  0.3762
  549SOL    HW1 1646   0.610   0.623   0.112  1.7868  0.2382 -2.3739
  549SOL    HW2 1647   0.764   0.622   0.189 -5.4766  1.4632 -0.4347
  550SOL     OW 1648   2.618   2.795   2.905 -0.1705 -0.1464  0.6538
  550SOL    HW1 1649   2.561   2.733   2.970  0.3542 -1.7944 -0.7769
  550SOL    HW2 1650   2.653   2.736   2.827 -0.7661 -1.0964 -1.7777
  551SOL     OW 1651   0.279   0.872   0.265 -0.0070  0.6570  0.4073
  551SOL    HW1 1652   0.379   0.868   0.247 -1.0083  1.0455  0.1358
  551SOL    HW2 1653   0.257   0.838   0.360 -2.8859  0.5738  1.4134
  552SOL     OW 1654   0.623   2.989   1.881  0.3594  0.0817 -0.9489
  552SOL    HW1 1655   0.619   3.008   1.987  0.2608 -0.3011  1.7747
  552SOL    HW2 1656   0.719   2.988   1.838 -1.2681  1.0191 -3.7859
  553SOL     OW 1657   2.900   2.446   0.358 -0.4432 -0.3044 -0.1637
  553SOL    HW1 1658   2.878   2.355   0.413  0.6375 -3.7373  2.5210
  553SOL    HW2 1659   2.817   2.499   0.332  1.5918  2.8125  1.8684
  554SOL     OW 1660   2.124   0.351   0.527 -0.3400 -0.4505 -0.1997
  554SOL    HW1 1661   2.182   0.340   0.442 -0.2151 -4.5843 -0.4647
  554SOL    HW2 1662   2.149   0.292   0.605 -1.3675  0.7948 -2.8249
  555SOL     OW 1663   0.366   2.774   2.504 -0.0359  0.2947  0.2791
  555SOL    HW1 1664   0.307   2.858   2.468  0.4268  1.0235 -2.3473
  555SOL    HW2 1665   0.434   2.736   2.438 -0.5762  1.3545  0.8631
  556SOL     OW 1666   0.856   2.355   1.551  0.0550 -0.8236 -0.0000
  556SOL    HW1 1667   0.909   2.423   1.615  1.6522  1.1022 -1.4651
  556SOL    HW2 1668   0.896   2.342   1.457 -1.7866 -1.8275 -0.3280
  557SOL     OW 1669   0.146   2.016   0.237 -0.0962 -0.7322  0.6824
  557SOL    HW1 1670   0.054   2.036   0.190 -1.2217  0.5163 -2.0547
  557SOL    HW2 1671   0.225   2.061   0.185  2.6719 -0.0144 -0.5258
  558SOL     OW 1672   2.778   2.205   0.431 -0.4259  0.1557  0.3124
  558SOL    HW1 1673   2.682   2.235   0.403 -0.8404  1.2396 -0.9717
  558SOL    HW2 1674   2.801   2.110   0.389  0.1075 -2.0982 -1.2446
  559SOL     OW 1675   0.436   2.321   1.402  0.1857  0.2969 -0.2238
  559SOL    HW1 1676   0.350   2.350   1.351 -0.8951 -0.1589 -1.7156
  559SOL    HW2 1677   0.475   2.231   1.363  1.4328  0.2277  0.6062
  560SOL     OW 1678   2.113   1.122   3.084  0.1904  0.3146  0.6125
  560SOL    HW1 1679   2.156   1.152   3.171 -1.2462 -1.5049 -0.8238
  560SOL    HW2 1680   2.155   1.154   2.995  0.6870 -2.1084 -0.7640
  561SOL     OW 1681   3.104   1.870   0.007  0.0924 -0.4236  0.2013
  561SOL    HW1 1682   3.090   1.839   0.104 -1.7487  1.2065  1.2283
  561SOL    HW2 1683   3.029   1.930  -0.027 -1.9139 -0.7532  2.1054
  562SOL     OW 1684   1.014   2.167   2.305  0.4927  0.3256  0.0999
  562SOL    HW1 1685   0.985   2.251   2.367  0.7746 -1.3878 -0.2651
  562SOL    HW2 1686   1.002   2.079   2.362 -2.5276  2.2771  2.4517
  563SOL     OW 1687   0.696   2.538   2.633 -0.2585 -0.4781 -0.1837
  563SOL    HW1 1688   0.786   2.495   2.603  0.3897 -2.4464  0.2901
  563SOL    HW2 1689   0.707   2.578   2.728  1.4016 -0.6302  1.1745
  564SOL     OW 1690   2.853   1.381   2.911  0.2456  0.2858  0.2534
  564SOL    HW1 1691   2.767   1.392   2.965  1.4803  1.5643 -0.9813
  564SOL    HW2 1692   2.894   1.476   2.889 -0.0689  1.1331  1.1092
  565SOL     OW 1693   2.493   1.993   2.653 -0.4672 -0.1364  0.2318
  565SOL    HW1 1694   2.439   2.086   2.640 -1.1867  0.6299 -3.2883
  565SOL    HW2 1695   2.589   2.002   2.696 -0.4877 -1.6377  0.8397
  566SOL     OW 1696   1.992   2.872   1.474 -0.2326  0.0217  0.1357
  566SOL    HW1 1697   1.953   2.774   1.487 -0.0009 -2.6544  1.3502
  566SOL    HW2 1698   1.980   2.903   1.373 -0.4633  0.3484  0.0420
  567SOL     OW 1699   2.412   3.075   2.358  0.9783  0.5611 -0.0572
  567SOL    HW1 1700   2.337   3.118   2.418 -1.8023 -3.0618 -0.3896
  567SOL    HW2 1701   2.396   3.090   2.253 -0.0279 -0.9663 -0.5590
  568SOL     OW 1702   1.536   1.806   0.251  0.1549  0.4392  0.4748
  568SOL    HW1 1703   1.501   1.899   0.219 -1.2009 -0.4961 -1.1864
  568SOL    HW2 1704   1.639   1.804   0.260  0.6208  1.1657 -0.1412
  569SOL     OW 1705   0.270   0.648   0.786 -0.2670 -0.3049  0.1992
  569SOL    HW1 1706   0.347   0.578   0.771  3.7279 -1.3901 -2.7494
  569SOL    HW2 1707   0.177   0.610   0.772 -0.4299  0.1591  1.5491
  570SOL     OW 1708   0.648   0.859   2.923  0.1717  0.5447 -0.2530
  570SOL    HW1 1709   0.706   0.843   2.834  0.7910  0.6495 -1.8518
  570SOL    HW2 1710   0.671   0.949   2.970 -1.9862  0.7742 -1.7196
  571SOL     OW 1711   0.796   3.094   1.096  0.4669  0.7053  0.6646
  571SOL    HW1 1712   0.839   3.124   1.006  1.5580 -2.9310  2.7868
  571SOL    HW2 1713   0.831   2.999   1.119 -1.6360  2.0781 -0.3707
  572SOL     OW 1714   1.627   2.662   1.369 -0.6027 -0.2053  0.3935
  572SOL    HW1 1715   1.629   2.591   1.299 -0.0698  0.6701  3.0229
  572SOL    HW2 1716   1.628   2.756   1.325 -0.8136  0.7575 -1.3168
  573SOL     OW 1717   2.967   0.489   2.019  0.8258  0.0597 -0.1965
  573SOL    HW1 1718   2.884   0.432   2.037  0.2101  0.8522 -0.1012
  573SOL    HW2 1719   3.021   0.451   1.931 -0.2118 -0.2221 -2.2352
  574SOL     OW 1720   0.160   1.760   1.112 -0.0051  0.2729  0.3331
  574SOL    HW1 1721   0.210   1.753   1.202  0.8066  0.9562 -1.3275
  574SOL    HW2 1722   0.081   1.827   1.112  2.3363  0.2660 -0.8105
  575SOL     OW 1723   0.843   2.185   0.965  0.2652 -0.5160 -0.1046
  575SOL    HW1 1724   0.818   2.250   1.046  2.1345 -0.6374 -1.0937
  575SOL    HW2 1725   0.872   2.239   0.884 -1.3258  1.4688  1.0066
  576SOL     OW 1726   2.857   2.979   1.669  0.1170 -0.2175  0.4433
  576SOL    HW1 1727   2.758   2.979   1.699  2.5515  3.5477 -1.8250
  576SOL    HW2 1728   2.899   3.074   1.655 -0.2572 -2.2504 -0.4949
  577SOL     OW 1729   2.615   1.197   0.003  0.4480  0.8255  0.0743
  577SOL    HW1 1730   2.610   1.109  -0.048  3.2315  1.3043  1.4310
  577SOL    HW2 1731   2.671   1.190   0.091 -0.9429 -2.2997 -1.2821
  578SOL     OW 1732   1.398   2.773   2.475 -0.1298  0.4196  0.1572
  578SOL    HW1 1733   1.303   2.800   2.438 -1.9462  1.9382  1.0625
  578SOL    HW2 1734   1.468   2.840   2.444 -1.2060 -1.1123 -1.7749
  579SOL     OW 1735   0.011   2.466   0.186 -0.5504  0.1259 -0.7432
  579SOL    HW1 1736  -0.066   2.469   0.259 -0.6673 -1.9277  0.4215
  579SOL    HW2 1737   0.108   2.473   0.228 -0.6804  3.4670 -1.3827
  580SOL     OW 1738   0.975   2.643   0.375  0.4283 -0.1280  0.2392
  580SOL    HW1 1739   1.047   2.651   0.298  2.7965 -0.2829 -1.5020
  580SOL    HW2 1740   0.896   2.588   0.343  0.4763  1.2519  2.5762
  581SOL     OW 1741   1.225   2.646   1.439  0.0853 -0.1770 -0.2387
  581SOL    HW1 1742   1.289   2.567   1.466  2.1684  1.1092  0.6319
  581SOL    HW2 1743   1.286   2.730   1.418  0.8739  1.2705  0.1761
  582SOL     OW 1744   1.496   0.116   1.878  0.2498 -0.0034  0.2180
  582SOL    HW1 1745   1.519   0.195   1.946  0.1051  0.1520  1.4312
  582SOL    HW2 1746   1.591   0.091   1.834  0.7984  2.6838  0.2242
  583SOL     OW 1747   2.427   3.069   0.533  0.2201 -0.5083 -0.0592
  583SOL    HW1 1748   2.511   3.024   0.488  0.9244  2.4931  0.0773
  583SOL    HW2 1749   2.357   2.997   0.562 -0.7867 -0.1348  0.0309
  584SOL     OW 1750   1.566   1.097   2.269  1.3373  0.0424 -0.0314
  584SOL    HW1 1751   1.626   1.175   2.254 -1.7080  0.4615  1.1794
  584SOL    HW2 1752   1.613   1.005   2.276 -0.7543 -2.8817 -0.5676
  585SOL     OW 1753   2.105   2.658   2.883 -0.3486  0.3246  0.0401
  585SOL    HW1 1754   2.118   2.555   2.878 -0.3235 -2.9786 -0.9759
  585SOL    HW2 1755   2.005   2.679   2.887  1.1945 -0.8293  0.9273
  586SOL     OW 1756   2.885   0.376   1.559  0.7174  0.6903 -0.1292
  586SOL    HW1 1757   2.860   0.468   1.602 -0.0510 -1.6670 -3.3154
  586SOL    HW2 1758   2.818   0.346   1.484 -0.9577  2.5649 -2.8544
  587SOL     OW 1759   2.065   1.489   2.645  0.0438 -0.4113  0.2354
  587SOL    HW1 1760   2.132   1.429   2.594  0.8800  1.0846 -0.5440
  587SOL    HW2 1761   2.089   1.511   2.743  0.4941  1.1319  0.6086
  588SOL     OW 1762   0.499   2.716   2.263  0.4665  0.5442  0.2154
  588SOL    HW1 1763   0.418   2.735   2.204  1.9047 -0.9736  0.7975
  588SOL    HW2 1764   0.516   2.610   2.274 -0.4253 -2.9747  0.2535
  589SOL     OW 1765   2.196   1.288   2.476  0.2398 -0.3599 -0.0128
  589SOL    HW1 1766   2.152   1.221   2.411  0.1443 -1.0880 -0.0333
  589SOL    HW2 1767   2.298   1.288   2.477 -2.5038  0.7183  1.8507
  590SOL     OW 1768   2.325   1.763   2.040  0.7402  0.4653  0.5563
  590SOL    HW1 1769   2.387   1.684   2.040  0.7072 -0.6954 -2.8020
  590SOL    HW2 1770   2.316   1.806   2.132 -1.0986  0.8615  1.0482
  591SOL     OW 1771   1.236   2.437   0.223 -0.4339  0.2420 -0.1024
  591SOL    HW1 1772   1.257   2.351   0.159 -0.4705 -3.5503 -0.2625
  591SOL    HW2 1773   1.269   2.426   0.318 -0.1997  0.5861 -1.1375
  592SOL     OW 1774   1.789   2.341   0.745  0.2781  0.0511  0.3100
  592SOL    HW1 1775   1.754   2.398   0.668  0.6133 -1.4956  0.1856
  592SOL    HW2 1776   1.885   2.300   0.725  2.2108 -2.2685  0.3757
  593SOL     OW 1777   0.706   0.275   0.224  0.2907 -0.3572 -0.0903
  593SOL    HW1 1778   0.776   0.241   0.159 -2.2388 -2.4633  0.2005
  593SOL    HW2 1779   0.682   0.375   0.220 -0.8591  0.2157  2.1021
  594SOL     OW 1780   1.055   1.831   2.700  0.2175  0.3951  0.2839
  594SOL    HW1 1781   1.135   1.785   2.657 -1.4539  0.5195  0.7639
  594SOL    HW2 1782   1.065   1.882   2.791 -0.0254 -2.4532 -0.5942
  595SOL     OW 1783   1.574   0.073   0.991  0.1394  0.6926 -0.2498
  595SOL    HW1 1784   1.652   0.005   0.972 -1.1036 -1.3352 -1.1616
  595SOL    HW2 1785   1.483   0.031   0.955 -0.5417  0.2568  1.4410
  596SOL     OW 1786   0.032   1.552   2.298  0.0293  0.0755  0.4021
  596SOL    HW1 1787   0.092   1.470   2.330 -1.3736 -0.8077 -2.7737
  596SOL    HW2 1788  -0.031   1.594   2.364  0.5623 -1.9418 -1.8672
  597SOL     OW 1789   1.918   2.678   1.801 -0.0672  0.3868  0.1493
  597SOL    HW1 1790   1.872   2.683   1.706 -0.2085  1.7566 -1.9942
  597SOL    HW2 1791   1.993   2.607   1.804  2.0680 -0.2153  1.6886
  598SOL     OW 1792   2.544   2.901   1.221  0.4080 -0.1070 -0.3032
  598SOL    HW1 1793   2.617   2.948   1.275 -1.3786 -1.2453 -2.4891
  598SOL    HW2 1794   2.575   2.884   1.125  1.6943 -0.2521  0.2311
  599SOL     OW 1795   2.872   0.307   2.469 -0.6332  0.0763  0.0551
  599SOL    HW1 1796   2.958   0.317   2.411  1.0896 -1.3857 -1.6287
  599SOL    HW2 1797   2.784   0.340   2.422 -2.3934  4.2873  0.4268
  600SOL     OW 1798   2.826   1.159   2.729  0.1744  0.7800  0.5700
  600SOL    HW1 1799   2.769   1.089   2.776 -3.2442  2.0316  0.2521
  600SOL    HW2 1800   2.823   1.251   2.778  1.5981 -1.7929  2.9726
  601SOL     OW 1801   3.088   1.340   2.011 -0.2889 -0.2413 -0.0692
  601SOL    HW1 1802   3.008   1.380   1.965 -0.0674 -0.1931  2.1566
  601SOL    HW2 1803   3.155   1.414   2.050  2.3321 -0.5039 -0.8919
  602SOL     OW 1804   1.444   1.642   2.306  0.1087 -0.8187 -0.2727
  602SOL    HW1 1805   1.364   1.603   2.358  1.6825 -1.7871 -0.0159
  602SOL    HW2 1806   1.536   1.614   2.344 -2.2632 -2.2393 -1.4790
  603SOL     OW 1807   0.685   1.173   2.761 -0.0968  0.2977 -0.3739
  603SOL    HW1 1808   0.601   1.169   2.700 -0.1598 -0.2753 -0.6402
  603SOL    HW2 1809   0.752   1.099   2.726  0.4728 -0.9764 -2.5501
  604SOL     OW 1810   2.437   1.004   0.160 -0.2280  0.1578 -0.2015
  604SOL    HW1 1811   2.479   1.089   0.114  3.1715  1.0551  1.6310
  604SOL    HW2 1812   2.435   0.920   0.098  3.2488  1.9302 -2.5926
  605SOL     OW 1813   2.497   1.189   1.986 -0.2382  0.2909  0.1390
  605SOL    HW1 1814   2.561   1.114   1.952 -1.3041  0.1311 -0.1061
  605SOL    HW2 1815   2.548   1.264   2.029  0.5786 -1.3502 -3.0310
  606SOL     OW 1816   1.505   2.545   2.555 -0.5830  0.3687  0.0490
  606SOL    HW1 1817   1.480   2.642   2.520  0.1092 -1.2140  1.5709
  606SOL    HW2 1818   1.437   2.475   2.520 -1.2129  2.8437 -2.9044
  607SOL     OW 1819   1.363   1.581   0.311  0.0355 -0.0898 -0.0675
  607SOL    HW1 1820   1.276   1.631   0.332 -0.3058  1.8242  0.9418
  607SOL    HW2 1821   1.442   1.650   0.286  2.4616  1.8383 -0.6958
  608SOL     OW 1822   1.448   2.827   0.396 -0.3151  0.5519  0.3220
  608SOL    HW1 1823   1.462   2.873   0.301  1.8497 -0.4704 -0.9938
  608SOL    HW2 1824   1.403   2.890   0.466 -0.1870  0.1113  0.5571
  609SOL     OW 1825   1.291   1.347   0.202  0.3185  0.1072 -0.4096
  609SOL    HW1 1826   1.305   1.442   0.245  0.4797 -1.0886  0.2532
  609SOL    HW2 1827   1.269   1.355   0.102  1.6255  0.6895 -3.6382
  610SOL     OW 1828   2.999   1.177   2.235  0.8357  0.8197  0.5888
  610SOL    HW1 1829   2.980   1.075   2.227  0.1446 -0.5585  0.5798
  610SOL    HW2 1830   2.989   1.229   2.146 -1.7236  1.5927  1.8545
  611SOL     OW 1831   2.531   0.266   1.181 -0.5226  0.1642 -0.3004
  611SOL    HW1 1832   2.493   0.170   1.171  3.7232 -0.1089 -0.4212
  611SOL    HW2 1833   2.618   0.266   1.236 -4.8809  1.8704  2.4458
  612SOL     OW 1834   0.733   2.300   1.180  0.4565  0.4233  0.0658
  612SOL    HW1 1835   0.672   2.242   1.239 -0.7137 -0.0680  1.0944
  612SOL    HW2 1836   0.676   2.379   1.149  0.7742 -2.3913  1.9558
  613SOL     OW 1837   0.864   1.375   2.391  0.2104  0.1269  0.0565
  613SOL    HW1 1838   0.861   1.459   2.330  1.0765  1.3052 -2.5712
  613SOL    HW2 1839   0.842   1.291   2.334 -0.6006 -0.6390 -2.0750
  614SOL     OW 1840   1.563   1.670   1.852 -0.2507 -0.7366 -0.5985
  614SOL    HW1 1841   1.542   1.771   1.827 -0.8780  0.3438 -1.5152
  614SOL    HW2 1842   1.667   1.660   1.844  0.3029 -1.3934 -1.0193
  615SOL     OW 1843   0.747   1.369   1.728 -0.4885  0.2558 -0.7478
  615SOL    HW1 1844   0.656   1.354   1.680  3.0334 -2.1946  0.9097
  615SOL    HW2 1845   0.801   1.449   1.688  0.3642  0.9721 -1.5808
  616SOL     OW 1846   1.121   1.566   2.174 -0.3262 -0.4917 -0.0838
  616SOL    HW1 1847   1.020   1.577   2.177  0.3169  2.3482  1.3833
  616SOL    HW2 1848   1.163   1.591   2.083  1.2218  0.9009  0.3000
  617SOL     OW 1849   2.973   1.533   1.619 -0.2391 -0.4377  0.0242
  617SOL    HW1 1850   2.986   1.477   1.706  0.8844 -1.0382  0.7893
  617SOL    HW2 1851   2.955   1.484   1.532  1.7743  1.5659 -0.0196
  618SOL     OW 1852   1.935   1.965   1.437 -0.3175 -0.8935 -0.0931
  618SOL    HW1 1853   2.026   1.971   1.384  1.0336 -0.3288  1.1818
  618SOL    HW2 1854   1.915   1.867   1.471  0.4936 -1.1568  0.7227
  619SOL     OW 1855   1.699   0.455   2.373 -0.4648  0.2987 -0.6321
  619SOL    HW1 1856   1.648   0.528   2.327  0.2566 -1.7748  0.8793
  619SOL    HW2 1857   1.644   0.370   2.393 -2.4531  0.6877 -2.1366
  620SOL     OW 1858   2.192   2.927   0.598 -0.4471  0.0375 -0.0764
  620SOL    HW1 1859   2.113   2.998   0.598 -0.4909 -1.0904 -0.5106
  620SOL    HW2 1860   2.204   2.880   0.688 -0.0578  2.6356  1.7193
  621SOL     OW 1861   2.190   1.876   1.297  0.6322  0.5885  0.1999
  621SOL    HW1 1862   2.172   1.873   1.399  2.5031  0.4485  1.8473
  621SOL    HW2 1863   2.180   1.786   1.255  1.1567  2.1114  0.3288
  622SOL     OW 1864   2.161   0.842   1.726  0.2113  0.0834  0.3247
  622SOL    HW1 1865   2.247   0.808   1.685  0.8856  2.3731  0.7035
  622SOL    HW2 1866   2.140   0.808   1.823 -2.0355  1.0615  1.2062
  623SOL     OW 1867   1.361   0.759   2.616 -0.1478  0.3277 -0.3149
  623SOL    HW1 1868   1.284   0.719   2.679  0.0576 -0.6126 -2.2459
  623SOL    HW2 1869   1.313   0.792   2.531 -0.8350 -0.0175  1.9154
  624SOL     OW 1870   0.493   0.715   0.000  0.0309  0.2568 -0.6093
  624SOL    HW1 1871   0.551   0.744  -0.080  0.5294 -1.1638 -1.2259
  624SOL    HW2 1872   0.490   0.787   0.079 -1.1600  4.2419  2.0744
  625SOL     OW 1873   2.798   1.746   0.905 -0.1380 -0.2117 -0.2611
  625SOL    HW1 1874   2.731   1.791   0.972 -0.2697  1.8916 -1.0973
  625SOL    HW2 1875   2.791   1.641   0.907 -1.1860 -1.1942  0.6140
  626SOL     OW 1876   0.535   2.739   1.848  0.2173  0.2555  0.1568
  626SOL    HW1 1877   0.562   2.839   1.864 -0.0567  1.2366  1.2488
  626SOL    HW2 1878   0.433   2.720   1.844  0.5734  0.8452 -2.8065
  627SOL     OW 1879   0.693   1.001   1.516 -0.0869  0.6280 -0.0069
  627SOL    HW1 1880   0.770   0.932   1.516  0.1204 -0.8527 -3.1645
  627SOL    HW2 1881   0.717   1.097   1.480 -1.3843  0.5758  1.5287
  628SOL     OW 1882   2.414   0.199   0.689  0.4387  0.6084  0.0120
  628SOL    HW1 1883   2.430   0.127   0.619 -0.7216  1.2330  1.7860
  628SOL    HW2 1884   2.321   0.186   0.737 -2.1479 -1.6201  0.2925
  629SOL     OW 1885   1.971   0.907   1.984 -0.0433  0.2418 -0.1335
  629SOL    HW1 1886   2.041   0.904   2.062 -0.1431 -0.7124  2.0431
  629SOL    HW2 1887   1.959   0.994   1.935 -0.5743 -2.2699 -2.4217
  630SOL     OW 1888   2.790   2.168   0.779 -0.3155 -0.0375 -0.1243
  630SOL    HW1 1889   2.716   2.228   0.811 -0.0370 -3.1511  1.0958
  630SOL    HW2 1890   2.768   2.067   0.768  0.6824 -2.4212  2.4736
  631SOL     OW 1891   2.983   0.143   2.112  0.0568  0.8355  0.0247
  631SOL    HW1 1892   3.041   0.194   2.180  1.1657  0.3363 -4.2555
  631SOL    HW2 1893   3.038   0.128   2.023  1.2120 -0.6948  0.3914
  632SOL     OW 1894   2.386   2.532   0.630 -0.1665 -0.4715  0.0400
  632SOL    HW1 1895   2.448   2.600   0.681 -0.1955  1.6503  1.1292
  632SOL    HW2 1896   2.324   2.567   0.556 -2.4216 -3.2888  1.0230
  633SOL     OW 1897   1.575   1.273   2.542  0.0891 -0.0334  0.3523
  633SOL    HW1 1898   1.620   1.358   2.585  1.1744  0.5301 -1.2386
  633SOL    HW2 1899   1.498   1.293   2.473 -1.4210 -1.6254  0.2375
  634SOL     OW 1900   0.632   1.985   0.958 -0.0789  0.3261  0.5290
  634SOL    HW1 1901   0.539   2.019   0.999 -1.0673  1.1706  2.8686
  634SOL    HW2 1902   0.700   2.063   0.949  1.2759 -1.1417  0.0357
  635SOL     OW 1903   0.021   2.314   3.059  0.0128  0.1718  0.1558
  635SOL    HW1 1904  -0.022   2.358   2.973  2.2120 -0.8756 -1.3166
  635SOL    HW2 1905   0.029   2.380   3.138  1.9868 -1.3903 -1.4002
  636SOL     OW 1906   2.289   2.792   2.032 -0.1313  0.3435 -0.4023
  636SOL    HW1 1907   2.338   2.884   2.054  0.2597 -2.9612 -1.2328
  636SOL    HW2 1908   2.252   2.744   2.117  1.3207  0.6162 -0.0173
  637SOL     OW 1909   2.553   0.687   2.040 -0.3663  0.3514 -0.2431
  637SOL    HW1 1910   2.540   0.719   1.941 -0.1279  0.8367  1.4474
  637SOL    HW2 1911   2.626   0.743   2.089  1.1054 -0.5694 -2.2071
  638SOL     OW 1912   2.480   1.856   1.311  0.1314  0.3085  0.5788
  638SOL    HW1 1913   2.378   1.873   1.313  1.0998  1.9224 -0.6306
  638SOL    HW2 1914   2.513   1.774   1.359 -1.0434 -1.0729 -0.5198
  639SOL     OW 1915   1.258   2.219   1.635  0.1474 -0.0479 -0.5788
  639SOL    HW1 1916   1.238   2.150   1.562  0.8577 -1.9399 -0.4269
  639SOL    HW2 1917   1.202   2.201   1.719 -2.0210 -1.2436  1.0035
  640SOL     OW 1918   0.190   1.192   1.562 -0.1773 -0.1280  0.5913
  640SOL    HW1 1919   0.161   1.236   1.652 -1.5302  0.5272 -1.7610
  640SOL    HW2 1920   0.283   1.148   1.569 -0.0091  0.7147  0.5822
  641SOL     OW 1921   2.007   0.089   1.513 -0.6848  0.4463 -0.9495
  641SOL    HW1 1922   2.023   0.158   1.588  0.9085  2.3954  0.2733
  641SOL    HW2 1923   2.005  -0.007   1.551 -2.1440  0.9546 -1.9549
  642SOL     OW 1924   1.939   0.127   0.319  0.3810  0.3582  0.4845
  642SOL    HW1 1925   2.032   0.098   0.353  1.3377  1.4940  0.9920
  642SOL    HW2 1926   1.880   0.158   0.393 -1.1220 -0.1886 -1.0838
  643SOL     OW 1927   2.864   1.909   2.061 -0.0819 -0.4877  0.0127
  643SOL    HW1 1928   2.833   1.824   2.015 -0.6663  1.8440  0.7877
  643SOL    HW2 1929   2.860   1.990   2.000  2.5287 -2.0988 -0.9487
  644SOL     OW 1930   2.180   2.321   1.192 -0.0182  0.0622  0.0950
  644SOL    HW1 1931   2.265   2.288   1.140 -0.2034 -1.2827 -2.5828
  644SOL    HW2 1932   2.193   2.307   1.296 -3.4295  0.7720  1.7331
  645SOL     OW 1933   0.608   0.788   1.160  0.3003 -0.5735  0.1884
  645SOL    HW1 1934   0.557   0.730   1.096 -1.0993  1.2541 -0.1656
  645SOL    HW2 1935   0.645   0.870   1.111 -0.4474 -2.3493 -1.6963
  646SOL     OW 1936   1.516   1.939   1.817  0.3146  0.1400 -0.5823
  646SOL    HW1 1937   1.614   1.983   1.822  1.3735  1.2591 -1.4159
  646SOL    HW2 1938   1.447   1.991   1.871  0.7232  1.1883  0.2201
  647SOL     OW 1939   0.851   0.963   0.686  0.2650 -0.2989 -0.0449
  647SOL    HW1 1940   0.907   1.005   0.761  1.6306  1.0655 -0.3631
  647SOL    HW2 1941   0.764   0.907   0.714  0.0919  2.0685  2.4279
  648SOL     OW 1942   0.131   0.164   0.292  0.8000  0.2711  0.2231
  648SOL    HW1 1943   0.173   0.094   0.218  1.4446 -1.4523 -1.3616
  648SOL    HW2 1944   0.099   0.252   0.244  0.2619 -1.5979  0.8249
  649SOL     OW 1945   3.073   0.160   0.928  0.2984 -0.0246  0.3081
  649SOL    HW1 1946   3.176   0.163   0.915  1.4317  0.6512  1.4597
  649SOL    HW2 1947   3.045   0.228   1.000 -1.3834  0.5363 -0.3317
  650SOL     OW 1948   2.709   0.713   1.393 -0.6139 -0.1988  0.0900
  650SOL    HW1 1949   2.612   0.704   1.424  2.0432  0.7658  0.0803
  650SOL    HW2 1950   2.736   0.806   1.346  2.7387 -1.8279 -1.1129
  651SOL     OW 1951   0.903   1.594   1.633 -0.2171  0.2845 -0.1210
  651SOL    HW1 1952   0.977   1.663   1.652 -0.3050  0.0707 -0.6162
  651SOL    HW2 1953   0.853   1.623   1.542 -1.7052 -1.5532 -3.0185
  652SOL     OW 1954   2.250   2.480   2.448 -0.2784 -0.2630 -0.1298
  652SOL    HW1 1955   2.180   2.450   2.518  1.2990 -0.1201 -2.1260
  652SOL    HW2 1956   2.212   2.549   2.383 -0.0511 -0.7808 -4.1113
  653SOL     OW 1957   2.730   1.167   0.249  0.0971 -0.1651  0.5001
  653SOL    HW1 1958   2.759   1.267   0.264 -0.5952  0.9656  0.4498
  653SOL    HW2 1959   2.795   1.095   0.293 -1.9084 -1.9590 -0.4746
  654SOL     OW 1960   1.261   2.280   1.250  0.4492  0.1766  0.3826
  654SOL    HW1 1961   1.287   2.195   1.308 -0.4254 -1.8547 -0.8542
  654SOL    HW2 1962   1.320   2.280   1.163  0.6644  0.6798  2.4229
  655SOL     OW 1963   0.218   1.015   1.843 -0.0622 -0.0979 -0.4034
  655SOL    HW1 1964   0.226   0.948   1.766 -2.2487 -1.6556  2.1796
  655SOL    HW2 1965   0.279   1.101   1.834 -1.0927 -0.3502  1.7857
  656SOL     OW 1966   2.529   2.472   2.587 -0.3697  0.1176  0.3185
  656SOL    HW1 1967   2.618   2.473   2.533 -1.7568 -0.0111  2.3500
  656SOL    HW2 1968   2.455   2.497   2.526 -0.2256  0.2251 -0.2329
  657SOL     OW 1969   3.050   1.088   1.897 -0.2460  0.2422  0.2797
  657SOL    HW1 1970   3.058   1.175   1.955  0.4830  1.7181 -2.8374
  657SOL    HW2 1971   3.144   1.046   1.891 -1.4468  1.6731  0.5682
  658SOL     OW 1972   1.635   0.178   2.378 -0.0238 -0.7611 -0.2464
  658SOL    HW1 1973   1.692   0.131   2.452 -0.9315  0.4210  0.8287
  658SOL    HW2 1974   1.668   0.180   2.276  0.0002 -0.1667  1.0839
  659SOL     OW 1975   1.397   0.625   2.902  0.1107  0.0616  0.3030
  659SOL    HW1 1976   1.434   0.720   2.917 -0.3324 -0.9787  0.1077
  659SOL    HW2 1977   1.299   0.635   2.867 -0.2579 -1.4980 -0.2058
  660SOL     OW 1978   1.468   0.350   1.405  0.2979 -0.1943 -0.7118
  660SOL    HW1 1979   1.497   0.369   1.504  0.5535  1.1498  1.8691
  660SOL    HW2 1980   1.524   0.271   1.370 -2.1340  1.0018 -0.6639
  661SOL     OW 1981   2.532   1.177   0.652 -0.0301  0.3473  0.3505
  661SOL    HW1 1982   2.518   1.134   0.561 -0.4339  0.1266  2.2976
  661SOL    HW2 1983   2.468   1.260   0.669  0.9139 -1.5356 -0.2807
  662SOL     OW 1984   1.322   0.415   1.826 -0.1609 -0.3991 -0.1000
  662SOL    HW1 1985   1.289   0.317   1.815  0.1605  0.9047  0.4379
  662SOL    HW2 1986   1.292   0.466   1.911 -1.1421 -0.2441 -2.3515
  663SOL     OW 1987   0.829   1.564   2.181 -0.2614  0.1447 -0.2110
  663SOL    HW1 1988   0.795   1.658   2.206  1.7236  2.1265 -2.2304
  663SOL    HW2 1989   0.785   1.534   2.086  1.6570  2.7942  1.0046
  664SOL     OW 1990   1.664   2.032   1.399  0.1636 -0.5255 -0.5973
  664SOL    HW1 1991   1.606   1.989   1.473 -0.6380  0.5525 -1.3596
  664SOL    HW2 1992   1.764   1.998   1.405 -1.3115 -2.0117  0.7947
  665SOL     OW 1993   2.182   0.691   2.008 -0.1538 -0.2696 -0.7850
  665SOL    HW1 1994   2.249   0.612   2.020  2.2713 -0.5352 -0.4471
  665SOL    HW2 1995   2.195   0.764   2.081  0.2090  1.6243 -0.0015
  666SOL     OW 1996   0.460   2.339   0.478  0.3167 -0.4589  0.1839
  666SOL    HW1 1997   0.539   2.409   0.500  3.4850 -0.6673 -0.9900
  666SOL    HW2 1998   0.435   2.297   0.566  1.6259 -2.2459  0.4172
  667SOL     OW 1999   1.956   0.199   1.023  0.5751 -0.1533 -0.2257
  667SOL    HW1 2000   2.004   0.292   1.041 -1.6246  1.0057  1.5840
  667SOL    HW2 2001   1.915   0.169   1.115 -1.4589  2.5499 -0.6905
  668SOL     OW 2002   1.995   0.544   1.195  0.0204  0.0868  0.2506
  668SOL    HW1 2003   2.076   0.557   1.126 -1.6009 -1.3472 -1.4392
  668SOL    HW2 2004   2.026   0.488   1.277  0.2406  0.3659  3.0149
  669SOL     OW 2005   3.029   2.169   0.914  0.1246 -1.1510 -1.3573
  669SOL    HW1 2006   2.935   2.159   0.873 -1.2618 -1.7070  0.7430
  669SOL    HW2 2007   3.038   2.224   1.004 -2.1061 -0.7456  0.0666
  670SOL     OW 2008   2.859   2.330   2.016 -0.0939  0.0241 -0.2408
  670SOL    HW1 2009   2.794   2.310   2.092  0.6400  2.2938 -1.0796
  670SOL    HW2 2010   2.861   2.434   1.990 -0.0919 -0.2816 -1.6142
  671SOL     OW 2011   1.746   1.739   1.437 -0.0707 -0.5232  0.4437
  671SOL    HW1 2012   1.754   1.774   1.338 -1.9335  1.0119  2.0078
  671SOL    HW2 2013   1.662   1.685   1.450  1.1867  2.2930 -1.8252
  672SOL     OW 2014   0.458   0.605   2.442  0.3871  0.5687  0.9504
  672SOL    HW1 2015   0.457   0.647   2.345  0.4548 -0.1205  1.0522
  672SOL    HW2 2016   0.366   0.624   2.495 -0.8193  1.3527 -0.4290
  673SOL     OW 2017   0.145   1.187   1.143  0.1985  0.3963  0.4783
  673SOL    HW1 2018   0.180   1.262   1.207  0.1321  1.9660 -1.6624
  673SOL    HW2 2019   0.224   1.132   1.104 -1.2718  0.3371  3.3922
  674SOL     OW 2020   1.552   2.896   0.142 -0.4266  0.1284 -0.0812
  674SOL    HW1 2021   1.594   2.982   0.117  1.8525 -0.3137  0.9436
  674SOL    HW2 2022   1.601   2.818   0.094  0.4526  1.0734 -1.1407
  675SOL     OW 2023   1.661   0.845   2.290  0.0563  0.6486  0.0716
  675SOL    HW1 2024   1.752   0.803   2.246  0.4529 -2.0365 -1.3108
  675SOL    HW2 2025   1.578   0.784   2.263  1.5849 -3.3001 -0.9452
  676SOL     OW 2026   2.496   1.552   2.000  0.0198 -0.2407 -0.3937
  676SOL    HW1 2027   2.476   1.502   1.912  0.9697 -0.5157 -0.2727
  676SOL    HW2 2028   2.545   1.486   2.067  1.3470 -2.4747  2.7717
  677SOL     OW 2029   1.830   0.619   0.944 -0.2446 -0.2457  1.3615
  677SOL    HW1 2030   1.874   0.636   1.035  0.9486  1.8753  1.2401
  677SOL    HW2 2031   1.823   0.519   0.919  0.2668 -0.0794 -0.9244
  678SOL     OW 2032   0.038   0.754   1.664  0.4987  0.2774 -0.2053
  678SOL    HW1 2033   0.131   0.727   1.698  2.5374  0.6271  0.4534
  678SOL    HW2 2034  -0.033   0.755   1.741 -0.5225 -1.9523  1.5183
  679SOL     OW 2035   2.539   1.153   1.104 -0.4119  0.4745  0.1537
  679SOL    HW1 2036   2.463   1.186   1.164 -0.1897  0.2979  2.0882
  679SOL    HW2 2037   2.526   1.057   1.067 -3.3904  2.4252 -1.6948
  680SOL     OW 2038   2.819   0.653   1.637 -0.1198  0.0114 -0.0446
  680SOL    HW1 2039   2.765   0.689   1.553 -0.3251  3.1054  0.3320
  680SOL    HW2 2040   2.834   0.726   1.709  0.4532  1.8412 -0.9574
  681SOL     OW 2041   2.989   0.117   1.606 -0.0509  0.3158 -0.1077
  681SOL    HW1 2042   3.069   0.114   1.538  1.1923  1.3874  1.6020
  681SOL    HW2 2043   2.952   0.210   1.618  1.2043 -0.6846  0.6190
  682SOL     OW 2044   0.794   0.052   1.397 -0.1623 -0.5628  0.2187
  682SOL    HW1 2045   0.736  -0.021   1.447  1.8469  0.1120  1.9687
  682SOL    HW2 2046   0.830   0.017   1.308 -2.5991  0.8398 -0.5061
  683SOL     OW 2047   1.365   0.270   2.194  0.4409 -0.1832 -0.2000
  683SOL    HW1 2048   1.318   0.337   2.257 -2.2442 -2.4866  1.1101
  683SOL    HW2 2049   1.426   0.312   2.122 -0.2924 -0.9456  0.5671
  684SOL     OW 2050   1.440   2.138   0.494  0.5980 -0.2981 -0.1251
  684SOL    HW1 2051   1.485   2.081   0.571  0.0752  1.0863 -0.2557
  684SOL    HW2 2052   1.358   2.087   0.454  1.4083  0.6020 -0.1233
  685SOL     OW 2053   2.187   1.999   1.937  0.2044 -0.1655 -0.0242
  685SOL    HW1 2054   2.221   2.061   1.858 -1.8713  1.2250  1.5568
  685SOL    HW2 2055   2.254   1.927   1.973  1.1333 -2.6242  1.4592
  686SOL     OW 2056   1.533   1.739   2.658  0.0063 -0.3414  0.4057
  686SOL    HW1 2057   1.509   1.643   2.695  2.4202  0.1508 -0.2392
  686SOL    HW2 2058   1.635   1.762   2.666 -1.9790 -1.7045  2.3312
  687SOL     OW 2059   1.310   2.519   1.894  0.2396 -0.2178  0.1699
  687SOL    HW1 2060   1.389   2.450   1.880  2.7297  0.5032 -0.2666
  687SOL    HW2 2061   1.347   2.602   1.935  0.4443  0.1966 -2.5815
  688SOL     OW 2062   2.073   1.443   1.674 -0.4358 -0.1068 -0.7809
  688SOL    HW1 2063   2.160   1.494   1.646  2.0701 -0.8597 -1.2690
  688SOL    HW2 2064   2.057   1.370   1.607  1.7877 -0.7144  0.1115
  689SOL     OW 2065   2.464   1.107   2.762  0.6416  0.3291 -0.1911
  689SOL    HW1 2066   2.359   1.123   2.770 -1.9183  0.5648  2.5789
  689SOL    HW2 2067   2.503   1.076   2.854 -2.5731  0.2902 -1.4920
  690SOL     OW 2068   2.211   2.763   0.078 -0.1408  0.4800 -0.6766
  690SOL    HW1 2069   2.118   2.745   0.033  1.2750  0.9243  1.0205
  690SOL    HW2 2070   2.194   2.827   0.162  1.1638 -0.4825  0.4059
  691SOL     OW 2071   2.607   0.412   2.132  0.1853 -0.1764 -0.1360
  691SOL    HW1 2072   2.639   0.346   2.059  3.0703  1.2107  0.6249
  691SOL    HW2 2073   2.611   0.512   2.103 -1.5326  1.1307 -0.3829
  692SOL     OW 2074   2.789   1.206   0.714 -0.2449 -0.0537  0.0662
  692SOL    HW1 2075   2.684   1.202   0.691 -1.9891 -0.7762  0.0369
  692SOL    HW2 2076   2.810   1.290   0.770  0.1539  0.3427 -0.5918
  693SOL     OW 2077   2.876   3.011   0.672  0.2132  0.2209 -0.3179
  693SOL    HW1 2078   2.855   3.106   0.712 -1.3932  2.3329  0.6212
  693SOL    HW2 2079   2.819   3.003   0.584 -0.8415 -0.2751 -1.7883
  694SOL     OW 2080   2.419   2.237   0.047 -0.5480  0.1218 -0.2603
  694SOL    HW1 2081   2.378   2.315   0.093  0.2054 -1.1888  1.9916
  694SOL    HW2 2082   2.357   2.154   0.060 -0.6512 -3.7107  2.0756
  695SOL     OW 2083   0.590   3.000   1.486 -0.7585  0.5630 -0.0650
  695SOL    HW1 2084   0.567   2.904   1.450  1.1707  0.2568  2.5212
  695SOL    HW2 2085   0.528   3.021   1.570 -0.0522  0.2948  0.1404
  696SOL     OW 2086   2.679   1.923   0.707  0.3627 -0.2078  0.2068
  696SOL    HW1 2087   2.729   1.846   0.754 -2.6121 -0.4151 -3.0302
  696SOL    HW2 2088   2.630   1.886   0.623 -0.1952  2.0374 -1.2102
  697SOL     OW 2089   1.747   2.061   1.814 -0.1324  0.5185 -0.6967
  697SOL    HW1 2090   1.832   2.002   1.846  0.9433 -0.7312 -2.0487
  697SOL    HW2 2091   1.762   2.163   1.800  0.4417  2.2769  0.9167
  698SOL     OW 2092   2.889   0.380   2.739 -0.1669  0.5235  0.3846
  698SOL    HW1 2093   2.876   0.372   2.632 -0.4985  2.0077 -2.7581
  698SOL    HW2 2094   2.918   0.292   2.784  0.7896  1.9527 -1.8113
  699SOL     OW 2095   1.512   0.071   2.934  0.6274  0.6100  0.2362
  699SOL    HW1 2096   1.499  -0.028   2.898 -0.8395  0.1041 -0.6577
  699SOL    HW2 2097   1.592   0.132   2.899 -0.2054  1.2858  0.8608
  700SOL     OW 2098   0.973   2.322   1.311 -0.1355  0.6193  0.0286
  700SOL    HW1 2099   1.071   2.305   1.279 -0.2477  0.4428 -0.1660
  700SOL    HW2 2100   0.893   2.290   1.247 -0.1439 -0.1336  2.4549
  701SOL     OW 2101   1.905   2.816   0.016 -0.2466 -0.1782  0.5759
  701SOL    HW1 2102   1.897   2.750   0.100  0.5131  0.1980  2.8519
  701SOL    HW2 2103   1.935   2.914   0.033  1.4900  0.6738 -0.9918
  702SOL     OW 2104   2.093   1.334   1.914  0.1939  0.3876  0.2006
  702SOL    HW1 2105   2.157   1.253   1.896  2.4554 -1.4382 -0.2456
  702SOL    HW2 2106   2.080   1.388   1.825  1.1897  0.5541  1.3104
  703SOL     OW 2107   1.913   0.824   1.410  0.1826 -0.5834  0.0211
  703SOL    HW1 2108   1.919   0.735   1.468 -0.4814 -1.6176  0.2149
  703SOL    HW2 2109   1.947   0.904   1.463 -0.0087  0.6674  1.1113
  704SOL     OW 2110   0.301   2.086   1.660 -0.0727 -0.8424 -0.2065
  704SOL    HW1 2111   0.346   2.044   1.745  0.4235  0.5405  2.0869
  704SOL    HW2 2112   0.347   2.172   1.640  0.3549 -2.2201  0.7280
  705SOL     OW 2113   2.539   1.396   0.931 -0.1268 -0.0394 -0.6647
  705SOL    HW1 2114   2.453   1.372   0.874 -1.6932  0.5104 -0.1075
  705SOL    HW2 2115   2.562   1.318   1.001  1.9765 -1.6425 -1.5809
  706SOL     OW 2116   0.638   1.776   1.834 -0.3368 -0.0711  0.1801
  706SOL    HW1 2117   0.636   1.678   1.859  0.6227 -0.7811 -2.4987
  706SOL    HW2 2118   0.705   1.835   1.890  1.2466  2.4659 -1.1115
  707SOL     OW 2119   2.264   1.117   1.861  0.5665 -0.0651 -0.4202
  707SOL    HW1 2120   2.355   1.123   1.920  0.6924  0.8900  0.2908
  707SOL    HW2 2121   2.257   1.029   1.811 -1.7095  1.1418 -0.7987
  708SOL     OW 2122   3.026   0.470   3.067  0.6334 -0.7919 -0.0810
  708SOL    HW1 2123   3.050   0.552   3.006  3.2099  0.9040  1.2934
  708SOL    HW2 2124   3.020   0.375   3.025  2.1221  0.7039 -0.0860
  709SOL     OW 2125   1.813   1.830   0.272 -0.1516 -0.9291  0.4141
  709SOL    HW1 2126   1.869   1.904   0.321  2.6610  0.6395 -0.7133
  709SOL    HW2 2127   1.815   1.845   0.172 -1.0527 -0.3717  1.2262
  710SOL     OW 2128   1.697   1.574   2.418 -0.2947 -0.3350  0.5940
  710SOL    HW1 2129   1.776   1.564   2.343  1.7338  0.7666 -2.7078
  710SOL    HW2 2130   1.729   1.565   2.519  0.2690 -1.7885  1.9832
  711SOL     OW 2131   2.642   2.911   0.971 -0.3115 -0.4167 -0.5129
  711SOL    HW1 2132   2.642   3.012   0.940 -2.3721  2.2885  1.1426
  711SOL    HW2 2133   2.736   2.881   0.998 -0.9574  0.7436  5.1275
  712SOL     OW 2134   1.489   2.305   1.805  0.3951  0.4346 -0.5969
  712SOL    HW1 2135   1.572   2.249   1.821 -0.7482  1.5770 -2.3527
  712SOL    HW2 2136   1.425   2.262   1.735  1.2379 -1.8179 -1.2695
  713SOL     OW 2137   2.781   1.505   2.491 -0.1812 -0.1466  0.1060
  713SOL    HW1 2138   2.777   1.400   2.470 -2.4954  0.3176  1.1258
  713SOL    HW2 2139   2.702   1.540   2.548  1.7007 -0.3001 -1.5217
  714SOL     OW 2140   2.659   0.464   2.387 -0.0882  0.5289  0.6100
  714SOL    HW1 2141   2.597   0.413   2.457  1.4720 -3.2155 -0.7660
  714SOL    HW2 2142   2.640   0.434   2.287  0.2488 -0.0163  1.4104
  715SOL     OW 2143   1.567   2.048   1.135 -0.4306  0.7351 -0.7403
  715SOL    HW1 2144   1.503   2.128   1.105 -0.1776  1.4709  0.2580
  715SOL    HW2 2145   1.595   2.059   1.240  0.7905  1.9190  2.6952
  716SOL     OW 2146   1.218   0.233   1.520 -0.2321 -0.1145  0.0713
  716SOL    HW1 2147   1.118   0.259   1.501  0.3063  0.3907 -0.1409
  716SOL    HW2 2148   1.284   0.300   1.478 -1.3471  0.2996 -0.3423
  717SOL     OW 2149   1.091   0.617   1.613  0.0745 -0.4541 -0.1330
  717SOL    HW1 2150   1.193   0.623   1.620 -0.2950 -0.8057 -0.2109
  717SOL    HW2 2151   1.055   0.605   1.518 -3.5999  3.1515  0.6800
  718SOL     OW 2152   0.722   0.982   1.003 -0.2550  0.1501  0.4704
  718SOL    HW1 2153   0.670   0.945   0.924  0.1181 -1.5389  1.7267
  718SOL    HW2 2154   0.723   1.084   1.018  1.3634 -1.0484  1.3495
  719SOL     OW 2155   0.752   1.834   2.278  0.1838  0.2808 -0.5099
  719SOL    HW1 2156   0.839   1.838   2.334  2.2333 -2.8222  0.0756
  719SOL    HW2 2157   0.671   1.867   2.321  0.5326 -1.3955  0.3718
  720SOL     OW 2158   2.203   1.103   0.249  0.3542  0.0258 -0.2279
  720SOL    HW1 2159   2.273   1.035   0.223 -2.2463 -0.0697 -1.6323
  720SOL    HW2 2160   2.169   1.091   0.346  0.6968  1.6666  0.9303
  721SOL     OW 2161   2.309  -0.000   2.077  0.6142  0.8665 -0.4040
  721SOL    HW1 2162   2.297   0.072   2.003 -0.4228 -1.7961 -0.9630
  721SOL    HW2 2163   2.220  -0.012   2.127 -0.7340 -0.5706 -2.0672
  722SOL     OW 2164   2.398   1.621   0.570 -0.0324 -0.0924  0.8831
  722SOL    HW1 2165   2.405   1.599   0.467  0.2198  1.1145 -0.6939
  722SOL    HW2 2166   2.317   1.678   0.585  2.2365  1.0804  0.1659
  723SOL     OW 2167   2.560   2.758   1.955  0.1485  0.1844 -0.5599
  723SOL    HW1 2168   2.593   2.811   2.039 -1.8083  1.5634  2.7188
  723SOL    HW2 2169   2.458   2.742   1.953  1.6117  1.2058 -1.3019
  724SOL     OW 2170   0.521   2.474   2.432 -0.3111 -0.3196  0.8323
  724SOL    HW1 2171   0.421   2.476   2.457  3.2105 -1.0500  0.5415
  724SOL    HW2 2172   0.582   2.495   2.512 -2.4178  1.2230 -1.3383
  725SOL     OW 2173   2.481   2.761   1.547  0.0057 -0.2542 -0.7418
  725SOL    HW1 2174   2.513   2.787   1.453 -2.5898 -0.8569 -0.6914
  725SOL    HW2 2175   2.430   2.671   1.537  0.7428 -2.5242 -0.7747
  726SOL     OW 2176   2.351   2.226   0.673  0.1122 -0.1924 -0.1733
  726SOL    HW1 2177   2.325   2.328   0.664  0.1644  4.0904  0.9424
  726SOL    HW2 2178   2.384   2.184   0.586 -1.1572  1.7492  1.2831
  727SOL     OW 2179   0.226   0.005   0.094  0.4695 -0.3129  0.2632
  727SOL    HW1 2180   0.306  -0.023   0.035  0.0650  1.0312  1.6901
  727SOL    HW2 2181   0.135  -0.034   0.061 -1.1875  0.3077 -0.1351
  728SOL     OW 2182   2.841   0.666   0.976 -0.3539  0.0744  0.5138
  728SOL    HW1 2183   2.797   0.620   0.893  1.3832  1.8823  0.4079
  728SOL    HW2 2184   2.829   0.623   1.074  0.5990  0.1343  2.1146
  729SOL     OW 2185   2.900   2.438   0.692 -0.2778 -0.1402 -0.2154
  729SOL    HW1 2186   2.852   2.383   0.759 -1.2823  2.7989 -1.3717
  729SOL    HW2 2187   2.998   2.414   0.673  0.6355  1.1249  0.6036
  730SOL     OW 2188   2.581   0.590   0.817 -0.8841  0.2559 -0.2404
  730SOL    HW1 2189   2.533   0.679   0.785 -1.0603  0.1794 -1.3077
  730SOL    HW2 2190   2.654   0.557   0.742 -0.3071 -1.4181 -3.1469
  731SOL     OW 2191   0.052   2.137   2.426 -0.9348 -0.0953 -0.0341
  731SOL    HW1 2192   0.074   2.175   2.524 -2.8516  0.6406 -1.4165
  731SOL    HW2 2193   0.020   2.216   2.360 -0.6049  3.5554 -0.8725
  732SOL     OW 2194   1.083   2.876   1.958 -0.8769  0.5373  0.2933
  732SOL    HW1 2195   1.113   2.811   2.036 -0.2387 -0.1862  2.4461
  732SOL    HW2 2196   1.125   2.831   1.873 -0.8757  1.5825  1.8551
  733SOL     OW 2197   0.014   0.708   2.104  0.2603  0.4882 -1.2049
  733SOL    HW1 2198   0.115   0.732   2.074  0.9233  0.5498 -0.8672
  733SOL    HW2 2199  -0.023   0.618   2.075 -2.4204  1.0568  1.6917
  734SOL     OW 2200   1.428   0.372   2.770  0.1243 -0.4104  0.1771
  734SOL    HW1 2201   1.445   0.460   2.818 -1.4961  0.0056  0.2195
  734SOL    HW2 2202   1.329   0.336   2.784 -0.2498 -1.1749  0.8498
  735SOL     OW 2203   2.895   2.627   2.252 -0.4167  0.1806  0.4317
  735SOL    HW1 2204   2.862   2.637   2.154 -2.6888 -0.0270  0.9575
  735SOL    HW2 2205   2.990   2.584   2.250 -2.2805 -0.0478 -2.6847
  736SOL     OW 2206   0.742   0.456   2.615  0.5426  0.3641  0.1781
  736SOL    HW1 2207   0.697   0.552   2.587 -0.9341  1.1688  3.8009
  736SOL    HW2 2208   0.770   0.395   2.531  1.4925  0.7041 -2.0498
  737SOL     OW 2209   2.638   0.464   2.859 -0.0852  0.6435  0.1918
  737SOL    HW1 2210   2.634   0.425   2.953 -2.6551  1.1341 -0.0585
  737SOL    HW2 2211   2.730   0.455   2.813 -0.8903  0.1146  0.9930
  738SOL     OW 2212   1.578   1.233   2.938  0.3884 -0.0045  0.4221
  738SOL    HW1 2213   1.684   1.225   2.942  0.8395 -1.4922  2.0481
  738SOL    HW2 2214   1.527   1.164   2.873 -3.5606 -0.5800 -0.3750
  739SOL     OW 2215   1.728   0.638   0.676 -0.0934  0.2791 -0.1881
  739SOL    HW1 2216   1.771   0.630   0.769 -0.6740  2.7909 -0.1135
  739SOL    HW2 2217   1.777   0.572   0.608  1.0811  0.8920 -0.0568
  740SOL     OW 2218   1.960   1.866   2.302 -0.0541  0.0243 -0.7594
  740SOL    HW1 2219   2.012   1.799   2.360  1.4003  1.5503 -3.9908
  740SOL    HW2 2220   1.930   1.828   2.210  1.1715  2.3410 -2.9632
  741SOL     OW 2221   2.518   0.040   2.590 -0.5805  0.0420  0.0622
  741SOL    HW1 2222   2.622   0.035   2.581 -0.5417 -1.5422 -1.1217
  741SOL    HW2 2223   2.478   0.025   2.492 -1.6222 -0.2231  0.1263
  742SOL     OW 2224   2.253   1.393   0.156 -0.0670 -0.6623 -0.4509
  742SOL    HW1 2225   2.166   1.450   0.179  0.0980 -1.7635  2.2939
  742SOL    HW2 2226   2.249   1.299   0.206  2.2005 -1.3054  0.4449
  743SOL     OW 2227   1.803   0.624   2.578  0.0834 -0.3540 -0.2324
  743SOL    HW1 2228   1.761   0.554   2.510 -1.4349  0.1147 -1.4037
  743SOL    HW2 2229   1.741   0.704   2.597 -0.4370 -2.4255  0.0679
  744SOL     OW 2230   2.697   2.126   0.064  0.0970 -0.1301  0.3616
  744SOL    HW1 2231   2.603   2.171   0.077 -2.8562  0.3562 -1.5506
  744SOL    HW2 2232   2.685   2.037   0.012 -0.1177 -2.4400 -2.7385
  745SOL     OW 2233   2.147   2.682   2.231 -0.0948  0.2599 -0.1999
  745SOL    HW1 2234   2.060   2.653   2.187  1.3524 -2.7096 -2.3857
  745SOL    HW2 2235   2.141   2.767   2.286 -0.6749 -1.2058 -0.2876
  746SOL     OW 2236  -0.001   2.574   1.818  0.1484 -0.3156  0.2219
  746SOL    HW1 2237   0.101   2.582   1.795  1.0714 -3.0247 -2.0405
  746SOL    HW2 2238  -0.045   2.664   1.836 -0.0655  0.1741 -1.5095
  747SOL     OW 2239   0.014   1.769   1.628  0.1090 -0.1014 -0.1731
  747SOL    HW1 2240  -0.041   1.678   1.627 -1.5781 -1.2681  1.2975
  747SOL    HW2 2241   0.068   1.791   1.541 -2.9581  0.6532 -0.1246
  748SOL     OW 2242   1.825   2.773   2.852 -0.1981 -0.2573 -0.1917
  748SOL    HW1 2243   1.850   2.805   2.947 -2.4103 -3.4531  0.3921
  748SOL    HW2 2244   1.723   2.747   2.850 -0.1581  0.3998  2.3953
  749SOL     OW 2245   1.336   3.084   0.872 -0.0094  0.1708 -0.3051
  749SOL    HW1 2246   1.273   3.007   0.898  0.2346 -1.6880  0.9564
  749SOL    HW2 2247   1.337   3.100   0.773 -2.1601 -1.7967 -0.2927
  750SOL     OW 2248   2.319   0.202   1.882 -0.4777 -0.0877  0.6420
  750SOL    HW1 2249   2.347   0.274   1.812 -2.0882  1.6121 -1.9641
  750SOL    HW2 2250   2.262   0.245   1.963  1.2898  2.0415  0.9174
  751SOL     OW 2251   0.871   2.208   2.741 -1.0230  0.2063  0.7197
  751SOL    HW1 2252   0.910   2.217   2.837  0.4760 -0.2950  1.5581
  751SOL    HW2 2253   0.818   2.118   2.725 -0.2762 -0.5281  0.0233
  752SOL     OW 2254   1.259   0.856   1.523 -0.5590  0.3175  0.1876
  752SOL    HW1 2255   1.330   0.929   1.493 -0.3565 -1.0004 -0.4270
  752SOL    HW2 2256   1.304   0.770   1.557 -0.1061  2.3865 -1.3637
  753SOL     OW 2257   0.937   2.606   1.678  0.1298  0.3273  0.4956
  753SOL    HW1 2258   1.018   2.651   1.720  1.2904 -0.9422  1.1854
  753SOL    HW2 2259   0.854   2.671   1.654 -1.8369  0.5930 -1.4576
  754SOL     OW 2260   1.227   1.333   3.040 -0.0204 -0.3187 -0.3921
  754SOL    HW1 2261   1.243   1.257   2.966  0.3532  0.6157 -1.1707
  754SOL    HW2 2262   1.195   1.420   2.992 -1.7346  0.1650  2.3419
  755SOL     OW 2263   1.916   0.451   2.223 -0.2867  0.4669  0.1455
  755SOL    HW1 2264   2.005   0.436   2.276  0.0312 -0.6141 -0.4730
  755SOL    HW2 2265   1.834   0.457   2.294 -0.1601 -0.2966  3.4320
  756SOL     OW 2266   2.628   0.963   2.958 -0.3540  0.3193  0.6391
  756SOL    HW1 2267   2.733   0.947   2.984 -1.4399 -1.6889  1.1218
  756SOL    HW2 2268   2.566   0.895   2.997  0.2810  2.1800 -2.3267
  757SOL     OW 2269  -0.004   0.440   1.793  0.7409 -0.0455 -0.2006
  757SOL    HW1 2270  -0.008   0.543   1.811  0.1811  1.3578  1.4720
  757SOL    HW2 2271   0.075   0.420   1.729  0.2348  0.8589  1.0574
  758SOL     OW 2272   2.395   0.062   1.461 -0.5642 -0.7969  0.1775
  758SOL    HW1 2273   2.348  -0.019   1.506  0.3061 -1.3754  1.3212
  758SOL    HW2 2274   2.379   0.060   1.357  0.5716  1.7948 -3.0908
  759SOL     OW 2275   1.681   0.036   0.085 -0.2558 -0.1842 -0.3629
  759SOL    HW1 2276   1.636   0.064  -0.003  2.1421 -4.1444  1.3531
  759SOL    HW2 2277   1.786   0.046   0.080  0.2612  0.5612 -0.7972
  760SOL     OW 2278   2.717   2.041   2.808 -0.1736 -0.3408 -0.8820
  760SOL    HW1 2279   2.785   1.963   2.807 -1.1862  0.2921  0.8880
  760SOL    HW2 2280   2.713   2.094   2.900  3.1105 -0.9735  0.6719
  761SOL     OW 2281   1.949   1.723   1.625  0.1633 -0.4588  0.0809
  761SOL    HW1 2282   1.969   1.622   1.640 -0.7493  1.4749 -0.1191
  761SOL    HW2 2283   1.861   1.734   1.571  1.8562 -0.5205 -0.7552
  762SOL     OW 2284   0.496   2.410   0.999  0.2569  0.8254 -0.0766
  762SOL    HW1 2285   0.546   2.413   0.913  1.2296  0.8507  1.3897
  762SOL    HW2 2286   0.524   2.479   1.070  2.0266 -1.9891 -0.9732
  763SOL     OW 2287   2.112   1.514   2.988  0.3215  0.1762 -0.2303
  763SOL    HW1 2288   2.183   1.453   3.033  2.6362 -0.3193 -0.3419
  763SOL    HW2 2289   2.017   1.500   3.034 -1.3172  0.4142  2.5535
  764SOL     OW 2290   0.691   0.573   0.889  0.3168 -0.4252  0.3108
  764SOL    HW1 2291   0.644   0.492   0.844 -1.3348  0.0173 -2.3532
  764SOL    HW2 2292   0.785   0.559   0.929 -0.1273 -3.6316  0.3812
  765SOL     OW 2293   0.679   0.231   0.830 -0.5264  0.4036 -0.5265
  765SOL    HW1 2294   0.751   0.276   0.770  0.4928 -0.3145 -1.6832
  765SOL    HW2 2295   0.673   0.271   0.922  0.5637 -2.5300 -0.0876
  766SOL     OW 2296   2.973   2.093   3.097 -0.1022  0.2558 -0.0463
  766SOL    HW1 2297   2.894   2.104   3.167  0.5318  0.0349  2.8203
  766SOL    HW2 2298   3.026   2.177   3.082  0.4112 -0.7529  2.0333
  767SOL     OW 2299   2.901   1.571   0.535 -0.2871 -0.3107  0.4312
  767SOL    HW1 2300   2.801   1.582   0.537  0.1035  0.1173  0.0267
  767SOL    HW2 2301   2.946   1.593   0.629 -1.0232  2.4372  0.8954
  768SOL     OW 2302   1.075   0.235   0.329 -0.3344  0.0668  0.1423
  768SOL    HW1 2303   1.001   0.173   0.374  2.6520  0.3215 -1.8500
  768SOL    HW2 2304   1.158   0.179   0.298  0.7359 -0.1164  0.4767
  769SOL     OW 2305   1.140   1.839   2.232  0.8922 -0.5118 -0.5610
  769SOL    HW1 2306   1.097   1.868   2.324  0.0015 -1.0352  0.3440
  769SOL    HW2 2307   1.153   1.742   2.209 -1.4290  3.3961  2.1865
  770SOL     OW 2308   0.136   1.291   2.325  0.0307 -0.8352  0.9994
  770SOL    HW1 2309   0.123   1.308   2.427 -1.7215  1.9050  0.4203
  770SOL    HW2 2310   0.056   1.231   2.286 -1.3197  0.6839  0.9959
  771SOL     OW 2311   2.968   2.823   1.880 -0.2685 -0.3102 -0.1781
  771SOL    HW1 2312   2.915   2.868   1.800 -2.3575  0.4382  2.2315
  771SOL    HW2 2313   2.972   2.886   1.961  0.0151 -1.6721  4.4493
  772SOL     OW 2314   2.175   0.116   2.957 -0.1392  0.2028 -0.2102
  772SOL    HW1 2315   2.266   0.069   2.944 -2.8060 -1.2833 -1.2837
  772SOL    HW2 2316   2.191   0.207   3.000  0.3727 -0.8553  3.2674
  773SOL     OW 2317   0.704   2.065   2.511 -0.0217 -0.2183 -0.6515
  773SOL    HW1 2318   0.686   2.126   2.430  0.9981 -0.0337 -0.4417
  773SOL    HW2 2319   0.632   2.080   2.587 -0.1774  1.0196 -0.7637
  774SOL     OW 2320   2.043   0.035   2.653  0.1528  0.3284  0.3737
  774SOL    HW1 2321   2.047   0.132   2.695  0.0665  0.2408 -4.7424
  774SOL    HW2 2322   2.094  -0.043   2.698 -0.4999 -2.2738  0.0712
  775SOL     OW 2323   2.545   2.850   2.466 -0.2116  0.1886 -0.7080
  775SOL    HW1 2324   2.521   2.938   2.418 -1.5868  1.1951 -0.2040
  775SOL    HW2 2325   2.647   2.823   2.459  1.6673 -2.3724 -1.2771
  776SOL     OW 2326   0.032   1.259   0.258 -0.4602  0.4275 -0.0987
  776SOL    HW1 2327  -0.021   1.234   0.173 -1.3755  0.5739  0.5752
  776SOL    HW2 2328  -0.035   1.240   0.340 -3.0652  1.8241 -1.3889
  777SOL     OW 2329   0.229   2.723   0.493 -0.0640 -0.1967 -0.1144
  777SOL    HW1 2330   0.125   2.728   0.505 -2.5189  0.8549 -1.6047
  777SOL    HW2 2331   0.276   2.815   0.508 -1.0231  0.4884 -0.0981
  778SOL     OW 2332   1.337   1.990   0.188 -0.0764 -0.0556  0.1564
  778SOL    HW1 2333   1.302   1.983   0.285 -1.3531 -1.6782 -1.1349
  778SOL    HW2 2334   1.319   2.083   0.147 -2.3364 -0.0282 -0.8372
  779SOL     OW 2335   0.172   0.782   0.508  0.1524 -0.0937  0.2760
  779SOL    HW1 2336   0.109   0.699   0.503  1.1398 -0.8259 -0.6282
  779SOL    HW2 2337   0.124   0.860   0.564 -1.3717 -1.1581 -1.3263
  780SOL     OW 2338   0.021   0.274   2.324  0.1475 -0.3630  0.0977
  780SOL    HW1 2339   0.010   0.375   2.350 -0.1559 -1.5515  1.4123
  780SOL    HW2 2340   0.117   0.264   2.287 -1.4944 -0.2403 -0.3348
  781SOL     OW 2341   0.612   1.731   1.565 -0.5695  0.1853 -0.0084
  781SOL    HW1 2342   0.621   1.743   1.671  1.2543 -0.8141  1.1217
  781SOL    HW2 2343   0.522   1.679   1.540 -0.5245  1.8458 -1.1920
  782SOL     OW 2344   2.572   0.150   0.916  0.4212 -0.1957  0.3382
  782SOL    HW1 2345   2.512   0.179   0.836 -0.5310  0.8319  1.6819
  782SOL    HW2 2346   2.553   0.202   1.006 -0.2550  1.3407  2.0635
  783SOL     OW 2347   2.816   0.653   2.507  0.0736 -0.1291 -0.2231
  783SOL    HW1 2348   2.755   0.692   2.584  1.2391 -1.2851 -0.9440
  783SOL    HW2 2349   2.759   0.582   2.450  0.4976  1.6271 -0.6067
  784SOL     OW 2350   1.338   2.232   0.052 -0.8744 -0.9934 -0.2189
  784SOL    HW1 2351   1.428   2.262   0.101  1.4435  0.7408  1.5142
  784SOL    HW2 2352   1.361   2.189  -0.041 -1.3875  2.0449 -1.3954
  785SOL     OW 2353   2.175   0.366   3.076 -0.1520 -0.3027  0.1978
  785SOL    HW1 2354   2.088   0.349   3.127  2.8660  1.7809  0.2495
  785SOL    HW2 2355   2.196   0.462   3.041  1.3728 -1.2080 -0.6043
  786SOL     OW 2356   2.061   2.139   2.214 -0.4676  0.1000  0.1410
  786SOL    HW1 2357   2.024   2.040   2.201 -2.6504  1.1121 -3.1505
  786SOL    HW2 2358   2.154   2.136   2.266 -0.8376  0.2647 -1.0051
  787SOL     OW 2359   1.406   0.587   0.869 -0.0214 -0.1385 -0.1335
  787SOL    HW1 2360   1.357   0.677   0.876 -1.0626  0.3410 -0.9284
  787SOL    HW2 2361   1.414   0.548   0.774 -0.7986 -0.2392  0.7219
  788SOL     OW 2362   1.213   0.396   3.018 -0.1084 -0.0525 -0.0992
  788SOL    HW1 2363   1.121   0.427   2.980 -1.4980 -1.8121  1.0072
  788SOL    HW2 2364   1.287   0.475   3.024  2.2777 -0.1164  0.8587
  789SOL     OW 2365   2.571   0.111   1.797 -0.0177  0.0909  0.6524
  789SOL    HW1 2366   2.481   0.141   1.824  3.9103 -0.7254 -4.0095
  789SOL    HW2 2367   2.571   0.006   1.790 -0.1214  0.2427 -1.3430
  790SOL     OW 2368   2.566   2.649   0.837  1.1236 -0.1824  0.4276
  790SOL    HW1 2369   2.654   2.646   0.778 -4.0232  0.4908 -0.7128
  790SOL    HW2 2370   2.558   2.748   0.879  0.0480  0.2531  0.6183
  791SOL     OW 2371   1.961   1.261   0.227  0.7899 -0.1469 -0.2389
  791SOL    HW1 2372   1.866   1.223   0.257  1.9903 -1.4449 -2.9061
  791SOL    HW2 2373   2.026   1.181   0.213  0.1081 -2.0905  1.1722
  792SOL     OW 2374   0.422   1.994   2.176 -0.1602 -0.5358  0.0738
  792SOL    HW1 2375   0.454   2.072   2.233  0.0012  0.8657 -4.0599
  792SOL    HW2 2376   0.334   1.952   2.208 -1.8218  1.3317 -1.0603
  793SOL     OW 2377   2.130   1.562   2.108 -0.0023 -0.1150  0.6355
  793SOL    HW1 2378   2.193   1.632   2.078 -3.9294 -2.3112  1.6609
  793SOL    HW2 2379   2.119   1.485   2.040 -1.8103  0.8275 -1.8028
  794SOL     OW 2380   0.440   1.383   2.482 -0.3536 -0.1038 -0.4541
  794SOL    HW1 2381   0.448   1.336   2.394 -1.0586  1.5791  2.2566
  794SOL    HW2 2382   0.391   1.473   2.469 -2.4082 -3.3932  0.4956
  795SOL     OW 2383   2.512   2.333   1.802  0.2482 -0.2127 -0.2971
  795SOL    HW1 2384   2.517   2.339   1.907  1.2597 -2.6200  2.8129
  795SOL    HW2 2385   2.430   2.280   1.769 -2.3300  2.0050 -0.4203
  796SOL     OW 2386   3.072   1.048   2.709 -0.0154 -0.3334 -0.3214
  796SOL    HW1 2387   2.986   1.097   2.736  3.6524 -0.3852 -0.9465
  796SOL    HW2 2388   3.150   1.054   2.778 -3.4984  3.3398  1.1768
  797SOL     OW 2389   0.772   0.672   1.340 -0.2828  0.3276 -0.4531
  797SOL    HW1 2390   0.832   0.719   1.411  0.2960 -3.2692  0.4460
  797SOL    HW2 2391   0.713   0.741   1.284 -0.0411 -0.4284 -0.8291
  798SOL     OW 2392   1.265   0.430   1.056 -0.8030  0.3168 -0.5255
  798SOL    HW1 2393   1.275   0.489   1.139  0.9896 -0.8055 -2.2970
  798SOL    HW2 2394   1.324   0.455   0.977  0.5097  1.5056 -1.1181
  799SOL     OW 2395   1.888   2.745   1.021 -0.8419  0.5383  0.2667
  799SOL    HW1 2396   1.896   2.666   1.086 -1.4436  0.0114  2.2350
  799SOL    HW2 2397   1.922   2.722   0.924  0.9186  1.5411 -3.2331
  800SOL     OW 2398   2.968   0.816   1.868  0.2216 -0.2866  0.1462
  800SOL    HW1 2399   2.972   0.919   1.859  0.1218 -0.4047 -1.2043
  800SOL    HW2 2400   3.002   0.787   1.959  2.7284 -0.2313 -0.6724
  801SOL     OW 2401   1.981   2.127   0.069 -0.2677 -0.2489  0.5825
  801SOL    HW1 2402   1.930   2.051   0.018  2.2581  0.3076  0.8752
  801SOL    HW2 2403   2.081   2.107   0.083  0.4325  2.5963  3.1531
  802SOL     OW 2404   0.700   0.715   2.535 -0.6887 -0.4861  0.1628
  802SOL    HW1 2405   0.752   0.723   2.447  1.4586 -1.6752  1.6036
  802SOL    HW2 2406   0.605   0.677   2.528  0.2156  2.0494  0.1387
  803SOL     OW 2407   0.942   0.078   0.875 -0.5444 -0.3119 -0.6831
  803SOL    HW1 2408   1.028   0.120   0.918  0.4681  2.9520 -0.3687
  803SOL    HW2 2409   0.930   0.113   0.778 -0.0221  1.4403 -0.7311
  804SOL     OW 2410   0.288   3.086   2.168 -0.6219  0.6828  0.1090
  804SOL    HW1 2411   0.260   3.179   2.200  1.5229  1.1970 -1.9873
  804SOL    HW2 2412   0.222   3.048   2.098  2.0016 -0.7275 -0.4032
  805SOL     OW 2413   2.337   0.401   0.299  0.3482 -0.2885  0.3098
  805SOL    HW1 2414   2.413   0.389   0.366 -1.4203 -0.5994  1.0035
  805SOL    HW2 2415   2.350   0.339   0.218  0.0149 -1.5721 -1.0900
  806SOL     OW 2416   0.624   2.475   1.819  0.0545  0.0863  0.7332
  806SOL    HW1 2417   0.581   2.568   1.825  0.3314 -0.4096  1.2554
  806SOL    HW2 2418   0.711   2.476   1.764 -2.0115 -1.7763 -0.3337
  807SOL     OW 2419   2.487   0.932   0.437  0.6890  0.0833  0.0838
  807SOL    HW1 2420   2.582   0.885   0.437  1.8282 -1.9268  0.9619
  807SOL    HW2 2421   2.466   0.978   0.351 -4.4641 -1.4224  0.3760
  808SOL     OW 2422   0.611   2.004   2.881 -0.3711  0.2999 -0.0906
  808SOL    HW1 2423   0.603   2.047   2.973 -1.7131 -0.5105 -0.7697
  808SOL    HW2 2424   0.652   1.910   2.878 -2.3295 -0.8190  2.2459
  809SOL     OW 2425   2.539   2.005   1.890 -0.4011 -0.2583 -0.0962
  809SOL    HW1 2426   2.625   2.066   1.912  3.1184  1.2456  1.6394
  809SOL    HW2 2427   2.527   1.982   1.791 -0.1206 -0.3595 -0.4296
  810SOL     OW 2428   2.142   1.095   0.523 -0.3220 -0.0628  0.5466
  810SOL    HW1 2429   2.128   1.030   0.600 -0.2935 -1.4798  0.3705
  810SOL    HW2 2430   2.113   1.197   0.540 -2.8509  3.0703  0.6561
  811SOL     OW 2431   1.355   2.564   1.204 -0.5006  0.2641 -0.0900
  811SOL    HW1 2432   1.358   2.466   1.237 -0.6286 -0.3062  0.6765
  811SOL    HW2 2433   1.313   2.623   1.280 -1.7566 -2.8306  2.8834
  812SOL     OW 2434   1.400   0.778   1.937 -0.2151 -0.4905 -0.2621
  812SOL    HW1 2435   1.313   0.735   1.901 -2.5492  0.2846 -2.2413
  812SOL    HW2 2436   1.393   0.880   1.968 -1.1261  2.0971 -1.9680
  813SOL     OW 2437   1.587   2.061   2.423 -0.1016 -0.3491 -0.3267
  813SOL    HW1 2438   1.631   1.985   2.477  1.7241  0.2498  0.9682
  813SOL    HW2 2439   1.592   2.044   2.320  1.4391 -0.0199  0.7546
  814SOL     OW 2440   2.964   1.630   2.898 -0.4291  1.0398  0.1997
  814SOL    HW1 2441   3.048   1.590   2.934 -0.1089  1.3830 -2.5806
  814SOL    HW2 2442   2.971   1.733   2.894 -2.0460 -1.0337  1.0448
  815SOL     OW 2443   2.190   2.900   2.760 -0.4122 -0.0965 -0.3735
  815SOL    HW1 2444   2.177   2.810   2.807 -0.0189  1.0268 -0.9848
  815SOL    HW2 2445   2.277   2.946   2.786 -0.9615  1.0684 -0.6443
  816SOL     OW 2446   1.567   0.356   1.683 -0.4421  0.5225 -0.1584
  816SOL    HW1 2447   1.609   0.258   1.693 -1.3845 -2.9950 -2.6275
  816SOL    HW2 2448   1.500   0.380   1.757  0.1562  1.0890 -0.6729
  817SOL     OW 2449   0.390   1.184   2.656  0.4562 -0.2269 -0.1210
  817SOL    HW1 2450   0.294   1.186   2.697 -0.9436  1.1228 -1.6130
  817SOL    HW2 2451   0.394   1.261   2.585  0.0915  0.5112  1.9499
  818SOL     OW 2452   1.975   0.814   0.444 -0.3038  0.0109 -0.1271
  818SOL    HW1 2453   2.076   0.802   0.425 -0.3458  1.9841  1.4631
  818SOL    HW2 2454   1.958   0.869   0.529 -0.2258  0.7977  1.1888
  819SOL     OW 2455   2.726   2.989   3.073 -0.0430  0.4510  0.7786
  819SOL    HW1 2456   2.737   2.915   3.141 -0.6898 -0.6795 -2.3611
  819SOL    HW2 2457   2.668   2.957   2.995 -0.0395 -0.7768  1.1464
  820SOL     OW 2458   1.245   1.041   0.523  0.1343  0.4204  0.2055
  820SOL    HW1 2459   1.283   1.129   0.564 -0.7861 -1.8937 -1.7140
  820SOL    HW2 2460   1.219   0.975   0.596  0.3041 -0.3262 -2.4613
  821SOL     OW 2461   0.039   1.242   0.717  0.6269 -0.2858  0.2744
  821SOL    HW1 2462   0.005   1.235   0.817 -3.3588  0.3172  2.9672
  821SOL    HW2 2463   0.108   1.321   0.712 -3.0383  0.9040 -1.8316
  822SOL     OW 2464   2.514   1.796   2.458  0.1220 -0.5173 -0.1496
  822SOL    HW1 2465   2.513   1.868   2.533  0.5822  0.4259 -0.2058
  822SOL    HW2 2466   2.429   1.802   2.401  0.2311 -0.0375 -0.1648
  823SOL     OW 2467   1.989   0.909   1.160  0.1346  0.3950  0.8367
  823SOL    HW1 2468   1.947   0.888   1.248 -0.8172 -0.8097 -1.5238
  823SOL    HW2 2469   1.917   0.954   1.095 -2.8024  0.4693  0.7115
  824SOL     OW 2470   0.219   1.983   2.781 -0.0925 -0.1488 -0.4882
  824SOL    HW1 2471   0.238   1.926   2.867  2.0221 -2.7983 -3.0957
  824SOL    HW2 2472   0.285   1.952   2.705  0.9921 -0.6087  3.1975
  825SOL     OW 2473   1.330   1.063   0.265 -0.0171  0.2715 -0.0679
  825SOL    HW1 2474   1.324   1.161   0.223 -0.3307  2.5812  0.1032
  825SOL    HW2 2475   1.264   1.043   0.341  3.6153  2.0028 -0.8638
  826SOL     OW 2476   1.931   0.616   1.580 -0.1210  0.0632 -0.5130
  826SOL    HW1 2477   2.031   0.598   1.600  0.7211  0.4762 -1.5165
  826SOL    HW2 2478   1.878   0.533   1.543 -1.6452 -0.1117 -2.8450
  827SOL     OW 2479   0.686   1.207   0.319  0.5069 -0.7824  0.8566
  827SOL    HW1 2480   0.765   1.163   0.267 -0.0858 -1.2304 -1.1492
  827SOL    HW2 2481   0.623   1.136   0.368  0.0713 -0.6419  0.5493
  828SOL     OW 2482   2.666   0.120   1.512  0.3542  0.3636  0.1295
  828SOL    HW1 2483   2.564   0.091   1.494  0.6214 -3.4978  1.2781
  828SOL    HW2 2484   2.679   0.140   1.611  0.5520  0.9278  0.8003
  829SOL     OW 2485   2.967   2.414   2.843 -0.1004  0.2828  0.4756
  829SOL    HW1 2486   2.899   2.381   2.918 -0.6759 -2.6890  0.6206
  829SOL    HW2 2487   2.986   2.518   2.853  1.5581 -0.8233  4.2405
  830SOL     OW 2488   2.879   0.940   3.038  0.2860 -0.4865  0.1450
  830SOL    HW1 2489   2.930   1.023   3.077 -0.7463 -0.6509 -3.3206
  830SOL    HW2 2490   2.890   0.850   3.088  1.9505  1.1345 -0.0635
  831SOL     OW 2491   0.011   0.547   0.415  0.0170  0.1640 -0.4089
  831SOL    HW1 2492  -0.017   0.490   0.496 -1.2883  0.4552 -0.4294
  831SOL    HW2 2493   0.046   0.491   0.335 -0.7731 -2.0446  2.6573
  832SOL     OW 2494   1.843   0.777   3.061 -0.4987  0.0392  0.6003
  832SOL    HW1 2495   1.745   0.800   3.044  1.8590  1.8723 -0.0020
  832SOL    HW2 2496   1.849   0.690   3.111  0.3295 -0.0075  0.9421
  833SOL     OW 2497   2.423   2.048   0.443 -0.5183 -0.0145 -0.0150
  833SOL    HW1 2498   2.325   2.023   0.459  2.9758 -0.3516  0.2051
  833SOL    HW2 2499   2.479   1.958   0.446 -0.1200 -1.6808  0.5390
  834SOL     OW 2500   0.185   0.123   0.546  0.6081  0.3449 -0.0083
  834SOL    HW1 2501   0.250   0.051   0.572 -0.2821  2.3230 -0.3115
  834SOL    HW2 2502   0.172   0.134   0.441  0.0424  0.3127  1.2011
  835SOL     OW 2503   2.475   1.524   1.163  0.5324  0.1746 -0.2086
  835SOL    HW1 2504   2.544   1.588   1.202  1.4452 -0.0370  5.0179
  835SOL    HW2 2505   2.501   1.491   1.069 -1.1408  1.7291  0.3244
  836SOL     OW 2506   1.629   0.827   2.586  0.0217  0.0335  0.5308
  836SOL    HW1 2507   1.534   0.790   2.600  0.1330 -0.6074 -1.8392
  836SOL    HW2 2508   1.653   0.845   2.486  0.5319 -0.9069  0.0201
  837SOL     OW 2509   1.659   0.067   0.607  0.4795  0.4474 -0.0437
  837SOL    HW1 2510   1.641   0.157   0.656  0.0027  1.0500 -0.2416
  837SOL    HW2 2511   1.617   0.062   0.514  1.0528 -0.6004  1.2974
  838SOL     OW 2512   1.233   1.358   2.706 -0.0633  0.1468 -0.7392
  838SOL    HW1 2513   1.216   1.441   2.767  1.1166 -0.2003  0.5462
  838SOL    HW2 2514   1.152   1.340   2.644 -0.1314  0.5759  1.2741
  839SOL     OW 2515   1.600   0.367   0.972 -0.5081 -0.6228 -0.0927
  839SOL    HW1 2516   1.611   0.431   1.053 -0.6854  0.5566 -2.7595
  839SOL    HW2 2517   1.606   0.265   0.989  0.7389 -0.1635 -0.1695
  840SOL     OW 2518   2.616   2.929   1.738  0.5599  0.3206 -0.1631
  840SOL    HW1 2519   2.599   2.874   1.652 -1.2783 -1.2910  0.3852
  840SOL    HW2 2520   2.572   2.888   1.823 -0.5443  1.7501  1.4049
  841SOL     OW 2521   1.544   0.856   2.968 -0.0138 -0.1175 -0.3686
  841SOL    HW1 2522   1.469   0.922   2.990  0.1262 -2.2025 -0.0570
  841SOL    HW2 2523   1.566   0.865   2.866 -2.7412 -0.1953 -1.0334
  842SOL     OW 2524   0.795   1.553   0.996  0.3903  0.2697 -0.0191
  842SOL    HW1 2525   0.762   1.640   1.049  2.3974 -0.2667 -2.3725
  842SOL    HW2 2526   0.725   1.524   0.923 -1.4942  0.9249  0.7854
  843SOL     OW 2527   0.118   0.123   1.429  0.1959 -0.3563 -0.2733
  843SOL    HW1 2528   0.165   0.141   1.523  1.8504 -1.4395  1.4986
  843SOL    HW2 2529   0.132   0.027   1.392  0.2075 -1.4597 -2.3731
  844SOL     OW 2530   0.774   2.485   0.245  0.1243  0.6035  0.1687
  844SOL    HW1 2531   0.734   2.495   0.346 -0.2602 -1.6955  1.9534
  844SOL    HW2 2532   0.703   2.524   0.177  0.3764  1.2100  0.2422
  845SOL     OW 2533   1.693   2.942   1.340 -0.0624  0.7081 -0.5253
  845SOL    HW1 2534   1.710   2.952   1.443 -2.3025  0.9499 -1.3982
  845SOL    HW2 2535   1.638   3.022   1.307 -2.0879 -0.9936 -3.6912
  846SOL     OW 2536   1.716   2.959   0.911  0.3166 -0.1797 -0.3130
  846SOL    HW1 2537   1.684   2.971   0.816  1.6392 -0.4469  0.4016
  846SOL    HW2 2538   1.801   2.897   0.916  0.6840 -1.0043  1.3404
  847SOL     OW 2539   2.092   1.614   0.211 -0.0883  0.5171 -0.1077
  847SOL    HW1 2540   2.030   1.595   0.295 -0.8243 -1.1454 -1.3740
  847SOL    HW2 2541   2.043   1.597   0.125  0.3277 -1.1775 -0.7810
  848SOL     OW 2542   2.467   0.809   2.667  0.1318  0.3164  0.1388
  848SOL    HW1 2543   2.484   0.908   2.685 -1.1325  0.6381 -1.6182
  848SOL    HW2 2544   2.386   0.796   2.598 -1.6871 -0.0520 -4.3764
  849SOL     OW 2545   2.430   0.843   2.315 -0.4790  0.2320  0.4714
  849SOL    HW1 2546   2.482   0.776   2.260  0.4662  0.6489 -2.6045
  849SOL    HW2 2547   2.365   0.797   2.384 -0.7153  0.0844 -0.9882
  850SOL     OW 2548   1.581   0.129   1.278  1.0018  0.8050 -0.0760
  850SOL    HW1 2549   1.569   0.111   1.177  0.6028  3.1684  1.9273
  850SOL    HW2 2550   1.504   0.087   1.331  0.9491 -3.3505 -3.7645
  851SOL     OW 2551   0.465   1.757   0.685  0.0594  0.4640  0.1023
  851SOL    HW1 2552   0.472   1.860   0.666  0.7668  2.3612  4.0241
  851SOL    HW2 2553   0.555   1.704   0.691 -0.5946 -0.7012 -0.9071
  852SOL     OW 2554   0.803   2.114   1.661 -0.4260  0.2246 -0.1805
  852SOL    HW1 2555   0.811   2.199   1.603 -0.7325  0.2668  0.4918
  852SOL    HW2 2556   0.744   2.123   1.752 -4.0768 -0.1012  1.3318
  853SOL     OW 2557   2.543   1.554   2.585 -0.0971 -0.0841 -0.3335
  853SOL    HW1 2558   2.490   1.472   2.543 -1.5181 -0.8644  1.9682
  853SOL    HW2 2559   2.549   1.637   2.524  0.5604  1.1826 -2.4711
  854SOL     OW 2560   2.421   1.412   1.779 -0.7334 -0.4047 -0.3369
  854SOL    HW1 2561   2.468   1.388   1.690  0.5617  1.0924 -0.2127
  854SOL    HW2 2562   2.404   1.331   1.837 -1.0840 -0.3047 -0.6842
  855SOL     OW 2563   2.034   2.332   0.957 -0.3372 -0.0593  0.1638
  855SOL    HW1 2564   2.084   2.412   0.913  1.0011 -0.5430 -0.4719
  855SOL    HW2 2565   2.070   2.325   1.055  1.4626 -1.6772  2.7302
  856SOL     OW 2566   1.402   1.371   0.919  0.2044 -0.7022 -0.3136
  856SOL    HW1 2567   1.412   1.472   0.953  0.9984 -1.5471 -2.3991
  856SOL    HW2 2568   1.343   1.312   0.974  1.4146  2.5625 -1.7514
  857SOL     OW 2569   2.988   2.621   1.071  0.2579 -1.3574 -0.0543
  857SOL    HW1 2570   2.902   2.563   1.082  0.0204 -1.5865  0.1521
  857SOL    HW2 2571   3.057   2.588   1.007  1.9386 -1.3541  0.8427
  858SOL     OW 2572   2.308   2.162   1.702 -0.7301  0.2826  1.0190
  858SOL    HW1 2573   2.219   2.175   1.649  0.7601 -0.3841  2.1869
  858SOL    HW2 2574   2.368   2.097   1.647  0.1688  1.5292  0.1497
  859SOL     OW 2575   2.450   0.502   1.038  0.2493  0.2126 -0.5055
  859SOL    HW1 2576   2.517   0.512   0.965 -2.7541 -1.6612 -0.1435
  859SOL    HW2 2577   2.482   0.430   1.106  2.0613 -1.0097 -0.0371
  860SOL     OW 2578   1.960   2.774   0.468  0.4806 -0.1621  0.1921
  860SOL    HW1 2579   1.932   2.745   0.374 -4.1301 -0.5796 -1.4383
  860SOL    HW2 2580   2.023   2.855   0.465  0.3356 -1.1578  0.9895
  861SOL     OW 2581   1.102   2.604   2.761 -0.0739  0.0033  0.3169
  861SOL    HW1 2582   1.133   2.701   2.740 -2.2233  2.4706 -2.1239
  861SOL    HW2 2583   1.159   2.556   2.829  2.0244  0.9014 -0.5861
  862SOL     OW 2584   2.927   2.536   1.572  0.1621  0.0809 -0.4145
  862SOL    HW1 2585   3.020   2.542   1.619  1.1461  0.3738 -0.8517
  862SOL    HW2 2586   2.883   2.633   1.545 -2.4813  3.5249 -1.9464
  863SOL     OW 2587   1.868   2.621   0.211  0.1800 -0.3348  0.1557
  863SOL    HW1 2588   1.903   2.526   0.193  2.5376  2.5067 -1.4049
  863SOL    HW2 2589   1.769   2.617   0.247 -1.4114 -0.0646  2.5784
  864SOL     OW 2590   1.869   1.188   2.940 -0.0614  0.3434  0.4527
  864SOL    HW1 2591   1.872   1.134   2.850 -0.1677  0.7196 -0.7818
  864SOL    HW2 2592   1.950   1.187   3.000 -2.6944 -0.8690 -0.3004
  865SOL     OW 2593   2.187   1.781   0.689 -0.2905 -0.3804 -0.0651
  865SOL    HW1 2594   2.259   1.788   0.765 -0.2221  0.5770 -4.1606
  865SOL    HW2 2595   2.092   1.755   0.723  2.1144 -1.0020 -1.0109
  866SOL     OW 2596   2.956   2.881   1.024 -0.3142 -0.2297  0.1292
  866SOL    HW1 2597   3.002   2.912   0.933  1.4531 -0.8468 -0.7022
  866SOL    HW2 2598   2.968   2.780   1.043 -3.2269  2.1148 -0.7721
  867SOL     OW 2599   0.420   1.330   0.870 -0.0144  0.3661 -0.0553
  867SOL    HW1 2600   0.446   1.232   0.843  0.6305 -0.8645  2.0603
  867SOL    HW2 2601   0.357   1.374   0.800  0.6096 -0.9389  0.9754
  868SOL     OW 2602   0.824   1.924   2.021 -0.0150 -0.0012  0.1367
  868SOL    HW1 2603   0.786   1.901   2.117  1.6164 -0.8639 -0.7525
  868SOL    HW2 2604   0.799   2.016   1.994  1.0531 -2.2791  2.1283
  869SOL     OW 2605   2.480   1.998   1.589  0.2954  0.2223 -0.0989
  869SOL    HW1 2606   2.568   2.048   1.570 -0.0180  2.0379 -0.7961
  869SOL    HW2 2607   2.463   1.917   1.528  0.2255 -1.6232  1.2908
  870SOL     OW 2608   2.270   2.591   1.233  0.7714 -0.9089  0.4136
  870SOL    HW1 2609   2.207   2.506   1.225 -0.6330 -2.0873 -1.6018
  870SOL    HW2 2610   2.361   2.569   1.279 -0.2959 -0.0375 -2.6981
  871SOL     OW 2611   2.989   2.077   0.565 -0.2315 -0.0154 -0.1639
  871SOL    HW1 2612   2.920   2.104   0.635  1.0489 -0.3841  3.2290
  871SOL    HW2 2613   2.942   2.035   0.481  2.3405 -0.7449  0.1075
  872SOL     OW 2614   2.146   0.499   1.699  0.1777  0.2771  0.1636
  872SOL    HW1 2615   2.086   0.479   1.782 -1.6309 -0.7315 -1.0996
  872SOL    HW2 2616   2.246   0.468   1.706 -1.4805  0.9127  1.7121
  873SOL     OW 2617   1.735   2.090   2.970  0.0668  0.5774 -0.1302
  873SOL    HW1 2618   1.718   2.191   2.970  0.7216  1.3360  0.2030
  873SOL    HW2 2619   1.685   2.038   2.895  0.1758 -0.8828 -0.0382
  874SOL     OW 2620   0.665   2.467   0.758  0.2102  0.4757  0.2321
  874SOL    HW1 2621   0.643   2.561   0.806  2.8420  4.2634 -0.7809
  874SOL    HW2 2622   0.760   2.432   0.782 -2.2031 -0.2973 -1.1111
  875SOL     OW 2623   2.269   1.561   1.476  0.2267 -0.0806  0.5030
  875SOL    HW1 2624   2.352   1.608   1.509 -2.8094  1.4037 -1.1911
  875SOL    HW2 2625   2.241   1.592   1.382  3.4156  0.4952 -1.9479
  876SOL     OW 2626   0.152   2.231   2.692 -0.0624 -0.6693 -0.1405
  876SOL    HW1 2627   0.173   2.136   2.723  2.4425  1.0126 -1.4195
  876SOL    HW2 2628   0.172   2.311   2.758  0.1310  0.5416  1.5105
  877SOL     OW 2629   2.754   2.675   0.662  0.3587  0.0368  0.1577
  877SOL    HW1 2630   2.808   2.757   0.656 -0.2190  0.0326 -0.9416
  877SOL    HW2 2631   2.818   2.590   0.658  1.7638  0.0718 -0.1792
  878SOL     OW 2632   2.879   1.442   2.234  0.2040  0.0123 -1.1272
  878SOL    HW1 2633   2.981   1.457   2.214  0.8746 -4.0790  0.1629
  878SOL    HW2 2634   2.847   1.473   2.331 -1.1238 -0.9734 -0.4841
  879SOL     OW 2635   2.389   0.023   1.181 -0.1948 -0.0682  0.2662
  879SOL    HW1 2636   2.431  -0.072   1.199  0.4263 -0.7512  1.5386
  879SOL    HW2 2637   2.320   0.033   1.104 -0.2975 -1.2667 -1.5537
  880SOL     OW 2638   0.720   0.447   2.194  0.2656  0.7324 -0.3887
  880SOL    HW1 2639   0.639   0.388   2.237 -1.5931 -2.6018  0.1540
  880SOL    HW2 2640   0.769   0.394   2.114  2.5779 -0.9191  0.3484
  881SOL     OW 2641   0.898   0.045   0.415  0.4998  0.0858 -0.3913
  881SOL    HW1 2642   0.932  -0.038   0.476  0.9047 -0.4411  1.0549
  881SOL    HW2 2643   0.889   0.011   0.319 -0.2197 -0.8112  0.2168
  882SOL     OW 2644   2.719   1.614   1.667  0.3528  0.3001 -0.0922
  882SOL    HW1 2645   2.819   1.617   1.631  3.0307 -1.9921 -0.4959
  882SOL    HW2 2646   2.700   1.672   1.748  1.3977 -2.2684 -0.7891
  883SOL     OW 2647   0.965   0.587   0.971  0.1972 -0.3072 -0.0366
  883SOL    HW1 2648   0.949   0.682   1.018  0.5378 -1.9762 -0.6380
  883SOL    HW2 2649   1.063   0.558   0.961  1.0219  0.1107  1.3551
  884SOL     OW 2650   1.175   1.849   1.044 -0.0186  0.7444 -0.6513
  884SOL    HW1 2651   1.155   1.813   0.947 -0.4962  0.3916  0.7887
  884SOL    HW2 2652   1.131   1.944   1.057 -0.6698  2.6753  2.7994
  885SOL     OW 2653   2.292   1.853   2.307 -0.8583  0.2064  0.3945
  885SOL    HW1 2654   2.231   1.815   2.381  1.4341  0.9258 -1.2985
  885SOL    HW2 2655   2.279   1.960   2.298 -1.5589 -0.3986 -2.3371
  886SOL     OW 2656   2.666   0.468   1.780  0.1710 -0.0876  0.1231
  886SOL    HW1 2657   2.715   0.394   1.837  0.3332 -1.4571  3.6121
  886SOL    HW2 2658   2.727   0.539   1.735 -0.3490 -0.3865 -0.6085
  887SOL     OW 2659   0.104   2.052   1.248 -0.6774  0.1039 -0.0237
  887SOL    HW1 2660   0.037   2.005   1.185  0.8475 -0.1759 -0.3101
  887SOL    HW2 2661   0.160   2.128   1.202  0.3852 -1.2858  1.7418
  888SOL     OW 2662   0.544   1.306   1.560 -0.2566 -0.0332 -0.2154
  888SOL    HW1 2663   0.613   1.320   1.479  3.7340 -3.3367 -0.5354
  888SOL    HW2 2664   0.498   1.214   1.563 -0.0967 -0.8431  2.4293
  889SOL     OW 2665   0.843   2.474   2.140  0.2717  0.0342 -0.6956
  889SOL    HW1 2666   0.785   2.401   2.103  0.9442  2.4685  1.4744
  889SOL    HW2 2667   0.914   2.503   2.069 -1.5790  0.3399  1.7404
  890SOL     OW 2668   2.358   2.474   0.192  0.2149  0.1754 -0.1923
  890SOL    HW1 2669   2.362   2.545   0.118 -0.5258 -0.9523  0.1084
  890SOL    HW2 2670   2.301   2.501   0.276  0.9567  0.6269 -1.0402
  891SOL     OW 2671   2.633   1.522   0.641 -0.1593  0.0953 -0.4105
  891SOL    HW1 2672   2.660   1.460   0.725  3.4504 -2.0321 -2.2141
  891SOL    HW2 2673   2.530   1.551   0.639  0.9929 -0.7818  0.3903
  892SOL     OW 2674   0.268   0.272   2.218 -0.5126  0.7307  0.8016
  892SOL    HW1 2675   0.260   0.274   2.116  0.9248 -0.0960  0.5033
  892SOL    HW2 2676   0.366   0.293   2.250 -1.4501 -2.1048  0.9556
  893SOL     OW 2677   1.683   0.218   2.766  0.1144  0.0041 -0.0549
  893SOL    HW1 2678   1.765   0.285   2.768 -0.4307 -0.9147  1.5038
  893SOL    HW2 2679   1.596   0.269   2.742  1.2491 -1.0216 -1.4047
  894SOL     OW 2680   2.219   2.020   0.050 -0.4926  0.1830 -0.2489
  894SOL    HW1 2681   2.216   1.974  -0.039  2.5142 -0.6746  2.0987
  894SOL    HW2 2682   2.215   1.952   0.132  0.0653  0.6104 -0.8691
  895SOL     OW 2683   2.882   1.428   0.860  0.8965 -0.0158 -0.0907
  895SOL    HW1 2684   2.931   1.392   0.943 -2.8496  2.3559  0.6200
  895SOL    HW2 2685   2.952   1.469   0.792  2.5418  0.0811 -0.3273
  896SOL     OW 2686   1.731   1.779   1.160 -0.4643 -0.3184 -0.2359
  896SOL    HW1 2687   1.783   1.843   1.094  0.9197 -0.2409 -0.2727
  896SOL    HW2 2688   1.628   1.783   1.153 -0.0398  1.1826  2.9437
  897SOL     OW 2689   0.273   0.553   3.052 -0.2037 -0.1742  0.3493
  897SOL    HW1 2690   0.211   0.621   3.001 -4.0567 -0.4905 -0.0555
  897SOL    HW2 2691   0.368   0.594   3.080  3.2329 -0.6548 -0.2641
  898SOL     OW 2692   0.567   2.830   1.125  0.0370  0.1569  0.1365
  898SOL    HW1 2693   0.512   2.915   1.153  1.8398  0.0394 -2.2083
  898SOL    HW2 2694   0.667   2.849   1.141 -1.3335  0.3919 -0.3850
  899SOL     OW 2695   2.718   0.959   1.242 -0.4336  0.5175  0.2144
  899SOL    HW1 2696   2.626   0.968   1.197 -2.3449 -0.6845  0.3570
  899SOL    HW2 2697   2.803   0.962   1.183 -0.1921 -2.1849  0.9118
  900SOL     OW 2698   0.997   2.546   2.355  0.3484 -0.0349 -0.6846
  900SOL    HW1 2699   0.926   2.519   2.279  2.4372 -1.6088 -2.5451
  900SOL    HW2 2700   0.963   2.533   2.452 -4.2640  0.9551  1.3298
  901SOL     OW 2701   1.936   2.412   1.359 -0.0832  0.7279 -0.0490
  901SOL    HW1 2702   1.913   2.428   1.254  2.1168  0.1780 -1.9206
  901SOL    HW2 2703   2.037   2.377   1.370  0.0738  1.0296 -1.8791
  902SOL     OW 2704   2.583   1.648   1.438 -0.1120 -0.1624  0.2444
  902SOL    HW1 2705   2.621   1.636   1.535 -0.3912 -2.3843 -1.0817
  902SOL    HW2 2706   2.624   1.574   1.375  0.7703 -2.4593 -1.0855
  903SOL     OW 2707   0.247   2.445   2.022 -0.1320 -0.4357  0.3509
  903SOL    HW1 2708   0.166   2.385   2.003  1.0006 -0.1581  0.4211
  903SOL    HW2 2709   0.277   2.512   1.945  0.5321  0.9520 -0.8628
  904SOL     OW 2710   1.986   0.754   2.431 -0.1352  0.3513  0.9485
  904SOL    HW1 2711   1.944   0.686   2.495 -1.7065 -0.5039  1.2107
  904SOL    HW2 2712   1.943   0.754   2.336  3.1556  1.6892 -0.1635
  905SOL     OW 2713   2.789   0.055   2.589 -0.6551 -0.5481  0.1112
  905SOL    HW1 2714   2.861  -0.016   2.617 -0.1849  1.0702 -0.2344
  905SOL    HW2 2715   2.833   0.140   2.548 -0.3513 -2.7169  0.5987
  906SOL     OW 2716   0.192   1.784   1.867  0.6502  0.2100  0.4876
  906SOL    HW1 2717   0.142   1.785   1.777  0.1984  3.5587  1.9704
  906SOL    HW2 2718   0.283   1.837   1.861  0.2513  1.8768  2.5671
  907SOL     OW 2719   0.170   2.500   1.012 -0.0489  0.2222  0.2862
  907SOL    HW1 2720   0.218   2.579   1.061 -0.0917  0.3916  2.9553
  907SOL    HW2 2721   0.178   2.485   0.909 -0.3797  3.1528 -1.0791
  908SOL     OW 2722   2.691   2.969   0.452 -0.0950 -0.4799 -0.0323
  908SOL    HW1 2723   2.654   3.007   0.362  1.4797  3.2207  1.1739
  908SOL    HW2 2724   2.743   2.881   0.454 -0.8790  1.6851  0.9543
  909SOL     OW 2725   0.823   0.913   2.671  0.3753 -0.2425  0.0978
  909SOL    HW1 2726   0.770   0.832   2.627  1.4937 -3.4028  2.6281
  909SOL    HW2 2727   0.892   0.954   2.605 -1.3984  1.3529 -0.8226
  910SOL     OW 2728   1.762   1.823   2.080 -0.1939 -0.4973  0.2006
  910SOL    HW1 2729   1.816   1.855   1.999  0.0495 -0.1610  2.5968
  910SOL    HW2 2730   1.678   1.881   2.098 -0.1856 -2.0890 -1.1386
  911SOL     OW 2731   1.791   2.982   1.603 -0.1642  0.2771  0.1732
  911SOL    HW1 2732   1.868   2.920   1.565  0.2677 -0.5833 -0.3763
  911SOL    HW2 2733   1.752   2.937   1.688 -0.6045 -0.2086  1.5003
  912SOL     OW 2734   2.866   0.947   0.760 -0.1867 -0.4850 -0.4514
  912SOL    HW1 2735   2.876   0.950   0.865 -1.2144  1.7044  0.0617
  912SOL    HW2 2736   2.837   1.042   0.726 -0.4538 -0.0441 -1.4971
  913SOL     OW 2737   2.554   1.281   1.574 -0.4274  0.2182  0.1913
  913SOL    HW1 2738   2.612   1.199   1.562 -0.5649  2.1977  0.9309
  913SOL    HW2 2739   2.533   1.333   1.483 -0.0217  1.6265 -1.6532
  914SOL     OW 2740   2.804   0.523   1.227  0.0788  0.1780  0.0446
  914SOL    HW1 2741   2.806   0.427   1.266  0.1965 -0.7318 -1.3105
  914SOL    HW2 2742   2.738   0.582   1.289 -1.2211  0.9418 -0.3725
  915SOL     OW 2743   1.213   0.821   1.002  0.2285 -0.3248  0.3363
  915SOL    HW1 2744   1.244   0.764   1.084  0.8298 -0.6591  1.3884
  915SOL    HW2 2745   1.112   0.830   0.996  0.7427  0.5999 -0.6974
  916SOL     OW 2746   0.580   0.026   0.667 -0.8337  0.3615 -0.1830
  916SOL    HW1 2747   0.617   0.104   0.728  1.0779  0.4459  1.3102
  916SOL    HW2 2748   0.586   0.061   0.567  3.5366  1.5996 -0.1739
  917SOL     OW 2749   2.808   2.615   1.981 -0.4622  0.4182 -0.4680
  917SOL    HW1 2750   2.705   2.638   1.975  2.0473  1.6455 -1.1599
  917SOL    HW2 2751   2.868   2.673   1.917  0.8821  1.5980  0.7566
  918SOL     OW 2752   0.996   2.211   3.033 -0.4401 -0.4783  0.1388
  918SOL    HW1 2753   0.942   2.213   3.124 -2.7632  0.3940 -0.8339
  918SOL    HW2 2754   1.037   2.117   3.017 -0.3217 -1.3694 -1.7128
  919SOL     OW 2755   0.917   1.584   2.801  0.3046 -0.1440 -0.4854
  919SOL    HW1 2756   0.937   1.661   2.732  0.6917 -1.1185 -1.6751
  919SOL    HW2 2757   0.855   1.507   2.762 -0.6502 -1.1930 -0.0544
  920SOL     OW 2758   1.254   2.012   2.491 -0.4235  0.5567 -0.2325
  920SOL    HW1 2759   1.262   2.029   2.393 -1.2415 -0.2257 -1.9516
  920SOL    HW2 2760   1.275   1.914   2.520  0.5843 -1.0280  0.4744
  921SOL     OW 2761   1.112   0.046   2.566  0.5324 -0.5219  0.1782
  921SOL    HW1 2762   1.086   0.070   2.465  0.1605  0.7120 -2.3347
  921SOL    HW2 2763   1.031   0.008   2.614  0.6594 -1.9441 -1.1495
  922SOL     OW 2764   2.153   2.386   2.813  0.7153 -0.0363 -0.7830
  922SOL    HW1 2765   2.135   2.284   2.832 -1.4832 -0.4818 -0.7930
  922SOL    HW2 2766   2.111   2.421   2.719 -1.8391  1.8691  0.9339
  923SOL     OW 2767   1.237   2.708   0.247 -0.6234  0.4349  0.1503
  923SOL    HW1 2768   1.295   2.748   0.321 -1.1083  0.5976 -1.2692
  923SOL    HW2 2769   1.254   2.605   0.223  1.3763 -0.9023 -1.7543
  924SOL     OW 2770   2.910   1.567   0.083  0.4084 -0.0340 -0.0511
  924SOL    HW1 2771   2.812   1.553   0.040 -0.2637 -1.6067 -0.3636
  924SOL    HW2 2772   2.985   1.505   0.048  1.4306  0.4222  0.5482
  925SOL     OW 2773   3.105   2.905   1.585  0.1064 -0.3200  0.2973
  925SOL    HW1 2774   3.009   2.933   1.616 -0.3582  0.0068 -0.0861
  925SOL    HW2 2775   3.109   2.882   1.487  0.6191  1.4932  1.4481
  926SOL     OW 2776   1.349   2.876   1.313  0.3019  0.5325 -0.2826
  926SOL    HW1 2777   1.399   2.855   1.223 -3.1722 -1.4158 -0.2976
  926SOL    HW2 2778   1.367   2.973   1.348  0.8648  1.0132  0.4174
  927SOL     OW 2779   0.272   2.632   1.800 -0.2903 -0.0254  0.6486
  927SOL    HW1 2780   0.258   2.576   1.713 -1.6434  0.1423 -0.2338
  927SOL    HW2 2781   0.260   2.733   1.774 -0.2378 -1.7460 -0.6177
  928SOL     OW 2782   1.568   2.014   2.129 -0.2608  0.0797  0.0111
  928SOL    HW1 2783   1.607   2.109   2.116 -1.6125 -0.6565  0.2592
  928SOL    HW2 2784   1.466   2.022   2.112  3.8933  2.1208 -2.0145
  929SOL     OW 2785   2.411   2.481   2.853  0.4232  0.0697 -0.2410
  929SOL    HW1 2786   2.313   2.430   2.851 -2.5509  1.6799 -0.2542
  929SOL    HW2 2787   2.450   2.501   2.760 -2.9565 -0.8615  0.2989
  930SOL     OW 2788   2.177   2.017   1.069  0.2556  0.0517  0.4087
  930SOL    HW1 2789   2.151   1.976   1.161 -1.4313 -2.6951 -0.0876
  930SOL    HW2 2790   2.250   2.090   1.065  0.2438 -0.3848 -0.9152
  931SOL     OW 2791   0.538   1.706   2.656  0.1195 -0.1915 -0.3163
  931SOL    HW1 2792   0.601   1.748   2.723  0.5865 -1.4311  1.3632
  931SOL    HW2 2793   0.553   1.605   2.659  0.1934 -1.9326 -1.4624
  932SOL     OW 2794   0.456   0.051   2.911 -0.2398  0.3346 -0.3273
  932SOL    HW1 2795   0.549   0.083   2.878 -3.0315 -1.9020  0.1137
  932SOL    HW2 2796   0.451  -0.043   2.954  1.2324 -0.8767 -1.3990
  933SOL     OW 2797   1.064   0.769   2.990 -0.2918  0.0170 -0.2418
  933SOL    HW1 2798   1.134   0.828   3.041  1.7485 -1.9017 -0.0995
  933SOL    HW2 2799   0.982   0.827   2.963  1.0303  0.7572 -1.7742
  934SOL     OW 2800   0.875   3.040   2.714 -0.1491  0.3750  0.0988
  934SOL    HW1 2801   0.867   2.970   2.635 -1.6650 -0.0002  2.0058
  934SOL    HW2 2802   0.876   2.984   2.805  1.9337  1.6564  2.2899
  935SOL     OW 2803   3.078   0.515   0.785 -0.1486 -0.5956 -0.2329
  935SOL    HW1 2804   3.105   0.431   0.738  1.1267  0.6882  1.8402
  935SOL    HW2 2805   2.988   0.559   0.751 -1.0738  1.2075 -1.1685
  936SOL     OW 2806   1.105   2.910   0.149 -0.7413 -0.0163  0.6002
  936SOL    HW1 2807   1.150   2.918   0.054  1.3447 -1.5285 -2.3467
  936SOL    HW2 2808   1.147   2.832   0.203 -1.5196 -1.1806 -1.4347
  937SOL     OW 2809   1.897   2.619   2.105 -0.3167  0.0374  0.1021
  937SOL    HW1 2810   1.829   2.681   2.155  0.6642 -2.8416 -1.2048
  937SOL    HW2 2811   1.888   2.641   2.005 -2.0612  1.2398 -0.1209
  938SOL     OW 2812   2.727   2.102   1.563  0.4835  0.6579 -0.6291
  938SOL    HW1 2813   2.712   2.195   1.612 -0.8897 -0.5819  0.5033
  938SOL    HW2 2814   2.816   2.048   1.593  0.2889 -1.2655 -1.5582
  939SOL     OW 2815   2.824   1.251   2.467 -0.7064 -0.6865 -0.3905
  939SOL    HW1 2816   2.899   1.229   2.396  0.7982 -1.4803 -0.1299
  939SOL    HW2 2817   2.832   1.200   2.558  1.7856  0.3513  1.3231
  940SOL     OW 2818   0.997   0.448   2.658  0.6737  0.1046 -0.3771
  940SOL    HW1 2819   1.032   0.360   2.702 -0.1066 -3.2263 -0.3935
  940SOL    HW2 2820   0.890   0.437   2.651 -2.3835 -3.4804  0.2695
  941SOL     OW 2821   0.044   2.856   2.218 -0.1015 -0.7769  0.3485
  941SOL    HW1 2822   0.026   2.748   2.227 -1.6939 -2.8293  0.2424
  941SOL    HW2 2823   0.102   2.890   2.297  0.3782  2.6552  2.9608
  942SOL     OW 2824   0.043   0.122   2.552 -0.3892 -0.5869  0.1419
  942SOL    HW1 2825   0.122   0.143   2.615 -1.6018 -1.4447 -0.9077
  942SOL    HW2 2826   0.021   0.192   2.479  0.7138 -1.8346 -1.7190
  943SOL     OW 2827   2.109   1.692   2.436  0.0825  0.1888  0.2170
  943SOL    HW1 2828   2.133   1.636   2.353 -0.1403  1.4383 -0.7403
  943SOL    HW2 2829   2.077   1.619   2.509  0.1337 -2.3432  1.8965
  944SOL     OW 2830   2.169   2.328   1.459 -0.2047  0.1385 -0.1549
  944SOL    HW1 2831   2.236   2.394   1.506  2.1936 -1.8610  1.2762
  944SOL    HW2 2832   2.111   2.282   1.530 -0.9459 -0.2268  0.1120
  945SOL     OW 2833   0.618   1.483   0.361  0.0992 -0.0193 -0.2596
  945SOL    HW1 2834   0.677   1.546   0.304  1.6440  1.2254  0.7901
  945SOL    HW2 2835   0.631   1.382   0.346 -0.1815 -0.8293 -1.6500
  946SOL     OW 2836   0.437   0.924   2.515 -0.0188 -0.0502  0.4583
  946SOL    HW1 2837   0.346   0.917   2.461 -0.2827  2.6751  0.0253
  946SOL    HW2 2838   0.434   1.010   2.566 -1.3803  0.6652 -2.7107
  947SOL     OW 2839   1.545   0.575   0.025 -0.3819 -0.1117 -0.4973
  947SOL    HW1 2840   1.525   0.593  -0.075  0.4106 -1.7763  1.0688
  947SOL    HW2 2841   1.464   0.599   0.089 -2.3471  3.7049  2.1109
  948SOL     OW 2842   2.052   3.085   2.195 -0.4608  0.0153  0.0426
  948SOL    HW1 2843   2.016   3.065   2.098  0.9113  1.2394  0.9851
  948SOL    HW2 2844   2.018   3.015   2.266  1.0088  0.2141  2.2774
  949SOL     OW 2845   0.690   2.543   0.498 -0.0361  0.3237 -0.0544
  949SOL    HW1 2846   0.644   2.638   0.497  0.4494 -0.1539 -2.1547
  949SOL    HW2 2847   0.704   2.511   0.596  0.2681 -2.7903 -1.5972
  950SOL     OW 2848   0.255   2.159   3.059  0.7221  0.5698  0.5267
  950SOL    HW1 2849   0.168   2.218   3.059  1.3634  0.4354 -0.4697
  950SOL    HW2 2850   0.251   2.106   2.970  0.7537  1.1579 -0.3334
  951SOL     OW 2851   1.180   2.859   2.713 -0.2936  0.1856  0.3313
  951SOL    HW1 2852   1.136   2.922   2.651  0.0273 -2.2739  1.9935
  951SOL    HW2 2853   1.275   2.887   2.744 -0.3603 -0.6609 -0.3355
  952SOL     OW 2854   0.094   1.641   0.437 -0.0869 -0.5041  0.2510
  952SOL    HW1 2855   0.162   1.713   0.463  1.5849  2.3103 -2.5231
  952SOL    HW2 2856   0.042   1.601   0.520 -1.7577 -1.3845 -0.0573
  953SOL     OW 2857   2.518   1.783   0.181  0.3954  0.3599  0.8957
  953SOL    HW1 2858   2.502   1.688   0.214  1.0385 -2.1892  0.1736
  953SOL    HW2 2859   2.545   1.793   0.080 -2.3001 -0.1339  0.3326
  954SOL     OW 2860   2.191   0.530   0.983  0.4463  0.2866 -0.1946
  954SOL    HW1 2861   2.166   0.549   0.889 -2.2433 -0.4040  0.4247
  954SOL    HW2 2862   2.295   0.532   0.997  0.1519 -0.9720 -1.9308
  955SOL     OW 2863   0.252   2.689   1.364 -0.4246  0.3157 -0.4334
  955SOL    HW1 2864   0.148   2.668   1.360 -0.6738 -1.4152  0.3510
  955SOL    HW2 2865   0.291   2.701   1.271 -1.4245  0.8233  0.0517
  956SOL     OW 2866   2.760   2.458   2.452  0.3240  0.3680  0.1503
  956SOL    HW1 2867   2.756   2.355   2.455 -0.6832  4.9868 -1.0410
  956SOL    HW2 2868   2.779   2.493   2.354  0.2186  1.5291 -1.6225
  957SOL     OW 2869   1.557   2.005   2.742  0.6189 -0.4577 -0.2423
  957SOL    HW1 2870   1.519   1.903   2.753 -2.5983 -1.9345  0.8937
  957SOL    HW2 2871   1.546   2.033   2.642  0.6074 -0.3235 -1.8464
  958SOL     OW 2872   2.727   2.324   2.957 -0.1584  0.3243  0.2251
  958SOL    HW1 2873   2.648   2.390   2.936 -2.3781  0.9222 -1.3244
  958SOL    HW2 2874   2.721   2.262   3.042 -0.2161 -1.9588  0.1142
  959SOL     OW 2875   0.247   2.741   0.128  0.4289 -0.2276 -0.1425
  959SOL    HW1 2876   0.143   2.749   0.116 -0.1614  1.6385  2.1885
  959SOL    HW2 2877   0.278   2.669   0.198 -2.9545  0.4304 -0.8250
  960SOL     OW 2878   1.981   0.440   1.940 -0.1037  0.5067  0.4745
  960SOL    HW1 2879   1.934   0.522   1.902 -0.6704  0.0083  0.2110
  960SOL    HW2 2880   1.974   0.431   2.046  0.6977 -1.2113  0.5475
  961SOL     OW 2881   2.567   1.831   1.030  0.3688  0.1498 -0.4049
  961SOL    HW1 2882   2.543   1.916   0.976  0.4661  0.0800  0.5169
  961SOL    HW2 2883   2.555   1.842   1.132 -2.0672  2.3244  0.3463
  962SOL     OW 2884   1.276   0.897   0.047  0.4755 -0.2887  0.2526
  962SOL    HW1 2885   1.270   0.967  -0.031  0.6761  2.7931  0.0304
  962SOL    HW2 2886   1.314   0.945   0.132  1.7489 -1.4148  0.8777
  963SOL     OW 2887   2.208   2.550   1.851  0.3773 -0.0728  0.4669
  963SOL    HW1 2888   2.231   2.471   1.913  0.1206  1.0495  0.5962
  963SOL    HW2 2889   2.210   2.645   1.898 -1.6967 -1.0330 -2.5582
  964SOL     OW 2890   2.413   0.428   1.688  0.5843 -0.3108 -0.2968
  964SOL    HW1 2891   2.507   0.436   1.732 -1.0174  1.9248  1.9702
  964SOL    HW2 2892   2.408   0.402   1.590 -0.7226  0.0196  2.7943
  965SOL     OW 2893   2.602   3.076   0.204  0.1377  0.0936 -0.5723
  965SOL    HW1 2894   2.663   3.061   0.119  0.2158 -0.5764 -1.9985
  965SOL    HW2 2895   2.509   3.061   0.170 -1.4588 -0.0106 -2.1339
  966SOL     OW 2896   2.468   2.464   2.303 -0.0873  0.4203  0.2520
  966SOL    HW1 2897   2.371   2.471   2.351 -1.5002 -0.2471 -0.2781
  966SOL    HW2 2898   2.479   2.533   2.228 -0.9659 -0.2617 -0.5397
  967SOL     OW 2899   2.818   2.785   2.456  0.4834 -0.2489  0.4711
  967SOL    HW1 2900   2.856   2.715   2.388 -0.1395  2.4095  0.6080
  967SOL    HW2 2901   2.897   2.840   2.493  0.8528  0.3387  1.7600
  968SOL     OW 2902   1.913   1.077   2.663  0.1647 -0.2579 -0.4053
  968SOL    HW1 2903   1.869   1.125   2.587 -0.3230 -0.2025  2.1607
  968SOL    HW2 2904   1.894   0.979   2.663 -2.6094 -1.4875  0.3078
  969SOL     OW 2905   2.730   2.454   1.081  0.0416 -0.3731 -0.1179
  969SOL    HW1 2906   2.640   2.436   1.032  0.2305  1.6791  0.6384
  969SOL    HW2 2907   2.777   2.365   1.101 -0.4859  0.4379  1.3955
  970SOL     OW 2908   1.049   2.133   1.781  0.3094 -0.2911 -0.4501
  970SOL    HW1 2909   0.949   2.123   1.750 -1.3984  1.7193 -1.7105
  970SOL    HW2 2910   1.056   2.162   1.881  0.6369 -0.4207 -1.1564
  971SOL     OW 2911   2.811   2.108   1.883 -0.1454  0.4101  0.2833
  971SOL    HW1 2912   2.841   2.196   1.931  1.7598  1.3183 -1.3156
  971SOL    HW2 2913   2.871   2.091   1.801  0.4551 -0.6993 -0.0457
  972SOL     OW 2914   2.032   2.361   0.207  0.6093  0.4134  0.0835
  972SOL    HW1 2915   2.015   2.271   0.154  1.1267 -0.7562  2.5421
  972SOL    HW2 2916   2.033   2.349   0.311  0.9253 -0.2037 -0.4869
  973SOL     OW 2917   1.333   1.068   1.950 -0.2093  0.1517 -0.0588
  973SOL    HW1 2918   1.264   1.045   1.871 -0.4802  0.0948 -0.4981
  973SOL    HW2 2919   1.327   1.169   1.981  1.1768  0.4842  2.2506
  974SOL     OW 2920   1.598   0.594   1.978 -0.3389  0.5602 -0.8501
  974SOL    HW1 2921   1.679   0.623   1.917  0.3198  0.1968  1.1542
  974SOL    HW2 2922   1.517   0.661   1.967  1.4874  1.1906 -2.8840
  975SOL     OW 2923   2.365   3.023   0.045  0.1366  0.2740  0.1957
  975SOL    HW1 2924   2.286   2.955   0.064  0.0931  1.0120  0.6251
  975SOL    HW2 2925   2.392   3.029  -0.054  0.8523  1.2051 -1.3667
  976SOL     OW 2926   1.933   2.892   2.362  0.0680 -0.1977 -0.0987
  976SOL    HW1 2927   1.838   2.864   2.342 -1.3975 -0.6968  0.0941
  976SOL    HW2 2928   1.962   2.850   2.451  1.6511  0.7765 -2.9853
  977SOL     OW 2929   0.447   0.636   0.995 -0.5004 -0.5837 -0.3732
  977SOL    HW1 2930   0.376   0.631   0.923  2.8260 -2.4002 -1.7118
  977SOL    HW2 2931   0.547   0.611   0.963  1.6191  1.6292 -1.4115
   3.10000   3.10000   3.10000
