1000 SPC/Fw water molecules t=   1.84000 step= 1840
 2931
    1SOL     OW    1   2.512   0.332   2.661 -0.3347 -0.3689  0.3766
    1SOL    HW1    2   2.504   0.230   2.680  1.2481 -2.1349  1.5608
    1SOL    HW2    3   2.542   0.387   2.746 -2.3093 -1.7165  0.4297
    2SOL     OW    4   2.736   2.856   1.353  1.1227 -0.5950 -0.8803
    2SOL    HW1    5   2.812   2.876   1.291 -1.8383 -2.2918 -0.3232
    2SOL    HW2    6   2.717   2.930   1.420  2.3310 -2.0897 -1.3587
    3SOL     OW    7   2.735   2.444   0.425  0.0430  0.4432  0.6131
    3SOL    HW1    8   2.645   2.391   0.402  0.2473 -3.0456  2.5693
    3SOL    HW2    9   2.730   2.519   0.497  0.3998 -0.9459  3.9349
    4SOL     OW   10   1.254   1.548   2.443 -0.4226  0.8577 -0.0108
    4SOL    HW1   11   1.177   1.526   2.376 -2.0507 -0.3768  2.1877
    4SOL    HW2   12   1.229   1.524   2.542  0.4830 -1.7056 -2.2245
    5SOL     OW   13   1.144   1.587   2.927  0.5413  0.2054 -0.1769
    5SOL    HW1   14   1.206   1.670   2.947  1.9654  2.5180 -0.9819
    5SOL    HW2   15   1.062   1.608   2.861 -2.0540 -0.5052 -2.9844
    6SOL     OW   16   0.174   1.844   0.037 -0.1935 -0.3736  0.2592
    6SOL    HW1   17   0.114   1.875   0.112  1.7524  2.0683 -0.0652
    6SOL    HW2   18   0.236   1.773   0.075 -3.1936 -0.8950 -1.4426
    7SOL     OW   19   2.529   0.900   1.044  0.2959 -1.3052 -0.9325
    7SOL    HW1   20   2.448   0.851   1.086 -0.7439  1.9358  0.9755
    7SOL    HW2   21   2.539   0.892   0.942 -0.3598  1.4811  0.6612
    8SOL     OW   22   0.430   0.718   1.507  0.4938  0.6471  0.4089
    8SOL    HW1   23   0.528   0.694   1.533  0.9662 -0.2821 -0.0258
    8SOL    HW2   24   0.415   0.751   1.409 -1.0033  0.0282 -0.0206
    9SOL     OW   25   1.086   0.905   2.349 -0.5273  0.1060  0.4857
    9SOL    HW1   26   1.158   0.951   2.280  1.1115  0.2541 -2.4129
    9SOL    HW2   27   1.078   0.802   2.353  1.4620 -1.1528 -0.8750
   10SOL     OW   28   0.630   1.459   1.275 -1.0156  1.2551 -0.1052
   10SOL    HW1   29   0.542   1.450   1.219  1.5467  0.1337  0.1670
   10SOL    HW2   30   0.651   1.553   1.309 -2.2426  1.8282  0.9410
   11SOL     OW   31   2.320   2.830   0.936  0.3855 -0.3481  0.0693
   11SOL    HW1   32   2.263   2.792   1.014 -1.9972 -0.1161  3.3197
   11SOL    HW2   33   2.420   2.845   0.971  0.6857  1.1865  0.6612
   12SOL     OW   34   1.475   0.838   0.486 -0.5754 -0.4563 -0.0139
   12SOL    HW1   35   1.376   0.830   0.515  0.3246 -1.2568  1.3545
   12SOL    HW2   36   1.489   0.784   0.401  2.3209  2.7844  1.5217
   13SOL     OW   37   2.439   0.750   1.807 -0.2434 -0.0346  0.3502
   13SOL    HW1   38   2.383   0.691   1.868 -0.1555 -0.7582 -0.9369
   13SOL    HW2   39   2.449   0.709   1.711  0.3808  0.2798  2.5536
   14SOL     OW   40   1.939   3.049   0.610 -0.2410 -0.2589  0.8446
   14SOL    HW1   41   1.857   3.108   0.585  2.7713 -1.6608  1.6287
   14SOL    HW2   42   1.961   3.045   0.710 -0.3752  1.0388  0.1764
   15SOL     OW   43   1.908   2.130   2.673  0.0669 -0.4161 -0.0784
   15SOL    HW1   44   1.852   2.107   2.755  0.7830  1.1354 -3.7739
   15SOL    HW2   45   1.917   2.050   2.610 -1.0222  0.7375  1.0664
   16SOL     OW   46   1.549   1.771   3.018 -0.0384 -0.3257 -0.8860
   16SOL    HW1   47   1.542   1.690   3.081  0.2393 -0.8189  0.9586
   16SOL    HW2   48   1.627   1.829   3.047  0.6266 -0.9125 -0.0987
   17SOL     OW   49   0.090   0.464   0.180 -0.5918  0.0225  0.5066
   17SOL    HW1   50   0.182   0.477   0.135  0.4140 -3.3817 -1.6257
   17SOL    HW2   51   0.022   0.502   0.114 -1.8009 -0.0773 -1.0985
   18SOL     OW   52   0.871   2.844   2.188 -0.4522 -0.5845  0.8051
   18SOL    HW1   53   0.834   2.759   2.239 -2.3078  0.7027  0.2605
   18SOL    HW2   54   0.934   2.821   2.105 -0.6512 -0.9534 -0.7284
   19SOL     OW   55   0.514   0.954   1.926 -0.2565 -0.4395  0.3308
   19SOL    HW1   56   0.537   0.895   2.004  0.2622 -0.8622 -0.2553
   19SOL    HW2   57   0.596   0.986   1.875 -0.6070 -0.2980  1.4724
   20SOL     OW   58   0.246   2.780   0.718 -0.0233 -0.3989 -0.1034
   20SOL    HW1   59   0.140   2.778   0.720 -2.8789 -0.1977 -0.8924
   20SOL    HW2   60   0.282   2.686   0.685 -0.8053  3.0256  0.6203
   21SOL     OW   61   2.782   0.283   1.997  0.2175 -0.3902 -0.5212
   21SOL    HW1   62   2.742   0.197   1.956  2.1115 -0.9010 -0.7200
   21SOL    HW2   63   2.861   0.261   2.060  1.9902  2.1928 -0.3999
   22SOL     OW   64   2.412   0.185   0.115  0.4349  0.7177 -0.2484
   22SOL    HW1   65   2.436   0.096   0.059 -0.8350 -3.8486 -1.6625
   22SOL    HW2   66   2.325   0.225   0.079 -1.3664  0.6343 -3.3839
   23SOL     OW   67   2.817   0.502   0.666  0.1106 -0.7592 -0.0059
   23SOL    HW1   68   2.899   0.441   0.665  1.1670  0.2559 -2.4827
   23SOL    HW2   69   2.837   0.596   0.634 -2.9284  1.9747  2.4579
   24SOL     OW   70   0.291   1.922   0.449 -0.6981  0.5439  0.1663
   24SOL    HW1   71   0.285   1.992   0.369  0.4501  0.8641  1.5837
   24SOL    HW2   72   0.383   1.872   0.448  1.3590 -0.2791  0.8004
   25SOL     OW   73   2.288   0.602   0.247 -0.5312 -0.1576  0.3820
   25SOL    HW1   74   2.277   0.613   0.144 -0.3446 -1.6418 -0.3874
   25SOL    HW2   75   2.350   0.524   0.273 -0.2096  1.0640  1.2709
   26SOL     OW   76   2.447   2.152   2.114  0.2303 -0.0372  1.3076
   26SOL    HW1   77   2.520   2.219   2.140 -0.0072 -0.2126  0.8812
   26SOL    HW2   78   2.480   2.096   2.034  1.0708  0.2191  0.2081
   27SOL     OW   79   0.643   3.007   0.135  0.1596 -0.1691  0.3353
   27SOL    HW1   80   0.711   3.082   0.125 -3.5046 -3.9730  1.5298
   27SOL    HW2   81   0.583   2.991   0.051  0.4666  2.4874  0.7480
   28SOL     OW   82   1.563   0.179   0.331 -0.3770  0.1738 -0.6170
   28SOL    HW1   83   1.605   0.113   0.265 -2.1805 -0.0369  1.8754
   28SOL    HW2   84   1.637   0.242   0.374  0.1890  1.4224  0.6549
   29SOL     OW   85   2.025   0.557   0.315  0.2292  0.1584 -0.2871
   29SOL    HW1   86   2.003   0.625   0.393  2.2677 -0.9808  1.5477
   29SOL    HW2   87   2.125   0.559   0.290  2.6880  2.1239  1.0060
   30SOL     OW   88   0.193   2.136   0.889  0.7581  0.4745 -0.2299
   30SOL    HW1   89   0.179   2.044   0.850  1.1168  1.5407 -0.5131
   30SOL    HW2   90   0.106   2.191   0.886  1.4061 -1.3890 -0.6581
   31SOL     OW   91   2.095   0.101   2.391  0.2249  0.3428 -0.4098
   31SOL    HW1   92   2.045   0.056   2.469  0.2743  0.6812 -0.5858
   31SOL    HW2   93   2.041   0.082   2.302  0.5625 -1.2695  0.3221
   32SOL     OW   94   3.072   3.066   0.243  0.1181 -0.1161 -0.5211
   32SOL    HW1   95   3.037   2.971   0.265 -0.3298  0.3446  0.5656
   32SOL    HW2   96   3.173   3.077   0.241 -0.9421  0.4264  2.0556
   33SOL     OW   97   0.853   0.292   0.631 -0.1827  0.3460  0.1769
   33SOL    HW1   98   0.842   0.214   0.565  0.1356  2.2453 -1.3894
   33SOL    HW2   99   0.943   0.331   0.630 -2.3326  1.0631 -1.3272
   34SOL     OW  100   0.325   2.660   1.036  0.4848  0.0332 -0.3069
   34SOL    HW1  101   0.279   2.670   0.942 -1.3538 -0.3520  0.3885
   34SOL    HW2  102   0.416   2.707   1.048 -1.1948 -0.9933 -1.0354
   35SOL     OW  103   0.093   0.210   1.885  0.2029  0.5867 -0.2791
   35SOL    HW1  104   0.134   0.120   1.921  0.1392  0.8928  0.9215
   35SOL    HW2  105   0.056   0.191   1.789  2.0065 -1.2896 -1.6444
   36SOL     OW  106   1.882   1.210   1.488 -0.0623  0.0835 -0.8349
   36SOL    HW1  107   1.977   1.178   1.522  0.0365 -1.8788  1.2902
   36SOL    HW2  108   1.886   1.301   1.441  2.4528 -0.6466  1.5959
   37SOL     OW  109   1.159   0.265   1.015  0.2413 -0.3140 -0.0770
   37SOL    HW1  110   1.176   0.362   0.994  0.8124 -0.3143  2.8584
   37SOL    HW2  111   1.228   0.195   0.976  0.0361  0.4564  0.7297
   38SOL     OW  112   1.131   2.794   2.445 -0.5372 -0.3411 -0.5525
   38SOL    HW1  113   1.060   2.753   2.510  1.1748 -2.3568  1.5356
   38SOL    HW2  114   1.094   2.873   2.393 -0.1295 -0.8786  0.4018
   39SOL     OW  115   2.461   1.395   2.987 -0.1723  0.3728  0.1624
   39SOL    HW1  116   2.530   1.325   3.023  2.0922  1.2957  0.9737
   39SOL    HW2  117   2.377   1.407   3.045 -0.9318 -1.7823 -1.3265
   40SOL     OW  118   2.057   2.502   2.512  0.0761 -0.3549  0.4035
   40SOL    HW1  119   2.020   2.594   2.534 -1.0847 -1.3861 -2.2537
   40SOL    HW2  120   1.971   2.440   2.501 -0.4632 -2.3212  1.4707
   41SOL     OW  121   3.024   0.705   2.816 -0.2107 -0.0211 -0.3915
   41SOL    HW1  122   3.019   0.794   2.876  1.6610  0.6269  0.5338
   41SOL    HW2  123   2.934   0.656   2.810 -1.4628 -0.8824 -0.8723
   42SOL     OW  124   1.704   1.773   0.488  0.1115  0.2363  0.0085
   42SOL    HW1  125   1.679   1.671   0.488  1.5940  0.4358  1.5782
   42SOL    HW2  126   1.740   1.802   0.396 -2.5896 -1.7497  0.1707
   43SOL     OW  127   0.469   1.706   1.118 -0.9547  0.9833  0.1895
   43SOL    HW1  128   0.461   1.611   1.083  2.6279  0.7528 -2.1943
   43SOL    HW2  129   0.398   1.737   1.186 -0.0074  0.8634 -0.7480
   44SOL     OW  130   1.689   2.356   2.938  0.2916  0.0934  0.3817
   44SOL    HW1  131   1.615   2.405   2.990  1.2708  0.2151 -0.9712
   44SOL    HW2  132   1.737   2.414   2.866  0.0156 -0.9778 -1.0900
   45SOL     OW  133   0.355   1.926   2.640  0.4211  1.0300 -0.5562
   45SOL    HW1  134   0.309   1.935   2.545 -2.5052  1.1247 -1.8491
   45SOL    HW2  135   0.431   1.853   2.643 -0.6898 -3.6780  2.8789
   46SOL     OW  136   1.330   0.716   0.238 -0.0733 -0.2847  0.2799
   46SOL    HW1  137   1.332   0.809   0.203 -1.5161  0.7134  0.4439
   46SOL    HW2  138   1.288   0.645   0.177 -0.1025  0.2610  0.2507
   47SOL     OW  139   0.140   2.366   1.594 -0.0381 -0.2638 -0.3205
   47SOL    HW1  140   0.120   2.278   1.648  0.3358  0.3088 -0.5967
   47SOL    HW2  141   0.135   2.349   1.490  1.5140 -3.9288  0.6443
   48SOL     OW  142   2.633   0.732   0.138  0.0551 -0.5543 -0.2233
   48SOL    HW1  143   2.623   0.674   0.225  0.1840 -0.5044 -1.9276
   48SOL    HW2  144   2.736   0.736   0.111  0.6348 -0.3824  0.2427
   49SOL     OW  145   0.321   0.842   1.735 -0.1839 -0.3021 -0.4217
   49SOL    HW1  146   0.411   0.852   1.780 -0.1913 -0.3105  0.5540
   49SOL    HW2  147   0.332   0.825   1.632 -0.3716  0.0881 -1.1862
   50SOL     OW  148   1.690   1.096   0.317 -0.3569 -0.0651  0.0573
   50SOL    HW1  149   1.727   0.998   0.313  2.1038 -0.6042 -1.2349
   50SOL    HW2  150   1.660   1.118   0.417  1.3522  1.1016  1.9485
   51SOL     OW  151   2.988   1.760   0.304 -0.5604 -0.0246 -0.0074
   51SOL    HW1  152   2.959   1.698   0.228 -1.1894  0.8371 -1.1096
   51SOL    HW2  153   3.064   1.721   0.363 -1.2924  0.0997 -0.8437
   52SOL     OW  154   0.784   2.164   0.578  0.3796  0.5592 -0.2171
   52SOL    HW1  155   0.685   2.143   0.560 -0.4767 -0.8409 -0.9069
   52SOL    HW2  156   0.827   2.094   0.644  0.5178 -1.6424 -1.6868
   53SOL     OW  157   0.289   0.461   1.457 -0.1987  0.2932  0.5794
   53SOL    HW1  158   0.308   0.560   1.480  0.5124  0.3609  1.4876
   53SOL    HW2  159   0.301   0.447   1.356 -0.5787 -0.4719  0.7213
   54SOL     OW  160   1.727   0.419   0.006  0.2172  0.2731 -0.1301
   54SOL    HW1  161   1.809   0.373   0.053  0.1129 -0.1477  1.6467
   54SOL    HW2  162   1.644   0.419   0.070  0.1375 -1.1061  0.2975
   55SOL     OW  163   0.790   2.932   0.627  0.0715 -1.0231  0.4558
   55SOL    HW1  164   0.720   3.008   0.616 -0.0841 -1.2701  2.0391
   55SOL    HW2  165   0.882   2.966   0.593 -1.6177  1.4523 -1.1769
   56SOL     OW  166   0.530   1.562   3.016  0.2205  0.8214  0.0282
   56SOL    HW1  167   0.458   1.608   3.081 -1.1413 -1.0880 -0.7552
   56SOL    HW2  168   0.502   1.468   2.976 -0.6335  1.0377 -2.7326
   57SOL     OW  169   1.706   2.463   2.354  0.2333 -0.1705  0.2415
   57SOL    HW1  170   1.781   2.390   2.352 -0.5947 -1.1154 -1.2766
   57SOL    HW2  171   1.642   2.446   2.434  1.3769  2.9310  0.7373
   58SOL     OW  172   0.625   0.195   1.080  0.4588 -0.3069 -0.5676
   58SOL    HW1  173   0.544   0.216   1.146 -0.8694  1.5856  0.4124
   58SOL    HW2  174   0.671   0.102   1.093 -1.6754 -1.5704 -2.9370
   59SOL     OW  175   0.464   2.381   2.560 -0.0182 -0.0979  0.3889
   59SOL    HW1  176   0.472   2.293   2.618  1.3398 -0.4752 -0.8592
   59SOL    HW2  177   0.547   2.440   2.573 -1.2852  1.5422  1.5736
   60SOL     OW  178   2.312   2.053   2.316  0.2313  0.2506  0.5909
   60SOL    HW1  179   2.379   2.077   2.239  2.1008  1.1585  0.0208
   60SOL    HW2  180   2.323   2.107   2.407 -0.7162  3.0621  0.1138
   61SOL     OW  181   1.210   0.639   0.487 -0.0257  0.0104  0.2406
   61SOL    HW1  182   1.110   0.658   0.517  0.8869 -0.9943  1.7215
   61SOL    HW2  183   1.233   0.668   0.389  0.0985  0.1978 -2.0946
   62SOL     OW  184   2.805   1.677   2.699  0.3591  0.1017 -0.4004
   62SOL    HW1  185   2.745   1.598   2.721 -2.3270  0.5891  2.8227
   62SOL    HW2  186   2.890   1.681   2.758 -0.7456 -0.2211 -0.7131
   63SOL     OW  187   0.552   0.849   0.170  0.0577 -0.7106  0.6804
   63SOL    HW1  188   0.603   0.921   0.118 -0.0576 -3.5866  0.6077
   63SOL    HW2  189   0.584   0.836   0.269 -1.1287 -0.3203  0.7557
   64SOL     OW  190   3.014   0.548   2.380 -0.0087  0.4165  0.0944
   64SOL    HW1  191   2.961   0.598   2.453  0.3196  1.8546  2.5725
   64SOL    HW2  192   3.018   0.604   2.290  1.2150  3.7942 -0.4769
   65SOL     OW  193   0.183   1.426   0.635 -0.6824  0.4348 -0.2355
   65SOL    HW1  194   0.173   1.498   0.711  0.9652 -1.6972 -1.5713
   65SOL    HW2  195   0.240   1.462   0.558 -0.8099  1.0637  1.7342
   66SOL     OW  196   2.587   0.321   0.505 -0.1623 -0.2916  0.1395
   66SOL    HW1  197   2.687   0.316   0.525 -0.4775 -0.4164 -1.4172
   66SOL    HW2  198   2.545   0.255   0.563  2.6898  1.4394 -2.2900
   67SOL     OW  199   0.576   2.502   1.517 -0.0995  0.3387  0.3537
   67SOL    HW1  200   0.675   2.478   1.546 -1.0714  1.6718 -1.7061
   67SOL    HW2  201   0.527   2.422   1.475 -1.8982  0.0381  0.3598
   68SOL     OW  202   0.919   1.031   2.499  0.1681 -0.7548  0.0372
   68SOL    HW1  203   0.989   0.984   2.440  0.8079 -1.0363 -0.5939
   68SOL    HW2  204   0.842   1.074   2.443  1.6595  2.2471 -0.3901
   69SOL     OW  205   0.766   2.599   2.349 -0.7141  0.3354 -0.4776
   69SOL    HW1  206   0.812   2.534   2.278  3.7693  0.8833 -1.5050
   69SOL    HW2  207   0.664   2.585   2.358 -2.0294 -1.1178 -0.1909
   70SOL     OW  208   0.519   0.161   2.577  0.6102  0.5158 -0.4436
   70SOL    HW1  209   0.429   0.134   2.625  0.9585  1.2189  0.0375
   70SOL    HW2  210   0.580   0.076   2.576  1.3853  0.7408 -1.1935
   71SOL     OW  211   1.069   1.751   0.299  0.1581 -0.3458  0.2664
   71SOL    HW1  212   1.006   1.763   0.378  2.2315  1.2833  1.1197
   71SOL    HW2  213   1.027   1.772   0.207  1.5672  0.6487  1.5062
   72SOL     OW  214   1.859   0.244   2.153 -0.0593 -0.7297  0.1616
   72SOL    HW1  215   1.881   0.310   2.074  2.2158 -0.9726  1.6229
   72SOL    HW2  216   1.902   0.147   2.139 -1.4289  1.6685 -1.5698
   73SOL     OW  217   2.749   2.196   2.475  0.5060 -0.2803 -0.1909
   73SOL    HW1  218   2.749   2.098   2.442 -2.2484 -0.7609 -2.4960
   73SOL    HW2  219   2.776   2.203   2.574 -0.6585  1.7720 -0.4044
   74SOL     OW  220   2.680   2.967   2.149 -0.6013 -0.0326  0.1307
   74SOL    HW1  221   2.620   2.929   2.220 -0.8257  1.0347 -1.7413
   74SOL    HW2  222   2.758   3.017   2.194 -2.3705  1.1845  0.1568
   75SOL     OW  223   0.929   0.786   1.169  0.2147  0.1208 -0.1678
   75SOL    HW1  224   0.825   0.808   1.156 -0.8383  1.0202  2.6825
   75SOL    HW2  225   0.979   0.845   1.239 -1.9133  1.5503 -1.2911
   76SOL     OW  226   1.843   1.265   2.622  0.0329  0.1309 -0.3737
   76SOL    HW1  227   1.752   1.243   2.676  0.6678 -3.6642  0.6790
   76SOL    HW2  228   1.889   1.356   2.649 -0.7149  1.8271 -2.2119
   77SOL     OW  229   2.932   0.903   1.029  0.3260 -0.3094  0.1245
   77SOL    HW1  230   2.898   0.809   1.059 -0.8512  0.5376  0.2885
   77SOL    HW2  231   3.021   0.931   1.079  2.6898 -1.4014 -1.3260
   78SOL     OW  232   1.950   1.443   1.335  0.0869  0.4698 -0.3998
   78SOL    HW1  233   2.041   1.414   1.288  1.4834 -0.1645 -0.5674
   78SOL    HW2  234   1.877   1.464   1.267  0.4004 -0.2414 -1.3782
   79SOL     OW  235   0.665   1.470   0.838 -0.7569  0.5082  0.2062
   79SOL    HW1  236   0.559   1.454   0.855 -1.7684 -2.1741 -1.3770
   79SOL    HW2  237   0.710   1.380   0.802  1.5986  1.5449  0.0389
   80SOL     OW  238   0.688   0.480   1.592  0.2422 -0.1633 -0.4493
   80SOL    HW1  239   0.695   0.525   1.498 -0.7174 -0.4553 -1.1757
   80SOL    HW2  240   0.670   0.380   1.596  0.8256  1.7619 -2.0366
   81SOL     OW  241   1.059   1.300   2.489 -0.5245 -0.2052 -0.4908
   81SOL    HW1  242   0.975   1.243   2.509  0.1702  1.6040 -3.2590
   81SOL    HW2  243   1.111   1.268   2.406  1.2043  0.3317  2.6662
   82SOL     OW  244   0.944   2.939   1.619 -0.0312 -0.2384  0.3054
   82SOL    HW1  245   0.958   2.859   1.556 -1.0056 -1.8475 -0.6174
   82SOL    HW2  246   0.980   3.030   1.577  2.0735  0.8037  1.7415
   83SOL     OW  247   2.619   2.342   0.912  0.1056  0.3107  0.0638
   83SOL    HW1  248   2.537   2.308   0.861 -2.6964 -1.1011  0.7288
   83SOL    HW2  249   2.627   2.445   0.918 -0.5700 -1.4107 -0.1864
   84SOL     OW  250   0.752   3.074   2.328 -0.4901  0.1735  0.0036
   84SOL    HW1  251   0.720   3.070   2.426  2.2546  0.4828  0.3993
   84SOL    HW2  252   0.781   2.978   2.292  0.1668 -3.3262  0.3500
   85SOL     OW  253   0.301   1.689   1.351 -0.4974  0.0833  0.1149
   85SOL    HW1  254   0.247   1.770   1.380 -2.5269 -4.6762 -0.5319
   85SOL    HW2  255   0.349   1.641   1.432  0.7594  0.3821 -1.8130
   86SOL     OW  256   0.471   1.056   1.403  0.1540  0.3364 -0.1354
   86SOL    HW1  257   0.428   1.009   1.322  1.7837  0.2800  0.2594
   86SOL    HW2  258   0.560   1.019   1.444  2.2417 -0.9906  1.6820
   87SOL     OW  259   1.634   0.648   0.347 -0.8531  0.4160  0.6488
   87SOL    HW1  260   1.694   0.731   0.336 -0.9071 -0.6778  2.2952
   87SOL    HW2  261   1.598   0.604   0.262  2.8425  2.4510  1.2884
   88SOL     OW  262   1.554   1.324   0.247 -0.4296 -0.0964  0.3314
   88SOL    HW1  263   1.607   1.242   0.275 -1.4908  4.0568  0.3400
   88SOL    HW2  264   1.460   1.305   0.221 -1.5791 -0.3107  2.3155
   89SOL     OW  265   3.086   0.367   0.688 -0.1728 -0.6112 -0.5202
   89SOL    HW1  266   3.187   0.349   0.687 -1.1870 -0.9903 -0.7623
   89SOL    HW2  267   3.024   0.293   0.648 -2.5814 -0.1025  0.4772
   90SOL     OW  268   0.750   1.556   0.115 -0.0301  0.4550  0.0163
   90SOL    HW1  269   0.846   1.521   0.125 -0.4221  2.0040  0.1463
   90SOL    HW2  270   0.703   1.524   0.028  1.6491  0.5145 -1.2608
   91SOL     OW  271   1.299   1.514   1.694 -0.7303  0.4707 -0.4575
   91SOL    HW1  272   1.278   1.555   1.790 -1.5737  1.0892  1.6131
   91SOL    HW2  273   1.389   1.457   1.691  1.4693 -1.3752  1.3697
   92SOL     OW  274   0.064   0.984   1.179  0.1724 -0.5455 -0.4548
   92SOL    HW1  275   0.121   1.061   1.130 -0.9995  0.6721 -1.3271
   92SOL    HW2  276   0.079   0.985   1.288  2.2609 -1.3099 -0.1342
   93SOL     OW  277   3.038   2.649   0.057 -0.3130  0.3708 -0.0682
   93SOL    HW1  278   3.036   2.662  -0.047  0.7667  0.3831 -2.0817
   93SOL    HW2  279   3.093   2.567   0.090  5.2362  0.2636  0.7923
   94SOL     OW  280   1.530   1.376   1.658  0.3439  0.7781 -0.8007
   94SOL    HW1  281   1.585   1.299   1.704  3.0442  0.8639  1.6219
   94SOL    HW2  282   1.592   1.442   1.608  1.0882  1.7719  1.0583
   95SOL     OW  283   1.373   2.474   2.938  0.3834  0.0557  0.0914
   95SOL    HW1  284   1.272   2.479   2.975  0.2169  3.3895 -1.3705
   95SOL    HW2  285   1.397   2.384   2.897 -0.0277  0.6189 -1.2428
   96SOL     OW  286   0.579   2.163   1.267  0.4781  0.0165 -0.0127
   96SOL    HW1  287   0.536   2.132   1.177  1.5546  0.5312 -1.5852
   96SOL    HW2  288   0.620   2.090   1.327 -0.2152  0.2325 -0.5046
   97SOL     OW  289   0.261   1.597   2.394  0.1054  0.3770  0.4636
   97SOL    HW1  290   0.275   1.702   2.384  4.1745  3.3647 -3.5249
   97SOL    HW2  291   0.242   1.568   2.493  1.0488 -0.5558  1.1022
   98SOL     OW  292   2.238   1.680   1.197  0.5661  0.2132  0.5120
   98SOL    HW1  293   2.217   1.581   1.189  1.6862  2.4319 -1.2952
   98SOL    HW2  294   2.334   1.696   1.161  1.9781 -1.9195  0.8740
   99SOL     OW  295   2.636   2.071   1.288  0.1360  0.3321 -0.9626
   99SOL    HW1  296   2.673   2.146   1.359  1.0209  2.8845 -2.1904
   99SOL    HW2  297   2.586   1.997   1.341  2.3535 -2.2841  1.1418
  100SOL     OW  298   2.331   0.367   2.112  0.1258  0.4925 -0.2114
  100SOL    HW1  299   2.287   0.360   2.206  1.9652  1.8755  0.4005
  100SOL    HW2  300   2.428   0.396   2.115  0.1203  1.3509 -2.5323
  101SOL     OW  301   0.337   1.519   0.417 -0.2557 -0.0552 -0.5923
  101SOL    HW1  302   0.373   1.591   0.481 -1.9449 -0.5003 -3.9885
  101SOL    HW2  303   0.399   1.493   0.338 -2.5966  1.4288 -0.2621
  102SOL     OW  304   2.285   1.055   0.886  0.1934 -0.3450  0.0447
  102SOL    HW1  305   2.253   0.958   0.881  2.2479 -1.8823 -0.9229
  102SOL    HW2  306   2.353   1.076   0.806  0.3118 -0.8700  2.2769
  103SOL     OW  307   2.261   0.062   0.376  0.1083 -0.6403  0.0039
  103SOL    HW1  308   2.319   0.145   0.351  2.8029  3.0021 -1.2534
  103SOL    HW2  309   2.316  -0.008   0.432 -1.0260 -1.5316 -0.5909
  104SOL     OW  310   3.080   1.811   2.197  0.8243 -0.0831 -0.3540
  104SOL    HW1  311   3.133   1.834   2.108 -0.9166  1.3106 -2.0207
  104SOL    HW2  312   2.982   1.827   2.180  0.8723  0.2466 -1.5382
  105SOL     OW  313   1.287   2.092   0.782 -0.1218 -0.0305  0.5048
  105SOL    HW1  314   1.264   2.153   0.704 -1.2053 -0.5252 -0.1698
  105SOL    HW2  315   1.291   1.992   0.754 -1.9131 -1.0985 -1.3740
  106SOL     OW  316   2.129   0.414   1.439  0.2303  0.0376  0.0310
  106SOL    HW1  317   2.045   0.358   1.404 -1.1333  2.4171 -1.2617
  106SOL    HW2  318   2.160   0.395   1.537  2.3623 -1.1883  0.6568
  107SOL     OW  319   1.918   2.918   1.162  0.0440 -0.2236  0.0269
  107SOL    HW1  320   1.853   2.996   1.182  1.2962 -2.1965 -0.3190
  107SOL    HW2  321   1.859   2.843   1.121 -0.6238 -0.7524  1.5869
  108SOL     OW  322   0.874   2.782   1.083  0.3048 -0.4370 -0.4350
  108SOL    HW1  323   0.905   2.704   1.023  2.0824  1.0546  1.8094
  108SOL    HW2  324   0.947   2.806   1.153  0.7307  0.3663 -1.6266
  109SOL     OW  325   2.190   0.143   0.739  0.1077 -0.6272  0.1150
  109SOL    HW1  326   2.121   0.082   0.694  0.5325  0.5517  1.2446
  109SOL    HW2  327   2.162   0.172   0.834 -0.0775 -1.6232  0.5303
  110SOL     OW  328   0.503   2.827   2.739  0.2716  0.3961 -0.2569
  110SOL    HW1  329   0.500   2.818   2.636  0.9356 -1.4417 -0.4654
  110SOL    HW2  330   0.544   2.748   2.788 -0.7363  2.8481 -0.6992
  111SOL     OW  331   1.333   0.620   2.337 -0.0297  0.3455  0.8949
  111SOL    HW1  332   1.231   0.631   2.356  0.2871 -0.7094 -0.5868
  111SOL    HW2  333   1.360   0.526   2.364 -1.5768 -0.4460  0.2325
  112SOL     OW  334   1.745   0.532   1.532  0.3727  0.4739 -0.2147
  112SOL    HW1  335   1.738   0.562   1.431  2.9504  2.9352  1.6677
  112SOL    HW2  336   1.657   0.521   1.579 -2.1380 -3.3728  0.0506
  113SOL     OW  337   2.257   1.689   1.795 -0.0157 -0.0037 -0.3144
  113SOL    HW1  338   2.322   1.619   1.749 -0.4384 -0.7070  2.0825
  113SOL    HW2  339   2.277   1.698   1.896  0.4141 -0.3165  0.0032
  114SOL     OW  340   0.285   0.411   1.159  0.2614  0.5267  0.2836
  114SOL    HW1  341   0.185   0.427   1.129  1.2092  1.1138 -1.1915
  114SOL    HW2  342   0.350   0.448   1.087  2.9638  1.1698 -2.2330
  115SOL     OW  343   2.676   1.532   1.257  0.6430 -0.1482  0.3200
  115SOL    HW1  344   2.665   1.429   1.280  0.9156 -0.1677  3.5428
  115SOL    HW2  345   2.770   1.551   1.225 -0.0539  0.2989 -2.4287
  116SOL     OW  346   1.899   0.924   0.672 -0.3662  0.2134 -0.8967
  116SOL    HW1  347   1.802   0.889   0.678 -0.1907 -0.6488 -1.1696
  116SOL    HW2  348   1.922   1.020   0.702 -1.1703  1.1406  3.2443
  117SOL     OW  349   1.130   0.365   0.571 -0.4067  0.0929 -0.2584
  117SOL    HW1  350   1.162   0.468   0.575 -1.3979  1.4591 -0.4861
  117SOL    HW2  351   1.121   0.317   0.480 -0.4877  0.8921 -0.4993
  118SOL     OW  352   1.141   1.229   1.086  0.2047  0.6690  0.3484
  118SOL    HW1  353   1.063   1.220   1.155  0.7583 -0.7409  1.6985
  118SOL    HW2  354   1.188   1.317   1.093  0.4097 -1.2754  3.6700
  119SOL     OW  355   1.884   1.611   2.183 -0.0847 -0.2427  0.6552
  119SOL    HW1  356   1.829   1.684   2.128  2.2672  1.9274 -2.3104
  119SOL    HW2  357   1.972   1.586   2.137 -0.4369  1.7515  3.7579
  120SOL     OW  358   2.958   2.813   0.284  0.0262  0.0677  0.3769
  120SOL    HW1  359   2.957   2.739   0.213 -0.6649 -0.8140  1.0867
  120SOL    HW2  360   2.872   2.830   0.333  3.9568 -2.0853  0.2638
  121SOL     OW  361   1.991   0.793   2.331  0.5991  0.3728 -0.2928
  121SOL    HW1  362   2.045   0.872   2.290  0.8953  1.1087 -0.3303
  121SOL    HW2  363   2.022   0.695   2.302  2.6030 -0.5533 -0.4040
  122SOL     OW  364   2.610   2.485   1.373 -0.5427 -0.2298  0.2084
  122SOL    HW1  365   2.649   2.431   1.291  0.6091  0.5771  2.2336
  122SOL    HW2  366   2.615   2.436   1.461 -0.3208  0.4452 -0.0435
  123SOL     OW  367   1.638   0.197   1.639 -0.3718  0.4118 -0.1949
  123SOL    HW1  368   1.672   0.105   1.608  0.7057  1.1807  0.5417
  123SOL    HW2  369   1.700   0.237   1.711 -0.7591  0.5092 -0.8423
  124SOL     OW  370   3.042   0.397   1.148 -0.2334 -0.1613 -0.6972
  124SOL    HW1  371   2.953   0.433   1.186  0.5618  2.7748 -1.1977
  124SOL    HW2  372   3.071   0.453   1.067 -0.4554 -0.5350  4.1423
  125SOL     OW  373   0.896   1.968   0.745  0.6925 -1.0156 -0.4613
  125SOL    HW1  374   0.982   1.930   0.791 -0.6395 -0.2885  0.6600
  125SOL    HW2  375   0.825   2.002   0.816 -1.0821  0.3606  2.6916
  126SOL     OW  376   1.899   2.301   2.412  0.4933  0.0990 -0.3408
  126SOL    HW1  377   1.961   2.264   2.340 -2.1541  0.7091  0.2382
  126SOL    HW2  378   1.904   2.244   2.497 -1.3828  0.0789 -0.6238
  127SOL     OW  379   0.921   0.955   0.172  0.5314 -0.3350  0.0783
  127SOL    HW1  380   0.938   1.007   0.258 -2.0181  0.8753 -0.5236
  127SOL    HW2  381   0.925   0.852   0.192  1.5166 -1.1130  0.7630
  128SOL     OW  382   0.909   0.181   1.377 -0.4004 -0.1297  0.0342
  128SOL    HW1  383   0.873   0.264   1.319 -0.6798  3.0971  0.8572
  128SOL    HW2  384   0.850   0.095   1.353 -1.7370 -2.2125  1.2808
  129SOL     OW  385   1.891   0.702   1.876  0.0157 -0.1248  0.2565
  129SOL    HW1  386   1.899   0.704   1.770 -1.6282 -2.0963 -2.8939
  129SOL    HW2  387   1.914   0.794   1.916 -1.0289 -1.2099 -2.4127
  130SOL     OW  388   1.388   2.165   1.017 -0.0978  0.5421 -0.0824
  130SOL    HW1  389   1.339   2.144   0.928  0.6116  0.6248  0.8947
  130SOL    HW2  390   1.443   2.253   1.009 -0.1739  1.0016  0.5151
  131SOL     OW  391   3.041   1.387   1.440  0.4228  0.1666 -0.2361
  131SOL    HW1  392   3.010   1.287   1.423  0.3294 -5.3816 -0.9510
  131SOL    HW2  393   3.147   1.390   1.445  0.8700 -0.3027 -1.5048
  132SOL     OW  394   2.065   2.436   0.553 -0.0052  0.1367  0.1537
  132SOL    HW1  395   1.970   2.468   0.535  0.0367 -0.0547  0.2563
  132SOL    HW2  396   2.060   2.354   0.622  0.0462  1.3123  0.4596
  133SOL     OW  397   1.761   2.490   2.706 -0.4998  0.0339  0.0375
  133SOL    HW1  398   1.676   2.461   2.647 -3.3072  0.1603 -0.4731
  133SOL    HW2  399   1.747   2.580   2.760  2.2065 -0.3799 -0.6553
  134SOL     OW  400   2.606   2.408   1.647 -0.1670 -0.5525  0.2106
  134SOL    HW1  401   2.544   2.382   1.726 -1.0915  0.9340 -2.7334
  134SOL    HW2  402   2.649   2.499   1.664 -1.9518 -0.9794 -2.6020
  135SOL     OW  403   0.811   1.337   2.685 -0.0432 -0.2689 -0.3924
  135SOL    HW1  404   0.734   1.285   2.733 -1.3561  0.5800  0.0919
  135SOL    HW2  405   0.798   1.347   2.588 -2.0048 -0.7698  1.2530
  136SOL     OW  406   1.211   2.002   0.426 -0.3391 -0.0231  0.0462
  136SOL    HW1  407   1.144   2.079   0.455  0.3075 -0.8828 -0.0718
  136SOL    HW2  408   1.162   1.912   0.402 -0.0969  1.9631 -1.2589
  137SOL     OW  409   0.466   1.168   2.280 -0.2475 -0.0752 -0.5289
  137SOL    HW1  410   0.361   1.170   2.291 -1.4779 -1.4312 -0.9036
  137SOL    HW2  411   0.504   1.078   2.312  0.9837 -1.4479  0.4419
  138SOL     OW  412   2.424   1.485   0.275 -0.1523  0.1671  0.1058
  138SOL    HW1  413   2.345   1.451   0.220 -0.0951 -1.5091 -0.0981
  138SOL    HW2  414   2.479   1.400   0.305 -0.3513  1.9594 -4.1408
  139SOL     OW  415   1.902   2.646   1.563  0.4225 -0.2590  0.2289
  139SOL    HW1  416   1.808   2.664   1.512 -0.7659  0.9861  0.7510
  139SOL    HW2  417   1.970   2.600   1.498 -0.3342 -0.7037  1.6882
  140SOL     OW  418   3.029   2.987   2.632  0.8708  0.9738  0.3962
  140SOL    HW1  419   3.052   2.884   2.618  0.0044  1.8302  2.1687
  140SOL    HW2  420   3.108   3.049   2.604 -2.7547 -1.4008 -2.0820
  141SOL     OW  421   1.279   1.640   1.423 -0.3347  0.0867  0.2060
  141SOL    HW1  422   1.199   1.688   1.372 -0.9905 -0.1668 -0.2874
  141SOL    HW2  423   1.256   1.586   1.509  0.4053 -1.0115 -0.7331
  142SOL     OW  424   1.586   0.645   2.246  0.0412 -0.3548  0.0172
  142SOL    HW1  425   1.572   0.682   2.150 -0.2131 -1.9597 -2.5193
  142SOL    HW2  426   1.497   0.620   2.293 -1.2652  0.3195 -0.9405
  143SOL     OW  427   2.800   0.781   0.561  0.5639  0.3204  0.1708
  143SOL    HW1  428   2.833   0.844   0.489 -1.1656 -0.3504 -0.6330
  143SOL    HW2  429   2.818   0.817   0.659 -0.2647  1.1947 -0.3699
  144SOL     OW  430   2.916   1.118   1.430  0.2178 -0.3257 -0.2478
  144SOL    HW1  431   2.872   1.103   1.528 -1.2132 -2.0220 -0.5945
  144SOL    HW2  432   2.999   1.060   1.411 -0.0168 -0.2296  0.8152
  145SOL     OW  433   0.949   1.799   0.055  0.2376  0.5091 -0.2438
  145SOL    HW1  434   0.955   1.850  -0.037  0.7510  1.6691 -1.1197
  145SOL    HW2  435   0.893   1.711   0.049  2.1111  0.9354 -1.7803
  146SOL     OW  436   2.495   0.639   1.529  0.2762 -0.6291  0.0612
  146SOL    HW1  437   2.483   0.561   1.465  0.7877  1.1593  2.0209
  146SOL    HW2  438   2.425   0.713   1.500 -4.3251  0.5447  1.4595
  147SOL     OW  439   1.110   2.519   0.545 -0.3512 -0.1085  0.1397
  147SOL    HW1  440   1.046   2.575   0.482 -2.7061 -1.1355 -0.1937
  147SOL    HW2  441   1.204   2.499   0.507 -1.5918  0.5436  0.3334
  148SOL     OW  442   1.579   1.405   3.091 -0.4723  0.1842  0.2516
  148SOL    HW1  443   1.616   1.312   3.060  1.1517 -0.5983  1.7488
  148SOL    HW2  444   1.555   1.405   3.191  2.0768  0.2794 -1.4118
  149SOL     OW  445   0.706   1.489   1.995  0.2675 -0.3936  0.6165
  149SOL    HW1  446   0.634   1.447   2.058  1.0687  0.5406  1.7080
  149SOL    HW2  447   0.694   1.464   1.896 -0.3820 -2.1423 -0.7525
  150SOL     OW  448   2.963   1.208   1.019 -0.2459  0.3035  0.1956
  150SOL    HW1  449   3.063   1.213   1.048 -0.3079 -3.0872 -0.4900
  150SOL    HW2  450   2.931   1.111   0.980 -1.3913  0.2622 -1.5772
  151SOL     OW  451   0.162   0.830   2.097  0.0837 -0.4437  0.1274
  151SOL    HW1  452   0.180   0.928   2.070  0.8987 -0.7613 -0.3095
  151SOL    HW2  453   0.215   0.759   2.042  1.3287  2.3483  0.7120
  152SOL     OW  454   1.444   1.878   1.108 -0.0515  0.3265  0.2007
  152SOL    HW1  455   1.497   1.962   1.079  0.0650  0.1118 -0.0795
  152SOL    HW2  456   1.347   1.905   1.112 -0.3386  0.6505  0.9071
  153SOL     OW  457   0.054   1.504   0.263 -0.1287  0.2499  0.3202
  153SOL    HW1  458  -0.017   1.434   0.281  0.0063  0.1036 -0.8654
  153SOL    HW2  459   0.114   1.530   0.343  1.7057  0.0764 -1.7275
  154SOL     OW  460   2.263   1.857   2.783 -0.1269  0.3408  0.2605
  154SOL    HW1  461   2.297   1.760   2.792  1.0574 -0.8091 -1.8691
  154SOL    HW2  462   2.331   1.912   2.722  0.2356 -0.7136 -1.7260
  155SOL     OW  463   2.620   1.309   0.368  0.5407  0.3193 -0.2711
  155SOL    HW1  464   2.653   1.369   0.445  0.8320  3.5200 -1.7512
  155SOL    HW2  465   2.691   1.244   0.331 -0.3231  3.5197 -3.4529
  156SOL     OW  466   2.490   0.810   0.774  0.7006  0.0648  0.4911
  156SOL    HW1  467   2.389   0.790   0.784  0.5760  0.8517 -0.7430
  156SOL    HW2  468   2.518   0.856   0.688  0.9076 -0.0922 -2.4682
  157SOL     OW  469   1.223   3.086   3.020  0.0849  0.1948 -0.1556
  157SOL    HW1  470   1.281   3.052   2.944 -0.9127 -1.0868 -0.0578
  157SOL    HW2  471   1.268   3.166   3.065 -2.6897 -1.0121  0.7674
  158SOL     OW  472   1.087   1.887   1.865 -0.4127 -0.2230 -0.2613
  158SOL    HW1  473   1.115   1.982   1.849 -2.9984 -1.9354  0.6388
  158SOL    HW2  474   0.996   1.884   1.923  1.1167 -0.2682  1.1905
  159SOL     OW  475   0.805   0.388   1.236 -0.0827 -0.1357 -0.5433
  159SOL    HW1  476   0.760   0.481   1.255 -1.7534  0.6049  2.6449
  159SOL    HW2  477   0.739   0.333   1.172  0.0784  0.3360 -3.2305
  160SOL     OW  478   1.376   2.467   1.423 -0.0346  0.2186  0.4899
  160SOL    HW1  479   1.335   2.405   1.494  0.3063 -0.3858  0.4543
  160SOL    HW2  480   1.475   2.448   1.402 -1.5520  0.3817 -1.5860
  161SOL     OW  481   0.064   2.646   0.415  0.1502  0.2775 -0.4937
  161SOL    HW1  482   0.009   2.556   0.431 -2.2820 -1.0893  2.2501
  161SOL    HW2  483   0.004   2.728   0.399 -1.3090  2.2395 -0.7021
  162SOL     OW  484   2.527   1.940   0.447  0.0293 -0.1235  0.3506
  162SOL    HW1  485   2.585   1.922   0.362  0.1414  0.2349  1.8828
  162SOL    HW2  486   2.470   1.851   0.468  1.6092  0.8434  0.9850
  163SOL     OW  487   1.941   2.718   0.803 -0.4631 -0.7515  0.3153
  163SOL    HW1  488   1.920   2.734   0.704  0.7243 -1.4375 -0.2059
  163SOL    HW2  489   2.026   2.665   0.813 -0.9895  0.5225  1.1170
  164SOL     OW  490   3.042   0.147   1.242 -0.0086  0.5131  0.0021
  164SOL    HW1  491   3.040   0.248   1.212  2.6302 -1.1975  1.0062
  164SOL    HW2  492   3.114   0.143   1.317 -1.4668 -1.8857  1.3920
  165SOL     OW  493   1.111   1.409   0.658  0.1470 -0.2102  0.1649
  165SOL    HW1  494   1.080   1.468   0.736  2.4604  2.4437  0.5221
  165SOL    HW2  495   1.056   1.440   0.573 -2.6029  2.1862  2.3886
  166SOL     OW  496   1.558   0.968   1.821 -0.0251 -1.2423 -0.0972
  166SOL    HW1  497   1.465   1.005   1.844 -1.3436 -1.8379  1.8315
  166SOL    HW2  498   1.620   1.041   1.781  0.6049 -1.9384  2.2268
  167SOL     OW  499   0.671   2.025   1.517  0.1622 -0.0388 -0.0663
  167SOL    HW1  500   0.715   2.094   1.581 -0.3005 -0.9502 -0.5040
  167SOL    HW2  501   0.593   1.970   1.559  0.2633  0.5269  1.7200
  168SOL     OW  502   1.647   2.297   0.126  0.5984  0.3266  0.1067
  168SOL    HW1  503   1.715   2.294   0.049  0.2190  0.7034  0.6344
  168SOL    HW2  504   1.686   2.288   0.218  1.4026 -1.9902 -0.3501
  169SOL     OW  505   3.053   2.604   2.170 -0.2404 -0.5745 -0.7694
  169SOL    HW1  506   3.060   2.569   2.076 -1.4519 -0.5405  0.5491
  169SOL    HW2  507   3.096   2.535   2.235  1.2413  1.3131 -0.9172
  170SOL     OW  508   1.184   0.140   2.099 -0.2562  0.2285  0.3219
  170SOL    HW1  509   1.278   0.170   2.136 -0.5260 -0.1956 -1.7552
  170SOL    HW2  510   1.178   0.148   1.995  0.6735 -1.1251 -0.9871
  171SOL     OW  511   0.200   0.861   2.449  0.3583  0.1445 -0.3825
  171SOL    HW1  512   0.104   0.851   2.486 -0.8197 -0.0578 -1.5145
  171SOL    HW2  513   0.203   0.915   2.359 -2.8134  0.4997  3.0999
  172SOL     OW  514   0.975   0.973   2.774  0.9480  0.6210 -0.0001
  172SOL    HW1  515   0.920   1.016   2.852  2.2068  0.8206  0.7287
  172SOL    HW2  516   0.933   1.000   2.679 -0.1285  2.4554  1.4753
  173SOL     OW  517   0.367   2.558   3.044  0.2016 -0.1719 -0.3229
  173SOL    HW1  518   0.386   2.482   2.974 -1.5581 -0.9784  0.0409
  173SOL    HW2  519   0.372   2.528   3.147  1.2090 -2.6931  0.7364
  174SOL     OW  520   1.465   2.852   1.006 -0.1585 -0.2673 -0.6117
  174SOL    HW1  521   1.514   2.919   0.948 -0.4245  0.0959 -0.2394
  174SOL    HW2  522   1.444   2.761   0.961 -0.7934  0.0861 -1.7037
  175SOL     OW  523   0.475   3.062   1.722 -0.5645  0.7905  0.0449
  175SOL    HW1  524   0.533   3.058   1.808 -1.5276 -1.1751 -2.0285
  175SOL    HW2  525   0.422   3.149   1.711  1.3421 -0.2900 -2.2918
  176SOL     OW  526   2.528   0.489   0.021 -0.2450  0.2257  1.1466
  176SOL    HW1  527   2.547   0.574   0.073 -1.1404  1.7820  0.5924
  176SOL    HW2  528   2.560   0.405   0.069 -0.3366 -0.5936 -0.7607
  177SOL     OW  529   0.376   0.158   0.802 -0.2458 -0.6907  0.0701
  177SOL    HW1  530   0.324   0.067   0.824 -3.4929 -2.5893  0.1212
  177SOL    HW2  531   0.484   0.158   0.810  0.7105  0.8357  1.4448
  178SOL     OW  532   0.038   2.718   2.647  0.3018 -0.0546 -0.0078
  178SOL    HW1  533   0.030   2.613   2.638 -0.8746  0.5064  1.3545
  178SOL    HW2  534   0.118   2.750   2.704 -0.0178 -0.9214  1.3553
  179SOL     OW  535   2.968   1.614   1.240  0.0482 -0.2889  0.0315
  179SOL    HW1  536   3.026   1.627   1.154  0.3104  2.0114 -1.0992
  179SOL    HW2  537   2.983   1.526   1.289 -0.4224 -0.7254 -0.7243
  180SOL     OW  538   0.271   1.410   1.751  0.2717 -0.2141  0.1020
  180SOL    HW1  539   0.336   1.354   1.809 -1.0822  0.1239  0.0138
  180SOL    HW2  540   0.195   1.446   1.818 -3.5328 -2.9507  1.3996
  181SOL     OW  541   3.004   1.745   2.495 -0.4570  0.3470 -0.0537
  181SOL    HW1  542   3.045   1.800   2.416  2.0082  0.5980 -0.3789
  181SOL    HW2  543   2.903   1.756   2.495 -0.8497 -1.4564 -0.6126
  182SOL     OW  544   2.186   1.419   1.170  0.5387 -0.3044 -0.1908
  182SOL    HW1  545   2.201   1.328   1.220 -1.3992  0.3000  0.6632
  182SOL    HW2  546   2.224   1.409   1.076 -0.0294 -4.7942  0.3391
  183SOL     OW  547   1.426   2.234   2.444 -0.4420 -0.7252  0.0162
  183SOL    HW1  548   1.352   2.160   2.453  0.8100 -0.0620  0.2923
  183SOL    HW2  549   1.520   2.196   2.435 -1.2694  2.2740 -1.5040
  184SOL     OW  550   2.218   0.780   0.808  0.3396  0.2688  0.9626
  184SOL    HW1  551   2.120   0.782   0.770  1.2768 -1.5765  0.4751
  184SOL    HW2  552   2.259   0.680   0.798 -0.2618  0.6225 -1.4501
  185SOL     OW  553   1.577   2.727   2.006 -0.1542  0.3327  0.3141
  185SOL    HW1  554   1.499   2.797   2.000 -0.0418 -0.3443 -0.0197
  185SOL    HW2  555   1.613   2.714   2.103  0.9809 -2.2479  0.2682
  186SOL     OW  556   0.029   2.157   1.790 -0.0659 -0.6210  0.2675
  186SOL    HW1  557   0.013   2.245   1.845  2.1353  0.5801  0.6090
  186SOL    HW2  558   0.126   2.113   1.799 -0.3569  2.1864  2.4485
  187SOL     OW  559   1.320   0.667   1.647  0.4337  0.2514  0.1702
  187SOL    HW1  560   1.400   0.715   1.602 -0.4234 -0.8752 -0.3429
  187SOL    HW2  561   1.350   0.600   1.716 -1.7436  1.2502  2.9977
  188SOL     OW  562   2.696   2.669   1.577 -0.0218  0.2076 -0.0403
  188SOL    HW1  563   2.676   2.772   1.562 -0.4274  0.7886 -2.3027
  188SOL    HW2  564   2.652   2.613   1.506 -1.4859 -1.3076  1.4982
  189SOL     OW  565   0.853   1.197   1.389  0.1002 -0.2771  0.2942
  189SOL    HW1  566   0.903   1.246   1.467  2.9751 -3.1568 -0.5454
  189SOL    HW2  567   0.856   1.245   1.297  1.1660 -0.2962  0.8010
  190SOL     OW  568   1.441   1.852   1.515 -0.1207 -0.5012 -0.2756
  190SOL    HW1  569   1.397   1.766   1.481 -1.2189 -1.6623  0.2548
  190SOL    HW2  570   1.424   1.862   1.618 -1.2543 -2.5718  0.2753
  191SOL     OW  571   0.878   0.773   1.508 -0.2016 -0.4730  0.0858
  191SOL    HW1  572   0.925   0.694   1.547  2.6789  1.6516 -1.3500
  191SOL    HW2  573   0.930   0.822   1.431  1.4782 -1.1984  0.2463
  192SOL     OW  574   1.833   2.441   1.122  0.0352 -0.1665 -0.0172
  192SOL    HW1  575   1.743   2.400   1.115 -0.9801  0.8214  0.3033
  192SOL    HW2  576   1.914   2.399   1.070  4.6450  0.1774 -1.0348
  193SOL     OW  577   0.496   0.498   0.385 -0.0859  0.1081  0.0879
  193SOL    HW1  578   0.437   0.417   0.369 -1.7105  0.0735 -1.3728
  193SOL    HW2  579   0.546   0.528   0.301 -2.9919  0.4514 -0.4945
  194SOL     OW  580   0.408   0.784   1.240  0.4961 -0.5634 -0.9439
  194SOL    HW1  581   0.302   0.771   1.235 -2.0425 -1.3445 -0.8678
  194SOL    HW2  582   0.458   0.740   1.160 -1.5639 -1.6695 -0.0325
  195SOL     OW  583   1.048   2.903   0.516 -0.5651 -0.3195 -0.0088
  195SOL    HW1  584   1.010   2.814   0.479  0.0657 -0.5070 -0.0052
  195SOL    HW2  585   1.135   2.929   0.467 -1.5359  1.2251 -0.7968
  196SOL     OW  586   0.219   1.368   1.332 -0.1272 -0.3576  0.5543
  196SOL    HW1  587   0.271   1.458   1.341 -0.0870 -0.8914  1.5497
  196SOL    HW2  588   0.245   1.299   1.407 -2.5298 -0.9449  0.7553
  197SOL     OW  589   0.774   1.968   0.236 -0.2287  0.3372  0.2263
  197SOL    HW1  590   0.824   1.971   0.326 -0.5752  1.2305 -0.9003
  197SOL    HW2  591   0.835   1.942   0.157  2.2310  2.4895 -1.0959
  198SOL     OW  592   0.283   1.218   0.327  0.3583 -0.1655 -0.5407
  198SOL    HW1  593   0.192   1.176   0.308 -0.9833  2.7715 -1.2892
  198SOL    HW2  594   0.274   1.306   0.378  1.8447  0.9801 -0.9635
  199SOL     OW  595   2.248   0.405   2.641  1.0334 -0.1985  0.3286
  199SOL    HW1  596   2.184   0.381   2.717  1.5295  2.4274 -0.5794
  199SOL    HW2  597   2.336   0.358   2.645 -1.3818  1.0562  0.9632
  200SOL     OW  598   3.081   2.882   0.788 -0.1583  0.2187 -0.7213
  200SOL    HW1  599   3.137   2.971   0.780  0.0003  0.3121  0.3372
  200SOL    HW2  600   2.987   2.890   0.749  0.7916 -0.2108 -0.2008
  201SOL     OW  601   0.933   0.672   0.524  0.2122 -0.2823 -0.0692
  201SOL    HW1  602   0.907   0.754   0.580  1.0698  1.4226 -2.9664
  201SOL    HW2  603   0.851   0.604   0.525 -2.5661 -1.9802 -2.4848
  202SOL     OW  604   0.460   1.257   1.904  0.0050  0.4825  0.0985
  202SOL    HW1  605   0.528   1.197   1.856 -0.4792  2.2713  0.3919
  202SOL    HW2  606   0.490   1.274   2.002  2.4302  1.6773 -1.0855
  203SOL     OW  607   0.650   0.165   1.554 -0.4706 -0.0468  0.3295
  203SOL    HW1  608   0.681   0.098   1.481  0.0492  1.0450  1.0252
  203SOL    HW2  609   0.690   0.143   1.643 -0.5688  1.8894  0.0224
  204SOL     OW  610   2.077   1.852   2.977  0.0266  0.1786  0.3050
  204SOL    HW1  611   2.065   1.747   2.988 -2.3221  0.7938 -0.4823
  204SOL    HW2  612   2.134   1.878   2.891 -3.2093  1.0409  0.0859
  205SOL     OW  613   1.810   1.879   3.018  0.0783  0.3502 -0.4806
  205SOL    HW1  614   1.912   1.862   3.020  0.5107 -1.7740  0.0730
  205SOL    HW2  615   1.785   1.950   2.944  1.6491  1.9293 -3.0842
  206SOL     OW  616   2.351   2.723   0.303  0.3368  0.3694 -0.0220
  206SOL    HW1  617   2.313   2.685   0.392  0.2592  0.8850  0.0782
  206SOL    HW2  618   2.439   2.687   0.267 -2.1727 -0.3497 -1.3355
  207SOL     OW  619   0.715   1.724   2.909 -0.3718 -0.4190 -0.2547
  207SOL    HW1  620   0.796   1.669   2.873  1.9446 -0.4838  3.4474
  207SOL    HW2  621   0.651   1.674   2.971  1.4699 -0.0554  0.5731
  208SOL     OW  622   1.020   1.567   1.220  0.0719  0.3399 -0.0419
  208SOL    HW1  623   0.949   1.611   1.164  2.2516  0.7261  2.0698
  208SOL    HW2  624   0.992   1.566   1.321  1.3099 -2.0149  0.3847
  209SOL     OW  625   0.226   1.017   3.061  0.0557  0.1874  0.4454
  209SOL    HW1  626   0.295   0.968   2.999  1.4730  3.5767 -1.9209
  209SOL    HW2  627   0.204   0.966   3.150 -1.6532  1.6185 -2.1293
  210SOL     OW  628   1.725   0.612   1.268  0.3658  0.5211 -0.4108
  210SOL    HW1  629   1.628   0.641   1.243 -0.7194  1.1701 -0.4777
  210SOL    HW2  630   1.796   0.673   1.229  0.0587 -2.0222 -0.4489
  211SOL     OW  631   2.119   1.117   1.565 -0.1030  0.6976 -0.0093
  211SOL    HW1  632   2.161   1.073   1.646 -1.9248  1.7161 -1.5979
  211SOL    HW2  633   2.199   1.181   1.527 -0.4008  2.3125  1.9956
  212SOL     OW  634   0.093   0.987   1.445  0.1085 -0.1700 -0.6011
  212SOL    HW1  635   0.168   1.058   1.473  1.0247 -2.0855 -1.0487
  212SOL    HW2  636   0.091   0.907   1.509  0.2059  1.0854 -0.3204
  213SOL     OW  637   2.817   0.042   0.330  0.4740  0.2989 -0.0633
  213SOL    HW1  638   2.911   0.020   0.303  2.5505  2.3827 -2.0628
  213SOL    HW2  639   2.742   0.009   0.269 -0.4316  2.7683  0.3530
  214SOL     OW  640   2.213   0.352   2.369 -0.1192 -0.1251 -0.3399
  214SOL    HW1  641   2.209   0.395   2.465  2.2637  0.3347  0.6955
  214SOL    HW2  642   2.175   0.258   2.360  0.4894  2.9361  0.7402
  215SOL     OW  643   1.694   2.291   2.074  0.0196 -0.2424 -0.1445
  215SOL    HW1  644   1.791   2.326   2.093  1.9624 -0.0709  0.3452
  215SOL    HW2  645   1.622   2.366   2.091 -2.6418  0.4122  1.5122
  216SOL     OW  646   2.303   0.526   0.761 -0.1275  0.0641  0.0950
  216SOL    HW1  647   2.281   0.472   0.669  0.9545  0.0169  0.1819
  216SOL    HW2  648   2.379   0.482   0.814 -0.4819 -0.3215 -0.4660
  217SOL     OW  649   0.919   2.710   2.583 -0.0949 -0.4742  0.2178
  217SOL    HW1  650   0.952   2.636   2.650 -0.9735  1.3329  0.5464
  217SOL    HW2  651   0.835   2.684   2.538 -0.5673 -1.5780 -0.1249
  218SOL     OW  652   1.868   1.429   0.027 -0.5467 -0.3466 -0.1227
  218SOL    HW1  653   1.767   1.431   0.042  1.6505 -1.2628 -0.4479
  218SOL    HW2  654   1.897   1.331   0.023  0.4710  0.2446 -0.3699
  219SOL     OW  655   2.416   1.262   2.510  0.1599 -0.4225  0.0567
  219SOL    HW1  656   2.447   1.187   2.445  0.3662 -0.9243  0.3763
  219SOL    HW2  657   2.420   1.227   2.606 -4.2641  1.4825 -1.1479
  220SOL     OW  658   1.457   1.041   1.373 -0.1652  0.4713  0.3532
  220SOL    HW1  659   1.556   1.004   1.386 -0.4025  0.2986 -0.2496
  220SOL    HW2  660   1.424   1.041   1.273 -1.3402  2.2728  0.7030
  221SOL     OW  661   1.304   0.954   2.163 -0.1184  0.3100 -0.3812
  221SOL    HW1  662   1.294   0.983   2.068 -0.0292 -1.0113  1.3342
  221SOL    HW2  663   1.393   0.995   2.205  1.8580 -1.0102 -0.8524
  222SOL     OW  664   1.157   0.051   1.206  0.0460 -0.1061 -0.2207
  222SOL    HW1  665   1.189   0.095   1.294  0.7264  0.6744 -2.0119
  222SOL    HW2  666   1.132   0.119   1.132  1.3190 -0.5382 -0.8529
  223SOL     OW  667   2.716   0.974   2.114  0.2002 -0.0514  0.3719
  223SOL    HW1  668   2.648   1.033   2.164  1.8039  0.8010  0.2480
  223SOL    HW2  669   2.813   0.983   2.150 -0.8937 -0.4286 -1.1408
  224SOL     OW  670   1.494   0.985   2.848 -0.1996 -0.1459 -0.7642
  224SOL    HW1  671   1.491   0.937   2.761  2.2319  0.2088  1.1761
  224SOL    HW2  672   1.527   1.086   2.840 -1.2875  1.6826 -3.9321
  225SOL     OW  673   2.951   2.684   2.888  0.0425 -0.0384 -0.3344
  225SOL    HW1  674   2.858   2.693   2.853  0.2949  0.8758 -0.6943
  225SOL    HW2  675   3.020   2.702   2.810  2.4147 -0.7182  1.6283
  226SOL     OW  676   2.421   1.638   2.793 -0.3235  0.3585  0.5149
  226SOL    HW1  677   2.451   1.603   2.702 -3.0225  0.8043  1.8160
  226SOL    HW2  678   2.441   1.574   2.869  0.1913  0.0221 -1.1924
  227SOL     OW  679   0.933   0.276   3.008 -0.0129  0.6555 -0.5235
  227SOL    HW1  680   0.931   0.378   2.991 -0.3567 -0.2999  2.7013
  227SOL    HW2  681   0.899   0.214   2.934  0.2110  0.1573  1.2543
  228SOL     OW  682   2.437   0.656   2.905 -0.4599  0.2684  0.2318
  228SOL    HW1  683   2.465   0.688   2.806  1.0440  3.4606 -0.0019
  228SOL    HW2  684   2.511   0.592   2.946  1.2401 -2.0481  0.2596
  229SOL     OW  685   0.690   0.653   1.819  1.0221  0.6503 -0.0331
  229SOL    HW1  686   0.764   0.654   1.896  0.4868 -0.9331  0.4115
  229SOL    HW2  687   0.702   0.593   1.738  0.6966  1.5758 -0.7361
  230SOL     OW  688   1.876   1.233   1.916  0.0486 -0.2289  0.2092
  230SOL    HW1  689   1.952   1.282   1.864  1.0873  0.9613 -1.2876
  230SOL    HW2  690   1.851   1.273   2.007  1.1889  0.1006 -2.3344
  231SOL     OW  691   0.677   1.043   0.006  0.7898 -0.1445  0.1200
  231SOL    HW1  692   0.767   1.096   0.004 -3.1902 -0.6339 -1.9612
  231SOL    HW2  693   0.594   1.102   0.040  0.1068  2.0628  1.0020
  232SOL     OW  694   2.414   2.954   2.794 -0.1540 -0.0023 -0.5917
  232SOL    HW1  695   2.476   2.880   2.836 -0.1972  0.2162  1.2407
  232SOL    HW2  696   2.463   3.016   2.726  1.4765  4.0581  0.4922
  233SOL     OW  697   1.800   1.120   1.166 -0.5851  0.3682  0.5308
  233SOL    HW1  698   1.859   1.197   1.129  0.2616  0.0839  1.0108
  233SOL    HW2  699   1.849   1.028   1.177 -0.6726  0.6156  0.5476
  234SOL     OW  700   1.655   2.534   1.828 -0.4370 -0.4654  0.0765
  234SOL    HW1  701   1.633   2.610   1.896  1.0878 -1.5339  0.2231
  234SOL    HW2  702   1.602   2.441   1.832 -0.6385  2.2893 -1.2086
  235SOL     OW  703   0.068   3.000   2.866 -0.0108  0.3705  0.6060
  235SOL    HW1  704   0.019   2.998   2.775 -0.4269 -2.5111  1.1512
  235SOL    HW2  705  -0.001   3.022   2.941 -0.9782  2.6096 -0.7983
  236SOL     OW  706   2.915   0.735   0.061 -0.2869  0.5839  0.1915
  236SOL    HW1  707   2.979   0.763   0.140  1.6403  0.5677  1.5431
  236SOL    HW2  708   2.941   0.643   0.019 -0.7456 -0.5308 -2.1941
  237SOL     OW  709   1.537   1.697   0.919  0.0585  0.2075  0.2380
  237SOL    HW1  710   1.577   1.605   0.951 -0.0862 -3.7745 -0.6592
  237SOL    HW2  711   1.517   1.768   0.991 -0.1195 -2.6645 -1.2951
  238SOL     OW  712   1.921   1.195   0.736  0.2919 -0.1488 -0.2476
  238SOL    HW1  713   1.935   1.233   0.833 -0.1498 -1.1270 -1.3388
  238SOL    HW2  714   1.825   1.223   0.698 -2.1100  0.5407 -1.4297
  239SOL     OW  715   2.044   0.324   2.831  0.2109  0.2454  0.3056
  239SOL    HW1  716   2.065   0.279   2.917  0.4828  2.8339 -1.8713
  239SOL    HW2  717   1.945   0.358   2.820 -1.3942 -0.4425  1.6695
  240SOL     OW  718   0.944   0.683   0.251 -0.5275 -0.0853 -0.5716
  240SOL    HW1  719   1.021   0.647   0.191 -1.8222 -0.9520 -2.8577
  240SOL    HW2  720   0.959   0.678   0.355 -2.4287 -1.7745  1.5501
  241SOL     OW  721   0.553   0.149   0.306 -0.4391  0.5923 -0.1471
  241SOL    HW1  722   0.598   0.212   0.238 -1.0030  0.7299 -0.8672
  241SOL    HW2  723   0.533   0.051   0.267  0.4455 -1.2219  0.6717
  242SOL     OW  724   0.610   2.596   1.246  0.2413  0.2299  0.7963
  242SOL    HW1  725   0.576   2.592   1.347  0.3832 -1.4951  0.2700
  242SOL    HW2  726   0.666   2.678   1.227 -1.2583 -3.8747 -0.0042
  243SOL     OW  727   1.054   0.599   2.394 -0.1325 -0.4411  0.0321
  243SOL    HW1  728   0.966   0.612   2.345 -0.3708 -0.3989 -1.0736
  243SOL    HW2  729   1.040   0.543   2.477 -1.7483  1.8321 -1.0807
  244SOL     OW  730   2.766   1.944   2.397  0.5548 -0.0008  0.6833
  244SOL    HW1  731   2.792   1.943   2.296  0.6885 -0.5585 -0.9993
  244SOL    HW2  732   2.689   1.881   2.421  0.0703  0.0397  2.3967
  245SOL     OW  733   2.101   1.025   2.224  0.0107 -0.1070  0.2786
  245SOL    HW1  734   2.203   1.013   2.241 -0.5065 -0.2563  0.8900
  245SOL    HW2  735   2.052   1.097   2.285 -0.6446 -0.4427  4.0002
  246SOL     OW  736   0.270   2.901   1.817 -0.4798  0.4567  0.0311
  246SOL    HW1  737   0.175   2.897   1.774 -0.8420  2.2585  2.2629
  246SOL    HW2  738   0.341   2.945   1.754  2.5949  0.6388 -1.6197
  247SOL     OW  739   2.239   0.589   3.070 -0.5221 -0.1689  0.1316
  247SOL    HW1  740   2.321   0.600   3.005 -1.0880 -1.3677  0.5473
  247SOL    HW2  741   2.148   0.636   3.035 -0.2407  1.2060 -0.3242
  248SOL     OW  742   2.150   1.884   1.627  0.2340  0.3798 -0.1070
  248SOL    HW1  743   2.202   1.840   1.703  1.2758 -1.3047 -0.3186
  248SOL    HW2  744   2.048   1.852   1.627 -1.5389  2.1329 -0.0386
  249SOL     OW  745   1.901   1.902   1.875 -0.5168 -0.3384  0.4552
  249SOL    HW1  746   1.889   1.843   1.791 -1.2477  1.3673 -1.0626
  249SOL    HW2  747   2.002   1.908   1.908  0.8418 -1.9086 -0.1798
  250SOL     OW  748   1.026   0.689   1.845  0.3217  0.5016  0.1450
  250SOL    HW1  749   1.104   0.670   1.917  1.3548  1.0809 -0.3865
  250SOL    HW2  750   1.018   0.621   1.764  0.6793  0.6942  1.0274
  251SOL     OW  751   3.055   1.504   2.613  0.4204 -0.2696  0.0512
  251SOL    HW1  752   3.029   1.600   2.596 -0.5432 -2.3799 -1.9732
  251SOL    HW2  753   2.985   1.439   2.576  0.5564  0.0750 -0.2736
  252SOL     OW  754   1.546   0.810   1.591  0.2101 -0.5711 -0.0871
  252SOL    HW1  755   1.610   0.833   1.512 -2.9080 -0.2366 -2.8459
  252SOL    HW2  756   1.567   0.865   1.677 -0.1444 -1.6641 -0.2928
  253SOL     OW  757   0.937   1.474   0.449 -0.0100  0.0750 -0.3999
  253SOL    HW1  758   0.963   1.477   0.350  0.7726 -1.7729  1.4293
  253SOL    HW2  759   0.862   1.542   0.476  2.0838 -2.2209 -1.1598
  254SOL     OW  760   2.014   2.181   1.651 -0.1069  0.5202  0.0471
  254SOL    HW1  761   1.951   2.105   1.613 -0.9783  3.4117 -0.5349
  254SOL    HW2  762   1.967   2.254   1.705  2.0685 -0.7473  0.7446
  255SOL     OW  763   0.073   1.201   2.957 -0.1848  0.1230  0.3469
  255SOL    HW1  764   0.130   1.283   2.926  1.2675  3.3245 -1.3759
  255SOL    HW2  765   0.134   1.125   2.990 -1.7597  1.3415 -1.1330
  256SOL     OW  766   2.755   1.427   1.782  0.1695  0.1643  0.6907
  256SOL    HW1  767   2.657   1.449   1.788  1.2574  0.6202  1.8148
  256SOL    HW2  768   2.772   1.320   1.778 -0.0655 -0.9645  1.2620
  257SOL     OW  769   0.814   0.215   1.856  0.1776 -0.8641  0.0353
  257SOL    HW1  770   0.861   0.258   1.780  0.9458  2.1756  0.7820
  257SOL    HW2  771   0.842   0.116   1.879 -0.1863  2.2605 -2.1255
  258SOL     OW  772   2.959   1.191   0.525 -0.0244  0.0001  0.0229
  258SOL    HW1  773   2.871   1.199   0.576  2.6474  1.4341  2.0415
  258SOL    HW2  774   3.035   1.211   0.591 -2.5604 -0.0616 -2.4960
  259SOL     OW  775   0.455   2.939   3.026 -0.7566  0.1297  0.4603
  259SOL    HW1  776   0.382   2.880   3.069  1.4995  0.8743  0.3826
  259SOL    HW2  777   0.491   2.894   2.934  0.8927  0.8020 -1.7450
  260SOL     OW  778   2.717   0.726   2.787 -0.2872 -0.9086 -0.0488
  260SOL    HW1  779   2.654   0.776   2.723  1.6160 -0.1289 -0.7765
  260SOL    HW2  780   2.687   0.628   2.801  1.2758 -1.4426  0.8399
  261SOL     OW  781   2.671   1.275   1.297 -0.0153  0.2514  0.3235
  261SOL    HW1  782   2.596   1.243   1.232  0.4963  0.2790 -0.6620
  261SOL    HW2  783   2.756   1.219   1.293 -0.6999  1.3269 -2.4938
  262SOL     OW  784   1.401   2.947   2.026  0.6720 -0.1799 -0.8234
  262SOL    HW1  785   1.422   3.036   1.977 -1.3207  0.7954  4.1036
  262SOL    HW2  786   1.299   2.917   2.025 -0.3474 -0.6288 -1.6380
  263SOL     OW  787   0.801   0.657   2.305 -0.1552  0.7852 -1.0206
  263SOL    HW1  788   0.720   0.596   2.290  1.7547  0.3656 -3.1693
  263SOL    HW2  789   0.815   0.722   2.223  0.5086 -0.9536  2.8045
  264SOL     OW  790   2.267   0.802   0.429 -0.0244  0.2352  0.5031
  264SOL    HW1  791   2.273   0.746   0.340 -2.3249  1.1558 -0.9169
  264SOL    HW2  792   2.361   0.832   0.458 -0.2030  1.6787  1.0653
  265SOL     OW  793   0.865   2.336   2.633 -0.1651 -0.6223 -0.0820
  265SOL    HW1  794   0.851   2.326   2.738  0.7974 -2.8629  1.5018
  265SOL    HW2  795   0.846   2.255   2.578  0.5441  0.5834 -0.2820
  266SOL     OW  796   1.273   1.806   3.036 -0.4762  0.1574  0.1595
  266SOL    HW1  797   1.263   1.839   3.132  0.5349 -1.0227 -2.4152
  266SOL    HW2  798   1.374   1.801   3.007 -2.1220  0.3595  0.7888
  267SOL     OW  799   1.041   3.055   2.308  0.3638 -0.4758 -0.6674
  267SOL    HW1  800   0.955   3.036   2.255  2.8200 -0.3235  0.2110
  267SOL    HW2  801   1.117   3.099   2.246 -3.6009 -2.3968 -1.3090
  268SOL     OW  802   0.845   1.316   1.140 -0.3957 -0.4379  0.6820
  268SOL    HW1  803   0.771   1.378   1.181  1.2918 -0.2464  0.0083
  268SOL    HW2  804   0.879   1.355   1.047 -0.2970 -0.4538 -0.3291
  269SOL     OW  805   2.331   2.535   1.590 -0.0274 -0.2322  0.4871
  269SOL    HW1  806   2.406   2.472   1.570 -1.3793  1.7525  0.2800
  269SOL    HW2  807   2.309   2.551   1.687  0.9555 -0.4043 -2.2096
  270SOL     OW  808   0.133   3.048   2.027 -0.2667 -0.0572 -0.2612
  270SOL    HW1  809   0.181   3.005   1.944 -1.0892  2.3578  0.0465
  270SOL    HW2  810   0.101   2.971   2.089 -0.9017 -1.1782  0.3015
  271SOL     OW  811   0.406   1.434   1.102 -0.3318 -0.5722  0.0284
  271SOL    HW1  812   0.437   1.404   1.006 -2.2393  0.9594 -0.3530
  271SOL    HW2  813   0.322   1.380   1.135 -2.2533 -0.6753  2.7286
  272SOL     OW  814   1.872   0.031   1.901 -0.4040  0.0707 -0.6061
  272SOL    HW1  815   1.826  -0.054   1.862  1.4804 -1.3115 -1.2464
  272SOL    HW2  816   1.850   0.124   1.857  1.5942  1.4492  0.4732
  273SOL     OW  817   1.435   1.445   2.875 -0.1017 -0.2853 -0.7297
  273SOL    HW1  818   1.334   1.456   2.888 -0.1189 -0.9048 -0.0901
  273SOL    HW2  819   1.486   1.450   2.968  0.2920  1.1718 -0.3500
  274SOL     OW  820   1.188   0.598   2.068 -0.1669 -0.5691  0.5548
  274SOL    HW1  821   1.116   0.531   2.091  2.4477 -0.1041 -2.1067
  274SOL    HW2  822   1.245   0.623   2.149 -1.0735  1.6739  1.1839
  275SOL     OW  823   0.639   2.105   1.968 -0.1480  0.0376  0.3402
  275SOL    HW1  824   0.573   2.030   1.985  0.1976  1.9728  0.1218
  275SOL    HW2  825   0.590   2.197   1.956 -1.9423 -0.6341 -1.3102
  276SOL     OW  826   2.251   0.948   2.855  0.6697 -0.2074  0.5090
  276SOL    HW1  827   2.160   0.974   2.814 -0.0345 -0.9515  0.9616
  276SOL    HW2  828   2.251   0.855   2.898  0.6051  0.4953 -1.0274
  277SOL     OW  829   0.000   0.778   0.253 -0.6591 -0.1745 -0.1605
  277SOL    HW1  830   0.098   0.795   0.218 -0.0289 -2.0023 -0.2263
  277SOL    HW2  831  -0.010   0.694   0.313 -0.9863  0.9721  1.0981
  278SOL     OW  832   0.294   0.239   0.011  0.4327 -0.4115  0.4398
  278SOL    HW1  833   0.362   0.180  -0.042  2.6326 -0.5728 -0.4971
  278SOL    HW2  834   0.314   0.339  -0.002  0.3962 -1.1973  1.9695
  279SOL     OW  835   0.268   2.992   0.926 -0.0015 -0.3886  0.5782
  279SOL    HW1  836   0.351   3.010   0.982 -1.6126  0.8569 -2.1628
  279SOL    HW2  837   0.269   2.907   0.868 -1.3556 -0.9511 -0.4068
  280SOL     OW  838   1.572   2.888   2.439  0.0426 -0.1137 -0.2776
  280SOL    HW1  839   1.639   2.959   2.483  2.0043  1.6302  0.8576
  280SOL    HW2  840   1.515   2.922   2.362  2.9440 -0.4164 -1.1912
  281SOL     OW  841   0.560   0.926   2.379  0.1312 -0.3471 -0.1722
  281SOL    HW1  842   0.526   0.876   2.298  2.1941  2.3877  1.4249
  281SOL    HW2  843   0.534   0.883   2.470  2.5820  2.6042  1.3755
  282SOL     OW  844   1.792   2.472   0.546 -0.0610 -0.5373 -0.3939
  282SOL    HW1  845   1.750   2.398   0.488  0.9005  0.5107  0.4688
  282SOL    HW2  846   1.738   2.557   0.538 -1.0552 -0.6605 -1.4024
  283SOL     OW  847   1.181   0.946   0.803  0.1596 -0.3708 -0.4321
  283SOL    HW1  848   1.198   0.891   0.889 -1.0128 -1.1834 -2.0577
  283SOL    HW2  849   1.138   1.038   0.825 -2.0703 -2.2210 -0.7034
  284SOL     OW  850   2.268   2.826   2.454  0.2607  0.3329 -0.0801
  284SOL    HW1  851   2.358   2.873   2.449 -1.4479 -0.0185  0.4277
  284SOL    HW2  852   2.227   2.829   2.548 -1.7981  0.2662 -0.9283
  285SOL     OW  853   1.309   3.074   2.591  0.4159 -0.1014 -0.6500
  285SOL    HW1  854   1.362   3.064   2.505  1.6549 -0.9391 -1.3901
  285SOL    HW2  855   1.210   3.084   2.569  1.7224  0.4323 -1.0668
  286SOL     OW  856   0.258   0.351   0.657 -0.1253 -0.0632 -0.2304
  286SOL    HW1  857   0.290   0.277   0.721 -1.1806  0.1617  2.8972
  286SOL    HW2  858   0.287   0.326   0.556 -1.9712  1.9240 -0.6296
  287SOL     OW  859   0.094   1.264   2.532  0.4353 -0.5362 -0.3808
  287SOL    HW1  860   0.041   1.201   2.592 -0.6177 -0.7284  0.5523
  287SOL    HW2  861   0.063   1.364   2.531 -0.7473 -0.8774  1.1260
  288SOL     OW  862   1.511   2.680   1.658 -0.0302 -0.5010 -0.2706
  288SOL    HW1  863   1.538   2.607   1.731  1.0674 -0.9270 -0.2737
  288SOL    HW2  864   1.570   2.673   1.577  0.6594  1.3641  1.9281
  289SOL     OW  865   0.637   2.772   0.806 -0.0626 -0.4748 -0.7471
  289SOL    HW1  866   0.684   2.832   0.741 -3.0647  0.5324  0.4931
  289SOL    HW2  867   0.601   2.825   0.888  3.0290  1.2485  1.1965
  290SOL     OW  868   2.839   1.108   1.690 -0.0585 -0.0681 -0.0415
  290SOL    HW1  869   2.756   1.050   1.705 -0.6223  0.2338  2.7818
  290SOL    HW2  870   2.916   1.098   1.761  0.4765  0.9144 -3.6812
  291SOL     OW  871   1.920   0.001   0.071  0.0508  0.1610  0.0861
  291SOL    HW1  872   1.949   0.031   0.169 -2.2130 -0.8881  0.8223
  291SOL    HW2  873   2.001   0.025   0.006  0.7474  0.2499  0.0406
  292SOL     OW  874   2.984   1.293   0.023  0.0234  0.0071  0.1679
  292SOL    HW1  875   2.899   1.310  -0.038 -0.5152 -0.6867  1.7624
  292SOL    HW2  876   3.067   1.271  -0.038  1.5940  1.6703  0.1838
  293SOL     OW  877   0.533   2.064   0.277 -0.1542 -0.1171 -0.2848
  293SOL    HW1  878   0.524   2.124   0.362  1.3695 -1.7112 -2.0400
  293SOL    HW2  879   0.630   2.022   0.263 -2.5613 -0.8354 -2.3117
  294SOL     OW  880   1.860   2.348   1.823 -0.0353  0.1482 -0.0821
  294SOL    HW1  881   1.913   2.351   1.912 -1.2378  1.0250  2.5018
  294SOL    HW2  882   1.791   2.425   1.814  0.2335  0.0942 -1.1735
  295SOL     OW  883   0.962   1.018   0.439  0.3003 -0.3585  0.5652
  295SOL    HW1  884   1.062   1.046   0.454 -2.1213  0.0329  1.2579
  295SOL    HW2  885   0.927   0.969   0.527 -0.4144  1.7677  0.4018
  296SOL     OW  886   1.153   2.125   2.743  0.0133 -0.0002 -0.6343
  296SOL    HW1  887   1.098   2.201   2.778 -0.3712 -1.1571 -0.7168
  296SOL    HW2  888   1.157   2.120   2.639  2.1646 -1.8792  0.1441
  297SOL     OW  889   1.290   0.580   1.241  0.5459  0.3319 -0.0993
  297SOL    HW1  890   1.309   0.508   1.310  0.7464  2.0966  0.5557
  297SOL    HW2  891   1.372   0.602   1.184  0.2132 -0.4087  0.6598
  298SOL     OW  892   0.469   1.302   2.962  0.2407  0.7854  0.2106
  298SOL    HW1  893   0.436   1.247   3.047 -0.5477 -0.4734 -0.0571
  298SOL    HW2  894   0.503   1.240   2.890 -2.4301  0.8214  0.9809
  299SOL     OW  895   0.398   0.171   1.246  0.1428  0.2979  0.2495
  299SOL    HW1  896   0.341   0.248   1.216  1.0731 -0.6317  1.3693
  299SOL    HW2  897   0.394   0.157   1.347  0.0041 -1.9038 -3.1027
  300SOL     OW  898   1.333   1.804   2.576 -0.7051 -0.5576  0.1133
  300SOL    HW1  899   1.282   1.721   2.538 -1.1881 -3.4952  1.6155
  300SOL    HW2  900   1.391   1.776   2.657 -2.6232 -1.7808 -1.8560
  301SOL     OW  901   0.306   0.272   0.389 -0.1419  0.0470 -0.0143
  301SOL    HW1  902   0.219   0.254   0.337 -1.2584 -2.2139 -0.8278
  301SOL    HW2  903   0.382   0.206   0.372  1.4670 -0.8741  2.1131
  302SOL     OW  904   1.239   2.388   2.296 -0.0983  0.2408 -0.0627
  302SOL    HW1  905   1.145   2.379   2.343 -1.0112 -0.2522  0.0664
  302SOL    HW2  906   1.310   2.327   2.337  0.7613  0.2619  1.4079
  303SOL     OW  907   0.858   2.458   0.764  0.1292 -0.2309 -0.5871
  303SOL    HW1  908   0.866   2.494   0.665 -2.2762  1.3922 -2.4682
  303SOL    HW2  909   0.915   2.508   0.837 -2.6695  1.5091  0.1996
  304SOL     OW  910   0.140   1.929   0.717  0.1266 -0.2473 -0.5598
  304SOL    HW1  911   0.201   1.959   0.642  0.0272 -2.5653 -1.7581
  304SOL    HW2  912   0.036   1.931   0.695 -0.4123 -0.8551  3.0004
  305SOL     OW  913   1.654   0.792   0.699 -0.1488 -0.3602 -0.3490
  305SOL    HW1  914   1.593   0.795   0.615  2.4811  0.7374 -0.6684
  305SOL    HW2  915   1.699   0.697   0.703 -1.7051 -1.3099 -1.2061
  306SOL     OW  916   0.411   1.911   1.966  0.5612  0.3468  0.4133
  306SOL    HW1  917   0.467   1.829   1.936  1.7437  0.4877 -0.8291
  306SOL    HW2  918   0.411   1.929   2.065  1.1201 -1.7833 -0.1170
  307SOL     OW  919   3.049   0.899   2.583 -0.6062  0.1589  0.6281
  307SOL    HW1  920   3.057   0.987   2.634  0.1793  1.1681  1.3183
  307SOL    HW2  921   3.019   0.822   2.644 -0.1661 -0.0818 -0.5444
  308SOL     OW  922   1.475   2.689   2.812  0.0732  0.1552 -0.1746
  308SOL    HW1  923   1.443   2.680   2.713  0.4519 -1.8064  0.0069
  308SOL    HW2  924   1.430   2.614   2.873 -1.2738 -0.6700  1.5935
  309SOL     OW  925   1.159   0.183   1.827 -0.5403  0.3876  0.0417
  309SOL    HW1  926   1.239   0.139   1.780 -0.3103  1.6245  0.0449
  309SOL    HW2  927   1.083   0.203   1.760 -1.3934  0.0695  1.2408
  310SOL     OW  928   1.439   2.557   0.651 -0.3702  0.8574  0.0650
  310SOL    HW1  929   1.439   2.585   0.752 -0.6556 -0.5013  2.7392
  310SOL    HW2  930   1.509   2.611   0.597 -2.6614  0.9434  1.1175
  311SOL     OW  931   1.118   0.929   1.751  0.0415 -0.2262 -0.5347
  311SOL    HW1  932   1.083   0.834   1.779  0.1110 -0.4014 -0.8840
  311SOL    HW2  933   1.175   0.933   1.666  0.5154  1.0047 -0.6123
  312SOL     OW  934   1.483   0.631   1.022 -0.1892  0.0433 -0.2791
  312SOL    HW1  935   1.538   0.717   1.017 -2.6963 -0.4004 -0.8187
  312SOL    HW2  936   1.444   0.604   0.929  0.9138 -1.9442  1.9440
  313SOL     OW  937   1.659   1.292   0.721  0.0358  0.2376 -0.1045
  313SOL    HW1  938   1.582   1.315   0.786 -1.3326  0.7642 -1.0683
  313SOL    HW2  939   1.653   1.201   0.670  1.5014 -1.6734 -0.7821
  314SOL     OW  940   3.010   0.008   3.082  0.2203  0.5667  0.0345
  314SOL    HW1  941   3.037  -0.028   3.175  0.2587 -1.9222  1.7619
  314SOL    HW2  942   2.922  -0.034   3.045  1.2711  0.7720 -0.7898
  315SOL     OW  943   1.196   0.210   2.804 -0.4997  0.2419 -0.1352
  315SOL    HW1  944   1.146   0.158   2.730 -0.1675  3.0216  0.2541
  315SOL    HW2  945   1.172   0.177   2.897  0.4456  0.6500 -0.2233
  316SOL     OW  946   1.753   2.055   0.863 -0.2623 -0.1742 -0.3036
  316SOL    HW1  947   1.722   2.069   0.962  2.0629 -1.6745  0.1480
  316SOL    HW2  948   1.776   2.147   0.824 -0.2838  2.9810  1.2333
  317SOL     OW  949   1.174   0.709   2.726  0.2361  0.1732  0.0436
  317SOL    HW1  950   1.136   0.774   2.797  0.5198 -0.3213  0.3112
  317SOL    HW2  951   1.110   0.633   2.695 -0.1844  0.0561 -0.9810
  318SOL     OW  952   1.407   3.062   2.319  0.1769 -0.1284  0.1401
  318SOL    HW1  953   1.414   3.158   2.277  1.6407 -0.5889 -0.4603
  318SOL    HW2  954   1.389   2.994   2.238  2.2734  1.1773 -3.4338
  319SOL     OW  955   0.612   2.383   3.034 -0.0138  0.1876  0.1991
  319SOL    HW1  956   0.568   2.294   3.068  0.2248  0.0349  1.1766
  319SOL    HW2  957   0.684   2.373   2.962  0.2619  1.1576 -2.4426
  320SOL     OW  958   1.698   2.249   0.407  0.2003 -0.1175  0.1748
  320SOL    HW1  959   1.759   2.166   0.391 -0.5915 -2.2402  1.8630
  320SOL    HW2  960   1.602   2.216   0.431 -1.6250 -0.0565  0.0441
  321SOL     OW  961   1.607   2.704   0.509 -0.0649 -0.0807 -0.0683
  321SOL    HW1  962   1.557   2.734   0.425  2.2763 -0.7609  2.5085
  321SOL    HW2  963   1.703   2.746   0.513 -0.0137  2.8355  3.3069
  322SOL     OW  964   2.545   1.069   2.330  0.1540  0.4031  0.2120
  322SOL    HW1  965   2.624   1.037   2.387 -2.5709  0.9680 -0.8360
  322SOL    HW2  966   2.480   0.989   2.316 -3.5810  1.3562  0.5002
  323SOL     OW  967   1.151   2.707   0.754  0.4937 -0.3517 -0.0877
  323SOL    HW1  968   1.120   2.665   0.662  3.2141  2.1407 -1.0268
  323SOL    HW2  969   1.172   2.813   0.746  1.2392  1.9679 -0.4838
  324SOL     OW  970   0.069   2.542   2.416 -0.1599 -0.7058 -0.1829
  324SOL    HW1  971   0.015   2.481   2.482  2.5884 -0.2399  1.7001
  324SOL    HW2  972   0.048   2.643   2.424  0.2129  0.2851  1.4159
  325SOL     OW  973   1.293   3.025   0.424 -0.3692 -0.3474 -0.5242
  325SOL    HW1  974   1.291   3.104   0.353  1.9441  2.0483 -1.8146
  325SOL    HW2  975   1.314   3.064   0.519  1.0770  1.4243 -1.1102
  326SOL     OW  976   2.441   0.898   0.018  0.2970 -0.5308 -0.1744
  326SOL    HW1  977   2.340   0.876   0.025  0.4250  2.3151  2.0473
  326SOL    HW2  978   2.504   0.818   0.042  2.6816 -2.0503 -0.4923
  327SOL     OW  979   2.832   0.183   0.563  0.1287 -0.2457 -0.2575
  327SOL    HW1  980   2.810   0.126   0.478 -1.0844  0.6244  0.1569
  327SOL    HW2  981   2.869   0.131   0.645 -0.5186  0.8470  0.0034
  328SOL     OW  982   2.650   0.601   0.380  0.0372 -0.2603  0.5648
  328SOL    HW1  983   2.714   0.664   0.435  2.2566  0.8684 -1.0993
  328SOL    HW2  984   2.624   0.519   0.436  0.5335 -0.0236  1.0603
  329SOL     OW  985   2.931   3.051   2.252 -0.2434  0.2830  0.0171
  329SOL    HW1  986   3.013   2.991   2.240  0.0526  1.5603  0.7532
  329SOL    HW2  987   2.949   3.151   2.227  0.2017  1.5658 -1.0623
  330SOL     OW  988   0.540   0.319   1.980  0.2859  0.6965  0.7558
  330SOL    HW1  989   0.620   0.347   1.921 -0.5065  1.2931 -1.7117
  330SOL    HW2  990   0.558   0.248   2.050  1.5535  1.4094  0.4260
  331SOL     OW  991   0.018   1.929   1.114 -0.1233  0.1205  0.4508
  331SOL    HW1  992  -0.006   2.016   1.065 -3.0048  0.0961 -0.7382
  331SOL    HW2  993  -0.058   1.904   1.181 -3.1506  0.6963 -1.6636
  332SOL     OW  994   0.435   1.155   0.076  0.2155 -0.2724  0.7415
  332SOL    HW1  995   0.378   1.082   0.031  0.9315 -0.1987 -0.5488
  332SOL    HW2  996   0.395   1.182   0.170 -0.3588 -0.4407 -0.9082
  333SOL     OW  997   2.920   0.949   0.370  0.1792  0.2783 -0.2958
  333SOL    HW1  998   2.958   1.026   0.429 -4.6405 -1.6454  0.3168
  333SOL    HW2  999   2.991   0.891   0.332 -2.0934  4.8329  2.3395
  334SOL     OW 1000   1.716   1.155   1.704  0.0248  0.4803  0.7111
  334SOL    HW1 1001   1.772   1.160   1.612 -2.4017 -0.1645 -0.8703
  334SOL    HW2 1002   1.767   1.194   1.787 -2.1501 -1.1147 -0.1750
  335SOL     OW 1003   1.938   2.753   2.597 -0.0211 -0.0579  0.3596
  335SOL    HW1 1004   1.878   2.750   2.678  3.1607 -0.3826  0.2181
  335SOL    HW2 1005   2.029   2.803   2.612  0.7689 -0.9670 -0.1519
  336SOL     OW 1006   0.285   0.109   2.732 -0.2338  0.0453  0.4352
  336SOL    HW1 1007   0.368   0.126   2.795 -1.0817 -0.5167 -2.0245
  336SOL    HW2 1008   0.217   0.040   2.765 -0.8535 -0.0934 -1.9008
  337SOL     OW 1009   0.785   2.845   3.047 -0.2854 -0.9345  0.1711
  337SOL    HW1 1010   0.827   2.768   3.097 -3.1635  1.3609 -2.6834
  337SOL    HW2 1011   0.758   2.911   3.127  2.9837  2.0421  1.2126
  338SOL     OW 1012   0.059   0.946   0.704  0.9190 -0.5199  0.2151
  338SOL    HW1 1013  -0.039   0.911   0.725  0.4485  0.5524  0.8674
  338SOL    HW2 1014   0.070   1.048   0.727 -1.3682  1.1584  0.2180
  339SOL     OW 1015   1.770   1.354   2.141 -0.1587  0.5086  0.0939
  339SOL    HW1 1016   1.668   1.358   2.150  0.2314  2.1772  1.0941
  339SOL    HW2 1017   1.811   1.446   2.159  2.7253  0.3992 -0.5013
  340SOL     OW 1018   2.258   0.768   1.097 -0.0293  0.1219  0.1690
  340SOL    HW1 1019   2.169   0.809   1.119  2.3809 -0.4054 -0.3158
  340SOL    HW2 1020   2.246   0.674   1.049  3.0412 -1.1243  0.2219
  341SOL     OW 1021   1.871   2.059   0.317  0.1780  0.4410 -0.7868
  341SOL    HW1 1022   1.918   2.104   0.240  0.2031 -1.4787 -1.4681
  341SOL    HW2 1023   1.935   2.022   0.388  0.1968  1.3735  0.5346
  342SOL     OW 1024   2.163   2.148   2.767 -0.5340 -0.3199 -0.2099
  342SOL    HW1 1025   2.214   2.064   2.808 -0.5487 -1.7536 -0.2118
  342SOL    HW2 1026   2.067   2.125   2.734 -2.3511 -0.5412  0.0264
  343SOL     OW 1027   0.357   0.852   2.877  0.0863 -0.7897  0.6020
  343SOL    HW1 1028   0.336   0.907   2.788  0.1371 -0.4375 -1.2767
  343SOL    HW2 1029   0.442   0.795   2.879 -0.7665  0.9746 -1.5533
  344SOL     OW 1030   1.940   1.421   0.345 -0.1819  0.0219  0.1503
  344SOL    HW1 1031   1.937   1.336   0.286 -0.0921 -1.8365  1.3750
  344SOL    HW2 1032   1.847   1.452   0.381  2.6653  1.6864  1.6878
  345SOL     OW 1033   1.407   2.190   2.856  0.3095  0.0477  0.2244
  345SOL    HW1 1034   1.310   2.175   2.828  1.7589 -0.6700 -1.3828
  345SOL    HW2 1035   1.463   2.119   2.813 -3.4353 -0.5506  2.7493
  346SOL     OW 1036   2.290   0.816   1.385 -0.1681  0.1405  0.5295
  346SOL    HW1 1037   2.193   0.828   1.416 -1.9508  2.1293  0.7973
  346SOL    HW2 1038   2.302   0.802   1.282  0.4578 -1.0954 -1.1708
  347SOL     OW 1039   0.709   2.793   1.707  0.3531  0.0195 -0.0509
  347SOL    HW1 1040   0.792   2.846   1.705 -0.0135 -2.1405 -0.4832
  347SOL    HW2 1041   0.662   2.797   1.616 -1.6710 -1.1184 -0.3478
  348SOL     OW 1042   0.190   0.610   2.835 -0.0558  0.1099 -0.1757
  348SOL    HW1 1043   0.091   0.633   2.810 -0.7436  0.8805  2.7878
  348SOL    HW2 1044   0.247   0.695   2.835 -0.1602  0.6945 -1.3610
  349SOL     OW 1045   1.772   0.422   2.826  0.4875 -0.0595  0.1318
  349SOL    HW1 1046   1.781   0.514   2.777  2.8167 -0.3996 -1.8993
  349SOL    HW2 1047   1.745   0.431   2.928 -0.0441 -0.1965  0.0457
  350SOL     OW 1048   1.740   0.373   0.381  0.5075 -0.4503  0.1913
  350SOL    HW1 1049   1.829   0.349   0.432 -1.0483  2.5629  0.4735
  350SOL    HW2 1050   1.739   0.479   0.394  1.2862 -0.2150 -0.3011
  351SOL     OW 1051   0.851   0.791   2.079  0.3351 -0.0036 -0.2337
  351SOL    HW1 1052   0.866   0.888   2.058  2.3395 -2.4285  1.2334
  351SOL    HW2 1053   0.917   0.731   2.025  2.5694  0.2033 -1.0699
  352SOL     OW 1054   2.079   1.404   0.591  0.2153  0.9828 -0.5300
  352SOL    HW1 1055   2.013   1.427   0.515 -2.5853  0.1885  2.8733
  352SOL    HW2 1056   2.042   1.336   0.655 -0.1920  3.4081  0.5909
  353SOL     OW 1057   2.179   2.695   1.133  0.3175  0.0666  0.5099
  353SOL    HW1 1058   2.253   2.629   1.171 -2.8205  0.6986  3.9798
  353SOL    HW2 1059   2.110   2.726   1.204 -0.2310 -0.5846 -1.2397
  354SOL     OW 1060   0.228   1.424   2.888 -0.7653 -0.3208 -0.1000
  354SOL    HW1 1061   0.214   1.471   2.796  1.5813  2.7969  1.0825
  354SOL    HW2 1062   0.332   1.412   2.903 -0.3608 -0.6489 -0.9946
  355SOL     OW 1063   0.720   1.609   0.609  0.2923 -0.2432 -0.4475
  355SOL    HW1 1064   0.711   1.585   0.710 -2.1772 -0.4383 -0.3580
  355SOL    HW2 1065   0.700   1.523   0.556  0.8436  0.7002  2.6938
  356SOL     OW 1066   0.993   0.352   2.096 -0.2006  0.0094  0.0501
  356SOL    HW1 1067   1.058   0.271   2.096  0.5811  1.5355 -0.3641
  356SOL    HW2 1068   0.914   0.347   2.032  1.5564  1.7175 -0.2235
  357SOL     OW 1069   1.031   1.475   0.133  0.3128  0.9687 -0.0261
  357SOL    HW1 1070   1.060   1.404   0.063  0.8922 -1.0894  2.5167
  357SOL    HW2 1071   1.116   1.520   0.165 -0.4904 -0.2425 -1.9012
  358SOL     OW 1072   1.697   1.493   0.453  0.2160  0.2182  0.0217
  358SOL    HW1 1073   1.669   1.459   0.546 -1.7568  1.0981  1.3483
  358SOL    HW2 1074   1.626   1.472   0.381 -0.6320  1.5655  0.2372
  359SOL     OW 1075   1.629   2.567   0.197 -0.2136 -0.1781 -0.2534
  359SOL    HW1 1076   1.599   2.473   0.164 -1.0109  0.7772 -0.9885
  359SOL    HW2 1077   1.549   2.624   0.231  1.4503  0.5826  1.1934
  360SOL     OW 1078   0.727   0.508   0.560  0.1556 -0.0440 -0.2539
  360SOL    HW1 1079   0.655   0.503   0.492  1.9926 -0.6699  2.9458
  360SOL    HW2 1080   0.775   0.421   0.587 -1.5254  0.2582  0.4859
  361SOL     OW 1081   1.366   1.301   0.607 -0.0481 -0.5127 -0.7578
  361SOL    HW1 1082   1.399   1.339   0.700 -0.8669  0.6987 -1.6835
  361SOL    HW2 1083   1.275   1.354   0.584 -3.7635 -2.5511 -1.2973
  362SOL     OW 1084   1.403   1.827   0.724  0.3061  0.5572  0.0545
  362SOL    HW1 1085   1.445   1.764   0.793  1.2440  1.4338 -1.1262
  362SOL    HW2 1086   1.471   1.883   0.671  0.4133  0.8789  1.8490
  363SOL     OW 1087   1.256   1.337   1.924  0.0374 -0.3907 -0.3015
  363SOL    HW1 1088   1.300   1.386   2.001 -0.7815 -1.9228 -0.2778
  363SOL    HW2 1089   1.248   1.391   1.837 -2.9799  1.9647  1.0194
  364SOL     OW 1090   0.553   2.386   1.973  0.0516  0.3895  0.4913
  364SOL    HW1 1091   0.451   2.392   2.000 -0.2467 -1.1703 -1.7235
  364SOL    HW2 1092   0.593   2.482   1.966 -0.8556 -1.6056  1.8911
  365SOL     OW 1093   0.932   1.946   1.418 -0.5503  0.2065  0.1506
  365SOL    HW1 1094   0.835   1.949   1.452 -1.4411 -2.1107  1.8443
  365SOL    HW2 1095   0.944   1.981   1.320 -0.7406 -1.3700 -1.2219
  366SOL     OW 1096   2.736   1.875   0.254 -0.4515  0.1936 -0.0858
  366SOL    HW1 1097   2.661   1.807   0.240  0.8833 -0.8184  1.4505
  366SOL    HW2 1098   2.825   1.829   0.260 -0.4690 -0.2114 -2.2076
  367SOL     OW 1099   0.944   1.083   3.035 -0.4956  0.1015  0.3257
  367SOL    HW1 1100   0.934   1.041   3.132 -3.9841  0.2635 -0.1360
  367SOL    HW2 1101   1.004   1.164   3.034  0.0526 -1.5996 -0.0395
  368SOL     OW 1102   1.456   0.491   0.485  0.6572 -0.5130  0.2100
  368SOL    HW1 1103   1.357   0.505   0.474  1.5671 -5.6676  2.7742
  368SOL    HW2 1104   1.516   0.548   0.419  2.0835 -2.9444 -0.3211
  369SOL     OW 1105   0.328   1.638   0.149 -0.5999 -0.5876  0.1035
  369SOL    HW1 1106   0.390   1.677   0.224 -1.3229  0.8594  2.1395
  369SOL    HW2 1107   0.253   1.580   0.183  1.1601  1.7984 -2.0263
  370SOL     OW 1108   0.449   2.137   1.031 -0.5412  0.0159 -0.1607
  370SOL    HW1 1109   0.467   2.241   1.017 -1.9325 -2.2544  0.4386
  370SOL    HW2 1110   0.354   2.108   0.998 -0.0660 -1.7483  0.2602
  371SOL     OW 1111   2.913   2.157   2.688 -0.4536 -0.1204 -0.5168
  371SOL    HW1 1112   2.989   2.094   2.664 -0.9471 -0.0592 -2.1078
  371SOL    HW2 1113   2.935   2.222   2.766  0.5883 -1.5285  3.2874
  372SOL     OW 1114   0.971   2.066   1.170  0.0894  0.7883 -0.7082
  372SOL    HW1 1115   0.894   2.111   1.116  2.0995  0.5716 -1.3059
  372SOL    HW2 1116   1.045   2.133   1.196  2.3163  0.4933 -1.1247
  373SOL     OW 1117   1.904   1.879   1.029 -0.3751 -0.7632 -0.0407
  373SOL    HW1 1118   1.986   1.901   1.087 -2.0240 -1.0063 -1.9889
  373SOL    HW2 1119   1.880   1.953   0.961  2.2973  1.4456  0.1509
  374SOL     OW 1120   1.931   0.295   0.561  0.1542 -0.8378 -0.2054
  374SOL    HW1 1121   1.892   0.268   0.651 -0.5616 -1.6755 -3.1648
  374SOL    HW2 1122   2.034   0.321   0.568  1.5269  0.1998 -2.0091
  375SOL     OW 1123   2.426   2.157   1.110 -0.0781 -0.6828 -0.4154
  375SOL    HW1 1124   2.456   2.223   1.032 -0.8451 -2.9810 -1.3570
  375SOL    HW2 1125   2.507   2.120   1.169  1.3718 -1.6243 -0.2283
  376SOL     OW 1126   3.062   0.617   1.439  0.1413 -0.0813  0.2385
  376SOL    HW1 1127   3.102   0.655   1.524  0.2189 -4.1526 -0.0366
  376SOL    HW2 1128   3.027   0.522   1.442  1.0885 -1.1812  1.7094
  377SOL     OW 1129   2.265   2.941   0.169  0.0574 -0.1402  0.2476
  377SOL    HW1 1130   2.199   2.995   0.229  0.0078 -0.6460 -0.4643
  377SOL    HW2 1131   2.305   2.864   0.227  2.1913  1.6749  0.7874
  378SOL     OW 1132   1.905   1.910   2.510 -0.1209 -0.3456 -0.4180
  378SOL    HW1 1133   2.000   1.876   2.508 -0.4894 -0.8110 -0.3875
  378SOL    HW2 1134   1.837   1.840   2.480  0.8620  0.3834 -2.3035
  379SOL     OW 1135   0.778   0.155   2.770  0.2782  0.0350 -0.0835
  379SOL    HW1 1136   0.810   0.060   2.741  1.7889  0.9214 -3.3010
  379SOL    HW2 1137   0.752   0.216   2.687 -0.1619  0.2707 -4.3534
  380SOL     OW 1138   1.555   1.091   0.549 -0.2658  0.1008  0.1863
  380SOL    HW1 1139   1.475   1.155   0.575  0.6746  0.2801  0.5065
  380SOL    HW2 1140   1.527   0.996   0.519  1.4601 -1.2976  0.3219
  381SOL     OW 1141   1.264   1.289   1.443 -0.0169 -0.2427 -0.2968
  381SOL    HW1 1142   1.331   1.241   1.379  0.0715 -2.4564 -0.5410
  381SOL    HW2 1143   1.303   1.321   1.536 -1.0103  1.7484 -1.3348
  382SOL     OW 1144   1.802   0.865   0.285 -0.1258  0.0232 -0.3999
  382SOL    HW1 1145   1.804   0.832   0.185  0.6245 -1.4663 -0.7739
  382SOL    HW2 1146   1.891   0.841   0.343 -1.9392 -0.2303  1.9487
  383SOL     OW 1147   2.502   1.002   1.485 -0.2799 -0.6590 -0.1980
  383SOL    HW1 1148   2.420   0.956   1.444 -0.1784  2.1161 -2.0662
  383SOL    HW2 1149   2.583   0.999   1.414 -1.1855 -0.1388 -0.1261
  384SOL     OW 1150   0.968   2.291   0.223  0.0560 -0.3126  0.8322
  384SOL    HW1 1151   0.874   2.327   0.223 -0.3765  0.5258 -2.8741
  384SOL    HW2 1152   1.006   2.269   0.316 -1.2636 -0.2101  0.9988
  385SOL     OW 1153   2.915   2.035   1.627 -0.3382  0.3019 -0.2647
  385SOL    HW1 1154   2.996   2.070   1.687 -0.5803 -0.5001 -0.8585
  385SOL    HW2 1155   2.868   1.950   1.660 -0.6485 -0.1788 -1.8226
  386SOL     OW 1156   0.478   1.056   0.491 -0.0357 -0.4284 -0.0977
  386SOL    HW1 1157   0.470   0.956   0.485  2.2998  0.4404  1.4858
  386SOL    HW2 1158   0.393   1.118   0.479  2.0220 -0.9710  0.4668
  387SOL     OW 1159   0.950   0.272   1.638  0.1974 -0.4095  0.0773
  387SOL    HW1 1160   0.956   0.373   1.627 -3.1329 -0.6037 -0.3009
  387SOL    HW2 1161   0.921   0.230   1.547 -1.0955  1.2907  0.5548
  388SOL     OW 1162   1.225   2.721   1.770  0.3311  0.3202  0.9139
  388SOL    HW1 1163   1.233   2.765   1.679  0.2762 -0.3829  1.3539
  388SOL    HW2 1164   1.295   2.649   1.783  0.6986  0.5814  0.5188
  389SOL     OW 1165   0.147   2.918   1.336 -0.4198 -0.0031  0.3806
  389SOL    HW1 1166   0.060   2.929   1.283  0.8128  1.0343  0.8042
  389SOL    HW2 1167   0.190   2.826   1.327  1.2538  0.5109 -0.8153
  390SOL     OW 1168   1.035   0.964   1.357  0.2749 -0.0289 -0.1608
  390SOL    HW1 1169   1.122   0.960   1.413  2.5212  0.2733 -0.3721
  390SOL    HW2 1170   0.974   1.047   1.371 -1.9737 -0.1128  1.5091
  391SOL     OW 1171   2.144   1.143   1.122 -0.4435 -0.4629  0.2520
  391SOL    HW1 1172   2.101   1.070   1.180  3.5063 -1.1337  0.4075
  391SOL    HW2 1173   2.199   1.114   1.040  2.0078  2.4682  1.3510
  392SOL     OW 1174   0.905   2.598   0.060  0.1752 -0.1199 -0.1417
  392SOL    HW1 1175   0.993   2.544   0.033  0.4073 -1.9981 -2.2538
  392SOL    HW2 1176   0.852   2.548   0.131  1.2011  1.1257 -0.1930
  393SOL     OW 1177   0.309   0.675   1.966  0.5101  0.2182  0.1782
  393SOL    HW1 1178   0.318   0.574   1.982  0.9013  2.2559 -0.5941
  393SOL    HW2 1179   0.338   0.698   1.868  0.9174  1.0696  0.4760
  394SOL     OW 1180   3.072   1.930   2.687  0.2813 -0.1578  0.2105
  394SOL    HW1 1181   3.158   1.893   2.733  1.1467  2.2638  0.5013
  394SOL    HW2 1182   3.025   1.865   2.625 -0.0585 -0.8948 -1.7896
  395SOL     OW 1183   1.614   1.994   0.624  0.0487 -0.1770 -0.3706
  395SOL    HW1 1184   1.653   1.905   0.581 -0.4075 -1.6269  2.0647
  395SOL    HW2 1185   1.658   2.026   0.710 -1.8214 -0.1155 -1.9994
  396SOL     OW 1186   2.904   1.868   1.297 -0.1169  0.6598  0.4698
  396SOL    HW1 1187   2.920   1.766   1.298  0.4281  0.5184  0.5595
  396SOL    HW2 1188   2.871   1.904   1.388  2.1461  0.6673 -2.1805
  397SOL     OW 1189   1.042   2.209   0.501  0.0338  0.2115 -0.4796
  397SOL    HW1 1190   0.943   2.209   0.533  1.5645 -0.3777 -0.5477
  397SOL    HW2 1191   1.085   2.298   0.530  0.9667  0.4752 -0.9652
  398SOL     OW 1192   2.173   3.037   1.162  0.7076  0.0681  0.3903
  398SOL    HW1 1193   2.086   2.984   1.188  2.1225 -0.0678 -1.1158
  398SOL    HW2 1194   2.145   3.133   1.141  0.2025  0.3851  1.2049
  399SOL     OW 1195   3.048   2.450   2.645  0.1606 -0.2649 -0.4588
  399SOL    HW1 1196   2.967   2.469   2.702 -1.0285 -1.7120 -1.5627
  399SOL    HW2 1197   3.097   2.366   2.688  1.4065  0.8573  1.5314
  400SOL     OW 1198   0.658   1.715   1.344  0.1879  0.4759 -0.1388
  400SOL    HW1 1199   0.636   1.760   1.433  0.9652 -0.1697 -1.0635
  400SOL    HW2 1200   0.594   1.734   1.264  0.3192 -1.5062  0.5538
  401SOL     OW 1201   1.850   0.298   1.148 -0.2819  0.3924 -0.2776
  401SOL    HW1 1202   1.876   0.281   1.249 -1.7340  1.3403  2.8862
  401SOL    HW2 1203   1.770   0.362   1.140 -0.9310 -1.7864  2.1895
  402SOL     OW 1204   1.352   0.255   3.086 -0.4695 -0.1537  0.2418
  402SOL    HW1 1205   1.416   0.206   3.018  0.2901  0.6776  1.2145
  402SOL    HW2 1206   1.312   0.342   3.045  3.3673 -1.0044 -0.8374
  403SOL     OW 1207   2.235   1.892   0.821 -0.1021 -0.0671 -0.3256
  403SOL    HW1 1208   2.339   1.890   0.829  0.1181  1.2596 -1.7570
  403SOL    HW2 1209   2.186   1.893   0.916 -4.1084  0.3137 -0.1423
  404SOL     OW 1210   0.275   2.484   2.758  0.4514 -0.0659 -0.0636
  404SOL    HW1 1211   0.340   2.453   2.685 -0.2854  1.0115 -0.7174
  404SOL    HW2 1212   0.272   2.586   2.775  0.4249 -1.9270 -0.2740
  405SOL     OW 1213   0.143   2.380   0.729  0.4465  0.4654 -0.6820
  405SOL    HW1 1214   0.137   2.306   0.650 -1.3275 -1.4320  1.3045
  405SOL    HW2 1215   0.230   2.439   0.731 -1.8904 -1.0337  1.8363
  406SOL     OW 1216   0.051   1.541   3.074  0.2282  0.1051 -0.6037
  406SOL    HW1 1217   0.111   1.483   3.009 -0.4260 -1.2773 -2.3147
  406SOL    HW2 1218   0.034   1.507   3.171 -1.4180  2.7339 -0.2051
  407SOL     OW 1219   1.597   0.884   0.959  0.3909 -0.0688 -0.0234
  407SOL    HW1 1220   1.608   0.856   0.861  0.6741 -1.5677 -0.7474
  407SOL    HW2 1221   1.552   0.976   0.970  3.1986  0.3541  1.5237
  408SOL     OW 1222   1.572   2.370   0.966 -0.0421  0.0216  0.2842
  408SOL    HW1 1223   1.664   2.373   0.920  0.2685 -0.5573  0.3600
  408SOL    HW2 1224   1.509   2.441   0.929  0.8697 -1.3454  0.7350
  409SOL     OW 1225   0.616   0.840   0.718 -0.1908  0.0212 -0.5130
  409SOL    HW1 1226   0.553   0.823   0.642  3.8056 -0.0594 -2.4765
  409SOL    HW2 1227   0.656   0.753   0.758 -0.4577  1.7834 -3.3059
  410SOL     OW 1228   1.220   2.025   1.417 -0.4139  0.3558  0.7031
  410SOL    HW1 1229   1.283   1.949   1.422 -2.0527  2.7396  1.9421
  410SOL    HW2 1230   1.119   1.997   1.417 -0.5246 -1.7825  2.0120
  411SOL     OW 1231   2.519   1.840   3.007  0.2560 -0.2584 -0.0924
  411SOL    HW1 1232   2.553   1.930   3.039  0.6628 -2.0664  1.3802
  411SOL    HW2 1233   2.456   1.846   2.924 -2.1034 -1.3580  1.0877
  412SOL     OW 1234   1.497   2.456   2.153  0.1975 -0.2617  0.0197
  412SOL    HW1 1235   1.569   2.488   2.222 -1.0478 -0.5351 -0.4796
  412SOL    HW2 1236   1.401   2.450   2.190  0.4915  0.3963 -0.3123
  413SOL     OW 1237   0.028   0.267   3.034 -0.1306 -0.0411  0.1359
  413SOL    HW1 1238  -0.020   0.175   3.048  1.0076 -2.5758 -2.0175
  413SOL    HW2 1239   0.127   0.265   3.065  2.5960  0.3326  1.4358
  414SOL     OW 1240   1.752   1.509   1.134 -0.6579  0.3003 -0.0543
  414SOL    HW1 1241   1.738   1.601   1.175 -1.1697  0.0717  0.2232
  414SOL    HW2 1242   1.751   1.518   1.030 -1.0185 -0.7062  1.6444
  415SOL     OW 1243   0.348   2.150   0.663 -0.1729  0.2160 -0.0986
  415SOL    HW1 1244   0.321   2.163   0.766  3.5929  1.2872  0.8884
  415SOL    HW2 1245   0.271   2.143   0.594  2.1170 -0.9814 -1.4891
  416SOL     OW 1246   0.362   1.098   1.077  0.1179  0.2268  0.1614
  416SOL    HW1 1247   0.329   1.021   1.013  0.1038  0.5179  0.4676
  416SOL    HW2 1248   0.468   1.105   1.074 -0.2365 -2.2474  2.1394
  417SOL     OW 1249   2.370   2.427   2.115 -0.0507  0.6867  0.0763
  417SOL    HW1 1250   2.365   2.322   2.110  0.2851 -1.4469 -2.3970
  417SOL    HW2 1251   2.328   2.467   2.205 -1.7562 -0.0254  2.0870
  418SOL     OW 1252   1.040   0.524   1.327  0.0834  0.3624 -0.0739
  418SOL    HW1 1253   0.988   0.467   1.257  1.0990 -0.8230 -0.5159
  418SOL    HW2 1254   1.130   0.570   1.286 -0.0105  0.1641 -2.4992
  419SOL     OW 1255   0.885   0.542   2.972 -0.3938 -0.0090 -0.1685
  419SOL    HW1 1256   0.811   0.513   2.907  1.7385  0.2584  0.8307
  419SOL    HW2 1257   0.905   0.640   2.987  0.3929  0.6287 -0.8283
  420SOL     OW 1258   0.128   2.188   0.503  0.1304 -0.0221  0.0313
  420SOL    HW1 1259   0.187   2.211   0.416  1.2452 -0.7171  0.9387
  420SOL    HW2 1260   0.079   2.090   0.498  0.3335 -0.5018  0.6304
  421SOL     OW 1261   0.308   2.972   0.533  0.0537 -0.3686 -0.0819
  421SOL    HW1 1262   0.284   2.902   0.608 -0.1266  1.1640  0.1586
  421SOL    HW2 1263   0.394   3.023   0.552 -1.9566  0.5373  1.8720
  422SOL     OW 1264   1.033   2.559   0.958 -0.7639 -0.0027 -0.3600
  422SOL    HW1 1265   1.079   2.593   0.869  1.4836 -1.7217  1.2158
  422SOL    HW2 1266   1.105   2.546   1.032  2.1187 -0.2943 -0.2115
  423SOL     OW 1267   0.134   0.736   1.263 -0.3252 -0.2460  0.1171
  423SOL    HW1 1268   0.087   0.665   1.324 -0.2809 -0.9291 -2.1164
  423SOL    HW2 1269   0.081   0.826   1.248 -0.1642  2.1459 -1.3182
  424SOL     OW 1270   1.146   2.217   2.052 -0.7095  0.0319  0.0197
  424SOL    HW1 1271   1.129   2.320   2.054  0.4797  0.7433  0.0778
  424SOL    HW2 1272   1.079   2.174   2.120 -0.5767 -0.3171  0.4464
  425SOL     OW 1273   1.947   1.310   0.988 -0.5911 -0.1469 -0.0971
  425SOL    HW1 1274   2.029   1.272   1.045  0.1499  0.3620 -0.3544
  425SOL    HW2 1275   1.936   1.411   0.971 -2.7550  0.3587 -0.4387
  426SOL     OW 1276   1.437   1.589   1.202  0.3878 -0.0157  0.4206
  426SOL    HW1 1277   1.444   1.687   1.165  0.5973  1.4662  0.0997
  426SOL    HW2 1278   1.377   1.593   1.285  1.9710  1.6875 -1.1689
  427SOL     OW 1279   1.952   2.389   2.099 -0.2641  0.3899 -0.1864
  427SOL    HW1 1280   2.010   2.316   2.148 -0.0251 -1.5789  1.2921
  427SOL    HW2 1281   1.980   2.483   2.114 -1.7202 -0.7639 -0.5245
  428SOL     OW 1282   0.890   0.048   0.091 -0.5399  0.7131 -0.6691
  428SOL    HW1 1283   0.909   0.124   0.027 -2.3624  0.7836  1.4013
  428SOL    HW2 1284   0.974  -0.009   0.120 -0.7518 -1.2515 -0.4800
  429SOL     OW 1285   1.296   0.169   0.246 -0.0554  0.0060  0.2143
  429SOL    HW1 1286   1.375   0.173   0.308 -1.6080 -0.6950 -2.1268
  429SOL    HW2 1287   1.313   0.206   0.149  0.2942 -1.8214  0.6377
  430SOL     OW 1288   2.893   1.386   0.279 -0.4578 -0.3021  0.0611
  430SOL    HW1 1289   2.917   1.435   0.197  0.8327 -1.1592 -0.6319
  430SOL    HW2 1290   2.837   1.434   0.349  1.0569  1.8180 -2.5126
  431SOL     OW 1291   2.065   1.576   0.902 -0.1323 -0.2612  0.1313
  431SOL    HW1 1292   2.063   1.621   0.995 -0.4522  0.2232 -0.6967
  431SOL    HW2 1293   1.992   1.613   0.837  1.5018  3.0840 -1.1455
  432SOL     OW 1294   2.908   2.155   1.218  0.0942 -0.0834  0.0268
  432SOL    HW1 1295   2.891   2.056   1.245  1.2894 -0.2538  1.7067
  432SOL    HW2 1296   2.955   2.204   1.294 -2.9130 -0.6583  0.0978
  433SOL     OW 1297   1.841   0.254   0.813  0.0664  0.4917  0.7295
  433SOL    HW1 1298   1.772   0.308   0.871  1.2019  3.8128  2.2996
  433SOL    HW2 1299   1.936   0.244   0.851 -4.0571 -1.6672  0.3859
  434SOL     OW 1300   1.543   0.298   0.663  0.0796  0.0118 -0.1551
  434SOL    HW1 1301   1.520   0.358   0.578  2.3881  0.1811  1.0414
  434SOL    HW2 1302   1.610   0.345   0.727 -4.4402  1.5210 -2.7780
  435SOL     OW 1303   1.486   1.408   2.117 -0.4443 -0.1033  0.1849
  435SOL    HW1 1304   1.482   1.453   2.213  1.5442 -0.6835 -1.1845
  435SOL    HW2 1305   1.482   1.476   2.040  0.6239 -1.3934 -0.4360
  436SOL     OW 1306   1.722   2.733   2.273 -0.0926  0.3325  0.1415
  436SOL    HW1 1307   1.674   2.795   2.339  0.0792 -0.8207 -1.4410
  436SOL    HW2 1308   1.727   2.634   2.313 -1.7716 -1.7546  0.9139
  437SOL     OW 1309   1.120   2.965   0.915  0.1160  0.1611 -0.1542
  437SOL    HW1 1310   1.039   3.028   0.914  0.4012 -0.9974  0.0015
  437SOL    HW2 1311   1.141   2.943   1.011 -1.1570  0.6330 -1.2558
  438SOL     OW 1312   1.021   2.703   1.508  0.3108  0.3687  0.4706
  438SOL    HW1 1313   1.118   2.748   1.491 -0.1249  3.2042  0.0739
  438SOL    HW2 1314   0.999   2.618   1.446 -1.9970 -1.8211 -1.3163
  439SOL     OW 1315   0.695   1.867   1.073  0.4070 -0.2226  0.7802
  439SOL    HW1 1316   0.684   1.933   0.992  1.6622 -1.5846  1.0303
  439SOL    HW2 1317   0.608   1.818   1.100  0.2190  0.6640  0.4953
  440SOL     OW 1318   1.050   2.497   1.975  0.4955 -0.2028  0.2917
  440SOL    HW1 1319   0.987   2.515   1.892 -0.9517 -0.5684 -2.1389
  440SOL    HW2 1320   1.152   2.497   1.952  1.2666 -2.6552  1.8986
  441SOL     OW 1321   0.373   2.693   1.500 -0.2053 -0.0113 -0.7224
  441SOL    HW1 1322   0.452   2.629   1.495 -2.2949 -1.9683  0.7804
  441SOL    HW2 1323   0.295   2.675   1.433 -1.4678 -0.2001 -0.5591
  442SOL     OW 1324   2.267   0.656   2.549 -0.8489 -0.0835 -0.2984
  442SOL    HW1 1325   2.264   0.553   2.577  1.0737 -1.0732 -1.4477
  442SOL    HW2 1326   2.175   0.700   2.574 -1.7513 -0.7941  0.2959
  443SOL     OW 1327   1.203   2.664   2.231  0.0214 -0.1343  0.6762
  443SOL    HW1 1328   1.159   2.707   2.313 -1.9353  1.0851  0.7243
  443SOL    HW2 1329   1.255   2.578   2.258  0.8738 -0.3782  2.6688
  444SOL     OW 1330   1.008   1.355   1.547  0.2920 -0.7997 -0.2461
  444SOL    HW1 1331   1.104   1.346   1.508 -0.5282  0.6145  1.6138
  444SOL    HW2 1332   0.978   1.453   1.549  1.6771  0.1429  1.7076
  445SOL     OW 1333   3.082   2.381   1.989 -0.0011  0.1910 -0.0149
  445SOL    HW1 1334   3.081   2.454   1.918  2.2833  1.3974 -0.6161
  445SOL    HW2 1335   2.986   2.364   2.025 -1.0089  1.9686  1.2764
  446SOL     OW 1336   0.210   1.899   2.354  0.4225  0.4768  0.6728
  446SOL    HW1 1337   0.164   1.976   2.409 -1.4606  0.6126  0.6122
  446SOL    HW2 1338   0.150   1.855   2.285 -0.6648  1.3751  1.1515
  447SOL     OW 1339   1.219   1.633   1.942  0.0679 -0.1973  0.0122
  447SOL    HW1 1340   1.178   1.718   1.902  1.2120 -1.4997 -2.5709
  447SOL    HW2 1341   1.318   1.651   1.970  0.3588  2.5566 -2.2076
  448SOL     OW 1342   0.122   1.556   1.917  0.3009  0.2899 -0.0802
  448SOL    HW1 1343   0.093   1.653   1.922  0.9869  0.0156  0.8150
  448SOL    HW2 1344   0.166   1.531   2.006 -0.3529  2.2170 -3.7743
  449SOL     OW 1345   2.011   2.986   0.865  0.2043 -0.2141  0.1128
  449SOL    HW1 1346   2.070   3.044   0.925 -0.4952  1.4352  0.8147
  449SOL    HW2 1347   2.007   2.885   0.896 -1.6747 -1.2598 -0.3670
  450SOL     OW 1348   2.272   1.352   0.922  0.2861 -0.5624  0.5232
  450SOL    HW1 1349   2.271   1.249   0.895 -1.0933 -2.4361 -1.3047
  450SOL    HW2 1350   2.206   1.423   0.873 -2.8534  4.2559  1.2322
  451SOL     OW 1351   1.411   0.033   1.442  0.0345  0.2750 -0.1172
  451SOL    HW1 1352   1.327   0.093   1.460 -0.1088  3.4246  0.0752
  451SOL    HW2 1353   1.424  -0.040   1.517 -2.5342  0.4680 -0.3521
  452SOL     OW 1354   2.656   2.351   2.242 -0.4306 -0.3591  0.3078
  452SOL    HW1 1355   2.625   2.444   2.284 -1.4854  3.1892  0.9093
  452SOL    HW2 1356   2.696   2.286   2.314 -1.8575  1.0130 -1.7873
  453SOL     OW 1357   2.432   2.584   3.049  0.2604  0.5885 -0.1635
  453SOL    HW1 1358   2.368   2.663   3.029 -1.2474 -2.2710 -0.8101
  453SOL    HW2 1359   2.430   2.511   2.975 -1.1392 -1.2211 -1.2423
  454SOL     OW 1360   0.968   1.077   2.046  0.2721 -0.1113 -0.9407
  454SOL    HW1 1361   0.948   1.116   1.955 -1.1951 -2.0688 -1.4484
  454SOL    HW2 1362   1.055   1.117   2.086  0.1290 -0.8601  2.0769
  455SOL     OW 1363   0.633   2.650   2.906  0.1496 -0.7001  0.1545
  455SOL    HW1 1364   0.689   2.721   2.956 -1.4665 -2.4966 -0.7658
  455SOL    HW2 1365   0.602   2.574   2.971 -0.0591 -2.8443  0.6691
  456SOL     OW 1366   0.523   1.776   0.338  0.0092 -0.0899  0.1356
  456SOL    HW1 1367   0.612   1.736   0.356  0.1114  0.8385 -0.4630
  456SOL    HW2 1368   0.535   1.876   0.310 -0.0117 -1.5282 -2.3393
  457SOL     OW 1369   0.359   2.555   0.634  0.1601  0.3848 -0.7992
  457SOL    HW1 1370   0.363   2.610   0.544  2.7002  2.1591  0.4641
  457SOL    HW2 1371   0.449   2.535   0.678 -1.9221  0.4114  1.1612
  458SOL     OW 1372   2.991   2.979   1.228  0.0134 -0.0428 -0.6699
  458SOL    HW1 1373   3.008   3.080   1.225 -0.8988 -1.4337  0.8884
  458SOL    HW2 1374   2.951   2.937   1.144 -1.5040 -0.9912  0.4081
  459SOL     OW 1375   2.157   2.574   0.889 -0.1293  0.7760 -0.7950
  459SOL    HW1 1376   2.169   2.611   0.985  3.3604  0.4989 -1.6316
  459SOL    HW2 1377   2.242   2.568   0.831 -3.9512 -1.4289  0.1918
  460SOL     OW 1378   1.067   1.920   2.918  0.0074 -0.4574 -0.0195
  460SOL    HW1 1379   1.100   2.005   2.864 -1.8135  1.2041 -0.8126
  460SOL    HW2 1380   1.145   1.862   2.947 -0.4476  0.9850  0.3941
  461SOL     OW 1381   0.563   2.111   2.676 -0.4228 -0.3267 -0.3137
  461SOL    HW1 1382   0.477   2.054   2.671 -0.2216  1.5594  1.2305
  461SOL    HW2 1383   0.616   2.093   2.765  0.6840  0.7198  0.3310
  462SOL     OW 1384   0.969   1.170   1.786  0.0194 -0.5496 -0.0015
  462SOL    HW1 1385   1.035   1.089   1.771 -0.6786 -1.9142 -1.5828
  462SOL    HW2 1386   0.990   1.253   1.727  4.1632  4.3522 -1.2096
  463SOL     OW 1387   0.450   0.757   0.498 -0.2092 -0.3860 -0.6357
  463SOL    HW1 1388   0.469   0.659   0.461  3.9150 -1.2759  0.3671
  463SOL    HW2 1389   0.348   0.776   0.495  0.9499 -3.6538 -2.6742
  464SOL     OW 1390   0.502   2.261   2.230 -0.1923  0.2221  0.1222
  464SOL    HW1 1391   0.415   2.311   2.259  0.3726  0.3361 -0.3758
  464SOL    HW2 1392   0.549   2.299   2.145  2.1923 -1.7171 -0.3135
  465SOL     OW 1393   0.303   0.909   0.882 -0.5168 -0.6148 -0.2579
  465SOL    HW1 1394   0.229   0.922   0.809  1.3299  1.0697 -1.3163
  465SOL    HW2 1395   0.337   0.815   0.898  1.2644  1.7834 -1.7728
  466SOL     OW 1396   1.397   1.083   1.111  0.0258  0.2486  0.6703
  466SOL    HW1 1397   1.454   1.169   1.102 -1.4822  0.4360 -1.0738
  466SOL    HW2 1398   1.296   1.104   1.103 -0.9510  1.1942  3.4423
  467SOL     OW 1399   0.465   0.380   2.444  0.1045  0.2275 -0.1239
  467SOL    HW1 1400   0.396   0.432   2.500 -0.7331  0.6263 -1.6054
  467SOL    HW2 1401   0.503   0.294   2.484 -0.0791 -1.2193 -1.2499
  468SOL     OW 1402   0.494   2.219   1.729  0.0720  0.4034 -0.0176
  468SOL    HW1 1403   0.510   2.299   1.792 -1.5102  0.1083 -0.6745
  468SOL    HW2 1404   0.487   2.250   1.631  0.5384  0.2371  0.1620
  469SOL     OW 1405   1.586   1.270   1.104  0.4281  0.3396  0.1456
  469SOL    HW1 1406   1.645   1.185   1.125  1.8357 -1.3354  0.2732
  469SOL    HW2 1407   1.630   1.362   1.131 -0.2258  0.9208 -0.9476
  470SOL     OW 1408   3.008   1.623   0.745 -0.3169 -0.5577  0.2199
  470SOL    HW1 1409   3.109   1.633   0.747 -1.6383  2.1432  1.0762
  470SOL    HW2 1410   2.952   1.706   0.764 -2.4785  0.0349 -1.7509
  471SOL     OW 1411   2.622   1.296   2.181 -0.6551 -0.1007  0.4046
  471SOL    HW1 1412   2.580   1.226   2.252  1.1024 -1.4418 -1.8302
  471SOL    HW2 1413   2.674   1.375   2.226 -1.2035 -1.2701 -1.5007
  472SOL     OW 1414   1.139   2.460   3.093  0.5965 -0.3516 -0.4036
  472SOL    HW1 1415   1.191   2.466   3.184 -1.5787 -0.1290  2.1653
  472SOL    HW2 1416   1.113   2.364   3.069  0.0272  0.6122 -2.2022
  473SOL     OW 1417   1.040   1.554   0.879  0.0819 -0.5084 -0.3047
  473SOL    HW1 1418   0.958   1.585   0.932  0.5019 -2.4397  1.0024
  473SOL    HW2 1419   1.124   1.531   0.937  0.7846  0.0366 -1.1589
  474SOL     OW 1420   0.800   1.245   0.778 -0.3313  0.1896 -0.1905
  474SOL    HW1 1421   0.785   1.220   0.677  0.2904  0.2916 -1.1971
  474SOL    HW2 1422   0.899   1.226   0.809  2.5790  0.0965  0.6155
  475SOL     OW 1423   2.895   0.055   0.802  0.2014 -0.4323  0.5296
  475SOL    HW1 1424   2.972   0.081   0.861 -3.3698 -1.9118 -1.5803
  475SOL    HW2 1425   2.807   0.075   0.850  0.6526 -0.1462 -0.0512
  476SOL     OW 1426   0.928   3.062   1.905  0.5407  0.2925  1.0683
  476SOL    HW1 1427   0.995   3.065   1.984  1.9618  1.0760  0.6205
  476SOL    HW2 1428   0.963   2.994   1.835  2.8061  0.2362  1.0937
  477SOL     OW 1429   1.480   0.410   2.438  0.3506  0.5577  0.1680
  477SOL    HW1 1430   1.438   0.400   2.531  0.7714 -0.8802 -1.6630
  477SOL    HW2 1431   1.574   0.366   2.435  0.2146  1.6782  2.0236
  478SOL     OW 1432   2.200   1.809   0.245 -0.5238  0.4975  0.0473
  478SOL    HW1 1433   2.132   1.737   0.218 -0.0885 -1.8228 -0.7279
  478SOL    HW2 1434   2.298   1.773   0.240 -0.5203  0.5420  0.0527
  479SOL     OW 1435   1.180   1.127   2.852  0.2574  0.1404 -0.4743
  479SOL    HW1 1436   1.255   1.163   2.789 -2.2496  0.9564  0.2122
  479SOL    HW2 1437   1.103   1.072   2.798 -1.6175 -0.7429  0.2561
  480SOL     OW 1438   2.487   2.340   0.377  0.3329 -0.3024  0.4458
  480SOL    HW1 1439   2.417   2.286   0.436  0.0552  1.7201  1.0713
  480SOL    HW2 1440   2.442   2.380   0.293 -1.2549  0.8435  0.1815
  481SOL     OW 1441   1.057   1.190   0.838 -0.6195 -0.0163 -0.0641
  481SOL    HW1 1442   1.069   1.258   0.761 -0.3169 -1.5854 -0.3425
  481SOL    HW2 1443   1.102   1.208   0.932  0.2854  1.1583  0.0035
  482SOL     OW 1444   1.623   0.272   1.996 -0.5937 -0.1496 -0.5853
  482SOL    HW1 1445   1.636   0.373   1.963 -2.5917  0.7802  0.8236
  482SOL    HW2 1446   1.703   0.241   2.058  2.0771 -0.1129  1.8381
  483SOL     OW 1447   0.131   2.341   1.317 -0.1732  1.0746  0.1057
  483SOL    HW1 1448   0.033   2.368   1.332 -2.5310 -0.2239 -2.0307
  483SOL    HW2 1449   0.161   2.396   1.235 -2.6110 -0.7717 -0.2530
  484SOL     OW 1450   1.707   0.937   1.399  0.0203 -0.1784  0.0025
  484SOL    HW1 1451   1.796   0.903   1.444 -2.6429  0.0412  2.7427
  484SOL    HW2 1452   1.723   1.029   1.348 -1.5293 -0.8031 -1.4747
  485SOL     OW 1453   0.682   1.133   1.782 -0.2302  0.4941  0.4660
  485SOL    HW1 1454   0.682   1.074   1.695  0.1538 -2.7890  0.7022
  485SOL    HW2 1455   0.774   1.178   1.804 -1.0943  1.5639 -1.6408
  486SOL     OW 1456   0.898   1.913   2.432 -0.1683 -0.1382  0.5759
  486SOL    HW1 1457   0.954   1.859   2.504  1.4828 -1.3889 -0.0873
  486SOL    HW2 1458   0.846   1.996   2.471 -1.4976  1.7853  2.7319
  487SOL     OW 1459   1.746   1.511   0.857  0.5437  0.7658 -0.6024
  487SOL    HW1 1460   1.718   1.423   0.806 -0.5761 -3.0323  0.5399
  487SOL    HW2 1461   1.782   1.587   0.792  0.1444  3.3714 -2.0981
  488SOL     OW 1462   2.982   0.946   2.252  0.0184 -0.3447 -0.9458
  488SOL    HW1 1463   2.971   0.852   2.206  1.2550  1.4038  1.7335
  488SOL    HW2 1464   3.045   0.931   2.333  0.7912  1.0143  1.7650
  489SOL     OW 1465   2.775   0.199   1.328 -0.5131  0.1720  0.8066
  489SOL    HW1 1466   2.769   0.144   1.413  1.4352  0.0846 -2.3360
  489SOL    HW2 1467   2.867   0.193   1.283 -0.5264  0.6842  0.3504
  490SOL     OW 1468   1.405   2.989   2.835 -0.1796  0.7933  0.2293
  490SOL    HW1 1469   1.445   2.892   2.830 -0.2887 -1.1698  2.3959
  490SOL    HW2 1470   1.386   3.015   2.737 -0.2253  1.1414 -2.0458
  491SOL     OW 1471   1.907   1.558   2.671  0.1099 -0.0542  0.6754
  491SOL    HW1 1472   1.885   1.564   2.769 -2.1887  0.3849 -2.9345
  491SOL    HW2 1473   1.985   1.612   2.640 -0.4463 -0.9263  0.7098
  492SOL     OW 1474   0.489   1.910   0.722  0.5113  0.3450  0.3160
  492SOL    HW1 1475   0.573   1.916   0.787  0.5695 -0.8168  0.8422
  492SOL    HW2 1476   0.443   2.000   0.704 -0.9563  1.2973  1.9943
  493SOL     OW 1477   0.477   1.400   2.165  0.4887  0.0563 -0.1974
  493SOL    HW1 1478   0.375   1.414   2.175  0.4425 -1.7310 -0.9320
  493SOL    HW2 1479   0.510   1.323   2.229  0.3495  0.5140  0.9636
  494SOL     OW 1480   2.600   2.617   0.170 -0.3654 -0.7434  0.0496
  494SOL    HW1 1481   2.678   2.554   0.151  0.1066  0.1321 -0.4156
  494SOL    HW2 1482   2.525   2.609   0.094 -1.0326 -1.7534  0.2609
  495SOL     OW 1483   2.743   2.680   2.688 -0.1880 -0.4435  0.3038
  495SOL    HW1 1484   2.716   2.589   2.647 -2.0330  1.4290  1.7619
  495SOL    HW2 1485   2.752   2.755   2.615  0.9534  2.4422 -2.1138
  496SOL     OW 1486   2.037   2.209   0.709  0.2641 -0.0448  0.0827
  496SOL    HW1 1487   2.037   2.223   0.813  1.2160  1.3366 -2.6512
  496SOL    HW2 1488   2.040   2.117   0.678  1.6626  3.4373  0.3703
  497SOL     OW 1489   0.249   2.958   2.407  0.0539  0.1254 -0.0974
  497SOL    HW1 1490   0.173   3.019   2.447 -0.2740 -0.6374  0.5572
  497SOL    HW2 1491   0.291   3.019   2.332  0.0915 -0.1790 -1.2338
  498SOL     OW 1492   1.243   1.492   1.062  0.3511 -0.6500  0.1918
  498SOL    HW1 1493   1.331   1.519   1.105 -2.4238 -2.7170 -1.3556
  498SOL    HW2 1494   1.169   1.520   1.133  0.8299  3.3722  0.7240
  499SOL     OW 1495   0.874   1.843   0.475  0.2298  0.2961  0.2210
  499SOL    HW1 1496   0.808   1.783   0.519  1.5354 -2.9269 -0.5580
  499SOL    HW2 1497   0.902   1.917   0.540 -1.1608 -0.2354  0.6229
  500SOL     OW 1498   1.453   2.957   1.657 -0.1938 -0.1958  0.1749
  500SOL    HW1 1499   1.477   3.008   1.742  3.0169  1.9461 -0.0473
  500SOL    HW2 1500   1.450   2.854   1.670 -1.7777  2.0667 -0.5895
  501SOL     OW 1501   0.789   1.120   2.282  0.2263 -0.0448  0.2996
  501SOL    HW1 1502   0.704   1.060   2.280  0.3879 -0.5962  0.0309
  501SOL    HW2 1503   0.848   1.101   2.203 -1.7659  0.4521  3.9133
  502SOL     OW 1504   2.605   0.965   1.740 -0.4108 -0.3557  0.2990
  502SOL    HW1 1505   2.563   0.985   1.648  0.9330 -0.3135 -1.0369
  502SOL    HW2 1506   2.565   0.883   1.793 -2.6452 -2.4814  0.2587
  503SOL     OW 1507   1.310   0.157   0.638  0.0605  0.0174 -0.1254
  503SOL    HW1 1508   1.235   0.229   0.637  0.2637  0.3133 -0.6734
  503SOL    HW2 1509   1.405   0.198   0.638  0.3724 -2.9990  0.5434
  504SOL     OW 1510   2.966   2.320   1.447  0.4252  0.1338  0.2952
  504SOL    HW1 1511   2.988   2.416   1.478 -0.1125 -0.8269 -0.3156
  504SOL    HW2 1512   2.879   2.282   1.491 -3.9494 -1.4180 -0.1659
  505SOL     OW 1513   2.307   1.282   1.468 -0.1457  0.5364  0.7860
  505SOL    HW1 1514   2.310   1.386   1.473 -0.2444  1.3180 -1.0316
  505SOL    HW2 1515   2.398   1.243   1.461 -1.8002 -1.3036 -1.9476
  506SOL     OW 1516   1.871   0.270   1.783  0.1212  0.6590 -0.3715
  506SOL    HW1 1517   1.957   0.241   1.736 -2.0480  1.2546  1.2295
  506SOL    HW2 1518   1.892   0.347   1.846 -0.4710  0.8980 -0.0505
  507SOL     OW 1519   0.473   0.750   2.169  0.1204  0.0308 -0.3291
  507SOL    HW1 1520   0.409   0.756   2.088 -1.8019  0.8795  1.3476
  507SOL    HW2 1521   0.529   0.660   2.165 -0.2234 -1.1808 -1.5649
  508SOL     OW 1522   0.191   1.624   0.849  0.0063 -0.6336  0.2962
  508SOL    HW1 1523   0.275   1.685   0.831  0.4655 -1.0082  2.4619
  508SOL    HW2 1524   0.160   1.632   0.947  0.8990  0.1735 -0.1728
  509SOL     OW 1525   1.339   1.198   2.587 -0.1827  0.3333  0.0066
  509SOL    HW1 1526   1.256   1.252   2.580  2.0885 -2.0289  0.0269
  509SOL    HW2 1527   1.322   1.097   2.556 -1.6841  0.2947 -0.4163
  510SOL     OW 1528   1.332   2.005   2.039  0.7734  0.5807  0.0754
  510SOL    HW1 1529   1.277   2.096   2.041  1.6736 -0.3496 -2.1245
  510SOL    HW2 1530   1.312   1.944   2.116 -1.8095  0.9152 -1.8541
  511SOL     OW 1531   3.049   2.633   1.300  0.0055  0.2070  0.1939
  511SOL    HW1 1532   2.987   2.600   1.224 -1.5693  0.8101 -0.7480
  511SOL    HW2 1533   3.009   2.618   1.393  1.0276 -1.1650 -1.7502
  512SOL     OW 1534   2.414   0.380   1.441 -0.4074 -0.2355 -0.1494
  512SOL    HW1 1535   2.322   0.408   1.407 -0.3853  2.2387  0.8487
  512SOL    HW2 1536   2.458   0.298   1.392 -0.5418 -2.8669  2.0655
  513SOL     OW 1537   2.498   1.985   0.823  0.4318  0.3665  0.5792
  513SOL    HW1 1538   2.480   2.082   0.860 -1.9783  0.8463 -0.3877
  513SOL    HW2 1539   2.550   1.986   0.733 -0.8361  0.7987 -0.7191
  514SOL     OW 1540   0.687   2.799   0.415  0.1175  0.1480 -0.6325
  514SOL    HW1 1541   0.640   2.856   0.346 -0.1761  0.8059 -0.0341
  514SOL    HW2 1542   0.721   2.850   0.496 -0.3403 -1.3691  2.0843
  515SOL     OW 1543   1.940   1.219   2.338 -0.1615  0.1384 -0.6074
  515SOL    HW1 1544   1.882   1.272   2.272 -1.3688 -1.7447 -1.4600
  515SOL    HW2 1545   1.907   1.246   2.437  2.5796 -0.7856 -0.8623
  516SOL     OW 1546   0.294   0.400   1.983  0.2751  0.4168  0.3831
  516SOL    HW1 1547   0.396   0.368   1.962  0.0307  1.6737  0.5452
  516SOL    HW2 1548   0.226   0.374   1.909 -0.2403 -0.0850  1.1902
  517SOL     OW 1549   0.385   3.013   1.195 -0.4231 -0.9945 -0.0110
  517SOL    HW1 1550   0.394   3.117   1.216  2.8516  1.9777 -3.0704
  517SOL    HW2 1551   0.310   2.970   1.247 -1.6899  1.1157 -0.5470
  518SOL     OW 1552   2.121   0.182   1.636 -0.2676 -0.2785  1.0458
  518SOL    HW1 1553   2.181   0.201   1.718  0.5254  0.9874 -0.7773
  518SOL    HW2 1554   2.151   0.095   1.585 -0.2011 -0.1243 -2.1161
  519SOL     OW 1555   2.339   2.171   2.565  0.3340  0.3226  0.4464
  519SOL    HW1 1556   2.257   2.152   2.630 -0.4969  0.0105  1.4884
  519SOL    HW2 1557   2.387   2.262   2.570 -0.4483 -0.0465  1.7557
  520SOL     OW 1558   1.761   2.879   1.833 -0.1464  0.2187 -0.0202
  520SOL    HW1 1559   1.682   2.825   1.871  0.1360  1.3963  0.0756
  520SOL    HW2 1560   1.852   2.829   1.819  0.5517  0.4221  0.1805
  521SOL     OW 1561   0.590   0.109   2.152  0.5439 -0.7511  0.5767
  521SOL    HW1 1562   0.495   0.083   2.185  2.5198 -2.5126  0.0432
  521SOL    HW2 1563   0.666   0.057   2.202  1.9760  2.0165  0.9228
  522SOL     OW 1564   0.216   1.917   1.532 -0.4461 -0.1325 -0.0892
  522SOL    HW1 1565   0.258   1.951   1.619  1.3609 -0.6294  0.5133
  522SOL    HW2 1566   0.208   1.992   1.461  1.9675 -1.9810 -0.6088
  523SOL     OW 1567   2.253   3.036   1.599  0.1481  0.1906  0.4512
  523SOL    HW1 1568   2.281   2.962   1.533  1.6304 -0.4149  0.2017
  523SOL    HW2 1569   2.180   2.996   1.659  0.0476  0.5601 -1.1042
  524SOL     OW 1570   0.240   2.794   2.790 -0.3100 -0.0902 -0.2848
  524SOL    HW1 1571   0.190   2.868   2.837 -2.7767 -2.2043  1.4961
  524SOL    HW2 1572   0.334   2.815   2.767 -1.5186 -1.6110 -0.3820
  525SOL     OW 1573   2.121   1.971   0.468 -0.4283 -0.6898  0.5317
  525SOL    HW1 1574   2.114   1.888   0.523 -1.1964 -0.5780 -2.6516
  525SOL    HW2 1575   2.171   1.949   0.377 -1.0581 -1.5943 -0.0333
  526SOL     OW 1576   0.415   1.548   1.540 -0.7738 -0.1694 -0.2176
  526SOL    HW1 1577   0.349   1.538   1.618 -1.2832  1.2874  0.9493
  526SOL    HW2 1578   0.466   1.460   1.529  0.3880 -0.0702  0.2243
  527SOL     OW 1579   1.135   2.887   1.198  0.0501  0.0479  0.0784
  527SOL    HW1 1580   1.184   2.816   1.257  2.3774 -1.7263 -0.2025
  527SOL    HW2 1581   1.170   2.984   1.214 -1.7017 -0.7444 -1.4236
  528SOL     OW 1582   1.340   2.379   0.473 -0.0549 -0.2867 -0.0512
  528SOL    HW1 1583   1.386   2.288   0.490  0.1060 -0.7181  2.5109
  528SOL    HW2 1584   1.369   2.454   0.543 -2.2967  3.4178  1.0427
  529SOL     OW 1585   1.873   1.723   0.729  0.1356  0.0577 -0.4782
  529SOL    HW1 1586   1.843   1.737   0.632  1.1096  1.4100 -1.7820
  529SOL    HW2 1587   1.865   1.810   0.783  0.0555 -0.5825 -2.4444
  530SOL     OW 1588   0.362   2.437   0.226 -0.2988  0.5327 -0.8064
  530SOL    HW1 1589   0.351   2.519   0.283 -2.3537  0.1188 -0.1365
  530SOL    HW2 1590   0.435   2.375   0.267  2.6534 -1.4441  2.9632
  531SOL     OW 1591   1.880   0.811   0.944 -0.1822  0.1839 -0.3681
  531SOL    HW1 1592   1.913   0.840   0.845  0.3548  0.1481  1.5257
  531SOL    HW2 1593   1.785   0.847   0.973 -0.0729 -0.0790  0.1217
  532SOL     OW 1594   0.446   1.106   0.749  0.0033  0.9489 -0.3462
  532SOL    HW1 1595   0.468   1.085   0.648  0.1655 -2.6319  0.8376
  532SOL    HW2 1596   0.395   1.026   0.797  2.1713  0.6040 -1.5517
  533SOL     OW 1597   1.716  -0.001   2.569 -0.2555  0.3850  0.3039
  533SOL    HW1 1598   1.808   0.001   2.618 -0.2553  0.7195 -0.1846
  533SOL    HW2 1599   1.642   0.064   2.612 -1.6374  2.0252  1.8347
  534SOL     OW 1600   0.381   0.194   1.543 -0.3847  0.1511 -0.6581
  534SOL    HW1 1601   0.484   0.170   1.554 -0.0522  0.8033  0.1802
  534SOL    HW2 1602   0.359   0.297   1.537  0.1882 -0.0825  0.3381
  535SOL     OW 1603   1.959   0.330   0.170  0.2761  0.0568 -0.2333
  535SOL    HW1 1604   1.961   0.421   0.224 -1.3972 -0.9807  0.8621
  535SOL    HW2 1605   1.970   0.256   0.239  1.5203  1.9771  2.3487
  536SOL     OW 1606   1.367   2.591   0.913  0.0810  0.0893  0.3978
  536SOL    HW1 1607   1.330   2.570   1.008 -0.6337 -1.4641  1.2738
  536SOL    HW2 1608   1.288   2.623   0.855 -0.3498  3.5846 -1.2556
  537SOL     OW 1609   0.875   0.269   2.342  0.5154 -0.0848 -0.7427
  537SOL    HW1 1610   0.933   0.310   2.259  2.6291  0.9061  1.5927
  537SOL    HW2 1611   0.851   0.166   2.329 -0.5690 -1.9041 -0.8280
  538SOL     OW 1612   1.654   2.402   1.412 -0.3364 -0.1719  0.0547
  538SOL    HW1 1613   1.660   2.300   1.434  0.5720  0.0870  0.4275
  538SOL    HW2 1614   1.748   2.449   1.411 -0.6036  0.9697  0.0081
  539SOL     OW 1615   0.197   1.597   2.670 -0.3198 -0.5744  0.5102
  539SOL    HW1 1616   0.093   1.575   2.662 -0.8439 -0.4023 -1.0379
  539SOL    HW2 1617   0.215   1.674   2.734  0.3878 -1.3812  0.1150
  540SOL     OW 1618   2.653   1.747   1.928 -0.2066  0.3964  0.1234
  540SOL    HW1 1619   2.617   1.654   1.963 -0.4341  2.1014  0.3207
  540SOL    HW2 1620   2.603   1.824   1.975 -4.2147 -2.0099  0.4428
  541SOL     OW 1621   0.499   2.150   0.004 -0.1938 -0.0410 -0.2508
  541SOL    HW1 1622   0.510   2.114   0.101 -1.0826  0.5260 -0.3655
  541SOL    HW2 1623   0.401   2.134  -0.036 -1.3078  2.0209  2.0088
  542SOL     OW 1624   2.268   2.615   0.540 -0.4861 -0.8230  0.0620
  542SOL    HW1 1625   2.233   2.697   0.595  2.5886  1.0488  0.0479
  542SOL    HW2 1626   2.192   2.544   0.525 -0.3222  0.2111  1.0211
  543SOL     OW 1627   1.080   1.789   1.583 -0.1458 -0.1546  0.4132
  543SOL    HW1 1628   1.113   1.797   1.682  0.5864 -0.1055 -2.9532
  543SOL    HW2 1629   1.029   1.873   1.557  1.8809  0.2278 -0.3708
  544SOL     OW 1630   1.142   0.551   0.124 -0.3688  0.0733 -0.3920
  544SOL    HW1 1631   1.105   0.480   0.188  0.9765 -0.5139  0.5302
  544SOL    HW2 1632   1.179   0.513   0.032 -1.5881  1.5691 -0.6506
  545SOL     OW 1633   1.131   1.806   0.813 -0.0345 -0.2556 -0.1261
  545SOL    HW1 1634   1.231   1.819   0.785 -0.8664 -3.2881  0.5840
  545SOL    HW2 1635   1.101   1.707   0.827 -3.1761 -0.7716  2.7581
  546SOL     OW 1636   2.667   1.597   2.988 -0.1737 -0.3006  0.3415
  546SOL    HW1 1637   2.621   1.695   2.988 -0.6917  2.4844 -1.7507
  546SOL    HW2 1638   2.599   1.520   2.978 -0.0793 -1.0123 -0.8184
  547SOL     OW 1639   0.652   3.029   2.570 -0.4039 -1.3778  0.0312
  547SOL    HW1 1640   0.711   2.988   2.641  0.7141 -1.1581 -1.4217
  547SOL    HW2 1641   0.602   2.959   2.507  1.9981  2.6604  0.0549
  548SOL     OW 1642   2.033   0.774   3.026 -0.0784  0.2058  0.0591
  548SOL    HW1 1643   1.941   0.748   3.071 -0.6559  1.9442  2.9890
  548SOL    HW2 1644   2.070   0.867   3.058  1.0939 -0.4121  0.7673
  549SOL     OW 1645   0.685   0.569   0.179 -0.1382  0.1247  0.0012
  549SOL    HW1 1646   0.648   0.604   0.093  0.3854 -2.1757  0.4850
  549SOL    HW2 1647   0.777   0.612   0.210  0.5485  1.0140 -1.0071
  550SOL     OW 1648   2.582   2.765   2.883  0.1022  0.3021 -0.0091
  550SOL    HW1 1649   2.537   2.696   2.950  0.3043  0.0887  0.0484
  550SOL    HW2 1650   2.622   2.722   2.796 -0.4940 -1.4801 -0.4670
  551SOL     OW 1651   0.253   0.868   0.197  0.0217 -0.2653  0.0050
  551SOL    HW1 1652   0.360   0.861   0.186  2.0618  2.9315  0.8520
  551SOL    HW2 1653   0.225   0.934   0.269 -1.4738  1.2102  0.9110
  552SOL     OW 1654   0.622   3.045   1.948 -0.1743 -0.2857 -0.3735
  552SOL    HW1 1655   0.603   3.116   2.021  1.6292  2.3925 -0.7146
  552SOL    HW2 1656   0.724   3.026   1.934 -0.8903  0.2043 -1.1960
  553SOL     OW 1657   3.005   2.426   0.370  0.2610  0.2826  0.3601
  553SOL    HW1 1658   3.009   2.325   0.399 -0.7704 -3.2467  1.9379
  553SOL    HW2 1659   2.905   2.455   0.361  1.1662 -0.1614 -3.4915
  554SOL     OW 1660   2.215   0.358   0.548  0.5395 -0.0121  0.2096
  554SOL    HW1 1661   2.263   0.404   0.471  0.2411 -0.7137 -0.0225
  554SOL    HW2 1662   2.242   0.257   0.556 -1.3490  0.4152  2.2018
  555SOL     OW 1663   0.480   2.836   2.471  0.2092 -0.2799 -0.0429
  555SOL    HW1 1664   0.396   2.885   2.452  1.2559 -0.7765 -0.5533
  555SOL    HW2 1665   0.490   2.743   2.421  3.4832  0.2747  0.5135
  556SOL     OW 1666   0.836   2.401   1.599  0.5414 -0.8297 -0.2637
  556SOL    HW1 1667   0.857   2.478   1.662  1.5955  1.1491  1.3057
  556SOL    HW2 1668   0.908   2.386   1.527 -2.0302 -0.3732 -1.1148
  557SOL     OW 1669   0.211   2.095   0.261 -0.7770  0.7544 -0.5208
  557SOL    HW1 1670   0.120   2.048   0.233 -1.9991 -3.6986  2.3463
  557SOL    HW2 1671   0.268   2.135   0.188  0.6810  2.6698  2.5633
  558SOL     OW 1672   2.842   2.183   0.398  0.2324 -0.1035  0.2556
  558SOL    HW1 1673   2.802   2.265   0.436  2.8506 -2.9764 -1.8720
  558SOL    HW2 1674   2.810   2.151   0.310 -1.4480  2.9545  0.4893
  559SOL     OW 1675   0.411   2.283   1.460  0.0115 -0.7327  0.1764
  559SOL    HW1 1676   0.319   2.315   1.430  2.5265 -0.5116  2.1166
  559SOL    HW2 1677   0.453   2.228   1.380  1.5826  1.3617 -3.8756
  560SOL     OW 1678   2.132   1.022   0.015  0.0905  0.3144 -0.1688
  560SOL    HW1 1679   2.170   1.070   0.104  1.3636  0.5336 -1.0746
  560SOL    HW2 1680   2.200   1.029  -0.066 -0.0054 -1.1476  0.4558
  561SOL     OW 1681   3.087   1.969   0.184 -0.8047  0.1460  0.1858
  561SOL    HW1 1682   3.070   1.887   0.246  0.3495  0.2253 -0.5134
  561SOL    HW2 1683   3.026   1.979   0.102 -0.1731 -1.8297  0.7700
  562SOL     OW 1684   1.016   2.092   2.256 -0.2405  0.1185  0.3699
  562SOL    HW1 1685   1.000   2.181   2.308 -0.5534  1.4855  2.1283
  562SOL    HW2 1686   0.957   2.011   2.282  0.8912  0.8598 -3.1114
  563SOL     OW 1687   0.662   2.534   2.644  0.0044  0.2856 -0.0581
  563SOL    HW1 1688   0.731   2.456   2.643 -2.7573  0.1888  1.6323
  563SOL    HW2 1689   0.652   2.582   2.735 -1.7912 -0.7759 -0.3251
  564SOL     OW 1690   2.855   1.431   2.834  0.0768 -0.2403  0.0800
  564SOL    HW1 1691   2.818   1.464   2.922 -0.2281 -1.5850 -1.7392
  564SOL    HW2 1692   2.931   1.488   2.793  1.6865  1.4475 -0.4262
  565SOL     OW 1693   2.491   1.952   2.667  0.2132 -0.1835  0.4535
  565SOL    HW1 1694   2.473   2.029   2.603 -0.4922 -0.8833  0.9907
  565SOL    HW2 1695   2.586   1.958   2.705 -2.5267  3.4004  0.1845
  566SOL     OW 1696   1.931   2.899   1.461  0.8534 -0.0514  0.1873
  566SOL    HW1 1697   1.938   2.808   1.515  0.9814 -0.4897 -0.0787
  566SOL    HW2 1698   1.905   2.892   1.359  0.3261  4.1425 -0.5839
  567SOL     OW 1699   2.355   0.029   2.306  0.3379 -0.1203  0.0665
  567SOL    HW1 1700   2.259   0.058   2.330 -0.1700  0.4664  0.2910
  567SOL    HW2 1701   2.367   0.044   2.202  0.2900 -0.0111 -0.5098
  568SOL     OW 1702   1.477   1.770   0.213 -0.2541  0.3554 -0.0979
  568SOL    HW1 1703   1.424   1.854   0.189 -0.1948 -0.0910  0.4240
  568SOL    HW2 1704   1.569   1.791   0.245 -0.9136 -0.8020 -1.7272
  569SOL     OW 1705   0.267   0.540   0.846  0.2105 -0.5101 -0.2276
  569SOL    HW1 1706   0.283   0.481   0.764  1.6888 -0.6198  0.3830
  569SOL    HW2 1707   0.173   0.525   0.890  0.3429  1.3215  1.9041
  570SOL     OW 1708   0.667   0.865   2.899 -0.1689 -0.0521  0.0229
  570SOL    HW1 1709   0.703   0.879   2.804 -0.6307 -0.7238 -2.3036
  570SOL    HW2 1710   0.673   0.948   2.965  3.6037 -1.0355  0.2327
  571SOL     OW 1711   0.800   3.050   1.076 -0.0471 -0.4068  0.0208
  571SOL    HW1 1712   0.844   3.123   1.018  0.6824  0.2655  1.8116
  571SOL    HW2 1713   0.835   2.954   1.058 -2.8574 -0.5195  0.0586
  572SOL     OW 1714   1.675   2.738   1.439  0.0204 -0.0165 -0.1312
  572SOL    HW1 1715   1.637   2.693   1.357 -0.6754  1.1527  1.8494
  572SOL    HW2 1716   1.656   2.841   1.439 -0.8361  2.1866 -2.3678
  573SOL     OW 1717   3.023   0.452   1.927 -0.1139 -0.1707  0.1741
  573SOL    HW1 1718   2.948   0.382   1.949  2.6531  0.6114  0.4353
  573SOL    HW2 1719   3.093   0.417   1.861  1.3700  0.7943  1.7650
  574SOL     OW 1720   0.114   1.663   1.117  0.2375  0.3714  0.1051
  574SOL    HW1 1721   0.194   1.654   1.182 -0.6919 -1.4367  1.0276
  574SOL    HW2 1722   0.084   1.760   1.102  1.4529  0.4396  2.9638
  575SOL     OW 1723   0.828   2.275   0.988  0.1360  0.3021 -0.8455
  575SOL    HW1 1724   0.812   2.324   1.079  2.4728 -0.8055  2.1678
  575SOL    HW2 1725   0.820   2.342   0.914 -2.3250  1.2799  2.0477
  576SOL     OW 1726   2.943   3.008   1.682  0.2454  0.6377 -0.4102
  576SOL    HW1 1727   2.849   2.980   1.641  1.4739  0.4154  0.0958
  576SOL    HW2 1728   2.953   3.106   1.689  0.4506 -0.8249 -4.0405
  577SOL     OW 1729   2.673   1.221   3.071 -0.3660 -0.3122  0.3206
  577SOL    HW1 1730   2.646   1.140   3.012  1.9602 -1.1085 -3.4248
  577SOL    HW2 1731   2.725   1.198   3.162  0.9377  1.0879  0.9538
  578SOL     OW 1732   1.380   2.722   2.541 -0.4617 -0.0642  0.3337
  578SOL    HW1 1733   1.281   2.736   2.521  0.4185  0.7515  0.4158
  578SOL    HW2 1734   1.443   2.795   2.496  2.2509 -0.4256  0.4105
  579SOL     OW 1735   0.085   2.417   0.149 -0.1576  0.2979 -0.6763
  579SOL    HW1 1736   0.029   2.418   0.237  1.2369 -1.4899 -3.7522
  579SOL    HW2 1737   0.184   2.397   0.161  0.0161  0.6514 -2.1862
  580SOL     OW 1738   0.957   2.694   0.373  0.4542  0.3504 -0.6793
  580SOL    HW1 1739   1.033   2.712   0.303  1.4252 -0.0034 -2.3457
  580SOL    HW2 1740   0.868   2.747   0.353  1.0143  2.3463 -0.8333
  581SOL     OW 1741   1.298   2.750   1.445 -0.1735 -0.8835 -0.2322
  581SOL    HW1 1742   1.341   2.665   1.479 -2.5605 -1.0575 -0.4477
  581SOL    HW2 1743   1.352   2.800   1.372  1.5684 -0.4616 -1.6394
  582SOL     OW 1744   1.494   0.083   1.857 -0.5508  0.3479  0.0330
  582SOL    HW1 1745   1.534   0.146   1.925 -0.5200 -0.8283 -0.3515
  582SOL    HW2 1746   1.541   0.091   1.766 -0.0622 -1.0023 -0.5458
  583SOL     OW 1747   2.433   2.991   0.484  0.2195  0.0792 -0.1852
  583SOL    HW1 1748   2.499   2.930   0.429  2.4202  2.1865 -1.6278
  583SOL    HW2 1749   2.376   2.942   0.556  2.0243  1.8159  0.1656
  584SOL     OW 1750   1.537   1.079   2.257 -0.6549 -0.2748  0.1758
  584SOL    HW1 1751   1.563   1.177   2.268  1.1848 -3.6440  0.2505
  584SOL    HW2 1752   1.621   1.020   2.260 -0.5810  1.8847  0.9619
  585SOL     OW 1753   2.027   2.674   2.914 -0.5837  0.2149 -0.0898
  585SOL    HW1 1754   2.050   2.582   2.874  3.0222  0.4617  2.3757
  585SOL    HW2 1755   1.928   2.686   2.922  2.6800 -0.0846  0.2592
  586SOL     OW 1756   2.922   0.392   1.565 -0.0502  0.2158 -0.1272
  586SOL    HW1 1757   2.919   0.494   1.600  0.9456  0.8996  1.5764
  586SOL    HW2 1758   2.840   0.339   1.581 -0.1513 -0.7838  0.3386
  587SOL     OW 1759   2.192   1.482   2.780  0.5537 -0.0084 -0.4196
  587SOL    HW1 1760   2.164   1.435   2.696 -1.7549  0.9627  2.4437
  587SOL    HW2 1761   2.268   1.549   2.766  1.0043 -2.3007 -1.0417
  588SOL     OW 1762   0.453   2.647   2.291 -0.5583 -0.1603  0.2192
  588SOL    HW1 1763   0.437   2.710   2.204  0.6899  1.5845 -0.3598
  588SOL    HW2 1764   0.388   2.570   2.298  0.3946  0.4992  1.1126
  589SOL     OW 1765   2.168   1.391   2.510  0.2191 -0.2657 -0.1923
  589SOL    HW1 1766   2.099   1.346   2.452 -0.8007 -2.4847  1.0974
  589SOL    HW2 1767   2.257   1.335   2.508 -0.4314  0.4541 -0.8884
  590SOL     OW 1768   2.341   1.678   2.063  0.0210 -0.1881 -0.0497
  590SOL    HW1 1769   2.419   1.608   2.049 -0.2739 -0.6008 -3.1633
  590SOL    HW2 1770   2.333   1.716   2.159 -0.2130 -0.4641 -0.4832
  591SOL     OW 1771   1.309   2.431   0.208 -0.7069 -0.4638  0.1804
  591SOL    HW1 1772   1.350   2.355   0.150  2.0169 -2.4462 -0.6916
  591SOL    HW2 1773   1.317   2.413   0.312  0.1620  1.7033 -1.5628
  592SOL     OW 1774   1.793   2.366   0.826  0.3156 -0.0436 -0.2316
  592SOL    HW1 1775   1.771   2.419   0.742  2.9348  0.4603  2.5940
  592SOL    HW2 1776   1.896   2.353   0.835 -1.9061  0.2876 -2.5125
  593SOL     OW 1777   0.755   0.307   0.175  0.3373 -0.3226 -0.1536
  593SOL    HW1 1778   0.812   0.275   0.096 -0.6133 -0.6743  0.9027
  593SOL    HW2 1779   0.738   0.409   0.175 -0.9452  0.6179 -2.6145
  594SOL     OW 1780   1.038   1.814   2.658 -0.5839  0.5573 -0.4059
  594SOL    HW1 1781   1.134   1.827   2.614 -1.9548 -0.4445  1.0512
  594SOL    HW2 1782   1.031   1.867   2.751 -0.6051  1.1489  0.0009
  595SOL     OW 1783   1.560   0.149   1.008  0.4805 -0.1951  0.1789
  595SOL    HW1 1784   1.613   0.060   1.009 -1.7796 -0.3035 -2.0269
  595SOL    HW2 1785   1.465   0.136   0.963  0.6386 -2.0484  1.0425
  596SOL     OW 1786   0.188   1.443   2.171  0.4369  0.4582 -0.3212
  596SOL    HW1 1787   0.112   1.373   2.182 -2.8170  0.5299 -1.3542
  596SOL    HW2 1788   0.205   1.495   2.255  1.1191 -1.7326 -0.9643
  597SOL     OW 1789   1.991   2.685   1.832 -0.1477 -0.0712  0.0791
  597SOL    HW1 1790   1.975   2.668   1.729 -1.8194 -0.2192 -1.7584
  597SOL    HW2 1791   2.088   2.655   1.865 -0.4237  2.4531 -1.6624
  598SOL     OW 1792   2.483   2.774   1.255  0.0296 -0.3480 -0.7476
  598SOL    HW1 1793   2.576   2.787   1.300 -1.3955  1.3558  0.2249
  598SOL    HW2 1794   2.459   2.674   1.239  0.9762 -0.5370  0.7627
  599SOL     OW 1795   2.888   0.285   2.528 -0.3191  0.3910  0.3553
  599SOL    HW1 1796   2.967   0.287   2.466 -0.1845  1.1762 -1.0627
  599SOL    HW2 1797   2.815   0.352   2.496  0.4907  4.2191 -1.6149
  600SOL     OW 1798   2.751   1.199   2.758  0.0297  0.2185  0.1821
  600SOL    HW1 1799   2.693   1.151   2.828 -2.6717  2.1561 -2.3489
  600SOL    HW2 1800   2.776   1.300   2.779 -0.1469  1.8660 -1.5863
  601SOL     OW 1801   3.005   1.369   1.895  0.0459 -0.1894 -0.4831
  601SOL    HW1 1802   2.915   1.405   1.853 -0.1185 -1.3704  1.9147
  601SOL    HW2 1803   3.073   1.448   1.897 -0.4424  1.8974 -0.3233
  602SOL     OW 1804   1.504   1.557   2.336 -0.1543  0.5874  0.5972
  602SOL    HW1 1805   1.416   1.542   2.384 -2.0968  0.1425 -3.0727
  602SOL    HW2 1806   1.558   1.634   2.383 -0.1959 -0.1414  2.6269
  603SOL     OW 1807   0.568   1.173   2.735  0.2520 -0.1830  0.0125
  603SOL    HW1 1808   0.530   1.232   2.661 -2.6104  0.6301  2.8990
  603SOL    HW2 1809   0.567   1.072   2.710 -0.6860 -1.8665  0.5309
  604SOL     OW 1810   2.527   1.041   0.252 -0.2501 -0.9244  0.5651
  604SOL    HW1 1811   2.623   1.073   0.236 -0.9438 -0.8370 -2.5342
  604SOL    HW2 1812   2.490   0.979   0.181 -0.0709  1.0894 -0.9709
  605SOL     OW 1813   2.599   1.206   1.909  0.1338  0.2661  0.4551
  605SOL    HW1 1814   2.637   1.120   1.866 -0.9070  0.7912  0.1248
  605SOL    HW2 1815   2.627   1.224   2.007 -2.2275  0.6942 -0.3499
  606SOL     OW 1816   1.518   2.453   2.595  0.1789 -0.1952  0.2279
  606SOL    HW1 1817   1.466   2.542   2.581 -2.0835  0.4921 -2.0248
  606SOL    HW2 1818   1.466   2.372   2.558  0.1423  2.4354  2.1346
  607SOL     OW 1819   1.286   1.582   0.300 -0.5684  0.2315 -0.3599
  607SOL    HW1 1820   1.199   1.638   0.308  0.7077 -1.4549  2.6531
  607SOL    HW2 1821   1.370   1.637   0.276  1.4822 -3.7862  1.0788
  608SOL     OW 1822   1.442   2.813   0.317 -0.2257  0.5334 -0.0631
  608SOL    HW1 1823   1.507   2.855   0.247 -2.8255 -0.1048 -0.4546
  608SOL    HW2 1824   1.386   2.890   0.361  1.0867  2.0889 -0.3273
  609SOL     OW 1825   1.295   1.286   0.184 -0.1615 -0.1489 -0.3389
  609SOL    HW1 1826   1.280   1.382   0.227  0.0803  0.5857  2.2840
  609SOL    HW2 1827   1.256   1.268   0.090  2.0717  1.9589  0.6067
  610SOL     OW 1828   3.082   1.249   2.151  0.6055 -0.1015 -0.2880
  610SOL    HW1 1829   3.048   1.165   2.199 -0.8237 -0.2334  0.5273
  610SOL    HW2 1830   3.032   1.276   2.061 -3.8673 -0.8152 -1.4543
  611SOL     OW 1831   2.540   0.204   1.165  0.0220  0.3609 -0.0137
  611SOL    HW1 1832   2.502   0.110   1.179  1.9351  1.3713 -0.8586
  611SOL    HW2 1833   2.626   0.217   1.223 -2.0461 -0.1185 -0.9806
  612SOL     OW 1834   0.751   2.381   1.228 -0.2402  0.2578  0.3290
  612SOL    HW1 1835   0.702   2.290   1.238  0.9475 -0.9515 -1.0251
  612SOL    HW2 1836   0.679   2.456   1.242  0.3632  1.7585  0.1941
  613SOL     OW 1837   0.773   1.368   2.381 -0.2042 -0.0799  0.3628
  613SOL    HW1 1838   0.800   1.442   2.313  0.3737 -0.4715 -1.3033
  613SOL    HW2 1839   0.768   1.272   2.337  2.3523 -0.7244 -0.8503
  614SOL     OW 1840   1.509   1.669   1.948  0.1885  0.1816 -0.0258
  614SOL    HW1 1841   1.469   1.752   1.907 -1.9426  0.8026  0.1075
  614SOL    HW2 1842   1.602   1.696   1.990  0.9731 -0.1754  1.4510
  615SOL     OW 1843   0.702   1.465   1.722  0.2586 -0.0724 -0.1986
  615SOL    HW1 1844   0.634   1.405   1.669 -0.4825 -0.2432 -0.7879
  615SOL    HW2 1845   0.777   1.495   1.666  1.3892 -0.5005  1.4928
  616SOL     OW 1846   1.127   1.612   2.199 -0.0265  0.2920  0.5213
  616SOL    HW1 1847   1.026   1.613   2.230 -0.4109  0.4227 -2.4180
  616SOL    HW2 1848   1.134   1.581   2.101 -0.4846 -0.5472 -0.1204
  617SOL     OW 1849   2.899   1.578   1.598 -0.4850  0.3115 -0.5302
  617SOL    HW1 1850   2.832   1.518   1.646  2.1822  0.5030 -1.5487
  617SOL    HW2 1851   2.966   1.519   1.542  0.3706 -0.1638  1.2170
  618SOL     OW 1852   1.886   1.998   1.490 -0.1434 -0.7117  0.4935
  618SOL    HW1 1853   1.963   2.002   1.417 -0.0134  0.0051  0.6965
  618SOL    HW2 1854   1.862   1.902   1.506  1.5400 -0.2998 -1.3016
  619SOL     OW 1855   1.791   0.525   2.397 -0.0781  0.6236 -0.0009
  619SOL    HW1 1856   1.718   0.569   2.339  0.4749  1.2467  1.0769
  619SOL    HW2 1857   1.773   0.426   2.398 -0.5220  3.3668  0.8860
  620SOL     OW 1858   2.240   2.905   0.651 -0.1450 -0.7362 -0.3739
  620SOL    HW1 1859   2.144   2.941   0.660 -1.0863 -0.5182  1.1759
  620SOL    HW2 1860   2.280   2.871   0.737  1.3278  2.3688 -1.0712
  621SOL     OW 1861   2.133   1.864   1.357 -0.2380  0.8267  0.1774
  621SOL    HW1 1862   2.144   1.851   1.464  1.4885  1.5620 -0.3442
  621SOL    HW2 1863   2.169   1.776   1.303  1.1950 -1.6559  1.5495
  622SOL     OW 1864   2.257   0.955   1.812 -0.1217 -0.2344 -1.1698
  622SOL    HW1 1865   2.336   0.899   1.840  0.5439  1.7740 -0.2884
  622SOL    HW2 1866   2.171   0.924   1.862 -1.3312 -3.7728  2.4737
  623SOL     OW 1867   1.268   0.920   2.582 -0.3250 -0.4560 -0.3885
  623SOL    HW1 1868   1.263   0.845   2.654  1.1525 -0.4933 -0.4825
  623SOL    HW2 1869   1.221   0.904   2.492  3.1688 -1.3172  0.5572
  624SOL     OW 1870   0.557   0.685   3.066  0.3268 -0.7970 -0.1444
  624SOL    HW1 1871   0.596   0.737   2.991  1.0511 -0.9368  1.1405
  624SOL    HW2 1872   0.539   0.738   3.148  1.6038 -0.1256 -0.4762
  625SOL     OW 1873   2.809   1.782   0.825  0.3611  0.2444 -0.0495
  625SOL    HW1 1874   2.790   1.828   0.920 -0.3964  0.0200  0.7297
  625SOL    HW2 1875   2.725   1.722   0.805 -1.4814  1.6588  0.7603
  626SOL     OW 1876   0.415   2.831   2.057  0.4239  0.3606 -0.2406
  626SOL    HW1 1877   0.450   2.929   2.047  2.0628  1.8096 -1.2263
  626SOL    HW2 1878   0.372   2.803   1.966  1.7970 -1.2246 -2.0494
  627SOL     OW 1879   0.698   1.013   1.533 -0.4125 -0.5323  0.1950
  627SOL    HW1 1880   0.735   0.923   1.540 -0.4490 -1.4903  0.2378
  627SOL    HW2 1881   0.757   1.077   1.472 -1.9211  0.2419 -0.6708
  628SOL     OW 1882   2.461   0.108   0.651  0.1975  0.0896  0.0874
  628SOL    HW1 1883   2.475   0.028   0.582 -2.7625  0.7716 -1.8868
  628SOL    HW2 1884   2.366   0.130   0.684  1.9197  0.7772  2.6500
  629SOL     OW 1885   1.998   0.956   1.947  0.2047 -0.0557  0.0433
  629SOL    HW1 1886   2.022   0.999   2.039  0.9370  0.5418  0.2086
  629SOL    HW2 1887   1.943   1.024   1.892  0.5128 -2.1703  2.4732
  630SOL     OW 1888   2.855   2.230   0.759 -0.0469 -0.0571  0.2472
  630SOL    HW1 1889   2.765   2.262   0.803  1.5225 -1.2867 -1.2460
  630SOL    HW2 1890   2.841   2.149   0.703  0.3455  3.5191 -0.9524
  631SOL     OW 1891   3.034   0.197   2.143  0.5557  0.5858  0.4669
  631SOL    HW1 1892   3.082   0.245   2.225  0.9631 -1.5094  0.0145
  631SOL    HW2 1893   3.097   0.191   2.057  1.0986 -0.7356 -0.7297
  632SOL     OW 1894   2.413   2.506   0.747  0.0031 -0.1109 -0.6683
  632SOL    HW1 1895   2.490   2.559   0.792  2.9330 -3.4141  0.4780
  632SOL    HW2 1896   2.387   2.551   0.653 -0.1276 -1.5972 -0.2598
  633SOL     OW 1897   1.564   1.247   2.718 -0.6968 -0.0148  0.6391
  633SOL    HW1 1898   1.522   1.317   2.785 -2.0869  1.1449 -0.1438
  633SOL    HW2 1899   1.497   1.229   2.640 -3.0685 -0.2167  1.6453
  634SOL     OW 1900   0.687   2.061   0.895  0.3577  0.0241 -0.9565
  634SOL    HW1 1901   0.593   2.086   0.932 -1.6651 -0.2973  1.0436
  634SOL    HW2 1902   0.752   2.145   0.912 -0.4316  0.2042 -1.7636
  635SOL     OW 1903   0.020   2.240   3.043 -0.6295  0.7193  0.1872
  635SOL    HW1 1904  -0.070   2.262   2.991  1.7204  1.3121 -2.3541
  635SOL    HW2 1905   0.048   2.313   3.110 -1.1376 -2.4958 -0.4857
  636SOL     OW 1906   2.348   2.839   1.991  0.2199  0.1248 -0.3803
  636SOL    HW1 1907   2.309   2.934   1.958 -1.7070 -0.9573 -1.9800
  636SOL    HW2 1908   2.310   2.808   2.082  1.3203  0.2307 -1.5874
  637SOL     OW 1909   2.562   0.743   2.117 -0.3359 -0.0241  0.2076
  637SOL    HW1 1910   2.549   0.705   2.022 -1.1469 -0.2211  0.1190
  637SOL    HW2 1911   2.636   0.817   2.130  2.6571  0.2801  0.7345
  638SOL     OW 1912   2.421   1.936   1.391  0.0747 -0.3750 -0.3213
  638SOL    HW1 1913   2.322   1.956   1.402 -0.0674  1.1558  0.7455
  638SOL    HW2 1914   2.445   1.838   1.369 -2.9879  2.8085 -1.6766
  639SOL     OW 1915   1.284   2.228   1.570 -0.1039 -0.1597  0.1810
  639SOL    HW1 1916   1.262   2.160   1.494 -1.0863 -0.1172 -0.3399
  639SOL    HW2 1917   1.233   2.204   1.657 -0.6246  1.3492 -2.2162
  640SOL     OW 1918   0.250   1.170   1.544 -0.0619 -0.2594 -0.5756
  640SOL    HW1 1919   0.235   1.239   1.621 -0.2725  0.4517 -0.2874
  640SOL    HW2 1920   0.349   1.146   1.531 -1.7830  1.6970  0.0082
  641SOL     OW 1921   1.874   0.283   1.415  0.0919  0.2131  0.1572
  641SOL    HW1 1922   1.829   0.357   1.474 -1.7033  2.5484  1.9124
  641SOL    HW2 1923   1.903   0.200   1.474 -0.1241  1.0029 -1.3156
  642SOL     OW 1924   1.994   0.122   0.349 -0.8159  0.1788  0.1990
  642SOL    HW1 1925   2.093   0.089   0.369  0.8925  0.1194  0.2507
  642SOL    HW2 1926   1.952   0.177   0.423  2.3799 -0.8300 -0.4234
  643SOL     OW 1927   2.833   1.875   2.129  0.4894  0.2845 -0.7436
  643SOL    HW1 1928   2.777   1.802   2.084  1.4939 -0.0014  1.4154
  643SOL    HW2 1929   2.846   1.957   2.070  1.7927  0.4807  0.2953
  644SOL     OW 1930   2.225   2.303   1.206  0.2984  0.4930 -0.7086
  644SOL    HW1 1931   2.293   2.237   1.164  0.2263  2.1123 -2.1451
  644SOL    HW2 1932   2.227   2.314   1.306 -0.0906  1.4425 -0.3354
  645SOL     OW 1933   0.668   0.850   1.095  0.2195  0.5538  0.0425
  645SOL    HW1 1934   0.620   0.776   1.039 -1.8227  1.7882  0.9781
  645SOL    HW2 1935   0.641   0.942   1.049  0.4630 -0.3034  1.4320
  646SOL     OW 1936   1.445   1.897   1.809 -0.1189  0.2762 -0.2034
  646SOL    HW1 1937   1.526   1.947   1.781  0.7197 -0.1823 -2.5235
  646SOL    HW2 1938   1.391   1.943   1.884 -1.5018 -2.4857  0.3070
  647SOL     OW 1939   0.877   0.890   0.675 -0.1665 -0.1562 -0.1124
  647SOL    HW1 1940   0.929   0.927   0.752  1.2934  0.2210 -1.7796
  647SOL    HW2 1941   0.781   0.860   0.702 -0.8635 -0.7395 -1.2746
  648SOL     OW 1942   0.028   0.217   0.323 -0.1299  0.2450  0.0910
  648SOL    HW1 1943   0.007   0.128   0.278 -0.6756 -2.1885 -0.6633
  648SOL    HW2 1944   0.018   0.302   0.259  0.6066  1.5831  0.0719
  649SOL     OW 1945   0.018   0.045   0.968  0.8295  0.2723  0.7141
  649SOL    HW1 1946   0.105  -0.007   0.958 -0.0438  1.6801  2.5109
  649SOL    HW2 1947  -0.004   0.075   1.066  1.2161 -0.9962 -0.1852
  650SOL     OW 1948   2.736   0.717   1.459  0.0835  0.0078 -0.3139
  650SOL    HW1 1949   2.639   0.686   1.486  1.3947  0.9062 -0.1455
  650SOL    HW2 1950   2.724   0.803   1.400 -2.5185  0.1754  3.4079
  651SOL     OW 1951   0.880   1.600   1.475  0.3935 -0.1077 -0.3226
  651SOL    HW1 1952   0.924   1.671   1.531 -0.8922 -0.8003 -1.7984
  651SOL    HW2 1953   0.793   1.629   1.421 -4.2125 -0.9411  0.7801
  652SOL     OW 1954   2.266   2.514   2.357 -0.3151 -0.0559 -0.1480
  652SOL    HW1 1955   2.183   2.492   2.421  1.0446  0.6927 -0.2725
  652SOL    HW2 1956   2.247   2.606   2.325 -0.9184 -1.6414  2.2965
  653SOL     OW 1957   2.790   1.140   0.198  0.4586 -0.2831 -0.1580
  653SOL    HW1 1958   2.831   1.232   0.219 -0.9780 -4.1401  3.1424
  653SOL    HW2 1959   2.835   1.060   0.250  2.6799 -1.3536 -0.7931
  654SOL     OW 1960   1.200   2.222   1.220  0.5661 -0.3633 -0.6129
  654SOL    HW1 1961   1.204   2.163   1.304 -1.8009  1.5258 -0.1889
  654SOL    HW2 1962   1.275   2.193   1.153 -0.2417  0.5002 -1.4746
  655SOL     OW 1963   0.223   1.049   1.915 -0.3381 -0.5132 -0.3019
  655SOL    HW1 1964   0.274   0.980   1.853 -0.8444  3.4211  1.6522
  655SOL    HW2 1965   0.292   1.116   1.961 -1.8301  1.8014  0.8157
  656SOL     OW 1966   2.471   2.408   2.581 -0.9662  0.0487 -0.7175
  656SOL    HW1 1967   2.571   2.423   2.586  1.2195 -1.3794  0.5507
  656SOL    HW2 1968   2.421   2.454   2.506 -1.4984  2.6762  0.8560
  657SOL     OW 1969   3.051   1.097   1.877  0.4142 -0.0573  0.0338
  657SOL    HW1 1970   3.026   1.197   1.861 -0.0083  0.5946  0.0158
  657SOL    HW2 1971   3.152   1.088   1.906  0.8181 -0.5045  1.0920
  658SOL     OW 1972   1.711   0.260   2.381  0.1620 -1.0252  0.4153
  658SOL    HW1 1973   1.707   0.180   2.439  0.6545  3.2045 -1.1665
  658SOL    HW2 1974   1.777   0.243   2.301  2.6255  2.1163 -0.5835
  659SOL     OW 1975   1.406   0.624   2.821  0.3985 -0.0399 -0.2880
  659SOL    HW1 1976   1.497   0.673   2.808  0.1649 -0.1515 -0.1985
  659SOL    HW2 1977   1.326   0.676   2.781 -2.4278 -1.5174  1.8556
  660SOL     OW 1978   1.364   0.400   1.436  0.2897 -0.8057  0.7418
  660SOL    HW1 1979   1.397   0.428   1.529  0.2977  0.9631  0.8227
  660SOL    HW2 1980   1.443   0.365   1.376 -1.0722  1.5793  2.9068
  661SOL     OW 1981   2.438   1.122   0.661 -0.1131  0.2802 -0.4583
  661SOL    HW1 1982   2.485   1.062   0.591  0.6924  0.3707 -1.0019
  661SOL    HW2 1983   2.359   1.176   0.625 -1.4482  0.7118 -1.1830
  662SOL     OW 1984   1.282   0.443   1.847  0.1204 -0.6492  0.4150
  662SOL    HW1 1985   1.225   0.351   1.850  1.2806 -1.6909 -5.0218
  662SOL    HW2 1986   1.275   0.503   1.934  0.0669  1.9618 -1.8909
  663SOL     OW 1987   0.836   1.568   2.197 -1.0853  0.2525 -0.4159
  663SOL    HW1 1988   0.793   1.659   2.229 -0.6311 -2.2134  0.2220
  663SOL    HW2 1989   0.798   1.531   2.110  2.5948  3.0711  1.8447
  664SOL     OW 1990   1.635   2.068   1.397 -0.7859  0.3172  0.3439
  664SOL    HW1 1991   1.556   2.013   1.428 -0.9749 -0.2611  0.9996
  664SOL    HW2 1992   1.726   2.040   1.441 -0.9278  1.3659  0.2348
  665SOL     OW 1993   2.276   0.606   1.982 -0.5045 -0.3948 -0.0320
  665SOL    HW1 1994   2.289   0.519   2.037  1.5868 -2.1870  0.3019
  665SOL    HW2 1995   2.185   0.649   1.987 -1.8261  1.0776 -0.5512
  666SOL     OW 1996   0.511   2.281   0.468  0.5512 -0.8361  0.0140
  666SOL    HW1 1997   0.518   2.383   0.469  1.4652 -0.5134  0.2521
  666SOL    HW2 1998   0.457   2.236   0.547 -1.8335  0.3392 -1.8905
  667SOL     OW 1999   2.088   0.225   0.992  0.0274  0.2670 -0.3612
  667SOL    HW1 2000   2.147   0.312   1.016 -0.5087  1.0242 -1.0502
  667SOL    HW2 2001   2.006   0.221   1.052 -0.7408 -0.7658 -3.3969
  668SOL     OW 2002   2.071   0.629   1.283  0.3693 -0.3999 -0.1343
  668SOL    HW1 2003   2.112   0.561   1.214  0.3103  1.2288 -0.8907
  668SOL    HW2 2004   2.070   0.585   1.374  0.4273 -1.1198 -1.4466
  669SOL     OW 2005   3.045   2.206   0.970 -0.3183  1.2106  0.1502
  669SOL    HW1 2006   2.982   2.224   0.894  0.4496  2.4858 -0.0666
  669SOL    HW2 2007   2.989   2.202   1.057 -1.5314 -2.0247 -0.8443
  670SOL     OW 2008   2.803   2.358   2.016  0.4593  0.2750 -0.0822
  670SOL    HW1 2009   2.743   2.372   2.102  2.3552  1.5210 -0.3229
  670SOL    HW2 2010   2.781   2.429   1.946  1.1712  1.0595  0.8439
  671SOL     OW 2011   1.687   1.755   1.451 -0.4016  0.7240 -0.4985
  671SOL    HW1 2012   1.689   1.762   1.342  0.4933 -2.0339 -0.9815
  671SOL    HW2 2013   1.601   1.797   1.490  1.7310  0.1445  1.1819
  672SOL     OW 2014   0.395   0.683   2.441  0.0928 -0.0634 -0.6969
  672SOL    HW1 2015   0.394   0.665   2.340  0.1540 -0.9502  2.7542
  672SOL    HW2 2016   0.313   0.736   2.477 -1.4145 -3.6905  1.4083
  673SOL     OW 2017   0.127   1.253   1.083 -0.2794  0.4289  0.5489
  673SOL    HW1 2018   0.129   1.291   1.178 -1.0269 -0.5597 -1.2025
  673SOL    HW2 2019   0.218   1.217   1.053 -0.3322 -2.1467  1.8082
  674SOL     OW 2020   1.602   2.935   0.151 -0.3299  0.8570  0.1004
  674SOL    HW1 2021   1.606   3.035   0.132  2.3753  1.1114  1.5566
  674SOL    HW2 2022   1.674   2.881   0.095  1.1595  0.6639 -0.7745
  675SOL     OW 2023   1.728   0.875   2.342 -0.7317  0.1451  0.2198
  675SOL    HW1 2024   1.829   0.851   2.318  2.0831  1.4502  2.2304
  675SOL    HW2 2025   1.663   0.802   2.304 -0.0542 -1.1307  3.9212
  676SOL     OW 2026   2.542   1.504   2.009  0.4587 -0.9822 -0.6274
  676SOL    HW1 2027   2.509   1.492   1.911 -1.8908 -0.1141  1.2290
  676SOL    HW2 2028   2.549   1.418   2.065 -2.6761 -0.5377 -0.7424
  677SOL     OW 2029   1.946   0.553   0.932  0.2647 -0.6251  0.2091
  677SOL    HW1 2030   1.935   0.657   0.945 -1.3431  2.0398  0.8949
  677SOL    HW2 2031   1.883   0.493   0.993 -1.6241  1.1080  1.3273
  678SOL     OW 2032   0.075   0.744   1.673 -0.1784 -0.2386  0.6660
  678SOL    HW1 2033   0.170   0.773   1.703 -1.5490  0.6954 -0.4359
  678SOL    HW2 2034   0.007   0.766   1.747  0.4815 -0.5889  0.2691
  679SOL     OW 2035   2.461   1.163   1.147  0.4909  0.0296  0.2899
  679SOL    HW1 2036   2.365   1.190   1.128  0.4726 -0.2148  0.8417
  679SOL    HW2 2037   2.490   1.083   1.087  2.1287 -0.2047 -2.5883
  680SOL     OW 2038   2.855   0.644   1.691 -0.2506 -0.5455  0.0111
  680SOL    HW1 2039   2.839   0.696   1.602  0.3522  2.9321 -1.6890
  680SOL    HW2 2040   2.933   0.685   1.745  1.1285 -0.4579 -0.0508
  681SOL     OW 2041   3.057   0.160   1.634  0.0705  0.2357 -0.3549
  681SOL    HW1 2042   3.115   0.131   1.555 -0.6070 -0.4960  0.3194
  681SOL    HW2 2043   3.001   0.247   1.613  1.7649  0.1614 -1.9673
  682SOL     OW 2044   0.723   3.080   1.349  0.0931 -0.1560  0.2836
  682SOL    HW1 2045   0.658   3.013   1.402 -0.2949 -3.8980  1.5032
  682SOL    HW2 2046   0.758   3.052   1.256  1.7636 -0.1722 -0.2380
  683SOL     OW 2047   1.423   0.213   2.231 -0.0809 -0.3544 -0.1054
  683SOL    HW1 2048   1.433   0.268   2.319 -0.5990 -1.2074  0.3162
  683SOL    HW2 2049   1.475   0.255   2.154  0.1431  1.4569 -0.5413
  684SOL     OW 2050   1.457   2.139   0.492  0.4932  0.1881  0.1531
  684SOL    HW1 2051   1.517   2.092   0.565  2.1960 -1.1387 -1.2197
  684SOL    HW2 2052   1.378   2.078   0.459  0.9822  0.3249 -0.4090
  685SOL     OW 2053   2.127   1.916   2.007 -0.1754  0.4443  0.6700
  685SOL    HW1 2054   2.188   1.993   1.969  0.8979 -0.1739 -0.3278
  685SOL    HW2 2055   2.184   1.835   2.038 -1.8064 -0.6172 -1.2725
  686SOL     OW 2056   1.516   1.712   2.747 -0.8561 -0.3431 -0.4606
  686SOL    HW1 2057   1.485   1.618   2.778  0.1611  2.5655  0.4685
  686SOL    HW2 2058   1.585   1.756   2.816  1.6545 -0.7116 -1.5876
  687SOL     OW 2059   1.327   2.498   1.913 -0.4987  0.0989  0.1543
  687SOL    HW1 2060   1.357   2.411   1.872  0.6222 -1.2750  4.2225
  687SOL    HW2 2061   1.389   2.525   1.992 -0.3180  0.1295 -2.7930
  688SOL     OW 2062   2.036   1.527   1.577 -0.2868 -0.3774 -0.1636
  688SOL    HW1 2063   2.138   1.539   1.572 -0.7137  0.0460  0.4786
  688SOL    HW2 2064   2.004   1.488   1.487 -0.7457  2.0204  1.7990
  689SOL     OW 2065   2.480   1.074   2.744 -0.4461 -0.0171  0.5296
  689SOL    HW1 2066   2.391   1.033   2.773  0.2804  1.1973 -0.6590
  689SOL    HW2 2067   2.564   1.037   2.799  2.0686  2.7999  0.0770
  690SOL     OW 2068   2.247   2.790   3.020  0.0803  0.0179 -0.3117
  690SOL    HW1 2069   2.164   2.730   2.992  0.1795  1.4512  3.8937
  690SOL    HW2 2070   2.232   2.849   3.106 -1.0643  1.4590  0.8915
  691SOL     OW 2071   2.603   0.448   2.129 -0.0863  0.0023 -0.1658
  691SOL    HW1 2072   2.677   0.405   2.071  0.3061  0.2384  0.0444
  691SOL    HW2 2073   2.599   0.551   2.126 -2.5492  0.7637 -0.3956
  692SOL     OW 2074   2.726   1.228   0.656 -0.0057 -0.6580  0.2100
  692SOL    HW1 2075   2.634   1.203   0.690 -0.4547 -0.3007 -0.3732
  692SOL    HW2 2076   2.765   1.320   0.699 -0.0880  1.3377 -0.8705
  693SOL     OW 2077   2.814   2.946   0.638  0.3305 -0.8051  0.2161
  693SOL    HW1 2078   2.847   3.038   0.679 -0.3439 -0.4122  2.4077
  693SOL    HW2 2079   2.781   2.956   0.540 -0.2343 -0.5183 -1.3795
  694SOL     OW 2080   2.406   2.169   0.059  0.3409  0.5716 -0.1392
  694SOL    HW1 2081   2.379   2.266   0.093 -0.7321 -0.1143  0.4486
  694SOL    HW2 2082   2.325   2.130   0.017 -2.9354  0.5110  1.9996
  695SOL     OW 2083   0.541   2.903   1.477  0.1869  0.5066  0.1631
  695SOL    HW1 2084   0.465   2.832   1.457  0.0878  0.6724 -0.1058
  695SOL    HW2 2085   0.521   2.959   1.563 -1.1336  3.4921  1.5210
  696SOL     OW 2086   2.729   1.989   0.658 -0.0996 -0.0080  0.2211
  696SOL    HW1 2087   2.765   1.920   0.728  2.1645 -0.2334 -0.6965
  696SOL    HW2 2088   2.691   1.951   0.571 -3.0464  2.5010 -0.9481
  697SOL     OW 2089   1.690   2.047   1.747  0.3866  0.4094  0.3563
  697SOL    HW1 2090   1.768   2.017   1.813  0.7211 -0.7177  1.4748
  697SOL    HW2 2091   1.724   2.053   1.649 -0.8704 -0.6517  0.4544
  698SOL     OW 2092   2.942   0.338   2.796  0.1219  0.0821 -0.1681
  698SOL    HW1 2093   2.938   0.328   2.693  3.5474 -0.9414  0.0462
  698SOL    HW2 2094   3.023   0.289   2.839 -2.2671  0.9512 -2.6453
  699SOL     OW 2095   1.541   0.122   2.925  0.1816 -0.1755 -0.2445
  699SOL    HW1 2096   1.500   0.033   2.883  0.8967 -3.1511 -0.3064
  699SOL    HW2 2097   1.607   0.164   2.858 -0.0889 -1.8928 -1.4326
  700SOL     OW 2098   0.999   2.436   1.355 -0.1816  0.3880 -0.2477
  700SOL    HW1 2099   1.080   2.379   1.329 -1.9469 -0.3912 -1.8753
  700SOL    HW2 2100   0.913   2.400   1.301 -1.5212  0.1721 -0.3625
  701SOL     OW 2101   1.818   2.862   0.001  0.1597 -0.0659 -0.7567
  701SOL    HW1 2102   1.854   2.799   0.074  0.6374  0.8372  1.2678
  701SOL    HW2 2103   1.863   2.957   0.005  0.4820 -1.0342 -2.9520
  702SOL     OW 2104   2.097   1.351   1.809  0.1615  0.0186 -0.2553
  702SOL    HW1 2105   2.178   1.291   1.791  1.1276  1.9344 -1.5044
  702SOL    HW2 2106   2.080   1.426   1.734  2.2001 -0.0490 -0.1820
  703SOL     OW 2107   1.964   0.909   1.475  0.1986  0.2172 -0.6382
  703SOL    HW1 2108   1.984   0.818   1.522  0.2492 -0.4364  1.3039
  703SOL    HW2 2109   2.001   0.991   1.529 -1.9888 -1.1428  1.8530
  704SOL     OW 2110   0.277   2.063   1.788 -0.1025 -0.1827 -0.7349
  704SOL    HW1 2111   0.304   1.982   1.846  0.7756  0.4860  2.6117
  704SOL    HW2 2112   0.353   2.126   1.756 -2.2032 -1.7357 -0.4536
  705SOL     OW 2113   2.550   1.419   0.867 -0.0278 -0.1178  0.3297
  705SOL    HW1 2114   2.460   1.399   0.914 -0.5875 -0.3237 -1.6927
  705SOL    HW2 2115   2.627   1.396   0.933 -0.0266  0.0386  1.8689
  706SOL     OW 2116   0.630   1.766   1.877 -0.7790  0.2453 -0.7700
  706SOL    HW1 2117   0.652   1.662   1.885  1.4844  0.6814  1.2622
  706SOL    HW2 2118   0.706   1.831   1.905 -0.2705  1.4660 -0.5703
  707SOL     OW 2119   2.346   1.214   1.803  0.4283 -0.2506 -1.4264
  707SOL    HW1 2120   2.444   1.209   1.842 -1.8794 -1.3795 -1.4378
  707SOL    HW2 2121   2.307   1.115   1.792 -1.8191  1.4554  1.2304
  708SOL     OW 2122   3.040   0.514   3.049 -0.1645 -0.0196  1.0769
  708SOL    HW1 2123   3.050   0.576   2.962 -0.8781  2.6178 -3.0245
  708SOL    HW2 2124   3.063   0.412   3.035  0.2791 -2.9630 -1.1171
  709SOL     OW 2125   1.761   1.830   0.216  0.3132 -0.1525  0.1814
  709SOL    HW1 2126   1.804   1.919   0.249 -0.2300  2.5725  0.4223
  709SOL    HW2 2127   1.771   1.819   0.115 -3.2142 -0.5124  2.5706
  710SOL     OW 2128   1.759   1.675   2.454 -0.0200  0.2371 -0.3789
  710SOL    HW1 2129   1.793   1.670   2.356 -2.6103  1.0284  0.5266
  710SOL    HW2 2130   1.820   1.621   2.523 -3.5701 -0.8406  2.3956
  711SOL     OW 2131   2.618   2.927   0.972 -0.1965  0.0100  0.0910
  711SOL    HW1 2132   2.601   3.014   0.914  1.6166  1.5961 -0.1047
  711SOL    HW2 2133   2.717   2.924   1.003 -1.0588 -0.5457  1.1336
  712SOL     OW 2134   1.506   2.306   1.745  0.2317  0.3168  0.1853
  712SOL    HW1 2135   1.566   2.226   1.777  0.3385  2.4813  0.9158
  712SOL    HW2 2136   1.458   2.279   1.658  2.5312  1.0437 -0.2574
  713SOL     OW 2137   2.843   1.315   2.519 -0.0862 -0.0939  0.1931
  713SOL    HW1 2138   2.847   1.258   2.431 -2.8326 -2.5772 -1.7624
  713SOL    HW2 2139   2.790   1.266   2.598 -0.3233  0.9483  0.3552
  714SOL     OW 2140   2.673   0.436   2.457  0.0032 -0.4375 -0.1198
  714SOL    HW1 2141   2.604   0.408   2.531 -1.1970  1.5048  0.8371
  714SOL    HW2 2142   2.632   0.430   2.361 -1.4491  2.1014 -0.5915
  715SOL     OW 2143   1.658   2.066   1.114 -0.3215  0.1706 -0.0564
  715SOL    HW1 2144   1.583   2.132   1.081 -1.6731 -1.3109  0.0064
  715SOL    HW2 2145   1.670   2.055   1.217 -0.2709 -4.3791  0.6985
  716SOL     OW 2146   1.184   0.204   1.449  0.2656 -0.4984  0.2523
  716SOL    HW1 2147   1.087   0.221   1.420 -3.2102 -1.4566  2.8771
  716SOL    HW2 2148   1.242   0.289   1.464 -0.3893  0.9959 -1.6341
  717SOL     OW 2149   1.044   0.549   1.599  0.1857 -0.8868  0.3446
  717SOL    HW1 2150   1.138   0.577   1.636 -0.9857 -0.2821 -3.0555
  717SOL    HW2 2151   1.040   0.537   1.494 -3.1024 -1.6672  0.5185
  718SOL     OW 2152   0.654   1.109   1.007 -0.2821  0.3234  0.3062
  718SOL    HW1 2153   0.674   1.132   0.910  1.5500 -2.0443  0.8952
  718SOL    HW2 2154   0.707   1.164   1.075 -1.9866  0.6357 -0.6109
  719SOL     OW 2155   0.685   1.808   2.255  0.3465 -0.1740  0.1038
  719SOL    HW1 2156   0.739   1.840   2.339  0.0239 -0.6345  1.3079
  719SOL    HW2 2157   0.607   1.870   2.242  3.3093 -4.8013  0.4613
  720SOL     OW 2158   2.274   1.162   0.214 -0.1836  0.6083 -0.3279
  720SOL    HW1 2159   2.377   1.148   0.219  0.3648  0.0944 -0.0077
  720SOL    HW2 2160   2.224   1.174   0.307  0.6640 -0.4782  1.3275
  721SOL     OW 2161   2.240  -0.002   2.010  0.2976 -0.5921  0.4271
  721SOL    HW1 2162   2.259   0.084   1.952  1.0883  0.9472  0.1057
  721SOL    HW2 2163   2.148   0.007   2.059 -1.0518  0.2029 -1.2699
  722SOL     OW 2164   2.415   1.680   0.487  0.5672  0.7988  0.3356
  722SOL    HW1 2165   2.436   1.610   0.415 -1.4433  0.6757  1.0493
  722SOL    HW2 2166   2.315   1.672   0.517  1.6046  2.3363 -2.2436
  723SOL     OW 2167   2.619   2.861   1.899  0.1656  0.4630 -0.1098
  723SOL    HW1 2168   2.661   2.876   1.991 -1.0744  2.9500  0.2509
  723SOL    HW2 2169   2.513   2.860   1.911 -2.3427 -2.1600  2.2358
  724SOL     OW 2170   0.305   2.407   2.351  0.1758 -0.1315 -0.4774
  724SOL    HW1 2171   0.213   2.451   2.382  0.3218  1.1622 -3.1877
  724SOL    HW2 2172   0.370   2.389   2.431  2.9970 -0.5844 -0.4215
  725SOL     OW 2173   2.310   2.789   1.466  0.4324 -0.0138 -0.3610
  725SOL    HW1 2174   2.369   2.793   1.375 -0.5104  2.4384  1.9646
  725SOL    HW2 2175   2.309   2.694   1.515  0.7903  0.9303  0.0958
  726SOL     OW 2176   2.398   2.235   0.795 -0.2724  0.0142 -0.4836
  726SOL    HW1 2177   2.387   2.335   0.774 -0.3040  0.0568  2.4800
  726SOL    HW2 2178   2.357   2.178   0.716  0.3066 -0.3037 -2.6582
  727SOL     OW 2179   0.242   3.097   0.151 -0.3295  0.2700 -0.1856
  727SOL    HW1 2180   0.264   3.002   0.120  0.9975 -0.0629 -1.6195
  727SOL    HW2 2181   0.251   3.172   0.081 -0.6958  2.5073  1.2772
  728SOL     OW 2182   2.823   0.659   1.078 -0.2691  0.6700 -0.2799
  728SOL    HW1 2183   2.741   0.642   1.014 -0.5979 -0.6917  2.0832
  728SOL    HW2 2184   2.828   0.591   1.158 -0.8233  0.9897  1.5057
  729SOL     OW 2185   2.975   2.468   0.723  0.0722 -0.2279 -0.4329
  729SOL    HW1 2186   2.912   2.383   0.719  1.8372  2.7113  2.1348
  729SOL    HW2 2187   3.074   2.437   0.737 -0.1838 -0.0998 -0.5887
  730SOL     OW 2188   2.623   0.569   0.848 -0.0369  0.3306 -0.2056
  730SOL    HW1 2189   2.579   0.659   0.815  1.2083  0.9264 -1.1653
  730SOL    HW2 2190   2.700   0.540   0.776  0.9729  1.6719 -4.2414
  731SOL     OW 2191   0.133   2.123   2.474  0.7535 -0.5264  0.4139
  731SOL    HW1 2192   0.154   2.151   2.574  1.2588  0.8674 -0.9485
  731SOL    HW2 2193   0.097   2.202   2.417  1.6454  3.7135 -2.0317
  732SOL     OW 2194   1.151   2.845   2.025 -0.1936 -0.0198  0.0526
  732SOL    HW1 2195   1.141   2.784   2.108 -0.9561 -1.4995 -1.4402
  732SOL    HW2 2196   1.170   2.788   1.942 -1.7062  1.5183 -1.4296
  733SOL     OW 2197   3.031   0.689   2.129 -0.2923 -0.2835  0.2540
  733SOL    HW1 2198   3.120   0.734   2.106 -0.1743  0.4051  0.6516
  733SOL    HW2 2199   3.014   0.597   2.084 -1.6767 -0.1875  0.9864
  734SOL     OW 2200   1.377   0.374   2.687 -0.0915 -0.2148 -0.3592
  734SOL    HW1 2201   1.390   0.453   2.758 -0.7548 -0.4613  1.0141
  734SOL    HW2 2202   1.309   0.306   2.718  0.7349  1.3118  1.6887
  735SOL     OW 2203   2.804   2.630   2.289 -0.0573  0.1756 -0.2853
  735SOL    HW1 2204   2.723   2.659   2.233 -0.1836 -1.2393  0.0347
  735SOL    HW2 2205   2.892   2.622   2.232 -0.9752  0.0509  1.3315
  736SOL     OW 2206   0.806   0.378   2.587  0.2803 -0.1445 -0.2769
  736SOL    HW1 2207   0.730   0.449   2.584  0.4985 -0.3117  1.6357
  736SOL    HW2 2208   0.817   0.339   2.492 -2.4712  1.5296  2.2980
  737SOL     OW 2209   2.678   0.464   2.875 -0.1816 -0.3907  0.4429
  737SOL    HW1 2210   2.636   0.428   2.961 -0.0442  1.6001 -0.5395
  737SOL    HW2 2211   2.773   0.433   2.852 -2.6528 -0.5988 -0.5986
  738SOL     OW 2212   1.664   1.144   3.051  0.5567 -0.2997  0.8514
  738SOL    HW1 2213   1.770   1.134   3.035 -0.1078  0.3689 -0.4251
  738SOL    HW2 2214   1.621   1.050   3.034  3.1367 -2.9415  1.9682
  739SOL     OW 2215   1.798   0.532   0.689  0.5388 -0.0483  0.1640
  739SOL    HW1 2216   1.862   0.525   0.775  1.1550 -3.8253  2.5537
  739SOL    HW2 2217   1.810   0.454   0.624 -0.4264  0.4750 -0.0673
  740SOL     OW 2218   1.899   2.040   2.136  0.0180  0.0448 -0.1608
  740SOL    HW1 2219   1.956   1.972   2.082 -1.7847 -1.1346  0.2489
  740SOL    HW2 2220   1.802   2.049   2.098 -2.9334  1.1007 -0.0426
  741SOL     OW 2221   2.511   0.052   2.600  0.2829 -0.7822  0.5419
  741SOL    HW1 2222   2.614   0.065   2.577  1.1688 -1.3082 -0.3409
  741SOL    HW2 2223   2.450   0.089   2.528 -0.9613 -4.1164 -0.9322
  742SOL     OW 2224   2.258   1.393   0.075  0.6071 -0.0983  0.8999
  742SOL    HW1 2225   2.194   1.467   0.109  1.1924  1.1937  0.4144
  742SOL    HW2 2226   2.243   1.299   0.110 -1.9933 -2.5988 -1.2099
  743SOL     OW 2227   1.749   0.649   2.643  0.0108  0.1720 -0.0933
  743SOL    HW1 2228   1.768   0.598   2.553  2.3929 -2.6426  1.8090
  743SOL    HW2 2229   1.673   0.717   2.642  1.6136 -0.1916 -0.7348
  744SOL     OW 2230   2.677   2.084   0.081  0.3804  0.1661  0.7800
  744SOL    HW1 2231   2.574   2.090   0.098  1.2883 -3.5182  3.4452
  744SOL    HW2 2232   2.709   1.997   0.128 -0.7652  1.9621 -0.1637
  745SOL     OW 2233   2.195   2.734   2.199  0.1661  0.6063 -0.0730
  745SOL    HW1 2234   2.095   2.732   2.169 -0.3492 -0.2969  2.3817
  745SOL    HW2 2235   2.207   2.785   2.293  0.5079 -1.5005 -1.6090
  746SOL     OW 2236   3.074   2.604   1.817  0.2998 -0.0989 -0.5501
  746SOL    HW1 2237   3.172   2.611   1.792 -0.5019  1.5156  1.6819
  746SOL    HW2 2238   3.034   2.691   1.856 -0.1281 -1.9563  1.2713
  747SOL     OW 2239   0.027   1.789   1.677  0.0692  0.0746 -0.1928
  747SOL    HW1 2240  -0.035   1.721   1.630 -0.5986 -1.7405 -0.3521
  747SOL    HW2 2241   0.097   1.835   1.616  1.6796 -2.4044 -0.2699
  748SOL     OW 2242   1.741   2.733   2.864  0.6143 -0.4094 -0.1550
  748SOL    HW1 2243   1.757   2.799   2.939 -1.8079 -3.1597 -1.3307
  748SOL    HW2 2244   1.642   2.707   2.857  0.1060  0.9247 -0.6025
  749SOL     OW 2245   1.305   0.062   0.898  0.4991  0.1136 -0.1983
  749SOL    HW1 2246   1.239  -0.020   0.912  0.3584 -0.4492 -0.6711
  749SOL    HW2 2247   1.311   0.085   0.797  0.7963  0.5330  0.4152
  750SOL     OW 2248   2.266   0.244   1.876  0.0225 -0.0971 -0.1753
  750SOL    HW1 2249   2.327   0.301   1.812  2.7299 -1.0839  2.0827
  750SOL    HW2 2250   2.282   0.277   1.977 -0.6986  0.2202  3.0321
  751SOL     OW 2251   0.853   2.258   2.906  0.3178  0.2893  0.3381
  751SOL    HW1 2252   0.936   2.253   2.967 -1.0681  1.6875  0.7636
  751SOL    HW2 2253   0.796   2.173   2.914  0.4485 -2.1984 -1.2989
  752SOL     OW 2254   1.263   0.918   1.512  0.0063 -0.7284 -0.4573
  752SOL    HW1 2255   1.352   0.961   1.474 -0.1688 -0.7440  1.2571
  752SOL    HW2 2256   1.279   0.827   1.560 -3.0051 -0.4688 -0.9456
  753SOL     OW 2257   0.916   2.614   1.761 -0.6880  0.1243 -0.2796
  753SOL    HW1 2258   0.969   2.645   1.675  0.0593 -1.8781 -0.0333
  753SOL    HW2 2259   0.839   2.676   1.792 -1.5439  0.3986 -1.7077
  754SOL     OW 2260   1.136   1.327   3.036 -0.2759  0.3322  0.5934
  754SOL    HW1 2261   1.158   1.254   2.964  1.0090 -1.0737  0.1502
  754SOL    HW2 2262   1.127   1.423   2.996  0.3219 -1.2996 -0.1873
  755SOL     OW 2263   2.019   0.524   2.243  0.0583 -0.2205  0.6776
  755SOL    HW1 2264   2.097   0.464   2.282  1.0891  2.0794  0.0548
  755SOL    HW2 2265   1.934   0.527   2.303  0.5852  0.3172  1.3147
  756SOL     OW 2266   2.636   0.961   2.921  0.0435  0.0898 -0.1140
  756SOL    HW1 2267   2.697   0.880   2.912 -2.1596 -0.7238  0.1765
  756SOL    HW2 2268   2.555   0.946   2.982  1.0292  1.9745 -2.8314
  757SOL     OW 2269   0.161   0.471   1.717  0.4406 -0.6161 -0.1754
  757SOL    HW1 2270   0.140   0.568   1.742 -1.3425 -0.4506  1.1330
  757SOL    HW2 2271   0.184   0.461   1.612 -1.9732  0.2069 -0.5011
  758SOL     OW 2272   2.504   0.068   1.511 -0.2496  0.0435 -0.4835
  758SOL    HW1 2273   2.419   0.033   1.565  0.8461 -2.8280  0.6040
  758SOL    HW2 2274   2.495   0.038   1.412  1.7929  0.7909 -1.0759
  759SOL     OW 2275   1.665   0.087   0.083 -0.1553  0.0896  0.5522
  759SOL    HW1 2276   1.623   0.143   0.003  0.0754 -1.3840 -0.7704
  759SOL    HW2 2277   1.765   0.058   0.065 -0.9289  2.0034 -2.6648
  760SOL     OW 2278   2.734   1.946   2.763 -0.5329  0.4272 -0.4345
  760SOL    HW1 2279   2.739   1.845   2.763  1.3309  2.7789  1.1832
  760SOL    HW2 2280   2.808   1.993   2.706  2.0526 -2.2933 -1.5177
  761SOL     OW 2281   1.898   1.736   1.625 -0.3643 -0.4056  0.2829
  761SOL    HW1 2282   1.955   1.645   1.628  3.0064 -1.0351  1.1605
  761SOL    HW2 2283   1.813   1.719   1.568 -1.4615 -2.5642  1.2910
  762SOL     OW 2284   0.515   2.391   0.988 -0.1018 -0.0185 -0.2972
  762SOL    HW1 2285   0.550   2.429   0.902  2.1023  1.6244  1.0633
  762SOL    HW2 2286   0.528   2.459   1.067  0.9344 -1.4910  0.6935
  763SOL     OW 2287   2.007   1.583   2.967 -0.4331  0.1883 -0.0693
  763SOL    HW1 2288   2.076   1.526   2.908  0.7791 -2.0628 -0.9888
  763SOL    HW2 2289   1.958   1.529   3.043 -0.7052 -1.4710  1.0546
  764SOL     OW 2290   0.689   0.590   0.841  0.0102 -0.1777 -0.2443
  764SOL    HW1 2291   0.686   0.548   0.746 -1.8265  1.6236 -0.9325
  764SOL    HW2 2292   0.781   0.585   0.891 -0.9514  0.0904  1.2404
  765SOL     OW 2293   0.634   0.232   0.800 -0.1285  0.2045  0.0377
  765SOL    HW1 2294   0.718   0.268   0.749 -0.0068 -0.2987 -0.0714
  765SOL    HW2 2295   0.640   0.234   0.905 -1.6941  0.2188  2.2186
  766SOL     OW 2296   3.027   1.969   3.015  0.0460 -0.3616 -0.7042
  766SOL    HW1 2297   2.950   1.980   2.946 -0.8201 -0.3569 -3.9131
  766SOL    HW2 2298   3.088   2.052   3.021  0.4753 -1.5459 -4.2982
  767SOL     OW 2299   2.756   1.569   0.482 -1.0143 -0.0425 -0.0019
  767SOL    HW1 2300   2.687   1.591   0.555  1.0271  0.3718  1.2355
  767SOL    HW2 2301   2.848   1.605   0.507  1.7292 -0.1209 -1.4590
  768SOL     OW 2302   1.054   0.297   0.273  0.1390 -0.2983  0.1988
  768SOL    HW1 2303   0.966   0.268   0.232  2.6110  0.7877  0.0370
  768SOL    HW2 2304   1.126   0.227   0.273  0.4475 -0.1308 -0.5934
  769SOL     OW 2305   1.314   1.825   2.251  0.5896 -0.9401 -0.0794
  769SOL    HW1 2306   1.400   1.775   2.280  3.2407 -1.7946  0.8934
  769SOL    HW2 2307   1.239   1.756   2.239  2.9894  1.0176  0.9656
  770SOL     OW 2308   0.187   1.114   2.302  0.4572  0.8116  0.0528
  770SOL    HW1 2309   0.157   1.147   2.394 -0.8850 -1.5510 -3.2274
  770SOL    HW2 2310   0.126   1.153   2.223 -0.6666  1.9234 -0.6501
  771SOL     OW 2311   2.963   2.837   1.905 -0.0074 -0.2268 -0.2419
  771SOL    HW1 2312   2.938   2.900   1.822 -0.9014  3.6642 -0.7422
  771SOL    HW2 2313   2.949   2.885   1.991  0.6059  1.0604  0.5027
  772SOL     OW 2314   2.130   0.069   3.006  0.3616  0.0301 -0.0001
  772SOL    HW1 2315   2.207  -0.002   3.010  1.1673 -0.7309 -0.8801
  772SOL    HW2 2316   2.163   0.160   3.044 -1.5698  2.1610  1.3141
  773SOL     OW 2317   0.732   2.142   2.480  0.0660 -0.0672  0.0188
  773SOL    HW1 2318   0.667   2.133   2.399  0.7610 -0.8800 -2.3831
  773SOL    HW2 2319   0.680   2.124   2.568  0.3790  0.8250  1.1501
  774SOL     OW 2320   1.971   0.017   2.669 -0.1902 -0.3456  0.0819
  774SOL    HW1 2321   1.958   0.099   2.730 -0.3522  1.8973  0.5774
  774SOL    HW2 2322   2.049  -0.041   2.701 -3.1935 -0.2830 -2.8145
  775SOL     OW 2323   2.508   2.911   2.348 -0.3495  0.3471 -0.6098
  775SOL    HW1 2324   2.439   2.990   2.346  0.3929 -1.2405  1.1242
  775SOL    HW2 2325   2.571   2.913   2.429 -1.4495  0.3732 -1.8577
  776SOL     OW 2326   3.105   1.147   0.255  0.2034 -0.0182 -0.0497
  776SOL    HW1 2327   3.052   1.187   0.175  0.1928 -0.5209 -0.0335
  776SOL    HW2 2328   3.055   1.150   0.343 -1.7273 -0.9256 -1.7299
  777SOL     OW 2329   0.324   2.710   0.407 -0.4396  0.2696 -0.0104
  777SOL    HW1 2330   0.226   2.681   0.393 -0.5223  0.1305  2.0169
  777SOL    HW2 2331   0.344   2.811   0.425  2.3182 -0.6215  0.5577
  778SOL     OW 2332   1.330   1.987   0.171 -0.5208 -0.0785  0.1517
  778SOL    HW1 2333   1.278   2.006   0.257  0.6753  1.6711  0.6955
  778SOL    HW2 2334   1.369   2.074   0.126  0.0237  2.0867  0.3029
  779SOL     OW 2335   0.163   0.804   0.497  0.4736 -0.2058 -0.2539
  779SOL    HW1 2336   0.115   0.712   0.479 -0.3905 -0.1308  1.4832
  779SOL    HW2 2337   0.107   0.858   0.572 -1.1663 -0.1862  0.1311
  780SOL     OW 2338   0.036   0.315   2.356  0.3340 -0.2239 -0.1950
  780SOL    HW1 2339   0.011   0.406   2.391  0.4104 -0.9290 -0.2970
  780SOL    HW2 2340   0.137   0.311   2.331  0.8819 -0.5768  1.6542
  781SOL     OW 2341   0.555   1.786   1.606  0.2229  0.1769 -0.0660
  781SOL    HW1 2342   0.587   1.791   1.701  1.0671  0.5949 -0.4987
  781SOL    HW2 2343   0.502   1.698   1.581 -2.8392 -0.3981  1.8967
  782SOL     OW 2344   2.634   0.076   0.894 -0.9543 -0.2009  0.1757
  782SOL    HW1 2345   2.569   0.095   0.814  0.4694  0.2568 -1.7005
  782SOL    HW2 2346   2.607   0.126   0.984  1.3605 -0.3164  0.5161
  783SOL     OW 2347   2.826   0.634   2.552  0.6963 -0.1252  0.2417
  783SOL    HW1 2348   2.777   0.679   2.634 -2.1230  0.1478  0.5748
  783SOL    HW2 2349   2.757   0.581   2.499  0.6568 -0.6160  0.8204
  784SOL     OW 2350   1.421   2.214   0.027  0.3665  0.4814 -0.5315
  784SOL    HW1 2351   1.513   2.247   0.055 -2.7588  0.3133  1.2962
  784SOL    HW2 2352   1.421   2.196  -0.078  3.6619 -3.1214 -2.1089
  785SOL     OW 2353   2.185   0.319   0.021  0.2271 -0.1012 -0.2155
  785SOL    HW1 2354   2.095   0.321   0.081 -0.3053  2.3617 -1.2178
  785SOL    HW2 2355   2.210   0.421  -0.005 -0.8890  1.3316  1.3625
  786SOL     OW 2356   2.084   2.195   2.241  0.4451  0.2324  0.6183
  786SOL    HW1 2357   2.009   2.130   2.202  0.5367 -1.0628 -2.8732
  786SOL    HW2 2358   2.176   2.145   2.266  4.1087  0.3248  0.4265
  787SOL     OW 2359   1.360   0.634   0.728 -0.4290  0.0151 -0.8999
  787SOL    HW1 2360   1.318   0.705   0.670  0.1002 -0.3862  0.8499
  787SOL    HW2 2361   1.401   0.562   0.665 -3.4195  2.4060  3.1479
  788SOL     OW 2362   1.231   0.481   2.977 -0.1289  0.3032  0.2166
  788SOL    HW1 2363   1.133   0.507   2.961  1.4719 -2.4805  3.6199
  788SOL    HW2 2364   1.298   0.546   2.937 -1.0697  2.5970  1.7439
  789SOL     OW 2365   2.635   0.073   1.887 -0.3486  0.9230  0.4669
  789SOL    HW1 2366   2.547   0.123   1.889  1.4519 -1.0423  1.0286
  789SOL    HW2 2367   2.630  -0.022   1.929  2.3947 -2.3088  1.7936
  790SOL     OW 2368   2.639   2.668   0.839  0.4560 -0.4372  0.2304
  790SOL    HW1 2369   2.708   2.661   0.758 -1.5697 -0.6501 -0.7853
  790SOL    HW2 2370   2.655   2.749   0.906  1.8518  1.8394  2.1193
  791SOL     OW 2371   1.930   1.176   0.213  0.0485 -0.2340  0.0379
  791SOL    HW1 2372   1.834   1.140   0.248 -0.2660  1.4920  2.7468
  791SOL    HW2 2373   2.002   1.106   0.205 -2.1818  0.1163 -0.2890
  792SOL     OW 2374   0.452   1.964   2.252 -0.1028  0.3671  0.3684
  792SOL    HW1 2375   0.454   2.068   2.257 -2.3571  1.1198  1.4240
  792SOL    HW2 2376   0.360   1.922   2.290 -2.8545 -2.5130 -2.4941
  793SOL     OW 2377   2.094   1.531   2.029  0.2623  0.6708 -0.3240
  793SOL    HW1 2378   2.180   1.585   2.020 -2.5372 -3.0386 -3.5626
  793SOL    HW2 2379   2.091   1.465   1.954  0.6542  1.9465 -1.4908
  794SOL     OW 2380   0.572   1.544   2.474  0.1744 -0.2388 -0.0071
  794SOL    HW1 2381   0.645   1.476   2.438  1.5555  1.1127  3.7862
  794SOL    HW2 2382   0.486   1.547   2.416  0.1013 -0.7469 -0.7496
  795SOL     OW 2383   2.434   2.348   1.854 -0.7162  0.1297  0.0146
  795SOL    HW1 2384   2.430   2.387   1.953  0.8570  2.4371  1.5048
  795SOL    HW2 2385   2.390   2.257   1.845 -0.7473  3.5965 -0.8168
  796SOL     OW 2386   3.041   1.138   2.720  0.6001  0.5553 -0.1076
  796SOL    HW1 2387   2.939   1.155   2.735  0.6043 -0.5380 -1.2351
  796SOL    HW2 2388   3.095   1.159   2.810  0.2877  1.5974  1.7201
  797SOL     OW 2389   0.687   0.597   1.336  0.3676  0.1114  0.0632
  797SOL    HW1 2390   0.768   0.647   1.373 -0.6705 -0.6250 -0.6534
  797SOL    HW2 2391   0.636   0.664   1.283  2.5951 -0.2213  1.2181
  798SOL     OW 2392   1.217   0.520   0.915  0.1109  0.1316  0.6824
  798SOL    HW1 2393   1.231   0.575   1.003  2.0149  1.4630 -2.1992
  798SOL    HW2 2394   1.266   0.559   0.834 -2.7679 -0.3251  1.7485
  799SOL     OW 2395   1.792   2.713   1.042 -0.2016  0.1460  0.4108
  799SOL    HW1 2396   1.808   2.612   1.070 -2.7023  0.6382 -0.7522
  799SOL    HW2 2397   1.790   2.714   0.938  2.8562 -2.2112  1.7482
  800SOL     OW 2398   2.991   0.837   1.859 -0.2525  0.2164 -0.1502
  800SOL    HW1 2399   2.999   0.938   1.870 -0.0466 -0.9458  0.6415
  800SOL    HW2 2400   2.958   0.786   1.938 -0.4251  1.3255 -1.5272
  801SOL     OW 2401   1.977   2.233   0.108  0.5836  0.4060  0.1622
  801SOL    HW1 2402   1.954   2.294   0.027  1.1310  1.4431  2.2419
  801SOL    HW2 2403   2.058   2.170   0.091  0.1832 -1.5914  0.4251
  802SOL     OW 2404   0.671   0.658   2.539  0.5796 -0.3773 -0.0894
  802SOL    HW1 2405   0.729   0.665   2.454  1.1878  0.3292  0.0906
  802SOL    HW2 2406   0.570   0.664   2.522  0.8186 -2.0417  0.1250
  803SOL     OW 2407   0.956   0.114   0.889 -0.0127 -0.1648  0.1030
  803SOL    HW1 2408   1.026   0.183   0.932 -0.6138 -0.5311 -0.9134
  803SOL    HW2 2409   0.921   0.136   0.791 -0.5888 -0.4851  0.0384
  804SOL     OW 2410   0.327   0.026   2.179  0.1764 -0.0913  0.1687
  804SOL    HW1 2411   0.325   0.129   2.192  1.6232 -1.5010 -0.4007
  804SOL    HW2 2412   0.251  -0.010   2.120  1.2741  1.4583  1.3479
  805SOL     OW 2413   2.397   0.355   0.338  0.1248 -0.3291 -0.1399
  805SOL    HW1 2414   2.477   0.341   0.403  0.5362 -1.7688  2.4587
  805SOL    HW2 2415   2.411   0.304   0.250 -1.9340 -3.1133 -0.5067
  806SOL     OW 2416   0.629   2.664   1.959  0.3345  0.0246  0.7988
  806SOL    HW1 2417   0.574   2.729   2.012  0.0709 -0.7635  0.4190
  806SOL    HW2 2418   0.627   2.683   1.856  2.1383  1.4376 -0.3882
  807SOL     OW 2419   2.536   0.908   0.508  0.4252  0.2455  0.2051
  807SOL    HW1 2420   2.636   0.874   0.513  2.1538 -0.3937 -0.7772
  807SOL    HW2 2421   2.521   0.958   0.418  2.4420 -2.2431  0.9117
  808SOL     OW 2422   0.701   2.023   2.918 -0.0082 -0.2133 -0.5970
  808SOL    HW1 2423   0.646   2.044   3.008 -2.2733  0.5806 -1.0348
  808SOL    HW2 2424   0.713   1.921   2.891  1.1805 -0.1236  0.5741
  809SOL     OW 2425   2.558   2.004   1.907 -0.1027  0.1120 -0.0411
  809SOL    HW1 2426   2.656   2.028   1.896 -0.4046 -1.1801 -0.8757
  809SOL    HW2 2427   2.527   1.987   1.808 -0.9220  0.2570  0.5355
  810SOL     OW 2428   2.189   1.178   0.478  0.3500  0.4397  0.0395
  810SOL    HW1 2429   2.181   1.102   0.543 -2.1836  0.1034 -1.3392
  810SOL    HW2 2430   2.143   1.264   0.511 -1.1799  0.5758  2.8965
  811SOL     OW 2431   1.246   2.516   1.148 -0.0093  0.2468  0.3282
  811SOL    HW1 2432   1.268   2.417   1.155 -1.6959 -2.5700  1.2153
  811SOL    HW2 2433   1.235   2.555   1.239  1.3108  2.8403  2.0532
  812SOL     OW 2434   1.453   0.756   1.995  0.0617  0.2835  0.0480
  812SOL    HW1 2435   1.359   0.775   2.021 -0.4506 -0.9942 -0.6575
  812SOL    HW2 2436   1.493   0.839   1.949 -1.3646  2.9243  2.1730
  813SOL     OW 2437   1.633   2.051   2.398 -0.8117 -0.0006  0.0929
  813SOL    HW1 2438   1.737   2.052   2.405  0.1563  2.5866  1.0038
  813SOL    HW2 2439   1.601   2.034   2.298 -1.7374 -0.5090 -2.7074
  814SOL     OW 2440   2.995   1.707   2.903 -0.5676 -0.2079 -0.2281
  814SOL    HW1 2441   3.069   1.650   2.944 -0.8757  2.5107  0.0229
  814SOL    HW2 2442   3.007   1.804   2.939 -2.4543  0.6024  2.1382
  815SOL     OW 2443   2.169   2.866   2.714 -0.0760  0.5022  0.4086
  815SOL    HW1 2444   2.133   2.807   2.793  0.2266 -0.3953 -2.5522
  815SOL    HW2 2445   2.257   2.914   2.742 -1.4051  0.6483  2.1597
  816SOL     OW 2446   1.481   0.409   1.672  0.3085  0.0730 -0.3616
  816SOL    HW1 2447   1.539   0.321   1.679  1.0675  1.0867  2.7680
  816SOL    HW2 2448   1.408   0.406   1.745  0.5298  0.2979  1.0561
  817SOL     OW 2449   0.366   1.256   2.553 -0.0831 -0.0733 -0.2478
  817SOL    HW1 2450   0.258   1.251   2.561 -0.1485 -0.3153  0.9246
  817SOL    HW2 2451   0.400   1.339   2.499  1.9004 -1.4553 -0.0027
  818SOL     OW 2452   2.004   0.786   0.450 -0.2545 -0.6103  0.0964
  818SOL    HW1 2453   2.112   0.779   0.451 -0.4053 -1.7729 -1.9891
  818SOL    HW2 2454   1.968   0.847   0.528  2.7287 -0.5703  0.8114
  819SOL     OW 2455   2.791   2.903   3.006  0.7067 -0.4890  0.4942
  819SOL    HW1 2456   2.864   2.841   2.974  1.7778  1.6847  0.2943
  819SOL    HW2 2457   2.702   2.879   2.965 -3.7541 -0.8040  1.8630
  820SOL     OW 2458   1.210   1.091   0.567 -0.0604  0.2175  0.2016
  820SOL    HW1 2459   1.283   1.171   0.586 -1.7945  1.3172 -1.5531
  820SOL    HW2 2460   1.181   1.039   0.658 -1.8225 -0.5371 -0.8160
  821SOL     OW 2461   0.014   1.233   0.745  0.1747 -0.1795  0.6420
  821SOL    HW1 2462   0.009   1.265   0.840 -0.7210 -2.2044  0.7489
  821SOL    HW2 2463   0.080   1.297   0.690 -0.0697  0.3023 -0.9012
  822SOL     OW 2464   2.566   1.774   2.457  0.4138  0.0506 -0.2889
  822SOL    HW1 2465   2.553   1.805   2.554 -0.6983  0.7096 -2.1168
  822SOL    HW2 2466   2.478   1.784   2.400 -0.8089 -1.1229  0.0977
  823SOL     OW 2467   1.992   0.915   1.195  0.4764 -0.6550  0.3015
  823SOL    HW1 2468   1.983   0.897   1.301 -2.5971  0.7757 -1.1504
  823SOL    HW2 2469   1.967   0.835   1.135  1.0257  0.1742  1.6368
  824SOL     OW 2470   0.204   1.825   2.848  0.2110 -0.5118  0.3077
  824SOL    HW1 2471   0.213   1.826   2.950  0.0106  1.1702  1.6484
  824SOL    HW2 2472   0.287   1.855   2.790  1.2543  0.3906 -0.2582
  825SOL     OW 2473   1.268   1.032   0.284 -0.3403 -0.0806 -0.3772
  825SOL    HW1 2474   1.278   1.126   0.241  1.3321 -2.1468  1.1259
  825SOL    HW2 2475   1.236   1.032   0.383 -0.1467  0.8647  0.8236
  826SOL     OW 2476   1.972   0.663   1.597  0.0927  0.4774  0.1397
  826SOL    HW1 2477   2.059   0.617   1.636 -1.7932 -2.1498 -0.7608
  826SOL    HW2 2478   1.892   0.596   1.586  2.1761 -0.5369  2.2389
  827SOL     OW 2479   0.732   1.205   0.517  0.1709  0.3763  0.1490
  827SOL    HW1 2480   0.811   1.169   0.457 -0.5200 -1.0195  1.3680
  827SOL    HW2 2481   0.642   1.150   0.504 -1.3512  0.8339 -1.5641
  828SOL     OW 2482   2.717   0.174   1.626  0.3188 -0.7100  0.6186
  828SOL    HW1 2483   2.617   0.173   1.596 -0.7224  1.3251  1.1307
  828SOL    HW2 2484   2.730   0.127   1.715  0.1080  0.8383 -0.4041
  829SOL     OW 2485   2.896   2.367   2.879  0.2769 -0.0746 -0.1007
  829SOL    HW1 2486   2.800   2.330   2.895  0.7700  2.2328 -0.8966
  829SOL    HW2 2487   2.908   2.445   2.947  1.5150  1.1344 -0.0130
  830SOL     OW 2488   2.968   0.931   2.963  0.6104  0.3648 -0.2360
  830SOL    HW1 2489   2.973   1.032   2.977 -0.7885  0.1501  0.5944
  830SOL    HW2 2490   2.932   0.886   3.049  1.2706 -0.5949 -0.6742
  831SOL     OW 2491   0.011   0.585   0.457 -0.7037 -0.0501 -0.3826
  831SOL    HW1 2492  -0.005   0.552   0.554  0.1633  1.2226  0.0033
  831SOL    HW2 2493   0.014   0.507   0.389  0.7659  0.7296 -1.1029
  832SOL     OW 2494   1.787   0.726   0.033  0.9105 -0.2832  0.1406
  832SOL    HW1 2495   1.697   0.780   0.011 -2.1997 -0.3425  0.9012
  832SOL    HW2 2496   1.766   0.628   0.053 -1.5254  0.2809 -0.7541
  833SOL     OW 2497   2.359   2.121   0.553  0.4230 -0.0245 -0.6668
  833SOL    HW1 2498   2.262   2.100   0.523  0.6163  0.7968 -2.0374
  833SOL    HW2 2499   2.419   2.051   0.510  0.9972 -0.5169 -0.3031
  834SOL     OW 2500   0.076   0.072   0.574 -0.2571  0.0169  0.0737
  834SOL    HW1 2501   0.159   0.011   0.564 -0.3923  2.3662 -0.9505
  834SOL    HW2 2502   0.054   0.123   0.492 -3.1986  0.2421  0.9184
  835SOL     OW 2503   2.492   1.694   1.112  0.1459  0.3720 -0.6458
  835SOL    HW1 2504   2.568   1.633   1.140 -0.0958 -1.4508  1.3910
  835SOL    HW2 2505   2.537   1.781   1.074  0.9018 -0.7292  0.5936
  836SOL     OW 2506   1.546   0.857   2.609  0.3077  0.3980  0.0171
  836SOL    HW1 2507   1.451   0.870   2.572 -0.4256 -0.7002  0.1922
  836SOL    HW2 2508   1.618   0.880   2.533  1.0178  2.1526 -4.1245
  837SOL     OW 2509   1.682   0.072   0.569 -0.2779 -0.3018  0.7585
  837SOL    HW1 2510   1.630   0.151   0.607 -1.4785  0.8129  0.6407
  837SOL    HW2 2511   1.663   0.051   0.470 -2.6283 -2.2184  1.6614
  838SOL     OW 2512   1.172   1.445   2.696  0.5961 -0.6884 -0.0539
  838SOL    HW1 2513   1.128   1.477   2.783  2.7341  0.8133  0.2548
  838SOL    HW2 2514   1.107   1.380   2.647  0.3429  1.2542 -1.7099
  839SOL     OW 2515   1.664   0.401   0.952 -0.0345 -0.5107  0.1753
  839SOL    HW1 2516   1.594   0.471   0.982  1.5874  1.2747  0.7289
  839SOL    HW2 2517   1.633   0.309   0.974  3.4649  0.8159 -1.0668
  840SOL     OW 2518   2.666   2.954   1.636 -0.3688  0.2310  0.1566
  840SOL    HW1 2519   2.616   3.042   1.611  0.4405  1.2776  2.2620
  840SOL    HW2 2520   2.628   2.910   1.723 -1.1697 -3.5278  0.4179
  841SOL     OW 2521   1.548   0.837   3.076 -0.5435 -0.0239  0.0268
  841SOL    HW1 2522   1.462   0.836   3.126  1.3140  0.5472 -4.4373
  841SOL    HW2 2523   1.529   0.876   2.985 -1.3258 -0.1445  2.8777
  842SOL     OW 2524   0.812   1.620   1.013 -0.6153 -0.1487  0.1719
  842SOL    HW1 2525   0.780   1.712   1.049 -0.3556  1.7490 -0.4536
  842SOL    HW2 2526   0.745   1.580   0.947  0.8295  1.7860  1.2387
  843SOL     OW 2527   0.139   0.090   1.436 -1.0305  0.3418  0.3749
  843SOL    HW1 2528   0.232   0.128   1.470  1.3234 -0.2085  0.1226
  843SOL    HW2 2529   0.141  -0.012   1.433 -2.2804  0.2418 -1.0078
  844SOL     OW 2530   0.708   2.442   0.209  0.1899 -0.1034  0.0938
  844SOL    HW1 2531   0.663   2.475   0.297  0.6750  2.4621 -0.3511
  844SOL    HW2 2532   0.643   2.414   0.131  1.0286  1.9931 -0.9009
  845SOL     OW 2533   1.755  -0.001   1.283 -0.5335  0.2333  0.5273
  845SOL    HW1 2534   1.728  -0.011   1.382 -0.0009  0.7981  0.1743
  845SOL    HW2 2535   1.713   0.080   1.239 -0.6325  3.1839  0.6747
  846SOL     OW 2536   1.686   3.008   0.892  0.5282 -0.1159 -0.1471
  846SOL    HW1 2537   1.709   3.036   0.794 -1.3830 -2.6607 -1.6571
  846SOL    HW2 2538   1.752   2.932   0.930 -0.2319  1.4348  1.1445
  847SOL     OW 2539   2.075   1.589   0.171 -0.1808 -0.2496  0.9061
  847SOL    HW1 2540   2.028   1.535   0.253 -0.0718 -1.8817  1.4197
  847SOL    HW2 2541   2.016   1.591   0.091  1.8115 -2.0361 -0.6620
  848SOL     OW 2542   2.481   0.797   2.644  0.0637  0.2130  0.1281
  848SOL    HW1 2543   2.476   0.896   2.667 -2.4500 -1.5702  0.2925
  848SOL    HW2 2544   2.413   0.751   2.582  0.4416  0.2751 -0.5409
  849SOL     OW 2545   2.369   0.840   2.283 -0.2890 -0.4072 -0.1029
  849SOL    HW1 2546   2.436   0.806   2.216 -2.8080  1.2026 -0.9014
  849SOL    HW2 2547   2.327   0.760   2.338  1.9535 -1.2628 -0.7945
  850SOL     OW 2548   1.500   0.252   1.257  0.0297 -0.0887  0.1623
  850SOL    HW1 2549   1.509   0.211   1.162 -1.9762  1.3572 -2.2169
  850SOL    HW2 2550   1.476   0.180   1.328  1.3760  0.1832  0.4361
  851SOL     OW 2551   0.448   1.670   0.610  0.2234  0.3000  0.6099
  851SOL    HW1 2552   0.443   1.759   0.662  0.6576 -1.3435 -0.8822
  851SOL    HW2 2553   0.530   1.615   0.629 -2.2626 -1.1318  0.4556
  852SOL     OW 2554   0.848   2.180   1.789  0.1931  0.0218  0.1828
  852SOL    HW1 2555   0.824   2.269   1.737 -0.7224 -4.1756 -1.1182
  852SOL    HW2 2556   0.771   2.148   1.844  1.7786 -0.4651  0.6684
  853SOL     OW 2557   2.533   1.503   2.596 -0.3287 -0.0963 -0.0419
  853SOL    HW1 2558   2.511   1.414   2.556  0.3798 -0.5803  0.1188
  853SOL    HW2 2559   2.547   1.573   2.527  2.4079 -1.7896  2.6536
  854SOL     OW 2560   2.452   1.459   1.739 -0.6587  0.7836  0.0354
  854SOL    HW1 2561   2.503   1.417   1.660  1.4494 -0.4677  2.1775
  854SOL    HW2 2562   2.384   1.396   1.781  0.1549 -0.5545 -0.3748
  855SOL     OW 2563   2.039   2.334   0.956  0.0207  0.1865  0.0000
  855SOL    HW1 2564   2.077   2.426   0.926  0.5457 -1.3457  1.1383
  855SOL    HW2 2565   2.097   2.299   1.030 -1.7498  2.4483 -2.1437
  856SOL     OW 2566   1.417   1.451   0.831 -0.0566 -0.0078 -0.0077
  856SOL    HW1 2567   1.452   1.546   0.806 -2.2432  2.3299  2.2767
  856SOL    HW2 2568   1.349   1.464   0.908  0.6717 -0.8840 -1.3769
  857SOL     OW 2569   2.922   2.514   1.063 -0.1024  0.1353 -0.1334
  857SOL    HW1 2570   2.833   2.466   1.092  0.3808 -2.6547  0.6715
  857SOL    HW2 2571   2.987   2.447   1.020  1.2073  1.2737 -3.3939
  858SOL     OW 2572   2.281   2.134   1.777  0.8189 -0.2762  0.2106
  858SOL    HW1 2573   2.187   2.138   1.735 -0.5034  0.1769 -2.4726
  858SOL    HW2 2574   2.352   2.077   1.728 -0.5790 -0.4727 -1.0263
  859SOL     OW 2575   2.443   0.416   1.026 -0.1096  0.4529  0.7470
  859SOL    HW1 2576   2.507   0.495   1.000 -1.4884 -1.7607 -0.5081
  859SOL    HW2 2577   2.479   0.336   1.081  0.2724 -2.3187 -1.9127
  860SOL     OW 2578   1.860   2.782   0.535 -0.2610 -0.2418 -0.1893
  860SOL    HW1 2579   1.910   2.742   0.455  2.7625 -1.3449  0.7022
  860SOL    HW2 2580   1.865   2.886   0.549 -0.7671  0.3050  0.4825
  861SOL     OW 2581   0.986   2.576   2.802 -0.1491  0.2207  0.1117
  861SOL    HW1 2582   1.044   2.659   2.812 -1.4667  2.6543  2.3264
  861SOL    HW2 2583   0.965   2.538   2.892  0.5278  0.8158 -0.5099
  862SOL     OW 2584   2.966   2.578   1.541  0.0647 -1.2609  0.3520
  862SOL    HW1 2585   3.018   2.554   1.627 -0.8011  1.3435  0.9450
  862SOL    HW2 2586   2.883   2.635   1.562 -1.0480 -0.3652 -0.7893
  863SOL     OW 2587   1.881   2.652   0.225  1.1151  0.2570 -0.5653
  863SOL    HW1 2588   1.948   2.568   0.238 -0.9145 -1.8819  2.2104
  863SOL    HW2 2589   1.785   2.617   0.240 -1.8630 -0.0768 -1.8921
  864SOL     OW 2590   1.919   1.113   2.989 -0.2254 -0.3108  0.5040
  864SOL    HW1 2591   1.946   1.084   2.896 -0.7783 -1.2825  0.5569
  864SOL    HW2 2592   1.988   1.073   3.056  1.5054 -0.6718 -1.5415
  865SOL     OW 2593   2.164   1.695   0.591  0.8305  0.0125  0.2320
  865SOL    HW1 2594   2.184   1.744   0.680 -3.1082  0.9761  1.4834
  865SOL    HW2 2595   2.126   1.596   0.592 -1.9291 -0.7699 -1.5320
  866SOL     OW 2596   2.912   2.822   1.026  0.8197 -0.2876  0.1340
  866SOL    HW1 2597   2.967   2.832   0.938  0.0783 -0.3086  0.9108
  866SOL    HW2 2598   2.899   2.719   1.052  0.3712 -0.2179  2.1278
  867SOL     OW 2599   0.420   1.369   0.829 -0.1021 -0.0510  0.1428
  867SOL    HW1 2600   0.433   1.268   0.813  0.2918 -1.4638  0.1020
  867SOL    HW2 2601   0.345   1.410   0.766 -1.0274 -0.8903 -1.3078
  868SOL     OW 2602   0.842   1.888   2.011 -0.1412  0.4351  0.3190
  868SOL    HW1 2603   0.822   1.820   2.084  2.7592  1.1546 -1.7915
  868SOL    HW2 2604   0.803   1.985   2.024  2.2393 -1.4769  0.1495
  869SOL     OW 2605   2.541   1.967   1.641  0.1507 -0.6857 -0.7175
  869SOL    HW1 2606   2.638   1.927   1.645  0.4478 -2.1673  2.0755
  869SOL    HW2 2607   2.492   1.955   1.546 -2.3259  0.9045 -0.0254
  870SOL     OW 2608   2.383   2.535   1.237 -0.6020 -0.4800  0.3941
  870SOL    HW1 2609   2.317   2.456   1.233 -0.6919  1.1749 -0.8931
  870SOL    HW2 2610   2.459   2.517   1.311 -2.7853  1.7057  1.5934
  871SOL     OW 2611   3.017   1.994   0.530 -0.6720  0.0771 -0.0060
  871SOL    HW1 2612   2.951   2.063   0.490 -0.5263  1.1410  0.1128
  871SOL    HW2 2613   2.992   1.891   0.517 -2.1571 -0.8636 -0.9050
  872SOL     OW 2614   2.192   0.516   1.700  0.3175  0.0650  0.4618
  872SOL    HW1 2615   2.152   0.507   1.796  1.6690  2.9140 -1.8874
  872SOL    HW2 2616   2.290   0.493   1.696 -2.1162  2.0380 -1.8222
  873SOL     OW 2617   1.703   2.079   2.865 -0.8185  0.2072  0.2955
  873SOL    HW1 2618   1.705   2.177   2.890  0.3128  0.3458 -1.7830
  873SOL    HW2 2619   1.642   2.050   2.789 -2.5451  1.7162  1.9726
  874SOL     OW 2620   0.606   2.523   0.751 -0.5278 -0.3003  0.0808
  874SOL    HW1 2621   0.608   2.623   0.774  4.9547  0.1607 -1.1133
  874SOL    HW2 2622   0.703   2.485   0.768 -0.9574  0.8130  1.5909
  875SOL     OW 2623   2.339   1.553   1.450  0.0848 -0.0151 -0.5704
  875SOL    HW1 2624   2.415   1.608   1.499 -0.3747 -1.1119  2.2017
  875SOL    HW2 2625   2.313   1.589   1.360  1.5183 -1.1993  1.1738
  876SOL     OW 2626   0.138   2.233   2.745  0.1394  0.1008 -0.0061
  876SOL    HW1 2627   0.180   2.161   2.808  2.5982 -0.7251  0.8042
  876SOL    HW2 2628   0.186   2.328   2.741  2.0894  4.4473 -1.1939
  877SOL     OW 2629   2.794   2.668   0.611  0.3830  0.0610  0.0454
  877SOL    HW1 2630   2.814   2.768   0.592 -0.4396  0.9513 -1.9084
  877SOL    HW2 2631   2.879   2.617   0.636  5.2313  2.7243 -1.3759
  878SOL     OW 2632   2.749   1.514   2.297  0.0628 -0.2777  0.6965
  878SOL    HW1 2633   2.739   1.614   2.305  0.6732 -0.7434  1.5934
  878SOL    HW2 2634   2.795   1.473   2.378 -2.0738  1.2148  2.8981
  879SOL     OW 2635   2.433   3.048   1.269  0.1170 -0.4589 -0.0214
  879SOL    HW1 2636   2.471   2.953   1.256 -0.0711  1.8573  2.0186
  879SOL    HW2 2637   2.340   3.055   1.218 -0.5562  0.9173  0.1483
  880SOL     OW 2638   0.580   0.502   2.231  0.3648 -0.1087 -0.0842
  880SOL    HW1 2639   0.541   0.456   2.318 -4.4759 -2.2326  1.2989
  880SOL    HW2 2640   0.592   0.444   2.147 -1.3301  0.1960 -0.3096
  881SOL     OW 2641   0.855   0.080   0.462  0.2858  0.0029  0.2314
  881SOL    HW1 2642   0.935   0.013   0.464 -0.8723 -1.1272  0.9728
  881SOL    HW2 2643   0.811   0.086   0.370  0.9602  0.3496  1.2090
  882SOL     OW 2644   2.756   1.783   1.677 -0.3470  0.0687 -0.3809
  882SOL    HW1 2645   2.828   1.713   1.657 -0.0144 -0.4722  1.6362
  882SOL    HW2 2646   2.716   1.763   1.773  1.6811 -0.5857 -1.6110
  883SOL     OW 2647   0.931   0.595   0.979  0.2625 -0.1678 -0.2737
  883SOL    HW1 2648   0.949   0.668   1.053  1.1121 -2.0763  2.7926
  883SOL    HW2 2649   1.014   0.574   0.922 -0.4246 -2.6995  0.9758
  884SOL     OW 2650   1.176   1.914   1.066 -0.5180  0.4498 -0.0950
  884SOL    HW1 2651   1.155   1.883   0.970 -2.1450 -0.0799 -0.6074
  884SOL    HW2 2652   1.099   1.966   1.115  0.2552  2.0192  1.3049
  885SOL     OW 2653   2.326   1.796   2.315 -0.1976  0.1645 -0.1817
  885SOL    HW1 2654   2.243   1.737   2.349 -1.4137  3.6538 -1.8297
  885SOL    HW2 2655   2.307   1.900   2.317  0.7959 -0.4165 -1.6891
  886SOL     OW 2656   2.691   0.455   1.810 -0.2965 -0.0024 -0.0704
  886SOL    HW1 2657   2.745   0.398   1.878  1.0112 -1.6971  2.2372
  886SOL    HW2 2658   2.749   0.528   1.755  2.0113  1.0946 -0.1001
  887SOL     OW 2659   0.195   2.071   1.312  0.2356 -0.7253 -0.3015
  887SOL    HW1 2660   0.148   2.040   1.227  0.8703  0.4598 -0.9505
  887SOL    HW2 2661   0.171   2.172   1.325  0.1775 -0.0666  1.5358
  888SOL     OW 2662   0.588   1.295   1.502 -0.1004 -0.0736 -0.3440
  888SOL    HW1 2663   0.626   1.321   1.408  2.1167 -2.3158 -1.1118
  888SOL    HW2 2664   0.559   1.199   1.510 -0.4871  0.9586 -1.9359
  889SOL     OW 2665   0.837   2.405   2.130 -0.4048 -0.4920 -0.0339
  889SOL    HW1 2666   0.744   2.411   2.091  1.0058  1.0610 -0.1517
  889SOL    HW2 2667   0.917   2.437   2.073  0.4589  0.9274 -0.4785
  890SOL     OW 2668   2.337   2.431   0.157 -0.4336 -0.2570  0.7881
  890SOL    HW1 2669   2.372   2.507   0.097  1.8126 -0.2472  1.4833
  890SOL    HW2 2670   2.254   2.464   0.213  0.1232  2.0823  0.7905
  891SOL     OW 2671   2.580   1.647   0.715  0.1847  0.7621  0.0242
  891SOL    HW1 2672   2.553   1.558   0.768 -1.0864  0.1475 -0.5909
  891SOL    HW2 2673   2.506   1.681   0.648 -0.0781 -0.6820 -0.3564
  892SOL     OW 2674   0.308   0.293   2.235  0.2228 -0.2212  0.0504
  892SOL    HW1 2675   0.302   0.341   2.141  3.4397 -1.0706  2.6801
  892SOL    HW2 2676   0.374   0.336   2.308  0.8017  2.4269 -1.6547
  893SOL     OW 2677   1.619   0.242   2.680  0.1530  0.0022 -0.2443
  893SOL    HW1 2678   1.667   0.315   2.740 -0.3895 -0.5210 -0.9232
  893SOL    HW2 2679   1.521   0.266   2.682 -0.0202 -1.9348 -0.3306
  894SOL     OW 2680   2.176   2.013   0.074 -0.1149  0.9416 -0.6265
  894SOL    HW1 2681   2.138   1.967  -0.012 -0.1009  0.9895  2.3741
  894SOL    HW2 2682   2.208   1.944   0.148 -3.3823  1.3541  0.7964
  895SOL     OW 2683   2.848   1.411   0.822 -0.3119 -0.1428  0.0670
  895SOL    HW1 2684   2.879   1.370   0.911  0.3664 -0.4279  1.0168
  895SOL    HW2 2685   2.906   1.488   0.792 -3.5132 -0.5814  0.7616
  896SOL     OW 2686   1.690   1.797   1.189  0.1892  0.5104 -0.1122
  896SOL    HW1 2687   1.773   1.823   1.135 -1.0765  0.9901 -1.2056
  896SOL    HW2 2688   1.607   1.857   1.165 -0.4155 -1.9164 -3.2616
  897SOL     OW 2689   0.331   0.516   3.046  0.0012 -0.0042 -0.0302
  897SOL    HW1 2690   0.269   0.555   2.969  0.6458  0.0466  0.4681
  897SOL    HW2 2691   0.418   0.569   3.054 -1.3132  1.2195  0.3269
  898SOL     OW 2692   0.544   2.916   1.023  0.5787  0.5937 -0.5873
  898SOL    HW1 2693   0.485   2.951   1.103 -0.7261 -2.3204 -0.4510
  898SOL    HW2 2694   0.644   2.944   1.033 -0.6439  0.6402 -1.5782
  899SOL     OW 2695   2.721   0.924   1.283 -0.3051 -0.2336  0.0849
  899SOL    HW1 2696   2.713   0.886   1.189  2.1889  0.7016 -2.9417
  899SOL    HW2 2697   2.797   0.997   1.293  2.4454 -1.5591  0.1497
  900SOL     OW 2698   0.980   2.326   2.372  0.7661  0.2420  0.2708
  900SOL    HW1 2699   0.914   2.339   2.289 -0.1483  2.4172 -0.6339
  900SOL    HW2 2700   0.954   2.370   2.461  0.0665 -0.6323  0.3006
  901SOL     OW 2701   2.004   2.482   1.357  0.3485  0.0215 -0.4580
  901SOL    HW1 2702   1.962   2.461   1.266 -0.0660 -1.6618  1.4838
  901SOL    HW2 2703   2.055   2.400   1.404  1.3384 -2.3181 -0.2581
  902SOL     OW 2704   2.577   1.697   1.486 -0.2857  0.1681  0.1913
  902SOL    HW1 2705   2.661   1.730   1.546  0.0674  1.2372  1.4903
  902SOL    HW2 2706   2.597   1.630   1.406 -1.1481 -0.7658 -0.1174
  903SOL     OW 2707   0.284   2.427   2.006  0.0167  0.3260  0.0077
  903SOL    HW1 2708   0.201   2.394   2.063 -1.8731  1.6259  0.3748
  903SOL    HW2 2709   0.259   2.482   1.923 -0.2056  1.7365 -1.5208
  904SOL     OW 2710   2.018   0.770   2.600 -0.2008 -0.5209 -0.0696
  904SOL    HW1 2711   1.951   0.705   2.634  2.0283  3.2946 -0.6945
  904SOL    HW2 2712   2.000   0.789   2.497 -1.7605 -1.0232  1.4939
  905SOL     OW 2713   2.787   0.027   2.531  0.1229  0.0128 -0.0275
  905SOL    HW1 2714   2.853  -0.025   2.584 -1.3020  4.5056 -0.1311
  905SOL    HW2 2715   2.822   0.123   2.516 -1.0117 -0.0201  0.1292
  906SOL     OW 2716   0.130   1.832   1.945 -0.4742  0.5471 -0.0422
  906SOL    HW1 2717   0.092   1.836   1.847  0.8606 -0.4040 -1.0746
  906SOL    HW2 2718   0.220   1.877   1.965  1.9364 -0.0913 -0.4706
  907SOL     OW 2719   0.192   2.390   1.051 -0.3360 -0.3548  0.1098
  907SOL    HW1 2720   0.258   2.465   1.034  1.6818 -1.0215  1.7538
  907SOL    HW2 2721   0.174   2.326   0.970 -0.9092 -1.2870 -0.5178
  908SOL     OW 2722   2.700   2.843   0.385  0.1792 -0.6837 -0.1701
  908SOL    HW1 2723   2.688   2.874   0.285  0.9378  1.7062 -0.4390
  908SOL    HW2 2724   2.669   2.746   0.405 -0.2343 -1.2916  0.0527
  909SOL     OW 2725   0.698   0.898   2.628 -0.4228 -0.0454  0.3424
  909SOL    HW1 2726   0.713   0.802   2.582  2.3947 -1.1647 -2.1277
  909SOL    HW2 2727   0.776   0.959   2.599 -2.0987 -0.3730 -1.7271
  910SOL     OW 2728   1.737   1.792   2.068  0.0363  0.3113  0.6800
  910SOL    HW1 2729   1.789   1.831   1.989  1.6209 -0.1281  1.8121
  910SOL    HW2 2730   1.669   1.861   2.101  0.7328  1.2210  0.3879
  911SOL     OW 2731   1.745   3.044   1.584  0.1524  0.1332 -0.1216
  911SOL    HW1 2732   1.815   3.000   1.524 -2.3517 -0.6309  1.9593
  911SOL    HW2 2733   1.737   3.001   1.675  0.6262  1.0563  0.8753
  912SOL     OW 2734   2.854   0.946   0.771  0.3005  0.1993  0.2768
  912SOL    HW1 2735   2.882   0.928   0.868  0.5696  0.4426  0.1005
  912SOL    HW2 2736   2.826   1.046   0.758 -2.5465  0.2469  1.0314
  913SOL     OW 2737   2.571   1.283   1.564  0.0633 -0.2197 -0.9560
  913SOL    HW1 2738   2.552   1.181   1.580 -0.3893  0.5625 -0.2873
  913SOL    HW2 2739   2.617   1.299   1.474  0.3730  3.4489 -1.0986
  914SOL     OW 2740   2.818   0.485   1.294 -0.8726 -0.5709  0.3333
  914SOL    HW1 2741   2.786   0.402   1.347  2.1470 -1.6817  1.3917
  914SOL    HW2 2742   2.843   0.560   1.364 -0.3557  2.6452  1.5917
  915SOL     OW 2743   1.194   0.816   1.040 -0.4700 -0.0987 -0.1630
  915SOL    HW1 2744   1.257   0.831   1.120  0.8380  0.5726  2.2953
  915SOL    HW2 2745   1.094   0.808   1.074 -0.6435  0.6249  0.3083
  916SOL     OW 2746   0.595   0.033   0.598  0.3983  0.0726 -0.3594
  916SOL    HW1 2747   0.587   0.100   0.676 -0.5121 -2.1269  0.1015
  916SOL    HW2 2748   0.592   0.076   0.505  3.0358  0.4386 -0.2807
  917SOL     OW 2749   2.732   2.588   1.882 -0.0963  0.0960 -0.2518
  917SOL    HW1 2750   2.667   2.662   1.932  1.7339  2.8928  0.6932
  917SOL    HW2 2751   2.809   2.632   1.832 -0.5880 -0.0148 -0.1775
  918SOL     OW 2752   1.061   2.178   3.092  0.8935  0.3383 -0.2662
  918SOL    HW1 2753   1.031   2.215   3.181  1.3811 -1.3036 -0.4337
  918SOL    HW2 2754   1.081   2.078   3.100 -1.1936 -0.2866  0.7373
  919SOL     OW 2755   0.901   1.567   2.771 -0.5044  0.1760 -0.0115
  919SOL    HW1 2756   0.920   1.623   2.684 -1.0762 -0.1355  1.0830
  919SOL    HW2 2757   0.873   1.468   2.744  0.0017  0.1152  1.9322
  920SOL     OW 2758   1.223   2.053   2.468 -0.3493 -0.4797 -0.0997
  920SOL    HW1 2759   1.170   2.052   2.378  3.3223 -1.1417 -2.0704
  920SOL    HW2 2760   1.276   1.962   2.474  0.4177 -3.2467 -0.5612
  921SOL     OW 2761   1.044   0.086   2.558 -0.5814  0.3295  0.0319
  921SOL    HW1 2762   1.040   0.027   2.471  0.9736 -0.7937 -3.6472
  921SOL    HW2 2763   1.032   0.184   2.542  1.6227 -0.5902  1.4019
  922SOL     OW 2764   2.098   2.426   2.780  0.7523  0.2730 -0.0472
  922SOL    HW1 2765   2.119   2.326   2.788 -0.1399 -0.3023 -0.5063
  922SOL    HW2 2766   2.073   2.444   2.682  1.0771  1.0869  2.5584
  923SOL     OW 2767   1.192   2.726   0.219  0.1573  0.1797  0.3496
  923SOL    HW1 2768   1.286   2.735   0.266  2.0082  2.7371 -0.8257
  923SOL    HW2 2769   1.192   2.663   0.140  0.3675 -1.5633  0.9936
  924SOL     OW 2770   2.876   1.579   0.074  0.9212  0.1744 -0.3360
  924SOL    HW1 2771   2.785   1.585   0.022 -0.7215  2.9461  1.3858
  924SOL    HW2 2772   2.960   1.589   0.016 -0.1933 -1.7384  0.2290
  925SOL     OW 2773   0.082   2.894   1.613 -0.1313 -0.0480  0.3139
  925SOL    HW1 2774  -0.003   2.948   1.645  2.6774 -0.2067 -0.2008
  925SOL    HW2 2775   0.076   2.866   1.516 -1.1177  1.9559  1.3506
  926SOL     OW 2776   1.416   2.902   1.273 -0.2748  0.4745 -0.2276
  926SOL    HW1 2777   1.413   2.902   1.168  0.3131 -0.0086 -0.3448
  926SOL    HW2 2778   1.416   2.999   1.308 -1.2589 -1.0990 -1.6729
  927SOL     OW 2779   0.239   2.563   1.760 -0.4388  0.6812 -0.1742
  927SOL    HW1 2780   0.233   2.479   1.697 -0.1947 -1.1354 -0.1112
  927SOL    HW2 2781   0.282   2.649   1.716  2.4299  1.8613  0.6990
  928SOL     OW 2782   1.599   2.036   2.119  0.3672  0.3380  0.4383
  928SOL    HW1 2783   1.633   2.128   2.083  1.0997 -0.4908  1.4455
  928SOL    HW2 2784   1.501   2.029   2.091 -0.2368 -0.3627  1.2798
  929SOL     OW 2785   2.381   2.426   2.834  0.2098 -0.0070  0.6080
  929SOL    HW1 2786   2.278   2.422   2.820 -0.7649 -1.5073  1.4873
  929SOL    HW2 2787   2.431   2.408   2.743  0.5148 -0.0266 -0.0923
  930SOL     OW 2788   2.200   1.976   1.109 -0.1803  0.1759 -0.2832
  930SOL    HW1 2789   2.175   1.953   1.206  0.6829  0.6481  0.5266
  930SOL    HW2 2790   2.282   2.036   1.112 -2.1233  2.6350  0.0767
  931SOL     OW 2791   0.569   1.753   2.678 -0.1226  0.0755  0.3459
  931SOL    HW1 2792   0.624   1.762   2.765  0.0826  0.8475 -0.0458
  931SOL    HW2 2793   0.589   1.677   2.611  1.0514 -0.0078 -4.3437
  932SOL     OW 2794   0.501   0.104   2.914  0.1178  0.0175  0.7138
  932SOL    HW1 2795   0.592   0.132   2.874  0.3846  1.2973  0.8418
  932SOL    HW2 2796   0.488   0.005   2.942  0.9138  0.6915  0.1298
  933SOL     OW 2797   1.081   0.791   2.968 -0.1845 -0.5772  0.1432
  933SOL    HW1 2798   1.131   0.824   3.055  1.2843 -1.1069 -0.3626
  933SOL    HW2 2799   1.028   0.866   2.914 -2.2036  0.5841  2.3032
  934SOL     OW 2800   0.870   2.972   2.787  0.0100  0.3207  0.4085
  934SOL    HW1 2801   0.943   2.920   2.726  2.2310  0.4940  4.9289
  934SOL    HW2 2802   0.858   2.920   2.874  1.8066  0.3671 -0.5643
  935SOL     OW 2803   3.061   0.528   0.926 -0.8681 -0.3910 -0.0459
  935SOL    HW1 2804   3.056   0.451   0.856  0.5651  0.9980  3.0536
  935SOL    HW2 2805   2.979   0.586   0.936  1.7746 -0.1362 -0.4154
  936SOL     OW 2806   1.118   2.998   0.162  0.8110  0.1784  0.0561
  936SOL    HW1 2807   1.163   3.024   0.073 -1.0113  1.5945  1.9210
  936SOL    HW2 2808   1.146   2.903   0.196  1.0121 -1.7308  1.8096
  937SOL     OW 2809   1.943   2.690   2.104  0.0934  0.6473 -0.1484
  937SOL    HW1 2810   1.844   2.705   2.131 -2.9571  2.0352  0.8152
  937SOL    HW2 2811   1.948   2.681   2.000 -0.6358  0.3678 -0.8640
  938SOL     OW 2812   2.730   2.198   1.519 -0.0914  0.7836  0.3885
  938SOL    HW1 2813   2.689   2.256   1.597 -2.0086 -3.1652  2.6024
  938SOL    HW2 2814   2.811   2.139   1.547 -0.9409  1.7669 -0.0127
  939SOL     OW 2815   2.734   0.983   2.514  0.3808 -0.3597  0.0033
  939SOL    HW1 2816   2.821   0.921   2.507  1.7012 -1.7554  2.0837
  939SOL    HW2 2817   2.738   1.050   2.591 -0.2139 -1.5373  1.0886
  940SOL     OW 2818   1.060   0.460   2.659 -0.3056 -0.3402 -0.0646
  940SOL    HW1 2819   1.095   0.406   2.745  2.2928 -3.6802  1.0949
  940SOL    HW2 2820   0.957   0.437   2.640 -4.6841  0.8286  0.8736
  941SOL     OW 2821   0.064   2.855   2.218  0.2044  0.1841 -0.2422
  941SOL    HW1 2822   0.014   2.765   2.200  1.7603 -1.5413  0.7980
  941SOL    HW2 2823   0.143   2.848   2.289  1.8563 -1.7103 -0.7592
  942SOL     OW 2824   0.101   0.086   2.519  0.0519 -0.1560 -0.0643
  942SOL    HW1 2825   0.163   0.131   2.595  0.0668  1.7450 -1.5079
  942SOL    HW2 2826   0.066   0.162   2.457  0.9667  0.5223 -0.7687
  943SOL     OW 2827   2.106   1.655   2.463  0.3968  0.4050 -0.3436
  943SOL    HW1 2828   2.153   1.570   2.502 -1.4344  0.5494 -0.2176
  943SOL    HW2 2829   2.023   1.648   2.395  0.0064  2.1502 -1.8565
  944SOL     OW 2830   2.189   2.303   1.485 -0.4805 -0.8156 -0.4416
  944SOL    HW1 2831   2.230   2.381   1.533  1.9011  1.2921  0.6856
  944SOL    HW2 2832   2.125   2.244   1.544 -0.2291 -0.2895 -0.9439
  945SOL     OW 2833   0.646   1.450   0.362  0.4399 -0.6881 -0.5126
  945SOL    HW1 2834   0.667   1.489   0.268  0.6621 -0.1378 -0.7644
  945SOL    HW2 2835   0.695   1.361   0.383 -1.9825  0.6067  2.6151
  946SOL     OW 2836   0.318   0.997   2.638  0.0875 -0.0161  0.4324
  946SOL    HW1 2837   0.267   0.937   2.567 -1.7879 -1.4278 -0.9395
  946SOL    HW2 2838   0.354   1.089   2.603 -0.5516 -1.6930 -1.1416
  947SOL     OW 2839   1.522   0.418   0.166  0.8051 -0.3943  0.5463
  947SOL    HW1 2840   1.536   0.366   0.256 -0.6692 -1.1269 -1.2632
  947SOL    HW2 2841   1.450   0.373   0.107 -1.0175 -0.0727 -1.3338
  948SOL     OW 2842   2.003   3.097   2.135  0.5661 -0.2213 -0.3769
  948SOL    HW1 2843   1.946   3.088   2.050 -0.1025 -0.2712 -0.6825
  948SOL    HW2 2844   1.993   3.020   2.205  1.0410  0.0973 -3.4135
  949SOL     OW 2845   0.602   2.538   0.454  0.8366  0.2678 -0.0019
  949SOL    HW1 2846   0.609   2.641   0.440 -0.4109  1.1601  2.6804
  949SOL    HW2 2847   0.655   2.513   0.538  2.6752  1.9875 -0.5453
  950SOL     OW 2848   0.253   2.101   3.011 -0.8636  0.5402 -0.1735
  950SOL    HW1 2849   0.173   2.167   3.029 -0.5478 -0.4513  1.5925
  950SOL    HW2 2850   0.237   2.002   3.042  0.9882  1.0991  1.5531
  951SOL     OW 2851   1.175   2.811   2.785  0.0770  0.0655  0.2186
  951SOL    HW1 2852   1.202   2.885   2.722  1.7791 -1.0058 -2.1164
  951SOL    HW2 2853   1.183   2.839   2.886 -0.8849  2.0452  1.9641
  952SOL     OW 2854   0.102   1.716   0.462 -0.2033 -0.5362  0.2905
  952SOL    HW1 2855   0.175   1.788   0.469  3.3361  0.2911  2.9198
  952SOL    HW2 2856   0.118   1.644   0.535  2.5896  2.1781  0.2251
  953SOL     OW 2857   2.487   1.733   0.184 -0.4725 -0.4691 -0.3915
  953SOL    HW1 2858   2.494   1.638   0.216 -0.1243  1.1075 -3.6658
  953SOL    HW2 2859   2.481   1.739   0.081  1.6315 -2.7500 -0.3884
  954SOL     OW 2860   2.192   0.469   1.061  0.1021 -0.0148 -0.1784
  954SOL    HW1 2861   2.145   0.497   0.975  3.5675 -0.0662  1.5950
  954SOL    HW2 2862   2.295   0.441   1.051  2.9040 -0.8663  2.0059
  955SOL     OW 2863   0.205   2.651   1.287 -0.0357  0.1987  0.4946
  955SOL    HW1 2864   0.102   2.648   1.283 -0.1310  0.1830 -0.7978
  955SOL    HW2 2865   0.250   2.633   1.193  0.8064 -1.4277 -0.5015
  956SOL     OW 2866   2.728   2.471   2.496  0.4114 -0.0522 -0.3827
  956SOL    HW1 2867   2.744   2.367   2.487  0.4089 -1.1477 -2.5535
  956SOL    HW2 2868   2.786   2.524   2.428 -1.9034 -2.0605  0.0634
  957SOL     OW 2869   1.547   2.002   2.654  0.5150  0.4014  0.1082
  957SOL    HW1 2870   1.508   1.902   2.646  3.2285 -2.7098 -0.1254
  957SOL    HW2 2871   1.583   2.043   2.561  0.4175  0.3857  1.4970
  958SOL     OW 2872   2.664   2.307   3.006 -0.2308 -0.4542 -0.0563
  958SOL    HW1 2873   2.573   2.343   2.979 -0.0138  0.8440  0.8972
  958SOL    HW2 2874   2.653   2.236   3.082 -3.2148 -0.2406 -1.8198
  959SOL     OW 2875   0.232   2.804   0.028  0.1444 -0.0001 -0.0733
  959SOL    HW1 2876   0.156   2.793   0.097 -0.0025 -0.2948  1.7618
  959SOL    HW2 2877   0.264   2.710  -0.007  1.0769 -1.6526 -0.4746
  960SOL     OW 2878   1.956   0.442   1.966 -0.4660 -0.1998  0.5728
  960SOL    HW1 2879   1.930   0.535   1.923  3.3749 -0.7740  3.1996
  960SOL    HW2 2880   1.995   0.459   2.061 -0.9352 -2.3309  0.7203
  961SOL     OW 2881   2.666   1.913   1.028  0.2406  1.4686 -0.0809
  961SOL    HW1 2882   2.594   1.938   0.956  0.6455 -0.5703 -0.3652
  961SOL    HW2 2883   2.679   1.978   1.111  0.1977  0.7206  1.7423
  962SOL     OW 2884   1.284   0.936   0.029  0.0136  0.5789 -0.2545
  962SOL    HW1 2885   1.294   1.003  -0.044 -1.2927  1.9075  1.9404
  962SOL    HW2 2886   1.263   0.979   0.121  0.8708  2.3041  0.2010
  963SOL     OW 2887   2.238   2.594   1.897 -0.9993 -0.6005  0.4464
  963SOL    HW1 2888   2.257   2.530   1.978 -1.3200  0.5930  2.9852
  963SOL    HW2 2889   2.282   2.691   1.913  2.2025 -1.2537  0.3940
  964SOL     OW 2890   2.448   0.391   1.703 -0.7599 -0.0902  0.6531
  964SOL    HW1 2891   2.527   0.435   1.757 -0.7730  2.4147  1.8290
  964SOL    HW2 2892   2.468   0.403   1.600  1.8999 -1.3430  0.5874
  965SOL     OW 2893   2.688   3.000   0.124  0.0776 -0.3656  0.3864
  965SOL    HW1 2894   2.745   2.976   0.035  0.6077  2.6816 -0.2540
  965SOL    HW2 2895   2.588   2.991   0.124  1.8024 -1.7641  1.9437
  966SOL     OW 2896   2.541   2.640   2.168 -0.2155  0.1325  0.5955
  966SOL    HW1 2897   2.481   2.557   2.140  0.0977 -0.8255  1.4423
  966SOL    HW2 2898   2.496   2.694   2.243 -0.2440  1.2427 -1.5000
  967SOL     OW 2899   2.755   2.858   2.475 -0.5102  0.1963 -0.1020
  967SOL    HW1 2900   2.787   2.804   2.391 -0.9043 -1.0196  0.0487
  967SOL    HW2 2901   2.773   2.958   2.470 -1.8854 -1.2693  0.8647
  968SOL     OW 2902   2.011   1.036   2.722 -0.6676  0.5911 -0.2386
  968SOL    HW1 2903   1.959   1.109   2.668 -2.1694 -1.4401  1.9281
  968SOL    HW2 2904   2.008   0.951   2.667  1.0843  1.6931  1.5656
  969SOL     OW 2905   2.710   2.344   1.160  0.2705  0.2646  0.4483
  969SOL    HW1 2906   2.690   2.317   1.063 -0.7652  1.7912  1.3505
  969SOL    HW2 2907   2.777   2.278   1.208  0.1166 -0.4995  0.2104
  970SOL     OW 2908   1.119   2.139   1.788  0.0597 -0.8725  0.0606
  970SOL    HW1 2909   1.019   2.155   1.770  0.2646 -1.6024  0.2538
  970SOL    HW2 2910   1.133   2.159   1.886  0.8359 -1.3360 -1.9608
  971SOL     OW 2911   2.823   2.100   1.939  0.2064  0.0433  0.1540
  971SOL    HW1 2912   2.804   2.192   1.981 -1.7894 -1.6107 -0.7161
  971SOL    HW2 2913   2.906   2.092   1.881 -2.5949 -1.3262 -1.2971
  972SOL     OW 2914   2.049   2.454   0.262  0.2744  0.1053 -0.4087
  972SOL    HW1 2915   2.017   2.373   0.209  1.2509 -0.5728  0.5804
  972SOL    HW2 2916   2.067   2.425   0.362 -1.8692 -0.5488 -2.1410
  973SOL     OW 2917   1.321   1.069   1.892  0.0125  0.0455 -0.4367
  973SOL    HW1 2918   1.236   1.034   1.850 -1.3500 -1.5150 -0.9114
  973SOL    HW2 2919   1.318   1.175   1.905 -0.1608  1.4476 -0.2572
  974SOL     OW 2920   1.663   0.551   1.909 -0.1273  0.6414  0.4818
  974SOL    HW1 2921   1.750   0.606   1.899  1.2901 -1.8881  0.6943
  974SOL    HW2 2922   1.572   0.599   1.927 -0.1026 -2.4369  1.6593
  975SOL     OW 2923   2.434   3.044   3.052  0.5373  0.1514 -0.6093
  975SOL    HW1 2924   2.384   2.984   3.124  0.4888 -3.2655 -0.5145
  975SOL    HW2 2925   2.424   3.008   2.957  2.9022 -2.0911  2.1650
  976SOL     OW 2926   1.940   2.895   2.321  0.3579  0.2529  0.2507
  976SOL    HW1 2927   1.868   2.829   2.285  0.6152 -0.3839 -2.0282
  976SOL    HW2 2928   1.950   2.884   2.429  0.3906 -0.9032  4.5352
  977SOL     OW 2929   0.485   0.627   1.029 -0.0737 -0.3755 -0.2098
  977SOL    HW1 2930   0.402   0.593   0.966  2.3327 -2.2245 -1.9288
  977SOL    HW2 2931   0.569   0.609   0.973  0.1281 -1.5726 -0.0913
   3.10000   3.10000   3.10000
