1000 SPC/Fw water molecules t=   0.61000 step= 610
 2931
    1SOL     OW    1   2.482   0.378   2.611 -0.2315  0.0630  0.1483
    1SOL    HW1    2   2.517   0.284   2.583 -0.3627  0.4856 -0.5288
    1SOL    HW2    3   2.533   0.423   2.690  0.7699  0.4123 -2.7387
    2SOL     OW    4   2.699   3.055   1.406  0.1025  0.3419 -0.3786
    2SOL    HW1    5   2.742   3.100   1.319 -0.4266  0.0693 -0.6778
    2SOL    HW2    6   2.666   3.119   1.476  2.4409  0.8044 -0.2599
    3SOL     OW    7   2.737   2.587   0.383 -0.3784  0.0849 -0.7509
    3SOL    HW1    8   2.702   2.486   0.393 -1.1706 -1.2890  0.6838
    3SOL    HW2    9   2.827   2.603   0.433  1.2120  0.7623 -1.7627
    4SOL     OW   10   1.288   1.456   2.362 -0.1751  0.3190  0.0413
    4SOL    HW1   11   1.196   1.493   2.352 -0.6662  0.2151 -1.3787
    4SOL    HW2   12   1.293   1.363   2.407 -0.9010 -0.4795  3.3112
    5SOL     OW   13   1.186   1.498   3.074 -0.6282  0.0851  0.2400
    5SOL    HW1   14   1.261   1.566   3.101  0.7322  0.9925 -0.0229
    5SOL    HW2   15   1.091   1.532   3.097  1.9566 -0.7544  1.9404
    6SOL     OW   16   0.092   1.839   2.933  0.1927  0.3242  0.4863
    6SOL    HW1   17   0.016   1.882   2.992 -0.6727  0.9717  0.0641
    6SOL    HW2   18   0.131   1.753   2.976  2.8017 -3.4720 -3.4006
    7SOL     OW   19   2.532   0.907   1.154 -0.4962  0.4283 -0.0852
    7SOL    HW1   20   2.466   0.820   1.171 -2.4645 -0.6063  1.2049
    7SOL    HW2   21   2.528   0.932   1.052 -1.7689 -1.6121 -1.8027
    8SOL     OW   22   0.442   0.592   1.533 -0.6130 -0.1003 -0.0342
    8SOL    HW1   23   0.521   0.534   1.572 -1.0098 -3.3182  0.9062
    8SOL    HW2   24   0.420   0.568   1.433  0.2044  1.8788 -0.1773
    9SOL     OW   25   1.153   0.921   2.307 -0.3703 -0.2470  0.3685
    9SOL    HW1   26   1.239   0.969   2.268  0.0971 -1.8177  1.2175
    9SOL    HW2   27   1.107   0.860   2.234 -2.8103 -1.2069 -1.9715
   10SOL     OW   28   0.672   1.339   1.270 -0.2482 -0.1322 -0.0582
   10SOL    HW1   29   0.595   1.397   1.221 -1.6432 -1.2151  1.0505
   10SOL    HW2   30   0.755   1.398   1.274 -0.4117 -3.0234 -0.0117
   11SOL     OW   31   2.370   2.732   0.937  0.0861  0.7291 -1.2423
   11SOL    HW1   32   2.365   2.692   1.032 -0.8169 -1.7047 -2.3282
   11SOL    HW2   33   2.459   2.752   0.888 -0.9151  2.2222  0.4337
   12SOL     OW   34   1.473   0.889   0.327  0.3450 -0.8751  0.1844
   12SOL    HW1   35   1.397   0.957   0.306 -0.9818 -0.6166 -0.7983
   12SOL    HW2   36   1.461   0.801   0.274 -1.9710 -1.2324 -1.6551
   13SOL     OW   37   2.504   0.658   1.795 -0.3190 -0.2526  0.1871
   13SOL    HW1   38   2.424   0.635   1.857 -0.1050 -0.8606  1.4013
   13SOL    HW2   39   2.479   0.657   1.695  1.3442  2.1728  1.0196
   14SOL     OW   40   1.959   0.082   0.746 -0.1394  0.6087 -0.3972
   14SOL    HW1   41   1.887   0.101   0.672 -1.9727  3.1150  2.0228
   14SOL    HW2   42   1.926   0.007   0.814  0.5111  0.3338  1.6936
   15SOL     OW   43   1.942   1.997   2.784  0.3119  0.0614  0.1837
   15SOL    HW1   44   1.906   2.097   2.771 -0.2831  2.5180 -5.2655
   15SOL    HW2   45   1.870   1.926   2.759  0.0302  1.3341 -2.1434
   16SOL     OW   46   1.619   1.714   3.011 -0.2438  0.2884  0.1992
   16SOL    HW1   47   1.629   1.620   3.053 -0.4173 -0.1557  1.2996
   16SOL    HW2   48   1.687   1.784   3.041  4.2405 -2.0876 -1.1669
   17SOL     OW   49   0.100   0.516   0.148  0.0932  0.1577 -0.0374
   17SOL    HW1   50   0.177   0.534   0.082 -0.7031  0.2245 -1.0612
   17SOL    HW2   51   0.009   0.552   0.106 -1.3076  0.6075 -0.0879
   18SOL     OW   52   0.967   2.974   2.124 -0.7290  0.6106 -0.0103
   18SOL    HW1   53   0.918   2.889   2.143 -1.0009  1.5051  0.0346
   18SOL    HW2   54   1.065   2.965   2.085 -0.4027  1.7313  3.2659
   19SOL     OW   55   0.512   0.826   1.910 -0.1707  0.0283  0.3636
   19SOL    HW1   56   0.531   0.833   2.010  1.3023  0.2137 -1.9756
   19SOL    HW2   57   0.598   0.824   1.860 -0.7907  0.6418  0.3765
   20SOL     OW   58   0.199   2.789   0.822  0.3327 -0.1168  0.3806
   20SOL    HW1   59   0.139   2.856   0.766 -0.6902 -2.0605  1.8028
   20SOL    HW2   60   0.294   2.784   0.782 -1.3506 -1.7480 -0.4016
   21SOL     OW   61   2.781   0.190   2.061  0.3232 -0.0951  0.1517
   21SOL    HW1   62   2.711   0.128   2.016 -0.9579  1.3841 -0.3776
   21SOL    HW2   63   2.849   0.131   2.111 -0.3881 -2.4171 -0.0281
   22SOL     OW   64   2.357   0.219   0.095 -0.1041 -0.2365 -0.0145
   22SOL    HW1   65   2.374   0.122   0.067  1.1866 -2.7730 -0.1262
   22SOL    HW2   66   2.255   0.246   0.083  0.3718 -1.0753  0.4704
   23SOL     OW   67   2.732   0.640   0.619  0.1080  0.2931  0.0053
   23SOL    HW1   68   2.787   0.557   0.582  1.9817 -1.2088 -1.2762
   23SOL    HW2   69   2.745   0.727   0.557  1.3060  0.5559  1.1228
   24SOL     OW   70   0.148   1.924   0.376  0.4148  0.1311  0.2037
   24SOL    HW1   71   0.094   1.990   0.317  0.2729  2.3305  3.9651
   24SOL    HW2   72   0.226   1.888   0.312 -0.8251 -0.3187 -1.4744
   25SOL     OW   73   2.217   0.501   0.264  0.3994  0.0206  0.6264
   25SOL    HW1   74   2.250   0.599   0.292 -1.1036 -0.2950 -0.2201
   25SOL    HW2   75   2.217   0.499   0.161 -2.6451 -2.4137 -1.2769
   26SOL     OW   76   2.530   2.112   2.073 -0.6960 -0.2126  0.0721
   26SOL    HW1   77   2.582   2.177   2.133 -0.8656  2.0625 -1.0454
   26SOL    HW2   78   2.592   2.033   2.032  1.6490 -0.7284  0.4347
   27SOL     OW   79   0.599   2.938   0.172 -0.1912  0.3394  0.5062
   27SOL    HW1   80   0.698   2.960   0.194 -0.4791  2.2601 -2.7045
   27SOL    HW2   81   0.583   2.946   0.069 -1.1615 -0.0861 -0.0558
   28SOL     OW   82   1.532   0.181   0.295  0.2698 -0.0400 -0.3891
   28SOL    HW1   83   1.579   0.156   0.208 -0.7829 -0.3263  1.2311
   28SOL    HW2   84   1.543   0.284   0.321 -2.4020  0.4146  0.1487
   29SOL     OW   85   1.973   0.534   0.380 -0.1974  0.4501  0.4537
   29SOL    HW1   86   1.977   0.634   0.405  1.4768  3.9087  2.0273
   29SOL    HW2   87   2.067   0.503   0.351 -1.6179  0.1173  4.4606
   30SOL     OW   88   0.227   2.043   0.890 -0.4212 -0.2484 -0.1064
   30SOL    HW1   89   0.219   2.026   0.788 -0.1120 -1.8028  3.4703
   30SOL    HW2   90   0.165   2.116   0.935  2.7079  2.5931  1.4538
   31SOL     OW   91   2.093   3.081   2.305 -0.1772 -0.1070  0.0477
   31SOL    HW1   92   2.102   3.068   2.408  3.4458 -1.0723  1.9369
   31SOL    HW2   93   2.007   3.045   2.264  1.7353 -4.1756 -1.3777
   32SOL     OW   94   2.956   0.196   0.248 -0.1559 -0.4012  0.4305
   32SOL    HW1   95   2.893   0.137   0.307  2.4791  2.3641 -0.5800
   32SOL    HW2   96   3.045   0.223   0.292 -0.5352 -0.4039 -0.0170
   33SOL     OW   97   0.932   0.344   0.592  0.3150 -0.0030  0.4064
   33SOL    HW1   98   0.927   0.266   0.521  0.1115 -2.2818 -0.9268
   33SOL    HW2   99   1.016   0.339   0.645  0.1632 -2.9303  0.5154
   34SOL     OW  100   0.362   2.826   1.105 -0.3630 -0.4291  0.8984
   34SOL    HW1  101   0.323   2.756   1.041  0.4240  0.5015 -1.3599
   34SOL    HW2  102   0.459   2.859   1.082  0.1332 -0.2750  2.1369
   35SOL     OW  103   0.018   0.217   1.852 -0.3333  0.2479 -0.4107
   35SOL    HW1  104   0.053   0.119   1.866 -0.5186 -0.8394 -0.4744
   35SOL    HW2  105  -0.049   0.223   1.772 -1.5648  1.7645 -1.8777
   36SOL     OW  106   1.951   1.079   1.843  0.4810 -0.1026 -0.2032
   36SOL    HW1  107   2.018   1.067   1.772 -1.2970 -1.3347  2.0915
   36SOL    HW2  108   1.983   1.151   1.910  0.8231  2.0125 -0.2608
   37SOL     OW  109   1.208   0.166   0.905  0.3600  0.4234 -0.6496
   37SOL    HW1  110   1.230   0.229   0.986  0.0042  0.4748 -2.8789
   37SOL    HW2  111   1.279   0.089   0.890 -0.2775 -0.1560 -0.6907
   38SOL     OW  112   1.114   2.773   2.419 -0.2131  0.1752 -0.1223
   38SOL    HW1  113   1.045   2.697   2.427  2.8988  2.8763 -1.3543
   38SOL    HW2  114   1.071   2.867   2.430 -0.1648  2.0779 -0.4524
   39SOL     OW  115   2.334   1.398   3.010  0.7549  0.4140  0.4544
   39SOL    HW1  116   2.405   1.323   3.035  0.6193 -0.7030 -2.1233
   39SOL    HW2  117   2.251   1.382   3.077 -1.7375 -4.1013 -1.6236
   40SOL     OW  118   2.103   2.514   2.545 -0.6097 -0.2912  1.0038
   40SOL    HW1  119   2.075   2.605   2.588 -0.1885 -0.9790 -2.9674
   40SOL    HW2  120   2.025   2.444   2.517 -1.8108  0.3972  2.0223
   41SOL     OW  121   2.949   0.685   2.750  0.4848 -0.2831  0.5531
   41SOL    HW1  122   2.852   0.737   2.748  0.0010  1.1519  0.6160
   41SOL    HW2  123   2.947   0.581   2.723  0.0667 -1.7068 -0.4850
   42SOL     OW  124   1.773   1.770   0.537 -0.2091  0.7155 -0.4607
   42SOL    HW1  125   1.742   1.671   0.521  3.5587 -1.3992  1.3031
   42SOL    HW2  126   1.774   1.824   0.449 -0.0019  0.2959 -1.7532
   43SOL     OW  127   0.486   1.719   1.074 -0.3533 -0.2827 -0.1256
   43SOL    HW1  128   0.474   1.617   1.089  0.2979  0.7038 -0.0841
   43SOL    HW2  129   0.413   1.778   1.109 -2.0684 -1.8622  0.1030
   44SOL     OW  130   1.825   2.477   3.052  0.2328  0.1364 -0.0572
   44SOL    HW1  131   1.809   2.558   2.997  1.4812 -0.1548  0.6096
   44SOL    HW2  132   1.904   2.481   3.111 -2.7641 -3.2261 -0.9813
   45SOL     OW  133   0.319   1.908   2.616  0.3694 -0.1811 -0.1443
   45SOL    HW1  134   0.246   1.900   2.538  0.5642 -0.5466  0.7607
   45SOL    HW2  135   0.388   1.825   2.611  1.1726  0.0823  0.8965
   46SOL     OW  136   1.222   0.650   0.145  0.5499  0.4598  0.0061
   46SOL    HW1  137   1.269   0.743   0.129 -0.2826  1.0249 -0.4608
   46SOL    HW2  138   1.144   0.656   0.215  2.4435  2.9899 -0.4892
   47SOL     OW  139   0.204   2.451   1.642  0.2452 -0.0399 -0.0254
   47SOL    HW1  140   0.277   2.381   1.631  1.6405  0.9609 -0.8818
   47SOL    HW2  141   0.172   2.496   1.548 -0.5057 -1.0743 -2.2767
   48SOL     OW  142   2.629   0.616   0.138  0.0750  0.0104  0.1517
   48SOL    HW1  143   2.562   0.587   0.214 -0.8272  1.7486  0.0168
   48SOL    HW2  144   2.713   0.666   0.159 -1.6568  0.4677 -2.2113
   49SOL     OW  145   0.348   0.768   1.710 -0.4388 -0.0557 -0.0353
   49SOL    HW1  146   0.413   0.780   1.791 -0.3359  1.2705  1.8074
   49SOL    HW2  147   0.397   0.707   1.640  1.1138 -0.5508 -0.1655
   50SOL     OW  148   1.655   1.127   0.316 -0.1241  0.1128 -0.0515
   50SOL    HW1  149   1.629   1.029   0.292  0.9170  2.2684 -0.3057
   50SOL    HW2  150   1.593   1.163   0.385  0.7217 -1.4187 -2.0659
   51SOL     OW  151   2.908   1.845   0.360 -0.3339 -0.8263  0.6405
   51SOL    HW1  152   2.901   1.823   0.257  2.8347  0.8341 -2.1252
   51SOL    HW2  153   2.932   1.761   0.417 -0.9489 -0.1275  0.6342
   52SOL     OW  154   0.798   1.958   0.472 -1.0258  1.1389  0.3083
   52SOL    HW1  155   0.702   1.998   0.485 -2.2288  1.8307 -0.0122
   52SOL    HW2  156   0.824   1.899   0.551 -1.6703  4.3121 -0.8794
   53SOL     OW  157   0.025   0.397   1.566  1.2479  0.6884  0.0377
   53SOL    HW1  158   0.069   0.440   1.648 -0.1645  1.7566 -0.9449
   53SOL    HW2  159   0.009   0.458   1.487 -0.2027 -2.7318  3.1631
   54SOL     OW  160   1.764   0.471   3.085 -0.3761  0.1501  0.0466
   54SOL    HW1  161   1.804   0.417   3.161 -1.0174 -1.8351 -0.0308
   54SOL    HW2  162   1.659   0.470   3.077  0.0775  0.7511  1.1193
   55SOL     OW  163   0.757   2.893   0.671  0.5408  0.5096  0.2234
   55SOL    HW1  164   0.708   2.985   0.684  2.2808 -0.3025 -1.1408
   55SOL    HW2  165   0.844   2.915   0.624  0.7701 -3.3465  2.4759
   56SOL     OW  166   0.437   1.566   3.057 -0.0745 -0.2936  0.3273
   56SOL    HW1  167   0.339   1.557   3.085  3.3493 -0.4700 -0.6965
   56SOL    HW2  168   0.473   1.479   3.000  0.1898 -2.3057 -2.3159
   57SOL     OW  169   1.816   2.510   2.652 -0.3721  0.4208 -1.2543
   57SOL    HW1  170   1.826   2.481   2.556  1.4083 -1.3655  1.9849
   57SOL    HW2  171   1.716   2.533   2.676 -1.8475 -0.8457  1.1505
   58SOL     OW  172   0.650   0.364   1.042 -0.0100 -0.5766 -0.3145
   58SOL    HW1  173   0.597   0.454   1.023  1.1210  2.3468 -0.1511
   58SOL    HW2  174   0.601   0.274   1.044 -0.3589  1.1644 -0.7601
   59SOL     OW  175   0.402   2.396   2.772  0.1597  0.1668  0.0836
   59SOL    HW1  176   0.418   2.297   2.742  1.6703  1.6960  1.8747
   59SOL    HW2  177   0.481   2.425   2.837  1.6631  0.6402  1.8903
   60SOL     OW  178   2.315   2.047   2.212 -0.3298 -0.8524 -0.3147
   60SOL    HW1  179   2.409   2.057   2.178  1.6353 -0.1013  0.8738
   60SOL    HW2  180   2.311   2.072   2.313  1.6836  0.9252  0.7458
   61SOL     OW  181   1.302   0.586   0.517  0.1375  0.2808 -0.8616
   61SOL    HW1  182   1.227   0.656   0.541  0.0349  3.9314  0.0825
   61SOL    HW2  183   1.301   0.554   0.419 -1.1859  1.8985 -2.7609
   62SOL     OW  184   2.683   1.799   2.926  0.5260  0.4712 -0.1414
   62SOL    HW1  185   2.704   1.696   2.928  0.0328 -1.9370 -1.2455
   62SOL    HW2  186   2.766   1.845   2.880 -1.8992 -0.8555  0.2754
   63SOL     OW  187   0.601   0.927   0.166  0.5302  0.0803 -0.0395
   63SOL    HW1  188   0.536   1.007   0.162 -2.6281 -2.7745 -0.7010
   63SOL    HW2  189   0.689   0.956   0.207  0.3551 -1.5671  2.1489
   64SOL     OW  190   0.095   0.568   2.541  0.4513 -0.3085 -0.1646
   64SOL    HW1  191   0.124   0.600   2.632  3.2381 -0.9919 -2.8311
   64SOL    HW2  192   0.113   0.645   2.472  0.8173 -0.3073  2.6857
   65SOL     OW  193   0.211   1.487   0.564 -0.1489 -0.0765  0.4942
   65SOL    HW1  194   0.246   1.553   0.639  1.1374  1.9409  2.8120
   65SOL    HW2  195   0.281   1.440   0.507  1.5761  0.5886 -0.7331
   66SOL     OW  196   2.530   0.417   0.588  0.2839 -0.9051 -0.4434
   66SOL    HW1  197   2.462   0.475   0.636  0.8880  0.9874  0.4617
   66SOL    HW2  198   2.520   0.319   0.614 -1.7703  0.9356 -0.2875
   67SOL     OW  199   0.559   2.527   1.379 -0.0618  0.1876 -0.3906
   67SOL    HW1  200   0.619   2.521   1.461 -0.5719 -2.5715 -1.1334
   67SOL    HW2  201   0.510   2.437   1.363  1.3123 -1.1291  0.4339
   68SOL     OW  202   1.010   1.109   2.447 -0.3310  0.4007 -0.1239
   68SOL    HW1  203   1.040   1.018   2.403 -0.7007  1.5122 -1.7014
   68SOL    HW2  204   0.932   1.162   2.404  1.6703  0.2625 -0.5213
   69SOL     OW  205   0.793   2.773   2.209 -0.1272  0.3954  0.7115
   69SOL    HW1  206   0.827   2.674   2.181  0.7225 -2.0069 -0.9462
   69SOL    HW2  207   0.698   2.795   2.182 -0.2107  1.6639 -1.3202
   70SOL     OW  208   0.610   0.293   2.714 -0.3485  0.4586  0.1082
   70SOL    HW1  209   0.574   0.369   2.774 -0.9653  2.0642  0.0086
   70SOL    HW2  210   0.570   0.203   2.749 -2.7086 -1.8963 -0.7374
   71SOL     OW  211   1.056   1.753   0.339  0.2277 -0.6489  0.7661
   71SOL    HW1  212   0.989   1.677   0.365  1.3090 -2.0831 -2.1418
   71SOL    HW2  213   1.036   1.797   0.248 -2.4749 -0.4599 -2.0953
   72SOL     OW  214   1.784   0.168   2.050  0.6365 -0.2073  0.8699
   72SOL    HW1  215   1.813   0.192   1.952  2.5139  1.6950  0.9286
   72SOL    HW2  216   1.790   0.069   2.065 -1.1080  2.2252 -0.5873
   73SOL     OW  217   2.798   2.160   2.461  0.6051  0.2011 -0.5895
   73SOL    HW1  218   2.779   2.062   2.437 -1.1989 -5.6912  0.6749
   73SOL    HW2  219   2.828   2.170   2.564 -0.0505 -1.1590  0.5050
   74SOL     OW  220   2.725   2.916   2.031  0.0645 -0.4882  0.3270
   74SOL    HW1  221   2.670   2.929   2.118 -0.4097 -1.7852 -3.7815
   74SOL    HW2  222   2.824   2.926   2.049 -2.6220 -0.4181  3.0185
   75SOL     OW  223   0.937   0.757   1.051 -0.4606 -0.2759  0.2645
   75SOL    HW1  224   0.835   0.795   1.043 -0.6341 -2.3450 -1.1963
   75SOL    HW2  225   0.996   0.821   1.111 -2.8508  0.4443 -0.2276
   76SOL     OW  226   1.692   1.272   2.533 -0.3322  0.5228 -0.3926
   76SOL    HW1  227   1.609   1.226   2.584 -1.1608 -1.8934 -0.3647
   76SOL    HW2  228   1.704   1.371   2.554 -0.2651 -0.1614  1.5828
   77SOL     OW  229   2.939   0.944   0.961  0.3494  0.0041 -0.2043
   77SOL    HW1  230   2.927   0.844   0.944  1.1468 -0.5717  1.9830
   77SOL    HW2  231   3.009   0.955   1.034  0.8219 -0.1555 -1.9450
   78SOL     OW  232   2.059   1.392   1.539  0.0181  0.0094  0.2163
   78SOL    HW1  233   2.136   1.409   1.470 -0.4908 -1.1897 -2.0159
   78SOL    HW2  234   1.987   1.324   1.509  0.0638 -1.9662  0.2928
   79SOL     OW  235   0.650   1.330   0.882  0.1641  0.6423  0.4034
   79SOL    HW1  236   0.555   1.362   0.899  1.4723 -0.4955 -0.0505
   79SOL    HW2  237   0.657   1.293   0.786  0.2454  2.7204 -1.8920
   80SOL     OW  238   0.676   0.467   1.620  0.0866 -0.3986 -0.0977
   80SOL    HW1  239   0.725   0.520   1.544  1.1539  2.6366  2.2192
   80SOL    HW2  240   0.712   0.368   1.623 -0.5137  0.5143 -0.6663
   81SOL     OW  241   1.045   1.393   2.596 -0.3931  0.3932 -0.2386
   81SOL    HW1  242   1.067   1.297   2.623  2.2961 -3.0710  2.0149
   81SOL    HW2  243   0.995   1.396   2.507  0.1185 -1.4894  0.1936
   82SOL     OW  244   0.928   2.943   1.510 -0.3254 -0.1420 -0.2111
   82SOL    HW1  245   0.969   2.979   1.421  2.1574  0.0515 -0.6693
   82SOL    HW2  246   0.851   2.874   1.505  0.0294 -0.9501 -0.4153
   83SOL     OW  247   2.694   2.495   0.844  0.1626  0.2704  0.0134
   83SOL    HW1  248   2.632   2.416   0.802  0.2846  0.9107 -0.8330
   83SOL    HW2  249   2.658   2.589   0.828 -1.4289  0.3544 -1.3283
   84SOL     OW  250   0.695   3.075   2.311 -0.1943 -0.2647 -0.3616
   84SOL    HW1  251   0.627   3.062   2.386 -0.9037 -1.0893  2.9658
   84SOL    HW2  252   0.758   2.993   2.297 -1.5382 -1.0733  1.2992
   85SOL     OW  253   0.354   1.615   1.540 -0.2825 -0.0437  0.0525
   85SOL    HW1  254   0.297   1.693   1.516  0.1102 -0.3377 -0.4009
   85SOL    HW2  255   0.356   1.596   1.638  2.8564 -2.3159  0.4966
   86SOL     OW  256   0.371   0.969   1.514  0.1128  0.4136  0.1561
   86SOL    HW1  257   0.361   0.915   1.425 -0.5617 -1.0402 -0.1598
   86SOL    HW2  258   0.367   0.908   1.601 -1.0274 -0.0720  1.6027
   87SOL     OW  259   1.553   0.661   0.178 -0.2500  0.1838 -0.0315
   87SOL    HW1  260   1.638   0.726   0.196 -0.1687 -1.0106 -0.0329
   87SOL    HW2  261   1.551   0.612   0.086  1.1468  0.6043 -0.6120
   88SOL     OW  262   1.581   1.406   0.239  0.0937  0.0211 -0.4040
   88SOL    HW1  263   1.595   1.305   0.262  0.3182 -0.1404  1.3614
   88SOL    HW2  264   1.476   1.421   0.253 -2.3616 -0.6319  0.4584
   89SOL     OW  265   0.032   0.422   0.593  0.0567  0.4376 -0.0454
   89SOL    HW1  266   0.092   0.345   0.552 -0.7280  1.7395 -0.4830
   89SOL    HW2  267  -0.069   0.405   0.575 -1.8497 -0.2783 -0.9553
   90SOL     OW  268   0.917   1.577   3.093  0.2431  0.6013  0.1968
   90SOL    HW1  269   0.844   1.579   3.164  1.6354  1.4816 -0.3576
   90SOL    HW2  270   0.878   1.605   2.999 -0.3213  3.1313  1.0368
   91SOL     OW  271   1.262   1.419   1.796 -0.1105  0.0970 -0.1864
   91SOL    HW1  272   1.232   1.511   1.839  2.2300  0.5159 -2.1100
   91SOL    HW2  273   1.361   1.421   1.768 -0.9515  0.6982  1.1682
   92SOL     OW  274   3.077   0.975   1.213  0.5013 -0.8254  0.2453
   92SOL    HW1  275   3.134   1.053   1.171 -2.9956 -0.3117 -1.6697
   92SOL    HW2  276   3.096   0.966   1.313 -1.1963 -0.5772  1.3018
   93SOL     OW  277   3.089   2.744   0.022  0.6218  0.1544 -0.0509
   93SOL    HW1  278   3.053   2.766  -0.073  2.5780 -1.4502 -0.7063
   93SOL    HW2  279   3.137   2.654   0.044  0.3561  1.0033  0.3234
   94SOL     OW  280   1.542   1.479   1.739 -0.2370 -0.0441  0.9439
   94SOL    HW1  281   1.609   1.412   1.705 -0.3293  1.9205  2.0598
   94SOL    HW2  282   1.576   1.544   1.816  0.7924 -0.5841  1.2188
   95SOL     OW  283   1.382   2.515   3.023  0.7013  0.0243  0.2764
   95SOL    HW1  284   1.320   2.493   3.100  1.7292 -0.1768 -0.2521
   95SOL    HW2  285   1.370   2.446   2.946  1.9492 -1.7324 -1.1706
   96SOL     OW  286   0.528   2.039   1.313  0.1839  0.1897  0.2755
   96SOL    HW1  287   0.507   2.032   1.211  1.5282  0.3873  0.9200
   96SOL    HW2  288   0.574   1.953   1.341 -0.4267  1.0509 -0.5672
   97SOL     OW  289   0.409   1.619   2.445  0.3393  0.3172 -0.1675
   97SOL    HW1  290   0.315   1.614   2.487 -0.7206 -1.0466 -0.9632
   97SOL    HW2  291   0.482   1.651   2.513 -2.2801  0.1472  0.5087
   98SOL     OW  292   1.957   1.582   1.242  0.0862 -0.0403  0.0167
   98SOL    HW1  293   1.917   1.533   1.324 -1.1201  3.3223 -2.1549
   98SOL    HW2  294   1.972   1.522   1.160 -1.2773 -0.0492 -0.0425
   99SOL     OW  295   2.477   2.125   1.366 -0.5604  0.2670 -0.2756
   99SOL    HW1  296   2.499   2.195   1.439  0.9360  0.1413 -0.4034
   99SOL    HW2  297   2.456   2.029   1.398 -0.1789  0.8351  1.6960
  100SOL     OW  298   2.296   0.371   2.078 -0.1047 -0.6351 -0.2190
  100SOL    HW1  299   2.235   0.340   2.159 -1.0348 -1.3469  1.6973
  100SOL    HW2  300   2.350   0.458   2.102  2.1243  2.5332 -0.2250
  101SOL     OW  301   0.365   1.497   0.260 -0.2394  0.0386  0.1609
  101SOL    HW1  302   0.415   1.522   0.348  1.2224  0.7389  0.7786
  101SOL    HW2  303   0.395   1.558   0.183 -1.9034  0.8538 -1.3145
  102SOL     OW  304   2.307   1.009   0.835 -0.0841  0.2068 -0.1269
  102SOL    HW1  305   2.215   0.965   0.803  2.2674 -2.4153 -1.0239
  102SOL    HW2  306   2.332   1.098   0.790  0.0349  2.1004  0.8635
  103SOL     OW  307   2.292   0.012   0.409  0.0488  0.2449  0.0451
  103SOL    HW1  308   2.333   0.107   0.411  3.4418  0.2186 -0.4402
  103SOL    HW2  309   2.360  -0.045   0.464  0.4631  2.1937 -2.7334
  104SOL     OW  310   0.078   1.730   2.200  0.2732  0.2047 -0.1123
  104SOL    HW1  311   0.140   1.711   2.113  2.3142  0.4554 -0.6456
  104SOL    HW2  312  -0.025   1.745   2.183 -1.2692  3.3263 -0.6610
  105SOL     OW  313   1.278   2.107   0.784  0.0417  0.3168 -0.3289
  105SOL    HW1  314   1.189   2.098   0.733  0.2702 -0.2603 -0.3505
  105SOL    HW2  315   1.325   2.018   0.798  1.1026  1.5078 -0.8854
  106SOL     OW  316   2.151   0.549   1.393  0.1333 -0.3400  0.2766
  106SOL    HW1  317   2.107   0.456   1.409  0.5413 -2.0662  0.8846
  106SOL    HW2  318   2.123   0.616   1.465 -0.9854 -0.1321  0.1549
  107SOL     OW  319   1.761   2.995   1.123 -0.1146  0.0076  0.2895
  107SOL    HW1  320   1.807   3.078   1.165 -0.9459 -0.4982 -0.2424
  107SOL    HW2  321   1.718   2.932   1.198  1.2274 -2.7277  2.7234
  108SOL     OW  322   0.824   2.769   1.198  0.2822  0.3625 -0.2663
  108SOL    HW1  323   0.772   2.746   1.286 -0.0870 -2.8562 -0.1122
  108SOL    HW2  324   0.925   2.751   1.209  0.9384 -0.1307 -0.5250
  109SOL     OW  325   2.249   0.127   0.771 -0.0574 -0.7887 -0.1578
  109SOL    HW1  326   2.149   0.128   0.738 -2.7315 -1.1095  0.2452
  109SOL    HW2  327   2.260   0.119   0.873  0.9378 -1.4588  1.0340
  110SOL     OW  328   0.450   2.855   2.740 -0.0028  0.4635  0.3775
  110SOL    HW1  329   0.433   2.870   2.637 -1.3723  1.3937  0.7561
  110SOL    HW2  330   0.507   2.767   2.759 -0.1378  1.4371 -2.0424
  111SOL     OW  331   1.316   0.510   2.274 -0.2280 -0.0890 -0.1083
  111SOL    HW1  332   1.241   0.572   2.317 -0.7584 -1.2836  0.4923
  111SOL    HW2  333   1.365   0.448   2.341 -0.8354 -0.6310  1.1919
  112SOL     OW  334   1.750   0.495   1.482 -0.0515  0.2530  0.4423
  112SOL    HW1  335   1.762   0.445   1.391 -0.2753 -0.7378  0.8121
  112SOL    HW2  336   1.706   0.436   1.551  1.0968  2.8573  0.3630
  113SOL     OW  337   2.258   1.641   1.777 -0.2104  0.3154  0.3436
  113SOL    HW1  338   2.327   1.571   1.747  0.9397  1.6439 -0.0306
  113SOL    HW2  339   2.269   1.668   1.879  0.5018 -2.2915  0.3244
  114SOL     OW  340   0.388   0.514   1.239  0.6493 -0.4932 -0.5080
  114SOL    HW1  341   0.430   0.562   1.155 -1.2956  0.6150  0.3029
  114SOL    HW2  342   0.292   0.483   1.218  3.0239  1.9019  2.0699
  115SOL     OW  343   2.768   1.651   1.274  0.4484  0.0512  0.6154
  115SOL    HW1  344   2.786   1.547   1.285  1.0753 -1.3203  0.4847
  115SOL    HW2  345   2.769   1.682   1.176 -0.4690 -0.2688  0.7382
  116SOL     OW  346   1.831   1.034   0.712  0.4909  0.6387  0.0466
  116SOL    HW1  347   1.754   0.977   0.676 -1.4179  0.1718 -1.1734
  116SOL    HW2  348   1.794   1.108   0.774 -1.9114 -0.4026 -0.1273
  117SOL     OW  349   1.167   0.396   0.687  0.2575 -0.5369  0.9933
  117SOL    HW1  350   1.174   0.387   0.793  1.6433 -1.4266 -0.4523
  117SOL    HW2  351   1.229   0.462   0.643 -1.2015 -0.7803 -2.4257
  118SOL     OW  352   1.099   1.162   1.069  0.3764  0.8838 -0.0272
  118SOL    HW1  353   1.080   1.068   1.122  2.2846 -3.4202  2.6431
  118SOL    HW2  354   1.120   1.231   1.143 -2.0066  0.8378 -1.1101
  119SOL     OW  355   1.835   1.622   2.099  0.0382 -0.3529 -0.0515
  119SOL    HW1  356   1.830   1.725   2.135 -1.3138  0.0186  1.8834
  119SOL    HW2  357   1.935   1.591   2.102 -4.1069  1.3515 -0.3907
  120SOL     OW  358   2.943   2.847   0.223 -0.5022 -0.4884 -0.3390
  120SOL    HW1  359   3.011   2.835   0.147  1.8876  0.8702 -1.3377
  120SOL    HW2  360   2.883   2.762   0.231  1.1741  1.2759  1.2455
  121SOL     OW  361   2.023   0.771   2.286  0.1980  0.0517  0.6638
  121SOL    HW1  362   2.018   0.817   2.196  2.1527 -0.3162  2.2305
  121SOL    HW2  363   2.033   0.667   2.276 -0.4051 -1.7259 -1.4383
  122SOL     OW  364   2.596   2.698   1.243  0.1898  0.5640  0.0892
  122SOL    HW1  365   2.622   2.608   1.189  0.1719  0.3229 -0.1810
  122SOL    HW2  366   2.570   2.775   1.183  1.1621 -0.0727  0.9429
  123SOL     OW  367   1.726   0.062   1.674 -0.3196 -0.1607 -0.1301
  123SOL    HW1  368   1.747  -0.032   1.636  0.6489  1.4833  1.2407
  123SOL    HW2  369   1.815   0.115   1.703 -0.1471  1.1665 -0.4485
  124SOL     OW  370   0.129   0.413   1.112  0.2478  0.1792 -0.0331
  124SOL    HW1  371   0.094   0.501   1.159 -0.0524  1.2091  2.0524
  124SOL    HW2  372   0.115   0.411   1.009  0.1093 -3.9766  3.7874
  125SOL     OW  373   0.847   1.790   0.680 -0.1165  0.7983  0.3822
  125SOL    HW1  374   0.940   1.748   0.658 -1.5219 -1.7421 -0.9688
  125SOL    HW2  375   0.811   1.766   0.771  1.2663  1.9229 -0.8624
  126SOL     OW  376   1.908   2.326   2.449 -0.2924 -0.4310  0.3745
  126SOL    HW1  377   1.978   2.293   2.379  2.3988 -2.0197  3.8809
  126SOL    HW2  378   1.850   2.246   2.481  0.7894 -0.4814 -0.2481
  127SOL     OW  379   0.842   0.898   0.319  0.0175 -0.2822 -0.4249
  127SOL    HW1  380   0.851   0.905   0.423  0.3587 -2.5884 -0.0700
  127SOL    HW2  381   0.851   0.798   0.289  2.0347 -0.5540  1.1464
  128SOL     OW  382   0.971   0.207   1.371  0.2702  0.5929 -0.0766
  128SOL    HW1  383   0.973   0.294   1.321  0.1055  3.5673 -0.5146
  128SOL    HW2  384   0.877   0.160   1.364 -1.1336 -1.7318 -0.8577
  129SOL     OW  385   1.828   0.691   1.889  0.7725  0.2170 -0.3434
  129SOL    HW1  386   1.846   0.713   1.791 -2.6248 -1.1066  3.9190
  129SOL    HW2  387   1.835   0.781   1.945 -1.0376  1.2808  2.4847
  130SOL     OW  388   1.364   2.240   1.015  0.3474  0.0389 -0.0811
  130SOL    HW1  389   1.335   2.192   0.925  0.9970 -1.6357 -1.3425
  130SOL    HW2  390   1.444   2.306   1.007  0.5396  0.9096  0.0776
  131SOL     OW  391   3.076   1.449   1.380 -0.7062 -0.4561 -0.4572
  131SOL    HW1  392   3.023   1.366   1.405  3.7295 -1.6058 -0.7832
  131SOL    HW2  393   3.178   1.437   1.379 -0.1176  2.0525  1.2732
  132SOL     OW  394   2.004   2.444   0.527 -0.1703 -0.1226  0.3206
  132SOL    HW1  395   1.903   2.428   0.514  0.4215  2.8590  2.0057
  132SOL    HW2  396   2.043   2.404   0.619  0.1910  3.0841  2.0186
  133SOL     OW  397   1.849   2.261   2.772 -0.3911 -0.6007 -0.0152
  133SOL    HW1  398   1.857   2.288   2.872  3.9434  0.3766 -1.2188
  133SOL    HW2  399   1.841   2.346   2.716  0.8143  0.1915 -0.7734
  134SOL     OW  400   2.673   2.322   1.635  0.1608 -0.4674  0.5529
  134SOL    HW1  401   2.616   2.304   1.723 -0.6027 -0.1885  1.2489
  134SOL    HW2  402   2.755   2.383   1.644 -1.7569  1.6131  0.2497
  135SOL     OW  403   0.712   1.526   2.659  0.0917 -0.3086  0.1821
  135SOL    HW1  404   0.669   1.438   2.698  2.7280  1.2732 -4.3274
  135SOL    HW2  405   0.775   1.497   2.577  1.0681 -3.6324 -1.3556
  136SOL     OW  406   1.203   1.956   0.450 -0.2327 -0.5106  0.0442
  136SOL    HW1  407   1.142   2.020   0.498  1.8090  0.5966 -1.5689
  136SOL    HW2  408   1.157   1.872   0.411 -0.2245 -1.4551 -1.6550
  137SOL     OW  409   0.392   1.136   2.139  0.7898 -0.4227  0.3699
  137SOL    HW1  410   0.304   1.148   2.196 -1.5656  1.1044  0.0729
  137SOL    HW2  411   0.463   1.077   2.186  1.0214 -0.2867  3.1568
  138SOL     OW  412   2.458   1.487   0.269  0.7720 -0.1944  0.5452
  138SOL    HW1  413   2.402   1.447   0.191  0.9572  0.7122  0.0349
  138SOL    HW2  414   2.481   1.419   0.342  3.7365  1.3478 -0.4695
  139SOL     OW  415   1.815   2.652   1.290 -0.0574 -0.1911  0.0448
  139SOL    HW1  416   1.718   2.674   1.262 -2.6559  0.0505  1.7999
  139SOL    HW2  417   1.834   2.559   1.324  1.2441  0.2705  1.1546
  140SOL     OW  418   2.988   2.914   2.610 -0.1363 -0.6631 -0.1552
  140SOL    HW1  419   3.042   2.823   2.600 -0.5725 -3.8723 -0.7125
  140SOL    HW2  420   3.042   2.988   2.655  0.1962  0.9670 -0.9625
  141SOL     OW  421   1.270   1.707   1.605 -0.0678  0.1882  0.4466
  141SOL    HW1  422   1.169   1.702   1.602  0.7208 -1.9783 -1.0100
  141SOL    HW2  423   1.302   1.667   1.694 -1.8331 -4.0848 -1.2288
  142SOL     OW  424   1.547   0.620   2.186 -0.2514 -0.1084  0.2764
  142SOL    HW1  425   1.547   0.623   2.083  1.5148 -0.8657  0.6095
  142SOL    HW2  426   1.456   0.577   2.228 -0.5280  2.1654  0.8939
  143SOL     OW  427   2.735   0.894   0.489  0.1823  0.6952 -0.7743
  143SOL    HW1  428   2.764   0.947   0.405  0.5093  0.1018 -2.0599
  143SOL    HW2  429   2.770   0.931   0.580 -2.4276  1.1405  3.2619
  144SOL     OW  430   2.935   1.207   1.451 -0.1481 -0.5777 -0.2149
  144SOL    HW1  431   2.923   1.166   1.547 -0.6736  0.5166 -0.5996
  144SOL    HW2  432   2.970   1.134   1.386  1.7229 -0.0688  1.9280
  145SOL     OW  433   1.006   1.862   0.082 -0.0948  0.0540 -0.2425
  145SOL    HW1  434   1.052   1.918   0.010 -1.4125  0.0168 -0.3136
  145SOL    HW2  435   0.958   1.775   0.049  1.0670 -1.3464  0.6144
  146SOL     OW  436   2.453   0.677   1.542  0.0005  0.5918 -0.5917
  146SOL    HW1  437   2.443   0.597   1.481  0.5306  0.2123  1.8165
  146SOL    HW2  438   2.404   0.769   1.516 -0.0005  2.8209  0.3006
  147SOL     OW  439   1.099   2.461   0.613 -0.1015  0.4116  0.2299
  147SOL    HW1  440   1.061   2.527   0.534 -0.4429  0.5338 -1.2886
  147SOL    HW2  441   1.192   2.416   0.593  1.0304  0.9095  1.8358
  148SOL     OW  442   1.649   1.451   3.079  0.3056  0.0671  0.2059
  148SOL    HW1  443   1.661   1.383   3.000  1.0727 -0.8398 -1.5847
  148SOL    HW2  444   1.628   1.414   3.174  0.9425  2.0903  1.3351
  149SOL     OW  445   0.711   1.442   1.946 -0.1931 -0.2786  0.6325
  149SOL    HW1  446   0.628   1.410   1.995  0.7734  0.0908  0.2101
  149SOL    HW2  447   0.756   1.369   1.890 -2.6047  1.3554 -1.0869
  150SOL     OW  448   3.042   1.258   0.971  0.0753  0.2226  0.3966
  150SOL    HW1  449   3.113   1.273   1.046  0.6712  1.5961 -0.8212
  150SOL    HW2  450   2.999   1.164   0.978 -0.4268 -1.1276  0.9979
  151SOL     OW  451   0.214   0.772   2.086  0.3694 -0.3576 -0.0431
  151SOL    HW1  452   0.211   0.843   2.006  5.2521  2.5902  0.8138
  151SOL    HW2  453   0.238   0.674   2.054 -1.7609 -2.2546  1.5922
  152SOL     OW  454   1.377   1.803   1.299  0.2220  0.4458  0.1268
  152SOL    HW1  455   1.364   1.878   1.371  0.8697 -0.3076 -2.2699
  152SOL    HW2  456   1.287   1.755   1.279  0.1147 -0.1436  0.9259
  153SOL     OW  457   3.083   1.533   0.182 -1.0511 -0.6400  0.1162
  153SOL    HW1  458   3.089   1.429   0.193 -0.8372 -0.5984  1.7087
  153SOL    HW2  459   3.100   1.585   0.271 -0.6294 -0.3546  1.6220
  154SOL     OW  460   2.334   1.848   2.785 -0.2161 -0.4147 -0.8364
  154SOL    HW1  461   2.354   1.748   2.796  2.4835  1.2495 -2.8758
  154SOL    HW2  462   2.409   1.895   2.735 -0.9779  1.9085  1.2027
  155SOL     OW  463   2.422   1.236   0.422 -0.0404  0.2682  0.0288
  155SOL    HW1  464   2.517   1.193   0.417  0.6578 -0.3757  0.3824
  155SOL    HW2  465   2.352   1.183   0.360 -2.4910 -0.7895 -2.2936
  156SOL     OW  466   2.571   0.967   0.879  0.0528  0.6289 -0.5510
  156SOL    HW1  467   2.468   0.972   0.863 -0.9907 -0.0128  1.5261
  156SOL    HW2  468   2.618   1.045   0.838 -0.0947  1.4653  0.5717
  157SOL     OW  469   1.258   3.002   3.044  0.0142 -0.2376  0.7709
  157SOL    HW1  470   1.303   2.941   2.969  2.4181  0.1064  0.3689
  157SOL    HW2  471   1.304   3.097   3.048  2.3071 -0.6380 -2.0178
  158SOL     OW  472   1.005   1.840   2.000  0.3551  0.1178 -0.5999
  158SOL    HW1  473   1.041   1.932   1.982  1.3339 -1.8849  0.2581
  158SOL    HW2  474   0.943   1.839   2.081 -2.4564 -1.3299  0.3567
  159SOL     OW  475   0.862   0.450   1.245 -0.2145  0.1504 -0.1969
  159SOL    HW1  476   0.822   0.533   1.287  2.4406  0.3644 -2.3178
  159SOL    HW2  477   0.792   0.392   1.194 -1.5331  0.5404 -1.3326
  160SOL     OW  478   1.449   2.396   1.668 -0.4007 -0.9356 -0.3868
  160SOL    HW1  479   1.428   2.494   1.646  1.7181  0.1185  0.2477
  160SOL    HW2  480   1.521   2.359   1.602 -0.3308  2.2624 -1.6729
  161SOL     OW  481   0.115   2.896   0.324 -0.3668  0.1167 -0.0018
  161SOL    HW1  482   0.006   2.890   0.340  0.0006 -0.0616 -1.5845
  161SOL    HW2  483   0.143   2.947   0.236 -0.3525 -0.2408 -1.3877
  162SOL     OW  484   2.547   1.931   0.443 -0.6721 -0.0967  0.4883
  162SOL    HW1  485   2.554   1.881   0.353  2.6866  1.4137 -0.5202
  162SOL    HW2  486   2.559   1.878   0.532  2.6520  0.3386 -2.2681
  163SOL     OW  487   1.938   2.722   0.783  0.0284  0.0223 -0.0801
  163SOL    HW1  488   1.919   2.751   0.686 -0.8972  0.5909  0.3444
  163SOL    HW2  489   2.022   2.662   0.792 -1.7526  1.2758  0.2372
  164SOL     OW  490   3.025   0.193   1.175  0.2319 -0.0417 -0.0872
  164SOL    HW1  491   3.097   0.265   1.157 -1.0543 -1.1985 -1.2306
  164SOL    HW2  492   3.055   0.122   1.247 -3.2152  0.3264 -0.7498
  165SOL     OW  493   0.920   1.424   0.668 -0.3705  0.1163  0.4584
  165SOL    HW1  494   0.879   1.473   0.749 -3.7186  0.3928  2.0331
  165SOL    HW2  495   0.911   1.471   0.574 -0.4513 -0.2994 -0.1200
  166SOL     OW  496   1.471   1.087   1.739 -0.3111 -0.1534 -0.1926
  166SOL    HW1  497   1.405   1.035   1.795  2.2512  0.4321 -1.6943
  166SOL    HW2  498   1.543   1.139   1.796 -1.9453  0.2296 -1.7309
  167SOL     OW  499   0.759   1.907   1.483 -0.6334  0.0343 -0.2517
  167SOL    HW1  500   0.769   1.989   1.548  1.9852  1.5205  0.9236
  167SOL    HW2  501   0.708   1.828   1.524  1.1029  1.2345  1.2400
  168SOL     OW  502   1.620   2.397   0.149 -0.3342 -0.3655  0.4865
  168SOL    HW1  503   1.681   2.440   0.076 -0.2990  4.3611  2.4265
  168SOL    HW2  504   1.672   2.319   0.190 -0.8710 -0.9756 -0.4477
  169SOL     OW  505   0.200   2.561   2.231 -0.2800 -0.9878 -0.2209
  169SOL    HW1  506   0.253   2.493   2.173  0.7590  0.8685  0.6098
  169SOL    HW2  507   0.167   2.529   2.321 -0.1064  1.8003 -0.7187
  170SOL     OW  508   1.224   0.257   1.973 -0.6224 -0.8071  0.2951
  170SOL    HW1  509   1.274   0.223   2.059 -0.7337  0.2411  1.2837
  170SOL    HW2  510   1.219   0.187   1.897  0.1387 -0.2085  0.6480
  171SOL     OW  511   0.222   0.835   2.374  0.2163 -0.0257  0.0189
  171SOL    HW1  512   0.132   0.871   2.410 -1.1410 -0.3438  1.0391
  171SOL    HW2  513   0.224   0.820   2.267  0.4475 -1.3570 -1.2937
  172SOL     OW  514   0.896   1.084   2.927  0.3572 -0.5167 -0.4077
  172SOL    HW1  515   0.993   1.119   2.939 -2.3183  0.5520  1.1207
  172SOL    HW2  516   0.860   1.095   2.831  0.6515 -0.4109  0.9308
  173SOL     OW  517   0.654   2.679   0.067  0.0606 -0.5242  0.2149
  173SOL    HW1  518   0.630   2.755   0.124  0.2904 -1.9199 -3.6795
  173SOL    HW2  519   0.574   2.620   0.047  0.5011  0.1224  1.0153
  174SOL     OW  520   1.402   2.848   1.075  0.1952 -0.4843  0.4819
  174SOL    HW1  521   1.380   2.933   1.029 -0.4769 -1.3649 -0.9577
  174SOL    HW2  522   1.371   2.767   1.017  0.3567 -0.7450  3.2876
  175SOL     OW  523   0.414   0.051   1.669 -0.3021 -0.1252  0.3786
  175SOL    HW1  524   0.479   0.098   1.738  0.0883 -0.8799 -0.2730
  175SOL    HW2  525   0.350   0.115   1.620  1.4295 -1.5701  0.1060
  176SOL     OW  526   2.568   0.378   3.067  0.1438 -0.4202  0.2131
  176SOL    HW1  527   2.580   0.471   3.113 -2.5014  1.4023  2.6339
  176SOL    HW2  528   2.496   0.321   3.106  0.6673  3.6005  2.2968
  177SOL     OW  529   0.342   0.298   0.965 -0.2259  0.4449  0.1916
  177SOL    HW1  530   0.383   0.222   1.020 -2.0841  2.8544  1.4329
  177SOL    HW2  531   0.259   0.324   1.014  2.1175 -0.5306  0.1347
  178SOL     OW  532   0.048   2.673   2.634  0.4209 -0.2643  0.5633
  178SOL    HW1  533  -0.036   2.609   2.642  0.7257 -2.1851  0.5008
  178SOL    HW2  534   0.093   2.705   2.722  0.3786  2.7301 -1.3658
  179SOL     OW  535   0.014   1.696   1.194 -0.1038 -0.4574  0.1443
  179SOL    HW1  536  -0.050   1.774   1.183 -1.5975  2.4371  0.5360
  179SOL    HW2  537  -0.024   1.620   1.244 -1.0415  2.5538  0.2637
  180SOL     OW  538   0.229   1.191   1.868  0.4435 -0.2979  0.3883
  180SOL    HW1  539   0.331   1.189   1.848 -3.6213 -0.0881  0.8758
  180SOL    HW2  540   0.206   1.275   1.922 -0.3834  2.1525 -0.1234
  181SOL     OW  541   3.022   1.835   2.519 -0.3407 -0.2433  0.1542
  181SOL    HW1  542   3.101   1.892   2.474 -0.2782 -0.0320 -4.1501
  181SOL    HW2  543   2.932   1.833   2.470  3.1790  0.2819 -1.6752
  182SOL     OW  544   2.268   1.292   1.163 -0.0921 -0.0249 -0.0977
  182SOL    HW1  545   2.186   1.263   1.103 -0.4368  0.6373 -1.5193
  182SOL    HW2  546   2.299   1.388   1.138  0.4676  2.1952  2.3448
  183SOL     OW  547   1.491   2.240   2.539  0.5636  0.3251  0.9441
  183SOL    HW1  548   1.398   2.187   2.518 -1.2546 -1.6438 -2.3483
  183SOL    HW2  549   1.576   2.185   2.515 -1.0150  0.8472 -0.8219
  184SOL     OW  550   2.066   0.911   0.785  0.0207 -0.6006 -0.5497
  184SOL    HW1  551   1.981   0.962   0.750  0.6043  0.8913 -2.0450
  184SOL    HW2  552   2.037   0.824   0.832 -1.1384  0.1798  1.4488
  185SOL     OW  553   1.576   2.735   2.084  0.6215  0.0456  0.1075
  185SOL    HW1  554   1.550   2.833   2.051 -3.3163  0.9591  1.6133
  185SOL    HW2  555   1.502   2.699   2.146 -0.5747 -0.2240 -2.9211
  186SOL     OW  556   0.056   2.183   1.689 -0.5184  0.6381 -0.3443
  186SOL    HW1  557   0.103   2.272   1.672 -2.0295 -0.7033  2.9038
  186SOL    HW2  558   0.115   2.105   1.723  0.3420  0.6921  1.3843
  187SOL     OW  559   1.389   0.717   1.658 -0.3282 -0.1367  0.2025
  187SOL    HW1  560   1.445   0.722   1.571  1.7302  2.1965  1.4194
  187SOL    HW2  561   1.440   0.743   1.745  0.4806 -0.0698 -1.3061
  188SOL     OW  562   2.787   2.781   1.457 -0.3355 -0.7821 -0.3571
  188SOL    HW1  563   2.751   2.878   1.454 -0.8331 -1.1244  0.8566
  188SOL    HW2  564   2.718   2.718   1.407 -0.8461 -2.2018  1.5007
  189SOL     OW  565   0.839   1.087   1.356 -0.1493  1.0385 -0.2277
  189SOL    HW1  566   0.904   1.153   1.407  2.0241 -0.5780  0.5980
  189SOL    HW2  567   0.786   1.124   1.277 -1.2186 -1.2711  0.1888
  190SOL     OW  568   1.539   1.888   1.594  0.0426  0.2084  0.2343
  190SOL    HW1  569   1.445   1.852   1.589  0.4344 -1.2030 -0.9597
  190SOL    HW2  570   1.559   1.930   1.689 -0.1209  1.4836  1.5728
  191SOL     OW  571   0.969   0.755   1.536  0.3367  0.0879 -0.0719
  191SOL    HW1  572   1.010   0.664   1.559  2.5367  0.6188  0.5212
  191SOL    HW2  573   1.041   0.829   1.534  0.9816  0.3335 -0.7157
  192SOL     OW  574   1.856   2.228   1.117  0.1260 -0.1173 -0.0386
  192SOL    HW1  575   1.795   2.193   1.038  1.0429 -2.0632  0.5549
  192SOL    HW2  576   1.927   2.296   1.079  2.4401 -0.0715 -2.0715
  193SOL     OW  577   0.515   0.608   0.409 -0.3797 -0.3313  0.6475
  193SOL    HW1  578   0.490   0.516   0.452  0.2791  2.3003  0.6736
  193SOL    HW2  579   0.573   0.590   0.324  3.6756  0.3495  1.4363
  194SOL     OW  580   0.304   0.825   1.263  0.4472  0.2022  0.1099
  194SOL    HW1  581   0.236   0.748   1.258 -1.5753 -0.5274  0.3907
  194SOL    HW2  582   0.290   0.900   1.193  1.4784 -0.6320  0.7676
  195SOL     OW  583   1.003   2.909   0.499  0.0069 -0.1580  0.9625
  195SOL    HW1  584   0.981   2.832   0.443  0.2600  1.9445  0.6218
  195SOL    HW2  585   1.094   2.952   0.490 -0.3629  0.9980  1.2421
  196SOL     OW  586   0.254   1.386   1.377 -0.2355 -0.3797 -0.6496
  196SOL    HW1  587   0.290   1.470   1.429  1.6456  0.0636 -0.6373
  196SOL    HW2  588   0.242   1.303   1.443 -1.2376 -0.5368  0.9651
  197SOL     OW  589   0.828   2.032   0.210 -1.0722 -0.2438 -0.0109
  197SOL    HW1  590   0.814   2.009   0.312  0.0057 -0.4614  2.0434
  197SOL    HW2  591   0.878   1.954   0.162 -0.1203 -0.0945 -0.6001
  198SOL     OW  592   0.284   1.246   0.251  0.1816  0.1731 -0.2925
  198SOL    HW1  593   0.188   1.217   0.248  2.2877  1.3451 -2.2448
  198SOL    HW2  594   0.298   1.352   0.254 -1.3672  3.5186 -1.3808
  199SOL     OW  595   2.214   0.348   2.532 -0.0142 -0.2979  0.0643
  199SOL    HW1  596   2.131   0.341   2.596  1.2123 -0.1806 -3.9006
  199SOL    HW2  597   2.302   0.326   2.578  1.3984 -2.5380  1.8237
  200SOL     OW  598   0.046   2.975   0.687  0.3038  0.4343  0.5877
  200SOL    HW1  599  -0.050   2.965   0.646  0.6132  0.2367 -0.4860
  200SOL    HW2  600   0.066   3.065   0.742  0.6639  0.7491  1.3339
  201SOL     OW  601   1.105   0.737   0.645  0.4945  0.0643 -0.4078
  201SOL    HW1  602   1.117   0.805   0.721 -0.8519 -0.1115 -0.8216
  201SOL    HW2  603   1.009   0.740   0.609  1.4519  1.3983  2.6282
  202SOL     OW  604   0.483   1.219   1.829 -0.0163 -0.0877 -0.4298
  202SOL    HW1  605   0.519   1.229   1.735  2.7629 -0.7246  1.4577
  202SOL    HW2  606   0.537   1.152   1.890  1.5073 -2.7367 -0.3399
  203SOL     OW  607   0.722   0.188   1.573 -0.6111  0.4196  0.1190
  203SOL    HW1  608   0.726   0.111   1.503 -0.1556 -1.6349  0.1134
  203SOL    HW2  609   0.772   0.163   1.664  0.9152 -1.7437 -0.3918
  204SOL     OW  610   2.063   1.858   2.983 -0.8655 -0.1002 -0.3124
  204SOL    HW1  611   2.071   1.752   2.999 -0.6843 -3.0939  0.6682
  204SOL    HW2  612   2.021   1.898   2.890 -3.4101  1.0118 -0.9975
  205SOL     OW  613   1.821   1.885   0.024  0.1348 -0.7648 -0.2226
  205SOL    HW1  614   1.903   1.865  -0.033 -0.3782 -1.8634  0.3651
  205SOL    HW2  615   1.775   1.979   0.004 -1.0753 -0.2134  0.3100
  206SOL     OW  616   2.515   2.789   0.316  0.2147  0.3287 -0.0003
  206SOL    HW1  617   2.582   2.708   0.331 -1.7477  1.4027  3.1954
  206SOL    HW2  618   2.558   2.861   0.253 -1.1076 -0.5806  0.1312
  207SOL     OW  619   0.546   1.774   2.922  0.0371 -0.2716  0.1467
  207SOL    HW1  620   0.647   1.745   2.927  0.0041 -0.8151  0.5618
  207SOL    HW2  621   0.479   1.714   2.978  0.8062  2.5422  1.5587
  208SOL     OW  622   1.146   1.547   1.402  0.8954  0.1833  0.1262
  208SOL    HW1  623   1.123   1.590   1.309  0.4314  1.2522 -0.2823
  208SOL    HW2  624   1.228   1.596   1.453  1.4170 -0.4179 -1.5034
  209SOL     OW  625   0.268   0.956   2.999 -0.1424  0.3092  0.3228
  209SOL    HW1  626   0.295   0.912   2.909 -1.5989  1.2894 -1.4946
  209SOL    HW2  627   0.264   0.895   3.083  0.5203 -0.2725 -0.2311
  210SOL     OW  628   1.761   0.460   1.202 -0.0008 -0.1136  0.0167
  210SOL    HW1  629   1.741   0.555   1.175  0.6361  0.2764  0.8252
  210SOL    HW2  630   1.862   0.429   1.183  0.1221 -2.1634 -1.0063
  211SOL     OW  631   2.110   1.051   1.621  0.6713 -0.2868 -0.1405
  211SOL    HW1  632   2.175   0.976   1.640 -1.0848  1.5185  2.1318
  211SOL    HW2  633   2.160   1.139   1.588 -0.0208  0.0222 -1.3692
  212SOL     OW  634   0.049   1.001   1.473  0.0330 -0.2926  0.3790
  212SOL    HW1  635   0.116   1.075   1.504 -1.0420 -0.5436  1.8216
  212SOL    HW2  636   0.073   0.909   1.519  2.7496  2.2759 -0.1549
  213SOL     OW  637   2.757   0.392   0.278  0.0797  0.1137  0.5373
  213SOL    HW1  638   2.829   0.327   0.257 -2.9168  0.1514  5.4278
  213SOL    HW2  639   2.725   0.459   0.206 -0.1623  2.0186  1.6888
  214SOL     OW  640   2.138   0.265   2.289 -0.0121  0.6269  0.4009
  214SOL    HW1  641   2.175   0.294   2.382 -2.6113  0.3698  1.3580
  214SOL    HW2  642   2.134   0.161   2.286 -0.8271  0.9779 -0.1412
  215SOL     OW  643   1.651   2.331   2.041  0.1179  0.9111  0.3361
  215SOL    HW1  644   1.754   2.357   2.064  0.8727 -2.3089  1.6862
  215SOL    HW2  645   1.586   2.399   2.082  0.1563  0.2771 -1.4296
  216SOL     OW  646   2.219   0.564   0.701 -0.2133  0.4999 -1.0351
  216SOL    HW1  647   2.206   0.479   0.636  0.7238  0.3343 -1.3315
  216SOL    HW2  648   2.244   0.649   0.654  3.2353  1.8924  1.0062
  217SOL     OW  649   0.724   2.760   2.488  0.0299  0.1239  0.0780
  217SOL    HW1  650   0.710   2.670   2.533  1.4105 -1.5667 -2.7035
  217SOL    HW2  651   0.762   2.747   2.393 -0.2768 -0.9685  0.2759
  218SOL     OW  652   1.922   1.441   0.066  0.4109  0.3269  0.2891
  218SOL    HW1  653   1.824   1.458   0.031 -2.3736  1.9704 -0.8833
  218SOL    HW2  654   1.926   1.349   0.118 -3.2582 -2.6625 -1.3666
  219SOL     OW  655   2.327   1.279   2.591 -0.2013 -0.1314  0.0128
  219SOL    HW1  656   2.340   1.236   2.501 -0.9844  2.1640 -0.3837
  219SOL    HW2  657   2.358   1.213   2.672  0.9621 -0.9799 -1.8013
  220SOL     OW  658   1.542   0.996   1.237 -0.4844  0.2912  0.3372
  220SOL    HW1  659   1.634   1.034   1.266 -1.3208  0.6148 -2.2855
  220SOL    HW2  660   1.484   1.052   1.172  1.4447  1.1913 -0.8504
  221SOL     OW  661   1.358   1.064   2.187  0.3793  0.1103 -0.3859
  221SOL    HW1  662   1.298   1.113   2.118 -0.7312  0.7462 -2.3750
  221SOL    HW2  663   1.454   1.049   2.154  0.2662  1.2340 -0.9407
  222SOL     OW  664   1.224   0.031   1.174 -0.2623  0.1895 -0.2409
  222SOL    HW1  665   1.289   0.018   1.251  0.6025 -0.1399 -0.4668
  222SOL    HW2  666   1.192   0.130   1.160 -1.4606  0.1463 -0.1794
  223SOL     OW  667   2.816   0.863   2.063 -0.4986  0.2268  0.1644
  223SOL    HW1  668   2.834   0.887   2.161 -0.3320 -1.2631 -1.1996
  223SOL    HW2  669   2.865   0.923   1.998  0.9399 -0.5949  2.6630
  224SOL     OW  670   1.509   0.982   2.738  0.3197  0.3180  0.4569
  224SOL    HW1  671   1.556   0.925   2.659  0.4388  0.7953 -1.7403
  224SOL    HW2  672   1.490   1.083   2.714  1.0759  1.1802 -3.5342
  225SOL     OW  673   2.960   2.781   2.881 -0.1156  0.1413 -0.1139
  225SOL    HW1  674   2.914   2.706   2.823 -0.8959  1.6875 -0.7316
  225SOL    HW2  675   3.008   2.857   2.826 -1.6682 -1.8036 -0.8193
  226SOL     OW  676   2.416   1.572   2.825  0.0232 -0.2424  0.0249
  226SOL    HW1  677   2.460   1.537   2.735 -0.0690 -0.4021  0.6057
  226SOL    HW2  678   2.395   1.498   2.891 -0.2895  0.6936 -1.2899
  227SOL     OW  679   0.842   0.146   3.040 -0.6700  0.1771 -0.3447
  227SOL    HW1  680   0.885   0.082   3.116 -1.6431  0.6126  1.3301
  227SOL    HW2  681   0.841   0.099   2.943  0.7766 -3.6239 -0.7749
  228SOL     OW  682   2.398   0.626   2.849  0.4446 -0.2318  0.6245
  228SOL    HW1  683   2.328   0.636   2.768 -0.3128 -0.3795 -0.3440
  228SOL    HW2  684   2.474   0.558   2.834  0.4131  1.5015 -1.6178
  229SOL     OW  685   0.593   0.507   1.893  0.8182 -0.4421 -0.0755
  229SOL    HW1  686   0.649   0.516   1.801  0.7777 -2.8169 -3.5898
  229SOL    HW2  687   0.603   0.594   1.953 -4.3824  2.5869  2.0438
  230SOL     OW  688   1.920   1.190   2.154 -0.2632  0.1236 -0.7521
  230SOL    HW1  689   1.999   1.258   2.128  2.6644  0.4053  0.7939
  230SOL    HW2  690   1.829   1.243   2.131  1.8472 -0.7593 -1.1337
  231SOL     OW  691   0.658   0.987   2.950 -0.4122 -0.5258 -0.3885
  231SOL    HW1  692   0.748   1.038   2.932 -0.3988  2.2893  0.1293
  231SOL    HW2  693   0.613   1.025   3.038 -1.6177  2.7120  0.5605
  232SOL     OW  694   2.442   0.028   2.765  0.1862 -0.3102  0.7112
  232SOL    HW1  695   2.467  -0.069   2.782 -3.3076  0.5071 -0.8406
  232SOL    HW2  696   2.476   0.060   2.671  0.1940 -2.6259 -0.8009
  233SOL     OW  697   1.701   1.303   1.133  0.0267 -0.1882  0.5427
  233SOL    HW1  698   1.743   1.344   1.044 -1.6895  0.3472 -1.3954
  233SOL    HW2  699   1.722   1.205   1.151 -0.1691  3.3952  1.5321
  234SOL     OW  700   1.602   2.582   1.855 -0.3166  0.1328  0.6049
  234SOL    HW1  701   1.567   2.642   1.935 -0.1978  1.7759  1.3580
  234SOL    HW2  702   1.549   2.497   1.834 -0.3965 -1.4687 -0.5077
  235SOL     OW  703   0.024   3.013   2.889  0.4130 -0.1037 -0.4128
  235SOL    HW1  704   0.101   3.073   2.857 -2.9541  3.0453 -1.0640
  235SOL    HW2  705  -0.034   3.051   2.965 -0.2553 -0.4151 -1.1657
  236SOL     OW  706   2.872   0.715   0.132 -0.4947  0.3688 -0.4499
  236SOL    HW1  707   2.955   0.773   0.170  0.6357  2.3966  0.1165
  236SOL    HW2  708   2.897   0.641   0.059  2.8337  0.0940 -2.0739
  237SOL     OW  709   1.444   1.687   1.046  0.2740  0.7542 -0.2289
  237SOL    HW1  710   1.533   1.642   1.047 -1.4171  0.0129  1.0993
  237SOL    HW2  711   1.426   1.755   1.126 -0.0310 -1.3795  0.8214
  238SOL     OW  712   1.789   1.276   0.823  0.3054 -0.2965  0.0976
  238SOL    HW1  713   1.875   1.285   0.769 -2.8911 -0.9427 -1.3879
  238SOL    HW2  714   1.714   1.326   0.771  1.9525  2.2678 -0.6884
  239SOL     OW  715   2.024   0.249   2.717 -0.5966 -0.2865  0.0109
  239SOL    HW1  716   2.080   0.209   2.796 -2.8240  1.1102 -0.0736
  239SOL    HW2  717   1.946   0.307   2.750  0.7084 -1.3282 -1.6196
  240SOL     OW  718   0.989   0.642   0.306  0.2269 -0.7502  0.2870
  240SOL    HW1  719   0.949   0.566   0.245  1.1230 -3.3745 -4.6546
  240SOL    HW2  720   0.953   0.637   0.405  0.1914  0.9463  0.2844
  241SOL     OW  721   0.599   0.108   0.317  0.5622  0.2200 -0.4161
  241SOL    HW1  722   0.605   0.169   0.237 -0.0792 -1.4508  3.6855
  241SOL    HW2  723   0.581   0.005   0.299 -0.1843 -0.9416 -0.8571
  242SOL     OW  724   0.686   2.468   1.127  0.3213 -0.5044  0.5103
  242SOL    HW1  725   0.649   2.526   1.203 -0.8379  1.8886  0.9118
  242SOL    HW2  726   0.781   2.503   1.090  1.0647 -0.7235 -2.3114
  243SOL     OW  727   1.119   0.615   2.445  0.7428 -0.1561  0.3049
  243SOL    HW1  728   1.039   0.675   2.413 -0.4344 -2.4865 -0.6308
  243SOL    HW2  729   1.085   0.530   2.503 -0.6194 -0.4606  1.0977
  244SOL     OW  730   2.776   1.845   2.353 -0.4106 -0.0128 -0.5979
  244SOL    HW1  731   2.817   1.832   2.256  1.1412  0.7101 -0.2926
  244SOL    HW2  732   2.679   1.817   2.361 -0.2417  1.8070 -1.1078
  245SOL     OW  733   2.481   0.679   2.176 -0.6722 -0.3769  0.0439
  245SOL    HW1  734   2.506   0.765   2.232  1.6038  0.8357  1.8216
  245SOL    HW2  735   2.524   0.590   2.205 -0.0618  2.8005 -1.5692
  246SOL     OW  736   0.234   2.928   1.675 -0.4734 -0.4700 -0.6997
  246SOL    HW1  737   0.179   2.906   1.590 -1.3234 -0.6475 -0.3331
  246SOL    HW2  738   0.316   2.990   1.654 -0.2152  1.5056 -1.6075
  247SOL     OW  739   2.167   0.554   3.054 -0.8713 -0.1114 -0.0693
  247SOL    HW1  740   2.250   0.561   2.999  1.1770  4.4368  0.0607
  247SOL    HW2  741   2.103   0.638   3.042 -0.5835  2.4024  2.6755
  248SOL     OW  742   2.128   1.794   1.586 -0.0296 -0.4376  0.2808
  248SOL    HW1  743   2.190   1.729   1.638  2.0647  0.3431 -0.8540
  248SOL    HW2  744   2.033   1.794   1.627 -1.8914  0.3770  1.7605
  249SOL     OW  745   1.951   1.919   1.931 -0.1314 -0.5304  0.3401
  249SOL    HW1  746   1.923   1.857   1.855 -0.4766 -1.7072  0.7593
  249SOL    HW2  747   2.034   1.978   1.907  0.8479  0.5883 -2.1355
  250SOL     OW  748   1.126   0.748   1.880  0.1949  0.1564  0.3712
  250SOL    HW1  749   1.147   0.661   1.934  0.0566  1.6991 -0.5896
  250SOL    HW2  750   1.162   0.737   1.785 -0.7565  2.1597  1.7614
  251SOL     OW  751   3.042   1.562   2.536  0.2673 -0.1584 -0.5100
  251SOL    HW1  752   3.051   1.668   2.550 -0.6970  1.8978  2.5046
  251SOL    HW2  753   2.940   1.533   2.540 -1.8579  0.1739 -1.2401
  252SOL     OW  754   1.553   0.894   1.522  0.5580  0.1768  0.5192
  252SOL    HW1  755   1.563   0.937   1.429 -1.2778  2.6961 -1.9898
  252SOL    HW2  756   1.539   0.964   1.603  0.6274  1.2672  1.0884
  253SOL     OW  757   0.886   1.537   0.393 -0.0297  0.1164  0.0811
  253SOL    HW1  758   0.955   1.452   0.396 -0.2932 -2.7676  0.3581
  253SOL    HW2  759   0.798   1.507   0.356 -1.2703 -3.9163  1.2044
  254SOL     OW  760   2.065   2.119   1.556 -0.1726 -0.3921 -0.5182
  254SOL    HW1  761   2.043   2.098   1.457  0.8657 -0.8781 -0.4115
  254SOL    HW2  762   1.993   2.085   1.624 -2.1561 -3.4222 -2.0543
  255SOL     OW  763   0.092   1.173   2.926 -0.0259  0.0269  0.0104
  255SOL    HW1  764   0.147   1.258   2.918  0.5929  0.0547  0.0297
  255SOL    HW2  765   0.144   1.096   2.973 -0.1276  1.7513 -0.8027
  256SOL     OW  766   2.810   1.360   1.822 -0.1767  0.2789 -0.4482
  256SOL    HW1  767   2.729   1.413   1.862 -1.2206  0.7162 -0.3668
  256SOL    HW2  768   2.787   1.259   1.807  0.7709  0.1825 -0.9918
  257SOL     OW  769   0.874   0.125   1.803 -0.5752  0.2881 -0.6660
  257SOL    HW1  770   0.923   0.214   1.768  0.8969 -1.2420  2.3989
  257SOL    HW2  771   0.939   0.042   1.790  1.9943  0.0536  2.2583
  258SOL     OW  772   2.943   1.298   0.414 -0.2243  0.8901 -0.0947
  258SOL    HW1  773   2.898   1.384   0.371 -1.5506 -2.1683  1.4819
  258SOL    HW2  774   2.985   1.322   0.505  3.4155 -0.4466 -0.1820
  259SOL     OW  775   0.503   2.934   3.012  0.7747  0.2553  0.2214
  259SOL    HW1  776   0.426   2.870   3.049  0.2105  0.8599  0.2613
  259SOL    HW2  777   0.518   2.916   2.913 -0.5570  1.7627 -2.4576
  260SOL     OW  778   2.725   0.823   2.701 -0.5846 -0.2353 -0.5443
  260SOL    HW1  779   2.629   0.831   2.661 -1.9049 -0.0560 -0.8444
  260SOL    HW2  780   2.735   0.861   2.798  3.0387  0.3246  1.5667
  261SOL     OW  781   2.726   1.378   1.357 -0.0304 -0.3236  0.2361
  261SOL    HW1  782   2.664   1.320   1.296  0.2960  1.2272  1.5960
  261SOL    HW2  783   2.793   1.329   1.415 -2.4438  1.2105  0.8081
  262SOL     OW  784   1.443   2.960   1.989 -0.1448  0.7407 -0.1020
  262SOL    HW1  785   1.467   3.048   1.941  2.1960 -0.4456 -0.2525
  262SOL    HW2  786   1.341   2.934   1.975 -1.1384  1.1417 -2.3122
  263SOL     OW  787   0.882   0.733   2.354 -0.1021  0.2274 -0.5167
  263SOL    HW1  788   0.849   0.631   2.346  0.3363 -3.0260 -0.1664
  263SOL    HW2  789   0.895   0.785   2.262 -0.3298  1.0844 -1.5365
  264SOL     OW  790   2.229   0.780   0.346  0.0469  0.8571 -0.4956
  264SOL    HW1  791   2.138   0.810   0.382  1.3781  0.0200 -1.1894
  264SOL    HW2  792   2.321   0.800   0.386  0.7612 -2.3071 -2.1435
  265SOL     OW  793   0.919   2.276   2.625  0.1343  0.0211  0.6228
  265SOL    HW1  794   0.965   2.319   2.703  1.0673 -1.6453  0.6524
  265SOL    HW2  795   0.855   2.198   2.652 -0.3325 -0.2989  0.3826
  266SOL     OW  796   1.338   1.754   3.094  0.4777 -0.3372 -0.8020
  266SOL    HW1  797   1.323   1.826   3.168 -1.9449 -0.4333  0.5577
  266SOL    HW2  798   1.435   1.727   3.073  2.2048  0.6224  0.4940
  267SOL     OW  799   1.011   3.069   2.373 -0.4558  0.0940  0.2021
  267SOL    HW1  800   0.993   3.027   2.277  0.2661 -1.6033 -0.8153
  267SOL    HW2  801   0.952   3.153   2.390 -1.4634 -0.8932 -2.1008
  268SOL     OW  802   0.636   1.134   1.076 -0.0730  0.1209  0.2078
  268SOL    HW1  803   0.645   1.197   1.158  1.0059 -0.6701  1.1441
  268SOL    HW2  804   0.651   1.191   0.988  0.2153 -1.4966  2.3650
  269SOL     OW  805   2.454   2.457   1.550 -0.4524  0.1758 -0.1594
  269SOL    HW1  806   2.540   2.401   1.565  0.0819 -0.2884 -0.1005
  269SOL    HW2  807   2.408   2.468   1.643 -0.4023  1.7233  0.3034
  270SOL     OW  808   0.131   3.083   1.891 -0.0907  0.0532  0.2714
  270SOL    HW1  809   0.200   3.061   1.818  0.1740  0.8443 -0.1158
  270SOL    HW2  810   0.067   3.004   1.909  0.4335  0.3553 -1.1806
  271SOL     OW  811   0.434   1.434   1.154 -0.9360 -0.1249  0.4429
  271SOL    HW1  812   0.395   1.409   1.063  0.6984  0.6437  1.1011
  271SOL    HW2  813   0.366   1.416   1.226 -1.5777 -1.2060  0.6499
  272SOL     OW  814   1.958   2.855   1.919 -0.2477 -0.1162 -0.3833
  272SOL    HW1  815   1.907   2.810   1.842 -1.2628 -2.3719 -0.1567
  272SOL    HW2  816   2.044   2.912   1.900  0.0049 -2.4627 -0.4364
  273SOL     OW  817   1.387   1.447   2.843  0.6738 -0.0539 -0.1113
  273SOL    HW1  818   1.299   1.503   2.832  1.8244 -0.2732  1.7972
  273SOL    HW2  819   1.404   1.420   2.941 -0.3080  0.6282 -2.6714
  274SOL     OW  820   1.186   0.534   2.027  0.5211  0.0865 -0.4451
  274SOL    HW1  821   1.202   0.433   1.993  0.6722 -1.0143 -0.1405
  274SOL    HW2  822   1.233   0.542   2.118 -0.1702 -1.2605  2.1832
  275SOL     OW  823   0.627   2.085   1.900  0.5597  0.2320 -0.6332
  275SOL    HW1  824   0.577   2.172   1.913  1.0538 -1.4067 -1.0861
  275SOL    HW2  825   0.563   2.010   1.921 -2.2826  0.0772 -0.1927
  276SOL     OW  826   2.168   0.918   2.822 -0.2699  0.3698  0.1056
  276SOL    HW1  827   2.129   0.870   2.744 -0.1606  0.3942  0.6767
  276SOL    HW2  828   2.128   0.893   2.917 -0.8691  2.0793 -0.1723
  277SOL     OW  829   3.071   0.881   0.241  0.5255 -0.0233  0.5289
  277SOL    HW1  830   3.161   0.916   0.207 -1.1132 -1.0305 -0.0167
  277SOL    HW2  831   3.088   0.815   0.317  4.1519  0.9629  0.8747
  278SOL     OW  832   0.235   0.288   3.039 -0.1659  0.2748  0.5773
  278SOL    HW1  833   0.320   0.237   3.065  2.4579 -1.4769 -0.8783
  278SOL    HW2  834   0.241   0.394   3.040  0.2004  2.0544 -1.1746
  279SOL     OW  835   0.108   0.062   0.872 -0.1522 -0.2791 -0.5865
  279SOL    HW1  836   0.131   0.050   0.974  1.1068  1.9417 -0.4674
  279SOL    HW2  837   0.199   0.052   0.820  1.0389  0.2796 -1.1721
  280SOL     OW  838   1.619   2.876   2.566 -0.3354 -0.3651 -0.2382
  280SOL    HW1  839   1.717   2.916   2.559  1.6938  1.0776  0.9436
  280SOL    HW2  840   1.544   2.948   2.550 -2.1681 -0.4254  0.8158
  281SOL     OW  841   0.564   0.972   2.280  0.1106 -0.0679 -0.6123
  281SOL    HW1  842   0.575   0.878   2.235 -0.6855  0.6105  0.4783
  281SOL    HW2  843   0.516   0.969   2.373  1.8473  1.2862 -1.9022
  282SOL     OW  844   1.736   2.391   0.509  1.0146  0.2526 -0.1939
  282SOL    HW1  845   1.703   2.315   0.446  2.9167 -3.2572  0.0681
  282SOL    HW2  846   1.692   2.482   0.497 -0.0326  2.3135  1.9232
  283SOL     OW  847   1.146   0.931   0.827 -0.3393 -0.4250 -0.0000
  283SOL    HW1  848   1.199   0.876   0.899  0.3567 -1.6129  2.0418
  283SOL    HW2  849   1.069   0.989   0.871 -1.2231  1.4588  0.0416
  284SOL     OW  850   2.348   2.774   2.310 -0.3769 -0.0314  0.2154
  284SOL    HW1  851   2.424   2.824   2.268  2.9266  0.2260  2.0603
  284SOL    HW2  852   2.308   2.834   2.387 -0.4091 -1.4630  0.4407
  285SOL     OW  853   1.387   3.042   2.522 -0.4637  0.8460  0.7831
  285SOL    HW1  854   1.379   3.030   2.420 -1.8018  1.3420 -2.3985
  285SOL    HW2  855   1.293   3.061   2.563  0.2873  1.9562 -1.8840
  286SOL     OW  856   0.448   0.424   0.736  0.2889  0.0882  0.4595
  286SOL    HW1  857   0.406   0.370   0.812  1.5734 -0.9931 -2.0929
  286SOL    HW2  858   0.472   0.358   0.661  0.3935  1.5481  1.4513
  287SOL     OW  859   0.149   1.313   2.542 -0.2366  0.3443 -0.3332
  287SOL    HW1  860   0.097   1.237   2.584 -0.5293  0.7401 -0.5933
  287SOL    HW2  861   0.091   1.398   2.514  0.3904  1.8584  2.3567
  288SOL     OW  862   1.537   2.656   1.568 -0.1195  0.7396  0.2919
  288SOL    HW1  863   1.567   2.647   1.667 -1.7573  2.1354 -0.1406
  288SOL    HW2  864   1.593   2.600   1.502  2.6505 -3.8390 -0.8614
  289SOL     OW  865   0.653   2.695   0.813 -0.4095 -0.0636  0.2046
  289SOL    HW1  866   0.696   2.769   0.750 -1.5050 -1.1000  1.0793
  289SOL    HW2  867   0.648   2.734   0.907 -2.8778  2.5735  0.8953
  290SOL     OW  868   2.833   1.078   1.681  0.1334 -0.2561  1.0663
  290SOL    HW1  869   2.772   1.022   1.617 -3.1053  0.4362 -0.3385
  290SOL    HW2  870   2.878   1.027   1.759 -1.9830 -2.7345  1.2484
  291SOL     OW  871   1.942   0.069   0.057 -0.2933  0.2370 -0.1507
  291SOL    HW1  872   1.958   0.055   0.161  3.4173 -0.1547  2.0190
  291SOL    HW2  873   1.992   0.157   0.031  0.3250  1.1257  2.6945
  292SOL     OW  874   2.962   1.216   3.078 -0.0512  0.7121  0.2191
  292SOL    HW1  875   2.880   1.253   3.023  0.7398  2.4754  1.1816
  292SOL    HW2  876   3.047   1.217   3.019 -1.8391 -0.6676  3.5409
  293SOL     OW  877   0.581   2.097   0.159 -0.2203 -0.6295 -0.0387
  293SOL    HW1  878   0.575   2.176   0.230  1.8689  2.4820  1.5953
  293SOL    HW2  879   0.654   2.030   0.181 -1.7600 -0.1314  1.8924
  294SOL     OW  880   1.717   2.218   1.764  0.3005 -0.4685  0.1340
  294SOL    HW1  881   1.699   2.260   1.857  1.9906 -0.1438 -0.2819
  294SOL    HW2  882   1.690   2.292   1.692 -0.4010  0.8752 -0.2121
  295SOL     OW  883   1.049   1.011   0.502  0.6865  0.0155  0.8396
  295SOL    HW1  884   1.140   1.001   0.553  1.4405  1.3675 -1.4496
  295SOL    HW2  885   0.970   1.011   0.562  0.6182  1.0614  1.1796
  296SOL     OW  886   1.278   2.072   2.500 -0.5524 -0.2303 -0.1091
  296SOL    HW1  887   1.263   2.091   2.403 -1.2317 -1.5581  2.8889
  296SOL    HW2  888   1.261   1.972   2.525  0.4124  0.3206  1.5262
  297SOL     OW  889   1.462   0.599   1.400 -0.2732  0.4143 -0.0632
  297SOL    HW1  890   1.418   0.506   1.410 -0.0981  0.9099  1.5468
  297SOL    HW2  891   1.563   0.592   1.417  1.0078 -1.5063  1.3234
  298SOL     OW  892   0.508   1.327   2.945  0.2528  1.2388  0.3330
  298SOL    HW1  893   0.484   1.262   3.027 -0.0713 -0.4403 -0.3828
  298SOL    HW2  894   0.566   1.270   2.881 -1.6553 -2.0585  1.1593
  299SOL     OW  895   0.482   0.284   1.371  0.1541  0.2811 -0.7764
  299SOL    HW1  896   0.482   0.387   1.346 -0.6222 -2.2131 -0.0288
  299SOL    HW2  897   0.527   0.253   1.458  0.7276  2.7858 -2.6528
  300SOL     OW  898   1.191   1.806   2.867 -0.0875  0.2990 -0.4594
  300SOL    HW1  899   1.175   1.710   2.838  2.9047 -0.2455 -2.7304
  300SOL    HW2  900   1.258   1.812   2.946  1.4026  2.9184  1.3311
  301SOL     OW  901   0.480   0.272   0.510 -0.1333 -0.2664  0.0098
  301SOL    HW1  902   0.387   0.239   0.534  2.0977 -0.0709  1.9930
  301SOL    HW2  903   0.510   0.231   0.420  1.7322  2.8077 -0.0302
  302SOL     OW  904   1.199   2.386   2.267 -0.0417  0.4344  0.3173
  302SOL    HW1  905   1.123   2.405   2.339 -1.7926  1.6111  4.6152
  302SOL    HW2  906   1.214   2.287   2.245  0.3177  3.4086  1.4953
  303SOL     OW  907   0.974   2.330   0.802  0.2463  0.1388  0.2881
  303SOL    HW1  908   1.019   2.388   0.726 -0.7058 -0.3030 -0.3042
  303SOL    HW2  909   0.989   2.365   0.901  2.6856  1.1703  0.8555
  304SOL     OW  910   0.158   2.049   0.628 -0.4420 -0.2608 -0.7529
  304SOL    HW1  911   0.179   1.991   0.547  1.1824  1.2287  0.5930
  304SOL    HW2  912   0.115   2.140   0.608  3.5720  2.2492 -2.3208
  305SOL     OW  913   1.587   0.913   0.597  0.3931  0.5720  0.0114
  305SOL    HW1  914   1.558   0.919   0.495 -0.6959 -0.4895 -2.5306
  305SOL    HW2  915   1.638   0.828   0.625 -2.2142 -0.8093  2.4650
  306SOL     OW  916   0.454   1.840   1.891 -0.5582  0.5427 -0.1213
  306SOL    HW1  917   0.538   1.795   1.845 -0.7065 -0.4202 -1.6568
  306SOL    HW2  918   0.448   1.807   1.993 -1.1610 -0.7209  3.2857
  307SOL     OW  919   3.076   0.868   2.561 -0.6948  0.7746 -0.8796
  307SOL    HW1  920   3.078   0.962   2.607 -1.4930 -1.9098  3.1100
  307SOL    HW2  921   3.032   0.785   2.607 -0.5231 -1.6573 -2.9258
  308SOL     OW  922   1.527   2.705   2.856  0.2704 -0.4158  0.5428
  308SOL    HW1  923   1.545   2.656   2.772 -0.5224 -0.3094 -0.1843
  308SOL    HW2  924   1.473   2.645   2.924 -0.3777  1.6936 -1.7426
  309SOL     OW  925   1.219   0.072   1.784  0.5981  0.2538 -0.0935
  309SOL    HW1  926   1.320   0.068   1.793 -1.6148  0.7342 -2.3948
  309SOL    HW2  927   1.185   0.110   1.694  0.7355  1.8063  1.7097
  310SOL     OW  928   1.507   2.543   0.678 -0.2137  0.0726  0.0055
  310SOL    HW1  929   1.447   2.577   0.753 -1.3571  0.3378 -0.2846
  310SOL    HW2  930   1.581   2.606   0.652 -0.2513 -0.0289  1.9138
  311SOL     OW  931   1.201   0.913   1.595 -0.2576  0.4926 -0.3669
  311SOL    HW1  932   1.266   0.844   1.628  0.4214  0.5864  0.1366
  311SOL    HW2  933   1.248   0.992   1.540  1.3039  3.6931  2.8239
  312SOL     OW  934   1.631   0.665   0.991 -0.7290 -0.2963 -0.4994
  312SOL    HW1  935   1.584   0.750   0.961 -1.5121 -0.3199  1.8828
  312SOL    HW2  936   1.572   0.582   0.986  0.3640  0.0838 -0.5200
  313SOL     OW  937   1.568   1.411   0.686  0.6055 -0.1331  0.4480
  313SOL    HW1  938   1.491   1.432   0.750  0.8554  0.9937  0.1123
  313SOL    HW2  939   1.551   1.326   0.623 -0.8264 -2.8279 -0.1892
  314SOL     OW  940   3.002   0.035   0.024  0.1755  0.1337 -1.1400
  314SOL    HW1  941   2.997   0.103   0.101  0.5686 -3.0251 -1.2748
  314SOL    HW2  942   2.913  -0.019   0.020  1.1463  1.2753 -3.4951
  315SOL     OW  943   1.215   0.205   2.808  0.2085 -0.0862 -0.0558
  315SOL    HW1  944   1.166   0.122   2.780 -1.7148  0.3930 -0.8371
  315SOL    HW2  945   1.284   0.187   2.887  0.2725  0.6057 -0.7303
  316SOL     OW  946   1.708   2.089   0.925  0.5515 -0.2416 -0.4894
  316SOL    HW1  947   1.633   2.073   0.998  0.9142 -1.7391 -0.0633
  316SOL    HW2  948   1.698   2.177   0.865 -0.3359 -0.5328  1.5437
  317SOL     OW  949   1.110   0.710   2.861  0.4941 -0.1248  0.3727
  317SOL    HW1  950   1.036   0.738   2.932 -0.8576 -0.9414 -1.9517
  317SOL    HW2  951   1.094   0.615   2.828 -2.4440  3.0002 -0.7299
  318SOL     OW  952   1.335   3.038   2.251 -0.5055  0.4664 -0.2119
  318SOL    HW1  953   1.327   3.144   2.238  1.1980  2.9806 -2.5101
  318SOL    HW2  954   1.371   2.990   2.160  0.6370 -2.4336 -2.2240
  319SOL     OW  955   0.640   2.446   2.926  0.0550  0.2250  0.0364
  319SOL    HW1  956   0.589   2.419   3.016 -0.5361  2.3181  0.5800
  319SOL    HW2  957   0.739   2.422   2.935  0.0727  2.1250  0.9987
  320SOL     OW  958   1.658   2.174   0.308  0.3240  0.4361 -0.0803
  320SOL    HW1  959   1.761   2.149   0.325  4.3881  0.5243  2.7974
  320SOL    HW2  960   1.595   2.106   0.352  1.0302  0.9802  0.7327
  321SOL     OW  961   1.677   2.667   0.483 -0.1043  0.2613  0.0573
  321SOL    HW1  962   1.586   2.701   0.448  1.6962 -0.2112 -1.7303
  321SOL    HW2  963   1.759   2.699   0.433 -1.2282 -0.8891 -0.1756
  322SOL     OW  964   2.532   1.138   2.307 -0.3069  0.1886  0.1499
  322SOL    HW1  965   2.632   1.159   2.299  0.1086  0.1744  0.7731
  322SOL    HW2  966   2.517   1.037   2.311  1.1700  0.1162  0.3124
  323SOL     OW  967   1.051   2.641   0.832  0.9084 -0.4404  0.1590
  323SOL    HW1  968   1.060   2.603   0.734  0.8693 -1.3793  2.3723
  323SOL    HW2  969   1.082   2.739   0.843 -1.9184  1.0113 -1.5864
  324SOL     OW  970   0.238   2.530   2.510 -0.0931  0.6636  0.1678
  324SOL    HW1  971   0.282   2.449   2.557  3.0607  1.9741 -2.0773
  324SOL    HW2  972   0.161   2.582   2.562 -1.5144 -2.4156 -0.3156
  325SOL     OW  973   1.256   3.033   0.456 -0.3023  0.2175  0.2933
  325SOL    HW1  974   1.258   3.054   0.355 -3.4323 -1.6941 -0.5661
  325SOL    HW2  975   1.267   3.118   0.516  0.4653 -0.2136 -0.2097
  326SOL     OW  976   2.444   0.773   3.090 -0.2323  0.5669 -0.2954
  326SOL    HW1  977   2.402   0.716   3.013 -2.2309  0.9765  0.1534
  326SOL    HW2  978   2.496   0.714   3.157  0.9307  1.7251 -1.0531
  327SOL     OW  979   2.855   0.332   0.538 -0.1113  0.0043  0.7424
  327SOL    HW1  980   2.796   0.361   0.456 -1.3800 -1.3284 -0.6421
  327SOL    HW2  981   2.796   0.297   0.617 -0.1990 -0.2987 -1.2143
  328SOL     OW  982   2.507   0.619   0.398  0.1720 -0.7267 -0.2754
  328SOL    HW1  983   2.517   0.714   0.433 -0.1198 -1.8720  3.6533
  328SOL    HW2  984   2.539   0.556   0.472 -3.5052  1.8455  1.1151
  329SOL     OW  985   2.984   3.002   2.141 -0.1762  0.0092 -0.4834
  329SOL    HW1  986   2.986   2.957   2.235  0.0227  0.8475 -0.3536
  329SOL    HW2  987   3.019   3.103   2.142  1.1284 -0.7540 -0.8461
  330SOL     OW  988   0.569   0.153   1.850  0.3354 -0.2165 -0.6904
  330SOL    HW1  989   0.666   0.181   1.827 -0.4988 -0.5485  0.5075
  330SOL    HW2  990   0.571   0.078   1.926 -2.5104  0.2693 -1.0900
  331SOL     OW  991   2.971   1.938   1.121 -0.0522 -0.1500  0.3279
  331SOL    HW1  992   2.999   2.010   1.052 -0.0728 -0.8711  0.2607
  331SOL    HW2  993   2.889   1.958   1.182  0.1936 -0.7423 -0.3602
  332SOL     OW  994   0.442   1.137   0.054  0.4259  0.3291 -0.9696
  332SOL    HW1  995   0.373   1.072   0.010  0.8501 -1.1951 -0.3189
  332SOL    HW2  996   0.398   1.205   0.121 -0.4498 -2.9905  1.5497
  333SOL     OW  997   2.859   1.053   0.308 -0.2707 -0.4808 -0.1714
  333SOL    HW1  998   2.897   1.141   0.356 -1.0762  0.3060  1.2530
  333SOL    HW2  999   2.935   0.994   0.268  1.8602  0.3932 -0.3652
  334SOL     OW 1000   1.691   1.214   1.845  0.1664  0.5487 -0.4396
  334SOL    HW1 1001   1.785   1.172   1.828 -0.1346  2.5960  0.2227
  334SOL    HW2 1002   1.689   1.290   1.920  0.7059  1.4852  1.4629
  335SOL     OW 1003   1.970   2.738   2.622 -0.4409  0.4786  0.1981
  335SOL    HW1 1004   1.904   2.675   2.666  1.3214 -0.4441  0.1372
  335SOL    HW2 1005   1.997   2.814   2.681 -1.9492 -0.7931 -0.7360
  336SOL     OW 1006   0.240   0.078   2.851 -0.1798 -0.1688 -0.0709
  336SOL    HW1 1007   0.324   0.087   2.796 -0.5632  0.6616  1.2857
  336SOL    HW2 1008   0.242   0.140   2.932 -0.0419 -0.2181  2.3257
  337SOL     OW 1009   0.917   2.803   2.807 -0.2107 -0.3255  0.0521
  337SOL    HW1 1010   0.945   2.752   2.894  0.8265 -1.1938  1.4953
  337SOL    HW2 1011   0.994   2.812   2.736  1.1858  0.4936 -1.7110
  338SOL     OW 1012   0.027   1.036   0.682 -0.8708 -0.0777 -0.1169
  338SOL    HW1 1013  -0.074   1.027   0.690  1.5852  1.4731 -0.6425
  338SOL    HW2 1014   0.058   1.131   0.679 -2.2524 -2.3382 -0.0422
  339SOL     OW 1015   1.706   1.363   2.093 -0.0230 -0.0082  0.3013
  339SOL    HW1 1016   1.607   1.354   2.126  2.5670 -1.5354 -0.6240
  339SOL    HW2 1017   1.745   1.454   2.124 -1.5643  1.0716 -1.1589
  340SOL     OW 1018   2.362   0.719   1.200  0.0742 -0.1221 -0.2370
  340SOL    HW1 1019   2.262   0.739   1.201  1.2002 -1.8390 -0.2505
  340SOL    HW2 1020   2.394   0.636   1.145 -1.0054 -0.2065 -1.5569
  341SOL     OW 1021   1.934   2.113   0.339  0.0702 -0.7890 -0.6204
  341SOL    HW1 1022   1.940   2.170   0.252  0.7053 -2.1280 -0.5875
  341SOL    HW2 1023   2.024   2.084   0.375 -2.0485 -0.9048 -2.4971
  342SOL     OW 1024   2.199   2.089   2.742  0.3292 -0.1482 -0.2650
  342SOL    HW1 1025   2.250   2.007   2.781  0.6306  2.3112  0.6935
  342SOL    HW2 1026   2.097   2.065   2.731 -1.4562 -1.5128 -0.2014
  343SOL     OW 1027   0.388   0.805   2.752  0.7680  0.4638  0.3191
  343SOL    HW1 1028   0.403   0.839   2.657  1.8321  0.1468 -0.8580
  343SOL    HW2 1029   0.461   0.752   2.796 -2.6835  2.1062 -0.4106
  344SOL     OW 1030   1.950   1.393   0.447  0.0013  0.2232 -0.5524
  344SOL    HW1 1031   1.968   1.334   0.364 -0.5211 -2.1141 -1.8058
  344SOL    HW2 1032   1.857   1.435   0.439 -0.7192  0.5391 -1.0701
  345SOL     OW 1033   1.372   2.273   2.888  0.5441  0.2247 -0.4706
  345SOL    HW1 1034   1.301   2.199   2.861  2.1597  1.4340 -0.3152
  345SOL    HW2 1035   1.463   2.249   2.843 -0.4698 -0.6119  0.5073
  346SOL     OW 1036   2.331   0.899   1.422  0.4041  0.0283 -0.2538
  346SOL    HW1 1037   2.302   1.002   1.416 -1.1603  0.1428  0.0417
  346SOL    HW2 1038   2.315   0.854   1.329 -0.2714  1.2444  0.8451
  347SOL     OW 1039   0.715   2.776   1.464  0.0952  0.4316 -0.2820
  347SOL    HW1 1040   0.677   2.731   1.549  0.2646 -0.7715 -0.4019
  347SOL    HW2 1041   0.660   2.863   1.452 -0.1484 -1.7117 -1.0157
  348SOL     OW 1042   0.157   0.675   2.818  0.3770  0.2138  0.0309
  348SOL    HW1 1043   0.067   0.712   2.787 -0.6540 -4.0189 -1.4541
  348SOL    HW2 1044   0.235   0.743   2.794 -5.4603  0.1740  0.8079
  349SOL     OW 1045   1.806   0.411   2.812  0.1735 -0.1187  0.0925
  349SOL    HW1 1046   1.785   0.488   2.742  1.4390 -0.4088 -4.1681
  349SOL    HW2 1047   1.795   0.433   2.912  0.9550 -0.1650  0.3848
  350SOL     OW 1048   1.536   0.450   0.369 -0.3101  0.1649  0.4300
  350SOL    HW1 1049   1.611   0.462   0.442 -0.2520  1.8414  1.2249
  350SOL    HW2 1050   1.521   0.545   0.327  1.0117 -0.0629 -0.4441
  351SOL     OW 1051   0.949   0.844   2.105  0.0336 -0.1987  0.7154
  351SOL    HW1 1052   0.963   0.945   2.092  0.4480 -2.7006 -1.5190
  351SOL    HW2 1053   0.982   0.781   2.027  0.4116  1.2139 -1.0967
  352SOL     OW 1054   2.023   1.282   0.688 -0.2238 -0.3767  0.2847
  352SOL    HW1 1055   1.990   1.309   0.593 -0.6147 -1.3501  0.1499
  352SOL    HW2 1056   2.114   1.337   0.712  3.9196  1.6766 -1.2940
  353SOL     OW 1057   2.178   2.917   1.078  0.8481 -0.0385 -0.2286
  353SOL    HW1 1058   2.256   2.876   1.127 -0.3149 -0.3303  1.3503
  353SOL    HW2 1059   2.105   2.847   1.063 -0.5253  0.7277 -1.5164
  354SOL     OW 1060   0.241   1.400   2.877 -0.5014 -0.1046 -0.8002
  354SOL    HW1 1061   0.225   1.442   2.783  2.2523 -2.9764  0.3658
  354SOL    HW2 1062   0.346   1.381   2.893  1.6970  3.1609 -0.5004
  355SOL     OW 1063   0.490   1.534   0.484 -0.1948 -0.0732 -0.1616
  355SOL    HW1 1064   0.496   1.638   0.501  1.0443  0.3414 -1.6922
  355SOL    HW2 1065   0.558   1.480   0.542 -2.4976 -2.8531  1.0009
  356SOL     OW 1066   0.944   0.280   2.077 -0.0437 -0.0270 -0.2004
  356SOL    HW1 1067   1.044   0.288   2.056 -1.3507 -0.6278 -0.0125
  356SOL    HW2 1068   0.910   0.193   2.027 -2.7518 -2.5127 -0.3503
  357SOL     OW 1069   1.003   1.290   0.394 -0.5292  0.0084  0.3301
  357SOL    HW1 1070   0.975   1.195   0.361  0.2331  1.9791 -2.3027
  357SOL    HW2 1071   1.037   1.288   0.492  0.6376  0.9838  0.0679
  358SOL     OW 1072   1.703   1.506   0.456  0.3637 -0.1393 -0.2182
  358SOL    HW1 1073   1.656   1.478   0.545  0.1017 -1.2759 -0.2409
  358SOL    HW2 1074   1.639   1.488   0.375 -0.4163 -2.3915 -0.4149
  359SOL     OW 1075   1.586   2.753   0.061 -0.1109  0.2880  0.3193
  359SOL    HW1 1076   1.537   2.675   0.099  0.7838 -0.8000 -1.8703
  359SOL    HW2 1077   1.530   2.844   0.055 -3.1020 -0.6195 -0.9411
  360SOL     OW 1078   0.873   0.616   0.537 -0.4467  0.1277  0.6406
  360SOL    HW1 1079   0.782   0.621   0.589 -0.5368 -1.5062 -0.0719
  360SOL    HW2 1080   0.919   0.527   0.561 -1.6730  1.3697  0.6691
  361SOL     OW 1081   1.194   1.374   0.696  0.2651 -0.6593  0.0671
  361SOL    HW1 1082   1.253   1.425   0.760 -0.5511 -1.2682 -2.1996
  361SOL    HW2 1083   1.097   1.412   0.695 -1.2557  3.3838  0.2376
  362SOL     OW 1084   1.337   1.795   0.786 -0.2011  0.9392  0.1826
  362SOL    HW1 1085   1.344   1.767   0.888 -0.7393 -1.2214  0.3481
  362SOL    HW2 1086   1.427   1.825   0.748 -0.5773 -0.3057  1.7641
  363SOL     OW 1087   1.203   1.272   2.019  0.1495  0.1153 -0.3166
  363SOL    HW1 1088   1.237   1.295   2.114  1.9180  2.0884 -1.6857
  363SOL    HW2 1089   1.220   1.344   1.945 -1.7053 -0.1329 -2.3705
  364SOL     OW 1090   0.516   2.345   1.925 -0.3426 -0.4357  0.2443
  364SOL    HW1 1091   0.418   2.377   1.940 -0.9834  0.6671 -1.1609
  364SOL    HW2 1092   0.550   2.360   1.824  2.6711  0.1350  1.1097
  365SOL     OW 1093   1.026   1.866   1.393  0.0951 -0.1582  0.1536
  365SOL    HW1 1094   0.925   1.877   1.424 -0.3853 -3.9120  0.3440
  365SOL    HW2 1095   1.038   1.798   1.315  1.9570  1.9455  1.2950
  366SOL     OW 1096   2.803   2.072   0.488 -0.6078  0.1624 -0.3228
  366SOL    HW1 1097   2.704   2.078   0.483  0.3146 -0.0768  0.4745
  366SOL    HW2 1098   2.837   1.983   0.439  0.4726 -1.5910  0.0308
  367SOL     OW 1099   0.874   1.141   0.169  0.5858 -0.1483 -0.2183
  367SOL    HW1 1100   0.879   1.041   0.196  0.3159 -0.0243  2.0796
  367SOL    HW2 1101   0.915   1.170   0.077  1.5831 -0.0364 -0.2793
  368SOL     OW 1102   1.486   0.571   0.708  0.1705 -0.4377  0.1533
  368SOL    HW1 1103   1.405   0.581   0.640 -1.0676  0.8086 -0.2932
  368SOL    HW2 1104   1.569   0.635   0.685 -1.7438  0.7536 -1.6344
  369SOL     OW 1105   0.236   1.725   0.063 -0.4778  0.4399 -0.2345
  369SOL    HW1 1106   0.306   1.786   0.113  0.8186  3.0532 -1.2549
  369SOL    HW2 1107   0.153   1.715   0.120  1.6651  0.7491  0.4171
  370SOL     OW 1108   0.458   2.095   1.046  0.0545 -0.2397  0.1525
  370SOL    HW1 1109   0.487   2.192   1.012  0.2305  0.6887 -1.7121
  370SOL    HW2 1110   0.367   2.067   1.010  2.3327 -0.8768 -2.4301
  371SOL     OW 1111   2.875   2.214   2.713 -0.3259 -0.5285 -0.2524
  371SOL    HW1 1112   2.861   2.172   2.802 -1.9172 -0.8451  0.1914
  371SOL    HW2 1113   2.965   2.267   2.711 -0.9525  0.4989 -0.9786
  372SOL     OW 1114   1.077   1.957   1.064  0.2414  0.1473  1.1391
  372SOL    HW1 1115   0.992   2.017   1.074 -2.2029  0.4358 -0.8853
  372SOL    HW2 1116   1.142   1.998   0.990  0.0569  2.5867 -0.7325
  373SOL     OW 1117   1.957   2.008   0.907 -0.1083  0.2880 -0.1468
  373SOL    HW1 1118   2.010   1.987   0.992  1.5970  1.6393 -0.8647
  373SOL    HW2 1119   1.858   2.029   0.925 -0.3309  0.9696  0.8048
  374SOL     OW 1120   1.775   0.463   0.574  0.0962  0.0480 -0.1293
  374SOL    HW1 1121   1.804   0.420   0.658  1.2452  1.2062 -0.7984
  374SOL    HW2 1122   1.839   0.461   0.491 -1.9781  2.7985  3.1048
  375SOL     OW 1123   2.368   2.181   1.108  0.3655 -0.0563  0.4612
  375SOL    HW1 1124   2.436   2.181   1.029 -0.5336  0.9624 -2.0066
  375SOL    HW2 1125   2.406   2.167   1.201  2.0842  1.0595  0.3749
  376SOL     OW 1126   3.001   0.599   1.426  0.2424 -0.4788  0.3606
  376SOL    HW1 1127   3.036   0.673   1.493 -0.1404  0.6234  0.6794
  376SOL    HW2 1128   2.896   0.588   1.419 -0.2934  0.2625 -1.3679
  377SOL     OW 1129   2.224   2.821   0.342 -0.1100  0.2926 -0.0786
  377SOL    HW1 1130   2.208   2.911   0.386 -0.9157 -0.0713  0.1832
  377SOL    HW2 1131   2.309   2.811   0.280 -2.5911 -0.9172 -1.3759
  378SOL     OW 1132   1.775   1.822   2.685  0.4461 -0.9546 -0.1598
  378SOL    HW1 1133   1.676   1.803   2.704  4.4270 -1.8792  0.7858
  378SOL    HW2 1134   1.832   1.737   2.695  0.3688  1.1545 -0.8511
  379SOL     OW 1135   0.883   0.129   2.726  0.3998 -0.0191  0.0840
  379SOL    HW1 1136   0.842   0.035   2.709 -2.5563  2.1685  0.6645
  379SOL    HW2 1137   0.831   0.204   2.673 -0.4660  2.8396 -2.2275
  380SOL     OW 1138   1.508   1.196   0.521 -0.2598 -0.2522  0.3101
  380SOL    HW1 1139   1.404   1.187   0.523  4.1825 -0.5692 -0.7718
  380SOL    HW2 1140   1.550   1.111   0.561  1.3574  1.2122 -1.5187
  381SOL     OW 1141   1.326   1.168   1.522  0.4837 -0.8126 -0.0630
  381SOL    HW1 1142   1.394   1.216   1.461  0.5046 -2.0049 -0.4870
  381SOL    HW2 1143   1.362   1.146   1.619 -0.1377 -0.6321 -0.4833
  382SOL     OW 1144   1.795   0.811   0.219  0.7116  0.3682 -0.4306
  382SOL    HW1 1145   1.812   0.794   0.118 -1.4697 -1.2282 -1.3041
  382SOL    HW2 1146   1.880   0.832   0.277  1.6727  1.2627  0.9074
  383SOL     OW 1147   2.584   0.969   1.498  0.7782  0.5536 -0.3358
  383SOL    HW1 1148   2.487   0.945   1.454  1.1312  0.7279  0.0773
  383SOL    HW2 1149   2.658   0.962   1.429 -0.3435  0.5228 -0.4544
  384SOL     OW 1150   0.912   2.263   0.097  0.4187 -0.2066  0.5230
  384SOL    HW1 1151   0.875   2.342   0.150 -0.1249  1.2759 -2.5202
  384SOL    HW2 1152   0.880   2.166   0.129 -1.5329 -0.7608  0.3912
  385SOL     OW 1153   2.991   1.984   1.798 -0.1586  0.4540 -0.4709
  385SOL    HW1 1154   3.070   2.046   1.778  0.0630 -1.0580  2.2873
  385SOL    HW2 1155   3.018   1.889   1.755 -2.8030  0.5304 -0.0556
  386SOL     OW 1156   0.444   1.140   0.468  0.6466 -0.5693  0.2951
  386SOL    HW1 1157   0.451   1.037   0.482 -2.3606  1.3677  1.7875
  386SOL    HW2 1158   0.390   1.172   0.388 -0.2727  2.0079  0.1775
  387SOL     OW 1159   1.002   0.358   1.675 -0.0673  0.0613  0.0223
  387SOL    HW1 1160   1.047   0.451   1.689 -1.0028  0.7984 -0.1462
  387SOL    HW2 1161   1.013   0.318   1.583 -0.6662  1.4678  4.2879
  388SOL     OW 1162   1.226   2.633   1.789  0.1183 -0.3255  0.2678
  388SOL    HW1 1163   1.223   2.621   1.683 -1.3954 -0.6541 -3.8582
  388SOL    HW2 1164   1.281   2.566   1.845 -0.5427  0.0642  2.0214
  389SOL     OW 1165   0.202   3.090   1.142 -0.2196 -0.3248  0.1524
  389SOL    HW1 1166   0.143   3.108   1.226 -4.4407  0.4472  0.2950
  389SOL    HW2 1167   0.218   2.987   1.129 -2.4005 -0.8592  0.3320
  390SOL     OW 1168   1.055   0.931   1.224 -0.2316 -0.5377 -0.0841
  390SOL    HW1 1169   1.155   0.909   1.248  2.0243  2.8497 -0.0603
  390SOL    HW2 1170   0.988   0.955   1.299  0.6490 -1.6702 -0.4575
  391SOL     OW 1171   2.042   1.166   1.031 -0.1808  0.3597 -0.3147
  391SOL    HW1 1172   1.973   1.106   1.078 -4.1910  0.6339 -0.6196
  391SOL    HW2 1173   2.098   1.124   0.956 -0.8876  3.7557  0.7557
  392SOL     OW 1174   0.945   2.651   3.045  0.0434 -0.3120 -0.3103
  392SOL    HW1 1175   0.848   2.647   3.069  0.7162 -0.5822 -2.0623
  392SOL    HW2 1176   0.996   2.718   3.103 -0.7078  0.8483  0.0416
  393SOL     OW 1177   0.394   0.492   2.098  0.0599 -0.0758  0.2040
  393SOL    HW1 1178   0.299   0.456   2.079 -0.7138 -0.0412  0.4007
  393SOL    HW2 1179   0.470   0.467   2.027  0.4771 -0.8709 -2.2026
  394SOL     OW 1180   2.922   1.823   2.797  0.3521 -0.1305 -0.0118
  394SOL    HW1 1181   3.015   1.812   2.837  1.0676  0.8324 -0.0398
  394SOL    HW2 1182   2.933   1.859   2.699  0.9085 -0.1328  0.2319
  395SOL     OW 1183   1.575   1.911   0.706  0.3481 -0.1992 -0.2379
  395SOL    HW1 1184   1.643   1.856   0.647 -2.7711 -0.5213 -2.1308
  395SOL    HW2 1185   1.622   1.967   0.781 -1.5065 -1.6796 -1.4262
  396SOL     OW 1186   2.754   2.046   1.333  0.3981 -0.3634 -0.0133
  396SOL    HW1 1187   2.791   2.007   1.419 -0.5039  1.5664  1.1700
  396SOL    HW2 1188   2.661   2.092   1.347  0.5427 -1.7237 -0.9500
  397SOL     OW 1189   1.019   2.113   0.627 -0.1493 -0.0618  0.3119
  397SOL    HW1 1190   0.934   2.064   0.610 -0.0685 -0.9909 -1.4872
  397SOL    HW2 1191   0.997   2.205   0.676  0.3964  0.1245 -0.5375
  398SOL     OW 1192   2.215   0.080   1.040  0.4352 -0.8420 -0.6758
  398SOL    HW1 1193   2.180  -0.021   1.052 -0.1706  0.2559  0.1821
  398SOL    HW2 1194   2.140   0.148   1.037  2.4991  0.5360  0.6735
  399SOL     OW 1195   2.887   2.574   2.731 -0.7307  0.2620 -0.7853
  399SOL    HW1 1196   2.842   2.527   2.654  0.2880  0.5909  1.3719
  399SOL    HW2 1197   2.880   2.521   2.821  0.2821 -0.0115  2.5766
  400SOL     OW 1198   0.799   1.592   1.272 -0.2811  0.2725 -0.1828
  400SOL    HW1 1199   0.758   1.619   1.362 -1.1757 -0.7152  0.1760
  400SOL    HW2 1200   0.799   1.664   1.194 -0.8626 -1.0309 -1.4118
  401SOL     OW 1201   1.807   0.138   1.272  0.4955  0.4871  0.4119
  401SOL    HW1 1202   1.857   0.176   1.352  0.0549 -0.4381 -2.2558
  401SOL    HW2 1203   1.701   0.152   1.266 -1.4011  1.0641  0.3565
  402SOL     OW 1204   1.339   0.161   3.060  0.0267 -0.0304  0.4559
  402SOL    HW1 1205   1.433   0.126   3.027 -1.5513 -0.2992 -3.1306
  402SOL    HW2 1206   1.346   0.256   3.096  2.0618  2.0959  0.3090
  403SOL     OW 1207   2.312   1.844   0.925 -0.4657  0.0111 -0.1207
  403SOL    HW1 1208   2.410   1.842   0.961  0.9682  0.5204  1.6323
  403SOL    HW2 1209   2.239   1.871   0.995  1.3768  1.4076 -2.0027
  404SOL     OW 1210   0.173   2.496   2.857 -0.0205  0.1579 -0.3482
  404SOL    HW1 1211   0.271   2.467   2.817  1.5206  0.1836  1.6986
  404SOL    HW2 1212   0.177   2.597   2.884 -0.6874 -1.3492 -0.7522
  405SOL     OW 1213   0.240   2.534   0.546  0.1418 -0.2664  0.1212
  405SOL    HW1 1214   0.179   2.538   0.460  0.0500 -4.2211 -0.0283
  405SOL    HW2 1215   0.303   2.617   0.551  1.1180 -1.0630  0.8312
  406SOL     OW 1216   0.013   1.520   3.000  0.0283 -0.2844  0.3395
  406SOL    HW1 1217   0.102   1.470   2.969  2.7279 -1.1729  0.4677
  406SOL    HW2 1218   0.006   1.529   3.100 -3.3846 -1.3926  1.4728
  407SOL     OW 1219   1.522   0.916   0.910  0.1955  0.3779 -0.0726
  407SOL    HW1 1220   1.446   0.914   0.838  0.2658  0.6583 -1.7633
  407SOL    HW2 1221   1.506   0.993   0.977  3.0285 -1.2084 -1.5396
  408SOL     OW 1222   1.564   2.412   0.973  0.1434 -0.3349 -0.0127
  408SOL    HW1 1223   1.631   2.410   0.898  1.1285  0.2944 -0.1460
  408SOL    HW2 1224   1.603   2.481   1.047 -0.3215  1.4800  0.4436
  409SOL     OW 1225   0.615   0.848   0.723 -0.8383  0.3586  0.3883
  409SOL    HW1 1226   0.571   0.864   0.633 -0.3909  2.3694 -0.4338
  409SOL    HW2 1227   0.638   0.747   0.737 -0.1675  1.6039 -1.1204
  410SOL     OW 1228   1.270   1.994   1.438 -0.0376 -0.3831 -0.1857
  410SOL    HW1 1229   1.292   2.046   1.532  1.0523 -0.5265 -0.8119
  410SOL    HW2 1230   1.174   1.949   1.453 -3.8089 -1.6602  2.0983
  411SOL     OW 1231   2.404   1.792   3.100  0.3168 -0.4046 -0.6335
  411SOL    HW1 1232   2.322   1.801   3.033  1.4286  0.9429 -0.4343
  411SOL    HW2 1233   2.497   1.806   3.054  0.1672 -0.8204  0.4826
  412SOL     OW 1234   1.508   2.472   2.225 -0.5174  0.0277  0.2396
  412SOL    HW1 1235   1.563   2.553   2.272 -0.4859  1.2258  0.4338
  412SOL    HW2 1236   1.481   2.396   2.292  0.7380  2.8697 -0.1608
  413SOL     OW 1237   3.067   0.273   2.977  0.1349  0.6014 -0.4294
  413SOL    HW1 1238   3.036   0.175   3.005 -0.9908 -0.5651  1.6628
  413SOL    HW2 1239   3.168   0.295   2.984  0.8123 -1.4270  3.0441
  414SOL     OW 1240   1.754   1.389   1.388  0.4623  0.3451  0.0950
  414SOL    HW1 1241   1.677   1.439   1.437  2.0959  0.1789 -1.1180
  414SOL    HW2 1242   1.737   1.387   1.285 -0.3876  0.9303 -0.0493
  415SOL     OW 1243   0.362   2.272   0.613  0.4621  0.2693 -0.1391
  415SOL    HW1 1244   0.323   2.364   0.581  0.1868 -0.4484  1.4426
  415SOL    HW2 1245   0.299   2.184   0.604 -1.8408  0.3171 -0.7472
  416SOL     OW 1246   0.386   1.067   1.042  0.4125  0.2105 -0.5242
  416SOL    HW1 1247   0.364   0.997   0.965 -0.2289 -0.6892  2.4800
  416SOL    HW2 1248   0.486   1.097   1.056  1.7956 -1.6955  0.1588
  417SOL     OW 1249   2.120   2.367   1.903 -0.1791 -0.4832 -0.1891
  417SOL    HW1 1250   2.149   2.271   1.883 -0.0149  1.4734 -0.1604
  417SOL    HW2 1251   2.020   2.381   1.919  3.3485  0.5811  0.7650
  418SOL     OW 1252   1.117   0.518   1.306 -0.5689 -0.0300 -0.3687
  418SOL    HW1 1253   1.022   0.494   1.287  3.0920 -0.6520  1.9659
  418SOL    HW2 1254   1.178   0.455   1.248 -1.6886 -1.2824 -1.4555
  419SOL     OW 1255   1.023   0.378   3.056  0.6568 -0.0249  0.6615
  419SOL    HW1 1256   1.007   0.432   2.969 -2.3842 -0.8765 -0.4416
  419SOL    HW2 1257   0.985   0.282   3.051 -2.5012  0.6257 -1.1426
  420SOL     OW 1258   0.225   2.256   0.324 -0.2275 -0.0427 -0.0886
  420SOL    HW1 1259   0.181   2.184   0.260 -0.3334  0.5629 -0.7777
  420SOL    HW2 1260   0.184   2.269   0.418 -1.0610  0.2750  1.3820
  421SOL     OW 1261   0.349   3.085   0.689 -0.2829 -0.1360  0.1925
  421SOL    HW1 1262   0.304   2.997   0.676 -1.8781  0.8592  1.1453
  421SOL    HW2 1263   0.450   3.073   0.690 -2.1225  1.3197  4.1586
  422SOL     OW 1264   0.947   2.513   1.036  0.5779  0.1367 -0.2813
  422SOL    HW1 1265   0.969   2.582   0.962  2.8873  2.9118  1.6430
  422SOL    HW2 1266   1.008   2.540   1.118  3.0164  0.8527  0.1677
  423SOL     OW 1267   0.045   0.662   1.205 -0.1502 -0.5567 -0.2529
  423SOL    HW1 1268  -0.016   0.646   1.287  1.0714  0.0945  1.5977
  423SOL    HW2 1269   0.016   0.755   1.160  0.0913 -0.4926  0.1389
  424SOL     OW 1270   0.978   2.194   2.062 -0.2535  0.4140 -0.0117
  424SOL    HW1 1271   1.015   2.291   2.049  2.0071 -0.8533 -0.1820
  424SOL    HW2 1272   0.937   2.179   2.154  0.1730  1.9637 -2.2829
  425SOL     OW 1273   1.982   1.430   1.025  0.0449 -0.0571 -0.4979
  425SOL    HW1 1274   1.993   1.326   1.011 -2.4862  0.5576  0.1381
  425SOL    HW2 1275   2.047   1.486   0.969 -2.0439  1.4545  2.4085
  426SOL     OW 1276   1.508   1.564   1.451 -0.0925  0.0948 -0.1473
  426SOL    HW1 1277   1.486   1.631   1.376  0.7587 -1.6570  2.2559
  426SOL    HW2 1278   1.526   1.613   1.540 -2.4067  2.0261 -1.3196
  427SOL     OW 1279   1.889   2.403   2.100  0.1265 -0.1306 -0.2457
  427SOL    HW1 1280   1.971   2.372   2.157  1.8856 -0.1740 -0.6189
  427SOL    HW2 1281   1.874   2.509   2.090 -2.0046  1.9573  0.9613
  428SOL     OW 1282   0.866   2.982   0.148  0.2928 -1.0015 -0.1562
  428SOL    HW1 1283   0.922   3.062   0.190  1.0323 -1.7581 -0.6890
  428SOL    HW2 1284   0.930   2.907   0.120 -2.2883  2.0470  1.5553
  429SOL     OW 1285   1.283   0.095   0.215 -0.3168 -0.3505  0.2522
  429SOL    HW1 1286   1.365   0.133   0.263 -0.2350 -1.2473 -0.3250
  429SOL    HW2 1287   1.281   0.115   0.111 -1.9689  1.3092 -0.5001
  430SOL     OW 1288   2.829   1.534   0.340  0.2972 -0.1567 -0.4843
  430SOL    HW1 1289   2.835   1.593   0.258 -2.0665 -1.6770 -1.3141
  430SOL    HW2 1290   2.799   1.589   0.427  0.5850  1.5491 -0.3849
  431SOL     OW 1291   2.134   1.628   0.880 -0.1545  0.1018 -0.1547
  431SOL    HW1 1292   2.216   1.689   0.896  1.1500 -2.0371 -2.4415
  431SOL    HW2 1293   2.045   1.680   0.865 -0.2116 -0.0572  0.6930
  432SOL     OW 1294   2.926   2.225   1.243 -0.4771 -0.5540 -0.4278
  432SOL    HW1 1295   2.857   2.163   1.272  2.6175 -2.1664  0.3525
  432SOL    HW2 1296   2.948   2.284   1.322 -1.9850 -1.2903  1.9775
  433SOL     OW 1297   1.874   0.348   0.802  0.1837 -0.1575 -0.1888
  433SOL    HW1 1298   1.805   0.337   0.875  1.2151  0.7076 -1.9673
  433SOL    HW2 1299   1.921   0.256   0.782  2.0522  0.7595 -1.7720
  434SOL     OW 1300   1.547   0.309   0.730 -0.1981  0.3474 -0.0840
  434SOL    HW1 1301   1.531   0.410   0.711  4.7477 -2.7242  1.1630
  434SOL    HW2 1302   1.561   0.291   0.831  0.1712 -0.5179  2.5646
  435SOL     OW 1303   1.445   1.393   2.142  0.5957 -0.5424  0.1417
  435SOL    HW1 1304   1.396   1.423   2.231 -0.4451  0.5403  0.3974
  435SOL    HW2 1305   1.444   1.468   2.070 -1.4920 -2.5124  2.2344
  436SOL     OW 1306   1.605   2.619   2.408 -0.0746  0.2605 -0.0994
  436SOL    HW1 1307   1.662   2.705   2.421 -0.0031  0.1679 -0.3144
  436SOL    HW2 1308   1.543   2.602   2.493 -2.9605  1.2573  1.3138
  437SOL     OW 1309   1.082   2.905   0.906  0.0567  0.3953 -0.3345
  437SOL    HW1 1310   1.022   2.976   0.858 -1.0870  1.0462  1.1181
  437SOL    HW2 1311   1.042   2.887   0.997 -2.5139  1.8231 -0.4526
  438SOL     OW 1312   1.068   2.596   1.272 -0.8456  0.0449  0.1096
  438SOL    HW1 1313   1.108   2.660   1.350  0.3802  4.1847  0.6716
  438SOL    HW2 1314   1.043   2.498   1.304  0.6592 -2.9998  1.1790
  439SOL     OW 1315   0.731   1.773   1.026  0.5092  0.3683  0.6469
  439SOL    HW1 1316   0.714   1.848   0.957 -1.0226 -0.5064 -1.2129
  439SOL    HW2 1317   0.643   1.735   1.063  0.3441 -0.7017 -0.7225
  440SOL     OW 1318   1.044   2.464   2.022 -0.2152  0.3909 -0.6556
  440SOL    HW1 1319   1.045   2.515   1.930 -0.2412 -1.2693 -2.3132
  440SOL    HW2 1320   1.135   2.466   2.071 -1.7237  1.8158 -1.4467
  441SOL     OW 1321   0.399   2.770   1.398 -0.1138  0.1797 -0.9927
  441SOL    HW1 1322   0.459   2.692   1.363  1.5580 -1.8692 -2.9591
  441SOL    HW2 1323   0.364   2.815   1.313  2.9236  3.4411  0.6644
  442SOL     OW 1324   2.243   0.686   2.602 -0.0788 -0.0673 -0.0060
  442SOL    HW1 1325   2.256   0.598   2.545 -1.0568  1.3047 -1.7342
  442SOL    HW2 1326   2.146   0.724   2.592 -1.2432 -1.2828 -0.0448
  443SOL     OW 1327   1.241   2.666   2.194  0.0240 -0.2585 -0.2245
  443SOL    HW1 1328   1.249   2.573   2.239 -2.9829  0.9202 -1.5890
  443SOL    HW2 1329   1.226   2.743   2.269 -2.6715 -0.7469  2.7311
  444SOL     OW 1330   1.038   1.229   1.502  0.3006 -0.0635  0.0205
  444SOL    HW1 1331   1.137   1.226   1.491 -1.7479  0.5141  2.0520
  444SOL    HW2 1332   1.015   1.212   1.599  0.1862  2.9437  2.4518
  445SOL     OW 1333   0.013   2.380   1.939 -0.7646  0.5990 -0.4540
  445SOL    HW1 1334   0.013   2.341   1.846 -1.3434  2.5566 -1.2547
  445SOL    HW2 1335  -0.069   2.359   2.002 -0.2508  0.2331 -0.3409
  446SOL     OW 1336   0.185   1.941   2.367 -0.0474  0.1865  0.2908
  446SOL    HW1 1337   0.131   2.027   2.363  2.2649 -1.6632 -0.6219
  446SOL    HW2 1338   0.154   1.870   2.303  2.2738 -0.5656 -2.4734
  447SOL     OW 1339   1.225   1.669   1.920  0.0510  0.0098 -0.1939
  447SOL    HW1 1340   1.135   1.713   1.944  0.9271 -2.3977  1.2340
  447SOL    HW2 1341   1.301   1.725   1.963  0.3044 -1.4888 -1.2257
  448SOL     OW 1342   0.152   1.429   2.017 -0.0906 -0.3941 -0.1543
  448SOL    HW1 1343   0.154   1.518   1.971 -2.4318 -0.7597  2.4034
  448SOL    HW2 1344   0.092   1.437   2.103 -0.6043 -1.6305 -0.0504
  449SOL     OW 1345   1.817   2.979   0.853 -0.9965  0.5953  0.3845
  449SOL    HW1 1346   1.785   2.991   0.950  0.4063  0.5522 -0.6495
  449SOL    HW2 1347   1.858   2.885   0.834 -1.2522 -1.9427 -1.8940
  450SOL     OW 1348   2.274   1.477   0.728  0.4761 -0.5458  0.6446
  450SOL    HW1 1349   2.212   1.529   0.790  0.8534  1.1066  0.7173
  450SOL    HW2 1350   2.269   1.521   0.633 -2.3905 -1.3887  2.2018
  451SOL     OW 1351   1.392   3.058   1.489  0.3617 -0.4326 -0.0174
  451SOL    HW1 1352   1.300   3.120   1.491  0.7008  1.3276  0.1504
  451SOL    HW2 1353   1.402   2.991   1.563  1.8949  0.2785 -1.6237
  452SOL     OW 1354   2.661   2.278   2.263  0.3431  0.0309 -0.1700
  452SOL    HW1 1355   2.607   2.365   2.283  1.1644  2.8644 -1.8959
  452SOL    HW2 1356   2.708   2.236   2.345 -1.7942 -0.6461 -1.4230
  453SOL     OW 1357   2.446   2.657   0.012 -0.0017 -0.1557 -0.5909
  453SOL    HW1 1358   2.354   2.700   0.049 -2.7265 -5.0929  1.4630
  453SOL    HW2 1359   2.424   2.600  -0.069 -0.6568 -1.8922  0.5742
  454SOL     OW 1360   0.971   1.123   2.047  0.0913 -0.1833  0.0880
  454SOL    HW1 1361   0.940   1.077   1.962 -1.6306  0.0266  1.4390
  454SOL    HW2 1362   1.045   1.193   2.031  1.0355 -2.2045  1.8657
  455SOL     OW 1363   0.667   2.687   2.793  0.1071  0.1350 -0.6110
  455SOL    HW1 1364   0.757   2.734   2.794 -0.3079  2.6645 -0.8576
  455SOL    HW2 1365   0.671   2.604   2.853  1.3036 -3.0446  1.4459
  456SOL     OW 1366   0.363   1.882   0.227  0.3193  0.4129 -0.0270
  456SOL    HW1 1367   0.467   1.864   0.232 -1.0352 -0.5642  0.3818
  456SOL    HW2 1368   0.333   1.965   0.171  2.5318 -1.7901 -1.2389
  457SOL     OW 1369   0.396   2.777   0.595  0.0233 -0.4038 -0.0606
  457SOL    HW1 1370   0.374   2.819   0.500  2.3952 -0.0880 -2.8050
  457SOL    HW2 1371   0.498   2.761   0.606  3.1597 -3.3602  0.6111
  458SOL     OW 1372   2.815   0.037   1.178 -0.1909 -0.5070 -0.7971
  458SOL    HW1 1373   2.870   0.123   1.159  1.8414 -0.8121  0.9368
  458SOL    HW2 1374   2.849  -0.038   1.119  1.0953  2.0438 -1.0027
  459SOL     OW 1375   2.193   2.546   0.817 -0.1722  0.4693 -0.1492
  459SOL    HW1 1376   2.238   2.598   0.892 -0.8280  1.0900 -2.9085
  459SOL    HW2 1377   2.259   2.520   0.746 -2.5837  1.0555  0.6898
  460SOL     OW 1378   1.203   2.080   2.779 -0.5032  0.2913 -0.2335
  460SOL    HW1 1379   1.229   2.081   2.679  1.0051  1.4649  2.7509
  460SOL    HW2 1380   1.195   1.985   2.817  0.0626  1.5264  1.3104
  461SOL     OW 1381   0.500   2.124   2.701  0.1385  0.7594 -0.1680
  461SOL    HW1 1382   0.434   2.064   2.650  0.8503  0.9071 -0.8899
  461SOL    HW2 1383   0.500   2.107   2.804  3.9073  1.5028 -1.5286
  462SOL     OW 1384   1.000   1.081   1.736  0.5031  0.1924  0.1851
  462SOL    HW1 1385   1.042   1.025   1.661  0.1524 -0.6578 -0.0575
  462SOL    HW2 1386   0.908   1.127   1.718  0.0387  0.9190  2.2864
  463SOL     OW 1387   0.478   0.868   0.495 -0.2756  0.2147  0.0902
  463SOL    HW1 1388   0.509   0.781   0.449  1.7087 -2.1939  0.2851
  463SOL    HW2 1389   0.384   0.860   0.537  0.5523 -0.2085 -1.1936
  464SOL     OW 1390   0.597   2.332   2.209 -0.9000 -0.3455  0.0635
  464SOL    HW1 1391   0.520   2.376   2.260  0.9405  0.4077 -1.5133
  464SOL    HW2 1392   0.581   2.324   2.109  0.4712  0.9390  2.9154
  465SOL     OW 1393   0.284   0.918   0.840 -0.3525 -0.0524 -0.4162
  465SOL    HW1 1394   0.191   0.943   0.810  0.7562  1.3944  1.4101
  465SOL    HW2 1395   0.302   0.820   0.836 -1.8181  1.2459 -1.4748
  466SOL     OW 1396   1.407   1.153   1.056  0.2250 -0.1336 -0.0355
  466SOL    HW1 1397   1.454   1.241   1.032  1.0404 -0.4421  3.1616
  466SOL    HW2 1398   1.307   1.159   1.071  0.3294 -1.1558  1.3827
  467SOL     OW 1399   0.611   0.415   2.462  0.0693 -0.2520  0.0167
  467SOL    HW1 1400   0.547   0.496   2.469 -0.3834  1.2325  0.8017
  467SOL    HW2 1401   0.609   0.356   2.543 -1.1072  0.8210 -0.0301
  468SOL     OW 1402   0.398   2.264   1.611  0.8779 -0.1698  0.0033
  468SOL    HW1 1403   0.490   2.307   1.628 -2.0493  1.6888 -3.3347
  468SOL    HW2 1404   0.375   2.262   1.510 -0.5159  1.3963  0.8699
  469SOL     OW 1405   1.476   1.302   1.327  0.2616  0.1665 -0.9430
  469SOL    HW1 1406   1.546   1.298   1.252 -1.3836  4.9076  4.0032
  469SOL    HW2 1407   1.470   1.396   1.371 -1.1967  0.4875  0.2247
  470SOL     OW 1408   3.015   1.859   0.721 -0.2339  0.5650 -0.0435
  470SOL    HW1 1409   3.069   1.926   0.666  1.4986  0.1943  1.3287
  470SOL    HW2 1410   3.065   1.768   0.730  2.1526 -2.7686  1.1620
  471SOL     OW 1411   2.588   1.357   2.148 -0.2417 -0.4187  0.2023
  471SOL    HW1 1412   2.555   1.281   2.209 -0.0888  0.4560  0.8206
  471SOL    HW2 1413   2.679   1.400   2.182 -0.7057 -1.8789 -0.2175
  472SOL     OW 1414   1.164   2.376   0.047 -0.0570 -0.0428 -0.5788
  472SOL    HW1 1415   1.243   2.347   0.109 -1.5956  1.1758 -1.0886
  472SOL    HW2 1416   1.076   2.385   0.100  0.9906  1.3274  0.3723
  473SOL     OW 1417   1.066   1.473   1.041 -0.6737 -0.3601  0.0599
  473SOL    HW1 1418   0.985   1.510   0.989  0.3213 -1.6337  2.2946
  473SOL    HW2 1419   1.039   1.419   1.126 -0.4464 -0.5470  1.9069
  474SOL     OW 1420   0.655   1.287   0.597 -0.1581 -0.3199  0.0538
  474SOL    HW1 1421   0.568   1.267   0.547  1.7982 -0.5762  1.4525
  474SOL    HW2 1422   0.729   1.214   0.590  1.5239  1.0195 -1.8435
  475SOL     OW 1423   2.830   0.019   0.822  0.3298  0.4323  0.5529
  475SOL    HW1 1424   2.893   0.098   0.803  0.0601 -2.2185 -0.4746
  475SOL    HW2 1425   2.743   0.057   0.866  0.7131 -1.8794 -0.0747
  476SOL     OW 1426   1.033   2.976   1.757  0.0172 -0.0364 -0.1661
  476SOL    HW1 1427   1.128   3.016   1.772  1.7238 -2.0341 -1.4027
  476SOL    HW2 1428   1.012   2.952   1.660 -2.1426  0.1256  1.4654
  477SOL     OW 1429   1.452   0.319   2.431  0.4189  0.1911  0.5589
  477SOL    HW1 1430   1.452   0.344   2.532  0.3442  0.7383 -1.2644
  477SOL    HW2 1431   1.530   0.255   2.409  0.5589 -1.2445  1.4521
  478SOL     OW 1432   2.230   1.846   0.212 -0.0989 -0.0329 -0.5772
  478SOL    HW1 1433   2.145   1.801   0.261 -2.7029 -0.5053  1.1885
  478SOL    HW2 1434   2.272   1.797   0.134  0.9514 -0.2612  2.5417
  479SOL     OW 1435   1.258   0.946   2.875 -0.2878 -0.0735  0.1857
  479SOL    HW1 1436   1.338   0.961   2.810 -1.1811  1.3140 -1.2287
  479SOL    HW2 1437   1.202   0.858   2.851 -0.6534 -0.7702 -1.6909
  480SOL     OW 1438   2.623   2.336   0.398  0.5914  0.4849 -0.0157
  480SOL    HW1 1439   2.563   2.262   0.439  0.2804  0.3578  0.9271
  480SOL    HW2 1440   2.585   2.368   0.305  1.3166  0.4171 -2.2540
  481SOL     OW 1441   0.950   1.159   0.834 -0.9013 -0.2368  0.3167
  481SOL    HW1 1442   0.957   1.242   0.771  0.6494  1.1921  0.3765
  481SOL    HW2 1443   0.996   1.178   0.926 -0.7305 -0.4277 -2.2921
  482SOL     OW 1444   1.559   0.316   1.985 -0.0066 -0.3253  0.1171
  482SOL    HW1 1445   1.550   0.419   1.967 -0.0128  2.1918 -0.1086
  482SOL    HW2 1446   1.653   0.293   2.023 -2.2477  2.8610 -1.6038
  483SOL     OW 1447   0.134   2.302   1.226 -0.0784 -0.7426 -0.8001
  483SOL    HW1 1448   0.070   2.362   1.276  2.1228  0.6315  1.2274
  483SOL    HW2 1449   0.143   2.334   1.129  2.9888 -0.0501  0.1787
  484SOL     OW 1450   1.767   1.119   1.342  0.2690  0.3480  0.7590
  484SOL    HW1 1451   1.840   1.060   1.383 -1.2622  0.6888 -0.7998
  484SOL    HW2 1452   1.778   1.221   1.369 -0.2167  1.2993  0.5511
  485SOL     OW 1453   0.763   0.789   1.776 -0.1496  0.8287 -0.3822
  485SOL    HW1 1454   0.737   0.841   1.691  0.9297 -1.7653 -1.9192
  485SOL    HW2 1455   0.858   0.759   1.778  0.3040 -0.4300  0.4969
  486SOL     OW 1456   0.839   1.879   2.460  0.0327 -0.4744  0.6866
  486SOL    HW1 1457   0.876   1.886   2.555 -2.1887 -0.8676 -2.4018
  486SOL    HW2 1458   0.807   1.972   2.426 -2.8360 -0.3533 -0.5554
  487SOL     OW 1459   1.764   1.590   0.937  0.3081  0.4860 -0.1381
  487SOL    HW1 1460   1.831   1.513   0.969 -1.2975 -0.6846 -1.4826
  487SOL    HW2 1461   1.808   1.646   0.865  1.0400 -1.0012 -0.7781
  488SOL     OW 1462   2.946   0.890   2.304 -0.3146  0.2541 -0.0024
  488SOL    HW1 1463   2.962   0.794   2.271  0.5134 -0.2311 -1.0769
  488SOL    HW2 1464   2.989   0.901   2.398  1.4519  1.1842 -0.9718
  489SOL     OW 1465   2.820   0.372   1.280  0.9107 -0.1631 -0.3540
  489SOL    HW1 1466   2.808   0.337   1.377  0.7136 -0.5851 -1.0275
  489SOL    HW2 1467   2.887   0.316   1.225  0.5298  1.4627 -0.9673
  490SOL     OW 1468   1.406   2.937   2.816  0.2606  0.4970  0.2014
  490SOL    HW1 1469   1.470   2.850   2.820 -2.4078 -1.2004  1.5269
  490SOL    HW2 1470   1.389   2.959   2.716 -2.1147 -0.7735  0.2021
  491SOL     OW 1471   1.705   1.527   2.648  0.1096  0.2158 -0.0945
  491SOL    HW1 1472   1.614   1.534   2.706 -0.2654  0.5470 -2.5130
  491SOL    HW2 1473   1.791   1.548   2.705 -3.3625  1.7112 -0.4767
  492SOL     OW 1474   0.582   2.076   0.606  0.2047  0.1554 -0.9329
  492SOL    HW1 1475   0.602   2.059   0.709 -0.0443 -0.6340 -2.0215
  492SOL    HW2 1476   0.517   2.151   0.588 -1.5447  0.2686  0.4195
  493SOL     OW 1477   0.458   1.390   2.087 -0.4419  0.0546  0.0260
  493SOL    HW1 1478   0.371   1.451   2.082 -0.6210  1.1077  2.2470
  493SOL    HW2 1479   0.441   1.289   2.074 -1.5054  1.7355 -0.2390
  494SOL     OW 1480   2.720   2.584   0.098 -0.0405  0.8651  0.6036
  494SOL    HW1 1481   2.741   2.575   0.198  1.6890  0.8334 -0.2114
  494SOL    HW2 1482   2.622   2.606   0.077 -0.5849  1.9970  0.8668
  495SOL     OW 1483   2.554   2.740   2.614 -0.1580 -0.0030  0.7703
  495SOL    HW1 1484   2.538   2.638   2.598  1.4987 -0.1401 -1.6731
  495SOL    HW2 1485   2.646   2.776   2.566  1.1800 -0.8489 -0.9068
  496SOL     OW 1486   2.026   2.281   0.800  0.4424 -0.4890 -0.7523
  496SOL    HW1 1487   2.063   2.342   0.876 -0.0776  1.3418  1.3985
  496SOL    HW2 1488   2.037   2.180   0.821 -0.5797  0.4324 -2.4467
  497SOL     OW 1489   0.172   3.003   2.365  0.9173 -0.3916  0.1723
  497SOL    HW1 1490   0.167   3.073   2.442 -1.7054  0.0238  1.5318
  497SOL    HW2 1491   0.215   3.043   2.275 -1.0061  0.6402 -0.5355
  498SOL     OW 1492   1.199   1.318   1.266 -0.1976 -0.0528 -0.2194
  498SOL    HW1 1493   1.295   1.279   1.292  2.6124  0.7018  0.0879
  498SOL    HW2 1494   1.165   1.395   1.331  0.6706  0.0160  1.1069
  499SOL     OW 1495   0.640   1.819   0.267 -0.2255 -0.0569  0.1471
  499SOL    HW1 1496   0.657   1.729   0.228  3.2059 -1.9382  1.8491
  499SOL    HW2 1497   0.712   1.846   0.337 -1.6169  0.7057  2.0342
  500SOL     OW 1498   1.391   2.874   1.689 -0.0164  0.1107 -0.1893
  500SOL    HW1 1499   1.336   2.851   1.777  0.9707 -1.8028 -3.1371
  500SOL    HW2 1500   1.472   2.816   1.666 -0.4365  0.8395  2.2605
  501SOL     OW 1501   0.778   1.165   2.302  0.2735 -0.4368  0.3344
  501SOL    HW1 1502   0.701   1.092   2.315  1.0736 -0.1014  1.9224
  501SOL    HW2 1503   0.838   1.146   2.229 -1.7630 -1.5850  4.1655
  502SOL     OW 1504   2.548   0.949   1.778 -0.0976  0.1209 -0.3150
  502SOL    HW1 1505   2.567   0.970   1.676  0.3668  0.6588 -0.1270
  502SOL    HW2 1506   2.546   0.846   1.797  0.6301 -0.5243  1.1471
  503SOL     OW 1507   1.298   0.172   0.588  0.2053  0.0228  0.1070
  503SOL    HW1 1508   1.233   0.238   0.636 -0.8447  2.9618 -0.1276
  503SOL    HW2 1509   1.396   0.200   0.607  2.3728 -0.5181  0.3074
  504SOL     OW 1510   3.009   2.335   1.482 -0.0823  0.2250  0.6741
  504SOL    HW1 1511   2.957   2.409   1.534  1.1334  1.6572 -1.0286
  504SOL    HW2 1512   3.042   2.256   1.535 -3.1150 -1.6137  0.2284
  505SOL     OW 1513   2.276   1.184   1.415 -0.1958 -0.0871 -0.1152
  505SOL    HW1 1514   2.272   1.210   1.314 -2.6239 -2.7694  0.3871
  505SOL    HW2 1515   2.361   1.221   1.466  0.4609 -0.2187  3.7375
  506SOL     OW 1516   1.927   0.207   1.818  0.0126 -0.0680 -0.1459
  506SOL    HW1 1517   2.003   0.131   1.820  0.3063 -0.8884  2.1806
  506SOL    HW2 1518   1.958   0.307   1.824  0.1465  0.8153  4.2354
  507SOL     OW 1519   0.582   0.699   2.161  0.4392 -0.0315 -0.5981
  507SOL    HW1 1520   0.492   0.643   2.162  3.6556  0.9341  0.5310
  507SOL    HW2 1521   0.664   0.636   2.136  2.7396 -0.1593  0.5933
  508SOL     OW 1522   0.311   1.636   0.767 -0.3288 -0.5966 -0.5516
  508SOL    HW1 1523   0.366   1.707   0.715  0.6846  0.5837 -4.3509
  508SOL    HW2 1524   0.267   1.673   0.854  0.1142  0.5261  1.2398
  509SOL     OW 1525   1.289   1.193   2.438  0.0301 -0.1155 -0.0477
  509SOL    HW1 1526   1.333   1.151   2.360 -3.0146 -0.3638 -0.7845
  509SOL    HW2 1527   1.188   1.157   2.446 -0.6960 -2.2828  0.4912
  510SOL     OW 1528   1.267   2.117   2.232  0.2671  0.0658 -0.3572
  510SOL    HW1 1529   1.324   2.143   2.150 -3.4798  1.8901  0.5307
  510SOL    HW2 1530   1.228   2.017   2.228 -1.8304  1.1803 -0.1449
  511SOL     OW 1531   2.999   2.700   1.256 -0.0155  0.0913 -0.1965
  511SOL    HW1 1532   2.969   2.654   1.161 -0.8665 -0.6577 -0.2202
  511SOL    HW2 1533   2.929   2.701   1.334 -0.2780 -1.1616  2.6140
  512SOL     OW 1534   2.415   0.442   1.378  0.2654 -0.3938  0.2633
  512SOL    HW1 1535   2.323   0.485   1.352  0.9558 -2.1047 -2.7942
  512SOL    HW2 1536   2.474   0.406   1.296  0.5741  0.8291 -2.4922
  513SOL     OW 1537   2.593   2.148   0.942  0.9472 -0.6992 -0.4144
  513SOL    HW1 1538   2.546   2.208   0.872  3.3746 -1.4324 -0.3855
  513SOL    HW2 1539   2.683   2.112   0.901 -0.9981 -1.6803  1.0158
  514SOL     OW 1540   0.682   2.767   0.415  0.0177 -0.3262  0.3461
  514SOL    HW1 1541   0.592   2.820   0.404 -0.5205 -3.4404 -0.7488
  514SOL    HW2 1542   0.747   2.811   0.478 -1.4989  1.5755 -1.0458
  515SOL     OW 1543   1.903   1.349   2.383 -0.3338 -0.2740  0.5582
  515SOL    HW1 1544   1.922   1.286   2.304  2.0566 -0.5447  2.9809
  515SOL    HW2 1545   1.821   1.308   2.440 -0.1733 -0.6843  1.3939
  516SOL     OW 1546   0.288   0.310   1.887  0.2707 -0.1569 -0.1314
  516SOL    HW1 1547   0.389   0.291   1.866 -1.7874  1.2506 -0.9035
  516SOL    HW2 1548   0.224   0.264   1.824 -0.9696 -1.8567 -0.7405
  517SOL     OW 1549   0.486   0.115   1.125  0.4887 -0.1028 -0.0780
  517SOL    HW1 1550   0.524   0.145   1.223  1.2944  2.1755  3.9142
  517SOL    HW2 1551   0.395   0.063   1.126 -1.4706  0.6076  1.8793
  518SOL     OW 1552   2.137   3.098   1.794  0.1494 -0.2719  0.4094
  518SOL    HW1 1553   2.206   3.174   1.806  0.0919  1.5794 -0.4192
  518SOL    HW2 1554   2.138   3.037   1.705  1.8267  3.1405 -2.5468
  519SOL     OW 1555   2.302   2.101   2.477 -0.0712 -0.0995 -0.4612
  519SOL    HW1 1556   2.248   2.070   2.566 -0.6426 -3.0951  1.4797
  519SOL    HW2 1557   2.292   2.205   2.466  0.3939  2.2191 -1.9744
  520SOL     OW 1558   1.828   2.705   1.742  0.5108  0.0973  0.2757
  520SOL    HW1 1559   1.765   2.651   1.813  0.3701  0.6871 -1.3148
  520SOL    HW2 1560   1.918   2.660   1.720 -1.8018 -0.4158  2.7391
  521SOL     OW 1561   0.553   3.099   2.071  0.1790 -0.3926  0.0935
  521SOL    HW1 1562   0.447   3.104   2.072 -0.9159  1.8528 -2.7028
  521SOL    HW2 1563   0.594   3.115   2.162  0.6261 -2.4694 -0.6560
  522SOL     OW 1564   0.191   1.837   1.545 -0.4066  0.0235  0.1282
  522SOL    HW1 1565   0.240   1.902   1.611 -2.0069  2.5263 -1.1476
  522SOL    HW2 1566   0.172   1.887   1.455  0.4045  1.0548  3.0701
  523SOL     OW 1567   2.183   2.933   1.569 -0.0874  0.2550  0.6564
  523SOL    HW1 1568   2.241   2.848   1.578  0.3808  2.9642  3.8242
  523SOL    HW2 1569   2.110   2.928   1.497 -1.3913  0.4080  0.0445
  524SOL     OW 1570   0.187   2.785   2.857  0.3513 -0.4123 -0.0535
  524SOL    HW1 1571   0.132   2.867   2.897 -2.0078  1.1505  1.4146
  524SOL    HW2 1572   0.282   2.812   2.830 -2.5308  0.2668  1.4558
  525SOL     OW 1573   2.192   2.031   0.436  0.5149 -0.5471  0.6969
  525SOL    HW1 1574   2.189   1.984   0.527 -2.0779  1.2194 -1.9525
  525SOL    HW2 1575   2.247   1.972   0.365  2.2173 -0.6603 -0.9057
  526SOL     OW 1576   0.448   1.529   1.807  0.2336 -0.3132 -1.0600
  526SOL    HW1 1577   0.532   1.571   1.848 -1.9021 -0.8465  1.0818
  526SOL    HW2 1578   0.421   1.427   1.826  0.9005 -1.7768  0.0555
  527SOL     OW 1579   1.102   2.875   1.196 -0.2449 -0.1697 -0.5240
  527SOL    HW1 1580   1.181   2.844   1.248  0.5774  1.0260 -2.2532
  527SOL    HW2 1581   1.119   2.973   1.168  2.9234  0.1252  0.0778
  528SOL     OW 1582   1.379   2.351   0.543  0.2241 -0.2714  0.3427
  528SOL    HW1 1583   1.402   2.248   0.560  0.6557  2.5936  0.6560
  528SOL    HW2 1584   1.442   2.417   0.595  0.1117  0.2620  2.0028
  529SOL     OW 1585   1.919   1.762   0.785  0.0996  0.2446  0.1824
  529SOL    HW1 1586   1.878   1.753   0.686  1.0703 -0.0741 -1.1422
  529SOL    HW2 1587   1.925   1.862   0.819 -0.0677  1.6779  1.1514
  530SOL     OW 1588   0.402   2.537   0.183 -0.6354 -0.2434  0.2419
  530SOL    HW1 1589   0.413   2.512   0.283 -0.2378 -0.9035  2.7950
  530SOL    HW2 1590   0.430   2.466   0.116  0.7422  2.6735  0.1394
  531SOL     OW 1591   1.833   0.956   1.111  0.4353 -0.2224 -0.3283
  531SOL    HW1 1592   1.750   0.904   1.079 -0.0726 -1.3485  0.0431
  531SOL    HW2 1593   1.819   0.999   1.208 -0.9034  0.2020  1.6533
  532SOL     OW 1594   0.298   1.186   0.738  0.7283  0.4782  0.4630
  532SOL    HW1 1595   0.363   1.172   0.656 -0.3546 -0.4259 -1.2393
  532SOL    HW2 1596   0.302   1.101   0.797  3.4484  0.6571  0.0649
  533SOL     OW 1597   1.799   0.008   2.593  0.0754 -0.0485  0.1153
  533SOL    HW1 1598   1.900   0.000   2.581  1.3033 -1.0840 -0.3412
  533SOL    HW2 1599   1.777   0.092   2.653 -0.5103  0.9278  0.0881
  534SOL     OW 1600   0.209   0.213   1.492  0.0441  0.2181 -0.2707
  534SOL    HW1 1601   0.279   0.257   1.426 -0.9098 -1.4253  0.0904
  534SOL    HW2 1602   0.129   0.273   1.526 -0.2861 -0.0224 -0.5101
  535SOL     OW 1603   1.844   0.333   0.199 -0.2527  0.0441 -0.0860
  535SOL    HW1 1604   1.867   0.375   0.288 -0.6211  0.8209 -2.8660
  535SOL    HW2 1605   1.761   0.280   0.199  2.1838  1.6621 -0.7750
  536SOL     OW 1606   1.350   2.597   0.926  0.4079 -0.0700 -0.4184
  536SOL    HW1 1607   1.429   2.546   0.973 -0.0991  1.7543  2.1885
  536SOL    HW2 1608   1.287   2.531   0.884  2.4394 -1.0515  1.4453
  537SOL     OW 1609   0.885   0.226   2.357 -0.2740  0.2948  0.1297
  537SOL    HW1 1610   0.913   0.251   2.257  0.9632  0.3525 -0.2812
  537SOL    HW2 1611   0.790   0.181   2.356  0.4595 -2.4670  0.4254
  538SOL     OW 1612   1.645   2.354   1.492  0.0276 -0.2981  0.1444
  538SOL    HW1 1613   1.606   2.267   1.452 -1.2827  0.1439 -0.9992
  538SOL    HW2 1614   1.742   2.382   1.468 -0.4517  0.1714 -1.0361
  539SOL     OW 1615   0.176   1.585   2.670  0.4846  0.5260  0.2562
  539SOL    HW1 1616   0.078   1.558   2.633  1.1993 -1.6689 -1.1811
  539SOL    HW2 1617   0.182   1.671   2.728  2.5028 -3.4315  0.2836
  540SOL     OW 1618   2.728   1.663   1.983  0.2211 -0.5072 -0.4105
  540SOL    HW1 1619   2.659   1.589   1.976  2.8808 -2.2253  1.3782
  540SOL    HW2 1620   2.698   1.756   2.013  1.0624 -0.2377 -2.6626
  541SOL     OW 1621   0.457   2.322   0.017  0.1410 -0.5298  0.7553
  541SOL    HW1 1622   0.490   2.262   0.099  2.0920 -0.6883 -3.0129
  541SOL    HW2 1623   0.394   2.270  -0.050 -0.4785 -2.2054  0.4147
  542SOL     OW 1624   2.253   2.576   0.440 -0.1264 -0.0629 -0.0963
  542SOL    HW1 1625   2.239   2.676   0.404  2.4086 -0.5834 -2.3302
  542SOL    HW2 1626   2.172   2.538   0.489 -1.5184  0.7161 -2.6461
  543SOL     OW 1627   1.001   1.761   1.722  0.2500 -0.4814 -0.1578
  543SOL    HW1 1628   1.001   1.780   1.826 -1.1893 -1.7059  0.0950
  543SOL    HW2 1629   0.990   1.845   1.665  1.5216  0.2561  0.0171
  544SOL     OW 1630   0.912   0.385   0.196  0.7290 -0.1704 -0.5627
  544SOL    HW1 1631   0.953   0.314   0.255  1.1040  0.4818 -0.9489
  544SOL    HW2 1632   0.972   0.410   0.116  1.1409  0.7866  1.0367
  545SOL     OW 1633   1.100   1.712   0.643 -0.0455 -0.1395  0.7013
  545SOL    HW1 1634   1.182   1.747   0.700  0.6794 -0.9001  0.2655
  545SOL    HW2 1635   1.114   1.732   0.541  0.8770 -0.5528  0.6356
  546SOL     OW 1636   2.630   1.544   3.049 -0.5495  0.3063 -0.3028
  546SOL    HW1 1637   2.576   1.565   2.960 -2.1352  0.9391 -1.8739
  546SOL    HW2 1638   2.565   1.522   3.121 -0.5199  0.7960 -4.6087
  547SOL     OW 1639   0.545   0.023   2.770  0.0838  0.0349 -0.0757
  547SOL    HW1 1640   0.638  -0.005   2.731 -0.5052 -3.6368  1.4186
  547SOL    HW2 1641   0.480  -0.057   2.748 -0.3365 -2.3976 -5.7400
  548SOL     OW 1642   2.035   0.823   3.033 -0.1945 -0.3928  0.2926
  548SOL    HW1 1643   1.937   0.780   3.047 -1.0441 -1.2199  1.5252
  548SOL    HW2 1644   2.040   0.924   3.049 -0.7002  0.2112  1.2686
  549SOL     OW 1645   0.661   0.527   0.201  0.3816  0.9215  0.3347
  549SOL    HW1 1646   0.640   0.606   0.133 -0.4224  0.5568 -2.3196
  549SOL    HW2 1647   0.762   0.503   0.226  0.5184  2.9313 -1.6122
  550SOL     OW 1648   2.532   2.864   2.872 -0.4649  0.1768 -0.1121
  550SOL    HW1 1649   2.510   2.788   2.937 -0.0821  1.6077 -2.6441
  550SOL    HW2 1650   2.545   2.819   2.781 -1.2831 -2.3338  2.1966
  551SOL     OW 1651   0.280   0.912   0.235  0.3246 -0.0930 -0.2100
  551SOL    HW1 1652   0.372   0.869   0.218 -1.4965 -1.1474  0.1383
  551SOL    HW2 1653   0.259   0.930   0.338  1.2702 -0.9812  0.9777
  552SOL     OW 1654   0.769   2.887   1.861 -0.1904  0.6575  0.5311
  552SOL    HW1 1655   0.707   2.923   1.943 -0.2769  3.5412 -0.7119
  552SOL    HW2 1656   0.848   2.951   1.839 -1.6052  1.2558  0.4340
  553SOL     OW 1657   0.018   2.527   0.364  0.9377  0.1394  0.0130
  553SOL    HW1 1658  -0.032   2.437   0.392  0.2229  0.8558  1.2241
  553SOL    HW2 1659  -0.034   2.618   0.383  0.0155 -0.4127 -1.1893
  554SOL     OW 1660   2.229   0.335   0.576 -0.6451  0.3390  0.3880
  554SOL    HW1 1661   2.255   0.306   0.484 -0.7421  0.9917  2.0907
  554SOL    HW2 1662   2.252   0.268   0.652  0.1730 -0.4151  0.8958
  555SOL     OW 1663   0.422   2.889   2.478 -0.3468  0.3879  0.4720
  555SOL    HW1 1664   0.322   2.893   2.456 -0.3362 -1.7773  1.0519
  555SOL    HW2 1665   0.481   2.834   2.414  0.8076 -0.7251  0.9715
  556SOL     OW 1666   0.909   2.380   1.646  0.2426  0.1736 -0.7095
  556SOL    HW1 1667   0.941   2.465   1.694  1.2061  0.4851 -0.8729
  556SOL    HW2 1668   0.958   2.362   1.555 -1.2745  0.1974 -3.0129
  557SOL     OW 1669   0.101   2.095   0.133 -0.2569 -0.0673  0.2074
  557SOL    HW1 1670   0.026   2.038   0.084 -0.7408 -0.9589 -1.6474
  557SOL    HW2 1671   0.144   2.170   0.075 -0.9311 -1.8262 -1.1162
  558SOL     OW 1672   2.935   2.285   0.354 -0.1038  0.4971 -0.3417
  558SOL    HW1 1673   2.864   2.224   0.401 -1.1068  1.7208 -0.0555
  558SOL    HW2 1674   2.922   2.290   0.252 -2.4356 -2.5795  0.0653
  559SOL     OW 1675   0.392   2.281   1.342 -0.1750  0.7889  0.8354
  559SOL    HW1 1676   0.297   2.276   1.292  0.4219  0.3145  0.5193
  559SOL    HW2 1677   0.450   2.197   1.329  0.6333  0.9363 -0.6920
  560SOL     OW 1678   2.097   1.098   3.058  0.1581 -0.0904 -0.3020
  560SOL    HW1 1679   2.050   1.178   3.106 -0.7391  0.3934  1.2686
  560SOL    HW2 1680   2.198   1.116   3.049 -0.4611  1.2846  0.3819
  561SOL     OW 1681   3.002   1.946   0.002  0.0842  0.3481  0.3323
  561SOL    HW1 1682   2.954   1.864   0.044 -1.0723 -1.0793 -0.3548
  561SOL    HW2 1683   2.945   2.023  -0.050 -1.4622  0.6521 -0.3662
  562SOL     OW 1684   0.929   2.142   2.386  0.4624  0.3868 -0.2477
  562SOL    HW1 1685   0.822   2.151   2.380  0.9471 -0.0283 -0.4010
  562SOL    HW2 1686   0.965   2.175   2.472 -0.5543  3.7060 -0.6846
  563SOL     OW 1687   0.683   2.448   2.591  0.0488  0.2449 -0.2214
  563SOL    HW1 1688   0.766   2.397   2.628  0.9293  2.0562  0.2143
  563SOL    HW2 1689   0.613   2.479   2.668 -1.2552  0.3498  4.1254
  564SOL     OW 1690   2.772   1.302   2.917  0.3089  0.0614  0.5305
  564SOL    HW1 1691   2.686   1.297   2.971 -0.3714  0.2116  0.6942
  564SOL    HW2 1692   2.784   1.399   2.877  2.4624  0.8518  0.7526
  565SOL     OW 1693   2.542   1.998   2.572  0.1823  0.0817  0.2101
  565SOL    HW1 1694   2.456   2.050   2.540 -0.0867  0.8951  1.8182
  565SOL    HW2 1695   2.566   2.021   2.673  2.4744 -0.5833  0.5098
  566SOL     OW 1696   2.012   2.869   1.326  0.0824 -0.1489  0.4149
  566SOL    HW1 1697   1.962   2.779   1.326  0.9565  1.7454  1.5331
  566SOL    HW2 1698   2.044   2.898   1.237 -1.4110 -0.5311  2.0530
  567SOL     OW 1699   2.454   0.130   2.245  0.2873 -0.0198  1.1971
  567SOL    HW1 1700   2.374   0.075   2.206  2.3989  1.8910  0.4017
  567SOL    HW2 1701   2.480   0.203   2.178  2.6791 -2.7745 -2.2509
  568SOL     OW 1702   1.545   1.815   0.264 -0.3323 -0.2602 -0.7442
  568SOL    HW1 1703   1.461   1.868   0.227 -1.2559 -0.7701  0.9137
  568SOL    HW2 1704   1.622   1.807   0.198 -1.6981  0.5740  1.2800
  569SOL     OW 1705   0.302   0.642   0.837 -0.1693  0.2669  0.5910
  569SOL    HW1 1706   0.353   0.594   0.758  0.7001 -4.1428 -0.5390
  569SOL    HW2 1707   0.221   0.586   0.875 -2.5805 -2.2617  0.7253
  570SOL     OW 1708   0.665   0.744   2.839  0.7070  0.0270 -0.1902
  570SOL    HW1 1709   0.679   0.749   2.733  1.4110 -0.1535 -2.3425
  570SOL    HW2 1710   0.693   0.834   2.888 -0.2053  1.4514 -1.0724
  571SOL     OW 1711   0.852   3.064   1.111 -0.2858  0.0273  0.1821
  571SOL    HW1 1712   0.892   3.093   1.019 -0.2499 -2.3242  0.2275
  571SOL    HW2 1713   0.882   2.971   1.139 -1.6878  0.2650  2.6373
  572SOL     OW 1714   1.572   2.642   1.141  0.1985 -0.0722  0.5171
  572SOL    HW1 1715   1.499   2.596   1.193  0.1234  0.6948  1.9198
  572SOL    HW2 1716   1.549   2.736   1.111 -0.4402 -1.3594 -1.4751
  573SOL     OW 1717   2.923   0.414   2.055 -0.1626 -0.0653 -0.0029
  573SOL    HW1 1718   2.891   0.317   2.045  1.0273  2.3538  0.4096
  573SOL    HW2 1719   2.853   0.483   2.025 -0.7132  1.3069  0.7759
  574SOL     OW 1720   0.217   1.772   0.990  0.1941 -0.2620 -0.4990
  574SOL    HW1 1721   0.219   1.870   0.951 -2.0508  0.0638  1.0013
  574SOL    HW2 1722   0.142   1.757   1.059  2.4207  2.4671  3.7565
  575SOL     OW 1723   0.822   2.160   0.971  0.9894 -0.2034  0.3566
  575SOL    HW1 1724   0.822   2.193   1.067 -0.9698  0.7156 -1.3360
  575SOL    HW2 1725   0.844   2.234   0.903  0.5141 -0.0651  1.1929
  576SOL     OW 1726   2.934   2.932   1.693  0.1325  0.2507 -0.5046
  576SOL    HW1 1727   2.870   2.888   1.619 -1.2012  1.7193  0.1426
  576SOL    HW2 1728   2.956   3.035   1.672 -3.1267 -0.4169 -1.9590
  577SOL     OW 1729   2.541   1.234   3.091 -0.3515 -0.2704  0.0007
  577SOL    HW1 1730   2.564   1.145   3.040 -0.4990  0.9011  0.8079
  577SOL    HW2 1731   2.590   1.245   3.187  2.3442 -1.9586  0.7680
  578SOL     OW 1732   1.331   2.677   2.591  0.6950 -0.7538  0.4836
  578SOL    HW1 1733   1.246   2.656   2.544  0.9789  0.5208  1.1255
  578SOL    HW2 1734   1.349   2.778   2.589 -0.2789 -0.1498 -1.6404
  579SOL     OW 1735   0.119   2.509   0.113  0.1866 -0.1111  0.4852
  579SOL    HW1 1736   0.068   2.511   0.205 -1.0289 -1.6738  0.1391
  579SOL    HW2 1737   0.222   2.516   0.125 -1.4370  2.5618 -0.2769
  580SOL     OW 1738   1.005   2.599   0.381  0.4953 -0.1583  0.0697
  580SOL    HW1 1739   1.090   2.623   0.325 -2.0224  1.0325  0.6840
  580SOL    HW2 1740   0.936   2.538   0.337 -1.3682  0.1437  1.1786
  581SOL     OW 1741   1.226   2.606   1.511 -0.0578 -0.6361 -0.0156
  581SOL    HW1 1742   1.257   2.522   1.458 -0.2471 -0.9332  0.7166
  581SOL    HW2 1743   1.280   2.695   1.498 -1.3220  0.8554 -0.4672
  582SOL     OW 1744   1.487   0.095   1.817 -0.4513  0.0228 -0.1698
  582SOL    HW1 1745   1.515   0.184   1.860  0.7155  0.0293 -2.5857
  582SOL    HW2 1746   1.567   0.057   1.758  2.5098  1.7867 -1.8946
  583SOL     OW 1747   2.509   2.978   0.528  0.2276  0.2753 -0.3812
  583SOL    HW1 1748   2.520   2.892   0.469 -2.6401 -0.1432  2.8576
  583SOL    HW2 1749   2.453   2.952   0.611 -0.2438 -2.5530  1.5635
  584SOL     OW 1750   1.618   1.013   2.088  0.1179 -0.4994  0.1003
  584SOL    HW1 1751   1.682   1.069   2.028 -0.9861 -0.8970  2.1475
  584SOL    HW2 1752   1.661   0.983   2.177 -1.5870  0.3889  1.5991
  585SOL     OW 1753   2.088   2.663   2.926 -0.2141  0.7565  0.7093
  585SOL    HW1 1754   2.104   2.566   2.896 -1.1754 -0.7695 -1.1329
  585SOL    HW2 1755   1.993   2.688   2.907  2.9165 -1.0052  0.7935
  586SOL     OW 1756   2.730   0.230   1.527 -0.4125 -0.0580  0.6775
  586SOL    HW1 1757   2.739   0.311   1.589 -0.4862 -0.3712 -2.6989
  586SOL    HW2 1758   2.634   0.184   1.543  1.5023 -0.1656  0.5934
  587SOL     OW 1759   1.968   1.595   2.742 -0.1361 -0.5441  0.0922
  587SOL    HW1 1760   2.033   1.536   2.681 -1.1637 -2.7010  1.9957
  587SOL    HW2 1761   2.010   1.621   2.831 -1.0123  0.0895 -0.5404
  588SOL     OW 1762   0.458   2.729   2.247  0.0010 -0.3720  0.4824
  588SOL    HW1 1763   0.375   2.738   2.184  1.4468  1.9396  1.2653
  588SOL    HW2 1764   0.480   2.634   2.284 -1.9134 -0.1788 -0.6435
  589SOL     OW 1765   2.107   1.443   2.537  0.0368  0.1383  0.0354
  589SOL    HW1 1766   2.021   1.412   2.485 -1.0316  0.2836  0.5229
  589SOL    HW2 1767   2.167   1.369   2.573 -1.1432  1.4112 -2.5914
  590SOL     OW 1768   2.355   1.672   2.031 -0.6138  0.1269  0.3102
  590SOL    HW1 1769   2.418   1.594   2.003 -1.6970 -0.3816  0.6189
  590SOL    HW2 1770   2.369   1.709   2.126 -0.4908  0.7606 -1.3729
  591SOL     OW 1771   1.391   2.414   0.256  0.1686 -0.1124 -0.4531
  591SOL    HW1 1772   1.485   2.418   0.211 -0.9852 -2.5986 -0.2670
  591SOL    HW2 1773   1.397   2.381   0.354  1.7410  0.8142 -1.1394
  592SOL     OW 1774   1.772   2.369   0.804 -0.4783 -0.1277  0.0510
  592SOL    HW1 1775   1.745   2.394   0.704  3.1359 -0.7193 -0.0235
  592SOL    HW2 1776   1.868   2.331   0.806  0.2959 -1.2017  1.2285
  593SOL     OW 1777   0.660   0.275   0.093  0.2114 -0.1018  0.4929
  593SOL    HW1 1778   0.742   0.257   0.033 -1.2730  0.0214  2.0072
  593SOL    HW2 1779   0.664   0.365   0.137  1.3772  1.8367 -2.1670
  594SOL     OW 1780   0.980   1.875   2.709  0.2797 -0.5104  0.4075
  594SOL    HW1 1781   1.078   1.870   2.745 -0.3890 -1.5140  0.7635
  594SOL    HW2 1782   0.919   1.941   2.762 -0.2744 -0.1451  0.3276
  595SOL     OW 1783   1.516   0.068   1.017 -0.4567  0.1752  0.1320
  595SOL    HW1 1784   1.600   0.014   1.047  1.2005  1.1256  1.1007
  595SOL    HW2 1785   1.461   0.011   0.946 -0.1064  0.3023  0.9285
  596SOL     OW 1786   3.077   1.482   2.220 -0.1097  0.2944  0.5960
  596SOL    HW1 1787   2.973   1.458   2.218  0.8910  0.1692  0.5306
  596SOL    HW2 1788   3.108   1.569   2.260 -0.4077  1.5019 -1.4878
  597SOL     OW 1789   2.066   2.608   1.645  0.3050 -0.4119  0.2262
  597SOL    HW1 1790   2.050   2.587   1.543 -1.0882 -0.0466 -4.6044
  597SOL    HW2 1791   2.160   2.583   1.680  1.0263  0.0542  0.3923
  598SOL     OW 1792   2.464   2.933   1.344 -0.0198  0.0983 -0.5193
  598SOL    HW1 1793   2.550   2.990   1.368  0.4062  1.8914  2.3562
  598SOL    HW2 1794   2.467   2.901   1.246 -0.5808  1.9683 -3.7315
  599SOL     OW 1795   2.934   0.404   2.467 -0.2248  0.2089  0.2959
  599SOL    HW1 1796   2.973   0.496   2.435  1.0659  0.9649  1.3080
  599SOL    HW2 1797   2.843   0.388   2.425  0.2308  2.9691  1.2754
  600SOL     OW 1798   2.820   1.115   2.709 -0.2903 -0.4385  0.1901
  600SOL    HW1 1799   2.745   1.047   2.706 -1.4982  1.8713 -0.0640
  600SOL    HW2 1800   2.815   1.180   2.784 -0.5300 -0.2261 -0.5020
  601SOL     OW 1801   3.006   1.267   1.966 -0.3183  0.2430 -0.4204
  601SOL    HW1 1802   2.939   1.308   1.894 -3.0507 -0.8366 -0.7579
  601SOL    HW2 1803   3.075   1.336   1.995 -1.8809 -2.6914  1.1252
  602SOL     OW 1804   1.435   1.692   2.371 -0.6282 -0.4258  0.0287
  602SOL    HW1 1805   1.372   1.610   2.366 -0.6445 -0.5850 -2.0012
  602SOL    HW2 1806   1.542   1.666   2.363  0.4764 -1.1218 -1.8890
  603SOL     OW 1807   0.637   1.238   2.697 -0.3441  0.0040  0.8683
  603SOL    HW1 1808   0.561   1.235   2.626  0.8001 -2.0857  0.9223
  603SOL    HW2 1809   0.709   1.163   2.684  1.7172 -0.7071  0.3862
  604SOL     OW 1810   2.410   1.001   0.143  0.0280  0.2632 -0.1151
  604SOL    HW1 1811   2.512   1.023   0.119  3.7396 -1.3769 -1.4172
  604SOL    HW2 1812   2.380   0.922   0.082 -0.0208  0.0069  0.6175
  605SOL     OW 1813   2.639   1.155   1.937 -0.1216  0.2357 -0.3585
  605SOL    HW1 1814   2.589   1.066   1.904  1.1743  0.3399  0.2199
  605SOL    HW2 1815   2.628   1.178   2.036  0.1411 -1.7881 -1.1218
  606SOL     OW 1816   1.519   2.502   2.652  0.1394 -0.1688 -0.2765
  606SOL    HW1 1817   1.426   2.539   2.636  3.0775 -0.3076 -1.5850
  606SOL    HW2 1818   1.531   2.401   2.620 -0.8925 -2.1365  0.5145
  607SOL     OW 1819   1.381   1.609   0.402  0.1534  0.4108  0.2214
  607SOL    HW1 1820   1.377   1.596   0.503 -1.0445  2.3662  1.6852
  607SOL    HW2 1821   1.447   1.688   0.376  0.7828 -1.7410  1.1520
  608SOL     OW 1822   1.450   2.818   0.398  0.3379 -0.2502 -0.3640
  608SOL    HW1 1823   1.527   2.880   0.369  1.5394 -1.4909  3.1322
  608SOL    HW2 1824   1.367   2.868   0.435  0.5279  0.9744 -1.8349
  609SOL     OW 1825   1.269   1.406   0.268  0.6924  0.2722  0.0620
  609SOL    HW1 1826   1.305   1.487   0.325  0.1644  1.8685 -1.9024
  609SOL    HW2 1827   1.174   1.428   0.224 -2.3292  0.4215 -1.3802
  610SOL     OW 1828   3.024   1.138   2.213  0.1431  0.2633 -0.9778
  610SOL    HW1 1829   2.997   1.039   2.236  2.8356 -1.1320  0.2029
  610SOL    HW2 1830   3.004   1.165   2.112 -4.1002  0.6598  0.7351
  611SOL     OW 1831   2.575   0.299   1.169  0.4612 -0.4883 -0.1187
  611SOL    HW1 1832   2.531   0.213   1.208  0.6781 -0.0050  0.5215
  611SOL    HW2 1833   2.665   0.333   1.213  0.8009 -0.7885 -0.8138
  612SOL     OW 1834   0.791   2.239   1.235 -0.7696  0.3145 -0.3056
  612SOL    HW1 1835   0.723   2.166   1.260  0.2166  0.4251  0.4414
  612SOL    HW2 1836   0.753   2.331   1.209 -0.9527  0.5938  0.4389
  613SOL     OW 1837   0.828   1.412   2.430 -0.5955  0.1378 -0.0470
  613SOL    HW1 1838   0.839   1.477   2.349 -0.4738  2.5306  2.7232
  613SOL    HW2 1839   0.780   1.323   2.403  3.0900 -0.1886 -2.6094
  614SOL     OW 1840   1.628   1.646   1.927 -0.6584 -0.1338  0.0763
  614SOL    HW1 1841   1.556   1.717   1.953  0.9040  1.6069  2.0321
  614SOL    HW2 1842   1.713   1.651   1.988  1.3805 -0.6359 -1.7840
  615SOL     OW 1843   0.792   1.279   1.678  0.3028  0.4965 -0.0793
  615SOL    HW1 1844   0.725   1.252   1.611 -0.0599 -0.4847  0.4824
  615SOL    HW2 1845   0.830   1.369   1.656 -2.5194 -0.6315 -2.4348
  616SOL     OW 1846   1.070   1.605   2.317 -0.1513 -0.4073  0.7293
  616SOL    HW1 1847   1.008   1.567   2.248  2.9846  0.2047 -1.0195
  616SOL    HW2 1848   1.073   1.706   2.302 -1.2025  0.6752  0.5831
  617SOL     OW 1849   2.908   1.534   1.618 -0.1698 -0.2998  0.2910
  617SOL    HW1 1850   2.856   1.459   1.672 -0.7065 -0.7108 -0.5759
  617SOL    HW2 1851   2.942   1.498   1.529  1.3354  2.2707 -0.6033
  618SOL     OW 1852   1.955   2.056   1.323  0.5867 -0.1798  0.6109
  618SOL    HW1 1853   1.920   2.107   1.239  2.2158 -2.2235  0.0321
  618SOL    HW2 1854   1.969   1.953   1.297  0.0252 -0.9114  0.3929
  619SOL     OW 1855   1.752   0.473   2.374  0.3537  0.1483  0.0438
  619SOL    HW1 1856   1.673   0.515   2.324 -0.9926 -1.7676 -0.2661
  619SOL    HW2 1857   1.736   0.370   2.377 -2.4970 -0.2879  1.4653
  620SOL     OW 1858   2.334   2.961   0.753  0.0664  0.4418 -0.0197
  620SOL    HW1 1859   2.278   3.049   0.757 -0.1369 -1.9454  0.1587
  620SOL    HW2 1860   2.326   2.909   0.837 -1.0974 -2.2073 -1.5101
  621SOL     OW 1861   2.111   1.818   1.310  0.6452 -0.0182 -0.8139
  621SOL    HW1 1862   2.148   1.802   1.406 -1.6515  1.2871 -1.1838
  621SOL    HW2 1863   2.046   1.739   1.282 -1.2825 -1.9451 -0.4825
  622SOL     OW 1864   2.290   0.906   1.782 -0.6311 -0.4485 -0.4487
  622SOL    HW1 1865   2.393   0.935   1.771  2.3659  0.0158  1.3518
  622SOL    HW2 1866   2.275   0.818   1.829  0.8515  0.1782 -1.9094
  623SOL     OW 1867   1.338   0.791   2.510 -0.0255 -0.1193  1.4398
  623SOL    HW1 1868   1.270   0.716   2.484  1.7323  1.7860  0.6163
  623SOL    HW2 1869   1.293   0.881   2.495 -2.5704 -3.7280 -0.2708
  624SOL     OW 1870   0.551   0.686   3.082 -0.6779  0.5828  0.1784
  624SOL    HW1 1871   0.569   0.678   2.981 -0.9561  2.0638  1.0994
  624SOL    HW2 1872   0.559   0.783   3.121  0.9825 -1.6296 -0.8664
  625SOL     OW 1873   2.784   1.727   1.000  0.5909  0.4681  0.4280
  625SOL    HW1 1874   2.689   1.761   1.018  1.1321 -0.2233 -1.2251
  625SOL    HW2 1875   2.858   1.797   1.032 -0.0241  1.5761  0.7547
  626SOL     OW 1876   0.609   2.703   1.704 -0.3606 -0.2025  0.1690
  626SOL    HW1 1877   0.656   2.766   1.769 -2.2486  0.8170 -2.5322
  626SOL    HW2 1878   0.507   2.701   1.728 -0.0008 -1.5198  1.0927
  627SOL     OW 1879   0.686   0.950   1.554 -0.4978 -0.1984 -0.1333
  627SOL    HW1 1880   0.620   0.891   1.508  1.6491  1.2689  0.4029
  627SOL    HW2 1881   0.758   0.996   1.492  0.5492 -1.6291 -2.2964
  628SOL     OW 1882   2.497   0.125   0.662  0.2211  0.0148  0.2989
  628SOL    HW1 1883   2.524   0.042   0.610  0.4332 -2.2134  0.6826
  628SOL    HW2 1884   2.396   0.124   0.692 -0.3379 -0.9811 -2.0156
  629SOL     OW 1885   1.954   0.924   2.073  0.7036 -0.0956 -0.7389
  629SOL    HW1 1886   1.972   0.935   1.974 -1.3222 -0.0339 -0.9570
  629SOL    HW2 1887   1.934   1.018   2.117 -2.3123 -2.1798 -1.4492
  630SOL     OW 1888   2.940   2.316   0.823  0.6415 -0.4296  0.0751
  630SOL    HW1 1889   2.864   2.385   0.849  1.3584 -0.0977 -0.1787
  630SOL    HW2 1890   2.895   2.223   0.809  0.4828 -0.0175 -0.3080
  631SOL     OW 1891   3.071   0.156   2.172 -0.3344  0.7194 -0.2316
  631SOL    HW1 1892   3.117   0.176   2.258  0.0929  1.5754 -1.6819
  631SOL    HW2 1893   3.100   0.217   2.092  1.3527  0.7728  0.6067
  632SOL     OW 1894   2.455   2.596   0.639 -0.0840  0.2306  0.2479
  632SOL    HW1 1895   2.490   2.692   0.667 -2.3450  1.8252  0.5202
  632SOL    HW2 1896   2.400   2.595   0.546 -1.9758 -0.2737 -3.2468
  633SOL     OW 1897   1.444   1.229   2.662 -0.2406  0.0193 -0.1683
  633SOL    HW1 1898   1.421   1.315   2.718 -0.6423 -1.1344 -1.9255
  633SOL    HW2 1899   1.380   1.231   2.579 -0.3520  3.4933 -1.2021
  634SOL     OW 1900   0.640   1.986   0.876  0.1090  0.3374 -0.0374
  634SOL    HW1 1901   0.557   2.002   0.934 -0.7608 -2.7607  0.9858
  634SOL    HW2 1902   0.714   2.055   0.896  0.1612  1.8200 -0.8395
  635SOL     OW 1903   3.006   2.340   0.061  0.1404  0.0124 -0.0201
  635SOL    HW1 1904   2.956   2.385  -0.015  0.2693 -0.1144  1.4859
  635SOL    HW2 1905   3.100   2.375   0.071 -0.0671 -1.6857 -0.3388
  636SOL     OW 1906   2.331   2.744   1.941  0.4010  0.3938 -0.8104
  636SOL    HW1 1907   2.349   2.847   1.952 -0.2405 -0.3847 -0.3918
  636SOL    HW2 1908   2.274   2.704   2.020 -2.8788  0.1999  0.2173
  637SOL     OW 1909   2.738   0.623   1.955 -0.3225 -0.2256 -0.4932
  637SOL    HW1 1910   2.651   0.632   1.908  0.4723 -1.8917  3.3034
  637SOL    HW2 1911   2.771   0.711   2.003 -0.3424  0.6657  1.9826
  638SOL     OW 1912   2.414   1.829   1.311 -0.3434 -0.0808  0.2373
  638SOL    HW1 1913   2.311   1.836   1.317 -0.2306 -3.8512  0.3294
  638SOL    HW2 1914   2.450   1.782   1.401 -0.9243 -0.4218 -0.9493
  639SOL     OW 1915   1.295   2.139   1.693 -0.0449 -0.8930 -0.4278
  639SOL    HW1 1916   1.338   2.236   1.688 -1.8027 -0.2480  3.0268
  639SOL    HW2 1917   1.195   2.138   1.731 -1.1794 -3.4350  0.8814
  640SOL     OW 1918   0.223   1.193   1.567  0.3270 -0.4631 -0.7443
  640SOL    HW1 1919   0.194   1.217   1.667 -3.1414  0.9093 -0.3986
  640SOL    HW2 1920   0.292   1.113   1.553  1.2523 -0.7151 -3.1545
  641SOL     OW 1921   1.997   0.309   1.468 -0.5195 -0.5023  0.4883
  641SOL    HW1 1922   1.980   0.335   1.564  1.8237 -0.2387 -1.4028
  641SOL    HW2 1923   2.075   0.240   1.455 -2.4877 -1.1658 -0.9224
  642SOL     OW 1924   2.011   0.033   0.321 -0.2340 -0.1748 -0.2597
  642SOL    HW1 1925   2.116   0.034   0.326 -0.1198 -2.4707 -0.6999
  642SOL    HW2 1926   1.965   0.057   0.411  1.0027 -3.3694  0.5333
  643SOL     OW 1927   2.925   1.794   2.125 -0.1636 -0.0283  0.0261
  643SOL    HW1 1928   2.891   1.731   2.051  1.8661 -0.5545  0.2796
  643SOL    HW2 1929   2.937   1.897   2.099  0.7039  1.7447  1.9329
  644SOL     OW 1930   2.253   2.407   1.197 -0.5866  0.6765 -0.1114
  644SOL    HW1 1931   2.285   2.315   1.153 -0.1334  1.2152 -1.9401
  644SOL    HW2 1932   2.230   2.397   1.299 -2.4142 -0.3934  0.1341
  645SOL     OW 1933   0.577   0.872   1.282  0.7442 -0.0075  0.1714
  645SOL    HW1 1934   0.493   0.810   1.283 -1.9518  1.2797 -1.5129
  645SOL    HW2 1935   0.580   0.934   1.196 -4.0399  0.0656 -0.4862
  646SOL     OW 1936   1.464   1.809   2.041 -0.4999 -0.3670 -0.0061
  646SOL    HW1 1937   1.492   1.899   1.997 -2.8363  0.7685 -0.2413
  646SOL    HW2 1938   1.450   1.818   2.143  1.3364 -0.1542  0.6556
  647SOL     OW 1939   0.802   1.022   0.656 -1.0883 -0.1413  0.7459
  647SOL    HW1 1940   0.852   1.059   0.743 -2.3880 -0.1082 -0.9078
  647SOL    HW2 1941   0.725   0.960   0.682  0.6152  2.8427  1.5960
  648SOL     OW 1942   0.158   0.234   0.240  0.3802  0.5754  0.3147
  648SOL    HW1 1943   0.210   0.177   0.168 -2.1077 -1.1517 -0.2199
  648SOL    HW2 1944   0.133   0.327   0.207 -1.5325 -1.6589  0.6208
  649SOL     OW 1945   3.000   0.245   0.866 -0.0752 -0.4295 -0.0021
  649SOL    HW1 1946   3.074   0.175   0.857  0.7480  0.8377  1.3557
  649SOL    HW2 1947   3.041   0.339   0.876 -1.3050  1.1899  1.5907
  650SOL     OW 1948   2.737   0.639   1.500 -0.1235 -0.0424  0.0017
  650SOL    HW1 1949   2.632   0.644   1.511 -0.0151 -0.6788 -1.5807
  650SOL    HW2 1950   2.768   0.725   1.449  0.3992  1.5239  0.5869
  651SOL     OW 1951   0.931   1.512   1.607  0.0374  0.1977 -0.4591
  651SOL    HW1 1952   0.947   1.598   1.659  0.5451 -2.8870  1.1947
  651SOL    HW2 1953   0.995   1.502   1.527  1.3295 -2.4707 -1.0003
  652SOL     OW 1954   2.321   2.392   2.424  0.3179 -0.4672 -0.6242
  652SOL    HW1 1955   2.246   2.450   2.468  1.0177 -1.0581 -1.0120
  652SOL    HW2 1956   2.347   2.424   2.328  1.8207 -1.2210  0.6856
  653SOL     OW 1957   2.667   1.254   0.224 -0.8365 -0.4737 -0.3905
  653SOL    HW1 1958   2.706   1.341   0.269  1.7122  0.4237  0.2229
  653SOL    HW2 1959   2.732   1.172   0.214 -0.5544 -1.2773 -2.1748
  654SOL     OW 1960   1.276   2.227   1.303 -0.0501 -0.1559  0.3305
  654SOL    HW1 1961   1.285   2.132   1.344  0.0596 -0.1986  1.2879
  654SOL    HW2 1962   1.281   2.233   1.197  0.6593  2.8622 -0.7748
  655SOL     OW 1963   0.186   0.929   1.863 -0.9153  0.0526 -0.2339
  655SOL    HW1 1964   0.247   0.874   1.803 -0.3641 -0.4580  0.3483
  655SOL    HW2 1965   0.212   1.032   1.876 -1.2410  1.2878 -0.1448
  656SOL     OW 1966   2.553   2.457   2.617 -0.2586 -0.5644  0.2990
  656SOL    HW1 1967   2.647   2.420   2.594 -1.5914  0.1369 -1.2874
  656SOL    HW2 1968   2.478   2.411   2.568 -0.7936 -0.6430 -0.6969
  657SOL     OW 1969   3.001   0.991   1.882  0.0568 -0.4227  0.1613
  657SOL    HW1 1970   3.014   1.090   1.914  1.0673 -0.1532  2.4139
  657SOL    HW2 1971   3.100   0.949   1.874  0.9873  1.8704  1.5031
  658SOL     OW 1972   1.716   0.198   2.373 -0.2737 -0.5745 -0.0086
  658SOL    HW1 1973   1.743   0.125   2.440  0.3228  0.3355  1.5524
  658SOL    HW2 1974   1.750   0.179   2.273  0.4154 -0.6470  0.5498
  659SOL     OW 1975   1.403   0.611   2.837 -0.0337  0.5009 -0.3209
  659SOL    HW1 1976   1.464   0.680   2.799 -0.0810 -0.6262  1.5567
  659SOL    HW2 1977   1.306   0.651   2.848 -2.2751  0.3604 -1.3450
  660SOL     OW 1978   1.374   0.338   1.430 -0.5407 -0.4772  0.2604
  660SOL    HW1 1979   1.374   0.337   1.531  2.5426  0.0787 -0.7959
  660SOL    HW2 1980   1.452   0.288   1.393  0.0642 -1.4874  1.6831
  661SOL     OW 1981   2.355   1.224   0.670 -0.6826 -0.1769  0.4976
  661SOL    HW1 1982   2.364   1.218   0.560 -1.3098 -2.4190 -0.7440
  661SOL    HW2 1983   2.338   1.323   0.696 -0.4743 -0.3525  1.4530
  662SOL     OW 1984   1.380   0.402   1.744 -0.4015  0.0660 -0.3238
  662SOL    HW1 1985   1.327   0.393   1.832  1.1646 -0.6482  2.4875
  662SOL    HW2 1986   1.429   0.491   1.733  1.8963 -2.0798 -0.7414
  663SOL     OW 1987   0.871   1.587   2.149  0.2843  0.2260 -0.0292
  663SOL    HW1 1988   0.794   1.644   2.203 -1.9959 -2.5786  4.5589
  663SOL    HW2 1989   0.841   1.537   2.066  4.1105  0.0709  3.0160
  664SOL     OW 1990   1.651   2.066   1.397 -0.2170 -0.1064  0.1120
  664SOL    HW1 1991   1.611   2.015   1.481  0.3673 -0.9974 -1.4935
  664SOL    HW2 1992   1.745   2.035   1.372  1.6331  0.9867  0.9291
  665SOL     OW 1993   2.310   0.699   1.984 -0.2488  0.3543  0.2521
  665SOL    HW1 1994   2.237   0.626   2.000 -1.3525  1.4488 -0.5256
  665SOL    HW2 1995   2.373   0.717   2.062 -0.5851 -1.5177  0.6372
  666SOL     OW 1996   0.502   2.294   0.347 -0.3702  0.7659 -0.5316
  666SOL    HW1 1997   0.547   2.353   0.418 -0.9523  1.2914 -2.5230
  666SOL    HW2 1998   0.403   2.282   0.369 -0.5843  0.0691  1.3432
  667SOL     OW 1999   1.979   0.215   1.065  0.3732 -0.1370  0.4867
  667SOL    HW1 2000   1.993   0.317   1.068 -0.3929  1.7091  1.9933
  667SOL    HW2 2001   1.908   0.177   1.134  1.7674 -3.6916  1.1057
  668SOL     OW 2002   2.021   0.482   1.133  0.6934 -0.2633  0.0602
  668SOL    HW1 2003   2.087   0.515   1.058  2.2647  0.5887 -2.4723
  668SOL    HW2 2004   2.034   0.535   1.224 -1.0257 -0.9019  1.8389
  669SOL     OW 2005   3.076   2.166   1.014  0.1355 -0.6070 -0.2566
  669SOL    HW1 2006   3.028   2.231   0.944  0.2809  0.2945  0.8954
  669SOL    HW2 2007   3.061   2.199   1.114  1.1405  1.5545  3.0157
  670SOL     OW 2008   2.899   2.316   2.095  0.0679  0.0911 -0.3629
  670SOL    HW1 2009   2.814   2.282   2.153  0.6980 -1.0389  0.5423
  670SOL    HW2 2010   2.887   2.417   2.075  1.8122 -2.0058  0.1152
  671SOL     OW 2011   1.785   1.815   1.464 -0.5212  0.1226 -0.3971
  671SOL    HW1 2012   1.801   1.807   1.361  0.8852  0.2745 -0.7107
  671SOL    HW2 2013   1.687   1.833   1.498  0.1551 -0.4537 -0.1072
  672SOL     OW 2014   0.450   0.637   2.401 -0.4541 -0.3057 -0.6020
  672SOL    HW1 2015   0.511   0.658   2.323  0.0506  1.5372  1.2698
  672SOL    HW2 2016   0.369   0.705   2.401  0.4974 -0.1368  0.0937
  673SOL     OW 2017   0.158   1.165   1.150 -0.0604  0.4697  0.2368
  673SOL    HW1 2018   0.193   1.232   1.221 -1.7864 -0.4831  0.1470
  673SOL    HW2 2019   0.239   1.127   1.092  2.3036  0.5540  1.6318
  674SOL     OW 2020   1.644   2.989   0.316  0.1275  0.1530 -0.2521
  674SOL    HW1 2021   1.608   3.081   0.301  3.8083 -1.7844  2.4348
  674SOL    HW2 2022   1.746   2.982   0.308  1.1701 -0.8524  2.1570
  675SOL     OW 2023   1.736   0.811   2.253  0.1312 -0.0661 -0.2962
  675SOL    HW1 2024   1.836   0.784   2.258 -0.4820 -1.3577  1.9124
  675SOL    HW2 2025   1.673   0.738   2.219  0.9232 -1.2068 -1.2186
  676SOL     OW 2026   2.533   1.485   1.928  0.3833 -0.0131  0.6054
  676SOL    HW1 2027   2.482   1.433   1.853 -2.4605  0.2065 -1.4239
  676SOL    HW2 2028   2.562   1.416   2.005 -0.1265 -1.2642 -4.1864
  677SOL     OW 2029   1.925   0.724   0.924 -0.0350  0.2541  0.2071
  677SOL    HW1 2030   1.829   0.731   0.958 -1.9357 -0.5037 -1.8938
  677SOL    HW2 2031   1.970   0.637   0.958  4.3204 -1.2646  0.3931
  678SOL     OW 2032   0.061   0.751   1.598 -0.2785  0.0593  0.3549
  678SOL    HW1 2033   0.156   0.707   1.602  2.4123  2.6301 -0.5985
  678SOL    HW2 2034   0.008   0.733   1.687  1.5073 -1.6787 -0.5070
  679SOL     OW 2035   2.545   1.179   1.213 -0.8506 -0.0444 -0.1833
  679SOL    HW1 2036   2.450   1.215   1.191  1.2064  1.1756  1.2691
  679SOL    HW2 2037   2.550   1.080   1.194 -1.5483  1.5739  0.5223
  680SOL     OW 2038   2.835   0.446   1.679 -0.4533  0.2047  0.6750
  680SOL    HW1 2039   2.806   0.521   1.615  3.1632  1.0910 -1.6561
  680SOL    HW2 2040   2.931   0.469   1.718  2.0271  1.6251  1.4929
  681SOL     OW 2041   2.961   0.099   1.598  0.4760  0.3224  0.3623
  681SOL    HW1 2042   3.012   0.088   1.508  0.8216 -0.6218 -1.1564
  681SOL    HW2 2043   2.882   0.163   1.585 -2.5030  1.7873 -1.7836
  682SOL     OW 2044   0.732   0.036   1.330  0.0302 -0.1976 -0.2509
  682SOL    HW1 2045   0.655  -0.023   1.366  0.7878 -2.0478  0.5088
  682SOL    HW2 2046   0.781   0.003   1.245 -0.9840 -0.5104 -2.5724
  683SOL     OW 2047   1.392   0.202   2.173 -0.3551 -0.0490 -0.2998
  683SOL    HW1 2048   1.381   0.256   2.259 -0.1011 -0.5204  1.9841
  683SOL    HW2 2049   1.463   0.235   2.104  0.5512  0.5563 -2.6171
  684SOL     OW 2050   1.442   2.057   0.479 -0.1454 -0.0779 -0.5675
  684SOL    HW1 2051   1.487   2.017   0.562  0.6676 -1.1206  0.6265
  684SOL    HW2 2052   1.341   2.030   0.456 -0.3965 -1.6913 -1.8069
  685SOL     OW 2053   2.205   2.105   1.963  0.0048  0.6196 -0.7802
  685SOL    HW1 2054   2.283   2.080   1.895  0.1555 -1.2445  1.4831
  685SOL    HW2 2055   2.218   2.062   2.059 -0.5054 -0.8012  3.0307
  686SOL     OW 2056   1.506   1.846   2.796 -0.5069 -0.0172 -0.4866
  686SOL    HW1 2057   1.539   1.787   2.876  1.9448  0.9153 -1.7644
  686SOL    HW2 2058   1.406   1.834   2.765 -3.2404  2.1965  1.1492
  687SOL     OW 2059   1.349   2.447   1.976  0.2829  0.2013 -0.2947
  687SOL    HW1 2060   1.332   2.344   1.961  0.1304 -0.9877  0.8429
  687SOL    HW2 2061   1.383   2.462   2.071 -0.9716  0.6625 -0.2273
  688SOL     OW 2062   2.005   1.535   1.753  0.1937 -0.4711  0.0090
  688SOL    HW1 2063   2.098   1.584   1.764  2.1363 -1.3379  2.0853
  688SOL    HW2 2064   1.994   1.486   1.664 -1.8316  1.5855 -2.6596
  689SOL     OW 2065   2.377   1.083   2.768 -0.1196 -0.2622  0.3867
  689SOL    HW1 2066   2.288   1.029   2.787  2.1884 -2.1993  4.0702
  689SOL    HW2 2067   2.448   1.050   2.834  1.6509 -2.1545 -2.1013
  690SOL     OW 2068   2.219   2.803   0.044  0.3471 -0.0207  0.3895
  690SOL    HW1 2069   2.162   2.735  -0.003  0.3912  1.5563  0.6984
  690SOL    HW2 2070   2.169   2.851   0.117 -1.8119  0.3407  3.1678
  691SOL     OW 2071   2.604   0.410   2.123  0.4200 -0.3399 -0.4818
  691SOL    HW1 2072   2.668   0.336   2.108 -1.2334  0.8075 -0.1403
  691SOL    HW2 2073   2.635   0.496   2.076  2.1198  0.4096 -0.3007
  692SOL     OW 2074   2.678   1.216   0.749  0.2355  0.0210 -0.4998
  692SOL    HW1 2075   2.598   1.224   0.681  0.9478  1.5405  0.6302
  692SOL    HW2 2076   2.744   1.296   0.745  2.5345 -0.9590  1.1210
  693SOL     OW 2077   2.820   2.951   0.617 -0.3124 -0.1057  0.7103
  693SOL    HW1 2078   2.817   3.015   0.699 -0.5580 -1.0569  0.1983
  693SOL    HW2 2079   2.790   2.984   0.521 -0.1591 -0.9715 -0.7352
  694SOL     OW 2080   2.387   2.249   0.092 -0.2697  0.0300 -0.1184
  694SOL    HW1 2081   2.356   2.348   0.085  0.3106 -0.1535 -0.4635
  694SOL    HW2 2082   2.314   2.180   0.075  1.4806  2.0192  1.6384
  695SOL     OW 2083   0.548   3.003   1.486  0.7600  0.7591  0.3944
  695SOL    HW1 2084   0.474   2.935   1.464 -1.3098  2.3687  1.6932
  695SOL    HW2 2085   0.530   3.047   1.579  2.4501 -0.2282  0.8547
  696SOL     OW 2086   2.828   2.072   0.766 -0.5881  0.4399 -0.0219
  696SOL    HW1 2087   2.875   1.984   0.791 -0.5831  0.0460 -1.0136
  696SOL    HW2 2088   2.804   2.081   0.665 -2.5667 -0.4722  2.3849
  697SOL     OW 2089   1.632   1.972   1.837 -0.4125  1.1040 -0.4968
  697SOL    HW1 2090   1.705   1.902   1.821 -3.8572 -0.3292 -1.2324
  697SOL    HW2 2091   1.669   2.065   1.816  1.6487  1.8121  3.4200
  698SOL     OW 2092   2.901   0.395   2.740  0.2024 -0.3559  0.1660
  698SOL    HW1 2093   2.946   0.381   2.644 -0.1601  2.5574  1.4955
  698SOL    HW2 2094   2.932   0.325   2.808 -1.0831  1.5455 -0.3473
  699SOL     OW 2095   1.539   0.060   2.927  0.3877  0.4366 -0.2262
  699SOL    HW1 2096   1.504  -0.038   2.901  0.7821 -0.1115 -1.8746
  699SOL    HW2 2097   1.580   0.103   2.842 -0.3819 -1.1717 -0.0102
  700SOL     OW 2098   1.019   2.345   1.387 -0.6941  0.6325 -0.2461
  700SOL    HW1 2099   1.104   2.292   1.350 -1.1443 -3.7377 -0.9954
  700SOL    HW2 2100   0.933   2.324   1.333  1.0898  0.3223  0.3343
  701SOL     OW 2101   1.923   2.898   3.064 -0.3422  0.1217 -0.3532
  701SOL    HW1 2102   1.949   2.847   3.150 -1.6230  0.3773 -2.2250
  701SOL    HW2 2103   1.930   3.001   3.074  1.2582 -1.1493 -2.8867
  702SOL     OW 2104   2.081   1.331   1.958  0.4022  0.3702 -0.1380
  702SOL    HW1 2105   2.162   1.274   1.927 -0.4509  0.3555  2.7107
  702SOL    HW2 2106   2.070   1.412   1.897 -0.3847 -1.5054  0.3359
  703SOL     OW 2107   1.918   0.922   1.448 -0.0363  0.0262  0.0924
  703SOL    HW1 2108   1.898   0.832   1.495 -0.2130  0.4801 -2.5156
  703SOL    HW2 2109   1.972   0.987   1.510 -1.3704 -0.2471 -1.2655
  704SOL     OW 2110   0.293   2.022   1.738  0.4355 -0.4576 -0.1871
  704SOL    HW1 2111   0.354   1.954   1.790  0.5732  2.5016  0.0436
  704SOL    HW2 2112   0.348   2.100   1.692  1.8313 -0.4809 -2.3386
  705SOL     OW 2113   2.549   1.548   0.874 -0.2343 -0.2934 -0.2017
  705SOL    HW1 2114   2.477   1.493   0.822 -1.2009 -0.0609 -0.9725
  705SOL    HW2 2115   2.642   1.508   0.881 -1.2009  1.8215 -2.9817
  706SOL     OW 2116   0.686   1.713   1.891 -0.0106 -0.0161  0.1199
  706SOL    HW1 2117   0.708   1.611   1.909  0.9456  0.9391 -2.2802
  706SOL    HW2 2118   0.740   1.778   1.948 -0.6468 -0.3810 -0.4134
  707SOL     OW 2119   2.306   1.172   1.869 -0.4913 -0.1336  0.0429
  707SOL    HW1 2120   2.359   1.171   1.958  1.4173 -1.2601 -1.3280
  707SOL    HW2 2121   2.285   1.074   1.840 -2.5580  1.4347 -0.4762
  708SOL     OW 2122   2.984   0.519   3.040  0.7660 -0.1607  0.0932
  708SOL    HW1 2123   2.984   0.564   2.946 -0.9860 -1.4060  0.6153
  708SOL    HW2 2124   2.999   0.417   3.040 -0.1906  2.9133  0.4566
  709SOL     OW 2125   1.831   1.878   0.307  0.2353  0.0584 -0.2039
  709SOL    HW1 2126   1.876   1.970   0.345  2.9897  1.1325 -0.6274
  709SOL    HW2 2127   1.822   1.883   0.202 -1.3459  0.3849 -0.7427
  710SOL     OW 2128   1.689   1.620   2.381 -0.1811 -0.1051  0.1423
  710SOL    HW1 2129   1.752   1.589   2.305 -1.8246 -0.7614 -1.1697
  710SOL    HW2 2130   1.719   1.574   2.467  1.0631  2.1349 -0.7740
  711SOL     OW 2131   2.582   2.936   1.098  0.9442  0.3344 -0.1567
  711SOL    HW1 2132   2.550   3.034   1.099  1.0461 -0.9626 -0.4845
  711SOL    HW2 2133   2.686   2.924   1.083 -1.3349 -0.5951 -1.2402
  712SOL     OW 2134   1.391   2.177   1.973 -0.3977  0.4065  0.2353
  712SOL    HW1 2135   1.483   2.218   1.961 -0.2913  0.4812  0.2690
  712SOL    HW2 2136   1.338   2.156   1.888 -1.5422  1.5123 -0.9663
  713SOL     OW 2137   2.787   1.482   2.502  0.1502 -0.0776  0.2813
  713SOL    HW1 2138   2.791   1.383   2.473  1.8514  2.3096 -0.4584
  713SOL    HW2 2139   2.701   1.497   2.559  1.1864 -0.5742  1.8280
  714SOL     OW 2140   2.660   0.450   2.417  0.3051  0.0210  0.0798
  714SOL    HW1 2141   2.595   0.429   2.492 -0.4482 -0.9829 -0.6192
  714SOL    HW2 2142   2.619   0.419   2.329  0.1303  0.7311 -2.8956
  715SOL     OW 2143   1.542   2.041   1.129  0.1864 -0.5980 -0.9066
  715SOL    HW1 2144   1.466   2.096   1.094  1.4296 -0.9419  0.3088
  715SOL    HW2 2145   1.567   2.063   1.231  0.4372 -0.3467  0.2251
  716SOL     OW 2146   1.183   0.128   1.523  0.6447  0.5201  0.4034
  716SOL    HW1 2147   1.084   0.132   1.479 -5.2781  0.7895 -0.0618
  716SOL    HW2 2148   1.244   0.212   1.494  0.6434  0.0220 -0.5504
  717SOL     OW 2149   1.183   0.556   1.565  0.4918  0.5252 -0.6832
  717SOL    HW1 2150   1.265   0.605   1.606  0.7450  0.7287  0.0787
  717SOL    HW2 2151   1.170   0.559   1.459 -2.6389 -3.3749  0.0051
  718SOL     OW 2152   0.686   0.859   0.993  0.6108 -0.0917  0.2918
  718SOL    HW1 2153   0.673   0.840   0.889 -0.4519 -2.2002  1.2531
  718SOL    HW2 2154   0.689   0.960   1.018  2.6955  1.1387 -0.0838
  719SOL     OW 2155   0.690   1.691   2.303 -0.0680 -0.3593  0.1257
  719SOL    HW1 2156   0.741   1.755   2.369 -0.2686  1.3128  1.2784
  719SOL    HW2 2157   0.660   1.605   2.337  0.5106  1.1171  1.1479
  720SOL     OW 2158   2.185   1.110   0.266 -0.2060 -0.2751 -0.1228
  720SOL    HW1 2159   2.245   1.049   0.207  0.1680 -0.2815 -0.7832
  720SOL    HW2 2160   2.176   1.073   0.366  0.0007 -0.9407  3.3216
  721SOL     OW 2161   2.272   3.023   2.067  0.5571 -0.1729  0.2227
  721SOL    HW1 2162   2.219   3.055   1.985  0.9428  1.9178 -1.2709
  721SOL    HW2 2163   2.222   3.010   2.153 -0.6662 -1.3924 -1.5512
  722SOL     OW 2164   2.285   1.600   0.470 -0.5669  0.0276  0.3694
  722SOL    HW1 2165   2.350   1.569   0.398 -2.1781  1.7606  0.0346
  722SOL    HW2 2166   2.199   1.644   0.436  2.2132  1.6808  2.6570
  723SOL     OW 2167   2.641   2.679   1.885  0.0964  0.4875  0.2159
  723SOL    HW1 2168   2.665   2.775   1.904 -1.9380  0.2585 -0.4000
  723SOL    HW2 2169   2.545   2.655   1.912 -1.2751 -1.0548 -1.0641
  724SOL     OW 2170   0.499   2.518   2.408 -0.4422  0.2126 -0.0215
  724SOL    HW1 2171   0.402   2.530   2.439  0.9660 -1.1307 -0.4285
  724SOL    HW2 2172   0.575   2.516   2.479  0.8936  0.2419  0.3229
  725SOL     OW 2173   2.356   2.725   1.489 -0.4547  0.2747 -0.0251
  725SOL    HW1 2174   2.419   2.797   1.458 -0.8442  0.0262 -1.6427
  725SOL    HW2 2175   2.397   2.634   1.488 -0.0303 -0.6253 -1.3773
  726SOL     OW 2176   2.508   2.313   0.737  0.1187  0.5187  0.2961
  726SOL    HW1 2177   2.480   2.407   0.701  1.7324 -2.6110  0.5534
  726SOL    HW2 2178   2.472   2.241   0.672  2.3530 -1.7406 -3.0823
  727SOL     OW 2179   0.184   3.050   0.090  0.2149 -0.5139 -0.5310
  727SOL    HW1 2180   0.256   3.045   0.019 -0.3284  0.1540  0.6613
  727SOL    HW2 2181   0.088   3.078   0.056 -0.4092  3.5503 -1.5279
  728SOL     OW 2182   2.872   0.682   0.910 -0.1935 -0.5744  0.1953
  728SOL    HW1 2183   2.803   0.668   0.836  1.7248  0.1079 -0.7663
  728SOL    HW2 2184   2.842   0.649   1.006 -0.4065  2.9065  2.0833
  729SOL     OW 2185   0.010   2.534   0.713 -0.7172 -0.5406  0.1076
  729SOL    HW1 2186  -0.018   2.448   0.753  0.0814  1.3984 -2.5450
  729SOL    HW2 2187   0.103   2.524   0.663 -1.2184 -0.3915  1.2191
  730SOL     OW 2188   2.588   0.695   0.840  0.6642 -0.2439  0.5798
  730SOL    HW1 2189   2.582   0.799   0.857  1.3286  0.2742 -0.5055
  730SOL    HW2 2190   2.633   0.676   0.747 -0.9486 -0.6743  2.2938
  731SOL     OW 2191   0.027   2.164   2.424 -0.0870 -0.5066 -0.2282
  731SOL    HW1 2192   0.041   2.192   2.523  1.0525 -1.6889 -0.7831
  731SOL    HW2 2193  -0.062   2.199   2.386  0.3120 -1.8984 -1.4473
  732SOL     OW 2194   1.205   2.843   1.979  0.5892  0.0185 -0.1929
  732SOL    HW1 2195   1.189   2.795   2.067  0.3676  0.9287 -0.7142
  732SOL    HW2 2196   1.191   2.772   1.906 -0.7285 -0.8417  1.8222
  733SOL     OW 2197   3.018   0.624   2.231 -0.4285 -0.1348  0.0069
  733SOL    HW1 2198   3.094   0.653   2.164 -0.4200 -3.3581  0.7621
  733SOL    HW2 2199   2.968   0.547   2.192 -1.6309  0.0016 -0.0705
  734SOL     OW 2200   1.409   0.374   2.687 -0.5711  0.0648  0.3604
  734SOL    HW1 2201   1.394   0.463   2.743  0.6181  0.9539  0.2591
  734SOL    HW2 2202   1.328   0.307   2.701  0.9048 -1.1539  1.8374
  735SOL     OW 2203   2.889   2.615   2.292  0.1952  0.3376  0.1109
  735SOL    HW1 2204   2.880   2.621   2.189  0.3932 -2.4301  3.6844
  735SOL    HW2 2205   2.981   2.653   2.326 -0.9083  0.8724 -3.1797
  736SOL     OW 2206   0.926   0.414   2.552 -0.0485 -0.7103  0.2360
  736SOL    HW1 2207   0.839   0.428   2.612 -2.0279 -3.1198  1.0420
  736SOL    HW2 2208   0.935   0.329   2.490  0.5831 -1.0081  0.3558
  737SOL     OW 2209   2.634   0.457   2.814  0.4497 -0.4136 -0.9741
  737SOL    HW1 2210   2.616   0.410   2.909  0.8113 -3.7968  0.0092
  737SOL    HW2 2211   2.731   0.448   2.781  0.6502  1.4059  1.7945
  738SOL     OW 2212   1.711   1.248   2.896 -0.3825 -0.0535 -0.3792
  738SOL    HW1 2213   1.812   1.257   2.873  2.0387 -2.4964  0.2012
  738SOL    HW2 2214   1.652   1.203   2.826 -0.3617 -2.2137  0.5898
  739SOL     OW 2215   1.762   0.714   0.674  0.2593  0.3635 -0.3576
  739SOL    HW1 2216   1.832   0.738   0.751 -1.1930 -1.9929  0.7373
  739SOL    HW2 2217   1.772   0.614   0.642 -0.0079  1.5643  1.0133
  740SOL     OW 2218   1.962   1.904   2.375  0.7716  0.0520  0.1163
  740SOL    HW1 2219   1.998   1.811   2.402 -0.5996  1.8316  3.3304
  740SOL    HW2 2220   1.882   1.889   2.301 -0.8320  1.5832 -2.1373
  741SOL     OW 2221   2.583   0.134   2.524  0.0546  0.5503 -0.4264
  741SOL    HW1 2222   2.690   0.127   2.523  2.4088 -0.2030  1.6874
  741SOL    HW2 2223   2.540   0.143   2.431  0.2725  0.5084  1.5604
  742SOL     OW 2224   2.201   1.381   0.166 -0.2490  0.4035  0.1103
  742SOL    HW1 2225   2.117   1.441   0.162  0.3095 -3.6756  0.7544
  742SOL    HW2 2226   2.181   1.288   0.207 -2.6985  2.8531 -1.6522
  743SOL     OW 2227   1.756   0.607   2.623  0.1748 -0.3722 -0.2564
  743SOL    HW1 2228   1.733   0.533   2.546  0.0252 -3.8059 -2.4906
  743SOL    HW2 2229   1.689   0.681   2.620  2.0214  2.4415  0.0560
  744SOL     OW 2230   2.696   2.006   0.069 -0.4493  0.3343  0.2651
  744SOL    HW1 2231   2.604   2.058   0.085 -1.0894 -1.6954 -0.1875
  744SOL    HW2 2232   2.716   1.933   0.143 -1.1732 -1.8232  2.4832
  745SOL     OW 2233   2.174   2.643   2.147 -0.3715 -0.2764  0.5676
  745SOL    HW1 2234   2.072   2.650   2.152 -0.0417 -1.7686 -0.1857
  745SOL    HW2 2235   2.220   2.697   2.223  2.1878 -2.0668 -0.0694
  746SOL     OW 2236  -0.001   2.652   1.726 -0.3660  0.3517 -0.0704
  746SOL    HW1 2237   0.076   2.582   1.706  1.5867 -1.5122 -1.1515
  746SOL    HW2 2238   0.015   2.729   1.799 -1.0919 -1.1981  2.5697
  747SOL     OW 2239   3.070   1.755   1.683 -0.0992  0.3413  0.5574
  747SOL    HW1 2240   3.019   1.665   1.659 -2.1998 -0.5161  1.1748
  747SOL    HW2 2241   3.146   1.785   1.625 -0.6272 -1.5119  0.9601
  748SOL     OW 2242   1.815   2.721   2.913  0.2323  0.3043 -0.1757
  748SOL    HW1 2243   1.856   2.796   2.977 -1.7269 -1.5714  0.8293
  748SOL    HW2 2244   1.719   2.745   2.881 -2.4437  0.5502  1.9502
  749SOL     OW 2245   1.331   3.008   0.850  0.3194 -0.1236  0.0671
  749SOL    HW1 2246   1.233   2.962   0.862 -2.9528 -1.9793 -0.4920
  749SOL    HW2 2247   1.396   2.947   0.805  0.2157  2.0882 -1.6522
  750SOL     OW 2248   2.305   0.209   1.855  0.2556  0.6165 -0.3726
  750SOL    HW1 2249   2.356   0.265   1.779  0.7710 -0.5294 -0.3023
  750SOL    HW2 2250   2.289   0.265   1.940 -0.1739 -1.9029 -1.0982
  751SOL     OW 2251   0.805   2.028   2.847  0.7414 -0.4563  0.2130
  751SOL    HW1 2252   0.875   2.073   2.912  4.1356 -0.7787 -1.1461
  751SOL    HW2 2253   0.706   2.035   2.877 -1.4018  2.8498  0.9641
  752SOL     OW 2254   1.307   0.835   1.266 -0.0395 -0.6371 -0.0842
  752SOL    HW1 2255   1.379   0.906   1.252 -0.1114 -2.3984  0.5609
  752SOL    HW2 2256   1.346   0.757   1.320  0.5489 -0.7910  0.6539
  753SOL     OW 2257   0.940   2.638   1.809  0.2255 -0.2363 -0.3858
  753SOL    HW1 2258   1.028   2.685   1.793 -0.0728 -0.1314  0.8711
  753SOL    HW2 2259   0.863   2.710   1.808 -0.6747  0.5234  0.0708
  754SOL     OW 2260   1.153   1.177   3.024  0.2718 -0.4063 -0.3210
  754SOL    HW1 2261   1.222   1.109   2.972  0.2520 -0.9260 -2.5621
  754SOL    HW2 2262   1.189   1.274   3.040  0.5600  0.1009  0.5091
  755SOL     OW 2263   2.016   0.494   2.247  0.3587 -0.2861 -0.2849
  755SOL    HW1 2264   2.074   0.419   2.291  1.1453  1.9179 -1.7811
  755SOL    HW2 2265   1.912   0.493   2.275 -1.5375  0.7770  2.8076
  756SOL     OW 2266   2.588   0.995   2.968  0.0940 -0.4783  0.1284
  756SOL    HW1 2267   2.687   0.971   2.952  0.4870  0.0731  2.8899
  756SOL    HW2 2268   2.530   0.923   3.012 -3.6689  0.6177  0.8320
  757SOL     OW 2269   0.087   0.464   2.011 -0.6604 -0.1505 -0.1467
  757SOL    HW1 2270   0.147   0.383   1.975  2.1046 -2.7847 -0.9391
  757SOL    HW2 2271  -0.014   0.433   2.032  1.1505 -2.3209 -2.2468
  758SOL     OW 2272   2.250   0.111   1.468  0.7148  0.5490 -0.2609
  758SOL    HW1 2273   2.217   0.011   1.474  0.5331  0.7086 -1.5825
  758SOL    HW2 2274   2.321   0.121   1.391 -0.3851  0.1596 -0.8487
  759SOL     OW 2275   1.675   0.129   0.066 -0.4550 -0.3979 -0.4520
  759SOL    HW1 2276   1.647   0.090  -0.026  1.7837  0.9739 -0.2884
  759SOL    HW2 2277   1.779   0.124   0.070  1.6642  1.7302  1.0029
  760SOL     OW 2278   2.609   2.032   2.841  0.7130 -0.0138 -0.1712
  760SOL    HW1 2279   2.639   1.944   2.885  0.2503 -1.5712 -0.3513
  760SOL    HW2 2280   2.593   2.106   2.912 -1.5168 -1.6564 -0.1194
  761SOL     OW 2281   1.850   1.780   1.718  0.0003 -0.3566 -0.3893
  761SOL    HW1 2282   1.873   1.686   1.743 -2.6348  1.4574  0.1091
  761SOL    HW2 2283   1.818   1.793   1.620 -2.3992  1.3040  1.3724
  762SOL     OW 2284   0.498   2.365   0.968  0.1526 -0.2192  0.0631
  762SOL    HW1 2285   0.551   2.382   0.882 -1.7022 -0.2331 -0.7285
  762SOL    HW2 2286   0.547   2.403   1.056  0.8217  1.0192 -0.0513
  763SOL     OW 2287   2.083   1.591   2.999 -0.1815  0.3877 -0.4540
  763SOL    HW1 2288   2.170   1.538   2.986 -3.1010  1.9010 -0.9378
  763SOL    HW2 2289   2.027   1.544   3.071  1.2126  0.8052  0.6795
  764SOL     OW 2290   0.689   0.564   0.747 -0.0765 -0.2639  0.1551
  764SOL    HW1 2291   0.602   0.505   0.753  2.0056 -1.5746  1.0104
  764SOL    HW2 2292   0.756   0.542   0.819  0.8646 -0.7862 -0.9000
  765SOL     OW 2293   0.762   0.244   0.780 -0.3931 -0.4191 -0.2367
  765SOL    HW1 2294   0.823   0.303   0.710 -1.1060  2.7536 -2.5190
  765SOL    HW2 2295   0.744   0.296   0.862 -0.6280 -3.2950  0.6956
  766SOL     OW 2296   2.862   2.142   2.992  0.0823 -0.8069  0.1201
  766SOL    HW1 2297   2.786   2.103   3.051  2.2255 -0.0796 -0.9383
  766SOL    HW2 2298   2.903   2.219   3.047  0.3090 -1.9383  2.4283
  767SOL     OW 2299   2.782   1.681   0.587  0.0712  0.1090  0.4126
  767SOL    HW1 2300   2.684   1.683   0.601  1.0333 -0.0578 -3.1508
  767SOL    HW2 2301   2.833   1.754   0.640  0.8779  0.5158  0.5654
  768SOL     OW 2302   1.029   0.073   0.223 -0.5760 -0.0616 -0.3309
  768SOL    HW1 2303   0.989   0.113   0.312  0.9197 -1.3243 -0.5446
  768SOL    HW2 2304   1.131   0.089   0.224  1.7491 -1.3318 -1.8507
  769SOL     OW 2305   1.110   1.876   2.335  0.5343 -0.1717 -0.0630
  769SOL    HW1 2306   1.026   1.917   2.377  0.0648  1.7585 -0.6892
  769SOL    HW2 2307   1.168   1.825   2.405 -0.0441  0.0276 -1.3963
  770SOL     OW 2308   0.170   1.175   2.303  0.3201  0.7107  0.1631
  770SOL    HW1 2309   0.155   1.232   2.387  0.7677 -1.1435  2.0682
  770SOL    HW2 2310   0.079   1.159   2.248  0.4844  0.2306 -0.7393
  771SOL     OW 2311   3.056   2.835   1.929 -0.4367  0.0794 -0.2412
  771SOL    HW1 2312   2.996   2.867   1.852  2.7635 -2.5882 -1.0224
  771SOL    HW2 2313   3.025   2.862   2.025 -0.7581 -1.5574 -0.8211
  772SOL     OW 2314   2.239   0.157   2.891  0.0086 -0.6476  0.8067
  772SOL    HW1 2315   2.297   0.102   2.824 -0.1644  2.3746  1.8487
  772SOL    HW2 2316   2.300   0.198   2.966  1.5992 -0.5021  1.2267
  773SOL     OW 2317   0.659   2.111   2.398 -0.0851  0.3775  0.4098
  773SOL    HW1 2318   0.618   2.190   2.344 -0.0341 -0.2199  1.7102
  773SOL    HW2 2319   0.585   2.079   2.467  1.7285 -2.4544 -2.1060
  774SOL     OW 2320   2.067   3.088   2.600 -0.7154  1.1451 -0.0370
  774SOL    HW1 2321   2.076   3.185   2.632 -2.2220 -0.1924  0.7186
  774SOL    HW2 2322   2.088   3.012   2.674  0.1170 -2.0829  2.7794
  775SOL     OW 2323   2.571   2.967   2.288  0.3830 -0.3621  0.6751
  775SOL    HW1 2324   2.540   3.069   2.285 -0.3923 -1.3004  0.9459
  775SOL    HW2 2325   2.635   2.947   2.368  1.9726 -0.7725  0.0447
  776SOL     OW 2326   0.015   1.239   0.194 -0.4812  0.4119  0.1409
  776SOL    HW1 2327  -0.054   1.221   0.119 -0.1810  0.1127  0.2799
  776SOL    HW2 2328  -0.024   1.267   0.289  0.5295  1.3051  0.4863
  777SOL     OW 2329   0.378   2.884   0.344 -0.3289 -0.2651 -0.7319
  777SOL    HW1 2330   0.276   2.897   0.333 -1.0518  0.3934 -0.6181
  777SOL    HW2 2331   0.424   2.912   0.259  0.3525  1.3395  0.5970
  778SOL     OW 2332   1.348   1.975   0.168  0.2455 -0.1756  0.2692
  778SOL    HW1 2333   1.296   1.999   0.253  0.7078  0.4300 -0.9599
  778SOL    HW2 2334   1.383   2.059   0.110  1.1051  2.3476 -0.3223
  779SOL     OW 2335   0.197   0.898   0.498  0.4840 -0.4950  0.2914
  779SOL    HW1 2336   0.154   0.809   0.463  0.7969  1.9174  0.6578
  779SOL    HW2 2337   0.129   0.945   0.562 -0.1775  0.2346  3.0399
  780SOL     OW 2338   0.098   0.304   2.418  0.0837 -0.4298 -0.5178
  780SOL    HW1 2339   0.039   0.384   2.451 -1.3921  0.0872  1.4582
  780SOL    HW2 2340   0.196   0.332   2.394  0.1295 -0.7768  2.3506
  781SOL     OW 2341   0.649   1.644   1.536 -0.4382  0.0168  0.1331
  781SOL    HW1 2342   0.706   1.577   1.588  1.6462  0.9421 -2.3496
  781SOL    HW2 2343   0.550   1.612   1.518  0.4928 -1.9938 -0.4654
  782SOL     OW 2344   2.602   0.132   0.915 -0.5383 -0.4444  0.0753
  782SOL    HW1 2345   2.551   0.140   0.827  1.1254  0.0159  1.6383
  782SOL    HW2 2346   2.580   0.221   0.967 -0.4645  1.2136  0.1586
  783SOL     OW 2347   2.789   0.682   2.466 -0.0101  0.4934  0.5551
  783SOL    HW1 2348   2.781   0.728   2.563  1.6121  0.5237  0.4332
  783SOL    HW2 2349   2.768   0.575   2.465  0.6546  0.9916  1.1435
  784SOL     OW 2350   1.479   2.189   0.023 -0.1459  0.8562  0.3814
  784SOL    HW1 2351   1.493   2.268   0.084 -1.4588 -1.5264 -1.8747
  784SOL    HW2 2352   1.426   2.216  -0.064 -2.6666 -0.5299 -1.8363
  785SOL     OW 2353   2.091   0.318   0.060  0.8318 -0.2848  0.0523
  785SOL    HW1 2354   2.017   0.336   0.133 -0.8684 -1.2446 -1.0006
  785SOL    HW2 2355   2.105   0.409   0.003  0.5905 -0.6400  1.1487
  786SOL     OW 2356   2.067   2.188   2.282 -0.3243  0.2972  0.3326
  786SOL    HW1 2357   2.053   2.097   2.340  1.3414 -2.6798  0.3684
  786SOL    HW2 2358   2.146   2.183   2.218 -1.9862 -1.5545  2.6190
  787SOL     OW 2359   1.346   0.473   0.919  0.0631 -0.4647  0.3992
  787SOL    HW1 2360   1.286   0.549   0.960 -2.3006  0.3111 -1.0745
  787SOL    HW2 2361   1.387   0.500   0.829 -2.0249 -1.5839  3.5150
  788SOL     OW 2362   1.287   0.402   0.088  0.0339  0.5297 -0.0047
  788SOL    HW1 2363   1.187   0.393   0.066  3.7863  0.3288 -1.5267
  788SOL    HW2 2364   1.296   0.495   0.135 -1.1622 -3.5556  1.3388
  789SOL     OW 2365   2.570   0.062   1.949  0.1664 -0.3910  0.1664
  789SOL    HW1 2366   2.492   0.108   1.904  2.1933 -1.4549  1.1679
  789SOL    HW2 2367   2.581  -0.045   1.937 -2.5061  0.2537 -1.4804
  790SOL     OW 2368   2.607   2.808   0.793  0.1071 -0.1365  0.1619
  790SOL    HW1 2369   2.678   2.846   0.725  1.6621 -0.9739 -0.5805
  790SOL    HW2 2370   2.632   2.840   0.886  0.8015  1.4419  2.1077
  791SOL     OW 2371   1.901   1.201   0.201  0.0418  0.1409 -0.6108
  791SOL    HW1 2372   1.818   1.173   0.249  3.6022 -0.2976  0.5402
  791SOL    HW2 2373   1.952   1.114   0.176 -0.5506 -1.2316 -1.0877
  792SOL     OW 2374   0.440   1.781   2.152  0.2603  0.0149  0.8012
  792SOL    HW1 2375   0.535   1.756   2.186  0.2500  1.7028  1.1014
  792SOL    HW2 2376   0.378   1.797   2.234 -0.7879  1.1675  0.8039
  793SOL     OW 2377   2.102   1.549   2.147 -0.0753 -0.2672  0.1432
  793SOL    HW1 2378   2.162   1.610   2.087 -1.1965  0.2877 -1.5803
  793SOL    HW2 2379   2.088   1.453   2.102  0.2380  0.0657 -0.1313
  794SOL     OW 2380   0.530   1.388   2.348 -0.2096  0.2520  0.1880
  794SOL    HW1 2381   0.519   1.384   2.242 -1.1540  1.9895  0.0110
  794SOL    HW2 2382   0.482   1.474   2.390 -0.0628 -0.2773  1.2842
  795SOL     OW 2383   2.519   2.266   1.843 -0.0824 -0.2648  0.1996
  795SOL    HW1 2384   2.522   2.217   1.936  0.6403  0.4922  0.8442
  795SOL    HW2 2385   2.461   2.211   1.773  1.0423 -0.5161 -1.3599
  796SOL     OW 2386   3.094   1.122   2.677  0.0958 -0.0536  0.1374
  796SOL    HW1 2387   2.992   1.111   2.684  1.8104  0.3391 -0.1270
  796SOL    HW2 2388   3.139   1.131   2.770  2.2099  2.0155 -2.5664
  797SOL     OW 2389   0.736   0.661   1.402 -0.3491 -0.7095 -0.5574
  797SOL    HW1 2390   0.820   0.693   1.457 -0.7548 -2.3836  0.2643
  797SOL    HW2 2391   0.684   0.740   1.355 -0.6740  0.2292  3.1241
  798SOL     OW 2392   1.269   0.322   1.146  0.1226 -0.3301  0.5544
  798SOL    HW1 2393   1.334   0.311   1.224 -3.1730 -2.6732 -2.2301
  798SOL    HW2 2394   1.309   0.379   1.062 -0.2616  1.1971  1.4901
  799SOL     OW 2395   1.959   2.720   1.057  0.0166  0.0360 -0.1031
  799SOL    HW1 2396   1.893   2.699   1.134  0.2130  1.9897  1.5082
  799SOL    HW2 2397   1.917   2.721   0.957 -1.7472  1.2465 -2.6853
  800SOL     OW 2398   3.055   0.644   1.819  0.0207  0.4462 -0.1836
  800SOL    HW1 2399   2.966   0.691   1.851  0.1886 -0.6583  1.5908
  800SOL    HW2 2400   3.109   0.598   1.899 -0.7025  0.3989  1.1257
  801SOL     OW 2401   1.966   2.238   0.079  0.2186 -0.3583  0.8634
  801SOL    HW1 2402   1.887   2.195   0.023 -0.0255  2.6724  0.6685
  801SOL    HW2 2403   2.061   2.205   0.058  0.5172 -0.3952  1.3024
  802SOL     OW 2404   0.717   0.830   2.568 -0.0815 -0.0799  0.4088
  802SOL    HW1 2405   0.792   0.805   2.496 -2.1308  0.4498 -0.1992
  802SOL    HW2 2406   0.627   0.839   2.522 -2.1950  0.0145  0.8124
  803SOL     OW 2407   0.955   0.055   0.871 -0.3524 -0.6769 -0.1780
  803SOL    HW1 2408   1.048   0.105   0.873 -2.1277 -2.4991 -1.7715
  803SOL    HW2 2409   0.875   0.107   0.823  0.7414  0.4924 -0.4297
  804SOL     OW 2410   0.282   0.030   2.135 -0.0576  0.1464  0.1569
  804SOL    HW1 2411   0.274   0.109   2.198 -0.0431  1.6582 -1.7045
  804SOL    HW2 2412   0.218   0.023   2.056  1.5144 -1.4046 -1.7861
  805SOL     OW 2413   2.406   0.264   0.361 -0.4390 -0.0981 -0.3243
  805SOL    HW1 2414   2.447   0.360   0.360  2.1800  1.2379 -0.9234
  805SOL    HW2 2415   2.393   0.227   0.263  1.2858 -0.6618 -2.3585
  806SOL     OW 2416   0.637   2.409   1.681 -0.6827 -0.0093  0.3060
  806SOL    HW1 2417   0.618   2.509   1.699 -1.0576 -0.1539  1.0601
  806SOL    HW2 2418   0.741   2.394   1.680 -0.1114  0.6181 -2.1109
  807SOL     OW 2419   2.474   0.905   0.426  0.2700  0.1171 -0.2951
  807SOL    HW1 2420   2.569   0.906   0.474  0.0180  0.0004  3.1112
  807SOL    HW2 2421   2.468   0.941   0.330  2.0765 -0.8460 -0.4834
  808SOL     OW 2422   0.559   2.046   2.983  0.1179 -0.2664 -0.7818
  808SOL    HW1 2423   0.578   2.064   3.084  2.4868  0.8839 -2.0165
  808SOL    HW2 2424   0.551   1.945   2.957  0.5755  2.4953 -0.5034
  809SOL     OW 2425   2.706   1.933   1.945  0.2494  0.1675 -0.2798
  809SOL    HW1 2426   2.800   1.961   1.972 -0.9260  0.8666  0.5929
  809SOL    HW2 2427   2.686   1.934   1.844 -0.8030 -0.5848  1.4403
  810SOL     OW 2428   2.103   1.029   0.523 -0.2855 -0.2291  0.2910
  810SOL    HW1 2429   2.158   0.972   0.594 -0.0676 -1.8444  1.7672
  810SOL    HW2 2430   2.060   1.110   0.574 -0.0092  0.8078 -0.7344
  811SOL     OW 2431   1.369   2.492   1.274  0.2779  0.3935 -0.3729
  811SOL    HW1 2432   1.353   2.389   1.286 -2.4310  1.3101 -1.0615
  811SOL    HW2 2433   1.289   2.538   1.227  0.8096  3.5342 -2.8992
  812SOL     OW 2434   1.442   0.846   1.931 -0.1322 -0.7668 -0.6629
  812SOL    HW1 2435   1.503   0.884   2.006 -1.5546  0.3309 -0.2768
  812SOL    HW2 2436   1.358   0.903   1.932  1.1501  1.1936  4.6663
  813SOL     OW 2437   1.761   2.096   2.465  0.2423 -0.4370  0.4055
  813SOL    HW1 2438   1.823   2.014   2.483  1.1672 -1.6417 -1.8540
  813SOL    HW2 2439   1.714   2.104   2.375  1.2133 -2.0892  1.0214
  814SOL     OW 2440   2.886   1.556   2.831  0.2895 -0.6712  0.2548
  814SOL    HW1 2441   2.972   1.531   2.889  0.5227  1.2874  1.7575
  814SOL    HW2 2442   2.890   1.654   2.792  0.6126 -1.8493 -1.3030
  815SOL     OW 2443   2.178   2.892   2.782 -0.2397 -0.1247  0.4467
  815SOL    HW1 2444   2.165   2.806   2.843  1.7507  2.2127  0.5201
  815SOL    HW2 2445   2.274   2.937   2.783  1.0197  1.5084  1.4931
  816SOL     OW 2446   1.636   0.338   1.668  0.2126 -0.2092  0.0482
  816SOL    HW1 2447   1.662   0.238   1.679  0.0246  1.0344 -0.1446
  816SOL    HW2 2448   1.542   0.359   1.705 -2.6773  0.1202  0.1008
  817SOL     OW 2449   0.415   1.237   2.523 -0.1624  0.2377  0.0968
  817SOL    HW1 2450   0.312   1.257   2.526  0.2915 -2.6050  1.9549
  817SOL    HW2 2451   0.470   1.290   2.445 -0.0606  0.4717 -1.7076
  818SOL     OW 2452   1.969   0.793   0.473 -0.5744  0.4962  0.3316
  818SOL    HW1 2453   1.997   0.891   0.497 -0.6953 -0.9105  1.8373
  818SOL    HW2 2454   1.886   0.753   0.525 -2.8545 -0.5311 -0.6592
  819SOL     OW 2455   2.769   2.929   3.014 -0.4413  0.5613 -0.3834
  819SOL    HW1 2456   2.845   2.868   2.970  0.6924 -2.1479 -1.1056
  819SOL    HW2 2457   2.676   2.912   2.969 -2.0294 -1.7347  0.9975
  820SOL     OW 2458   1.263   1.125   0.653  0.1697  0.1081 -0.3185
  820SOL    HW1 2459   1.228   1.224   0.667  0.0851 -0.5347 -0.8936
  820SOL    HW2 2460   1.213   1.056   0.715 -5.2004  0.6668  4.4212
  821SOL     OW 2461   3.086   1.314   0.672  0.0237  0.7956 -0.0897
  821SOL    HW1 2462   3.083   1.316   0.779 -2.0274 -3.6785 -1.1459
  821SOL    HW2 2463   3.172   1.357   0.631  0.1975  1.8537 -1.9620
  822SOL     OW 2464   2.534   1.744   2.438 -0.0647  0.0944  0.4652
  822SOL    HW1 2465   2.544   1.822   2.508 -0.9939  1.8287  2.2335
  822SOL    HW2 2466   2.453   1.763   2.372  2.3961 -1.3450 -1.1337
  823SOL     OW 2467   2.110   0.810   1.206  0.2925  0.8623 -0.2112
  823SOL    HW1 2468   2.066   0.876   1.274 -0.8622  1.4474 -0.2326
  823SOL    HW2 2469   2.057   0.806   1.113 -0.2817  2.7423 -1.0221
  824SOL     OW 2470   0.169   2.071   2.778  0.5853 -0.1574 -0.2980
  824SOL    HW1 2471   0.130   1.993   2.834  0.5383 -2.8820  1.3567
  824SOL    HW2 2472   0.222   2.024   2.699  3.7407  2.6814 -0.1093
  825SOL     OW 2473   1.255   1.099   0.306  0.1289 -0.3936 -0.2034
  825SOL    HW1 2474   1.282   1.205   0.297  2.7832 -0.0408 -2.6828
  825SOL    HW2 2475   1.156   1.091   0.339 -0.7722  3.3759 -2.8226
  826SOL     OW 2476   1.907   0.683   1.607 -0.5587  0.1072  0.0186
  826SOL    HW1 2477   1.982   0.626   1.648 -0.8709  0.4446 -0.4607
  826SOL    HW2 2478   1.833   0.622   1.572 -0.1696  0.6179 -0.4133
  827SOL     OW 2479   0.695   1.371   0.292 -0.6330 -0.1005  0.0026
  827SOL    HW1 2480   0.767   1.299   0.265  0.6831 -1.7094  1.1024
  827SOL    HW2 2481   0.609   1.327   0.336  0.5869 -3.8063 -1.8245
  828SOL     OW 2482   2.508   0.072   1.588 -0.3278 -0.5343 -0.1574
  828SOL    HW1 2483   2.427   0.125   1.554  0.6188  1.0118 -0.3493
  828SOL    HW2 2484   2.492  -0.010   1.652  0.0649 -1.2918  3.2318
  829SOL     OW 2485   2.825   2.437   2.966 -0.2827  0.0310  0.1758
  829SOL    HW1 2486   2.742   2.374   2.950  1.0626 -3.0409  0.8080
  829SOL    HW2 2487   2.805   2.507   3.039 -1.4468 -1.0211  0.2019
  830SOL     OW 2488   2.861   0.950   2.990 -0.3962  0.1327 -0.2343
  830SOL    HW1 2489   2.916   1.038   2.988  3.5779  0.0817  0.1157
  830SOL    HW2 2490   2.910   0.870   3.033  0.7940 -2.6411  0.1547
  831SOL     OW 2491   0.115   0.644   0.413 -0.0729 -0.6136  0.7291
  831SOL    HW1 2492   0.110   0.577   0.493  1.8812 -0.4011  2.8539
  831SOL    HW2 2493   0.109   0.590   0.326 -0.6533  0.8027 -0.5503
  832SOL     OW 2494   1.788   0.730   3.063 -0.4886  0.0606 -0.5874
  832SOL    HW1 2495   1.707   0.788   3.029  0.7647  1.3212  0.8500
  832SOL    HW2 2496   1.762   0.626   3.071 -2.5246 -0.5331 -0.0283
  833SOL     OW 2497   2.435   2.153   0.511 -0.5352 -0.0236  0.1650
  833SOL    HW1 2498   2.334   2.161   0.502 -1.2761 -3.6935 -1.0758
  833SOL    HW2 2499   2.472   2.061   0.477  0.0116  0.5073 -0.8843
  834SOL     OW 2500   0.193   0.210   0.508 -0.0033  0.1554  0.2253
  834SOL    HW1 2501   0.183   0.119   0.546  2.2048 -1.1317 -1.1784
  834SOL    HW2 2502   0.181   0.209   0.406  0.1772  0.4792  4.4166
  835SOL     OW 2503   2.392   1.576   1.143  0.4975 -0.3036  0.1181
  835SOL    HW1 2504   2.369   1.673   1.164  0.8732  0.2545  1.1584
  835SOL    HW2 2505   2.463   1.575   1.073 -3.8171  2.7799  1.2924
  836SOL     OW 2506   1.607   0.826   2.523 -0.0355 -0.2514 -0.1586
  836SOL    HW1 2507   1.508   0.813   2.496 -0.4612  2.8920 -0.0879
  836SOL    HW2 2508   1.667   0.820   2.440 -0.8208  0.3849 -1.4883
  837SOL     OW 2509   1.728   0.161   0.598  0.2638 -0.8350  0.4598
  837SOL    HW1 2510   1.669   0.222   0.658  2.5302 -0.6744  1.0606
  837SOL    HW2 2511   1.696   0.165   0.502  0.7004  2.2182 -2.0465
  838SOL     OW 2512   1.146   1.558   2.787 -0.1097 -0.1292  0.1948
  838SOL    HW1 2513   1.119   1.522   2.881 -0.4841 -1.5119 -1.1142
  838SOL    HW2 2514   1.088   1.519   2.706 -0.2696 -1.6866 -0.1452
  839SOL     OW 2515   1.636   0.321   1.016  0.4271  0.4691  0.1988
  839SOL    HW1 2516   1.676   0.364   1.102  2.0575  1.9803  0.4570
  839SOL    HW2 2517   1.585   0.231   1.028 -2.8914  1.4307  1.9149
  840SOL     OW 2518   2.473   2.952   1.753  0.5101  0.2796  0.2968
  840SOL    HW1 2519   2.374   2.936   1.727 -0.9319 -2.4121 -2.5331
  840SOL    HW2 2520   2.526   2.868   1.759 -1.8335  1.7239  1.3645
  841SOL     OW 2521   1.545   0.829   2.977  0.1122  0.0930 -0.2414
  841SOL    HW1 2522   1.498   0.870   3.056 -3.2649  1.2750  0.0048
  841SOL    HW2 2523   1.531   0.894   2.897 -0.2899 -0.7034  0.2253
  842SOL     OW 2524   0.835   1.559   0.917 -0.2448 -0.7752 -0.3364
  842SOL    HW1 2525   0.802   1.643   0.971 -1.4687 -2.6636  2.1823
  842SOL    HW2 2526   0.767   1.479   0.920  0.4364 -0.5254 -1.7160
  843SOL     OW 2527   0.060   0.031   1.377 -0.1674  0.0279 -0.0702
  843SOL    HW1 2528   0.133   0.095   1.423  1.5104 -2.8535  2.3120
  843SOL    HW2 2529   0.044  -0.052   1.432  1.2425  2.0837 -0.3465
  844SOL     OW 2530   0.813   2.482   0.237  0.0357  0.2727 -0.2597
  844SOL    HW1 2531   0.747   2.466   0.317 -0.0967  0.6305  1.4945
  844SOL    HW2 2532   0.784   2.549   0.160  1.0493  1.1903 -1.8854
  845SOL     OW 2533   1.639   2.903   1.352 -0.1996  0.4264  0.7699
  845SOL    HW1 2534   1.718   2.893   1.422 -1.1542 -0.1130  4.0864
  845SOL    HW2 2535   1.558   2.947   1.396 -0.5369 -1.1660 -0.7311
  846SOL     OW 2536   1.552   2.898   0.729 -0.0893 -0.4155 -0.5235
  846SOL    HW1 2537   1.553   2.883   0.626  1.5088  1.1095  1.0902
  846SOL    HW2 2538   1.645   2.930   0.762 -0.9933  0.2645 -1.3029
  847SOL     OW 2539   2.036   1.663   0.363  0.0609 -0.0507 -0.1668
  847SOL    HW1 2540   2.003   1.575   0.418 -0.8518 -0.4563 -1.2719
  847SOL    HW2 2541   1.966   1.721   0.320  3.7342  0.4571 -2.7360
  848SOL     OW 2542   2.457   0.865   2.610  0.3957  0.7300  0.3375
  848SOL    HW1 2543   2.420   0.953   2.654  0.7243  0.1770 -0.4335
  848SOL    HW2 2544   2.382   0.790   2.604  2.0162 -1.4497 -2.7079
  849SOL     OW 2545   2.582   0.865   2.352  0.6256  0.0930 -0.4157
  849SOL    HW1 2546   2.673   0.819   2.366 -0.6423  0.6435  2.3363
  849SOL    HW2 2547   2.521   0.870   2.439  0.3371  0.0626 -2.5069
  850SOL     OW 2548   1.537   0.157   1.280  0.0185  0.1435 -0.9610
  850SOL    HW1 2549   1.515   0.129   1.184  0.8166  1.9158 -1.6889
  850SOL    HW2 2550   1.494   0.092   1.347  1.7754  2.7048  2.8973
  851SOL     OW 2551   0.474   1.786   0.539  0.2575 -0.3260 -0.2705
  851SOL    HW1 2552   0.523   1.850   0.603  2.4059 -0.1885  0.0111
  851SOL    HW2 2553   0.486   1.820   0.441 -0.7171 -0.2165 -0.9631
  852SOL     OW 2554   0.810   2.110   1.679 -0.5299  0.0682 -0.5929
  852SOL    HW1 2555   0.817   2.212   1.657  0.2501  0.3222 -0.3964
  852SOL    HW2 2556   0.739   2.103   1.755  0.5742  0.7776 -1.3239
  853SOL     OW 2557   2.543   1.511   2.599  0.0212  0.3129  0.8074
  853SOL    HW1 2558   2.478   1.428   2.586 -1.2889  2.1950 -1.0196
  853SOL    HW2 2559   2.537   1.589   2.525  0.2510  0.2633 -3.6194
  854SOL     OW 2560   2.384   1.386   1.728 -0.2336  0.5230 -0.6975
  854SOL    HW1 2561   2.408   1.366   1.628  1.5189 -1.4657  1.6988
  854SOL    HW2 2562   2.334   1.306   1.774 -2.2398  0.5268  0.4895
  855SOL     OW 2563   2.024   2.419   1.048 -0.4048 -0.6963 -0.4007
  855SOL    HW1 2564   1.988   2.515   1.053 -0.3378  0.3453  2.2079
  855SOL    HW2 2565   2.119   2.417   1.077  0.6399  0.8787 -2.2358
  856SOL     OW 2566   1.317   1.440   0.946  0.1438  0.2796  0.2005
  856SOL    HW1 2567   1.358   1.529   0.979  0.9525  1.0303 -0.2561
  856SOL    HW2 2568   1.219   1.428   0.980 -2.2181  0.2915  0.2983
  857SOL     OW 2569   3.023   2.705   0.950  0.0134  0.3064  0.0587
  857SOL    HW1 2570   3.006   2.632   0.874  1.6012  0.4358 -2.7995
  857SOL    HW2 2571   3.111   2.749   0.940 -0.1519 -0.8242  2.1465
  858SOL     OW 2572   2.336   2.096   1.705 -0.0704  0.1424  0.0012
  858SOL    HW1 2573   2.239   2.079   1.669  0.9402 -0.7086  1.2927
  858SOL    HW2 2574   2.403   2.015   1.701  1.4132 -1.3006 -2.2632
  859SOL     OW 2575   2.481   0.531   1.045  0.1681 -0.0871 -0.3526
  859SOL    HW1 2576   2.542   0.574   0.973  0.4260  0.3943  2.1206
  859SOL    HW2 2577   2.506   0.436   1.074  1.8562 -0.3997  1.3994
  860SOL     OW 2578   1.951   2.796   0.427  1.0607 -0.1179 -0.0939
  860SOL    HW1 2579   1.904   2.773   0.333 -1.6158 -1.9542 -4.9100
  860SOL    HW2 2580   2.056   2.799   0.425 -0.1131  1.1805 -0.7345
  861SOL     OW 2581   1.005   2.388   2.873 -0.1466  0.2383 -0.4648
  861SOL    HW1 2582   1.029   2.489   2.851  0.2768  1.3154  1.4822
  861SOL    HW2 2583   1.041   2.371   2.971  0.9732 -0.3603 -0.4693
  862SOL     OW 2584   2.868   2.561   1.632 -0.0343 -0.4454  0.2299
  862SOL    HW1 2585   2.944   2.619   1.675 -1.8613  0.8786 -0.9623
  862SOL    HW2 2586   2.797   2.624   1.591  1.4692  1.1147 -0.7155
  863SOL     OW 2587   1.845   2.711   0.191  0.1902  0.3594  0.2064
  863SOL    HW1 2588   1.878   2.613   0.200  1.4171  0.8974 -1.1694
  863SOL    HW2 2589   1.762   2.717   0.127  2.5870 -0.9664 -0.2733
  864SOL     OW 2590   1.978   1.223   2.822 -0.4461  0.2704  0.1453
  864SOL    HW1 2591   1.963   1.167   2.735 -4.7119 -1.5764 -0.0744
  864SOL    HW2 2592   2.039   1.167   2.887  0.1848 -1.5215  1.8754
  865SOL     OW 2593   2.191   1.905   0.663 -0.0440  0.3439 -1.0741
  865SOL    HW1 2594   2.253   1.875   0.741 -0.6744  3.1582 -0.5234
  865SOL    HW2 2595   2.096   1.868   0.675 -0.1791 -1.3387 -1.1379
  866SOL     OW 2596   2.844   2.919   1.002 -0.4641  0.3336 -0.0008
  866SOL    HW1 2597   2.860   2.990   0.928  1.3182  0.2094  0.1115
  866SOL    HW2 2598   2.903   2.835   0.986  0.9664 -2.9173 -0.7781
  867SOL     OW 2599   0.386   1.397   0.873  0.7946  0.2354 -0.8020
  867SOL    HW1 2600   0.345   1.317   0.811 -1.5539 -3.9692 -1.1577
  867SOL    HW2 2601   0.358   1.484   0.832 -1.2780 -1.8436 -0.8770
  868SOL     OW 2602   0.755   1.907   2.117  0.1073 -0.6093 -0.2617
  868SOL    HW1 2603   0.706   1.891   2.206  2.8778  1.1705 -0.0792
  868SOL    HW2 2604   0.732   2.002   2.073  1.0539  2.5351 -2.5466
  869SOL     OW 2605   2.552   1.934   1.672 -0.0064  0.4759 -0.0026
  869SOL    HW1 2606   2.624   2.003   1.651  0.6528 -1.8698 -1.6900
  869SOL    HW2 2607   2.580   1.832   1.673 -0.4529 -0.3842  1.8831
  870SOL     OW 2608   2.306   2.690   1.197 -0.3800 -0.2299  0.6431
  870SOL    HW1 2609   2.273   2.596   1.178 -3.6279 -0.5956  0.3035
  870SOL    HW2 2610   2.325   2.692   1.295 -1.8652  0.6893 -1.9464
  871SOL     OW 2611   3.103   2.267   0.560 -0.3675 -0.5667  0.3407
  871SOL    HW1 2612   3.044   2.277   0.643  0.2087 -2.2972 -0.9438
  871SOL    HW2 2613   3.046   2.258   0.476  1.5604 -0.3868 -0.4436
  872SOL     OW 2614   2.103   0.502   1.693 -0.3379  0.4355  0.5093
  872SOL    HW1 2615   2.089   0.501   1.799  0.4366  2.6384  1.7337
  872SOL    HW2 2616   2.194   0.459   1.666  0.2303  0.2389  1.9657
  873SOL     OW 2617   1.749   2.133   3.076  0.1887  0.0352  0.3474
  873SOL    HW1 2618   1.656   2.152   3.122 -2.5496  0.5166 -1.7865
  873SOL    HW2 2619   1.733   2.127   2.974 -1.3983  0.7779 -0.1358
  874SOL     OW 2620   0.679   2.434   0.759 -0.2737  0.2674 -0.6039
  874SOL    HW1 2621   0.657   2.535   0.786 -4.1024  0.0167 -0.9081
  874SOL    HW2 2622   0.774   2.403   0.775  1.4638  2.4212  2.9348
  875SOL     OW 2623   2.300   1.532   1.431  0.2678 -0.5565  0.1166
  875SOL    HW1 2624   2.381   1.572   1.476 -0.8496  0.0494 -1.0046
  875SOL    HW2 2625   2.321   1.501   1.336  1.2860 -0.9392 -4.2361
  876SOL     OW 2626   0.055   2.312   2.683  0.1749  0.7470  0.1474
  876SOL    HW1 2627   0.102   2.222   2.710  1.7383 -0.9483  2.2272
  876SOL    HW2 2628   0.085   2.381   2.750  0.1100 -0.6638 -1.5919
  877SOL     OW 2629   2.971   2.698   0.510  0.1651 -0.5670 -0.7391
  877SOL    HW1 2630   2.920   2.790   0.526 -2.1355  0.5959 -2.0067
  877SOL    HW2 2631   3.037   2.674   0.587  0.8681 -0.3074  1.0478
  878SOL     OW 2632   2.787   1.535   2.231 -0.0976  0.3188 -0.0392
  878SOL    HW1 2633   2.818   1.620   2.183 -2.2137  1.0487 -1.4937
  878SOL    HW2 2634   2.751   1.550   2.328  0.4903  0.0452 -0.8059
  879SOL     OW 2635   2.424   0.095   1.263  0.2911  0.1275 -0.2142
  879SOL    HW1 2636   2.444  -0.002   1.302 -1.0376 -0.3594 -0.2459
  879SOL    HW2 2637   2.357   0.093   1.181 -1.3877  0.7830 -0.7160
  880SOL     OW 2638   0.773   0.495   2.221  0.1386  0.0247 -0.4813
  880SOL    HW1 2639   0.733   0.448   2.307  1.1898  1.0895  0.1640
  880SOL    HW2 2640   0.838   0.431   2.168 -1.4083 -0.6813 -3.3181
  881SOL     OW 2641   0.904   0.093   0.461  0.3135 -0.2863  0.2353
  881SOL    HW1 2642   0.936  -0.004   0.480 -1.5493 -2.0333  0.9500
  881SOL    HW2 2643   0.803   0.105   0.467  2.6542 -1.6593  0.0137
  882SOL     OW 2644   2.720   1.712   1.695  0.0917  0.0415  0.3100
  882SOL    HW1 2645   2.812   1.679   1.656  0.7047 -1.0569 -2.5324
  882SOL    HW2 2646   2.716   1.710   1.796  0.4955 -0.8431 -2.9276
  883SOL     OW 2647   0.876   0.492   0.935 -0.1018  0.8728  0.3797
  883SOL    HW1 2648   0.920   0.574   0.978 -0.1473 -0.2544 -1.0290
  883SOL    HW2 2649   0.819   0.444   1.004  0.4343 -0.7071  1.4658
  884SOL     OW 2650   1.116   1.715   1.175  0.0421 -0.2979 -0.3229
  884SOL    HW1 2651   1.104   1.646   1.102 -0.2295  1.7688  2.4863
  884SOL    HW2 2652   1.110   1.819   1.140  3.1206  3.4773  1.0482
  885SOL     OW 2653   2.321   1.788   2.289  0.0362  0.3245  0.0883
  885SOL    HW1 2654   2.243   1.749   2.349 -1.0360 -3.0368  1.1312
  885SOL    HW2 2655   2.305   1.878   2.236  1.7565  1.1065 -2.6557
  886SOL     OW 2656   2.591   0.377   1.820  0.0527 -0.3807  0.2559
  886SOL    HW1 2657   2.600   0.306   1.894 -2.3202  1.0526 -0.4861
  886SOL    HW2 2658   2.679   0.410   1.776  2.1210  3.0974  1.1548
  887SOL     OW 2659   0.114   1.987   1.318 -0.0966 -0.5705  0.5501
  887SOL    HW1 2660   0.074   1.954   1.230  1.6587 -0.7578 -2.0413
  887SOL    HW2 2661   0.137   2.087   1.313 -2.0243  0.5651  1.2269
  888SOL     OW 2662   0.571   1.232   1.522 -0.8979  0.2644  0.4214
  888SOL    HW1 2663   0.586   1.282   1.435  0.0552 -0.1825  2.9294
  888SOL    HW2 2664   0.570   1.127   1.514 -2.1383 -2.0092 -2.0110
  889SOL     OW 2665   0.824   2.499   2.165 -0.1314  0.0641 -0.7533
  889SOL    HW1 2666   0.746   2.436   2.175  0.4131  0.6147 -2.9614
  889SOL    HW2 2667   0.902   2.469   2.104  0.8805 -0.9239 -2.0678
  890SOL     OW 2668   2.409   2.487   0.236 -0.0531  0.2138 -0.1226
  890SOL    HW1 2669   2.431   2.570   0.174  0.1388  0.1345 -3.0644
  890SOL    HW2 2670   2.345   2.501   0.317 -1.8168 -1.6741 -0.7163
  891SOL     OW 2671   2.506   1.697   0.610 -0.3234  0.2074  0.2938
  891SOL    HW1 2672   2.517   1.693   0.714  0.7063 -0.1086 -0.0483
  891SOL    HW2 2673   2.410   1.666   0.576  0.9112 -1.2454 -4.5937
  892SOL     OW 2674   0.374   0.273   2.334 -0.4059 -0.3509  0.2396
  892SOL    HW1 2675   0.427   0.360   2.324 -0.2294  0.7126 -0.2867
  892SOL    HW2 2676   0.431   0.190   2.332 -1.3490  0.7820 -2.1014
  893SOL     OW 2677   1.640   0.209   2.721 -0.0471 -0.0214  0.2460
  893SOL    HW1 2678   1.696   0.281   2.773 -1.1216  1.6444  0.3171
  893SOL    HW2 2679   1.554   0.260   2.683 -3.1908  2.5105  1.4716
  894SOL     OW 2680   2.190   2.073   0.053  0.4277 -0.2791  0.0441
  894SOL    HW1 2681   2.143   2.016  -0.016  1.3892 -0.0138  1.0934
  894SOL    HW2 2682   2.216   2.015   0.132 -2.5941  2.7247  0.5054
  895SOL     OW 2683   2.827   1.474   0.901  0.4666 -0.2219  0.2474
  895SOL    HW1 2684   2.892   1.409   0.941  2.6215  0.5049  0.4696
  895SOL    HW2 2685   2.813   1.568   0.952 -0.1707  0.5806 -0.4025
  896SOL     OW 2686   1.785   1.819   1.191 -0.6991 -0.1343 -0.4304
  896SOL    HW1 2687   1.824   1.732   1.149 -1.9138 -2.1303  0.1611
  896SOL    HW2 2688   1.714   1.865   1.128 -2.3230 -0.9158  0.1727
  897SOL     OW 2689   0.284   0.557   3.043  0.5082 -0.2896 -0.1175
  897SOL    HW1 2690   0.246   0.600   2.956 -1.2154 -1.9649  0.4387
  897SOL    HW2 2691   0.370   0.595   3.080  1.9330 -0.6380 -0.0715
  898SOL     OW 2692   0.626   2.884   1.041 -0.6492  0.0153  0.0185
  898SOL    HW1 2693   0.650   2.983   1.034  0.6732  0.7072 -1.4397
  898SOL    HW2 2694   0.692   2.833   1.097  0.0317 -2.3192 -0.8772
  899SOL     OW 2695   2.824   0.849   1.362  0.7975  0.6417 -0.0114
  899SOL    HW1 2696   2.798   0.869   1.262 -1.5758  1.9498 -1.7937
  899SOL    HW2 2697   2.912   0.896   1.390  3.6442  1.8743 -0.3163
  900SOL     OW 2698   0.996   2.512   2.424  0.5324  0.2978 -0.1233
  900SOL    HW1 2699   0.921   2.492   2.359  1.5777 -1.1906 -0.2370
  900SOL    HW2 2700   0.996   2.441   2.505  4.0577 -1.8942  4.8359
  901SOL     OW 2701   1.896   2.395   1.360  0.2817 -0.1950  0.3320
  901SOL    HW1 2702   1.858   2.308   1.307  1.4293 -2.2341 -0.3256
  901SOL    HW2 2703   1.997   2.381   1.383  1.0555  0.0683 -1.3515
  902SOL     OW 2704   2.551   1.643   1.480  0.4379 -0.2306 -0.5750
  902SOL    HW1 2705   2.614   1.672   1.556  0.0071  0.3527 -1.0080
  902SOL    HW2 2706   2.603   1.616   1.393  0.0304  0.1590 -1.0864
  903SOL     OW 2707   0.268   2.446   1.964 -0.4747 -0.5268  0.4784
  903SOL    HW1 2708   0.165   2.423   1.958 -1.8280  0.2293 -0.5848
  903SOL    HW2 2709   0.287   2.545   1.936 -2.9185  0.8072 -2.7353
  904SOL     OW 2710   1.976   0.787   2.578  0.3362  0.0521  0.0201
  904SOL    HW1 2711   1.904   0.714   2.614 -2.1704  1.3496  0.2605
  904SOL    HW2 2712   1.983   0.776   2.476  1.3400 -0.5572  0.5881
  905SOL     OW 2713   2.892   0.105   2.515 -1.2978  0.0357  0.5097
  905SOL    HW1 2714   2.953   0.027   2.545  0.5082  1.8775  1.8434
  905SOL    HW2 2715   2.946   0.193   2.493  2.5048 -0.0959 -0.8135
  906SOL     OW 2716   0.133   1.661   1.906  0.3548  0.5729  0.6200
  906SOL    HW1 2717   0.052   1.698   1.845  1.4843  0.1712  0.4483
  906SOL    HW2 2718   0.228   1.693   1.871 -0.9437 -0.5320 -1.6317
  907SOL     OW 2719   0.212   2.424   0.977 -0.1604  0.2434  0.1765
  907SOL    HW1 2720   0.314   2.411   0.974  0.1814 -2.4722  1.6022
  907SOL    HW2 2721   0.179   2.503   0.918  1.1930  1.3261  0.5613
  908SOL     OW 2722   2.811   3.037   0.349  0.0316 -0.1445  0.8192
  908SOL    HW1 2723   2.710   3.039   0.309 -3.8545 -0.5403  2.6832
  908SOL    HW2 2724   2.863   2.955   0.306  0.7879 -0.6742 -0.9878
  909SOL     OW 2725   0.847   1.061   2.662  0.3033 -0.1022 -0.4837
  909SOL    HW1 2726   0.796   0.970   2.652  0.2507  1.8945  0.6473
  909SOL    HW2 2727   0.929   1.071   2.601 -1.1998 -1.7063 -0.8380
  910SOL     OW 2728   1.797   1.881   2.158  0.2493 -0.0147 -0.2492
  910SOL    HW1 2729   1.860   1.917   2.085  2.5023  0.5792  0.8112
  910SOL    HW2 2730   1.723   1.947   2.181  0.4081 -0.3275  0.9068
  911SOL     OW 2731   1.834   2.914   1.568 -0.4812 -0.0507  0.0371
  911SOL    HW1 2732   1.921   2.930   1.509 -0.0828 -0.5854 -1.7972
  911SOL    HW2 2733   1.846   2.834   1.632  0.1330 -0.4581 -1.1970
  912SOL     OW 2734   2.855   1.010   0.704  0.0405  0.2579  0.1111
  912SOL    HW1 2735   2.859   0.966   0.801 -0.6746 -3.3306 -2.2968
  912SOL    HW2 2736   2.788   1.089   0.705 -0.4876 -0.9467 -0.5261
  913SOL     OW 2737   2.519   1.272   1.518  0.3892  0.7749 -0.0950
  913SOL    HW1 2738   2.561   1.176   1.509 -0.4200 -2.8227  0.8838
  913SOL    HW2 2739   2.574   1.351   1.478 -0.1008  1.4614  3.0122
  914SOL     OW 2740   2.788   0.621   1.156  0.2752 -0.6116  0.2638
  914SOL    HW1 2741   2.794   0.536   1.208 -1.6153  1.4366 -2.0601
  914SOL    HW2 2742   2.697   0.667   1.142  0.4144 -2.1038 -1.0874
  915SOL     OW 2743   1.225   0.720   1.021 -0.5473  0.2946  0.5667
  915SOL    HW1 2744   1.281   0.763   1.102  2.0868  0.4721 -0.2533
  915SOL    HW2 2745   1.123   0.722   1.039  0.5047 -3.4480 -1.7816
  916SOL     OW 2746   0.623   0.048   0.649  0.0815 -0.3467 -0.0504
  916SOL    HW1 2747   0.675   0.131   0.692 -3.6036  0.6035  2.0639
  916SOL    HW2 2748   0.559   0.075   0.575  1.8397  1.9365  3.1730
  917SOL     OW 2749   2.877   2.569   2.011 -0.5558  0.3732  0.2088
  917SOL    HW1 2750   2.792   2.611   1.969 -0.3586 -0.1269  1.7553
  917SOL    HW2 2751   2.952   2.566   1.940 -1.3609  0.9701 -2.6617
  918SOL     OW 2752   1.007   2.108   2.983 -0.6996  0.2597 -0.0338
  918SOL    HW1 2753   0.999   2.170   3.068  0.0930  1.2413  0.2177
  918SOL    HW2 2754   1.071   2.136   2.907  0.3607  0.4924  0.3265
  919SOL     OW 2755   0.815   1.682   2.868 -0.0570  0.0344  0.5261
  919SOL    HW1 2756   0.841   1.765   2.811  1.6135 -0.7772 -1.0359
  919SOL    HW2 2757   0.781   1.606   2.803  0.3018 -2.5371  1.8186
  920SOL     OW 2758   1.251   1.801   2.566 -0.1720  0.3734 -0.1091
  920SOL    HW1 2759   1.339   1.768   2.524  2.6424  2.0230  2.1177
  920SOL    HW2 2760   1.189   1.736   2.614 -1.8494  1.9285  0.6606
  921SOL     OW 2761   1.106   3.095   2.625 -0.1907 -0.2084 -0.8731
  921SOL    HW1 2762   1.092   3.088   2.522  3.7468  2.3683  1.1404
  921SOL    HW2 2763   1.029   3.151   2.669 -2.8066  0.2781  0.2518
  922SOL     OW 2764   2.219   2.381   2.781  0.6664  0.4769 -0.4957
  922SOL    HW1 2765   2.238   2.278   2.796  0.4427 -1.5934  2.8278
  922SOL    HW2 2766   2.198   2.408   2.680 -1.7047  3.7938  1.7163
  923SOL     OW 2767   1.261   2.660   0.270  0.2189 -0.3930  0.4407
  923SOL    HW1 2768   1.334   2.733   0.305  0.6489  1.4494  0.0966
  923SOL    HW2 2769   1.305   2.562   0.266  1.0618 -0.3750 -2.3623
  924SOL     OW 2770   2.881   1.701   0.090 -0.6296 -0.2392 -0.1596
  924SOL    HW1 2771   2.811   1.678   0.017 -0.5777  0.4890 -1.0430
  924SOL    HW2 2772   2.950   1.623   0.115 -1.2600 -0.7356  2.1994
  925SOL     OW 2773   0.059   2.867   1.467  0.2012  0.6130  0.2870
  925SOL    HW1 2774  -0.010   2.856   1.544 -1.7975 -1.2031  0.3817
  925SOL    HW2 2775   0.020   2.819   1.381  0.7397 -0.1823 -2.1653
  926SOL     OW 2776   1.344   2.830   1.351  0.2208 -0.3392 -0.3440
  926SOL    HW1 2777   1.404   2.849   1.265  2.4528  2.7227  0.5826
  926SOL    HW2 2778   1.367   2.904   1.422 -0.6151  1.9581 -1.9154
  927SOL     OW 2779   0.339   2.694   1.755 -0.3725  0.7817  0.1531
  927SOL    HW1 2780   0.282   2.609   1.726 -0.3792 -0.4507 -1.0821
  927SOL    HW2 2781   0.289   2.785   1.733 -0.1003  1.0887 -1.7014
  928SOL     OW 2782   1.619   2.087   2.229 -0.4187 -0.2070 -0.1838
  928SOL    HW1 2783   1.663   2.168   2.178 -0.2081  1.5915 -0.1253
  928SOL    HW2 2784   1.521   2.094   2.252 -1.2771 -0.7303  3.0023
  929SOL     OW 2785   2.439   2.514   2.883  0.5330 -0.0206 -0.4346
  929SOL    HW1 2786   2.359   2.452   2.863 -0.2672 -1.0816 -0.8380
  929SOL    HW2 2787   2.480   2.543   2.794  1.8396  0.3418  1.1726
  930SOL     OW 2788   2.150   1.979   1.098 -0.5052  0.2285  0.0180
  930SOL    HW1 2789   2.133   1.920   1.186  4.3763 -0.1121 -3.0231
  930SOL    HW2 2790   2.190   2.071   1.120 -1.4911 -1.1966  1.9445
  931SOL     OW 2791   0.541   1.736   2.643 -0.6033  0.0408  0.2292
  931SOL    HW1 2792   0.516   1.775   2.736  1.5442 -1.9665 -0.4217
  931SOL    HW2 2793   0.613   1.658   2.646 -0.1183  0.8031  1.5191
  932SOL     OW 2794   0.447   0.122   3.072  0.8404  0.1103  0.1407
  932SOL    HW1 2795   0.529   0.169   3.106 -2.2049 -0.0090  0.7754
  932SOL    HW2 2796   0.469   0.023   3.046 -0.9801 -2.7602  0.0417
  933SOL     OW 2797   0.923   0.824   3.037  0.2345 -0.1269  0.3554
  933SOL    HW1 2798   0.837   0.775   3.072  0.3805  1.0206 -0.6396
  933SOL    HW2 2799   0.907   0.920   3.007 -0.0644 -0.8705  0.9202
  934SOL     OW 2800   0.790   2.990   2.653  0.3077 -0.8118 -0.0233
  934SOL    HW1 2801   0.757   2.928   2.576 -1.4250 -0.0253 -0.1159
  934SOL    HW2 2802   0.846   2.931   2.726 -0.4992 -0.2934  1.6373
  935SOL     OW 2803   0.018   0.496   0.868 -0.0623  0.3609 -0.5353
  935SOL    HW1 2804   0.049   0.466   0.772 -0.1712 -3.1763 -3.7959
  935SOL    HW2 2805  -0.063   0.561   0.866  1.1688  0.9885  1.6062
  936SOL     OW 2806   1.098   2.825   0.101  0.0239  0.6544 -0.1602
  936SOL    HW1 2807   1.163   2.890   0.056 -1.1767 -1.0246  1.5419
  936SOL    HW2 2808   1.151   2.761   0.167 -0.8637 -1.8962  0.1414
  937SOL     OW 2809   1.837   2.683   2.078 -0.6618 -0.0609 -0.2887
  937SOL    HW1 2810   1.733   2.695   2.090 -0.3635 -1.9653  2.0111
  937SOL    HW2 2811   1.872   2.748   2.007 -2.2423 -0.3192 -1.3706
  938SOL     OW 2812   2.778   2.066   1.638 -0.4172 -0.6037  0.2371
  938SOL    HW1 2813   2.756   2.166   1.650 -0.1151 -0.1773 -0.0644
  938SOL    HW2 2814   2.856   2.033   1.698  1.8034  1.1396  1.1240
  939SOL     OW 2815   2.814   1.193   2.413  0.0712 -0.3574  0.2442
  939SOL    HW1 2816   2.895   1.172   2.346 -0.8221 -0.6859 -0.2097
  939SOL    HW2 2817   2.812   1.124   2.491  3.1810 -1.7097 -3.5305
  940SOL     OW 2818   1.080   0.446   2.793 -0.0187 -0.4778  0.1303
  940SOL    HW1 2819   1.137   0.363   2.821  0.3783  1.5649  1.5203
  940SOL    HW2 2820   1.024   0.433   2.706 -2.6535  2.5845 -0.4123
  941SOL     OW 2821   0.028   2.781   2.294 -0.1967  0.1599  0.1426
  941SOL    HW1 2822   0.086   2.704   2.264 -1.8959  1.6617  1.7784
  941SOL    HW2 2823   0.090   2.866   2.316  1.2975 -0.4972  0.6204
  942SOL     OW 2824   0.138   0.087   2.575 -0.1404 -0.2977 -0.1032
  942SOL    HW1 2825   0.171   0.089   2.671  4.1253  0.3406 -0.9419
  942SOL    HW2 2826   0.115   0.178   2.534 -0.9608 -1.6267 -0.9767
  943SOL     OW 2827   2.104   1.682   2.404 -0.0420  0.0505 -0.2614
  943SOL    HW1 2828   2.099   1.639   2.313  0.8768 -1.1364  2.2407
  943SOL    HW2 2829   2.092   1.602   2.467  1.0483  1.4779 -0.1203
  944SOL     OW 2830   2.164   2.377   1.471 -0.2724 -0.1008  0.1444
  944SOL    HW1 2831   2.256   2.413   1.500  0.9258  3.4711  0.3736
  944SOL    HW2 2832   2.141   2.280   1.509 -2.7491 -1.5189 -2.1431
  945SOL     OW 2833   0.663   1.570   0.121 -0.0833 -0.2164  0.7774
  945SOL    HW1 2834   0.596   1.553   0.041  1.2952 -0.5989  1.1495
  945SOL    HW2 2835   0.664   1.494   0.192 -0.5179  0.1416  0.9840
  946SOL     OW 2836   0.430   0.963   2.515  0.2464 -0.0977 -0.1024
  946SOL    HW1 2837   0.349   0.949   2.449 -0.5894  0.5176 -2.3857
  946SOL    HW2 2838   0.421   1.047   2.574  0.6207  1.5973 -1.9294
  947SOL     OW 2839   1.503   0.496   3.053  0.6762 -0.3959  0.2207
  947SOL    HW1 2840   1.480   0.543   2.969  1.9624 -4.1532  1.4137
  947SOL    HW2 2841   1.419   0.461   3.105  0.8225  0.4970  1.8280
  948SOL     OW 2842   1.870   3.007   2.150 -0.4276  0.1368 -1.0296
  948SOL    HW1 2843   1.886   2.958   2.063 -0.7334 -0.8890 -0.2246
  948SOL    HW2 2844   1.876   2.941   2.235  1.3926  1.1164  1.3091
  949SOL     OW 2845   0.648   2.495   0.462 -0.1256  0.2530  0.1003
  949SOL    HW1 2846   0.659   2.597   0.445  2.9285  1.2013  3.9845
  949SOL    HW2 2847   0.651   2.483   0.563  1.7765  0.1448 -1.2126
  950SOL     OW 2848   0.205   2.233   3.013  0.5940 -0.5232  0.3200
  950SOL    HW1 2849   0.210   2.335   2.995 -0.5448 -0.4846  3.0214
  950SOL    HW2 2850   0.189   2.179   2.922  0.3117  2.6993  0.0732
  951SOL     OW 2851   1.170   2.634   2.807 -0.3055  0.1173  0.1218
  951SOL    HW1 2852   1.210   2.613   2.902 -0.8014 -3.0588 -0.9416
  951SOL    HW2 2853   1.236   2.658   2.735 -1.8036  3.7480  3.0913
  952SOL     OW 2854   0.030   1.674   0.420  0.0392 -0.1619 -0.2123
  952SOL    HW1 2855   0.065   1.768   0.408 -1.2550  1.5098  0.2120
  952SOL    HW2 2856   0.076   1.627   0.495  1.5206  3.5635 -4.3038
  953SOL     OW 2857   2.564   1.766   0.222 -0.1175 -0.0932  0.2459
  953SOL    HW1 2858   2.556   1.671   0.270  0.6235 -1.9764 -0.8348
  953SOL    HW2 2859   2.505   1.780   0.140  2.7419  3.3055  0.4124
  954SOL     OW 2860   2.208   0.563   0.969 -0.3334 -0.5214  0.1863
  954SOL    HW1 2861   2.213   0.551   0.861 -0.0466 -1.0214 -2.1044
  954SOL    HW2 2862   2.305   0.567   1.008  1.3292 -1.0402  0.9718
  955SOL     OW 2863   0.130   2.563   1.379  0.2030  0.3132  0.3439
  955SOL    HW1 2864   0.032   2.589   1.346  0.7227 -1.2977  1.2032
  955SOL    HW2 2865   0.199   2.638   1.368  0.7921  1.4406 -5.4970
  956SOL     OW 2866   2.809   2.444   2.502  0.0234 -0.0345  0.4635
  956SOL    HW1 2867   2.839   2.344   2.487  1.8051  0.8329 -0.8167
  956SOL    HW2 2868   2.839   2.509   2.421  1.1480  0.6623 -0.1439
  957SOL     OW 2869   1.631   2.125   2.808  0.2817  0.3487 -0.5603
  957SOL    HW1 2870   1.620   2.035   2.764 -0.8909  0.0488 -1.5891
  957SOL    HW2 2871   1.715   2.185   2.780 -0.8715  1.1661 -1.9825
  958SOL     OW 2872   2.578   2.287   2.983 -0.4769  0.3650 -0.4565
  958SOL    HW1 2873   2.519   2.344   2.921  0.0641 -0.5466 -0.6097
  958SOL    HW2 2874   2.524   2.272   3.074 -0.1704 -0.2670  0.5425
  959SOL     OW 2875   0.305   2.784   0.036 -0.7874 -0.0791 -0.3991
  959SOL    HW1 2876   0.203   2.786   0.030  0.7249  0.0916  0.5184
  959SOL    HW2 2877   0.339   2.716   0.107  1.4143 -1.2311  0.5836
  960SOL     OW 2878   1.992   0.482   1.943 -0.5751  0.4918 -0.1607
  960SOL    HW1 2879   1.910   0.547   1.931  0.1612  1.0283  1.2025
  960SOL    HW2 2880   2.005   0.457   2.042  0.1752  1.2833  1.1893
  961SOL     OW 2881   2.552   1.882   1.062  0.2498 -0.3751 -0.4258
  961SOL    HW1 2882   2.583   1.982   1.063  0.8912 -2.1515  2.9385
  961SOL    HW2 2883   2.518   1.855   1.156 -2.4101 -1.1811 -0.5165
  962SOL     OW 2884   1.299   0.910   0.067 -0.3250  0.0111 -0.3560
  962SOL    HW1 2885   1.272   0.925  -0.029 -0.7164 -0.4049 -2.2843
  962SOL    HW2 2886   1.272   0.990   0.126  1.2945  0.6603 -2.7466
  963SOL     OW 2887   2.293   2.533   1.766 -0.3090  0.2285 -0.0889
  963SOL    HW1 2888   2.240   2.461   1.824 -0.3352  2.7096 -1.3623
  963SOL    HW2 2889   2.335   2.609   1.821  0.0732 -3.2911 -0.7544
  964SOL     OW 2890   2.381   0.399   1.643 -0.1104 -0.1694 -0.1732
  964SOL    HW1 2891   2.459   0.416   1.710 -1.8737 -2.3293 -0.9879
  964SOL    HW2 2892   2.403   0.427   1.541  1.3289  0.4123 -1.5499
  965SOL     OW 2893   2.611   2.971   0.152 -0.1816 -0.0030  0.7755
  965SOL    HW1 2894   2.677   2.959   0.070  0.0240  0.6395  0.5655
  965SOL    HW2 2895   2.523   3.024   0.131 -0.8284 -1.2399  1.1970
  966SOL     OW 2896   2.556   2.565   2.322  0.2742 -0.0644  0.6232
  966SOL    HW1 2897   2.648   2.554   2.371  0.3190  2.0961  2.4267
  966SOL    HW2 2898   2.495   2.642   2.356  0.7032 -0.4369 -0.2149
  967SOL     OW 2899   2.794   2.833   2.452 -0.2704  0.4121 -0.2242
  967SOL    HW1 2900   2.832   2.754   2.397  2.7274  3.8810 -1.7962
  967SOL    HW2 2901   2.864   2.873   2.522  0.2789  3.1480 -1.1114
  968SOL     OW 2902   1.939   1.072   2.608  0.2483 -0.0540 -0.3267
  968SOL    HW1 2903   1.853   1.099   2.555  1.3567 -0.0167  2.3930
  968SOL    HW2 2904   1.946   0.973   2.603 -1.8844  1.5659 -0.0201
  969SOL     OW 2905   2.759   2.465   1.129 -0.0800  0.4287  0.1624
  969SOL    HW1 2906   2.729   2.467   1.029 -0.9236 -0.4405  1.0183
  969SOL    HW2 2907   2.823   2.387   1.154  2.6553  1.1931  0.4056
  970SOL     OW 2908   1.046   2.123   1.815  0.1578 -0.2363 -0.3263
  970SOL    HW1 2909   0.968   2.123   1.747  0.7821  1.1964  0.4824
  970SOL    HW2 2910   1.021   2.159   1.911 -0.7607  1.8618 -0.5700
  971SOL     OW 2911   2.952   2.055   2.050  0.7516 -0.3773 -0.2668
  971SOL    HW1 2912   2.942   2.161   2.075  1.2249 -0.6366 -1.5588
  971SOL    HW2 2913   2.987   2.040   1.948  2.0671  1.3751 -0.0026
  972SOL     OW 2914   1.994   2.477   0.224  0.0081 -0.2235  0.1933
  972SOL    HW1 2915   1.985   2.388   0.178 -1.4938  3.0092 -1.2278
  972SOL    HW2 2916   2.033   2.472   0.323  2.5707 -0.0346  0.0653
  973SOL     OW 2917   1.240   1.029   1.903 -0.5895  0.3127  0.2900
  973SOL    HW1 2918   1.169   0.999   1.836  1.7427  3.6213 -0.7557
  973SOL    HW2 2919   1.219   1.126   1.938  1.8999  0.9871  0.9513
  974SOL     OW 2920   1.567   0.595   1.913 -0.3098 -0.3585  0.6477
  974SOL    HW1 2921   1.664   0.614   1.878  1.8753  0.8098 -0.5659
  974SOL    HW2 2922   1.514   0.684   1.910 -3.1346 -0.1161 -0.4387
  975SOL     OW 2923   2.371   3.056   3.102  0.1389  0.0681 -0.5437
  975SOL    HW1 2924   2.330   2.962   3.116 -2.8251  1.2997 -3.4628
  975SOL    HW2 2925   2.364   3.082   3.002 -0.5684 -0.0616  0.2421
  976SOL     OW 2926   1.887   2.811   2.348  0.1102  0.2656 -0.0807
  976SOL    HW1 2927   1.895   2.752   2.258 -0.1124 -1.8906  0.0935
  976SOL    HW2 2928   1.927   2.774   2.434 -0.1124 -0.8476  0.2280
  977SOL     OW 2929   0.493   0.663   1.042 -0.4860  0.0218  1.3242
  977SOL    HW1 2930   0.432   0.665   0.956 -1.3041 -2.0978 -1.8572
  977SOL    HW2 2931   0.555   0.750   1.048  2.0264  3.7562  0.5611
   3.10000   3.10000   3.10000
