1000 SPC/Fw water molecules t=   1.79000 step= 1790
 2931
    1SOL     OW    1   2.520   0.359   2.663  0.1815 -0.5053 -0.3755
    1SOL    HW1    2   2.526   0.263   2.623  1.4264  0.1838 -0.1576
    1SOL    HW2    3   2.581   0.380   2.742  1.1159 -0.6414  0.1488
    2SOL     OW    4   2.718   2.899   1.378 -0.4898 -0.7950 -0.0182
    2SOL    HW1    5   2.808   2.932   1.330  1.4447 -0.8659 -0.6447
    2SOL    HW2    6   2.711   2.936   1.478  0.6941 -2.5282  1.0799
    3SOL     OW    7   2.722   2.451   0.397  0.0514 -0.3997  0.5860
    3SOL    HW1    8   2.632   2.405   0.379  1.5671 -1.1307  0.6197
    3SOL    HW2    9   2.725   2.490   0.493  2.2972  0.7329 -1.4025
    4SOL     OW   10   1.284   1.533   2.446 -0.5446 -0.1287  0.1096
    4SOL    HW1   11   1.199   1.529   2.387 -0.7806  2.2014 -0.4327
    4SOL    HW2   12   1.273   1.515   2.549 -1.9971 -2.9473  1.6463
    5SOL     OW   13   1.124   1.580   2.970  0.2649 -0.0208 -1.0442
    5SOL    HW1   14   1.170   1.668   2.988 -1.5335 -0.5468 -1.7879
    5SOL    HW2   15   1.034   1.593   2.926  1.4021 -2.4397  1.8922
    6SOL     OW   16   0.222   1.843   0.006 -0.9332  0.6680  0.3538
    6SOL    HW1   17   0.142   1.861   0.075  0.1501 -0.9957  1.3187
    6SOL    HW2   18   0.283   1.768   0.049 -3.9579  0.2589  2.0372
    7SOL     OW   19   2.512   0.925   1.075  0.1847  0.1108 -0.2433
    7SOL    HW1   20   2.422   0.870   1.082 -0.3999  0.7256 -0.0246
    7SOL    HW2   21   2.553   0.914   0.981  1.8808  1.8390 -0.7886
    8SOL     OW   22   0.409   0.682   1.519  0.2525  0.7380 -0.9989
    8SOL    HW1   23   0.503   0.641   1.513  0.0302  0.9868  1.4015
    8SOL    HW2   24   0.394   0.750   1.441 -0.0422  1.9739  0.2641
    9SOL     OW   25   1.118   0.896   2.344 -0.2911  0.2276 -0.2532
    9SOL    HW1   26   1.185   0.929   2.281 -1.5171 -0.0720  1.4602
    9SOL    HW2   27   1.119   0.795   2.366 -3.8397 -0.5613 -0.0439
   10SOL     OW   28   0.662   1.404   1.269 -0.1941  0.5291  0.2906
   10SOL    HW1   29   0.586   1.377   1.205  0.7252 -0.3225 -2.2084
   10SOL    HW2   30   0.651   1.506   1.304  0.4026  0.6456 -0.0186
   11SOL     OW   31   2.315   2.855   0.917 -0.0552 -0.7091  0.0387
   11SOL    HW1   32   2.272   2.799   0.994  0.2143  2.3806 -0.5921
   11SOL    HW2   33   2.409   2.877   0.935 -2.1603 -0.4294  1.4445
   12SOL     OW   34   1.479   0.847   0.487 -0.2638 -0.2220  0.1766
   12SOL    HW1   35   1.402   0.877   0.422 -0.9062  0.5680 -0.0655
   12SOL    HW2   36   1.547   0.796   0.426  0.1752  0.1452 -3.5007
   13SOL     OW   37   2.455   0.739   1.792 -0.4544 -0.0051  0.4326
   13SOL    HW1   38   2.383   0.682   1.848 -1.4122 -0.3407 -0.6401
   13SOL    HW2   39   2.471   0.710   1.695  2.2254 -0.7563  0.0785
   14SOL     OW   40   1.944   3.061   0.591 -0.3230 -0.4569  0.1093
   14SOL    HW1   41   1.849   3.097   0.562 -1.5603  0.4586 -2.5880
   14SOL    HW2   42   1.963   3.067   0.697  0.9042  0.8309  0.3062
   15SOL     OW   43   1.923   2.146   2.673 -0.6131 -0.1886 -0.0493
   15SOL    HW1   44   1.849   2.124   2.747 -1.5118 -0.5969  1.7405
   15SOL    HW2   45   1.939   2.061   2.609  1.2634 -1.0303  1.2793
   16SOL     OW   46   1.557   1.773   3.047 -0.3879  0.5386 -0.4035
   16SOL    HW1   47   1.528   1.778   3.147  1.8234 -1.7988 -1.9634
   16SOL    HW2   48   1.656   1.807   3.033  0.0488 -2.3983  0.9539
   17SOL     OW   49   0.111   0.472   0.171 -0.2742 -0.1278  0.0327
   17SOL    HW1   50   0.208   0.494   0.148 -2.5400  1.3755  1.5674
   17SOL    HW2   51   0.052   0.500   0.090  3.1362 -1.5902 -0.7895
   18SOL     OW   52   0.894   2.870   2.163 -0.4799 -0.5517  0.1048
   18SOL    HW1   53   0.873   2.776   2.196 -0.7368 -1.0900  3.0256
   18SOL    HW2   54   0.989   2.877   2.126 -0.5018  1.1421  1.0616
   19SOL     OW   55   0.525   0.953   1.906 -0.3573  0.4819  0.2243
   19SOL    HW1   56   0.574   0.889   1.974 -0.8429  1.3775  0.8518
   19SOL    HW2   57   0.586   1.027   1.864 -0.6051 -0.1903  0.1740
   20SOL     OW   58   0.247   2.798   0.746  0.1109 -0.0190 -0.6786
   20SOL    HW1   59   0.145   2.820   0.762  1.2559 -2.9576 -2.0140
   20SOL    HW2   60   0.261   2.707   0.702  0.4016 -2.8948 -1.2933
   21SOL     OW   61   2.781   0.278   2.016  0.1892  0.1232 -0.0839
   21SOL    HW1   62   2.744   0.188   1.981  1.5675 -0.3245  1.2288
   21SOL    HW2   63   2.866   0.260   2.076  0.5665  1.2607 -1.5248
   22SOL     OW   64   2.388   0.177   0.136  0.7921 -0.0532 -0.4370
   22SOL    HW1   65   2.405   0.093   0.085 -1.5040  2.4338  2.3254
   22SOL    HW2   66   2.320   0.244   0.096  2.0164 -1.1039 -2.1083
   23SOL     OW   67   2.824   0.521   0.680 -0.0126 -0.1300 -0.4326
   23SOL    HW1   68   2.854   0.442   0.620  0.2830 -0.6194  2.5341
   23SOL    HW2   69   2.814   0.609   0.621  0.2414 -2.5790 -2.8568
   24SOL     OW   70   0.313   1.883   0.452 -0.3534  0.4922 -0.4820
   24SOL    HW1   71   0.330   1.979   0.429  0.4628  0.4914  0.9034
   24SOL    HW2   72   0.397   1.825   0.440 -1.2937  2.4303 -1.0944
   25SOL     OW   73   2.305   0.600   0.223 -0.0206 -0.2258  0.3008
   25SOL    HW1   74   2.280   0.600   0.121  0.7400 -1.6150  0.2502
   25SOL    HW2   75   2.347   0.512   0.259  1.2834  0.6082  0.7587
   26SOL     OW   76   2.444   2.164   2.082 -0.1802 -0.0036 -0.3719
   26SOL    HW1   77   2.524   2.189   2.142  1.0406 -0.5207 -2.1760
   26SOL    HW2   78   2.468   2.092   2.010 -1.4010  0.1065  1.4327
   27SOL     OW   79   0.639   3.025   0.121 -0.3595 -0.5455  0.0576
   27SOL    HW1   80   0.731   3.082   0.114  3.5434  1.5053  0.9351
   27SOL    HW2   81   0.595   3.002   0.026 -0.3064  0.0280 -1.0801
   28SOL     OW   82   1.578   0.164   0.319 -0.3935  0.2752  0.7584
   28SOL    HW1   83   1.614   0.128   0.227  4.4210  0.1304 -0.0903
   28SOL    HW2   84   1.627   0.253   0.339  1.5812 -2.9894  0.7534
   29SOL     OW   85   2.011   0.550   0.316  0.0492 -0.1742  0.0643
   29SOL    HW1   86   1.981   0.593   0.402  0.0595  1.5335 -1.0306
   29SOL    HW2   87   2.114   0.554   0.295 -0.5215 -0.2393  0.1522
   30SOL     OW   88   0.197   2.106   0.918 -0.6027  0.5722 -0.7686
   30SOL    HW1   89   0.168   2.026   0.854 -0.2123  1.0437 -0.9957
   30SOL    HW2   90   0.116   2.166   0.949 -0.4538  0.1757 -0.1973
   31SOL     OW   91   2.088   0.087   2.414 -0.0327  0.3275 -0.8714
   31SOL    HW1   92   2.043   0.061   2.505 -0.7377 -0.2817 -1.1890
   31SOL    HW2   93   2.047   0.040   2.333  0.6906 -3.0607  1.5036
   32SOL     OW   94   3.080   3.056   0.256 -0.1313 -0.1223 -0.1794
   32SOL    HW1   95   3.045   2.958   0.258 -0.6620  2.2890 -0.5412
   32SOL    HW2   96   3.181   3.063   0.228 -0.5263  0.6545  1.0655
   33SOL     OW   97   0.884   0.261   0.638 -0.7240  0.5364 -0.4734
   33SOL    HW1   98   0.874   0.187   0.564 -0.1034  0.9664  1.5494
   33SOL    HW2   99   0.980   0.313   0.636 -0.5888  2.2863  0.8176
   34SOL     OW  100   0.322   2.668   1.027 -0.3943 -0.2202  0.3095
   34SOL    HW1  101   0.299   2.720   0.941 -0.3069 -0.6588  0.0104
   34SOL    HW2  102   0.417   2.694   1.063  0.6775 -0.6143  4.3868
   35SOL     OW  103   0.070   0.167   1.904  0.5309  1.1196 -0.6679
   35SOL    HW1  104   0.105   0.079   1.940 -1.1327  0.9979  0.0545
   35SOL    HW2  105   0.028   0.158   1.807  1.4329 -2.4270 -0.3679
   36SOL     OW  106   1.887   1.221   1.498 -0.4681 -0.1071  0.2261
   36SOL    HW1  107   1.961   1.154   1.529 -3.0960 -0.2225  2.3336
   36SOL    HW2  108   1.922   1.305   1.447  1.7151  0.6344  0.1675
   37SOL     OW  109   1.144   0.262   1.008  0.4640  0.4856 -0.0302
   37SOL    HW1  110   1.154   0.368   0.984 -0.7490  0.2557  0.1916
   37SOL    HW2  111   1.210   0.203   0.953 -1.6901 -0.6993 -0.1316
   38SOL     OW  112   1.156   2.834   2.460 -0.6824 -1.0811 -0.1219
   38SOL    HW1  113   1.067   2.796   2.498  1.7832  0.6745  0.7456
   38SOL    HW2  114   1.130   2.921   2.403 -1.5454  0.8518  0.7469
   39SOL     OW  115   2.477   1.411   2.982 -0.6198 -0.5452  0.0305
   39SOL    HW1  116   2.539   1.336   3.017  1.9493  3.2686 -0.5797
   39SOL    HW2  117   2.381   1.407   3.025 -0.4446 -2.6460  0.2323
   40SOL     OW  118   2.042   2.525   2.512  0.2818 -0.1303  0.0515
   40SOL    HW1  119   1.982   2.613   2.524 -2.6451 -1.7327 -0.6534
   40SOL    HW2  120   1.985   2.442   2.500  1.0518  3.2555 -0.4638
   41SOL     OW  121   3.028   0.708   2.816 -0.1264 -0.0215  0.6125
   41SOL    HW1  122   3.002   0.796   2.859  0.5194 -0.0777  0.2593
   41SOL    HW2  123   2.949   0.677   2.756  0.2265 -1.3430  0.5864
   42SOL     OW  124   1.716   1.760   0.488 -0.3658  0.4311 -0.1807
   42SOL    HW1  125   1.691   1.660   0.498 -0.6968  0.7243  1.0677
   42SOL    HW2  126   1.713   1.796   0.389 -0.2076  0.0848 -2.4391
   43SOL     OW  127   0.489   1.686   1.124  0.1867 -0.1971 -0.2926
   43SOL    HW1  128   0.486   1.583   1.097  2.1168  1.9066 -0.2537
   43SOL    HW2  129   0.417   1.701   1.200  0.8592  0.3055 -0.0311
   44SOL     OW  130   1.677   2.340   2.927 -0.0522  0.5030  0.2204
   44SOL    HW1  131   1.594   2.394   2.958  0.8456  2.9070  1.4853
   44SOL    HW2  132   1.733   2.394   2.857  2.0051 -1.3677  0.6181
   45SOL     OW  133   0.360   1.903   2.645 -0.1006  0.0055  0.0553
   45SOL    HW1  134   0.314   1.856   2.568  0.3137  0.9765  1.4346
   45SOL    HW2  135   0.456   1.865   2.642 -1.1858 -0.4867  0.3557
   46SOL     OW  136   1.333   0.728   0.241 -0.1051 -0.1972 -0.3487
   46SOL    HW1  137   1.299   0.795   0.166  0.4956  0.4824  2.7443
   46SOL    HW2  138   1.323   0.628   0.215  0.0566  1.3308  0.8572
   47SOL     OW  139   0.132   2.374   1.610  0.5671 -0.0224  0.1512
   47SOL    HW1  140   0.062   2.321   1.664 -2.7496  0.6673 -1.2968
   47SOL    HW2  141   0.132   2.361   1.507  0.1859  0.8905 -0.9742
   48SOL     OW  142   2.631   0.748   0.134 -0.1050  0.0915  0.1150
   48SOL    HW1  143   2.615   0.698   0.225  0.9170 -1.3745  2.0929
   48SOL    HW2  144   2.730   0.760   0.112  0.2429  0.7538  1.1239
   49SOL     OW  145   0.343   0.853   1.748 -0.3362  0.1344 -0.1557
   49SOL    HW1  146   0.429   0.891   1.798 -1.4997  0.4591  0.2246
   49SOL    HW2  147   0.370   0.798   1.664  1.3824 -0.3956  2.2860
   50SOL     OW  148   1.702   1.097   0.314 -0.5743  0.3648 -0.0352
   50SOL    HW1  149   1.707   0.999   0.280  0.5885 -0.4555  1.6576
   50SOL    HW2  150   1.652   1.104   0.403  1.1343 -0.8083 -0.1073
   51SOL     OW  151   2.984   1.746   0.305  0.6759  0.1977  0.0233
   51SOL    HW1  152   2.910   1.670   0.305  1.2913 -0.1125 -2.0081
   51SOL    HW2  153   3.070   1.713   0.353 -0.5815  0.4630  1.2591
   52SOL     OW  154   0.769   2.155   0.572  0.2220 -0.0559  0.2985
   52SOL    HW1  155   0.681   2.199   0.607  0.8395 -0.1406  1.1088
   52SOL    HW2  156   0.814   2.092   0.639 -1.0186 -0.6507 -0.1064
   53SOL     OW  157   0.307   0.440   1.437 -0.2697  0.5593  0.1071
   53SOL    HW1  158   0.325   0.538   1.470 -0.2341  0.5504 -1.6985
   53SOL    HW2  159   0.276   0.443   1.337 -2.1102  1.1490  0.4416
   54SOL     OW  160   1.741   0.423   0.000 -0.1799 -0.4021  0.0525
   54SOL    HW1  161   1.821   0.379   0.048 -1.8380 -0.9072  1.0104
   54SOL    HW2  162   1.649   0.412   0.048 -1.1921 -0.5028 -0.6532
   55SOL     OW  163   0.797   2.956   0.623 -0.1314  0.0558 -0.0101
   55SOL    HW1  164   0.730   3.033   0.603  1.8392  0.4505 -1.4103
   55SOL    HW2  165   0.892   2.967   0.583 -2.0546 -0.2913 -1.6267
   56SOL     OW  166   0.535   1.540   3.041 -0.5754  0.0930 -0.5971
   56SOL    HW1  167   0.463   1.570   3.103 -1.3532 -0.3128 -0.7456
   56SOL    HW2  168   0.512   1.460   2.978  1.2207  0.3708 -2.2161
   57SOL     OW  169   1.672   2.472   2.351  0.6549  0.1079 -0.3554
   57SOL    HW1  170   1.744   2.397   2.343  0.0108 -0.8901  1.7051
   57SOL    HW2  171   1.648   2.487   2.451  0.7110  0.8694  0.3083
   58SOL     OW  172   0.634   0.207   1.105 -0.6440 -0.0794  0.2089
   58SOL    HW1  173   0.562   0.215   1.178 -1.5547 -2.1454 -2.4350
   58SOL    HW2  174   0.655   0.108   1.089  2.9884 -0.0259 -2.2264
   59SOL     OW  175   0.467   2.368   2.576 -0.1587  0.2925 -0.7272
   59SOL    HW1  176   0.489   2.275   2.608  0.6041  0.5244 -3.8738
   59SOL    HW2  177   0.552   2.434   2.583  0.2935  0.1803  0.2313
   60SOL     OW  178   2.291   2.046   2.293  0.0910  0.4305  0.4416
   60SOL    HW1  179   2.353   2.074   2.215 -0.3687 -0.4398  1.2058
   60SOL    HW2  180   2.311   2.090   2.382 -3.0371  0.8451  0.2503
   61SOL     OW  181   1.197   0.651   0.469  0.4998 -0.2471  0.0524
   61SOL    HW1  182   1.105   0.677   0.507 -0.1107 -1.7301  1.4443
   61SOL    HW2  183   1.223   0.714   0.391 -0.8342 -1.4388  1.2353
   62SOL     OW  184   2.800   1.690   2.703 -0.0921 -0.4252  0.3703
   62SOL    HW1  185   2.733   1.611   2.682  1.9968  0.7315 -1.5387
   62SOL    HW2  186   2.879   1.662   2.763 -2.0199  0.5124  2.6663
   63SOL     OW  187   0.539   0.885   0.172  0.4567 -0.2170 -0.2456
   63SOL    HW1  188   0.569   0.960   0.102 -1.0135  1.7562 -1.4078
   63SOL    HW2  189   0.611   0.871   0.245  0.0568 -1.5409 -1.4377
   64SOL     OW  190   3.001   0.550   2.364  0.1899 -0.2640  0.3981
   64SOL    HW1  191   2.940   0.600   2.430  2.5547 -1.4364 -0.5595
   64SOL    HW2  192   3.018   0.597   2.278  0.0512 -1.0417  4.1053
   65SOL     OW  193   0.217   1.427   0.663 -0.4969 -0.3646 -0.7518
   65SOL    HW1  194   0.197   1.518   0.712 -1.8914  1.8427 -0.7571
   65SOL    HW2  195   0.261   1.438   0.564 -0.7327  0.0992 -2.3713
   66SOL     OW  196   2.594   0.326   0.524  0.3362 -0.0311 -0.3972
   66SOL    HW1  197   2.697   0.305   0.536 -1.8105 -0.7549 -0.4760
   66SOL    HW2  198   2.537   0.268   0.597  1.1661 -1.4538  1.5849
   67SOL     OW  199   0.587   2.497   1.491 -0.0771 -0.3843  0.7081
   67SOL    HW1  200   0.662   2.484   1.559  0.9164 -2.3332  0.4554
   67SOL    HW2  201   0.524   2.412   1.485 -0.1906  0.4518  0.6142
   68SOL     OW  202   0.914   1.058   2.503 -0.1677 -0.3254  0.2400
   68SOL    HW1  203   0.982   0.990   2.461 -0.0182  0.4258  0.5632
   68SOL    HW2  204   0.851   1.102   2.433  0.6370  1.7033  2.2416
   69SOL     OW  205   0.793   2.592   2.359 -0.5503 -0.3224  0.0075
   69SOL    HW1  206   0.794   2.543   2.271 -0.6218  1.4982  1.7435
   69SOL    HW2  207   0.694   2.613   2.380  0.2571  3.1894 -0.6343
   70SOL     OW  208   0.487   0.156   2.584  0.2163 -0.0889  0.3715
   70SOL    HW1  209   0.403   0.127   2.634  2.1979 -3.6230  0.9250
   70SOL    HW2  210   0.558   0.081   2.586 -0.1575 -0.2645 -0.3635
   71SOL     OW  211   1.062   1.761   0.299 -0.0753 -0.1714 -0.2939
   71SOL    HW1  212   0.991   1.775   0.377  0.5623  1.7782 -1.5358
   71SOL    HW2  213   1.011   1.753   0.206  0.8426 -0.1358 -1.6453
   72SOL     OW  214   1.870   0.264   2.142 -0.6408 -0.2104 -0.2818
   72SOL    HW1  215   1.942   0.333   2.112  1.7226  1.6163  0.5274
   72SOL    HW2  216   1.904   0.168   2.155  1.1427 -2.4832  1.4888
   73SOL     OW  217   2.743   2.207   2.490 -0.1391 -0.0656 -0.3639
   73SOL    HW1  218   2.738   2.113   2.443 -2.8695  0.0466  1.1383
   73SOL    HW2  219   2.811   2.196   2.569  1.6118 -1.0325 -1.9451
   74SOL     OW  220   2.716   2.957   2.136 -0.2271  0.3547  0.5812
   74SOL    HW1  221   2.636   2.939   2.205  0.5570  0.6672  1.5812
   74SOL    HW2  222   2.801   2.987   2.190 -3.4613  1.4982  1.5217
   75SOL     OW  223   0.931   0.797   1.172 -0.2521 -0.3091 -0.0824
   75SOL    HW1  224   0.837   0.808   1.130 -1.5561 -1.5795 -0.3767
   75SOL    HW2  225   0.964   0.866   1.243  0.7583  0.3200  2.3465
   76SOL     OW  226   1.860   1.258   2.634 -0.7486  0.1281  0.0280
   76SOL    HW1  227   1.773   1.228   2.680 -0.7690 -0.4114  1.6913
   76SOL    HW2  228   1.857   1.360   2.629 -1.0308  0.9000 -0.9685
   77SOL     OW  229   2.922   0.921   1.040  0.2951 -0.2289 -0.3555
   77SOL    HW1  230   2.882   0.826   1.053 -1.3858 -0.4955  0.6776
   77SOL    HW2  231   3.019   0.928   1.079  0.5508 -2.3944 -0.4558
   78SOL     OW  232   1.943   1.423   1.339 -0.1876  0.1328 -0.1044
   78SOL    HW1  233   2.029   1.423   1.285 -1.6215 -0.2305  1.6667
   78SOL    HW2  234   1.861   1.442   1.273  0.2525  0.8295 -0.5250
   79SOL     OW  235   0.700   1.463   0.844 -0.3690  0.1721 -0.0491
   79SOL    HW1  236   0.606   1.447   0.876 -0.4243 -1.2164 -2.6750
   79SOL    HW2  237   0.749   1.376   0.816  3.0055 -1.0821  2.4331
   80SOL     OW  238   0.671   0.473   1.604  0.4808  0.4157  0.0544
   80SOL    HW1  239   0.680   0.528   1.518 -1.2218  0.4016  1.7023
   80SOL    HW2  240   0.705   0.375   1.604  0.6214 -0.9118  3.4249
   81SOL     OW  241   1.076   1.279   2.502  0.1781  0.6556 -0.0940
   81SOL    HW1  242   1.032   1.184   2.514 -1.7712  0.1501  3.5219
   81SOL    HW2  243   1.005   1.350   2.474 -0.9014  1.7083 -2.4624
   82SOL     OW  244   0.935   2.957   1.608  0.4954 -0.1075  0.4485
   82SOL    HW1  245   1.000   2.876   1.608 -1.9602 -1.3816 -0.7174
   82SOL    HW2  246   0.905   2.976   1.515  0.3898  0.2101  2.6942
   83SOL     OW  247   2.641   2.347   0.889 -0.6940 -0.4258  0.6014
   83SOL    HW1  248   2.571   2.278   0.848  0.9971 -0.3040  3.7705
   83SOL    HW2  249   2.632   2.438   0.844 -1.6564 -0.5023 -0.7459
   84SOL     OW  250   0.765   3.082   2.301 -0.1865 -0.5293  0.3648
   84SOL    HW1  251   0.726   3.053   2.395  1.5826 -0.8245  1.9810
   84SOL    HW2  252   0.769   3.010   2.231 -1.3506  1.7162  3.1220
   85SOL     OW  253   0.318   1.707   1.347 -0.2033 -0.2359 -0.1750
   85SOL    HW1  254   0.255   1.777   1.397 -1.4238  1.2716  2.2756
   85SOL    HW2  255   0.386   1.665   1.415  0.5834 -1.3642 -0.9899
   86SOL     OW  256   0.446   1.042   1.411  0.5623 -0.0797 -0.5651
   86SOL    HW1  257   0.419   0.968   1.345 -0.8629  0.8052 -1.7120
   86SOL    HW2  258   0.538   1.029   1.455 -3.2681  1.2045  0.0425
   87SOL     OW  259   1.650   0.629   0.303  0.4087 -0.2039  0.8978
   87SOL    HW1  260   1.718   0.712   0.301 -0.0682  1.1764  2.9896
   87SOL    HW2  261   1.597   0.611   0.213 -3.1688 -0.6052  0.5931
   88SOL     OW  262   1.576   1.328   0.252  0.0256 -0.1709 -0.3341
   88SOL    HW1  263   1.623   1.236   0.276  1.1999 -0.8675  0.3116
   88SOL    HW2  264   1.474   1.315   0.217  1.1579  0.6942  0.8776
   89SOL     OW  265  -0.001   0.389   0.693 -0.4015 -0.2454  0.1999
   89SOL    HW1  266   0.096   0.367   0.652  1.8759  1.1632  1.7978
   89SOL    HW2  267  -0.058   0.303   0.703 -0.2618  1.5521  0.8926
   90SOL     OW  268   0.749   1.534   0.124  0.2010  0.3281 -0.3432
   90SOL    HW1  269   0.842   1.485   0.122  0.5827  0.4248 -1.6671
   90SOL    HW2  270   0.682   1.507   0.048  0.2425  2.3048 -0.6472
   91SOL     OW  271   1.308   1.509   1.698  0.2701 -0.1907  0.1651
   91SOL    HW1  272   1.272   1.561   1.776  0.0113 -0.8480 -0.9922
   91SOL    HW2  273   1.377   1.440   1.721 -0.3315  1.3906  1.0585
   92SOL     OW  274   0.041   1.004   1.198  0.4553 -0.1357 -0.4069
   92SOL    HW1  275   0.060   1.097   1.164  1.3195  0.2607 -1.7131
   92SOL    HW2  276   0.051   0.997   1.299  1.5794  0.0654  1.9788
   93SOL     OW  277   3.038   2.644   0.064 -0.0449 -0.3055 -0.2006
   93SOL    HW1  278   2.989   2.624  -0.021  1.6833  2.5328  1.0551
   93SOL    HW2  279   3.114   2.579   0.086 -1.7418  2.0948 -0.9534
   94SOL     OW  280   1.526   1.327   1.678 -0.0344  0.9023 -0.1293
   94SOL    HW1  281   1.595   1.262   1.719 -1.5353  1.5453 -0.3297
   94SOL    HW2  282   1.565   1.397   1.616  1.3124 -0.4614 -0.8508
   95SOL     OW  283   1.358   2.456   2.929  0.2013  0.2625  0.2758
   95SOL    HW1  284   1.286   2.473   2.996 -0.0838  0.2577 -0.0109
   95SOL    HW2  285   1.366   2.351   2.909 -2.0401 -1.0102 -1.3051
   96SOL     OW  286   0.570   2.163   1.292 -0.0741 -0.2891 -0.6197
   96SOL    HW1  287   0.525   2.120   1.209  1.6121  1.2319 -1.0946
   96SOL    HW2  288   0.593   2.095   1.368 -0.0144 -0.3370  0.4505
   97SOL     OW  289   0.249   1.590   2.387  0.0089 -0.0976  0.0983
   97SOL    HW1  290   0.233   1.682   2.347  0.8178 -2.9723  0.0288
   97SOL    HW2  291   0.237   1.604   2.488  2.0720  1.9690 -0.0251
   98SOL     OW  292   2.216   1.673   1.181  0.3631 -0.0084  0.1168
   98SOL    HW1  293   2.188   1.569   1.169 -0.1884 -0.4813 -0.3430
   98SOL    HW2  294   2.313   1.701   1.149 -1.2858 -0.2982  1.0207
   99SOL     OW  295   2.623   2.052   1.303  0.0432  0.4300  0.2090
   99SOL    HW1  296   2.654   2.123   1.365 -0.3319  0.0027  1.0319
   99SOL    HW2  297   2.545   1.997   1.346  1.3235  0.1370  2.1715
  100SOL     OW  298   2.332   0.352   2.128 -0.2412  0.0547  0.0695
  100SOL    HW1  299   2.287   0.330   2.218  0.8943 -0.2916 -0.6301
  100SOL    HW2  300   2.438   0.363   2.137 -0.5701 -0.1667 -1.5675
  101SOL     OW  301   0.354   1.482   0.429 -0.2013  1.3607  0.3246
  101SOL    HW1  302   0.356   1.571   0.491 -2.1082  2.4811  0.4748
  101SOL    HW2  303   0.449   1.461   0.389 -0.5354 -2.7758  0.3701
  102SOL     OW  304   2.265   1.071   0.878  0.2832 -0.0276  0.6411
  102SOL    HW1  305   2.226   0.971   0.871  2.0503 -2.0199 -0.8916
  102SOL    HW2  306   2.314   1.102   0.795 -0.1346  1.8655 -0.1326
  103SOL     OW  307   2.271   0.087   0.376 -0.5846 -0.2357  0.2201
  103SOL    HW1  308   2.334   0.111   0.297 -3.8816 -1.1972  1.5732
  103SOL    HW2  309   2.313   0.014   0.432  2.5168  1.2953  0.1800
  104SOL     OW  310   3.066   1.806   2.216  0.4805  0.0732 -0.0662
  104SOL    HW1  311   3.124   1.797   2.135 -1.1909  0.1085  1.3225
  104SOL    HW2  312   2.966   1.846   2.200  1.4267  2.9527  0.3176
  105SOL     OW  313   1.303   2.095   0.758 -0.7085 -0.1860  0.2844
  105SOL    HW1  314   1.277   2.150   0.674  0.9846 -0.0286  0.1000
  105SOL    HW2  315   1.334   1.998   0.740  3.2111  3.2514  0.3063
  106SOL     OW  316   2.130   0.409   1.439 -0.2893 -0.1824  0.2333
  106SOL    HW1  317   2.052   0.346   1.432 -0.2835 -0.0653 -0.3500
  106SOL    HW2  318   2.169   0.399   1.535  1.4739  1.9846 -0.5774
  107SOL     OW  319   1.923   2.908   1.160  0.1525  0.3310  0.2747
  107SOL    HW1  320   1.851   2.980   1.183 -0.5842  0.8912 -1.9466
  107SOL    HW2  321   1.878   2.821   1.117 -2.4435  3.1446  0.9738
  108SOL     OW  322   0.863   2.803   1.109  0.2511 -0.3997 -0.4406
  108SOL    HW1  323   0.855   2.718   1.051 -0.9804 -1.3770 -2.3129
  108SOL    HW2  324   0.957   2.815   1.156  2.0326 -2.4101 -1.3188
  109SOL     OW  325   2.179   0.158   0.731  0.3898 -0.2905 -0.0093
  109SOL    HW1  326   2.108   0.101   0.680 -1.9062 -0.4024  1.0177
  109SOL    HW2  327   2.170   0.156   0.837  0.5251  1.0111  0.0348
  110SOL     OW  328   0.505   2.826   2.750 -0.1621 -0.3547 -0.3801
  110SOL    HW1  329   0.507   2.829   2.645 -1.4093 -2.3731  1.4854
  110SOL    HW2  330   0.570   2.756   2.797  0.1753  0.0249  2.8143
  111SOL     OW  331   1.325   0.593   2.301  0.1493  0.5386  0.7822
  111SOL    HW1  332   1.229   0.608   2.336 -0.4457 -0.3727 -2.5030
  111SOL    HW2  333   1.377   0.511   2.347 -3.2072 -1.2978  0.5748
  112SOL     OW  334   1.737   0.499   1.538  0.0416  0.7203 -0.2198
  112SOL    HW1  335   1.714   0.520   1.441 -1.2540  1.7287  0.7513
  112SOL    HW2  336   1.644   0.473   1.588  0.2668  3.9755 -0.0599
  113SOL     OW  337   2.280   1.686   1.798 -0.7371  0.3430 -0.0077
  113SOL    HW1  338   2.336   1.610   1.763 -1.1460 -0.2786 -0.5664
  113SOL    HW2  339   2.288   1.708   1.901 -1.9166 -0.5075  1.2029
  114SOL     OW  340   0.243   0.393   1.156  1.4663 -0.0739  0.0864
  114SOL    HW1  341   0.144   0.378   1.162  2.4748 -0.3880 -0.8852
  114SOL    HW2  342   0.274   0.433   1.066 -0.1776 -1.5483  2.4888
  115SOL     OW  343   2.675   1.545   1.253 -0.4324  0.2749 -0.1040
  115SOL    HW1  344   2.672   1.446   1.278 -1.8567  1.5422 -2.6823
  115SOL    HW2  345   2.751   1.561   1.183 -0.1718 -0.7960  0.0795
  116SOL     OW  346   1.925   0.913   0.714 -0.9217  0.2746 -0.8775
  116SOL    HW1  347   1.834   0.863   0.703  1.0110 -1.3699  0.6553
  116SOL    HW2  348   1.916   1.017   0.730  1.4390 -1.7558  0.3502
  117SOL     OW  349   1.134   0.355   0.566  0.1747  0.2913  0.4452
  117SOL    HW1  350   1.180   0.431   0.608 -0.1994 -2.5289  1.2577
  117SOL    HW2  351   1.109   0.364   0.467 -0.4434 -2.0401 -0.0013
  118SOL     OW  352   1.145   1.221   1.085 -0.4846 -0.2380 -0.4327
  118SOL    HW1  353   1.047   1.219   1.116  2.4493  1.3990  1.9729
  118SOL    HW2  354   1.193   1.315   1.104  2.2855 -0.3342 -0.6273
  119SOL     OW  355   1.880   1.598   2.189 -0.0518  0.5986 -0.6546
  119SOL    HW1  356   1.809   1.653   2.139  2.8499  0.6735 -0.2403
  119SOL    HW2  357   1.963   1.560   2.133  2.2590 -1.1702  0.7422
  120SOL     OW  358   2.967   2.815   0.270 -0.2628  0.0872  0.0442
  120SOL    HW1  359   2.984   2.737   0.201  1.2839  1.2339  1.5860
  120SOL    HW2  360   2.865   2.837   0.291 -2.5987  0.0587  2.2456
  121SOL     OW  361   1.993   0.779   2.330 -0.5017 -0.0319  0.2331
  121SOL    HW1  362   2.029   0.862   2.276 -2.2096  1.5218  0.0172
  121SOL    HW2  363   1.998   0.692   2.280 -0.3663  0.9156  1.1651
  122SOL     OW  364   2.636   2.491   1.362 -0.2537 -0.2350 -0.0214
  122SOL    HW1  365   2.656   2.428   1.282  0.9441 -0.7839  0.9236
  122SOL    HW2  366   2.641   2.444   1.460 -0.6567  1.1086  1.1437
  123SOL     OW  367   1.652   0.178   1.655 -0.1318 -0.0391 -0.5864
  123SOL    HW1  368   1.680   0.092   1.600  1.3986 -0.1671  2.5358
  123SOL    HW2  369   1.732   0.212   1.714 -1.2402 -0.4483  0.2180
  124SOL     OW  370   3.075   0.399   1.171 -1.1610 -0.1804  0.1060
  124SOL    HW1  371   2.990   0.448   1.213 -0.4677 -0.2458  0.1557
  124SOL    HW2  372   3.098   0.431   1.072 -0.0627 -0.6709 -2.8925
  125SOL     OW  373   0.889   1.989   0.759 -0.3260  0.1171 -0.1002
  125SOL    HW1  374   0.985   1.965   0.787  0.7730  0.1059  1.2415
  125SOL    HW2  375   0.827   2.027   0.831  1.3121 -1.1756 -2.1209
  126SOL     OW  376   1.897   2.288   2.441  0.0591  0.1459 -0.5572
  126SOL    HW1  377   1.945   2.232   2.367 -0.0428 -3.4584 -0.5991
  126SOL    HW2  378   1.894   2.233   2.531 -0.7450 -0.6299 -1.5158
  127SOL     OW  379   0.903   0.963   0.169  0.2114 -0.3620  0.2615
  127SOL    HW1  380   0.918   1.033   0.248  2.5328  0.2485  0.2440
  127SOL    HW2  381   0.948   0.873   0.192  0.5599  1.4884 -1.3055
  128SOL     OW  382   0.928   0.185   1.380 -0.1432  0.0339 -0.2678
  128SOL    HW1  383   0.907   0.247   1.304  0.8404 -0.2667 -0.9935
  128SOL    HW2  384   0.891   0.095   1.358 -0.4482  1.4420 -1.1966
  129SOL     OW  385   1.892   0.718   1.862  0.0805 -0.4442  0.5277
  129SOL    HW1  386   1.906   0.691   1.762  0.8879 -0.3745  3.5095
  129SOL    HW2  387   1.906   0.821   1.873  0.0525  1.9265 -1.2830
  130SOL     OW  388   1.397   2.160   1.025  0.0430 -0.1263 -0.0512
  130SOL    HW1  389   1.354   2.126   0.936 -0.7389 -0.9355 -0.2408
  130SOL    HW2  390   1.452   2.248   1.006  0.2488 -1.6633 -1.9831
  131SOL     OW  391   3.022   1.395   1.440  0.1151 -0.0022  0.6288
  131SOL    HW1  392   2.960   1.313   1.449  2.4244  2.5307 -2.3918
  131SOL    HW2  393   3.112   1.377   1.406 -1.0991 -0.4045  0.4829
  132SOL     OW  394   2.062   2.426   0.543  0.3383  0.1069 -0.1467
  132SOL    HW1  395   1.963   2.468   0.550 -0.5961  0.1422  1.0552
  132SOL    HW2  396   2.066   2.336   0.591  0.2193 -0.1195 -0.3366
  133SOL     OW  397   1.778   2.500   2.718 -0.1549 -0.2615 -0.4286
  133SOL    HW1  398   1.684   2.509   2.677  1.2306 -0.9071 -0.6927
  133SOL    HW2  399   1.802   2.579   2.775  1.5383 -0.2713  1.1711
  134SOL     OW  400   2.616   2.417   1.638 -0.2745  0.0984  0.5539
  134SOL    HW1  401   2.573   2.381   1.730  1.5774 -0.2067  2.4177
  134SOL    HW2  402   2.679   2.500   1.656  0.2399  0.7224 -0.4167
  135SOL     OW  403   0.806   1.335   2.672  0.0511 -0.3220  0.6533
  135SOL    HW1  404   0.729   1.286   2.721  2.4726  0.6288  0.6535
  135SOL    HW2  405   0.791   1.350   2.566 -0.4026  2.0956  0.4486
  136SOL     OW  406   1.213   2.002   0.416  0.6745  0.2533  0.4219
  136SOL    HW1  407   1.145   2.074   0.451 -1.5035  0.9014  0.4983
  136SOL    HW2  408   1.170   1.908   0.409  1.1486 -1.7680  1.0740
  137SOL     OW  409   0.457   1.170   2.303  0.6279 -0.6292 -0.0682
  137SOL    HW1  410   0.359   1.157   2.285  2.4914 -2.4992 -0.6803
  137SOL    HW2  411   0.506   1.080   2.326  1.3677  1.4596 -1.6974
  138SOL     OW  412   2.440   1.482   0.269 -0.4207  0.3696  0.5222
  138SOL    HW1  413   2.369   1.431   0.208  1.5446 -0.8013  0.3686
  138SOL    HW2  414   2.487   1.422   0.340  0.7798 -2.6554 -1.3063
  139SOL     OW  415   1.898   2.648   1.569  0.1055  0.2770 -0.3424
  139SOL    HW1  416   1.803   2.664   1.536  0.5614 -0.5908 -1.8845
  139SOL    HW2  417   1.949   2.588   1.500  0.6733 -0.9515 -2.6336
  140SOL     OW  418   2.997   2.961   2.604  0.0911  0.2092  0.6766
  140SOL    HW1  419   3.027   2.860   2.608  1.7379 -0.4862 -0.0298
  140SOL    HW2  420   3.056   3.016   2.537  1.4730  0.2837 -4.2246
  141SOL     OW  421   1.300   1.640   1.439 -0.7871  0.0490 -0.4902
  141SOL    HW1  422   1.200   1.658   1.434  0.9151  0.3391 -4.3630
  141SOL    HW2  423   1.321   1.561   1.502  1.1588 -1.1963 -1.4887
  142SOL     OW  424   1.593   0.673   2.235 -0.1686 -0.2859  0.1459
  142SOL    HW1  425   1.620   0.644   2.139 -0.6676 -0.0314  2.2369
  142SOL    HW2  426   1.495   0.656   2.261  0.9386  1.5164  1.4326
  143SOL     OW  427   2.763   0.778   0.537  0.9230 -0.2223  0.6034
  143SOL    HW1  428   2.817   0.834   0.460 -0.4848 -0.1510 -0.4497
  143SOL    HW2  429   2.803   0.800   0.627  0.0007  0.5346 -0.4651
  144SOL     OW  430   2.911   1.142   1.430 -0.0233 -0.3216  0.2212
  144SOL    HW1  431   2.871   1.135   1.524 -0.8105 -2.4302 -0.5321
  144SOL    HW2  432   3.008   1.106   1.425  0.7494 -1.5698 -1.3378
  145SOL     OW  433   0.915   1.773   0.055  0.5025  0.4907  0.3242
  145SOL    HW1  434   0.940   1.818  -0.035  1.7662 -0.3882  1.3794
  145SOL    HW2  435   0.862   1.686   0.044  0.9081 -1.2811 -0.0075
  146SOL     OW  436   2.467   0.666   1.518  0.2664  0.2645 -0.0878
  146SOL    HW1  437   2.457   0.572   1.477 -0.4569 -3.3716  1.8082
  146SOL    HW2  438   2.413   0.735   1.460 -0.2325 -5.7182 -1.0646
  147SOL     OW  439   1.115   2.518   0.546  0.2435  0.3085 -0.4188
  147SOL    HW1  440   1.047   2.581   0.497  0.0139 -0.1710  0.8269
  147SOL    HW2  441   1.191   2.485   0.483  1.0342 -1.3568 -0.6365
  148SOL     OW  442   1.608   1.411   3.095 -0.1939 -0.7655  0.0079
  148SOL    HW1  443   1.612   1.316   3.048 -1.6834  0.7224 -0.6081
  148SOL    HW2  444   1.593   1.406   3.199 -2.1256  1.4479  0.5660
  149SOL     OW  445   0.678   1.500   1.983  0.5073 -0.1230 -0.5398
  149SOL    HW1  446   0.613   1.459   2.051  0.5987  0.0249 -1.2902
  149SOL    HW2  447   0.655   1.480   1.882  1.3127  1.5052  1.3015
  150SOL     OW  448   2.976   1.211   0.996 -0.5358 -0.3744  0.7626
  150SOL    HW1  449   3.078   1.212   1.021  1.8043  0.1877  0.7136
  150SOL    HW2  450   2.928   1.127   1.012 -0.0322  0.7737  0.8678
  151SOL     OW  451   0.146   0.865   2.100  0.0660 -0.4893 -0.0092
  151SOL    HW1  452   0.175   0.958   2.063 -0.3850  0.2916  1.8904
  151SOL    HW2  453   0.196   0.783   2.060 -0.6202 -2.5904  0.7518
  152SOL     OW  454   1.448   1.870   1.106 -0.4524  0.0285 -0.2531
  152SOL    HW1  455   1.480   1.967   1.095 -2.4985 -0.6692  0.7958
  152SOL    HW2  456   1.344   1.861   1.088  1.1332  1.9020 -1.7206
  153SOL     OW  457   0.068   1.486   0.255 -0.5249  0.1567  0.1431
  153SOL    HW1  458  -0.016   1.430   0.289 -0.5382  0.3818 -1.4500
  153SOL    HW2  459   0.105   1.543   0.332 -2.4233  1.5978 -0.6780
  154SOL     OW  460   2.278   1.856   2.772 -0.3035  0.0734  0.1058
  154SOL    HW1  461   2.300   1.756   2.798  0.1851  0.0931 -0.2990
  154SOL    HW2  462   2.352   1.908   2.725 -2.0984  1.2707  0.8233
  155SOL     OW  463   2.592   1.298   0.417  0.8814  0.0856 -1.0631
  155SOL    HW1  464   2.664   1.264   0.488 -0.0582  0.2481 -0.3222
  155SOL    HW2  465   2.589   1.237   0.333 -0.4873 -0.6895 -1.6832
  156SOL     OW  466   2.469   0.803   0.769  0.1371  0.2411 -0.4159
  156SOL    HW1  467   2.370   0.781   0.783  0.9546 -0.3579  2.3014
  156SOL    HW2  468   2.505   0.802   0.670  0.1678  1.1519  2.3716
  157SOL     OW  469   1.242   3.086   3.033 -0.6647 -0.2006 -0.2203
  157SOL    HW1  470   1.288   3.048   2.945  0.2250  1.2799 -0.8670
  157SOL    HW2  471   1.271   3.185   3.040  1.3736  0.5453 -1.0615
  158SOL     OW  472   1.095   1.880   1.863  0.1725 -0.0401  0.4304
  158SOL    HW1  473   1.126   1.984   1.863  0.2355  2.8584  0.6423
  158SOL    HW2  474   1.030   1.855   1.939  1.6358  1.1051  1.5186
  159SOL     OW  475   0.799   0.378   1.237  0.2967 -0.3129  0.1826
  159SOL    HW1  476   0.736   0.452   1.274  0.2465 -1.5967 -0.0709
  159SOL    HW2  477   0.758   0.329   1.161  0.3241  3.4642 -0.5484
  160SOL     OW  478   1.384   2.460   1.408 -0.1456 -0.1080  0.3285
  160SOL    HW1  479   1.349   2.387   1.474 -0.6181 -1.4699 -2.6136
  160SOL    HW2  480   1.489   2.465   1.407  0.2800  0.6481 -0.3091
  161SOL     OW  481   0.059   2.638   0.429 -0.0176 -0.2693 -0.2221
  161SOL    HW1  482   0.007   2.555   0.433  1.1791  2.7347  0.3484
  161SOL    HW2  483   0.009   2.718   0.387  1.9234 -0.4746  1.6195
  162SOL     OW  484   2.522   1.930   0.432 -0.0903  0.5554 -0.1150
  162SOL    HW1  485   2.586   1.917   0.353  0.8303 -1.9170 -0.9592
  162SOL    HW2  486   2.472   1.845   0.453  2.1139 -2.8138 -1.0305
  163SOL     OW  487   1.959   2.744   0.781 -0.5121 -0.1581  0.2821
  163SOL    HW1  488   1.937   2.755   0.678  1.3545 -1.7852  1.6615
  163SOL    HW2  489   2.045   2.683   0.798 -1.1821 -0.8344 -0.1463
  164SOL     OW  490   3.060   0.137   1.237 -0.6638 -0.1044 -0.1770
  164SOL    HW1  491   3.069   0.237   1.208  0.3164  0.7166  3.9487
  164SOL    HW2  492   3.128   0.116   1.314 -0.7151  2.5677 -0.7845
  165SOL     OW  493   1.100   1.407   0.651  0.0510 -0.0437  0.1187
  165SOL    HW1  494   1.111   1.482   0.726  1.4153 -0.6612 -0.2208
  165SOL    HW2  495   1.043   1.432   0.566 -1.5777  2.0759  2.2691
  166SOL     OW  496   1.551   0.992   1.822  0.2934  0.3299 -0.3971
  166SOL    HW1  497   1.474   1.047   1.865  3.4680  0.1253  0.3261
  166SOL    HW2  498   1.616   1.057   1.770  0.6637  0.4579  0.1542
  167SOL     OW  499   0.675   2.023   1.515 -0.0311  0.2377 -0.1356
  167SOL    HW1  500   0.628   2.103   1.558  0.6695  0.9323  1.6142
  167SOL    HW2  501   0.631   1.931   1.534  0.8458 -0.5039  0.3332
  168SOL     OW  502   1.638   2.293   0.137  0.4103  0.0342 -0.3131
  168SOL    HW1  503   1.714   2.303   0.069 -0.2451 -0.4021  0.9083
  168SOL    HW2  504   1.669   2.277   0.239 -1.9522 -0.2427 -0.8151
  169SOL     OW  505   3.060   2.619   2.185 -0.1191  0.2752 -0.0835
  169SOL    HW1  506   3.071   2.533   2.124  1.0143 -1.3906 -0.4463
  169SOL    HW2  507   3.092   2.597   2.282 -0.9840 -1.5191 -0.5755
  170SOL     OW  508   1.185   0.136   2.105  0.0300  0.0102 -0.3485
  170SOL    HW1  509   1.277   0.162   2.144  1.5959 -1.1828  0.4191
  170SOL    HW2  510   1.178   0.136   1.999  0.8656 -0.5932 -0.1191
  171SOL     OW  511   0.188   0.853   2.442 -0.3755  0.0346  0.4146
  171SOL    HW1  512   0.088   0.852   2.480  0.2177 -0.0585  2.2984
  171SOL    HW2  513   0.216   0.934   2.385  0.9824  1.5402 -1.3901
  172SOL     OW  514   0.950   0.951   2.775  0.0815 -0.2074 -0.4262
  172SOL    HW1  515   0.912   1.010   2.852 -2.9041  0.3187 -0.8124
  172SOL    HW2  516   0.905   0.968   2.686 -0.6646  1.6614  0.0382
  173SOL     OW  517   0.353   2.574   3.073  0.1968 -0.0589 -0.8502
  173SOL    HW1  518   0.405   2.528   2.998  0.4668 -1.4701 -1.7567
  173SOL    HW2  519   0.338   2.521   3.157 -1.2346  0.7282 -0.8229
  174SOL     OW  520   1.475   2.865   1.023 -0.2633 -0.3327  0.0268
  174SOL    HW1  521   1.546   2.929   0.979  0.6029 -0.2224  0.1821
  174SOL    HW2  522   1.435   2.797   0.958 -0.2157  0.6950  0.9370
  175SOL     OW  523   0.497   3.030   1.717 -0.3749  0.2674  0.1420
  175SOL    HW1  524   0.550   3.029   1.809  0.5988  0.8927  1.9055
  175SOL    HW2  525   0.470   3.129   1.693 -0.1041  1.8659 -0.8755
  176SOL     OW  526   2.569   0.472   3.083 -0.9636  0.3215  0.4607
  176SOL    HW1  527   2.580   0.552   3.151 -1.2730 -0.4035  0.1436
  176SOL    HW2  528   2.491   0.413   3.117 -0.0844 -0.0285  1.4796
  177SOL     OW  529   0.375   0.176   0.816  0.1131 -0.4179 -0.4778
  177SOL    HW1  530   0.346   0.082   0.845  0.7984  0.9274 -0.3876
  177SOL    HW2  531   0.475   0.181   0.814  0.7693  2.9990 -3.2728
  178SOL     OW  532   0.020   2.729   2.653  0.3989 -0.3123 -0.3233
  178SOL    HW1  533  -0.037   2.646   2.667 -1.0359  0.8701 -0.5905
  178SOL    HW2  534   0.113   2.727   2.702  0.3459  0.2135 -1.7528
  179SOL     OW  535   2.963   1.588   1.249  0.2021  0.6226 -0.2694
  179SOL    HW1  536   3.035   1.579   1.176 -0.9819  0.2666  1.9981
  179SOL    HW2  537   2.966   1.507   1.314 -0.2818  2.3831  1.4525
  180SOL     OW  538   0.293   1.411   1.739 -0.6975  0.4417  0.1366
  180SOL    HW1  539   0.357   1.355   1.799 -1.3986 -2.5013  0.3975
  180SOL    HW2  540   0.196   1.414   1.772  1.8715 -1.0121 -1.0299
  181SOL     OW  541   3.011   1.744   2.481  0.1336 -0.1901  0.1984
  181SOL    HW1  542   3.013   1.772   2.384 -2.0207 -0.4281  2.2532
  181SOL    HW2  543   2.923   1.778   2.524  0.1059 -0.0750  0.7954
  182SOL     OW  544   2.164   1.408   1.181  0.1483  0.8843 -0.0566
  182SOL    HW1  545   2.163   1.317   1.228  0.4927  1.4413 -1.5945
  182SOL    HW2  546   2.209   1.401   1.084 -1.6678 -0.5568 -1.7024
  183SOL     OW  547   1.443   2.243   2.440 -0.3678  0.2750  0.2556
  183SOL    HW1  548   1.370   2.169   2.451 -0.9974  0.0099 -0.1131
  183SOL    HW2  549   1.537   2.199   2.413  1.1150 -0.0082 -0.4738
  184SOL     OW  550   2.189   0.777   0.760  0.6010  0.0666  0.9653
  184SOL    HW1  551   2.101   0.800   0.715 -0.0285  0.3026 -1.1956
  184SOL    HW2  552   2.215   0.677   0.763  1.2865 -2.5699 -1.0394
  185SOL     OW  553   1.585   2.743   2.006 -0.1906 -0.3980 -0.2021
  185SOL    HW1  554   1.498   2.796   2.026 -2.4073 -2.6220  0.0168
  185SOL    HW2  555   1.625   2.712   2.097  0.3048 -2.0058 -1.0570
  186SOL     OW  556   0.019   2.180   1.773  0.2558 -0.3154  0.2472
  186SOL    HW1  557  -0.010   2.248   1.845 -1.2441  0.9918 -0.5428
  186SOL    HW2  558   0.114   2.139   1.780  2.2312 -3.6309  0.6706
  187SOL     OW  559   1.315   0.661   1.630  0.1676 -0.1134  0.4341
  187SOL    HW1  560   1.410   0.704   1.623  0.2452 -1.4042  2.4885
  187SOL    HW2  561   1.320   0.577   1.699 -0.7464 -3.0137 -2.2758
  188SOL     OW  562   2.704   2.672   1.585  0.0912 -0.3587 -0.2268
  188SOL    HW1  563   2.695   2.761   1.631  1.2603 -3.1997 -0.8092
  188SOL    HW2  564   2.678   2.677   1.482  1.0743  1.4412 -0.0244
  189SOL     OW  565   0.862   1.205   1.368 -0.9176  0.0577  0.5032
  189SOL    HW1  566   0.918   1.254   1.442  1.2804 -1.0698  0.8097
  189SOL    HW2  567   0.855   1.259   1.280 -1.9293 -1.1626 -0.9730
  190SOL     OW  568   1.443   1.876   1.528 -0.0980 -0.2846 -0.1491
  190SOL    HW1  569   1.393   1.789   1.492  0.0616  0.4739  1.1242
  190SOL    HW2  570   1.453   1.880   1.631  2.3088  0.1325 -2.4435
  191SOL     OW  571   0.862   0.791   1.505  0.4984 -0.1898 -0.0564
  191SOL    HW1  572   0.912   0.710   1.553  1.1285 -1.4543  0.6744
  191SOL    HW2  573   0.913   0.844   1.435 -1.8610  1.4065  2.2126
  192SOL     OW  574   1.831   2.450   1.132  0.3309 -0.4737 -0.5852
  192SOL    HW1  575   1.732   2.414   1.122 -0.2625  2.6793  0.3676
  192SOL    HW2  576   1.895   2.381   1.089 -3.2422  2.6754  2.6499
  193SOL     OW  577   0.507   0.502   0.391 -0.0738 -0.4342 -0.3671
  193SOL    HW1  578   0.429   0.434   0.373  1.4081  1.5147  1.2785
  193SOL    HW2  579   0.565   0.530   0.309 -1.5585 -0.5106 -0.3005
  194SOL     OW  580   0.398   0.821   1.272 -0.1087 -0.7334 -0.1269
  194SOL    HW1  581   0.300   0.792   1.268  1.1202  0.1498  1.2677
  194SOL    HW2  582   0.450   0.798   1.186  0.7568 -1.0315 -2.2083
  195SOL     OW  583   1.062   2.926   0.524  0.1651 -0.4806 -0.1092
  195SOL    HW1  584   1.060   2.836   0.472  0.5128  0.6845 -1.1929
  195SOL    HW2  585   1.156   2.971   0.515  0.1316 -0.9321 -1.4842
  196SOL     OW  586   0.228   1.387   1.301  0.0299 -0.5401  0.3820
  196SOL    HW1  587   0.216   1.476   1.352 -1.1571  0.6127  0.1440
  196SOL    HW2  588   0.238   1.307   1.365 -0.0134  0.2887  1.9518
  197SOL     OW  589   0.792   1.943   0.236 -0.0317  0.3619 -0.3678
  197SOL    HW1  590   0.819   1.918   0.333 -0.7388  0.2333  0.0631
  197SOL    HW2  591   0.865   1.920   0.164 -0.9596  0.6198  0.3862
  198SOL     OW  592   0.267   1.214   0.346  0.0697  0.0790 -0.1885
  198SOL    HW1  593   0.167   1.184   0.336  1.1208 -0.4418  0.9479
  198SOL    HW2  594   0.277   1.316   0.369 -0.7546 -1.1031  0.4487
  199SOL     OW  595   2.213   0.406   2.637  0.0876 -0.0646 -0.0546
  199SOL    HW1  596   2.126   0.380   2.693 -0.0190 -0.2639 -0.1679
  199SOL    HW2  597   2.302   0.366   2.681  1.3786 -0.4687  2.2052
  200SOL     OW  598   3.075   2.876   0.807  0.2321 -0.0118 -0.0695
  200SOL    HW1  599   3.081   2.959   0.868  1.6352  0.2237 -1.4204
  200SOL    HW2  600   3.026   2.898   0.717 -1.9003 -1.3097 -0.9286
  201SOL     OW  601   0.939   0.685   0.538 -0.0470 -0.2138 -0.3587
  201SOL    HW1  602   0.929   0.766   0.602  0.3589 -0.3470  0.2876
  201SOL    HW2  603   0.865   0.619   0.558  1.5369  3.5361 -0.0072
  202SOL     OW  604   0.443   1.245   1.897  0.3580 -0.3759  0.1893
  202SOL    HW1  605   0.533   1.221   1.846  2.6276  1.1885 -0.1708
  202SOL    HW2  606   0.458   1.298   1.986 -0.3439 -0.3547  0.1977
  203SOL     OW  607   0.667   0.167   1.548 -0.0978  0.0053 -0.1157
  203SOL    HW1  608   0.672   0.106   1.463 -0.1938 -0.0695  0.3216
  203SOL    HW2  609   0.712   0.120   1.631 -0.7006 -1.9507  0.2872
  204SOL     OW  610   2.080   1.841   2.962 -0.2313 -0.0837  0.4105
  204SOL    HW1  611   2.070   1.736   2.972  0.9730 -2.1637  1.3592
  204SOL    HW2  612   2.148   1.859   2.883  2.6937  3.4110  0.7772
  205SOL     OW  613   1.809   1.876   3.046 -0.4916 -0.1304 -0.2604
  205SOL    HW1  614   1.905   1.837   3.046 -0.8025  0.1037 -1.0668
  205SOL    HW2  615   1.795   1.948   2.975  0.9654 -0.4220  4.1745
  206SOL     OW  616   2.356   2.714   0.286  0.0164 -0.1961  0.7738
  206SOL    HW1  617   2.334   2.671   0.379 -2.0473  2.2505 -0.5461
  206SOL    HW2  618   2.431   2.665   0.232 -1.7896 -0.6273 -1.6559
  207SOL     OW  619   0.725   1.738   2.913 -0.0721 -0.3242 -0.3185
  207SOL    HW1  620   0.801   1.688   2.863  1.7653  2.6931  2.0293
  207SOL    HW2  621   0.655   1.677   2.963 -0.1161  0.3008  1.6387
  208SOL     OW  622   1.002   1.561   1.216  0.6267 -0.1913 -0.0586
  208SOL    HW1  623   0.929   1.608   1.154 -1.3597  0.0432 -0.7010
  208SOL    HW2  624   0.968   1.552   1.314  0.0090  1.3478 -1.0297
  209SOL     OW  625   0.227   0.989   3.059 -0.1528  0.5189 -0.1397
  209SOL    HW1  626   0.275   0.918   2.996  2.7288  0.3839  0.6051
  209SOL    HW2  627   0.204   0.937   3.145  3.2662 -2.7760  1.9302
  210SOL     OW  628   1.703   0.589   1.280  0.4474  0.1705 -0.2171
  210SOL    HW1  629   1.639   0.597   1.198  0.3746  1.4992  1.3110
  210SOL    HW2  630   1.757   0.677   1.296  1.7800  1.4881  0.6652
  211SOL     OW  631   2.152   1.074   1.575 -0.9941  0.7040 -0.6087
  211SOL    HW1  632   2.188   1.056   1.672  2.2396  1.5371  1.4032
  211SOL    HW2  633   2.208   1.142   1.523  0.2020  0.3779  2.6462
  212SOL     OW  634   0.063   0.995   1.477  0.5544 -0.3073 -0.6115
  212SOL    HW1  635   0.122   1.065   1.526  1.9667  0.5827 -0.3336
  212SOL    HW2  636   0.062   0.900   1.525  2.9828 -2.9419 -1.9033
  213SOL     OW  637   2.802   0.026   0.343 -0.0955 -0.0763 -0.7893
  213SOL    HW1  638   2.897   0.002   0.301 -1.1649 -0.3280  3.2564
  213SOL    HW2  639   2.727  -0.024   0.293  0.6598  1.2766  0.3955
  214SOL     OW  640   2.193   0.342   2.364  0.6374  0.2973  0.5351
  214SOL    HW1  641   2.205   0.357   2.467  3.2839  1.6669 -2.1696
  214SOL    HW2  642   2.133   0.257   2.344 -1.1011 -1.4398 -1.0927
  215SOL     OW  643   1.689   2.277   2.078  0.1827  0.4943 -0.0975
  215SOL    HW1  644   1.782   2.318   2.088 -0.9797  0.2643 -0.0640
  215SOL    HW2  645   1.620   2.352   2.082  1.5087 -0.7737 -0.1754
  216SOL     OW  646   2.299   0.515   0.760  0.2392  0.3770  0.0989
  216SOL    HW1  647   2.284   0.481   0.666 -1.4643 -2.7665  1.0936
  216SOL    HW2  648   2.381   0.470   0.811  3.0646 -0.9101  0.1491
  217SOL     OW  649   0.910   2.735   2.574  0.0193 -0.3444  0.0609
  217SOL    HW1  650   0.914   2.675   2.656  0.5231  1.7727 -0.0770
  217SOL    HW2  651   0.863   2.681   2.490  3.9340 -3.1321 -0.6455
  218SOL     OW  652   1.869   1.422   0.029  0.0359  0.5969  0.0763
  218SOL    HW1  653   1.765   1.416   0.010 -0.7830 -1.3161  0.4396
  218SOL    HW2  654   1.897   1.350   0.100 -2.2286 -0.2491 -0.0484
  219SOL     OW  655   2.423   1.262   2.520 -0.1882  0.2747 -0.0303
  219SOL    HW1  656   2.464   1.214   2.438 -1.7718  1.5321 -0.2641
  219SOL    HW2  657   2.434   1.199   2.605  0.8502 -2.8929 -0.5204
  220SOL     OW  658   1.451   1.025   1.349  0.4357  0.0905  0.6532
  220SOL    HW1  659   1.546   0.986   1.358  0.9402 -2.4794  0.7608
  220SOL    HW2  660   1.426   1.045   1.250 -0.2798  1.9659  0.1120
  221SOL     OW  661   1.315   0.958   2.167 -0.5776 -0.2259  0.0592
  221SOL    HW1  662   1.293   1.001   2.070 -0.5504  2.5225 -0.9560
  221SOL    HW2  663   1.400   1.003   2.206 -1.7451 -2.0553 -0.1015
  222SOL     OW  664   1.154   0.064   1.216  0.1091  0.0917  0.2008
  222SOL    HW1  665   1.171   0.109   1.309 -1.8551 -0.8875  2.0355
  222SOL    HW2  666   1.166   0.131   1.138  1.2664 -0.2797  0.4900
  223SOL     OW  667   2.714   0.981   2.112 -0.2666 -0.0806 -0.2612
  223SOL    HW1  668   2.648   1.004   2.191 -0.4915  1.2196  0.1295
  223SOL    HW2  669   2.811   0.960   2.141  0.7239 -1.5087  0.4618
  224SOL     OW  670   1.497   0.992   2.855  0.4746  0.5008  1.2003
  224SOL    HW1  671   1.536   0.938   2.772 -1.9184 -4.2158  0.2112
  224SOL    HW2  672   1.523   1.091   2.863 -0.8071 -1.7250 -2.8205
  225SOL     OW  673   2.943   2.681   2.890  0.1993  0.0906  0.0338
  225SOL    HW1  674   2.887   2.707   2.802 -1.0494  0.6633 -0.6094
  225SOL    HW2  675   3.031   2.729   2.889 -1.5015  1.3663 -0.1513
  226SOL     OW  676   2.423   1.608   2.805  0.1721  0.6297 -0.4909
  226SOL    HW1  677   2.458   1.596   2.707 -1.3179  1.0709 -0.9505
  226SOL    HW2  678   2.452   1.530   2.872  0.8260  2.3104  1.5316
  227SOL     OW  679   0.919   0.237   3.021  0.4101  0.6941 -0.5095
  227SOL    HW1  680   0.952   0.337   3.001  1.8004  1.2570  2.5956
  227SOL    HW2  681   0.847   0.205   2.949  0.0851  0.5202 -0.3984
  228SOL     OW  682   2.443   0.652   2.887  0.1699  0.0285  0.4245
  228SOL    HW1  683   2.474   0.712   2.813  1.3326 -3.5657 -0.2158
  228SOL    HW2  684   2.498   0.567   2.896 -1.8132  0.7076  0.5234
  229SOL     OW  685   0.637   0.627   1.827  1.3179  0.2839 -0.3317
  229SOL    HW1  686   0.711   0.692   1.817 -0.2983  0.0026  0.7696
  229SOL    HW2  687   0.642   0.547   1.757 -1.5439 -0.0042 -0.7765
  230SOL     OW  688   1.865   1.221   1.908  0.2302  0.6528  0.0979
  230SOL    HW1  689   1.948   1.270   1.867 -2.2471 -1.4117 -1.0788
  230SOL    HW2  690   1.839   1.250   2.007  0.3628  1.1329  1.1278
  231SOL     OW  691   0.656   1.057   3.093 -0.0637 -0.7417  0.2988
  231SOL    HW1  692   0.750   1.087   3.119  2.9354  0.5482  1.3018
  231SOL    HW2  693   0.577   1.117   3.126  1.4440 -1.1680  1.4502
  232SOL     OW  694   2.412   2.965   2.797  0.0949 -0.4129 -0.0248
  232SOL    HW1  695   2.478   2.885   2.797 -0.3382 -0.0545  0.7593
  232SOL    HW2  696   2.460   3.052   2.766 -0.8958 -2.0744  1.1458
  233SOL     OW  697   1.810   1.130   1.131  0.1827 -0.7899  0.7481
  233SOL    HW1  698   1.876   1.196   1.086 -0.1322 -1.8649 -1.2090
  233SOL    HW2  699   1.854   1.048   1.176 -1.4861 -1.7018  2.3944
  234SOL     OW  700   1.670   2.528   1.833 -0.2831  0.4309  0.1949
  234SOL    HW1  701   1.630   2.604   1.896  1.2687  2.1158  2.6421
  234SOL    HW2  702   1.603   2.461   1.796  1.1448 -1.7494 -2.7086
  235SOL     OW  703   0.074   3.002   2.848  0.1122 -0.5969  0.3072
  235SOL    HW1  704   0.020   3.004   2.759 -2.6451 -1.1564  1.5935
  235SOL    HW2  705   0.030   3.050   2.929  2.0805  0.7485 -0.4120
  236SOL     OW  706   2.909   0.717   0.060  0.5670  0.2319 -0.1665
  236SOL    HW1  707   2.969   0.745   0.137 -1.2093 -2.4462  0.7051
  236SOL    HW2  708   2.947   0.631   0.018 -1.3976 -0.2386 -0.2763
  237SOL     OW  709   1.534   1.700   0.909  0.1795 -0.0851  0.3849
  237SOL    HW1  710   1.632   1.666   0.917 -2.4920  0.4441 -0.4192
  237SOL    HW2  711   1.510   1.772   0.981 -2.0982  0.3739  2.2338
  238SOL     OW  712   1.913   1.204   0.751  0.1081  0.1455 -0.6156
  238SOL    HW1  713   1.945   1.247   0.840  1.8286  0.8179  1.3269
  238SOL    HW2  714   1.817   1.229   0.729  1.2571 -1.3252  2.4843
  239SOL     OW  715   2.028   0.300   2.811  0.4272  0.7539  0.4254
  239SOL    HW1  716   2.061   0.232   2.885  1.0537 -0.9757  2.4644
  239SOL    HW2  717   1.933   0.340   2.825  3.4384  2.5751 -0.8980
  240SOL     OW  718   0.947   0.696   0.257  0.2615 -0.0213  0.3578
  240SOL    HW1  719   1.018   0.633   0.214 -0.1984 -1.0816  0.6605
  240SOL    HW2  720   0.962   0.690   0.359 -1.3941 -1.0949 -0.8639
  241SOL     OW  721   0.578   0.118   0.315 -0.7407  0.4170 -0.2864
  241SOL    HW1  722   0.605   0.203   0.260  1.1924  1.2865  0.9720
  241SOL    HW2  723   0.585   0.036   0.256  2.0304  1.9561  0.3002
  242SOL     OW  724   0.597   2.612   1.207  0.2744 -0.4632  0.6706
  242SOL    HW1  725   0.581   2.589   1.307  0.2257 -0.9174  1.5357
  242SOL    HW2  726   0.623   2.715   1.197  1.5257  4.7053  0.8838
  243SOL     OW  727   1.071   0.622   2.404 -0.4070 -0.2635 -0.3486
  243SOL    HW1  728   0.974   0.616   2.357  0.9453 -1.6898  1.5805
  243SOL    HW2  729   1.076   0.567   2.493  0.8536 -1.7055 -0.1203
  244SOL     OW  730   2.736   1.945   2.375  0.9090 -0.2162 -0.2456
  244SOL    HW1  731   2.758   1.925   2.277 -1.7590 -0.2713  1.8621
  244SOL    HW2  732   2.680   1.866   2.416  0.6423  2.1217  0.8290
  245SOL     OW  733   2.093   1.014   2.198  0.3384  0.4409  0.3153
  245SOL    HW1  734   2.195   1.012   2.197  0.7759  0.9166  0.8648
  245SOL    HW2  735   2.053   1.087   2.259 -0.0903 -1.0121  0.0505
  246SOL     OW  736   0.274   2.877   1.819 -0.0119  0.4508 -0.0129
  246SOL    HW1  737   0.192   2.868   1.758  0.7423  2.7376 -1.6308
  246SOL    HW2  738   0.354   2.908   1.759 -0.1680 -0.7991  3.3603
  247SOL     OW  739   2.246   0.593   3.066  0.0043  0.2830  0.4361
  247SOL    HW1  740   2.320   0.622   2.996  2.1476 -1.0272 -2.2281
  247SOL    HW2  741   2.155   0.634   3.045 -0.6921  0.9419  1.5544
  248SOL     OW  742   2.147   1.854   1.634 -0.8787  0.5530  0.0289
  248SOL    HW1  743   2.194   1.779   1.695 -0.8888  0.0046  0.0024
  248SOL    HW2  744   2.048   1.840   1.630 -0.5946  0.2771 -0.2254
  249SOL     OW  745   1.900   1.901   1.841  0.4730  0.0566  0.4662
  249SOL    HW1  746   1.890   1.848   1.750 -2.0769  2.6540 -1.0654
  249SOL    HW2  747   1.996   1.919   1.868  0.3905 -2.0168 -0.7505
  250SOL     OW  748   0.996   0.671   1.855  0.7212 -0.1018 -0.2641
  250SOL    HW1  749   1.058   0.664   1.935  0.8563  0.4652 -0.2021
  250SOL    HW2  750   1.031   0.624   1.770  0.4907 -0.3364 -4.4114
  251SOL     OW  751   3.030   1.501   2.613 -0.0005  0.0376 -0.1158
  251SOL    HW1  752   3.022   1.604   2.589  0.4163  1.3605  0.7366
  251SOL    HW2  753   2.964   1.436   2.561 -0.2803 -0.4640  1.0263
  252SOL     OW  754   1.544   0.834   1.609 -0.0340 -0.3061 -0.3145
  252SOL    HW1  755   1.607   0.862   1.530 -0.3335  0.4494 -0.4851
  252SOL    HW2  756   1.565   0.893   1.692  0.1161  0.8829 -0.4628
  253SOL     OW  757   0.937   1.485   0.454  0.1818 -0.5904  0.1236
  253SOL    HW1  758   0.927   1.479   0.348 -0.7276  1.8034 -2.7708
  253SOL    HW2  759   0.874   1.557   0.494 -0.5278  2.7824  2.3638
  254SOL     OW  760   2.025   2.172   1.667  0.0436 -0.4674 -0.3848
  254SOL    HW1  761   1.968   2.148   1.584 -0.3131  0.4021 -0.9551
  254SOL    HW2  762   1.981   2.245   1.732  0.7176  0.6003  1.7652
  255SOL     OW  763   0.082   1.194   2.931 -0.0923  0.0771  0.5217
  255SOL    HW1  764   0.148   1.269   2.899 -3.5007 -1.6892  2.9633
  255SOL    HW2  765   0.138   1.116   2.973  2.3948 -0.2003  0.5704
  256SOL     OW  766   2.752   1.415   1.746 -0.1367 -0.0464  0.1635
  256SOL    HW1  767   2.659   1.455   1.777 -2.2209  2.0612 -1.1751
  256SOL    HW2  768   2.750   1.316   1.738  0.3543  1.8874  1.0656
  257SOL     OW  769   0.807   0.241   1.870 -0.2233 -0.3830 -0.3050
  257SOL    HW1  770   0.859   0.285   1.785 -0.7612  1.2100  2.4485
  257SOL    HW2  771   0.822   0.141   1.878  0.2040 -0.9251  1.2827
  258SOL     OW  772   2.968   1.175   0.506 -0.0082  0.2178  0.4848
  258SOL    HW1  773   2.877   1.203   0.560 -1.2053  2.2510  0.1940
  258SOL    HW2  774   3.058   1.201   0.558  1.1235  1.4534  2.1286
  259SOL     OW  775   0.482   2.936   3.004 -0.1829 -0.0660  0.4570
  259SOL    HW1  776   0.402   2.883   3.044 -3.1793 -1.5575  0.2777
  259SOL    HW2  777   0.498   2.907   2.908 -0.6948 -0.6622  2.5460
  260SOL     OW  778   2.727   0.757   2.782 -0.3590 -0.2490 -0.0882
  260SOL    HW1  779   2.638   0.777   2.730 -0.3052 -3.0323  0.0998
  260SOL    HW2  780   2.728   0.658   2.813  0.1795  1.2612  1.5692
  261SOL     OW  781   2.667   1.250   1.300  0.1927  0.1617 -0.3897
  261SOL    HW1  782   2.591   1.229   1.232  0.8845  0.7888  0.6457
  261SOL    HW2  783   2.749   1.184   1.303  1.0122  0.3820  1.0446
  262SOL     OW  784   1.394   2.968   2.060 -0.0953 -0.7214 -0.8067
  262SOL    HW1  785   1.415   3.055   2.007  1.0382  2.9313  0.5586
  262SOL    HW2  786   1.303   2.925   2.038 -0.0017  0.2086  0.4100
  263SOL     OW  787   0.806   0.628   2.321 -0.0844  0.3044  0.1887
  263SOL    HW1  788   0.723   0.560   2.305 -1.2512 -0.0529 -0.9593
  263SOL    HW2  789   0.804   0.707   2.255 -0.3803  2.8586 -0.3273
  264SOL     OW  790   2.286   0.796   0.417 -0.0772 -0.0807  0.3323
  264SOL    HW1  791   2.300   0.743   0.329  0.8601  2.8021 -1.0076
  264SOL    HW2  792   2.371   0.853   0.437  0.1027  0.5776 -1.2083
  265SOL     OW  793   0.875   2.348   2.620 -0.1547  0.2464  0.6424
  265SOL    HW1  794   0.901   2.380   2.712 -1.8025 -1.1375 -1.7260
  265SOL    HW2  795   0.817   2.259   2.615 -3.2823  0.6259 -2.1863
  266SOL     OW  796   1.288   1.804   3.047  0.1507 -0.2826 -0.4727
  266SOL    HW1  797   1.282   1.861   3.138  0.5461  1.9308  1.9262
  266SOL    HW2  798   1.387   1.783   3.020  1.0770 -0.4533 -0.3210
  267SOL     OW  799   1.060   3.073   2.329 -0.4796 -0.2004  0.2466
  267SOL    HW1  800   0.958   3.043   2.327 -4.0680 -2.8219 -1.7384
  267SOL    HW2  801   1.097   3.110   2.241 -1.9116  2.7176 -3.0389
  268SOL     OW  802   0.854   1.321   1.104 -0.1083  0.2790  0.7603
  268SOL    HW1  803   0.783   1.358   1.174 -1.5756  1.1677  2.1321
  268SOL    HW2  804   0.878   1.390   1.034 -1.6322  0.1086  1.1498
  269SOL     OW  805   2.335   2.540   1.598 -0.2513 -0.3546 -0.5860
  269SOL    HW1  806   2.439   2.520   1.605  1.0697  1.8898 -0.7902
  269SOL    HW2  807   2.287   2.552   1.693 -3.2900  0.0968 -0.6888
  270SOL     OW  808   0.134   3.022   2.000  0.1188  0.7506  0.8144
  270SOL    HW1  809   0.192   2.972   1.932 -2.8352 -2.1956 -0.3091
  270SOL    HW2  810   0.104   2.954   2.075 -0.1488 -0.0332 -0.8070
  271SOL     OW  811   0.431   1.425   1.094 -0.5199  0.9122  0.1758
  271SOL    HW1  812   0.408   1.387   1.001 -1.8954  2.2686 -0.6544
  271SOL    HW2  813   0.364   1.395   1.165  0.0332  2.4809 -1.1728
  272SOL     OW  814   1.873  -0.000   1.934  0.0889  0.7536 -0.4396
  272SOL    HW1  815   1.849  -0.082   1.874  0.5993  0.6336 -0.1055
  272SOL    HW2  816   1.879   0.084   1.873 -0.4511  1.2348  1.2270
  273SOL     OW  817   1.441   1.464   2.871 -0.2298 -0.3399  0.4629
  273SOL    HW1  818   1.342   1.492   2.874 -0.5272  0.3478  1.0915
  273SOL    HW2  819   1.487   1.465   2.963 -2.3342 -0.9111  0.7522
  274SOL     OW  820   1.179   0.608   2.057  0.7311  0.0202  0.0054
  274SOL    HW1  821   1.118   0.541   2.113 -0.9239 -0.2649  1.3621
  274SOL    HW2  822   1.261   0.639   2.116 -0.2246 -0.1949  0.0464
  275SOL     OW  823   0.655   2.098   1.954 -0.3484  0.0621  0.6014
  275SOL    HW1  824   0.592   2.101   1.869 -1.5795 -2.0520 -0.5284
  275SOL    HW2  825   0.620   2.153   2.034  0.2580  2.2129 -2.2850
  276SOL     OW  826   2.238   0.957   2.850 -0.5681  0.1148 -0.4723
  276SOL    HW1  827   2.144   0.997   2.822  0.1421  0.1654  0.3317
  276SOL    HW2  828   2.254   0.861   2.813 -0.4781 -0.9310  0.0964
  277SOL     OW  829   0.003   0.777   0.247  0.3581  0.0302  0.0355
  277SOL    HW1  830   0.093   0.806   0.206 -0.8804  2.5550  1.1442
  277SOL    HW2  831   0.014   0.715   0.330 -0.1867  0.9197  0.6178
  278SOL     OW  832   0.290   0.247   3.071 -0.1186  0.2862  0.7629
  278SOL    HW1  833   0.354   0.204   3.004 -0.5226  3.3780  1.9027
  278SOL    HW2  834   0.304   0.351   3.080 -2.2805  1.0056  2.9012
  279SOL     OW  835   0.269   3.027   0.898 -0.0395 -1.0789  0.3862
  279SOL    HW1  836   0.268   2.996   0.997 -0.2335 -1.9640  1.8132
  279SOL    HW2  837   0.266   2.945   0.832  2.3155  1.0496 -0.5865
  280SOL     OW  838   1.574   2.898   2.444  0.0513  0.1692  0.3704
  280SOL    HW1  839   1.624   2.976   2.487  0.0442 -3.5198 -0.1673
  280SOL    HW2  840   1.490   2.928   2.388 -0.5515 -0.3179 -2.2722
  281SOL     OW  841   0.554   0.929   2.361 -0.2745  0.2555  0.3465
  281SOL    HW1  842   0.511   0.865   2.284 -3.0277 -1.2601 -1.5562
  281SOL    HW2  843   0.524   0.891   2.455  0.4484  0.5494  1.6856
  282SOL     OW  844   1.787   2.482   0.565  0.1075  0.0849 -0.1151
  282SOL    HW1  845   1.762   2.406   0.498  0.1890  1.0817 -0.6490
  282SOL    HW2  846   1.727   2.570   0.547 -0.0646 -2.2547 -0.4968
  283SOL     OW  847   1.183   0.954   0.811 -0.1047  0.4320  0.1465
  283SOL    HW1  848   1.206   0.907   0.903 -0.9214  0.0560  1.3305
  283SOL    HW2  849   1.155   1.055   0.822 -1.4903  0.5426  0.2554
  284SOL     OW  850   2.250   2.812   2.446  0.4370  0.0242  0.1388
  284SOL    HW1  851   2.352   2.840   2.445  1.1685  0.9766  1.3129
  284SOL    HW2  852   2.211   2.825   2.543  0.4655  0.9208 -0.7175
  285SOL     OW  853   1.291   3.070   2.613 -0.2668  0.5764 -0.2119
  285SOL    HW1  854   1.334   3.025   2.528 -0.1442  1.1662  1.4693
  285SOL    HW2  855   1.193   3.096   2.595  0.7520 -0.3877 -2.1834
  286SOL     OW  856   0.263   0.363   0.648 -0.1687 -0.3595  0.1454
  286SOL    HW1  857   0.313   0.291   0.708  0.3889 -1.8649 -0.5613
  286SOL    HW2  858   0.302   0.355   0.556  1.1060 -2.7752 -0.0236
  287SOL     OW  859   0.079   1.282   2.543  0.2275  0.0404 -0.0212
  287SOL    HW1  860   0.050   1.202   2.606  0.4160 -0.8959 -1.5706
  287SOL    HW2  861   0.041   1.374   2.565  1.1007 -0.4987 -1.7199
  288SOL     OW  862   1.512   2.698   1.657 -0.1633  0.0024 -0.0019
  288SOL    HW1  863   1.576   2.667   1.731 -0.1942  0.2167 -0.7614
  288SOL    HW2  864   1.558   2.700   1.560  0.5587 -1.3224 -1.4765
  289SOL     OW  865   0.645   2.793   0.813 -0.3056 -0.0231  0.6348
  289SOL    HW1  866   0.660   2.877   0.751 -0.2561 -0.0117 -0.4454
  289SOL    HW2  867   0.604   2.808   0.909  0.4996  0.3248 -1.6991
  290SOL     OW  868   2.845   1.122   1.693 -0.3008 -0.7418  0.0832
  290SOL    HW1  869   2.780   1.050   1.738 -1.6571  0.9965  1.5300
  290SOL    HW2  870   2.940   1.116   1.731  1.8133  0.8574 -0.2723
  291SOL     OW  871   1.929   0.006   0.089 -0.3437 -0.1943 -0.6355
  291SOL    HW1  872   1.956   0.031   0.184  2.2266 -0.5032 -0.1544
  291SOL    HW2  873   2.004   0.027   0.023  1.6904  1.0176  0.9387
  292SOL     OW  874   2.974   1.266   0.008  0.1671  0.6361  0.3334
  292SOL    HW1  875   2.924   1.346  -0.023 -0.8005  0.9389  0.3639
  292SOL    HW2  876   3.046   1.242  -0.063  0.9723  3.4990 -0.9010
  293SOL     OW  877   0.544   2.079   0.293 -0.6896 -0.2100 -0.2597
  293SOL    HW1  878   0.531   2.149   0.374 -0.2826 -0.0876  3.9551
  293SOL    HW2  879   0.644   2.049   0.285  0.9845 -1.5842 -0.1924
  294SOL     OW  880   1.879   2.336   1.813 -0.5639  0.2163  0.3174
  294SOL    HW1  881   1.912   2.340   1.911 -1.4612 -0.4954 -1.7553
  294SOL    HW2  882   1.807   2.409   1.791  0.4534  0.5989 -1.1991
  295SOL     OW  883   0.951   1.039   0.436  0.0849 -0.4729 -0.5519
  295SOL    HW1  884   1.048   1.076   0.446  2.7805  1.3500  1.6597
  295SOL    HW2  885   0.928   0.975   0.514  0.8347 -2.4651 -0.6832
  296SOL     OW  886   1.142   2.141   2.761  0.4964 -0.3791  0.1815
  296SOL    HW1  887   1.069   2.219   2.751  0.0832  0.4222 -0.3127
  296SOL    HW2  888   1.165   2.105   2.667  0.7494 -1.8306  1.0925
  297SOL     OW  889   1.274   0.583   1.201  0.2098 -0.0828  1.3104
  297SOL    HW1  890   1.294   0.524   1.290 -1.2699  1.7467  2.8127
  297SOL    HW2  891   1.360   0.607   1.146  0.2811 -3.7275  0.4159
  298SOL     OW  892   0.469   1.290   2.928 -0.1310  0.0359  0.7157
  298SOL    HW1  893   0.449   1.253   3.021  0.8063 -1.1480 -0.7705
  298SOL    HW2  894   0.531   1.229   2.863  1.1421 -0.2100 -0.7500
  299SOL     OW  895   0.395   0.198   1.263 -0.3696 -0.4404 -0.7777
  299SOL    HW1  896   0.337   0.284   1.227 -0.9499  1.0058  0.4577
  299SOL    HW2  897   0.402   0.200   1.367 -0.1867 -0.8439  0.8438
  300SOL     OW  898   1.355   1.824   2.572 -0.3266  0.0492 -0.1851
  300SOL    HW1  899   1.335   1.765   2.487  0.0967  0.6488  0.7075
  300SOL    HW2  900   1.421   1.783   2.645  1.5053 -1.3919  1.8619
  301SOL     OW  901   0.321   0.285   0.384 -0.6035 -0.4535  0.1610
  301SOL    HW1  902   0.229   0.252   0.351  1.1705  0.0063  1.2369
  301SOL    HW2  903   0.396   0.214   0.374 -0.8652  1.4911 -0.5719
  302SOL     OW  904   1.250   2.387   2.293  0.0443 -0.2234 -0.0290
  302SOL    HW1  905   1.161   2.346   2.321  0.8601  0.5197 -0.7434
  302SOL    HW2  906   1.331   2.349   2.348 -1.4515  1.5381  1.0687
  303SOL     OW  907   0.892   2.455   0.793 -0.3162  0.3515 -0.1933
  303SOL    HW1  908   0.961   2.433   0.720 -2.8676 -0.2346  0.3553
  303SOL    HW2  909   0.927   2.534   0.850 -1.5520  2.7281 -1.6962
  304SOL     OW  910   0.133   1.926   0.718 -0.2501  0.7350  0.2669
  304SOL    HW1  911   0.213   1.890   0.656  2.4159 -0.7963  1.6770
  304SOL    HW2  912   0.050   1.943   0.661  0.8105  0.0718  0.2596
  305SOL     OW  913   1.662   0.802   0.704  0.0821 -0.1828  0.3753
  305SOL    HW1  914   1.585   0.819   0.634 -0.7182  0.6546 -0.8246
  305SOL    HW2  915   1.697   0.704   0.707 -3.0071 -0.7026 -0.7343
  306SOL     OW  916   0.398   1.880   1.976  0.0509  0.7243 -0.2657
  306SOL    HW1  917   0.466   1.821   1.926 -0.1574  3.4063 -0.4184
  306SOL    HW2  918   0.429   1.910   2.072 -2.2110 -0.7315  1.0028
  307SOL     OW  919   3.055   0.891   2.561  0.7781  0.0728  0.0719
  307SOL    HW1  920   3.054   0.972   2.629 -0.8180 -1.7189 -0.4520
  307SOL    HW2  921   3.048   0.802   2.612  1.5983  0.1515 -0.4820
  308SOL     OW  922   1.462   2.701   2.809  0.2867 -0.1521  0.0615
  308SOL    HW1  923   1.454   2.672   2.710 -0.5657 -0.9425 -0.5613
  308SOL    HW2  924   1.433   2.627   2.873  2.9529  0.6440 -0.3881
  309SOL     OW  925   1.188   0.170   1.817 -0.5472  0.1177  0.3383
  309SOL    HW1  926   1.276   0.132   1.776 -1.2669 -1.7570 -0.1182
  309SOL    HW2  927   1.120   0.201   1.744 -0.2517  0.7311 -0.1361
  310SOL     OW  928   1.474   2.516   0.651 -0.9509  0.7469 -0.1805
  310SOL    HW1  929   1.461   2.532   0.752  1.0872 -0.5531 -1.9022
  310SOL    HW2  930   1.540   2.585   0.609  1.3777  2.1080 -0.1955
  311SOL     OW  931   1.113   0.952   1.778  0.1745 -0.5237 -0.4710
  311SOL    HW1  932   1.087   0.855   1.798  0.3863  0.4107  1.8900
  311SOL    HW2  933   1.166   0.960   1.687  1.1497 -0.3739  0.7502
  312SOL     OW  934   1.498   0.638   1.024 -0.3660 -0.1329  0.2368
  312SOL    HW1  935   1.528   0.741   1.019  3.6091  0.5034 -1.0861
  312SOL    HW2  936   1.456   0.612   0.932 -1.2875 -0.5620 -0.8267
  313SOL     OW  937   1.657   1.275   0.730 -0.1457  0.2374 -0.5171
  313SOL    HW1  938   1.580   1.284   0.797  1.9255 -0.5678  1.6200
  313SOL    HW2  939   1.630   1.211   0.653 -0.2370  2.7478 -0.2771
  314SOL     OW  940   2.994   3.084   3.072  0.1015  0.3631  0.5430
  314SOL    HW1  941   3.021   3.049   3.166 -0.8678  0.7173 -0.6193
  314SOL    HW2  942   2.920   3.031   3.027  1.9355  0.0858 -0.9396
  315SOL     OW  943   1.200   0.194   2.804  0.1662  0.0751  0.0691
  315SOL    HW1  944   1.178   0.139   2.719 -0.6924 -0.7055 -0.0521
  315SOL    HW2  945   1.158   0.147   2.889  0.0032  0.2212  0.9709
  316SOL     OW  946   1.774   2.065   0.867 -0.3358 -0.5029 -0.1976
  316SOL    HW1  947   1.712   2.082   0.947 -0.5431 -0.7073 -2.0655
  316SOL    HW2  948   1.804   2.155   0.819 -2.5558 -1.2313  2.3783
  317SOL     OW  949   1.168   0.714   2.717 -0.3143 -0.5320  0.2964
  317SOL    HW1  950   1.110   0.790   2.759  1.0862 -0.0363  2.0220
  317SOL    HW2  951   1.112   0.627   2.706 -0.1622  0.4639 -4.1407
  318SOL     OW  952   1.382   3.062   2.321  0.2492 -0.1188 -0.0101
  318SOL    HW1  953   1.380   3.165   2.320  2.9499  0.5910 -0.5668
  318SOL    HW2  954   1.384   3.015   2.229  0.7067  2.0025  0.2268
  319SOL     OW  955   0.620   2.385   3.026 -0.3090 -0.3586  0.1234
  319SOL    HW1  956   0.579   2.305   3.075 -0.8688  0.2632 -0.9431
  319SOL    HW2  957   0.689   2.352   2.955  0.3177  1.5187  2.4070
  320SOL     OW  958   1.689   2.261   0.394  0.1610 -0.3939 -0.2648
  320SOL    HW1  959   1.733   2.173   0.425 -0.4831  2.4703  1.7238
  320SOL    HW2  960   1.590   2.270   0.419  2.8755 -0.3544  1.3912
  321SOL     OW  961   1.618   2.699   0.511 -0.5569  0.1307 -0.2603
  321SOL    HW1  962   1.569   2.714   0.419  0.7673  1.8829 -2.9360
  321SOL    HW2  963   1.673   2.784   0.537 -1.8243 -0.7024 -1.1386
  322SOL     OW  964   2.540   1.063   2.319 -0.3744 -0.5498  0.2253
  322SOL    HW1  965   2.610   1.047   2.395  2.2186 -2.8388  0.3430
  322SOL    HW2  966   2.476   0.978   2.315  3.1334 -0.7127  0.3372
  323SOL     OW  967   1.134   2.704   0.762 -0.0106  0.3610  0.3413
  323SOL    HW1  968   1.142   2.649   0.675  0.5396 -0.7715 -2.5949
  323SOL    HW2  969   1.107   2.802   0.753 -1.0835 -1.5160 -1.4941
  324SOL     OW  970   0.065   2.559   2.425  0.0489 -0.1501 -0.3793
  324SOL    HW1  971  -0.007   2.510   2.479  1.6575 -2.0352  0.7203
  324SOL    HW2  972   0.115   2.630   2.485  1.4545  0.4142 -1.9727
  325SOL     OW  973   1.306   3.033   0.452 -0.4132 -0.3139 -0.3611
  325SOL    HW1  974   1.278   3.059   0.356 -0.0638 -0.1857  1.3168
  325SOL    HW2  975   1.317   3.109   0.519  1.2993  0.9653 -2.0378
  326SOL     OW  976   2.434   0.907   0.037 -0.1330  0.1422 -0.1338
  326SOL    HW1  977   2.391   0.877  -0.050 -0.0534 -0.0321 -0.4937
  326SOL    HW2  978   2.498   0.830   0.069 -1.7437  1.0195  0.3120
  327SOL     OW  979   2.833   0.217   0.559 -0.1541 -1.0079  0.5842
  327SOL    HW1  980   2.814   0.156   0.477 -0.6208 -1.7659  1.2819
  327SOL    HW2  981   2.866   0.158   0.640  0.4640  0.7527  1.1921
  328SOL     OW  982   2.641   0.606   0.373  0.2244  0.3091  0.1471
  328SOL    HW1  983   2.697   0.672   0.429  0.9178 -2.4571  0.6939
  328SOL    HW2  984   2.648   0.511   0.413  0.4762 -0.7634 -2.2050
  329SOL     OW  985   2.946   3.028   2.244  0.0768 -0.0681  0.0524
  329SOL    HW1  986   3.030   2.966   2.233  0.1359 -1.3418  1.3763
  329SOL    HW2  987   2.954   3.120   2.196  1.0727 -1.5023  0.2756
  330SOL     OW  988   0.550   0.293   1.935  0.1080  0.0196  1.0295
  330SOL    HW1  989   0.646   0.286   1.893 -2.7175  1.2469 -0.7226
  330SOL    HW2  990   0.547   0.246   2.030  1.4860  2.1322  1.7892
  331SOL     OW  991   0.032   1.923   1.108 -0.1894  0.1656  0.0711
  331SOL    HW1  992   0.025   1.963   1.012 -0.1853 -1.8888  0.5802
  331SOL    HW2  993  -0.050   1.931   1.171 -0.0722  0.8588 -1.6453
  332SOL     OW  994   0.406   1.167   0.087  0.8423 -0.1453 -0.6180
  332SOL    HW1  995   0.341   1.094   0.044  0.3842 -1.6329  0.4505
  332SOL    HW2  996   0.370   1.193   0.179  0.9421 -0.9368 -0.1117
  333SOL     OW  997   2.919   0.930   0.381 -0.0525  0.0069  0.0103
  333SOL    HW1  998   2.933   1.019   0.435  0.5066  0.6392 -0.5878
  333SOL    HW2  999   3.013   0.898   0.332  4.6116  0.2445 -1.4230
  334SOL     OW 1000   1.724   1.151   1.697 -0.1559 -0.1380 -0.5471
  334SOL    HW1 1001   1.775   1.169   1.607 -0.1242  0.5593 -1.6703
  334SOL    HW2 1002   1.787   1.180   1.777  1.5524  1.3384  1.7583
  335SOL     OW 1003   1.933   2.765   2.575  0.4535 -0.5139  0.4866
  335SOL    HW1 1004   1.845   2.790   2.625 -2.5782 -1.4656  0.0038
  335SOL    HW2 1005   2.020   2.796   2.623 -0.5735 -0.1629  0.7267
  336SOL     OW 1006   0.268   0.092   2.742  1.1076  0.8204 -0.7348
  336SOL    HW1 1007   0.345   0.090   2.814  3.2320 -0.2854 -0.2623
  336SOL    HW2 1008   0.188   0.027   2.771 -1.5298  1.6533 -2.0810
  337SOL     OW 1009   0.810   2.854   3.038 -0.8169  0.4455 -0.0093
  337SOL    HW1 1010   0.861   2.777   3.086  0.4140  0.6531  3.4332
  337SOL    HW2 1011   0.752   2.903   3.108  1.4720 -5.8331  0.4136
  338SOL     OW 1012   0.019   0.970   0.706  0.4902 -0.4018 -0.0380
  338SOL    HW1 1013  -0.075   0.935   0.723  0.1631 -0.7545  0.1159
  338SOL    HW2 1014   0.032   1.073   0.714  0.7365 -0.0426 -2.2279
  339SOL     OW 1015   1.770   1.333   2.149  0.0073  0.2478 -0.4198
  339SOL    HW1 1016   1.670   1.364   2.152  1.1271  0.0165  0.0784
  339SOL    HW2 1017   1.832   1.416   2.165 -2.0080 -1.1148 -0.4919
  340SOL     OW 1018   2.261   0.782   1.104  0.0332 -0.7590 -0.1986
  340SOL    HW1 1019   2.158   0.808   1.115 -3.7552  1.3024  0.6564
  340SOL    HW2 1020   2.265   0.683   1.086 -1.4056  0.3876 -0.0562
  341SOL     OW 1021   1.885   2.048   0.349 -0.3060 -0.0280 -0.3453
  341SOL    HW1 1022   1.900   2.096   0.257 -0.4882 -0.9068 -0.1104
  341SOL    HW2 1023   1.974   2.039   0.404 -2.3991  0.9365 -0.6286
  342SOL     OW 1024   2.173   2.158   2.774  0.2304 -0.1374  0.1888
  342SOL    HW1 1025   2.209   2.092   2.839 -1.8383 -0.3850 -1.0978
  342SOL    HW2 1026   2.077   2.139   2.740  1.0257  0.8222 -0.3191
  343SOL     OW 1027   0.353   0.866   2.851 -0.3317  0.2960  0.1285
  343SOL    HW1 1028   0.325   0.919   2.767 -0.7776 -2.8227 -0.6114
  343SOL    HW2 1029   0.452   0.876   2.876  1.0715  0.5178  3.1431
  344SOL     OW 1030   1.954   1.429   0.349 -0.2926 -0.3603 -0.3611
  344SOL    HW1 1031   1.955   1.340   0.289 -1.4324 -1.0176  0.8134
  344SOL    HW2 1032   1.858   1.468   0.352 -0.4153  1.5611  0.0342
  345SOL     OW 1033   1.395   2.196   2.845  0.1135 -0.2263  0.2060
  345SOL    HW1 1034   1.289   2.183   2.826  1.0208 -1.3144  0.0657
  345SOL    HW2 1035   1.460   2.158   2.768  1.5006  2.0943 -3.1472
  346SOL     OW 1036   2.314   0.808   1.366 -0.2304  0.1777  0.3631
  346SOL    HW1 1037   2.218   0.797   1.403  2.1672 -2.7273  0.9829
  346SOL    HW2 1038   2.312   0.820   1.265 -0.6874 -0.5559  2.4357
  347SOL     OW 1039   0.704   2.801   1.706 -0.5106 -0.1302  0.0606
  347SOL    HW1 1040   0.774   2.869   1.664 -0.0935  0.8304 -0.3621
  347SOL    HW2 1041   0.622   2.795   1.643  3.0174 -1.0020 -0.1065
  348SOL     OW 1042   0.200   0.619   2.838 -0.3377 -0.5362 -0.0211
  348SOL    HW1 1043   0.101   0.652   2.840 -0.0482 -1.1833 -2.1390
  348SOL    HW2 1044   0.270   0.697   2.828 -1.5961  0.8232  0.6377
  349SOL     OW 1045   1.763   0.430   2.825 -0.1766 -0.1681 -0.0950
  349SOL    HW1 1046   1.756   0.527   2.786 -0.2346  0.2071  0.0572
  349SOL    HW2 1047   1.748   0.433   2.927 -1.4957 -0.1045  0.4728
  350SOL     OW 1048   1.718   0.386   0.388  0.1825  0.1437 -0.4759
  350SOL    HW1 1049   1.810   0.369   0.436  0.5082  4.8691  1.5468
  350SOL    HW2 1050   1.698   0.482   0.354  4.7043 -0.7894  0.5904
  351SOL     OW 1051   0.842   0.801   2.086 -0.1126 -0.4927 -0.3428
  351SOL    HW1 1052   0.882   0.897   2.102  0.0296  1.7416  1.4751
  351SOL    HW2 1053   0.863   0.758   1.993  1.2144  0.9661  1.1197
  352SOL     OW 1054   2.065   1.368   0.600  0.2304  0.3118 -0.0568
  352SOL    HW1 1055   2.024   1.386   0.505  0.1964  1.2572  0.9245
  352SOL    HW2 1056   2.020   1.293   0.661  0.4498  0.1544  1.0556
  353SOL     OW 1057   2.175   2.695   1.130 -0.2058 -0.2026 -0.3876
  353SOL    HW1 1058   2.252   2.647   1.182  0.5216 -2.9938  0.0517
  353SOL    HW2 1059   2.117   2.765   1.180 -0.3395  0.3074  2.4448
  354SOL     OW 1060   0.245   1.431   2.897 -0.1060 -0.2680 -0.3434
  354SOL    HW1 1061   0.252   1.518   2.840  3.1903  0.6669  0.2386
  354SOL    HW2 1062   0.331   1.374   2.902 -0.2029  0.0062  0.7571
  355SOL     OW 1063   0.719   1.614   0.589 -0.2393 -0.0427  0.5759
  355SOL    HW1 1064   0.718   1.565   0.683 -4.3999  0.1195  0.1620
  355SOL    HW2 1065   0.686   1.557   0.505  0.2673 -1.9968 -0.0307
  356SOL     OW 1066   0.990   0.339   2.095 -0.0098  0.1893 -0.1640
  356SOL    HW1 1067   1.059   0.260   2.102  1.6159  2.1734  2.4480
  356SOL    HW2 1068   0.925   0.329   2.011  1.1856  0.6539 -2.5389
  357SOL     OW 1069   1.006   1.440   0.145  0.3401  0.4580 -0.2187
  357SOL    HW1 1070   1.056   1.380   0.075  2.0694  2.3325  0.4386
  357SOL    HW2 1071   1.071   1.509   0.190  1.7081  0.3155 -1.0527
  358SOL     OW 1072   1.677   1.467   0.448  0.1506  0.3118 -0.3395
  358SOL    HW1 1073   1.652   1.415   0.535  3.0297  0.2398 -0.7575
  358SOL    HW2 1074   1.621   1.439   0.366 -1.0630  1.0822  1.9129
  359SOL     OW 1075   1.607   2.562   0.204  0.6586  0.0932 -0.0939
  359SOL    HW1 1076   1.611   2.466   0.167 -0.8181 -0.1339 -0.3618
  359SOL    HW2 1077   1.511   2.584   0.234  1.1212  1.1027 -0.0157
  360SOL     OW 1078   0.709   0.511   0.573  0.1895 -0.3926 -0.6067
  360SOL    HW1 1079   0.639   0.508   0.492 -2.3495  2.7500 -0.4005
  360SOL    HW2 1080   0.761   0.423   0.594  0.2405  2.2111  0.3345
  361SOL     OW 1081   1.374   1.309   0.621  0.0549 -0.1887  0.1765
  361SOL    HW1 1082   1.414   1.366   0.698 -0.8337  2.9191  1.3868
  361SOL    HW2 1083   1.293   1.356   0.581  2.0497 -0.1275  0.0382
  362SOL     OW 1084   1.385   1.816   0.712  0.2687  0.0541  0.4151
  362SOL    HW1 1085   1.438   1.770   0.791 -1.6249  0.5366  2.0698
  362SOL    HW2 1086   1.441   1.840   0.626  0.0042  0.3949 -0.1263
  363SOL     OW 1087   1.265   1.330   1.934 -0.1811  0.1934 -0.2695
  363SOL    HW1 1088   1.340   1.341   2.008 -0.7873  1.5843  1.9215
  363SOL    HW2 1089   1.211   1.418   1.917  0.9657 -0.4946 -5.3961
  364SOL     OW 1090   0.557   2.382   1.957  0.0017 -0.1651  0.0949
  364SOL    HW1 1091   0.454   2.385   1.973 -0.4749  0.1938  0.7292
  364SOL    HW2 1092   0.593   2.480   1.937 -1.6596  3.1032  2.4087
  365SOL     OW 1093   0.945   1.947   1.431 -0.0650 -0.0895 -0.8478
  365SOL    HW1 1094   0.855   1.979   1.473  1.9158  0.9598 -0.3691
  365SOL    HW2 1095   0.945   1.973   1.332  0.2912 -0.0578  0.8958
  366SOL     OW 1096   2.742   1.879   0.257  0.0125 -0.5858 -0.0175
  366SOL    HW1 1097   2.658   1.818   0.249  1.1554  0.8464  0.8662
  366SOL    HW2 1098   2.834   1.829   0.234 -1.2649 -1.4132  1.4693
  367SOL     OW 1099   0.960   1.093   3.030  0.0309 -0.4719 -0.0815
  367SOL    HW1 1100   0.950   1.057   3.127 -2.2410  2.7035  0.1690
  367SOL    HW2 1101   1.022   1.180   3.029 -0.2306  1.4826  0.2820
  368SOL     OW 1102   1.440   0.520   0.490 -0.0590 -0.2674 -0.2807
  368SOL    HW1 1103   1.340   0.562   0.484 -2.6442  0.5665 -1.7710
  368SOL    HW2 1104   1.490   0.552   0.404 -0.4220 -0.7939 -0.6822
  369SOL     OW 1105   0.360   1.659   0.147 -0.5492  0.1387  0.0999
  369SOL    HW1 1106   0.428   1.723   0.198 -0.2716 -1.7689 -2.1776
  369SOL    HW2 1107   0.333   1.575   0.202 -2.0951 -2.1352  0.5678
  370SOL     OW 1108   0.438   2.142   1.026  1.0042 -0.4054 -0.1368
  370SOL    HW1 1109   0.438   2.246   1.013  1.3258  2.0503 -1.0640
  370SOL    HW2 1110   0.344   2.102   1.000  0.9547 -0.4585 -0.6516
  371SOL     OW 1111   2.915   2.165   2.705  0.4016  0.0816  0.0738
  371SOL    HW1 1112   2.990   2.096   2.680 -1.0303  0.5159 -0.7700
  371SOL    HW2 1113   2.927   2.203   2.800  0.2922 -1.2186 -2.7484
  372SOL     OW 1114   0.966   2.050   1.176 -0.0441  0.0323  0.4095
  372SOL    HW1 1115   0.892   2.077   1.111 -2.1783  0.1585  2.8588
  372SOL    HW2 1116   1.027   2.133   1.202  0.1268 -0.7951  0.6525
  373SOL     OW 1117   1.926   1.905   1.038 -0.5705 -0.3202 -0.2870
  373SOL    HW1 1118   2.026   1.903   1.065  1.3544  0.3195 -0.4214
  373SOL    HW2 1119   1.891   1.980   0.972 -2.2434 -0.3481  1.1309
  374SOL     OW 1120   1.926   0.347   0.552  0.4441 -1.2312  0.2395
  374SOL    HW1 1121   1.915   0.303   0.649  0.9520 -2.6699  2.4594
  374SOL    HW2 1122   2.027   0.361   0.536 -1.2832 -1.7935  2.1238
  375SOL     OW 1123   2.443   2.183   1.131 -0.0080 -0.4516 -0.2961
  375SOL    HW1 1124   2.449   2.209   1.034 -1.0822  2.7782 -0.6182
  375SOL    HW2 1125   2.534   2.155   1.172  0.7338  1.4283 -0.4688
  376SOL     OW 1126   3.064   0.627   1.436 -0.3548 -0.2915  0.1198
  376SOL    HW1 1127   3.100   0.693   1.508 -0.4643  2.8564 -0.7369
  376SOL    HW2 1128   3.019   0.537   1.461  1.6584 -1.4951 -2.4839
  377SOL     OW 1129   2.255   2.936   0.163  0.0827  0.2776 -0.5978
  377SOL    HW1 1130   2.253   3.019   0.222  4.2495  0.8261 -0.6432
  377SOL    HW2 1131   2.275   2.850   0.221  0.1973  1.8930  1.9053
  378SOL     OW 1132   1.904   1.915   2.527  0.1662  0.2122 -0.1084
  378SOL    HW1 1133   1.996   1.906   2.478 -0.2816 -0.9072  0.4164
  378SOL    HW2 1134   1.836   1.836   2.507  0.3309 -0.0520  2.0026
  379SOL     OW 1135   0.768   0.152   2.813 -0.2699 -0.1650 -0.9774
  379SOL    HW1 1136   0.825   0.069   2.790  4.5938  1.6663  0.1747
  379SOL    HW2 1137   0.748   0.222   2.742  3.3633 -0.8482  0.7298
  380SOL     OW 1138   1.549   1.111   0.549  0.3011 -0.4232  0.0527
  380SOL    HW1 1139   1.471   1.168   0.582 -0.8267 -1.2909 -0.9701
  380SOL    HW2 1140   1.516   1.010   0.534  2.6898 -2.4063  2.0792
  381SOL     OW 1141   1.263   1.304   1.468  0.1566 -0.3924 -0.6381
  381SOL    HW1 1142   1.308   1.237   1.402 -0.7908  1.2400 -2.7120
  381SOL    HW2 1143   1.322   1.329   1.546 -1.5652 -0.2506  0.5689
  382SOL     OW 1144   1.808   0.846   0.273 -0.0340  0.2904  0.2187
  382SOL    HW1 1145   1.832   0.795   0.185  0.7606  0.1284 -0.0241
  382SOL    HW2 1146   1.888   0.848   0.338 -1.1567  1.4242  3.7875
  383SOL     OW 1147   2.515   1.009   1.483 -0.1045  0.2689  0.6016
  383SOL    HW1 1148   2.416   1.005   1.445 -1.9682  0.8018 -0.5431
  383SOL    HW2 1149   2.585   0.974   1.419 -0.5838 -0.2448 -0.2956
  384SOL     OW 1150   0.957   2.309   0.216  0.3558 -0.4406 -0.3877
  384SOL    HW1 1151   0.857   2.344   0.202  1.5634  0.7186  1.1491
  384SOL    HW2 1152   0.970   2.274   0.311  2.0261  0.6375 -1.7585
  385SOL     OW 1153   2.931   2.025   1.653 -0.4803 -0.2829 -0.5552
  385SOL    HW1 1154   3.004   2.081   1.698 -0.1695  1.5492 -1.5725
  385SOL    HW2 1155   2.958   1.923   1.648 -1.2622 -1.8685 -0.0853
  386SOL     OW 1156   0.476   1.069   0.473 -0.0431 -0.0762  0.4271
  386SOL    HW1 1157   0.459   0.973   0.523  0.6326 -2.6322  0.5064
  386SOL    HW2 1158   0.386   1.119   0.459  1.1650  1.2593 -1.4195
  387SOL     OW 1159   0.961   0.300   1.634 -0.3763 -0.7911 -0.2637
  387SOL    HW1 1160   0.985   0.404   1.628 -0.2363 -0.6919  0.7737
  387SOL    HW2 1161   0.926   0.256   1.547  0.6531 -0.5376 -0.7639
  388SOL     OW 1162   1.205   2.716   1.741  0.4226  0.2862 -0.1538
  388SOL    HW1 1163   1.260   2.734   1.654  3.5034 -1.6338  2.1892
  388SOL    HW2 1164   1.257   2.652   1.805 -1.8171 -0.0855  0.4195
  389SOL     OW 1165   0.154   2.914   1.317  0.1084 -0.1458  0.2860
  389SOL    HW1 1166   0.053   2.907   1.287  0.7894  1.3222 -0.1047
  389SOL    HW2 1167   0.198   2.818   1.320 -0.4422  1.7256 -1.7755
  390SOL     OW 1168   1.023   0.963   1.370  0.1614 -0.0207 -0.1772
  390SOL    HW1 1169   1.115   0.967   1.421  0.2659 -0.6301 -3.4275
  390SOL    HW2 1170   0.968   1.048   1.381  1.2513 -1.9196 -1.3448
  391SOL     OW 1171   2.163   1.144   1.111 -0.6869  0.4187 -0.3928
  391SOL    HW1 1172   2.132   1.053   1.156  1.4807  0.3556  2.0938
  391SOL    HW2 1173   2.197   1.126   1.011  0.8452  2.4465  0.5882
  392SOL     OW 1174   0.886   2.616   0.069  0.5029 -0.3656 -0.2812
  392SOL    HW1 1175   0.973   2.564   0.055 -2.3347 -0.9994  0.1875
  392SOL    HW2 1176   0.824   2.564   0.137 -0.6036 -1.4699  0.5186
  393SOL     OW 1177   0.297   0.655   1.956  0.3279 -0.2646 -0.2052
  393SOL    HW1 1178   0.286   0.549   1.955  0.2282 -2.0991 -2.6037
  393SOL    HW2 1179   0.320   0.694   1.863 -0.8631 -0.6463  0.9744
  394SOL     OW 1180   3.077   1.936   2.697 -0.0603 -0.3851 -0.1010
  394SOL    HW1 1181   3.143   1.885   2.757 -1.7312  0.0382  0.0329
  394SOL    HW2 1182   3.070   1.886   2.604  1.0173  0.8277  0.7391
  395SOL     OW 1183   1.620   1.981   0.647  0.2046  0.2557  0.0028
  395SOL    HW1 1184   1.670   1.897   0.611 -0.9697 -0.0704  0.2548
  395SOL    HW2 1185   1.675   2.036   0.719 -0.3999  2.3947  1.2846
  396SOL     OW 1186   2.905   1.870   1.281  0.0647 -0.2100  0.2789
  396SOL    HW1 1187   2.933   1.766   1.274 -0.0195  0.1141 -1.0086
  396SOL    HW2 1188   2.865   1.889   1.373 -1.1207 -2.8416  2.3895
  397SOL     OW 1189   1.039   2.205   0.514  0.2587 -0.0302 -0.0035
  397SOL    HW1 1190   0.939   2.193   0.535 -0.3115 -0.2112  0.4766
  397SOL    HW2 1191   1.069   2.304   0.535 -3.1931  0.4048  1.3694
  398SOL     OW 1192   2.149   3.054   1.140  0.1869 -0.8797  0.4999
  398SOL    HW1 1193   2.064   3.002   1.167 -2.1438  2.0024  0.7083
  398SOL    HW2 1194   2.127   3.153   1.110  0.3866 -0.7827  1.3966
  399SOL     OW 1195   3.052   2.450   2.661 -0.0669  0.3905  0.0267
  399SOL    HW1 1196   2.963   2.393   2.675 -1.1793 -0.6039  2.9406
  399SOL    HW2 1197   3.134   2.393   2.670 -2.2672 -1.0907 -5.4238
  400SOL     OW 1198   0.659   1.694   1.361 -0.3272  0.7272 -0.4032
  400SOL    HW1 1199   0.583   1.733   1.421 -1.2037 -0.1758  0.6334
  400SOL    HW2 1200   0.675   1.748   1.275  0.2273 -1.5822 -1.2461
  401SOL     OW 1201   1.863   0.279   1.138  0.4086  0.3603  0.2350
  401SOL    HW1 1202   1.903   0.303   1.230 -0.6981 -0.7908 -0.8480
  401SOL    HW2 1203   1.767   0.313   1.113 -0.3748  1.4487 -0.9050
  402SOL     OW 1204   1.356   0.263   3.089  0.2391 -0.1302 -0.2444
  402SOL    HW1 1205   1.424   0.206   3.033  1.6300 -1.0022  1.2471
  402SOL    HW2 1206   1.301   0.336   3.035  0.0920  1.2714 -0.9559
  403SOL     OW 1207   2.231   1.879   0.837  0.2201  0.6701 -0.2600
  403SOL    HW1 1208   2.333   1.878   0.822  2.8402 -0.4639 -0.4845
  403SOL    HW2 1209   2.221   1.908   0.933  0.6215 -1.8759  0.3196
  404SOL     OW 1210   0.254   2.485   2.758  0.4104  0.0683  0.0693
  404SOL    HW1 1211   0.329   2.468   2.685 -0.4048 -0.0458 -1.8856
  404SOL    HW2 1212   0.263   2.573   2.812 -0.4455  0.4970  1.4054
  405SOL     OW 1213   0.136   2.379   0.741  0.1560 -0.1771 -0.1543
  405SOL    HW1 1214   0.113   2.314   0.663 -1.9231 -3.2677  0.2941
  405SOL    HW2 1215   0.209   2.446   0.704  3.6058  1.8055 -1.0026
  406SOL     OW 1216   0.044   1.543   3.093  0.1088 -0.1512 -0.0754
  406SOL    HW1 1217   0.104   1.482   3.032  0.2195  2.8051 -1.8492
  406SOL    HW2 1218   0.068   1.521   3.192 -0.9074 -0.3995  0.1190
  407SOL     OW 1219   1.584   0.886   0.969 -0.0926  0.0755 -0.2939
  407SOL    HW1 1220   1.588   0.871   0.864  0.2990  0.7557  0.6811
  407SOL    HW2 1221   1.525   0.968   0.989 -0.5483 -0.3975 -1.6805
  408SOL     OW 1222   1.544   2.375   0.964  0.6391 -0.3317  0.0103
  408SOL    HW1 1223   1.633   2.367   0.906 -1.0118 -0.2216  0.2744
  408SOL    HW2 1224   1.490   2.461   0.942  0.8113  0.2003  0.4557
  409SOL     OW 1225   0.620   0.825   0.749 -0.1335  0.0901 -0.3077
  409SOL    HW1 1226   0.548   0.817   0.668  0.5938  0.4791 -2.7854
  409SOL    HW2 1227   0.630   0.739   0.808  1.7291 -0.5914  0.6492
  410SOL     OW 1228   1.243   2.005   1.381 -0.7235  0.1718  0.0902
  410SOL    HW1 1229   1.332   1.964   1.423  2.2221  0.7803  1.8628
  410SOL    HW2 1230   1.156   1.952   1.403 -0.3259  2.2748  0.9620
  411SOL     OW 1231   2.520   1.851   3.013 -0.4564 -0.0137 -0.1726
  411SOL    HW1 1232   2.560   1.948   3.026 -0.0680  1.4533 -0.0683
  411SOL    HW2 1233   2.472   1.848   2.921  3.2166 -0.9736 -1.3806
  412SOL     OW 1234   1.478   2.468   2.158  0.3456 -0.1537  0.0572
  412SOL    HW1 1235   1.549   2.471   2.236  2.4474  1.4275 -0.1253
  412SOL    HW2 1236   1.379   2.467   2.192 -0.3632 -0.1724  0.1021
  413SOL     OW 1237   0.012   0.249   3.016  0.7117  0.6157  0.9074
  413SOL    HW1 1238  -0.021   0.154   3.030  1.4718  1.1251 -3.5274
  413SOL    HW2 1239   0.112   0.258   3.038 -1.2983 -0.2396 -0.9178
  414SOL     OW 1240   1.778   1.503   1.155 -0.3141  0.1161 -0.5376
  414SOL    HW1 1241   1.765   1.605   1.181 -0.3752  0.1462 -3.4976
  414SOL    HW2 1242   1.783   1.494   1.052  2.8589  0.3346 -1.0640
  415SOL     OW 1243   0.343   2.149   0.669  0.4432 -0.4552  0.0806
  415SOL    HW1 1244   0.322   2.165   0.770  0.4457  0.5811 -0.4360
  415SOL    HW2 1245   0.247   2.148   0.620 -0.3155 -0.0673 -4.6437
  416SOL     OW 1246   0.369   1.102   1.062 -0.4168 -0.3276  0.3762
  416SOL    HW1 1247   0.343   1.021   1.001  1.7397  0.7123 -3.7401
  416SOL    HW2 1248   0.469   1.106   1.085  0.4806  1.1500 -0.4754
  417SOL     OW 1249   2.361   2.410   2.109  0.2434 -0.3173  0.1565
  417SOL    HW1 1250   2.356   2.308   2.095  1.4854  0.6247 -0.6503
  417SOL    HW2 1251   2.321   2.435   2.197  0.9716 -0.2532 -1.1294
  418SOL     OW 1252   1.028   0.505   1.341  0.4338  0.6771 -0.0548
  418SOL    HW1 1253   0.954   0.452   1.290 -0.2155  0.5205 -1.5652
  418SOL    HW2 1254   1.103   0.548   1.289  1.6508 -1.5874 -0.0795
  419SOL     OW 1255   0.906   0.543   2.973 -0.7632  0.0439 -0.1680
  419SOL    HW1 1256   0.817   0.570   2.929 -1.3489 -1.5136 -0.2015
  419SOL    HW2 1257   0.976   0.620   2.992  0.5944 -3.4786  1.0098
  420SOL     OW 1258   0.121   2.201   0.503 -0.0179 -0.1552  0.0632
  420SOL    HW1 1259   0.160   2.191   0.410  0.9226 -4.1535 -0.8982
  420SOL    HW2 1260   0.042   2.139   0.518 -2.3518  1.4246  3.6278
  421SOL     OW 1261   0.317   2.984   0.540 -0.3795 -0.2733 -0.2314
  421SOL    HW1 1262   0.287   2.910   0.606 -1.6543 -0.3327  0.3020
  421SOL    HW2 1263   0.397   3.046   0.574  0.2678  0.7605 -0.4649
  422SOL     OW 1264   1.047   2.568   0.980  0.0583 -0.4323 -0.6819
  422SOL    HW1 1265   1.084   2.588   0.886 -0.4597 -0.2477 -3.3018
  422SOL    HW2 1266   1.114   2.548   1.058 -0.4079 -1.9623 -2.6299
  423SOL     OW 1267   0.148   0.732   1.256  0.0450  0.0909  0.2826
  423SOL    HW1 1268   0.082   0.687   1.321 -1.6721  0.4090  0.7542
  423SOL    HW2 1269   0.103   0.814   1.211  2.6256  0.1074 -1.6984
  424SOL     OW 1270   1.168   2.217   2.049 -0.1771 -0.2172 -0.0096
  424SOL    HW1 1271   1.149   2.318   2.056 -1.2997 -1.4327  0.2459
  424SOL    HW2 1272   1.121   2.166   2.126 -0.5827  2.5933  0.6472
  425SOL     OW 1273   1.986   1.305   0.989 -0.2814  0.2143  0.6301
  425SOL    HW1 1274   2.049   1.256   1.052 -1.5281 -0.9401 -1.0556
  425SOL    HW2 1275   2.001   1.408   0.985 -2.1625 -0.5279 -3.0176
  426SOL     OW 1276   1.439   1.601   1.197  0.1659 -0.2649 -0.2389
  426SOL    HW1 1277   1.476   1.690   1.162 -1.9908 -1.4525  3.2657
  426SOL    HW2 1278   1.378   1.611   1.282 -1.7614  1.8715  0.2168
  427SOL     OW 1279   1.955   2.387   2.082  0.5210  0.1832  0.8873
  427SOL    HW1 1280   2.019   2.344   2.148 -2.1888  1.3384 -0.1779
  427SOL    HW2 1281   1.961   2.494   2.088  0.7761  2.0488 -0.4149
  428SOL     OW 1282   0.890   0.039   0.111  0.8408 -0.3685 -0.1587
  428SOL    HW1 1283   0.919   0.118   0.044  0.5799  1.8588  0.1070
  428SOL    HW2 1284   0.974  -0.021   0.125 -0.4216  0.4915  0.1557
  429SOL     OW 1285   1.305   0.170   0.244 -0.1366 -0.0446 -0.2129
  429SOL    HW1 1286   1.395   0.166   0.302 -0.0599  0.0099  3.1476
  429SOL    HW2 1287   1.319   0.199   0.145 -0.0864  0.1234  0.2058
  430SOL     OW 1288   2.906   1.416   0.291 -0.1474 -0.2798 -0.6205
  430SOL    HW1 1289   2.891   1.467   0.197  0.3197 -2.0005  0.9806
  430SOL    HW2 1290   2.868   1.458   0.378  1.3163 -4.9888  0.4591
  431SOL     OW 1291   2.058   1.581   0.909  0.0316  0.2148 -0.2368
  431SOL    HW1 1292   2.149   1.623   0.928  0.1455 -1.3001  1.3583
  431SOL    HW2 1293   1.998   1.632   0.840  2.4823 -1.7326 -2.8594
  432SOL     OW 1294   2.916   2.157   1.212  0.1151  0.0019 -0.2427
  432SOL    HW1 1295   2.907   2.068   1.267 -2.3539  1.6113  0.4338
  432SOL    HW2 1296   2.943   2.241   1.272 -0.0654  0.5411  1.4811
  433SOL     OW 1297   1.853   0.219   0.812 -0.3494  1.0203 -0.4024
  433SOL    HW1 1298   1.800   0.296   0.857 -1.1800 -0.8741 -3.1958
  433SOL    HW2 1299   1.923   0.168   0.869  2.7977 -0.1339 -0.3054
  434SOL     OW 1300   1.548   0.307   0.665 -0.1445 -0.5445  0.1835
  434SOL    HW1 1301   1.507   0.339   0.574 -1.8810  0.4274 -0.7202
  434SOL    HW2 1302   1.617   0.372   0.709  3.9184  1.2167  1.2988
  435SOL     OW 1303   1.508   1.418   2.085 -0.4587 -0.2229  0.7224
  435SOL    HW1 1304   1.504   1.466   2.177 -0.4970  0.6353  1.7163
  435SOL    HW2 1305   1.493   1.491   2.008 -0.2040 -0.6273 -1.0040
  436SOL     OW 1306   1.713   2.720   2.258  0.5902 -0.3401  0.4440
  436SOL    HW1 1307   1.658   2.785   2.319 -1.5298  2.1818 -0.1008
  436SOL    HW2 1308   1.724   2.626   2.297 -1.9344  1.9451  1.5933
  437SOL     OW 1309   1.108   2.957   0.926  0.3335 -0.0697 -0.1871
  437SOL    HW1 1310   1.051   3.045   0.918  1.9929  0.6829  2.2531
  437SOL    HW2 1311   1.108   2.920   1.026 -1.0676  1.4168  0.6149
  438SOL     OW 1312   1.020   2.683   1.484  0.2899  0.2236  0.3946
  438SOL    HW1 1313   1.102   2.741   1.477  0.3113  0.5908 -0.2245
  438SOL    HW2 1314   1.040   2.596   1.433 -3.9749  0.5166  0.5825
  439SOL     OW 1315   0.685   1.841   1.058 -0.2469  0.2164 -0.0066
  439SOL    HW1 1316   0.650   1.910   0.990  0.3831  2.5096  0.5080
  439SOL    HW2 1317   0.605   1.787   1.102 -0.6879  0.2964 -0.1664
  440SOL     OW 1318   1.055   2.494   1.980 -0.8695  0.5784 -0.5535
  440SOL    HW1 1319   0.989   2.526   1.909  1.2897 -2.9706 -1.3985
  440SOL    HW2 1320   1.150   2.495   1.942  0.2974 -0.5251  1.8766
  441SOL     OW 1321   0.376   2.674   1.531 -0.1417  0.6559 -0.6414
  441SOL    HW1 1322   0.453   2.606   1.504 -0.2954 -2.1304  3.1312
  441SOL    HW2 1323   0.301   2.679   1.461  2.0974  0.7429 -0.8301
  442SOL     OW 1324   2.276   0.674   2.556  0.5460 -0.3877  0.0897
  442SOL    HW1 1325   2.270   0.574   2.571 -2.1320  0.1796 -1.3194
  442SOL    HW2 1326   2.188   0.720   2.585 -0.1723 -1.3164  0.1310
  443SOL     OW 1327   1.206   2.662   2.201  0.0642  0.1674  0.3221
  443SOL    HW1 1328   1.208   2.735   2.275  0.6715 -1.6202  0.4118
  443SOL    HW2 1329   1.209   2.568   2.240 -3.2978  1.4412 -1.7875
  444SOL     OW 1330   0.994   1.374   1.554  0.0259  0.1068 -0.2104
  444SOL    HW1 1331   1.096   1.381   1.536  1.2405  0.7955  1.1711
  444SOL    HW2 1332   0.943   1.467   1.549  0.7715 -0.3959  0.6147
  445SOL     OW 1333   3.072   2.366   1.974  0.3259  0.3625  0.4260
  445SOL    HW1 1334   3.076   2.442   1.901 -1.2896 -2.7236 -0.0952
  445SOL    HW2 1335   2.974   2.349   2.000  1.7529  1.0352 -0.2971
  446SOL     OW 1336   0.192   1.879   2.337 -0.0422 -0.0126  0.0268
  446SOL    HW1 1337   0.173   1.957   2.400  2.5131 -0.2473 -0.8538
  446SOL    HW2 1338   0.108   1.830   2.297 -0.1802  0.1497 -0.4127
  447SOL     OW 1339   1.228   1.660   1.939 -0.3120 -0.3603  0.4173
  447SOL    HW1 1340   1.181   1.747   1.898 -1.1852 -1.8998 -3.2820
  447SOL    HW2 1341   1.332   1.666   1.952 -0.1792  0.0173 -2.5401
  448SOL     OW 1342   0.111   1.535   1.946 -0.0868  0.2837 -0.7988
  448SOL    HW1 1343   0.095   1.641   1.952  1.0027  0.3758  0.6937
  448SOL    HW2 1344   0.144   1.491   2.037  0.0638 -0.5137  1.5590
  449SOL     OW 1345   2.008   3.004   0.851  0.1549 -0.3409  0.4003
  449SOL    HW1 1346   2.039   2.989   0.950  1.0517 -1.6447  0.2129
  449SOL    HW2 1347   1.988   2.910   0.815  0.3456  1.6426 -1.1369
  450SOL     OW 1348   2.269   1.368   0.902 -0.1096 -0.1442 -0.1167
  450SOL    HW1 1349   2.260   1.271   0.878  2.1421  0.5945  2.5057
  450SOL    HW2 1350   2.240   1.426   0.826  1.5960 -1.5394  3.9352
  451SOL     OW 1351   1.416   0.025   1.436 -0.1056 -0.2063  0.3510
  451SOL    HW1 1352   1.356   0.107   1.458 -0.0146 -1.9896 -0.2915
  451SOL    HW2 1353   1.423  -0.043   1.514 -0.5856 -0.5011  0.9676
  452SOL     OW 1354   2.662   2.332   2.249  0.3317  0.7176 -0.3861
  452SOL    HW1 1355   2.612   2.422   2.246  1.5967 -1.2297 -1.4326
  452SOL    HW2 1356   2.682   2.303   2.345 -1.6869 -0.1442  2.5953
  453SOL     OW 1357   2.430   2.590   3.036 -0.3519 -0.2505  0.2755
  453SOL    HW1 1358   2.357   2.665   3.038 -0.3526  1.3093 -1.5429
  453SOL    HW2 1359   2.411   2.516   2.962  3.3209 -0.0841  1.6856
  454SOL     OW 1360   0.954   1.091   2.079 -0.1009 -0.0871 -0.2408
  454SOL    HW1 1361   0.981   1.151   1.996  1.0151  0.3893  0.0895
  454SOL    HW2 1362   1.044   1.049   2.110 -1.0504  0.3463 -0.4293
  455SOL     OW 1363   0.656   2.671   2.911 -1.0828  0.2033 -0.4028
  455SOL    HW1 1364   0.710   2.747   2.959  1.2289  0.2382  1.7478
  455SOL    HW2 1365   0.648   2.584   2.969 -1.5168  1.7719 -1.8792
  456SOL     OW 1366   0.520   1.790   0.313 -0.4424 -0.0630  0.7887
  456SOL    HW1 1367   0.588   1.717   0.353  1.6344  0.3617  0.6650
  456SOL    HW2 1368   0.568   1.877   0.292 -0.1780 -1.9095  1.5141
  457SOL     OW 1369   0.336   2.529   0.664  0.6270  0.2729 -0.5378
  457SOL    HW1 1370   0.364   2.569   0.571  0.0210 -0.1878 -0.1884
  457SOL    HW2 1371   0.418   2.510   0.729 -0.6698  0.5463  2.3465
  458SOL     OW 1372   2.987   2.967   1.267  0.4717  0.6798 -0.7128
  458SOL    HW1 1373   3.012   3.063   1.231 -1.7071  1.0152 -0.9774
  458SOL    HW2 1374   2.942   2.908   1.190 -0.8641  0.9754  1.1210
  459SOL     OW 1375   2.164   2.539   0.899 -0.0531  0.4427  0.3304
  459SOL    HW1 1376   2.193   2.595   0.986 -1.1725  1.0394  1.0657
  459SOL    HW2 1377   2.235   2.534   0.822  0.7128 -0.9047 -1.8582
  460SOL     OW 1378   1.069   1.922   2.921 -0.0921  0.4615 -0.1773
  460SOL    HW1 1379   1.075   2.019   2.889 -1.0672 -1.6690 -0.7415
  460SOL    HW2 1380   1.167   1.886   2.946  1.7466  0.9929 -1.5709
  461SOL     OW 1381   0.558   2.116   2.706  0.4655  0.0777 -0.3397
  461SOL    HW1 1382   0.477   2.052   2.696  0.1339 -1.0018 -1.2572
  461SOL    HW2 1383   0.620   2.088   2.786  0.1418  0.4713 -0.0616
  462SOL     OW 1384   0.955   1.182   1.791  0.2527 -0.0623 -0.3759
  462SOL    HW1 1385   1.007   1.098   1.774  0.0718  1.1102 -0.0853
  462SOL    HW2 1386   0.995   1.268   1.749 -1.6480 -3.1280  2.7623
  463SOL     OW 1387   0.436   0.790   0.525  0.0813 -0.7138 -0.4008
  463SOL    HW1 1388   0.472   0.703   0.483  0.4926  1.3305 -0.0437
  463SOL    HW2 1389   0.331   0.796   0.511 -1.7118 -2.0357 -2.0570
  464SOL     OW 1390   0.501   2.243   2.228  0.2631  0.2988 -0.0607
  464SOL    HW1 1391   0.426   2.282   2.287 -0.3570 -0.6577  1.5803
  464SOL    HW2 1392   0.508   2.301   2.142 -0.4088 -0.2011 -0.3509
  465SOL     OW 1393   0.290   0.895   0.895  0.6071  0.7243 -0.2430
  465SOL    HW1 1394   0.221   0.909   0.818 -0.7680  1.5360  1.4283
  465SOL    HW2 1395   0.338   0.801   0.889  1.7183 -0.7860  3.1741
  466SOL     OW 1396   1.392   1.056   1.067  0.0930  0.3921  0.9161
  466SOL    HW1 1397   1.455   1.139   1.061 -0.0346  0.3353 -1.7409
  466SOL    HW2 1398   1.291   1.079   1.081  1.6824  1.0634  1.1738
  467SOL     OW 1399   0.457   0.383   2.445  0.3075 -0.2222  0.5772
  467SOL    HW1 1400   0.459   0.466   2.505  0.3029 -0.6305 -1.4982
  467SOL    HW2 1401   0.478   0.294   2.500 -0.0007  0.3496 -1.3981
  468SOL     OW 1402   0.495   2.224   1.715 -0.3057 -0.5530  0.5905
  468SOL    HW1 1403   0.517   2.298   1.786  1.4806  0.8011 -0.8581
  468SOL    HW2 1404   0.455   2.263   1.626  0.0224  0.6520  1.3256
  469SOL     OW 1405   1.574   1.266   1.101  0.5939 -0.0069  0.1747
  469SOL    HW1 1406   1.665   1.225   1.131 -1.2369  0.2708  1.5026
  469SOL    HW2 1407   1.570   1.365   1.117 -2.4024 -0.1415 -1.2857
  470SOL     OW 1408   3.033   1.638   0.731  0.2162 -0.0467  0.6257
  470SOL    HW1 1409   3.128   1.633   0.771 -0.5758  0.1319  0.4057
  470SOL    HW2 1410   2.967   1.714   0.765 -1.0265 -1.8161 -2.6806
  471SOL     OW 1411   2.652   1.297   2.163 -0.6284  0.2120  0.3872
  471SOL    HW1 1412   2.651   1.219   2.229 -0.3753 -1.6331  0.6019
  471SOL    HW2 1413   2.704   1.381   2.203  0.5214  2.0305  2.5583
  472SOL     OW 1414   1.123   2.463   0.023  0.3150 -0.0217 -0.4446
  472SOL    HW1 1415   1.204   2.458   0.088 -0.2876 -0.5988 -1.3057
  472SOL    HW2 1416   1.101   2.368  -0.017 -2.2024 -0.4612  0.2089
  473SOL     OW 1417   1.048   1.575   0.864 -0.3637 -0.3778  1.0344
  473SOL    HW1 1418   0.955   1.599   0.908 -0.1718 -2.3313  1.7032
  473SOL    HW2 1419   1.111   1.530   0.931  1.1390 -1.1619 -2.9537
  474SOL     OW 1420   0.806   1.220   0.776 -0.1857  0.4271  0.5140
  474SOL    HW1 1421   0.774   1.188   0.685 -0.0233  2.7951 -0.4159
  474SOL    HW2 1422   0.906   1.205   0.791 -1.7273  2.5979 -1.8630
  475SOL     OW 1423   2.894   0.077   0.779 -0.0873 -0.2762  0.1098
  475SOL    HW1 1424   2.981   0.063   0.843  0.6030 -0.0006  2.6279
  475SOL    HW2 1425   2.804   0.089   0.837  2.0591 -0.3547  1.0336
  476SOL     OW 1426   0.891   3.044   1.856  0.5113  0.2040  1.0564
  476SOL    HW1 1427   0.954   2.992   1.920  2.8492  0.2675 -2.2084
  476SOL    HW2 1428   0.904   3.017   1.755  0.9680  2.4387  0.6271
  477SOL     OW 1429   1.454   0.388   2.428  0.7801  0.5346 -0.0899
  477SOL    HW1 1430   1.417   0.391   2.529 -1.2931 -4.0069  0.8757
  477SOL    HW2 1431   1.547   0.341   2.420 -0.1356 -0.1568  0.0166
  478SOL     OW 1432   2.250   1.798   0.267 -0.7546 -0.2523 -0.5675
  478SOL    HW1 1433   2.190   1.716   0.238  1.1812  0.1480 -2.1506
  478SOL    HW2 1434   2.351   1.781   0.264 -1.4849  2.2158  1.1697
  479SOL     OW 1435   1.202   1.113   2.855 -0.8563  0.8458  0.4310
  479SOL    HW1 1436   1.262   1.103   2.772  1.1039 -1.6893 -1.4087
  479SOL    HW2 1437   1.109   1.078   2.838 -0.0201  0.3655  0.8653
  480SOL     OW 1438   2.473   2.347   0.360  0.2692  0.0045 -0.0128
  480SOL    HW1 1439   2.426   2.280   0.418  0.5713 -1.1427 -1.1225
  480SOL    HW2 1440   2.418   2.384   0.278 -0.8717  2.1213  1.9850
  481SOL     OW 1441   1.076   1.203   0.813 -0.0715 -0.2622  0.7904
  481SOL    HW1 1442   1.072   1.284   0.747  0.6485 -1.4756 -0.6001
  481SOL    HW2 1443   1.114   1.229   0.905 -1.1310 -3.4375  0.5608
  482SOL     OW 1444   1.624   0.283   2.026  0.5137 -0.2578 -0.4609
  482SOL    HW1 1445   1.621   0.367   1.969 -1.0982  0.0466 -0.0125
  482SOL    HW2 1446   1.719   0.269   2.062 -0.2940  0.9345 -2.1961
  483SOL     OW 1447   0.137   2.342   1.312  0.2334 -0.5567 -0.0270
  483SOL    HW1 1448   0.036   2.340   1.337  2.3227 -0.6663 -1.0061
  483SOL    HW2 1449   0.156   2.384   1.218 -3.4020  0.0501 -0.2088
  484SOL     OW 1450   1.723   0.953   1.394 -0.1458 -0.3296  0.2308
  484SOL    HW1 1451   1.817   0.931   1.438  2.2578  0.4990  0.8490
  484SOL    HW2 1452   1.735   1.029   1.325 -2.2878  0.5794 -0.5901
  485SOL     OW 1453   0.697   1.115   1.779 -0.1283  0.1326 -0.1867
  485SOL    HW1 1454   0.702   1.057   1.692 -2.6176 -0.1078  1.5958
  485SOL    HW2 1455   0.785   1.165   1.794  1.3141 -0.2500 -0.3165
  486SOL     OW 1456   0.885   1.916   2.418  0.6372  0.3583 -0.0762
  486SOL    HW1 1457   0.957   1.876   2.475 -1.8859 -1.1997  0.7911
  486SOL    HW2 1458   0.854   2.007   2.454 -0.3258 -2.1360  0.3082
  487SOL     OW 1459   1.737   1.497   0.881 -0.1313 -0.0582 -0.3604
  487SOL    HW1 1460   1.705   1.423   0.819  2.1714  0.8090  0.0706
  487SOL    HW2 1461   1.799   1.554   0.825 -0.3955 -0.0901  1.5629
  488SOL     OW 1462   2.965   0.954   2.279  0.4183  0.1347 -0.4177
  488SOL    HW1 1463   3.021   0.879   2.239 -0.3873 -3.0409  1.0181
  488SOL    HW2 1464   2.980   0.960   2.383  1.5474 -1.6824 -1.9842
  489SOL     OW 1465   2.785   0.194   1.306 -0.2330 -0.4542 -0.0517
  489SOL    HW1 1466   2.779   0.189   1.412 -0.4319  4.3523  2.4609
  489SOL    HW2 1467   2.880   0.165   1.267  0.0769  1.3280  0.4394
  490SOL     OW 1468   1.419   2.967   2.835 -0.3523  0.0829 -0.3928
  490SOL    HW1 1469   1.450   2.874   2.817 -0.8564  2.0467 -1.0445
  490SOL    HW2 1470   1.381   3.007   2.750  2.0260 -3.2812  0.2598
  491SOL     OW 1471   1.911   1.558   2.660 -0.0303  0.1775 -0.0133
  491SOL    HW1 1472   1.934   1.592   2.758  0.4500 -0.3082  1.8666
  491SOL    HW2 1473   1.969   1.608   2.582 -1.6033 -0.8833 -1.8622
  492SOL     OW 1474   0.469   1.920   0.714  0.3276 -0.6517 -0.1805
  492SOL    HW1 1475   0.544   1.926   0.779 -0.8118  0.5055 -0.8653
  492SOL    HW2 1476   0.432   2.015   0.686  0.0141 -1.1583 -1.7331
  493SOL     OW 1477   0.460   1.411   2.148  0.2847 -0.0708  0.6661
  493SOL    HW1 1478   0.356   1.419   2.149  0.0175  0.6241  2.0950
  493SOL    HW2 1479   0.494   1.340   2.215 -0.7554  0.7720  1.7722
  494SOL     OW 1480   2.614   2.656   0.173 -0.1387 -0.4860 -0.3053
  494SOL    HW1 1481   2.642   2.583   0.243  0.1500 -1.7312  0.4063
  494SOL    HW2 1482   2.600   2.620   0.080 -2.4159 -0.6570  0.7625
  495SOL     OW 1483   2.757   2.687   2.687 -0.4283 -0.0934 -0.4595
  495SOL    HW1 1484   2.741   2.598   2.638 -2.1930 -1.0246 -0.6747
  495SOL    HW2 1485   2.776   2.761   2.616 -0.2197 -2.9691  2.0207
  496SOL     OW 1486   2.027   2.195   0.703 -0.2165  0.5108  0.0262
  496SOL    HW1 1487   2.040   2.242   0.795  0.4569  1.2831 -0.2633
  496SOL    HW2 1488   2.060   2.089   0.710  0.1788 -4.7155 -0.3365
  497SOL     OW 1489   0.232   2.979   2.400  0.3899 -0.7441  0.3132
  497SOL    HW1 1490   0.176   3.038   2.461  2.7040  2.1168 -1.2690
  497SOL    HW2 1491   0.277   3.040   2.331 -1.6241 -0.9021  1.1623
  498SOL     OW 1492   1.215   1.499   1.061 -0.1908  0.2096 -0.4655
  498SOL    HW1 1493   1.305   1.537   1.109  1.3678 -0.0285  1.6265
  498SOL    HW2 1494   1.127   1.518   1.117  3.4066  0.8384 -0.5851
  499SOL     OW 1495   0.858   1.833   0.483  0.2545  0.2592 -0.5206
  499SOL    HW1 1496   0.812   1.746   0.527  1.0980  1.7581  1.0950
  499SOL    HW2 1497   0.855   1.908   0.554  2.5893 -1.0052 -1.4016
  500SOL     OW 1498   1.460   2.963   1.654  0.1649 -0.3351 -0.2183
  500SOL    HW1 1499   1.471   3.009   1.749 -3.2138 -1.1412 -0.6502
  500SOL    HW2 1500   1.466   2.859   1.666 -1.9911 -2.1277  1.2974
  501SOL     OW 1501   0.768   1.117   2.259  0.6301 -0.2593  0.0978
  501SOL    HW1 1502   0.686   1.058   2.231  0.8772  0.9982 -0.7161
  501SOL    HW2 1503   0.847   1.117   2.184  1.6258 -0.3232 -2.8891
  502SOL     OW 1504   2.617   0.976   1.731  0.1166  0.1237 -0.2118
  502SOL    HW1 1505   2.599   0.994   1.631  1.5197  1.7388  0.8264
  502SOL    HW2 1506   2.565   0.896   1.767  1.2896  3.4051  0.5575
  503SOL     OW 1507   1.311   0.151   0.642 -0.3765  0.0943  0.0944
  503SOL    HW1 1508   1.238   0.223   0.618  1.1414  1.4500 -0.9424
  503SOL    HW2 1509   1.404   0.200   0.662  0.9873  0.1231  0.0890
  504SOL     OW 1510   2.966   2.333   1.423 -0.3711 -0.4809  0.6556
  504SOL    HW1 1511   3.003   2.417   1.467 -1.2093  0.5491  0.4821
  504SOL    HW2 1512   2.896   2.288   1.485  4.3963 -1.6537 -1.4698
  505SOL     OW 1513   2.311   1.262   1.432 -0.0787  0.5316  0.5337
  505SOL    HW1 1514   2.317   1.364   1.418  0.0290 -1.4432 -0.8236
  505SOL    HW2 1515   2.404   1.229   1.476  0.6533 -0.8203  1.1223
  506SOL     OW 1516   1.889   0.243   1.769 -0.8025  0.3061  0.4542
  506SOL    HW1 1517   1.970   0.236   1.703 -1.3318  2.1247 -1.8009
  506SOL    HW2 1518   1.901   0.329   1.832  0.8704 -0.7976  0.1490
  507SOL     OW 1519   0.474   0.745   2.180  0.1815 -0.0801  0.1049
  507SOL    HW1 1520   0.410   0.739   2.097  1.1662  1.0338 -0.7062
  507SOL    HW2 1521   0.555   0.684   2.168 -0.4431  1.4117 -1.3272
  508SOL     OW 1522   0.184   1.647   0.819  0.1966 -0.7525  0.2633
  508SOL    HW1 1523   0.171   1.748   0.806 -0.2250 -0.8001  0.7106
  508SOL    HW2 1524   0.192   1.617   0.921 -0.3061 -0.2318  2.2976
  509SOL     OW 1525   1.346   1.187   2.585 -0.0940 -0.1827  0.0283
  509SOL    HW1 1526   1.276   1.253   2.536 -2.9666  1.6849 -1.7663
  509SOL    HW2 1527   1.324   1.086   2.573 -3.0048  1.2519  0.8996
  510SOL     OW 1528   1.319   1.990   2.034 -0.3989  0.0202  0.3689
  510SOL    HW1 1529   1.289   2.087   2.033  0.8185 -0.2696 -2.1446
  510SOL    HW2 1530   1.289   1.941   2.127  1.4860  0.6023  1.8095
  511SOL     OW 1531   3.052   2.625   1.276 -0.6554 -0.0955 -0.1670
  511SOL    HW1 1532   2.993   2.582   1.201  0.5942  0.8329  2.2040
  511SOL    HW2 1533   3.011   2.619   1.372  1.1647 -2.0698  1.0200
  512SOL     OW 1534   2.421   0.391   1.410  0.2498 -0.3271  0.7866
  512SOL    HW1 1535   2.316   0.409   1.400 -0.8275  0.0820  1.1327
  512SOL    HW2 1536   2.461   0.389   1.317 -0.2961  0.1989  2.1881
  513SOL     OW 1537   2.502   1.971   0.809 -0.3080  0.0782  0.0341
  513SOL    HW1 1538   2.453   2.061   0.795  0.2028  0.5961  1.3695
  513SOL    HW2 1539   2.596   1.972   0.764 -0.2289 -1.4573  0.0383
  514SOL     OW 1540   0.674   2.788   0.419  0.3123  0.1072  0.1004
  514SOL    HW1 1541   0.664   2.855   0.341  0.2227  0.3479  1.5911
  514SOL    HW2 1542   0.710   2.835   0.505 -0.4808 -1.9122 -1.2425
  515SOL     OW 1543   1.948   1.231   2.370  0.0101 -0.2717 -0.6392
  515SOL    HW1 1544   1.876   1.263   2.303 -1.7020  1.7228  1.7297
  515SOL    HW2 1545   1.921   1.251   2.463 -2.7613 -0.7844 -0.6686
  516SOL     OW 1546   0.276   0.378   1.968  0.2049  1.1360  0.1922
  516SOL    HW1 1547   0.366   0.349   1.930  0.9843  1.8728 -0.0390
  516SOL    HW2 1548   0.198   0.309   1.946 -0.8889 -0.1342 -0.9227
  517SOL     OW 1549   0.373   3.022   1.211  0.4775  0.2426 -0.1273
  517SOL    HW1 1550   0.373   3.122   1.234  1.1032 -2.6307 -0.9414
  517SOL    HW2 1551   0.289   2.977   1.255  0.0583  1.1572  1.0600
  518SOL     OW 1552   2.123   0.183   1.623  0.0751  0.0863 -0.3494
  518SOL    HW1 1553   2.196   0.215   1.691  0.4277  0.5205  1.8248
  518SOL    HW2 1554   2.147   0.090   1.588  1.1217  2.4502 -1.4721
  519SOL     OW 1555   2.345   2.167   2.540 -0.5757 -0.0675  0.2949
  519SOL    HW1 1556   2.263   2.173   2.598  0.7761 -1.0841 -0.2384
  519SOL    HW2 1557   2.397   2.257   2.529  3.3792 -2.0587  0.0186
  520SOL     OW 1558   1.768   2.866   1.831 -0.1782 -0.0058  0.0365
  520SOL    HW1 1559   1.689   2.825   1.884 -0.7729  1.0898  0.2382
  520SOL    HW2 1560   1.847   2.801   1.814  1.3373  3.6607 -0.0006
  521SOL     OW 1561   0.565   0.131   2.163 -0.0276 -0.3389 -0.5958
  521SOL    HW1 1562   0.479   0.071   2.178  0.3393 -2.2069 -2.0215
  521SOL    HW2 1563   0.641   0.114   2.232 -0.2690  1.8976 -0.2228
  522SOL     OW 1564   0.235   1.927   1.539 -0.4072  0.2564 -0.4386
  522SOL    HW1 1565   0.250   1.981   1.627  0.7621 -1.1393 -1.4801
  522SOL    HW2 1566   0.209   1.989   1.458 -0.1724  2.2140  0.1494
  523SOL     OW 1567   2.234   3.027   1.586  0.6106  0.0102 -0.1350
  523SOL    HW1 1568   2.242   2.932   1.539 -1.4898 -0.1256  1.1816
  523SOL    HW2 1569   2.227   3.016   1.687  0.6073 -1.1564 -0.1605
  524SOL     OW 1570   0.235   2.789   2.803  0.5357  0.6066 -0.0433
  524SOL    HW1 1571   0.190   2.879   2.835  2.9146 -0.2023 -2.7279
  524SOL    HW2 1572   0.335   2.816   2.778 -1.6512  1.7614 -0.5551
  525SOL     OW 1573   2.132   1.981   0.448  0.1626  0.4772  0.3292
  525SOL    HW1 1574   2.107   1.923   0.533 -0.6581 -1.6491  1.9325
  525SOL    HW2 1575   2.185   1.931   0.377 -2.7419  0.4091 -0.1138
  526SOL     OW 1576   0.440   1.533   1.556  0.1123 -0.1600 -0.2574
  526SOL    HW1 1577   0.369   1.502   1.626  1.7542 -1.8208 -1.5947
  526SOL    HW2 1578   0.519   1.466   1.564  0.4324  2.1787  2.0823
  527SOL     OW 1579   1.112   2.880   1.191  0.4927 -0.4080  0.1076
  527SOL    HW1 1580   1.190   2.827   1.234 -0.7485  2.9858  1.3620
  527SOL    HW2 1581   1.120   2.980   1.218  0.4624  2.2152 -2.8611
  528SOL     OW 1582   1.336   2.389   0.459  0.2159 -0.2449  0.7301
  528SOL    HW1 1583   1.362   2.288   0.459  0.3541  0.1772  2.0825
  528SOL    HW2 1584   1.391   2.438   0.532 -0.9580  0.5526 -2.8588
  529SOL     OW 1585   1.851   1.711   0.764  0.3313  0.0528 -0.6467
  529SOL    HW1 1586   1.816   1.746   0.671 -0.0608  0.3150  0.4860
  529SOL    HW2 1587   1.876   1.784   0.832  2.3580  0.6583 -1.0518
  530SOL     OW 1588   0.367   2.435   0.251  0.2078 -0.5526 -0.1567
  530SOL    HW1 1589   0.378   2.524   0.303  1.1032 -1.9126  0.2687
  530SOL    HW2 1590   0.336   2.357   0.309  0.0363  4.5043 -3.2487
  531SOL     OW 1591   1.868   0.828   0.966  0.4483 -0.4432 -0.8042
  531SOL    HW1 1592   1.909   0.856   0.879  3.4612  0.4539 -0.6941
  531SOL    HW2 1593   1.765   0.847   0.965 -1.6224 -1.0923  0.6334
  532SOL     OW 1594   0.452   1.106   0.771 -0.0843 -0.2248 -0.1771
  532SOL    HW1 1595   0.459   1.120   0.668 -2.7816 -1.1257 -2.0584
  532SOL    HW2 1596   0.407   1.019   0.804 -2.5496 -0.6521  2.0759
  533SOL     OW 1597   1.730   3.090   2.556 -0.5526 -0.1921  0.1576
  533SOL    HW1 1598   1.830   3.083   2.581  0.7911 -2.0299 -1.8510
  533SOL    HW2 1599   1.680   3.154   2.616  1.3364 -1.4275 -0.2483
  534SOL     OW 1600   0.393   0.200   1.558 -0.3241 -0.2648  0.1034
  534SOL    HW1 1601   0.496   0.200   1.565  0.6858 -2.3089 -0.2259
  534SOL    HW2 1602   0.353   0.293   1.535 -1.3326  0.2495  0.3547
  535SOL     OW 1603   1.942   0.331   0.165  0.2285 -0.0581  0.1827
  535SOL    HW1 1604   1.956   0.427   0.205  0.2961 -0.4250  1.4072
  535SOL    HW2 1605   1.964   0.247   0.228  1.1057  0.3735  0.5321
  536SOL     OW 1606   1.364   2.595   0.900  0.0126 -0.3884  0.1352
  536SOL    HW1 1607   1.316   2.552   0.978  0.7180  1.7255 -1.5503
  536SOL    HW2 1608   1.301   2.664   0.857  1.4554 -0.6428  2.1351
  537SOL     OW 1609   0.852   0.260   2.361  0.3763  0.6036  0.2140
  537SOL    HW1 1610   0.912   0.301   2.294  0.6144  0.8494 -0.6445
  537SOL    HW2 1611   0.832   0.162   2.335 -0.7265 -0.0541 -0.1487
  538SOL     OW 1612   1.664   2.398   1.406 -0.1204  0.3633  0.2598
  538SOL    HW1 1613   1.660   2.299   1.381 -1.0166 -0.5637  0.6507
  538SOL    HW2 1614   1.759   2.433   1.419  0.4840 -0.0936 -0.5380
  539SOL     OW 1615   0.205   1.619   2.659  0.1192 -0.4943 -0.2606
  539SOL    HW1 1616   0.119   1.569   2.639 -0.0783  1.5022  1.2078
  539SOL    HW2 1617   0.188   1.692   2.733  0.8279  0.6397  0.0135
  540SOL     OW 1618   2.676   1.735   1.933 -0.1903  0.0422 -0.1484
  540SOL    HW1 1619   2.638   1.643   1.965 -1.7436 -0.6009  0.5791
  540SOL    HW2 1620   2.613   1.822   1.942 -1.3985  0.4681 -1.8618
  541SOL     OW 1621   0.524   2.134   0.027 -0.4963  0.3293 -0.4174
  541SOL    HW1 1622   0.534   2.131   0.132  0.1108 -0.3579  0.9030
  541SOL    HW2 1623   0.429   2.114  -0.009 -1.1126  0.5631 -1.4452
  542SOL     OW 1624   2.270   2.643   0.554  0.1925 -0.6151 -0.6303
  542SOL    HW1 1625   2.263   2.739   0.591  1.1857 -0.0986 -0.8028
  542SOL    HW2 1626   2.176   2.601   0.539 -1.5240 -0.5754  0.2896
  543SOL     OW 1627   1.075   1.784   1.587  0.3142 -0.0217 -0.4973
  543SOL    HW1 1628   1.097   1.817   1.682 -2.1555  2.6726  0.7715
  543SOL    HW2 1629   1.014   1.857   1.535 -0.1468 -0.5315 -0.4977
  544SOL     OW 1630   1.163   0.524   0.150 -0.5370  0.5550 -0.5244
  544SOL    HW1 1631   1.119   0.446   0.208  2.1528  0.2579 -0.0109
  544SOL    HW2 1632   1.189   0.495   0.056  0.9805  3.1413 -0.5997
  545SOL     OW 1633   1.128   1.830   0.805  0.6057 -0.6290  0.1065
  545SOL    HW1 1634   1.225   1.829   0.770  2.0133 -0.3987  1.5643
  545SOL    HW2 1635   1.092   1.733   0.825 -0.3039  1.4401  1.7451
  546SOL     OW 1636   2.669   1.599   2.986  0.0145  0.0562 -0.0908
  546SOL    HW1 1637   2.625   1.688   2.982  1.2196 -2.3293  0.7828
  546SOL    HW2 1638   2.597   1.523   2.996  0.8911 -1.9311  0.2027
  547SOL     OW 1639   0.673   3.043   2.578 -0.5459  0.1179  0.1436
  547SOL    HW1 1640   0.753   3.006   2.644  2.1233  1.7704  0.1809
  547SOL    HW2 1641   0.610   2.968   2.549 -0.7492 -1.3073 -0.8173
  548SOL     OW 1642   2.042   0.764   3.021 -0.1803  0.0674 -0.2018
  548SOL    HW1 1643   1.947   0.744   3.054 -0.1010  0.1580 -1.3365
  548SOL    HW2 1644   2.091   0.842   3.068  1.4167 -0.2687  1.4528
  549SOL     OW 1645   0.697   0.577   0.185 -0.0312 -0.2580  0.1519
  549SOL    HW1 1646   0.645   0.614   0.100 -1.9449 -1.3463 -0.0030
  549SOL    HW2 1647   0.787   0.622   0.202 -1.0208 -2.6946 -0.9581
  550SOL     OW 1648   2.580   2.752   2.883  0.1389 -0.1565  0.1006
  550SOL    HW1 1649   2.526   2.690   2.943 -0.9118  1.3508 -0.0975
  550SOL    HW2 1650   2.631   2.705   2.805 -1.7974  0.1720 -1.5972
  551SOL     OW 1651   0.262   0.877   0.208 -0.2953  0.2616 -0.5977
  551SOL    HW1 1652   0.359   0.866   0.181 -3.6244 -4.8603 -2.7454
  551SOL    HW2 1653   0.247   0.880   0.312  2.2987 -1.4133 -0.7261
  552SOL     OW 1654   0.639   3.042   1.955 -0.2790  0.2100 -0.0674
  552SOL    HW1 1655   0.630   3.118   2.028 -0.1128 -0.5183  0.0336
  552SOL    HW2 1656   0.734   3.026   1.922 -0.4459 -1.4560  0.6405
  553SOL     OW 1657   3.002   2.414   0.361  0.1979  0.3754  0.0675
  553SOL    HW1 1658   3.001   2.318   0.401  1.7683  1.5420 -4.4287
  553SOL    HW2 1659   2.911   2.448   0.330 -1.1167 -0.7251  0.3247
  554SOL     OW 1660   2.191   0.367   0.540  0.1633  0.1042 -0.1437
  554SOL    HW1 1661   2.247   0.330   0.458  0.5967 -1.0623 -1.4936
  554SOL    HW2 1662   2.191   0.297   0.616 -0.0939 -0.5117  0.5628
  555SOL     OW 1663   0.471   2.850   2.482 -0.0814 -0.1182 -0.0925
  555SOL    HW1 1664   0.382   2.905   2.451 -1.2809 -0.7022  0.1799
  555SOL    HW2 1665   0.485   2.771   2.416  2.7600  1.2220  0.8147
  556SOL     OW 1666   0.819   2.430   1.612  0.1706  0.0966  0.1093
  556SOL    HW1 1667   0.859   2.496   1.687  0.8141 -1.5313 -2.8341
  556SOL    HW2 1668   0.886   2.421   1.534 -1.6389 -1.2438 -1.7301
  557SOL     OW 1669   0.247   2.085   0.253 -0.7072 -0.1762 -0.0180
  557SOL    HW1 1670   0.168   2.037   0.203 -1.1454  0.4292  0.6449
  557SOL    HW2 1671   0.335   2.033   0.222  1.8708  0.2981 -2.6992
  558SOL     OW 1672   2.838   2.166   0.394 -0.3230  0.5823 -0.1194
  558SOL    HW1 1673   2.806   2.266   0.399  3.3267  3.8246  0.8065
  558SOL    HW2 1674   2.801   2.096   0.321  1.9316 -0.8650  0.1637
  559SOL     OW 1675   0.403   2.310   1.456  0.3483 -0.2664  0.2316
  559SOL    HW1 1676   0.304   2.322   1.430 -0.6747 -2.1585 -2.1625
  559SOL    HW2 1677   0.455   2.262   1.379 -1.0532  3.6822  1.1176
  560SOL     OW 1678   2.143   1.008   0.020 -0.3766  0.2667  0.2778
  560SOL    HW1 1679   2.188   1.060   0.095  1.1286  1.9978  0.9394
  560SOL    HW2 1680   2.205   0.993  -0.063  0.1146 -1.3360 -2.2727
  561SOL     OW 1681   3.102   1.978   0.191 -0.4243 -0.2499 -0.4694
  561SOL    HW1 1682   3.070   1.885   0.224  0.3933  1.3690  2.7608
  561SOL    HW2 1683   3.052   2.012   0.107  0.9128  2.3984 -0.0562
  562SOL     OW 1684   1.038   2.080   2.242 -0.7594  0.0700  0.4343
  562SOL    HW1 1685   0.988   2.161   2.287 -0.3549 -1.5218 -1.2317
  562SOL    HW2 1686   0.988   1.992   2.267 -1.0674 -2.2340 -1.3807
  563SOL     OW 1687   0.671   2.538   2.656  0.2646 -0.2290 -0.3596
  563SOL    HW1 1688   0.755   2.478   2.643 -0.2884 -1.6188 -2.0099
  563SOL    HW2 1689   0.670   2.592   2.747 -1.3088 -1.8283  0.8395
  564SOL     OW 1690   2.852   1.430   2.848  0.2985  0.2881 -0.4588
  564SOL    HW1 1691   2.786   1.485   2.908 -2.2222  2.4046 -2.5371
  564SOL    HW2 1692   2.941   1.482   2.833 -1.4769 -1.9355  0.1736
  565SOL     OW 1693   2.493   1.960   2.648 -0.3622 -0.4435  0.3527
  565SOL    HW1 1694   2.454   2.047   2.599 -1.1010  0.3634  2.5016
  565SOL    HW2 1695   2.587   1.978   2.696  0.4437  1.1732  0.6401
  566SOL     OW 1696   1.916   2.896   1.440 -0.0927 -0.0613  0.2306
  566SOL    HW1 1697   1.952   2.801   1.459 -0.8579 -1.5986  0.5909
  566SOL    HW2 1698   1.978   2.945   1.375 -1.4731  0.7244  0.3317
  567SOL     OW 1699   2.346   0.032   2.303  0.2040 -0.0520 -0.2747
  567SOL    HW1 1700   2.262   0.057   2.358  0.6532 -2.0368  0.0341
  567SOL    HW2 1701   2.328   0.041   2.203 -3.4074  1.7387  2.2107
  568SOL     OW 1702   1.501   1.746   0.227 -0.6691  0.4769 -0.0715
  568SOL    HW1 1703   1.438   1.830   0.222  0.7455 -0.5643 -0.5548
  568SOL    HW2 1704   1.603   1.771   0.249 -0.4064 -0.0112 -1.5429
  569SOL     OW 1705   0.254   0.572   0.879 -0.0933 -0.5512 -0.6533
  569SOL    HW1 1706   0.272   0.513   0.793  0.7651 -3.0339 -0.6249
  569SOL    HW2 1707   0.151   0.576   0.894  0.9172  1.0697 -2.2070
  570SOL     OW 1708   0.665   0.863   2.895  0.1703  0.3233  0.0089
  570SOL    HW1 1709   0.697   0.886   2.797  0.6517 -1.9367  1.2872
  570SOL    HW2 1710   0.674   0.940   2.961  2.1294 -1.1360  0.9293
  571SOL     OW 1711   0.798   3.069   1.070  0.3395 -0.1407 -0.0107
  571SOL    HW1 1712   0.859   3.137   1.015  0.8556 -0.9588 -0.5366
  571SOL    HW2 1713   0.841   2.972   1.073 -1.6246 -1.3207  1.2531
  572SOL     OW 1714   1.653   2.731   1.433  0.3682  0.1568  0.4835
  572SOL    HW1 1715   1.640   2.695   1.336  3.0716  0.7230 -2.3464
  572SOL    HW2 1716   1.678   2.831   1.438  0.0976 -2.6946  0.9485
  573SOL     OW 1717   3.019   0.473   1.929 -0.1976 -0.5367 -0.1434
  573SOL    HW1 1718   2.976   0.381   1.921 -1.9333 -2.2117  0.9337
  573SOL    HW2 1719   3.111   0.478   1.875  1.0780 -1.4132 -1.0106
  574SOL     OW 1720   0.111   1.664   1.104 -0.1765 -0.0849  0.1068
  574SOL    HW1 1721   0.190   1.641   1.166 -2.1138 -0.5462  1.1660
  574SOL    HW2 1722   0.085   1.767   1.106  1.5304  0.5876 -2.3592
  575SOL     OW 1723   0.844   2.253   0.995 -1.1312 -0.0902  0.0933
  575SOL    HW1 1724   0.838   2.282   1.095 -0.3463 -0.8335 -2.2838
  575SOL    HW2 1725   0.860   2.337   0.933  0.9589  2.3996  1.4583
  576SOL     OW 1726   2.931   2.990   1.700 -0.0670 -0.3104  0.1324
  576SOL    HW1 1727   2.836   2.978   1.662  0.2035  0.0467 -0.1811
  576SOL    HW2 1728   2.971   3.092   1.686  1.9254  1.9009 -3.0013
  577SOL     OW 1729   2.669   1.218   3.049  0.3200 -0.0641  0.4562
  577SOL    HW1 1730   2.699   1.134   2.994 -0.7864  1.4773 -1.2209
  577SOL    HW2 1731   2.737   1.234   3.121 -0.7680  0.8990  0.1056
  578SOL     OW 1732   1.399   2.703   2.545 -0.1736  0.4196 -0.0731
  578SOL    HW1 1733   1.299   2.733   2.529 -0.8593  2.3385 -0.1008
  578SOL    HW2 1734   1.463   2.776   2.514  0.0965 -1.9441 -0.8336
  579SOL     OW 1735   0.091   2.401   0.173 -0.2060  0.2138  0.0572
  579SOL    HW1 1736   0.025   2.412   0.255 -3.1214 -1.2375  1.3281
  579SOL    HW2 1737   0.194   2.408   0.200 -0.4511  2.4268  0.5583
  580SOL     OW 1738   0.946   2.673   0.402  0.3157  0.4713 -0.4333
  580SOL    HW1 1739   0.954   2.671   0.299 -1.6001 -0.0089  0.5932
  580SOL    HW2 1740   0.859   2.710   0.436 -0.3051 -3.0974 -0.4687
  581SOL     OW 1741   1.280   2.759   1.475  0.5132  0.3835 -0.2778
  581SOL    HW1 1742   1.293   2.656   1.473 -0.3231  0.1033  0.3731
  581SOL    HW2 1743   1.366   2.810   1.442 -2.9540 -0.3624 -0.3778
  582SOL     OW 1744   1.506   0.061   1.860  0.0097  0.4620 -0.4954
  582SOL    HW1 1745   1.555   0.118   1.935  0.7948  0.1375  0.3858
  582SOL    HW2 1746   1.543   0.088   1.766  0.0087 -0.8989  1.8914
  583SOL     OW 1747   2.426   2.977   0.490  0.0715 -0.1090 -0.1417
  583SOL    HW1 1748   2.521   2.936   0.476 -0.5405 -1.0543 -0.7053
  583SOL    HW2 1749   2.375   2.923   0.565 -1.5439  0.0469  2.6107
  584SOL     OW 1750   1.552   1.085   2.252 -0.2668 -0.0495  0.0307
  584SOL    HW1 1751   1.580   1.180   2.216  0.7870  2.2236  0.9042
  584SOL    HW2 1752   1.634   1.018   2.276  3.4741  2.4341  1.6048
  585SOL     OW 1753   2.034   2.662   2.895  0.1588  0.2136  0.4292
  585SOL    HW1 1754   2.054   2.561   2.863 -0.6224 -0.5211  2.7458
  585SOL    HW2 1755   1.928   2.674   2.904 -2.3426 -1.5852  0.0631
  586SOL     OW 1756   2.911   0.386   1.582 -0.1334 -0.0062 -0.3700
  586SOL    HW1 1757   2.899   0.473   1.626  1.6147 -2.7372 -1.4976
  586SOL    HW2 1758   2.825   0.321   1.595  0.6499 -0.1364  0.4679
  587SOL     OW 1759   2.175   1.480   2.781 -0.0274  0.3365  0.4557
  587SOL    HW1 1760   2.135   1.452   2.686 -0.3022 -0.6034 -0.8778
  587SOL    HW2 1761   2.278   1.504   2.775 -0.0371 -0.6036  0.1839
  588SOL     OW 1762   0.476   2.639   2.271 -0.4665  0.4802  0.0593
  588SOL    HW1 1763   0.431   2.696   2.202 -0.3696 -1.4675 -0.0854
  588SOL    HW2 1764   0.412   2.556   2.295 -0.9582 -2.5849  0.9571
  589SOL     OW 1765   2.172   1.383   2.515 -0.0574  0.5554 -0.0021
  589SOL    HW1 1766   2.100   1.304   2.503  0.0934  1.1073 -0.5441
  589SOL    HW2 1767   2.269   1.347   2.520 -1.0978 -0.3895 -0.5163
  590SOL     OW 1768   2.315   1.695   2.075  0.8148 -0.1590 -0.0248
  590SOL    HW1 1769   2.411   1.657   2.066 -0.2782 -0.7632 -0.7430
  590SOL    HW2 1770   2.302   1.719   2.178  2.1069 -0.7270  1.6075
  591SOL     OW 1771   1.340   2.449   0.189 -0.5606 -0.2871  0.3188
  591SOL    HW1 1772   1.339   2.359   0.134  1.1268  0.7177  2.2605
  591SOL    HW2 1773   1.333   2.433   0.289  0.7528  1.4856  2.3495
  592SOL     OW 1774   1.795   2.358   0.811 -0.1414  0.2820  0.3601
  592SOL    HW1 1775   1.776   2.425   0.729  1.1188  1.1390 -2.6172
  592SOL    HW2 1776   1.895   2.344   0.838  0.7053 -0.0529  1.8459
  593SOL     OW 1777   0.746   0.300   0.186  0.2016  0.5555 -0.2754
  593SOL    HW1 1778   0.782   0.241   0.109  0.2185  0.4641 -1.2613
  593SOL    HW2 1779   0.755   0.403   0.170 -0.8419 -0.8331 -0.5262
  594SOL     OW 1780   1.071   1.790   2.663 -0.8676  0.4830  0.0047
  594SOL    HW1 1781   1.166   1.761   2.643  2.3308 -1.0457  0.8433
  594SOL    HW2 1782   1.065   1.854   2.744 -0.5809 -0.2240  2.2473
  595SOL     OW 1783   1.534   0.150   0.996  0.6257  0.2178  0.0474
  595SOL    HW1 1784   1.598   0.067   0.995  1.3533 -1.9642  0.5298
  595SOL    HW2 1785   1.436   0.135   0.961 -1.2113 -0.5258  3.6196
  596SOL     OW 1786   0.175   1.430   2.183 -0.0178  0.3211 -0.3815
  596SOL    HW1 1787   0.110   1.351   2.192  2.4833  2.8515  0.9755
  596SOL    HW2 1788   0.181   1.486   2.275  2.8447 -1.7326  1.6582
  597SOL     OW 1789   1.989   2.689   1.823  0.0407 -0.1718  0.2482
  597SOL    HW1 1790   1.960   2.663   1.725 -0.1808 -1.5736  1.1834
  597SOL    HW2 1791   2.089   2.688   1.836  2.4826 -0.1861  0.0234
  598SOL     OW 1792   2.483   2.803   1.280  0.0349 -0.6213 -0.2968
  598SOL    HW1 1793   2.571   2.837   1.329  0.6881  0.9321 -2.1974
  598SOL    HW2 1794   2.500   2.716   1.224 -0.2429 -1.9463  0.8309
  599SOL     OW 1795   2.904   0.266   2.517 -0.3890  0.0899  0.1200
  599SOL    HW1 1796   2.994   0.257   2.464 -0.7719  1.1196  1.9668
  599SOL    HW2 1797   2.828   0.325   2.478  2.5145 -0.7969  1.2710
  600SOL     OW 1798   2.771   1.172   2.756 -0.0820  0.7587 -0.0167
  600SOL    HW1 1799   2.728   1.109   2.828 -1.0655 -1.5936 -1.1793
  600SOL    HW2 1800   2.802   1.263   2.793 -2.1031  0.1141 -1.6210
  601SOL     OW 1801   3.000   1.372   1.918  0.8404  0.1440 -0.6951
  601SOL    HW1 1802   2.904   1.397   1.899 -0.7171  0.0973  2.0014
  601SOL    HW2 1803   3.066   1.454   1.929 -2.0708  1.3991 -2.3536
  602SOL     OW 1804   1.525   1.552   2.334 -0.4387  0.1477 -0.0850
  602SOL    HW1 1805   1.427   1.540   2.378 -0.4163 -0.0398  0.1736
  602SOL    HW2 1806   1.592   1.583   2.405 -1.8503 -3.8817  0.9945
  603SOL     OW 1807   0.584   1.175   2.717 -0.6183  0.1794  0.5521
  603SOL    HW1 1808   0.489   1.190   2.673 -1.2258 -0.7933  0.6593
  603SOL    HW2 1809   0.630   1.094   2.672  0.1470  2.5132  1.5673
  604SOL     OW 1810   2.534   1.057   0.229  0.1004 -0.0817  0.1310
  604SOL    HW1 1811   2.637   1.076   0.221 -1.0995  0.1995  2.9345
  604SOL    HW2 1812   2.488   1.001   0.152 -0.8678  0.0132  0.9644
  605SOL     OW 1813   2.600   1.195   1.899 -0.0145  0.0962  0.0183
  605SOL    HW1 1814   2.623   1.096   1.868 -0.9486 -0.6338 -1.2555
  605SOL    HW2 1815   2.633   1.212   1.999  1.5952  0.6751  1.1497
  606SOL     OW 1816   1.521   2.467   2.572 -0.4832 -0.4821  0.2166
  606SOL    HW1 1817   1.446   2.540   2.556  0.6100 -1.6237  1.0866
  606SOL    HW2 1818   1.500   2.369   2.540 -0.4977 -3.0229  0.1745
  607SOL     OW 1819   1.293   1.574   0.292  0.1928  0.4627  0.3276
  607SOL    HW1 1820   1.211   1.638   0.306 -0.3345  2.0064  2.2138
  607SOL    HW2 1821   1.376   1.636   0.265  0.9461  0.2121 -0.6407
  608SOL     OW 1822   1.425   2.788   0.326  0.7247  0.1816  0.1208
  608SOL    HW1 1823   1.482   2.830   0.246  2.6341 -0.1584 -0.5967
  608SOL    HW2 1824   1.394   2.857   0.399  1.6324  1.9439 -1.4713
  609SOL     OW 1825   1.290   1.307   0.188  0.0019 -0.5317 -0.0198
  609SOL    HW1 1826   1.277   1.396   0.238  1.8861 -3.7996  1.4700
  609SOL    HW2 1827   1.277   1.312   0.086 -2.0634 -1.4780 -1.8744
  610SOL     OW 1828   3.062   1.246   2.168  0.4169  0.1633 -0.4882
  610SOL    HW1 1829   3.010   1.160   2.190 -0.3227  0.4370 -1.0110
  610SOL    HW2 1830   3.028   1.306   2.096  2.4552  1.6173  3.3644
  611SOL     OW 1831   2.550   0.181   1.172 -0.2720  0.1650  0.1450
  611SOL    HW1 1832   2.493   0.094   1.197 -1.1862 -0.9529  1.1456
  611SOL    HW2 1833   2.632   0.198   1.237  0.8515  0.9338  0.9827
  612SOL     OW 1834   0.760   2.366   1.240 -0.0254  0.2372 -0.4716
  612SOL    HW1 1835   0.701   2.283   1.257 -1.4108  0.8234 -2.3012
  612SOL    HW2 1836   0.699   2.440   1.204 -1.1386 -1.0841 -0.7470
  613SOL     OW 1837   0.776   1.376   2.387  0.0650 -0.0791 -0.6267
  613SOL    HW1 1838   0.809   1.450   2.320 -1.5831  0.4787  0.9612
  613SOL    HW2 1839   0.744   1.289   2.343 -0.5203  0.9144  0.8210
  614SOL     OW 1840   1.494   1.651   1.949  0.4633  0.0381  0.2905
  614SOL    HW1 1841   1.500   1.723   1.873 -0.3845  0.0400  2.9393
  614SOL    HW2 1842   1.571   1.671   2.011 -2.3767  3.5595 -1.7362
  615SOL     OW 1843   0.694   1.467   1.708 -0.1455 -0.1384  0.3787
  615SOL    HW1 1844   0.669   1.395   1.639  0.7724  0.5217  3.8791
  615SOL    HW2 1845   0.757   1.542   1.665 -0.6027  0.4376 -1.3475
  616SOL     OW 1846   1.133   1.601   2.198 -0.5080 -0.0060 -0.2216
  616SOL    HW1 1847   1.031   1.595   2.216 -1.6598  0.8299 -2.1929
  616SOL    HW2 1848   1.162   1.604   2.097  0.4994 -0.4224  0.0753
  617SOL     OW 1849   2.931   1.571   1.621 -0.7010 -0.3160 -0.5727
  617SOL    HW1 1850   2.843   1.521   1.656 -2.5201 -1.2421 -0.1992
  617SOL    HW2 1851   2.983   1.517   1.549 -0.5874 -1.4964 -0.1011
  618SOL     OW 1852   1.907   2.003   1.468 -0.7090  0.2230  0.4380
  618SOL    HW1 1853   1.961   1.984   1.384 -1.8230 -0.5745  0.8264
  618SOL    HW2 1854   1.885   1.913   1.525 -1.3644 -1.6103  1.5790
  619SOL     OW 1855   1.788   0.523   2.380  0.1686 -0.4428  0.4513
  619SOL    HW1 1856   1.717   0.585   2.335  0.1325 -3.0190 -0.1009
  619SOL    HW2 1857   1.745   0.426   2.396 -0.9873 -0.5316  0.4048
  620SOL     OW 1858   2.233   2.915   0.676  0.1607  0.2713 -0.0648
  620SOL    HW1 1859   2.147   2.972   0.688  1.5393 -0.7425 -2.9127
  620SOL    HW2 1860   2.266   2.869   0.767 -0.3535 -0.4722  0.5564
  621SOL     OW 1861   2.135   1.864   1.356  0.0780 -0.4993 -0.4295
  621SOL    HW1 1862   2.145   1.858   1.458 -0.2517 -1.7741  2.4534
  621SOL    HW2 1863   2.148   1.779   1.300 -0.3381 -1.9901  0.5799
  622SOL     OW 1864   2.247   0.972   1.846  0.2622 -0.3222 -0.1295
  622SOL    HW1 1865   2.323   0.906   1.821 -0.9160 -0.4520 -2.8140
  622SOL    HW2 1866   2.152   0.932   1.864  4.0070  1.4233 -0.1507
  623SOL     OW 1867   1.262   0.933   2.582  0.0795  0.0632  0.1417
  623SOL    HW1 1868   1.216   0.857   2.637  1.3559  0.6716  1.1189
  623SOL    HW2 1869   1.261   0.915   2.480  2.8306  3.0973 -2.0025
  624SOL     OW 1870   0.537   0.694   3.066  0.6397  0.6057 -0.3348
  624SOL    HW1 1871   0.570   0.735   2.974 -1.8586 -2.3066  0.6672
  624SOL    HW2 1872   0.544   0.759   3.150 -2.7786 -2.1654 -2.9160
  625SOL     OW 1873   2.787   1.760   0.820  0.3867  0.6993  0.4661
  625SOL    HW1 1874   2.779   1.811   0.908 -1.8799  0.7306 -0.3740
  625SOL    HW2 1875   2.701   1.712   0.786 -1.0427  3.1666  0.1476
  626SOL     OW 1876   0.394   2.807   2.076  0.3767  0.4648 -0.2006
  626SOL    HW1 1877   0.447   2.888   2.107 -1.4142 -0.1141 -0.5998
  626SOL    HW2 1878   0.354   2.818   1.983  1.4013  1.3939  0.9304
  627SOL     OW 1879   0.727   1.022   1.512  0.1329  0.2416  0.4768
  627SOL    HW1 1880   0.782   0.929   1.503 -1.0124  1.0230 -0.2957
  627SOL    HW2 1881   0.777   1.097   1.466 -0.7486 -2.5288 -0.5309
  628SOL     OW 1882   2.458   0.117   0.659 -0.2203 -0.6296 -0.5115
  628SOL    HW1 1883   2.444   0.045   0.589  1.2637  1.4306 -0.4778
  628SOL    HW2 1884   2.370   0.146   0.709  1.7775  0.7903  2.4568
  629SOL     OW 1885   1.991   0.972   1.952  0.2644 -0.5946 -0.4042
  629SOL    HW1 1886   2.036   0.987   2.047 -0.1018 -0.8062 -0.0976
  629SOL    HW2 1887   1.931   1.052   1.926 -0.9371  1.9101  1.7135
  630SOL     OW 1888   2.838   2.215   0.765  0.2355  0.3203 -0.3637
  630SOL    HW1 1889   2.759   2.257   0.818  0.8266  0.5054  0.5076
  630SOL    HW2 1890   2.807   2.123   0.710 -0.9955 -0.5787 -2.1267
  631SOL     OW 1891   2.999   0.176   2.120  0.1761  0.2527  0.0252
  631SOL    HW1 1892   3.042   0.202   2.208  0.1995  0.6225  2.2252
  631SOL    HW2 1893   3.066   0.178   2.042  1.1573  2.0671  0.6262
  632SOL     OW 1894   2.402   2.530   0.774  0.8960 -0.5168 -0.3876
  632SOL    HW1 1895   2.466   2.595   0.829  1.7443  0.7118 -0.4407
  632SOL    HW2 1896   2.372   2.578   0.690 -1.0014  2.8665  0.7244
  633SOL     OW 1897   1.594   1.255   2.701  0.2383 -0.1632  0.0403
  633SOL    HW1 1898   1.585   1.331   2.769  0.7042  0.2265 -0.4403
  633SOL    HW2 1899   1.513   1.241   2.636 -1.6150 -0.8775  1.8000
  634SOL     OW 1900   0.663   2.077   0.906  0.4501 -0.0029  0.4208
  634SOL    HW1 1901   0.574   2.103   0.957  2.1821  0.2934  1.9522
  634SOL    HW2 1902   0.739   2.140   0.928  0.0788  2.6186 -1.3631
  635SOL     OW 1903   0.041   2.234   3.048 -0.4883 -0.5369 -0.3057
  635SOL    HW1 1904   0.030   2.318   2.986 -3.5085  0.1375 -0.3014
  635SOL    HW2 1905   0.049   2.263   3.150  0.8017 -1.0244  3.1579
  636SOL     OW 1906   2.333   2.848   2.014  0.2208 -0.2082 -0.3249
  636SOL    HW1 1907   2.305   2.943   1.988  1.1156 -0.6425 -2.6715
  636SOL    HW2 1908   2.279   2.815   2.101 -1.9398 -1.4179  2.0804
  637SOL     OW 1909   2.580   0.731   2.094  0.0423  0.6718  0.4540
  637SOL    HW1 1910   2.514   0.746   2.017 -0.8089 -0.6964  2.1865
  637SOL    HW2 1911   2.658   0.797   2.090 -1.8703 -2.1243  0.9356
  638SOL     OW 1912   2.410   1.915   1.416  0.1655  0.9679 -0.5882
  638SOL    HW1 1913   2.310   1.920   1.378 -0.0443  0.8139 -1.8442
  638SOL    HW2 1914   2.452   1.819   1.424  4.3091 -0.1321  0.5509
  639SOL     OW 1915   1.290   2.237   1.579  0.1142 -0.1851  0.1839
  639SOL    HW1 1916   1.274   2.159   1.512  0.9383  0.9271  0.1009
  639SOL    HW2 1917   1.226   2.229   1.663 -3.2358  1.8354 -0.1904
  640SOL     OW 1918   0.266   1.193   1.564 -0.4678 -0.2771  0.3645
  640SOL    HW1 1919   0.288   1.282   1.614  1.7933 -1.0259  0.2758
  640SOL    HW2 1920   0.345   1.145   1.513  1.0449  0.2397 -3.1047
  641SOL     OW 1921   1.878   0.266   1.425  0.1255  0.2854 -0.2917
  641SOL    HW1 1922   1.817   0.335   1.475 -0.6573 -1.2464 -1.8247
  641SOL    HW2 1923   1.863   0.176   1.459 -0.5799 -0.2614  0.0187
  642SOL     OW 1924   2.001   0.116   0.325  0.3933  0.2917  0.5956
  642SOL    HW1 1925   2.098   0.109   0.356 -0.6569  0.0190 -2.0055
  642SOL    HW2 1926   1.927   0.096   0.397 -1.6250  0.7143  2.5036
  643SOL     OW 1927   2.793   1.868   2.122  0.6107 -0.2754  0.5487
  643SOL    HW1 1928   2.751   1.808   2.047 -0.6175  0.2958  0.7447
  643SOL    HW2 1929   2.815   1.962   2.077 -2.3972  1.0337  2.1365
  644SOL     OW 1930   2.202   2.286   1.236  0.4772  0.1603 -0.0892
  644SOL    HW1 1931   2.290   2.239   1.204 -1.2124 -0.4911 -0.9734
  644SOL    HW2 1932   2.207   2.302   1.343  0.6040 -0.1233 -2.4770
  645SOL     OW 1933   0.674   0.828   1.089  0.1339  0.0277  0.2083
  645SOL    HW1 1934   0.587   0.779   1.060 -0.7464  1.0723 -1.1737
  645SOL    HW2 1935   0.679   0.927   1.059 -4.2251  0.9455 -0.8926
  646SOL     OW 1936   1.454   1.897   1.809 -0.0440  0.1387  0.0924
  646SOL    HW1 1937   1.531   1.966   1.780 -1.8541  0.2243  1.8085
  646SOL    HW2 1938   1.403   1.943   1.887  1.3044 -0.5572 -0.1928
  647SOL     OW 1939   0.888   0.912   0.686 -0.3660 -0.3943 -0.2023
  647SOL    HW1 1940   0.967   0.914   0.757 -0.5881 -0.8818  1.3105
  647SOL    HW2 1941   0.799   0.890   0.737  1.6235 -2.5985 -1.1605
  648SOL     OW 1942   0.054   0.232   0.331 -0.8487 -0.2532 -0.3473
  648SOL    HW1 1943   0.017   0.145   0.285 -0.7270 -0.2258  2.7383
  648SOL    HW2 1944   0.058   0.307   0.268 -0.2883 -3.7230 -0.5963
  649SOL     OW 1945   0.001   0.027   0.947 -0.1007  0.2329  0.3358
  649SOL    HW1 1946   0.106   0.039   0.925  1.5123  0.5342 -1.1614
  649SOL    HW2 1947  -0.033   0.072   1.033 -1.7640  2.7871 -1.4004
  650SOL     OW 1948   2.747   0.715   1.461  0.2216 -0.0364  0.4536
  650SOL    HW1 1949   2.648   0.683   1.477 -2.2267  0.6475 -2.8291
  650SOL    HW2 1950   2.756   0.807   1.411 -1.5311  1.1333 -0.7660
  651SOL     OW 1951   0.891   1.617   1.496 -0.5655 -0.2093 -0.7681
  651SOL    HW1 1952   0.945   1.701   1.530  1.2490 -1.2996  1.7012
  651SOL    HW2 1953   0.799   1.639   1.455  1.1443 -1.9993  5.2326
  652SOL     OW 1954   2.299   2.514   2.358 -0.4647  0.0183 -0.1637
  652SOL    HW1 1955   2.216   2.504   2.418  0.0042  2.1821 -0.3277
  652SOL    HW2 1956   2.283   2.589   2.278 -3.9264  1.3672 -1.2706
  653SOL     OW 1957   2.785   1.153   0.223 -0.4527 -0.1909 -0.6810
  653SOL    HW1 1958   2.842   1.235   0.257  3.2723  1.7120 -1.5070
  653SOL    HW2 1959   2.827   1.057   0.235 -2.9439 -0.0085  0.0316
  654SOL     OW 1960   1.185   2.229   1.237  0.0796  0.1866  0.1794
  654SOL    HW1 1961   1.201   2.152   1.306  1.2973 -1.6990 -0.8647
  654SOL    HW2 1962   1.258   2.215   1.165 -0.3950 -1.6026 -0.2583
  655SOL     OW 1963   0.233   1.059   1.918  0.0185 -0.0798  0.4249
  655SOL    HW1 1964   0.262   0.990   1.847 -0.4365 -3.2054 -3.0586
  655SOL    HW2 1965   0.310   1.128   1.934  2.0863 -0.6393 -2.0699
  656SOL     OW 1966   2.483   2.403   2.579  0.7622  0.1594  0.2191
  656SOL    HW1 1967   2.586   2.411   2.573 -2.6882  0.9010  1.3312
  656SOL    HW2 1968   2.436   2.474   2.518 -0.6964 -0.8014  2.5409
  657SOL     OW 1969   3.049   1.106   1.880 -0.3568 -0.1836 -0.2039
  657SOL    HW1 1970   3.020   1.206   1.894 -1.6380 -1.1007  0.8398
  657SOL    HW2 1971   3.148   1.093   1.903 -0.3895  2.0546 -0.8060
  658SOL     OW 1972   1.697   0.257   2.374  0.1140  0.8914  0.0066
  658SOL    HW1 1973   1.709   0.165   2.426  1.5289 -2.8722 -0.1371
  658SOL    HW2 1974   1.758   0.250   2.288  0.1327  0.7879  3.0436
  659SOL     OW 1975   1.412   0.621   2.827 -0.0565 -0.1340 -0.1396
  659SOL    HW1 1976   1.481   0.688   2.861 -0.3022  0.2459 -1.1781
  659SOL    HW2 1977   1.334   0.674   2.779 -0.8930  0.2598  1.8392
  660SOL     OW 1978   1.374   0.425   1.412 -0.4305 -0.2668  0.1370
  660SOL    HW1 1979   1.390   0.422   1.518 -1.0486 -0.4802  0.0134
  660SOL    HW2 1980   1.434   0.360   1.357  1.1009 -1.2921 -0.3183
  661SOL     OW 1981   2.449   1.118   0.676 -0.3710 -0.2387 -0.1988
  661SOL    HW1 1982   2.464   1.027   0.630 -0.6877  0.3116  0.6068
  661SOL    HW2 1983   2.440   1.198   0.610  0.4905 -0.6942  1.1655
  662SOL     OW 1984   1.265   0.459   1.848  0.2098  0.1174  0.1932
  662SOL    HW1 1985   1.244   0.359   1.852 -0.4989 -1.6794 -1.3401
  662SOL    HW2 1986   1.233   0.496   1.942 -1.6561  2.5336  1.5501
  663SOL     OW 1987   0.864   1.571   2.216  0.2903 -0.2231  0.0709
  663SOL    HW1 1988   0.822   1.661   2.249 -0.3667 -0.0127  2.9351
  663SOL    HW2 1989   0.830   1.544   2.116  0.3775 -2.0513 -4.2329
  664SOL     OW 1990   1.653   2.063   1.380  0.0355 -0.0140  0.0313
  664SOL    HW1 1991   1.585   2.003   1.434  1.5647 -0.8051  0.7330
  664SOL    HW2 1992   1.750   2.050   1.412  0.0838  1.6084 -1.0549
  665SOL     OW 1993   2.299   0.623   1.985 -0.4659 -0.1537 -0.0470
  665SOL    HW1 1994   2.317   0.526   2.015  0.1863  2.9776 -2.0001
  665SOL    HW2 1995   2.226   0.663   2.047  0.5062 -0.9090 -1.9286
  666SOL     OW 1996   0.475   2.276   0.465  0.5289  0.6556  0.0979
  666SOL    HW1 1997   0.518   2.373   0.453  3.3344 -1.2822  0.0544
  666SOL    HW2 1998   0.420   2.263   0.551  0.2820  1.2968 -0.4018
  667SOL     OW 1999   2.082   0.204   1.017 -0.0948  0.6515 -0.5079
  667SOL    HW1 2000   2.138   0.287   1.030 -0.1123 -0.8845  2.2619
  667SOL    HW2 2001   1.989   0.220   1.070 -1.3698 -0.1824  1.3679
  668SOL     OW 2002   2.046   0.651   1.279  0.5997 -0.0822  0.1233
  668SOL    HW1 2003   2.080   0.606   1.194  0.4627 -0.4075  0.7528
  668SOL    HW2 2004   2.032   0.578   1.356 -0.6308 -1.8373  0.6212
  669SOL     OW 2005   3.022   2.156   0.972  0.8119  0.9352  0.3666
  669SOL    HW1 2006   2.949   2.183   0.900  1.4167  0.4015  2.1343
  669SOL    HW2 2007   2.981   2.152   1.066 -1.5636 -0.5627 -3.4048
  670SOL     OW 2008   2.793   2.347   2.005 -0.2748  0.1822  0.3133
  670SOL    HW1 2009   2.739   2.339   2.094  0.2785 -0.0903  0.5494
  670SOL    HW2 2010   2.754   2.422   1.939 -0.0085  0.8679  0.4673
  671SOL     OW 2011   1.689   1.729   1.475  0.5829  0.2233 -0.0935
  671SOL    HW1 2012   1.700   1.720   1.375  2.0128  1.9626 -1.2490
  671SOL    HW2 2013   1.601   1.785   1.492 -2.1788  2.8507 -0.5954
  672SOL     OW 2014   0.399   0.677   2.456  0.2882  0.3580  0.0941
  672SOL    HW1 2015   0.420   0.697   2.357  1.5855  0.8683 -1.7301
  672SOL    HW2 2016   0.305   0.719   2.486  0.5506 -1.1642  2.1594
  673SOL     OW 2017   0.146   1.253   1.071 -0.3094 -0.0666 -0.0937
  673SOL    HW1 2018   0.155   1.332   1.139  0.1040 -0.8892  2.2199
  673SOL    HW2 2019   0.242   1.208   1.051 -1.1381  0.2268 -0.2986
  674SOL     OW 2020   1.592   2.907   0.145  0.6036  0.2215 -0.1691
  674SOL    HW1 2021   1.606   3.009   0.168 -0.3339  0.6572  1.4446
  674SOL    HW2 2022   1.668   2.867   0.091 -0.1255  0.9395  2.0913
  675SOL     OW 2023   1.727   0.882   2.334  0.3462 -0.4369 -0.2247
  675SOL    HW1 2024   1.824   0.853   2.321  0.0827 -0.5693  1.5020
  675SOL    HW2 2025   1.668   0.813   2.286  1.0004 -3.2387 -1.1135
  676SOL     OW 2026   2.531   1.526   2.024  0.1551 -0.0938 -0.2488
  676SOL    HW1 2027   2.508   1.479   1.934 -0.7321  0.3227 -0.0823
  676SOL    HW2 2028   2.563   1.460   2.101  2.2330  1.8203  1.7483
  677SOL     OW 2029   1.943   0.550   0.912  0.3866  0.2086  0.5501
  677SOL    HW1 2030   1.948   0.652   0.932  0.4726  0.2028  0.0612
  677SOL    HW2 2031   1.871   0.498   0.958 -0.0707 -0.3184 -2.3830
  678SOL     OW 2032   0.080   0.768   1.645 -0.0270 -0.4764  0.3233
  678SOL    HW1 2033   0.179   0.789   1.670 -0.3479 -0.6815  1.8873
  678SOL    HW2 2034   0.018   0.779   1.731  0.4633 -3.7929  0.7112
  679SOL     OW 2035   2.443   1.174   1.143  0.2331 -0.7545 -0.2839
  679SOL    HW1 2036   2.351   1.169   1.189 -0.0787 -2.3882 -2.1250
  679SOL    HW2 2037   2.465   1.085   1.097 -0.4387  1.8264  0.1795
  680SOL     OW 2038   2.866   0.650   1.698 -0.4634  0.2744 -0.2877
  680SOL    HW1 2039   2.847   0.689   1.603  2.3572 -2.6227  0.5628
  680SOL    HW2 2040   2.923   0.705   1.762 -1.8197  0.0689 -1.0853
  681SOL     OW 2041   3.061   0.151   1.652 -0.4361  0.5252  0.0052
  681SOL    HW1 2042   3.140   0.124   1.585 -0.0121 -1.8871  0.1407
  681SOL    HW2 2043   3.013   0.238   1.629  0.5400  0.3465 -1.3216
  682SOL     OW 2044   0.715   3.087   1.333 -0.1379 -0.3515  0.0658
  682SOL    HW1 2045   0.668   3.005   1.367  2.3245  2.5515  0.6843
  682SOL    HW2 2046   0.743   3.081   1.234  1.2048  2.0454  1.6806
  683SOL     OW 2047   1.423   0.233   2.209  0.0864 -0.0529  0.9885
  683SOL    HW1 2048   1.428   0.287   2.297 -0.9442  0.5549 -0.3306
  683SOL    HW2 2049   1.501   0.261   2.141  0.4095 -0.5119  2.1285
  684SOL     OW 2050   1.432   2.132   0.479 -0.2181  0.0479 -0.0751
  684SOL    HW1 2051   1.499   2.076   0.536 -1.2204  0.0202  0.0619
  684SOL    HW2 2052   1.352   2.074   0.443 -1.5761  0.9928 -0.1112
  685SOL     OW 2053   2.153   1.918   1.989 -0.5040 -0.2365  0.4843
  685SOL    HW1 2054   2.200   1.982   1.924 -0.1051 -0.8314 -0.0056
  685SOL    HW2 2055   2.206   1.831   2.007 -0.2917 -1.8693 -1.2352
  686SOL     OW 2056   1.536   1.709   2.772 -0.0356  0.3789 -0.4055
  686SOL    HW1 2057   1.546   1.606   2.773  1.7653 -3.0195 -0.9618
  686SOL    HW2 2058   1.562   1.751   2.862 -3.7441 -1.0391  1.0555
  687SOL     OW 2059   1.350   2.495   1.903 -0.2984 -0.0119  0.2372
  687SOL    HW1 2060   1.390   2.418   1.839  1.5035  2.0266 -2.1757
  687SOL    HW2 2061   1.402   2.509   1.993  0.4166 -0.8205  1.1732
  688SOL     OW 2062   2.075   1.518   1.581 -0.8042  0.2940  0.1828
  688SOL    HW1 2063   2.173   1.529   1.545 -0.9841 -0.0496 -1.0993
  688SOL    HW2 2064   2.014   1.485   1.503  0.1646 -1.2339 -3.0834
  689SOL     OW 2065   2.463   1.067   2.710  0.8542  0.2986  0.5702
  689SOL    HW1 2066   2.370   1.032   2.746 -1.8169 -0.4148  0.1094
  689SOL    HW2 2067   2.532   1.052   2.786  0.5293 -2.6118 -0.1800
  690SOL     OW 2068   2.243   2.777   3.038  0.3810  0.3518 -0.3728
  690SOL    HW1 2069   2.160   2.738   2.989 -1.4442 -2.7543 -0.5263
  690SOL    HW2 2070   2.230   2.854   3.107  1.1252  0.4637 -0.8596
  691SOL     OW 2071   2.595   0.450   2.161  0.3561 -0.1409 -1.0163
  691SOL    HW1 2072   2.678   0.398   2.129  0.2660  0.5584  0.4064
  691SOL    HW2 2073   2.592   0.544   2.118  0.8547 -0.5035  0.8379
  692SOL     OW 2074   2.712   1.255   0.650  0.1769 -0.2151  0.0421
  692SOL    HW1 2075   2.634   1.216   0.708 -0.2234 -1.3108  0.4253
  692SOL    HW2 2076   2.758   1.330   0.698  0.4336 -1.5017 -1.2448
  693SOL     OW 2077   2.814   2.955   0.626 -0.1840  0.3789  0.2759
  693SOL    HW1 2078   2.845   3.033   0.682 -1.3555  0.1529 -0.9007
  693SOL    HW2 2079   2.793   2.988   0.531 -0.8615  0.6122  1.5713
  694SOL     OW 2080   2.409   2.156   0.063  0.3885  0.3126 -0.3208
  694SOL    HW1 2081   2.386   2.254   0.076 -0.9850 -1.8830 -0.6322
  694SOL    HW2 2082   2.325   2.087   0.076  1.0503  1.0443  2.5093
  695SOL     OW 2083   0.548   2.900   1.482 -0.2315 -0.0889 -0.0278
  695SOL    HW1 2084   0.491   2.816   1.480  0.0702 -0.5444  0.6812
  695SOL    HW2 2085   0.528   2.957   1.566 -0.9269  1.0002 -3.4868
  696SOL     OW 2086   2.734   1.986   0.655  0.0685 -0.2129  0.2765
  696SOL    HW1 2087   2.783   1.899   0.684  0.7915  1.3399 -0.6479
  696SOL    HW2 2088   2.665   1.964   0.579  0.6784  1.1038  0.7747
  697SOL     OW 2089   1.669   2.035   1.726  0.2716 -0.1045  0.5134
  697SOL    HW1 2090   1.745   1.992   1.780  0.0014 -1.1220 -1.4420
  697SOL    HW2 2091   1.709   2.104   1.662 -0.0025 -0.0656 -0.9584
  698SOL     OW 2092   2.922   0.338   2.809  0.2241  0.3147 -0.1771
  698SOL    HW1 2093   2.937   0.298   2.710  0.5663 -2.0131 -1.0765
  698SOL    HW2 2094   2.983   0.306   2.886  2.6115  1.7964  1.6144
  699SOL     OW 2095   1.530   0.127   2.929  0.1069  0.4650  0.1443
  699SOL    HW1 2096   1.506   0.029   2.916  1.6253  1.6235  0.9391
  699SOL    HW2 2097   1.571   0.170   2.843 -0.9733 -0.0076 -1.3976
  700SOL     OW 2098   1.005   2.417   1.376  0.1297  0.5845 -0.2750
  700SOL    HW1 2099   1.090   2.364   1.339  0.2935 -1.4317 -2.0614
  700SOL    HW2 2100   0.922   2.405   1.320  2.0663 -0.1009  0.0510
  701SOL     OW 2101   1.834   2.830   0.027 -0.7940  1.0716 -0.2045
  701SOL    HW1 2102   1.869   2.791   0.119  0.5993  0.0757 -2.1819
  701SOL    HW2 2103   1.885   2.915  -0.001  0.7709  0.8182 -0.5294
  702SOL     OW 2104   2.091   1.358   1.817  0.0872 -0.2567  0.0269
  702SOL    HW1 2105   2.179   1.306   1.848  1.7642 -0.7494  0.4257
  702SOL    HW2 2106   2.094   1.421   1.739 -2.6969 -1.0360  0.2559
  703SOL     OW 2107   1.972   0.889   1.483 -0.3860  0.2011  0.2002
  703SOL    HW1 2108   1.983   0.785   1.500  0.3156  0.6312 -0.4362
  703SOL    HW2 2109   2.046   0.952   1.518 -0.5502  1.8768 -0.3187
  704SOL     OW 2110   0.277   2.071   1.792  0.5304 -0.1058  0.3817
  704SOL    HW1 2111   0.290   2.008   1.874 -2.0968  1.8698 -0.6441
  704SOL    HW2 2112   0.364   2.115   1.757 -0.9944  1.1740 -3.4281
  705SOL     OW 2113   2.551   1.414   0.855 -0.0853  0.3473 -0.0893
  705SOL    HW1 2114   2.463   1.401   0.906  1.1333  0.2774  3.1143
  705SOL    HW2 2115   2.631   1.406   0.918 -0.7774 -0.4735 -0.8624
  706SOL     OW 2116   0.639   1.744   1.889  0.4658  0.0363  0.2711
  706SOL    HW1 2117   0.650   1.651   1.922 -1.5371  0.2636 -0.1923
  706SOL    HW2 2118   0.714   1.810   1.919 -0.7177  1.0352 -0.0849
  707SOL     OW 2119   2.329   1.232   1.873  0.2853 -0.5871 -1.2362
  707SOL    HW1 2120   2.435   1.220   1.877  2.7713 -2.1213 -2.5505
  707SOL    HW2 2121   2.284   1.139   1.864 -1.5511 -0.9485 -2.6660
  708SOL     OW 2122   3.050   0.527   3.023 -0.2924 -0.2366 -0.1703
  708SOL    HW1 2123   3.043   0.584   2.942  2.0492 -0.4521  4.0777
  708SOL    HW2 2124   3.072   0.432   3.009 -2.7248  1.6418  0.1329
  709SOL     OW 2125   1.754   1.840   0.202  0.2759 -0.3365 -0.1364
  709SOL    HW1 2126   1.813   1.900   0.264 -2.8961  0.3252 -2.3418
  709SOL    HW2 2127   1.779   1.858   0.102  1.4267 -0.0980 -1.8526
  710SOL     OW 2128   1.768   1.662   2.446 -0.1590  0.3611  0.2571
  710SOL    HW1 2129   1.810   1.629   2.356  3.8151 -2.5536 -0.7964
  710SOL    HW2 2130   1.823   1.620   2.522 -0.7752  1.2364  3.0034
  711SOL     OW 2131   2.626   2.901   0.968 -0.2101  0.3615 -0.1630
  711SOL    HW1 2132   2.646   3.000   0.947  3.4539  0.6345  2.5347
  711SOL    HW2 2133   2.711   2.850   0.998 -0.0083 -2.9768  0.0350
  712SOL     OW 2134   1.493   2.289   1.746  0.0356  0.1648 -0.2756
  712SOL    HW1 2135   1.547   2.207   1.776  0.8764 -1.6802 -2.7368
  712SOL    HW2 2136   1.420   2.261   1.674 -0.6378 -1.7316 -0.4955
  713SOL     OW 2137   2.860   1.334   2.506 -0.1247 -0.4044  0.4210
  713SOL    HW1 2138   2.911   1.248   2.480 -1.2261  0.6605 -0.1978
  713SOL    HW2 2139   2.783   1.320   2.567  0.5759 -0.9758  0.9557
  714SOL     OW 2140   2.668   0.433   2.438 -0.1962 -0.0758  0.8521
  714SOL    HW1 2141   2.602   0.400   2.510 -1.5758  0.5821 -1.1153
  714SOL    HW2 2142   2.624   0.444   2.346  2.1344  1.1893  1.0651
  715SOL     OW 2143   1.653   2.102   1.114  0.2693 -0.8011  0.3835
  715SOL    HW1 2144   1.562   2.143   1.094  1.5867  0.3114 -0.2452
  715SOL    HW2 2145   1.662   2.088   1.218  0.5982 -3.9690 -0.8025
  716SOL     OW 2146   1.193   0.209   1.442 -0.7701  0.2344 -0.3039
  716SOL    HW1 2147   1.088   0.198   1.440  1.3505 -0.3395  1.3054
  716SOL    HW2 2148   1.225   0.305   1.427 -0.3831 -1.3644  0.1650
  717SOL     OW 2149   1.054   0.591   1.592 -0.1258 -0.9017  0.1587
  717SOL    HW1 2150   1.149   0.634   1.606  0.3525  2.2884 -1.7048
  717SOL    HW2 2151   1.047   0.547   1.496 -3.2740 -1.8815  0.5099
  718SOL     OW 2152   0.662   1.104   1.003  0.0069  0.2798 -0.1402
  718SOL    HW1 2153   0.632   1.083   0.902 -0.0040  1.3102 -1.3293
  718SOL    HW2 2154   0.739   1.177   1.008  1.9662 -0.8569  1.8476
  719SOL     OW 2155   0.700   1.815   2.244 -0.7370 -0.3128  0.3237
  719SOL    HW1 2156   0.759   1.859   2.320 -2.4558  2.4823 -2.1626
  719SOL    HW2 2157   0.623   1.882   2.212 -3.1257  3.7042 -0.0426
  720SOL     OW 2158   2.273   1.141   0.225  0.3399  0.0600  0.3392
  720SOL    HW1 2159   2.375   1.139   0.231 -0.6039  0.3859 -1.8367
  720SOL    HW2 2160   2.228   1.155   0.316 -1.8828  3.1929 -2.7220
  721SOL     OW 2161   2.238   0.014   2.003  0.1098 -0.1579 -0.0457
  721SOL    HW1 2162   2.266   0.093   1.943 -1.5398  0.7514  1.3293
  721SOL    HW2 2163   2.138   0.013   2.029  0.1520 -0.7347  0.0272
  722SOL     OW 2164   2.394   1.649   0.484  0.3507  0.3010 -0.4331
  722SOL    HW1 2165   2.400   1.575   0.407 -0.7811 -2.5908  0.3554
  722SOL    HW2 2166   2.297   1.668   0.519 -1.1374  1.8924 -0.1701
  723SOL     OW 2167   2.603   2.852   1.900  0.3151 -0.1814 -0.1702
  723SOL    HW1 2168   2.666   2.886   1.978 -0.2591  2.2904  0.3020
  723SOL    HW2 2169   2.506   2.839   1.927  3.5859 -0.5144  0.6031
  724SOL     OW 2170   0.292   2.419   2.357 -0.1003 -0.1690  0.1272
  724SOL    HW1 2171   0.198   2.452   2.379 -1.0885 -0.1089  0.5929
  724SOL    HW2 2172   0.336   2.394   2.449 -1.1027 -0.5939  0.2205
  725SOL     OW 2173   2.288   2.788   1.477  0.5036  0.0098  0.0941
  725SOL    HW1 2174   2.352   2.802   1.398  2.7420  3.4107 -2.1027
  725SOL    HW2 2175   2.286   2.686   1.504 -2.3434 -2.5746 -0.2258
  726SOL     OW 2176   2.396   2.250   0.808  0.2321 -0.3127 -0.4189
  726SOL    HW1 2177   2.368   2.349   0.824 -0.2641 -0.1762  2.9748
  726SOL    HW2 2178   2.358   2.218   0.718  0.6699  3.7891  0.4157
  727SOL     OW 2179   0.238   3.072   0.164  0.3883  0.4166 -0.4059
  727SOL    HW1 2180   0.247   2.990   0.104  0.5740  1.6532  0.9981
  727SOL    HW2 2181   0.281   3.158   0.124 -0.8767  0.5986  1.2985
  728SOL     OW 2182   2.836   0.643   1.041 -0.2830 -0.0893  1.2995
  728SOL    HW1 2183   2.755   0.605   0.990 -1.5970 -0.3218  1.3869
  728SOL    HW2 2184   2.850   0.603   1.136  0.0177  0.8761  1.3432
  729SOL     OW 2185   2.961   2.481   0.730  0.2034 -0.0629 -0.1714
  729SOL    HW1 2186   2.921   2.384   0.732  1.8769 -4.3979  2.1021
  729SOL    HW2 2187   3.066   2.479   0.725  1.5759  1.0812  1.6976
  730SOL     OW 2188   2.626   0.568   0.872 -0.4120 -0.7546 -0.5403
  730SOL    HW1 2189   2.571   0.654   0.878 -0.2593  0.8819  2.2781
  730SOL    HW2 2190   2.702   0.559   0.802  0.3493  3.4932  1.4901
  731SOL     OW 2191   0.101   2.129   2.464  0.4295  0.1681  0.1508
  731SOL    HW1 2192   0.121   2.171   2.552  0.0733  0.4722  0.6689
  731SOL    HW2 2193   0.015   2.161   2.415  2.8025  0.2594  0.8963
  732SOL     OW 2194   1.138   2.842   2.004  0.7701 -0.0521  0.9914
  732SOL    HW1 2195   1.160   2.772   2.078 -0.7300 -1.2389 -0.3845
  732SOL    HW2 2196   1.133   2.795   1.910 -0.8150  0.1955  1.4117
  733SOL     OW 2197   3.037   0.688   2.107  0.1431  0.1930  0.2285
  733SOL    HW1 2198   3.131   0.728   2.078 -1.0335  0.5645  0.9168
  733SOL    HW2 2199   3.025   0.591   2.069 -0.0428  0.8908  0.6293
  734SOL     OW 2200   1.387   0.381   2.699 -0.1000  0.3078 -0.1663
  734SOL    HW1 2201   1.411   0.467   2.747 -1.0491 -0.2486 -1.5991
  734SOL    HW2 2202   1.316   0.315   2.748 -0.1879 -1.3284 -0.0304
  735SOL     OW 2203   2.803   2.637   2.294 -0.1952 -0.3398 -0.0197
  735SOL    HW1 2204   2.722   2.658   2.227  1.0723  1.3267 -3.3905
  735SOL    HW2 2205   2.894   2.631   2.245  2.2170  0.6661  1.5407
  736SOL     OW 2206   0.799   0.392   2.599  0.1788 -0.4673 -0.5621
  736SOL    HW1 2207   0.724   0.464   2.594  1.0846 -0.1541 -1.3016
  736SOL    HW2 2208   0.813   0.340   2.506 -2.2401 -0.9192 -4.8351
  737SOL     OW 2209   2.701   0.471   2.847 -0.3552 -0.2684  0.6671
  737SOL    HW1 2210   2.677   0.454   2.949 -2.0006  1.7194  0.9150
  737SOL    HW2 2211   2.794   0.424   2.820 -0.6533 -1.7134 -1.1780
  738SOL     OW 2212   1.642   1.162   3.010 -0.4835 -0.3919  0.2819
  738SOL    HW1 2213   1.742   1.177   2.991  1.1733 -2.0678  3.2446
  738SOL    HW2 2214   1.622   1.086   3.077  0.1066 -0.9278 -0.6624
  739SOL     OW 2215   1.773   0.552   0.676  0.4252 -0.3402  0.1948
  739SOL    HW1 2216   1.825   0.546   0.762 -1.8532 -0.8769 -0.6167
  739SOL    HW2 2217   1.814   0.499   0.598  2.2127 -1.9695  0.7500
  740SOL     OW 2218   1.894   2.016   2.141 -0.0543  0.6684 -0.0108
  740SOL    HW1 2219   1.951   1.957   2.081  1.0180  0.7935  0.1497
  740SOL    HW2 2220   1.809   2.053   2.097  1.6668 -1.3592  0.1442
  741SOL     OW 2221   2.506   0.088   2.575 -0.1081 -0.4238  0.5387
  741SOL    HW1 2222   2.607   0.072   2.566 -1.9454 -3.1307  1.8133
  741SOL    HW2 2223   2.455   0.061   2.488 -0.5079  0.1450  0.3455
  742SOL     OW 2224   2.243   1.390   0.044 -0.2379  0.3014  0.4871
  742SOL    HW1 2225   2.213   1.482   0.077 -0.0284 -0.8606 -1.9968
  742SOL    HW2 2226   2.191   1.314   0.095  2.9965  1.7872  0.2774
  743SOL     OW 2227   1.741   0.644   2.649  0.0422  0.1206 -0.2600
  743SOL    HW1 2228   1.767   0.575   2.575  0.6810 -0.6653  2.0444
  743SOL    HW2 2229   1.656   0.700   2.620 -1.2535  0.4220 -0.3236
  744SOL     OW 2230   2.659   2.073   0.041  0.1288  0.7323  0.5046
  744SOL    HW1 2231   2.557   2.104   0.059 -0.7703 -1.8945  0.5367
  744SOL    HW2 2232   2.699   2.001   0.107 -0.8438 -0.1292  2.8033
  745SOL     OW 2233   2.197   2.719   2.205 -0.0286  0.2613 -0.0445
  745SOL    HW1 2234   2.096   2.700   2.179 -1.3478 -0.8581 -0.2653
  745SOL    HW2 2235   2.214   2.761   2.298  0.0170  0.9295  1.4460
  746SOL     OW 2236   3.074   2.597   1.836 -0.3422  0.0805 -0.2320
  746SOL    HW1 2237   3.175   2.610   1.805 -0.0534  0.3175  0.0077
  746SOL    HW2 2238   3.028   2.682   1.876 -1.3087 -1.9883  0.1586
  747SOL     OW 2239   0.018   1.794   1.698  0.2484 -0.1513 -0.5810
  747SOL    HW1 2240  -0.016   1.698   1.680 -0.2709  1.4050  0.3616
  747SOL    HW2 2241   0.099   1.822   1.640  0.2524 -0.4537  0.3680
  748SOL     OW 2242   1.735   2.754   2.872 -0.3828 -0.0932 -0.1871
  748SOL    HW1 2243   1.757   2.789   2.972 -0.2563 -0.2985  1.9145
  748SOL    HW2 2244   1.633   2.735   2.851  1.3751 -1.6637 -0.8948
  749SOL     OW 2245   1.299   0.074   0.902  0.1097 -0.2677  0.1861
  749SOL    HW1 2246   1.268  -0.022   0.916  0.4370  0.1271 -1.6676
  749SOL    HW2 2247   1.299   0.097   0.799 -1.9202  0.9580 -0.9017
  750SOL     OW 2248   2.272   0.260   1.860 -0.4820 -0.3972  0.3213
  750SOL    HW1 2249   2.341   0.313   1.804  2.5055  0.4215  1.5301
  750SOL    HW2 2250   2.259   0.296   1.954  0.4058 -1.2290 -1.3678
  751SOL     OW 2251   0.849   2.250   2.897  0.0623 -0.0261  0.3218
  751SOL    HW1 2252   0.920   2.244   2.973 -1.3464 -1.7964  0.9022
  751SOL    HW2 2253   0.790   2.163   2.900  1.7942  0.6158 -2.4023
  752SOL     OW 2254   1.250   0.944   1.534  0.2300 -0.2495 -0.3948
  752SOL    HW1 2255   1.337   0.985   1.495  0.9927  1.7561 -0.1167
  752SOL    HW2 2256   1.267   0.845   1.560  1.5133 -0.9631 -0.4115
  753SOL     OW 2257   0.932   2.624   1.762 -0.2133 -0.5000  0.1311
  753SOL    HW1 2258   1.025   2.656   1.735  0.1595 -1.2513  0.3847
  753SOL    HW2 2259   0.857   2.676   1.713 -1.8149 -2.1088  1.7688
  754SOL     OW 2260   1.143   1.319   3.023 -0.0392  0.0950 -0.4871
  754SOL    HW1 2261   1.186   1.261   2.945 -0.6883  0.0143  0.2376
  754SOL    HW2 2262   1.140   1.421   3.005 -0.9469  1.0256 -2.0176
  755SOL     OW 2263   2.019   0.523   2.213 -0.2047  0.1405  0.3698
  755SOL    HW1 2264   2.100   0.478   2.256  1.1300  1.4998 -0.7705
  755SOL    HW2 2265   1.935   0.519   2.279 -0.6838 -0.1038  0.3802
  756SOL     OW 2266   2.639   0.972   2.940  0.1258 -0.5593  0.0021
  756SOL    HW1 2267   2.685   0.880   2.913 -0.1364 -0.1073 -2.1564
  756SOL    HW2 2268   2.583   0.968   3.029 -2.7343 -2.5683  0.6083
  757SOL     OW 2269   0.138   0.492   1.715  0.7985 -0.3808  0.2645
  757SOL    HW1 2270   0.105   0.589   1.689 -1.7747 -1.0162 -0.6659
  757SOL    HW2 2271   0.212   0.461   1.658 -0.2667  0.2407 -0.1791
  758SOL     OW 2272   2.492   0.046   1.520  0.1064  0.4154 -0.0149
  758SOL    HW1 2273   2.395   0.052   1.551  1.3112  4.3207 -0.1616
  758SOL    HW2 2274   2.488   0.024   1.417 -1.0620  0.2603 -0.9669
  759SOL     OW 2275   1.659   0.090   0.076  0.0358  0.0770  0.0195
  759SOL    HW1 2276   1.606   0.116  -0.008 -0.4050 -2.3303 -1.4003
  759SOL    HW2 2277   1.764   0.084   0.070  2.7243  0.6765  1.3064
  760SOL     OW 2278   2.747   1.942   2.786  0.1894 -0.6293 -0.4865
  760SOL    HW1 2279   2.752   1.837   2.772  1.0476 -2.5093 -3.7189
  760SOL    HW2 2280   2.824   2.001   2.748 -2.7836  1.7779  1.1776
  761SOL     OW 2281   1.902   1.769   1.622  0.3279 -0.0313  0.3564
  761SOL    HW1 2282   1.959   1.686   1.630 -0.7226  1.8061 -1.6377
  761SOL    HW2 2283   1.818   1.748   1.560  1.2571  0.7962 -2.4714
  762SOL     OW 2284   0.523   2.410   0.997 -0.2262 -0.6627 -0.0559
  762SOL    HW1 2285   0.572   2.463   0.918 -1.0844 -0.2131 -0.7691
  762SOL    HW2 2286   0.520   2.462   1.084 -1.0799  0.2278 -1.9397
  763SOL     OW 2287   2.020   1.584   2.965  0.2877  0.1626 -0.4255
  763SOL    HW1 2288   2.079   1.541   2.894 -0.3762  2.1640  1.1828
  763SOL    HW2 2289   1.952   1.519   3.004  3.0185  1.0561  2.5754
  764SOL     OW 2290   0.691   0.590   0.849  0.0242  0.1813  0.0221
  764SOL    HW1 2291   0.706   0.547   0.754  2.0731  2.7564 -0.7708
  764SOL    HW2 2292   0.784   0.592   0.897  0.2622  1.6675 -0.0105
  765SOL     OW 2293   0.657   0.219   0.800 -0.2713  0.4398 -0.1362
  765SOL    HW1 2294   0.743   0.237   0.748 -0.4022  0.0955  0.1648
  765SOL    HW2 2295   0.666   0.248   0.900 -1.6204 -2.0092 -0.3194
  766SOL     OW 2296   3.009   1.992   3.039  0.6409 -0.0863 -0.0349
  766SOL    HW1 2297   2.908   1.971   3.031  3.5047 -0.1831  1.2420
  766SOL    HW2 2298   3.040   2.088   3.012  1.3364 -0.7433 -2.6348
  767SOL     OW 2299   2.800   1.568   0.494 -0.9839  0.1538 -0.4663
  767SOL    HW1 2300   2.704   1.576   0.531 -0.5162 -0.3410  0.0160
  767SOL    HW2 2301   2.869   1.557   0.572 -2.8919  0.4458 -2.2927
  768SOL     OW 2302   1.049   0.318   0.270 -0.2373 -0.2745 -0.2229
  768SOL    HW1 2303   0.952   0.284   0.261  0.2840 -1.7398 -0.4888
  768SOL    HW2 2304   1.123   0.240   0.285  0.5791  1.8905 -0.5511
  769SOL     OW 2305   1.268   1.838   2.264  1.0581  0.5468 -0.6342
  769SOL    HW1 2306   1.360   1.807   2.224 -2.0223 -1.5585  1.9621
  769SOL    HW2 2307   1.201   1.760   2.256  0.1491 -0.7824 -1.5260
  770SOL     OW 2308   0.171   1.099   2.315  0.2755 -0.2883 -0.6397
  770SOL    HW1 2309   0.142   1.163   2.394 -2.1383  1.0312  2.8786
  770SOL    HW2 2310   0.109   1.105   2.232  0.4847 -0.0461  0.5700
  771SOL     OW 2311   2.963   2.837   1.922  0.1752  0.4940 -0.8377
  771SOL    HW1 2312   2.948   2.897   1.843  0.7186 -2.3065  2.1422
  771SOL    HW2 2313   2.928   2.868   2.017 -0.9356 -0.0312 -0.7278
  772SOL     OW 2314   2.122   0.070   3.001 -0.0307 -0.2560  0.1414
  772SOL    HW1 2315   2.204   0.016   2.977 -1.3945 -0.3351  1.3605
  772SOL    HW2 2316   2.151   0.157   3.051  0.6409 -0.8028  0.0947
  773SOL     OW 2317   0.734   2.138   2.468 -0.0396  0.0161  0.0626
  773SOL    HW1 2318   0.704   2.210   2.406  1.4200  0.1340  2.6171
  773SOL    HW2 2319   0.654   2.109   2.526 -0.1921  1.3041 -0.7152
  774SOL     OW 2320   2.000   0.031   2.664 -0.8878 -0.0661  0.2667
  774SOL    HW1 2321   2.030   0.112   2.726 -0.6272 -1.0340 -0.5000
  774SOL    HW2 2322   2.036  -0.057   2.706  1.8884 -1.5935  0.8139
  775SOL     OW 2323   2.519   2.895   2.377 -0.3080  0.3765 -0.5035
  775SOL    HW1 2324   2.478   2.990   2.392 -0.4273  0.6973  1.9547
  775SOL    HW2 2325   2.614   2.876   2.423  0.8073  0.7209 -0.6818
  776SOL     OW 2326   0.008   1.171   0.264 -0.2015 -0.8388 -0.1558
  776SOL    HW1 2327  -0.032   1.192   0.171  1.4385  0.4065 -0.3088
  776SOL    HW2 2328  -0.060   1.166   0.345  0.8899  2.5552  1.0362
  777SOL     OW 2329   0.331   2.694   0.404 -0.2159  0.5928 -0.0584
  777SOL    HW1 2330   0.227   2.680   0.403  0.3701 -0.3698 -1.1675
  777SOL    HW2 2331   0.356   2.794   0.395  2.6316 -0.8094  0.9618
  778SOL     OW 2332   1.333   1.967   0.162  0.3454  1.0879 -0.1814
  778SOL    HW1 2333   1.286   1.977   0.254  1.4883  0.5300  0.4052
  778SOL    HW2 2334   1.361   2.055   0.116 -1.0673 -0.9700 -0.4707
  779SOL     OW 2335   0.172   0.824   0.516 -0.0707 -0.2393 -0.5130
  779SOL    HW1 2336   0.139   0.726   0.530 -3.4304 -0.2186  1.5767
  779SOL    HW2 2337   0.123   0.897   0.569  0.8257 -0.2483 -0.3414
  780SOL     OW 2338   0.041   0.301   2.366 -0.0231  0.6297 -0.2273
  780SOL    HW1 2339  -0.005   0.398   2.364  1.7491  0.4819 -0.0549
  780SOL    HW2 2340   0.134   0.299   2.319 -0.6501  0.9451  1.2307
  781SOL     OW 2341   0.557   1.781   1.612 -0.4202 -0.3064 -0.4697
  781SOL    HW1 2342   0.613   1.768   1.701  0.0623  1.4976 -0.1563
  781SOL    HW2 2343   0.490   1.707   1.595  0.6217  2.7093  0.6311
  782SOL     OW 2344   2.648   0.113   0.888  0.1022 -0.9531 -0.0362
  782SOL    HW1 2345   2.581   0.118   0.810  0.9214  2.1530 -2.0764
  782SOL    HW2 2346   2.602   0.147   0.972 -0.2945  1.1642  0.5591
  783SOL     OW 2347   2.816   0.657   2.538  0.0394 -0.4353  0.5158
  783SOL    HW1 2348   2.772   0.698   2.620 -1.0767 -0.9948 -3.4676
  783SOL    HW2 2349   2.765   0.576   2.492 -1.4353  0.0226  1.1100
  784SOL     OW 2350   1.383   2.206   0.046  0.2060 -0.4601 -0.0292
  784SOL    HW1 2351   1.480   2.238   0.070  1.2024  2.3955 -0.5630
  784SOL    HW2 2352   1.373   2.188  -0.055  3.4314 -0.2003  2.7070
  785SOL     OW 2353   2.186   0.314   0.025  0.1707 -0.3171 -0.0058
  785SOL    HW1 2354   2.103   0.305   0.085 -2.1074  1.4156  0.0776
  785SOL    HW2 2355   2.209   0.411  -0.007 -0.2549  1.8189  0.4352
  786SOL     OW 2356   2.081   2.196   2.244  0.2582 -0.1852 -0.3797
  786SOL    HW1 2357   2.011   2.137   2.200 -0.1137  0.1668 -0.6863
  786SOL    HW2 2358   2.168   2.148   2.247 -0.9687  0.3447  0.5628
  787SOL     OW 2359   1.401   0.631   0.754 -0.5723 -0.0134 -0.0785
  787SOL    HW1 2360   1.339   0.714   0.723 -3.5312 -1.2883 -5.2732
  787SOL    HW2 2361   1.459   0.603   0.673  0.8285  1.8080 -3.6013
  788SOL     OW 2362   1.220   0.478   2.967  0.5005 -0.2257 -0.2102
  788SOL    HW1 2363   1.123   0.482   2.930 -1.6491  4.4210  1.7330
  788SOL    HW2 2364   1.287   0.537   2.905  1.1927 -0.2075  2.0249
  789SOL     OW 2365   2.639   0.058   1.863  0.0720 -0.1068  0.4744
  789SOL    HW1 2366   2.548   0.020   1.835 -1.8679  2.0301 -0.6229
  789SOL    HW2 2367   2.685  -0.005   1.932 -2.5682  0.0869 -1.9516
  790SOL     OW 2368   2.606   2.672   0.832  0.3880  0.1765  0.3097
  790SOL    HW1 2369   2.677   2.669   0.760 -1.3775  0.0922 -2.6001
  790SOL    HW2 2370   2.609   2.761   0.885  0.6477 -1.8383  0.9754
  791SOL     OW 2371   1.939   1.195   0.199 -0.2849 -0.5459  0.1047
  791SOL    HW1 2372   1.856   1.147   0.231 -0.2298  1.9803  2.5302
  791SOL    HW2 2373   2.017   1.126   0.179  2.6728 -2.7214  2.8397
  792SOL     OW 2374   0.459   1.973   2.222  0.0874 -0.3231  0.7711
  792SOL    HW1 2375   0.473   2.075   2.239  0.3401 -0.6300  0.0145
  792SOL    HW2 2376   0.368   1.940   2.251  1.8023  1.1887 -2.7958
  793SOL     OW 2377   2.100   1.506   2.052 -0.3039  0.1495 -0.5112
  793SOL    HW1 2378   2.192   1.558   2.047  1.2091  1.5398  0.0187
  793SOL    HW2 2379   2.069   1.445   1.964 -0.6278  2.7502 -2.7618
  794SOL     OW 2380   0.550   1.548   2.474  0.1898  0.0642  0.1647
  794SOL    HW1 2381   0.621   1.475   2.470  1.5803 -1.0272 -0.4850
  794SOL    HW2 2382   0.524   1.575   2.378 -0.2831  2.8394  0.1189
  795SOL     OW 2383   2.464   2.330   1.845 -0.2429  0.5578  0.5969
  795SOL    HW1 2384   2.496   2.313   1.940 -2.9715  0.2831 -0.9428
  795SOL    HW2 2385   2.394   2.256   1.819 -1.9218 -1.9074 -0.2267
  796SOL     OW 2386   3.022   1.113   2.717 -0.1346  0.5215  0.3443
  796SOL    HW1 2387   2.921   1.131   2.723 -0.6869  0.9873  0.5952
  796SOL    HW2 2388   3.070   1.142   2.801 -2.4455  0.5149 -0.2612
  797SOL     OW 2389   0.670   0.623   1.349  0.4079 -0.5518 -0.2711
  797SOL    HW1 2390   0.731   0.706   1.368 -1.8867  1.1159 -3.6765
  797SOL    HW2 2391   0.624   0.637   1.254 -0.6073  1.1133 -0.7576
  798SOL     OW 2392   1.187   0.510   0.913  0.5820  0.0521 -0.3437
  798SOL    HW1 2393   1.203   0.570   0.996  1.2542 -2.4118  1.2593
  798SOL    HW2 2394   1.260   0.525   0.835  2.0195 -0.7110 -2.1782
  799SOL     OW 2395   1.799   2.709   1.023 -0.5976  0.1556  0.4006
  799SOL    HW1 2396   1.789   2.614   1.064  1.2960  0.2255  1.2056
  799SOL    HW2 2397   1.877   2.717   0.951  1.5690 -3.3466  0.3720
  800SOL     OW 2398   3.003   0.820   1.865 -0.3388  0.3240  0.0864
  800SOL    HW1 2399   2.994   0.925   1.875 -0.9264 -0.4079 -0.8327
  800SOL    HW2 2400   3.010   0.767   1.957  2.5046 -1.1658 -0.9870
  801SOL     OW 2401   1.956   2.201   0.098  0.1456  1.0233  0.0727
  801SOL    HW1 2402   1.940   2.244   0.007 -0.0912 -0.5152 -1.1180
  801SOL    HW2 2403   2.040   2.137   0.095  0.4517  1.8442  1.3473
  802SOL     OW 2404   0.638   0.651   2.554 -0.1157  0.3129 -0.7780
  802SOL    HW1 2405   0.689   0.627   2.467 -0.8371  0.6416  0.1475
  802SOL    HW2 2406   0.537   0.678   2.536  0.6102  0.3631 -0.4460
  803SOL     OW 2407   0.952   0.113   0.894  0.1097  0.1882 -0.3223
  803SOL    HW1 2408   1.015   0.178   0.944  1.9205 -0.2416  2.6225
  803SOL    HW2 2409   0.928   0.145   0.800 -1.2870  0.7360 -0.1917
  804SOL     OW 2410   0.318   0.034   2.199  0.4793  0.2871 -0.5377
  804SOL    HW1 2411   0.311   0.141   2.211  2.2056  0.8875  0.5757
  804SOL    HW2 2412   0.254  -0.003   2.122  0.9297 -0.0929 -1.2903
  805SOL     OW 2413   2.396   0.372   0.319 -0.2449  0.0112  0.1374
  805SOL    HW1 2414   2.477   0.381   0.383 -3.2670 -0.2976 -2.4097
  805SOL    HW2 2415   2.418   0.305   0.244 -0.1433  0.3520  2.0499
  806SOL     OW 2416   0.607   2.651   1.914  0.6834  0.4543  0.4901
  806SOL    HW1 2417   0.519   2.694   1.954  0.4597  0.0728  2.1490
  806SOL    HW2 2418   0.656   2.713   1.849 -0.1894  0.4972  3.9096
  807SOL     OW 2419   2.518   0.910   0.492 -0.0244 -0.3167  0.5578
  807SOL    HW1 2420   2.607   0.858   0.501 -1.2243  0.6805  0.0022
  807SOL    HW2 2421   2.513   0.980   0.415  0.6050  0.4516 -1.7083
  808SOL     OW 2422   0.691   2.026   2.938  0.3783 -0.0042 -0.0358
  808SOL    HW1 2423   0.617   2.063   2.999 -0.1022  1.6642 -1.9874
  808SOL    HW2 2424   0.702   1.925   2.945  2.6905 -0.5926  0.5088
  809SOL     OW 2425   2.578   1.996   1.917 -0.5774  0.5162  0.0223
  809SOL    HW1 2426   2.683   2.008   1.923 -1.6718 -0.8195 -2.7479
  809SOL    HW2 2427   2.544   2.003   1.820  2.4367  1.2568  0.8007
  810SOL     OW 2428   2.186   1.149   0.478 -0.0882  0.6819 -0.2174
  810SOL    HW1 2429   2.173   1.050   0.508  0.2840  1.4245  1.9977
  810SOL    HW2 2430   2.143   1.225   0.537  2.4061 -0.4286 -1.8673
  811SOL     OW 2431   1.254   2.501   1.139 -0.5597  0.5071  0.0041
  811SOL    HW1 2432   1.226   2.409   1.180  4.4904  1.4858 -2.9524
  811SOL    HW2 2433   1.296   2.559   1.216 -3.5276 -1.9076 -0.6551
  812SOL     OW 2434   1.472   0.743   1.987 -0.6733  0.1223  0.1918
  812SOL    HW1 2435   1.441   0.786   2.079 -0.2395  0.5327 -0.7769
  812SOL    HW2 2436   1.495   0.811   1.912 -0.3872 -1.5444  2.1783
  813SOL     OW 2437   1.675   2.048   2.393 -0.7098  0.0036  0.0107
  813SOL    HW1 2438   1.765   2.020   2.431 -1.1133 -0.1936 -0.1094
  813SOL    HW2 2439   1.672   2.030   2.294 -0.9896  2.4896  1.7314
  814SOL     OW 2440   3.024   1.698   2.913 -0.2481  0.5805 -0.3171
  814SOL    HW1 2441   3.083   1.642   2.981  0.5923 -0.6541 -0.6222
  814SOL    HW2 2442   3.053   1.797   2.903  1.7118 -1.8932  1.5982
  815SOL     OW 2443   2.170   2.847   2.728  0.1510  0.3694 -0.6617
  815SOL    HW1 2444   2.161   2.756   2.776 -0.8934 -0.5171 -0.5837
  815SOL    HW2 2445   2.255   2.901   2.761  0.6087  0.6898  1.6778
  816SOL     OW 2446   1.476   0.407   1.664 -0.0312  0.0165  0.1951
  816SOL    HW1 2447   1.537   0.326   1.673  0.1380  2.5652  2.5766
  816SOL    HW2 2448   1.404   0.421   1.740  0.8673 -0.7820  0.2566
  817SOL     OW 2449   0.362   1.280   2.569 -0.0280 -0.5686 -0.4769
  817SOL    HW1 2450   0.269   1.313   2.548 -1.2416 -1.0073 -1.5890
  817SOL    HW2 2451   0.431   1.321   2.502  3.2291  0.2288 -0.0726
  818SOL     OW 2452   2.007   0.822   0.456 -0.3537 -0.5256 -0.2315
  818SOL    HW1 2453   2.106   0.801   0.436  0.5574 -1.8292 -2.8348
  818SOL    HW2 2454   1.992   0.865   0.550  2.2194 -2.4271  3.4282
  819SOL     OW 2455   2.789   2.915   2.972 -0.2598  0.0568  0.4995
  819SOL    HW1 2456   2.863   2.851   2.941 -1.0524 -0.6089  0.9190
  819SOL    HW2 2457   2.701   2.861   2.947  2.8010  0.1067  1.3768
  820SOL     OW 2458   1.220   1.059   0.554  0.0528  0.6450 -0.0999
  820SOL    HW1 2459   1.235   1.153   0.590 -2.1639  3.8433  0.6452
  820SOL    HW2 2460   1.228   0.995   0.634  0.7229 -1.2359  2.4828
  821SOL     OW 2461   0.024   1.240   0.726 -0.3514  0.0608 -0.0672
  821SOL    HW1 2462   0.012   1.231   0.831 -0.2874 -0.0517  2.0498
  821SOL    HW2 2463   0.100   1.306   0.709 -0.8429 -1.4134  3.1514
  822SOL     OW 2464   2.551   1.759   2.468  0.1151  0.3068 -0.1900
  822SOL    HW1 2465   2.537   1.829   2.545 -1.1498  1.4595 -1.0750
  822SOL    HW2 2466   2.464   1.740   2.412  0.7612 -0.7361 -0.4085
  823SOL     OW 2467   1.998   0.925   1.182 -0.6538  0.4064  0.3525
  823SOL    HW1 2468   1.981   0.874   1.270 -0.9776 -0.1437  1.0583
  823SOL    HW2 2469   1.943   0.887   1.097 -0.9323 -0.8902 -2.8947
  824SOL     OW 2470   0.169   1.833   2.835  0.5997  0.0317  0.1569
  824SOL    HW1 2471   0.175   1.851   2.938  1.0391 -1.3421 -1.3201
  824SOL    HW2 2472   0.246   1.874   2.783 -1.9167 -0.6353 -0.5091
  825SOL     OW 2473   1.282   1.046   0.293 -0.2279 -0.3340  0.5226
  825SOL    HW1 2474   1.283   1.141   0.249 -0.5080  0.2058 -4.0044
  825SOL    HW2 2475   1.251   1.052   0.394 -3.3609 -0.6519 -1.1442
  826SOL     OW 2476   1.972   0.645   1.605  0.1660  0.8615 -0.5498
  826SOL    HW1 2477   2.065   0.602   1.632  1.6446  0.4277  1.2097
  826SOL    HW2 2478   1.889   0.582   1.588 -1.2876 -0.6950 -0.4049
  827SOL     OW 2479   0.726   1.188   0.504  0.3091  0.2380  0.3189
  827SOL    HW1 2480   0.804   1.127   0.469  0.8880 -2.6485 -0.2108
  827SOL    HW2 2481   0.632   1.148   0.490  0.4057  1.5736  0.0170
  828SOL     OW 2482   2.721   0.208   1.596 -0.0043 -0.4647  0.6056
  828SOL    HW1 2483   2.634   0.159   1.564  2.3464 -0.5301  1.1911
  828SOL    HW2 2484   2.725   0.211   1.701  0.9628 -0.6103  1.5177
  829SOL     OW 2485   2.902   2.380   2.893 -0.4413 -0.7929 -0.5804
  829SOL    HW1 2486   2.823   2.349   2.952 -2.9845  2.7785 -0.6039
  829SOL    HW2 2487   2.916   2.482   2.900  0.1818 -2.1868  0.8396
  830SOL     OW 2488   2.940   0.919   2.976  0.3157  0.2495 -0.5889
  830SOL    HW1 2489   2.994   0.997   3.018  0.7210 -0.6668  1.3605
  830SOL    HW2 2490   2.911   0.851   3.048  0.8181  1.0966  0.3189
  831SOL     OW 2491   0.040   0.562   0.468 -0.6089  0.4724  0.1049
  831SOL    HW1 2492   0.002   0.493   0.536 -0.8425  0.4025  0.1456
  831SOL    HW2 2493   0.055   0.514   0.377 -0.7031  0.3587 -0.0836
  832SOL     OW 2494   1.785   0.712   0.036 -0.5928  0.9173  0.1370
  832SOL    HW1 2495   1.712   0.780   0.010  0.2543 -0.7504  2.4863
  832SOL    HW2 2496   1.769   0.611   0.016 -0.3988 -0.0244 -1.6410
  833SOL     OW 2497   2.341   2.120   0.568  0.0040  0.0795  0.2118
  833SOL    HW1 2498   2.250   2.105   0.522  2.4105 -1.3990 -1.2874
  833SOL    HW2 2499   2.401   2.036   0.550 -1.5895  0.3500 -1.4261
  834SOL     OW 2500   0.099   0.062   0.566 -0.4384  0.1522  0.1809
  834SOL    HW1 2501   0.176   0.009   0.523 -0.5341  0.0497  0.7708
  834SOL    HW2 2502   0.046   0.122   0.495  0.9522  0.5541 -0.4282
  835SOL     OW 2503   2.472   1.689   1.135  0.6162  0.2430 -0.3723
  835SOL    HW1 2504   2.539   1.621   1.180 -0.8225  1.1358 -1.0715
  835SOL    HW2 2505   2.525   1.753   1.076  3.8295 -2.2731  0.1545
  836SOL     OW 2506   1.536   0.837   2.610  0.2705  0.3266 -0.1352
  836SOL    HW1 2507   1.435   0.831   2.623  0.2293  0.6402 -0.6603
  836SOL    HW2 2508   1.564   0.887   2.527 -0.6668 -1.5580  3.2472
  837SOL     OW 2509   1.714   0.075   0.544 -0.5892  0.2361  0.1715
  837SOL    HW1 2510   1.693   0.139   0.627 -1.2774 -3.6173  1.3864
  837SOL    HW2 2511   1.655   0.096   0.461 -0.0103 -0.6504  0.7981
  838SOL     OW 2512   1.152   1.468   2.684  0.0943 -0.4423  0.0325
  838SOL    HW1 2513   1.119   1.490   2.779 -1.2543 -0.9616  0.5150
  838SOL    HW2 2514   1.129   1.370   2.662 -3.5736 -0.2635  1.4713
  839SOL     OW 2515   1.649   0.411   0.957  0.1541  0.0935 -0.0983
  839SOL    HW1 2516   1.582   0.480   1.000  0.7290  0.1174 -2.6555
  839SOL    HW2 2517   1.593   0.317   0.955 -4.0482 -0.5229  1.3181
  840SOL     OW 2518   2.666   2.949   1.634  0.5048  0.0801 -0.7961
  840SOL    HW1 2519   2.619   3.032   1.594 -2.4931 -0.0991  1.2734
  840SOL    HW2 2520   2.625   2.925   1.727  4.1940  0.5105 -0.5036
  841SOL     OW 2521   1.545   0.843   3.072  0.6209 -0.1940 -0.1997
  841SOL    HW1 2522   1.451   0.825   3.123 -2.2555  1.1449  1.1714
  841SOL    HW2 2523   1.535   0.908   2.985 -1.5142  1.7373  0.9932
  842SOL     OW 2524   0.825   1.626   1.022 -0.0373  0.2102 -0.3474
  842SOL    HW1 2525   0.790   1.721   1.051  1.0185 -2.6612  0.5286
  842SOL    HW2 2526   0.764   1.581   0.948 -2.5865 -0.0970 -0.4890
  843SOL     OW 2527   0.171   0.074   1.432 -0.0476  0.3033  0.0631
  843SOL    HW1 2528   0.258   0.105   1.473 -1.0004 -1.1551 -2.8095
  843SOL    HW2 2529   0.184  -0.006   1.366  0.4733  2.0552 -1.9149
  844SOL     OW 2530   0.712   2.439   0.202 -0.3346 -0.1198  0.2589
  844SOL    HW1 2531   0.661   2.472   0.286  0.6666  0.9581  0.0998
  844SOL    HW2 2532   0.646   2.415   0.125  0.4078  0.8432 -0.6104
  845SOL     OW 2533   1.753   0.003   1.269  0.2460 -0.4574  0.2453
  845SOL    HW1 2534   1.724  -0.020   1.364  2.1332  0.8564 -0.2259
  845SOL    HW2 2535   1.767   0.107   1.251 -0.9098 -1.9753 -1.4785
  846SOL     OW 2536   1.672   3.021   0.901 -0.1942 -0.5004 -0.2463
  846SOL    HW1 2537   1.709   3.066   0.816  1.1404  2.8732  0.2462
  846SOL    HW2 2538   1.735   2.951   0.934  1.9209  0.0901 -0.7072
  847SOL     OW 2539   2.070   1.601   0.146 -0.2605 -0.3797  0.3967
  847SOL    HW1 2540   2.008   1.553   0.207  1.4878 -1.6106 -2.2647
  847SOL    HW2 2541   2.024   1.612   0.051 -0.6783 -1.6933 -1.2658
  848SOL     OW 2542   2.506   0.789   2.648 -1.0179  0.2285  0.0191
  848SOL    HW1 2543   2.500   0.892   2.661  3.0376  0.7049 -1.5437
  848SOL    HW2 2544   2.420   0.745   2.609  2.7932 -1.4938 -0.7265
  849SOL     OW 2545   2.379   0.853   2.295 -0.1162  0.3366 -0.1411
  849SOL    HW1 2546   2.447   0.816   2.221  1.6720 -2.2936 -0.8807
  849SOL    HW2 2547   2.358   0.788   2.369 -0.0440  1.1480 -0.7680
  850SOL     OW 2548   1.500   0.233   1.264 -0.1069  0.6859 -0.1602
  850SOL    HW1 2549   1.508   0.193   1.167 -0.3201  1.8671 -0.2693
  850SOL    HW2 2550   1.501   0.158   1.333 -0.0718 -0.6520 -1.9106
  851SOL     OW 2551   0.445   1.670   0.618  0.0695 -0.1876 -0.6876
  851SOL    HW1 2552   0.444   1.767   0.663 -1.8443 -0.2252  2.2421
  851SOL    HW2 2553   0.545   1.629   0.624  0.9176  0.5254  1.5231
  852SOL     OW 2554   0.836   2.189   1.768  0.1340 -0.3338  0.4994
  852SOL    HW1 2555   0.800   2.256   1.702 -0.9097 -0.1278  1.3512
  852SOL    HW2 2556   0.765   2.169   1.848 -1.1931  0.6567  0.6555
  853SOL     OW 2557   2.563   1.509   2.569 -0.9482 -0.2637  0.4059
  853SOL    HW1 2558   2.522   1.432   2.507 -0.7413  2.1358  1.3200
  853SOL    HW2 2559   2.560   1.604   2.520  0.6954 -0.3697 -1.3036
  854SOL     OW 2560   2.470   1.450   1.757  0.0204 -0.1893 -0.7064
  854SOL    HW1 2561   2.511   1.401   1.674  1.0871  1.3740  0.7126
  854SOL    HW2 2562   2.394   1.393   1.806 -0.4178  1.8844  0.0621
  855SOL     OW 2563   2.042   2.312   0.976  0.2058  0.7437 -0.8603
  855SOL    HW1 2564   2.082   2.409   0.948 -0.0232  1.5939  1.5044
  855SOL    HW2 2565   2.081   2.277   1.069 -1.2196  0.9798  2.6426
  856SOL     OW 2566   1.427   1.450   0.859 -0.0179 -0.0971 -1.2339
  856SOL    HW1 2567   1.478   1.537   0.893 -0.8451 -0.6298 -0.3354
  856SOL    HW2 2568   1.338   1.433   0.909 -0.5464  2.1826  1.4927
  857SOL     OW 2569   2.916   2.519   1.081  0.4312 -0.1133  0.0611
  857SOL    HW1 2570   2.863   2.439   1.114  0.4521  1.6562 -1.7014
  857SOL    HW2 2571   2.985   2.497   1.008  0.8039 -1.8158  2.1485
  858SOL     OW 2572   2.255   2.137   1.779 -0.2292  0.1276 -0.4467
  858SOL    HW1 2573   2.159   2.163   1.746  2.0487  0.7738  2.2994
  858SOL    HW2 2574   2.301   2.058   1.735  0.6519  1.2146  0.1610
  859SOL     OW 2575   2.454   0.399   0.989  0.3403  0.7121  0.6223
  859SOL    HW1 2576   2.523   0.472   0.968 -0.2568  2.1237 -1.0812
  859SOL    HW2 2577   2.494   0.329   1.060 -2.7134 -0.5136 -0.3776
  860SOL     OW 2578   1.888   2.802   0.518 -0.6866 -0.1615  0.5998
  860SOL    HW1 2579   1.893   2.759   0.423 -1.2015 -1.7810  2.9736
  860SOL    HW2 2580   1.915   2.901   0.519 -0.3218 -2.2356  1.1875
  861SOL     OW 2581   1.003   2.566   2.805 -0.4086 -0.0451 -0.2340
  861SOL    HW1 2582   1.064   2.650   2.784 -0.1638 -3.0786 -0.0573
  861SOL    HW2 2583   0.995   2.546   2.907  0.6044  2.3581  0.3279
  862SOL     OW 2584   2.959   2.618   1.556 -0.3414 -0.3685 -0.3123
  862SOL    HW1 2585   3.020   2.635   1.638 -0.8044  1.6174 -0.8163
  862SOL    HW2 2586   2.857   2.638   1.575  1.5506 -1.5092 -0.1351
  863SOL     OW 2587   1.862   2.683   0.254  0.0158 -0.8070 -1.0374
  863SOL    HW1 2588   1.931   2.609   0.256 -2.6063 -1.0339  3.0834
  863SOL    HW2 2589   1.762   2.651   0.255  1.6806  0.3843  1.9030
  864SOL     OW 2590   1.917   1.132   2.959  0.1857 -0.2320  0.5460
  864SOL    HW1 2591   1.956   1.088   2.869  0.6674 -0.6898  1.3606
  864SOL    HW2 2592   1.974   1.112   3.043  1.1664 -0.7579 -1.1002
  865SOL     OW 2593   2.141   1.702   0.603  0.1267 -0.7684 -0.3105
  865SOL    HW1 2594   2.151   1.730   0.702  1.8025  2.5599 -2.0246
  865SOL    HW2 2595   2.084   1.619   0.588  1.7612  2.1949 -1.3295
  866SOL     OW 2596   2.882   2.828   1.005  0.1780  0.2326  0.3414
  866SOL    HW1 2597   2.939   2.848   0.919  2.5531  1.7271 -0.8847
  866SOL    HW2 2598   2.887   2.730   1.027 -0.1032  0.0259 -1.7536
  867SOL     OW 2599   0.422   1.364   0.827 -0.1284  0.1937 -0.1801
  867SOL    HW1 2600   0.453   1.262   0.830 -1.8973 -0.3829  0.4675
  867SOL    HW2 2601   0.354   1.382   0.755  0.0728  0.0695  2.7149
  868SOL     OW 2602   0.842   1.889   2.012 -0.1849 -0.4641 -0.2787
  868SOL    HW1 2603   0.799   1.853   2.105  0.5394 -0.5914  3.4670
  868SOL    HW2 2604   0.797   1.976   1.977  0.6802  0.9975 -3.4288
  869SOL     OW 2605   2.530   1.998   1.653  0.2575 -0.5560  0.0783
  869SOL    HW1 2606   2.599   1.920   1.646  1.0172 -1.5433 -0.3712
  869SOL    HW2 2607   2.476   1.995   1.566 -0.2125  2.2931 -1.2603
  870SOL     OW 2608   2.395   2.524   1.207  0.0937  0.7270  0.3853
  870SOL    HW1 2609   2.326   2.444   1.208 -1.3404 -0.5797  2.4747
  870SOL    HW2 2610   2.483   2.497   1.253 -0.2619 -1.5767  2.2580
  871SOL     OW 2611   3.046   1.993   0.531 -0.0195  0.0063 -0.2089
  871SOL    HW1 2612   2.964   2.054   0.512 -0.4048  0.8652  1.4474
  871SOL    HW2 2613   3.055   1.919   0.463 -1.9068 -1.4317  3.2063
  872SOL     OW 2614   2.173   0.495   1.698  0.1377  0.4034 -0.3748
  872SOL    HW1 2615   2.139   0.459   1.790  0.2753  0.3442  2.2130
  872SOL    HW2 2616   2.281   0.484   1.692  3.7526  2.4324  0.8282
  873SOL     OW 2617   1.730   2.072   2.859 -0.2282  0.0811 -0.3299
  873SOL    HW1 2618   1.720   2.173   2.891  1.4189 -1.6530  0.5657
  873SOL    HW2 2619   1.651   2.030   2.804  0.6747 -2.3347  1.3063
  874SOL     OW 2620   0.608   2.526   0.739 -0.2544 -0.1972  0.1091
  874SOL    HW1 2621   0.615   2.632   0.762  0.7402  0.2629 -0.1278
  874SOL    HW2 2622   0.692   2.467   0.742 -1.1216 -1.6347  0.6485
  875SOL     OW 2623   2.317   1.567   1.465  0.6534 -0.2098  0.2411
  875SOL    HW1 2624   2.397   1.617   1.506  2.0309 -1.6723 -1.5403
  875SOL    HW2 2625   2.293   1.609   1.370 -0.8299 -0.9023 -2.4197
  876SOL     OW 2626   0.121   2.232   2.734  0.3678 -0.0274  0.5822
  876SOL    HW1 2627   0.141   2.160   2.800 -1.2216  0.3147 -0.5841
  876SOL    HW2 2628   0.188   2.307   2.734 -1.7768 -3.4570 -1.3263
  877SOL     OW 2629   2.779   2.648   0.607  0.2786  0.2362  0.3607
  877SOL    HW1 2630   2.794   2.750   0.599 -0.7455 -1.5559 -1.4106
  877SOL    HW2 2631   2.858   2.588   0.648 -0.0240  1.7848 -2.0769
  878SOL     OW 2632   2.751   1.527   2.272 -0.0645 -0.2795  0.0585
  878SOL    HW1 2633   2.701   1.617   2.294 -0.6736 -0.7975  0.9861
  878SOL    HW2 2634   2.809   1.484   2.349 -0.4643 -0.4520 -0.7501
  879SOL     OW 2635   2.414   3.068   1.259  0.8230 -0.2179  0.3254
  879SOL    HW1 2636   2.444   2.967   1.249  2.1558 -2.0796 -1.7091
  879SOL    HW2 2637   2.321   3.077   1.214  0.6792 -1.5643  0.9090
  880SOL     OW 2638   0.583   0.496   2.228 -0.5739  0.2571  0.4422
  880SOL    HW1 2639   0.549   0.434   2.300  1.8927  3.5818 -2.0761
  880SOL    HW2 2640   0.552   0.475   2.134  1.8668  3.2573  0.0934
  881SOL     OW 2641   0.857   0.081   0.429 -0.1110  0.0397  0.7404
  881SOL    HW1 2642   0.924   0.003   0.425  0.2264  0.5123  2.0429
  881SOL    HW2 2643   0.763   0.059   0.387 -1.2114 -1.5285  0.4504
  882SOL     OW 2644   2.771   1.789   1.683 -0.2390  0.2758  0.2816
  882SOL    HW1 2645   2.842   1.718   1.643 -0.4365  0.4669 -0.1488
  882SOL    HW2 2646   2.750   1.779   1.785  2.1322  0.4258  1.8066
  883SOL     OW 2647   0.926   0.600   0.966 -0.2832  0.2005  0.2213
  883SOL    HW1 2648   0.951   0.669   1.040 -1.4739 -2.6691  2.6544
  883SOL    HW2 2649   1.013   0.547   0.938  0.7174 -0.3931 -0.0067
  884SOL     OW 2650   1.180   1.883   1.070  0.2533  0.7271 -0.1245
  884SOL    HW1 2651   1.157   1.896   0.969  1.4212 -0.0884  0.9063
  884SOL    HW2 2652   1.113   1.930   1.130  2.5222 -0.1361 -0.0024
  885SOL     OW 2653   2.319   1.761   2.337  0.7448  0.3446 -0.5689
  885SOL    HW1 2654   2.246   1.729   2.400 -2.1399  1.3804  0.0663
  885SOL    HW2 2655   2.322   1.866   2.318  1.7874  2.3359 -2.6484
  886SOL     OW 2656   2.700   0.464   1.803  0.0971  0.0229 -0.0576
  886SOL    HW1 2657   2.727   0.426   1.895 -2.1316 -0.1400 -1.2394
  886SOL    HW2 2658   2.764   0.528   1.765  0.0364 -1.8240  1.7572
  887SOL     OW 2659   0.183   2.054   1.314  0.3389  0.8412  0.2995
  887SOL    HW1 2660   0.137   2.031   1.224 -0.6631  3.5446  0.3804
  887SOL    HW2 2661   0.178   2.154   1.332 -2.6527 -1.5811  1.6422
  888SOL     OW 2662   0.586   1.313   1.520 -0.2650  0.1829 -0.1130
  888SOL    HW1 2663   0.638   1.325   1.432  0.0885  2.8248  2.2604
  888SOL    HW2 2664   0.524   1.228   1.528  0.0038 -2.1408 -0.6271
  889SOL     OW 2665   0.842   2.433   2.142  0.3659 -0.9630 -0.2145
  889SOL    HW1 2666   0.772   2.369   2.104 -1.1650 -1.0569  0.5971
  889SOL    HW2 2667   0.915   2.467   2.075 -1.1535  1.8911  2.3065
  890SOL     OW 2668   2.330   2.409   0.137  0.4199  0.4309  0.4047
  890SOL    HW1 2669   2.384   2.469   0.069  2.0915  0.3369  1.7299
  890SOL    HW2 2670   2.241   2.451   0.164  1.6542  2.4326 -2.2056
  891SOL     OW 2671   2.590   1.629   0.691 -0.1449 -0.0423  1.0550
  891SOL    HW1 2672   2.570   1.546   0.750 -0.9150  0.8012  3.4590
  891SOL    HW2 2673   2.519   1.647   0.618 -0.5644  0.2205  0.3844
  892SOL     OW 2674   0.270   0.303   2.242  0.7186 -0.2976 -0.0976
  892SOL    HW1 2675   0.273   0.341   2.145  0.5747 -1.9270 -5.3249
  892SOL    HW2 2676   0.336   0.343   2.313  1.2290 -0.8924  1.4723
  893SOL     OW 2677   1.620   0.232   2.694 -0.0189  0.2636 -0.3687
  893SOL    HW1 2678   1.675   0.298   2.750 -2.5439  0.5607  0.5437
  893SOL    HW2 2679   1.531   0.281   2.662  0.1116  2.6606  3.4402
  894SOL     OW 2680   2.164   1.994   0.078  0.3387 -0.0366 -0.0876
  894SOL    HW1 2681   2.148   1.958  -0.020  2.1280  1.0818 -3.8337
  894SOL    HW2 2682   2.186   1.914   0.142 -0.1344  0.3870  0.9802
  895SOL     OW 2683   2.869   1.408   0.826 -0.4736  0.1923 -0.1111
  895SOL    HW1 2684   2.902   1.346   0.904  0.0626  1.8519 -0.7147
  895SOL    HW2 2685   2.940   1.483   0.802  0.8677  0.3051 -1.2159
  896SOL     OW 2686   1.716   1.760   1.194 -0.9537  0.4389  0.1225
  896SOL    HW1 2687   1.813   1.796   1.170 -0.1503  0.2972  0.3249
  896SOL    HW2 2688   1.642   1.805   1.139 -0.7319  1.0040  0.8485
  897SOL     OW 2689   0.334   0.514   3.060  0.0032 -0.4217 -0.4385
  897SOL    HW1 2690   0.277   0.536   2.977 -0.0101 -0.7104 -0.8714
  897SOL    HW2 2691   0.422   0.573   3.067 -1.1916  1.4031 -0.3787
  898SOL     OW 2692   0.545   2.882   1.054 -0.3134  0.4547 -1.1216
  898SOL    HW1 2693   0.465   2.931   1.100  0.5554  1.2601  1.1519
  898SOL    HW2 2694   0.627   2.945   1.059  0.7965  0.7421  0.2249
  899SOL     OW 2695   2.713   0.944   1.288  0.4526 -0.6074 -0.1045
  899SOL    HW1 2696   2.643   0.936   1.207  1.4033  1.9200 -0.5483
  899SOL    HW2 2697   2.811   0.935   1.267 -0.4544  3.0070  0.9482
  900SOL     OW 2698   0.959   2.322   2.359 -0.3635  0.3297 -0.0482
  900SOL    HW1 2699   0.906   2.375   2.291  1.4518  0.4804  0.9498
  900SOL    HW2 2700   0.939   2.343   2.458  1.3020 -2.0945  1.5615
  901SOL     OW 2701   1.974   2.486   1.371  0.8561  0.0341  0.0942
  901SOL    HW1 2702   1.927   2.470   1.280 -0.5722 -0.3355 -1.1241
  901SOL    HW2 2703   2.066   2.444   1.386  0.1790  2.3568 -0.3746
  902SOL     OW 2704   2.579   1.691   1.462  0.3688 -0.0938  0.2915
  902SOL    HW1 2705   2.644   1.694   1.540 -2.5965  0.2791  2.5001
  902SOL    HW2 2706   2.617   1.633   1.385 -0.2217 -0.9049 -0.6675
  903SOL     OW 2707   0.289   2.406   2.001 -0.1978  0.4655  0.3360
  903SOL    HW1 2708   0.200   2.370   2.027  1.8792  0.9129 -1.1241
  903SOL    HW2 2709   0.285   2.472   1.919  1.4946  0.4421  1.4866
  904SOL     OW 2710   2.017   0.784   2.603  0.3597  0.2623 -0.1931
  904SOL    HW1 2711   1.939   0.741   2.666 -2.6356 -2.3025  1.6651
  904SOL    HW2 2712   1.993   0.781   2.500 -1.6071 -2.0787  0.1071
  905SOL     OW 2713   2.788   0.022   2.553  0.2978  0.0408 -0.7664
  905SOL    HW1 2714   2.861  -0.046   2.599  2.2679 -0.4194  1.5780
  905SOL    HW2 2715   2.830   0.112   2.520 -0.8035 -1.4693 -1.3245
  906SOL     OW 2716   0.126   1.804   1.954  0.4449  0.7183 -0.5286
  906SOL    HW1 2717   0.077   1.825   1.868 -0.6782 -0.6228  1.5812
  906SOL    HW2 2718   0.225   1.835   1.960 -1.1585 -0.3496  0.6310
  907SOL     OW 2719   0.205   2.413   1.050 -0.0730 -0.5362 -0.0587
  907SOL    HW1 2720   0.254   2.507   1.053 -1.2553 -0.3995  2.5487
  907SOL    HW2 2721   0.181   2.389   0.954  2.6480  0.1658  1.2563
  908SOL     OW 2722   2.679   2.865   0.382  0.6852  0.0669 -0.0263
  908SOL    HW1 2723   2.645   2.855   0.285 -1.2994  0.8523  1.2526
  908SOL    HW2 2724   2.698   2.773   0.421  1.5151  0.8414  1.1420
  909SOL     OW 2725   0.700   0.926   2.640  0.4058 -0.6868  0.3554
  909SOL    HW1 2726   0.703   0.832   2.602  1.2923  1.9718  0.3128
  909SOL    HW2 2727   0.758   0.997   2.593  1.1014 -1.8245 -2.1307
  910SOL     OW 2728   1.719   1.793   2.022  0.2512 -0.3416  0.9292
  910SOL    HW1 2729   1.781   1.822   1.944 -0.6999  0.4825  0.9870
  910SOL    HW2 2730   1.662   1.874   2.056  0.4467 -0.1053 -1.0668
  911SOL     OW 2731   1.738   3.039   1.583  0.0980  0.2027  0.2794
  911SOL    HW1 2732   1.813   2.985   1.532 -0.3871 -0.0057 -0.5999
  911SOL    HW2 2733   1.697   2.989   1.669 -0.6833  3.1384 -0.1072
  912SOL     OW 2734   2.852   0.940   0.758 -0.0913 -0.0152  0.2769
  912SOL    HW1 2735   2.885   0.942   0.858  1.1052  1.3924  0.1046
  912SOL    HW2 2736   2.806   1.027   0.729  2.6419  0.4910 -0.6791
  913SOL     OW 2737   2.578   1.273   1.570 -0.0875  0.2863  0.5345
  913SOL    HW1 2738   2.620   1.196   1.619 -1.4091 -0.4311  0.1847
  913SOL    HW2 2739   2.614   1.269   1.470 -1.0547 -0.9901  0.2887
  914SOL     OW 2740   2.839   0.504   1.286 -0.0247 -0.0988  0.0223
  914SOL    HW1 2741   2.819   0.405   1.297 -0.2270  0.8579 -0.5596
  914SOL    HW2 2742   2.804   0.558   1.366  1.0207 -3.7210 -1.4799
  915SOL     OW 2743   1.202   0.813   1.052  0.1639 -0.1004 -0.0981
  915SOL    HW1 2744   1.281   0.851   1.109 -1.3140 -0.3439 -0.6477
  915SOL    HW2 2745   1.118   0.798   1.104  0.7114  1.0636 -0.4761
  916SOL     OW 2746   0.556   0.043   0.595  0.9612 -0.1969  0.3702
  916SOL    HW1 2747   0.576   0.098   0.681  0.2113 -1.7402  1.0437
  916SOL    HW2 2748   0.564   0.100   0.507 -1.0639  0.4010  0.7400
  917SOL     OW 2749   2.741   2.580   1.890 -0.4605 -0.2018 -0.0718
  917SOL    HW1 2750   2.658   2.629   1.873  1.2710 -2.0249 -0.5507
  917SOL    HW2 2751   2.822   2.638   1.920  1.2561  2.7835 -1.2361
  918SOL     OW 2752   1.019   2.181   3.081  0.5396 -0.2820  0.3196
  918SOL    HW1 2753   1.007   2.220   3.179  1.5650 -0.4668 -0.3649
  918SOL    HW2 2754   1.060   2.085   3.075  1.6253  1.3919  0.6648
  919SOL     OW 2755   0.915   1.596   2.780  0.1256 -0.5447 -0.3499
  919SOL    HW1 2756   0.953   1.656   2.705  1.4116 -3.1860 -4.0335
  919SOL    HW2 2757   0.878   1.507   2.742  0.5890 -1.7955 -0.7128
  920SOL     OW 2758   1.225   2.083   2.486  0.0251 -0.3802 -0.4060
  920SOL    HW1 2759   1.186   2.101   2.393  0.3767 -2.0699 -1.0791
  920SOL    HW2 2760   1.257   1.986   2.502  0.2141  2.3747 -2.5908
  921SOL     OW 2761   1.061   0.093   2.571  0.1227 -0.8909 -0.4813
  921SOL    HW1 2762   1.069   0.061   2.472  2.4760 -0.2370  3.4043
  921SOL    HW2 2763   0.990   0.168   2.580  0.7539  1.4566 -1.5887
  922SOL     OW 2764   2.078   2.421   2.781  0.0418  0.1039  0.0261
  922SOL    HW1 2765   2.100   2.318   2.771  0.9657  1.6933 -1.2838
  922SOL    HW2 2766   2.036   2.456   2.692  0.0460 -2.5507 -1.7918
  923SOL     OW 2767   1.172   2.725   0.202  0.3688 -0.0038  0.5637
  923SOL    HW1 2768   1.261   2.738   0.249 -1.3455 -0.7463 -0.8823
  923SOL    HW2 2769   1.173   2.651   0.128  0.3992  3.0092 -2.2486
  924SOL     OW 2770   2.849   1.577   0.088  0.0075  0.1110 -0.2416
  924SOL    HW1 2771   2.781   1.598   0.014  0.8468  0.4629  0.4712
  924SOL    HW2 2772   2.943   1.557   0.047  0.8667 -2.6953  0.4118
  925SOL     OW 2773   0.088   2.889   1.605 -0.4155  0.1841  0.1378
  925SOL    HW1 2774  -0.013   2.871   1.621 -1.7853 -0.2857  0.2454
  925SOL    HW2 2775   0.115   2.904   1.502  1.6904  0.7587 -1.0660
  926SOL     OW 2776   1.448   2.899   1.288 -0.5186 -0.0333 -0.6178
  926SOL    HW1 2777   1.456   2.904   1.185 -1.4860  0.8092  0.4114
  926SOL    HW2 2778   1.439   2.993   1.336 -0.5827  2.6113 -2.2875
  927SOL     OW 2779   0.255   2.545   1.773 -0.3636 -0.1042 -0.6605
  927SOL    HW1 2780   0.215   2.476   1.706 -0.7554  0.3272  0.2751
  927SOL    HW2 2781   0.303   2.617   1.720 -0.4324 -1.7368  1.5280
  928SOL     OW 2782   1.586   2.030   2.094  0.0634  0.0034  0.5389
  928SOL    HW1 2783   1.614   2.124   2.066 -2.4196 -0.2121 -1.3949
  928SOL    HW2 2784   1.481   2.026   2.097  0.8350  2.3050 -1.0510
  929SOL     OW 2785   2.362   2.438   2.830  0.3354 -0.1750 -0.1900
  929SOL    HW1 2786   2.264   2.407   2.820  0.9817 -0.9130 -1.3535
  929SOL    HW2 2787   2.417   2.412   2.750  0.6085 -0.4109  1.6342
  930SOL     OW 2788   2.205   1.971   1.101 -0.1323 -0.0522  0.3528
  930SOL    HW1 2789   2.163   1.928   1.186  0.7986  0.8479  0.2333
  930SOL    HW2 2790   2.274   2.048   1.124  1.3074 -1.9745  2.6650
  931SOL     OW 2791   0.573   1.744   2.662 -0.0472 -0.0540  0.1164
  931SOL    HW1 2792   0.651   1.758   2.728 -3.3444  1.8926  1.1894
  931SOL    HW2 2793   0.595   1.670   2.591 -0.7492  4.2108  1.0961
  932SOL     OW 2794   0.497   0.099   2.897  0.1984  0.0163  0.0247
  932SOL    HW1 2795   0.585   0.131   2.848 -1.8996  2.2310 -0.6684
  932SOL    HW2 2796   0.499  -0.001   2.926 -1.4026 -0.3762 -0.3953
  933SOL     OW 2797   1.080   0.805   2.968  0.1564  0.4540 -0.3258
  933SOL    HW1 2798   1.142   0.853   3.033  1.9815  0.6424 -1.0825
  933SOL    HW2 2799   1.019   0.864   2.912 -1.7038 -0.8989 -0.2384
  934SOL     OW 2800   0.846   2.956   2.754  0.3572  0.4409  0.2873
  934SOL    HW1 2801   0.875   2.878   2.696  0.6605 -0.9251  2.5981
  934SOL    HW2 2802   0.849   2.942   2.861  2.7444  0.1547  2.7657
  935SOL     OW 2803   3.093   0.550   0.915 -0.1536 -0.6143 -0.1342
  935SOL    HW1 2804   3.084   0.490   0.826 -1.2682 -2.8422 -0.5318
  935SOL    HW2 2805   3.004   0.612   0.929 -0.8475  1.5154  1.8148
  936SOL     OW 2806   1.105   2.972   0.153 -0.3164  0.5120  0.3062
  936SOL    HW1 2807   1.164   2.999   0.072 -0.3789  1.2169 -2.2407
  936SOL    HW2 2808   1.121   2.870   0.173  0.5254  2.8496  0.1184
  937SOL     OW 2809   1.951   2.645   2.103 -0.3275  0.5600  0.0590
  937SOL    HW1 2810   1.867   2.694   2.137  3.0308 -0.1883 -1.3601
  937SOL    HW2 2811   1.958   2.650   2.002 -0.9561  1.7337  1.2608
  938SOL     OW 2812   2.747   2.182   1.517 -0.7190  0.1145 -0.5018
  938SOL    HW1 2813   2.676   2.212   1.585 -0.8652  0.8097 -0.4541
  938SOL    HW2 2814   2.817   2.112   1.557  2.1727  0.9923  1.7488
  939SOL     OW 2815   2.724   1.014   2.514  0.1231 -0.5363 -0.0930
  939SOL    HW1 2816   2.778   0.930   2.506 -0.9550  1.7677 -1.8615
  939SOL    HW2 2817   2.723   1.058   2.610 -1.0831 -3.1158  2.2419
  940SOL     OW 2818   1.064   0.469   2.653  0.2469  0.0719  0.2799
  940SOL    HW1 2819   1.113   0.386   2.670 -3.6212  1.9861  2.0935
  940SOL    HW2 2820   0.964   0.451   2.652  2.5274  1.1736  0.9501
  941SOL     OW 2821   0.044   2.880   2.228 -0.1708 -0.4489 -0.0877
  941SOL    HW1 2822   0.004   2.786   2.207 -1.1228 -0.1690  0.1913
  941SOL    HW2 2823   0.122   2.886   2.293  0.1108  0.3459 -0.9411
  942SOL     OW 2824   0.100   0.077   2.528  0.0031  0.0636 -0.1285
  942SOL    HW1 2825   0.158   0.108   2.607 -0.4761  0.8330  0.0178
  942SOL    HW2 2826   0.072   0.153   2.462  0.4064  2.3154  1.4771
  943SOL     OW 2827   2.091   1.645   2.468  0.2348 -0.2025  0.0549
  943SOL    HW1 2828   2.131   1.550   2.475 -0.2522 -0.4123  3.2382
  943SOL    HW2 2829   2.069   1.673   2.374  0.0497  2.7903  3.6198
  944SOL     OW 2830   2.194   2.336   1.499  0.2222 -0.4827 -0.0354
  944SOL    HW1 2831   2.262   2.400   1.551 -1.3320 -2.7147 -3.2050
  944SOL    HW2 2832   2.135   2.284   1.562 -0.4693  2.2677  0.1785
  945SOL     OW 2833   0.631   1.482   0.385  0.1984 -0.0439 -0.4830
  945SOL    HW1 2834   0.666   1.486   0.285  1.6854 -2.0462  0.3152
  945SOL    HW2 2835   0.652   1.387   0.424 -0.6171 -1.1713  1.9772
  946SOL     OW 2836   0.335   1.014   2.633 -0.2977 -0.5577  0.6084
  946SOL    HW1 2837   0.297   0.939   2.573  0.7989 -0.7174  2.7445
  946SOL    HW2 2838   0.327   1.109   2.595  0.2664  1.6555 -0.4797
  947SOL     OW 2839   1.484   0.443   0.154  0.6955 -0.6215  0.1193
  947SOL    HW1 2840   1.481   0.408   0.248  0.5942  0.5733  0.9386
  947SOL    HW2 2841   1.420   0.388   0.089 -0.3887  0.3240  2.3919
  948SOL     OW 2842   1.978   0.011   2.174  0.3817 -0.2613 -0.8091
  948SOL    HW1 2843   1.935  -0.005   2.077 -0.6691  1.1550  0.6223
  948SOL    HW2 2844   1.965  -0.073   2.237  1.4331 -0.8947  1.9406
  949SOL     OW 2845   0.580   2.539   0.456  0.1908 -0.0233 -0.2551
  949SOL    HW1 2846   0.587   2.637   0.421 -0.8477 -1.5594 -0.2147
  949SOL    HW2 2847   0.606   2.525   0.557 -1.8286  1.3486  0.0018
  950SOL     OW 2848   0.277   2.077   3.012 -0.4801 -0.2032 -0.0931
  950SOL    HW1 2849   0.184   2.123   3.027 -0.9254  1.3404  1.7787
  950SOL    HW2 2850   0.276   1.976   3.040  0.7955  0.0671  2.8908
  951SOL     OW 2851   1.158   2.792   2.783  0.3958  0.5338  0.1463
  951SOL    HW1 2852   1.130   2.856   2.706  2.1728  0.9700  0.1180
  951SOL    HW2 2853   1.254   2.807   2.807 -2.7847  0.1419  1.2343
  952SOL     OW 2854   0.106   1.722   0.460  0.1770  0.5740 -0.3606
  952SOL    HW1 2855   0.198   1.780   0.450  0.3979 -1.7211  0.6886
  952SOL    HW2 2856   0.064   1.702   0.551  0.6661 -1.6172  0.1713
  953SOL     OW 2857   2.511   1.758   0.192 -0.4330 -0.1945  0.1844
  953SOL    HW1 2858   2.499   1.655   0.224 -2.2096 -2.5501  0.3149
  953SOL    HW2 2859   2.497   1.782   0.090 -1.5753  1.9815  1.6396
  954SOL     OW 2860   2.167   0.497   1.064  0.4256 -1.0890  0.1138
  954SOL    HW1 2861   2.096   0.504   0.986 -1.7895  1.6123 -2.6768
  954SOL    HW2 2862   2.257   0.455   1.033 -0.8565  1.7067  0.6416
  955SOL     OW 2863   0.227   2.650   1.288 -0.4824  0.0307 -0.6583
  955SOL    HW1 2864   0.122   2.642   1.291  0.5515 -1.2148  0.2722
  955SOL    HW2 2865   0.266   2.637   1.195 -0.9935 -2.3198  1.5995
  956SOL     OW 2866   2.738   2.483   2.517 -0.8145 -0.2376 -0.0240
  956SOL    HW1 2867   2.770   2.386   2.527 -1.0303  1.5249  0.3840
  956SOL    HW2 2868   2.783   2.541   2.441  1.6379  1.2951 -1.7506
  957SOL     OW 2869   1.532   2.018   2.651 -0.0612 -0.9982 -0.1119
  957SOL    HW1 2870   1.470   1.939   2.632 -2.7466  1.2744  2.9006
  957SOL    HW2 2871   1.594   2.035   2.574  2.1974 -2.4049 -1.5906
  958SOL     OW 2872   2.660   2.315   3.016  0.5444 -0.0001 -0.1722
  958SOL    HW1 2873   2.564   2.342   2.977 -1.2789 -2.8707  0.4257
  958SOL    HW2 2874   2.659   2.227   3.071 -0.0628  0.4413  0.1773
  959SOL     OW 2875   0.231   2.813   0.027 -0.2010 -0.4028  0.0294
  959SOL    HW1 2876   0.131   2.795   0.039  1.3438 -2.0877  0.0892
  959SOL    HW2 2877   0.285   2.725   0.028 -0.1024  1.7041  1.6022
  960SOL     OW 2878   1.980   0.465   1.949 -0.7229 -0.7465  0.2460
  960SOL    HW1 2879   1.938   0.554   1.915 -1.2680  1.5045  0.9477
  960SOL    HW2 2880   2.010   0.476   2.050  1.0975  1.2925  0.2128
  961SOL     OW 2881   2.647   1.865   1.034  0.5081  0.4983 -0.1092
  961SOL    HW1 2882   2.572   1.899   0.969 -1.2375 -1.0421 -1.9676
  961SOL    HW2 2883   2.635   1.906   1.128  0.7284 -1.1932  0.5813
  962SOL     OW 2884   1.279   0.908   0.042  0.1575  0.0393 -0.2110
  962SOL    HW1 2885   1.313   0.971  -0.036  0.1893 -0.1043 -1.2832
  962SOL    HW2 2886   1.266   0.950   0.138  0.1847 -0.4638 -1.9491
  963SOL     OW 2887   2.287   2.618   1.857 -0.9264 -0.3837  0.8423
  963SOL    HW1 2888   2.278   2.533   1.916  1.0615 -0.2990  1.9940
  963SOL    HW2 2889   2.303   2.706   1.907 -0.9702  0.3116  1.0341
  964SOL     OW 2890   2.452   0.384   1.699  0.0109  0.0671 -0.2031
  964SOL    HW1 2891   2.531   0.427   1.751 -1.2122  1.5461 -1.7853
  964SOL    HW2 2892   2.476   0.369   1.601  2.0484  0.7394  1.1752
  965SOL     OW 2893   2.659   3.012   0.120  0.6771 -0.2824 -0.2884
  965SOL    HW1 2894   2.707   2.965   0.045  0.4931 -2.9497  3.9191
  965SOL    HW2 2895   2.604   3.095   0.086 -0.7051  2.3515  1.4204
  966SOL     OW 2896   2.563   2.632   2.157 -0.2318  0.1926  0.1173
  966SOL    HW1 2897   2.488   2.562   2.154  0.1049  0.4411 -0.8341
  966SOL    HW2 2898   2.524   2.728   2.169 -2.5285  0.7120  1.7940
  967SOL     OW 2899   2.774   2.847   2.464 -0.0212  0.4353  0.4895
  967SOL    HW1 2900   2.800   2.775   2.395  0.2111 -0.1036  3.2648
  967SOL    HW2 2901   2.842   2.928   2.469 -0.6510  3.0186 -0.3358
  968SOL     OW 2902   2.015   1.031   2.713  0.8915 -0.4589  0.6996
  968SOL    HW1 2903   1.940   1.090   2.676  0.4215 -3.6682 -2.0635
  968SOL    HW2 2904   2.025   0.943   2.653 -0.5586 -0.5213 -0.2843
  969SOL     OW 2905   2.713   2.332   1.155 -0.3503  0.1696  0.2431
  969SOL    HW1 2906   2.685   2.342   1.054 -0.6960  1.6257  0.0248
  969SOL    HW2 2907   2.782   2.255   1.172  0.1932  1.3594 -1.4539
  970SOL     OW 2908   1.115   2.190   1.781  0.2847 -0.9248  0.1232
  970SOL    HW1 2909   1.010   2.206   1.779  2.1557 -0.6890  3.4627
  970SOL    HW2 2910   1.149   2.202   1.881  0.3443  0.3453 -0.2399
  971SOL     OW 2911   2.831   2.086   1.943 -0.3298  0.9035 -0.0813
  971SOL    HW1 2912   2.828   2.190   1.971 -0.3801  0.6520 -0.0742
  971SOL    HW2 2913   2.866   2.079   1.843  2.4242 -1.3747  0.8058
  972SOL     OW 2914   2.055   2.438   0.275 -0.0860  0.4244  0.1339
  972SOL    HW1 2915   2.024   2.355   0.214 -0.2757 -1.7540  0.3740
  972SOL    HW2 2916   2.085   2.416   0.372 -1.5024 -0.0228  1.8159
  973SOL     OW 2917   1.301   1.071   1.932  0.5304  0.0262 -0.9806
  973SOL    HW1 2918   1.222   1.031   1.875  3.0302  0.0602 -1.1309
  973SOL    HW2 2919   1.305   1.170   1.921 -1.1813 -2.5867 -0.8945
  974SOL     OW 2920   1.662   0.536   1.891  0.3694  0.3232  0.1053
  974SOL    HW1 2921   1.739   0.609   1.886  0.5677  0.5491  0.2257
  974SOL    HW2 2922   1.572   0.586   1.908 -2.6470 -4.0003  1.5012
  975SOL     OW 2923   2.405   3.059   3.085  0.1658 -0.5380 -0.1239
  975SOL    HW1 2924   2.358   2.990   3.146  1.6753  0.7489 -0.1251
  975SOL    HW2 2925   2.441   3.025   2.993  2.7941 -1.1866 -1.9215
  976SOL     OW 2926   1.925   2.895   2.318  0.3448  0.0563 -0.1058
  976SOL    HW1 2927   1.835   2.848   2.305 -0.4984 -0.3979  0.2376
  976SOL    HW2 2928   1.982   2.844   2.380 -2.0597  2.2117 -3.1477
  977SOL     OW 2929   0.471   0.644   1.015  0.1488 -0.4810  0.6393
  977SOL    HW1 2930   0.395   0.608   0.957  1.8830  0.7809 -2.6610
  977SOL    HW2 2931   0.570   0.634   0.977  1.4199  0.1717  0.2453
   3.10000   3.10000   3.10000
