1000 SPC/Fw water molecules t=   1.45000 step= 1450
 2931
    1SOL     OW    1   2.444   0.330   2.654 -0.8477  0.6370 -0.1003
    1SOL    HW1    2   2.459   0.228   2.644 -1.4158  1.3472  0.2924
    1SOL    HW2    3   2.498   0.378   2.736  0.6336  1.1350 -0.0189
    2SOL     OW    4   2.739   2.987   1.389 -0.4245 -0.1787  0.3543
    2SOL    HW1    5   2.833   2.973   1.342  0.8945  0.0203 -2.1037
    2SOL    HW2    6   2.729   3.080   1.428 -1.3809  0.3036  0.9351
    3SOL     OW    7   2.647   2.561   0.390 -0.1015 -0.2127 -0.3052
    3SOL    HW1    8   2.575   2.486   0.382  0.9840  2.0697 -0.4976
    3SOL    HW2    9   2.685   2.575   0.484  1.7942 -1.5554 -1.0471
    4SOL     OW   10   1.222   1.511   2.413 -0.3038  0.0542  0.0231
    4SOL    HW1   11   1.172   1.499   2.324 -0.0056 -0.9844 -2.2595
    4SOL    HW2   12   1.232   1.424   2.471 -0.0334  0.4736  1.3294
    5SOL     OW   13   1.190   1.558   2.906  0.2363  0.2342  0.5230
    5SOL    HW1   14   1.226   1.645   2.955 -0.4469  1.1916 -0.7407
    5SOL    HW2   15   1.096   1.574   2.864 -0.9851 -3.3157  0.9145
    6SOL     OW   16   0.279   1.792   3.013  0.1341 -0.1437  0.0206
    6SOL    HW1   17   0.191   1.813   3.067 -3.8223 -3.3398 -2.3147
    6SOL    HW2   18   0.350   1.750   3.079  3.4171 -3.5788  2.3049
    7SOL     OW   19   2.474   0.903   1.053  0.4238  0.3445  0.0986
    7SOL    HW1   20   2.391   0.873   1.104 -0.3711 -0.5215 -2.6856
    7SOL    HW2   21   2.482   0.852   0.964  1.4638 -0.0447 -0.4957
    8SOL     OW   22   0.329   0.684   1.518 -0.0118 -0.2684  0.1629
    8SOL    HW1   23   0.427   0.650   1.502 -1.8134 -1.9687  1.5675
    8SOL    HW2   24   0.295   0.751   1.449  0.3549  0.4774  1.9407
    9SOL     OW   25   1.167   0.828   2.371  0.2121 -0.1405 -1.0467
    9SOL    HW1   26   1.245   0.861   2.303  1.2646  0.4341 -0.5859
    9SOL    HW2   27   1.128   0.736   2.353  0.2173  0.7333 -0.2466
   10SOL     OW   28   0.710   1.385   1.307  0.7267  0.6341 -0.1920
   10SOL    HW1   29   0.636   1.379   1.231  1.9735 -0.8934 -2.4114
   10SOL    HW2   30   0.727   1.478   1.335 -0.0204 -1.4496 -3.8860
   11SOL     OW   31   2.301   2.826   0.842 -0.2383  0.0363  0.4394
   11SOL    HW1   32   2.270   2.821   0.937 -0.3218  0.6567 -0.3431
   11SOL    HW2   33   2.406   2.809   0.832  3.0496 -0.8071 -0.7276
   12SOL     OW   34   1.517   0.903   0.407 -0.2493  1.0991 -0.1119
   12SOL    HW1   35   1.470   0.964   0.337  1.0632  0.4683 -2.7285
   12SOL    HW2   36   1.552   0.814   0.362  0.8850  1.2826 -1.6356
   13SOL     OW   37   2.428   0.689   1.786 -0.6945 -0.3282  0.1933
   13SOL    HW1   38   2.338   0.665   1.832  1.4708  1.8466 -0.8005
   13SOL    HW2   39   2.436   0.665   1.683  2.9238  2.2906  0.6614
   14SOL     OW   40   1.954   0.002   0.613  0.3277 -0.2020 -0.8389
   14SOL    HW1   41   1.854   0.039   0.613  1.3728  0.5770  0.5700
   14SOL    HW2   42   1.971  -0.046   0.705 -1.3857 -0.0711  1.5023
   15SOL     OW   43   1.872   2.065   2.669  0.0072 -0.2116  0.2649
   15SOL    HW1   44   1.805   2.087   2.744  0.3146 -2.0706 -0.5897
   15SOL    HW2   45   1.856   1.971   2.630  0.1571  0.2560 -2.2907
   16SOL     OW   46   1.611   1.742   3.011  0.3791  0.4705  0.3487
   16SOL    HW1   47   1.622   1.650   3.051 -2.9688  0.7432  1.0655
   16SOL    HW2   48   1.684   1.804   3.054 -0.6266  0.2331  1.3946
   17SOL     OW   49   0.101   0.422   0.181  0.1327  0.2075 -0.2348
   17SOL    HW1   50   0.189   0.455   0.139 -1.0035  0.5999 -1.9531
   17SOL    HW2   51   0.030   0.430   0.110  2.7545  1.7712  0.7297
   18SOL     OW   52   0.900   2.990   2.151  0.4706 -0.1508 -0.6127
   18SOL    HW1   53   0.874   2.894   2.189  1.7104  0.4239  0.6719
   18SOL    HW2   54   0.962   2.975   2.072 -2.1709  1.8505  1.6208
   19SOL     OW   55   0.565   0.853   1.885  0.9523  0.2913  0.2122
   19SOL    HW1   56   0.610   0.815   1.968  1.1071  1.7075 -0.7739
   19SOL    HW2   57   0.616   0.938   1.848 -0.1297  0.6252  0.2147
   20SOL     OW   58   0.248   2.836   0.847 -0.3012  0.2773 -0.4575
   20SOL    HW1   59   0.158   2.881   0.847 -0.3588  0.5626  1.6666
   20SOL    HW2   60   0.249   2.733   0.820  1.3205 -0.1441  0.2951
   21SOL     OW   61   2.764   0.275   1.967 -0.1897  0.2511  0.4718
   21SOL    HW1   62   2.721   0.203   1.903  0.5079 -0.3177  0.3157
   21SOL    HW2   63   2.834   0.235   2.028  1.5046  1.4122 -2.6823
   22SOL     OW   64   2.368   0.188   0.123 -0.0263  0.0517  0.2253
   22SOL    HW1   65   2.381   0.106   0.061 -1.2154  1.2747 -0.4309
   22SOL    HW2   66   2.310   0.253   0.073  2.0412 -3.7390  1.8844
   23SOL     OW   67   2.836   0.546   0.689 -0.0538 -0.6045  0.1968
   23SOL    HW1   68   2.828   0.457   0.634 -0.0876 -1.4606 -0.8788
   23SOL    HW2   69   2.814   0.627   0.624 -0.7391 -1.2584 -1.5704
   24SOL     OW   70   0.232   1.852   0.444  0.7165 -0.1979 -0.1158
   24SOL    HW1   71   0.216   1.919   0.364 -1.4421 -0.4043 -2.5145
   24SOL    HW2   72   0.326   1.823   0.461  0.5693  1.6030  0.1061
   25SOL     OW   73   2.258   0.624   0.219  0.4610 -0.2979  0.3134
   25SOL    HW1   74   2.249   0.617   0.117  1.8363 -0.2812  0.2298
   25SOL    HW2   75   2.279   0.531   0.265 -2.4731 -1.6029 -1.6479
   26SOL     OW   76   2.456   2.136   2.119  0.0473  0.1009 -0.6930
   26SOL    HW1   77   2.549   2.177   2.142 -0.2423 -1.0993  0.0316
   26SOL    HW2   78   2.454   2.085   2.028  0.3305 -0.5271  0.2388
   27SOL     OW   79   0.588   2.943   0.180 -0.6738 -0.5850 -0.6301
   27SOL    HW1   80   0.688   2.970   0.162 -1.0254  0.5017 -3.9283
   27SOL    HW2   81   0.536   2.949   0.095 -1.1801  1.4457 -0.1234
   28SOL     OW   82   1.631   0.099   0.324  0.1350 -0.2399 -0.4246
   28SOL    HW1   83   1.645   0.075   0.224  0.2385  1.0444  1.2206
   28SOL    HW2   84   1.660   0.199   0.349  0.3831  2.6364 -0.1403
   29SOL     OW   85   1.969   0.591   0.276  0.4508 -0.0617  0.1020
   29SOL    HW1   86   1.939   0.657   0.349  2.7404  2.4305 -0.2686
   29SOL    HW2   87   2.067   0.605   0.252 -0.5928  2.7866 -0.0482
   30SOL     OW   88   0.199   2.056   0.885  0.1428 -0.0226  0.1706
   30SOL    HW1   89   0.202   1.974   0.822  0.2544  0.8622  0.3073
   30SOL    HW2   90   0.099   2.075   0.913  0.5331  0.5059  4.6863
   31SOL     OW   91   2.177   0.082   2.401  0.4851 -0.1054 -0.4949
   31SOL    HW1   92   2.169   0.047   2.500  3.0575 -0.3264  0.0829
   31SOL    HW2   93   2.103   0.037   2.338 -2.8345 -0.8435 -1.1814
   32SOL     OW   94   2.971   3.053   0.267  0.2561 -0.2928 -0.0532
   32SOL    HW1   95   2.950   2.952   0.279 -1.9074 -1.8653 -2.8655
   32SOL    HW2   96   3.043   3.094   0.332  2.7287 -1.1660 -1.7810
   33SOL     OW   97   0.879   0.207   0.631  0.7689  0.1874 -0.3546
   33SOL    HW1   98   0.874   0.133   0.556  0.5028 -1.7670 -0.0388
   33SOL    HW2   99   0.961   0.270   0.621 -1.8513 -1.9739 -0.6500
   34SOL     OW  100   0.331   2.725   1.090  0.4161 -0.3184 -0.0999
   34SOL    HW1  101   0.291   2.790   1.019 -0.3808 -1.1830  0.8181
   34SOL    HW2  102   0.427   2.763   1.111 -0.6664  1.5207 -4.3474
   35SOL     OW  103   3.100   0.101   1.862  0.2112  0.1377 -0.1327
   35SOL    HW1  104   3.086   0.003   1.895  0.2818 -0.8832  1.5377
   35SOL    HW2  105   3.057   0.136   1.774  0.4959 -0.4795  0.3834
   36SOL     OW  106   1.847   1.190   1.532  1.2435  0.3660 -0.6460
   36SOL    HW1  107   1.928   1.134   1.561  0.2200 -2.0384  1.0664
   36SOL    HW2  108   1.874   1.255   1.455  1.7142  1.4379  0.7307
   37SOL     OW  109   1.142   0.179   0.975 -0.4190  0.2818  0.1382
   37SOL    HW1  110   1.165   0.279   0.983  0.5172 -0.4725 -1.7351
   37SOL    HW2  111   1.208   0.127   0.910  0.0793  1.8795 -0.2700
   38SOL     OW  112   1.162   2.913   2.409  0.7452  0.4850  0.2127
   38SOL    HW1  113   1.068   2.879   2.442 -4.1696  1.1026  0.7609
   38SOL    HW2  114   1.149   3.011   2.365 -0.5008 -0.1741  0.6304
   39SOL     OW  115   2.441   1.397   3.045  0.1124  0.4477  0.1194
   39SOL    HW1  116   2.519   1.332   3.069  3.3068  1.4975  0.2579
   39SOL    HW2  117   2.372   1.393   3.121  2.4464  1.0135  0.0831
   40SOL     OW  118   2.030   2.507   2.608  0.3442  0.3353  0.4172
   40SOL    HW1  119   1.987   2.602   2.605 -0.8855 -1.4842  0.2344
   40SOL    HW2  120   1.992   2.441   2.535 -1.3623  1.8275 -4.3579
   41SOL     OW  121   3.015   0.650   2.828  0.2648  0.1347  0.3970
   41SOL    HW1  122   2.932   0.705   2.805  1.4437  2.2038 -0.9198
   41SOL    HW2  123   3.010   0.554   2.798  1.0633  3.2899 -1.2926
   42SOL     OW  124   1.770   1.750   0.572  0.8320 -0.5189  0.1840
   42SOL    HW1  125   1.707   1.666   0.573 -1.5115 -1.9001  2.9606
   42SOL    HW2  126   1.790   1.782   0.473  1.0457 -0.5136  1.3853
   43SOL     OW  127   0.509   1.654   1.246 -0.0754  0.4975 -0.5738
   43SOL    HW1  128   0.513   1.571   1.184 -0.2026 -2.1432 -0.3357
   43SOL    HW2  129   0.407   1.670   1.276 -2.1385 -0.4029 -0.1128
   44SOL     OW  130   1.667   2.404   2.986 -0.3124 -0.6947 -0.3638
   44SOL    HW1  131   1.572   2.446   2.978  2.8244  0.6311 -2.7862
   44SOL    HW2  132   1.710   2.414   2.892 -1.6970  1.7734  1.4781
   45SOL     OW  133   0.365   1.911   2.548  0.3124  0.0174  0.0457
   45SOL    HW1  134   0.302   1.887   2.473  1.2363 -0.8195  2.9450
   45SOL    HW2  135   0.416   1.823   2.575 -1.2424  1.7754  1.4286
   46SOL     OW  136   1.297   0.685   0.258 -0.2478  0.7943  0.6177
   46SOL    HW1  137   1.317   0.753   0.185 -0.0799 -0.3661 -0.9335
   46SOL    HW2  138   1.218   0.620   0.229 -0.1226 -2.6941  0.6335
   47SOL     OW  139   0.182   2.457   1.560 -0.2650 -0.0972  0.1932
   47SOL    HW1  140   0.130   2.369   1.569  3.2091  1.7318  0.0402
   47SOL    HW2  141   0.184   2.491   1.462 -0.5377 -0.0477  0.8617
   48SOL     OW  142   2.665   0.628   0.144  0.4666  0.4544  0.5748
   48SOL    HW1  143   2.629   0.635   0.241  1.4493  0.4492 -2.4365
   48SOL    HW2  144   2.765   0.647   0.128 -1.2124  3.1009 -2.2340
   49SOL     OW  145   0.338   0.789   1.767 -0.1300  0.5204 -0.5049
   49SOL    HW1  146   0.434   0.802   1.807  0.0267 -0.6263  0.7620
   49SOL    HW2  147   0.329   0.731   1.677 -0.2735 -0.7531 -0.3380
   50SOL     OW  148   1.733   1.132   0.311  0.2849  0.4679  0.1808
   50SOL    HW1  149   1.741   1.035   0.280  0.8690  0.1004  0.4659
   50SOL    HW2  150   1.681   1.141   0.401 -1.4422  1.0703  0.7486
   51SOL     OW  151   3.020   1.748   0.262 -0.4043 -0.2272  0.1520
   51SOL    HW1  152   2.975   1.674   0.206 -2.7112  1.3036  1.9375
   51SOL    HW2  153   3.044   1.713   0.356  1.5643 -0.9496  1.2113
   52SOL     OW  154   0.801   2.149   0.652  0.1330  0.2857 -0.1687
   52SOL    HW1  155   0.703   2.121   0.674  1.9024  1.1925  0.5648
   52SOL    HW2  156   0.863   2.069   0.655 -0.5010 -1.0687 -1.3636
   53SOL     OW  157   0.212   0.435   1.527  0.6190  0.3877 -0.9657
   53SOL    HW1  158   0.259   0.527   1.542  3.8295  0.7246 -2.7553
   53SOL    HW2  159   0.135   0.450   1.455 -0.2192  0.3214 -0.9009
   54SOL     OW  160   1.787   0.497   3.082 -0.8214  0.3023  0.1968
   54SOL    HW1  161   1.864   0.453   3.140  1.7577 -0.0507 -0.6840
   54SOL    HW2  162   1.697   0.519   3.127  1.3165  1.3020 -1.4983
   55SOL     OW  163   0.736   2.913   0.715 -0.3191  0.7059 -0.4406
   55SOL    HW1  164   0.674   2.997   0.706  0.6626  0.0063 -1.4162
   55SOL    HW2  165   0.832   2.920   0.676 -0.8693  1.6401  0.7194
   56SOL     OW  166   0.588   1.599   3.068 -0.4311 -0.4972  0.0729
   56SOL    HW1  167   0.516   1.640   3.135  0.9205  0.2951 -1.5531
   56SOL    HW2  168   0.551   1.520   3.012  2.8319 -2.1022  1.6286
   57SOL     OW  169   1.759   2.500   2.409 -0.5688  0.2213 -0.2387
   57SOL    HW1  170   1.829   2.427   2.407 -0.2754 -0.7431 -0.0404
   57SOL    HW2  171   1.661   2.465   2.405 -0.7282  0.4697 -0.7126
   58SOL     OW  172   0.672   0.250   1.100 -0.2130  0.2690 -0.6194
   58SOL    HW1  173   0.578   0.250   1.146  0.0224 -2.6086  0.8175
   58SOL    HW2  174   0.726   0.162   1.126 -1.4121 -3.0314 -3.4356
   59SOL     OW  175   0.450   2.413   2.730  0.2903  0.2404 -0.1522
   59SOL    HW1  176   0.473   2.318   2.693 -1.2231 -2.2572 -1.8707
   59SOL    HW2  177   0.525   2.476   2.718 -0.2741 -1.8183  1.6477
   60SOL     OW  178   2.282   2.117   2.349 -0.2942 -0.0844 -0.0841
   60SOL    HW1  179   2.328   2.140   2.260 -2.6184 -1.0757  1.0066
   60SOL    HW2  180   2.332   2.161   2.429  0.2223 -1.9882 -2.6910
   61SOL     OW  181   1.216   0.647   0.527 -0.4816 -0.3413  0.5058
   61SOL    HW1  182   1.128   0.706   0.530  3.2078  1.3945 -1.4487
   61SOL    HW2  183   1.254   0.665   0.433 -2.9539  3.7432  1.0949
   62SOL     OW  184   2.713   1.707   2.762  0.2933 -0.1128 -0.2376
   62SOL    HW1  185   2.661   1.623   2.746 -1.8438  0.8630  3.1976
   62SOL    HW2  186   2.814   1.688   2.781  1.6032 -1.0709 -0.5787
   63SOL     OW  187   0.544   0.908   0.200 -0.4610 -0.3263 -0.1566
   63SOL    HW1  188   0.598   0.972   0.139 -0.2321 -0.5801 -0.6059
   63SOL    HW2  189   0.569   0.923   0.300 -0.5233  1.6631  0.5541
   64SOL     OW  190   3.037   0.573   2.335  0.0340 -0.5804 -0.2770
   64SOL    HW1  191   2.985   0.638   2.398  1.2281  0.0267 -3.4353
   64SOL    HW2  192   3.010   0.596   2.238 -1.4146  1.8936 -0.2541
   65SOL     OW  193   0.195   1.433   0.713 -0.0695 -0.2338  0.1598
   65SOL    HW1  194   0.226   1.510   0.782  0.3878  0.9102 -0.5791
   65SOL    HW2  195   0.236   1.460   0.622 -3.1603 -0.7688 -0.0742
   66SOL     OW  196   2.536   0.382   0.524  0.1380 -0.6204  0.3436
   66SOL    HW1  197   2.634   0.413   0.538  2.0179 -0.3557  1.2628
   66SOL    HW2  198   2.494   0.338   0.611 -1.4930  0.5322 -1.6617
   67SOL     OW  199   0.641   2.483   1.466 -0.3644  0.1747  0.5188
   67SOL    HW1  200   0.722   2.439   1.521  1.3206 -0.4590 -0.4200
   67SOL    HW2  201   0.569   2.414   1.439 -1.5760  2.6929  0.2873
   68SOL     OW  202   0.977   1.019   2.483 -0.5014 -0.5969 -0.8286
   68SOL    HW1  203   1.056   0.966   2.448 -1.4795  0.7944  2.9698
   68SOL    HW2  204   0.924   1.053   2.403  2.4006  2.2127 -1.1777
   69SOL     OW  205   0.794   2.747   2.266  0.3015 -0.2191  1.1073
   69SOL    HW1  206   0.817   2.660   2.213 -3.6689 -0.6859  0.3144
   69SOL    HW2  207   0.701   2.736   2.311 -0.8783 -0.2731 -2.0214
   70SOL     OW  208   0.437   0.106   2.490 -0.2712  0.4783 -0.1706
   70SOL    HW1  209   0.352   0.069   2.532  1.1699 -3.9206 -2.1946
   70SOL    HW2  210   0.517   0.039   2.502 -1.7718 -1.7874  0.9723
   71SOL     OW  211   1.095   1.729   0.315  0.0818 -0.1159 -0.0466
   71SOL    HW1  212   1.059   1.669   0.387  1.0212 -2.2157 -1.6663
   71SOL    HW2  213   1.018   1.765   0.253  0.5717 -1.7385 -0.0182
   72SOL     OW  214   1.823   0.206   2.163 -0.0624  0.5955 -0.0071
   72SOL    HW1  215   1.873   0.297   2.166 -4.1788 -1.7985  0.1233
   72SOL    HW2  216   1.883   0.120   2.175  0.9958 -0.3464 -1.2232
   73SOL     OW  217   2.786   2.185   2.434 -0.1084  0.4138  0.1082
   73SOL    HW1  218   2.766   2.089   2.402 -1.7334  1.5960  0.4310
   73SOL    HW2  219   2.824   2.185   2.531 -4.2082 -2.0527 -0.5346
   74SOL     OW  220   2.717   2.874   2.159  0.0328 -0.0362 -0.1416
   74SOL    HW1  221   2.712   2.874   2.259  3.8779  1.2341 -2.0860
   74SOL    HW2  222   2.797   2.934   2.124  1.8052  0.7922 -0.8321
   75SOL     OW  223   0.975   0.882   1.108  0.6967 -0.1609  0.3139
   75SOL    HW1  224   0.876   0.880   1.078 -1.1237 -1.9302 -2.1206
   75SOL    HW2  225   1.001   0.916   1.203  2.6724 -1.0928  1.0814
   76SOL     OW  226   1.863   1.277   2.498  0.4779 -0.2367  0.7140
   76SOL    HW1  227   1.761   1.302   2.512  1.1963  2.5392  0.0835
   76SOL    HW2  228   1.920   1.365   2.499 -1.1449  1.0051 -1.8263
   77SOL     OW  229   2.896   0.937   1.057 -0.5123  0.1268  0.1381
   77SOL    HW1  230   2.879   0.835   1.047 -0.2132  1.7895  0.8990
   77SOL    HW2  231   2.979   0.969   1.112  1.1979  1.4627 -0.4022
   78SOL     OW  232   2.012   1.336   1.357 -0.3935 -0.5982 -0.3030
   78SOL    HW1  233   2.105   1.320   1.310  0.3309  0.3658 -5.1476
   78SOL    HW2  234   1.973   1.427   1.322  0.2396  0.7760  0.0738
   79SOL     OW  235   0.686   1.395   0.798 -0.0842 -0.2403 -0.1337
   79SOL    HW1  236   0.592   1.360   0.837 -3.0279  1.8506  1.9925
   79SOL    HW2  237   0.737   1.324   0.731  3.0955 -0.0050  3.7365
   80SOL     OW  238   0.579   0.527   1.538 -0.6674  0.2148  0.1070
   80SOL    HW1  239   0.638   0.577   1.465 -0.5471  2.1822  1.1588
   80SOL    HW2  240   0.604   0.425   1.544 -0.8780  0.9618  2.9500
   81SOL     OW  241   0.985   1.286   2.613  0.1100 -0.4568 -0.1977
   81SOL    HW1  242   0.930   1.208   2.654 -0.0173 -0.5316 -1.0339
   81SOL    HW2  243   0.949   1.312   2.516 -0.3078  0.3071  0.8885
   82SOL     OW  244   0.991   2.870   1.528 -1.1001  0.1725  0.4013
   82SOL    HW1  245   0.902   2.815   1.535 -0.1768 -1.5143  1.3151
   82SOL    HW2  246   1.017   2.896   1.429  1.6558  2.1610  0.2181
   83SOL     OW  247   2.551   2.361   0.875  0.0530 -0.2720  0.0959
   83SOL    HW1  248   2.483   2.324   0.807  0.4244 -0.0594  1.9059
   83SOL    HW2  249   2.542   2.469   0.885 -1.5497 -1.7892  0.1659
   84SOL     OW  250   0.751   0.031   2.343 -0.4330  0.1598  0.4222
   84SOL    HW1  251   0.699  -0.029   2.408  1.2127 -0.0342 -1.2916
   84SOL    HW2  252   0.803  -0.017   2.265  2.2302  1.6520  0.1658
   85SOL     OW  253   0.260   1.648   1.425 -0.0041  0.5123  0.2539
   85SOL    HW1  254   0.221   1.742   1.454 -0.4969 -3.1784  1.1425
   85SOL    HW2  255   0.328   1.620   1.495  0.9063  1.7296 -2.8418
   86SOL     OW  256   0.407   1.027   1.562 -0.0914 -0.0797  0.2393
   86SOL    HW1  257   0.405   0.980   1.468  0.6780 -0.1423 -1.3395
   86SOL    HW2  258   0.459   0.975   1.636 -0.3836 -2.9296  3.4055
   87SOL     OW  259   1.630   0.675   0.287 -0.1823 -0.6999  0.7618
   87SOL    HW1  260   1.698   0.745   0.252 -0.0192 -0.9931 -1.8425
   87SOL    HW2  261   1.565   0.627   0.215 -1.9604 -1.8327 -3.7789
   88SOL     OW  262   1.607   1.398   0.286 -0.0890  0.0314 -0.2379
   88SOL    HW1  263   1.630   1.297   0.284  0.0604  0.6152  1.3171
   88SOL    HW2  264   1.509   1.418   0.259  0.6442  0.6691  0.1385
   89SOL     OW  265   0.011   0.322   0.600 -0.1300  0.7204 -0.5064
   89SOL    HW1  266   0.069   0.236   0.589  1.1597 -0.9564 -0.8212
   89SOL    HW2  267  -0.082   0.308   0.564 -0.7973  1.7375 -0.3599
   90SOL     OW  268   0.775   1.586   0.167  0.0254  0.2045 -0.2981
   90SOL    HW1  269   0.847   1.523   0.124  0.9551  1.5590  1.1330
   90SOL    HW2  270   0.700   1.605   0.101  0.2842  0.1329  0.7945
   91SOL     OW  271   1.186   1.468   1.773 -0.4109  0.3305  0.3755
   91SOL    HW1  272   1.233   1.531   1.842 -0.4011 -0.8167 -2.6606
   91SOL    HW2  273   1.233   1.378   1.768  0.1135  2.0448  0.5857
   92SOL     OW  274   0.009   0.987   1.205  0.2983  0.0771  0.0519
   92SOL    HW1  275   0.075   1.059   1.171  0.4753 -0.6640 -2.2137
   92SOL    HW2  276   0.013   0.973   1.308 -2.5447  2.3009  0.9144
   93SOL     OW  277   3.049   2.710   0.039 -0.6709  0.1910 -0.1963
   93SOL    HW1  278   3.048   2.724  -0.064  3.4844  1.5078 -2.1798
   93SOL    HW2  279   3.041   2.610   0.067 -0.4678 -2.4615 -0.2616
   94SOL     OW  280   1.504   1.387   1.737  0.4535 -0.9025 -0.2489
   94SOL    HW1  281   1.591   1.335   1.752 -1.2141 -2.1778 -1.2771
   94SOL    HW2  282   1.510   1.493   1.733  2.0202 -0.0507 -0.8980
   95SOL     OW  283   1.386   2.491   2.947  0.3951 -0.3845 -0.2990
   95SOL    HW1  284   1.293   2.507   2.992 -1.8507 -0.4205 -0.5184
   95SOL    HW2  285   1.391   2.397   2.908 -1.1451  2.3693  1.4617
   96SOL     OW  286   0.579   2.101   1.261  0.6061  0.0548  0.4604
   96SOL    HW1  287   0.486   2.069   1.231  1.5213  0.7983 -0.6660
   96SOL    HW2  288   0.628   2.033   1.324 -0.8864  0.3846 -1.0826
   97SOL     OW  289   0.297   1.643   2.431 -0.1712  0.0683 -0.1561
   97SOL    HW1  290   0.252   1.715   2.375  1.9358 -0.7034 -0.2023
   97SOL    HW2  291   0.261   1.631   2.530 -0.5057 -2.8048  1.1500
   98SOL     OW  292   2.212   1.639   1.249  0.2335  0.3327 -0.0415
   98SOL    HW1  293   2.141   1.639   1.174 -0.3967  2.2547  1.1471
   98SOL    HW2  294   2.307   1.613   1.217  2.8037 -1.7885  1.5125
   99SOL     OW  295   2.567   2.147   1.314 -0.0637 -0.1612 -0.6484
   99SOL    HW1  296   2.635   2.171   1.395 -0.7707  0.5816  0.2777
   99SOL    HW2  297   2.553   2.047   1.303 -2.4514  0.8916  0.3839
  100SOL     OW  298   2.312   0.409   2.105  0.1997  0.0509  0.1246
  100SOL    HW1  299   2.248   0.367   2.177 -1.3466 -1.2135 -1.0919
  100SOL    HW2  300   2.414   0.404   2.128 -2.0738 -1.3302  2.4516
  101SOL     OW  301   0.400   1.547   0.526  0.2123  0.2198  0.2782
  101SOL    HW1  302   0.418   1.645   0.558 -1.2880  1.4897  0.1199
  101SOL    HW2  303   0.487   1.505   0.482  4.6542  0.0117 -2.6599
  102SOL     OW  304   2.312   1.085   0.869 -0.2282 -0.1568  0.3025
  102SOL    HW1  305   2.268   1.002   0.839  0.5753  2.3350  1.2034
  102SOL    HW2  306   2.393   1.114   0.807 -1.5621  0.7796 -1.1035
  103SOL     OW  307   2.245   0.067   0.344  0.0658 -0.0621  0.3232
  103SOL    HW1  308   2.291   0.104   0.258  0.7962 -1.2953  0.8109
  103SOL    HW2  309   2.308   0.041   0.423 -0.8100  1.1551  0.7343
  104SOL     OW  310   0.030   1.820   2.113 -0.4442 -0.6448  0.3281
  104SOL    HW1  311   0.085   1.806   2.027 -0.3384 -1.9811  2.9850
  104SOL    HW2  312  -0.068   1.837   2.097  0.8985  1.0477  2.2608
  105SOL     OW  313   1.357   2.097   0.788  0.7450  0.0414  0.1730
  105SOL    HW1  314   1.381   2.132   0.692  2.0935 -3.1714  0.9100
  105SOL    HW2  315   1.365   1.994   0.799 -1.8494  0.0728  0.1070
  106SOL     OW  316   2.117   0.384   1.436  0.5718 -0.2985  0.2358
  106SOL    HW1  317   2.053   0.308   1.474 -1.8793 -0.8146  0.8000
  106SOL    HW2  318   2.127   0.453   1.512  1.4672 -1.0823  1.9877
  107SOL     OW  319   1.961   2.950   1.194 -0.0288 -0.1138 -0.6901
  107SOL    HW1  320   1.923   3.049   1.192 -1.5293 -0.7888 -0.4384
  107SOL    HW2  321   1.888   2.879   1.182 -1.2694  0.1939  0.4268
  108SOL     OW  322   0.833   2.848   1.182 -0.1828  0.7100  0.7202
  108SOL    HW1  323   0.838   2.746   1.171  0.5121  1.6138 -3.3210
  108SOL    HW2  324   0.921   2.882   1.224  0.1335 -0.1361 -0.5842
  109SOL     OW  325   2.144   0.168   0.713  0.1862  0.0118 -0.0608
  109SOL    HW1  326   2.077   0.102   0.669  1.3490 -1.5920  0.9787
  109SOL    HW2  327   2.124   0.185   0.811 -2.0915  1.0706 -1.1746
  110SOL     OW  328   0.465   2.778   2.790 -0.0113  0.2638  0.4383
  110SOL    HW1  329   0.450   2.774   2.683  0.5154 -1.1036 -2.4102
  110SOL    HW2  330   0.563   2.745   2.814 -2.7892  0.1551 -0.1338
  111SOL     OW  331   1.277   0.495   2.309 -0.3613  0.0057 -0.0098
  111SOL    HW1  332   1.178   0.533   2.330  0.5633  1.4073 -1.5722
  111SOL    HW2  333   1.326   0.459   2.395  0.9994 -1.6591  1.1267
  112SOL     OW  334   1.773   0.388   1.500  0.0572 -0.0211 -0.3945
  112SOL    HW1  335   1.744   0.395   1.398 -2.0646 -0.3617 -1.6455
  112SOL    HW2  336   1.695   0.383   1.562  1.5260  0.3351 -2.4979
  113SOL     OW  337   2.382   1.692   1.726 -0.3396  0.5667  0.6364
  113SOL    HW1  338   2.367   1.587   1.713  0.3308  0.1789 -1.8866
  113SOL    HW2  339   2.438   1.714   1.813  0.8163 -1.0569  1.0004
  114SOL     OW  340   0.296   0.483   1.206 -0.1332  0.0902  0.5813
  114SOL    HW1  341   0.368   0.535   1.154  0.8958  1.1919 -0.4194
  114SOL    HW2  342   0.216   0.541   1.223  1.8313 -0.6032  1.1611
  115SOL     OW  343   2.720   1.539   1.209 -0.4769  0.3745 -0.6552
  115SOL    HW1  344   2.727   1.435   1.240  0.1005 -0.2618 -0.5077
  115SOL    HW2  345   2.807   1.571   1.161 -2.0390 -1.8291 -0.5300
  116SOL     OW  346   1.875   0.933   0.730 -0.0697 -0.4888  0.5298
  116SOL    HW1  347   1.786   0.889   0.722  0.8101  0.0411  1.5356
  116SOL    HW2  348   1.880   1.032   0.719 -3.2026 -1.9749  0.5961
  117SOL     OW  349   1.113   0.357   0.562 -0.3592 -0.7506  0.1714
  117SOL    HW1  350   1.120   0.463   0.570 -1.7514  2.4126 -0.6997
  117SOL    HW2  351   1.101   0.325   0.462  1.1733  2.5351  2.0372
  118SOL     OW  352   1.109   1.210   1.088  0.5285 -0.0412 -0.2585
  118SOL    HW1  353   1.006   1.199   1.091 -1.1661  1.4317 -0.5913
  118SOL    HW2  354   1.144   1.302   1.123 -0.8914  0.1000  1.5740
  119SOL     OW  355   1.854   1.554   2.220  0.1388  0.1066  0.4555
  119SOL    HW1  356   1.822   1.632   2.161  0.3811 -2.5652 -1.6820
  119SOL    HW2  357   1.952   1.525   2.186 -0.6741 -3.2346 -0.2648
  120SOL     OW  358   2.894   2.800   0.249  0.3932 -0.2689 -0.1683
  120SOL    HW1  359   2.964   2.783   0.174  0.9820  1.7730  0.4997
  120SOL    HW2  360   2.803   2.748   0.238  0.5223  2.1229  2.4266
  121SOL     OW  361   1.927   0.748   2.223  0.6958  0.2072  0.6146
  121SOL    HW1  362   1.957   0.791   2.133  0.5794 -1.1163  1.4945
  121SOL    HW2  363   1.921   0.644   2.209  0.8695 -1.1293  1.4542
  122SOL     OW  364   2.567   2.508   1.338  0.4781 -0.3728 -0.0601
  122SOL    HW1  365   2.610   2.467   1.254  0.4362 -3.9058 -2.6288
  122SOL    HW2  366   2.555   2.443   1.417 -3.8259  1.0093  0.7412
  123SOL     OW  367   1.713   0.163   1.733 -1.2365  0.5580  0.2828
  123SOL    HW1  368   1.715   0.069   1.680 -1.1335 -0.2761  0.4182
  123SOL    HW2  369   1.812   0.190   1.772  0.8736  0.6811 -3.0684
  124SOL     OW  370   3.069   0.454   1.071  0.1196 -0.6014  0.1274
  124SOL    HW1  371   3.010   0.515   1.131  0.5778 -2.1135  1.6925
  124SOL    HW2  372   3.082   0.486   0.972  1.6860 -0.7386  0.4990
  125SOL     OW  373   0.874   1.902   0.809 -0.3173  0.0672  0.8072
  125SOL    HW1  374   0.949   1.825   0.796 -1.2070  0.8788  2.1810
  125SOL    HW2  375   0.895   1.967   0.881  0.8508  2.0224 -1.1467
  126SOL     OW  376   1.936   2.295   2.434 -0.9617  0.3655  0.5450
  126SOL    HW1  377   1.974   2.242   2.356 -1.4316  1.5224  1.8129
  126SOL    HW2  378   1.906   2.231   2.506  0.9609 -1.7544 -0.9416
  127SOL     OW  379   0.883   0.986   0.220 -0.1602  0.5202  0.3629
  127SOL    HW1  380   0.941   1.016   0.300 -1.1729  0.3941  0.9071
  127SOL    HW2  381   0.895   0.884   0.197  0.3597 -1.9761 -0.1129
  128SOL     OW  382   0.945   0.272   1.426  0.1064 -0.4188  0.0819
  128SOL    HW1  383   0.912   0.356   1.370  2.5946  0.4938  2.7542
  128SOL    HW2  384   0.899   0.185   1.393  3.3578 -1.0550  4.7883
  129SOL     OW  385   1.861   0.692   1.833 -0.1376 -0.1628  0.3245
  129SOL    HW1  386   1.862   0.692   1.731 -0.9155  1.0534 -1.8942
  129SOL    HW2  387   1.921   0.772   1.871  0.2594  2.4188  2.3513
  130SOL     OW  388   1.375   2.270   0.984 -0.2976  0.5665 -0.8722
  130SOL    HW1  389   1.367   2.204   0.902  2.3492  1.5680  0.4653
  130SOL    HW2  390   1.440   2.348   0.966  0.6330  1.2209 -0.1445
  131SOL     OW  391   3.071   1.441   1.362  0.3798 -0.6718 -0.3574
  131SOL    HW1  392   3.037   1.345   1.382  5.2565  1.8687  1.7822
  131SOL    HW2  393   3.175   1.444   1.362  0.2204  0.9433  0.9070
  132SOL     OW  394   2.042   2.365   0.496  0.3972 -0.0851 -0.2217
  132SOL    HW1  395   1.954   2.416   0.511 -0.0950  0.1300 -0.0020
  132SOL    HW2  396   2.060   2.296   0.574  1.1037 -1.4036 -0.1249
  133SOL     OW  397   1.776   2.395   2.721 -0.7486  0.7595  0.1376
  133SOL    HW1  398   1.706   2.378   2.649  0.8470  0.4537  2.2350
  133SOL    HW2  399   1.865   2.447   2.694 -0.8161  1.5199  2.3565
  134SOL     OW  400   2.706   2.390   1.594 -0.0191  0.2428 -0.4864
  134SOL    HW1  401   2.654   2.377   1.685 -1.1271 -2.3002  1.4180
  134SOL    HW2  402   2.763   2.478   1.594  0.2689  1.2289 -0.2865
  135SOL     OW  403   0.724   1.432   2.695  0.0896 -0.0072 -0.3961
  135SOL    HW1  404   0.705   1.336   2.735 -0.9123 -4.1440 -0.4819
  135SOL    HW2  405   0.760   1.434   2.596  1.8023  2.0891 -1.0105
  136SOL     OW  406   1.178   2.035   0.397 -0.0329  0.1201 -0.0903
  136SOL    HW1  407   1.140   2.129   0.413  1.1541 -1.0204 -1.6926
  136SOL    HW2  408   1.097   1.969   0.380 -0.2235  1.3585 -1.3660
  137SOL     OW  409   0.406   1.226   2.244  0.0103 -0.1985 -0.1566
  137SOL    HW1  410   0.314   1.241   2.292  0.4485  0.0823  2.3690
  137SOL    HW2  411   0.431   1.130   2.234 -0.7137 -1.3552  2.0261
  138SOL     OW  412   2.447   1.529   0.274 -0.0080  0.2295 -0.5193
  138SOL    HW1  413   2.372   1.520   0.204 -0.1354  0.2621  2.1216
  138SOL    HW2  414   2.479   1.438   0.316  0.3367 -1.1062 -2.4032
  139SOL     OW  415   1.867   2.648   1.569 -0.4166  0.4982  0.6619
  139SOL    HW1  416   1.765   2.655   1.568 -2.2246  1.3821 -0.8912
  139SOL    HW2  417   1.893   2.571   1.506 -0.5605 -0.4892  2.3874
  140SOL     OW  418   2.993   2.954   2.624 -0.5788 -0.0435 -0.2727
  140SOL    HW1  419   3.045   2.874   2.586 -0.2912  0.2286 -2.3856
  140SOL    HW2  420   3.020   3.048   2.590  0.4950  0.4142  1.1389
  141SOL     OW  421   1.300   1.624   1.544 -0.6655  0.1757 -0.2403
  141SOL    HW1  422   1.229   1.698   1.532 -2.0459  0.4588  2.6473
  141SOL    HW2  423   1.262   1.554   1.609  0.9608  0.4008 -1.1063
  142SOL     OW  424   1.492   0.646   2.229  0.0582  0.2805 -0.5847
  142SOL    HW1  425   1.520   0.648   2.129 -2.8615  1.1440 -2.0554
  142SOL    HW2  426   1.396   0.603   2.248 -0.6843  1.3584  1.5895
  143SOL     OW  427   2.770   0.790   0.546  0.0275  0.2125  0.0562
  143SOL    HW1  428   2.810   0.842   0.467 -0.3474  0.0552 -0.9042
  143SOL    HW2  429   2.761   0.853   0.634 -0.7090  5.1145  1.5223
  144SOL     OW  430   2.926   1.177   1.442  0.1105 -0.2534 -0.1729
  144SOL    HW1  431   2.889   1.162   1.536 -0.6647  1.0590 -0.6029
  144SOL    HW2  432   2.995   1.104   1.421  1.5213  3.3796  0.5439
  145SOL     OW  433   0.888   1.857   0.102 -0.5163 -0.1599 -0.0404
  145SOL    HW1  434   0.846   1.909   0.025 -0.4486  0.9245  0.5943
  145SOL    HW2  435   0.832   1.768   0.123 -1.2816 -2.2006 -0.3868
  146SOL     OW  436   2.456   0.672   1.511 -0.3013  0.4180  0.2170
  146SOL    HW1  437   2.449   0.599   1.436  1.6501  0.9913 -0.4625
  146SOL    HW2  438   2.405   0.759   1.488  1.3472  2.8357  1.3458
  147SOL     OW  439   1.112   2.512   0.609 -0.3212 -0.0917  0.0879
  147SOL    HW1  440   1.065   2.572   0.539  0.5253 -0.6280  0.7417
  147SOL    HW2  441   1.194   2.464   0.569 -1.2656 -2.1440  1.2380
  148SOL     OW  442   1.600   1.470   3.075  0.7953  0.0845 -0.3763
  148SOL    HW1  443   1.580   1.372   3.033 -3.4817 -0.2217  0.2067
  148SOL    HW2  444   1.570   1.481   3.175  0.5114  0.1910 -0.0444
  149SOL     OW  445   0.671   1.520   1.953 -0.5554 -0.2256 -0.0523
  149SOL    HW1  446   0.574   1.507   1.993  0.0142  1.0798 -0.7246
  149SOL    HW2  447   0.694   1.460   1.871  2.7894  1.5549  1.6675
  150SOL     OW  448   3.028   1.165   0.979  0.0875  0.2251 -0.4197
  150SOL    HW1  449   3.085   1.205   1.059  3.3789 -2.6825 -0.6399
  150SOL    HW2  450   2.962   1.086   1.010 -2.1793 -3.2591  0.2344
  151SOL     OW  451   0.271   0.806   2.078 -0.4375  0.5970  0.9468
  151SOL    HW1  452   0.306   0.888   2.028 -0.3162  2.4464  4.3762
  151SOL    HW2  453   0.281   0.714   2.023 -0.2554 -0.3527 -1.1129
  152SOL     OW  454   1.434   1.843   1.123  0.7149 -0.3343 -0.2323
  152SOL    HW1  455   1.498   1.928   1.110  1.9825  3.1361 -1.0444
  152SOL    HW2  456   1.333   1.866   1.104 -0.3368 -1.0284 -0.8131
  153SOL     OW  457   0.146   1.510   0.214 -0.3895  0.5919 -0.0560
  153SOL    HW1  458   0.094   1.424   0.203  4.1189  2.0019  0.5181
  153SOL    HW2  459   0.114   1.560   0.299  0.9634 -1.0855 -0.5378
  154SOL     OW  460   2.265   1.819   2.771 -0.2079 -1.0113  0.0888
  154SOL    HW1  461   2.270   1.719   2.801  0.2122 -0.3932  0.9502
  154SOL    HW2  462   2.360   1.847   2.728  0.9432  0.6851 -1.4452
  155SOL     OW  463   2.460   1.256   0.343  0.2700  0.3904  0.1701
  155SOL    HW1  464   2.555   1.218   0.327  0.0510  1.9191  4.6923
  155SOL    HW2  465   2.384   1.187   0.367  0.1847 -2.0036  0.1046
  156SOL     OW  466   2.432   0.832   0.701 -0.5039  0.2711 -0.1756
  156SOL    HW1  467   2.330   0.809   0.698 -0.4264  0.4225 -0.6076
  156SOL    HW2  468   2.462   0.911   0.644 -1.8202 -0.4802 -1.0751
  157SOL     OW  469   1.207   2.978   3.006 -0.2873  0.1356 -0.4838
  157SOL    HW1  470   1.276   2.951   2.938 -2.9999 -0.4669 -0.4220
  157SOL    HW2  471   1.234   3.076   3.032  2.5218  2.1886  0.2717
  158SOL     OW  472   1.070   1.858   1.838 -0.0462  0.0592  0.0365
  158SOL    HW1  473   1.098   1.953   1.804 -0.7613 -1.4628  0.3067
  158SOL    HW2  474   0.988   1.860   1.903 -0.1573  1.5640  0.9647
  159SOL     OW  475   0.855   0.428   1.229 -0.0294 -0.2850  0.0499
  159SOL    HW1  476   0.836   0.523   1.263  0.7427 -3.7144  0.9521
  159SOL    HW2  477   0.786   0.394   1.154  1.1410  0.4485 -3.1185
  160SOL     OW  478   1.451   2.447   1.474  0.2994  0.0946 -0.8197
  160SOL    HW1  479   1.369   2.385   1.476  0.3046  3.4777  1.0262
  160SOL    HW2  480   1.536   2.391   1.460 -0.0607  1.9609  0.1937
  161SOL     OW  481   3.036   2.641   0.447  0.3418  0.4649 -0.4051
  161SOL    HW1  482   2.976   2.552   0.452 -2.1390 -0.6344 -2.5739
  161SOL    HW2  483   3.007   2.698   0.365 -3.0519 -1.6764  0.0031
  162SOL     OW  484   2.588   1.859   0.465 -0.3254  0.4638  0.1316
  162SOL    HW1  485   2.616   1.867   0.365 -1.3080 -0.6375 -0.0989
  162SOL    HW2  486   2.544   1.771   0.503  1.7678 -0.5925  1.5421
  163SOL     OW  487   1.955   2.704   0.748  0.0785  0.3311  0.5020
  163SOL    HW1  488   1.966   2.683   0.645 -0.6462 -1.1469 -1.9943
  163SOL    HW2  489   2.024   2.658   0.807  1.4960 -0.8213 -1.5088
  164SOL     OW  490   3.062   0.221   1.198  0.7136 -0.0003 -0.1939
  164SOL    HW1  491   3.071   0.318   1.151 -1.1147  1.3217 -0.0595
  164SOL    HW2  492   3.126   0.200   1.283  1.8524  0.5917  0.7153
  165SOL     OW  493   1.113   1.404   0.674  0.2294  0.2423  0.1284
  165SOL    HW1  494   1.093   1.447   0.768  2.1896 -0.9071  0.1479
  165SOL    HW2  495   1.050   1.442   0.601 -1.7824 -2.4797 -1.5280
  166SOL     OW  496   1.504   1.005   1.789 -0.1683 -0.3636  0.1674
  166SOL    HW1  497   1.448   1.047   1.870 -2.0526 -0.8184  0.6261
  166SOL    HW2  498   1.577   1.075   1.763  0.4166  0.9151 -0.2175
  167SOL     OW  499   0.725   1.961   1.462 -1.4066  0.0360  0.2538
  167SOL    HW1  500   0.754   2.029   1.537 -2.0580  3.5759 -2.7387
  167SOL    HW2  501   0.662   1.887   1.498  0.9515  1.9267 -0.3943
  168SOL     OW  502   1.550   2.336   0.151 -0.2372 -0.2580 -0.1955
  168SOL    HW1  503   1.623   2.356   0.082  0.1534 -1.1669 -1.5244
  168SOL    HW2  504   1.581   2.303   0.245 -0.8956  1.2936  0.3344
  169SOL     OW  505   0.070   2.553   2.186 -0.3125 -0.2307 -0.1001
  169SOL    HW1  506   0.114   2.524   2.096 -0.7423 -0.5882  0.7121
  169SOL    HW2  507   0.130   2.517   2.261  0.7944 -0.2164  2.1577
  170SOL     OW  508   1.160   0.190   2.045  0.5438 -0.3959  0.0291
  170SOL    HW1  509   1.251   0.241   2.076  1.1371 -0.4677  0.2136
  170SOL    HW2  510   1.165   0.155   1.948  0.5436 -3.1815 -0.6458
  171SOL     OW  511   0.228   0.860   2.347  0.5462  0.1860 -0.5209
  171SOL    HW1  512   0.127   0.865   2.370  3.7624 -0.1289  1.8556
  171SOL    HW2  513   0.244   0.850   2.243  2.1093 -1.6233 -2.4056
  172SOL     OW  514   0.965   1.043   2.858 -0.3168  0.3480 -0.3639
  172SOL    HW1  515   0.926   1.115   2.917  1.1006 -1.6519 -0.2047
  172SOL    HW2  516   0.901   1.006   2.785 -1.2838  0.9826  1.8470
  173SOL     OW  517   0.488   2.467   0.091 -0.0034  0.5699 -0.1071
  173SOL    HW1  518   0.476   2.418   0.003 -2.4770  0.6563  1.0227
  173SOL    HW2  519   0.414   2.434   0.151  0.6094 -2.1219 -3.0254
  174SOL     OW  520   1.534   2.861   1.090 -0.2186 -0.1810 -0.0384
  174SOL    HW1  521   1.599   2.926   1.037 -0.7496  0.2093  0.8655
  174SOL    HW2  522   1.488   2.799   1.024  0.4069  0.9604  0.3504
  175SOL     OW  523   0.401   3.059   1.730 -0.4266  0.0859  0.2819
  175SOL    HW1  524   0.498   3.041   1.770  0.0938  0.7979 -1.7667
  175SOL    HW2  525   0.403   3.153   1.682 -0.1048 -1.8867 -0.4783
  176SOL     OW  526   2.639   0.373   0.023  0.0648  0.1971  0.3392
  176SOL    HW1  527   2.665   0.461   0.074 -1.4009  0.4515 -1.5252
  176SOL    HW2  528   2.603   0.300   0.086  1.2423 -2.5699 -0.0386
  177SOL     OW  529   0.366   0.314   0.974  0.6399 -0.0021 -0.4981
  177SOL    HW1  530   0.310   0.226   0.956  2.3337  0.0695 -0.4066
  177SOL    HW2  531   0.333   0.353   1.064 -0.0821 -2.7065  0.6017
  178SOL     OW  532   0.017   2.730   2.550  0.0790 -0.4203  0.1623
  178SOL    HW1  533  -0.018   2.633   2.569  1.9842 -0.1659  0.6504
  178SOL    HW2  534   0.086   2.755   2.626  0.5624  1.0383 -1.1480
  179SOL     OW  535   2.982   1.532   1.119 -0.4811  0.2133  0.3874
  179SOL    HW1  536   3.064   1.551   1.059  1.7540 -0.0109 -0.0256
  179SOL    HW2  537   3.012   1.525   1.223 -0.4044  0.5955  0.8446
  180SOL     OW  538   0.193   1.370   1.792  0.1862  0.1479  0.0483
  180SOL    HW1  539   0.288   1.327   1.783 -0.5187 -2.2632 -0.8757
  180SOL    HW2  540   0.173   1.392   1.891  0.0411 -0.8824  4.4132
  181SOL     OW  541   2.975   1.908   2.543 -0.2510 -0.4706 -0.3941
  181SOL    HW1  542   3.026   1.990   2.513  0.0296 -0.9896  2.4487
  181SOL    HW2  543   2.890   1.884   2.485 -0.0858 -1.6646  1.9071
  182SOL     OW  544   2.309   1.306   1.253 -0.3224  1.1909 -0.2317
  182SOL    HW1  545   2.262   1.230   1.190 -2.3314 -1.0335 -2.4364
  182SOL    HW2  546   2.356   1.388   1.205  0.4531 -0.0783  1.0859
  183SOL     OW  547   1.399   2.312   2.466  0.1684 -0.3579  0.3217
  183SOL    HW1  548   1.318   2.270   2.516  1.0654 -1.4632 -1.9880
  183SOL    HW2  549   1.462   2.241   2.427  1.7953  1.9617 -1.0385
  184SOL     OW  550   2.144   0.817   0.757 -0.5415 -0.6126 -0.0749
  184SOL    HW1  551   2.058   0.849   0.795  3.0843  0.7217  0.5635
  184SOL    HW2  552   2.142   0.724   0.713 -2.4507  0.9752 -0.2645
  185SOL     OW  553   1.545   2.755   2.044  0.4657  1.1635 -0.4789
  185SOL    HW1  554   1.476   2.834   2.034  0.4691  1.3545  1.6288
  185SOL    HW2  555   1.596   2.755   2.137  3.6213  1.2421 -1.5264
  186SOL     OW  556   0.063   2.214   1.660  0.4090 -0.1118  0.5084
  186SOL    HW1  557   0.058   2.243   1.756 -0.3704  3.1473 -1.9917
  186SOL    HW2  558   0.150   2.168   1.638 -1.6083  2.2560  0.7977
  187SOL     OW  559   1.342   0.640   1.669 -0.4944  0.2104 -0.3574
  187SOL    HW1  560   1.436   0.675   1.652  3.2725 -0.2346 -2.2358
  187SOL    HW2  561   1.345   0.559   1.732 -0.2139  1.0826 -0.4836
  188SOL     OW  562   2.750   2.707   1.434 -0.1974  0.1384  0.3505
  188SOL    HW1  563   2.739   2.810   1.427 -3.0365  2.2536  3.1113
  188SOL    HW2  564   2.671   2.653   1.392 -0.8238  2.1807 -0.3725
  189SOL     OW  565   0.908   1.202   1.371  0.1510 -0.1164 -0.5294
  189SOL    HW1  566   0.949   1.249   1.455  0.9913 -0.5905  0.9953
  189SOL    HW2  567   0.861   1.273   1.312  0.9137  0.5106  0.6752
  190SOL     OW  568   1.456   1.899   1.526 -0.0479  0.2671 -0.2804
  190SOL    HW1  569   1.402   1.809   1.518 -0.8596 -1.1671 -1.2965
  190SOL    HW2  570   1.478   1.912   1.628  2.4281 -2.2818  1.2535
  191SOL     OW  571   0.891   0.817   1.509 -0.7836  0.1305  0.3932
  191SOL    HW1  572   0.935   0.771   1.593 -1.8408  0.3902  0.7051
  191SOL    HW2  573   0.959   0.858   1.438 -1.1822 -0.2195 -3.0853
  192SOL     OW  574   1.840   2.478   1.100 -0.1560 -0.1424  0.0251
  192SOL    HW1  575   1.739   2.455   1.068 -2.0666  0.1227 -1.2602
  192SOL    HW2  576   1.906   2.409   1.059  2.0410  0.9279  1.3663
  193SOL     OW  577   0.553   0.567   0.481  0.4359  0.3493 -0.1361
  193SOL    HW1  578   0.494   0.478   0.487  0.5291 -2.8913  1.2319
  193SOL    HW2  579   0.573   0.602   0.385 -1.6121  1.1944  3.8452
  194SOL     OW  580   0.355   0.896   1.324 -0.1764 -0.5635 -0.8060
  194SOL    HW1  581   0.309   0.819   1.277 -0.3267  1.1704 -1.1171
  194SOL    HW2  582   0.395   0.962   1.251  2.9404  1.0478  2.0086
  195SOL     OW  583   0.984   2.889   0.525 -0.0814  0.0057 -0.0333
  195SOL    HW1  584   0.971   2.797   0.476  2.4463 -0.1490  0.8469
  195SOL    HW2  585   1.083   2.918   0.519 -0.9286 -2.5479  1.1164
  196SOL     OW  586   0.273   1.383   1.333  0.1514  0.6168 -0.1626
  196SOL    HW1  587   0.277   1.487   1.358  2.0640  0.1959  1.8584
  196SOL    HW2  588   0.273   1.324   1.421 -1.7057 -2.2554 -0.0782
  197SOL     OW  589   0.849   2.013   0.313  0.1354  0.3568 -0.2125
  197SOL    HW1  590   0.838   1.944   0.394  2.1972  0.4015 -0.7464
  197SOL    HW2  591   0.884   1.968   0.226 -0.6013 -2.4546  1.0967
  198SOL     OW  592   0.298   1.254   0.346  0.3615 -0.0046 -0.1824
  198SOL    HW1  593   0.195   1.249   0.333  1.6659  1.5850  2.6851
  198SOL    HW2  594   0.329   1.341   0.393 -3.2599  0.5865 -1.4153
  199SOL     OW  595   2.231   0.465   2.580 -0.4130  0.2435  0.3764
  199SOL    HW1  596   2.162   0.424   2.639  0.3001 -2.9678 -1.3648
  199SOL    HW2  597   2.321   0.412   2.601 -0.2230  0.8007  0.2140
  200SOL     OW  598   3.079   2.986   0.822 -0.3638 -0.0672 -0.0891
  200SOL    HW1  599   3.095   3.083   0.856  2.5179 -1.7723  0.0449
  200SOL    HW2  600   3.025   2.980   0.735  0.6007 -1.0290  2.4410
  201SOL     OW  601   0.925   0.726   0.509  0.0396 -0.1721  0.4472
  201SOL    HW1  602   0.895   0.805   0.567  0.5816 -3.9927 -1.3453
  201SOL    HW2  603   0.878   0.638   0.539  0.5021  0.9964  2.7298
  202SOL     OW  604   0.435   1.252   1.821  0.1482  0.0215  0.1133
  202SOL    HW1  605   0.519   1.197   1.789 -0.1397  2.0016 -2.8229
  202SOL    HW2  606   0.464   1.294   1.911  1.1392 -0.8110  0.1581
  203SOL     OW  607   0.646   0.216   1.555  0.6000  0.0629  0.1794
  203SOL    HW1  608   0.704   0.147   1.502  0.9733  1.4412  1.6765
  203SOL    HW2  609   0.679   0.230   1.652  0.5924  1.2434 -2.7218
  204SOL     OW  610   2.068   1.793   2.973 -0.3509  0.2166 -0.1894
  204SOL    HW1  611   2.097   1.695   2.985 -2.7264  2.3561 -0.3375
  204SOL    HW2  612   2.102   1.823   2.885 -1.0382 -2.4853  0.6622
  205SOL     OW  613   1.846   1.874   3.092  0.1180 -0.2428 -0.5125
  205SOL    HW1  614   1.940   1.842   3.057 -2.2140  1.1852 -0.4359
  205SOL    HW2  615   1.817   1.969   3.061 -0.5180 -2.0626 -1.4246
  206SOL     OW  616   2.417   2.768   0.323 -0.1230 -0.4928 -0.7152
  206SOL    HW1  617   2.392   2.696   0.393  2.0165 -0.7439  0.9300
  206SOL    HW2  618   2.495   2.728   0.262  2.0509  0.0199 -1.8007
  207SOL     OW  619   0.720   1.762   2.850  0.1936  0.3465 -0.5565
  207SOL    HW1  620   0.809   1.727   2.816  0.9125  0.6266 -1.1792
  207SOL    HW2  621   0.688   1.710   2.930  0.8297 -0.6731 -1.6595
  208SOL     OW  622   1.033   1.631   1.234 -0.3916 -0.7410 -0.1624
  208SOL    HW1  623   1.057   1.717   1.182 -2.3527 -0.8217 -2.3739
  208SOL    HW2  624   0.979   1.649   1.320 -0.2051 -0.3063  1.5906
  209SOL     OW  625   0.241   0.986   3.083  0.5540 -0.0410 -0.1163
  209SOL    HW1  626   0.229   0.910   3.014  0.5513 -0.9922  1.4069
  209SOL    HW2  627   0.204   0.959   3.177 -0.4847 -2.0430  1.3835
  210SOL     OW  628   1.720   0.481   1.242 -0.1458  0.1298  0.4123
  210SOL    HW1  629   1.664   0.558   1.211  1.7204 -0.1931 -1.2269
  210SOL    HW2  630   1.821   0.504   1.220 -0.8531 -0.8447 -0.9983
  211SOL     OW  631   2.053   1.012   1.573  0.3466 -0.4467  0.5052
  211SOL    HW1  632   2.079   0.956   1.661 -0.6316  0.5711  1.9753
  211SOL    HW2  633   2.140   1.041   1.524  2.3413  1.8095 -2.0705
  212SOL     OW  634   0.023   0.978   1.478 -0.1032  0.2162  0.0932
  212SOL    HW1  635   0.073   1.062   1.506 -2.3908  0.8778  0.3707
  212SOL    HW2  636   0.028   0.902   1.546 -1.0627  0.8210  0.0595
  213SOL     OW  637   2.763   0.201   0.251  0.9414 -0.2082  0.2381
  213SOL    HW1  638   2.840   0.147   0.207 -0.1877  2.6358  1.5486
  213SOL    HW2  639   2.675   0.146   0.249 -0.3898  2.9406  1.3024
  214SOL     OW  640   2.154   0.343   2.341  0.1349 -0.2693 -0.5161
  214SOL    HW1  641   2.166   0.398   2.428 -1.0621  1.5524  2.1349
  214SOL    HW2  642   2.180   0.242   2.362 -0.1670  0.3480  0.1236
  215SOL     OW  643   1.651   2.260   2.086  0.3417 -0.5419 -0.3136
  215SOL    HW1  644   1.755   2.276   2.092 -0.6913  0.3180  0.6730
  215SOL    HW2  645   1.599   2.348   2.108  1.5319  1.0492 -0.3645
  216SOL     OW  646   2.143   0.578   0.629  0.2505 -0.4685  0.5467
  216SOL    HW1  647   2.096   0.501   0.585  0.1473  0.4091  1.9296
  216SOL    HW2  648   2.203   0.633   0.565 -3.0703 -4.7914  2.7044
  217SOL     OW  649   0.933   2.824   2.559 -0.2218 -0.8087 -0.1698
  217SOL    HW1  650   0.899   2.761   2.634 -2.6940 -1.3131  1.4392
  217SOL    HW2  651   0.904   2.784   2.468  0.7999  0.3490  0.7818
  218SOL     OW  652   1.889   1.467   0.016  0.0671  0.0880 -0.4103
  218SOL    HW1  653   1.792   1.481  -0.020 -1.0811 -1.1249  1.1042
  218SOL    HW2  654   1.899   1.374   0.053  0.7143  1.0883 -1.2906
  219SOL     OW  655   2.461   1.266   2.517 -0.0877 -0.0374 -0.2345
  219SOL    HW1  656   2.498   1.207   2.436 -1.8627 -2.2057 -1.7079
  219SOL    HW2  657   2.489   1.220   2.611 -1.0313 -2.2520 -0.6034
  220SOL     OW  658   1.432   1.006   1.394 -0.1310 -0.2425 -0.2410
  220SOL    HW1  659   1.532   0.987   1.407 -1.8536  0.6490  1.2435
  220SOL    HW2  660   1.400   0.997   1.297 -0.0612  0.5320  0.0230
  221SOL     OW  661   1.353   0.952   2.235 -0.2561  0.3428  0.1855
  221SOL    HW1  662   1.337   0.960   2.137  1.4675 -0.6747  4.1477
  221SOL    HW2  663   1.434   1.008   2.267  2.1990  1.2898 -1.0908
  222SOL     OW  664   1.109   0.102   1.232  0.2705 -0.2461  0.0526
  222SOL    HW1  665   1.102   0.164   1.315  1.9094 -2.5996 -0.2993
  222SOL    HW2  666   1.125   0.154   1.142 -0.0203  0.0932 -1.2079
  223SOL     OW  667   2.706   0.916   2.088 -0.3538  0.1650  0.1458
  223SOL    HW1  668   2.650   1.003   2.083  1.3063  0.0795 -1.6193
  223SOL    HW2  669   2.811   0.933   2.096  1.1900  0.3792 -0.2949
  224SOL     OW  670   1.561   1.067   2.742  0.8705 -0.0288  0.4486
  224SOL    HW1  671   1.609   0.983   2.694  0.7031 -1.8178  0.3901
  224SOL    HW2  672   1.574   1.151   2.684 -0.3020  2.6016 -0.6795
  225SOL     OW  673   2.959   2.698   2.845 -0.1796 -0.0795  0.4683
  225SOL    HW1  674   2.863   2.681   2.804  2.8890 -1.2323  2.6937
  225SOL    HW2  675   2.989   2.799   2.842 -1.0048 -0.4614  0.5215
  226SOL     OW  676   2.351   1.541   2.820 -0.0367 -0.7871  0.2772
  226SOL    HW1  677   2.418   1.528   2.738 -1.8201  0.2006 -0.5639
  226SOL    HW2  678   2.369   1.459   2.888  0.4439 -3.1452 -0.1552
  227SOL     OW  679   0.847   0.264   3.076 -0.3144  0.1224 -0.3017
  227SOL    HW1  680   0.907   0.342   3.052 -0.8640 -1.0594 -1.2241
  227SOL    HW2  681   0.809   0.219   2.992  0.5927 -0.6397  0.6317
  228SOL     OW  682   2.404   0.611   2.833  0.0485  0.3050  0.1106
  228SOL    HW1  683   2.403   0.687   2.757  1.7390  1.4056 -0.4201
  228SOL    HW2  684   2.501   0.577   2.844  3.5548  0.7637 -1.3177
  229SOL     OW  685   0.508   0.480   1.795 -0.1707  0.2793 -0.4296
  229SOL    HW1  686   0.537   0.385   1.828  1.8881 -2.7016  0.1306
  229SOL    HW2  687   0.567   0.520   1.720 -1.7493 -0.2036  1.1141
  230SOL     OW  688   1.876   1.236   2.023  0.3409  0.2610 -0.5472
  230SOL    HW1  689   1.957   1.290   1.991 -0.7899  0.4207 -1.1595
  230SOL    HW2  690   1.790   1.287   2.057 -0.3187 -1.3487  2.4277
  231SOL     OW  691   0.653   1.071   3.090 -0.5281 -0.1694 -0.1647
  231SOL    HW1  692   0.746   1.125   3.085 -0.7861  0.2864 -0.3068
  231SOL    HW2  693   0.575   1.124   3.113  4.2905  0.5334  0.5926
  232SOL     OW  694   2.407   3.009   2.862 -0.2257 -0.0991  0.3313
  232SOL    HW1  695   2.491   2.950   2.877 -0.1423  1.8250 -0.8773
  232SOL    HW2  696   2.425   3.063   2.778 -0.2166  0.2602  2.1853
  233SOL     OW  697   1.741   1.229   1.181 -0.5375 -0.2989 -0.6079
  233SOL    HW1  698   1.831   1.267   1.143  1.8247 -1.1628 -0.7765
  233SOL    HW2  699   1.743   1.125   1.197 -0.6888 -0.7078 -0.3509
  234SOL     OW  700   1.655   2.576   1.826  0.2438 -0.1018  0.0359
  234SOL    HW1  701   1.634   2.604   1.921 -0.6814 -0.3679 -1.3309
  234SOL    HW2  702   1.588   2.509   1.782 -2.3301 -2.7471 -1.2315
  235SOL     OW  703   3.099   2.936   2.880 -0.3201 -0.0847  0.5570
  235SOL    HW1  704   3.048   2.973   2.798 -0.2910 -0.8436  1.4074
  235SOL    HW2  705   3.066   2.978   2.965  0.5410 -0.9495 -0.5728
  236SOL     OW  706   2.940   0.645   0.084 -0.2949 -0.0719 -0.6806
  236SOL    HW1  707   3.002   0.707   0.143 -0.2034 -1.4944 -0.0461
  236SOL    HW2  708   2.986   0.569   0.031 -2.2979  0.7978  1.2921
  237SOL     OW  709   1.444   1.628   0.923 -1.0696  0.0085 -0.3704
  237SOL    HW1  710   1.542   1.595   0.918 -0.8186 -0.7757  0.4843
  237SOL    HW2  711   1.430   1.703   0.995 -1.3366 -1.3473 -1.1777
  238SOL     OW  712   1.891   1.193   0.773  0.2076 -0.2376  1.1768
  238SOL    HW1  713   1.927   1.217   0.867 -2.5624  0.9140 -1.6357
  238SOL    HW2  714   1.799   1.245   0.745 -0.5489 -1.8747 -2.5731
  239SOL     OW  715   2.059   0.265   2.745  0.2185 -0.3513 -0.1986
  239SOL    HW1  716   2.083   0.203   2.826  1.3869 -0.9509 -2.9011
  239SOL    HW2  717   1.974   0.325   2.760 -0.1773  3.4706  0.5255
  240SOL     OW  718   0.922   0.694   0.240 -0.1612 -0.2841 -0.0775
  240SOL    HW1  719   0.972   0.611   0.198 -1.4646  2.6576 -0.4028
  240SOL    HW2  720   0.928   0.705   0.343  0.0873  0.3319 -3.4818
  241SOL     OW  721   0.582   0.104   0.389 -0.3697  0.5963  0.2845
  241SOL    HW1  722   0.662   0.162   0.350  2.3183 -2.0403  1.0479
  241SOL    HW2  723   0.537   0.050   0.311 -1.2777 -0.7214 -3.4075
  242SOL     OW  724   0.626   2.551   1.178  0.0699  0.0913 -0.5830
  242SOL    HW1  725   0.650   2.542   1.277  0.6218 -0.5300 -0.7436
  242SOL    HW2  726   0.599   2.650   1.162  1.2187 -1.1657  0.5700
  243SOL     OW  727   1.043   0.589   2.396  0.2538  0.5290  0.1595
  243SOL    HW1  728   0.960   0.622   2.350  1.8298 -0.5370 -2.5634
  243SOL    HW2  729   1.040   0.551   2.495  0.0330  2.3408  0.8395
  244SOL     OW  730   2.761   1.902   2.357  0.2975  0.3238 -0.1258
  244SOL    HW1  731   2.800   1.849   2.275  1.6925  0.2763 -0.1224
  244SOL    HW2  732   2.671   1.861   2.392 -1.0961 -0.6884 -0.3423
  245SOL     OW  733   2.179   0.927   2.154  0.0713  0.0094 -0.6229
  245SOL    HW1  734   2.266   0.908   2.204 -1.1067  1.0118  0.4953
  245SOL    HW2  735   2.124   0.994   2.208  1.9598  0.9073 -0.4303
  246SOL     OW  736   0.242   2.848   1.764  0.3647 -0.5708  0.8939
  246SOL    HW1  737   0.155   2.859   1.702  0.0954 -0.4373 -2.8624
  246SOL    HW2  738   0.310   2.923   1.744 -0.2734 -0.3213 -1.8069
  247SOL     OW  739   2.239   0.624   3.034  0.0396 -0.2868  0.1104
  247SOL    HW1  740   2.296   0.611   2.950 -1.2951 -0.2058 -0.1312
  247SOL    HW2  741   2.169   0.702   3.022 -1.7398  1.6496 -3.4581
  248SOL     OW  742   2.198   1.851   1.618  0.0682 -0.0087  0.6192
  248SOL    HW1  743   2.274   1.805   1.663 -1.6737 -1.8693 -1.4383
  248SOL    HW2  744   2.112   1.789   1.626 -0.2086 -2.7824  1.5480
  249SOL     OW  745   1.937   1.880   1.827 -0.4788  0.2544  0.2058
  249SOL    HW1  746   1.940   1.818   1.744  0.4776 -0.0407  1.2950
  249SOL    HW2  747   2.031   1.889   1.872 -1.4816  0.0563 -0.9616
  250SOL     OW  748   1.099   0.711   1.857 -0.9286 -0.6551 -0.2233
  250SOL    HW1  749   1.111   0.644   1.933  0.0920  0.2889  2.3319
  250SOL    HW2  750   1.086   0.658   1.765  1.7256 -0.7626 -0.7825
  251SOL     OW  751   3.019   1.644   2.560 -0.0234  0.3837 -0.3586
  251SOL    HW1  752   2.999   1.742   2.590  1.3170 -1.6132 -0.1503
  251SOL    HW2  753   2.934   1.587   2.555  0.1359  1.9173 -2.0747
  252SOL     OW  754   1.592   0.783   1.658 -0.5381  0.4314 -1.2545
  252SOL    HW1  755   1.649   0.800   1.573 -1.1695  1.6548 -1.1798
  252SOL    HW2  756   1.578   0.872   1.711  2.9105  1.2580 -0.6475
  253SOL     OW  757   0.983   1.550   0.494 -0.1850 -0.7121  0.0267
  253SOL    HW1  758   0.989   1.468   0.435 -2.3084 -1.7848  2.5301
  253SOL    HW2  759   0.888   1.572   0.533 -0.4734  0.3453 -2.0834
  254SOL     OW  760   2.022   2.208   1.650  0.1336  0.0233 -0.5497
  254SOL    HW1  761   1.958   2.135   1.607 -2.0781  0.6216  0.4598
  254SOL    HW2  762   1.966   2.281   1.700  0.8326 -1.8561 -0.5696
  255SOL     OW  763   0.140   1.175   2.905  0.1619 -0.3846  0.2191
  255SOL    HW1  764   0.185   1.262   2.928 -0.2142  0.7781  2.9846
  255SOL    HW2  765   0.163   1.100   2.980  1.4794 -2.0481  1.2076
  256SOL     OW  766   2.832   1.370   1.856 -0.0139  0.5343 -0.1396
  256SOL    HW1  767   2.774   1.455   1.848  0.6491 -0.9279 -1.5444
  256SOL    HW2  768   2.789   1.291   1.804 -0.0561 -3.2772 -0.0860
  257SOL     OW  769   0.798   0.146   1.795 -0.4322  0.0033  0.8155
  257SOL    HW1  770   0.863   0.223   1.770  0.8527  2.0069  1.0185
  257SOL    HW2  771   0.844   0.045   1.791  1.8478 -1.7938  0.9713
  258SOL     OW  772   2.975   1.194   0.510  0.1897 -0.6347  0.6066
  258SOL    HW1  773   2.892   1.227   0.556 -0.2935  1.1650 -0.9412
  258SOL    HW2  774   3.051   1.178   0.578  2.6708 -1.0659 -0.2440
  259SOL     OW  775   0.401   2.913   3.024  0.5405 -0.6213 -0.5262
  259SOL    HW1  776   0.357   2.856   3.099  4.5820  1.4441 -0.9706
  259SOL    HW2  777   0.428   2.859   2.938  0.7009 -0.7470 -1.9034
  260SOL     OW  778   2.746   0.747   2.744 -0.5569  0.4101 -0.5423
  260SOL    HW1  779   2.682   0.828   2.739 -1.4892  1.3528 -1.3354
  260SOL    HW2  780   2.717   0.688   2.824  0.0410 -2.4659 -0.9335
  261SOL     OW  781   2.716   1.302   1.315  0.5293 -0.1144  0.6794
  261SOL    HW1  782   2.670   1.224   1.266 -2.5777 -0.4675 -0.0191
  261SOL    HW2  783   2.804   1.276   1.365 -0.4493  2.9497  2.5759
  262SOL     OW  784   1.376   2.968   2.014  0.1156 -0.0014  1.1745
  262SOL    HW1  785   1.416   3.050   1.964  1.8853 -2.8840  1.7464
  262SOL    HW2  786   1.274   2.960   2.004 -0.8758 -2.9811 -1.5192
  263SOL     OW  787   0.800   0.695   2.284 -0.5050 -0.2096  0.2877
  263SOL    HW1  788   0.770   0.601   2.254 -1.2942  3.0736 -1.1344
  263SOL    HW2  789   0.830   0.762   2.208  1.8879  0.7324  1.2184
  264SOL     OW  790   2.288   0.798   0.420  0.2616  0.2585 -0.8934
  264SOL    HW1  791   2.290   0.735   0.338  3.2723  0.6400  0.9931
  264SOL    HW2  792   2.373   0.850   0.442 -1.3767 -1.0046  0.4487
  265SOL     OW  793   0.958   2.399   2.609 -0.1453 -0.6157  0.0636
  265SOL    HW1  794   1.017   2.463   2.668  0.4767  2.1684  0.8945
  265SOL    HW2  795   0.933   2.309   2.657  2.4801  1.3910 -0.8097
  266SOL     OW  796   1.318   1.770   3.061 -0.2163 -0.2462  0.0225
  266SOL    HW1  797   1.351   1.806   3.153 -0.1743  1.0634 -1.6537
  266SOL    HW2  798   1.401   1.766   2.998  1.1338 -0.7375  1.9145
  267SOL     OW  799   1.104   0.016   2.270 -0.3413 -0.8062  0.0015
  267SOL    HW1  800   1.013  -0.013   2.235  0.5505  0.1469  0.5037
  267SOL    HW2  801   1.155   0.083   2.215 -0.9484  1.7045 -1.3272
  268SOL     OW  802   0.832   1.239   1.055  0.6113  0.0673  0.8080
  268SOL    HW1  803   0.795   1.313   1.115 -0.9435 -0.5843 -2.9068
  268SOL    HW2  804   0.826   1.264   0.957  1.2929  0.5535 -2.5497
  269SOL     OW  805   2.368   2.498   1.650  0.1210 -0.6015  0.5680
  269SOL    HW1  806   2.430   2.417   1.685  2.4167 -1.4420  1.2067
  269SOL    HW2  807   2.313   2.554   1.723 -1.1053  2.3152  1.0300
  270SOL     OW  808   0.125   2.974   2.008 -0.3278  0.3174  0.2273
  270SOL    HW1  809   0.161   2.926   1.922 -0.2084 -1.8913 -0.4724
  270SOL    HW2  810   0.095   2.908   2.081  2.0813 -0.0008  0.6439
  271SOL     OW  811   0.501   1.414   1.116  0.1865 -0.4850 -0.5399
  271SOL    HW1  812   0.457   1.375   1.026  0.5135 -0.3064 -0.8642
  271SOL    HW2  813   0.448   1.391   1.202  0.4230  0.5317  1.3955
  272SOL     OW  814   1.945   3.041   1.944 -0.9569  0.6218 -0.0499
  272SOL    HW1  815   1.851   2.992   1.927  0.3253 -0.8588  1.9762
  272SOL    HW2  816   1.999   3.041   1.854  0.4857  1.6194  0.0428
  273SOL     OW  817   1.513   1.456   2.750  0.8142  0.0545  0.9599
  273SOL    HW1  818   1.421   1.404   2.751  2.3362 -1.8747  0.2984
  273SOL    HW2  819   1.533   1.500   2.840  0.3721 -1.8828  0.0425
  274SOL     OW  820   1.167   0.515   2.041 -0.4060  0.4575 -0.3792
  274SOL    HW1  821   1.096   0.439   2.028  0.0187 -0.9922  0.4279
  274SOL    HW2  822   1.216   0.499   2.129  1.6324 -0.5487 -1.0225
  275SOL     OW  823   0.620   2.122   1.921 -0.1530 -0.3151  0.5696
  275SOL    HW1  824   0.617   2.169   2.013 -0.9950  2.0982  0.6907
  275SOL    HW2  825   0.536   2.065   1.911  0.6923 -1.9905  1.9619
  276SOL     OW  826   2.186   1.023   2.794  0.6853 -0.8697 -0.6179
  276SOL    HW1  827   2.120   1.070   2.730  0.4971  1.7519  2.2593
  276SOL    HW2  828   2.145   0.954   2.859 -0.7956 -0.5563  0.6414
  277SOL     OW  829   3.064   0.798   0.286  0.0174  0.0606  0.4337
  277SOL    HW1  830   3.154   0.847   0.269  1.1448 -0.7351 -1.9834
  277SOL    HW2  831   3.081   0.705   0.333  0.7630 -1.8473 -0.7102
  278SOL     OW  832   0.231   0.243   2.975  0.4927  0.4399  0.7980
  278SOL    HW1  833   0.325   0.203   2.955  1.4982 -1.7377  0.4139
  278SOL    HW2  834   0.236   0.344   3.003 -0.8189 -0.7756 -3.4529
  279SOL     OW  835   0.268   0.063   0.922 -0.0627  0.0928 -0.2474
  279SOL    HW1  836   0.332   0.042   1.005  0.7988 -2.4290  0.5403
  279SOL    HW2  837   0.264  -0.020   0.865 -4.9627 -1.0460  1.8882
  280SOL     OW  838   1.616   2.947   2.413 -0.0080  0.5038 -0.2794
  280SOL    HW1  839   1.674   3.007   2.472  1.7419  0.2425  0.8472
  280SOL    HW2  840   1.568   3.005   2.346  2.7876 -3.2861  0.6559
  281SOL     OW  841   0.547   0.947   2.266 -0.5656 -0.1787 -0.3450
  281SOL    HW1  842   0.574   0.850   2.236 -0.3647 -2.1652  1.2043
  281SOL    HW2  843   0.484   0.942   2.349 -0.7062  0.5477 -1.1497
  282SOL     OW  844   1.782   2.467   0.542 -0.3356 -0.4978  0.4815
  282SOL    HW1  845   1.749   2.391   0.478  0.3301  0.9507 -0.9832
  282SOL    HW2  846   1.751   2.559   0.513 -1.3457 -0.0809  0.9144
  283SOL     OW  847   1.129   0.921   0.765  0.1728 -0.6716  0.1805
  283SOL    HW1  848   1.158   0.852   0.837  0.0136 -1.6493  0.2928
  283SOL    HW2  849   1.124   1.020   0.795  0.6546 -0.8012  1.1841
  284SOL     OW  850   2.249   2.834   2.476  0.0451 -0.0454 -0.3953
  284SOL    HW1  851   2.352   2.818   2.447  1.2291 -0.6575 -3.3692
  284SOL    HW2  852   2.238   2.822   2.573  0.0593  0.0496  0.2980
  285SOL     OW  853   1.383   0.028   2.583 -0.0720 -0.1314  0.2973
  285SOL    HW1  854   1.446   0.010   2.500  0.9276 -0.8012  1.5507
  285SOL    HW2  855   1.285   0.035   2.551 -0.1028  2.7265  0.2755
  286SOL     OW  856   0.444   0.452   0.748 -0.5293  1.1415 -0.2198
  286SOL    HW1  857   0.429   0.392   0.830 -0.4742  2.8560 -1.9735
  286SOL    HW2  858   0.454   0.412   0.651 -1.3751  0.2773 -0.8969
  287SOL     OW  859   0.086   1.318   2.666 -0.0904  0.0012  0.0295
  287SOL    HW1  860   0.002   1.264   2.643 -0.2457  1.3718 -0.8819
  287SOL    HW2  861   0.111   1.321   2.763  2.9095  1.8993  1.5669
  288SOL     OW  862   1.533   2.735   1.631 -0.7569 -0.0116 -0.2877
  288SOL    HW1  863   1.599   2.692   1.705  0.8814 -0.8052  3.3253
  288SOL    HW2  864   1.543   2.699   1.535 -2.7356 -0.6836 -0.1821
  289SOL     OW  865   0.615   2.738   0.862 -0.0650  0.1458  0.2906
  289SOL    HW1  866   0.675   2.811   0.804  0.0640 -0.9555 -3.0938
  289SOL    HW2  867   0.588   2.766   0.958  1.4482 -0.0754  2.5505
  290SOL     OW  868   2.799   1.123   1.739  0.0730 -0.3077 -0.3080
  290SOL    HW1  869   2.737   1.045   1.754  0.4247  0.7922  1.9552
  290SOL    HW2  870   2.881   1.112   1.804 -0.1282 -1.6929  0.5607
  291SOL     OW  871   1.944   0.004   0.060 -0.2458  0.3085  0.5348
  291SOL    HW1  872   1.971   0.027   0.158  1.9503 -3.3207 -1.1525
  291SOL    HW2  873   1.989   0.053  -0.020  1.6329  2.4536  1.0377
  292SOL     OW  874   3.016   1.197   3.078 -0.4441 -0.8246 -0.0324
  292SOL    HW1  875   2.945   1.270   3.041  0.8139  3.2888 -2.0557
  292SOL    HW2  876   3.097   1.187   3.009  2.2145 -2.1721  3.2752
  293SOL     OW  877   0.568   2.109   0.289 -0.7037 -0.1218  0.4727
  293SOL    HW1  878   0.546   2.193   0.345  1.5763 -1.3569 -0.2276
  293SOL    HW2  879   0.668   2.080   0.295  0.3677 -0.2930  0.4989
  294SOL     OW  880   1.848   2.367   1.793  0.1138  0.8580 -0.8593
  294SOL    HW1  881   1.873   2.362   1.891 -0.4188  0.1288  0.1679
  294SOL    HW2  882   1.805   2.454   1.766 -0.7607 -0.7436 -0.9460
  295SOL     OW  883   1.003   1.070   0.451  0.6360 -0.1695 -0.4581
  295SOL    HW1  884   1.092   1.095   0.496 -2.5709 -2.1329  0.4810
  295SOL    HW2  885   0.940   1.016   0.516  0.7879 -3.1148  0.9903
  296SOL     OW  886   1.158   2.135   2.733 -0.2464  0.2335 -0.0119
  296SOL    HW1  887   1.054   2.114   2.734 -0.0463 -1.1900 -1.5178
  296SOL    HW2  888   1.201   2.088   2.647  0.4938  0.5650 -0.8522
  297SOL     OW  889   1.337   0.562   1.265 -0.7237  0.0833 -0.6731
  297SOL    HW1  890   1.371   0.489   1.334 -0.4763 -1.7676  2.1505
  297SOL    HW2  891   1.411   0.614   1.211  0.0895 -1.9747 -3.6561
  298SOL     OW  892   0.517   1.343   2.967 -0.3173 -0.0354 -0.3727
  298SOL    HW1  893   0.457   1.292   3.032 -0.0406  1.4862 -0.5211
  298SOL    HW2  894   0.597   1.293   2.931 -2.4559 -1.9151 -2.3486
  299SOL     OW  895   0.410   0.225   1.297  0.1363 -0.9213 -1.1192
  299SOL    HW1  896   0.374   0.320   1.301  0.0166 -0.7152 -1.1331
  299SOL    HW2  897   0.418   0.189   1.396 -2.1529 -0.3583  1.8590
  300SOL     OW  898   1.271   1.744   2.574  0.1738  0.3585 -0.3539
  300SOL    HW1  899   1.235   1.659   2.531  1.4313  0.1735 -0.1177
  300SOL    HW2  900   1.372   1.751   2.569 -2.0350 -0.2466  3.0621
  301SOL     OW  901   0.418   0.332   0.513  0.3181  0.6071 -0.5696
  301SOL    HW1  902   0.327   0.309   0.566  0.3611 -0.3969 -1.4573
  301SOL    HW2  903   0.473   0.246   0.480 -0.6343  2.1005 -0.1767
  302SOL     OW  904   1.268   2.469   2.248  0.0220 -0.0350 -0.3549
  302SOL    HW1  905   1.177   2.501   2.289  1.2978 -0.5722 -0.4675
  302SOL    HW2  906   1.305   2.390   2.303  1.6153 -1.3747 -1.2307
  303SOL     OW  907   0.951   2.396   0.804  0.5033  0.1099  0.7559
  303SOL    HW1  908   1.020   2.447   0.744  0.4118  3.0104  0.4069
  303SOL    HW2  909   0.953   2.449   0.895  2.7329  1.6378 -1.5544
  304SOL     OW  910   0.098   1.885   0.676  0.7471 -0.1836 -0.3339
  304SOL    HW1  911   0.155   1.880   0.588 -0.3775  0.6759  3.0671
  304SOL    HW2  912   0.062   1.985   0.694 -2.4221  2.2141  0.2691
  305SOL     OW  913   1.576   0.869   0.700 -0.0469 -0.4739  0.1293
  305SOL    HW1  914   1.565   0.877   0.597 -0.7193  1.3421  3.5319
  305SOL    HW2  915   1.609   0.775   0.720  2.0728  2.4466  3.6148
  306SOL     OW  916   0.442   1.925   1.903  0.2699 -0.4550 -0.1791
  306SOL    HW1  917   0.515   1.850   1.883 -0.7299 -0.1708  2.0776
  306SOL    HW2  918   0.432   1.939   2.008 -2.0133 -2.2967 -1.3875
  307SOL     OW  919   3.069   0.887   2.465 -0.2214  0.0372 -0.2942
  307SOL    HW1  920   3.069   0.954   2.545 -1.5268 -0.5720  0.6623
  307SOL    HW2  921   3.010   0.804   2.485 -1.5051  0.1451  0.1953
  308SOL     OW  922   1.506   2.692   2.784 -0.5217  0.2920 -0.0375
  308SOL    HW1  923   1.524   2.625   2.702 -0.0527  1.3187  1.4867
  308SOL    HW2  924   1.437   2.646   2.849 -4.3662  0.1743 -1.7471
  309SOL     OW  925   1.235   0.145   1.781  0.2297 -0.1216 -0.2521
  309SOL    HW1  926   1.329   0.107   1.794 -0.7639 -0.8255  0.3622
  309SOL    HW2  927   1.203   0.150   1.685 -0.6510 -0.2199  0.6646
  310SOL     OW  928   1.474   2.606   0.672 -0.0153  0.5382 -0.4434
  310SOL    HW1  929   1.441   2.610   0.767 -1.0374 -0.9945  0.0116
  310SOL    HW2  930   1.547   2.679   0.650 -1.8031 -3.3359  1.3662
  311SOL     OW  931   1.121   0.976   1.777 -1.0764 -0.3366  0.0013
  311SOL    HW1  932   1.112   0.881   1.818  0.2464  1.1604 -1.8066
  311SOL    HW2  933   1.177   0.968   1.691  0.4969  0.5284  2.7934
  312SOL     OW  934   1.528   0.670   1.082 -0.1946 -0.1139 -0.1155
  312SOL    HW1  935   1.606   0.740   1.068 -2.0750 -0.0429 -0.8723
  312SOL    HW2  936   1.471   0.662   0.993  2.8218 -1.1102 -2.5574
  313SOL     OW  937   1.648   1.305   0.732  0.3659 -0.5573 -0.2430
  313SOL    HW1  938   1.580   1.313   0.811  1.2279 -1.1608  1.5443
  313SOL    HW2  939   1.616   1.236   0.666 -1.8131 -0.0363  3.1875
  314SOL     OW  940   2.985   3.091   3.088  0.1827 -0.3990  0.8695
  314SOL    HW1  941   3.021   3.088   3.186  0.1128 -0.3319 -2.7291
  314SOL    HW2  942   2.882   3.066   3.082  0.3956 -1.1968 -1.5934
  315SOL     OW  943   1.169   0.206   2.768  0.2602 -0.3797  0.5655
  315SOL    HW1  944   1.135   0.141   2.689 -1.0801 -2.2707 -0.3885
  315SOL    HW2  945   1.132   0.175   2.858  3.0164  0.3642  0.6652
  316SOL     OW  946   1.687   2.088   0.874 -0.2952 -0.0272 -0.8288
  316SOL    HW1  947   1.613   2.079   0.953 -2.9810 -0.3867 -0.2556
  316SOL    HW2  948   1.719   2.183   0.848 -0.4769 -1.3390 -2.2117
  317SOL     OW  949   1.170   0.678   2.759 -0.1290  0.5948  0.3185
  317SOL    HW1  950   1.119   0.725   2.837  0.5708 -1.3448 -2.0603
  317SOL    HW2  951   1.116   0.598   2.719 -1.0697  1.1353 -1.6140
  318SOL     OW  952   1.408   3.071   2.257  0.5376 -0.4270  0.6338
  318SOL    HW1  953   1.421   3.169   2.228 -1.1922 -3.0335 -1.4470
  318SOL    HW2  954   1.376   3.015   2.177 -2.8216  0.7447  2.2231
  319SOL     OW  955   0.664   2.379   2.947 -0.2874  0.5827  0.5993
  319SOL    HW1  956   0.635   2.309   3.019  0.3942  0.5156  3.3301
  319SOL    HW2  957   0.722   2.338   2.871  1.7300  1.8703 -1.0410
  320SOL     OW  958   1.706   2.245   0.376  0.2154 -0.2396 -0.3426
  320SOL    HW1  959   1.789   2.190   0.415 -3.2456  2.1882  3.2690
  320SOL    HW2  960   1.615   2.226   0.431 -0.2728  0.7640  0.9938
  321SOL     OW  961   1.677   2.779   0.530  0.0537 -0.5013 -0.2144
  321SOL    HW1  962   1.619   2.861   0.491 -2.8927  1.8078 -0.3143
  321SOL    HW2  963   1.776   2.804   0.527 -0.3467  3.1874  1.2866
  322SOL     OW  964   2.576   1.109   2.311 -0.8722 -0.3261  0.2021
  322SOL    HW1  965   2.672   1.082   2.348  0.2340 -2.8612 -1.3849
  322SOL    HW2  966   2.512   1.029   2.302 -0.4803 -2.1383  0.7542
  323SOL     OW  967   1.185   2.692   0.812 -0.0512  0.0452  0.1647
  323SOL    HW1  968   1.151   2.629   0.736 -0.7250 -0.4308  1.3241
  323SOL    HW2  969   1.120   2.766   0.820 -0.5113 -0.4335 -0.7788
  324SOL     OW  970   0.226   2.527   2.426  0.1535  0.0816  0.2445
  324SOL    HW1  971   0.145   2.484   2.473  0.6408 -1.8706 -0.6692
  324SOL    HW2  972   0.235   2.626   2.460 -1.4714 -0.8461 -1.7884
  325SOL     OW  973   1.223   3.009   0.455  0.8525  0.2200 -0.0660
  325SOL    HW1  974   1.224   3.032   0.352 -2.4055  1.1262  0.3477
  325SOL    HW2  975   1.255   3.085   0.521  0.8872  1.5242 -0.8053
  326SOL     OW  976   2.500   0.762   3.088  0.7916  0.0604  0.4316
  326SOL    HW1  977   2.423   0.707   3.043 -1.7496  1.7447 -1.4647
  326SOL    HW2  978   2.559   0.702   3.142 -0.7596 -0.7067 -1.5874
  327SOL     OW  979   2.816   0.290   0.510  0.5262  0.3641  0.2723
  327SOL    HW1  980   2.790   0.264   0.406 -0.7639  0.9286 -1.2840
  327SOL    HW2  981   2.784   0.212   0.575  0.7286 -1.1763  1.9670
  328SOL     OW  982   2.567   0.659   0.405 -0.2804  0.2622 -0.5520
  328SOL    HW1  983   2.604   0.702   0.490 -1.0029 -1.6103  1.1717
  328SOL    HW2  984   2.481   0.603   0.421 -0.0852 -2.5870 -3.9840
  329SOL     OW  985   2.940   3.019   2.123  0.3848  0.6778  0.3358
  329SOL    HW1  986   3.010   2.950   2.163 -1.8501 -0.6224  3.6402
  329SOL    HW2  987   2.958   3.118   2.141 -2.0158  0.1299 -1.6560
  330SOL     OW  988   0.564   0.233   1.911 -0.7656 -0.0317 -0.0014
  330SOL    HW1  989   0.640   0.200   1.844  0.3109 -1.6208 -1.9880
  330SOL    HW2  990   0.558   0.175   1.998 -1.4252  0.7351  0.1580
  331SOL     OW  991   3.004   1.885   1.117 -0.6252  0.0006  0.2673
  331SOL    HW1  992   2.973   1.912   1.023  2.8973 -0.2546 -0.8687
  331SOL    HW2  993   2.931   1.837   1.178  0.8187  1.6488  1.5112
  332SOL     OW  994   0.405   1.181   0.068 -0.4979  0.4680  0.0280
  332SOL    HW1  995   0.334   1.109   0.046 -0.8484 -0.3365  1.1575
  332SOL    HW2  996   0.377   1.230   0.153 -1.4967 -1.9797  2.5966
  333SOL     OW  997   2.881   0.985   0.348 -0.7193 -0.4090 -0.3834
  333SOL    HW1  998   2.919   1.077   0.379  1.7229  3.9509 -1.0803
  333SOL    HW2  999   2.951   0.911   0.326  0.6422  2.1432  0.4729
  334SOL     OW 1000   1.723   1.212   1.762  0.0008 -0.3211  0.0854
  334SOL    HW1 1001   1.784   1.221   1.681  0.6806 -0.3648  1.9973
  334SOL    HW2 1002   1.780   1.192   1.846  1.3581  0.7215 -2.4844
  335SOL     OW 1003   1.938   2.788   2.615 -0.1196  0.6483  0.1527
  335SOL    HW1 1004   1.859   2.766   2.684 -1.3068  0.4347  0.5509
  335SOL    HW2 1005   1.985   2.879   2.639 -1.0040  1.8503 -0.5808
  336SOL     OW 1006   0.253   3.093   2.714 -0.2791 -0.2053 -0.3959
  336SOL    HW1 1007   0.303   3.116   2.803 -2.1115  0.4899  0.5483
  336SOL    HW2 1008   0.217   2.999   2.709  1.3992  2.1631 -1.4595
  337SOL     OW 1009   0.942   2.903   2.957  0.7935  0.2817 -0.3635
  337SOL    HW1 1010   0.903   2.811   2.996 -1.6753 -1.1415 -0.0126
  337SOL    HW2 1011   1.043   2.915   2.972  4.3090 -1.8943  3.2581
  338SOL     OW 1012   0.023   0.942   0.659 -0.0867 -0.3615  0.0276
  338SOL    HW1 1013  -0.056   0.915   0.722 -1.8679 -2.3860 -0.2597
  338SOL    HW2 1014   0.040   1.045   0.661 -0.0522 -1.1077  0.2314
  339SOL     OW 1015   1.646   1.349   2.153  0.1704  0.1696 -0.1075
  339SOL    HW1 1016   1.582   1.412   2.093 -2.4020 -3.8308 -4.0130
  339SOL    HW2 1017   1.689   1.400   2.237  5.2086  0.4701 -1.5427
  340SOL     OW 1018   2.233   0.800   1.151 -0.5082 -0.1496 -0.1142
  340SOL    HW1 1019   2.142   0.846   1.122  0.6738 -0.2102 -2.5953
  340SOL    HW2 1020   2.234   0.702   1.121 -1.0837 -0.8763  0.8804
  341SOL     OW 1021   1.899   2.046   0.396  0.7608 -0.1125  0.9336
  341SOL    HW1 1022   1.899   2.078   0.294 -0.4421 -1.0603 -0.6673
  341SOL    HW2 1023   1.998   2.030   0.428  1.7913 -0.5260  1.9105
  342SOL     OW 1024   2.143   2.108   2.719 -0.1880  0.5740 -0.4324
  342SOL    HW1 1025   2.192   2.016   2.737  0.2920 -2.8249 -0.9586
  342SOL    HW2 1026   2.040   2.094   2.701 -0.5298  1.5828  1.7220
  343SOL     OW 1027   0.404   0.779   2.746 -0.2595  0.1922 -0.0044
  343SOL    HW1 1028   0.387   0.841   2.667  0.4187 -0.7838  0.3476
  343SOL    HW2 1029   0.485   0.816   2.801  0.7386  0.6543 -0.3819
  344SOL     OW 1030   1.924   1.485   0.409  0.0792 -0.1448 -0.0838
  344SOL    HW1 1031   1.935   1.413   0.335  1.3021 -0.7086  2.4999
  344SOL    HW2 1032   1.828   1.489   0.451  0.0069 -0.9820 -0.2458
  345SOL     OW 1033   1.406   2.223   2.860  0.0780 -0.5679 -0.2704
  345SOL    HW1 1034   1.309   2.200   2.832 -3.4058 -0.0864  3.0785
  345SOL    HW2 1035   1.482   2.169   2.812 -0.9227 -0.6421 -2.9278
  346SOL     OW 1036   2.338   0.906   1.407 -0.2300 -0.1898  0.1243
  346SOL    HW1 1037   2.310   1.002   1.429  0.5040  0.1242 -0.6343
  346SOL    HW2 1038   2.300   0.874   1.317 -0.8254  0.6624 -0.6874
  347SOL     OW 1039   0.719   2.746   1.657  0.6073  0.5523  0.1959
  347SOL    HW1 1040   0.656   2.749   1.742  0.9764 -0.4945  0.2661
  347SOL    HW2 1041   0.675   2.784   1.573 -1.8818 -1.6733 -1.0123
  348SOL     OW 1042   0.168   0.791   2.902  0.0332 -0.2962  0.5967
  348SOL    HW1 1043   0.080   0.747   2.867 -2.5845 -0.5280  0.1764
  348SOL    HW2 1044   0.253   0.768   2.850  0.8211 -0.4663  0.9439
  349SOL     OW 1045   1.854   0.444   2.810 -0.0982 -0.0868 -0.2271
  349SOL    HW1 1046   1.838   0.510   2.732  1.7988 -3.4119 -0.2137
  349SOL    HW2 1047   1.842   0.486   2.906  0.0721 -0.6065  0.4254
  350SOL     OW 1048   1.696   0.370   0.363 -0.2348  0.5762 -0.0380
  350SOL    HW1 1049   1.760   0.407   0.442  0.4223  0.0214 -0.4978
  350SOL    HW2 1050   1.680   0.438   0.289 -0.0627 -0.4254 -0.7762
  351SOL     OW 1051   0.900   0.819   2.065 -0.3488  0.2210 -0.1960
  351SOL    HW1 1052   0.924   0.907   2.117 -1.7349  0.2034  1.9945
  351SOL    HW2 1053   0.937   0.811   1.974 -1.3985  0.3125  2.4327
  352SOL     OW 1054   2.063   1.345   0.615  0.2343  0.0591  0.2598
  352SOL    HW1 1055   2.041   1.408   0.537  2.4233  0.9107 -0.3176
  352SOL    HW2 1056   1.978   1.304   0.655  2.3247 -0.0487  0.9957
  353SOL     OW 1057   2.195   2.784   1.113  0.3840 -1.0265  0.5603
  353SOL    HW1 1058   2.240   2.713   1.180  0.8479  0.6219 -0.2248
  353SOL    HW2 1059   2.108   2.831   1.154 -0.1109 -2.1244 -0.7898
  354SOL     OW 1060   0.235   1.435   2.865 -0.4454  0.1100  0.3361
  354SOL    HW1 1061   0.213   1.502   2.786 -1.1836 -1.2942 -2.1700
  354SOL    HW2 1062   0.338   1.422   2.884  0.6334 -0.2813 -1.0643
  355SOL     OW 1063   0.717   1.576   0.583 -0.5165  0.2886  0.4698
  355SOL    HW1 1064   0.719   1.547   0.683  0.9207  0.7636  2.4928
  355SOL    HW2 1065   0.668   1.510   0.522  1.2151 -1.0224 -0.0726
  356SOL     OW 1066   0.898   0.280   2.032  0.1882  0.0565 -0.0447
  356SOL    HW1 1067   0.983   0.223   2.046 -0.1566 -0.1260  0.2516
  356SOL    HW2 1068   0.829   0.239   1.969  0.5274  0.2464  3.4490
  357SOL     OW 1069   1.011   1.332   0.322  0.0551  0.4321 -0.8092
  357SOL    HW1 1070   1.078   1.309   0.244  3.9411  1.4316 -1.6314
  357SOL    HW2 1071   0.957   1.247   0.350 -1.8251  1.0071 -0.5369
  358SOL     OW 1072   1.658   1.505   0.535  0.8459 -0.3064  0.3066
  358SOL    HW1 1073   1.623   1.443   0.610  0.1798 -2.5255 -0.8239
  358SOL    HW2 1074   1.638   1.476   0.436 -2.6615 -1.8223 -0.9593
  359SOL     OW 1075   1.612   2.589   0.309 -0.0141  0.1467 -0.2181
  359SOL    HW1 1076   1.519   2.542   0.292 -1.0139  1.0596  0.2566
  359SOL    HW2 1077   1.609   2.670   0.377  0.7502  0.2992  1.0495
  360SOL     OW 1078   0.791   0.489   0.582  0.1018 -0.4388 -0.1560
  360SOL    HW1 1079   0.705   0.532   0.540  1.6417  1.0324  1.8946
  360SOL    HW2 1080   0.780   0.390   0.590  0.0001 -2.0493  1.2038
  361SOL     OW 1081   1.373   1.299   0.617  0.4542  0.3897 -0.0133
  361SOL    HW1 1082   1.394   1.349   0.705 -0.5412  0.7570 -1.6589
  361SOL    HW2 1083   1.292   1.342   0.568 -2.1945 -0.4329 -1.9198
  362SOL     OW 1084   1.390   1.808   0.712  0.0701  0.6550  0.3445
  362SOL    HW1 1085   1.425   1.725   0.766  2.6993  0.3073  0.0109
  362SOL    HW2 1086   1.468   1.870   0.677 -0.9632  0.1957 -3.2024
  363SOL     OW 1087   1.264   1.308   2.088 -0.0300  0.6962  0.5327
  363SOL    HW1 1088   1.353   1.353   2.061 -0.5396 -2.8463  1.0570
  363SOL    HW2 1089   1.202   1.374   2.138  2.9454  0.4368  1.1075
  364SOL     OW 1090   0.549   2.355   2.067 -0.2334  0.2795 -0.2744
  364SOL    HW1 1091   0.447   2.368   2.087  0.4484  1.6608  3.3459
  364SOL    HW2 1092   0.578   2.386   1.972 -0.3875  1.5310  0.9071
  365SOL     OW 1093   0.996   1.947   1.365 -0.3368 -0.4176 -0.0259
  365SOL    HW1 1094   0.895   1.930   1.392 -1.6685  1.0722 -1.2278
  365SOL    HW2 1095   0.997   2.005   1.275 -1.4532  1.9275 -0.9861
  366SOL     OW 1096   2.834   1.969   0.314 -0.0938 -0.4191 -0.2620
  366SOL    HW1 1097   2.812   1.895   0.383 -2.3208 -2.9703  0.8773
  366SOL    HW2 1098   2.893   1.939   0.237 -1.0444  1.9446 -0.4878
  367SOL     OW 1099   0.894   1.208   0.041  0.0350  0.2034 -0.2020
  367SOL    HW1 1100   0.897   1.148   0.123  1.6742  1.4093  2.5630
  367SOL    HW2 1101   0.972   1.270   0.034 -1.2399  0.7141  1.0007
  368SOL     OW 1102   1.485   0.578   0.575 -0.1529  0.0416  0.2743
  368SOL    HW1 1103   1.380   0.590   0.562 -0.2659  0.9656 -0.2615
  368SOL    HW2 1104   1.549   0.592   0.494  1.0831  1.8740 -1.0463
  369SOL     OW 1105   0.394   1.708   0.144 -0.1084 -0.3265  0.0020
  369SOL    HW1 1106   0.428   1.776   0.214 -0.0910 -0.2935 -0.5160
  369SOL    HW2 1107   0.320   1.648   0.190  2.0337 -2.5693 -0.7676
  370SOL     OW 1108   0.381   2.176   1.069 -0.1894  0.7609  0.2474
  370SOL    HW1 1109   0.427   2.254   1.016  0.2696 -2.2116 -0.5226
  370SOL    HW2 1110   0.322   2.121   1.007  0.5100  2.8875 -0.5383
  371SOL     OW 1111   2.893   2.254   2.665  0.3433  0.5000  0.5923
  371SOL    HW1 1112   2.869   2.162   2.706  2.2795 -1.8016 -1.8380
  371SOL    HW2 1113   2.950   2.309   2.731  0.0656 -0.7399  3.1572
  372SOL     OW 1114   1.071   2.145   1.140 -0.7450 -0.0517  0.0507
  372SOL    HW1 1115   1.010   2.188   1.067 -0.6621 -0.3793  0.0049
  372SOL    HW2 1116   1.150   2.208   1.163 -2.7696  1.5327  0.5107
  373SOL     OW 1117   1.905   1.935   0.985  0.0501  0.2015 -0.0112
  373SOL    HW1 1118   1.997   1.965   1.021  0.4983 -2.6177 -0.0792
  373SOL    HW2 1119   1.842   2.012   0.962 -3.1214 -3.4607  0.3201
  374SOL     OW 1120   1.875   0.434   0.563  0.0456  0.1037  0.1684
  374SOL    HW1 1121   1.841   0.374   0.644  2.4717  0.9404 -2.2454
  374SOL    HW2 1122   1.965   0.408   0.523 -0.3541 -1.7168 -1.0129
  375SOL     OW 1123   2.414   2.209   1.097  0.3405  0.6475 -0.2638
  375SOL    HW1 1124   2.468   2.243   1.012  0.2098 -1.9302 -2.7535
  375SOL    HW2 1125   2.477   2.178   1.175 -1.5364 -2.6963 -1.0666
  376SOL     OW 1126   0.008   0.618   1.421  0.4503  1.1469  0.1683
  376SOL    HW1 1127   0.046   0.673   1.505  3.7608  3.8476  1.4484
  376SOL    HW2 1128  -0.088   0.594   1.434  2.7706 -2.5639  1.1939
  377SOL     OW 1129   2.159   2.864   0.292  0.0243 -0.5147 -0.3441
  377SOL    HW1 1130   2.161   2.963   0.327  0.6911  0.9836 -1.8805
  377SOL    HW2 1131   2.247   2.812   0.310  0.0688 -0.2208  0.9047
  378SOL     OW 1132   1.805   1.891   2.463  0.1119  0.1628 -0.1408
  378SOL    HW1 1133   1.870   1.904   2.382  1.3451 -0.2465 -0.3245
  378SOL    HW2 1134   1.765   1.798   2.480  0.3435 -1.2697  1.1361
  379SOL     OW 1135   0.744   0.202   2.827  0.1391  0.4060  0.2489
  379SOL    HW1 1136   0.801   0.119   2.797 -0.8585 -0.2869  0.7529
  379SOL    HW2 1137   0.740   0.275   2.755 -0.3276  5.6570  2.8450
  380SOL     OW 1138   1.577   1.148   0.529  0.0769 -0.0903 -0.4941
  380SOL    HW1 1139   1.487   1.203   0.540 -0.3878 -1.4910 -2.6091
  380SOL    HW2 1140   1.567   1.047   0.515  1.0072  3.2282 -0.3940
  381SOL     OW 1141   1.327   1.219   1.586 -0.3270 -0.6057 -0.7027
  381SOL    HW1 1142   1.377   1.159   1.521 -0.0923 -0.7592  1.4414
  381SOL    HW2 1143   1.396   1.276   1.643  0.7757  0.1466  1.7206
  382SOL     OW 1144   1.813   0.867   0.236 -0.0891  0.3407  0.1745
  382SOL    HW1 1145   1.836   0.849   0.136 -1.2012 -1.5925  0.7052
  382SOL    HW2 1146   1.883   0.837   0.309  0.5431  2.0671  0.9366
  383SOL     OW 1147   2.578   1.013   1.488 -0.6148  0.5052  0.0078
  383SOL    HW1 1148   2.481   0.978   1.468  1.6156  0.4797  0.5807
  383SOL    HW2 1149   2.639   1.018   1.399  0.9423 -1.9134 -1.8660
  384SOL     OW 1150   0.848   2.251   0.146  0.4551  0.3839 -0.2653
  384SOL    HW1 1151   0.814   2.342   0.182 -1.0199 -0.9904 -1.2213
  384SOL    HW2 1152   0.856   2.179   0.223  0.3254 -1.1107  0.9524
  385SOL     OW 1153   2.954   2.033   1.673  0.0352  0.2309 -0.1534
  385SOL    HW1 1154   3.031   2.098   1.697  1.9722 -0.6093  1.7594
  385SOL    HW2 1155   2.996   1.940   1.672 -1.0948  1.4138  1.6956
  386SOL     OW 1156   0.489   1.047   0.475 -0.1395 -0.0458  0.3326
  386SOL    HW1 1157   0.469   0.951   0.515  2.4232  0.7259 -0.9565
  386SOL    HW2 1158   0.403   1.086   0.433 -3.4288 -0.4454 -0.9454
  387SOL     OW 1159   0.926   0.356   1.701  0.6172  0.7135 -0.1048
  387SOL    HW1 1160   0.986   0.442   1.718  5.9667 -1.0094  1.5780
  387SOL    HW2 1161   0.932   0.320   1.604 -1.2412 -2.0355  0.7154
  388SOL     OW 1162   1.188   2.730   1.765 -0.2809  0.0318  0.5828
  388SOL    HW1 1163   1.207   2.753   1.667  0.8725  1.0312 -1.6864
  388SOL    HW2 1164   1.259   2.665   1.803 -1.0924 -2.1354  1.0670
  389SOL     OW 1165   0.142   2.951   1.365 -0.2546  0.5566  0.3883
  389SOL    HW1 1166   0.053   2.963   1.309 -0.9116  0.8927  0.0474
  389SOL    HW2 1167   0.174   2.853   1.369  2.9949  2.3969 -0.8831
  390SOL     OW 1168   1.047   0.974   1.352 -0.1395  0.3692  0.2853
  390SOL    HW1 1169   1.119   0.937   1.420  0.4956  1.2202 -0.9034
  390SOL    HW2 1170   0.998   1.061   1.377 -3.5800 -0.8376  0.0462
  391SOL     OW 1171   2.174   1.145   1.097  0.0693  0.6112  0.2607
  391SOL    HW1 1172   2.108   1.069   1.138 -1.1807  0.1738  0.5568
  391SOL    HW2 1173   2.211   1.120   1.004 -1.2886  1.6869 -2.3319
  392SOL     OW 1174   0.913   2.642   3.064 -0.2582 -0.0821  0.6793
  392SOL    HW1 1175   0.992   2.573   3.061  0.7832 -1.5266  1.7373
  392SOL    HW2 1176   0.848   2.627   3.145  2.4820 -0.1436 -0.5601
  393SOL     OW 1177   0.324   0.569   1.980 -0.5144  0.2418  0.6394
  393SOL    HW1 1178   0.273   0.478   1.994  0.7647  0.5665 -1.2282
  393SOL    HW2 1179   0.384   0.562   1.898 -0.8174 -0.7403  0.4465
  394SOL     OW 1180   3.021   1.949   2.817  0.4048  0.9804 -0.4896
  394SOL    HW1 1181   3.120   1.955   2.858  0.9634  0.5736 -0.9176
  394SOL    HW2 1182   3.022   1.926   2.719  1.0310 -1.0913  2.0241
  395SOL     OW 1183   1.606   1.958   0.660  0.1713  0.1686  0.3483
  395SOL    HW1 1184   1.680   1.894   0.627 -0.0814  1.1561  0.3859
  395SOL    HW2 1185   1.638   2.017   0.740  1.0643  0.9107 -2.4662
  396SOL     OW 1186   2.819   1.796   1.298  0.5048  0.0824  0.0231
  396SOL    HW1 1187   2.781   1.701   1.314 -0.5125  2.6905 -1.3434
  396SOL    HW2 1188   2.793   1.858   1.377 -0.2170 -0.0969  1.3487
  397SOL     OW 1189   1.015   2.234   0.512 -0.0643  0.0639  0.2716
  397SOL    HW1 1190   0.928   2.193   0.554 -0.9661  1.2799  0.5265
  397SOL    HW2 1191   1.048   2.314   0.563 -0.3701  0.4048 -0.3052
  398SOL     OW 1192   2.153   3.093   1.034  0.1495 -0.0391  0.8132
  398SOL    HW1 1193   2.094   3.012   1.066 -0.4649 -0.5693 -1.1762
  398SOL    HW2 1194   2.101   3.182   1.029  0.1885  0.0214 -1.1300
  399SOL     OW 1195   3.072   2.461   2.572 -0.3067  0.2184 -0.0878
  399SOL    HW1 1196   2.967   2.466   2.573 -0.4569  1.5805  0.2062
  399SOL    HW2 1197   3.111   2.411   2.649 -0.1218  1.7421  0.8951
  400SOL     OW 1198   0.766   1.640   1.362 -0.1425 -0.0084  0.0270
  400SOL    HW1 1199   0.693   1.673   1.434 -1.4464 -2.1726 -0.3027
  400SOL    HW2 1200   0.763   1.701   1.277  1.5025  2.1795  0.8911
  401SOL     OW 1201   1.862   0.110   1.211 -0.2556  0.1269 -0.3771
  401SOL    HW1 1202   1.906   0.147   1.299  1.2513  0.6246 -2.3670
  401SOL    HW2 1203   1.756   0.112   1.207  2.1092  0.6097 -1.0564
  402SOL     OW 1204   1.297   0.120   3.048  0.2581  0.3807 -0.2558
  402SOL    HW1 1205   1.394   0.111   3.007  0.5997  1.6468  0.3339
  402SOL    HW2 1206   1.264   0.219   3.032 -2.1762 -0.2282  2.0985
  403SOL     OW 1207   2.286   1.779   0.922  0.0890 -0.2279 -0.3722
  403SOL    HW1 1208   2.389   1.801   0.910  0.0722 -1.2566 -0.3423
  403SOL    HW2 1209   2.233   1.856   0.971 -1.6436  0.2875  1.0650
  404SOL     OW 1210   0.208   2.478   2.835  0.3772 -0.6324 -0.1356
  404SOL    HW1 1211   0.304   2.448   2.806 -2.9967 -1.7927  1.9936
  404SOL    HW2 1212   0.204   2.582   2.846  0.6489 -1.5765 -0.5610
  405SOL     OW 1213   0.089   2.474   0.715 -0.1956 -0.4492  0.4512
  405SOL    HW1 1214   0.081   2.389   0.659  3.4586  0.3559  1.4112
  405SOL    HW2 1215   0.134   2.558   0.679 -1.0788  1.0664  0.8098
  406SOL     OW 1216   0.059   1.539   3.052 -0.1287  0.3399 -0.4432
  406SOL    HW1 1217   0.124   1.519   2.977  0.0563 -0.4081  1.9017
  406SOL    HW2 1218   0.098   1.516   3.147 -1.0060 -2.6031  1.1211
  407SOL     OW 1219   1.543   0.953   0.967  0.2829 -0.2316 -0.7107
  407SOL    HW1 1220   1.537   0.961   0.867  0.0098 -2.0621 -1.6310
  407SOL    HW2 1221   1.465   1.005   1.016 -1.9154  1.0480  0.0136
  408SOL     OW 1222   1.605   2.442   0.944 -0.7421 -0.2396 -0.1304
  408SOL    HW1 1223   1.671   2.411   0.871 -0.0564  1.2654 -0.0120
  408SOL    HW2 1224   1.568   2.537   0.927 -0.8852 -1.4489  0.7130
  409SOL     OW 1225   0.659   0.774   0.762  0.7535 -0.1188 -0.1556
  409SOL    HW1 1226   0.572   0.767   0.704 -0.9349  0.9470  2.0720
  409SOL    HW2 1227   0.672   0.679   0.810  1.1647 -0.1381  0.3798
  410SOL     OW 1228   1.292   2.054   1.386 -0.7478 -0.4471 -0.5787
  410SOL    HW1 1229   1.375   2.001   1.425  0.5502 -0.7567 -0.8185
  410SOL    HW2 1230   1.209   2.002   1.389  1.3628  3.9704 -0.3402
  411SOL     OW 1231   2.651   1.824   3.020 -0.3122 -0.6032  0.0141
  411SOL    HW1 1232   2.553   1.860   3.028  0.3804 -0.7276  1.1066
  411SOL    HW2 1233   2.695   1.853   2.930 -0.9296  3.0349  0.9308
  412SOL     OW 1234   1.531   2.491   2.156  0.0120 -0.2828  0.0512
  412SOL    HW1 1235   1.516   2.572   2.093 -0.4974 -3.2543 -0.8559
  412SOL    HW2 1236   1.462   2.497   2.229  1.3675  0.1907 -0.0059
  413SOL     OW 1237   3.073   0.210   2.937  0.4680  0.0563 -0.3208
  413SOL    HW1 1238   3.043   0.130   2.997  4.0239 -2.8122 -3.1739
  413SOL    HW2 1239   3.176   0.219   2.944  0.2136 -1.4892 -0.6498
  414SOL     OW 1240   1.895   1.544   1.174  0.2228 -0.2673 -0.1676
  414SOL    HW1 1241   1.869   1.641   1.159  0.4927 -0.7085 -1.1072
  414SOL    HW2 1242   1.844   1.473   1.113 -0.5051 -0.0920 -1.7031
  415SOL     OW 1243   0.382   2.295   0.754  0.3152 -0.0130 -0.8441
  415SOL    HW1 1244   0.422   2.375   0.808  0.6724  2.7260  2.9917
  415SOL    HW2 1245   0.288   2.276   0.795 -1.3226  0.5749 -0.7676
  416SOL     OW 1246   0.358   1.027   1.082 -0.0918 -0.4064  0.9057
  416SOL    HW1 1247   0.315   0.953   1.020 -1.8577 -0.8260 -2.3338
  416SOL    HW2 1248   0.463   1.030   1.067  2.4278 -1.9555  0.5369
  417SOL     OW 1249   2.264   2.332   2.001  0.5862  0.3871  0.9640
  417SOL    HW1 1250   2.334   2.275   2.053 -2.0446  2.2821  1.9769
  417SOL    HW2 1251   2.186   2.279   1.960  0.4767  2.0056 -0.6274
  418SOL     OW 1252   1.078   0.605   1.347  0.1997 -0.4716  0.0236
  418SOL    HW1 1253   1.010   0.584   1.270 -1.4119  2.4343  2.0072
  418SOL    HW2 1254   1.181   0.592   1.333  2.5749  2.2692  0.0737
  419SOL     OW 1255   0.954   0.485   2.944 -0.0294 -0.5071  0.1869
  419SOL    HW1 1256   0.874   0.481   2.877 -2.0269  3.6310  0.6777
  419SOL    HW2 1257   0.966   0.574   2.996 -2.5473 -0.2918 -0.9748
  420SOL     OW 1258   0.083   2.255   0.538 -0.5356  0.0464  0.3721
  420SOL    HW1 1259   0.127   2.282   0.449  2.5624  0.6832  1.7766
  420SOL    HW2 1260  -0.005   2.198   0.531  1.6425 -1.4106 -1.5116
  421SOL     OW 1261   0.334   2.972   0.619 -0.1741 -0.5736 -0.3101
  421SOL    HW1 1262   0.316   2.906   0.699 -0.1005  0.9146  0.1800
  421SOL    HW2 1263   0.417   3.035   0.634  0.4496  1.7790 -0.1685
  422SOL     OW 1264   1.006   2.581   1.016 -0.3003 -0.1947 -0.6177
  422SOL    HW1 1265   1.088   2.626   0.967  0.9470  0.6667  1.0514
  422SOL    HW2 1266   0.993   2.621   1.109 -1.1933 -1.2674 -2.2950
  423SOL     OW 1267   0.155   0.740   1.224  0.1654  0.4087 -0.5629
  423SOL    HW1 1268   0.096   0.708   1.307  1.2418 -0.9850 -2.1224
  423SOL    HW2 1269   0.126   0.822   1.172  1.3137 -1.2597  0.3751
  424SOL     OW 1270   1.111   2.205   2.042  0.7547  0.2831  0.1645
  424SOL    HW1 1271   1.135   2.303   2.024  1.6960 -1.5626 -1.8123
  424SOL    HW2 1272   1.097   2.183   2.142  0.0179 -0.4826 -1.3646
  425SOL     OW 1273   1.969   1.298   1.006 -0.3657  0.0822  0.3185
  425SOL    HW1 1274   2.042   1.238   1.052  1.1635 -1.4394 -0.3653
  425SOL    HW2 1275   2.008   1.396   1.000 -2.9069  0.1834  0.1501
  426SOL     OW 1276   1.495   1.589   1.367 -0.5792 -0.2508 -0.2943
  426SOL    HW1 1277   1.473   1.667   1.308 -0.2726  1.3328 -1.2263
  426SOL    HW2 1278   1.436   1.586   1.457  1.2882  0.1772 -0.5383
  427SOL     OW 1279   1.918   2.328   2.082 -0.5533  0.5064  0.6777
  427SOL    HW1 1280   1.975   2.259   2.137  0.1197  0.5441 -0.8336
  427SOL    HW2 1281   1.916   2.423   2.126 -1.2146 -3.7233  0.4030
  428SOL     OW 1282   0.826   3.063   0.147 -0.6305  0.4904  0.0757
  428SOL    HW1 1283   0.809   3.142   0.077  0.2072  2.6825 -1.6513
  428SOL    HW2 1284   0.911   3.007   0.120  1.8238 -0.6106 -1.4525
  429SOL     OW 1285   1.323   0.107   0.248  0.4480  0.0543 -0.3407
  429SOL    HW1 1286   1.406   0.122   0.306  1.8700  0.5191  0.5868
  429SOL    HW2 1287   1.334   0.113   0.144  1.0115  0.3592 -2.0151
  430SOL     OW 1288   2.851   1.394   0.294 -0.2440 -0.3551 -0.2841
  430SOL    HW1 1289   2.835   1.449   0.210 -2.8767 -2.7344 -1.3351
  430SOL    HW2 1290   2.879   1.458   0.379  1.6944  0.9017 -0.7549
  431SOL     OW 1291   2.099   1.545   0.949 -0.0883  0.6644  0.7305
  431SOL    HW1 1292   2.196   1.552   0.910  1.7967  1.0700 -2.0502
  431SOL    HW2 1293   2.032   1.617   0.915  0.4042  0.1486 -0.1009
  432SOL     OW 1294   2.942   2.236   1.155  0.1880 -0.5347  0.2167
  432SOL    HW1 1295   2.950   2.134   1.140  2.8522 -0.1883  1.9423
  432SOL    HW2 1296   2.964   2.261   1.256  1.2213 -1.7689 -1.4445
  433SOL     OW 1297   1.838   0.266   0.804 -0.1085 -0.4048 -0.3061
  433SOL    HW1 1298   1.743   0.264   0.834  2.4804 -1.1589  3.7579
  433SOL    HW2 1299   1.905   0.248   0.891  0.5414  2.1711  2.7445
  434SOL     OW 1300   1.541   0.335   0.691 -0.1588  0.7067  0.0043
  434SOL    HW1 1301   1.539   0.422   0.637 -1.9594  0.8889 -2.0621
  434SOL    HW2 1302   1.541   0.353   0.794 -0.6054 -2.8336  1.0164
  435SOL     OW 1303   1.467   1.507   2.033  0.2517 -0.0588  0.0088
  435SOL    HW1 1304   1.458   1.558   2.126 -0.8758  0.0246 -2.7926
  435SOL    HW2 1305   1.492   1.570   1.956  2.9271 -0.4612  2.1938
  436SOL     OW 1306   1.711   2.729   2.269  0.2087  0.0883 -0.2133
  436SOL    HW1 1307   1.677   2.804   2.333  0.6499 -3.8496 -1.2236
  436SOL    HW2 1308   1.724   2.636   2.319  0.0625 -1.8490 -1.0482
  437SOL     OW 1309   1.095   2.945   0.912 -0.3273  0.8351 -0.3262
  437SOL    HW1 1310   1.022   3.010   0.871 -2.5212 -0.4446 -0.6649
  437SOL    HW2 1311   1.087   2.943   1.014  1.2558  0.8468 -0.6981
  438SOL     OW 1312   0.991   2.635   1.323  0.2796  0.4672 -0.0683
  438SOL    HW1 1313   1.067   2.657   1.397  2.1715  2.2639 -1.6568
  438SOL    HW2 1314   0.988   2.533   1.313  0.9169  2.7470  2.5886
  439SOL     OW 1315   0.723   1.802   1.146 -0.1794  0.6286  0.0693
  439SOL    HW1 1316   0.702   1.896   1.105 -2.1966  0.6463  1.0859
  439SOL    HW2 1317   0.635   1.757   1.185  0.4452 -1.1177  1.4014
  440SOL     OW 1318   1.059   2.501   1.940  0.4849 -1.0153 -0.2158
  440SOL    HW1 1319   0.999   2.533   1.864  0.7748 -0.2401  0.5200
  440SOL    HW2 1320   1.161   2.494   1.915  1.2614 -2.0564  3.5332
  441SOL     OW 1321   0.524   2.739   1.443 -0.3423 -0.4833  0.7142
  441SOL    HW1 1322   0.568   2.649   1.445 -0.1371  2.9592  0.2005
  441SOL    HW2 1323   0.421   2.736   1.469 -2.6887 -0.2037 -1.1320
  442SOL     OW 1324   2.264   0.733   2.489  0.4090  0.1018 -0.0270
  442SOL    HW1 1325   2.266   0.633   2.515 -1.9293  0.1757  0.5258
  442SOL    HW2 1326   2.168   0.774   2.505  0.7245 -0.2554  1.7655
  443SOL     OW 1327   1.178   2.756   2.203  0.1557  0.0097  0.3695
  443SOL    HW1 1328   1.189   2.824   2.287 -1.7381 -0.6247  0.2298
  443SOL    HW2 1329   1.249   2.680   2.207  2.5659  0.9365 -1.8386
  444SOL     OW 1330   1.071   1.315   1.566 -0.5538  0.7684  0.0106
  444SOL    HW1 1331   1.160   1.261   1.575 -0.2030  1.4769  2.9637
  444SOL    HW2 1332   1.077   1.389   1.638  2.9107  1.8043 -2.1421
  445SOL     OW 1333   0.006   2.306   1.921 -0.2880  0.2126  0.0613
  445SOL    HW1 1334  -0.015   2.401   1.878 -0.5981  2.0268  0.4240
  445SOL    HW2 1335  -0.069   2.270   1.984  0.5534 -0.4407 -0.0309
  446SOL     OW 1336   0.164   1.886   2.345 -0.6038  0.0905  0.2850
  446SOL    HW1 1337   0.102   1.968   2.363 -0.4261  0.4465 -1.5315
  446SOL    HW2 1338   0.134   1.853   2.252  0.7156  1.7485  0.9212
  447SOL     OW 1339   1.263   1.683   1.944  0.0226 -0.0001  0.4496
  447SOL    HW1 1340   1.195   1.742   1.894  1.3026  1.1702  0.2128
  447SOL    HW2 1341   1.298   1.733   2.030  3.5511 -0.5755 -0.2276
  448SOL     OW 1342   0.175   1.554   2.035 -0.5182 -0.5330  0.2702
  448SOL    HW1 1343   0.162   1.628   1.967  2.7522 -1.4743 -2.0618
  448SOL    HW2 1344   0.137   1.563   2.133 -1.3782 -1.1626 -1.0852
  449SOL     OW 1345   2.027   2.950   0.823  0.2964  0.2347  0.6992
  449SOL    HW1 1346   2.123   2.950   0.868 -0.3681 -0.6119 -0.5593
  449SOL    HW2 1347   2.016   2.858   0.768  2.0691 -1.6787  0.4880
  450SOL     OW 1348   2.288   1.361   0.763 -0.6121 -0.0244 -0.2376
  450SOL    HW1 1349   2.247   1.300   0.838  1.0613  1.8630 -1.0787
  450SOL    HW2 1350   2.212   1.397   0.706  0.2924 -2.7138  0.8200
  451SOL     OW 1351   1.433   0.043   1.475  0.7900 -0.1223  0.1726
  451SOL    HW1 1352   1.343   0.098   1.481 -1.2068  0.2159  0.3369
  451SOL    HW2 1353   1.444  -0.026   1.554  0.6132  0.2140  0.5478
  452SOL     OW 1354   2.653   2.284   2.213  0.1871  0.2989 -0.0852
  452SOL    HW1 1355   2.585   2.361   2.235  0.4856 -1.1396  0.2336
  452SOL    HW2 1356   2.691   2.239   2.302 -1.4836  0.3801  0.2348
  453SOL     OW 1357   2.435   2.629   3.088  0.2650  0.2378  0.0301
  453SOL    HW1 1358   2.366   2.704   3.085  0.7155 -3.2190  3.7378
  453SOL    HW2 1359   2.429   2.573   3.001 -1.8278  0.4642  2.4688
  454SOL     OW 1360   0.979   1.114   2.101 -0.2201  0.1840 -0.3074
  454SOL    HW1 1361   0.951   1.152   2.003 -0.1459  2.4244 -0.8551
  454SOL    HW2 1362   1.081   1.125   2.119 -0.5848  0.0610  0.8554
  455SOL     OW 1363   0.688   2.638   2.869  0.4175  0.3139 -0.4146
  455SOL    HW1 1364   0.771   2.670   2.927  1.4324  1.5809  1.5382
  455SOL    HW2 1365   0.650   2.548   2.909  2.3330 -2.7169  0.2756
  456SOL     OW 1366   0.502   1.849   0.372  0.1645 -0.6156 -0.2549
  456SOL    HW1 1367   0.598   1.809   0.397  0.4667 -2.1557 -1.9252
  456SOL    HW2 1368   0.511   1.951   0.343 -0.1877  2.3670 -2.7180
  457SOL     OW 1369   0.370   2.613   0.722 -0.1751  0.3193  0.5052
  457SOL    HW1 1370   0.345   2.629   0.624 -1.0261  1.0961 -1.0053
  457SOL    HW2 1371   0.459   2.655   0.757 -0.5745  0.0951 -2.9886
  458SOL     OW 1372   2.976   3.018   1.260 -0.1093 -1.1592  0.0030
  458SOL    HW1 1373   2.980   3.122   1.259  2.8551 -1.1642 -0.3490
  458SOL    HW2 1374   2.994   2.971   1.171  3.4660  0.4705 -0.7271
  459SOL     OW 1375   2.140   2.561   0.899 -0.3559 -0.0929  0.5556
  459SOL    HW1 1376   2.178   2.614   0.976 -1.8462  1.1578 -0.6649
  459SOL    HW2 1377   2.196   2.573   0.813 -0.0558  1.3915 -1.3214
  460SOL     OW 1378   1.140   1.955   2.978 -0.0502  0.0995  0.3278
  460SOL    HW1 1379   1.198   2.011   2.921 -1.2240 -0.5388  0.4398
  460SOL    HW2 1380   1.188   1.885   3.035  0.2437  0.2394 -1.3755
  461SOL     OW 1381   0.497   2.133   2.659  0.0089 -0.5622 -0.2897
  461SOL    HW1 1382   0.432   2.071   2.611  0.4823 -0.9013 -0.4422
  461SOL    HW2 1383   0.523   2.091   2.747  0.1478  2.0980 -1.5331
  462SOL     OW 1384   0.928   1.205   1.839 -0.2067  0.3146  0.6075
  462SOL    HW1 1385   1.004   1.161   1.775  1.6732  1.0241 -1.8765
  462SOL    HW2 1386   0.878   1.279   1.792 -0.6405 -1.5553 -1.0613
  463SOL     OW 1387   0.451   0.803   0.563  0.0148  0.0120  0.7047
  463SOL    HW1 1388   0.482   0.711   0.527 -2.8175 -3.3977  0.0543
  463SOL    HW2 1389   0.350   0.804   0.576  0.6123 -0.3794 -0.4077
  464SOL     OW 1390   0.596   2.251   2.312 -0.1461  0.5411 -0.1927
  464SOL    HW1 1391   0.557   2.336   2.357  0.7073 -1.2434 -1.0110
  464SOL    HW2 1392   0.609   2.267   2.212 -2.3020 -0.3277  0.9388
  465SOL     OW 1393   0.243   0.912   0.829 -0.6980 -0.3309 -0.3585
  465SOL    HW1 1394   0.159   0.948   0.785  1.0226 -1.8678 -0.1143
  465SOL    HW2 1395   0.257   0.812   0.805  0.7824 -1.2785  1.8003
  466SOL     OW 1396   1.365   1.120   1.140 -0.4586  0.4469 -0.0036
  466SOL    HW1 1397   1.417   1.205   1.180 -0.1653  1.5097 -0.8945
  466SOL    HW2 1398   1.265   1.124   1.155 -0.8336 -1.7725  1.2166
  467SOL     OW 1399   0.500   0.359   2.377 -0.5746  0.8099  0.3638
  467SOL    HW1 1400   0.487   0.458   2.414  1.7516  1.5524 -1.5905
  467SOL    HW2 1401   0.497   0.289   2.454  0.1744  1.6593  0.3901
  468SOL     OW 1402   0.415   2.291   1.669  0.0640 -0.9331  0.0499
  468SOL    HW1 1403   0.480   2.346   1.729  0.1629  0.8735 -0.9482
  468SOL    HW2 1404   0.387   2.339   1.581 -0.8505 -0.4456  1.5273
  469SOL     OW 1405   1.485   1.335   1.237  0.2509 -0.0888 -1.1382
  469SOL    HW1 1406   1.584   1.314   1.219 -1.5167  0.2004  2.4734
  469SOL    HW2 1407   1.485   1.427   1.291  0.5181  1.1402 -2.8094
  470SOL     OW 1408   3.017   1.690   0.737 -0.1428 -0.1250  0.3704
  470SOL    HW1 1409   3.060   1.776   0.696  1.0126 -0.0892 -2.9131
  470SOL    HW2 1410   2.950   1.714   0.809 -2.0460 -2.4880 -1.6023
  471SOL     OW 1411   2.614   1.342   2.163 -0.1031 -0.2061 -0.4156
  471SOL    HW1 1412   2.612   1.253   2.222  0.8873 -0.2905  1.6049
  471SOL    HW2 1413   2.699   1.399   2.172 -2.3941  0.3635  1.8827
  472SOL     OW 1414   1.110   2.428   3.045 -0.3215 -0.3618  0.0336
  472SOL    HW1 1415   1.148   2.420   3.142 -0.6774 -0.8612 -0.8523
  472SOL    HW2 1416   1.073   2.340   3.005  2.2341  1.5044 -0.4240
  473SOL     OW 1417   1.081   1.512   0.914  0.2343  0.6742 -0.4456
  473SOL    HW1 1418   0.990   1.529   0.960  3.1212  3.7889 -0.5114
  473SOL    HW2 1419   1.158   1.487   0.985  2.7238 -3.3952  1.6909
  474SOL     OW 1420   0.798   1.242   0.635  0.2028 -0.0460  0.6581
  474SOL    HW1 1421   0.758   1.238   0.537 -0.8880  2.0988  0.3559
  474SOL    HW2 1422   0.854   1.158   0.660  1.2651  0.6110  0.0989
  475SOL     OW 1423   2.831   0.128   0.788  0.7443 -0.6689 -0.2657
  475SOL    HW1 1424   2.922   0.133   0.838 -0.4213  1.1428 -0.3726
  475SOL    HW2 1425   2.747   0.139   0.852  1.8449  2.0091  1.3780
  476SOL     OW 1426   0.927   2.989   1.751  0.1634  0.0067 -0.2768
  476SOL    HW1 1427   0.990   2.971   1.834 -0.6096 -0.4870  0.5224
  476SOL    HW2 1428   0.970   2.947   1.662  1.8696 -0.6161 -1.0902
  477SOL     OW 1429   1.426   0.326   2.477  0.1313 -0.0548 -0.4468
  477SOL    HW1 1430   1.410   0.340   2.580  0.6395 -0.6768 -0.5621
  477SOL    HW2 1431   1.506   0.258   2.464  1.6529  0.2505  0.7835
  478SOL     OW 1432   2.255   1.828   0.250 -0.2023 -0.3944 -0.1786
  478SOL    HW1 1433   2.182   1.755   0.232  1.7500  0.2448  1.1758
  478SOL    HW2 1434   2.352   1.785   0.238  1.3358 -1.8541 -1.7293
  479SOL     OW 1435   1.244   1.035   2.872  0.6142 -0.6037  0.0722
  479SOL    HW1 1436   1.299   1.033   2.780  5.2442  0.5747  0.3786
  479SOL    HW2 1437   1.140   1.027   2.866 -1.8129  3.0872  0.5866
  480SOL     OW 1438   2.508   2.320   0.355 -0.2193  0.0215  0.2449
  480SOL    HW1 1439   2.455   2.230   0.377  1.9409 -0.3318 -0.1897
  480SOL    HW2 1440   2.456   2.376   0.285  0.9748  0.5737  0.6660
  481SOL     OW 1441   1.071   1.173   0.821  0.0718 -0.4622 -0.5221
  481SOL    HW1 1442   1.070   1.256   0.755  3.7364  0.8367 -2.0576
  481SOL    HW2 1443   1.088   1.213   0.918  2.0425  1.5546 -0.7495
  482SOL     OW 1444   1.608   0.353   2.045  0.6159  0.1755  0.0025
  482SOL    HW1 1445   1.616   0.455   2.002 -1.8627  2.4355  0.8517
  482SOL    HW2 1446   1.696   0.303   2.045  0.8241  1.8169 -0.1300
  483SOL     OW 1447   0.169   2.387   1.276 -0.4268 -0.2474 -0.2107
  483SOL    HW1 1448   0.080   2.366   1.331 -4.1757  4.8275  1.0240
  483SOL    HW2 1449   0.150   2.418   1.176 -0.0749 -1.9308 -0.9529
  484SOL     OW 1450   1.702   0.973   1.394  0.0003 -0.2862 -0.0993
  484SOL    HW1 1451   1.772   0.910   1.347 -0.7893  1.0306 -0.0860
  484SOL    HW2 1452   1.744   1.052   1.450 -0.5514  0.2748 -1.1226
  485SOL     OW 1453   0.683   1.079   1.786  0.4590 -0.2095  0.0938
  485SOL    HW1 1454   0.692   1.044   1.690 -2.7289 -0.3883  1.0028
  485SOL    HW2 1455   0.767   1.144   1.809 -2.0087  3.6965  1.3744
  486SOL     OW 1456   0.933   1.964   2.476  0.2231  0.1096 -0.3657
  486SOL    HW1 1457   0.977   1.948   2.570 -1.1279 -0.0605  2.9743
  486SOL    HW2 1458   0.831   1.999   2.492 -1.7155 -0.9547  0.6993
  487SOL     OW 1459   1.700   1.521   0.890  0.5373 -0.7239 -0.2522
  487SOL    HW1 1460   1.685   1.445   0.825 -1.2439  1.9029  0.0023
  487SOL    HW2 1461   1.784   1.580   0.871 -2.6490 -2.0504  2.8099
  488SOL     OW 1462   2.979   0.931   2.195  1.0075  0.0989  0.2326
  488SOL    HW1 1463   3.036   0.867   2.133 -0.3177 -0.7443 -2.8357
  488SOL    HW2 1464   2.994   0.914   2.295 -3.1621 -0.8674 -1.1011
  489SOL     OW 1465   2.757   0.262   1.309 -0.6871  0.4141  0.2816
  489SOL    HW1 1466   2.712   0.207   1.393 -0.7535 -0.6037  1.8163
  489SOL    HW2 1467   2.811   0.201   1.247 -1.1439 -0.7960 -0.0825
  490SOL     OW 1468   1.420   2.970   2.809 -0.1051  0.3147 -0.1132
  490SOL    HW1 1469   1.446   2.872   2.807 -3.0413  3.3594  0.4032
  490SOL    HW2 1470   1.422   3.019   2.718  0.1783 -1.9707  0.7057
  491SOL     OW 1471   1.816   1.505   2.678  0.8213  0.4232  0.1270
  491SOL    HW1 1472   1.759   1.445   2.744  0.5892 -1.3195  2.5663
  491SOL    HW2 1473   1.921   1.501   2.694  0.6791  0.6930  2.3398
  492SOL     OW 1474   0.532   2.054   0.741 -0.5979 -0.0140  0.7388
  492SOL    HW1 1475   0.574   2.017   0.827  1.9392  0.2173  0.2956
  492SOL    HW2 1476   0.480   2.143   0.759 -1.4234  2.0149 -0.6805
  493SOL     OW 1477   0.425   1.460   2.056  0.0383  0.4980 -0.0608
  493SOL    HW1 1478   0.339   1.514   2.042  0.3983 -1.1781  1.7191
  493SOL    HW2 1479   0.418   1.390   2.131 -1.4717 -1.4296 -0.3763
  494SOL     OW 1480   2.658   2.696   0.161 -0.1225 -0.1375  0.0118
  494SOL    HW1 1481   2.648   2.640   0.247 -1.1844 -0.2857  0.3282
  494SOL    HW2 1482   2.587   2.670   0.087 -1.2503  0.4496  0.4069
  495SOL     OW 1483   2.724   2.643   2.720 -0.0021  0.5868  0.2419
  495SOL    HW1 1484   2.698   2.543   2.697  1.2629 -0.7690 -0.5604
  495SOL    HW2 1485   2.737   2.696   2.634 -0.7973  0.3835 -0.0101
  496SOL     OW 1486   2.019   2.170   0.729  0.2719 -0.0943  0.0035
  496SOL    HW1 1487   2.047   2.208   0.818  0.3791  0.2193  0.0344
  496SOL    HW2 1488   2.066   2.083   0.696 -1.0864 -0.4596  0.7861
  497SOL     OW 1489   0.198   2.990   2.403  0.0736 -0.0633  0.0986
  497SOL    HW1 1490   0.125   3.057   2.444 -0.8585  0.5139 -0.2910
  497SOL    HW2 1491   0.251   3.035   2.324 -0.7314  2.2554  0.1812
  498SOL     OW 1492   1.231   1.447   1.142  0.4909  0.2426  0.1254
  498SOL    HW1 1493   1.331   1.450   1.178  1.4896  0.8432 -1.1074
  498SOL    HW2 1494   1.165   1.486   1.210 -1.9243 -1.3949  0.2201
  499SOL     OW 1495   0.776   1.841   0.540  0.1875 -0.8078 -0.4598
  499SOL    HW1 1496   0.761   1.739   0.557  0.4307 -1.2586 -1.0858
  499SOL    HW2 1497   0.805   1.885   0.629  3.2802  1.8338  0.1612
  500SOL     OW 1498   1.431   2.977   1.704 -0.6227  0.5588 -0.0693
  500SOL    HW1 1499   1.371   2.982   1.786 -0.3117  0.3824  0.1587
  500SOL    HW2 1500   1.472   2.882   1.684  0.2093  0.1415  1.7802
  501SOL     OW 1501   0.780   1.124   2.298 -0.0008  0.1759  0.0550
  501SOL    HW1 1502   0.706   1.055   2.286  2.1457 -0.4313  3.9138
  501SOL    HW2 1503   0.842   1.126   2.215 -3.6053  0.8141 -2.0671
  502SOL     OW 1504   2.570   0.968   1.759 -0.0682  0.5512 -0.1490
  502SOL    HW1 1505   2.573   0.973   1.656 -1.0259  1.0813  0.0799
  502SOL    HW2 1506   2.530   0.876   1.791 -0.1619 -1.9707  2.0876
  503SOL     OW 1507   1.328   0.155   0.609  0.4283  0.8072  0.2997
  503SOL    HW1 1508   1.257   0.226   0.627  3.7078 -0.2942  1.6519
  503SOL    HW2 1509   1.420   0.192   0.598 -1.5954 -0.7564 -1.4415
  504SOL     OW 1510   3.031   2.326   1.395 -0.0127  0.0679  0.0543
  504SOL    HW1 1511   2.985   2.407   1.454  0.6411  1.4588  3.0749
  504SOL    HW2 1512   3.046   2.250   1.461 -3.4395 -1.3897 -0.8281
  505SOL     OW 1513   2.285   1.156   1.478  0.2304 -0.3303 -0.1633
  505SOL    HW1 1514   2.283   1.219   1.398 -1.4597  0.3151 -0.2198
  505SOL    HW2 1515   2.328   1.202   1.560 -0.5899 -2.4240 -2.9815
  506SOL     OW 1516   1.992   0.225   1.748  0.1221  0.6376  0.2938
  506SOL    HW1 1517   2.056   0.141   1.749  3.4935 -0.7172  2.4055
  506SOL    HW2 1518   2.031   0.297   1.812  1.5403  0.2477 -1.6854
  507SOL     OW 1519   0.518   0.665   2.175 -0.1852 -0.2000  0.3527
  507SOL    HW1 1520   0.432   0.665   2.120  0.6672 -0.2492 -2.7613
  507SOL    HW2 1521   0.590   0.593   2.148 -4.3268  0.9583  1.4474
  508SOL     OW 1522   0.271   1.620   0.916  0.1585  0.2710  0.2230
  508SOL    HW1 1523   0.294   1.695   0.850  1.2400  0.7860 -0.2198
  508SOL    HW2 1524   0.232   1.657   1.002 -1.0997  2.4701 -2.7960
  509SOL     OW 1525   1.339   1.221   2.453 -0.2836 -0.4521  0.3079
  509SOL    HW1 1526   1.258   1.150   2.469  0.3117 -1.2972 -0.2229
  509SOL    HW2 1527   1.404   1.208   2.375  1.4250 -1.8199  1.3262
  510SOL     OW 1528   1.298   1.998   2.057  0.1918 -0.4546  0.0345
  510SOL    HW1 1529   1.232   2.064   2.004  0.1530 -0.7583 -3.7814
  510SOL    HW2 1530   1.242   1.939   2.118 -0.9817  3.2473 -2.4247
  511SOL     OW 1531   3.056   2.649   1.309  0.2054 -0.2368 -0.8158
  511SOL    HW1 1532   3.043   2.617   1.212  1.3789  0.6272 -0.8262
  511SOL    HW2 1533   2.982   2.610   1.376 -0.3497 -0.6252  1.4350
  512SOL     OW 1534   2.402   0.431   1.392  0.6629 -0.4603  0.0309
  512SOL    HW1 1535   2.298   0.442   1.408  0.0007  2.1263  0.9411
  512SOL    HW2 1536   2.417   0.373   1.308 -3.7799 -0.7100 -1.9319
  513SOL     OW 1537   2.466   2.024   0.829  0.0063 -0.4397 -0.3471
  513SOL    HW1 1538   2.418   2.100   0.780  1.3118 -0.9489 -1.0748
  513SOL    HW2 1539   2.553   1.988   0.783 -0.3777 -0.4594  0.4438
  514SOL     OW 1540   0.637   2.801   0.422  0.6405 -0.0136 -0.4655
  514SOL    HW1 1541   0.610   2.849   0.331 -0.9895 -1.2993 -1.9899
  514SOL    HW2 1542   0.651   2.870   0.498 -0.1052 -1.3045  1.3406
  515SOL     OW 1543   2.030   1.159   2.294 -0.5400  0.8750  0.6848
  515SOL    HW1 1544   2.006   1.179   2.195  3.1641 -0.4002 -0.4919
  515SOL    HW2 1545   1.974   1.199   2.373 -0.7341 -2.9820  3.5001
  516SOL     OW 1546   0.280   0.255   1.958 -0.3811 -0.2586  0.2020
  516SOL    HW1 1547   0.377   0.238   1.922  2.0186  0.2131 -0.9493
  516SOL    HW2 1548   0.209   0.205   1.902  1.0917 -0.5403  1.9389
  517SOL     OW 1549   0.357   3.037   1.216  0.2340  0.3786  0.4683
  517SOL    HW1 1550   0.396   3.122   1.260  2.2877  0.7285 -2.4610
  517SOL    HW2 1551   0.283   2.996   1.280 -0.0974 -0.2984 -2.6527
  518SOL     OW 1552   2.131   3.083   1.767  0.1416  0.2435  0.1188
  518SOL    HW1 1553   2.221   3.124   1.807 -2.4475  0.9495 -0.8588
  518SOL    HW2 1554   2.154   3.004   1.705  0.7111  0.8590 -0.1490
  519SOL     OW 1555   2.404   2.222   2.582 -0.2902  0.2661  0.3934
  519SOL    HW1 1556   2.322   2.237   2.642  1.6130 -2.0198  1.4518
  519SOL    HW2 1557   2.476   2.296   2.585  0.9129 -2.6797 -1.2602
  520SOL     OW 1558   1.754   2.868   1.858  0.1307 -0.3403  0.0069
  520SOL    HW1 1559   1.666   2.857   1.910 -0.4034 -0.4317  0.3068
  520SOL    HW2 1560   1.812   2.785   1.860 -0.1948 -0.4714 -0.6403
  521SOL     OW 1561   0.571   0.025   2.096 -0.2890  1.0878 -0.5352
  521SOL    HW1 1562   0.470   0.025   2.125 -3.0844  0.0315 -0.9846
  521SOL    HW2 1563   0.635  -0.003   2.175  2.6684  1.1355 -0.4337
  522SOL     OW 1564   0.186   1.904   1.475 -0.3893  0.1212  0.1897
  522SOL    HW1 1565   0.260   1.946   1.539  0.1603 -0.4489  0.8334
  522SOL    HW2 1566   0.158   1.966   1.396 -0.3324 -2.6964  0.0933
  523SOL     OW 1567   2.247   2.901   1.577 -0.1409 -0.3587  0.4019
  523SOL    HW1 1568   2.325   2.838   1.564 -0.7135 -0.0322  1.4599
  523SOL    HW2 1569   2.160   2.877   1.523 -1.5475 -1.4326 -0.4416
  524SOL     OW 1570   0.181   2.759   2.785  0.2209  0.3802  0.5430
  524SOL    HW1 1571   0.136   2.817   2.860 -3.1085 -1.3743  2.7048
  524SOL    HW2 1572   0.288   2.758   2.785  0.6638 -1.8138 -1.0462
  525SOL     OW 1573   2.150   1.947   0.463 -0.6845 -0.2240  0.0915
  525SOL    HW1 1574   2.106   1.881   0.531  0.7284  1.8953  0.2656
  525SOL    HW2 1575   2.201   1.901   0.380  2.5104  2.0156 -0.9462
  526SOL     OW 1576   0.438   1.524   1.605 -0.0292  0.0336 -0.1483
  526SOL    HW1 1577   0.357   1.509   1.672  0.1163 -0.4990  1.3544
  526SOL    HW2 1578   0.501   1.440   1.603  0.8737  0.5307 -3.8280
  527SOL     OW 1579   1.082   2.926   1.284 -0.0655 -0.5435 -0.6725
  527SOL    HW1 1580   1.181   2.898   1.297  1.0872  0.0122 -2.3367
  527SOL    HW2 1581   1.073   3.033   1.285 -0.7362 -0.5177  1.3985
  528SOL     OW 1582   1.349   2.410   0.490  0.1990 -0.1442 -0.3883
  528SOL    HW1 1583   1.382   2.315   0.506  1.0056  0.8442 -0.3480
  528SOL    HW2 1584   1.413   2.481   0.532 -0.7507  0.5954  1.8135
  529SOL     OW 1585   1.893   1.698   0.809 -0.4626 -0.0455 -0.1018
  529SOL    HW1 1586   1.854   1.710   0.717  1.8417  1.7840  0.8152
  529SOL    HW2 1587   1.871   1.782   0.869  1.3185  2.1464 -0.7403
  530SOL     OW 1588   0.281   2.475   0.346 -0.0463 -0.6062 -0.1636
  530SOL    HW1 1589   0.254   2.560   0.408  1.7406  1.3409 -0.4601
  530SOL    HW2 1590   0.351   2.413   0.385 -0.0346 -0.5549 -0.4558
  531SOL     OW 1591   1.817   1.014   0.996  0.0400 -0.5212  0.2222
  531SOL    HW1 1592   1.864   0.984   0.906 -0.3834 -2.6184 -0.9200
  531SOL    HW2 1593   1.716   0.990   0.993  2.4970  0.5503 -0.3253
  532SOL     OW 1594   0.498   1.061   0.793 -0.1984  0.1026 -0.3593
  532SOL    HW1 1595   0.528   1.097   0.703 -2.1843 -1.3439 -1.1110
  532SOL    HW2 1596   0.432   0.981   0.780  0.7792 -1.4735 -0.5820
  533SOL     OW 1597   1.768   0.025   2.571 -0.1646  0.2832  0.3491
  533SOL    HW1 1598   1.866  -0.007   2.592  0.1911  2.5581 -2.3754
  533SOL    HW2 1599   1.750   0.112   2.630 -0.2270  1.2572 -1.1149
  534SOL     OW 1600   0.370   0.226   1.573  0.1482  0.2964 -0.1132
  534SOL    HW1 1601   0.466   0.261   1.576 -1.6203 -1.6187 -1.3328
  534SOL    HW2 1602   0.303   0.303   1.572  0.7439 -0.8634 -0.2021
  535SOL     OW 1603   1.952   0.353   0.155 -0.0160  0.5332  0.1307
  535SOL    HW1 1604   1.957   0.434   0.222  1.3813  2.4291  3.0082
  535SOL    HW2 1605   1.944   0.260   0.202  2.9095 -1.2153 -0.7148
  536SOL     OW 1606   1.407   2.657   0.962  0.5858  0.0703  0.3645
  536SOL    HW1 1607   1.366   2.600   1.046  1.7758 -0.1373 -1.5797
  536SOL    HW2 1608   1.325   2.697   0.910 -0.5168 -1.1178  0.8721
  537SOL     OW 1609   0.800   0.278   2.416  0.1318 -0.2903  0.3625
  537SOL    HW1 1610   0.822   0.332   2.327  0.4885 -1.0220 -1.5943
  537SOL    HW2 1611   0.779   0.176   2.396 -0.9087  0.2986 -1.1317
  538SOL     OW 1612   1.661   2.298   1.411  0.1671  0.0194 -0.9741
  538SOL    HW1 1613   1.669   2.198   1.379 -2.4781 -0.2229  2.4295
  538SOL    HW2 1614   1.752   2.348   1.414 -0.7864 -1.9809 -0.1790
  539SOL     OW 1615   0.181   1.636   2.683  0.6206  0.1447  0.4906
  539SOL    HW1 1616   0.087   1.628   2.643  1.7541 -1.4766  1.1760
  539SOL    HW2 1617   0.194   1.727   2.729 -0.4100 -1.8645  0.1481
  540SOL     OW 1618   2.666   1.752   1.922 -0.4648 -0.4923  0.1645
  540SOL    HW1 1619   2.614   1.670   1.964 -0.6604  0.2348 -0.3443
  540SOL    HW2 1620   2.612   1.844   1.913  0.7012 -2.5109 -0.0697
  541SOL     OW 1621   0.565   2.177   0.015  0.4911 -0.2366  0.1210
  541SOL    HW1 1622   0.609   2.159   0.104  0.7776  0.0229 -0.3684
  541SOL    HW2 1623   0.463   2.198   0.024  0.0781  0.0594  1.3760
  542SOL     OW 1624   2.191   2.589   0.425  0.3507  0.5469  0.6993
  542SOL    HW1 1625   2.100   2.642   0.410 -1.1463  0.2726  0.9558
  542SOL    HW2 1626   2.176   2.490   0.453  2.6945  0.1818  0.4513
  543SOL     OW 1627   1.107   1.797   1.559 -0.1265 -0.4889  0.2338
  543SOL    HW1 1628   1.076   1.820   1.659  1.9052  0.7627  0.7979
  543SOL    HW2 1629   1.070   1.859   1.487 -1.6695 -3.4559 -0.0498
  544SOL     OW 1630   1.099   0.487   0.169 -0.1140  0.1459 -0.1786
  544SOL    HW1 1631   1.075   0.398   0.219  0.6688  0.6627  1.6320
  544SOL    HW2 1632   1.156   0.461   0.082 -0.0887  1.6484 -3.3100
  545SOL     OW 1633   1.109   1.765   0.777 -0.3488 -0.0837 -0.2285
  545SOL    HW1 1634   1.187   1.791   0.716 -1.7341  0.4842  1.1747
  545SOL    HW2 1635   1.117   1.666   0.807  0.1112  3.1962  3.5328
  546SOL     OW 1636   2.671   1.559   3.008  0.3724  0.2845  0.2235
  546SOL    HW1 1637   2.654   1.656   2.983  2.3218 -0.7566  1.7777
  546SOL    HW2 1638   2.581   1.509   3.033  2.1076  1.3507 -2.8265
  547SOL     OW 1639   0.617   3.011   2.576  0.4423  0.1090 -0.5516
  547SOL    HW1 1640   0.689   3.006   2.645 -1.6686  0.1942  1.0459
  547SOL    HW2 1641   0.531   2.961   2.614 -0.2854 -2.1596 -0.8315
  548SOL     OW 1642   2.069   0.843   2.999 -0.5200 -0.0860  0.7695
  548SOL    HW1 1643   1.971   0.807   2.999 -1.6249 -0.8151  0.4054
  548SOL    HW2 1644   2.078   0.931   3.049  1.3707  1.0884  0.7552
  549SOL     OW 1645   0.650   0.599   0.212 -0.1892 -0.0178  0.3712
  549SOL    HW1 1646   0.592   0.643   0.139  2.2572 -1.6490  4.0657
  549SOL    HW2 1647   0.741   0.644   0.209 -1.0792 -0.6798 -1.1870
  550SOL     OW 1648   2.592   2.805   2.901 -0.7907  0.0686 -0.5236
  550SOL    HW1 1649   2.532   2.744   2.958 -0.7676  1.8190  0.9326
  550SOL    HW2 1650   2.648   2.747   2.833  0.7003  1.6927  1.6466
  551SOL     OW 1651   0.260   0.925   0.268 -0.5279  0.1174 -0.1345
  551SOL    HW1 1652   0.359   0.950   0.245  0.9824  2.5906 -2.8455
  551SOL    HW2 1653   0.236   0.893   0.366 -0.0791  2.2641  0.6457
  552SOL     OW 1654   0.660   3.001   1.862  0.4035 -0.4528  0.4160
  552SOL    HW1 1655   0.662   3.070   1.941 -1.0499 -1.6978 -2.1709
  552SOL    HW2 1656   0.751   2.984   1.810  0.6204 -0.1082  0.9498
  553SOL     OW 1657   2.894   2.427   0.357  0.0147 -0.6734 -0.1333
  553SOL    HW1 1658   2.862   2.346   0.414 -0.9812  1.5843 -2.6861
  553SOL    HW2 1659   2.816   2.483   0.306  0.4240  1.4362  0.3625
  554SOL     OW 1660   2.123   0.338   0.488  0.4046  0.7999 -0.8627
  554SOL    HW1 1661   2.206   0.345   0.427 -2.2222 -1.0487 -0.8686
  554SOL    HW2 1662   2.143   0.268   0.563  1.9244  0.1864 -1.2290
  555SOL     OW 1663   0.389   2.800   2.521  0.3354  0.3949  0.0624
  555SOL    HW1 1664   0.321   2.863   2.481  0.8614 -1.7753 -2.2668
  555SOL    HW2 1665   0.451   2.759   2.443 -0.2981  0.0602 -2.6500
  556SOL     OW 1666   0.876   2.373   1.583 -0.0827  0.3318  0.5092
  556SOL    HW1 1667   0.910   2.465   1.612  0.9716  0.5568 -0.8536
  556SOL    HW2 1668   0.926   2.338   1.497  2.0264  0.4517  0.7474
  557SOL     OW 1669   0.137   2.032   0.213 -0.1723  0.6659 -0.4874
  557SOL    HW1 1670   0.064   1.990   0.152  2.4085 -0.1836 -0.9364
  557SOL    HW2 1671   0.180   2.118   0.170  0.3080 -1.7476  0.6467
  558SOL     OW 1672   2.771   2.200   0.441 -0.1669 -0.1262 -0.1391
  558SOL    HW1 1673   2.677   2.229   0.397 -2.8633  1.6251  2.0516
  558SOL    HW2 1674   2.805   2.108   0.401  1.8682 -0.0819  1.4529
  559SOL     OW 1675   0.429   2.315   1.369  0.2891 -0.1086  0.0352
  559SOL    HW1 1676   0.342   2.343   1.312 -0.5661  0.5656 -1.4843
  559SOL    HW2 1677   0.475   2.228   1.336  0.8683 -1.2084 -0.4102
  560SOL     OW 1678   2.107   1.112   3.076 -0.1240 -0.2354 -0.1446
  560SOL    HW1 1679   2.151   1.124   3.168  0.3161  0.8546  0.2901
  560SOL    HW2 1680   2.158   1.135   2.993 -2.9824 -3.7477  0.2704
  561SOL     OW 1681   0.019   1.866   3.085  0.1761  0.5580 -0.2227
  561SOL    HW1 1682  -0.013   1.808   3.167  0.0093 -0.6639  0.9421
  561SOL    HW2 1683  -0.046   1.951   3.084 -1.2878  1.5542  0.2474
  562SOL     OW 1684   1.049   2.173   2.341  0.4600 -0.1656  0.3738
  562SOL    HW1 1685   1.016   2.256   2.384  0.7115 -1.8639 -0.7876
  562SOL    HW2 1686   0.996   2.093   2.384  2.4708  4.5513  1.0228
  563SOL     OW 1687   0.700   2.524   2.620  0.0616 -0.0466  0.0087
  563SOL    HW1 1688   0.788   2.469   2.598 -0.1388 -0.4032 -0.2806
  563SOL    HW2 1689   0.710   2.579   2.709 -2.1312  1.9570 -0.1791
  564SOL     OW 1690   2.887   1.422   2.934  0.6397  0.4957  0.0362
  564SOL    HW1 1691   2.797   1.472   2.962  0.8338  1.5214 -0.6185
  564SOL    HW2 1692   2.958   1.491   2.923 -0.5869 -0.6930 -0.3406
  565SOL     OW 1693   2.488   1.956   2.654  0.1521 -0.1588 -0.2315
  565SOL    HW1 1694   2.478   2.043   2.601  1.7234 -1.8084  2.2037
  565SOL    HW2 1695   2.577   1.949   2.707 -0.9068 -0.5099 -1.5005
  566SOL     OW 1696   2.000   2.880   1.468 -0.1881  0.1857 -0.0219
  566SOL    HW1 1697   1.950   2.793   1.498  0.7240  2.5176  1.5474
  566SOL    HW2 1698   1.993   2.904   1.366  2.7277  0.2080 -0.7310
  567SOL     OW 1699   2.447  -0.001   2.321  0.0552  0.2176 -0.0152
  567SOL    HW1 1700   2.352   0.030   2.353 -0.9139 -0.1301 -2.8535
  567SOL    HW2 1701   2.456   0.006   2.220 -0.0697  1.1002  0.3751
  568SOL     OW 1702   1.536   1.799   0.285  0.4826 -0.2640  0.4741
  568SOL    HW1 1703   1.482   1.871   0.234 -0.5228  0.1641  1.2564
  568SOL    HW2 1704   1.638   1.797   0.261  0.9716  0.4411  1.3192
  569SOL     OW 1705   0.232   0.625   0.805  0.5159  0.4551  0.5289
  569SOL    HW1 1706   0.308   0.561   0.772 -1.2736 -0.7703  2.5161
  569SOL    HW2 1707   0.140   0.578   0.833 -2.3051 -1.9478  1.3332
  570SOL     OW 1708   0.644   0.872   2.866 -0.4717 -0.0386 -0.5157
  570SOL    HW1 1709   0.724   0.885   2.805 -0.4902 -0.2725  2.6429
  570SOL    HW2 1710   0.640   0.947   2.942  0.0374 -2.7028  2.2474
  571SOL     OW 1711   0.826   0.020   1.125  0.5515 -0.4917 -0.1706
  571SOL    HW1 1712   0.869   0.039   1.036  0.2103 -2.2785 -0.0730
  571SOL    HW2 1713   0.834  -0.079   1.139 -1.4503  0.6513 -0.0543
  572SOL     OW 1714   1.603   2.666   1.378  0.1008  0.4367  0.0767
  572SOL    HW1 1715   1.555   2.612   1.299  0.1134 -1.9972 -2.9398
  572SOL    HW2 1716   1.655   2.746   1.341 -1.1407  2.1269  0.7825
  573SOL     OW 1717   3.022   0.486   2.034  0.9313 -0.4074 -0.0943
  573SOL    HW1 1718   2.966   0.399   2.059  1.1284  0.8785  0.0418
  573SOL    HW2 1719   3.068   0.477   1.943 -0.5277 -0.1902  1.8618
  574SOL     OW 1720   0.172   1.762   1.134  0.1419 -0.0542  0.0489
  574SOL    HW1 1721   0.236   1.811   1.196 -0.9385 -0.5778  0.9508
  574SOL    HW2 1722   0.073   1.785   1.147  0.4480 -1.1627 -0.4380
  575SOL     OW 1723   0.853   2.184   0.953  0.3892  0.3182 -0.0148
  575SOL    HW1 1724   0.812   2.230   1.032  1.2410  0.4484 -0.1884
  575SOL    HW2 1725   0.875   2.255   0.877  0.8737 -0.3527  2.0741
  576SOL     OW 1726   2.897   3.007   1.687  0.2182  0.7131  0.1021
  576SOL    HW1 1727   2.799   3.011   1.719 -0.1512  1.5936 -1.0836
  576SOL    HW2 1728   2.920   3.096   1.649 -1.4192 -1.2429  1.0230
  577SOL     OW 1729   2.660   1.230   0.016  0.3376  0.0732  0.1248
  577SOL    HW1 1730   2.714   1.158  -0.035  0.6992  0.5282  2.5965
  577SOL    HW2 1731   2.689   1.217   0.115  2.0135  0.9199 -0.1303
  578SOL     OW 1732   1.410   2.800   2.500  0.0154 -0.5127  0.5748
  578SOL    HW1 1733   1.322   2.848   2.476  1.8919 -0.8977  0.1391
  578SOL    HW2 1734   1.495   2.855   2.470  1.4026  0.1874  2.8458
  579SOL     OW 1735   0.008   2.464   0.193  0.6129 -0.4882  0.5515
  579SOL    HW1 1736  -0.069   2.419   0.247  0.9064  1.5442  0.5148
  579SOL    HW2 1737   0.088   2.484   0.254 -0.1943  2.3894  1.0164
  580SOL     OW 1738   0.984   2.666   0.390 -0.3259 -0.2951  0.5469
  580SOL    HW1 1739   1.075   2.647   0.342  0.4548  1.1244  0.9487
  580SOL    HW2 1740   0.895   2.633   0.337 -3.2295  1.2533 -2.5921
  581SOL     OW 1741   1.277   2.669   1.451  0.9364  0.5719  0.3740
  581SOL    HW1 1742   1.360   2.607   1.471 -0.5234 -1.5745  1.6470
  581SOL    HW2 1743   1.307   2.756   1.408 -0.8207 -0.2046 -2.3838
  582SOL     OW 1744   1.491   0.104   1.911 -0.1285  0.0406  0.2985
  582SOL    HW1 1745   1.511   0.177   1.981 -2.9806 -2.5937  1.2814
  582SOL    HW2 1746   1.557   0.111   1.833 -1.3545  0.5035 -0.7729
  583SOL     OW 1747   2.426   3.078   0.531 -0.0903  0.4943 -0.1562
  583SOL    HW1 1748   2.516   3.036   0.504  1.4920  2.1005  2.1102
  583SOL    HW2 1749   2.346   3.010   0.539  1.0088  0.8027  2.0805
  584SOL     OW 1750   1.575   1.131   2.289 -1.0056 -0.3178  0.4952
  584SOL    HW1 1751   1.618   1.213   2.237 -0.0423  2.1063  0.4220
  584SOL    HW2 1752   1.623   1.040   2.304  2.4440  2.4663  2.9247
  585SOL     OW 1753   2.084   2.679   2.895 -0.4257 -0.0573  0.1684
  585SOL    HW1 1754   2.100   2.580   2.879 -0.1536  2.1723 -0.3893
  585SOL    HW2 1755   1.980   2.698   2.896 -2.5486  1.4983  0.8347
  586SOL     OW 1756   2.898   0.396   1.532  0.0299 -0.2115 -0.4005
  586SOL    HW1 1757   2.845   0.475   1.574 -2.3499  1.6389 -0.2278
  586SOL    HW2 1758   2.845   0.347   1.459 -1.7949  2.5978  2.8578
  587SOL     OW 1759   2.082   1.459   2.665  0.1774 -0.3148  0.6252
  587SOL    HW1 1760   2.140   1.393   2.607  2.0602  0.7056 -1.1225
  587SOL    HW2 1761   2.128   1.483   2.758  1.0851 -0.9589  1.5077
  588SOL     OW 1762   0.532   2.692   2.309  0.2606 -0.9253  0.9776
  588SOL    HW1 1763   0.489   2.705   2.212 -0.6231 -0.1349 -0.3747
  588SOL    HW2 1764   0.508   2.599   2.347  0.6463  2.8997 -0.3600
  589SOL     OW 1765   2.193   1.288   2.494 -0.4945 -0.0530 -0.0137
  589SOL    HW1 1766   2.149   1.219   2.436  0.9776  0.5758  2.0299
  589SOL    HW2 1767   2.296   1.282   2.501  1.4874  0.9988  0.1912
  590SOL     OW 1768   2.363   1.776   2.070  0.4183 -0.0823 -0.1440
  590SOL    HW1 1769   2.413   1.682   2.054  1.6049 -3.7835 -0.2956
  590SOL    HW2 1770   2.332   1.807   2.166 -0.9727 -0.2743  1.1254
  591SOL     OW 1771   1.228   2.406   0.223  0.0022 -0.6441 -0.0840
  591SOL    HW1 1772   1.227   2.319   0.172  0.5681  0.2037  2.0574
  591SOL    HW2 1773   1.219   2.389   0.331 -0.2266 -1.4656  1.4894
  592SOL     OW 1774   1.783   2.328   0.791 -0.2661  0.0236  0.2035
  592SOL    HW1 1775   1.768   2.371   0.692  0.7152  1.1377 -0.6996
  592SOL    HW2 1776   1.881   2.315   0.815 -2.5426 -0.1600  0.6966
  593SOL     OW 1777   0.729   0.275   0.217  0.1762  0.6145 -0.1477
  593SOL    HW1 1778   0.781   0.262   0.126  1.0749  1.6127 -0.0967
  593SOL    HW2 1779   0.676   0.362   0.232  1.0784 -0.1837 -0.2804
  594SOL     OW 1780   1.053   1.834   2.709 -0.4068 -0.0308 -0.3392
  594SOL    HW1 1781   1.144   1.817   2.664  1.4291  2.4392  2.5119
  594SOL    HW2 1782   1.065   1.856   2.805  1.1053  1.2293  0.0959
  595SOL     OW 1783   1.554   0.058   0.991 -0.6794 -0.8025  0.0642
  595SOL    HW1 1784   1.615  -0.021   0.963 -2.4714  0.9780  0.4243
  595SOL    HW2 1785   1.462   0.050   0.945 -0.0480  2.2063  0.7993
  596SOL     OW 1786   0.056   1.518   2.290  0.2450 -0.9387 -0.3178
  596SOL    HW1 1787   0.111   1.440   2.315  0.2700  0.9242  0.8326
  596SOL    HW2 1788   0.017   1.570   2.370  2.0102  0.1849  0.6528
  597SOL     OW 1789   1.972   2.670   1.821  1.2939 -0.2908  0.8749
  597SOL    HW1 1790   1.931   2.667   1.723  0.5652 -0.7386  1.6959
  597SOL    HW2 1791   2.060   2.608   1.834  0.9758  0.5666  0.6983
  598SOL     OW 1792   2.540   2.888   1.222 -0.2519 -0.0407 -0.1063
  598SOL    HW1 1793   2.624   2.927   1.262  1.6980 -0.5501 -0.0963
  598SOL    HW2 1794   2.543   2.886   1.120 -0.8473 -0.0056  0.7813
  599SOL     OW 1795   2.831   0.269   2.495 -0.6083 -0.7696  0.4473
  599SOL    HW1 1796   2.919   0.311   2.452 -0.8944 -0.8401 -0.0210
  599SOL    HW2 1797   2.739   0.312   2.460  0.5985  1.0942 -0.7245
  600SOL     OW 1798   2.820   1.202   2.763 -0.2801  0.0588  0.2075
  600SOL    HW1 1799   2.717   1.186   2.768  0.8607  0.3078  0.6140
  600SOL    HW2 1800   2.843   1.292   2.812 -0.6766  4.4087 -3.4886
  601SOL     OW 1801   3.073   1.354   2.006 -0.1164  0.2041 -0.0397
  601SOL    HW1 1802   2.968   1.377   1.998 -0.9996 -0.4569  0.1842
  601SOL    HW2 1803   3.136   1.432   2.009  0.0381 -2.2046 -0.9856
  602SOL     OW 1804   1.477   1.595   2.295  0.4020 -0.4691 -0.7801
  602SOL    HW1 1805   1.393   1.570   2.346 -0.3304  0.1364 -1.1435
  602SOL    HW2 1806   1.553   1.618   2.362  0.7726  0.8208  0.6096
  603SOL     OW 1807   0.671   1.129   2.724  0.2881 -0.5664 -0.3591
  603SOL    HW1 1808   0.575   1.148   2.690 -0.2753  0.2171  4.2966
  603SOL    HW2 1809   0.699   1.034   2.699  1.0826  1.5832 -0.8903
  604SOL     OW 1810   2.461   0.981   0.155  0.1600 -0.4724  0.4081
  604SOL    HW1 1811   2.492   1.062   0.102 -0.3822 -0.5828  0.8203
  604SOL    HW2 1812   2.490   0.891   0.107  0.2443  0.3124 -1.3660
  605SOL     OW 1813   2.506   1.166   1.967  0.1188 -0.5258 -0.2746
  605SOL    HW1 1814   2.564   1.135   1.889 -1.1762 -2.1779 -0.4666
  605SOL    HW2 1815   2.555   1.238   2.023  1.7259  0.5443 -2.2110
  606SOL     OW 1816   1.486   2.554   2.553  0.0651 -0.0422 -0.5478
  606SOL    HW1 1817   1.442   2.640   2.519 -0.5704 -0.0949  0.8745
  606SOL    HW2 1818   1.434   2.469   2.520 -1.2366  1.3350  1.9952
  607SOL     OW 1819   1.337   1.606   0.284 -1.0112 -0.2187 -0.5945
  607SOL    HW1 1820   1.242   1.657   0.307 -1.6078  1.2060 -1.0520
  607SOL    HW2 1821   1.419   1.666   0.309 -1.8309 -0.2859  0.1848
  608SOL     OW 1822   1.432   2.855   0.392 -0.1271  0.0054  0.0628
  608SOL    HW1 1823   1.470   2.882   0.298 -1.3084 -0.5632  1.0275
  608SOL    HW2 1824   1.356   2.916   0.432 -1.5161 -1.6136  0.5490
  609SOL     OW 1825   1.338   1.357   0.184  0.6710  0.2270 -0.5410
  609SOL    HW1 1826   1.312   1.455   0.218 -0.3393  3.2893  3.2936
  609SOL    HW2 1827   1.292   1.328   0.091 -1.2228  1.1345  0.4509
  610SOL     OW 1828   3.004   1.190   2.277  0.0531  0.0587 -0.0112
  610SOL    HW1 1829   2.999   1.090   2.241 -0.7779  0.6565  0.2560
  610SOL    HW2 1830   3.018   1.262   2.201  1.2414  1.1503 -0.7426
  611SOL     OW 1831   2.497   0.264   1.181  0.0764 -0.0821  0.4779
  611SOL    HW1 1832   2.465   0.167   1.181 -1.5672  0.5206 -0.5389
  611SOL    HW2 1833   2.593   0.270   1.220  0.7985 -1.7527  2.0743
  612SOL     OW 1834   0.752   2.291   1.172  0.2125 -0.2227 -0.3065
  612SOL    HW1 1835   0.678   2.228   1.212  2.9216 -0.1928 -0.1651
  612SOL    HW2 1836   0.715   2.387   1.165 -0.6561  2.2580 -0.7386
  613SOL     OW 1837   0.852   1.391   2.378 -0.2086 -0.0945  0.2468
  613SOL    HW1 1838   0.837   1.465   2.302  0.0167  1.0772 -0.3819
  613SOL    HW2 1839   0.818   1.296   2.342 -2.4140 -2.1411  2.2997
  614SOL     OW 1840   1.554   1.667   1.817  0.1107  1.0308 -0.3465
  614SOL    HW1 1841   1.499   1.755   1.809 -0.2515  0.2592 -1.8129
  614SOL    HW2 1842   1.641   1.686   1.869  1.6395 -2.0817 -0.1639
  615SOL     OW 1843   0.758   1.387   1.729 -0.0598  0.1317  0.3685
  615SOL    HW1 1844   0.699   1.340   1.657  1.5246 -4.2862 -2.6343
  615SOL    HW2 1845   0.818   1.466   1.694 -0.3339 -1.7437  1.5840
  616SOL     OW 1846   1.112   1.543   2.147  0.5059 -0.5828 -0.5069
  616SOL    HW1 1847   1.009   1.561   2.139  0.3683  1.6651  0.6384
  616SOL    HW2 1848   1.169   1.583   2.071  0.8565  1.1390  0.2278
  617SOL     OW 1849   3.000   1.510   1.631  0.3246  0.4097  0.8187
  617SOL    HW1 1850   2.970   1.429   1.687  1.1574 -0.0501 -0.2359
  617SOL    HW2 1851   3.015   1.495   1.527 -2.6495  0.4608 -0.8438
  618SOL     OW 1852   1.932   1.939   1.432  0.1639 -0.1464  0.0586
  618SOL    HW1 1853   2.027   1.924   1.397 -0.9449  2.3833  0.9603
  618SOL    HW2 1854   1.914   1.893   1.521 -0.3603  1.0060 -2.5381
  619SOL     OW 1855   1.689   0.448   2.364  0.5776 -0.0139 -0.0013
  619SOL    HW1 1856   1.627   0.512   2.305 -3.8611  1.5451 -1.9968
  619SOL    HW2 1857   1.630   0.372   2.402  0.0305 -0.1980 -1.2679
  620SOL     OW 1858   2.203   2.940   0.572  0.3874  0.1222  0.0502
  620SOL    HW1 1859   2.134   3.013   0.567  0.0967  0.3354 -0.6121
  620SOL    HW2 1860   2.221   2.910   0.670  0.6672  0.7494 -1.2767
  621SOL     OW 1861   2.229   1.891   1.349 -0.0919  0.1724  0.6696
  621SOL    HW1 1862   2.225   1.897   1.453  0.8829  2.5355  0.6218
  621SOL    HW2 1863   2.218   1.792   1.313  2.3328 -3.5108  0.7477
  622SOL     OW 1864   2.198   0.889   1.768  0.5254  0.8937  0.2156
  622SOL    HW1 1865   2.279   0.825   1.744  2.0453  0.5790  0.0956
  622SOL    HW2 1866   2.132   0.858   1.841  1.6428  1.6487  2.2740
  623SOL     OW 1867   1.341   0.782   2.584 -0.2250  0.2359 -0.4545
  623SOL    HW1 1868   1.280   0.742   2.653  1.7027 -0.0526 -3.0199
  623SOL    HW2 1869   1.288   0.786   2.496  0.1318  2.7797  1.2185
  624SOL     OW 1870   0.507   0.725   3.088  0.2372 -0.0479  0.4774
  624SOL    HW1 1871   0.580   0.757   3.010  3.0718  1.4072  0.2809
  624SOL    HW2 1872   0.501   0.788   3.173 -1.6568 -1.0451 -0.1887
  625SOL     OW 1873   2.769   1.705   0.890 -0.3707 -0.6466  0.0153
  625SOL    HW1 1874   2.697   1.751   0.951 -0.6178 -0.7367 -1.4480
  625SOL    HW2 1875   2.783   1.605   0.909 -1.3235  0.6393 -0.2839
  626SOL     OW 1876   0.514   2.750   1.888 -0.3548  0.2299  0.7137
  626SOL    HW1 1877   0.570   2.836   1.906  0.6213 -0.4516  3.0076
  626SOL    HW2 1878   0.411   2.765   1.894 -1.7517  3.2740  0.4512
  627SOL     OW 1879   0.728   1.029   1.523  0.9172 -0.2705 -0.1993
  627SOL    HW1 1880   0.794   0.951   1.502 -1.7330  1.2255 -1.4395
  627SOL    HW2 1881   0.727   1.108   1.459  0.3657  0.1530 -0.6646
  628SOL     OW 1882   2.428   0.203   0.708  0.2413 -0.3898  0.2903
  628SOL    HW1 1883   2.455   0.122   0.642  1.1374 -3.3660 -0.8953
  628SOL    HW2 1884   2.325   0.214   0.697  1.9431 -0.5090 -1.1504
  629SOL     OW 1885   1.971   0.929   1.974  0.1147  0.3441  0.4019
  629SOL    HW1 1886   2.053   0.922   2.035 -1.7997  2.7651  0.1405
  629SOL    HW2 1887   1.932   1.025   1.952  0.6902  0.8807 -2.8751
  630SOL     OW 1888   2.731   2.175   0.771  0.0381  0.3595 -0.4005
  630SOL    HW1 1889   2.646   2.230   0.807 -3.8997  0.4613  4.0986
  630SOL    HW2 1890   2.709   2.076   0.760 -1.9133 -0.4089  1.8311
  631SOL     OW 1891   3.002   0.217   2.101  0.0426  0.4141 -0.2062
  631SOL    HW1 1892   3.063   0.268   2.169  0.4467 -0.7436 -0.2761
  631SOL    HW2 1893   3.050   0.209   2.011 -0.1893 -0.3579  2.6507
  632SOL     OW 1894   2.340   2.495   0.661 -0.8953  0.0759  0.4478
  632SOL    HW1 1895   2.428   2.541   0.684 -3.1304 -0.1506  0.0407
  632SOL    HW2 1896   2.281   2.536   0.583  0.5414  0.8471 -1.9094
  633SOL     OW 1897   1.598   1.270   2.580  0.1876  0.0683  0.2717
  633SOL    HW1 1898   1.599   1.351   2.646 -2.3650 -0.9908  0.2397
  633SOL    HW2 1899   1.515   1.269   2.517  2.2372 -0.5752 -0.4015
  634SOL     OW 1900   0.630   2.023   0.993 -0.1627  0.4349  0.4670
  634SOL    HW1 1901   0.576   2.100   1.036  2.2520 -0.4524  0.6592
  634SOL    HW2 1902   0.724   2.052   0.947  1.0702 -1.5386 -0.5327
  635SOL     OW 1903   0.053   2.308   3.052 -0.2124 -0.0360 -0.1555
  635SOL    HW1 1904   0.009   2.318   2.961  1.3654  1.3886  0.4910
  635SOL    HW2 1905   0.032   2.378   3.127  0.9640 -1.6596  1.6485
  636SOL     OW 1906   2.291   2.800   1.994 -0.4428 -0.0932  0.1235
  636SOL    HW1 1907   2.293   2.900   1.991  2.3257 -0.1756  0.6565
  636SOL    HW2 1908   2.258   2.768   2.084  1.2513  2.7257 -2.9081
  637SOL     OW 1909   2.538   0.700   2.041  0.1508  0.1416  0.4721
  637SOL    HW1 1910   2.523   0.685   1.939  1.8067  0.6805 -0.4066
  637SOL    HW2 1911   2.605   0.780   2.055 -1.0428  1.5513 -0.2508
  638SOL     OW 1912   2.508   1.870   1.322  0.6635 -0.0158  0.0249
  638SOL    HW1 1913   2.408   1.874   1.312 -1.4962  0.1988 -0.2732
  638SOL    HW2 1914   2.549   1.779   1.360  1.2337 -1.8541  0.7053
  639SOL     OW 1915   1.308   2.219   1.611  0.5677  0.6630  0.4333
  639SOL    HW1 1916   1.317   2.157   1.525  0.5471 -1.5172 -1.2583
  639SOL    HW2 1917   1.215   2.199   1.661 -0.1504  0.0967  1.3062
  640SOL     OW 1918   0.171   1.203   1.571 -0.0489 -0.2073 -0.2647
  640SOL    HW1 1919   0.140   1.262   1.648 -0.0776  1.9745 -1.8611
  640SOL    HW2 1920   0.238   1.126   1.592 -0.0474  1.2755  0.0378
  641SOL     OW 1921   1.986   0.146   1.481  0.0870  0.7718  0.0342
  641SOL    HW1 1922   1.899   0.186   1.524 -0.0748  0.3437 -2.9483
  641SOL    HW2 1923   2.031   0.070   1.541  1.7201  0.3485  3.3670
  642SOL     OW 1924   1.970   0.117   0.314  0.3876 -0.5435 -0.3935
  642SOL    HW1 1925   2.074   0.119   0.305  2.3310 -1.1161 -1.2257
  642SOL    HW2 1926   1.939   0.097   0.415 -0.4378 -2.4489  1.4476
  643SOL     OW 1927   2.872   1.868   2.077  0.1017 -0.1486  0.5375
  643SOL    HW1 1928   2.798   1.801   2.049 -0.5063 -1.6864 -1.7353
  643SOL    HW2 1929   2.864   1.950   2.015  0.1154  0.5789  0.0457
  644SOL     OW 1930   2.184   2.305   1.197  0.1499 -0.2091  0.2078
  644SOL    HW1 1931   2.274   2.258   1.160  0.3358 -0.8369 -0.4510
  644SOL    HW2 1932   2.171   2.308   1.302  0.5648 -3.1302  2.0926
  645SOL     OW 1933   0.588   0.790   1.163  0.0932  0.3901 -0.0353
  645SOL    HW1 1934   0.522   0.723   1.114 -0.9344  0.0396  0.8926
  645SOL    HW2 1935   0.628   0.847   1.088 -0.0141  2.7240  0.4907
  646SOL     OW 1936   1.516   1.943   1.814  0.0046  0.1073  0.1003
  646SOL    HW1 1937   1.598   2.003   1.790  0.4440  1.4971  0.7240
  646SOL    HW2 1938   1.460   1.983   1.896 -1.6383  0.5504  0.3457
  647SOL     OW 1939   0.872   0.946   0.669 -0.4813 -0.4242 -0.4357
  647SOL    HW1 1940   0.967   0.941   0.715 -1.4325 -2.5389  1.1070
  647SOL    HW2 1941   0.806   0.877   0.712 -0.7382 -1.8353  1.9037
  648SOL     OW 1942   0.182   0.172   0.309  0.7303 -0.0706  0.2487
  648SOL    HW1 1943   0.201   0.102   0.235 -2.8736  0.2007  4.9567
  648SOL    HW2 1944   0.149   0.266   0.270  0.2163  0.1873  1.6897
  649SOL     OW 1945  -0.004   0.130   0.931  0.1730 -0.5005 -0.0762
  649SOL    HW1 1946   0.097   0.120   0.907 -0.8904 -4.5840 -0.5162
  649SOL    HW2 1947  -0.015   0.171   1.027 -1.5049  0.9685  0.5774
  650SOL     OW 1948   2.713   0.716   1.395  0.1596  0.3460  0.2806
  650SOL    HW1 1949   2.623   0.714   1.450  0.9538 -2.5971  1.0634
  650SOL    HW2 1950   2.721   0.778   1.316 -0.8038 -2.2928  1.3135
  651SOL     OW 1951   0.902   1.598   1.625  0.5279  0.4162 -0.3896
  651SOL    HW1 1952   0.998   1.642   1.621  2.4102 -1.3020  0.1161
  651SOL    HW2 1953   0.855   1.605   1.533 -3.3809 -1.5543  0.7328
  652SOL     OW 1954   2.227   2.498   2.400  0.6465  0.3099 -0.8446
  652SOL    HW1 1955   2.160   2.482   2.476 -2.9002  1.1601  1.2287
  652SOL    HW2 1956   2.202   2.581   2.340  1.5255 -0.7946 -0.2445
  653SOL     OW 1957   2.702   1.184   0.290 -0.2909  0.5641  0.1288
  653SOL    HW1 1958   2.753   1.279   0.300 -1.2405 -1.0336  1.1151
  653SOL    HW2 1959   2.756   1.101   0.318 -1.5778  0.5581 -0.7045
  654SOL     OW 1960   1.284   2.292   1.231  0.1373 -0.1394 -0.0469
  654SOL    HW1 1961   1.276   2.206   1.288  0.9243  3.4058  0.5089
  654SOL    HW2 1962   1.320   2.277   1.132  1.5921 -0.0697  0.1178
  655SOL     OW 1963   0.210   1.020   1.847  0.1349  0.1632  0.0664
  655SOL    HW1 1964   0.257   0.927   1.833 -0.9545  1.9865  0.3859
  655SOL    HW2 1965   0.264   1.105   1.835 -1.8474 -0.3154  0.5991
  656SOL     OW 1966   2.518   2.490   2.592  0.0914  0.3026 -0.5143
  656SOL    HW1 1967   2.599   2.493   2.531  2.3734  1.5013 -1.1168
  656SOL    HW2 1968   2.430   2.507   2.537 -0.3954 -2.5489 -0.3628
  657SOL     OW 1969   3.036   1.091   1.876  0.1341  0.0214 -0.4890
  657SOL    HW1 1970   3.023   1.188   1.904 -2.6121 -0.8786 -0.9576
  657SOL    HW2 1971   3.136   1.066   1.866  0.8317  0.4562 -0.1261
  658SOL     OW 1972   1.637   0.174   2.383 -0.1872  0.1250 -0.0402
  658SOL    HW1 1973   1.695   0.113   2.442  0.0068  1.8859 -0.8668
  658SOL    HW2 1974   1.686   0.216   2.308  1.9419 -0.9635  1.5003
  659SOL     OW 1975   1.392   0.586   2.896  0.3484 -0.5391 -0.0720
  659SOL    HW1 1976   1.464   0.654   2.925  3.3578 -3.4480  2.8680
  659SOL    HW2 1977   1.318   0.631   2.837  1.1674  1.2252 -0.9208
  660SOL     OW 1978   1.452   0.359   1.409 -0.4543  0.5563 -0.0478
  660SOL    HW1 1979   1.482   0.366   1.510 -3.0137  1.8625 -0.2450
  660SOL    HW2 1980   1.517   0.306   1.347  0.1717 -4.1125 -1.1533
  661SOL     OW 1981   2.490   1.180   0.673 -0.3477 -0.1447  0.0299
  661SOL    HW1 1982   2.521   1.161   0.577  1.1827  0.3360  0.6767
  661SOL    HW2 1983   2.445   1.269   0.681  0.4685 -0.3805 -0.4105
  662SOL     OW 1984   1.316   0.422   1.841  0.1209  0.0052 -0.0152
  662SOL    HW1 1985   1.286   0.326   1.827  0.1988  0.4304  1.7285
  662SOL    HW2 1986   1.281   0.459   1.928 -0.3478 -0.8235 -0.3477
  663SOL     OW 1987   0.848   1.600   2.190 -0.2495 -0.0880 -0.2968
  663SOL    HW1 1988   0.829   1.701   2.211  1.1078 -0.9545 -0.4597
  663SOL    HW2 1989   0.784   1.570   2.118  0.7564  2.5707 -1.1484
  664SOL     OW 1990   1.670   2.025   1.370  0.1724  0.0068  0.0789
  664SOL    HW1 1991   1.594   1.991   1.435  0.1314 -2.0270 -1.1547
  664SOL    HW2 1992   1.759   1.979   1.392  1.3352  3.0428  0.7777
  665SOL     OW 1993   2.210   0.662   1.957  0.6105 -0.7697 -0.1688
  665SOL    HW1 1994   2.173   0.570   1.991 -0.9671 -0.8484 -0.1046
  665SOL    HW2 1995   2.266   0.709   2.033 -0.1606  0.2568 -0.5403
  666SOL     OW 1996   0.504   2.298   0.476  0.4176 -0.1961  0.0325
  666SOL    HW1 1997   0.558   2.386   0.483  0.0197  0.9644 -2.6582
  666SOL    HW2 1998   0.465   2.269   0.573 -1.4285 -1.0025  0.3503
  667SOL     OW 1999   2.005   0.236   1.017  0.9257  1.0269 -0.1412
  667SOL    HW1 2000   2.043   0.312   1.069 -0.0179  0.2669 -0.2121
  667SOL    HW2 2001   1.943   0.180   1.082  0.9087  1.1047 -2.7152
  668SOL     OW 2002   1.995   0.545   1.177  0.2177 -0.6631  0.3491
  668SOL    HW1 2003   2.075   0.553   1.112  1.0192  2.0738 -0.9447
  668SOL    HW2 2004   2.018   0.506   1.273 -0.7943  0.6461 -0.2528
  669SOL     OW 2005   3.001   2.115   0.904  0.2636 -0.8880  0.1717
  669SOL    HW1 2006   2.908   2.127   0.855 -2.4779  1.5558 -0.5177
  669SOL    HW2 2007   3.011   2.185   0.982 -3.9518  1.1143  1.4489
  670SOL     OW 2008   2.832   2.361   2.018 -0.4123 -0.6745 -0.0647
  670SOL    HW1 2009   2.754   2.335   2.085 -0.6420 -1.9285  0.8874
  670SOL    HW2 2010   2.827   2.459   1.995 -1.5109 -1.1821  4.6245
  671SOL     OW 2011   1.746   1.686   1.456 -0.0335 -0.7912  0.0318
  671SOL    HW1 2012   1.735   1.714   1.359 -1.3413 -3.4904 -0.8657
  671SOL    HW2 2013   1.667   1.619   1.474 -0.9738 -0.9953 -0.7030
  672SOL     OW 2014   0.439   0.623   2.444 -0.2799  0.0326 -0.4180
  672SOL    HW1 2015   0.464   0.658   2.347 -0.4332  0.7143  2.3415
  672SOL    HW2 2016   0.360   0.672   2.481  0.3717 -0.3347 -2.9675
  673SOL     OW 2017   0.162   1.205   1.165  0.4001  0.3308 -0.0138
  673SOL    HW1 2018   0.188   1.281   1.226  0.2319 -0.9369 -0.8998
  673SOL    HW2 2019   0.241   1.140   1.153  0.7377 -0.3646  1.1242
  674SOL     OW 2020   1.530   2.890   0.151 -0.2037 -0.2640 -0.1445
  674SOL    HW1 2021   1.593   2.972   0.124 -1.4166  1.5715 -0.5017
  674SOL    HW2 2022   1.576   2.805   0.121  1.0829 -1.4427 -0.0053
  675SOL     OW 2023   1.681   0.838   2.336  0.4847 -0.1865  0.2121
  675SOL    HW1 2024   1.769   0.799   2.293 -0.9663 -0.4929  1.2199
  675SOL    HW2 2025   1.597   0.790   2.288  2.8094 -3.6335  1.5449
  676SOL     OW 2026   2.503   1.536   1.990  0.3275 -0.0289  0.1867
  676SOL    HW1 2027   2.449   1.485   1.912 -3.7397  0.4941 -2.7944
  676SOL    HW2 2028   2.544   1.468   2.059  0.0964  0.3434 -0.6083
  677SOL     OW 2029   1.804   0.598   0.966 -0.4887 -0.3747 -0.4518
  677SOL    HW1 2030   1.884   0.593   1.036  0.3558  0.6692 -0.1045
  677SOL    HW2 2031   1.717   0.547   0.994 -2.6632  1.1946  0.6972
  678SOL     OW 2032   0.060   0.738   1.656  0.2313 -0.2024 -0.3129
  678SOL    HW1 2033   0.154   0.750   1.706  2.1599  0.2966 -0.8829
  678SOL    HW2 2034  -0.019   0.757   1.723 -0.9964 -1.1609  0.3303
  679SOL     OW 2035   2.506   1.181   1.062  0.3898  0.2884 -0.4097
  679SOL    HW1 2036   2.432   1.220   1.126 -2.3542  1.3926 -0.8271
  679SOL    HW2 2037   2.485   1.083   1.037 -1.5817 -0.2583 -2.8127
  680SOL     OW 2038   2.837   0.642   1.660  0.3768 -0.3986  0.4019
  680SOL    HW1 2039   2.789   0.693   1.583  0.8733  0.0117  1.6883
  680SOL    HW2 2040   2.870   0.711   1.734 -0.1419  0.0236 -0.3227
  681SOL     OW 2041   3.008   0.158   1.605  0.4387  0.1784 -0.0438
  681SOL    HW1 2042   3.092   0.144   1.547  1.2169  0.2627  0.8626
  681SOL    HW2 2043   2.962   0.252   1.584  0.6325  2.0708 -0.4821
  682SOL     OW 2044   0.781   0.037   1.404 -0.2477  0.1443  0.0240
  682SOL    HW1 2045   0.713  -0.039   1.426 -0.7719  1.5296  2.6260
  682SOL    HW2 2046   0.813   0.041   1.302 -1.0972 -0.0432  0.1987
  683SOL     OW 2047   1.388   0.252   2.176 -0.0932 -0.3628 -0.0423
  683SOL    HW1 2048   1.354   0.297   2.265 -1.2855 -0.6654 -1.0670
  683SOL    HW2 2049   1.468   0.295   2.126  1.8610  0.3723  0.7412
  684SOL     OW 2050   1.442   2.123   0.497 -0.1783  0.2475 -0.2313
  684SOL    HW1 2051   1.501   2.051   0.540 -0.7006  1.2780  0.4027
  684SOL    HW2 2052   1.366   2.086   0.438 -0.6417  1.4542  0.3795
  685SOL     OW 2053   2.192   1.944   1.919 -0.1824 -1.1594 -0.1492
  685SOL    HW1 2054   2.213   2.041   1.891  1.3316 -2.0261 -0.2697
  685SOL    HW2 2055   2.259   1.894   1.984 -3.5957  0.9826 -0.2234
  686SOL     OW 2056   1.549   1.744   2.692  0.4098  0.2257  0.3812
  686SOL    HW1 2057   1.524   1.643   2.687  2.0142  1.5533  1.0582
  686SOL    HW2 2058   1.647   1.747   2.721  0.6884 -2.5939  0.7134
  687SOL     OW 2059   1.335   2.530   1.895  0.6910 -0.0915 -0.0352
  687SOL    HW1 2060   1.391   2.458   1.849 -0.7612  0.1630  1.2377
  687SOL    HW2 2061   1.317   2.494   1.993 -1.6367  0.3597 -0.2365
  688SOL     OW 2062   2.077   1.425   1.621  0.2469 -1.0062 -0.1337
  688SOL    HW1 2063   2.167   1.460   1.583  0.8823 -3.6234  0.4926
  688SOL    HW2 2064   2.034   1.357   1.553 -2.3152 -1.7012  0.3919
  689SOL     OW 2065   2.476   1.109   2.761 -0.4026  0.0146  0.0778
  689SOL    HW1 2066   2.375   1.086   2.759  3.5232 -0.9876  0.8432
  689SOL    HW2 2067   2.516   1.067   2.848  0.6460 -0.1995 -0.1794
  690SOL     OW 2068   2.207   2.811   0.001  0.2073  0.5064 -0.8343
  690SOL    HW1 2069   2.159   2.772  -0.083  4.7620 -1.2367 -3.5544
  690SOL    HW2 2070   2.146   2.842   0.075  1.4616  2.3200 -2.8925
  691SOL     OW 2071   2.595   0.449   2.129 -0.8084  0.8268  0.3859
  691SOL    HW1 2072   2.673   0.403   2.075  3.3841  2.9340  2.5256
  691SOL    HW2 2073   2.560   0.537   2.082 -0.0095  0.1260 -0.2420
  692SOL     OW 2074   2.794   1.221   0.716 -0.6420  0.4583  0.1453
  692SOL    HW1 2075   2.693   1.217   0.702  1.1240 -0.7948 -0.8287
  692SOL    HW2 2076   2.831   1.318   0.742  1.7828  0.9402 -0.1308
  693SOL     OW 2077   2.876   2.999   0.617  0.0279 -0.0239 -0.2690
  693SOL    HW1 2078   2.867   3.077   0.691  3.4910  1.8010  0.1160
  693SOL    HW2 2079   2.802   3.009   0.543  0.5991 -0.7535 -2.8283
  694SOL     OW 2080   2.416   2.216   0.060 -0.3281 -0.4138  0.1059
  694SOL    HW1 2081   2.391   2.307   0.112  0.3597  4.4131  1.4477
  694SOL    HW2 2082   2.334   2.159   0.035  0.0464 -1.4125 -1.0805
  695SOL     OW 2083   0.540   3.013   1.465 -0.5170 -0.0440 -0.1783
  695SOL    HW1 2084   0.548   2.915   1.431  0.2154  1.8171 -1.2374
  695SOL    HW2 2085   0.480   3.021   1.546  0.5070  0.6398 -2.5935
  696SOL     OW 2086   2.686   1.899   0.716 -0.1088 -0.1411  0.1859
  696SOL    HW1 2087   2.703   1.805   0.756 -0.1110 -2.0442  1.3847
  696SOL    HW2 2088   2.654   1.894   0.620  0.9181  1.1365  0.7416
  697SOL     OW 2089   1.753   2.094   1.759 -0.3743 -0.0309 -0.7032
  697SOL    HW1 2090   1.824   2.017   1.763  1.1872  1.4707  1.7548
  697SOL    HW2 2091   1.803   2.187   1.771  0.3933 -1.9333  2.0913
  698SOL     OW 2092   2.891   0.407   2.741  0.8537 -0.3300 -0.5470
  698SOL    HW1 2093   2.860   0.414   2.645 -1.6898 -1.6369  3.9087
  698SOL    HW2 2094   2.917   0.308   2.770  1.6251  0.0281  1.4280
  699SOL     OW 2095   1.561   0.078   2.942  0.1123 -0.4868 -0.0123
  699SOL    HW1 2096   1.528  -0.000   2.884 -0.1545  3.4160 -3.2950
  699SOL    HW2 2097   1.618   0.143   2.885  0.8046 -2.5779 -2.1091
  700SOL     OW 2098   1.004   2.352   1.328  0.4817  0.1530  0.4681
  700SOL    HW1 2099   1.098   2.325   1.296 -2.5185  2.2188  0.6313
  700SOL    HW2 2100   0.929   2.333   1.262  1.4629  0.0035  0.0788
  701SOL     OW 2101   1.889   2.807   0.038 -0.2456  0.1739  0.5221
  701SOL    HW1 2102   1.895   2.765   0.131  0.2582  2.2270  0.7368
  701SOL    HW2 2103   1.918   2.909   0.032  0.7822 -0.0091  1.3547
  702SOL     OW 2104   2.106   1.353   1.931 -0.0601  0.2209 -0.0929
  702SOL    HW1 2105   2.178   1.277   1.915 -2.0091  0.4613  2.1208
  702SOL    HW2 2106   2.080   1.395   1.839 -1.4759  1.5584 -2.3108
  703SOL     OW 2107   1.941   0.826   1.422  0.3809 -0.1139  0.2118
  703SOL    HW1 2108   1.941   0.735   1.470 -0.7027 -0.4796  2.3218
  703SOL    HW2 2109   1.978   0.906   1.484  1.2841  2.1624 -0.1497
  704SOL     OW 2110   0.328   2.039   1.687  0.3055 -0.0282  0.3655
  704SOL    HW1 2111   0.348   1.998   1.779 -2.2075 -0.5982  0.7877
  704SOL    HW2 2112   0.383   2.131   1.684  2.0512  2.0386  0.7901
  705SOL     OW 2113   2.553   1.408   0.897 -0.2119  0.0392 -0.3706
  705SOL    HW1 2114   2.455   1.403   0.856  0.3802  1.3829  0.3661
  705SOL    HW2 2115   2.580   1.323   0.948  1.9335  0.2109 -2.2930
  706SOL     OW 2116   0.649   1.764   1.859 -0.1324  0.0771 -0.1839
  706SOL    HW1 2117   0.657   1.659   1.896  0.1489 -1.6391  1.5262
  706SOL    HW2 2118   0.720   1.827   1.900  1.1912 -1.3251 -1.8467
  707SOL     OW 2119   2.258   1.152   1.826  0.0320  0.3220 -0.0570
  707SOL    HW1 2120   2.345   1.145   1.880 -0.2650  1.9683 -1.0051
  707SOL    HW2 2121   2.226   1.058   1.784 -1.3256  0.9527 -2.0777
  708SOL     OW 2122   3.051   0.475   3.012  0.2547  0.4057 -0.2404
  708SOL    HW1 2123   3.027   0.545   2.943  2.5071 -2.2412 -0.2184
  708SOL    HW2 2124   3.052   0.376   2.975 -2.4197  0.9319 -3.7786
  709SOL     OW 2125   1.826   1.804   0.300  0.0611 -0.2854  0.1111
  709SOL    HW1 2126   1.842   1.902   0.328 -3.6684  0.3177  0.9787
  709SOL    HW2 2127   1.826   1.796   0.192  0.0717 -0.5840 -1.7069
  710SOL     OW 2128   1.708   1.576   2.435  0.5838  0.4823  0.0276
  710SOL    HW1 2129   1.785   1.570   2.362 -2.9387 -1.1271  1.0196
  710SOL    HW2 2130   1.737   1.543   2.534  0.6120  1.3559  0.2408
  711SOL     OW 2131   2.642   2.918   0.952  0.1966  0.3136 -0.0722
  711SOL    HW1 2132   2.659   3.002   0.893  1.3022  1.8468  2.7074
  711SOL    HW2 2133   2.710   2.908   1.035 -2.2479 -2.0433  1.5933
  712SOL     OW 2134   1.496   2.333   1.759  0.2081  0.6893 -0.1320
  712SOL    HW1 2135   1.570   2.264   1.781 -0.3923 -1.5363 -0.2220
  712SOL    HW2 2136   1.427   2.288   1.696 -0.2538  1.3717  1.2647
  713SOL     OW 2137   2.802   1.471   2.464  0.5060 -0.7679 -0.4576
  713SOL    HW1 2138   2.813   1.370   2.466 -2.1813  0.2143  3.5714
  713SOL    HW2 2139   2.705   1.497   2.489 -1.7149 -1.6254 -2.3120
  714SOL     OW 2140   2.611   0.478   2.424 -0.4750  0.0243  0.1406
  714SOL    HW1 2141   2.524   0.493   2.477  0.4549 -0.1004 -1.2541
  714SOL    HW2 2142   2.591   0.456   2.325 -1.5248  0.9080  2.1906
  715SOL     OW 2143   1.566   2.083   1.129  0.0813  0.2474  0.4671
  715SOL    HW1 2144   1.516   2.173   1.149  0.4648  0.1564 -0.0502
  715SOL    HW2 2145   1.625   2.053   1.210 -1.3983 -1.7039 -3.5883
  716SOL     OW 2146   1.209   0.229   1.516  0.0280  0.0460 -0.1982
  716SOL    HW1 2147   1.111   0.234   1.486  0.5680  1.8401  1.7360
  716SOL    HW2 2148   1.274   0.284   1.455 -0.5255 -1.9138 -1.4849
  717SOL     OW 2149   1.083   0.576   1.623 -0.0007  0.1313 -0.0328
  717SOL    HW1 2150   1.183   0.584   1.645  1.3264 -1.0391 -1.8257
  717SOL    HW2 2151   1.058   0.580   1.523 -0.5104  1.0351 -0.1491
  718SOL     OW 2152   0.680   1.013   1.008 -0.7459  0.1377 -0.0273
  718SOL    HW1 2153   0.638   1.006   0.914 -1.0883  2.7922  0.7042
  718SOL    HW2 2154   0.744   1.089   1.029 -0.1103 -1.6162  0.5903
  719SOL     OW 2155   0.785   1.859   2.271  0.1005  0.6034 -0.3094
  719SOL    HW1 2156   0.859   1.875   2.342  1.9381  0.7719 -1.0423
  719SOL    HW2 2157   0.683   1.848   2.305 -0.7866  2.1029  3.1315
  720SOL     OW 2158   2.205   1.095   0.265  0.0392 -0.3784 -0.1980
  720SOL    HW1 2159   2.267   1.014   0.241  1.3739 -2.6153 -0.1849
  720SOL    HW2 2160   2.160   1.086   0.359 -2.9802 -1.6705  0.1090
  721SOL     OW 2161   2.330   0.014   2.058 -0.2924  0.1631 -0.1788
  721SOL    HW1 2162   2.302   0.085   1.988  1.1476  0.2454 -1.7863
  721SOL    HW2 2163   2.251  -0.012   2.121 -0.7928 -1.2969 -3.4046
  722SOL     OW 2164   2.393   1.637   0.585 -0.0032  0.2367 -0.5317
  722SOL    HW1 2165   2.378   1.566   0.515  1.8877  2.1208 -1.5668
  722SOL    HW2 2166   2.301   1.673   0.622 -1.2395  1.7107 -1.5321
  723SOL     OW 2167   2.558   2.801   1.963 -0.2502  0.5141 -0.1392
  723SOL    HW1 2168   2.600   2.832   2.056 -1.6819  0.7102 -1.3432
  723SOL    HW2 2169   2.452   2.796   1.969 -2.7062  1.6496  0.6728
  724SOL     OW 2170   0.493   2.463   2.431 -0.1551  0.1358 -0.5941
  724SOL    HW1 2171   0.391   2.466   2.443 -1.2544  1.2882  1.1993
  724SOL    HW2 2172   0.540   2.466   2.520 -1.0324 -1.6380 -0.2709
  725SOL     OW 2173   2.446   2.743   1.475 -0.9684  0.2680 -0.7887
  725SOL    HW1 2174   2.465   2.752   1.375 -3.2930  1.0116 -1.6297
  725SOL    HW2 2175   2.437   2.644   1.496 -2.2369  2.3308  0.6686
  726SOL     OW 2176   2.385   2.233   0.697  0.4385  0.5734  0.6378
  726SOL    HW1 2177   2.335   2.324   0.676  1.8504 -1.8312  0.3599
  726SOL    HW2 2178   2.373   2.160   0.622 -0.5061 -1.4046 -0.6869
  727SOL     OW 2179   0.234   3.090   0.109 -0.2219  0.4839  0.1594
  727SOL    HW1 2180   0.255   2.988   0.099 -1.5009 -0.3077  1.3673
  727SOL    HW2 2181   0.258   3.148   0.028  1.0912  0.2841  2.3402
  728SOL     OW 2182   2.805   0.683   1.005 -0.6376 -0.1024  0.0704
  728SOL    HW1 2183   2.749   0.652   0.924 -0.5142 -0.3641  0.9163
  728SOL    HW2 2184   2.799   0.627   1.089 -0.6433  0.4602 -5.1508
  729SOL     OW 2185   2.911   2.448   0.686  0.3652  0.2207 -0.3520
  729SOL    HW1 2186   2.866   2.352   0.677  0.2698 -1.2439  4.8020
  729SOL    HW2 2187   3.012   2.454   0.696 -0.5630 -0.0116  2.9338
  730SOL     OW 2188   2.576   0.571   0.774  0.5597  0.1910 -0.4700
  730SOL    HW1 2189   2.536   0.660   0.735 -0.0424 -2.8282 -1.4548
  730SOL    HW2 2190   2.670   0.547   0.741 -2.1525 -1.3071  2.7616
  731SOL     OW 2191   0.007   2.129   2.450 -0.2793 -0.3332  0.2653
  731SOL    HW1 2192   0.065   2.160   2.533  1.8207  0.8007 -3.3473
  731SOL    HW2 2193  -0.045   2.207   2.414  2.3992 -3.6250  5.3308
  732SOL     OW 2194   1.103   2.863   1.984  0.4586  0.0842 -0.7162
  732SOL    HW1 2195   1.134   2.804   2.066 -2.8472  0.8450  0.0445
  732SOL    HW2 2196   1.130   2.824   1.891  0.3646  0.8156 -3.3086
  733SOL     OW 2197   0.025   0.742   2.073 -0.4759  0.6929  0.0135
  733SOL    HW1 2198   0.125   0.755   2.088 -1.8241  0.2471  1.0912
  733SOL    HW2 2199  -0.010   0.646   2.043  0.0377  0.8714  1.3354
  734SOL     OW 2200   1.431   0.341   2.751 -0.2200 -0.3284 -0.3568
  734SOL    HW1 2201   1.418   0.436   2.800 -1.3552 -0.7445  2.0651
  734SOL    HW2 2202   1.351   0.279   2.770 -0.9017 -0.1688 -1.2185
  735SOL     OW 2203   2.876   2.625   2.247  0.0351 -0.2218 -0.1762
  735SOL    HW1 2204   2.823   2.664   2.168 -1.5607  0.3341  3.4834
  735SOL    HW2 2205   2.957   2.569   2.215  0.6521 -0.2024 -3.1864
  736SOL     OW 2206   0.758   0.413   2.648  0.2382 -0.7938  0.4008
  736SOL    HW1 2207   0.693   0.489   2.665 -0.9459 -3.7527 -0.6766
  736SOL    HW2 2208   0.759   0.377   2.547  2.1424  0.0170  4.2107
  737SOL     OW 2209   2.657   0.487   2.869 -0.6434  0.7292 -0.2107
  737SOL    HW1 2210   2.648   0.438   2.961  1.9343  0.8482  0.9007
  737SOL    HW2 2211   2.733   0.453   2.810 -0.9658 -0.7692 -1.3207
  738SOL     OW 2212   1.595   1.223   2.956  0.0198  0.0215  0.1896
  738SOL    HW1 2213   1.699   1.205   2.969 -1.5021  0.3525 -0.4386
  738SOL    HW2 2214   1.552   1.171   2.876  1.9506 -0.3395  3.0593
  739SOL     OW 2215   1.785   0.666   0.717  1.0667  0.2663  0.7202
  739SOL    HW1 2216   1.799   0.643   0.821 -0.9677 -0.8376  1.0369
  739SOL    HW2 2217   1.825   0.595   0.653  0.3872  1.7564  0.9124
  740SOL     OW 2218   1.946   1.895   2.235 -0.0625 -0.1862 -0.9382
  740SOL    HW1 2219   2.029   1.831   2.244  1.6330  0.1461 -1.9061
  740SOL    HW2 2220   1.869   1.856   2.182  1.5802 -0.4831 -0.7844
  741SOL     OW 2221   2.490   0.038   2.617 -0.2056 -0.2074  0.1512
  741SOL    HW1 2222   2.597   0.025   2.621  0.0050  0.2404  2.1715
  741SOL    HW2 2223   2.452   0.005   2.528 -0.3688 -0.3726  1.2870
  742SOL     OW 2224   2.252   1.367   0.133 -0.2280 -0.1152 -0.1046
  742SOL    HW1 2225   2.167   1.405   0.178  0.8936  1.1396 -1.0162
  742SOL    HW2 2226   2.310   1.311   0.197 -0.2130  0.9951 -2.1932
  743SOL     OW 2227   1.770   0.591   2.588 -0.4028  0.1971  0.4922
  743SOL    HW1 2228   1.745   0.526   2.513 -0.4907  0.7411  1.3898
  743SOL    HW2 2229   1.693   0.663   2.599 -2.3882 -1.1024  0.9134
  744SOL     OW 2230   2.651   2.118   0.044 -0.1425 -0.3643 -0.5090
  744SOL    HW1 2231   2.550   2.150   0.061 -1.7868  1.4508 -0.1147
  744SOL    HW2 2232   2.666   2.021   0.088  2.0245  0.6262  0.3774
  745SOL     OW 2233   2.138   2.678   2.227  0.0024  0.1680 -0.3216
  745SOL    HW1 2234   2.054   2.648   2.173  0.1016  0.6430 -0.7293
  745SOL    HW2 2235   2.124   2.743   2.309 -0.7070  3.6684  0.6060
  746SOL     OW 2236   3.076   2.554   1.826 -0.3783 -0.0471 -0.0935
  746SOL    HW1 2237   3.172   2.560   1.787  0.7221 -2.0400  1.6594
  746SOL    HW2 2238   3.028   2.647   1.845 -0.1985  2.5799 -0.7348
  747SOL     OW 2239   0.004   1.784   1.654 -0.1607  0.4112  0.6017
  747SOL    HW1 2240  -0.028   1.688   1.662  1.7543  2.6744  2.0816
  747SOL    HW2 2241   0.050   1.808   1.562  0.2130 -2.1245 -0.6607
  748SOL     OW 2242   1.807   2.723   2.888 -0.4382 -0.7873 -0.1833
  748SOL    HW1 2243   1.805   2.748   2.988  0.2031 -2.4112 -0.3488
  748SOL    HW2 2244   1.711   2.717   2.857  0.8279 -2.0860 -0.6171
  749SOL     OW 2245   1.325   0.005   0.857 -0.0938  0.5679 -0.2882
  749SOL    HW1 2246   1.261  -0.078   0.873  0.3822 -3.3516  0.6311
  749SOL    HW2 2247   1.323   0.033   0.753  0.3470  0.2987 -3.1751
  750SOL     OW 2248   2.305   0.246   1.880  0.2017  0.0518  0.0806
  750SOL    HW1 2249   2.335   0.310   1.801 -5.5423 -0.4496  1.9572
  750SOL    HW2 2250   2.309   0.302   1.967  0.6213  1.0892 -0.0811
  751SOL     OW 2251   0.825   2.203   2.791 -0.4486 -0.0890 -0.1590
  751SOL    HW1 2252   0.879   2.204   2.884 -1.7732 -2.0462  1.3516
  751SOL    HW2 2253   0.740   2.144   2.793 -0.6686 -1.3467 -2.4211
  752SOL     OW 2254   1.230   0.885   1.531  0.3546  0.2608  0.2335
  752SOL    HW1 2255   1.317   0.925   1.495 -1.7730  0.5105  1.5606
  752SOL    HW2 2256   1.253   0.794   1.575  1.6130  1.0323  1.7350
  753SOL     OW 2257   0.927   2.593   1.711 -0.1576  0.2582  0.3533
  753SOL    HW1 2258   1.012   2.661   1.719 -0.3107  0.2502 -0.4595
  753SOL    HW2 2259   0.838   2.644   1.688  0.8102  0.1230  1.8091
  754SOL     OW 2260   1.203   1.279   3.030 -0.4054 -0.6598 -0.0823
  754SOL    HW1 2261   1.259   1.213   2.979  0.1577 -1.5656  2.3017
  754SOL    HW2 2262   1.195   1.376   2.988 -0.5696 -0.4011  1.3791
  755SOL     OW 2263   1.939   0.457   2.224  0.3225  0.0204  0.0754
  755SOL    HW1 2264   2.028   0.428   2.276  0.3952 -1.8347 -0.0092
  755SOL    HW2 2265   1.857   0.443   2.286  0.8064  1.2404 -2.0851
  756SOL     OW 2266   2.613   0.993   2.967  0.5401  0.1354  0.0289
  756SOL    HW1 2267   2.701   0.969   3.000 -2.5681 -0.8475  0.5254
  756SOL    HW2 2268   2.540   0.930   3.010  0.2383 -0.3948 -0.8932
  757SOL     OW 2269   0.055   0.473   1.790  0.3693  0.7542 -0.0397
  757SOL    HW1 2270   0.004   0.540   1.731  0.7647 -0.3445  1.2056
  757SOL    HW2 2271   0.133   0.428   1.736  3.3134 -0.1905  0.9429
  758SOL     OW 2272   2.401   0.008   1.475  0.8122 -0.0015 -0.0931
  758SOL    HW1 2273   2.356  -0.074   1.524  1.7532 -1.5622  2.7664
  758SOL    HW2 2274   2.373   0.022   1.372  0.0396 -0.0995 -0.0995
  759SOL     OW 2275   1.682   0.005   0.081  0.4730 -0.5545  0.2477
  759SOL    HW1 2276   1.644   0.027  -0.013 -0.7401  1.9827  0.1164
  759SOL    HW2 2277   1.782   0.015   0.081 -2.1652 -0.5153  0.7757
  760SOL     OW 2278   2.731   2.037   2.751  0.2762 -0.2349 -0.3007
  760SOL    HW1 2279   2.829   1.996   2.761  1.6494  1.8167  2.6026
  760SOL    HW2 2280   2.713   2.106   2.824  1.4637  0.1747 -0.7091
  761SOL     OW 2281   1.973   1.685   1.623  0.0215  0.4951 -0.1936
  761SOL    HW1 2282   2.017   1.596   1.645 -0.2229  0.7831  1.6935
  761SOL    HW2 2283   1.887   1.672   1.571  0.7322  1.0658  1.6934
  762SOL     OW 2284   0.500   2.409   0.958  0.0796 -0.2446 -0.4385
  762SOL    HW1 2285   0.586   2.427   0.901  1.6536  0.8342  1.3612
  762SOL    HW2 2286   0.505   2.473   1.038  1.0690  0.1460  3.4252
  763SOL     OW 2287   2.110   1.517   2.986 -0.3727 -0.3153  0.2153
  763SOL    HW1 2288   2.184   1.456   3.033  1.5111  1.0933 -0.8129
  763SOL    HW2 2289   2.015   1.503   3.032 -0.2609  0.2875 -0.1964
  764SOL     OW 2290   0.703   0.539   0.902 -0.1380 -0.3716  0.3063
  764SOL    HW1 2291   0.674   0.458   0.843  1.5580 -1.0069 -0.2858
  764SOL    HW2 2292   0.807   0.544   0.922  2.3909 -1.6190 -2.2503
  765SOL     OW 2293   0.650   0.239   0.820  0.1924 -0.2501  0.3876
  765SOL    HW1 2294   0.739   0.229   0.765  0.7563 -2.3287 -1.3080
  765SOL    HW2 2295   0.658   0.228   0.924 -0.2243 -1.0796  3.3329
  766SOL     OW 2296   2.955   2.096   0.022  0.1287 -0.4571  0.5874
  766SOL    HW1 2297   2.868   2.125   0.064 -1.0562  0.2066 -1.0801
  766SOL    HW2 2298   3.016   2.179  -0.006 -0.9167  1.7794 -2.2450
  767SOL     OW 2299   2.890   1.544   0.515  0.0118 -0.1344 -0.2107
  767SOL    HW1 2300   2.823   1.520   0.594 -0.0286 -0.0312  0.1775
  767SOL    HW2 2301   2.951   1.622   0.537  1.4233 -0.4489  0.3165
  768SOL     OW 2302   1.105   0.246   0.319  0.0841  0.3038  0.0765
  768SOL    HW1 2303   1.026   0.181   0.334 -1.1851  0.0374 -0.0676
  768SOL    HW2 2304   1.193   0.191   0.309 -3.3647  0.3112 -2.3307
  769SOL     OW 2305   1.178   1.820   2.244  0.2356  0.0588  0.2684
  769SOL    HW1 2306   1.102   1.842   2.303  0.5428 -2.8662  1.1500
  769SOL    HW2 2307   1.201   1.716   2.257 -0.2915 -5.2592  2.7472
  770SOL     OW 2308   0.178   1.253   2.395  0.4506 -0.5325  0.8003
  770SOL    HW1 2309   0.174   1.259   2.499 -1.4788  1.1689 -1.3113
  770SOL    HW2 2310   0.099   1.196   2.362 -0.5970  2.6402  2.8067
  771SOL     OW 2311   2.966   2.807   1.892  0.3131 -0.1493  0.4882
  771SOL    HW1 2312   2.935   2.882   1.826 -2.5992  2.3519  0.6678
  771SOL    HW2 2313   2.974   2.839   1.993 -0.1052 -1.5702 -0.9081
  772SOL     OW 2314   2.137   0.103   2.954 -0.3410 -0.0880  0.2920
  772SOL    HW1 2315   2.205   0.028   2.969 -1.0946 -4.6343  1.4194
  772SOL    HW2 2316   2.169   0.197   2.983 -2.1415  1.6436 -0.7784
  773SOL     OW 2317   0.685   2.063   2.480 -0.5877 -0.0999  0.1165
  773SOL    HW1 2318   0.664   2.127   2.398 -1.8964  0.5262  0.0705
  773SOL    HW2 2319   0.630   2.094   2.562  1.5839  1.4440  1.0075
  774SOL     OW 2320   2.031   0.001   2.633  0.0280 -1.0374 -0.1623
  774SOL    HW1 2321   2.038   0.099   2.660 -0.0275 -1.1016 -0.8032
  774SOL    HW2 2322   2.078  -0.071   2.692  0.2933  2.3452 -2.3893
  775SOL     OW 2323   2.516   2.841   2.421 -0.0864 -0.1465 -0.5448
  775SOL    HW1 2324   2.512   2.947   2.400 -1.6233  1.3326  0.3558
  775SOL    HW2 2325   2.608   2.801   2.446 -0.3038  0.4989 -0.9973
  776SOL     OW 2326   3.104   1.282   0.234 -0.4038 -0.6821 -0.5443
  776SOL    HW1 2327   3.068   1.248   0.140  2.3816  0.9602 -1.8003
  776SOL    HW2 2328   3.029   1.311   0.292  2.2221  0.7131 -1.0891
  777SOL     OW 2329   0.213   2.701   0.481 -0.2375 -0.1871 -0.0646
  777SOL    HW1 2330   0.108   2.693   0.467  0.4263 -2.6183  2.6510
  777SOL    HW2 2331   0.244   2.801   0.491 -1.4600  1.4829 -1.0965
  778SOL     OW 2332   1.330   1.962   0.170 -0.1909 -0.2205 -0.4909
  778SOL    HW1 2333   1.286   1.957   0.264 -1.9282  0.6672  0.2367
  778SOL    HW2 2334   1.310   2.052   0.119  0.9079  0.3938 -1.5477
  779SOL     OW 2335   0.182   0.775   0.513 -0.3472  0.2061 -0.3664
  779SOL    HW1 2336   0.144   0.688   0.471  1.3727  1.5438 -0.1160
  779SOL    HW2 2337   0.116   0.818   0.579  0.0004 -1.3958 -0.2028
  780SOL     OW 2338   3.093   0.320   2.357  0.2206  1.3300  0.5798
  780SOL    HW1 2339   3.074   0.422   2.353 -1.6131  0.6336  0.2528
  780SOL    HW2 2340   3.185   0.291   2.320  0.2809 -0.2555  0.5253
  781SOL     OW 2341   0.589   1.744   1.570  0.1026  0.1314  0.7866
  781SOL    HW1 2342   0.636   1.767   1.661  1.9560 -1.1211 -2.2599
  781SOL    HW2 2343   0.525   1.661   1.575 -2.1446  0.9476 -2.7575
  782SOL     OW 2344   2.583   0.151   0.932 -0.1209  0.0489 -0.1646
  782SOL    HW1 2345   2.518   0.169   0.848 -3.2037 -1.2804  0.0978
  782SOL    HW2 2346   2.543   0.192   1.018  0.5719  2.0273 -2.2155
  783SOL     OW 2347   2.848   0.674   2.513  0.1279 -0.0186 -0.0367
  783SOL    HW1 2348   2.818   0.701   2.608  3.5932  0.8961 -0.3014
  783SOL    HW2 2349   2.782   0.615   2.463  2.0325  3.0934  0.1124
  784SOL     OW 2350   1.324   2.221   0.048  0.8463 -0.0566  0.1161
  784SOL    HW1 2351   1.409   2.265   0.096 -2.6400  1.6114  0.5479
  784SOL    HW2 2352   1.332   2.229  -0.058 -2.0723  3.3916 -2.1922
  785SOL     OW 2353   2.186   0.351   3.097  0.0163 -0.1715  0.3451
  785SOL    HW1 2354   2.097   0.364   3.146 -2.6219 -0.7746  0.1936
  785SOL    HW2 2355   2.215   0.431   3.043 -2.9581  0.4093  1.0665
  786SOL     OW 2356   2.038   2.139   2.229  0.6490 -0.4027  0.2915
  786SOL    HW1 2357   1.991   2.049   2.205  0.7676  2.4931 -1.9503
  786SOL    HW2 2358   2.125   2.132   2.289 -1.2872  2.6452  1.1168
  787SOL     OW 2359   1.388   0.614   0.838 -0.3798  0.5550 -0.0300
  787SOL    HW1 2360   1.336   0.703   0.850  0.3392  1.3233 -2.2099
  787SOL    HW2 2361   1.421   0.599   0.740 -0.9587 -0.6717 -2.7467
  788SOL     OW 2362   1.226   0.397   3.033 -0.0862  0.7425  0.2230
  788SOL    HW1 2363   1.132   0.390   2.979  1.2827 -3.3092 -2.0303
  788SOL    HW2 2364   1.291   0.461   2.988 -1.6204 -0.7798 -0.3400
  789SOL     OW 2365   2.616   0.103   1.828  0.5313 -0.4755 -0.0192
  789SOL    HW1 2366   2.529   0.158   1.847 -2.3204  0.9881  1.7165
  789SOL    HW2 2367   2.597   0.014   1.789  2.0965  0.9439 -0.8914
  790SOL     OW 2368   2.589   2.646   0.859  0.2784 -0.0854 -0.1465
  790SOL    HW1 2369   2.665   2.653   0.793 -1.7940 -1.7903 -2.1882
  790SOL    HW2 2370   2.582   2.721   0.922 -0.1002 -2.9309 -2.8398
  791SOL     OW 2371   1.959   1.272   0.232 -0.6217  0.1784  0.1487
  791SOL    HW1 2372   1.873   1.215   0.244  1.4252 -0.6936  2.9422
  791SOL    HW2 2373   2.040   1.210   0.256 -1.1827  3.7119 -1.3101
  792SOL     OW 2374   0.418   1.979   2.192 -0.0094 -0.0899  0.5208
  792SOL    HW1 2375   0.461   2.037   2.267  1.1213  0.9743  1.1433
  792SOL    HW2 2376   0.324   1.941   2.215 -0.8722  0.4767  1.2860
  793SOL     OW 2377   2.131   1.547   2.131 -0.2084 -0.2441  0.1414
  793SOL    HW1 2378   2.206   1.619   2.117  4.8392  2.7453  0.4093
  793SOL    HW2 2379   2.142   1.467   2.071  0.0266 -0.3185  0.4369
  794SOL     OW 2380   0.419   1.400   2.464  0.1128  0.5960  0.4165
  794SOL    HW1 2381   0.432   1.339   2.385  0.7165  0.7633 -0.4869
  794SOL    HW2 2382   0.384   1.491   2.441  0.9478  0.3665  1.8428
  795SOL     OW 2383   2.529   2.317   1.801  0.1520  0.1475  0.0689
  795SOL    HW1 2384   2.551   2.343   1.897 -1.1076  1.5014 -0.5844
  795SOL    HW2 2385   2.450   2.243   1.798  1.4197 -2.7921  0.4740
  796SOL     OW 2386   3.070   1.050   2.697 -0.1098  0.0202 -0.7509
  796SOL    HW1 2387   2.987   1.050   2.761 -1.1564 -1.5083  1.1177
  796SOL    HW2 2388   3.152   1.071   2.758 -3.1082  0.8575  5.3419
  797SOL     OW 2389   0.741   0.667   1.351 -1.1231  0.0579  0.4093
  797SOL    HW1 2390   0.803   0.726   1.415 -0.3360 -0.9918  0.3368
  797SOL    HW2 2391   0.691   0.714   1.272 -3.8191  0.7130  2.7631
  798SOL     OW 2392   1.207   0.447   1.009 -0.4928 -0.2756 -0.8241
  798SOL    HW1 2393   1.210   0.516   1.088 -0.1300  1.3798  3.3348
  798SOL    HW2 2394   1.286   0.467   0.942  0.5453  2.1136  0.2803
  799SOL     OW 2395   1.832   2.740   1.024 -0.1415 -0.3124 -0.1301
  799SOL    HW1 2396   1.806   2.645   1.071 -1.7194 -1.2244 -0.1478
  799SOL    HW2 2397   1.888   2.733   0.935 -2.2057 -0.5608  0.0190
  800SOL     OW 2398   2.964   0.819   1.835 -0.4103  0.3959 -0.7551
  800SOL    HW1 2399   2.963   0.923   1.828  0.3135  1.8000 -0.8870
  800SOL    HW2 2400   2.982   0.787   1.934 -2.2097 -2.2490  0.5154
  801SOL     OW 2401   1.964   2.149   0.139  0.2059  0.4517  0.4383
  801SOL    HW1 2402   1.901   2.190   0.070  0.3178  3.7619 -0.4147
  801SOL    HW2 2403   2.060   2.127   0.107 -1.0852  0.2582  0.8735
  802SOL     OW 2404   0.718   0.713   2.538  0.3774 -0.1421 -0.2274
  802SOL    HW1 2405   0.771   0.693   2.450 -0.4995 -2.1970 -1.5914
  802SOL    HW2 2406   0.616   0.694   2.534 -0.8404 -1.5732  1.4854
  803SOL     OW 2407   0.928   0.037   0.859  0.2056 -0.4174  0.4505
  803SOL    HW1 2408   1.016   0.085   0.896  0.0619  0.7003 -1.5602
  803SOL    HW2 2409   0.900   0.078   0.766 -2.0840 -1.3879 -0.2781
  804SOL     OW 2410   0.279   0.026   2.182  0.6458  0.3695  0.4012
  804SOL    HW1 2411   0.270   0.127   2.207  2.4264  1.2182  1.3632
  804SOL    HW2 2412   0.212  -0.015   2.113  0.3369 -0.6968 -0.8287
  805SOL     OW 2413   2.343   0.388   0.326 -0.4023 -0.2677  0.0559
  805SOL    HW1 2414   2.425   0.391   0.394  3.7257  2.8650  1.5085
  805SOL    HW2 2415   2.352   0.313   0.252 -0.0820 -0.6955  0.8035
  806SOL     OW 2416   0.634   2.490   1.833  0.0973  0.0181  0.0801
  806SOL    HW1 2417   0.586   2.575   1.869  0.4400  0.2285  0.7396
  806SOL    HW2 2418   0.734   2.501   1.814  1.9559 -0.8125 -0.4912
  807SOL     OW 2419   2.540   0.957   0.434  0.3043  0.6850 -0.1750
  807SOL    HW1 2420   2.612   0.885   0.448  0.8198  0.4167  1.2051
  807SOL    HW2 2421   2.530   0.998   0.332  0.2162  2.2550 -0.7103
  808SOL     OW 2422   0.598   2.021   2.892  0.1648  0.2659 -0.1955
  808SOL    HW1 2423   0.576   2.078   2.977 -0.4895  0.3148  1.9372
  808SOL    HW2 2424   0.607   1.920   2.918  2.5215  0.8160  2.0597
  809SOL     OW 2425   2.543   2.008   1.877 -0.0572 -0.2122  0.8693
  809SOL    HW1 2426   2.643   2.040   1.896  0.0985 -1.5366 -1.2584
  809SOL    HW2 2427   2.512   2.022   1.774 -0.7839  3.1638 -1.4470
  810SOL     OW 2428   2.149   1.083   0.528  0.2565 -0.0266  0.0176
  810SOL    HW1 2429   2.131   0.993   0.584  0.5552 -0.7094  1.2430
  810SOL    HW2 2430   2.113   1.172   0.571  3.1036 -0.7924  3.3271
  811SOL     OW 2431   1.305   2.540   1.184 -0.6511  0.3667 -0.2431
  811SOL    HW1 2432   1.299   2.435   1.209  0.1554  0.4899 -0.8967
  811SOL    HW2 2433   1.274   2.592   1.271 -0.4216 -0.6915  0.1771
  812SOL     OW 2434   1.392   0.780   1.929  0.8298  0.2123  0.5057
  812SOL    HW1 2435   1.290   0.778   1.955  0.7975  1.9600 -1.6130
  812SOL    HW2 2436   1.418   0.855   1.862 -2.2541  1.4205 -0.2466
  813SOL     OW 2437   1.574   2.052   2.416 -0.4104  0.2945  0.1597
  813SOL    HW1 2438   1.652   1.993   2.452  0.6225  0.7616 -2.3124
  813SOL    HW2 2439   1.555   2.033   2.317 -1.5820 -0.8963  0.4050
  814SOL     OW 2440   2.963   1.698   2.900 -0.1278 -0.2889  0.3427
  814SOL    HW1 2441   3.028   1.661   2.973  1.0071 -1.7294 -0.7824
  814SOL    HW2 2442   2.989   1.788   2.864  1.0600 -0.3589 -0.7504
  815SOL     OW 2443   2.177   2.906   2.773 -0.2511  0.2668  0.0310
  815SOL    HW1 2444   2.133   2.824   2.821 -3.4435 -1.6009 -0.3066
  815SOL    HW2 2445   2.274   2.931   2.804 -0.5434 -0.7383  2.9103
  816SOL     OW 2446   1.534   0.362   1.665 -0.1611 -0.6090  0.4530
  816SOL    HW1 2447   1.567   0.263   1.684  0.4476 -0.2736  0.8899
  816SOL    HW2 2448   1.501   0.416   1.751  1.8624  0.6860  1.5952
  817SOL     OW 2449   0.402   1.193   2.653 -0.7480  1.2193 -0.2620
  817SOL    HW1 2450   0.352   1.214   2.738  2.4814  0.1572 -0.3763
  817SOL    HW2 2451   0.396   1.274   2.591  1.0347 -0.6682  0.8213
  818SOL     OW 2452   1.984   0.820   0.455  0.4179  0.0841  0.2100
  818SOL    HW1 2453   2.088   0.825   0.463  1.4218  1.6105  2.7622
  818SOL    HW2 2454   1.936   0.845   0.545  0.0989 -2.7153 -0.0688
  819SOL     OW 2455   2.746   2.940   3.085  0.2131 -0.8097  0.1364
  819SOL    HW1 2456   2.781   2.882   3.168  1.0190 -2.3615  1.4757
  819SOL    HW2 2457   2.692   2.878   3.020 -0.1693 -3.0462  1.4835
  820SOL     OW 2458   1.263   1.053   0.530  0.2091  0.2504  0.3841
  820SOL    HW1 2459   1.289   1.136   0.580  1.6718 -1.4933  1.8051
  820SOL    HW2 2460   1.228   0.973   0.584 -0.3042 -0.1304 -3.5121
  821SOL     OW 2461   0.059   1.201   0.736  0.1388 -0.3433  0.3417
  821SOL    HW1 2462   0.010   1.188   0.829  1.0259 -0.4655 -1.4210
  821SOL    HW2 2463   0.121   1.287   0.724  3.3280  1.6605  0.4816
  822SOL     OW 2464   2.500   1.796   2.431  0.0169 -0.2457 -0.1438
  822SOL    HW1 2465   2.497   1.841   2.527  1.4502  0.5405  1.0941
  822SOL    HW2 2466   2.420   1.828   2.369  0.1005  2.1777 -1.1955
  823SOL     OW 2467   2.013   0.951   1.173  0.3908  0.5394 -0.1001
  823SOL    HW1 2468   1.964   0.912   1.258 -1.4995 -1.8923  1.4669
  823SOL    HW2 2469   1.940   0.977   1.107  2.6327 -1.7629 -1.6570
  824SOL     OW 2470   0.217   1.938   2.792 -0.2037 -0.8122  0.1929
  824SOL    HW1 2471   0.247   1.876   2.870  1.9758  1.5783 -2.1088
  824SOL    HW2 2472   0.293   1.926   2.721 -2.3199  0.4118  1.0147
  825SOL     OW 2473   1.325   1.081   0.255 -0.0940 -0.2387 -0.1414
  825SOL    HW1 2474   1.345   1.178   0.228  0.6479 -2.5087  2.3918
  825SOL    HW2 2475   1.315   1.073   0.358  0.1346 -0.3098  1.6251
  826SOL     OW 2476   1.927   0.595   1.592  0.0566 -0.1073  0.0318
  826SOL    HW1 2477   2.017   0.557   1.632 -0.3684 -1.0321  1.4090
  826SOL    HW2 2478   1.857   0.520   1.561 -0.1241 -0.6487  0.2696
  827SOL     OW 2479   0.709   1.159   0.369  0.8059 -0.0754  0.0598
  827SOL    HW1 2480   0.767   1.104   0.303 -0.3319  0.8559  1.1859
  827SOL    HW2 2481   0.637   1.104   0.419  0.0762  2.3781 -0.2477
  828SOL     OW 2482   2.646   0.123   1.526 -0.8224 -0.0739  0.1267
  828SOL    HW1 2483   2.555   0.075   1.511 -0.2662 -2.7479  0.3795
  828SOL    HW2 2484   2.664   0.135   1.628 -0.7700  0.4995 -1.0759
  829SOL     OW 2485   2.952   2.404   2.886 -0.5231  0.3983  0.5128
  829SOL    HW1 2486   2.876   2.374   2.951  1.7133 -0.6272 -0.3495
  829SOL    HW2 2487   2.977   2.506   2.888  2.0122 -0.5215  1.1242
  830SOL     OW 2488   2.892   0.915   3.049 -0.3696 -0.3155  0.2897
  830SOL    HW1 2489   2.950   0.979   3.100  0.5491 -0.5488 -1.6261
  830SOL    HW2 2490   2.910   0.816   3.064  1.3416  1.6910 -1.4774
  831SOL     OW 2491   0.032   0.565   0.406  0.4595  0.0724  0.4873
  831SOL    HW1 2492   0.014   0.512   0.495  0.0549 -1.2631 -0.3997
  831SOL    HW2 2493   0.062   0.497   0.333  1.0971 -1.5525  0.9895
  832SOL     OW 2494   1.814   0.766   3.065 -0.0762 -0.4534 -0.8341
  832SOL    HW1 2495   1.731   0.785   3.004 -4.7738  2.3832 -0.1796
  832SOL    HW2 2496   1.832   0.663   3.082  0.9651 -1.6765 -1.4534
  833SOL     OW 2497   2.405   2.092   0.472  0.1977  0.5744  0.1930
  833SOL    HW1 2498   2.310   2.052   0.464 -1.6873  0.0515  0.3223
  833SOL    HW2 2499   2.475   2.019   0.465 -1.1665  2.7744  0.0274
  834SOL     OW 2500   0.211   0.115   0.570  0.0730 -0.1952 -0.0531
  834SOL    HW1 2501   0.256   0.021   0.582 -2.1581 -2.7662  0.5865
  834SOL    HW2 2502   0.202   0.143   0.473  0.7507 -0.9045  1.3235
  835SOL     OW 2503   2.447   1.517   1.131 -1.1364 -0.0775 -0.5643
  835SOL    HW1 2504   2.539   1.541   1.176 -2.2743 -1.0347 -0.4054
  835SOL    HW2 2505   2.454   1.469   1.036 -0.9778 -2.0192 -3.5925
  836SOL     OW 2506   1.605   0.822   2.587 -0.0763 -0.3304  0.0633
  836SOL    HW1 2507   1.499   0.816   2.587 -1.6570  0.9277  0.8790
  836SOL    HW2 2508   1.640   0.839   2.488 -1.2176 -0.6948 -2.5119
  837SOL     OW 2509   1.711   0.098   0.597  0.1074  0.3462 -0.3007
  837SOL    HW1 2510   1.667   0.168   0.654 -2.1522  0.1335 -1.1695
  837SOL    HW2 2511   1.679   0.096   0.497  1.4317  0.4966 -2.5499
  838SOL     OW 2512   1.239   1.383   2.700 -0.7488  0.1035  0.0156
  838SOL    HW1 2513   1.251   1.465   2.760 -0.7808 -0.8396  0.4607
  838SOL    HW2 2514   1.141   1.370   2.665 -1.4022  1.7890 -2.0605
  839SOL     OW 2515   1.572   0.355   0.974  0.1028  0.2478 -0.1958
  839SOL    HW1 2516   1.525   0.406   1.048 -2.1846 -0.8844  0.9178
  839SOL    HW2 2517   1.568   0.252   0.980  0.5556  1.0628  2.4006
  840SOL     OW 2518   2.582   2.953   1.715 -0.2933  0.4554 -0.4210
  840SOL    HW1 2519   2.557   2.897   1.629 -0.2300 -3.2060  1.4955
  840SOL    HW2 2520   2.594   2.894   1.801  1.0461  1.1582 -0.4403
  841SOL     OW 2521   1.534   0.843   2.937 -0.3824 -0.3561  0.0691
  841SOL    HW1 2522   1.473   0.884   3.009 -0.2809  2.8351 -2.0299
  841SOL    HW2 2523   1.553   0.913   2.869  4.4559 -3.6224 -0.9988
  842SOL     OW 2524   0.812   1.560   0.998  0.4248 -0.1623  0.1489
  842SOL    HW1 2525   0.780   1.650   1.035 -0.0928 -0.5356  1.2022
  842SOL    HW2 2526   0.743   1.514   0.935  3.2278  0.6231  0.6502
  843SOL     OW 2527   0.123   0.117   1.436 -0.3287  0.7276  0.5112
  843SOL    HW1 2528   0.209   0.158   1.479  1.3058 -0.8404 -2.3346
  843SOL    HW2 2529   0.126   0.009   1.427  0.3339  0.9348  0.2447
  844SOL     OW 2530   0.766   2.525   0.224 -0.6824  0.5990 -0.2921
  844SOL    HW1 2531   0.735   2.487   0.316  2.8520 -0.4879 -1.2452
  844SOL    HW2 2532   0.687   2.541   0.158  0.2886 -2.3229 -0.7824
  845SOL     OW 2533   1.676   2.948   1.291 -0.2425 -0.4726 -0.5884
  845SOL    HW1 2534   1.640   3.039   1.323  1.5176  1.4836  1.1217
  845SOL    HW2 2535   1.618   2.902   1.217 -0.2724 -0.9046  0.2778
  846SOL     OW 2536   1.713   2.965   0.902 -0.1476  0.2067 -0.2236
  846SOL    HW1 2537   1.723   2.981   0.799 -0.5557  1.1396 -1.3189
  846SOL    HW2 2538   1.778   2.894   0.940  2.0122  1.8001  1.4591
  847SOL     OW 2539   2.057   1.610   0.207 -0.1299  0.0192 -0.1869
  847SOL    HW1 2540   2.012   1.592   0.300 -2.4490  1.9298  1.6114
  847SOL    HW2 2541   1.987   1.585   0.130  0.5894 -2.1447  0.1826
  848SOL     OW 2542   2.461   0.858   2.657 -0.0821  0.0651  0.0360
  848SOL    HW1 2543   2.459   0.962   2.688 -0.9395  2.3143 -0.0449
  848SOL    HW2 2544   2.388   0.838   2.586  2.1909 -1.0540  0.1948
  849SOL     OW 2545   2.419   0.888   2.289  0.3089  0.5292 -0.6208
  849SOL    HW1 2546   2.504   0.840   2.249 -1.0331  2.2136 -1.3246
  849SOL    HW2 2547   2.367   0.836   2.362  0.4587 -1.2118  0.6627
  850SOL     OW 2548   1.596   0.159   1.256 -0.6850  0.0504 -0.1896
  850SOL    HW1 2549   1.571   0.127   1.160  0.6427 -1.6350 -0.7441
  850SOL    HW2 2550   1.524   0.118   1.318  0.2869 -2.0274 -1.9586
  851SOL     OW 2551   0.480   1.775   0.684  0.1280  0.1192 -0.1202
  851SOL    HW1 2552   0.494   1.878   0.678  2.8559 -1.3411  0.3031
  851SOL    HW2 2553   0.561   1.722   0.715 -0.0053  0.0396  0.3937
  852SOL     OW 2554   0.768   2.127   1.688  0.3173 -0.1034  0.1244
  852SOL    HW1 2555   0.777   2.228   1.646 -1.4106  1.6915 -1.4247
  852SOL    HW2 2556   0.712   2.126   1.773  1.9199  3.6992 -1.1810
  853SOL     OW 2557   2.520   1.537   2.577  0.1109 -0.1763  0.0032
  853SOL    HW1 2558   2.494   1.443   2.536 -0.9567 -2.2793 -0.5327
  853SOL    HW2 2559   2.489   1.623   2.521 -1.6889 -0.7586  0.3700
  854SOL     OW 2560   2.368   1.400   1.770 -0.0941  0.3625  0.0695
  854SOL    HW1 2561   2.405   1.395   1.674 -3.9911  1.6286 -2.5517
  854SOL    HW2 2562   2.342   1.307   1.810 -0.7421 -1.0006 -1.2750
  855SOL     OW 2563   2.045   2.298   0.959  0.2696  0.0494  0.2927
  855SOL    HW1 2564   2.081   2.397   0.950  2.0735  1.8032 -1.0147
  855SOL    HW2 2565   2.091   2.252   1.045 -0.2734 -3.8558 -0.1310
  856SOL     OW 2566   1.417   1.352   0.881 -0.0493 -0.0492 -0.0780
  856SOL    HW1 2567   1.422   1.448   0.899 -3.8685 -1.5204 -0.9001
  856SOL    HW2 2568   1.420   1.291   0.965  0.4405  1.3587  1.4899
  857SOL     OW 2569   2.979   2.557   1.059 -0.4401  0.5456  0.1401
  857SOL    HW1 2570   2.899   2.492   1.068 -1.4200 -0.3384 -1.4212
  857SOL    HW2 2571   3.069   2.522   1.015 -0.3686 -0.3651  0.6157
  858SOL     OW 2572   2.281   2.158   1.755  0.2259 -0.6406 -0.6015
  858SOL    HW1 2573   2.198   2.165   1.698 -1.3711  0.9607  0.8055
  858SOL    HW2 2574   2.349   2.090   1.720 -0.5807 -1.8374  2.3122
  859SOL     OW 2575   2.441   0.502   1.028 -0.4766 -0.0324  0.0407
  859SOL    HW1 2576   2.502   0.527   0.944  0.7129 -0.0292 -3.4117
  859SOL    HW2 2577   2.473   0.414   1.064 -3.0288 -0.5889 -1.4892
  860SOL     OW 2578   1.958   2.747   0.472 -0.2944 -0.0303  0.6524
  860SOL    HW1 2579   1.920   2.697   0.385 -2.7767  0.5683 -0.0205
  860SOL    HW2 2580   2.035   2.815   0.450  2.6203  2.1182  0.7231
  861SOL     OW 2581   1.095   2.578   2.769 -0.3463 -0.4588 -0.3189
  861SOL    HW1 2582   1.148   2.665   2.743  0.4856  0.2333  0.8563
  861SOL    HW2 2583   1.064   2.571   2.871 -0.3254 -0.7122  1.6256
  862SOL     OW 2584   2.939   2.550   1.545  0.2288 -0.1544  0.1244
  862SOL    HW1 2585   3.028   2.585   1.592  0.7248  0.8957 -1.5487
  862SOL    HW2 2586   2.875   2.626   1.511  2.9772 -1.8822  0.0922
  863SOL     OW 2587   1.910   2.626   0.248 -0.2369 -0.0422 -0.0452
  863SOL    HW1 2588   2.004   2.581   0.222  4.1953  1.4896 -0.5548
  863SOL    HW2 2589   1.824   2.569   0.226 -0.1008 -0.4854 -0.7727
  864SOL     OW 2590   1.867   1.186   2.952  0.3725 -0.4559 -0.2054
  864SOL    HW1 2591   1.867   1.134   2.866  2.6111  0.8369 -0.1492
  864SOL    HW2 2592   1.953   1.175   3.009  1.1768 -2.1212  1.1583
  865SOL     OW 2593   2.143   1.745   0.685 -0.5441 -0.4533  0.5139
  865SOL    HW1 2594   2.194   1.778   0.766 -2.2455 -0.1898  0.1192
  865SOL    HW2 2595   2.060   1.694   0.707 -1.3159  2.3657 -1.1421
  866SOL     OW 2596   2.913   2.857   1.019 -0.2595 -0.2598 -0.0110
  866SOL    HW1 2597   2.976   2.883   0.944 -2.0137 -0.1181  3.0848
  866SOL    HW2 2598   2.906   2.753   1.032 -0.6778 -2.6450 -1.5490
  867SOL     OW 2599   0.428   1.325   0.872  0.3508 -0.5669 -0.0018
  867SOL    HW1 2600   0.438   1.223   0.879  1.9205  1.0915 -0.1422
  867SOL    HW2 2601   0.352   1.357   0.809 -0.3867  0.6168 -1.7343
  868SOL     OW 2602   0.833   1.909   1.981  0.4182  0.1102 -0.3807
  868SOL    HW1 2603   0.839   1.902   2.079  2.4177  0.7007 -0.5376
  868SOL    HW2 2604   0.763   1.980   1.948 -0.7846  0.5226 -0.7661
  869SOL     OW 2605   2.497   2.016   1.615 -0.0604  0.3603  0.0184
  869SOL    HW1 2606   2.556   2.087   1.565  0.4344  0.6494  0.8543
  869SOL    HW2 2607   2.463   1.935   1.559 -1.4734 -0.2907 -1.2485
  870SOL     OW 2608   2.330   2.561   1.222  0.0529 -0.0368 -0.5279
  870SOL    HW1 2609   2.291   2.468   1.200  2.9428  1.6780 -0.2868
  870SOL    HW2 2610   2.433   2.563   1.238  1.7263  3.0748 -4.1726
  871SOL     OW 2611   2.983   2.058   0.561  0.0228 -0.3686  0.0124
  871SOL    HW1 2612   2.892   2.060   0.612  2.6578  0.2523  1.5792
  871SOL    HW2 2613   2.998   1.982   0.492  1.2599 -1.3163 -1.8346
  872SOL     OW 2614   2.159   0.512   1.704  0.3274 -0.0099  0.1077
  872SOL    HW1 2615   2.097   0.496   1.784  0.8063 -1.4567 -1.6687
  872SOL    HW2 2616   2.235   0.444   1.703 -0.1287  0.4108 -0.7014
  873SOL     OW 2617   1.727   2.120   2.943  0.1071  0.2391 -0.0185
  873SOL    HW1 2618   1.710   2.219   2.976  0.0926  0.3171  2.7436
  873SOL    HW2 2619   1.645   2.072   2.897 -0.9540  0.3752 -1.2483
  874SOL     OW 2620   0.695   2.481   0.777  0.2254  0.1946  0.2250
  874SOL    HW1 2621   0.688   2.570   0.827  1.1725 -2.2690 -2.2493
  874SOL    HW2 2622   0.793   2.446   0.760 -0.0001 -2.1891 -2.2209
  875SOL     OW 2623   2.287   1.533   1.491  0.3438 -0.4939 -0.3252
  875SOL    HW1 2624   2.390   1.561   1.492  3.3002  0.8923  0.2294
  875SOL    HW2 2625   2.254   1.560   1.395  3.2900 -1.9550 -0.4157
  876SOL     OW 2626   0.137   2.203   2.678 -0.3885  0.1327  0.0895
  876SOL    HW1 2627   0.181   2.109   2.703  3.4105 -0.4019  0.8215
  876SOL    HW2 2628   0.177   2.281   2.730 -0.4322 -0.6297 -0.9758
  877SOL     OW 2629   2.785   2.688   0.632 -0.0182  0.0457 -0.5336
  877SOL    HW1 2630   2.833   2.768   0.580 -1.1414  1.6968 -0.3592
  877SOL    HW2 2631   2.851   2.614   0.656 -0.3139  0.1365  1.0225
  878SOL     OW 2632   2.875   1.485   2.188 -0.5737  0.9134  0.3234
  878SOL    HW1 2633   2.975   1.470   2.168 -2.1578  1.8390 -0.0413
  878SOL    HW2 2634   2.857   1.511   2.285  2.0884  0.6637 -1.9594
  879SOL     OW 2635   2.375   0.015   1.190 -0.1604 -0.0460  0.2343
  879SOL    HW1 2636   2.418  -0.078   1.205 -1.3328 -1.3472  0.5364
  879SOL    HW2 2637   2.292   0.013   1.125  0.2719 -2.6789 -1.4836
  880SOL     OW 2638   0.699   0.448   2.151 -0.5186 -0.5841 -0.1320
  880SOL    HW1 2639   0.628   0.375   2.183  0.8670  1.0124 -0.8379
  880SOL    HW2 2640   0.776   0.402   2.090 -0.8690  1.1762 -1.1302
  881SOL     OW 2641   0.914   0.042   0.413  0.0247 -0.1156 -0.1513
  881SOL    HW1 2642   0.954  -0.043   0.450 -0.1504  3.0914  0.1030
  881SOL    HW2 2643   0.854   0.022   0.326 -1.2207  1.3573  0.2313
  882SOL     OW 2644   2.737   1.638   1.690  0.4234  0.0431 -0.1792
  882SOL    HW1 2645   2.836   1.620   1.689 -1.5133 -0.3350  0.0012
  882SOL    HW2 2646   2.700   1.691   1.776 -0.1666  3.7037  1.5167
  883SOL     OW 2647   0.971   0.573   0.955 -0.4074 -0.0836 -0.4210
  883SOL    HW1 2648   0.961   0.661   1.000  0.9806  0.4597  0.0279
  883SOL    HW2 2649   1.069   0.538   0.961 -1.4545  2.3879  1.4124
  884SOL     OW 2650   1.184   1.915   1.015 -0.1645  0.5607 -0.3907
  884SOL    HW1 2651   1.145   1.883   0.922  1.0558 -2.2533 -1.9887
  884SOL    HW2 2652   1.152   2.011   1.050 -0.5828 -0.3575 -0.3873
  885SOL     OW 2653   2.265   1.840   2.313 -0.4677 -0.1724  0.1758
  885SOL    HW1 2654   2.194   1.785   2.367  0.6846 -1.9350 -0.7878
  885SOL    HW2 2655   2.275   1.937   2.336  0.5645 -3.5398 -0.4602
  886SOL     OW 2656   2.668   0.459   1.792 -0.4494 -0.0833 -0.0622
  886SOL    HW1 2657   2.719   0.390   1.851  0.0636  1.1497 -3.2668
  886SOL    HW2 2658   2.727   0.534   1.742  0.4627  1.8954 -0.5228
  887SOL     OW 2659   0.092   2.066   1.275  0.0355 -0.0105  0.2410
  887SOL    HW1 2660   0.012   2.027   1.219  1.5914 -0.8935 -0.0066
  887SOL    HW2 2661   0.158   2.121   1.223  0.8041  0.7446  0.4458
  888SOL     OW 2662   0.561   1.286   1.507 -0.0016  0.3108 -0.3976
  888SOL    HW1 2663   0.622   1.304   1.425 -1.4875 -2.2148 -0.5227
  888SOL    HW2 2664   0.539   1.182   1.524  3.4926 -0.8026  0.5054
  889SOL     OW 2665   0.840   2.510   2.119 -0.1569  0.6300  0.0496
  889SOL    HW1 2666   0.766   2.442   2.093 -1.1423 -0.0231  2.5669
  889SOL    HW2 2667   0.925   2.507   2.067 -1.2313  2.1031  1.9061
  890SOL     OW 2668   2.374   2.463   0.189 -0.4319 -0.2200 -0.3362
  890SOL    HW1 2669   2.388   2.515   0.100 -3.2857  1.2213  1.3254
  890SOL    HW2 2670   2.288   2.491   0.236  0.3234  0.1496  1.7062
  891SOL     OW 2671   2.621   1.502   0.651 -0.6669 -0.6209  0.9878
  891SOL    HW1 2672   2.650   1.468   0.742  0.8820  1.7996 -2.0602
  891SOL    HW2 2673   2.530   1.551   0.650  3.0064  3.1577 -0.1861
  892SOL     OW 2674   0.263   0.295   2.230 -0.2410  0.2752 -0.2426
  892SOL    HW1 2675   0.287   0.305   2.129  0.2096  0.2172  0.2514
  892SOL    HW2 2676   0.346   0.317   2.286  1.2890 -0.1129 -0.4741
  893SOL     OW 2677   1.681   0.236   2.747 -0.1097  0.4452 -0.5073
  893SOL    HW1 2678   1.753   0.298   2.787 -0.7809 -1.3741  1.5353
  893SOL    HW2 2679   1.591   0.281   2.724  0.8312 -0.5810 -1.8517
  894SOL     OW 2680   2.220   2.005   0.036 -0.4482 -0.1191 -0.2103
  894SOL    HW1 2681   2.188   1.964  -0.057 -1.1436 -1.0051 -0.4369
  894SOL    HW2 2682   2.206   1.938   0.111 -0.0591 -2.5450 -1.2858
  895SOL     OW 2683   2.915   1.453   0.818  0.1974  0.1581 -0.8062
  895SOL    HW1 2684   2.960   1.390   0.888 -0.0764  0.2600  1.3208
  895SOL    HW2 2685   2.968   1.536   0.790 -1.0151 -1.6154 -1.7073
  896SOL     OW 2686   1.722   1.783   1.157  0.3507  0.1754  0.1501
  896SOL    HW1 2687   1.782   1.859   1.122 -0.3874 -1.0402 -0.0834
  896SOL    HW2 2688   1.619   1.791   1.137 -0.1669  0.9913  0.2478
  897SOL     OW 2689   0.267   0.542   3.079  0.3242 -0.0493  0.3912
  897SOL    HW1 2690   0.192   0.586   3.021 -0.4694 -1.5003  3.3092
  897SOL    HW2 2691   0.352   0.603   3.098 -2.0974  0.5859 -0.0383
  898SOL     OW 2692   0.574   2.841   1.121 -0.1879  0.2211  0.1034
  898SOL    HW1 2693   0.523   2.920   1.159  0.2008  0.2984 -0.5234
  898SOL    HW2 2694   0.676   2.851   1.141 -0.5461  0.1084  1.1592
  899SOL     OW 2695   2.682   0.943   1.225 -0.5661 -0.4626 -0.4547
  899SOL    HW1 2696   2.586   0.931   1.191  1.0071  1.3039 -1.8838
  899SOL    HW2 2697   2.755   0.966   1.155 -0.9218  0.6961 -1.1388
  900SOL     OW 2698   1.014   2.492   2.352  0.0860 -1.0965  0.2944
  900SOL    HW1 2699   0.941   2.500   2.278 -0.4087 -0.7460  0.6934
  900SOL    HW2 2700   0.974   2.487   2.452 -0.3540 -4.3619 -2.1852
  901SOL     OW 2701   1.900   2.438   1.373 -0.2197 -0.2826 -0.5513
  901SOL    HW1 2702   1.882   2.459   1.272  0.1080 -1.6061  3.1904
  901SOL    HW2 2703   2.000   2.416   1.387 -2.3721  1.5084  0.8832
  902SOL     OW 2704   2.582   1.626   1.445 -0.1169  0.1200  0.1204
  902SOL    HW1 2705   2.633   1.636   1.538 -0.2586 -1.5345  3.3127
  902SOL    HW2 2706   2.631   1.561   1.383 -0.7871  1.2658  1.8730
  903SOL     OW 2707   0.262   2.413   2.021  0.6936 -0.6695 -0.2301
  903SOL    HW1 2708   0.178   2.351   2.010 -1.6971 -2.0444 -2.5366
  903SOL    HW2 2709   0.278   2.473   1.939 -1.9755 -1.1789  0.3798
  904SOL     OW 2710   1.975   0.802   2.489 -0.1982  0.3867  1.0391
  904SOL    HW1 2711   1.903   0.738   2.533 -2.6844  2.6826  0.4084
  904SOL    HW2 2712   1.990   0.789   2.387  0.5174 -0.4899 -0.6200
  905SOL     OW 2713   2.764   0.027   2.594 -0.0721 -0.3509  0.2133
  905SOL    HW1 2714   2.838  -0.033   2.622 -0.6331  1.3302 -0.7072
  905SOL    HW2 2715   2.802   0.115   2.553  0.0317  0.2192  0.3958
  906SOL     OW 2716   0.188   1.778   1.874 -0.6165 -0.0586 -0.4198
  906SOL    HW1 2717   0.119   1.797   1.797 -1.6230 -0.2982  0.1992
  906SOL    HW2 2718   0.278   1.828   1.864 -0.9964 -1.1813 -0.3612
  907SOL     OW 2719   0.153   2.491   1.021  0.1398 -0.5742 -0.2228
  907SOL    HW1 2720   0.207   2.566   1.068 -0.5148  1.7556 -2.7046
  907SOL    HW2 2721   0.166   2.486   0.918  1.3499  0.8005 -1.0157
  908SOL     OW 2722   2.668   2.947   0.424 -0.8208 -0.3974 -0.5354
  908SOL    HW1 2723   2.648   2.991   0.335  0.7894  0.2173  2.1865
  908SOL    HW2 2724   2.664   2.847   0.434 -0.6320 -0.4513 -2.0579
  909SOL     OW 2725   0.832   0.913   2.666 -0.0485 -0.2156 -0.4802
  909SOL    HW1 2726   0.775   0.827   2.642 -2.1365  1.2618  1.1508
  909SOL    HW2 2727   0.888   0.955   2.583  1.0653 -0.9444  0.5761
  910SOL     OW 2728   1.764   1.799   2.057 -0.1439  0.0457 -0.8793
  910SOL    HW1 2729   1.819   1.842   1.980  0.2641  1.3821 -1.2847
  910SOL    HW2 2730   1.676   1.848   2.079  0.3881 -0.2382  1.0911
  911SOL     OW 2731   1.763   3.016   1.626 -0.0261  0.0904 -0.0504
  911SOL    HW1 2732   1.832   2.971   1.561  0.3313  1.6055 -3.1337
  911SOL    HW2 2733   1.733   2.952   1.704 -3.0482  1.1352  0.4854
  912SOL     OW 2734   2.848   0.947   0.780 -0.4591 -0.1325  0.0285
  912SOL    HW1 2735   2.831   0.944   0.880  0.9310  0.1817 -0.8374
  912SOL    HW2 2736   2.839   1.046   0.744  2.2075 -0.2196 -0.1941
  913SOL     OW 2737   2.532   1.288   1.551  0.0996  0.0036 -0.2921
  913SOL    HW1 2738   2.544   1.187   1.519  1.5210 -1.0202 -1.5894
  913SOL    HW2 2739   2.557   1.355   1.483 -1.5148 -1.4135  1.0489
  914SOL     OW 2740   2.818   0.526   1.225  0.1931 -0.1952  0.3929
  914SOL    HW1 2741   2.797   0.421   1.229 -0.4907 -1.1511 -1.8124
  914SOL    HW2 2742   2.781   0.580   1.308  3.4261  2.5985 -0.3721
  915SOL     OW 2743   1.227   0.789   1.009 -0.0146 -0.0328 -0.2363
  915SOL    HW1 2744   1.313   0.801   1.062 -0.2871 -0.5238 -0.0328
  915SOL    HW2 2745   1.138   0.819   1.059 -1.7608  1.6591  0.1067
  916SOL     OW 2746   0.546   0.037   0.655  0.1902  0.3048 -0.2018
  916SOL    HW1 2747   0.528   0.125   0.707 -0.0646  0.5269 -1.2101
  916SOL    HW2 2748   0.567   0.052   0.554 -0.6917 -4.8249 -1.5087
  917SOL     OW 2749   2.766   2.615   1.959 -0.4290  0.2300 -0.2992
  917SOL    HW1 2750   2.688   2.681   1.950  0.9608  2.2281 -0.2912
  917SOL    HW2 2751   2.857   2.661   1.938 -3.3464  0.0005 -0.5049
  918SOL     OW 2752   0.984   2.164   3.017  0.1779 -0.1684  0.6449
  918SOL    HW1 2753   0.936   2.182   3.111 -2.4275  0.2251  1.0890
  918SOL    HW2 2754   1.038   2.073   3.009 -0.1181 -0.5335  0.9502
  919SOL     OW 2755   0.936   1.594   2.777  0.3854  0.7065  0.1788
  919SOL    HW1 2756   0.965   1.677   2.722  0.8586 -1.7172  0.3856
  919SOL    HW2 2757   0.866   1.534   2.731  2.0368  2.3728  0.7517
  920SOL     OW 2758   1.242   2.043   2.496 -0.0544  0.6636  0.2474
  920SOL    HW1 2759   1.179   2.088   2.420 -1.6043  0.1095 -1.3580
  920SOL    HW2 2760   1.280   1.946   2.477 -0.5499 -1.0755 -1.0482
  921SOL     OW 2761   1.097   0.039   2.569 -0.5088  0.5186 -0.3774
  921SOL    HW1 2762   1.090   0.043   2.469 -0.6499  1.7354  1.7876
  921SOL    HW2 2763   1.016  -0.018   2.611 -0.1151 -0.7707  2.1677
  922SOL     OW 2764   2.198   2.370   2.788  0.4198 -0.2088 -0.1877
  922SOL    HW1 2765   2.182   2.269   2.764 -0.1720  1.2842 -1.4146
  922SOL    HW2 2766   2.138   2.435   2.730 -0.6242 -1.9072  0.3934
  923SOL     OW 2767   1.247   2.676   0.287  0.3731 -0.4064  0.3621
  923SOL    HW1 2768   1.320   2.723   0.350  3.5639 -0.0573 -0.2462
  923SOL    HW2 2769   1.276   2.585   0.249  1.1291  0.4756  1.2261
  924SOL     OW 2770   2.915   1.567   0.080 -0.3284  0.2529 -0.1685
  924SOL    HW1 2771   2.822   1.578   0.037  0.6602 -1.7154  0.6616
  924SOL    HW2 2772   2.988   1.526   0.015 -1.4259  1.4172 -0.5453
  925SOL     OW 2773   0.028   2.862   1.586  0.0865 -0.7234  0.6336
  925SOL    HW1 2774  -0.065   2.896   1.606  1.0756 -0.6018  2.5060
  925SOL    HW2 2775   0.070   2.902   1.498  0.2219  0.4019  0.0349
  926SOL     OW 2776   1.358   2.905   1.309  0.3999  0.6586  0.1270
  926SOL    HW1 2777   1.413   2.889   1.220  1.7022 -0.1607  0.6244
  926SOL    HW2 2778   1.390   2.981   1.372 -1.5567 -1.9167  1.9127
  927SOL     OW 2779   0.274   2.572   1.793  0.2367 -0.7800 -0.9356
  927SOL    HW1 2780   0.284   2.520   1.702 -0.7188 -0.9076  0.5627
  927SOL    HW2 2781   0.272   2.673   1.776 -2.6232  0.0859 -0.1653
  928SOL     OW 2782   1.546   2.016   2.133  0.0061 -0.1078  0.1408
  928SOL    HW1 2783   1.583   2.103   2.093  1.2542 -4.6047 -0.5488
  928SOL    HW2 2784   1.447   2.010   2.117  1.5696 -1.3811  0.7700
  929SOL     OW 2785   2.437   2.487   2.865  0.3602 -0.5312  0.1533
  929SOL    HW1 2786   2.356   2.424   2.853  3.7818  1.4698 -3.4282
  929SOL    HW2 2787   2.478   2.503   2.766 -1.2426 -0.6901 -1.8968
  930SOL     OW 2788   2.194   2.000   1.075  0.3213 -0.3657 -0.0102
  930SOL    HW1 2789   2.153   1.999   1.167  1.8347 -0.5383 -1.5520
  930SOL    HW2 2790   2.276   2.058   1.057 -2.1976  0.3886  0.6561
  931SOL     OW 2791   0.536   1.704   2.627 -0.2818  0.3098 -0.3749
  931SOL    HW1 2792   0.608   1.751   2.689  0.2680  2.3410  0.0036
  931SOL    HW2 2793   0.553   1.601   2.638  1.4686 -0.3598 -1.1701
  932SOL     OW 2794   0.466   0.082   2.917  0.0231  0.3811  0.4162
  932SOL    HW1 2795   0.561   0.111   2.890  2.0145  2.0329 -0.2305
  932SOL    HW2 2796   0.467  -0.012   2.957  3.9363  1.6729 -1.3426
  933SOL     OW 2797   1.041   0.801   2.991 -0.1130  0.2926  0.0146
  933SOL    HW1 2798   1.113   0.821   3.065  0.2245 -1.2442  1.5943
  933SOL    HW2 2799   0.997   0.888   2.951 -2.1449  0.1675 -0.1386
  934SOL     OW 2800   0.892   3.039   2.730 -0.4547  0.0177  0.2258
  934SOL    HW1 2801   0.906   2.966   2.658  2.0499  1.8273 -2.3817
  934SOL    HW2 2802   0.918   3.008   2.825 -0.8146  2.9890  0.1262
  935SOL     OW 2803   3.089   0.522   0.816 -0.0922 -0.1513  0.0288
  935SOL    HW1 2804   3.100   0.441   0.749  1.5722  0.2914 -2.9731
  935SOL    HW2 2805   3.012   0.583   0.802  0.0967 -2.1383  0.3507
  936SOL     OW 2806   1.094   2.904   0.156 -0.4327  0.1778  0.2048
  936SOL    HW1 2807   1.155   2.923   0.071 -0.3240  1.0471  1.7754
  936SOL    HW2 2808   1.138   2.831   0.216  0.8619 -2.5798  0.3178
  937SOL     OW 2809   1.900   2.614   2.095  0.5999 -0.1612 -0.6966
  937SOL    HW1 2810   1.831   2.678   2.131 -0.4622 -1.0548  2.6292
  937SOL    HW2 2811   1.927   2.640   2.000 -1.2914  0.2442  1.0834
  938SOL     OW 2812   2.757   2.146   1.505  1.1272  0.4345 -0.0820
  938SOL    HW1 2813   2.737   2.246   1.533  1.7632 -0.9686  0.4191
  938SOL    HW2 2814   2.841   2.107   1.546 -3.1259  0.1103  0.6745
  939SOL     OW 2815   2.815   1.152   2.464  0.0229 -1.1880  0.6510
  939SOL    HW1 2816   2.884   1.165   2.385  0.6086  0.6099 -0.1768
  939SOL    HW2 2817   2.860   1.170   2.557  1.1934  1.6808 -0.0467
  940SOL     OW 2818   1.038   0.446   2.646  0.2427  0.0984 -0.2763
  940SOL    HW1 2819   1.082   0.365   2.693  2.4047  0.7129  1.6605
  940SOL    HW2 2820   0.937   0.424   2.629  0.1550  5.4873 -4.5451
  941SOL     OW 2821   0.013   2.833   2.218  0.3512 -0.0516  0.0950
  941SOL    HW1 2822   0.018   2.728   2.215 -1.7823 -0.2455 -1.2388
  941SOL    HW2 2823   0.033   2.875   2.318 -1.8410 -0.6864 -0.4343
  942SOL     OW 2824   0.046   0.074   2.530  0.4624 -0.1683 -0.6629
  942SOL    HW1 2825   0.110   0.085   2.611  0.3491 -0.2898  1.4319
  942SOL    HW2 2826   0.027   0.159   2.477 -0.6379  0.0737  2.3750
  943SOL     OW 2827   2.107   1.661   2.435 -0.5821 -0.4321  0.0196
  943SOL    HW1 2828   2.094   1.585   2.367  3.6474  1.7459 -4.3130
  943SOL    HW2 2829   2.085   1.627   2.525  2.4071 -0.8594 -0.8512
  944SOL     OW 2830   2.179   2.358   1.470  0.0734  0.6301  0.2651
  944SOL    HW1 2831   2.259   2.410   1.507 -0.0327  3.5545 -0.6150
  944SOL    HW2 2832   2.128   2.304   1.549 -0.0820 -1.0378  1.3321
  945SOL     OW 2833   0.628   1.442   0.374 -0.6273 -1.3649 -0.0766
  945SOL    HW1 2834   0.677   1.509   0.310  0.7246 -1.0741 -1.0711
  945SOL    HW2 2835   0.644   1.340   0.352  0.3575 -2.2391 -2.5684
  946SOL     OW 2836   0.420   0.943   2.517 -0.7045 -0.1854 -0.7542
  946SOL    HW1 2837   0.338   0.920   2.460  1.3940  0.6683 -1.9440
  946SOL    HW2 2838   0.406   1.042   2.551  2.0315 -0.7430  0.1149
  947SOL     OW 2839   1.491   0.565   0.080 -0.6593 -0.4795  0.8935
  947SOL    HW1 2840   1.472   0.595  -0.018 -1.0892  0.9274 -1.1411
  947SOL    HW2 2841   1.410   0.522   0.123  0.4967  1.0785 -1.3587
  948SOL     OW 2842   2.001   3.081   2.210 -0.5133  0.1127  0.1750
  948SOL    HW1 2843   1.985   3.061   2.109 -2.3748  0.4663 -0.1209
  948SOL    HW2 2844   1.984   3.001   2.272 -0.9690  0.3520 -2.8414
  949SOL     OW 2845   0.647   2.531   0.498 -0.7495 -0.3531  0.1043
  949SOL    HW1 2846   0.661   2.624   0.448  1.3150 -0.8910 -2.8841
  949SOL    HW2 2847   0.640   2.534   0.604 -1.2849 -0.3119  0.1134
  950SOL     OW 2848   0.292   2.166   3.086  0.5078 -0.5392  0.0390
  950SOL    HW1 2849   0.214   2.226   3.059 -0.2683 -0.7942  3.9121
  950SOL    HW2 2850   0.277   2.071   3.053  1.9230 -0.1527  1.7468
  951SOL     OW 2851   1.169   2.879   2.722  0.2044 -0.0678  0.1824
  951SOL    HW1 2852   1.142   2.899   2.623 -0.5412 -0.0645 -1.6834
  951SOL    HW2 2853   1.259   2.914   2.749 -0.0888  0.0184  0.2195
  952SOL     OW 2854   0.068   1.617   0.456 -0.1110 -0.1232  0.3187
  952SOL    HW1 2855   0.137   1.701   0.449 -1.3352  0.0983 -1.7846
  952SOL    HW2 2856   0.069   1.564   0.547 -0.9866 -0.8140  1.9100
  953SOL     OW 2857   2.556   1.768   0.190  0.1903 -0.6693 -0.3439
  953SOL    HW1 2858   2.556   1.669   0.234  1.8729 -1.3147 -0.7658
  953SOL    HW2 2859   2.601   1.766   0.097  1.9589  0.4885 -2.7176
  954SOL     OW 2860   2.184   0.565   0.989 -0.1683  0.5918  0.0644
  954SOL    HW1 2861   2.146   0.574   0.890  0.3700  0.2297 -0.2822
  954SOL    HW2 2862   2.285   0.545   0.993  2.0552  1.2097  2.0366
  955SOL     OW 2863   0.209   2.687   1.375  0.2699 -1.1600 -0.2595
  955SOL    HW1 2864   0.108   2.667   1.369  0.8900 -0.8085  1.5893
  955SOL    HW2 2865   0.261   2.681   1.283  0.3672 -1.8293 -1.0367
  956SOL     OW 2866   2.770   2.470   2.463 -0.1042 -0.1382  0.1640
  956SOL    HW1 2867   2.777   2.366   2.464 -0.4000 -2.3303 -0.4685
  956SOL    HW2 2868   2.801   2.509   2.376 -2.9739 -0.1085  4.4664
  957SOL     OW 2869   1.588   2.030   2.723 -0.4020  0.5959 -0.4969
  957SOL    HW1 2870   1.564   1.930   2.718  2.1872  2.0409  0.8544
  957SOL    HW2 2871   1.565   2.081   2.632  2.2856  0.6282  0.0478
  958SOL     OW 2872   2.690   2.332   2.978 -0.4428  0.2058 -0.0651
  958SOL    HW1 2873   2.607   2.386   2.952 -0.8532 -1.4991  3.7533
  958SOL    HW2 2874   2.675   2.243   3.033 -2.1222  0.2724  0.8185
  959SOL     OW 2875   0.281   2.751   0.099  0.3376  0.5321 -0.7675
  959SOL    HW1 2876   0.180   2.735   0.116  2.2218 -0.1166 -0.0415
  959SOL    HW2 2877   0.336   2.690   0.162 -1.1704 -1.3883  0.4916
  960SOL     OW 2878   1.980   0.457   1.943 -0.0071  0.3674 -0.3411
  960SOL    HW1 2879   1.919   0.539   1.911 -0.6645  1.1765 -0.0643
  960SOL    HW2 2880   1.980   0.437   2.041  2.1805  1.9719 -0.6033
  961SOL     OW 2881   2.571   1.847   1.050  0.0266  0.0515  0.2095
  961SOL    HW1 2882   2.541   1.931   0.994 -0.8344  2.7848  1.8733
  961SOL    HW2 2883   2.543   1.861   1.149 -0.3292 -0.4366  0.4969
  962SOL     OW 2884   1.307   0.900   0.040  0.2281  0.3314 -0.4260
  962SOL    HW1 2885   1.289   0.966  -0.038 -1.1644 -0.3292  0.7509
  962SOL    HW2 2886   1.310   0.953   0.132  1.1178 -1.6924  1.7363
  963SOL     OW 2887   2.222   2.581   1.853 -0.0150  0.8013  0.1359
  963SOL    HW1 2888   2.247   2.500   1.914 -3.0161  0.6465 -1.5614
  963SOL    HW2 2889   2.252   2.672   1.887  0.9572  0.2641  1.4391
  964SOL     OW 2890   2.412   0.390   1.679  0.3384 -0.1952 -0.3759
  964SOL    HW1 2891   2.509   0.416   1.700 -0.7603 -2.4940 -1.4715
  964SOL    HW2 2892   2.384   0.370   1.582 -1.2809 -0.7068 -0.9763
  965SOL     OW 2893   2.594   3.086   0.211 -0.6810 -0.8788 -0.3016
  965SOL    HW1 2894   2.658   3.072   0.134  1.1026  0.5291 -0.4648
  965SOL    HW2 2895   2.502   3.046   0.175  0.2048 -1.4790  3.0622
  966SOL     OW 2896   2.480   2.496   2.274  0.3751  0.4103 -0.2096
  966SOL    HW1 2897   2.381   2.501   2.301  1.2000 -0.2599 -4.0215
  966SOL    HW2 2898   2.527   2.590   2.279 -0.2538 -0.2634 -0.3633
  967SOL     OW 2899   2.808   2.804   2.495 -0.8756 -0.0509  0.1756
  967SOL    HW1 2900   2.853   2.743   2.426  0.5626 -0.7162 -0.6355
  967SOL    HW2 2901   2.872   2.877   2.530 -3.8902 -0.7949  2.0472
  968SOL     OW 2902   1.931   1.066   2.675  0.2066 -0.3178  0.5773
  968SOL    HW1 2903   1.894   1.146   2.613 -0.7352  4.3715 -2.8674
  968SOL    HW2 2904   1.944   0.974   2.624  3.3818  0.5809 -2.0635
  969SOL     OW 2905   2.738   2.423   1.080 -0.6805 -0.9101  0.1894
  969SOL    HW1 2906   2.671   2.403   1.004 -0.5536  0.6779 -1.2817
  969SOL    HW2 2907   2.803   2.343   1.103  3.8192  0.6736 -2.9530
  970SOL     OW 2908   1.053   2.114   1.765  0.2400 -0.0678 -0.0471
  970SOL    HW1 2909   0.959   2.125   1.720 -0.0558 -0.0038 -1.1172
  970SOL    HW2 2910   1.056   2.158   1.861 -0.4705  1.3611  1.5089
  971SOL     OW 2911   2.790   2.102   1.892  0.1290  0.2103  0.3443
  971SOL    HW1 2912   2.817   2.202   1.907  1.3492  0.3871  2.8169
  971SOL    HW2 2913   2.835   2.067   1.804  0.7171 -0.4518 -0.0051
  972SOL     OW 2914   2.054   2.397   0.235  0.0471 -0.1956  0.1156
  972SOL    HW1 2915   1.999   2.321   0.195  1.4792  1.6278  1.7368
  972SOL    HW2 2916   2.048   2.390   0.338  1.1763 -2.0338 -1.5434
  973SOL     OW 2917   1.313   1.079   1.967 -0.2502 -0.1050  0.7148
  973SOL    HW1 2918   1.257   1.049   1.882 -0.2894 -0.6610  2.6371
  973SOL    HW2 2919   1.290   1.176   2.011  0.8319  0.0974 -1.2812
  974SOL     OW 2920   1.603   0.604   1.935  0.1834 -0.1229  0.0236
  974SOL    HW1 2921   1.685   0.651   1.901 -1.5244  1.6576  0.8901
  974SOL    HW2 2922   1.520   0.665   1.921 -0.1607 -2.8181 -2.2096
  975SOL     OW 2923   2.374   3.030   0.013  0.1106  0.1231 -0.4773
  975SOL    HW1 2924   2.311   2.952   0.035 -2.0504  1.2390 -0.5189
  975SOL    HW2 2925   2.404   3.025  -0.090 -1.3173 -1.1124  1.1010
  976SOL     OW 2926   1.935   2.856   2.356 -0.0876 -0.7499 -0.3221
  976SOL    HW1 2927   1.843   2.817   2.323 -0.0527  0.4833 -0.2374
  976SOL    HW2 2928   1.963   2.818   2.449  0.3903 -0.6952  4.9046
  977SOL     OW 2929   0.441   0.608   1.023  0.1553 -0.0993  0.0075
  977SOL    HW1 2930   0.357   0.601   0.956  0.5793 -1.2498 -2.2313
  977SOL    HW2 2931   0.524   0.577   0.976 -0.5681 -0.2890  3.7149
   3.10000   3.10000   3.10000
