1000 SPC/Fw water molecules t=   1.02000 step= 1020
 2931
    1SOL     OW    1   2.578   0.334   2.647  0.2733  0.6500 -0.0924
    1SOL    HW1    2   2.542   0.236   2.663 -0.7640 -0.4460 -0.2576
    1SOL    HW2    3   2.629   0.378   2.728  1.0335  2.6276  1.0378
    2SOL     OW    4   2.700   3.047   1.421 -0.2212 -0.0205 -0.0888
    2SOL    HW1    5   2.776   3.069   1.348  3.7435  0.1847 -0.9668
    2SOL    HW2    6   2.685   3.123   1.490  0.8371 -0.4214  0.6390
    3SOL     OW    7   2.661   2.635   0.438 -0.8170  0.1048 -0.3929
    3SOL    HW1    8   2.622   2.537   0.455 -3.6196  0.3177 -1.0642
    3SOL    HW2    9   2.759   2.649   0.478 -1.5798 -2.1038 -1.4556
    4SOL     OW   10   1.228   1.546   2.310  0.1728  0.5043 -0.2138
    4SOL    HW1   11   1.145   1.575   2.249 -1.9240  0.7184  0.2762
    4SOL    HW2   12   1.224   1.442   2.329 -1.3732 -3.6146 -1.7503
    5SOL     OW   13   1.161   1.499   3.071 -0.1978  0.5003 -0.0146
    5SOL    HW1   14   1.229   1.568   3.104 -1.1730  2.5466 -2.4534
    5SOL    HW2   15   1.064   1.521   3.103  0.1859  0.0639  0.0122
    6SOL     OW   16   0.163   1.754   2.980  0.5716 -0.9158  0.3939
    6SOL    HW1   17   0.070   1.769   3.036 -1.3744  0.9192 -0.1621
    6SOL    HW2   18   0.236   1.719   3.046  0.6924  1.6318 -0.7225
    7SOL     OW   19   2.593   0.901   1.086  0.0821 -0.1433 -0.0332
    7SOL    HW1   20   2.495   0.901   1.126  0.3625  0.7110  1.6637
    7SOL    HW2   21   2.590   0.880   0.982 -0.7883 -1.3582  1.2258
    8SOL     OW   22   0.395   0.661   1.531  0.1798 -0.3055 -0.2328
    8SOL    HW1   23   0.476   0.621   1.580  1.0239  0.7611 -2.0151
    8SOL    HW2   24   0.387   0.626   1.431  1.4967 -0.6222  0.6983
    9SOL     OW   25   1.188   0.888   2.419 -0.1335  0.0180  0.2426
    9SOL    HW1   26   1.215   0.899   2.315  1.9693 -2.2239  0.1679
    9SOL    HW2   27   1.152   0.788   2.446  1.2138 -1.4115 -0.0243
   10SOL     OW   28   0.673   1.368   1.296  0.2255  0.3128  0.4946
   10SOL    HW1   29   0.592   1.380   1.237  1.3190 -1.0106 -1.6462
   10SOL    HW2   30   0.723   1.455   1.322 -0.4849 -2.7789  1.1069
   11SOL     OW   31   2.308   2.800   0.843  0.0147 -0.0425  0.6258
   11SOL    HW1   32   2.282   2.810   0.942 -3.0118 -1.7962  0.4324
   11SOL    HW2   33   2.407   2.806   0.832  0.0750 -0.3247  1.6966
   12SOL     OW   34   1.502   0.908   0.341  0.5608  0.0201  0.2579
   12SOL    HW1   35   1.449   0.965   0.272  0.4835  1.9359  2.1394
   12SOL    HW2   36   1.531   0.814   0.302 -0.3468 -0.8551 -1.3123
   13SOL     OW   37   2.496   0.726   1.768 -0.4806 -0.0586  0.2746
   13SOL    HW1   38   2.422   0.669   1.811  0.7122 -1.3106 -1.5781
   13SOL    HW2   39   2.499   0.719   1.665 -0.7448  0.4266  3.2083
   14SOL     OW   40   1.879   0.107   0.676 -0.4406 -0.0568 -0.3144
   14SOL    HW1   41   1.795   0.105   0.615 -1.2950 -0.0834  1.3756
   14SOL    HW2   42   1.860   0.046   0.757  1.2806  0.4571  1.6205
   15SOL     OW   43   1.961   2.102   2.720 -0.2551 -0.0663 -0.0669
   15SOL    HW1   44   1.890   2.177   2.729 -1.0079  1.1610  1.5749
   15SOL    HW2   45   1.922   2.019   2.671 -1.4043 -0.0760  1.5666
   16SOL     OW   46   1.616   1.706   2.974  0.0775 -0.2539 -0.0254
   16SOL    HW1   47   1.607   1.615   3.025  0.6652 -2.8685 -0.5071
   16SOL    HW2   48   1.713   1.737   2.970  0.9122  0.6774  0.6598
   17SOL     OW   49   0.116   0.478   0.164  0.1874 -0.3307 -0.3209
   17SOL    HW1   50   0.207   0.511   0.129 -3.4454 -0.2226  0.9604
   17SOL    HW2   51   0.040   0.481   0.095  0.2818  0.1247 -1.7552
   18SOL     OW   52   0.949   2.905   2.152 -0.3215  0.7403  0.1678
   18SOL    HW1   53   0.866   2.847   2.138 -0.4958  2.7258 -1.0670
   18SOL    HW2   54   1.028   2.865   2.092  1.8869 -1.8592  1.3303
   19SOL     OW   55   0.554   0.834   1.890 -0.1799 -0.2382 -0.4761
   19SOL    HW1   56   0.580   0.769   1.969 -0.6004 -1.5391  0.2082
   19SOL    HW2   57   0.612   0.915   1.871 -0.1822  0.3753  4.3703
   20SOL     OW   58   0.179   2.744   0.835  0.0345  1.2306  0.4590
   20SOL    HW1   59   0.084   2.770   0.803  0.1957  0.3578  3.1727
   20SOL    HW2   60   0.222   2.673   0.775 -1.1338  1.0765  2.0418
   21SOL     OW   61   2.719   0.268   2.043 -0.1305  0.3194 -0.4990
   21SOL    HW1   62   2.667   0.194   1.997 -0.1405 -1.9409  1.9259
   21SOL    HW2   63   2.815   0.233   2.076  2.5956  1.3212  0.6136
   22SOL     OW   64   2.356   0.269   0.151 -0.1178 -0.6582 -0.4225
   22SOL    HW1   65   2.374   0.172   0.131  0.3744  2.2368  0.3969
   22SOL    HW2   66   2.264   0.302   0.112 -0.3778 -1.2641 -3.0133
   23SOL     OW   67   2.785   0.585   0.612 -0.0789 -0.4782 -0.5532
   23SOL    HW1   68   2.790   0.489   0.641 -0.0188 -0.9730 -1.1498
   23SOL    HW2   69   2.758   0.589   0.516  0.6793  0.0520  1.6236
   24SOL     OW   70   0.192   1.920   0.389 -0.1571  0.8589 -0.2203
   24SOL    HW1   71   0.158   1.992   0.330  2.8664 -2.4688  2.4579
   24SOL    HW2   72   0.286   1.888   0.363 -0.8587  0.4761  0.1530
   25SOL     OW   73   2.235   0.606   0.230  0.0238  0.0353  0.0398
   25SOL    HW1   74   2.247   0.610   0.128  0.3483 -0.4331  2.8242
   25SOL    HW2   75   2.313   0.560   0.277  2.2549 -0.6013 -1.1524
   26SOL     OW   76   2.496   2.141   2.069 -0.2574  0.4994 -0.1806
   26SOL    HW1   77   2.570   2.193   2.112  1.1529  0.5423 -1.5089
   26SOL    HW2   78   2.533   2.074   2.002  1.6600 -1.8770  0.6041
   27SOL     OW   79   0.586   2.910   0.206  0.2166 -0.1315  0.3211
   27SOL    HW1   80   0.688   2.929   0.192 -2.1623  0.5492 -1.3883
   27SOL    HW2   81   0.528   2.925   0.120  0.2327  3.7505  0.5109
   28SOL     OW   82   1.562   0.204   0.286 -0.1344 -0.0858 -0.0111
   28SOL    HW1   83   1.608   0.168   0.199 -1.3038  0.8571 -0.2265
   28SOL    HW2   84   1.612   0.287   0.324  2.7216 -3.1391 -0.2894
   29SOL     OW   85   1.974   0.623   0.365  0.1859 -0.3888 -0.4836
   29SOL    HW1   86   1.974   0.699   0.434 -0.2584 -0.1581 -1.1585
   29SOL    HW2   87   2.052   0.617   0.297 -2.2508 -3.0414  0.6108
   30SOL     OW   88   0.163   1.964   0.913  0.0105 -0.4279  0.9054
   30SOL    HW1   89   0.108   1.950   0.825 -0.3171  0.7068 -0.3484
   30SOL    HW2   90   0.118   2.037   0.966  2.1855  0.8378  0.1121
   31SOL     OW   91   2.131   3.081   2.362  0.3765 -0.0306 -0.2888
   31SOL    HW1   92   2.110   3.083   2.466  1.6052 -2.9296  2.9829
   31SOL    HW2   93   2.044   3.072   2.305 -2.0647 -0.0045  2.6140
   32SOL     OW   94   2.982   0.022   0.247  0.1686 -0.3561  0.2327
   32SOL    HW1   95   2.981  -0.081   0.217 -1.9650 -0.2536  0.1864
   32SOL    HW2   96   3.051   0.088   0.210  1.3708  0.3474  0.4558
   33SOL     OW   97   0.912   0.322   0.581 -0.5155  0.2170  0.1823
   33SOL    HW1   98   0.893   0.231   0.530 -1.1958  0.5485 -1.0667
   33SOL    HW2   99   1.014   0.337   0.602  1.8516  2.0924 -1.6010
   34SOL     OW  100   0.332   2.759   1.090 -0.3243 -0.0856 -0.2241
   34SOL    HW1  101   0.304   2.747   0.990  2.1031 -1.5122 -1.2800
   34SOL    HW2  102   0.435   2.783   1.110  3.2201 -1.4565  2.2809
   35SOL     OW  103   0.035   0.085   1.897 -0.2076  0.2173 -0.0884
   35SOL    HW1  104   0.032  -0.018   1.877  0.1590  0.2573 -0.6861
   35SOL    HW2  105  -0.016   0.141   1.822 -0.0165  1.0266 -0.6920
   36SOL     OW  106   1.932   1.311   1.691  0.2664  0.3322 -0.6739
   36SOL    HW1  107   1.987   1.226   1.694 -1.5195  1.1534  1.6342
   36SOL    HW2  108   1.952   1.363   1.602 -2.9719  1.7368 -2.8589
   37SOL     OW  109   1.181   0.222   0.986  0.4027 -0.2931 -0.0891
   37SOL    HW1  110   1.236   0.299   1.033 -0.6767 -1.7220 -0.2813
   37SOL    HW2  111   1.240   0.143   0.954 -1.4636  0.0778 -0.0273
   38SOL     OW  112   1.109   2.860   2.474  0.7109 -0.1733 -0.4219
   38SOL    HW1  113   1.080   2.778   2.413  0.4204  1.5650 -0.2195
   38SOL    HW2  114   1.090   2.950   2.434  3.9021  0.1074  1.2554
   39SOL     OW  115   2.306   1.464   3.063  0.0628  0.2053 -0.3638
   39SOL    HW1  116   2.361   1.378   3.065  2.0973  0.2519 -0.6619
   39SOL    HW2  117   2.260   1.480   3.154  1.7687  0.3487  1.3019
   40SOL     OW  118   2.011   2.434   2.553 -0.2433  0.0839  0.2580
   40SOL    HW1  119   2.009   2.536   2.530  1.0296 -1.1272  0.5935
   40SOL    HW2  120   1.955   2.381   2.486  2.2237 -0.4856  0.5678
   41SOL     OW  121   3.033   0.693   2.811 -0.3290 -0.1441 -0.4565
   41SOL    HW1  122   2.988   0.766   2.752 -0.0484 -3.1215  1.0092
   41SOL    HW2  123   2.993   0.601   2.780  0.7793  1.1475 -1.6145
   42SOL     OW  124   1.783   1.785   0.518 -0.2780  0.7638  0.1317
   42SOL    HW1  125   1.741   1.686   0.506  1.1859  0.4352 -0.5653
   42SOL    HW2  126   1.822   1.827   0.429  0.1459 -0.6445 -1.9123
   43SOL     OW  127   0.429   1.675   1.132 -0.0909 -0.1015 -0.0468
   43SOL    HW1  128   0.425   1.578   1.177  0.5762  1.7415  2.4145
   43SOL    HW2  129   0.339   1.718   1.136  0.4562  0.2937 -0.4716
   44SOL     OW  130   1.747   2.439   3.012 -0.0463 -0.9382 -0.1881
   44SOL    HW1  131   1.696   2.523   2.992  0.5679 -0.1322 -2.2521
   44SOL    HW2  132   1.775   2.388   2.929  2.5175  1.2005 -0.4059
   45SOL     OW  133   0.374   1.889   2.619  0.0825 -0.5344 -0.0002
   45SOL    HW1  134   0.355   1.888   2.514 -2.6587 -2.5356 -1.2719
   45SOL    HW2  135   0.437   1.810   2.644 -0.7717  0.6272 -0.6900
   46SOL     OW  136   1.222   0.628   0.146 -0.0272 -0.8542 -0.1913
   46SOL    HW1  137   1.282   0.714   0.148  1.1279  0.5275  1.6297
   46SOL    HW2  138   1.142   0.634   0.207 -1.2412 -0.9995 -4.3491
   47SOL     OW  139   0.200   2.531   1.552  0.0847  0.7280 -0.0998
   47SOL    HW1  140   0.154   2.443   1.567  1.6004 -0.9174  2.2650
   47SOL    HW2  141   0.193   2.563   1.454  1.3444  0.4666  0.8195
   48SOL     OW  142   2.633   0.628   0.146  0.4075  0.2235  0.1659
   48SOL    HW1  143   2.635   0.577   0.240 -3.1668  1.2004  2.5392
   48SOL    HW2  144   2.716   0.685   0.131  0.0606 -0.7239  1.5827
   49SOL     OW  145   0.318   0.762   1.769  0.6957 -0.5541 -0.2169
   49SOL    HW1  146   0.403   0.800   1.817 -0.6830 -0.5532  1.2364
   49SOL    HW2  147   0.339   0.730   1.672  0.3697  0.3079 -1.2442
   50SOL     OW  148   1.672   1.121   0.337 -0.2527 -0.2594  0.0826
   50SOL    HW1  149   1.617   1.039   0.315  0.5262  1.0699 -0.7549
   50SOL    HW2  150   1.646   1.143   0.432  0.7942  0.3746 -1.2976
   51SOL     OW  151   2.896   1.781   0.244  0.8015  0.0356 -0.0337
   51SOL    HW1  152   2.890   1.691   0.196  0.0063 -0.9564 -1.5817
   51SOL    HW2  153   2.966   1.766   0.319 -2.0927 -2.4634 -0.5925
   52SOL     OW  154   0.802   2.053   0.533  0.1871  0.6178  0.5905
   52SOL    HW1  155   0.703   2.070   0.543 -1.0959  0.2905 -1.5782
   52SOL    HW2  156   0.837   1.992   0.610  1.3341  1.6829  0.8280
   53SOL     OW  157   0.185   0.422   1.598 -0.2586  0.3026 -0.0687
   53SOL    HW1  158   0.281   0.458   1.603  0.1234  0.0458 -0.5123
   53SOL    HW2  159   0.119   0.479   1.543  2.3102  1.9854 -1.9723
   54SOL     OW  160   1.810   0.523   3.093  0.2693 -0.0185 -0.0234
   54SOL    HW1  161   1.869   0.482   3.165 -1.2072  2.3499 -1.3563
   54SOL    HW2  162   1.705   0.505   3.095  0.2936 -0.3434 -2.6965
   55SOL     OW  163   0.749   2.908   0.687  0.1317  0.4857  0.1334
   55SOL    HW1  164   0.703   2.999   0.687  1.3525 -2.2698 -0.1673
   55SOL    HW2  165   0.814   2.893   0.611 -2.6241  2.1155  0.2416
   56SOL     OW  166   0.583   1.564   0.028  0.3108  0.0489  0.0423
   56SOL    HW1  167   0.497   1.621   0.011  3.0526  1.5281 -0.6435
   56SOL    HW2  168   0.580   1.474  -0.018 -0.6244 -0.4275  0.0612
   57SOL     OW  169   1.751   2.531   2.399  0.2111 -0.4136 -0.6298
   57SOL    HW1  170   1.783   2.430   2.387 -0.4981  0.8317 -0.6578
   57SOL    HW2  171   1.662   2.530   2.449 -1.4293  2.0787  0.9577
   58SOL     OW  172   0.694   0.276   1.067  0.5590 -0.3872 -0.1591
   58SOL    HW1  173   0.604   0.311   1.114 -4.3951 -0.4480  1.2331
   58SOL    HW2  174   0.705   0.171   1.067  2.1874 -1.8928  3.3584
   59SOL     OW  175   0.414   2.349   2.729 -0.6895 -0.9516 -0.0398
   59SOL    HW1  176   0.456   2.258   2.693 -2.6210 -0.0846 -1.0581
   59SOL    HW2  177   0.482   2.411   2.782  1.5436  1.7850  0.4676
   60SOL     OW  178   2.308   2.068   2.252  0.1440 -0.1021  0.2522
   60SOL    HW1  179   2.380   2.110   2.191  0.3043  0.0943 -1.2192
   60SOL    HW2  180   2.321   2.106   2.347  0.6439  1.2743  3.2466
   61SOL     OW  181   1.324   0.659   0.449 -0.2749 -0.2792 -0.6217
   61SOL    HW1  182   1.247   0.720   0.475  1.6617  0.4342  0.2936
   61SOL    HW2  183   1.328   0.630   0.348  0.5822 -1.1394  1.3950
   62SOL     OW  184   2.705   1.827   2.937  0.0741  0.3167  0.0170
   62SOL    HW1  185   2.651   1.785   2.860 -1.0081  1.2571 -2.2459
   62SOL    HW2  186   2.797   1.788   2.959 -1.7102 -1.6146 -0.5271
   63SOL     OW  187   0.521   0.812   0.197 -0.6304 -0.1218  0.1167
   63SOL    HW1  188   0.590   0.883   0.162 -0.0858 -2.4162  0.0882
   63SOL    HW2  189   0.535   0.792   0.297  0.1268  1.2367 -1.4344
   64SOL     OW  190   0.078   0.434   2.472 -0.0043 -0.4274  0.2129
   64SOL    HW1  191   0.130   0.474   2.547 -0.2227  1.1685  2.1737
   64SOL    HW2  192   0.037   0.508   2.412  2.1984 -0.6400 -3.8266
   65SOL     OW  193   0.135   1.520   0.592  0.2678  0.0139  0.4717
   65SOL    HW1  194   0.145   1.579   0.677  0.8700  1.1775  2.6864
   65SOL    HW2  195   0.232   1.498   0.556  3.1026 -0.1630  1.8404
   66SOL     OW  196   2.549   0.365   0.588 -0.2076 -0.0888  0.1868
   66SOL    HW1  197   2.644   0.369   0.629  0.7457  0.5116 -2.6858
   66SOL    HW2  198   2.485   0.298   0.638 -1.7462 -2.1872 -2.9174
   67SOL     OW  199   0.561   2.526   1.431  0.0507 -0.1370  0.4626
   67SOL    HW1  200   0.644   2.489   1.481 -0.2365 -1.9530 -0.6044
   67SOL    HW2  201   0.480   2.459   1.420 -2.6150  0.5974  2.2958
   68SOL     OW  202   1.017   1.102   2.491 -0.2572  0.2416  0.1800
   68SOL    HW1  203   1.056   1.009   2.477 -1.5725 -0.1714  2.5573
   68SOL    HW2  204   0.947   1.122   2.422 -0.1153 -0.4343  1.3743
   69SOL     OW  205   0.731   2.755   2.137 -0.1731  0.9132  0.2237
   69SOL    HW1  206   0.757   2.651   2.136  1.5312 -3.6369  2.8851
   69SOL    HW2  207   0.628   2.768   2.148  0.1157 -0.8798  0.7873
   70SOL     OW  208   0.487   0.235   2.661 -0.4114 -0.1836 -0.5009
   70SOL    HW1  209   0.381   0.241   2.676 -1.3904  2.4523 -3.6750
   70SOL    HW2  210   0.522   0.137   2.666 -0.3283 -1.2683 -0.4599
   71SOL     OW  211   1.113   1.769   0.447  0.3270 -0.1280  0.1269
   71SOL    HW1  212   1.059   1.693   0.499 -0.7620  0.6810 -0.7750
   71SOL    HW2  213   1.098   1.779   0.347  2.8587  1.6723 -2.8029
   72SOL     OW  214   1.816   0.208   2.140  0.0616 -0.3616  0.1991
   72SOL    HW1  215   1.893   0.272   2.120  1.9871  1.1692 -0.5200
   72SOL    HW2  216   1.845   0.112   2.150 -0.1937  4.3460 -1.6339
   73SOL     OW  217   2.812   2.178   2.403 -0.1884  0.1933 -0.2566
   73SOL    HW1  218   2.801   2.082   2.366  2.6850 -0.0197  1.8574
   73SOL    HW2  219   2.876   2.178   2.491  3.8448  0.7571  1.2555
   74SOL     OW  220   2.690   2.863   2.141 -0.2230 -0.4085  0.0003
   74SOL    HW1  221   2.676   2.799   2.222  0.1518 -0.5434  4.2151
   74SOL    HW2  222   2.786   2.886   2.132 -3.2677 -0.7264 -1.8991
   75SOL     OW  223   0.951   0.851   1.096 -0.5407  0.2442 -0.0975
   75SOL    HW1  224   0.871   0.900   1.051  0.5967 -0.2791  0.0101
   75SOL    HW2  225   0.969   0.901   1.187 -1.7976  1.7841  0.0912
   76SOL     OW  226   1.727   1.197   2.508 -0.1669  0.2790  0.1035
   76SOL    HW1  227   1.624   1.172   2.503 -0.6510  0.8079  0.5538
   76SOL    HW2  228   1.734   1.293   2.547 -1.3461 -1.9611  0.0995
   77SOL     OW  229   2.939   0.939   0.980 -0.2841 -0.1268  0.4160
   77SOL    HW1  230   2.912   0.838   0.966 -3.3249  0.5629  0.7459
   77SOL    HW2  231   2.986   0.953   1.075  1.9304 -3.7692  1.9317
   78SOL     OW  232   2.007   1.468   1.457 -0.0853 -0.1773  0.2056
   78SOL    HW1  233   2.088   1.531   1.427 -0.2076  1.2386 -1.6777
   78SOL    HW2  234   1.949   1.440   1.373 -0.7851 -1.9889  0.6363
   79SOL     OW  235   0.612   1.379   0.808 -0.7328  0.2933 -0.4965
   79SOL    HW1  236   0.523   1.364   0.853  3.7221  0.3768  1.0396
   79SOL    HW2  237   0.611   1.349   0.709 -1.4813 -0.7898 -0.5817
   80SOL     OW  238   0.623   0.499   1.566  0.3209  0.3403  0.0289
   80SOL    HW1  239   0.671   0.555   1.495  0.1430  0.6064 -0.1755
   80SOL    HW2  240   0.637   0.395   1.547 -2.7003  0.0302 -0.3927
   81SOL     OW  241   1.029   1.343   2.631  0.0404 -0.3018 -0.2699
   81SOL    HW1  242   1.036   1.242   2.611  0.7364 -0.9947 -0.1247
   81SOL    HW2  243   0.965   1.390   2.563  2.5250  3.9759  0.7590
   82SOL     OW  244   0.974   3.002   1.531  0.0887  0.2135  0.7955
   82SOL    HW1  245   0.874   3.011   1.504 -1.8611  0.4357  1.9742
   82SOL    HW2  246   1.028   2.956   1.455 -2.0488 -0.0432  0.2842
   83SOL     OW  247   2.657   2.401   0.830 -0.1930 -0.0908  0.3449
   83SOL    HW1  248   2.584   2.345   0.776 -3.0895  0.0548 -1.7633
   83SOL    HW2  249   2.646   2.503   0.818 -2.1035 -2.6075  0.3507
   84SOL     OW  250   0.639   3.052   2.327  0.0887  0.0653 -0.4807
   84SOL    HW1  251   0.542   3.061   2.357 -0.9555 -0.5535  3.6792
   84SOL    HW2  252   0.689   2.979   2.379 -2.1580  0.6055  0.4500
   85SOL     OW  253   0.278   1.599   1.457 -0.1796 -0.3208 -0.6131
   85SOL    HW1  254   0.258   1.698   1.445 -1.9368 -0.4807 -2.0926
   85SOL    HW2  255   0.356   1.590   1.524  0.2061  1.8030 -1.3730
   86SOL     OW  256   0.426   0.997   1.540  0.5674 -0.0700 -0.2339
   86SOL    HW1  257   0.402   0.930   1.462  1.7862 -0.1780  0.3458
   86SOL    HW2  258   0.522   0.974   1.578  1.6231  1.2431 -0.8925
   87SOL     OW  259   1.569   0.658   0.202  0.0712 -0.0924  0.1377
   87SOL    HW1  260   1.659   0.716   0.188 -0.1678 -1.1526 -1.7743
   87SOL    HW2  261   1.557   0.584   0.132 -0.4398  1.8178  1.8779
   88SOL     OW  262   1.575   1.370   0.274 -0.4272 -0.5952  0.0650
   88SOL    HW1  263   1.622   1.278   0.279 -0.1241  1.4327 -0.7716
   88SOL    HW2  264   1.471   1.365   0.278 -0.2568 -0.0809  0.0701
   89SOL     OW  265   3.079   0.462   0.594 -0.1077  0.0436  0.0796
   89SOL    HW1  266   3.143   0.403   0.535  1.3373 -2.2680  0.4980
   89SOL    HW2  267   2.992   0.407   0.627 -2.2089 -2.8822  0.2944
   90SOL     OW  268   0.910   1.572   0.090  0.1680  0.0119 -0.2303
   90SOL    HW1  269   0.873   1.539   0.180 -0.3102  1.1876  0.0498
   90SOL    HW2  270   0.837   1.578   0.014  0.3811 -0.3409 -1.6687
   91SOL     OW  271   1.231   1.456   1.828 -0.5345  0.1343 -0.5863
   91SOL    HW1  272   1.210   1.554   1.856  0.6388  2.8605 -1.5128
   91SOL    HW2  273   1.327   1.437   1.797 -1.2046 -1.6919  2.4731
   92SOL     OW  274   3.068   0.938   1.236 -0.2738 -0.4432  0.0831
   92SOL    HW1  275   3.118   1.018   1.190  0.7989 -0.1079  0.2095
   92SOL    HW2  276   3.067   0.944   1.341  0.2514 -1.6693  0.5931
   93SOL     OW  277   0.020   2.742   3.091  0.1134 -0.0467  0.7138
   93SOL    HW1  278  -0.047   2.741   3.011  0.3094  2.5066  0.0149
   93SOL    HW2  279   0.022   2.653   3.141 -0.5304 -0.2762  0.3417
   94SOL     OW  280   1.512   1.453   1.765  0.7377 -0.0805  0.7783
   94SOL    HW1  281   1.577   1.374   1.780 -0.9682 -1.0232  0.5500
   94SOL    HW2  282   1.526   1.527   1.837 -1.5212  4.0348  0.1612
   95SOL     OW  283   1.425   2.513   3.009 -0.3612  0.2336  0.4582
   95SOL    HW1  284   1.330   2.532   3.035  3.4360 -0.8719  1.3082
   95SOL    HW2  285   1.434   2.427   2.951 -1.0355 -0.9022  0.1064
   96SOL     OW  286   0.555   2.101   1.256  0.2052 -0.3787  0.4797
   96SOL    HW1  287   0.504   2.047   1.182 -0.2987 -1.3157  0.7098
   96SOL    HW2  288   0.613   2.044   1.319  1.5352  0.9551  2.3079
   97SOL     OW  289   0.415   1.649   2.435 -0.9334 -0.2903  0.0027
   97SOL    HW1  290   0.313   1.634   2.421 -3.1790 -1.5786 -0.5102
   97SOL    HW2  291   0.446   1.636   2.536 -3.9211 -2.0820  1.2881
   98SOL     OW  292   2.030   1.651   1.180 -0.0956  0.1074 -0.5932
   98SOL    HW1  293   1.943   1.588   1.175  0.7861  0.4410 -0.3034
   98SOL    HW2  294   2.118   1.603   1.155 -1.3611  0.8053  0.2189
   99SOL     OW  295   2.513   2.026   1.303  0.2622  0.2299 -0.1720
   99SOL    HW1  296   2.519   2.071   1.396  0.6664  0.1516 -0.9743
   99SOL    HW2  297   2.471   1.931   1.302  1.0555  0.8429  0.2291
  100SOL     OW  298   2.362   0.342   2.091 -0.4741  0.4379 -0.5459
  100SOL    HW1  299   2.278   0.337   2.151  2.0384  3.7124 -0.1749
  100SOL    HW2  300   2.429   0.400   2.141 -1.6722 -1.0716  0.6673
  101SOL     OW  301   0.421   1.465   0.456  0.2641  0.4687  0.2712
  101SOL    HW1  302   0.411   1.568   0.465  1.4587  0.8345  0.3231
  101SOL    HW2  303   0.519   1.436   0.459 -2.2769 -0.6797  0.2476
  102SOL     OW  304   2.226   1.028   0.829 -0.0080  0.0022  0.0617
  102SOL    HW1  305   2.140   0.995   0.772 -1.3130  1.3178 -3.1806
  102SOL    HW2  306   2.302   1.074   0.781  2.1417 -2.6583  0.0748
  103SOL     OW  307   2.231   0.077   0.398 -0.3739 -0.3227 -0.3714
  103SOL    HW1  308   2.247   0.141   0.321 -0.4717 -1.8922 -0.1335
  103SOL    HW2  309   2.313   0.063   0.464  0.6614  1.9532  0.9877
  104SOL     OW  310   0.100   1.781   2.182 -0.1127  0.4844 -0.2816
  104SOL    HW1  311   0.132   1.767   2.083  2.0388 -2.3691 -0.5418
  104SOL    HW2  312   0.003   1.815   2.181  2.2536 -2.1009 -0.8070
  105SOL     OW  313   1.269   2.081   0.772 -0.0351  0.0368 -0.2459
  105SOL    HW1  314   1.263   2.098   0.670  2.7184  1.7254 -0.6207
  105SOL    HW2  315   1.327   1.996   0.796  0.1464  0.3269  3.0639
  106SOL     OW  316   2.115   0.421   1.398  0.4022 -0.0642 -0.0728
  106SOL    HW1  317   2.101   0.320   1.420  0.8521 -1.0112 -0.5276
  106SOL    HW2  318   2.107   0.482   1.482  0.9476 -2.3774  1.6407
  107SOL     OW  319   1.852   2.953   1.226  0.7847  0.2914  0.2414
  107SOL    HW1  320   1.822   3.032   1.285  1.6101 -1.6726 -1.6366
  107SOL    HW2  321   1.780   2.881   1.225  0.4708  1.4488  0.4890
  108SOL     OW  322   0.764   2.780   1.267  0.0189  0.3084 -0.0362
  108SOL    HW1  323   0.752   2.716   1.347  0.9052 -1.1504  1.2417
  108SOL    HW2  324   0.861   2.812   1.249  0.1655  2.5243 -0.5678
  109SOL     OW  325   2.132   0.092   0.823 -0.0981 -0.0671 -0.3262
  109SOL    HW1  326   2.042   0.097   0.773 -0.0165 -0.0269  1.0875
  109SOL    HW2  327   2.123   0.046   0.914  2.5474  1.0198  0.4744
  110SOL     OW  328   0.459   2.846   2.770 -0.8613 -0.1369 -0.2979
  110SOL    HW1  329   0.438   2.817   2.675 -4.1281  0.7054  0.4609
  110SOL    HW2  330   0.538   2.792   2.816  1.0047 -2.0031 -2.2132
  111SOL     OW  331   1.281   0.501   2.332  0.2373 -0.3212 -0.3051
  111SOL    HW1  332   1.208   0.561   2.385  1.3655  0.6223  2.2423
  111SOL    HW2  333   1.333   0.439   2.395  0.5352  0.9692 -1.9184
  112SOL     OW  334   1.696   0.502   1.438  0.2083 -0.1945 -0.6622
  112SOL    HW1  335   1.708   0.475   1.342  0.0974 -1.6443  1.4944
  112SOL    HW2  336   1.687   0.416   1.494  1.0259  3.8444  1.8441
  113SOL     OW  337   2.313   1.679   1.768  0.3004 -0.1588 -0.2790
  113SOL    HW1  338   2.376   1.606   1.730 -0.2002 -3.5640  2.7915
  113SOL    HW2  339   2.335   1.698   1.871 -0.2637 -2.4933  1.9891
  114SOL     OW  340   0.358   0.543   1.280 -0.6843 -0.1918 -0.4416
  114SOL    HW1  341   0.411   0.572   1.198 -1.2062 -0.3276 -2.0377
  114SOL    HW2  342   0.267   0.595   1.268 -2.8985  2.7339  1.8128
  115SOL     OW  343   2.702   1.631   1.212 -0.0597 -0.0736 -0.4440
  115SOL    HW1  344   2.699   1.530   1.223 -0.4534 -0.2399  2.0569
  115SOL    HW2  345   2.760   1.665   1.130 -0.0734 -0.5147  3.0023
  116SOL     OW  346   1.798   1.043   0.615  0.4369 -0.5103 -0.7718
  116SOL    HW1  347   1.712   0.979   0.612 -2.3403 -1.1277  0.7245
  116SOL    HW2  348   1.787   1.126   0.678 -2.8227 -1.5026  1.2722
  117SOL     OW  349   1.202   0.327   0.573 -0.2335  0.4776  0.2035
  117SOL    HW1  350   1.233   0.395   0.640  0.0791 -1.9591 -2.8330
  117SOL    HW2  351   1.217   0.348   0.475  0.1237 -0.7609 -2.5553
  118SOL     OW  352   1.150   1.090   1.136 -0.2034  1.3919 -0.2195
  118SOL    HW1  353   1.098   1.034   1.206 -0.5357  1.5676  2.2668
  118SOL    HW2  354   1.155   1.193   1.170 -0.7121  0.3558  0.4631
  119SOL     OW  355   1.821   1.594   2.170 -0.2169 -0.7620  0.1071
  119SOL    HW1  356   1.785   1.691   2.176  1.7033  0.4082 -0.7770
  119SOL    HW2  357   1.925   1.586   2.170 -1.4727 -1.9584 -2.0285
  120SOL     OW  358   2.941   2.861   0.164 -0.3341  0.4583  1.0766
  120SOL    HW1  359   3.021   2.820   0.116  0.3337 -0.5872  0.5870
  120SOL    HW2  360   2.859   2.795   0.143 -0.5740 -0.4060  0.0483
  121SOL     OW  361   1.970   0.752   2.216 -0.6774  0.1535  0.0711
  121SOL    HW1  362   1.960   0.807   2.128 -0.2853  0.4989  0.5263
  121SOL    HW2  363   2.002   0.656   2.199  0.0955 -1.0240 -0.0933
  122SOL     OW  364   2.598   2.598   1.319  0.9349 -0.1842  0.4652
  122SOL    HW1  365   2.653   2.546   1.246  1.6996 -1.6044 -0.0206
  122SOL    HW2  366   2.508   2.640   1.295  0.3273 -2.3824  2.0112
  123SOL     OW  367   1.728   0.055   1.698 -0.2516 -0.6844  0.4183
  123SOL    HW1  368   1.752  -0.021   1.625 -0.0882  1.2872 -1.1108
  123SOL    HW2  369   1.810   0.088   1.747 -0.3837  0.9361 -2.9613
  124SOL     OW  370   0.061   0.432   1.105 -0.4493 -0.6580 -0.2644
  124SOL    HW1  371   0.042   0.503   1.172  0.3684  1.2449 -2.2368
  124SOL    HW2  372   0.091   0.481   1.018  1.1901 -2.8359  0.8778
  125SOL     OW  373   0.859   1.837   0.693 -0.0952  0.0233  0.2900
  125SOL    HW1  374   0.957   1.848   0.715  0.3197 -0.5916 -1.8097
  125SOL    HW2  375   0.799   1.843   0.777  0.7845 -0.2840  1.7245
  126SOL     OW  376   1.824   2.264   2.376 -0.3313  0.1962  0.6672
  126SOL    HW1  377   1.913   2.236   2.328  0.2609 -3.9680 -2.3432
  126SOL    HW2  378   1.779   2.180   2.421  0.2661 -0.6519  1.9245
  127SOL     OW  379   0.990   0.904   0.224 -0.8478  0.1987 -0.8784
  127SOL    HW1  380   0.987   0.975   0.300 -1.3330  2.1475 -0.0014
  127SOL    HW2  381   0.989   0.804   0.258  0.9113  1.4380  1.6466
  128SOL     OW  382   0.943   0.197   1.385 -0.5830  0.5116 -0.1041
  128SOL    HW1  383   0.939   0.269   1.312  2.4368 -1.8659 -0.0214
  128SOL    HW2  384   0.887   0.114   1.345 -2.1902 -2.8184 -1.0228
  129SOL     OW  385   1.842   0.652   1.825  0.1230  0.1663 -0.5877
  129SOL    HW1  386   1.841   0.641   1.719  0.7520 -0.0302 -1.7337
  129SOL    HW2  387   1.853   0.747   1.855  0.8467  1.8761 -1.4004
  130SOL     OW  388   1.373   2.159   1.023 -0.0635 -0.2115  0.5035
  130SOL    HW1  389   1.352   2.105   0.938 -3.3567 -4.0824  0.4721
  130SOL    HW2  390   1.446   2.231   1.007 -0.6551 -0.3644  0.1398
  131SOL     OW  391   3.023   1.426   1.365 -0.3814 -0.1020 -0.1080
  131SOL    HW1  392   2.966   1.359   1.416  1.1874 -1.1908 -0.6319
  131SOL    HW2  393   3.124   1.399   1.372  0.7792  2.8947 -2.9230
  132SOL     OW  394   2.046   2.432   0.491 -0.6090  0.0383 -0.6481
  132SOL    HW1  395   1.945   2.435   0.468  1.4640 -1.1662  1.2397
  132SOL    HW2  396   2.064   2.362   0.563  0.3589  1.7815  3.9073
  133SOL     OW  397   1.806   2.337   2.748 -0.6779  0.4554 -0.4183
  133SOL    HW1  398   1.799   2.402   2.671 -0.8820  0.1142 -0.3401
  133SOL    HW2  399   1.898   2.352   2.790  1.1958 -1.9179 -0.2444
  134SOL     OW  400   2.660   2.312   1.582  0.1271 -0.1463  0.2507
  134SOL    HW1  401   2.572   2.306   1.636  0.0003 -2.5065  0.9239
  134SOL    HW2  402   2.721   2.389   1.615 -0.5563  0.0409 -1.3360
  135SOL     OW  403   0.704   1.487   2.655  0.5686 -0.0159  0.6017
  135SOL    HW1  404   0.647   1.420   2.715  2.7425 -0.0232  0.2674
  135SOL    HW2  405   0.768   1.437   2.596 -1.8188  0.9078  0.4811
  136SOL     OW  406   1.213   2.045   0.425  0.5344 -0.0045 -0.0909
  136SOL    HW1  407   1.141   2.122   0.434  0.8344  1.3242 -0.0561
  136SOL    HW2  408   1.168   1.952   0.443 -0.8590 -1.8146  2.1133
  137SOL     OW  409   0.422   1.211   2.194  0.6047  0.4810  0.3338
  137SOL    HW1  410   0.333   1.165   2.233 -0.3414 -1.8157  0.7718
  137SOL    HW2  411   0.502   1.136   2.188  0.5092 -0.9261  0.9063
  138SOL     OW  412   2.514   1.460   0.270 -0.1386 -0.0471  0.7666
  138SOL    HW1  413   2.413   1.425   0.273  0.6425 -0.9460  1.2276
  138SOL    HW2  414   2.575   1.381   0.300 -1.1446 -0.4882  1.0715
  139SOL     OW  415   1.877   2.613   1.341  0.2791 -0.0268  0.2539
  139SOL    HW1  416   1.773   2.622   1.337 -1.3728 -1.3224 -1.4382
  139SOL    HW2  417   1.919   2.525   1.309 -0.4242  0.4204  0.8512
  140SOL     OW  418   3.013   2.964   2.520 -0.2373 -0.1041 -0.3775
  140SOL    HW1  419   3.070   2.874   2.520 -1.0808 -0.3631  0.0640
  140SOL    HW2  420   3.069   3.043   2.475 -0.1371  1.2191 -3.4954
  141SOL     OW  421   1.336   1.683   1.589  0.0088  0.1976 -0.2217
  141SOL    HW1  422   1.269   1.734   1.650  0.4223  2.5711 -1.1365
  141SOL    HW2  423   1.366   1.593   1.630 -1.4240 -0.5554 -0.0469
  142SOL     OW  424   1.567   0.612   2.252 -0.1489 -0.2220 -0.1816
  142SOL    HW1  425   1.570   0.591   2.148  3.1687 -1.9248 -0.8333
  142SOL    HW2  426   1.473   0.602   2.295 -3.4715 -2.1665  2.2787
  143SOL     OW  427   2.732   0.908   0.481  1.2546  0.7063 -0.1233
  143SOL    HW1  428   2.792   0.961   0.406  1.0122 -0.6470  0.2823
  143SOL    HW2  429   2.784   0.897   0.570  0.9758  1.5352 -1.3211
  144SOL     OW  430   2.918   1.183   1.493 -0.7761  0.5375  0.3782
  144SOL    HW1  431   2.862   1.178   1.578 -1.7549  0.0466 -0.7474
  144SOL    HW2  432   2.978   1.102   1.480 -1.1631 -0.7874  1.7506
  145SOL     OW  433   1.001   1.810   0.171  0.3725 -0.4408 -1.1915
  145SOL    HW1  434   1.086   1.817   0.114  1.3080  1.8082  0.8487
  145SOL    HW2  435   0.952   1.723   0.144  1.7751  0.2073 -1.6332
  146SOL     OW  436   2.473   0.648   1.489 -0.5621  0.1361 -0.0243
  146SOL    HW1  437   2.435   0.555   1.454 -2.4694 -2.6476 -1.9881
  146SOL    HW2  438   2.428   0.734   1.446 -1.4813  4.1324  1.1665
  147SOL     OW  439   1.098   2.485   0.597 -0.1261  0.2334 -0.2207
  147SOL    HW1  440   1.066   2.539   0.512 -5.4506  1.0916 -0.9824
  147SOL    HW2  441   1.196   2.447   0.589  0.6985  1.8025  2.3979
  148SOL     OW  442   1.629   1.467   0.014 -0.4323  0.0699  0.4307
  148SOL    HW1  443   1.630   1.389  -0.053 -0.8603  0.0811  0.1344
  148SOL    HW2  444   1.617   1.433   0.112 -1.1830  2.6350  2.5007
  149SOL     OW  445   0.674   1.430   1.968 -0.1031  0.6335 -0.8183
  149SOL    HW1  446   0.579   1.400   1.992  0.3538 -0.0756 -1.9755
  149SOL    HW2  447   0.721   1.371   1.897  1.2836 -1.6831  2.4057
  150SOL     OW  448   3.038   1.249   0.939  0.3561  0.0823  0.0997
  150SOL    HW1  449   3.099   1.251   1.025  1.6338 -0.1752 -3.1340
  150SOL    HW2  450   2.993   1.155   0.920  2.7483  0.1517  1.7654
  151SOL     OW  451   0.120   0.717   2.079  0.1197  0.1605  0.2111
  151SOL    HW1  452   0.126   0.816   2.045 -2.5951 -1.5248 -4.0308
  151SOL    HW2  453   0.184   0.657   2.025 -1.0539 -0.2435  0.4958
  152SOL     OW  454   1.466   1.772   1.218  0.4931  0.1621 -0.5942
  152SOL    HW1  455   1.513   1.863   1.212 -1.1465 -0.7265 -0.1513
  152SOL    HW2  456   1.363   1.779   1.195 -3.4079  0.5606  0.1697
  153SOL     OW  457   0.117   1.594   0.177  0.1279  0.3457  0.5144
  153SOL    HW1  458   0.075   1.504   0.159  0.0576  2.0448  2.3243
  153SOL    HW2  459   0.080   1.646   0.259  0.9059 -1.1552  3.0239
  154SOL     OW  460   2.377   1.864   2.823 -0.0650  0.7297  0.0084
  154SOL    HW1  461   2.415   1.773   2.858  1.1190 -1.1379  0.6019
  154SOL    HW2  462   2.427   1.896   2.739  1.2393  1.1522 -2.5603
  155SOL     OW  463   2.479   1.203   0.358  0.6617  0.0622 -0.1209
  155SOL    HW1  464   2.568   1.189   0.306  2.8199  0.1797  0.2052
  155SOL    HW2  465   2.398   1.166   0.303 -0.8869  0.3771  2.6512
  156SOL     OW  466   2.510   0.927   0.815 -0.7799 -0.5251 -0.5072
  156SOL    HW1  467   2.413   0.943   0.856  0.2255 -2.1083  1.6497
  156SOL    HW2  468   2.536   1.002   0.748 -1.6979 -1.8748 -4.1643
  157SOL     OW  469   1.224   2.974   2.980 -0.2034  0.8797 -0.2365
  157SOL    HW1  470   1.244   2.943   2.883  0.4576 -0.7970 -1.7995
  157SOL    HW2  471   1.281   3.049   3.012 -1.2750 -0.9313 -0.8771
  158SOL     OW  472   0.983   1.852   1.882  0.2374  0.2380  0.0050
  158SOL    HW1  473   1.017   1.949   1.906 -2.6144 -0.7258  1.7925
  158SOL    HW2  474   0.890   1.830   1.921  0.7393 -1.0004 -1.7044
  159SOL     OW  475   0.904   0.399   1.204  0.0794 -0.1841  0.2668
  159SOL    HW1  476   0.859   0.478   1.258 -1.5026  0.8787 -0.5240
  159SOL    HW2  477   0.833   0.352   1.148 -0.0736 -4.6078  0.0685
  160SOL     OW  478   1.371   2.418   1.596 -0.4170 -0.2127  0.3850
  160SOL    HW1  479   1.330   2.336   1.637 -0.9631  1.9996 -1.2395
  160SOL    HW2  480   1.468   2.399   1.565 -1.4042 -0.4832  1.8316
  161SOL     OW  481   0.023   2.975   0.412 -0.6351  0.0452  0.7206
  161SOL    HW1  482   0.003   2.874   0.386 -0.8260  0.2496 -1.8650
  161SOL    HW2  483  -0.050   3.032   0.363 -1.2282 -1.5720 -2.7090
  162SOL     OW  484   2.586   1.867   0.532  0.3504  0.3156 -0.0630
  162SOL    HW1  485   2.558   1.825   0.439  0.2298 -0.6762 -1.1885
  162SOL    HW2  486   2.594   1.797   0.614 -1.6105 -1.8935 -0.1802
  163SOL     OW  487   1.931   2.761   0.715 -0.1544 -0.2326  0.1941
  163SOL    HW1  488   1.941   2.776   0.615 -1.4864 -0.7171  0.6402
  163SOL    HW2  489   1.996   2.686   0.747  0.2377 -1.8448  0.2816
  164SOL     OW  490   3.048   0.234   1.247 -0.0117  0.3687 -0.2681
  164SOL    HW1  491   3.091   0.305   1.189 -1.6002 -2.6723  0.9081
  164SOL    HW2  492   3.114   0.196   1.315 -1.3591  2.3686 -3.3958
  165SOL     OW  493   0.960   1.362   0.724 -0.2101  0.4013  0.5295
  165SOL    HW1  494   0.924   1.433   0.786  2.5718  1.9479  2.2751
  165SOL    HW2  495   0.936   1.389   0.624  1.0424 -2.5718 -0.2833
  166SOL     OW  496   1.549   1.046   1.756  1.3143 -0.5562  0.4478
  166SOL    HW1  497   1.454   1.047   1.801 -1.0324 -0.2719  0.7342
  166SOL    HW2  498   1.602   1.128   1.794  1.3854  1.0283  0.7004
  167SOL     OW  499   0.749   2.003   1.461  0.2640  0.2906  0.2321
  167SOL    HW1  500   0.746   2.088   1.514 -0.4372 -1.6039  1.8319
  167SOL    HW2  501   0.704   1.927   1.511 -0.3408  0.6026 -2.3692
  168SOL     OW  502   1.618   2.363   0.147 -0.5702 -0.3886  0.5566
  168SOL    HW1  503   1.671   2.392   0.063  1.6142 -0.1207 -1.9023
  168SOL    HW2  504   1.686   2.340   0.221  2.1960  0.3013  1.7949
  169SOL     OW  505   0.207   2.576   2.230 -0.5296  0.4124  0.0939
  169SOL    HW1  506   0.244   2.544   2.138  0.2759 -2.5168 -1.8533
  169SOL    HW2  507   0.172   2.494   2.279 -1.7257 -0.7104 -0.6534
  170SOL     OW  508   1.083   0.231   2.019 -0.0440  0.3893 -0.3872
  170SOL    HW1  509   1.148   0.216   2.094  1.1062  2.3413  3.0479
  170SOL    HW2  510   1.074   0.149   1.956  1.2883 -0.4713 -1.5115
  171SOL     OW  511   0.181   0.798   2.347 -0.3111  0.4457 -0.1980
  171SOL    HW1  512   0.096   0.815   2.404  0.5495  2.2023  4.4372
  171SOL    HW2  513   0.170   0.806   2.242  1.2393 -0.0738 -0.5969
  172SOL     OW  514   0.950   0.999   2.863 -0.1533 -0.2985 -0.0422
  172SOL    HW1  515   0.916   1.070   2.932  1.1360 -1.8600 -0.8486
  172SOL    HW2  516   0.921   1.026   2.767  1.0803  1.1540 -1.1622
  173SOL     OW  517   0.615   2.625   0.131 -0.7521 -1.1674 -0.1119
  173SOL    HW1  518   0.588   2.716   0.087 -2.2627 -0.2005  0.4799
  173SOL    HW2  519   0.533   2.565   0.170 -3.7045 -0.2725  2.3993
  174SOL     OW  520   1.533   2.794   1.046  0.2957  0.1342 -0.0441
  174SOL    HW1  521   1.530   2.843   0.958 -0.4672 -1.6666 -1.7464
  174SOL    HW2  522   1.528   2.687   1.027 -0.0681 -1.5565 -0.2336
  175SOL     OW  523   0.476   3.037   1.697  0.7548  0.3550  0.8802
  175SOL    HW1  524   0.560   3.008   1.744 -0.5310 -0.2011  0.2867
  175SOL    HW2  525   0.452   3.137   1.708  0.1557  0.4631  0.4768
  176SOL     OW  526   2.563   0.387   0.022 -0.3486 -0.1680 -0.1070
  176SOL    HW1  527   2.610   0.472   0.065  2.1024  4.1687 -1.8089
  176SOL    HW2  528   2.485   0.345   0.082 -1.7511  2.7506 -0.0577
  177SOL     OW  529   0.301   0.350   0.935 -0.0586  0.6466 -0.2821
  177SOL    HW1  530   0.298   0.250   0.905 -1.0757 -1.7720 -0.5247
  177SOL    HW2  531   0.305   0.354   1.037 -1.5617  0.6343  0.6023
  178SOL     OW  532   0.051   2.751   2.571  0.9254  0.2990  0.0572
  178SOL    HW1  533  -0.003   2.662   2.552 -0.4714 -0.4804  1.1588
  178SOL    HW2  534   0.107   2.747   2.658  0.9340  1.3345 -1.9746
  179SOL     OW  535   3.067   1.575   1.141  0.0574  0.3308  0.2225
  179SOL    HW1  536   2.990   1.552   1.076 -1.0292 -1.3907 -2.5088
  179SOL    HW2  537   3.046   1.546   1.235  1.1243  0.5534 -0.8355
  180SOL     OW  538   0.200   1.257   1.845 -0.0844  0.5090 -0.3483
  180SOL    HW1  539   0.301   1.223   1.867  3.0103 -0.1643  2.3611
  180SOL    HW2  540   0.165   1.336   1.904 -0.8434  0.0211  0.3432
  181SOL     OW  541   3.073   1.885   2.473  0.7957  0.5574 -0.4608
  181SOL    HW1  542   3.102   1.985   2.479  1.6842 -1.8429  0.6538
  181SOL    HW2  543   2.989   1.872   2.417  1.1294 -1.0244 -1.5178
  182SOL     OW  544   2.322   1.249   1.155  0.0257 -0.2811  0.6441
  182SOL    HW1  545   2.238   1.208   1.113  5.0970  0.6508  1.9248
  182SOL    HW2  546   2.318   1.351   1.160 -1.8808 -1.0634 -1.7596
  183SOL     OW  547   1.449   2.263   2.573  0.1885 -0.2571 -0.7192
  183SOL    HW1  548   1.353   2.225   2.578 -0.4173 -0.8430 -1.3686
  183SOL    HW2  549   1.514   2.182   2.555 -0.2381  3.2489  2.4386
  184SOL     OW  550   2.029   0.910   0.704  0.5816  0.3015 -0.6639
  184SOL    HW1  551   1.941   0.969   0.701 -4.2899  1.8204  0.2172
  184SOL    HW2  552   2.006   0.815   0.745  1.5587 -1.6801  1.4384
  185SOL     OW  553   1.624   2.790   1.957 -0.5288 -0.5105  0.1318
  185SOL    HW1  554   1.551   2.866   1.959  0.5334  2.2279 -1.5950
  185SOL    HW2  555   1.652   2.758   2.053 -1.2782  2.2963 -0.1071
  186SOL     OW  556   0.131   2.258   1.640  0.4779 -0.1243  0.3134
  186SOL    HW1  557   0.109   2.286   1.738 -2.2562 -0.3017 -0.9467
  186SOL    HW2  558   0.222   2.208   1.625  2.9378 -1.7752 -0.3448
  187SOL     OW  559   1.344   0.690   1.654  0.0903 -0.3256 -0.1403
  187SOL    HW1  560   1.428   0.749   1.628  1.4039 -2.3920  1.7571
  187SOL    HW2  561   1.372   0.610   1.718  2.0707 -0.1795 -0.9757
  188SOL     OW  562   2.776   2.761   1.440  0.3917 -0.0823  0.3540
  188SOL    HW1  563   2.750   2.861   1.442 -0.3635 -3.0391  0.1428
  188SOL    HW2  564   2.703   2.695   1.402  0.8903 -0.8030 -2.1295
  189SOL     OW  565   0.945   1.190   1.449 -0.2334 -0.1082  0.2573
  189SOL    HW1  566   1.013   1.240   1.506  1.4724  0.9177 -0.6580
  189SOL    HW2  567   0.886   1.254   1.401 -0.6844  1.7372  1.5583
  190SOL     OW  568   1.430   1.949   1.633  0.0932 -0.0956  0.1397
  190SOL    HW1  569   1.439   1.844   1.635 -0.5449  0.0215 -0.1232
  190SOL    HW2  570   1.515   1.988   1.687  1.9605  2.0704  1.1132
  191SOL     OW  571   0.934   0.708   1.546 -0.1100  0.2002 -0.6079
  191SOL    HW1  572   1.010   0.650   1.583 -2.0149  0.8106  0.5182
  191SOL    HW2  573   0.962   0.794   1.497 -2.8962  0.7567 -2.1674
  192SOL     OW  574   1.853   2.313   1.068  0.0864  0.5159 -0.0224
  192SOL    HW1  575   1.769   2.304   1.014  1.4902 -0.5474  1.3605
  192SOL    HW2  576   1.936   2.347   1.017  1.1921 -1.0226 -0.4124
  193SOL     OW  577   0.536   0.578   0.450 -0.5045 -0.0501  0.0914
  193SOL    HW1  578   0.497   0.481   0.477  0.6554  0.7956 -1.2055
  193SOL    HW2  579   0.587   0.566   0.361 -0.7186 -2.2650 -0.5556
  194SOL     OW  580   0.349   0.889   1.301  0.6695 -0.2346  0.0023
  194SOL    HW1  581   0.260   0.832   1.303 -2.0514  0.7381  0.5662
  194SOL    HW2  582   0.352   0.958   1.221  1.3604 -3.3358 -2.3353
  195SOL     OW  583   1.026   2.932   0.515  0.4156 -0.1004 -0.2341
  195SOL    HW1  584   1.019   2.836   0.474  1.3673 -0.1564  0.2020
  195SOL    HW2  585   1.112   2.992   0.499  2.5392 -1.3496 -1.4999
  196SOL     OW  586   0.170   1.361   1.388  0.2467  0.6547  0.4230
  196SOL    HW1  587   0.212   1.453   1.411  1.3860  0.3697 -0.1500
  196SOL    HW2  588   0.189   1.293   1.463 -0.5122  1.8257 -0.0843
  197SOL     OW  589   0.846   2.059   0.262 -0.1692 -0.0302 -0.5122
  197SOL    HW1  590   0.832   2.052   0.362  0.1567 -2.6502 -1.2302
  197SOL    HW2  591   0.895   1.974   0.227  0.5255 -0.0677  0.3994
  198SOL     OW  592   0.270   1.256   0.298  0.1558 -0.5245  0.3634
  198SOL    HW1  593   0.183   1.305   0.261  1.7046 -0.4961  0.8670
  198SOL    HW2  594   0.329   1.327   0.354  2.0301  2.4913 -0.5305
  199SOL     OW  595   2.318   0.370   2.505  0.5945  0.2334  0.4345
  199SOL    HW1  596   2.248   0.366   2.583  1.1751  0.6773 -0.5765
  199SOL    HW2  597   2.409   0.384   2.541 -0.4245  0.9469  0.8770
  200SOL     OW  598   0.002   2.949   0.727 -0.1683 -0.2316  0.2420
  200SOL    HW1  599  -0.074   2.982   0.668  0.3218  1.5985  2.3844
  200SOL    HW2  600   0.093   2.925   0.685 -0.2330 -1.3949  0.0520
  201SOL     OW  601   1.057   0.723   0.555  0.1506 -0.4219 -0.6603
  201SOL    HW1  602   1.070   0.787   0.637 -2.7789  2.2728  4.2451
  201SOL    HW2  603   0.963   0.682   0.558 -1.1764 -0.8603  0.4326
  202SOL     OW  604   0.395   1.088   1.920 -0.0421  0.7910  0.4199
  202SOL    HW1  605   0.481   1.062   1.877 -2.2288  0.1227  4.0476
  202SOL    HW2  606   0.409   1.100   2.021  0.5211 -1.6820 -1.9745
  203SOL     OW  607   0.656   0.224   1.477 -0.1583 -0.7023 -0.4504
  203SOL    HW1  608   0.709   0.159   1.417 -0.4291 -0.5706  0.6465
  203SOL    HW2  609   0.660   0.194   1.577  0.8001  0.3876 -1.5768
  204SOL     OW  610   2.114   1.811   2.891  0.4090 -0.0499  0.0482
  204SOL    HW1  611   2.088   1.715   2.874 -1.8770 -1.6415  1.7136
  204SOL    HW2  612   2.214   1.833   2.865  0.8678  0.0514  1.2984
  205SOL     OW  613   1.855   1.848   3.019  0.3976 -0.6668 -0.0151
  205SOL    HW1  614   1.956   1.848   2.994  0.6647 -0.8278  0.9382
  205SOL    HW2  615   1.812   1.946   3.026 -2.8614  0.0121  1.0927
  206SOL     OW  616   2.476   2.809   0.339 -0.5034 -0.1445  0.1751
  206SOL    HW1  617   2.527   2.733   0.388 -0.0447 -0.2627  1.4099
  206SOL    HW2  618   2.540   2.868   0.288 -1.4153 -1.1727  0.3864
  207SOL     OW  619   0.700   1.823   2.992  0.2097 -0.2848 -0.3881
  207SOL    HW1  620   0.769   1.772   2.935 -2.2758  0.3379 -0.3535
  207SOL    HW2  621   0.646   1.765   3.058 -0.3377  0.2980 -1.2646
  208SOL     OW  622   1.134   1.565   1.393  0.7594 -0.0346 -0.0228
  208SOL    HW1  623   1.065   1.624   1.347 -0.2275 -0.5307  2.6372
  208SOL    HW2  624   1.194   1.620   1.459 -1.3386 -1.8431  0.5449
  209SOL     OW  625   0.251   0.942   3.047  0.2449 -0.0433 -0.0461
  209SOL    HW1  626   0.232   0.850   2.997 -1.4811  0.4394 -1.5636
  209SOL    HW2  627   0.238   0.935   3.152  0.2617 -0.1952 -0.1149
  210SOL     OW  628   1.745   0.481   1.175 -1.2657  0.0852 -0.2974
  210SOL    HW1  629   1.691   0.570   1.169  0.4279  0.0796 -0.3063
  210SOL    HW2  630   1.846   0.497   1.174  0.7419  1.6568  0.8691
  211SOL     OW  631   2.102   1.056   1.591  0.1530 -0.5284  0.0789
  211SOL    HW1  632   2.153   0.999   1.662  0.1360  2.1000  2.2300
  211SOL    HW2  633   2.172   1.117   1.538  0.5772  0.5435 -0.0177
  212SOL     OW  634   3.091   0.988   1.501  0.4679 -0.1177  0.1093
  212SOL    HW1  635   3.168   1.057   1.515  1.2113 -2.2638 -1.6715
  212SOL    HW2  636   3.083   0.917   1.576 -0.0607  2.2558  1.7031
  213SOL     OW  637   2.811   0.192   0.398 -0.0743 -0.1132  0.5092
  213SOL    HW1  638   2.867   0.109   0.370 -1.1059 -2.4252  3.2292
  213SOL    HW2  639   2.792   0.268   0.325 -1.1174  1.3682  3.4124
  214SOL     OW  640   2.156   0.248   2.295 -0.3022  0.9311  0.3387
  214SOL    HW1  641   2.211   0.291   2.372  1.3374 -0.2633  1.2898
  214SOL    HW2  642   2.135   0.148   2.320  1.1712 -1.6318  2.7038
  215SOL     OW  643   1.571   2.299   2.107 -0.2591 -0.1149 -0.3294
  215SOL    HW1  644   1.675   2.286   2.085  1.2680  0.2543 -1.7633
  215SOL    HW2  645   1.555   2.395   2.145  0.3801  0.1210 -2.0185
  216SOL     OW  646   2.168   0.624   0.690  0.3446 -0.0229 -0.2879
  216SOL    HW1  647   2.155   0.526   0.659  1.4847  0.5920  0.7321
  216SOL    HW2  648   2.149   0.697   0.624 -2.1649 -2.9485 -0.3018
  217SOL     OW  649   0.752   2.773   2.423 -0.3118 -0.0690  0.2917
  217SOL    HW1  650   0.752   2.691   2.488  0.8081 -0.3276  0.5017
  217SOL    HW2  651   0.744   2.752   2.321  1.9385  2.1728 -2.8071
  218SOL     OW  652   1.897   1.409   0.022 -0.0427 -0.1973  0.6043
  218SOL    HW1  653   1.800   1.430   0.014  2.2241 -1.5368 -0.5449
  218SOL    HW2  654   1.920   1.330   0.084  1.3847  0.5475 -2.1453
  219SOL     OW  655   2.440   1.304   2.495 -0.0533  0.4785 -0.1754
  219SOL    HW1  656   2.454   1.267   2.400 -1.2416 -0.9740  0.3391
  219SOL    HW2  657   2.430   1.228   2.567  0.4106 -0.4884  1.4640
  220SOL     OW  658   1.475   1.047   1.274 -0.5196 -0.0903  0.7535
  220SOL    HW1  659   1.573   1.061   1.307 -0.8169 -0.7143  1.1698
  220SOL    HW2  660   1.452   1.069   1.176 -0.4639  2.2066  1.9993
  221SOL     OW  661   1.285   0.990   2.170  0.0078  0.0683 -0.1519
  221SOL    HW1  662   1.249   1.052   2.093 -0.5875 -1.7523 -3.8607
  221SOL    HW2  663   1.378   0.951   2.147 -0.4143  0.7206 -1.5960
  222SOL     OW  664   1.103   0.044   1.198  0.1997  0.7148  0.2630
  222SOL    HW1  665   1.157   0.074   1.276 -1.0469 -1.1707  1.0222
  222SOL    HW2  666   1.113   0.107   1.119  0.0653 -1.8916  2.7158
  223SOL     OW  667   2.736   0.956   2.140 -0.3120  0.3882  0.7304
  223SOL    HW1  668   2.715   1.051   2.181 -1.3900 -1.1443  3.9181
  223SOL    HW2  669   2.828   0.916   2.166 -0.7258  0.9693  0.5646
  224SOL     OW  670   1.503   1.081   2.749 -0.0911  0.2333 -0.5555
  224SOL    HW1  671   1.555   1.019   2.691  1.9598 -1.0372 -1.5267
  224SOL    HW2  672   1.429   1.134   2.695 -0.5944 -0.2682 -0.5892
  225SOL     OW  673   2.933   2.788   2.887  0.1239  0.4256  0.3339
  225SOL    HW1  674   2.856   2.741   2.835 -2.6396 -0.0030  2.7080
  225SOL    HW2  675   3.008   2.836   2.827  0.9843  0.7550 -0.7990
  226SOL     OW  676   2.479   1.600   2.898 -0.9607  0.4649  0.0092
  226SOL    HW1  677   2.499   1.566   2.797  0.8248 -0.1818 -1.3381
  226SOL    HW2  678   2.401   1.549   2.935  2.9617  0.5600 -1.5881
  227SOL     OW  679   0.871   0.123   0.046 -0.0315 -0.3278  0.6770
  227SOL    HW1  680   0.962   0.169   0.034 -2.7524 -0.0525 -1.3818
  227SOL    HW2  681   0.830   0.109  -0.048  1.0829 -0.1569  2.3268
  228SOL     OW  682   2.428   0.606   2.836  0.0248  0.0733 -0.3808
  228SOL    HW1  683   2.439   0.693   2.778  0.9935  2.4218  2.3745
  228SOL    HW2  684   2.522   0.560   2.855 -2.9561 -0.4167 -2.3176
  229SOL     OW  685   0.557   0.467   1.871 -0.5109 -0.2777 -0.1147
  229SOL    HW1  686   0.544   0.369   1.892  1.1506  0.8902 -4.2407
  229SOL    HW2  687   0.608   0.496   1.787  1.3074 -1.5512  0.1756
  230SOL     OW  688   1.874   1.146   2.092  0.3296 -0.1558  0.3599
  230SOL    HW1  689   1.939   1.203   2.034  0.8575 -1.1717 -0.4753
  230SOL    HW2  690   1.788   1.203   2.111  3.8749  1.1465 -1.3696
  231SOL     OW  691   0.626   1.017   0.045 -0.0355 -0.0360  0.3886
  231SOL    HW1  692   0.725   1.044   0.038  0.5563 -0.5996 -2.2809
  231SOL    HW2  693   0.566   1.097   0.082  2.7024  1.5997  0.6921
  232SOL     OW  694   2.404   3.093   2.833  0.6902  0.0044 -0.3719
  232SOL    HW1  695   2.442   3.002   2.862 -0.0059  0.2783 -2.3182
  232SOL    HW2  696   2.434   3.110   2.734 -0.7598 -0.8242 -0.9842
  233SOL     OW  697   1.689   1.240   1.118 -0.7105 -0.1183  0.2214
  233SOL    HW1  698   1.691   1.244   1.015  2.9711 -1.5603 -2.5684
  233SOL    HW2  699   1.725   1.152   1.154 -1.1688  0.7264  1.5347
  234SOL     OW  700   1.555   2.533   1.865 -0.2313 -0.1293  0.2346
  234SOL    HW1  701   1.590   2.616   1.921  1.5083 -0.3012 -2.7749
  234SOL    HW2  702   1.546   2.451   1.925  4.1399 -0.7094 -0.0754
  235SOL     OW  703   0.023   3.032   2.817  0.3910  0.4693 -0.1737
  235SOL    HW1  704  -0.025   3.020   2.727 -0.1714 -1.0838 -1.5461
  235SOL    HW2  705  -0.033   3.062   2.902  0.2232 -1.7457  1.0827
  236SOL     OW  706   2.886   0.741   0.091 -0.9723 -0.0507  0.0608
  236SOL    HW1  707   2.949   0.790   0.159  0.7617 -1.2703  2.1243
  236SOL    HW2  708   2.931   0.652   0.056 -2.1907  0.6379 -1.2117
  237SOL     OW  709   1.553   1.664   0.987  0.4053  0.0543 -0.5730
  237SOL    HW1  710   1.653   1.664   0.964 -1.0078 -2.1819 -2.7199
  237SOL    HW2  711   1.533   1.692   1.089  0.7109  0.3257  2.6149
  238SOL     OW  712   1.788   1.275   0.835  0.0734 -0.0832 -0.0587
  238SOL    HW1  713   1.842   1.345   0.889  1.3402 -1.1778 -1.4982
  238SOL    HW2  714   1.698   1.311   0.807  0.4002  0.3267 -0.9534
  239SOL     OW  715   2.096   0.295   2.676  0.1664  0.6114  0.3525
  239SOL    HW1  716   2.153   0.260   2.755 -0.0986 -0.9795  1.4169
  239SOL    HW2  717   2.022   0.361   2.705 -1.2566 -1.5920  0.1669
  240SOL     OW  718   0.937   0.646   0.283  0.2181 -0.0752 -0.5988
  240SOL    HW1  719   0.961   0.549   0.250  1.2543  0.0761 -1.9380
  240SOL    HW2  720   0.909   0.649   0.382 -0.5831  1.6718  0.4500
  241SOL     OW  721   0.584   0.023   0.391  0.2859 -0.7329 -0.2647
  241SOL    HW1  722   0.620   0.113   0.339 -0.3163 -0.1658  1.3297
  241SOL    HW2  723   0.579  -0.063   0.337  1.4311 -0.3732  1.4050
  242SOL     OW  724   0.612   2.516   1.162 -0.0942  0.0842 -0.0852
  242SOL    HW1  725   0.599   2.521   1.264 -3.4008 -2.7074 -0.1869
  242SOL    HW2  726   0.646   2.600   1.116 -1.1266 -0.0358 -0.2745
  243SOL     OW  727   1.100   0.647   2.466 -0.1935  0.2945  0.5433
  243SOL    HW1  728   1.006   0.644   2.426  2.1774  1.8410 -0.0705
  243SOL    HW2  729   1.107   0.576   2.545  1.3310 -0.7515 -0.5720
  244SOL     OW  730   2.844   1.892   2.326  0.1906  0.3993  0.5878
  244SOL    HW1  731   2.876   1.877   2.222  3.5383 -2.0578 -2.0442
  244SOL    HW2  732   2.745   1.860   2.344 -0.2488  2.5893  1.8235
  245SOL     OW  733   2.310   0.775   2.175 -0.3706  0.8349 -0.4560
  245SOL    HW1  734   2.396   0.818   2.211  1.8048  3.0777  0.4444
  245SOL    HW2  735   2.239   0.782   2.245  1.8035 -1.8770 -0.4471
  246SOL     OW  736   0.231   2.907   1.740 -0.0904  0.0397  0.5446
  246SOL    HW1  737   0.163   2.915   1.662  2.0197 -1.9716 -3.0965
  246SOL    HW2  738   0.325   2.951   1.712  1.5912  0.3518 -2.6121
  247SOL     OW  739   2.257   0.620   3.052 -0.6507 -0.1040 -0.5869
  247SOL    HW1  740   2.328   0.579   2.985  3.9760  2.2820  3.5957
  247SOL    HW2  741   2.199   0.693   3.007  1.7785  1.2795  3.5515
  248SOL     OW  742   2.155   1.826   1.577 -0.0480  0.1073 -0.0194
  248SOL    HW1  743   2.227   1.770   1.630 -1.5518 -0.0347 -0.8642
  248SOL    HW2  744   2.064   1.816   1.619  2.6865 -0.5353  1.3724
  249SOL     OW  745   1.854   1.950   1.930  0.0512 -0.1906 -0.4749
  249SOL    HW1  746   1.873   1.887   1.848 -1.9979  3.2421 -2.9028
  249SOL    HW2  747   1.939   1.993   1.972  1.6701 -2.2933  2.6318
  250SOL     OW  748   1.109   0.690   1.890 -0.3169 -0.0050 -0.2514
  250SOL    HW1  749   1.155   0.631   1.962  0.8735  0.2406 -0.7413
  250SOL    HW2  750   1.071   0.632   1.814 -2.0424 -0.6048 -1.5261
  251SOL     OW  751   0.061   1.587   2.481  0.1246  0.3219  0.4983
  251SOL    HW1  752   0.051   1.693   2.473 -2.5603  0.7684 -2.5596
  251SOL    HW2  753  -0.034   1.540   2.497 -0.0227  1.8778  0.9487
  252SOL     OW  754   1.558   0.848   1.574  0.7933  0.2519 -0.1706
  252SOL    HW1  755   1.656   0.814   1.558  0.7962  0.7459  1.8974
  252SOL    HW2  756   1.557   0.937   1.638  0.6394 -1.0539  0.4328
  253SOL     OW  757   0.968   1.550   0.530  0.7605 -0.9304 -0.4979
  253SOL    HW1  758   0.973   1.494   0.440  0.9062 -0.3105 -0.3941
  253SOL    HW2  759   0.879   1.589   0.547  2.9170  1.3540 -0.8636
  254SOL     OW  760   2.054   2.177   1.649  0.2465 -0.5745 -0.2274
  254SOL    HW1  761   2.028   2.110   1.573 -0.3575 -0.3562 -1.1833
  254SOL    HW2  762   1.973   2.215   1.706 -0.0855  1.4957  0.1719
  255SOL     OW  763   0.128   1.129   2.880 -0.4245 -0.1382 -0.0754
  255SOL    HW1  764   0.179   1.220   2.896 -0.9555 -3.5616  2.0280
  255SOL    HW2  765   0.179   1.065   2.945 -2.2100  2.2340  0.4286
  256SOL     OW  766   2.770   1.385   1.784  0.0682  0.9778 -0.0075
  256SOL    HW1  767   2.670   1.402   1.758 -1.1523 -0.3004 -0.7217
  256SOL    HW2  768   2.802   1.286   1.758  2.3723  1.4735  1.5241
  257SOL     OW  769   0.771   0.166   1.763  0.1793 -0.4370  0.0167
  257SOL    HW1  770   0.838   0.230   1.718 -1.4062 -1.8996  0.5310
  257SOL    HW2  771   0.817   0.089   1.809 -3.5749 -2.5696 -0.8957
  258SOL     OW  772   2.996   1.234   0.438  0.8114 -0.1870  0.2159
  258SOL    HW1  773   2.908   1.292   0.450 -0.1018  0.2846 -1.2109
  258SOL    HW2  774   3.047   1.235   0.527  3.6565  0.2247 -2.2189
  259SOL     OW  775   0.453   2.935   3.044 -0.2781 -0.6797  0.1093
  259SOL    HW1  776   0.383   2.882   3.101  0.1234 -2.2555  2.0031
  259SOL    HW2  777   0.467   2.897   2.954 -0.5032  1.2519  3.4040
  260SOL     OW  778   2.723   0.829   2.803  0.9790 -0.2246 -0.2992
  260SOL    HW1  779   2.629   0.784   2.780 -0.4828  3.6170  1.0471
  260SOL    HW2  780   2.740   0.861   2.904 -0.9283  0.1304  2.1202
  261SOL     OW  781   2.754   1.362   1.254 -0.2233  0.0873  0.1540
  261SOL    HW1  782   2.725   1.297   1.180 -0.9197  1.1260 -0.9225
  261SOL    HW2  783   2.850   1.357   1.277 -2.1447  2.2110  0.3751
  262SOL     OW  784   1.406   2.976   2.005 -0.5430  0.1024 -0.6651
  262SOL    HW1  785   1.443   3.070   1.980  1.6990 -1.2765 -1.5229
  262SOL    HW2  786   1.313   2.961   1.962 -0.8298 -2.9009 -2.3543
  263SOL     OW  787   0.847   0.693   2.369  0.0231  0.1292 -0.1441
  263SOL    HW1  788   0.785   0.612   2.334 -3.0540 -1.3758  0.8463
  263SOL    HW2  789   0.891   0.756   2.295 -0.5875  2.4053 -1.3134
  264SOL     OW  790   2.202   0.831   0.455 -0.4032 -0.1329  0.9688
  264SOL    HW1  791   2.233   0.755   0.389  2.7167  2.4079 -1.0940
  264SOL    HW2  792   2.272   0.906   0.483  0.3128  3.9867 -1.7342
  265SOL     OW  793   0.952   2.408   2.606  0.4241  0.4463 -0.5926
  265SOL    HW1  794   1.007   2.435   2.691 -2.5840 -0.5409 -2.6917
  265SOL    HW2  795   0.913   2.310   2.606  1.1177  0.1943 -1.7410
  266SOL     OW  796   1.301   1.742   0.018 -0.3107 -0.0083 -0.3529
  266SOL    HW1  797   1.282   1.818   0.091 -0.1725  2.5846  1.7885
  266SOL    HW2  798   1.406   1.734   0.005  0.8544  0.8796 -0.8256
  267SOL     OW  799   1.022   3.085   2.353 -0.0985  0.3557 -0.4590
  267SOL    HW1  800   1.002   3.019   2.277 -1.5165 -0.3167 -0.8900
  267SOL    HW2  801   0.954   3.161   2.357  1.1766  0.5512  0.2537
  268SOL     OW  802   0.597   1.195   1.025  0.2723 -0.2403 -0.0391
  268SOL    HW1  803   0.663   1.235   1.089 -0.8977 -0.8195  2.4836
  268SOL    HW2  804   0.615   1.224   0.924 -1.1206 -1.5240 -1.1302
  269SOL     OW  805   2.347   2.555   1.598 -0.4564 -0.0107 -0.0859
  269SOL    HW1  806   2.376   2.455   1.617  1.5024 -1.0710 -0.7900
  269SOL    HW2  807   2.314   2.605   1.684  0.5890  2.3889  1.8062
  270SOL     OW  808   0.181   2.920   2.010 -0.1687 -0.0535 -0.0951
  270SOL    HW1  809   0.178   2.914   1.903 -2.0614  0.6741 -1.1500
  270SOL    HW2  810   0.115   2.854   2.058 -0.4497  0.3481 -0.0829
  271SOL     OW  811   0.414   1.400   1.192 -0.0705  0.8294 -0.1229
  271SOL    HW1  812   0.389   1.389   1.089 -2.8422 -0.8415 -1.4524
  271SOL    HW2  813   0.330   1.384   1.253  0.5282  1.0666  1.5939
  272SOL     OW  814   2.002   2.885   1.949 -0.3860 -0.0445  0.3184
  272SOL    HW1  815   1.941   2.826   1.898 -2.0195  0.8587 -0.2231
  272SOL    HW2  816   2.072   2.932   1.881  1.1333  0.8601 -3.5438
  273SOL     OW  817   1.494   1.414   2.714  0.1314 -0.4946  0.0677
  273SOL    HW1  818   1.401   1.449   2.738  0.8096  0.2866  0.7684
  273SOL    HW2  819   1.541   1.374   2.796  0.7066  0.7027 -0.7918
  274SOL     OW  820   1.187   0.491   2.067 -0.3038 -0.0346  0.3384
  274SOL    HW1  821   1.146   0.397   2.051  0.2006 -1.4434  2.1897
  274SOL    HW2  822   1.207   0.511   2.166 -0.3175 -2.8717 -1.2271
  275SOL     OW  823   0.615   2.081   1.890  0.4313 -0.2623 -0.0846
  275SOL    HW1  824   0.614   2.173   1.936 -2.6683 -2.4348 -1.4784
  275SOL    HW2  825   0.532   2.023   1.899  1.2669  0.0892 -1.7808
  276SOL     OW  826   2.194   0.973   2.744  0.2477  0.7179 -0.3996
  276SOL    HW1  827   2.112   0.970   2.681 -1.9520 -0.3909 -0.8260
  276SOL    HW2  828   2.187   0.909   2.828  2.3200  0.6536 -1.5396
  277SOL     OW  829   3.087   0.877   0.227 -0.2028 -0.6886 -0.3391
  277SOL    HW1  830   3.177   0.911   0.185  1.4110  1.6567  1.2137
  277SOL    HW2  831   3.104   0.793   0.289 -0.1043 -0.9231  3.1781
  278SOL     OW  832   0.256   0.271   3.060  0.4551  0.3840 -0.7159
  278SOL    HW1  833   0.325   0.213   3.009 -2.4916 -1.9650  0.3223
  278SOL    HW2  834   0.299   0.352   3.106  0.8068  1.1095  2.5972
  279SOL     OW  835   0.194   0.065   0.873 -0.3158  0.2501  0.1030
  279SOL    HW1  836   0.203  -0.020   0.931 -1.1980 -0.7521 -3.4170
  279SOL    HW2  837   0.248   0.061   0.785 -1.7416  0.3305 -2.5239
  280SOL     OW  838   1.602   2.938   2.418 -0.0084 -0.5998 -0.4328
  280SOL    HW1  839   1.663   3.006   2.470 -0.1330 -1.4381  2.8639
  280SOL    HW2  840   1.524   2.982   2.363 -1.3336 -0.7929 -2.4268
  281SOL     OW  841   0.562   0.980   2.219 -0.5792 -0.5713  0.4620
  281SOL    HW1  842   0.554   0.889   2.173  0.7949  0.7045 -0.9543
  281SOL    HW2  843   0.498   0.979   2.304 -1.6114 -1.2445  0.8616
  282SOL     OW  844   1.771   2.494   0.517  0.0211  0.0175 -0.1042
  282SOL    HW1  845   1.719   2.422   0.460  2.0255  1.4717 -2.5840
  282SOL    HW2  846   1.727   2.589   0.516 -0.6512 -0.0072  1.5084
  283SOL     OW  847   1.176   0.928   0.839  0.8343  0.1759  0.1274
  283SOL    HW1  848   1.160   0.859   0.920 -0.2606 -1.2999 -0.0581
  283SOL    HW2  849   1.164   1.032   0.861 -1.7890  2.1999 -0.3469
  284SOL     OW  850   2.288   2.786   2.542  0.2023  0.4072 -0.6330
  284SOL    HW1  851   2.383   2.783   2.509 -0.1139 -3.2333  3.6640
  284SOL    HW2  852   2.272   2.852   2.628 -3.5660 -0.4985  0.6692
  285SOL     OW  853   1.328   3.036   2.571  0.5983 -0.3413 -0.3305
  285SOL    HW1  854   1.342   3.041   2.468 -2.5313 -0.6765 -0.1633
  285SOL    HW2  855   1.225   3.049   2.604 -3.0774  0.4734  0.3915
  286SOL     OW  856   0.461   0.445   0.719  0.0387 -0.8342  0.0744
  286SOL    HW1  857   0.400   0.423   0.799 -0.8534  0.3907  0.9503
  286SOL    HW2  858   0.468   0.372   0.649 -2.2301  2.9789 -0.5879
  287SOL     OW  859   0.100   1.293   2.494  0.0322  0.0446  0.2780
  287SOL    HW1  860   0.049   1.237   2.559 -1.4577 -2.3664 -1.7705
  287SOL    HW2  861   0.108   1.400   2.506 -0.4954  4.1674 -0.5772
  288SOL     OW  862   1.612   2.636   1.615  0.4678  0.7293  0.7912
  288SOL    HW1  863   1.587   2.613   1.713  0.5084 -2.2892 -3.0416
  288SOL    HW2  864   1.620   2.542   1.563  0.3474 -3.0992 -0.2527
  289SOL     OW  865   0.641   2.719   0.908 -0.3873  0.2786  0.1952
  289SOL    HW1  866   0.676   2.769   0.823  0.5634 -0.4238 -1.3499
  289SOL    HW2  867   0.615   2.787   0.981 -0.9218  0.0692 -1.3088
  290SOL     OW  868   2.816   1.107   1.722  0.1540  0.0617 -0.0308
  290SOL    HW1  869   2.731   1.042   1.732 -0.3285 -0.5904  4.1101
  290SOL    HW2  870   2.888   1.082   1.793 -0.7311  0.3082  1.7402
  291SOL     OW  871   2.001   0.037   0.032  0.0363 -0.3793 -0.4383
  291SOL    HW1  872   1.986   0.069   0.133 -1.1761  1.8426 -1.2699
  291SOL    HW2  873   2.030   0.110  -0.038  0.1737 -2.7270  2.3953
  292SOL     OW  874   2.986   1.156   3.073 -0.2819  0.4071  1.0066
  292SOL    HW1  875   2.927   1.233   3.030 -0.8774  1.9953 -1.0724
  292SOL    HW2  876   3.080   1.144   3.024  2.5327 -0.9063  1.1649
  293SOL     OW  877   0.543   2.142   0.217 -0.3048 -0.2532 -0.1711
  293SOL    HW1  878   0.510   2.230   0.262  1.5357  0.6521  2.1510
  293SOL    HW2  879   0.651   2.136   0.223 -1.7621 -0.3421  3.3298
  294SOL     OW  880   1.837   2.270   1.775  0.0192  0.2617  0.0864
  294SOL    HW1  881   1.838   2.303   1.874 -0.2227  1.5203 -2.4891
  294SOL    HW2  882   1.795   2.332   1.700 -0.6161  1.8770 -1.1812
  295SOL     OW  883   0.989   1.070   0.437 -0.1503  0.0596 -0.9742
  295SOL    HW1  884   1.078   1.044   0.496 -0.9037  1.4083 -1.0300
  295SOL    HW2  885   0.908   1.078   0.500  1.8112  0.0964  0.1587
  296SOL     OW  886   1.165   2.119   2.572 -0.3640  0.4003  0.5107
  296SOL    HW1  887   1.074   2.159   2.563  0.1248 -2.1653 -0.4561
  296SOL    HW2  888   1.182   2.040   2.501 -3.2181  0.4177  1.9054
  297SOL     OW  889   1.411   0.613   1.348 -0.6153  0.0600  0.2055
  297SOL    HW1  890   1.375   0.520   1.375  2.1005  1.5124 -1.0965
  297SOL    HW2  891   1.505   0.640   1.388  1.9859  0.7926  0.4282
  298SOL     OW  892   0.519   1.314   3.004  0.1708  0.2076 -0.5467
  298SOL    HW1  893   0.459   1.251   3.069 -1.6192 -1.4299  3.5812
  298SOL    HW2  894   0.573   1.265   2.931 -4.4926  0.0102  1.7175
  299SOL     OW  895   0.470   0.281   1.246 -0.0755  0.4337 -0.4909
  299SOL    HW1  896   0.404   0.366   1.254  0.3485  2.1597 -0.7760
  299SOL    HW2  897   0.542   0.283   1.320 -0.4822 -1.4749 -4.6226
  300SOL     OW  898   1.226   1.780   2.716  0.3208 -0.5488 -0.4205
  300SOL    HW1  899   1.205   1.678   2.733  1.6762  1.9906 -2.1267
  300SOL    HW2  900   1.328   1.806   2.718  1.2169  1.7195  0.2612
  301SOL     OW  901   0.427   0.285   0.485 -0.2965  0.1547 -0.3256
  301SOL    HW1  902   0.323   0.276   0.481  0.2118 -3.3691  0.1628
  301SOL    HW2  903   0.468   0.197   0.446 -0.7769 -2.1954  1.2925
  302SOL     OW  904   1.278   2.434   2.346 -0.0290 -1.0148  0.4858
  302SOL    HW1  905   1.192   2.478   2.386 -1.1039  1.7064  2.5520
  302SOL    HW2  906   1.294   2.336   2.372 -1.3603  1.7292  0.0023
  303SOL     OW  907   0.941   2.401   0.802 -0.1121 -0.2222 -0.5652
  303SOL    HW1  908   1.000   2.437   0.724  1.7769 -2.5278  0.0048
  303SOL    HW2  909   0.962   2.447   0.896 -0.2923 -0.3202  2.1666
  304SOL     OW  910   0.055   1.942   0.648  0.5315  0.0014  0.3013
  304SOL    HW1  911   0.119   1.922   0.564  1.0724  1.4899 -0.7213
  304SOL    HW2  912  -0.014   2.021   0.636 -1.4387 -0.5058  1.6498
  305SOL     OW  913   1.571   0.865   0.601  0.0340 -1.0115  0.6356
  305SOL    HW1  914   1.507   0.869   0.521 -0.9117 -1.4437  1.0584
  305SOL    HW2  915   1.604   0.769   0.621 -1.9019  0.5921 -1.0559
  306SOL     OW  916   0.395   1.850   1.908 -0.4015  0.0965 -0.2536
  306SOL    HW1  917   0.469   1.776   1.885  2.3584  3.4342 -1.1808
  306SOL    HW2  918   0.422   1.896   2.000 -0.3371  0.4151 -1.4293
  307SOL     OW  919   3.033   0.898   2.482 -0.3039 -0.1403  0.0554
  307SOL    HW1  920   3.069   0.971   2.549  2.7655 -0.1223  0.3765
  307SOL    HW2  921   2.968   0.833   2.532 -0.4705  0.2079  0.9762
  308SOL     OW  922   1.547   2.684   2.823 -0.2463 -0.2603 -0.2442
  308SOL    HW1  923   1.570   2.619   2.745  2.1181 -1.1199 -0.5964
  308SOL    HW2  924   1.476   2.641   2.889 -1.9639  1.2029  0.1721
  309SOL     OW  925   1.286   0.204   1.741  0.1940  0.0281  0.3132
  309SOL    HW1  926   1.371   0.161   1.781  1.0371  0.8495  0.7074
  309SOL    HW2  927   1.247   0.137   1.668 -0.3132 -2.4065  0.0597
  310SOL     OW  928   1.504   2.561   0.695  0.2070 -0.2365 -0.0254
  310SOL    HW1  929   1.483   2.542   0.797  0.3728  2.4277 -0.7973
  310SOL    HW2  930   1.560   2.649   0.684  1.9071  1.3533 -0.2504
  311SOL     OW  931   1.173   0.945   1.662  0.0988 -0.4889  0.1759
  311SOL    HW1  932   1.194   0.856   1.710 -3.2372 -0.7865 -1.3224
  311SOL    HW2  933   1.230   0.953   1.576 -2.0965 -2.0053  0.8033
  312SOL     OW  934   1.649   0.717   1.135 -0.6698 -0.3046  0.1688
  312SOL    HW1  935   1.681   0.812   1.107  0.9413  0.4681  1.4692
  312SOL    HW2  936   1.563   0.684   1.076 -1.5561  1.0038 -1.3217
  313SOL     OW  937   1.573   1.381   0.704 -0.5111  0.6174  0.0798
  313SOL    HW1  938   1.495   1.412   0.757  3.6645  1.3577  0.2127
  313SOL    HW2  939   1.565   1.281   0.665  0.7022 -0.2339 -0.8181
  314SOL     OW  940   2.937   0.026   3.001 -0.1268 -0.1500  0.4172
  314SOL    HW1  941   2.945   0.010   3.101  1.3111  1.8267  0.8227
  314SOL    HW2  942   2.842  -0.007   2.974  0.4744  0.3346 -1.9241
  315SOL     OW  943   1.164   0.203   2.780 -0.8690  0.2732  0.8032
  315SOL    HW1  944   1.129   0.119   2.728  0.9895  1.4327  0.8526
  315SOL    HW2  945   1.193   0.186   2.882  0.0779 -0.2752  0.0972
  316SOL     OW  946   1.750   2.037   0.900  0.5080  0.1930  1.1918
  316SOL    HW1  947   1.717   2.037   0.997  2.4334  2.1287 -1.4315
  316SOL    HW2  948   1.760   2.134   0.864 -1.3194  1.9398 -0.6026
  317SOL     OW  949   1.167   0.653   2.863 -0.0650  0.8147 -0.4789
  317SOL    HW1  950   1.102   0.699   2.927 -1.3768  0.9008  0.3544
  317SOL    HW2  951   1.125   0.581   2.800  0.7768  3.8026  1.2241
  318SOL     OW  952   1.375   3.030   2.305  0.6353  0.0269  0.1828
  318SOL    HW1  953   1.338   3.123   2.271 -0.6997 -0.1677  1.1525
  318SOL    HW2  954   1.361   2.958   2.229 -0.6443  1.0630 -2.2190
  319SOL     OW  955   0.610   2.418   2.941 -0.4755 -0.1792  0.5655
  319SOL    HW1  956   0.541   2.360   3.002 -2.1209 -1.2925  0.9332
  319SOL    HW2  957   0.709   2.391   2.954  0.5200 -0.9829 -2.6568
  320SOL     OW  958   1.674   2.255   0.436 -0.4648  0.3597 -0.2291
  320SOL    HW1  959   1.733   2.176   0.407  0.1552 -3.3842 -0.6621
  320SOL    HW2  960   1.579   2.222   0.470  1.1137  0.4224 -2.4824
  321SOL     OW  961   1.642   2.795   0.540  0.2937  0.0142  0.7184
  321SOL    HW1  962   1.565   2.829   0.486  1.5278 -1.2617  1.2105
  321SOL    HW2  963   1.729   2.837   0.505  2.3023 -1.0132  0.8925
  322SOL     OW  964   2.586   1.134   2.325 -0.5602  0.2993  0.3668
  322SOL    HW1  965   2.653   1.138   2.406  0.0148  0.8016 -1.9549
  322SOL    HW2  966   2.523   1.049   2.325 -0.1553  0.3735 -0.3494
  323SOL     OW  967   1.191   2.691   0.839  0.2196  0.0836  0.4357
  323SOL    HW1  968   1.174   2.668   0.742  0.4742  0.4235 -1.3809
  323SOL    HW2  969   1.133   2.775   0.867 -1.4328  0.5891  2.2599
  324SOL     OW  970   0.266   2.432   2.490 -0.1393 -0.3855 -0.6759
  324SOL    HW1  971   0.291   2.378   2.576  0.8847 -1.9927  2.3367
  324SOL    HW2  972   0.227   2.524   2.508  1.3435  0.8547  2.3987
  325SOL     OW  973   1.269   3.053   0.460 -0.5786 -0.3838 -0.4754
  325SOL    HW1  974   1.321   3.109   0.389  0.2996  1.6613 -2.7853
  325SOL    HW2  975   1.291   3.081   0.559  1.7821 -1.5100  0.7721
  326SOL     OW  976   2.468   0.797  -0.003 -0.0748 -0.3639  0.2134
  326SOL    HW1  977   2.379   0.744   0.001 -2.1053 -1.7086  1.0396
  326SOL    HW2  978   2.535   0.749   0.062  1.8070 -2.6475 -1.1910
  327SOL     OW  979   2.842   0.324   0.643 -0.4900 -0.3611 -0.7870
  327SOL    HW1  980   2.824   0.266   0.559  1.8323 -3.5692  0.4798
  327SOL    HW2  981   2.884   0.279   0.725 -1.0718 -0.2409 -4.5426
  328SOL     OW  982   2.613   0.553   0.403  0.1635 -0.1368 -0.3695
  328SOL    HW1  983   2.558   0.637   0.398 -0.5097 -0.9992 -0.2513
  328SOL    HW2  984   2.578   0.477   0.464  1.2252  1.1312 -0.6667
  329SOL     OW  985   2.961   2.973   2.139  0.3354 -0.2560  0.1683
  329SOL    HW1  986   3.016   2.930   2.213  1.1177 -0.2187 -1.9111
  329SOL    HW2  987   2.938   3.073   2.148 -0.3585 -0.3414  0.9425
  330SOL     OW  988   0.517   0.189   1.898  0.2026  0.3612  0.3704
  330SOL    HW1  989   0.601   0.184   1.836 -1.4192  1.1261  1.2254
  330SOL    HW2  990   0.509   0.116   1.973 -3.7428  3.8452  2.3134
  331SOL     OW  991   2.975   1.942   1.131  0.0357  0.4427 -0.7568
  331SOL    HW1  992   2.965   2.042   1.102  0.2920 -0.3460 -5.0149
  331SOL    HW2  993   2.920   1.920   1.215 -1.0990 -0.9418 -1.5926
  332SOL     OW  994   0.383   1.156   0.072  0.1980 -0.1049  0.3975
  332SOL    HW1  995   0.374   1.058   0.043  4.0821  2.0754 -0.8534
  332SOL    HW2  996   0.331   1.172   0.162 -1.1987 -0.4997  1.9176
  333SOL     OW  997   2.887   1.026   0.306 -0.4203 -0.4316 -0.1536
  333SOL    HW1  998   2.934   1.118   0.338  1.6438  1.2352  0.0375
  333SOL    HW2  999   2.959   0.955   0.281  2.3897 -0.0840  1.9169
  334SOL     OW 1000   1.693   1.253   1.832  0.1766 -0.1091 -0.5716
  334SOL    HW1 1001   1.779   1.278   1.782 -2.1213 -0.0774 -0.2234
  334SOL    HW2 1002   1.699   1.275   1.931 -1.9565 -1.5259 -2.0533
  335SOL     OW 1003   1.981   2.712   2.579  0.3507 -0.8049  0.0981
  335SOL    HW1 1004   1.921   2.692   2.664  0.1746  4.0716  1.5008
  335SOL    HW2 1005   2.062   2.772   2.610 -1.8636  2.5270  1.3223
  336SOL     OW 1006   0.235   0.124   2.737  0.0661 -0.7772 -0.7104
  336SOL    HW1 1007   0.320   0.121   2.796 -2.9680  1.2758  1.2840
  336SOL    HW2 1008   0.162   0.063   2.779 -1.1426  0.9235  1.0634
  337SOL     OW 1009   0.960   2.877   2.860  0.8270  0.3158  0.0235
  337SOL    HW1 1010   0.935   2.819   2.941  0.5733 -1.9437  0.2034
  337SOL    HW2 1011   1.017   2.958   2.890 -1.0870  2.5967  0.5933
  338SOL     OW 1012   0.051   1.009   0.637  0.1336  0.1506  0.3159
  338SOL    HW1 1013  -0.039   0.972   0.668 -0.0114 -0.7076 -1.8622
  338SOL    HW2 1014   0.054   1.109   0.618  1.4961 -0.3730 -1.9163
  339SOL     OW 1015   1.685   1.347   2.105  0.4816  0.2717  0.0248
  339SOL    HW1 1016   1.584   1.359   2.136  2.4040 -0.8930  1.2223
  339SOL    HW2 1017   1.739   1.435   2.099 -5.0222 -0.3735  0.9955
  340SOL     OW 1018   2.328   0.809   1.106 -0.6007  0.1021  0.3169
  340SOL    HW1 1019   2.226   0.813   1.092  0.3500  1.1876  1.6887
  340SOL    HW2 1020   2.369   0.714   1.083  2.3068 -1.7258 -0.7857
  341SOL     OW 1021   1.882   2.102   0.292  0.3750  0.0817 -0.3672
  341SOL    HW1 1022   1.895   2.148   0.200  0.9961 -2.4617 -0.3655
  341SOL    HW2 1023   1.975   2.094   0.342 -1.0948 -1.7679 -2.1667
  342SOL     OW 1024   2.258   2.125   2.784  0.2039 -0.2640  0.6585
  342SOL    HW1 1025   2.320   2.055   2.830 -3.2865 -3.2323  2.8517
  342SOL    HW2 1026   2.160   2.091   2.777 -1.8825 -0.5460 -2.0431
  343SOL     OW 1027   0.356   0.826   2.745 -0.0874 -0.1576  0.6006
  343SOL    HW1 1028   0.326   0.896   2.672 -0.1311 -1.7376 -3.8165
  343SOL    HW2 1029   0.440   0.863   2.798 -1.1723 -1.4028 -1.1892
  344SOL     OW 1030   1.927   1.434   0.429  0.4715  0.4559 -0.2591
  344SOL    HW1 1031   1.919   1.368   0.348 -2.2988  0.5431  0.2915
  344SOL    HW2 1032   1.834   1.473   0.463  0.6556 -0.0115  0.6155
  345SOL     OW 1033   1.396   2.235   2.927  0.1160 -0.0707 -0.1810
  345SOL    HW1 1034   1.304   2.186   2.911 -2.4357  0.5288  1.3159
  345SOL    HW2 1035   1.475   2.203   2.866 -1.0532 -2.8606 -1.1331
  346SOL     OW 1036   2.348   0.889   1.382 -0.1041 -0.0292  0.3541
  346SOL    HW1 1037   2.302   0.981   1.392  0.9566  0.1577  1.2655
  346SOL    HW2 1038   2.363   0.861   1.286 -3.0734  2.4412  1.2510
  347SOL     OW 1039   0.739   2.746   1.582 -0.0920 -0.4184  0.3789
  347SOL    HW1 1040   0.668   2.733   1.655 -0.5664 -0.3961  1.1715
  347SOL    HW2 1041   0.708   2.825   1.518 -1.0059 -1.2550 -0.1420
  348SOL     OW 1042   0.204   0.695   2.915 -0.3776  0.3722 -0.1911
  348SOL    HW1 1043   0.123   0.714   2.858 -0.1954  0.2897 -3.7019
  348SOL    HW2 1044   0.296   0.715   2.866  1.7327  1.3006 -0.7287
  349SOL     OW 1045   1.856   0.468   2.812 -0.4303 -0.1308  0.0508
  349SOL    HW1 1046   1.844   0.552   2.753  0.4526 -0.4770 -3.4761
  349SOL    HW2 1047   1.855   0.492   2.909  0.3330 -0.2580 -1.8405
  350SOL     OW 1048   1.665   0.428   0.387 -0.0326 -0.0108 -0.0614
  350SOL    HW1 1049   1.743   0.415   0.455 -1.9792  0.3080  0.7982
  350SOL    HW2 1050   1.648   0.525   0.354 -0.2617 -1.8574  0.2879
  351SOL     OW 1051   0.998   0.804   2.154 -0.4281 -0.3291 -0.0660
  351SOL    HW1 1052   0.972   0.900   2.130  0.4431 -1.0071  3.4826
  351SOL    HW2 1053   1.055   0.752   2.083 -1.0943 -2.4807 -1.2149
  352SOL     OW 1054   1.981   1.297   0.662  0.6362 -0.0896 -0.3710
  352SOL    HW1 1055   1.962   1.366   0.588  0.1735 -1.3537  2.7425
  352SOL    HW2 1056   1.908   1.314   0.737 -0.3126 -1.0704  1.8572
  353SOL     OW 1057   2.144   2.776   1.093  0.2490 -0.3129  0.2636
  353SOL    HW1 1058   2.203   2.735   1.167  2.4165  1.2704 -3.2387
  353SOL    HW2 1059   2.075   2.705   1.068  1.0540  1.2892  0.5726
  354SOL     OW 1060   0.249   1.365   2.897 -0.1146 -0.3801 -0.0967
  354SOL    HW1 1061   0.238   1.430   2.812  1.1495  0.1652  1.8687
  354SOL    HW2 1062   0.347   1.362   2.940  1.1764 -1.1720 -0.1095
  355SOL     OW 1063   0.714   1.581   0.584  0.1132  0.3752  0.4465
  355SOL    HW1 1064   0.718   1.587   0.685 -2.4740 -0.7367 -1.6355
  355SOL    HW2 1065   0.717   1.483   0.547  1.0519  1.3011 -1.3646
  356SOL     OW 1066   0.838   0.337   2.061 -0.1878  0.0788 -0.3805
  356SOL    HW1 1067   0.926   0.283   2.044 -6.2078 -0.5405  0.5597
  356SOL    HW2 1068   0.799   0.379   1.974  0.6712  0.3080  0.0026
  357SOL     OW 1069   1.004   1.338   0.333 -0.1324  0.7133  0.3165
  357SOL    HW1 1070   1.103   1.349   0.298  0.7119  0.7835  4.3156
  357SOL    HW2 1071   0.980   1.238   0.357  0.9791  0.7866  1.4074
  358SOL     OW 1072   1.679   1.503   0.491  0.3797  0.5507 -0.0455
  358SOL    HW1 1073   1.633   1.467   0.581  1.0907 -0.9434  2.0832
  358SOL    HW2 1074   1.611   1.510   0.413 -0.4787  1.2825 -3.0808
  359SOL     OW 1075   1.562   2.634   0.205  0.0884  0.0944 -0.0100
  359SOL    HW1 1076   1.574   2.538   0.175 -2.5223 -0.9666 -0.6195
  359SOL    HW2 1077   1.464   2.654   0.239  1.7398  0.1159  2.3164
  360SOL     OW 1078   0.816   0.570   0.545 -0.5515  0.0286 -0.0398
  360SOL    HW1 1079   0.716   0.588   0.531 -2.5650  2.3948 -3.0237
  360SOL    HW2 1080   0.839   0.469   0.551 -1.9396 -1.2679  0.9357
  361SOL     OW 1081   1.212   1.301   0.699  0.0755 -0.2620 -0.5588
  361SOL    HW1 1082   1.275   1.374   0.736 -0.2640  1.3457  1.2864
  361SOL    HW2 1083   1.113   1.335   0.697 -0.9515  1.2915  0.1776
  362SOL     OW 1084   1.406   1.838   0.825  0.4395 -0.1795  0.0875
  362SOL    HW1 1085   1.438   1.766   0.891  1.3546 -0.5176  0.4519
  362SOL    HW2 1086   1.480   1.854   0.755 -0.3640  0.5689 -0.3094
  363SOL     OW 1087   1.221   1.275   2.039 -0.2248  0.7251  0.3277
  363SOL    HW1 1088   1.303   1.322   2.076  1.1148  2.5679 -3.5279
  363SOL    HW2 1089   1.183   1.334   1.966 -0.9087  0.0985  0.3432
  364SOL     OW 1090   0.494   2.342   2.002  0.2474  0.1195 -0.0811
  364SOL    HW1 1091   0.405   2.394   1.995  0.9818  1.2846  2.5768
  364SOL    HW2 1092   0.562   2.365   1.927 -0.4195 -1.0760 -3.9258
  365SOL     OW 1093   1.005   1.940   1.372 -0.0284  0.4828 -0.6844
  365SOL    HW1 1094   0.907   1.953   1.405 -0.6434  1.3322  0.0088
  365SOL    HW2 1095   1.012   1.964   1.274  3.1146 -0.1728  0.7392
  366SOL     OW 1096   2.835   2.002   0.389 -0.0056 -0.3224  0.0345
  366SOL    HW1 1097   2.759   1.961   0.440  2.0333 -1.6113 -2.0661
  366SOL    HW2 1098   2.862   1.946   0.308  2.5287 -3.6639  0.5465
  367SOL     OW 1099   0.885   1.103   0.059 -0.6431 -0.2677 -0.6502
  367SOL    HW1 1100   0.937   1.031   0.115 -0.8891 -0.1528  1.0292
  367SOL    HW2 1101   0.948   1.181   0.023  1.6379  0.9596  0.1516
  368SOL     OW 1102   1.462   0.575   0.696 -0.6339  0.6282  0.0586
  368SOL    HW1 1103   1.420   0.582   0.598 -0.2950 -0.5249 -2.2393
  368SOL    HW2 1104   1.568   0.582   0.716  2.7011 -2.5741  0.3712
  369SOL     OW 1105   0.349   1.689   0.062  0.3940 -0.1523  0.0920
  369SOL    HW1 1106   0.373   1.768   0.129 -1.7382  2.0902 -1.2621
  369SOL    HW2 1107   0.287   1.622   0.112  2.8553  1.7654  0.8767
  370SOL     OW 1108   0.455   2.059   0.985 -0.2734 -0.3823 -0.1445
  370SOL    HW1 1109   0.463   2.159   1.000  1.1759 -0.6051  0.7496
  370SOL    HW2 1110   0.370   2.032   0.939  0.7728  1.9155  3.3448
  371SOL     OW 1111   2.929   2.207   2.645  0.5072  0.3312 -0.2711
  371SOL    HW1 1112   2.868   2.147   2.698  1.8811  0.6274 -1.0236
  371SOL    HW2 1113   3.022   2.226   2.692  1.8872  0.5349  3.5696
  372SOL     OW 1114   1.103   2.019   1.069 -0.6055 -0.1291 -0.4835
  372SOL    HW1 1115   1.029   2.043   0.998 -0.2772 -1.2915 -0.2778
  372SOL    HW2 1116   1.201   2.040   1.041 -1.1029 -1.1886  1.2655
  373SOL     OW 1117   2.015   1.979   0.850 -0.3214 -0.6297 -0.7446
  373SOL    HW1 1118   2.062   1.984   0.945 -1.5737 -1.1532  0.2153
  373SOL    HW2 1119   1.912   1.994   0.865 -0.5336  0.3691  4.2211
  374SOL     OW 1120   1.869   0.384   0.568  0.6630 -0.2002  0.0385
  374SOL    HW1 1121   1.854   0.316   0.640 -0.3640  2.7955  0.5657
  374SOL    HW2 1122   1.970   0.414   0.548 -1.5131  0.0573  0.4153
  375SOL     OW 1123   2.373   2.177   1.090 -0.5161 -0.4947  0.2692
  375SOL    HW1 1124   2.413   2.213   1.003 -0.5392 -1.2469 -0.2041
  375SOL    HW2 1125   2.444   2.126   1.144 -1.1266 -0.5378 -0.8169
  376SOL     OW 1126   3.080   0.577   1.480  0.9392  0.1255  0.5922
  376SOL    HW1 1127   3.087   0.651   1.558 -1.1883 -1.2171  0.8565
  376SOL    HW2 1128   3.002   0.509   1.493 -0.1509 -1.2987 -0.0729
  377SOL     OW 1129   2.202   2.906   0.306 -0.0670  0.2976 -0.2220
  377SOL    HW1 1130   2.187   2.999   0.347 -3.0519  1.0630 -1.3161
  377SOL    HW2 1131   2.300   2.869   0.328  1.3110  0.0057 -0.6815
  378SOL     OW 1132   1.851   1.855   2.614 -0.4158  0.2191  0.1846
  378SOL    HW1 1133   1.854   1.851   2.717 -0.8745 -2.3484  0.6743
  378SOL    HW2 1134   1.834   1.762   2.564  1.2139 -2.6712  0.6311
  379SOL     OW 1135   0.714   0.128   2.895 -0.6266 -0.4437 -0.6046
  379SOL    HW1 1136   0.672   0.044   2.865 -1.3209  0.4409  0.9311
  379SOL    HW2 1137   0.755   0.182   2.815  1.1905  2.2065 -0.5330
  380SOL     OW 1138   1.503   1.139   0.595 -0.0815  0.3470  0.3125
  380SOL    HW1 1139   1.403   1.150   0.625 -0.4140  1.2698  0.2822
  380SOL    HW2 1140   1.526   1.038   0.591  2.4259 -1.3301  1.2225
  381SOL     OW 1141   1.373   1.167   1.545 -0.1634 -0.2935 -0.4342
  381SOL    HW1 1142   1.399   1.144   1.448 -0.6764  0.5268 -2.1674
  381SOL    HW2 1143   1.453   1.151   1.606  0.3837  1.7427 -1.6349
  382SOL     OW 1144   1.763   0.834   0.181  0.1668  0.5581  0.0587
  382SOL    HW1 1145   1.785   0.830   0.082  1.2761  0.3037  2.8558
  382SOL    HW2 1146   1.827   0.896   0.235 -0.1459 -0.5356 -0.4178
  383SOL     OW 1147   2.605   0.992   1.468  0.1222  0.4764  0.0695
  383SOL    HW1 1148   2.528   0.917   1.447 -3.1201  0.0988  1.1813
  383SOL    HW2 1149   2.689   0.990   1.406 -0.5176  1.2028 -1.6052
  384SOL     OW 1150   0.921   2.287   0.145  0.7734 -0.1537  0.0730
  384SOL    HW1 1151   0.936   2.368   0.208  2.0611 -0.8246 -1.3143
  384SOL    HW2 1152   0.880   2.202   0.192 -1.2087  2.8688  0.5169
  385SOL     OW 1153   3.045   2.052   1.654 -0.4430  0.0212 -0.1714
  385SOL    HW1 1154   3.131   2.098   1.621  4.2190 -2.6344  1.4870
  385SOL    HW2 1155   3.057   1.945   1.641  1.1518 -1.4257  0.9311
  386SOL     OW 1156   0.501   1.123   0.385  0.5709  0.5855 -0.4007
  386SOL    HW1 1157   0.492   1.021   0.408 -1.1241 -0.3969  2.1792
  386SOL    HW2 1158   0.418   1.168   0.348  0.1060  0.5650  2.7460
  387SOL     OW 1159   0.937   0.329   1.624  0.2254 -0.4985  0.1335
  387SOL    HW1 1160   1.009   0.401   1.620  1.6007 -3.2231 -0.8007
  387SOL    HW2 1161   0.926   0.274   1.533 -0.3421 -2.5569 -1.4793
  388SOL     OW 1162   1.191   2.630   1.745 -0.0188  0.9254 -0.3462
  388SOL    HW1 1163   1.188   2.626   1.639  2.4351  1.3660 -2.6314
  388SOL    HW2 1164   1.258   2.567   1.798 -0.8767 -0.6122  0.7654
  389SOL     OW 1165   0.149   2.973   1.082  0.3836 -0.4194  0.2940
  389SOL    HW1 1166   0.046   2.977   1.079  0.4965 -0.3675  2.2680
  389SOL    HW2 1167   0.195   2.876   1.079  3.7661 -1.8960  0.7631
  390SOL     OW 1168   1.032   0.952   1.351 -0.0651 -0.1311  0.1883
  390SOL    HW1 1169   1.125   0.913   1.381 -0.7123  0.9094  2.5619
  390SOL    HW2 1170   1.003   1.034   1.413 -1.9074 -0.5671 -2.1889
  391SOL     OW 1171   2.096   1.106   1.076  0.2017 -0.9082  0.1355
  391SOL    HW1 1172   2.089   1.015   1.120 -0.0847 -2.3524  0.0465
  391SOL    HW2 1173   2.126   1.092   0.974 -0.7942  1.8114 -1.4466
  392SOL     OW 1174   0.889   2.713   3.069 -0.3033  0.5231  0.0742
  392SOL    HW1 1175   0.808   2.707   3.139 -3.6437  1.5174  0.5308
  392SOL    HW2 1176   0.977   2.738   3.118  1.3888  1.5742  0.1214
  393SOL     OW 1177   0.315   0.505   1.970  0.5757  0.3772  0.2253
  393SOL    HW1 1178   0.263   0.425   1.933  2.2680  0.0130 -3.6355
  393SOL    HW2 1179   0.414   0.513   1.931 -1.6288 -0.1630 -1.5102
  394SOL     OW 1180   3.039   1.848   2.792  0.4584 -0.5865  0.9541
  394SOL    HW1 1181   3.123   1.849   2.848 -1.9884 -2.7586  1.1425
  394SOL    HW2 1182   3.060   1.854   2.689  1.6132  0.0647 -0.8224
  395SOL     OW 1183   1.618   1.920   0.683  0.0652 -0.5006 -0.0697
  395SOL    HW1 1184   1.668   1.850   0.626 -1.2140 -0.1069  1.0945
  395SOL    HW2 1185   1.685   1.961   0.753 -2.3587 -1.9182  1.9359
  396SOL     OW 1186   2.804   1.918   1.340  0.2948 -0.3538 -0.0235
  396SOL    HW1 1187   2.727   1.858   1.331  1.8635 -3.7844 -0.9076
  396SOL    HW2 1188   2.799   1.966   1.432  0.0814 -3.0196 -0.1333
  397SOL     OW 1189   1.021   2.229   0.504  0.3236  1.1964  0.3085
  397SOL    HW1 1190   0.938   2.176   0.518  3.5173 -2.2415  0.9662
  397SOL    HW2 1191   1.042   2.301   0.580 -1.2846  0.9474  0.6191
  398SOL     OW 1192   2.113   3.059   1.054 -0.1297  0.2068 -0.3375
  398SOL    HW1 1193   2.116   2.964   1.092  0.3635 -1.9603  1.9518
  398SOL    HW2 1194   2.073   3.125   1.121 -0.2098 -0.8871 -3.3941
  399SOL     OW 1195   2.983   2.525   2.591 -0.2964 -0.0604 -1.4102
  399SOL    HW1 1196   2.903   2.483   2.541  3.5376 -0.5997  2.5731
  399SOL    HW2 1197   2.971   2.507   2.695  2.5779 -2.5007  0.4269
  400SOL     OW 1198   0.783   1.622   1.312 -0.3499  0.4148  0.2331
  400SOL    HW1 1199   0.742   1.668   1.390  1.9145 -1.0878 -0.2696
  400SOL    HW2 1200   0.748   1.663   1.219 -1.8220 -1.2185 -2.0486
  401SOL     OW 1201   1.802   0.094   1.373 -0.1331 -0.7020  0.5582
  401SOL    HW1 1202   1.848   0.112   1.462  0.3342  1.1162 -1.8263
  401SOL    HW2 1203   1.701   0.112   1.383 -1.0848  0.4750  1.1313
  402SOL     OW 1204   1.320   0.154   3.029 -0.0280 -0.0997 -0.1529
  402SOL    HW1 1205   1.413   0.144   2.978 -2.9869 -0.3768 -0.0930
  402SOL    HW2 1206   1.310   0.251   3.067 -1.0127 -0.5639  2.4009
  403SOL     OW 1207   2.305   1.805   0.877  0.0319 -0.1634 -0.1421
  403SOL    HW1 1208   2.397   1.784   0.909 -0.9861  0.6574  1.4124
  403SOL    HW2 1209   2.249   1.863   0.941  2.6508 -1.6395  0.8439
  404SOL     OW 1210   0.180   2.493   2.821  0.0381 -0.0590  0.1327
  404SOL    HW1 1211   0.266   2.432   2.822 -0.7791 -3.4390 -0.9523
  404SOL    HW2 1212   0.189   2.595   2.819 -1.2893 -2.0702 -0.4184
  405SOL     OW 1213   0.178   2.412   0.640 -0.0820 -0.3471  0.1589
  405SOL    HW1 1214   0.134   2.372   0.554 -2.4026 -2.4799  1.9228
  405SOL    HW2 1215   0.226   2.502   0.618 -3.7140 -1.6813  0.6331
  406SOL     OW 1216   0.019   1.474   3.003 -0.6200  0.2366  0.1724
  406SOL    HW1 1217   0.103   1.412   2.986  0.8834 -1.0300 -1.2029
  406SOL    HW2 1218   0.045   1.565   3.043  1.2227 -4.6103 -0.4011
  407SOL     OW 1219   1.594   0.945   0.918  0.1749  0.4804  0.1450
  407SOL    HW1 1220   1.574   0.895   0.829  0.0575 -0.2489 -1.5865
  407SOL    HW2 1221   1.511   0.991   0.952  1.0410  1.4489 -0.2390
  408SOL     OW 1222   1.597   2.320   0.948  0.0757  0.1964 -0.4512
  408SOL    HW1 1223   1.646   2.315   0.860 -1.8340 -1.7977  1.0829
  408SOL    HW2 1224   1.563   2.419   0.968 -1.1577  3.6351 -1.4276
  409SOL     OW 1225   0.677   0.846   0.706  0.3050 -0.4237 -0.1709
  409SOL    HW1 1226   0.635   0.829   0.615  0.6802 -0.0311  2.5584
  409SOL    HW2 1227   0.668   0.762   0.773  0.6629 -2.7059 -0.9360
  410SOL     OW 1228   1.244   2.045   1.435 -0.0594  0.3576 -0.0150
  410SOL    HW1 1229   1.302   2.017   1.522 -2.7607  2.1372 -1.2150
  410SOL    HW2 1230   1.154   1.991   1.425 -1.2676  0.1453 -0.6698
  411SOL     OW 1231   2.506   1.845   0.020 -0.0820  0.1185  0.3286
  411SOL    HW1 1232   2.433   1.904  -0.020  0.6899  0.7647  0.6665
  411SOL    HW2 1233   2.587   1.829  -0.045 -0.0201 -3.4215 -1.1628
  412SOL     OW 1234   1.463   2.540   2.194 -0.3872  0.7576  0.2261
  412SOL    HW1 1235   1.533   2.613   2.209 -0.1840 -0.8650  0.3225
  412SOL    HW2 1236   1.388   2.540   2.266 -0.6006  0.7568  0.5607
  413SOL     OW 1237   3.086   0.296   2.945 -0.1355  0.5748  0.7127
  413SOL    HW1 1238   3.049   0.199   2.938 -1.1979  0.5190 -1.2728
  413SOL    HW2 1239   3.181   0.305   2.992  0.2108 -3.4918 -1.5285
  414SOL     OW 1240   1.827   1.449   1.239  0.0740 -0.1859 -0.4798
  414SOL    HW1 1241   1.754   1.499   1.296 -1.3442 -1.4741 -1.9748
  414SOL    HW2 1242   1.795   1.363   1.195  2.7838  3.2201  0.9889
  415SOL     OW 1243   0.292   2.178   0.739  0.4401  0.3390 -0.0104
  415SOL    HW1 1244   0.272   2.280   0.750 -1.6156 -0.8738 -2.6337
  415SOL    HW2 1245   0.212   2.116   0.757 -0.6127 -3.5366  1.6099
  416SOL     OW 1246   0.352   1.045   1.052 -0.4875 -0.4394 -0.3367
  416SOL    HW1 1247   0.315   1.019   0.957  0.6385 -2.0347 -0.5505
  416SOL    HW2 1248   0.432   1.105   1.045 -0.3271 -0.8500  1.8150
  417SOL     OW 1249   2.143   2.296   1.917  0.2361 -0.5161  0.3579
  417SOL    HW1 1250   2.183   2.205   1.935 -2.0070 -0.3367  1.4510
  417SOL    HW2 1251   2.041   2.290   1.896  0.4083 -0.0144 -1.0676
  418SOL     OW 1252   1.133   0.503   1.325 -0.0755  0.1763  0.3787
  418SOL    HW1 1253   1.058   0.452   1.284  4.0029  1.5464 -0.0619
  418SOL    HW2 1254   1.205   0.533   1.254  0.7185 -2.4834  2.3971
  419SOL     OW 1255   0.963   0.377   3.038 -0.8659  0.0438 -0.1418
  419SOL    HW1 1256   0.970   0.401   2.935  3.3925  0.7211 -1.5477
  419SOL    HW2 1257   0.867   0.360   3.071  0.0661  3.6930  1.9528
  420SOL     OW 1258   0.106   2.262   0.401 -0.2190  0.0631  0.5581
  420SOL    HW1 1259   0.050   2.260   0.313 -0.4432 -0.4501  0.2067
  420SOL    HW2 1260   0.066   2.200   0.474 -0.6686 -1.1964  1.5781
  421SOL     OW 1261   0.324   2.942   0.705  0.3525 -0.4318 -0.1510
  421SOL    HW1 1262   0.304   2.898   0.795  1.4391 -1.7942  1.6634
  421SOL    HW2 1263   0.417   2.986   0.700 -0.0373  0.3701  2.6622
  422SOL     OW 1264   1.003   2.556   1.029  0.5133 -0.4615 -0.2733
  422SOL    HW1 1265   1.086   2.607   0.988  0.4998 -0.4774  0.6404
  422SOL    HW2 1266   0.999   2.577   1.134 -2.7627  0.5829  1.4514
  423SOL     OW 1267   0.124   0.669   1.263 -0.0068 -0.3986  0.1688
  423SOL    HW1 1268   0.079   0.632   1.346  0.0598  1.9442 -3.3325
  423SOL    HW2 1269   0.062   0.737   1.209  3.0763 -1.2243 -0.3576
  424SOL     OW 1270   1.034   2.236   2.052  0.0375 -0.2335  0.5034
  424SOL    HW1 1271   1.014   2.337   2.032  0.2064 -0.1237 -0.6146
  424SOL    HW2 1272   1.007   2.201   2.144 -0.4971 -0.1837  0.4296
  425SOL     OW 1273   1.994   1.430   0.978  0.4189 -0.4366  0.0420
  425SOL    HW1 1274   2.039   1.342   1.000 -1.1658  2.4952  1.9641
  425SOL    HW2 1275   2.052   1.494   0.924 -2.3653 -0.7313 -0.1199
  426SOL     OW 1276   1.550   1.580   1.380 -0.0415  0.6321 -0.2205
  426SOL    HW1 1277   1.514   1.661   1.325  0.9309 -0.4358  0.5815
  426SOL    HW2 1278   1.478   1.532   1.432  0.7497 -1.6778  0.3653
  427SOL     OW 1279   1.853   2.343   2.053  0.3475 -0.1415 -0.3501
  427SOL    HW1 1280   1.925   2.273   2.088 -2.4059 -0.8278 -0.3638
  427SOL    HW2 1281   1.886   2.440   2.063  0.4576 -0.5008  1.1226
  428SOL     OW 1282   0.858   3.001   0.190 -0.3576  0.3930 -0.3557
  428SOL    HW1 1283   0.856   3.091   0.143 -0.1032  1.5817  0.4889
  428SOL    HW2 1284   0.950   2.958   0.171 -0.5071 -0.8993  1.6959
  429SOL     OW 1285   1.332   0.103   0.223 -0.3303  0.0898  0.1379
  429SOL    HW1 1286   1.417   0.151   0.258  0.0459 -0.7743 -0.8657
  429SOL    HW2 1287   1.320   0.107   0.119 -0.0685  0.2374 -0.8126
  430SOL     OW 1288   2.796   1.419   0.388  0.4818 -0.1522 -0.3631
  430SOL    HW1 1289   2.844   1.482   0.320 -0.4227  1.5646  1.7898
  430SOL    HW2 1290   2.793   1.467   0.480 -1.4367  1.1585  1.4636
  431SOL     OW 1291   2.163   1.577   0.816  0.1618 -0.2269  0.2675
  431SOL    HW1 1292   2.237   1.651   0.834 -2.8901  1.1497  1.4815
  431SOL    HW2 1293   2.088   1.610   0.751 -0.4209 -0.6701 -0.0957
  432SOL     OW 1294   2.888   2.242   1.242  0.5444  0.2067 -0.3271
  432SOL    HW1 1295   2.810   2.176   1.230 -0.2683  1.9609 -0.7998
  432SOL    HW2 1296   2.917   2.271   1.336  0.5741  1.3224  0.9774
  433SOL     OW 1297   1.938   0.391   0.871  0.3116  0.1789  0.0328
  433SOL    HW1 1298   1.864   0.329   0.915 -0.8406 -0.3351  2.1293
  433SOL    HW2 1299   2.022   0.399   0.928 -0.5050 -1.9234  0.4610
  434SOL     OW 1300   1.532   0.302   0.783  0.0928 -0.2753 -0.0516
  434SOL    HW1 1301   1.508   0.406   0.765 -2.0053  0.6308 -0.5732
  434SOL    HW2 1302   1.617   0.296   0.843  2.3881 -0.2042  1.3269
  435SOL     OW 1303   1.433   1.439   2.159 -0.0368  0.3616  0.5560
  435SOL    HW1 1304   1.360   1.466   2.224 -2.3074 -1.3486  3.7723
  435SOL    HW2 1305   1.453   1.504   2.079  0.9134  1.7007  2.5419
  436SOL     OW 1306   1.685   2.727   2.225 -0.3025  0.3170 -0.7593
  436SOL    HW1 1307   1.638   2.810   2.272  1.1196 -0.1395 -1.7771
  436SOL    HW2 1308   1.709   2.654   2.295 -0.0388  1.7005 -1.4872
  437SOL     OW 1309   1.042   2.918   0.911 -0.3691  0.5051  0.3015
  437SOL    HW1 1310   0.996   3.001   0.875 -0.2358 -2.9164 -2.9459
  437SOL    HW2 1311   1.009   2.888   1.001  1.0980 -1.9106 -1.0350
  438SOL     OW 1312   1.033   2.573   1.314  0.1078  0.0439 -0.0336
  438SOL    HW1 1313   1.092   2.607   1.393  1.5088  0.6637  1.2602
  438SOL    HW2 1314   1.022   2.470   1.319  1.9452  1.9310  0.2584
  439SOL     OW 1315   0.711   1.711   1.063  0.0095 -0.5070  0.3403
  439SOL    HW1 1316   0.731   1.803   1.013 -0.4594 -1.1557 -3.1494
  439SOL    HW2 1317   0.606   1.698   1.065 -0.6141 -0.1193 -0.2174
  440SOL     OW 1318   0.992   2.493   1.954  0.4962  0.3616  0.4061
  440SOL    HW1 1319   0.952   2.506   1.855  0.8131 -0.2336 -1.3072
  440SOL    HW2 1320   1.087   2.530   1.971  1.1376 -1.1150  1.0420
  441SOL     OW 1321   0.428   2.750   1.392  0.6254  0.0881 -0.4639
  441SOL    HW1 1322   0.467   2.652   1.410  2.8614 -1.7949  0.9392
  441SOL    HW2 1323   0.354   2.757   1.323 -0.0675 -2.6190  3.6442
  442SOL     OW 1324   2.318   0.664   2.479  0.7001 -0.3564 -0.4463
  442SOL    HW1 1325   2.309   0.561   2.477 -1.1266  1.8760 -2.2951
  442SOL    HW2 1326   2.227   0.712   2.475  0.7246 -0.3638 -0.3308
  443SOL     OW 1327   1.214   2.731   2.184  0.5482 -0.0379 -0.1784
  443SOL    HW1 1328   1.274   2.735   2.265 -1.9810  0.1814 -1.5573
  443SOL    HW2 1329   1.166   2.639   2.158 -0.3315  0.2556 -1.6894
  444SOL     OW 1330   1.141   1.320   1.606 -0.5873  0.2075  0.2763
  444SOL    HW1 1331   1.231   1.273   1.580 -1.8000  0.8558 -0.2343
  444SOL    HW2 1332   1.142   1.373   1.694  1.5761 -0.6728  0.9928
  445SOL     OW 1333   0.010   2.416   1.886 -0.2333 -0.0717 -0.3143
  445SOL    HW1 1334   0.001   2.500   1.821 -1.2838 -0.1988 -0.8448
  445SOL    HW2 1335  -0.084   2.393   1.931 -3.9991 -1.4504  0.2369
  446SOL     OW 1336   0.273   1.915   2.364  0.4654 -0.3598  0.3722
  446SOL    HW1 1337   0.216   1.993   2.417 -1.5701  2.2193  1.4312
  446SOL    HW2 1338   0.207   1.856   2.312 -2.9732 -0.3482  1.3332
  447SOL     OW 1339   1.236   1.713   1.926  0.1730 -0.1309  0.4228
  447SOL    HW1 1340   1.144   1.758   1.902 -0.3681  1.1922 -1.3736
  447SOL    HW2 1341   1.297   1.784   1.971 -0.2025  1.4523 -0.3269
  448SOL     OW 1342   0.131   1.471   1.996  0.2541  0.2191 -0.4047
  448SOL    HW1 1343   0.162   1.563   1.954  3.4369  0.2232  0.7001
  448SOL    HW2 1344   0.084   1.480   2.089 -4.1151  0.3239  1.6868
  449SOL     OW 1345   1.852   3.008   0.859  0.5152 -0.3166 -0.0388
  449SOL    HW1 1346   1.931   3.026   0.924  0.4615  0.3866 -2.7899
  449SOL    HW2 1347   1.876   2.933   0.794  0.7726  1.7513  1.2193
  450SOL     OW 1348   2.388   1.461   0.707 -0.2270 -0.6330  0.1190
  450SOL    HW1 1349   2.294   1.476   0.746  0.0467 -0.0362  2.0597
  450SOL    HW2 1350   2.398   1.514   0.614 -2.9836  1.4853 -1.7011
  451SOL     OW 1351   1.378   3.000   1.435  0.1194 -0.1483  0.1499
  451SOL    HW1 1352   1.312   3.083   1.441 -1.3350  0.2990  0.8133
  451SOL    HW2 1353   1.381   2.951   1.529  0.8789 -1.5817 -0.4393
  452SOL     OW 1354   2.711   2.283   2.180  0.0047  0.4221 -0.2134
  452SOL    HW1 1355   2.637   2.353   2.190 -1.0373  1.3373 -1.0991
  452SOL    HW2 1356   2.756   2.254   2.271 -0.7893 -0.6325  0.1833
  453SOL     OW 1357   2.472   2.650   0.015  0.6434  0.0228  0.1475
  453SOL    HW1 1358   2.402   2.725   0.039 -1.6448  2.7952  2.2183
  453SOL    HW2 1359   2.450   2.599  -0.069 -1.6575 -0.3786  0.2824
  454SOL     OW 1360   0.964   1.151   2.096  0.2977  0.0761  0.2719
  454SOL    HW1 1361   0.963   1.141   1.992  0.3431 -0.7914  0.1093
  454SOL    HW2 1362   1.047   1.207   2.124  1.4393  1.1542 -1.0625
  455SOL     OW 1363   0.638   2.692   2.917  0.3286  0.1617  1.1318
  455SOL    HW1 1364   0.727   2.714   2.963 -3.2008 -3.1070 -0.4128
  455SOL    HW2 1365   0.611   2.591   2.936  2.4303 -0.4861  1.5981
  456SOL     OW 1366   0.449   1.863   0.247 -0.1011 -0.2851 -0.1294
  456SOL    HW1 1367   0.526   1.826   0.305  0.9463 -0.2091  1.7185
  456SOL    HW2 1368   0.463   1.962   0.217 -1.4925 -1.7611 -3.1661
  457SOL     OW 1369   0.319   2.644   0.614 -0.3792  0.4066  0.4531
  457SOL    HW1 1370   0.330   2.741   0.566 -1.4752  3.5800  0.0390
  457SOL    HW2 1371   0.397   2.580   0.594  2.8017 -0.2469  5.0457
  458SOL     OW 1372   2.919   3.071   1.259  0.2337 -0.3619 -0.4862
  458SOL    HW1 1373   2.973   3.161   1.263  2.0583  1.7639 -2.1424
  458SOL    HW2 1374   2.937   3.009   1.175  0.4787 -3.2837  0.5086
  459SOL     OW 1375   2.139   2.570   0.803  0.4180 -0.4935  0.5081
  459SOL    HW1 1376   2.195   2.652   0.834  2.7979  0.6799  1.7122
  459SOL    HW2 1377   2.167   2.524   0.716  2.0083 -2.5608  3.0693
  460SOL     OW 1378   1.244   2.032   2.838 -0.0410 -0.5044  0.1438
  460SOL    HW1 1379   1.236   2.102   2.765 -1.1350 -2.1911 -1.1834
  460SOL    HW2 1380   1.224   1.942   2.798 -1.2643  0.7869  1.4892
  461SOL     OW 1381   0.550   2.117   2.642  0.1147 -0.7415  0.3371
  461SOL    HW1 1382   0.501   2.029   2.612 -0.2920  2.1933 -1.4710
  461SOL    HW2 1383   0.605   2.112   2.734  0.5753 -1.0121  1.8733
  462SOL     OW 1384   0.961   1.156   1.820 -0.3443 -0.0951 -0.3030
  462SOL    HW1 1385   1.000   1.108   1.740 -2.4654  1.1140  2.8171
  462SOL    HW2 1386   0.899   1.230   1.782  0.5148 -1.0234  0.8084
  463SOL     OW 1387   0.473   0.839   0.473 -0.0041 -0.3898 -0.5612
  463SOL    HW1 1388   0.502   0.740   0.482 -2.5826 -0.6397 -4.6168
  463SOL    HW2 1389   0.368   0.860   0.482 -2.2049  0.9209  0.0000
  464SOL     OW 1390   0.633   2.294   2.241 -0.1180 -0.1240 -0.2638
  464SOL    HW1 1391   0.605   2.361   2.315  1.6774  1.3477  1.0234
  464SOL    HW2 1392   0.567   2.280   2.161 -0.4679  0.4506  0.5426
  465SOL     OW 1393   0.270   0.954   0.776  1.1426 -0.2591 -0.2384
  465SOL    HW1 1394   0.170   0.983   0.744 -2.5498  1.3941 -2.6496
  465SOL    HW2 1395   0.281   0.850   0.759  0.9750  0.9703  0.7571
  466SOL     OW 1396   1.412   1.142   1.002  0.1963 -0.6211  0.0232
  466SOL    HW1 1397   1.448   1.237   0.999  0.7792  0.2700  2.4843
  466SOL    HW2 1398   1.316   1.133   1.046 -1.9615 -1.3100  2.6208
  467SOL     OW 1399   0.498   0.353   2.401 -0.2750 -0.6619 -0.0174
  467SOL    HW1 1400   0.451   0.445   2.407 -0.7863  1.6326  0.0072
  467SOL    HW2 1401   0.502   0.316   2.500 -1.3979  0.1415  3.1572
  468SOL     OW 1402   0.467   2.284   1.660 -0.1210 -0.1304  0.4949
  468SOL    HW1 1403   0.529   2.357   1.705 -0.2837  0.5113 -1.6722
  468SOL    HW2 1404   0.407   2.320   1.581 -1.9964  1.9571 -0.5550
  469SOL     OW 1405   1.469   1.415   1.167  0.2389  0.5567  0.2795
  469SOL    HW1 1406   1.538   1.333   1.174 -1.0064 -0.9246  1.3837
  469SOL    HW2 1407   1.499   1.489   1.230  2.6998 -1.6864 -0.0827
  470SOL     OW 1408   3.020   1.705   0.702  0.1721 -0.7409  0.1129
  470SOL    HW1 1409   3.080   1.782   0.680 -2.9157 -1.7424  0.2234
  470SOL    HW2 1410   2.993   1.701   0.801  0.5022  0.0430  1.4033
  471SOL     OW 1411   2.705   1.269   2.130  0.3827  0.5797 -0.5757
  471SOL    HW1 1412   2.660   1.228   2.210 -0.0966 -0.2592 -3.0598
  471SOL    HW2 1413   2.747   1.364   2.146 -0.0198  0.1757 -0.2421
  472SOL     OW 1414   1.168   2.461   0.018  0.2799  0.4112 -0.6474
  472SOL    HW1 1415   1.238   2.430   0.088  1.0520 -0.9711 -1.3716
  472SOL    HW2 1416   1.068   2.446   0.040  0.1604 -1.3012 -3.2128
  473SOL     OW 1417   1.084   1.545   1.009  0.4643 -0.0231  0.1287
  473SOL    HW1 1418   0.982   1.544   0.975 -2.2230 -1.3238 -1.2591
  473SOL    HW2 1419   1.091   1.480   1.088  1.3086  3.6164  0.9670
  474SOL     OW 1420   0.674   1.293   0.573  0.3811  0.2329 -0.1085
  474SOL    HW1 1421   0.645   1.262   0.481  0.0149  0.0533  1.0609
  474SOL    HW2 1422   0.721   1.218   0.624 -0.3401  0.8637 -0.6732
  475SOL     OW 1423   2.841   0.067   0.786  0.0863  0.5236  0.1616
  475SOL    HW1 1424   2.915   0.113   0.837 -0.5939  1.0921 -1.5858
  475SOL    HW2 1425   2.757   0.115   0.807 -0.3390 -0.3978 -0.5044
  476SOL     OW 1426   0.993   3.048   1.818 -0.0312 -0.5100 -0.1018
  476SOL    HW1 1427   1.035   2.966   1.868  1.7086 -0.5201 -2.2458
  476SOL    HW2 1428   1.008   3.042   1.714 -2.6583  1.6812  1.1444
  477SOL     OW 1429   1.448   0.326   2.483  0.4460 -0.0478 -0.0019
  477SOL    HW1 1430   1.421   0.327   2.585  1.6939 -0.7139  2.5011
  477SOL    HW2 1431   1.539   0.284   2.475  0.8411 -0.2510  2.8421
  478SOL     OW 1432   2.216   1.845   0.209 -0.2574 -0.4214  0.3299
  478SOL    HW1 1433   2.132   1.783   0.209 -0.8860  1.2080 -2.7555
  478SOL    HW2 1434   2.301   1.797   0.228 -3.2587  0.8752  0.8174
  479SOL     OW 1435   1.278   1.039   2.923  0.2365  0.3742  0.0017
  479SOL    HW1 1436   1.344   1.005   2.860 -1.1565  2.0243  1.7656
  479SOL    HW2 1437   1.184   0.996   2.913  0.8023  1.3931  2.5352
  480SOL     OW 1438   2.588   2.362   0.396 -0.7479  0.3739  0.2793
  480SOL    HW1 1439   2.549   2.274   0.434 -0.8383 -2.0191 -1.1536
  480SOL    HW2 1440   2.531   2.391   0.315 -2.0091 -1.1226  0.4627
  481SOL     OW 1441   0.985   1.131   0.875  0.2055 -0.1761 -0.2281
  481SOL    HW1 1442   0.991   1.224   0.834 -0.0212 -2.2760 -0.2182
  481SOL    HW2 1443   1.027   1.125   0.969 -2.9456  0.4601 -0.1726
  482SOL     OW 1444   1.576   0.271   2.043 -0.5802 -0.5270  0.2978
  482SOL    HW1 1445   1.563   0.370   2.046  0.2907  0.8373 -0.5958
  482SOL    HW2 1446   1.680   0.245   2.058  1.5098 -0.6722 -3.5996
  483SOL     OW 1447   0.121   2.329   1.272 -0.3007  0.1684  0.1022
  483SOL    HW1 1448   0.034   2.327   1.330 -1.2657 -0.2126  0.2707
  483SOL    HW2 1449   0.152   2.429   1.256 -1.8353  0.6927  1.6564
  484SOL     OW 1450   1.744   1.089   1.344 -0.2000 -0.4861  0.2898
  484SOL    HW1 1451   1.821   1.022   1.358 -1.3177  2.0395  0.6576
  484SOL    HW2 1452   1.762   1.176   1.394  0.8118 -0.6277 -0.9085
  485SOL     OW 1453   0.716   1.033   1.814  0.3750  0.4512  0.0995
  485SOL    HW1 1454   0.743   1.011   1.714  0.5390  0.3872 -2.4907
  485SOL    HW2 1455   0.791   1.076   1.866 -3.2728  1.4438  2.3863
  486SOL     OW 1456   0.826   1.927   2.460  0.1987  0.3637  0.6707
  486SOL    HW1 1457   0.894   1.890   2.527 -1.0288  2.6115 -1.1415
  486SOL    HW2 1458   0.814   2.028   2.464  1.8444 -1.0670  4.2893
  487SOL     OW 1459   1.819   1.670   0.951  0.1355  0.1201 -0.0166
  487SOL    HW1 1460   1.879   1.584   0.970  1.2921 -0.2448 -0.0899
  487SOL    HW2 1461   1.866   1.724   0.879  5.3957 -0.8867  1.4816
  488SOL     OW 1462   2.982   0.867   2.226  0.4124 -0.2619  0.5718
  488SOL    HW1 1463   3.010   0.773   2.191 -1.6433 -1.3414  1.4203
  488SOL    HW2 1464   2.993   0.875   2.331  0.9239 -1.1285  1.0215
  489SOL     OW 1465   2.772   0.269   1.274  0.1472 -0.9051  0.1813
  489SOL    HW1 1466   2.762   0.294   1.370  3.1882 -2.1684  0.1569
  489SOL    HW2 1467   2.867   0.240   1.254 -2.6379  2.9442 -0.8131
  490SOL     OW 1468   1.511   2.969   2.768 -0.5856  0.4235  0.0389
  490SOL    HW1 1469   1.540   2.868   2.778 -2.4324 -0.0387  1.0130
  490SOL    HW2 1470   1.441   2.985   2.697  0.4335  0.6098  1.3438
  491SOL     OW 1471   1.755   1.458   2.628 -0.0027  0.0068 -0.3068
  491SOL    HW1 1472   1.669   1.483   2.684  0.9614 -0.4303  2.4302
  491SOL    HW2 1473   1.845   1.498   2.662  0.9423  0.1118 -0.3057
  492SOL     OW 1474   0.528   2.056   0.675 -0.8454 -0.8561  0.1309
  492SOL    HW1 1475   0.578   2.011   0.759  1.1635 -2.0680  0.3666
  492SOL    HW2 1476   0.442   2.100   0.708  2.6460 -0.5973  1.4829
  493SOL     OW 1477   0.401   1.420   2.025 -0.6922 -0.4510  0.2855
  493SOL    HW1 1478   0.301   1.442   2.000 -4.9003  0.1044  0.6316
  493SOL    HW2 1479   0.405   1.351   2.104  0.2370 -0.7590 -0.7327
  494SOL     OW 1480   2.730   2.682   0.158 -0.2140 -0.2980  0.0440
  494SOL    HW1 1481   2.763   2.613   0.228  3.2148  0.7304  0.3703
  494SOL    HW2 1482   2.639   2.659   0.123 -1.9480 -0.8431 -0.4143
  495SOL     OW 1483   2.699   2.686   2.747  0.2968 -0.3269 -0.2748
  495SOL    HW1 1484   2.646   2.596   2.735  2.3870  2.1248  0.4881
  495SOL    HW2 1485   2.724   2.731   2.654 -1.0863  1.1402  0.8979
  496SOL     OW 1486   2.089   2.242   0.695  0.1411  0.3447 -0.3327
  496SOL    HW1 1487   2.110   2.297   0.781  0.6127  2.4592  1.1592
  496SOL    HW2 1488   2.121   2.146   0.710 -1.4624  1.2297  2.9342
  497SOL     OW 1489   0.256   2.981   2.412  0.3105  0.2858  0.0277
  497SOL    HW1 1490   0.191   3.048   2.454 -1.3153  0.8000 -0.9464
  497SOL    HW2 1491   0.279   3.019   2.317 -1.6725  0.8421 -2.1550
  498SOL     OW 1492   1.182   1.360   1.221  0.5026  0.0167  0.2548
  498SOL    HW1 1493   1.284   1.371   1.204  0.3924 -0.3803  2.0523
  498SOL    HW2 1494   1.150   1.395   1.315 -0.6600  1.2238 -0.3970
  499SOL     OW 1495   0.678   1.820   0.432  0.2181  0.3997  0.2428
  499SOL    HW1 1496   0.707   1.725   0.458  0.5482  0.1693  2.3014
  499SOL    HW2 1497   0.753   1.892   0.450 -2.4624  2.5569  1.1546
  500SOL     OW 1498   1.400   2.837   1.659 -0.3316 -0.2348  0.8088
  500SOL    HW1 1499   1.332   2.764   1.688  3.0122  0.7415 -0.4517
  500SOL    HW2 1500   1.498   2.815   1.631 -0.8462  1.4769 -1.6849
  501SOL     OW 1501   0.787   1.145   2.306  0.4273  0.1943  0.0292
  501SOL    HW1 1502   0.704   1.086   2.288 -0.2765 -3.1843 -1.2355
  501SOL    HW2 1503   0.853   1.151   2.227 -1.7698  0.3624  2.7326
  502SOL     OW 1504   2.577   0.978   1.739 -0.0264 -0.1304  0.2880
  502SOL    HW1 1505   2.579   0.989   1.632  0.2440  0.2755 -0.7453
  502SOL    HW2 1506   2.564   0.881   1.767  2.1815  1.5336 -0.7053
  503SOL     OW 1507   1.327   0.115   0.701  0.1214 -0.1953 -0.4071
  503SOL    HW1 1508   1.268   0.186   0.659 -1.0033 -0.7359  3.6705
  503SOL    HW2 1509   1.400   0.158   0.763 -1.7232 -0.5507  0.2402
  504SOL     OW 1510   2.999   2.331   1.474  0.0673 -0.3038 -0.6434
  504SOL    HW1 1511   2.941   2.397   1.526  1.3205 -0.0319  0.7670
  504SOL    HW2 1512   3.012   2.248   1.535 -0.9127 -3.3290  0.9367
  505SOL     OW 1513   2.321   1.187   1.430  0.0037 -0.2652 -0.4342
  505SOL    HW1 1514   2.312   1.189   1.325  1.0597  0.8091  3.5104
  505SOL    HW2 1515   2.410   1.216   1.464 -2.8620 -1.6284  1.5034
  506SOL     OW 1516   1.972   0.168   1.817  0.4252 -0.4808  0.7571
  506SOL    HW1 1517   2.052   0.107   1.848 -0.8662  1.2982 -2.4743
  506SOL    HW2 1518   1.967   0.256   1.872  1.9718 -2.1355 -1.3292
  507SOL     OW 1519   0.526   0.681   2.137  0.1877  0.2846  0.0147
  507SOL    HW1 1520   0.450   0.631   2.092  1.4324 -0.4297  2.4738
  507SOL    HW2 1521   0.605   0.624   2.140 -0.6588 -3.3179  2.9980
  508SOL     OW 1522   0.297   1.629   0.801 -0.0197  0.0517 -0.4646
  508SOL    HW1 1523   0.369   1.690   0.757  0.4977  1.8324 -0.9768
  508SOL    HW2 1524   0.249   1.679   0.881 -1.2436 -0.4331  1.5543
  509SOL     OW 1525   1.198   1.277   2.350  0.9411 -0.1357 -0.1556
  509SOL    HW1 1526   1.233   1.194   2.303 -1.8076  3.1053  2.3909
  509SOL    HW2 1527   1.119   1.260   2.425 -0.7844 -0.3423  1.4466
  510SOL     OW 1528   1.264   2.044   2.189  0.2044 -0.5910 -0.5634
  510SOL    HW1 1529   1.287   2.113   2.117 -0.8523 -1.5837  2.6099
  510SOL    HW2 1530   1.163   2.039   2.214 -1.5095 -2.2784 -1.5854
  511SOL     OW 1531   3.045   2.743   1.312  0.6023  0.4835  0.5823
  511SOL    HW1 1532   3.028   2.697   1.215  2.4420 -0.3806 -0.5386
  511SOL    HW2 1533   2.958   2.747   1.372 -0.8137  0.4025  0.6131
  512SOL     OW 1534   2.383   0.388   1.379  0.2657 -0.1632  0.3061
  512SOL    HW1 1535   2.279   0.400   1.360  0.7634 -1.9921 -3.3455
  512SOL    HW2 1536   2.434   0.337   1.298  1.0479 -1.5229 -2.4968
  513SOL     OW 1537   2.581   2.069   0.873 -0.4828 -0.4221 -0.5991
  513SOL    HW1 1538   2.524   2.135   0.815 -1.6579 -0.2817  1.8106
  513SOL    HW2 1539   2.678   2.067   0.850  1.7503 -1.3841 -0.7986
  514SOL     OW 1540   0.619   2.743   0.427  0.1951  0.1410 -0.3770
  514SOL    HW1 1541   0.598   2.795   0.338 -1.8158 -0.5474 -1.7898
  514SOL    HW2 1542   0.652   2.807   0.499 -1.4969  0.1998 -0.4799
  515SOL     OW 1543   1.977   1.222   2.369  0.4480 -0.4759 -0.4961
  515SOL    HW1 1544   1.978   1.187   2.269  0.9833 -0.3699 -0.6630
  515SOL    HW2 1545   1.881   1.193   2.415  0.0748  1.3992  5.4567
  516SOL     OW 1546   0.226   0.268   1.876 -0.1414  0.6198 -0.4115
  516SOL    HW1 1547   0.325   0.226   1.875 -1.9362 -0.9221 -1.9101
  516SOL    HW2 1548   0.158   0.193   1.906 -2.6199 -0.7134 -1.3042
  517SOL     OW 1549   0.403   0.007   1.122  0.3520  0.1498  0.4063
  517SOL    HW1 1550   0.428   0.098   1.167  1.1457 -1.1511 -0.1150
  517SOL    HW2 1551   0.301  -0.003   1.107  2.3906 -2.8813  0.7203
  518SOL     OW 1552   2.179   3.059   1.828 -0.0177  0.7042  0.1036
  518SOL    HW1 1553   2.236   3.135   1.865  0.4868 -1.2166 -3.5970
  518SOL    HW2 1554   2.223   3.008   1.749  0.1899 -0.7018  2.5267
  519SOL     OW 1555   2.337   2.152   2.517 -0.5878  0.0990  0.4822
  519SOL    HW1 1556   2.291   2.137   2.608 -1.5512  0.7703  1.1712
  519SOL    HW2 1557   2.385   2.240   2.503  0.1423 -1.9336  0.4929
  520SOL     OW 1558   1.819   2.756   1.773 -0.1025  0.6014 -0.3633
  520SOL    HW1 1559   1.734   2.757   1.833  0.3767  0.1545  2.3466
  520SOL    HW2 1560   1.848   2.660   1.748  0.4450  2.0918  0.8441
  521SOL     OW 1561   0.575   3.068   2.081 -0.0234  0.2734  0.6193
  521SOL    HW1 1562   0.479   3.026   2.100  0.4256 -0.4232  1.6322
  521SOL    HW2 1563   0.633   3.072   2.166 -2.8194  1.7263  2.0265
  522SOL     OW 1564   0.245   1.872   1.473  0.0020 -0.1633  0.3165
  522SOL    HW1 1565   0.291   1.939   1.537  1.0881  1.0724 -0.3532
  522SOL    HW2 1566   0.194   1.928   1.402  0.5519  0.0312 -0.9141
  523SOL     OW 1567   2.228   2.961   1.566  0.5181  0.5118  0.3457
  523SOL    HW1 1568   2.319   2.922   1.544  0.2198  1.0533 -0.6747
  523SOL    HW2 1569   2.160   2.901   1.526  0.5105  1.0207  2.4667
  524SOL     OW 1570   0.178   2.796   2.804  0.5235  0.1333 -0.3706
  524SOL    HW1 1571   0.128   2.883   2.807 -1.1673 -1.6296  2.1695
  524SOL    HW2 1572   0.277   2.809   2.790 -1.6118  1.0720 -0.8253
  525SOL     OW 1573   2.169   2.039   0.399  0.0114  0.4337  0.6672
  525SOL    HW1 1574   2.184   1.987   0.490 -0.5790  0.7743  1.0820
  525SOL    HW2 1575   2.179   1.968   0.324 -1.5601 -2.4252  1.1956
  526SOL     OW 1576   0.448   1.523   1.651 -0.1724  0.6320  0.2806
  526SOL    HW1 1577   0.499   1.578   1.718 -2.5491  3.4025 -1.7370
  526SOL    HW2 1578   0.478   1.423   1.652  1.3470 -0.7868  0.1048
  527SOL     OW 1579   1.036   2.892   1.236  0.4522  0.2276 -0.0933
  527SOL    HW1 1580   1.128   2.842   1.251  0.7640 -0.6784  0.0676
  527SOL    HW2 1581   1.045   2.995   1.210 -0.2688  1.9698 -2.0395
  528SOL     OW 1582   1.380   2.400   0.535 -0.3134  0.6455 -0.6174
  528SOL    HW1 1583   1.412   2.302   0.557  0.8046 -0.9188  1.5108
  528SOL    HW2 1584   1.434   2.472   0.587 -1.4884  2.8011 -1.0962
  529SOL     OW 1585   1.969   1.740   0.718  0.0017  0.2662 -0.2702
  529SOL    HW1 1586   1.924   1.753   0.622 -2.1314 -3.2621 -2.2170
  529SOL    HW2 1587   1.994   1.828   0.764  1.1781  0.1573 -0.1465
  530SOL     OW 1588   0.327   2.603   0.265  0.2059 -0.8961  0.2106
  530SOL    HW1 1589   0.338   2.682   0.330 -0.1889  1.4819  0.2283
  530SOL    HW2 1590   0.375   2.520   0.302  1.6656  1.2493 -1.3694
  531SOL     OW 1591   1.842   0.998   0.994  0.2373 -0.5544 -0.8293
  531SOL    HW1 1592   1.878   1.092   0.968  2.2698 -1.8255 -1.1691
  531SOL    HW2 1593   1.740   0.974   0.969 -2.6586 -1.4184  0.3851
  532SOL     OW 1594   0.371   1.181   0.704 -0.1363 -0.0783  0.7029
  532SOL    HW1 1595   0.411   1.185   0.611  1.0772  0.8336  0.8009
  532SOL    HW2 1596   0.324   1.096   0.735 -0.1222  1.7805 -0.1445
  533SOL     OW 1597   1.740   0.014   2.580 -0.4727  0.1449  0.1510
  533SOL    HW1 1598   1.840  -0.012   2.609  1.1233 -1.7381 -0.4721
  533SOL    HW2 1599   1.705   0.101   2.633 -2.0429  1.2573  1.4429
  534SOL     OW 1600   0.344   0.187   1.613  0.5254  0.0480  0.3972
  534SOL    HW1 1601   0.383   0.212   1.524  0.1881  2.1218  1.7149
  534SOL    HW2 1602   0.300   0.263   1.659  0.7742 -2.3798  1.2426
  535SOL     OW 1603   1.912   0.410   0.208  0.3989 -0.3230 -1.0914
  535SOL    HW1 1604   1.914   0.497   0.268 -0.4285  0.1397  0.0678
  535SOL    HW2 1605   1.880   0.328   0.264  0.4130 -3.2403  2.0433
  536SOL     OW 1606   1.435   2.549   0.968  0.1645 -0.4440 -0.4102
  536SOL    HW1 1607   1.419   2.539   1.071 -1.5441 -2.0728  1.7065
  536SOL    HW2 1608   1.352   2.590   0.923 -1.1157 -0.9750  1.2036
  537SOL     OW 1609   0.806   0.186   2.327  0.1826 -0.1432  0.1774
  537SOL    HW1 1610   0.858   0.270   2.299 -0.7914 -0.4889  1.4922
  537SOL    HW2 1611   0.734   0.152   2.262 -1.1002  2.9077  0.5488
  538SOL     OW 1612   1.690   2.357   1.520 -0.2054 -0.2488 -0.0813
  538SOL    HW1 1613   1.650   2.264   1.493  0.0849 -1.1126 -0.2673
  538SOL    HW2 1614   1.778   2.391   1.474  0.8203  3.5933  0.0962
  539SOL     OW 1615   0.208   1.564   2.723 -0.0063  0.5696  0.1727
  539SOL    HW1 1616   0.163   1.572   2.630  1.6674  1.6773 -0.0393
  539SOL    HW2 1617   0.178   1.635   2.788  1.0034  0.7670 -1.5846
  540SOL     OW 1618   2.723   1.670   1.974 -0.1839 -0.7241 -0.3823
  540SOL    HW1 1619   2.760   1.582   2.011  0.4584 -0.0142 -0.8491
  540SOL    HW2 1620   2.629   1.703   2.003 -1.4919  1.4474 -1.3800
  541SOL     OW 1621   0.455   2.276   0.006 -0.4435 -0.7197  0.3130
  541SOL    HW1 1622   0.506   2.211   0.076  3.9115  1.7744 -0.1670
  541SOL    HW2 1623   0.353   2.262  -0.000 -0.7209 -0.4139 -0.5163
  542SOL     OW 1624   2.282   2.553   0.412  0.5908  0.1076  0.4667
  542SOL    HW1 1625   2.261   2.643   0.363 -2.4251 -0.4433  0.7196
  542SOL    HW2 1626   2.196   2.505   0.447 -0.0106 -0.3720 -1.1259
  543SOL     OW 1627   1.069   1.802   1.627 -0.2734  0.7354 -0.5758
  543SOL    HW1 1628   1.024   1.811   1.723  0.2654  1.2495 -0.3088
  543SOL    HW2 1629   1.049   1.881   1.564 -1.3781  2.5497 -3.1944
  544SOL     OW 1630   1.015   0.427   0.206 -0.3234  0.1223 -0.1764
  544SOL    HW1 1631   1.062   0.342   0.254  0.7791 -0.2454  1.6013
  544SOL    HW2 1632   1.002   0.401   0.103 -0.1386  3.4776 -2.3331
  545SOL     OW 1633   1.119   1.811   0.799  0.2792 -0.3620 -0.3805
  545SOL    HW1 1634   1.213   1.849   0.789 -0.7925 -1.9852  0.7273
  545SOL    HW2 1635   1.109   1.737   0.866 -1.0424  1.5783  0.0147
  546SOL     OW 1636   2.648   1.498   0.018  0.8479 -0.1778  0.0332
  546SOL    HW1 1637   2.591   1.556  -0.047  0.2260 -1.5094 -2.9176
  546SOL    HW2 1638   2.617   1.486   0.114  0.5968 -0.5298 -3.0985
  547SOL     OW 1639   0.568   3.082   2.681  0.8843 -0.2577 -0.3206
  547SOL    HW1 1640   0.654   3.037   2.654 -1.3714 -0.2524 -0.1802
  547SOL    HW2 1641   0.503   3.018   2.722 -0.6093 -0.1307  0.1670
  548SOL     OW 1642   2.093   0.846   2.980 -0.3892  0.4881  0.1661
  548SOL    HW1 1643   1.997   0.814   3.015 -2.9982 -1.6749  0.8582
  548SOL    HW2 1644   2.113   0.947   3.003  0.0732 -0.8741  1.5774
  549SOL     OW 1645   0.703   0.518   0.215  0.4128  0.1088  0.0228
  549SOL    HW1 1646   0.667   0.547   0.124 -2.4871 -0.6477 -1.1992
  549SOL    HW2 1647   0.779   0.585   0.238 -2.1996 -1.4945 -0.6329
  550SOL     OW 1648   2.499   2.829   2.900  0.1714 -0.2589 -0.3034
  550SOL    HW1 1649   2.476   2.768   2.985 -0.0059  0.5197  1.0646
  550SOL    HW2 1650   2.532   2.767   2.821  0.0022 -2.1793 -1.8208
  551SOL     OW 1651   0.267   0.928   0.220  0.5265 -0.5939  0.3109
  551SOL    HW1 1652   0.352   0.871   0.201  0.0308  2.7171 -2.0170
  551SOL    HW2 1653   0.242   0.928   0.322  1.5304  2.0962  1.1622
  552SOL     OW 1654   0.710   2.975   1.846 -0.3299 -0.1609 -0.1186
  552SOL    HW1 1655   0.661   2.998   1.935 -0.8352  1.1220 -1.8320
  552SOL    HW2 1656   0.809   2.980   1.854 -3.5260 -1.9570 -0.1293
  553SOL     OW 1657   2.992   2.537   0.327 -0.2837 -0.4771  0.3474
  553SOL    HW1 1658   2.950   2.445   0.302  0.6074  0.0308  0.5325
  553SOL    HW2 1659   2.996   2.553   0.427 -0.8877  0.3868 -3.3645
  554SOL     OW 1660   2.142   0.352   0.603  0.0338  0.3629  0.2013
  554SOL    HW1 1661   2.206   0.358   0.519  0.1720 -0.6728 -2.0704
  554SOL    HW2 1662   2.120   0.253   0.624 -0.8152  0.5588 -1.1623
  555SOL     OW 1663   0.379   2.772   2.527 -0.3515 -0.2640  0.1028
  555SOL    HW1 1664   0.333   2.865   2.503  0.9767 -1.3940 -1.3810
  555SOL    HW2 1665   0.416   2.733   2.440 -0.1056 -0.9453  0.0051
  556SOL     OW 1666   0.814   2.386   1.515  0.1351 -0.0737  0.0539
  556SOL    HW1 1667   0.852   2.460   1.582 -1.7525  0.9979  0.4192
  556SOL    HW2 1668   0.881   2.343   1.451  0.1351 -3.3524  0.4483
  557SOL     OW 1669   0.086   2.057   0.181 -0.6914 -0.3603  0.4040
  557SOL    HW1 1670   0.031   1.979   0.140 -0.8267 -0.5975  0.8483
  557SOL    HW2 1671   0.120   2.124   0.108  2.2958  1.3705  3.1759
  558SOL     OW 1672   2.910   2.275   0.290 -0.4461 -0.0050  0.3123
  558SOL    HW1 1673   2.808   2.288   0.293  0.6816  0.3707 -0.4542
  558SOL    HW2 1674   2.933   2.196   0.228 -3.5884 -0.2998 -1.2372
  559SOL     OW 1675   0.396   2.297   1.400 -0.0199 -0.2575 -0.0917
  559SOL    HW1 1676   0.299   2.301   1.361 -1.4404  0.7497 -0.1755
  559SOL    HW2 1677   0.465   2.238   1.357  0.7100  3.2681  2.2585
  560SOL     OW 1678   2.089   1.150   3.071 -0.0440 -0.2962 -0.2415
  560SOL    HW1 1679   2.087   1.136   3.173  0.4963  0.1592  0.3409
  560SOL    HW2 1680   2.149   1.228   3.046  0.1370  0.9242 -0.9941
  561SOL     OW 1681   3.039   1.855   0.028  0.2149  0.0516  0.3859
  561SOL    HW1 1682   2.991   1.822   0.116  1.5839  2.1385  0.0871
  561SOL    HW2 1683   2.980   1.928  -0.021 -0.2041 -1.0239  2.2875
  562SOL     OW 1684   0.995   2.265   2.331 -0.4208 -0.3624 -0.1506
  562SOL    HW1 1685   0.887   2.248   2.352 -5.3976  1.2165  2.3306
  562SOL    HW2 1686   1.044   2.327   2.394  1.1219 -1.5276  1.4263
  563SOL     OW 1687   0.703   2.574   2.619 -0.1215  0.2347 -0.6754
  563SOL    HW1 1688   0.784   2.512   2.637  2.1186  2.1246 -0.8798
  563SOL    HW2 1689   0.672   2.622   2.704 -0.7199  1.3356  1.4077
  564SOL     OW 1690   2.807   1.306   2.925  1.0959  0.2754 -0.4807
  564SOL    HW1 1691   2.730   1.345   2.978  0.6007 -1.3407 -0.3385
  564SOL    HW2 1692   2.864   1.374   2.867  2.5543 -0.2852 -2.1689
  565SOL     OW 1693   2.544   1.959   2.641 -0.6684 -0.0406  0.3443
  565SOL    HW1 1694   2.486   2.015   2.575  1.8921  0.2648 -0.1067
  565SOL    HW2 1695   2.619   2.009   2.694  2.0508 -2.2734 -1.2538
  566SOL     OW 1696   2.067   2.814   1.378  0.6465  0.4553 -0.2726
  566SOL    HW1 1697   2.010   2.726   1.367 -1.0389 -1.7128 -0.0016
  566SOL    HW2 1698   2.042   2.883   1.309 -1.1602 -0.7501  2.1768
  567SOL     OW 1699   2.465   0.052   2.344 -0.3408 -0.6306  1.3154
  567SOL    HW1 1700   2.392   0.120   2.334 -0.0333 -3.9852 -0.7309
  567SOL    HW2 1701   2.465  -0.010   2.260  0.4769 -0.6160 -0.2312
  568SOL     OW 1702   1.509   1.787   0.280 -0.0981 -0.0249 -0.4653
  568SOL    HW1 1703   1.440   1.862   0.260 -0.0419 -1.2023 -0.7849
  568SOL    HW2 1704   1.606   1.819   0.274  0.1833 -2.8032 -2.2108
  569SOL     OW 1705   0.262   0.681   0.787 -0.1609 -0.2491  0.5876
  569SOL    HW1 1706   0.319   0.603   0.743  4.5184 -0.1759 -1.0526
  569SOL    HW2 1707   0.164   0.655   0.813 -1.3748  0.3964 -1.6593
  570SOL     OW 1708   0.592   0.887   2.895  0.1640  0.1999  0.7992
  570SOL    HW1 1709   0.677   0.919   2.838  1.2959  1.5538  1.1456
  570SOL    HW2 1710   0.599   0.927   2.992  0.1622  1.6048 -1.3953
  571SOL     OW 1711   0.766   3.081   1.000  0.4078  0.7521 -0.0622
  571SOL    HW1 1712   0.796   3.125   0.911  0.6829  0.2095 -0.6339
  571SOL    HW2 1713   0.729   2.988   0.994 -1.4286  0.8611 -0.1390
  572SOL     OW 1714   1.606   2.614   1.316  0.3319 -0.8374  0.3040
  572SOL    HW1 1715   1.518   2.560   1.306  1.7105 -2.1035  0.2262
  572SOL    HW2 1716   1.593   2.721   1.318  0.0593  2.6886 -2.5550
  573SOL     OW 1717   2.867   0.484   2.034 -0.4310  0.6023 -0.4390
  573SOL    HW1 1718   2.817   0.394   2.038  1.4165  1.0095 -2.2320
  573SOL    HW2 1719   2.840   0.547   1.949  1.6067  1.3014 -2.7162
  574SOL     OW 1720   0.172   1.714   1.033 -0.9895  0.7403  0.7338
  574SOL    HW1 1721   0.154   1.812   1.003  0.0280  0.3195 -0.6746
  574SOL    HW2 1722   0.089   1.671   1.072 -1.9993  3.6546  0.6903
  575SOL     OW 1723   0.870   2.158   0.945 -0.0038  0.0337 -0.6099
  575SOL    HW1 1724   0.845   2.193   1.040 -1.7885 -1.6354 -0.4387
  575SOL    HW2 1725   0.908   2.238   0.891  1.0147  0.6309 -0.7728
  576SOL     OW 1726   2.938   3.041   1.720  0.0763 -0.1515  0.6419
  576SOL    HW1 1727   2.837   3.024   1.730 -0.2535  1.9111 -1.1076
  576SOL    HW2 1728   2.951   3.137   1.678  0.4138 -1.6192 -3.9187
  577SOL     OW 1729   2.482   1.240   0.017 -0.6146  0.6809 -0.1197
  577SOL    HW1 1730   2.494   1.176  -0.067  1.8457 -2.3111  0.7939
  577SOL    HW2 1731   2.571   1.246   0.069  0.6063 -2.5829 -0.1861
  578SOL     OW 1732   1.378   2.754   2.437  0.4649 -0.2276 -0.3416
  578SOL    HW1 1733   1.292   2.813   2.463 -2.3025 -0.7511  0.2298
  578SOL    HW2 1734   1.470   2.804   2.443  0.9257  1.7946  0.0449
  579SOL     OW 1735   0.090   2.519   0.138 -0.1797 -0.0511  0.2700
  579SOL    HW1 1736   0.036   2.529   0.227 -0.0412  0.1363  1.7849
  579SOL    HW2 1737   0.192   2.523   0.156  0.8392 -0.3988 -2.0840
  580SOL     OW 1738   0.974   2.688   0.413 -0.4774  0.5157 -0.0611
  580SOL    HW1 1739   1.048   2.679   0.333  0.8901 -0.9564 -0.3335
  580SOL    HW2 1740   0.890   2.635   0.398  0.6957  0.8160 -1.2549
  581SOL     OW 1741   1.273   2.641   1.477 -0.8623  0.2924 -0.1583
  581SOL    HW1 1742   1.336   2.562   1.507  0.2567 -0.9648 -3.8833
  581SOL    HW2 1743   1.331   2.709   1.421  1.5888  0.4146 -4.2685
  582SOL     OW 1744   1.509   0.081   1.865  0.2420 -0.1261 -0.2049
  582SOL    HW1 1745   1.518   0.161   1.930 -1.4071 -0.8774  0.5936
  582SOL    HW2 1746   1.587   0.074   1.798 -0.1415 -0.4630  0.5153
  583SOL     OW 1747   2.476   3.070   0.557 -0.1038 -0.5497  0.1854
  583SOL    HW1 1748   2.568   3.039   0.514 -0.6343  1.1451 -1.3019
  583SOL    HW2 1749   2.403   3.000   0.579 -2.8058  1.5935  0.5348
  584SOL     OW 1750   1.580   0.932   2.119 -0.0659  1.1649  0.3954
  584SOL    HW1 1751   1.639   0.944   2.035 -1.9270 -1.7826 -0.5197
  584SOL    HW2 1752   1.632   0.909   2.207  0.6094 -1.2548  4.2444
  585SOL     OW 1753   2.113   2.672   2.907  0.1032  0.3343  0.5022
  585SOL    HW1 1754   2.122   2.582   2.858  0.4549 -1.0504 -1.4490
  585SOL    HW2 1755   2.019   2.690   2.947  2.4564  1.0638 -0.4519
  586SOL     OW 1756   2.833   0.381   1.546 -0.2988 -0.1805  0.7300
  586SOL    HW1 1757   2.848   0.451   1.620  0.2450 -1.1804  0.7388
  586SOL    HW2 1758   2.748   0.330   1.562 -1.4906 -0.3314 -1.9115
  587SOL     OW 1759   2.006   1.546   2.659  1.0002  0.1098 -0.5353
  587SOL    HW1 1760   2.045   1.476   2.589 -0.8326  0.4499  1.1741
  587SOL    HW2 1761   2.037   1.537   2.759 -1.6332  0.1486 -1.6094
  588SOL     OW 1762   0.455   2.691   2.271  0.1144 -0.0974 -0.0772
  588SOL    HW1 1763   0.362   2.673   2.226 -0.0636  1.0709  0.5437
  588SOL    HW2 1764   0.486   2.606   2.322 -0.1596 -0.8897  0.9986
  589SOL     OW 1765   2.152   1.374   2.510  0.1599 -0.7926 -0.3766
  589SOL    HW1 1766   2.077   1.316   2.469  0.3398 -1.7119  0.5515
  589SOL    HW2 1767   2.251   1.350   2.486  0.4757  2.8615 -1.5859
  590SOL     OW 1768   2.352   1.671   2.057  0.3173  0.0127  0.6079
  590SOL    HW1 1769   2.408   1.582   2.053 -1.7881  0.0505 -1.6638
  590SOL    HW2 1770   2.378   1.733   2.136 -3.4801 -0.7204 -0.0941
  591SOL     OW 1771   1.286   2.401   0.262 -0.0015 -0.2556  0.3316
  591SOL    HW1 1772   1.352   2.338   0.210  0.0920  1.3645  0.1532
  591SOL    HW2 1773   1.317   2.417   0.357  1.6359  1.5741 -1.4900
  592SOL     OW 1774   1.796   2.274   0.736 -0.3837 -0.0055  0.5761
  592SOL    HW1 1775   1.750   2.327   0.659 -1.3711 -1.4764  1.2351
  592SOL    HW2 1776   1.889   2.238   0.706  2.5635  1.6778 -0.7446
  593SOL     OW 1777   0.697   0.226   0.254  0.2297  0.2901 -0.5157
  593SOL    HW1 1778   0.763   0.189   0.180  2.9361  0.5685  0.5181
  593SOL    HW2 1779   0.667   0.325   0.245 -2.1455  2.0509 -1.9723
  594SOL     OW 1780   0.984   1.892   2.703 -0.2563 -0.0870 -0.5210
  594SOL    HW1 1781   1.085   1.864   2.718  3.4869 -0.3892  0.7744
  594SOL    HW2 1782   0.967   1.994   2.721 -1.5554  0.2371 -2.1851
  595SOL     OW 1783   1.546   0.046   1.090 -0.0005 -0.9370 -0.0490
  595SOL    HW1 1784   1.603  -0.038   1.075  0.0092 -0.2139 -2.6072
  595SOL    HW2 1785   1.451   0.038   1.042 -1.4038  1.6154  0.1694
  596SOL     OW 1786   3.068   1.437   2.249  0.6467 -0.1406 -0.0805
  596SOL    HW1 1787   3.071   1.336   2.278 -0.2607 -1.2765 -1.2136
  596SOL    HW2 1788   3.121   1.494   2.317  0.7018  1.5761 -1.2442
  597SOL     OW 1789   1.997   2.550   1.687 -0.0496 -0.1571  1.0926
  597SOL    HW1 1790   2.010   2.547   1.585 -0.0722  0.7742  1.2795
  597SOL    HW2 1791   2.085   2.567   1.738  0.6471 -0.5805 -6.2376
  598SOL     OW 1792   2.520   2.951   1.214  0.2424 -0.2446 -0.4982
  598SOL    HW1 1793   2.561   2.977   1.306  0.6322 -1.5238 -0.9164
  598SOL    HW2 1794   2.597   2.950   1.145  2.0599  0.1250  0.8165
  599SOL     OW 1795   2.923   0.328   2.493 -0.2617 -0.3314  0.0643
  599SOL    HW1 1796   3.016   0.378   2.489  0.1380  1.6452 -2.6158
  599SOL    HW2 1797   2.839   0.382   2.457  0.5131 -0.3560  0.1148
  600SOL     OW 1798   2.813   1.068   2.755 -0.0843 -1.0440  0.3114
  600SOL    HW1 1799   2.778   0.969   2.762  2.6889 -1.8644 -0.6889
  600SOL    HW2 1800   2.772   1.126   2.833 -0.6172 -1.0360 -0.7309
  601SOL     OW 1801   2.976   1.315   1.973 -0.0990  0.2763  0.0955
  601SOL    HW1 1802   2.896   1.336   1.911  1.1806  1.4648  0.1898
  601SOL    HW2 1803   3.059   1.379   1.952 -0.8339  3.8022 -1.6535
  602SOL     OW 1804   1.488   1.722   2.344 -0.1558 -0.2423 -0.4592
  602SOL    HW1 1805   1.423   1.642   2.349  0.3008 -0.7238  0.5502
  602SOL    HW2 1806   1.582   1.703   2.375  0.4146  1.0427  0.1047
  603SOL     OW 1807   0.588   1.215   2.733 -0.1541  0.1945  0.5586
  603SOL    HW1 1808   0.491   1.191   2.706  1.0848  4.5949 -0.2747
  603SOL    HW2 1809   0.656   1.156   2.679 -0.1224 -0.0444  0.3552
  604SOL     OW 1810   2.385   1.011   0.161 -0.6664 -0.4357  0.2911
  604SOL    HW1 1811   2.431   1.103   0.128  2.0742  1.5523 -0.8981
  604SOL    HW2 1812   2.411   0.928   0.100  0.4413  0.5288  0.6805
  605SOL     OW 1813   2.540   1.142   1.950  0.3619  0.4052  0.4342
  605SOL    HW1 1814   2.569   1.098   1.858  0.8174 -0.8887 -0.8860
  605SOL    HW2 1815   2.611   1.152   2.018  0.0825  0.5897  0.0458
  606SOL     OW 1816   1.524   2.524   2.532  0.3130  0.2381  0.0269
  606SOL    HW1 1817   1.468   2.597   2.483  1.2238 -2.1858 -0.2940
  606SOL    HW2 1818   1.482   2.426   2.538 -0.3294  0.0313 -1.6980
  607SOL     OW 1819   1.317   1.571   0.328 -0.2577 -0.1980  0.4129
  607SOL    HW1 1820   1.235   1.610   0.374  0.0137  1.9214 -2.6218
  607SOL    HW2 1821   1.393   1.644   0.309 -1.0419 -0.7663  1.6278
  608SOL     OW 1822   1.423   2.848   0.351 -0.7390 -0.1976  0.2832
  608SOL    HW1 1823   1.500   2.894   0.295  0.8750 -0.8579  3.9741
  608SOL    HW2 1824   1.351   2.917   0.386 -0.6366 -0.2398  2.0962
  609SOL     OW 1825   1.267   1.351   0.183  0.0063  0.4507  0.3491
  609SOL    HW1 1826   1.305   1.432   0.231 -2.5628 -2.9132 -3.9521
  609SOL    HW2 1827   1.245   1.368   0.085  0.6932 -0.7784  0.1016
  610SOL     OW 1828   2.989   1.170   2.231 -0.5936  0.0209  0.4069
  610SOL    HW1 1829   2.979   1.070   2.206 -1.2751  1.5496  0.1443
  610SOL    HW2 1830   2.977   1.231   2.148  0.2965 -0.3749  1.2359
  611SOL     OW 1831   2.534   0.299   1.143 -0.4485 -0.2989  0.5390
  611SOL    HW1 1832   2.474   0.213   1.143 -0.6771  0.4869  2.5801
  611SOL    HW2 1833   2.632   0.282   1.172 -1.0543 -2.1030  0.0491
  612SOL     OW 1834   0.760   2.276   1.157  0.0203  0.0697  0.1470
  612SOL    HW1 1835   0.691   2.227   1.216 -0.6418  0.3214  4.2744
  612SOL    HW2 1836   0.714   2.359   1.112  1.3936 -0.8263 -0.8046
  613SOL     OW 1837   0.844   1.392   2.429  0.4630  0.3327  0.2257
  613SOL    HW1 1838   0.797   1.445   2.354  3.6248  0.6022  1.8082
  613SOL    HW2 1839   0.818   1.291   2.421 -2.6963  1.6052  1.6562
  614SOL     OW 1840   1.561   1.657   1.978  0.1448  0.3045 -0.3934
  614SOL    HW1 1841   1.497   1.740   1.970  0.1744 -0.0566 -3.5527
  614SOL    HW2 1842   1.639   1.669   2.048  1.9104 -0.6676  0.1300
  615SOL     OW 1843   0.793   1.362   1.740 -0.0376 -0.0620 -0.4788
  615SOL    HW1 1844   0.711   1.341   1.680  2.2910  1.4853  0.7977
  615SOL    HW2 1845   0.852   1.443   1.718  3.0815 -2.1702 -0.7565
  616SOL     OW 1846   1.012   1.608   2.154  0.0374 -0.5842 -0.1165
  616SOL    HW1 1847   0.924   1.554   2.185 -1.2370 -1.3204  1.1903
  616SOL    HW2 1848   0.992   1.702   2.111  1.3307  1.4621  0.3623
  617SOL     OW 1849   2.962   1.543   1.637  0.1426 -0.0055 -0.2583
  617SOL    HW1 1850   2.902   1.481   1.703 -0.4538 -2.5103  0.1197
  617SOL    HW2 1851   2.990   1.497   1.553 -1.8561  0.2710  1.2032
  618SOL     OW 1852   1.915   1.970   1.474  0.4393  0.2057  0.8070
  618SOL    HW1 1853   1.943   1.920   1.386  0.1234  0.7340 -0.3777
  618SOL    HW2 1854   1.881   1.898   1.544 -3.9092  0.2443 -2.0619
  619SOL     OW 1855   1.743   0.492   2.412 -0.3697  0.2184 -0.5700
  619SOL    HW1 1856   1.673   0.538   2.352 -1.3541 -2.3692 -0.2764
  619SOL    HW2 1857   1.715   0.398   2.445 -0.7722 -0.4379 -4.2438
  620SOL     OW 1858   2.235   2.970   0.656 -0.1736  0.2930  0.0305
  620SOL    HW1 1859   2.200   3.061   0.703 -0.2452 -0.0656  1.5366
  620SOL    HW2 1860   2.261   2.902   0.726 -0.0359 -1.4493  0.7023
  621SOL     OW 1861   2.163   1.861   1.312  0.0008  0.5715  0.7898
  621SOL    HW1 1862   2.178   1.865   1.418 -0.6034  3.6320 -1.6221
  621SOL    HW2 1863   2.097   1.789   1.276  0.5407 -0.8016  0.2923
  622SOL     OW 1864   2.233   0.927   1.808 -0.0511 -0.0537 -0.1292
  622SOL    HW1 1865   2.336   0.935   1.791  0.2287 -2.0980 -1.6143
  622SOL    HW2 1866   2.202   0.843   1.861 -0.1457  1.8806  0.9023
  623SOL     OW 1867   1.331   0.831   2.648  0.1045 -0.2701  0.1726
  623SOL    HW1 1868   1.263   0.776   2.702  1.4120 -1.1698  0.0278
  623SOL    HW2 1869   1.290   0.849   2.554  0.2712 -0.7400 -0.8990
  624SOL     OW 1870   0.588   0.639   3.074  0.0169 -0.5240  0.2457
  624SOL    HW1 1871   0.596   0.687   2.984  1.2277 -0.5547  1.5997
  624SOL    HW2 1872   0.564   0.704   3.156 -0.7735  1.3726  1.3737
  625SOL     OW 1873   2.861   1.717   0.958  0.3465  0.6973  0.2729
  625SOL    HW1 1874   2.759   1.729   0.950  1.3898  0.6144  2.8849
  625SOL    HW2 1875   2.903   1.765   1.042  5.0069 -0.3487  0.7660
  626SOL     OW 1876   0.602   2.715   1.824  0.4327 -0.6339  0.1711
  626SOL    HW1 1877   0.631   2.815   1.840  0.4025 -0.0964  2.4203
  626SOL    HW2 1878   0.501   2.701   1.795 -2.3776  1.2795  1.6456
  627SOL     OW 1879   0.725   1.019   1.539 -0.5428 -0.2100  0.0599
  627SOL    HW1 1880   0.714   0.953   1.461 -0.2788  2.7942  0.0673
  627SOL    HW2 1881   0.806   1.084   1.523  2.5488 -2.5095 -2.5563
  628SOL     OW 1882   2.388   0.168   0.729 -0.0681  0.4821  0.0167
  628SOL    HW1 1883   2.416   0.083   0.679 -0.3604  0.3384  2.4197
  628SOL    HW2 1884   2.291   0.178   0.777 -0.0310  0.8467  0.1923
  629SOL     OW 1885   1.981   0.888   1.964  0.0422 -0.0816  0.2750
  629SOL    HW1 1886   2.076   0.902   1.926 -0.1448 -0.2531 -3.8085
  629SOL    HW2 1887   1.932   0.973   2.004  1.1418  1.8479  0.4611
  630SOL     OW 1888   2.868   2.207   0.854 -0.8821 -0.5126  0.1822
  630SOL    HW1 1889   2.783   2.258   0.820  0.4444  0.8733 -2.2127
  630SOL    HW2 1890   2.867   2.108   0.812 -0.1494 -1.4404  0.1318
  631SOL     OW 1891   2.947   0.167   2.127  0.1705  0.2717  0.1124
  631SOL    HW1 1892   3.000   0.199   2.205 -1.2079 -2.2431 -1.2576
  631SOL    HW2 1893   3.008   0.136   2.049  0.8619 -2.2602 -1.1354
  632SOL     OW 1894   2.428   2.504   0.638  0.3014  0.4753 -0.3680
  632SOL    HW1 1895   2.467   2.575   0.702  1.7847 -2.2780 -1.5684
  632SOL    HW2 1896   2.374   2.536   0.560  1.5997  0.9823  2.2858
  633SOL     OW 1897   1.414   1.230   2.533  0.0581  0.6317 -0.5081
  633SOL    HW1 1898   1.452   1.306   2.589 -0.5365  0.7365 -0.8654
  633SOL    HW2 1899   1.344   1.252   2.462  0.2459  0.2309  2.4130
  634SOL     OW 1900   0.687   1.947   0.921 -0.5920 -0.0481  0.6243
  634SOL    HW1 1901   0.592   1.980   0.955 -0.4415 -0.5181  2.5222
  634SOL    HW2 1902   0.753   2.026   0.928 -1.4441  1.3311  1.1275
  635SOL     OW 1903   3.057   2.314   3.088  0.6837  0.0734 -0.5046
  635SOL    HW1 1904   2.978   2.360   3.038 -0.9300 -0.8697  1.5497
  635SOL    HW2 1905   3.112   2.380   3.140 -1.5580 -0.3713 -1.2046
  636SOL     OW 1906   2.254   2.724   2.081  0.0813  0.2441  0.3247
  636SOL    HW1 1907   2.259   2.830   2.085  1.6990 -0.8786 -0.7454
  636SOL    HW2 1908   2.263   2.681   2.171 -2.2567 -2.0614 -0.7833
  637SOL     OW 1909   2.644   0.717   2.052 -0.0164 -0.0109 -0.6451
  637SOL    HW1 1910   2.612   0.709   1.955 -0.5893  0.1540  1.8472
  637SOL    HW2 1911   2.679   0.811   2.069 -0.3712  0.8713  0.1696
  638SOL     OW 1912   2.425   1.769   1.246 -0.6722 -0.2294 -0.6888
  638SOL    HW1 1913   2.332   1.811   1.272  1.3588  0.3586 -1.2306
  638SOL    HW2 1914   2.468   1.711   1.321 -1.3704 -0.1267  1.7251
  639SOL     OW 1915   1.290   2.173   1.718  0.0077  0.0496  0.1968
  639SOL    HW1 1916   1.319   2.086   1.666 -0.5655  2.5067 -1.4740
  639SOL    HW2 1917   1.192   2.161   1.755  0.1000  1.1596  0.3392
  640SOL     OW 1918   0.204   1.146   1.587 -0.2400  0.0174 -0.1276
  640SOL    HW1 1919   0.197   1.188   1.685 -1.4474 -1.1158 -0.2569
  640SOL    HW2 1920   0.282   1.076   1.586 -0.3480  0.9173 -0.1268
  641SOL     OW 1921   2.039   0.169   1.541 -0.0172  0.0526 -0.5475
  641SOL    HW1 1922   2.009   0.223   1.623 -1.6982 -2.2598  0.0022
  641SOL    HW2 1923   2.050   0.066   1.557 -0.7134 -2.2186 -0.2382
  642SOL     OW 1924   1.973   0.102   0.292 -0.5986  0.4154 -0.2793
  642SOL    HW1 1925   2.072   0.083   0.328  2.3854  0.7951  1.5278
  642SOL    HW2 1926   1.904   0.078   0.366  0.3547 -0.8038  2.1076
  643SOL     OW 1927   2.921   1.861   2.069 -0.3021  0.3918 -0.4784
  643SOL    HW1 1928   2.837   1.809   2.028 -1.3341  2.1657 -1.4177
  643SOL    HW2 1929   2.953   1.936   2.004  2.4060  1.3989  0.2192
  644SOL     OW 1930   2.280   2.394   1.207  0.2993  0.1686 -0.0241
  644SOL    HW1 1931   2.306   2.306   1.160 -0.7732 -2.6675 -0.7728
  644SOL    HW2 1932   2.267   2.393   1.308  1.3273  0.2677 -0.0828
  645SOL     OW 1933   0.640   0.837   1.234 -0.0717  0.5106 -0.3811
  645SOL    HW1 1934   0.542   0.847   1.259 -0.3036 -2.4680  2.3319
  645SOL    HW2 1935   0.663   0.875   1.140  1.3721  1.9021  0.8385
  646SOL     OW 1936   1.422   1.905   1.969 -0.7192  0.5928 -1.0598
  646SOL    HW1 1937   1.496   1.968   1.935 -1.1537 -0.0758  2.0469
  646SOL    HW2 1938   1.364   1.948   2.044 -0.1700 -1.7441  0.8703
  647SOL     OW 1939   0.802   1.081   0.678 -0.2505 -0.3693  0.0916
  647SOL    HW1 1940   0.866   1.092   0.756 -0.5048 -0.5536 -1.1292
  647SOL    HW2 1941   0.727   1.014   0.696  2.3316  1.2066  2.0366
  648SOL     OW 1942   0.101   0.193   0.221 -0.2124 -0.5268  0.1843
  648SOL    HW1 1943   0.154   0.132   0.153  3.4994  0.2360 -0.8123
  648SOL    HW2 1944   0.088   0.287   0.190  1.7778 -0.5425  2.9067
  649SOL     OW 1945   3.019   0.246   0.893  0.1218 -0.4169 -0.1647
  649SOL    HW1 1946   3.110   0.199   0.882 -1.0716 -0.4865  2.3304
  649SOL    HW2 1947   3.020   0.324   0.959  1.5373 -0.8634 -0.3804
  650SOL     OW 1948   2.756   0.679   1.438 -0.2769 -0.2527 -0.5815
  650SOL    HW1 1949   2.656   0.661   1.453 -0.3331  1.8065 -1.7078
  650SOL    HW2 1950   2.778   0.759   1.374 -1.7773  0.6753  0.7300
  651SOL     OW 1951   0.916   1.560   1.604  0.0863 -0.0862  0.0072
  651SOL    HW1 1952   0.968   1.648   1.617 -0.4822 -1.6635 -3.6770
  651SOL    HW2 1953   0.937   1.523   1.514 -0.3520 -0.1726 -1.2853
  652SOL     OW 1954   2.326   2.436   2.497 -0.3350  1.0074 -0.0624
  652SOL    HW1 1955   2.253   2.366   2.529 -0.3035  0.2419  0.8524
  652SOL    HW2 1956   2.284   2.502   2.425 -2.0576 -0.2492 -4.2882
  653SOL     OW 1957   2.711   1.248   0.187 -0.4390 -0.4270 -0.1724
  653SOL    HW1 1958   2.770   1.329   0.203 -0.0226 -2.6691 -0.7227
  653SOL    HW2 1959   2.748   1.166   0.239  0.3175  0.9158 -1.6393
  654SOL     OW 1960   1.272   2.247   1.266  0.7582  0.0360  0.0872
  654SOL    HW1 1961   1.258   2.177   1.345 -0.8526 -1.1327  1.2927
  654SOL    HW2 1962   1.311   2.199   1.182  1.2860 -2.0864 -1.4512
  655SOL     OW 1963   0.160   0.934   1.935 -0.0707  0.4000 -0.7187
  655SOL    HW1 1964   0.208   0.863   1.876 -1.6720 -3.4360  0.9960
  655SOL    HW2 1965   0.211   1.025   1.935  1.3772  0.9140 -0.2335
  656SOL     OW 1966   2.562   2.496   2.644 -0.3417  0.7215 -0.1820
  656SOL    HW1 1967   2.649   2.464   2.590  0.5780 -0.3403  2.2025
  656SOL    HW2 1968   2.469   2.465   2.602 -4.6457 -2.9023  0.9511
  657SOL     OW 1969   2.998   1.050   1.938 -0.0049  0.0004  0.2193
  657SOL    HW1 1970   3.008   1.155   1.945  1.3087 -0.9486  0.0640
  657SOL    HW2 1971   3.093   1.008   1.926  2.9618 -0.1398 -0.5128
  658SOL     OW 1972   1.687   0.223   2.393  0.4862  0.2240  0.4213
  658SOL    HW1 1973   1.719   0.133   2.434  1.4594 -0.8231  2.2114
  658SOL    HW2 1974   1.720   0.232   2.296  0.5356  0.0380 -0.0942
  659SOL     OW 1975   1.436   0.632   2.907  0.6140  0.1368  1.0527
  659SOL    HW1 1976   1.493   0.719   2.908  2.6235 -1.2083  1.7376
  659SOL    HW2 1977   1.334   0.647   2.908 -2.0315  0.2449 -0.2765
  660SOL     OW 1978   1.415   0.345   1.436 -0.4633  0.0685  0.1753
  660SOL    HW1 1979   1.468   0.379   1.521  4.4286  0.5162  2.5920
  660SOL    HW2 1980   1.471   0.275   1.382 -0.6448  1.4067 -0.2660
  661SOL     OW 1981   2.474   1.192   0.674  0.4369  0.3827  0.0560
  661SOL    HW1 1982   2.455   1.164   0.579 -1.7515 -1.0723  0.3265
  661SOL    HW2 1983   2.457   1.294   0.685 -0.4577 -1.9915  0.0541
  662SOL     OW 1984   1.391   0.452   1.791 -0.3349  0.5085  0.4930
  662SOL    HW1 1985   1.323   0.372   1.777 -0.8379 -0.9673  0.7465
  662SOL    HW2 1986   1.422   0.459   1.889 -0.2827  2.3568  0.9481
  663SOL     OW 1987   0.744   1.528   2.227  0.3304  0.0975 -0.0799
  663SOL    HW1 1988   0.696   1.611   2.262  0.3021 -1.8355  1.2209
  663SOL    HW2 1989   0.708   1.507   2.132  2.3149  1.7807  5.6422
  664SOL     OW 1990   1.626   2.087   1.449 -0.1434 -0.0407 -0.0361
  664SOL    HW1 1991   1.554   2.016   1.470  0.7845  0.2152  0.1196
  664SOL    HW2 1992   1.719   2.058   1.473  0.3934  0.9721  0.4994
  665SOL     OW 1993   2.269   0.658   1.927 -0.0656  0.0646  0.1209
  665SOL    HW1 1994   2.239   0.558   1.952  1.7414 -1.6264  0.7931
  665SOL    HW2 1995   2.279   0.712   2.017  2.6659 -0.1951  1.2431
  666SOL     OW 1996   0.369   2.346   0.350 -0.5136  0.7517  0.0502
  666SOL    HW1 1997   0.424   2.374   0.437  2.3512  1.6220  1.1277
  666SOL    HW2 1998   0.280   2.298   0.373 -1.3649  1.4826  0.1633
  667SOL     OW 1999   1.983   0.181   1.182  0.2731 -0.9564 -0.4799
  667SOL    HW1 2000   1.944   0.262   1.129  1.0246  0.1310 -0.9518
  667SOL    HW2 2001   1.906   0.145   1.240  0.4179 -0.9248  0.6193
  668SOL     OW 2002   2.012   0.492   1.153  0.2268  0.4595  0.2613
  668SOL    HW1 2003   2.087   0.531   1.088 -0.5200  1.2213  3.6646
  668SOL    HW2 2004   2.053   0.458   1.246  1.1338 -0.1637  1.1562
  669SOL     OW 2005   0.005   2.182   1.005 -0.6133  0.3682  0.0755
  669SOL    HW1 2006  -0.063   2.215   0.940  3.9540 -1.2777  1.3178
  669SOL    HW2 2007   0.002   2.228   1.093 -1.5173 -2.2963 -0.5578
  670SOL     OW 2008   2.840   2.340   1.951 -0.1177 -0.4138 -0.0680
  670SOL    HW1 2009   2.784   2.311   2.031 -0.6172 -0.4283  0.0059
  670SOL    HW2 2010   2.823   2.439   1.924  1.4740 -3.0439  0.8019
  671SOL     OW 2011   1.751   1.726   1.482  0.0641 -0.0055  0.5269
  671SOL    HW1 2012   1.770   1.777   1.395  2.1949  1.5720  0.1562
  671SOL    HW2 2013   1.683   1.654   1.460  1.6384  2.2837 -2.8107
  672SOL     OW 2014   0.397   0.620   2.400 -0.1434  0.2507 -0.1593
  672SOL    HW1 2015   0.465   0.647   2.331 -1.7725 -0.6542 -0.1544
  672SOL    HW2 2016   0.307   0.674   2.387 -1.0564 -1.4749 -0.1918
  673SOL     OW 2017   0.119   1.154   1.137 -0.5817  0.3516 -0.3047
  673SOL    HW1 2018   0.148   1.216   1.219  1.8967 -0.3510  1.1241
  673SOL    HW2 2019   0.203   1.126   1.086 -0.8773 -0.7596  3.1605
  674SOL     OW 2020   1.632   2.955   0.231 -0.2441 -0.3308  0.0618
  674SOL    HW1 2021   1.653   3.039   0.177 -2.5855 -2.0828  0.0202
  674SOL    HW2 2022   1.680   2.872   0.189 -2.5644 -3.6247  1.1796
  675SOL     OW 2023   1.713   0.823   2.340 -0.4122 -0.0533 -0.6843
  675SOL    HW1 2024   1.815   0.816   2.314  1.8477  0.8045 -2.3098
  675SOL    HW2 2025   1.651   0.756   2.299 -2.8585  1.8518  0.8939
  676SOL     OW 2026   2.490   1.452   1.997 -0.6223 -0.1620  0.3315
  676SOL    HW1 2027   2.493   1.423   1.901  0.0304  0.2984  0.9874
  676SOL    HW2 2028   2.555   1.388   2.052  3.0842  0.9282 -2.1404
  677SOL     OW 2029   1.935   0.690   0.850  0.3410  0.7335 -0.0031
  677SOL    HW1 2030   1.998   0.723   0.924 -3.0724 -0.5408 -1.0356
  677SOL    HW2 2031   1.927   0.586   0.848  0.1893  1.9617 -0.0335
  678SOL     OW 2032   0.004   0.761   1.677 -0.0059 -0.1670 -0.1787
  678SOL    HW1 2033   0.106   0.764   1.687  0.7616  0.6449 -0.6934
  678SOL    HW2 2034  -0.044   0.746   1.771 -0.9605  1.5385 -0.8851
  679SOL     OW 2035   2.595   1.180   1.081  0.5476 -0.0244  0.0113
  679SOL    HW1 2036   2.496   1.196   1.110 -1.0886  0.4863  0.0131
  679SOL    HW2 2037   2.608   1.079   1.077 -0.9640  0.3422  1.9994
  680SOL     OW 2038   2.793   0.624   1.714 -0.0534  0.1184  0.1835
  680SOL    HW1 2039   2.791   0.667   1.619 -0.3753  0.1296  1.1918
  680SOL    HW2 2040   2.834   0.685   1.788  0.2683  3.3010 -0.2303
  681SOL     OW 2041   3.010   0.190   1.661  0.5012  0.0140  0.3013
  681SOL    HW1 2042   3.087   0.177   1.583 -1.1466  2.3419 -2.5945
  681SOL    HW2 2043   2.934   0.255   1.638 -0.3089 -0.2218 -1.1458
  682SOL     OW 2044   0.765   3.098   1.312 -0.7868  0.9374 -0.2497
  682SOL    HW1 2045   0.697   3.045   1.372 -3.4096  0.6138  2.3223
  682SOL    HW2 2046   0.776   3.052   1.221  0.5044 -0.1438 -2.5165
  683SOL     OW 2047   1.344   0.196   2.206  0.1435 -0.7005 -0.3248
  683SOL    HW1 2048   1.375   0.250   2.289 -0.1692  0.2834  0.8737
  683SOL    HW2 2049   1.396   0.236   2.126 -2.3363  0.1974  0.2603
  684SOL     OW 2050   1.444   2.119   0.526  0.1012 -0.2427  0.2040
  684SOL    HW1 2051   1.488   2.050   0.589 -0.8625  1.3437  2.2156
  684SOL    HW2 2052   1.358   2.081   0.479 -1.6756 -0.8779 -0.9186
  685SOL     OW 2053   2.133   1.989   1.974  0.4332 -0.2319  0.2617
  685SOL    HW1 2054   2.222   1.980   1.926 -1.7737 -1.1115  0.8367
  685SOL    HW2 2055   2.135   1.945   2.063  1.5802 -1.0720  0.5678
  686SOL     OW 2056   1.518   1.793   2.741 -0.1113  0.1955  0.3748
  686SOL    HW1 2057   1.569   1.750   2.821  0.9194  1.7915  0.9231
  686SOL    HW2 2058   1.529   1.733   2.657 -0.1888 -2.7742  1.8505
  687SOL     OW 2059   1.266   2.492   1.993 -0.5669  0.4115 -0.0683
  687SOL    HW1 2060   1.237   2.390   1.971  0.9663 -2.3214  1.5084
  687SOL    HW2 2061   1.349   2.503   2.053  0.1304 -0.7832 -2.6467
  688SOL     OW 2062   2.060   1.556   1.742  0.3781  1.1617  0.0342
  688SOL    HW1 2063   2.162   1.581   1.749  2.0766  0.9600  1.4415
  688SOL    HW2 2064   2.030   1.525   1.648 -2.2521  0.3001  2.7678
  689SOL     OW 2065   2.444   1.065   2.680  0.4617 -0.0985 -0.6888
  689SOL    HW1 2066   2.347   1.030   2.696 -2.4637  1.6324  0.9542
  689SOL    HW2 2067   2.488   1.065   2.770 -2.0738  0.2317 -0.8587
  690SOL     OW 2068   2.259   2.800   0.015 -0.3486 -0.1931  0.1170
  690SOL    HW1 2069   2.190   2.769  -0.057  1.7738  1.1899 -1.1684
  690SOL    HW2 2070   2.224   2.795   0.112  0.9672  2.5567  2.6977
  691SOL     OW 2071   2.589   0.481   2.221  0.0304 -0.0285  0.3667
  691SOL    HW1 2072   2.648   0.414   2.174 -2.3720  0.7299 -0.7188
  691SOL    HW2 2073   2.591   0.575   2.180  0.5931  2.3508  0.0160
  692SOL     OW 2074   2.763   1.226   0.715  0.1293  0.0154 -0.1776
  692SOL    HW1 2075   2.661   1.227   0.688 -0.1584  0.2367 -1.6675
  692SOL    HW2 2076   2.787   1.286   0.793 -0.1066  1.1938 -0.5637
  693SOL     OW 2077   2.805   2.937   0.639 -0.2834  0.0163  0.6923
  693SOL    HW1 2078   2.832   3.017   0.704 -0.3333  2.0631  0.3968
  693SOL    HW2 2079   2.757   2.960   0.548  0.2061 -0.2244  1.4187
  694SOL     OW 2080   2.357   2.187   0.076  0.4830  0.2562  0.0743
  694SOL    HW1 2081   2.342   2.285   0.102  0.0335  1.3961  1.6218
  694SOL    HW2 2082   2.282   2.149   0.013 -0.0791 -1.9583 -1.6511
  695SOL     OW 2083   0.590   2.955   1.461  0.1389 -0.8461  0.4139
  695SOL    HW1 2084   0.518   2.896   1.416 -1.6087 -1.0651 -1.5706
  695SOL    HW2 2085   0.561   2.987   1.555 -1.5783  0.7623  1.1544
  696SOL     OW 2086   2.812   1.948   0.780  0.4434  0.0834  0.2470
  696SOL    HW1 2087   2.859   1.882   0.843 -1.9388  2.3445  0.6841
  696SOL    HW2 2088   2.794   1.904   0.688  4.7322 -1.2527 -0.8049
  697SOL     OW 2089   1.612   2.054   1.820  0.1200  0.4360 -0.0606
  697SOL    HW1 2090   1.693   1.988   1.843 -2.0889  0.2996 -3.0141
  697SOL    HW2 2091   1.642   2.145   1.789  1.0769 -0.6185 -0.4477
  698SOL     OW 2092   2.936   0.438   2.751 -0.0487  0.1995  0.1509
  698SOL    HW1 2093   2.927   0.382   2.662  2.1400 -1.8385  0.4235
  698SOL    HW2 2094   2.998   0.387   2.812 -3.0997  0.1727  0.9404
  699SOL     OW 2095   1.572   0.088   2.929 -0.4353  0.3749 -0.2389
  699SOL    HW1 2096   1.555  -0.007   2.889  0.7633 -4.1024 -0.0661
  699SOL    HW2 2097   1.626   0.155   2.868  1.5922  0.5194  0.3496
  700SOL     OW 2098   0.995   2.302   1.322  0.4834 -0.1232 -0.2395
  700SOL    HW1 2099   1.088   2.263   1.308  0.2518 -0.1082 -0.3688
  700SOL    HW2 2100   0.928   2.285   1.243  1.5928 -3.5976  0.0191
  701SOL     OW 2101   1.944   2.835   3.063  0.1568  0.0982  0.3487
  701SOL    HW1 2102   1.898   2.780   3.140  0.9608  1.2234  0.2792
  701SOL    HW2 2103   1.983   2.926   3.090  0.4903 -2.5350  1.4402
  702SOL     OW 2104   2.070   1.347   1.954 -0.8049  0.0047 -1.0934
  702SOL    HW1 2105   2.160   1.301   1.925  1.1077  0.6848 -2.6322
  702SOL    HW2 2106   2.032   1.404   1.877  1.4796 -1.6593  0.1650
  703SOL     OW 2107   1.951   0.892   1.426  0.3437 -0.1804  0.2162
  703SOL    HW1 2108   1.948   0.803   1.478 -0.2896  1.0037 -3.6323
  703SOL    HW2 2109   2.023   0.957   1.467  0.7460 -0.6677  1.1440
  704SOL     OW 2110   0.325   2.051   1.659  0.4242  0.1389 -0.1301
  704SOL    HW1 2111   0.343   1.981   1.737  0.1482 -0.5516  1.0130
  704SOL    HW2 2112   0.388   2.131   1.674  1.1783 -2.7217  3.9206
  705SOL     OW 2113   2.480   1.446   0.965 -0.1612 -0.4538  0.1947
  705SOL    HW1 2114   2.447   1.429   0.870 -0.5823 -2.1754  1.2997
  705SOL    HW2 2115   2.573   1.399   0.979 -1.4278 -1.4048 -1.1849
  706SOL     OW 2116   0.668   1.672   1.832  0.3519 -0.1243 -0.0970
  706SOL    HW1 2117   0.694   1.577   1.863 -0.5943 -2.2668 -0.7728
  706SOL    HW2 2118   0.698   1.747   1.901  0.7891  1.9085 -0.1176
  707SOL     OW 2119   2.287   1.203   1.887 -0.1420 -0.3562 -0.2319
  707SOL    HW1 2120   2.378   1.192   1.942 -1.6559 -1.5691  0.4123
  707SOL    HW2 2121   2.247   1.115   1.862 -0.2205  2.3359 -0.0808
  708SOL     OW 2122   3.028   0.526   3.065 -0.8081 -0.3842 -0.0819
  708SOL    HW1 2123   3.056   0.607   3.003  1.1581 -0.6821 -5.5339
  708SOL    HW2 2124   3.029   0.436   3.018 -1.3642 -0.0155 -2.6231
  709SOL     OW 2125   1.817   1.849   0.201 -0.1940 -0.2730 -0.3003
  709SOL    HW1 2126   1.845   1.949   0.223 -1.3852  0.2869  0.3964
  709SOL    HW2 2127   1.816   1.836   0.099 -0.3749  1.8684  1.2956
  710SOL     OW 2128   1.714   1.628   2.435 -0.5658 -0.3736 -0.3344
  710SOL    HW1 2129   1.778   1.614   2.355 -0.5286 -0.7872  1.4638
  710SOL    HW2 2130   1.726   1.550   2.499  2.5957  1.4592 -3.0343
  711SOL     OW 2131   2.684   2.990   0.958  0.1636 -0.0930  0.2385
  711SOL    HW1 2132   2.628   3.072   0.922  0.8114  1.6387 -1.8469
  711SOL    HW2 2133   2.784   3.012   0.978  1.1121 -0.2037 -1.3998
  712SOL     OW 2134   1.342   2.203   1.989  0.3666  0.2237 -0.4308
  712SOL    HW1 2135   1.429   2.246   2.028 -0.0005 -2.4144 -1.9450
  712SOL    HW2 2136   1.345   2.193   1.884 -0.1726 -1.3399  0.6132
  713SOL     OW 2137   2.948   1.449   2.560  0.2620 -0.3373  0.1819
  713SOL    HW1 2138   2.880   1.368   2.551 -2.4986  0.3226  2.2790
  713SOL    HW2 2139   2.940   1.496   2.656 -0.3871 -0.3921  2.3796
  714SOL     OW 2140   2.691   0.500   2.487 -0.6784  0.3586 -0.4303
  714SOL    HW1 2141   2.648   0.419   2.538 -0.8111  2.3085 -0.2132
  714SOL    HW2 2142   2.636   0.526   2.406  1.5318  0.3402  0.3901
  715SOL     OW 2143   1.609   2.028   1.178 -0.0764  0.5670  0.7957
  715SOL    HW1 2144   1.524   2.049   1.123 -0.1092 -2.8077  3.0923
  715SOL    HW2 2145   1.617   2.085   1.265 -0.3106  1.2363  2.2005
  716SOL     OW 2146   1.225   0.105   1.461 -0.0166  0.4912 -0.0812
  716SOL    HW1 2147   1.122   0.110   1.446  0.4428 -4.2274  0.0632
  716SOL    HW2 2148   1.266   0.200   1.483  0.0255 -0.1050 -1.6823
  717SOL     OW 2149   1.132   0.532   1.595 -0.0062  0.6973 -0.5578
  717SOL    HW1 2150   1.216   0.587   1.621 -0.7015 -1.4788  2.8105
  717SOL    HW2 2151   1.128   0.516   1.492 -2.7466  0.3046  1.4207
  718SOL     OW 2152   0.688   0.934   0.996  0.7667 -0.7887  0.2941
  718SOL    HW1 2153   0.673   0.919   0.891 -0.8714  1.4778 -1.2006
  718SOL    HW2 2154   0.649   1.023   1.038  1.3306 -1.3552  1.0581
  719SOL     OW 2155   0.648   1.772   2.316  0.7212  0.4204 -0.1082
  719SOL    HW1 2156   0.685   1.834   2.392  3.6361  0.1942  0.1598
  719SOL    HW2 2157   0.549   1.749   2.334  3.1154 -1.7033 -1.8114
  720SOL     OW 2158   2.188   1.165   0.296  0.3919 -0.1195  0.0068
  720SOL    HW1 2159   2.229   1.083   0.247 -2.5997  0.4844  2.4881
  720SOL    HW2 2160   2.183   1.152   0.402 -0.5234  2.0383 -1.1603
  721SOL     OW 2161   2.257   2.989   2.126  0.2959 -0.1302  0.4127
  721SOL    HW1 2162   2.186   3.034   2.065 -0.0100  0.0690 -2.8487
  721SOL    HW2 2163   2.247   3.004   2.226 -2.3586  3.3497  0.7099
  722SOL     OW 2164   2.398   1.592   0.490 -0.1393  0.5475  0.0622
  722SOL    HW1 2165   2.440   1.517   0.430 -1.1160 -3.0742  1.0533
  722SOL    HW2 2166   2.333   1.650   0.442  0.7354  1.4951 -0.0604
  723SOL     OW 2167   2.516   2.717   1.980 -0.0785  0.2452  0.2801
  723SOL    HW1 2168   2.567   2.794   2.030  1.2767 -0.3485 -0.0750
  723SOL    HW2 2169   2.415   2.723   1.983  0.3160  2.0820  2.9322
  724SOL     OW 2170   0.530   2.481   2.426  0.3253 -0.1886  0.4291
  724SOL    HW1 2171   0.434   2.453   2.445  1.4037 -0.6958 -3.0803
  724SOL    HW2 2172   0.586   2.497   2.508 -1.3229  1.1534  1.0226
  725SOL     OW 2173   2.463   2.794   1.496 -0.5930  0.2831 -0.3302
  725SOL    HW1 2174   2.457   2.822   1.395  1.0186 -3.4915 -0.4141
  725SOL    HW2 2175   2.419   2.701   1.518 -4.1811 -0.7009  0.9471
  726SOL     OW 2176   2.484   2.251   0.696 -0.2255 -0.8042  0.4721
  726SOL    HW1 2177   2.444   2.351   0.673  1.7951  2.4715  0.6009
  726SOL    HW2 2178   2.463   2.185   0.620 -0.6411  0.9636  2.9423
  727SOL     OW 2179   0.148   3.078   0.028 -0.3807  0.2455  0.1959
  727SOL    HW1 2180   0.195   2.990   0.061 -1.0299  0.9434 -0.8909
  727SOL    HW2 2181   0.166   3.084  -0.075  0.1861 -0.1670 -1.7802
  728SOL     OW 2182   2.891   0.667   0.972  0.4662  0.5390 -0.1453
  728SOL    HW1 2183   2.801   0.667   0.922  0.8121  1.8164  3.0565
  728SOL    HW2 2184   2.896   0.626   1.068 -0.1726  0.6513  2.5880
  729SOL     OW 2185   3.019   2.480   0.750 -0.0090 -0.1870 -0.0423
  729SOL    HW1 2186   2.977   2.408   0.806  2.2602  1.3821  1.9613
  729SOL    HW2 2187   3.122   2.465   0.731  4.3978 -3.7505  2.3669
  730SOL     OW 2188   2.637   0.663   0.825 -0.0516 -0.1128 -0.1436
  730SOL    HW1 2189   2.598   0.753   0.801  0.2831 -2.5392 -1.0617
  730SOL    HW2 2190   2.646   0.609   0.737 -0.5199  3.3006 -0.5235
  731SOL     OW 2191   0.124   2.116   2.461  0.0317  0.8872 -0.5274
  731SOL    HW1 2192   0.058   2.156   2.530  1.6655 -0.4126 -1.1526
  731SOL    HW2 2193   0.206   2.173   2.435  0.5364 -0.0230 -2.8898
  732SOL     OW 2194   1.132   2.829   1.942 -0.0431  0.4609  0.4082
  732SOL    HW1 2195   1.174   2.802   2.034  1.0300  0.2984  1.4593
  732SOL    HW2 2196   1.159   2.764   1.868  0.4611  0.0551 -0.9721
  733SOL     OW 2197   3.041   0.583   2.234 -0.1867 -0.0983  0.4753
  733SOL    HW1 2198   3.110   0.625   2.167 -1.7732  1.0897 -2.1087
  733SOL    HW2 2199   2.981   0.517   2.193 -1.6054  0.5665  1.1282
  734SOL     OW 2200   1.399   0.368   2.767  0.3696 -0.3479 -0.0232
  734SOL    HW1 2201   1.409   0.433   2.843 -0.6746 -0.6960  0.1174
  734SOL    HW2 2202   1.320   0.299   2.779 -0.1808  0.5053 -0.5047
  735SOL     OW 2203   2.892   2.631   2.271 -0.1878 -0.1062 -0.5646
  735SOL    HW1 2204   2.859   2.600   2.181  0.4887 -0.1764  0.3664
  735SOL    HW2 2205   2.994   2.650   2.265  0.5504  2.3965  0.9593
  736SOL     OW 2206   0.778   0.302   2.657 -0.6436 -0.5100  0.4055
  736SOL    HW1 2207   0.671   0.314   2.657  1.9821 -0.2822  1.9214
  736SOL    HW2 2208   0.807   0.240   2.582 -2.1687  2.5961  0.4222
  737SOL     OW 2209   2.678   0.478   2.874  0.5136 -1.0687  0.1704
  737SOL    HW1 2210   2.647   0.429   2.961  0.6268 -0.5355  1.0531
  737SOL    HW2 2211   2.769   0.453   2.830 -0.9469 -1.5868 -1.5851
  738SOL     OW 2212   1.632   1.284   2.910  0.1037 -0.0278 -0.2664
  738SOL    HW1 2213   1.729   1.260   2.882 -0.9323 -0.2184 -1.5591
  738SOL    HW2 2214   1.560   1.213   2.875 -1.2889  0.0702  2.5366
  739SOL     OW 2215   1.728   0.618   0.690  0.5992 -0.2826  0.2337
  739SOL    HW1 2216   1.782   0.676   0.754  0.2442  0.9028  3.0472
  739SOL    HW2 2217   1.791   0.550   0.642  3.4484  0.1231  0.1639
  740SOL     OW 2218   1.977   1.907   2.217  0.7845  0.4974 -0.0825
  740SOL    HW1 2219   2.035   1.858   2.288  0.8787  0.3409 -2.5810
  740SOL    HW2 2220   1.883   1.857   2.208 -2.1762 -1.4492 -0.2428
  741SOL     OW 2221   2.524   0.040   2.606  0.0055 -0.0183 -0.0674
  741SOL    HW1 2222   2.630   0.040   2.600  0.8211 -3.6706  1.0901
  741SOL    HW2 2223   2.491   0.049   2.507  1.1023 -0.2148  1.4972
  742SOL     OW 2224   2.237   1.426   0.237 -0.4971 -0.0496  0.7123
  742SOL    HW1 2225   2.190   1.503   0.282  0.9897 -0.7024 -0.2965
  742SOL    HW2 2226   2.196   1.332   0.248  2.8229 -0.8250  0.0428
  743SOL     OW 2227   1.856   0.675   2.608  0.1499  0.5548  0.8363
  743SOL    HW1 2228   1.807   0.626   2.525 -1.5147 -0.1137 -1.5788
  743SOL    HW2 2229   1.791   0.746   2.642 -1.2898 -1.3058 -1.4516
  744SOL     OW 2230   2.608   2.100   0.134 -0.5945 -0.5569 -0.3106
  744SOL    HW1 2231   2.516   2.141   0.144  5.9158 -1.3892  0.1409
  744SOL    HW2 2232   2.597   1.999   0.144 -0.2006 -0.4942 -0.5754
  745SOL     OW 2233   2.175   2.611   2.344  0.5295  0.0064  0.2772
  745SOL    HW1 2234   2.090   2.610   2.284 -1.9487  0.8336  2.4325
  745SOL    HW2 2235   2.169   2.678   2.426 -0.5254 -0.5847  2.3069
  746SOL     OW 2236   0.006   2.619   1.709 -0.2536  0.2719  0.1008
  746SOL    HW1 2237   0.094   2.599   1.653 -0.2816  2.9166 -1.2606
  746SOL    HW2 2238   0.025   2.689   1.786  0.3967 -0.1037 -0.6154
  747SOL     OW 2239   0.031   1.779   1.649 -0.3969  0.4401 -0.6568
  747SOL    HW1 2240  -0.024   1.687   1.632 -2.5286 -1.4314 -0.2845
  747SOL    HW2 2241   0.109   1.791   1.582 -3.8327  1.2939  0.4416
  748SOL     OW 2242   1.820   2.742   2.832  0.5679 -0.0175 -0.1643
  748SOL    HW1 2243   1.856   2.801   2.907 -1.9363 -2.2017 -2.0121
  748SOL    HW2 2244   1.721   2.720   2.831  3.4860 -1.2476  4.1878
  749SOL     OW 2245   1.302   3.053   0.958 -0.6620  0.1426 -0.0762
  749SOL    HW1 2246   1.211   3.002   0.965 -2.5421  0.5345 -0.1233
  749SOL    HW2 2247   1.365   3.011   0.888 -2.1108  2.3463  2.1121
  750SOL     OW 2248   2.312   0.183   1.882  0.5653 -0.0587 -0.0428
  750SOL    HW1 2249   2.323   0.225   1.786 -1.4488 -0.6962 -2.5038
  750SOL    HW2 2250   2.338   0.258   1.955 -0.2856  1.1472 -0.6125
  751SOL     OW 2251   0.897   2.140   2.751  0.0423  0.0568 -0.4849
  751SOL    HW1 2252   0.967   2.158   2.823 -0.4815  0.6613 -0.9694
  751SOL    HW2 2253   0.810   2.098   2.792  0.1998  0.5153 -0.8978
  752SOL     OW 2254   1.293   0.875   1.370 -0.0701  0.3399  0.0788
  752SOL    HW1 2255   1.365   0.946   1.349  3.4143  0.5312  0.7934
  752SOL    HW2 2256   1.334   0.781   1.382  2.2498 -1.0376 -1.3441
  753SOL     OW 2257   0.920   2.570   1.683  0.1803  0.1953  0.4230
  753SOL    HW1 2258   1.014   2.596   1.712 -1.7855 -1.5627  1.4435
  753SOL    HW2 2259   0.874   2.643   1.621  1.0258  0.8606  0.8048
  754SOL     OW 2260   1.100   1.227   3.039  0.5108  0.6931  0.9113
  754SOL    HW1 2261   1.176   1.162   3.011 -2.4782  1.2457 -1.3220
  754SOL    HW2 2262   1.136   1.322   3.040  0.7147 -2.2864 -0.4099
  755SOL     OW 2263   1.980   0.454   2.227 -0.2524 -0.2959  0.0444
  755SOL    HW1 2264   2.046   0.381   2.255 -1.7981 -1.2159 -4.3161
  755SOL    HW2 2265   1.917   0.480   2.304  2.0021 -0.1013  0.5977
  756SOL     OW 2266   2.543   1.032   2.950 -0.1777 -0.1267  0.0617
  756SOL    HW1 2267   2.641   1.038   2.991  1.6704  0.3408 -0.5126
  756SOL    HW2 2268   2.490   0.961   2.995 -2.2093  0.6152  0.0818
  757SOL     OW 2269   0.003   0.468   1.806 -0.7046 -0.7450 -0.6673
  757SOL    HW1 2270   0.070   0.472   1.727  2.2376 -1.2717 -0.5237
  757SOL    HW2 2271   0.050   0.422   1.884 -0.1078 -0.0013 -3.2914
  758SOL     OW 2272   2.383   0.095   1.454 -0.3398 -0.0312 -0.7607
  758SOL    HW1 2273   2.330   0.019   1.499  2.5394  1.4122  0.5894
  758SOL    HW2 2274   2.356   0.121   1.362  3.3154 -0.1517  0.8286
  759SOL     OW 2275   1.716   0.074   0.066  0.5818  0.5230  0.0985
  759SOL    HW1 2276   1.671   0.084  -0.029  0.8357  1.4240  0.6361
  759SOL    HW2 2277   1.816   0.044   0.058  0.5081 -1.5090  2.0542
  760SOL     OW 2278   2.723   2.077   2.810 -0.0468 -0.6997  0.4576
  760SOL    HW1 2279   2.731   2.001   2.876  0.6951 -0.0941  0.4655
  760SOL    HW2 2280   2.719   2.170   2.858  0.9574 -0.5841  0.0936
  761SOL     OW 2281   1.897   1.760   1.719  0.1833  0.4543  0.3002
  761SOL    HW1 2282   1.953   1.680   1.756  0.1953 -1.9504 -2.0949
  761SOL    HW2 2283   1.826   1.731   1.649 -2.8652  1.1847 -2.6564
  762SOL     OW 2284   0.473   2.348   0.983 -0.0477 -0.6431 -0.5250
  762SOL    HW1 2285   0.548   2.349   0.912 -0.8090  0.2755  1.5346
  762SOL    HW2 2286   0.507   2.394   1.075 -4.1431 -0.0653  1.7004
  763SOL     OW 2287   2.063   1.503   2.914 -0.0360  0.3329 -0.4098
  763SOL    HW1 2288   2.155   1.482   2.967  2.5157 -1.0270 -0.1542
  763SOL    HW2 2289   1.975   1.467   2.966 -0.9362 -3.6813 -0.6652
  764SOL     OW 2290   0.639   0.619   0.851 -0.9059  0.4619 -0.2504
  764SOL    HW1 2291   0.583   0.544   0.806  1.0113  0.6394 -1.9165
  764SOL    HW2 2292   0.727   0.577   0.886 -2.2205  3.2673 -0.5176
  765SOL     OW 2293   0.717   0.258   0.764 -0.0923 -0.0580  0.5253
  765SOL    HW1 2294   0.782   0.290   0.687 -0.1325  0.7629  1.3539
  765SOL    HW2 2295   0.724   0.309   0.849 -0.7119 -0.6671 -3.8938
  766SOL     OW 2296   2.888   2.092   0.011  0.6521 -0.4174 -0.1495
  766SOL    HW1 2297   2.817   2.100   0.086  1.4923  0.1321 -0.2148
  766SOL    HW2 2298   2.958   2.163   0.010  1.1065 -0.9340  1.2453
  767SOL     OW 2299   2.794   1.573   0.613 -0.6037 -0.1781 -0.1546
  767SOL    HW1 2300   2.729   1.612   0.683  2.0354  2.3850  1.1850
  767SOL    HW2 2301   2.893   1.608   0.641  2.4779  0.1417  0.5659
  768SOL     OW 2302   1.085   0.160   0.291  0.5536  0.1099  0.5238
  768SOL    HW1 2303   1.011   0.108   0.347  1.8735  1.0168  0.0138
  768SOL    HW2 2304   1.169   0.100   0.281  0.5441 -2.2068  1.3204
  769SOL     OW 2305   0.987   1.907   2.214 -0.0432 -0.0070 -0.0761
  769SOL    HW1 2306   0.911   1.915   2.281 -0.1420 -0.7132  1.3810
  769SOL    HW2 2307   1.052   1.835   2.248 -3.3767 -0.7209  0.7924
  770SOL     OW 2308   0.189   1.123   2.296 -0.1563 -0.0813 -0.7480
  770SOL    HW1 2309   0.181   1.189   2.376 -0.3783 -3.0442  1.0047
  770SOL    HW2 2310   0.094   1.107   2.251  0.1670  2.4862 -0.8842
  771SOL     OW 2311   3.014   2.857   1.910  0.0264  0.3721 -0.2195
  771SOL    HW1 2312   2.975   2.918   1.835 -0.7209  1.0516  0.2633
  771SOL    HW2 2313   3.001   2.902   2.004  1.5824 -2.0733  3.6572
  772SOL     OW 2314   2.204   0.218   2.909  0.2395 -0.3268  0.5743
  772SOL    HW1 2315   2.302   0.186   2.919 -3.2502  1.4994  0.1114
  772SOL    HW2 2316   2.181   0.284   2.982  2.7327 -1.9002  0.3735
  773SOL     OW 2317   0.768   2.194   2.446  0.1102  0.0017  0.0637
  773SOL    HW1 2318   0.716   2.223   2.365  0.2323 -1.2506  3.3330
  773SOL    HW2 2319   0.705   2.195   2.530  3.1172  0.3904 -1.2781
  774SOL     OW 2320   2.035   3.096   2.643 -0.3389  0.4384 -0.1029
  774SOL    HW1 2321   2.045   3.197   2.672 -0.5179 -2.5365 -2.3922
  774SOL    HW2 2322   2.087   3.033   2.705  2.4694  3.1298  0.9674
  775SOL     OW 2323   2.538   2.839   2.420  0.2391 -0.0580  0.2969
  775SOL    HW1 2324   2.528   2.934   2.381  0.0103 -1.1689 -0.4758
  775SOL    HW2 2325   2.623   2.843   2.482 -1.4339  4.1006  0.1073
  776SOL     OW 2326   0.017   1.324   0.188 -0.3002 -0.4135 -0.2406
  776SOL    HW1 2327   0.005   1.253   0.118 -1.1660 -1.1713  1.2771
  776SOL    HW2 2328  -0.033   1.294   0.274  0.3741  0.7012  0.4535
  777SOL     OW 2329   0.298   2.853   0.411 -0.0633  0.3192 -0.2181
  777SOL    HW1 2330   0.211   2.913   0.402 -1.4752  0.7554  2.7222
  777SOL    HW2 2331   0.385   2.912   0.416 -1.2020 -0.1135  1.2312
  778SOL     OW 2332   1.306   1.973   0.196 -0.4246  0.4916  0.2983
  778SOL    HW1 2333   1.257   2.011   0.280  0.7373 -1.0766 -1.1962
  778SOL    HW2 2334   1.345   2.046   0.135  1.5582  0.0658  0.7694
  779SOL     OW 2335   0.187   0.850   0.466 -0.1695  0.0649  0.4171
  779SOL    HW1 2336   0.140   0.759   0.441  1.3778 -0.6274  0.0249
  779SOL    HW2 2337   0.140   0.895   0.546 -1.0849  0.4503 -1.1965
  780SOL     OW 2338   0.089   0.220   2.221 -0.5370  0.2848 -0.5825
  780SOL    HW1 2339   0.138   0.306   2.256  0.4798  3.4178  0.4449
  780SOL    HW2 2340   0.152   0.149   2.179  0.7681  0.4045 -2.0720
  781SOL     OW 2341   0.646   1.766   1.573 -0.5634 -0.2219  0.1853
  781SOL    HW1 2342   0.675   1.735   1.664 -1.9954 -1.3984 -0.4684
  781SOL    HW2 2343   0.557   1.724   1.544  1.3807 -2.9345  0.4096
  782SOL     OW 2344   2.603   0.191   0.894  0.3849  0.0224 -0.1280
  782SOL    HW1 2345   2.529   0.188   0.822  0.0013 -0.6007  3.2727
  782SOL    HW2 2346   2.572   0.254   0.970  2.5239  3.2436  0.8263
  783SOL     OW 2347   2.850   0.721   2.575  0.0172 -0.6129 -0.6923
  783SOL    HW1 2348   2.790   0.770   2.642  1.7557 -0.5482 -0.9260
  783SOL    HW2 2349   2.801   0.650   2.524 -1.2708 -1.5669 -0.1836
  784SOL     OW 2350   1.439   2.171   0.085 -0.7057  0.2061  0.1803
  784SOL    HW1 2351   1.509   2.242   0.120 -0.8952  0.0766 -1.4751
  784SOL    HW2 2352   1.416   2.187  -0.016  0.0634 -1.4591  1.8611
  785SOL     OW 2353   2.130   0.367   0.034 -0.3559  0.6150 -0.4674
  785SOL    HW1 2354   2.044   0.366   0.092 -0.0159  0.2472 -0.5699
  785SOL    HW2 2355   2.174   0.461   0.010 -0.6465  1.2704 -0.5346
  786SOL     OW 2356   2.048   2.181   2.208  0.4114  0.2010  0.1709
  786SOL    HW1 2357   2.036   2.076   2.206 -1.7144  0.9421  0.6395
  786SOL    HW2 2358   2.139   2.218   2.190 -2.4510  1.1362  6.0370
  787SOL     OW 2359   1.415   0.629   0.970  0.4383  0.3716 -0.8120
  787SOL    HW1 2360   1.330   0.682   1.002  1.3789 -1.7844  0.4522
  787SOL    HW2 2361   1.426   0.625   0.867  0.2522 -0.0974  1.4463
  788SOL     OW 2362   1.251   0.401   3.095 -0.1055 -0.3567 -0.3544
  788SOL    HW1 2363   1.162   0.407   3.049  2.7749  1.4889  0.1739
  788SOL    HW2 2364   1.251   0.489   3.152  0.2331  1.5480 -1.1108
  789SOL     OW 2365   2.579   0.066   1.813  0.0825 -0.7782 -0.6491
  789SOL    HW1 2366   2.490   0.086   1.845  3.6450 -1.5204  0.2365
  789SOL    HW2 2367   2.593  -0.038   1.786  1.1261 -1.1690 -3.0452
  790SOL     OW 2368   2.594   2.722   0.824 -0.8175 -0.5268 -0.2342
  790SOL    HW1 2369   2.592   2.727   0.718 -1.5920  0.5833  1.5944
  790SOL    HW2 2370   2.622   2.808   0.878 -1.2653  0.4119  1.8238
  791SOL     OW 2371   1.915   1.247   0.235 -0.3444  0.1305  0.5050
  791SOL    HW1 2372   1.835   1.193   0.267  1.5621 -1.3676 -0.8888
  791SOL    HW2 2373   1.998   1.210   0.286  2.2708  1.0706 -0.3682
  792SOL     OW 2374   0.447   1.995   2.141  0.0480  0.1113 -0.3435
  792SOL    HW1 2375   0.475   2.094   2.161  1.4609 -1.5484 -0.0919
  792SOL    HW2 2376   0.376   1.950   2.206 -1.5912  0.4084  1.6396
  793SOL     OW 2377   2.101   1.570   2.131  0.1577  0.6565 -0.5870
  793SOL    HW1 2378   2.180   1.624   2.107 -1.6048 -0.3689  0.4540
  793SOL    HW2 2379   2.080   1.497   2.061  0.9122 -0.1417 -1.3295
  794SOL     OW 2380   0.424   1.333   2.438 -0.2788  0.3726  0.2534
  794SOL    HW1 2381   0.438   1.296   2.341 -0.5870  0.8155 -0.5596
  794SOL    HW2 2382   0.478   1.421   2.451  1.5119 -0.3079  1.0648
  795SOL     OW 2383   2.383   2.285   1.694  0.0743  0.4376 -0.5429
  795SOL    HW1 2384   2.326   2.325   1.773 -1.4611  2.9745  0.4644
  795SOL    HW2 2385   2.368   2.182   1.682  0.0647 -0.1360 -1.7154
  796SOL     OW 2386   3.078   1.105   2.660  0.0518 -0.4259  0.1952
  796SOL    HW1 2387   2.985   1.103   2.705 -0.7018 -0.1799  2.3532
  796SOL    HW2 2388   3.149   1.133   2.727  0.2455  0.5082 -0.3918
  797SOL     OW 2389   0.775   0.622   1.350 -0.4907  0.4860  0.0971
  797SOL    HW1 2390   0.839   0.645   1.428  0.9903 -0.8189  1.2493
  797SOL    HW2 2391   0.731   0.706   1.308 -0.2467  0.9918 -1.1698
  798SOL     OW 2392   1.346   0.394   1.120 -0.1543  0.2539  0.2772
  798SOL    HW1 2393   1.391   0.395   1.211 -2.5905  1.9434 -1.7876
  798SOL    HW2 2394   1.363   0.483   1.072 -0.3006  1.7431 -0.1983
  799SOL     OW 2395   1.924   2.623   1.046  0.2963 -0.9749  0.3820
  799SOL    HW1 2396   1.886   2.648   1.137  0.1007  3.1926 -2.8022
  799SOL    HW2 2397   1.847   2.637   0.976 -2.3981  0.7286  0.3757
  800SOL     OW 2398   2.967   0.755   1.935  0.1416  0.1189  0.1531
  800SOL    HW1 2399   2.985   0.853   1.971 -0.5807 -0.8821  2.6232
  800SOL    HW2 2400   3.027   0.682   1.977 -1.5162  2.0762  0.9118
  801SOL     OW 2401   1.970   2.206   0.054  0.0722 -0.0779 -0.3529
  801SOL    HW1 2402   1.874   2.218   0.009 -0.1955 -1.1011 -0.2205
  801SOL    HW2 2403   2.039   2.142   0.012  2.6003  0.1568 -0.2521
  802SOL     OW 2404   0.616   0.810   2.586 -0.4553  0.3598  0.1585
  802SOL    HW1 2405   0.631   0.714   2.550 -1.1946 -2.2603  2.5137
  802SOL    HW2 2406   0.530   0.854   2.556  1.1558 -1.3637 -0.5922
  803SOL     OW 2407   0.962   0.055   0.791 -0.0361  0.2746  0.1893
  803SOL    HW1 2408   1.031   0.106   0.847 -0.6757 -1.0649  2.4510
  803SOL    HW2 2409   0.961   0.078   0.691 -1.5814  1.2159  0.8807
  804SOL     OW 2410   0.304   3.089   2.172  0.0878 -0.5687  0.5389
  804SOL    HW1 2411   0.345   3.180   2.148 -1.0375 -0.4439  0.6762
  804SOL    HW2 2412   0.257   3.035   2.098  0.4293  0.9262  1.4525
  805SOL     OW 2413   2.342   0.386   0.396  0.2416  0.8713 -0.2513
  805SOL    HW1 2414   2.423   0.357   0.457  0.5045  1.7106  1.2391
  805SOL    HW2 2415   2.366   0.372   0.297  0.9087  0.0772 -1.9059
  806SOL     OW 2416   0.651   2.469   1.766 -0.0669  0.0342 -0.2298
  806SOL    HW1 2417   0.615   2.564   1.782  1.2993 -0.6066  0.9339
  806SOL    HW2 2418   0.755   2.468   1.762  0.2769  0.2793  2.9500
  807SOL     OW 2419   2.490   0.816   0.363  0.0079  0.2648  0.2229
  807SOL    HW1 2420   2.582   0.846   0.411  3.3081 -2.8535 -0.3169
  807SOL    HW2 2421   2.449   0.882   0.297  0.4457 -2.5942 -1.2523
  808SOL     OW 2422   0.656   2.106   2.898 -0.3933  0.6422  0.2225
  808SOL    HW1 2423   0.601   2.166   2.964  0.1380  0.8148  1.5881
  808SOL    HW2 2424   0.673   2.007   2.934  2.9934 -0.6890  0.2567
  809SOL     OW 2425   2.598   1.960   1.888 -0.2417  0.0778  0.1324
  809SOL    HW1 2426   2.702   1.977   1.881 -2.0172 -1.4288 -1.4761
  809SOL    HW2 2427   2.553   1.927   1.802  0.6647  2.4771  0.7627
  810SOL     OW 2428   2.153   1.118   0.553  0.6233  0.7406 -0.8516
  810SOL    HW1 2429   2.093   1.030   0.571 -0.2386 -2.0846 -0.4902
  810SOL    HW2 2430   2.114   1.205   0.602 -0.0835  1.8021 -0.5107
  811SOL     OW 2431   1.332   2.496   1.225  0.2730  0.0386  0.0753
  811SOL    HW1 2432   1.294   2.401   1.248 -1.5940  0.4870 -0.1930
  811SOL    HW2 2433   1.270   2.573   1.253  0.7035  3.6475  0.4879
  812SOL     OW 2434   1.423   0.763   1.948  0.2953  0.0676  0.4557
  812SOL    HW1 2435   1.446   0.837   2.013 -0.3161  0.2873 -1.4297
  812SOL    HW2 2436   1.332   0.760   1.900 -0.7956 -2.3355  0.1840
  813SOL     OW 2437   1.644   2.048   2.529 -0.4034  0.5957  0.0551
  813SOL    HW1 2438   1.704   1.964   2.558  1.5237 -0.9431  0.1562
  813SOL    HW2 2439   1.607   2.040   2.431  0.1697 -0.4048  0.5195
  814SOL     OW 2440   2.937   1.560   2.804 -0.0295  0.8870 -0.0913
  814SOL    HW1 2441   3.003   1.542   2.883  3.1660  1.3473  1.5914
  814SOL    HW2 2442   2.924   1.661   2.782  0.9692  1.2693 -2.6462
  815SOL     OW 2443   2.187   2.907   2.782  0.1262  0.1499  0.7103
  815SOL    HW1 2444   2.157   2.822   2.837 -1.8256  1.9848  1.0155
  815SOL    HW2 2445   2.252   2.971   2.832  3.7380  2.9117 -1.0513
  816SOL     OW 2446   1.616   0.318   1.636 -0.0830  0.1914  0.3440
  816SOL    HW1 2447   1.640   0.218   1.656 -1.7729 -2.5459 -0.2369
  816SOL    HW2 2448   1.565   0.359   1.714  0.6910 -2.5548  0.5048
  817SOL     OW 2449   0.333   1.155   2.614  0.0047 -0.0886  0.0243
  817SOL    HW1 2450   0.239   1.164   2.651 -0.2246  0.4321  3.0802
  817SOL    HW2 2451   0.359   1.230   2.543  3.4603  1.1315 -0.4608
  818SOL     OW 2452   1.947   0.987   0.332 -0.2399 -0.0748  0.2725
  818SOL    HW1 2453   2.026   0.930   0.368 -1.9346  1.1046 -1.0908
  818SOL    HW2 2454   1.885   1.014   0.409 -0.1771 -0.0024  2.0731
  819SOL     OW 2455   2.727   2.958   2.978  0.8267 -0.3014  0.6224
  819SOL    HW1 2456   2.809   2.902   2.951 -0.3507  1.6940 -1.3369
  819SOL    HW2 2457   2.639   2.911   2.947  3.9715  0.2236  0.4064
  820SOL     OW 2458   1.215   1.045   0.587 -0.1018 -0.2544 -0.1558
  820SOL    HW1 2459   1.210   1.145   0.620  1.8933  0.1126  1.5907
  820SOL    HW2 2460   1.207   0.985   0.667  2.3546 -0.4467  0.9569
  821SOL     OW 2461   0.018   1.285   0.674 -0.5525  0.0028  0.2348
  821SOL    HW1 2462  -0.020   1.312   0.770  2.1660 -1.5402 -0.6330
  821SOL    HW2 2463   0.074   1.365   0.639 -1.3503 -2.5701  0.8376
  822SOL     OW 2464   2.600   1.795   2.430 -0.5204  0.1339  0.3578
  822SOL    HW1 2465   2.588   1.822   2.530 -2.7723 -1.1737  0.6957
  822SOL    HW2 2466   2.510   1.794   2.374 -2.3575  1.1689 -0.6272
  823SOL     OW 2467   2.019   0.841   1.120 -0.3739 -0.6020 -0.5839
  823SOL    HW1 2468   1.998   0.799   1.207 -0.9059  0.7405 -3.3932
  823SOL    HW2 2469   1.943   0.905   1.084 -0.1335 -0.4803 -0.7782
  824SOL     OW 2470   0.256   1.978   2.864 -0.9143  0.4349 -0.0367
  824SOL    HW1 2471   0.236   1.887   2.913 -0.3575 -2.5315 -1.7522
  824SOL    HW2 2472   0.295   1.954   2.769 -0.2603  0.5573 -0.5619
  825SOL     OW 2473   1.288   1.075   0.308  0.0392 -0.8320 -0.0601
  825SOL    HW1 2474   1.265   1.168   0.263 -2.0960  0.5304 -0.4697
  825SOL    HW2 2475   1.253   1.065   0.402  2.1705 -0.7494  0.0686
  826SOL     OW 2476   1.903   0.645   1.560  0.7062  0.4814  0.2839
  826SOL    HW1 2477   1.977   0.578   1.587  1.5725  1.1693 -0.7574
  826SOL    HW2 2478   1.829   0.593   1.506  2.5462 -2.6976  0.0258
  827SOL     OW 2479   0.711   1.231   0.265 -0.0725 -0.3564  1.0366
  827SOL    HW1 2480   0.778   1.177   0.201 -2.9187 -1.3347 -0.0699
  827SOL    HW2 2481   0.637   1.166   0.308  0.2058 -1.3804  0.2993
  828SOL     OW 2482   2.637   0.195   1.575  0.3352 -0.0868  0.1069
  828SOL    HW1 2483   2.544   0.181   1.524 -0.3401 -2.3020  2.2255
  828SOL    HW2 2484   2.618   0.176   1.674 -0.4517 -1.6554  0.5442
  829SOL     OW 2485   2.848   2.446   2.961  0.4344  0.0472 -0.5220
  829SOL    HW1 2486   2.779   2.375   2.993  1.0681 -1.5697  0.5322
  829SOL    HW2 2487   2.802   2.530   2.929  1.4724 -1.3975  0.5262
  830SOL     OW 2488   2.802   0.959   3.053  0.5304  0.4060  0.1027
  830SOL    HW1 2489   2.883   1.025   3.055  2.5327 -2.8757  0.7747
  830SOL    HW2 2490   2.823   0.876   3.111  2.7617 -0.1476 -2.4400
  831SOL     OW 2491   0.007   0.635   0.382  1.2369 -0.0159 -0.1696
  831SOL    HW1 2492  -0.022   0.578   0.466 -0.1542 -1.7146  0.4250
  831SOL    HW2 2493   0.050   0.575   0.310 -0.3462 -1.9814  1.8098
  832SOL     OW 2494   1.825   0.791   3.022  0.2495  0.1629 -0.0014
  832SOL    HW1 2495   1.744   0.834   2.973  0.6649 -2.1648  2.1284
  832SOL    HW2 2496   1.820   0.689   3.041  2.0550  0.4552  1.1844
  833SOL     OW 2497   2.442   2.103   0.480  0.4736  0.1202 -0.7583
  833SOL    HW1 2498   2.347   2.106   0.439  1.7114 -2.1154 -1.4622
  833SOL    HW2 2499   2.480   2.005   0.467  2.6293 -2.0871 -0.0692
  834SOL     OW 2500   0.107   0.242   0.488 -0.0397 -0.2179 -0.1477
  834SOL    HW1 2501   0.050   0.182   0.546 -4.1669  1.9769  2.3726
  834SOL    HW2 2502   0.107   0.219   0.387  0.2069  0.3402  1.1789
  835SOL     OW 2503   2.311   1.541   1.156  1.0637 -0.3274  0.4400
  835SOL    HW1 2504   2.336   1.635   1.185  0.3914  1.6687 -0.0756
  835SOL    HW2 2505   2.366   1.517   1.072 -2.3505 -2.9590  0.9240
  836SOL     OW 2506   1.631   0.842   2.601  0.3727  0.1772  0.4076
  836SOL    HW1 2507   1.531   0.817   2.630 -2.1046 -0.4468  0.0448
  836SOL    HW2 2508   1.646   0.848   2.495 -0.6709 -2.1329 -2.5163
  837SOL     OW 2509   1.618   0.095   0.567 -0.8342  0.1253  0.1838
  837SOL    HW1 2510   1.567   0.139   0.649  1.4569  2.1665 -0.3043
  837SOL    HW2 2511   1.593   0.138   0.478  1.4311 -0.0317  1.7955
  838SOL     OW 2512   1.232   1.495   2.760 -0.5455 -1.3115 -0.6272
  838SOL    HW1 2513   1.218   1.479   2.862 -0.4455  2.1354  0.6540
  838SOL    HW2 2514   1.160   1.449   2.703 -1.4556  0.4243 -2.3599
  839SOL     OW 2515   1.740   0.267   1.011 -0.3813  0.5519 -0.6824
  839SOL    HW1 2516   1.735   0.342   1.085  0.8282 -1.5994  1.1149
  839SOL    HW2 2517   1.679   0.189   1.042 -1.2816  0.2237  0.3904
  840SOL     OW 2518   2.577   2.908   1.738 -0.8427 -0.4531  0.7270
  840SOL    HW1 2519   2.563   2.866   1.641  0.1129 -0.3732 -2.1484
  840SOL    HW2 2520   2.553   2.837   1.814 -0.6804 -1.4458 -0.4704
  841SOL     OW 2521   1.573   0.875   2.949  0.4764  0.5775 -0.1536
  841SOL    HW1 2522   1.499   0.878   3.024 -0.3986 -0.3693 -0.5239
  841SOL    HW2 2523   1.560   0.947   2.869 -0.1380  3.0127  0.1760
  842SOL     OW 2524   0.827   1.513   0.922 -0.1447 -0.2376 -0.2266
  842SOL    HW1 2525   0.800   1.595   0.976  1.3361  2.2672 -1.3684
  842SOL    HW2 2526   0.750   1.450   0.900  0.1521 -0.6351 -0.4243
  843SOL     OW 2527   0.096   0.115   1.458  0.3703  0.4816  0.8707
  843SOL    HW1 2528   0.185   0.162   1.485  1.4361  1.6666 -0.3200
  843SOL    HW2 2529   0.093   0.016   1.487 -2.4712  2.0078  0.8823
  844SOL     OW 2530   0.800   2.514   0.301 -0.1183  0.2374  0.2876
  844SOL    HW1 2531   0.739   2.490   0.383 -1.0377 -1.0287  1.4495
  844SOL    HW2 2532   0.756   2.559   0.214  1.3859 -0.0682 -1.9377
  845SOL     OW 2533   1.612   2.883   1.368  0.6072 -0.1942  0.6589
  845SOL    HW1 2534   1.665   2.863   1.453 -0.0821 -0.1027 -0.8101
  845SOL    HW2 2535   1.528   2.940   1.386  0.4085 -0.5313 -1.5199
  846SOL     OW 2536   1.548   2.962   0.829  0.4131  0.4792  0.4955
  846SOL    HW1 2537   1.508   2.958   0.733  0.9619 -1.9061 -0.1802
  846SOL    HW2 2538   1.654   2.971   0.837  3.5236  0.1568  0.4066
  847SOL     OW 2539   2.017   1.633   0.271  0.0122  0.3382 -0.3590
  847SOL    HW1 2540   1.974   1.573   0.344 -0.0626  1.5435  1.0937
  847SOL    HW2 2541   1.953   1.644   0.197  2.6222  0.0831  0.1802
  848SOL     OW 2542   2.516   0.779   2.634 -0.1952 -0.4747  0.2877
  848SOL    HW1 2543   2.491   0.879   2.635  1.3494 -3.2930  1.0529
  848SOL    HW2 2544   2.448   0.729   2.566  0.1873 -1.1862 -0.2193
  849SOL     OW 2545   2.556   0.841   2.340 -0.3510  0.0273 -0.4400
  849SOL    HW1 2546   2.644   0.836   2.288 -0.0944 -0.6389  0.5471
  849SOL    HW2 2547   2.543   0.766   2.413 -1.8694 -1.8532 -0.9859
  850SOL     OW 2548   1.526   0.131   1.347 -0.5926  0.1380 -0.2178
  850SOL    HW1 2549   1.554   0.108   1.251 -0.5801 -0.3403  1.7785
  850SOL    HW2 2550   1.487   0.049   1.391 -1.4084  1.5975  3.7782
  851SOL     OW 2551   0.469   1.754   0.613  0.4118 -0.2204  0.0867
  851SOL    HW1 2552   0.484   1.856   0.623 -1.1532  1.9701 -1.9373
  851SOL    HW2 2553   0.556   1.703   0.582  1.6252 -0.8256  1.3811
  852SOL     OW 2554   0.781   2.179   1.670  0.4372  0.0674 -0.1319
  852SOL    HW1 2555   0.771   2.260   1.613  0.4338  2.3889  2.3959
  852SOL    HW2 2556   0.702   2.168   1.737 -1.9456 -0.3394 -0.7084
  853SOL     OW 2557   2.505   1.563   2.597 -0.3416 -0.1681 -0.0686
  853SOL    HW1 2558   2.492   1.463   2.569  0.5023  1.9929  0.6765
  853SOL    HW2 2559   2.528   1.621   2.516 -1.5225  2.7768  1.2293
  854SOL     OW 2560   2.498   1.376   1.713  1.0211 -0.6579  0.5067
  854SOL    HW1 2561   2.522   1.345   1.614 -0.3493  1.3674  0.7044
  854SOL    HW2 2562   2.433   1.306   1.755  1.3718 -2.9290  0.6291
  855SOL     OW 2563   2.109   2.360   0.965 -0.0534 -0.0037 -0.5262
  855SOL    HW1 2564   2.135   2.446   0.907 -0.2844 -0.7671 -2.1051
  855SOL    HW2 2565   2.159   2.348   1.058  0.1533  0.0403  1.9257
  856SOL     OW 2566   1.373   1.508   0.856 -0.3484 -0.6092 -0.4398
  856SOL    HW1 2567   1.455   1.568   0.891  3.3888  0.8665  0.5918
  856SOL    HW2 2568   1.283   1.551   0.864  1.4520  2.0456  2.8585
  857SOL     OW 2569   3.012   2.650   1.045 -1.2441 -0.1785 -0.3926
  857SOL    HW1 2570   2.923   2.598   1.077 -2.0942 -1.6254  1.7375
  857SOL    HW2 2571   3.056   2.601   0.967 -1.5576  1.0598 -1.8491
  858SOL     OW 2572   2.299   2.022   1.736 -0.9422  0.3290 -0.7026
  858SOL    HW1 2573   2.211   2.062   1.700 -0.6392 -0.4691  1.5461
  858SOL    HW2 2574   2.347   1.957   1.674  3.1176  1.4917 -1.5917
  859SOL     OW 2575   2.482   0.546   1.035 -0.5401 -0.0505 -0.2272
  859SOL    HW1 2576   2.545   0.585   0.963 -1.4646  1.4586 -0.9843
  859SOL    HW2 2577   2.516   0.457   1.079 -0.9213 -2.6356  2.4590
  860SOL     OW 2578   1.920   2.811   0.420  0.2128  0.3287  0.1131
  860SOL    HW1 2579   1.899   2.765   0.331  4.1454  0.8235 -0.7503
  860SOL    HW2 2580   2.021   2.841   0.421 -2.8506 -0.2516 -0.9660
  861SOL     OW 2581   1.063   2.525   2.819 -0.2243  0.4523  0.4334
  861SOL    HW1 2582   1.129   2.604   2.805  2.0599  1.7640 -1.3744
  861SOL    HW2 2583   1.072   2.476   2.910  0.7143 -0.0953  1.9636
  862SOL     OW 2584   2.857   2.529   1.610 -0.2032  0.0091 -0.1552
  862SOL    HW1 2585   2.942   2.576   1.640 -2.6152  1.9085 -0.7858
  862SOL    HW2 2586   2.797   2.603   1.566  0.0590  0.9808 -1.2874
  863SOL     OW 2587   1.839   2.707   0.193  0.0951 -0.0994  0.0473
  863SOL    HW1 2588   1.902   2.628   0.191 -2.6295 -0.2255 -0.2236
  863SOL    HW2 2589   1.740   2.678   0.218 -2.1034  2.2909 -2.3745
  864SOL     OW 2590   1.900   1.176   2.851 -0.3674  0.2548  0.2520
  864SOL    HW1 2591   1.899   1.101   2.780 -1.3774 -2.6296  1.9946
  864SOL    HW2 2592   1.979   1.171   2.915 -0.5727 -0.9697  0.8640
  865SOL     OW 2593   2.236   1.850   0.593 -0.5200 -0.3976  0.1304
  865SOL    HW1 2594   2.305   1.829   0.667  0.4950 -0.5329 -0.3287
  865SOL    HW2 2595   2.154   1.790   0.600 -3.0843  0.2728  0.0179
  866SOL     OW 2596   2.989   2.934   1.020 -0.1005 -0.3157 -0.6026
  866SOL    HW1 2597   3.018   2.973   0.925 -3.3821 -1.6879 -2.6459
  866SOL    HW2 2598   3.004   2.833   1.023 -0.2767  0.6362 -2.8480
  867SOL     OW 2599   0.360   1.379   0.906  0.6810 -0.1241 -0.3259
  867SOL    HW1 2600   0.329   1.308   0.836 -1.5990 -2.2197 -1.1130
  867SOL    HW2 2601   0.301   1.465   0.906  1.4900 -1.9554  1.7662
  868SOL     OW 2602   0.713   1.845   2.022  0.1991  0.6839 -0.0227
  868SOL    HW1 2603   0.690   1.829   2.123 -1.5439  1.2286 -0.3791
  868SOL    HW2 2604   0.698   1.943   1.991 -0.5202  2.8134  0.4610
  869SOL     OW 2605   2.534   1.947   1.600 -0.1081 -0.0582 -0.1701
  869SOL    HW1 2606   2.619   2.007   1.618 -0.4369  0.4920  2.6622
  869SOL    HW2 2607   2.565   1.856   1.564  1.4888 -1.5422 -1.0853
  870SOL     OW 2608   2.315   2.647   1.278  0.0520  0.2534  0.2918
  870SOL    HW1 2609   2.298   2.557   1.231 -2.3084 -0.6431  1.2663
  870SOL    HW2 2610   2.262   2.665   1.366  0.1663  0.7113 -3.5585
  871SOL     OW 2611   3.008   2.153   0.568 -0.6423 -0.4532 -0.5883
  871SOL    HW1 2612   2.997   2.243   0.615 -1.7516 -0.3124  1.9882
  871SOL    HW2 2613   2.932   2.122   0.505  0.4985 -1.8922 -0.3941
  872SOL     OW 2614   2.112   0.474   1.694  0.1332 -0.2323 -0.1428
  872SOL    HW1 2615   2.095   0.494   1.797  1.4669  0.6721  0.8509
  872SOL    HW2 2616   2.208   0.434   1.671 -1.0047  1.4132 -2.6754
  873SOL     OW 2617   1.709   2.108   3.045  0.1879 -0.1607 -0.1191
  873SOL    HW1 2618   1.642   2.105   3.122  0.4981 -1.2464  0.8875
  873SOL    HW2 2619   1.666   2.101   2.952 -0.9395  0.4733  0.7975
  874SOL     OW 2620   0.672   2.432   0.786  0.4860 -0.0005  0.3015
  874SOL    HW1 2621   0.662   2.525   0.836 -1.8908  0.5645  1.7172
  874SOL    HW2 2622   0.769   2.408   0.782 -0.6304  1.4525  1.9817
  875SOL     OW 2623   2.271   1.565   1.427 -0.0661 -0.5397  0.4944
  875SOL    HW1 2624   2.359   1.594   1.473 -3.4981 -2.6825 -0.1597
  875SOL    HW2 2625   2.287   1.534   1.330 -0.3423  2.1376 -1.6127
  876SOL     OW 2626   0.074   2.240   2.750 -0.7478  0.3825 -0.0983
  876SOL    HW1 2627   0.147   2.178   2.785  0.5859 -1.2697 -0.9758
  876SOL    HW2 2628   0.103   2.343   2.764  3.8127  3.8260 -2.1649
  877SOL     OW 2629   2.890   2.684   0.578 -0.0875  0.9408 -0.4191
  877SOL    HW1 2630   2.865   2.777   0.618 -2.5738  1.7039 -0.1534
  877SOL    HW2 2631   2.943   2.623   0.647 -0.4997  1.2036  0.2050
  878SOL     OW 2632   2.833   1.528   2.194 -0.3542  0.3209 -0.5216
  878SOL    HW1 2633   2.920   1.478   2.222 -0.6243 -0.6872  2.1146
  878SOL    HW2 2634   2.798   1.586   2.272 -1.4923  1.1577 -0.0032
  879SOL     OW 2635   2.356   0.068   1.155  0.0417  0.0126 -0.1496
  879SOL    HW1 2636   2.432  -0.004   1.170  0.2158  1.9692 -1.8707
  879SOL    HW2 2637   2.272   0.033   1.107  1.3794  0.0154 -1.0242
  880SOL     OW 2638   0.717   0.484   2.253 -0.3761  0.2551 -0.7423
  880SOL    HW1 2639   0.666   0.428   2.322 -0.5547  2.1656  0.5191
  880SOL    HW2 2640   0.765   0.432   2.179  0.2095 -0.3123  1.7011
  881SOL     OW 2641   0.871   0.065   0.470  0.3519 -0.2662 -0.1743
  881SOL    HW1 2642   0.913  -0.027   0.497  2.5696 -0.1613  2.3218
  881SOL    HW2 2643   0.793   0.058   0.408  1.1186  3.9256 -0.3348
  882SOL     OW 2644   2.718   1.724   1.666 -0.0899 -0.2627 -0.4224
  882SOL    HW1 2645   2.819   1.728   1.659  2.4337  2.1952  0.7601
  882SOL    HW2 2646   2.693   1.691   1.759  1.8499  0.5016 -0.7808
  883SOL     OW 2647   0.870   0.590   0.981  0.2667  0.7077  0.1476
  883SOL    HW1 2648   0.892   0.679   1.029  0.8277 -1.4870 -2.2940
  883SOL    HW2 2649   0.890   0.507   1.037  0.2490  0.1517 -1.4615
  884SOL     OW 2650   1.198   1.787   1.175 -0.9385  0.0394 -0.3841
  884SOL    HW1 2651   1.169   1.693   1.137  2.5243  1.3640  2.6272
  884SOL    HW2 2652   1.136   1.865   1.147 -0.6412  1.4307 -0.8982
  885SOL     OW 2653   2.362   1.802   2.294  0.1655  0.1617 -0.1487
  885SOL    HW1 2654   2.283   1.753   2.335 -0.3640  0.5403 -0.3883
  885SOL    HW2 2655   2.356   1.904   2.270  2.7531 -0.0630 -1.4187
  886SOL     OW 2656   2.608   0.414   1.788 -0.8402 -0.3602  0.0836
  886SOL    HW1 2657   2.659   0.365   1.865  1.2041 -0.0996 -2.2053
  886SOL    HW2 2658   2.660   0.500   1.755 -0.3098  0.6623  1.0647
  887SOL     OW 2659   0.102   2.043   1.300 -0.1036 -0.1231 -0.7107
  887SOL    HW1 2660   0.025   2.007   1.245  0.7148 -0.2365  0.0841
  887SOL    HW2 2661   0.136   2.139   1.282  0.3557 -1.2431 -0.9358
  888SOL     OW 2662   0.572   1.270   1.536  0.3546  0.5272  0.1832
  888SOL    HW1 2663   0.606   1.293   1.437  1.4524 -0.5852 -0.8386
  888SOL    HW2 2664   0.532   1.176   1.544 -2.3781 -0.2382 -1.9192
  889SOL     OW 2665   0.799   2.484   2.150 -0.2234  0.2791  0.1371
  889SOL    HW1 2666   0.745   2.397   2.170 -2.1614  1.7713  3.9191
  889SOL    HW2 2667   0.874   2.479   2.075  1.5401  0.7977 -3.3329
  890SOL     OW 2668   2.418   2.455   0.206 -0.1068  0.2361  0.2216
  890SOL    HW1 2669   2.459   2.521   0.137  0.5464  1.3329  2.7385
  890SOL    HW2 2670   2.371   2.503   0.288  0.1698 -3.4445  1.3924
  891SOL     OW 2671   2.580   1.683   0.723  0.9686 -0.1163  0.5409
  891SOL    HW1 2672   2.584   1.707   0.824  1.5708  0.8750  3.0311
  891SOL    HW2 2673   2.517   1.601   0.716 -1.0743 -0.3294  4.5553
  892SOL     OW 2674   0.379   0.283   2.156  0.1316 -0.8371 -0.5689
  892SOL    HW1 2675   0.359   0.366   2.098 -2.2635 -0.5658 -1.2025
  892SOL    HW2 2676   0.441   0.303   2.240 -1.3265  0.2597  2.8001
  893SOL     OW 2677   1.680   0.275   2.748  0.3055 -0.0402 -0.3214
  893SOL    HW1 2678   1.749   0.354   2.760 -1.4340 -0.0668  2.1958
  893SOL    HW2 2679   1.583   0.310   2.754 -0.4295  0.6468  2.1534
  894SOL     OW 2680   2.154   2.005   3.072  0.6364 -0.3461 -0.0786
  894SOL    HW1 2681   2.129   1.942   2.996 -1.6497 -1.8365  0.9131
  894SOL    HW2 2682   2.196   1.945   3.152 -1.0240 -2.9368  0.9695
  895SOL     OW 2683   2.824   1.423   0.936  0.6190 -0.2495 -0.2691
  895SOL    HW1 2684   2.903   1.358   0.923 -1.2268  1.4639  3.5287
  895SOL    HW2 2685   2.843   1.520   0.899  0.1070  1.4830 -1.0377
  896SOL     OW 2686   1.798   1.816   1.211  0.6649  0.1547 -0.4324
  896SOL    HW1 2687   1.811   1.754   1.131 -0.6291 -0.5570  1.0455
  896SOL    HW2 2688   1.738   1.899   1.194  2.2825 -0.7024  0.0958
  897SOL     OW 2689   0.329   0.590   0.042 -0.0228  0.1991  0.4361
  897SOL    HW1 2690   0.272   0.618  -0.040 -2.6796  0.2728 -1.1607
  897SOL    HW2 2691   0.432   0.588   0.035  0.2778 -2.2347  1.1260
  898SOL     OW 2692   0.584   2.895   1.107  0.1592  0.0166  0.1269
  898SOL    HW1 2693   0.534   2.985   1.125 -1.2899 -1.3500  0.4189
  898SOL    HW2 2694   0.645   2.863   1.187  0.1670 -0.6198  3.5707
  899SOL     OW 2695   2.791   0.905   1.274 -0.2456 -0.5013 -0.1762
  899SOL    HW1 2696   2.724   0.900   1.192  1.7090  0.2214 -1.9747
  899SOL    HW2 2697   2.891   0.921   1.249 -0.8995  3.4424 -1.0192
  900SOL     OW 2698   1.040   2.566   2.384  0.1628 -0.1439 -0.3102
  900SOL    HW1 2699   0.973   2.554   2.310  1.8540  2.9086  0.8201
  900SOL    HW2 2700   0.994   2.573   2.478  1.1414  2.3060  0.9942
  901SOL     OW 2701   1.926   2.345   1.332 -0.5690  0.2013 -0.1459
  901SOL    HW1 2702   1.891   2.326   1.239  0.0652 -1.4665 -0.8213
  901SOL    HW2 2703   2.024   2.322   1.344 -1.0935  2.8257  1.3673
  902SOL     OW 2704   2.570   1.646   1.435 -0.5937 -0.0493  0.1397
  902SOL    HW1 2705   2.626   1.662   1.526  0.1885 -0.5009 -0.5899
  902SOL    HW2 2706   2.632   1.645   1.349 -0.3176  1.8901  0.0715
  903SOL     OW 2707   0.269   2.490   1.970  0.4391 -0.4411  0.5635
  903SOL    HW1 2708   0.176   2.453   1.935  0.7752  0.8457  2.6183
  903SOL    HW2 2709   0.314   2.566   1.908 -1.2669 -0.1631 -1.3842
  904SOL     OW 2710   2.077   0.793   2.503  0.1089  0.0708  0.0878
  904SOL    HW1 2711   2.013   0.739   2.569 -1.5768 -2.1397  1.2133
  904SOL    HW2 2712   2.043   0.783   2.405 -0.7957 -0.2292  1.9597
  905SOL     OW 2713   2.802   0.076   2.563 -0.7932 -0.1963  0.1311
  905SOL    HW1 2714   2.870   0.005   2.525 -0.1502  1.2693  0.9014
  905SOL    HW2 2715   2.846   0.171   2.556 -1.0919  0.8958 -0.4042
  906SOL     OW 2716   0.150   1.733   1.903  0.2845  0.5884 -0.6520
  906SOL    HW1 2717   0.108   1.730   1.808 -1.2109  1.1735  0.4921
  906SOL    HW2 2718   0.237   1.792   1.918  0.9197  0.9020  2.1974
  907SOL     OW 2719   0.177   2.439   1.002 -0.8004  0.0102  0.0841
  907SOL    HW1 2720   0.280   2.424   0.988 -0.0176 -2.9781 -1.4063
  907SOL    HW2 2721   0.133   2.365   1.059 -0.8183 -4.3521  0.5756
  908SOL     OW 2722   2.718   2.984   0.376 -0.5454 -0.6766 -0.2277
  908SOL    HW1 2723   2.686   3.054   0.306  0.7729  0.5213 -0.9975
  908SOL    HW2 2724   2.765   2.905   0.330  0.0705  3.1309 -0.3787
  909SOL     OW 2725   0.769   1.026   2.643 -0.4142  0.2191  0.1682
  909SOL    HW1 2726   0.716   0.936   2.625 -0.7522 -2.5255  1.1249
  909SOL    HW2 2727   0.838   1.042   2.569  1.4178 -0.1482  0.1816
  910SOL     OW 2728   1.702   1.858   2.149 -0.1705 -0.3382  0.4294
  910SOL    HW1 2729   1.733   1.902   2.057 -0.6592  1.5525 -2.0301
  910SOL    HW2 2730   1.628   1.909   2.201  0.1155  0.9140 -2.1950
  911SOL     OW 2731   1.816   2.910   1.564  0.1515 -0.4588  0.0895
  911SOL    HW1 2732   1.873   2.860   1.492  0.2711  1.3615 -1.1253
  911SOL    HW2 2733   1.820   2.864   1.655  2.5071  1.0421 -1.5868
  912SOL     OW 2734   2.875   0.975   0.717  0.3670 -0.4249 -0.0193
  912SOL    HW1 2735   2.890   0.948   0.818  0.0997  1.9448  0.5254
  912SOL    HW2 2736   2.848   1.074   0.719  3.0671  0.0623  0.9568
  913SOL     OW 2737   2.584   1.292   1.464 -0.4839  0.4591 -0.1595
  913SOL    HW1 2738   2.611   1.192   1.466 -0.2953  1.4975  1.6490
  913SOL    HW2 2739   2.646   1.343   1.395  0.0090 -1.8003  0.5418
  914SOL     OW 2740   2.902   0.559   1.218  0.1296 -0.1013 -0.1063
  914SOL    HW1 2741   2.905   0.458   1.216  4.6801  1.7605 -3.5895
  914SOL    HW2 2742   2.858   0.599   1.304  1.5048  1.6503  1.2516
  915SOL     OW 2743   1.206   0.776   1.086  0.3255 -0.2190 -0.3303
  915SOL    HW1 2744   1.249   0.843   1.156  3.4483 -0.9093  0.8529
  915SOL    HW2 2745   1.103   0.755   1.100  2.9284 -1.2037 -0.1289
  916SOL     OW 2746   0.598   0.024   0.667  0.2927 -0.0974  0.0943
  916SOL    HW1 2747   0.638   0.110   0.713  1.6434 -0.8197 -0.5013
  916SOL    HW2 2748   0.581   0.033   0.566 -1.7956  1.6943  2.4295
  917SOL     OW 2749   2.832   2.615   1.947  0.2689  0.0707 -0.3489
  917SOL    HW1 2750   2.740   2.623   1.901  1.5852 -1.0667  2.5401
  917SOL    HW2 2751   2.895   2.694   1.925 -0.5763  0.5930  2.1131
  918SOL     OW 2752   1.050   2.188   2.991  0.0930  0.2377 -0.4844
  918SOL    HW1 2753   1.000   2.224   3.072 -1.2913  2.1411 -1.4415
  918SOL    HW2 2754   1.105   2.105   3.010 -0.2950 -1.5857 -2.2552
  919SOL     OW 2755   0.847   1.678   2.808  0.2465  0.0738 -0.4957
  919SOL    HW1 2756   0.881   1.755   2.746 -1.3507 -2.2781 -3.4382
  919SOL    HW2 2757   0.835   1.590   2.750 -0.7455  0.3718 -0.1998
  920SOL     OW 2758   1.222   1.893   2.431  0.4062 -0.3329 -0.0335
  920SOL    HW1 2759   1.297   1.889   2.363  1.6944  0.1665 -0.6850
  920SOL    HW2 2760   1.230   1.814   2.500 -2.4013 -1.2974  1.1746
  921SOL     OW 2761   1.025   0.020   2.629  0.2157 -0.1753 -0.3447
  921SOL    HW1 2762   1.052   0.033   2.525  2.2443  1.8283 -0.0996
  921SOL    HW2 2763   0.932  -0.026   2.636 -0.4301 -1.6954 -2.3330
  922SOL     OW 2764   2.153   2.383   2.775 -0.4631  0.0466 -0.6059
  922SOL    HW1 2765   2.173   2.283   2.784 -1.9869  2.0153  0.1229
  922SOL    HW2 2766   2.115   2.410   2.681  0.2690 -1.0465  2.7543
  923SOL     OW 2767   1.240   2.657   0.256  0.1230 -0.1720  0.1736
  923SOL    HW1 2768   1.310   2.723   0.291 -2.9111  0.6967 -0.8698
  923SOL    HW2 2769   1.262   2.558   0.266  0.9685  1.7131  0.3106
  924SOL     OW 2770   2.904   1.502   0.137  0.4109  0.0400 -0.4374
  924SOL    HW1 2771   2.829   1.492   0.065  1.8184 -2.8489 -0.2667
  924SOL    HW2 2772   2.998   1.494   0.099 -1.0704  1.5828 -0.1147
  925SOL     OW 2773   0.043   2.943   1.552  0.4113 -0.1888 -0.1786
  925SOL    HW1 2774  -0.042   2.939   1.614 -1.7921 -2.9895 -1.9216
  925SOL    HW2 2775   0.038   2.873   1.472 -2.9722  4.3326 -2.1031
  926SOL     OW 2776   1.303   2.834   1.217  0.1489  0.1725 -0.3724
  926SOL    HW1 2777   1.383   2.807   1.155 -1.1331  0.7913 -0.6547
  926SOL    HW2 2778   1.323   2.903   1.290  0.0658 -1.4237 -0.5999
  927SOL     OW 2779   0.345   2.666   1.757  0.3447  0.3696 -0.5853
  927SOL    HW1 2780   0.296   2.610   1.682  0.7381  0.6305 -3.3184
  927SOL    HW2 2781   0.302   2.761   1.768  0.0083 -2.0127  1.7491
  928SOL     OW 2782   1.537   2.075   2.266  0.0916  0.1227 -0.3511
  928SOL    HW1 2783   1.551   2.166   2.213  1.5780  3.1930 -2.0709
  928SOL    HW2 2784   1.439   2.049   2.265  1.6373 -3.0355  0.4871
  929SOL     OW 2785   2.418   2.483   2.875  0.9745 -0.1830  0.1178
  929SOL    HW1 2786   2.318   2.459   2.846 -0.0974 -3.1335 -0.0899
  929SOL    HW2 2787   2.483   2.505   2.798  2.2101 -0.5131  1.4555
  930SOL     OW 2788   2.184   1.971   1.073  0.3474 -0.1923 -0.0047
  930SOL    HW1 2789   2.166   1.935   1.173 -0.8789 -0.0390  1.5142
  930SOL    HW2 2790   2.224   2.065   1.073 -0.6243  0.7560 -0.2010
  931SOL     OW 2791   0.561   1.710   2.707 -0.2515  0.3491 -0.2272
  931SOL    HW1 2792   0.580   1.722   2.811  1.5526 -2.3932 -2.0711
  931SOL    HW2 2793   0.637   1.658   2.653 -0.5142 -0.1633  0.7109
  932SOL     OW 2794   0.437   0.104   2.946 -0.1175  0.2062  0.1203
  932SOL    HW1 2795   0.526   0.149   2.920  0.0472 -2.8040 -0.0356
  932SOL    HW2 2796   0.446   0.040   3.027  1.8305 -0.9537  5.0762
  933SOL     OW 2797   1.025   0.788   3.044  0.6572 -0.7323 -0.4058
  933SOL    HW1 2798   0.994   0.782   3.143  2.2591 -2.2302  0.5103
  933SOL    HW2 2799   0.983   0.864   2.990  0.0026 -1.4613  2.3528
  934SOL     OW 2800   0.792   2.938   2.641  0.5612 -0.8087  0.2951
  934SOL    HW1 2801   0.794   2.888   2.548 -1.3167  2.0490  1.6306
  934SOL    HW2 2802   0.867   2.900   2.706  0.6279  0.6223  0.5714
  935SOL     OW 2803   3.093   0.564   0.842 -0.0655 -0.2292  0.3336
  935SOL    HW1 2804   3.078   0.520   0.748  1.7752  3.4292 -0.1258
  935SOL    HW2 2805   3.003   0.601   0.891 -1.7962  0.0119  0.6468
  936SOL     OW 2806   1.100   2.838   0.087  0.3688  0.4730  0.2215
  936SOL    HW1 2807   1.156   2.884   0.005  0.0898  1.1288 -1.5974
  936SOL    HW2 2808   1.165   2.778   0.142 -0.2953 -0.5287 -4.1449
  937SOL     OW 2809   1.959   2.625   2.076  0.0090  0.2732  0.4447
  937SOL    HW1 2810   1.931   2.681   2.159  2.0394  1.4419 -0.5985
  937SOL    HW2 2811   2.000   2.682   2.003  0.2696  1.8787 -2.4554
  938SOL     OW 2812   2.788   2.080   1.548 -0.4664 -0.3860 -0.4404
  938SOL    HW1 2813   2.748   2.172   1.532  0.0459 -1.4051 -1.8743
  938SOL    HW2 2814   2.881   2.078   1.596  2.4250  1.2302 -0.2608
  939SOL     OW 2815   2.801   1.205   2.516 -0.3430  0.1915 -0.1148
  939SOL    HW1 2816   2.855   1.144   2.452  0.5420  2.2545 -0.0131
  939SOL    HW2 2817   2.829   1.178   2.615  1.1529 -0.2585 -1.8955
  940SOL     OW 2818   1.033   0.436   2.723 -0.0028  0.8549  0.2504
  940SOL    HW1 2819   1.086   0.344   2.733  3.7361 -1.5263 -0.7590
  940SOL    HW2 2820   0.936   0.412   2.691 -3.1100 -1.4181  1.2952
  941SOL     OW 2821   0.051   2.800   2.258  0.3010  0.2838  0.4582
  941SOL    HW1 2822   0.095   2.706   2.255 -2.0103  4.6032 -0.0332
  941SOL    HW2 2823   0.104   2.858   2.317 -0.0231 -1.9549 -0.5792
  942SOL     OW 2824   0.096   0.086   2.477 -0.4507 -1.0810 -0.4084
  942SOL    HW1 2825   0.127   0.133   2.569 -0.6474  0.0647  1.6059
  942SOL    HW2 2826   0.073   0.159   2.403 -0.0644  1.5074 -1.4970
  943SOL     OW 2827   2.120   1.722   2.393  0.2919  0.5726  0.4371
  943SOL    HW1 2828   2.102   1.652   2.318 -0.1849  1.2015 -1.1761
  943SOL    HW2 2829   2.099   1.684   2.492  0.3402 -2.8602  3.2958
  944SOL     OW 2830   2.177   2.346   1.471  0.2987  0.0308  0.1820
  944SOL    HW1 2831   2.253   2.404   1.516  0.0631  2.6057  1.2040
  944SOL    HW2 2832   2.145   2.277   1.545 -1.2204 -0.9196 -0.8432
  945SOL     OW 2833   0.707   1.505   0.262  0.3048 -0.2770  0.0836
  945SOL    HW1 2834   0.647   1.530   0.178 -4.0888  0.6349  0.1811
  945SOL    HW2 2835   0.732   1.401   0.257 -0.7996 -1.5116  1.1132
  946SOL     OW 2836   0.400   0.950   2.443 -0.0065 -0.1068  0.0450
  946SOL    HW1 2837   0.312   0.898   2.404  0.2986 -0.6581  1.4404
  946SOL    HW2 2838   0.373   1.031   2.503  2.1561 -0.7948  0.2032
  947SOL     OW 2839   1.533   0.445   3.095  0.6781  0.1810  0.2762
  947SOL    HW1 2840   1.502   0.517   3.027  2.2930 -0.5119  1.7365
  947SOL    HW2 2841   1.446   0.398   3.128 -4.7053  0.1841  0.2349
  948SOL     OW 2842   1.928   3.049   2.157  0.7248 -0.1480 -0.8266
  948SOL    HW1 2843   1.928   2.988   2.075  0.0734  2.7882  0.5243
  948SOL    HW2 2844   1.915   2.986   2.240  0.3974  0.4616  0.5801
  949SOL     OW 2845   0.542   2.487   0.534  0.2825  0.0274  0.0964
  949SOL    HW1 2846   0.594   2.565   0.492 -1.2477  0.0204 -0.8341
  949SOL    HW2 2847   0.593   2.457   0.616 -1.1160 -1.1622 -0.3118
  950SOL     OW 2848   0.197   2.201   3.025  0.6813  0.0903  0.0472
  950SOL    HW1 2849   0.113   2.253   2.996  0.2787 -1.0355  0.1523
  950SOL    HW2 2850   0.207   2.107   2.975  0.2550 -1.3372 -0.7000
  951SOL     OW 2851   1.257   2.715   2.740 -0.2733  0.1465  0.0540
  951SOL    HW1 2852   1.342   2.683   2.687 -1.7697  3.4821 -0.1890
  951SOL    HW2 2853   1.205   2.785   2.687 -3.2684  0.7273  1.7914
  952SOL     OW 2854   0.016   1.734   0.405 -0.2912  0.1172  0.2055
  952SOL    HW1 2855   0.088   1.806   0.403  2.0212  1.9887  1.3778
  952SOL    HW2 2856   0.017   1.660   0.483 -0.2027 -3.9148  1.5263
  953SOL     OW 2857   2.485   1.749   0.269 -0.2956  0.3683 -0.2591
  953SOL    HW1 2858   2.500   1.647   0.280 -0.4197 -0.3832 -0.4659
  953SOL    HW2 2859   2.499   1.776   0.168 -1.1521 -0.2074  2.4235
  954SOL     OW 2860   2.217   0.559   0.966 -0.5257 -0.1688  0.2490
  954SOL    HW1 2861   2.198   0.584   0.865 -0.9932 -0.4175 -1.3844
  954SOL    HW2 2862   2.317   0.524   0.980  0.9203 -0.4107 -0.2565
  955SOL     OW 2863   0.186   2.614   1.277 -0.0677  0.5542 -0.1324
  955SOL    HW1 2864   0.091   2.664   1.291  1.0585  0.8740  1.3728
  955SOL    HW2 2865   0.231   2.649   1.193  0.4715 -0.7860 -2.8271
  956SOL     OW 2866   2.772   2.437   2.447 -0.1471 -0.7040 -0.3364
  956SOL    HW1 2867   2.765   2.336   2.435 -2.8610  2.6556  2.1762
  956SOL    HW2 2868   2.795   2.483   2.357  0.3096  0.3485 -1.6110
  957SOL     OW 2869   1.587   2.076   2.809  0.1217 -0.0516 -0.6810
  957SOL    HW1 2870   1.545   1.992   2.761 -2.7571  0.9079 -0.2300
  957SOL    HW2 2871   1.644   2.134   2.742  1.6913 -1.5674  0.4643
  958SOL     OW 2872   2.639   2.283   3.014  0.2746  0.6711 -0.4429
  958SOL    HW1 2873   2.550   2.326   2.987 -0.2689  0.1791  0.1305
  958SOL    HW2 2874   2.633   2.217   3.092 -0.6120  3.0278 -0.4949
  959SOL     OW 2875   0.270   2.819   0.089  0.3061 -0.3341 -0.2658
  959SOL    HW1 2876   0.188   2.793   0.028 -1.1313  1.3484 -1.2174
  959SOL    HW2 2877   0.290   2.743   0.157  0.0214  0.6276 -1.1796
  960SOL     OW 2878   2.020   0.465   1.959 -0.5096 -0.5333  0.4417
  960SOL    HW1 2879   1.966   0.540   1.913 -2.3411  0.0135  1.4756
  960SOL    HW2 2880   2.002   0.461   2.059 -0.1341  0.6949 -2.3998
  961SOL     OW 2881   2.581   1.805   0.984 -0.3369  0.0675 -0.3557
  961SOL    HW1 2882   2.566   1.902   0.937  1.1507 -0.9950 -0.5887
  961SOL    HW2 2883   2.542   1.795   1.080  2.6580  0.0386 -0.3296
  962SOL     OW 2884   1.340   0.884   0.086 -0.4233 -0.0670 -0.0460
  962SOL    HW1 2885   1.259   0.867   0.024 -1.5408  0.3830 -2.9385
  962SOL    HW2 2886   1.328   0.955   0.162  1.9950  0.0251  1.7032
  963SOL     OW 2887   2.199   2.570   1.867 -0.4227  0.0913 -0.1598
  963SOL    HW1 2888   2.186   2.472   1.886  1.3536 -0.7978 -1.0403
  963SOL    HW2 2889   2.218   2.628   1.951  2.1635 -2.9325 -1.0865
  964SOL     OW 2890   2.368   0.345   1.669  0.3108  0.3267 -0.6181
  964SOL    HW1 2891   2.447   0.385   1.720 -0.9455 -1.0407  1.3679
  964SOL    HW2 2892   2.379   0.346   1.568  0.4144  2.5075 -0.2717
  965SOL     OW 2893   2.636   3.061   0.113 -0.2665 -0.3248 -0.3197
  965SOL    HW1 2894   2.681   3.013   0.030  2.1320  0.6948  2.9502
  965SOL    HW2 2895   2.539   3.090   0.098  0.3641  4.0804  1.0778
  966SOL     OW 2896   2.533   2.508   2.212 -0.4038 -0.8233 -0.0852
  966SOL    HW1 2897   2.519   2.557   2.304 -1.0575  1.5262 -0.8706
  966SOL    HW2 2898   2.516   2.571   2.132 -1.7802 -0.2594  0.1037
  967SOL     OW 2899   2.794   2.803   2.494 -0.1310 -0.4532 -0.0189
  967SOL    HW1 2900   2.809   2.733   2.416 -2.1889  1.1140 -0.2837
  967SOL    HW2 2901   2.876   2.871   2.505  0.0847  0.5975  1.5956
  968SOL     OW 2902   1.914   0.986   2.623  0.4820 -0.3184 -0.5202
  968SOL    HW1 2903   1.848   1.056   2.580  2.9163  1.6468 -1.0941
  968SOL    HW2 2904   1.940   0.919   2.552  1.6354 -4.1997  0.4486
  969SOL     OW 2905   2.816   2.458   1.084 -0.3746  0.3586 -0.7584
  969SOL    HW1 2906   2.779   2.421   0.995 -0.0698  1.2650  0.7235
  969SOL    HW2 2907   2.839   2.383   1.151  1.0294  0.6832  0.0444
  970SOL     OW 2908   1.030   2.125   1.801  0.1959  0.0106 -0.8857
  970SOL    HW1 2909   0.945   2.125   1.740  0.4564 -0.0150 -2.3840
  970SOL    HW2 2910   1.021   2.159   1.899  2.6340 -1.2944 -0.7419
  971SOL     OW 2911   2.874   2.070   1.863 -0.0994  0.3155  0.0476
  971SOL    HW1 2912   2.857   2.163   1.907 -1.8734 -3.4551 -1.3349
  971SOL    HW2 2913   2.952   2.078   1.788  1.2564 -1.3432 -0.2076
  972SOL     OW 2914   2.002   2.480   0.212 -0.2148 -0.1179 -0.3463
  972SOL    HW1 2915   1.975   2.389   0.178 -0.2292 -0.3142  2.0505
  972SOL    HW2 2916   2.025   2.471   0.312  1.8198 -2.3094  1.5582
  973SOL     OW 2917   1.310   1.057   1.881 -0.5138  0.3090 -0.2342
  973SOL    HW1 2918   1.233   1.025   1.818  1.5072 -1.6327  1.0673
  973SOL    HW2 2919   1.291   1.144   1.931  0.3252 -0.8093  1.2050
  974SOL     OW 2920   1.603   0.559   1.980  0.2574 -0.0542  0.5842
  974SOL    HW1 2921   1.677   0.566   1.908 -3.1209  0.8323  0.5280
  974SOL    HW2 2922   1.522   0.623   1.962  2.2576 -2.2708  0.5991
  975SOL     OW 2923   2.369   0.006   0.071 -0.2330  0.3261  0.0259
  975SOL    HW1 2924   2.330  -0.074   0.123  0.4926  2.8047  1.2936
  975SOL    HW2 2925   2.350  -0.005  -0.028 -0.2700 -0.3660  0.1674
  976SOL     OW 2926   1.907   2.850   2.347 -0.1192  0.0187 -0.3282
  976SOL    HW1 2927   1.816   2.801   2.319 -0.4538 -1.0816 -0.5242
  976SOL    HW2 2928   1.948   2.811   2.434  1.4077 -2.5881 -4.3266
  977SOL     OW 2929   0.459   0.684   1.037  0.3543  0.1922  0.6773
  977SOL    HW1 2930   0.373   0.710   0.982  0.2451  2.6630 -0.0608
  977SOL    HW2 2931   0.545   0.655   0.976  0.6430 -1.7470  0.1746
   3.10000   3.10000   3.10000
