1000 SPC/Fw water molecules t=   1.38000 step= 1380
 2931
    1SOL     OW    1   2.506   0.308   2.654 -0.9093 -0.7333  0.0598
    1SOL    HW1    2   2.506   0.204   2.641 -0.4423  2.1912  1.1498
    1SOL    HW2    3   2.550   0.336   2.747  1.3801 -0.6250  1.4486
    2SOL     OW    4   2.750   2.988   1.381 -0.6409  0.0092  0.2810
    2SOL    HW1    5   2.850   2.982   1.346  2.8579 -0.7125 -2.5819
    2SOL    HW2    6   2.730   3.076   1.431  1.0014  1.6626 -0.8590
    3SOL     OW    7   2.647   2.576   0.426 -0.0671 -0.2690 -0.5135
    3SOL    HW1    8   2.614   2.477   0.432 -0.6534  0.9484 -0.8903
    3SOL    HW2    9   2.666   2.612   0.519 -1.2093 -1.3376 -1.2057
    4SOL     OW   10   1.234   1.498   2.418  0.2699  0.5641  0.1975
    4SOL    HW1   11   1.165   1.520   2.346  0.2707 -1.3839 -1.6652
    4SOL    HW2   12   1.264   1.396   2.412  1.4745 -1.6662 -0.4687
    5SOL     OW   13   1.172   1.556   2.898  0.1095 -0.0322 -0.3088
    5SOL    HW1   14   1.214   1.634   2.956  0.3253  1.4496 -0.3448
    5SOL    HW2   15   1.076   1.572   2.862  0.0530 -1.9963  3.2269
    6SOL     OW   16   0.263   1.832   3.011  0.3121 -0.6485 -0.4587
    6SOL    HW1   17   0.175   1.863   3.066 -0.6630 -0.3946  1.2122
    6SOL    HW2   18   0.341   1.799   3.071  0.5556  1.6476  4.3939
    7SOL     OW   19   2.494   0.901   1.054 -0.7446 -0.0346 -0.1214
    7SOL    HW1   20   2.398   0.887   1.085  0.1389  0.0605  1.6299
    7SOL    HW2   21   2.517   0.848   0.970 -0.5628 -0.9649 -0.1769
    8SOL     OW   22   0.369   0.661   1.505 -1.0353  1.2017  0.5421
    8SOL    HW1   23   0.464   0.617   1.505 -2.5969 -0.4454 -2.5299
    8SOL    HW2   24   0.361   0.727   1.429  0.5198 -0.6327  2.3011
    9SOL     OW   25   1.155   0.845   2.420 -0.3819 -0.0734 -0.2799
    9SOL    HW1   26   1.225   0.869   2.345  0.4514 -1.4237 -2.0339
    9SOL    HW2   27   1.110   0.754   2.404  0.1399  1.0870  1.3109
   10SOL     OW   28   0.681   1.372   1.304  0.3752  0.1405  0.3661
   10SOL    HW1   29   0.606   1.390   1.237 -2.2496 -1.0049  0.4847
   10SOL    HW2   30   0.729   1.457   1.329 -3.0080 -2.8700 -1.0897
   11SOL     OW   31   2.306   2.825   0.823 -0.6617  0.2609  0.1183
   11SOL    HW1   32   2.272   2.869   0.910  1.0498  0.6315 -1.3463
   11SOL    HW2   33   2.397   2.781   0.834  1.7498 -2.9252  2.5777
   12SOL     OW   34   1.498   0.872   0.430  0.7124  0.4634 -0.0867
   12SOL    HW1   35   1.415   0.924   0.402  0.2420 -0.2064  1.8371
   12SOL    HW2   36   1.523   0.795   0.362  1.4638 -0.2299  0.4719
   13SOL     OW   37   2.425   0.726   1.763  0.5345 -0.5010  0.1588
   13SOL    HW1   38   2.366   0.671   1.831  2.2672  0.2030 -1.7371
   13SOL    HW2   39   2.436   0.671   1.676 -0.2994 -1.1786  3.1473
   14SOL     OW   40   1.945   0.024   0.616  0.2472 -0.3296  0.0287
   14SOL    HW1   41   1.841   0.043   0.606  0.4329  0.8595 -2.3461
   14SOL    HW2   42   1.962  -0.051   0.685  1.0070 -0.2616 -0.7224
   15SOL     OW   43   1.902   2.103   2.640 -0.3728 -0.4541  0.7516
   15SOL    HW1   44   1.838   2.182   2.667 -2.1864 -1.3054 -1.3616
   15SOL    HW2   45   1.868   2.010   2.662 -0.4174 -0.6108 -1.0199
   16SOL     OW   46   1.598   1.714   2.991 -0.0592  0.4207  0.0824
   16SOL    HW1   47   1.595   1.617   3.026  1.0553 -0.1115 -3.2059
   16SOL    HW2   48   1.654   1.785   3.041  1.6815  0.3651  2.5708
   17SOL     OW   49   0.102   0.418   0.168 -0.5673 -0.1578 -0.3015
   17SOL    HW1   50   0.197   0.435   0.141 -1.6332  0.5203  0.1675
   17SOL    HW2   51   0.029   0.445   0.100 -1.7744  0.2727  3.2828
   18SOL     OW   52   0.916   2.986   2.160 -0.5678 -0.2847 -0.4478
   18SOL    HW1   53   0.839   2.916   2.157 -0.8009 -1.5950  1.1414
   18SOL    HW2   54   0.987   2.979   2.086 -2.0144  0.2634  2.9151
   19SOL     OW   55   0.546   0.846   1.895  0.3964 -0.1286  0.0620
   19SOL    HW1   56   0.597   0.809   1.975 -1.3822  2.0203 -0.0326
   19SOL    HW2   57   0.584   0.937   1.862 -2.0975  1.0614 -0.6361
   20SOL     OW   58   0.236   2.828   0.855  0.3194  0.3096  0.1321
   20SOL    HW1   59   0.142   2.855   0.830  2.1206 -2.8893 -1.3325
   20SOL    HW2   60   0.251   2.725   0.854  1.9867 -1.4126 -2.2924
   21SOL     OW   61   2.774   0.255   1.957  0.4760  0.0765  0.2830
   21SOL    HW1   62   2.714   0.191   1.901 -3.5347  0.4316  0.9810
   21SOL    HW2   63   2.825   0.206   2.031 -0.3249  0.7571 -1.6540
   22SOL     OW   64   2.365   0.198   0.117 -0.0122 -0.1128 -0.4672
   22SOL    HW1   65   2.392   0.107   0.087  0.1016 -0.4444  0.4302
   22SOL    HW2   66   2.299   0.253   0.062  1.3661  0.7944  3.1135
   23SOL     OW   67   2.823   0.564   0.669  0.5704  0.0302  0.1517
   23SOL    HW1   68   2.807   0.490   0.600 -0.6601 -0.4385  0.2550
   23SOL    HW2   69   2.840   0.662   0.634  0.8536  1.6490  2.5260
   24SOL     OW   70   0.226   1.871   0.445 -0.5376 -0.1809 -0.5243
   24SOL    HW1   71   0.196   1.933   0.368  1.3838  1.7956 -1.9500
   24SOL    HW2   72   0.326   1.855   0.433 -1.9174  0.1108  0.6960
   25SOL     OW   73   2.215   0.637   0.217  0.4849  0.1873 -0.1276
   25SOL    HW1   74   2.238   0.637   0.117 -0.2580 -0.2637  0.9172
   25SOL    HW2   75   2.278   0.568   0.268 -2.0214 -2.0320  1.3601
   26SOL     OW   76   2.441   2.131   2.108 -0.2327 -0.1380  0.7248
   26SOL    HW1   77   2.525   2.166   2.155 -0.7509 -1.5724  0.0265
   26SOL    HW2   78   2.464   2.072   2.025 -1.4842 -1.2739  1.5058
   27SOL     OW   79   0.611   2.966   0.241 -0.3223 -0.0785 -0.9336
   27SOL    HW1   80   0.709   2.977   0.205  1.3460 -0.4838 -1.1197
   27SOL    HW2   81   0.545   2.930   0.173 -1.1048 -0.1871  3.2648
   28SOL     OW   82   1.590   0.106   0.344  0.6966 -0.2516  0.0642
   28SOL    HW1   83   1.603   0.064   0.248 -0.4995  0.4590  0.7285
   28SOL    HW2   84   1.635   0.202   0.349  1.0442  0.9950  1.3159
   29SOL     OW   85   1.956   0.568   0.269  0.1762  0.4835  0.0670
   29SOL    HW1   86   1.931   0.625   0.351  0.2318 -1.9061  0.8017
   29SOL    HW2   87   2.046   0.597   0.225 -1.9307 -0.8705 -3.1995
   30SOL     OW   88   0.167   2.079   0.875  0.5993 -0.5486  0.2963
   30SOL    HW1   89   0.141   1.989   0.823 -3.0169  1.2713 -0.9236
   30SOL    HW2   90   0.084   2.143   0.890  1.8184  1.2882  0.8036
   31SOL     OW   91   2.174   0.082   2.416 -0.2405 -0.4329  0.0118
   31SOL    HW1   92   2.109   0.047   2.493 -0.8177  0.9603  0.4207
   31SOL    HW2   93   2.151   0.043   2.321 -3.6998  0.5171 -1.6899
   32SOL     OW   94   2.954   3.100   0.270  0.0450 -0.3052  0.1030
   32SOL    HW1   95   2.940   3.000   0.273  2.7581  0.1916 -3.2482
   32SOL    HW2   96   3.038   3.129   0.325  0.1031 -2.1916  4.5416
   33SOL     OW   97   0.871   0.242   0.626 -0.4152 -0.7729  0.5956
   33SOL    HW1   98   0.869   0.169   0.555 -1.2382 -0.8933  1.4133
   33SOL    HW2   99   0.963   0.295   0.619 -1.0124 -2.7254 -0.2008
   34SOL     OW  100   0.296   2.726   1.110  0.2479 -0.0843  0.1418
   34SOL    HW1  101   0.264   2.797   1.042 -1.0040 -0.3141  2.3576
   34SOL    HW2  102   0.397   2.732   1.136 -0.4571 -1.2025  0.2752
   35SOL     OW  103   0.016   0.116   1.871 -0.8871  0.0912  0.0450
   35SOL    HW1  104   0.047   0.019   1.882  2.4784 -0.8011 -2.1851
   35SOL    HW2  105  -0.046   0.116   1.787 -0.7910 -1.4098 -1.7673
   36SOL     OW  106   1.815   1.190   1.535 -0.6025 -0.7980 -0.2825
   36SOL    HW1  107   1.899   1.130   1.542 -0.0540  0.3465  0.3747
   36SOL    HW2  108   1.820   1.266   1.462  4.0847 -0.4894 -1.7041
   37SOL     OW  109   1.163   0.187   0.974 -0.2931 -0.4840  0.1596
   37SOL    HW1  110   1.197   0.283   0.989 -3.2876 -2.0353 -1.9262
   37SOL    HW2  111   1.241   0.124   0.939 -1.5641 -0.6404 -2.5657
   38SOL     OW  112   1.146   2.888   2.395 -0.0838  0.0394  0.8594
   38SOL    HW1  113   1.050   2.867   2.418  0.8700 -1.4527  0.4716
   38SOL    HW2  114   1.169   2.990   2.368  4.2428  0.1599  0.8583
   39SOL     OW  115   2.410   1.366   3.034  1.0218  0.1663  0.3390
   39SOL    HW1  116   2.498   1.314   3.046  2.2769  0.6003 -0.2857
   39SOL    HW2  117   2.349   1.371   3.117  0.7081  1.8026 -0.4638
   40SOL     OW  118   2.017   2.479   2.609 -0.2120  0.3903 -0.4981
   40SOL    HW1  119   1.986   2.582   2.600 -0.9536 -0.3413  1.2045
   40SOL    HW2  120   1.982   2.417   2.534  2.7588 -1.8854 -2.0785
   41SOL     OW  121   3.021   0.646   2.798 -0.5366 -0.1742  0.1592
   41SOL    HW1  122   2.957   0.722   2.794 -0.5889 -0.2847  0.2764
   41SOL    HW2  123   3.001   0.577   2.727 -2.0211  0.9993  1.5540
   42SOL     OW  124   1.755   1.771   0.541 -0.2919 -0.3960  0.2561
   42SOL    HW1  125   1.699   1.685   0.532 -2.0301  0.3542 -0.9387
   42SOL    HW2  126   1.777   1.816   0.447 -0.2274  0.1481 -0.4750
   43SOL     OW  127   0.500   1.678   1.261  0.3570 -0.4324  0.1073
   43SOL    HW1  128   0.512   1.591   1.206 -1.1254 -0.3877 -0.7283
   43SOL    HW2  129   0.414   1.676   1.323 -3.6031  2.1551  1.0212
   44SOL     OW  130   1.669   2.425   3.005 -0.2798  0.1909 -0.7017
   44SOL    HW1  131   1.583   2.477   2.992  1.3760 -0.3642 -0.5396
   44SOL    HW2  132   1.746   2.437   2.940  0.8148 -0.6342  4.0567
   45SOL     OW  133   0.369   1.912   2.564 -0.7502  0.1392 -0.5836
   45SOL    HW1  134   0.312   1.915   2.480  1.0174 -2.0937  1.2818
   45SOL    HW2  135   0.441   1.836   2.572  0.6653  0.8945  0.8624
   46SOL     OW  136   1.300   0.654   0.205  0.0695  0.4147  0.9538
   46SOL    HW1  137   1.284   0.742   0.153 -2.2231 -0.8080  0.4710
   46SOL    HW2  138   1.221   0.584   0.195 -0.7659 -3.1743  0.9842
   47SOL     OW  139   0.188   2.471   1.579 -0.0007 -0.4632 -0.6805
   47SOL    HW1  140   0.150   2.374   1.583  1.9740  1.2011  1.7281
   47SOL    HW2  141   0.229   2.503   1.491 -3.7909 -1.2855 -0.7804
   48SOL     OW  142   2.651   0.600   0.146  0.4662  0.1686 -0.0751
   48SOL    HW1  143   2.620   0.620   0.242  1.7354 -0.1342 -1.4441
   48SOL    HW2  144   2.750   0.616   0.142 -0.8205 -1.2880  1.3289
   49SOL     OW  145   0.297   0.763   1.748 -0.0586  0.1849  0.5629
   49SOL    HW1  146   0.388   0.777   1.794  0.7258 -0.6572 -2.2971
   49SOL    HW2  147   0.319   0.732   1.649  1.3625 -0.6150 -0.2348
   50SOL     OW  148   1.726   1.133   0.286  0.2303 -0.4274 -0.0911
   50SOL    HW1  149   1.767   1.038   0.265  0.0382 -2.2768  0.6313
   50SOL    HW2  150   1.678   1.136   0.377 -0.6913  0.9139  0.6004
   51SOL     OW  151   3.031   1.764   0.249  0.1445  0.1931 -0.7585
   51SOL    HW1  152   2.994   1.683   0.196  1.4940  0.3109 -1.3048
   51SOL    HW2  153   3.073   1.741   0.339  0.8093  0.6431 -0.8322
   52SOL     OW  154   0.806   2.136   0.651 -0.4993 -0.3176  0.3352
   52SOL    HW1  155   0.701   2.117   0.652 -1.6174 -1.0516 -0.5971
   52SOL    HW2  156   0.857   2.067   0.703 -1.4807 -0.0417 -2.8216
   53SOL     OW  157   0.171   0.431   1.584  0.4216 -0.1889 -0.0317
   53SOL    HW1  158   0.233   0.513   1.570 -1.0334  0.7189 -2.3181
   53SOL    HW2  159   0.079   0.440   1.531 -2.8120 -0.5776 -0.4948
   54SOL     OW  160   1.792   0.493   3.069  0.2208 -0.3333  0.2852
   54SOL    HW1  161   1.835   0.420   3.126 -0.1924  0.4010  1.7434
   54SOL    HW2  162   1.698   0.515   3.109  2.7702 -1.8093  2.0612
   55SOL     OW  163   0.763   2.898   0.701  0.8522  0.2999 -0.0896
   55SOL    HW1  164   0.724   2.994   0.715 -0.1667 -1.6060  0.0915
   55SOL    HW2  165   0.851   2.902   0.645 -1.8587  0.3466 -0.1330
   56SOL     OW  166   0.571   1.618   3.089  0.2872  0.3227 -0.6932
   56SOL    HW1  167   0.497   1.643   3.159  1.0095 -0.3558 -2.2265
   56SOL    HW2  168   0.552   1.530   3.038 -1.5933  1.6268 -0.0303
   57SOL     OW  169   1.775   2.497   2.415  0.3743 -0.0088 -0.0424
   57SOL    HW1  170   1.831   2.415   2.401  1.1661  0.3630  1.7864
   57SOL    HW2  171   1.673   2.476   2.428 -2.2435 -0.8702  0.3863
   58SOL     OW  172   0.656   0.272   1.128  0.2132 -0.1840 -0.0475
   58SOL    HW1  173   0.580   0.269   1.202 -0.1815  1.5878 -0.6378
   58SOL    HW2  174   0.699   0.179   1.107  3.5690  0.1548 -0.7669
   59SOL     OW  175   0.434   2.411   2.728  0.2013  0.3577  0.0695
   59SOL    HW1  176   0.449   2.312   2.706  1.5821 -1.9966 -2.1206
   59SOL    HW2  177   0.509   2.452   2.786  1.7056 -1.7944 -2.9194
   60SOL     OW  178   2.293   2.127   2.342  0.4750  0.0089 -0.0373
   60SOL    HW1  179   2.365   2.131   2.271 -0.2996 -0.7450  1.7144
   60SOL    HW2  180   2.318   2.174   2.430 -0.2145 -2.0659 -0.2369
   61SOL     OW  181   1.226   0.643   0.483  0.1677  0.3103  0.4053
   61SOL    HW1  182   1.144   0.701   0.507  0.5663 -1.5205  2.8068
   61SOL    HW2  183   1.266   0.654   0.392 -0.4889 -2.3992  4.4595
   62SOL     OW  184   2.711   1.730   2.776 -0.1856 -0.1883 -0.2522
   62SOL    HW1  185   2.655   1.656   2.732 -0.0589  1.3754 -0.5535
   62SOL    HW2  186   2.805   1.701   2.808  1.5124 -3.0875 -0.4299
   63SOL     OW  187   0.556   0.907   0.196  0.0545  0.2075  0.0449
   63SOL    HW1  188   0.595   0.964   0.117  0.4498  1.4121  0.6101
   63SOL    HW2  189   0.625   0.877   0.267 -0.5232 -0.0665  2.0756
   64SOL     OW  190   3.038   0.569   2.356 -0.1911  0.9251 -0.2053
   64SOL    HW1  191   2.958   0.595   2.414 -0.7736 -3.5281 -0.4672
   64SOL    HW2  192   3.078   0.638   2.296  0.2306 -1.2485  0.1614
   65SOL     OW  193   0.207   1.445   0.699  0.3161  0.2054 -0.0787
   65SOL    HW1  194   0.184   1.511   0.778 -1.6920 -0.0536  2.3773
   65SOL    HW2  195   0.278   1.474   0.625 -0.9873 -2.2479 -0.7485
   66SOL     OW  196   2.532   0.399   0.522 -0.3453  0.1929 -0.3041
   66SOL    HW1  197   2.629   0.364   0.527 -1.9108  0.2595  1.1919
   66SOL    HW2  198   2.471   0.362   0.603 -0.5094  0.8630  0.8768
   67SOL     OW  199   0.643   2.475   1.443 -0.2872 -0.0016 -0.2787
   67SOL    HW1  200   0.721   2.431   1.497  0.7393 -3.1761 -0.4529
   67SOL    HW2  201   0.566   2.409   1.416  1.6618  1.1334 -1.3255
   68SOL     OW  202   1.000   1.056   2.499 -0.0173 -0.7441 -0.3390
   68SOL    HW1  203   1.069   0.981   2.475 -0.4186 -1.8867  2.2714
   68SOL    HW2  204   0.917   1.073   2.442  1.5858  0.3575 -2.8070
   69SOL     OW  205   0.777   2.740   2.223  0.5664  0.4402  0.1541
   69SOL    HW1  206   0.809   2.647   2.190  1.2939  0.6813  1.5402
   69SOL    HW2  207   0.673   2.742   2.227  1.7499  1.8936  2.3463
   70SOL     OW  208   0.445   0.110   2.514 -0.1292 -0.4617 -0.3500
   70SOL    HW1  209   0.366   0.066   2.562 -0.0560  4.0194 -2.7298
   70SOL    HW2  210   0.535   0.072   2.548  0.6176  1.2762 -0.8982
   71SOL     OW  211   1.110   1.777   0.309 -0.2676 -0.7789  0.1098
   71SOL    HW1  212   1.078   1.720   0.385  1.5359  0.0549 -2.0724
   71SOL    HW2  213   1.036   1.786   0.233 -2.8004 -0.3106  0.2440
   72SOL     OW  214   1.821   0.182   2.172  0.1173  0.1604 -0.1069
   72SOL    HW1  215   1.861   0.277   2.198 -0.0830 -1.7897 -0.4483
   72SOL    HW2  216   1.888   0.110   2.194  1.1718  1.3906 -2.4140
   73SOL     OW  217   2.793   2.159   2.387 -0.1660 -0.1056  0.4983
   73SOL    HW1  218   2.785   2.062   2.355 -1.1775  0.5295  2.2589
   73SOL    HW2  219   2.832   2.168   2.482  1.3507  2.7391 -1.7886
   74SOL     OW  220   2.677   2.870   2.190  0.7799  0.0277  0.2533
   74SOL    HW1  221   2.690   2.847   2.290 -1.6221  0.9938 -1.7223
   74SOL    HW2  222   2.757   2.921   2.151  0.8455  1.3194 -1.7316
   75SOL     OW  223   0.953   0.863   1.069 -0.2782  0.3875  0.6551
   75SOL    HW1  224   0.862   0.904   1.044 -1.2777  1.8506  1.2216
   75SOL    HW2  225   0.999   0.913   1.148 -1.8509  5.6017 -0.5924
   76SOL     OW  226   1.856   1.253   2.447 -0.1431  0.8733  0.7675
   76SOL    HW1  227   1.758   1.228   2.474  1.2813 -3.3571 -2.3433
   76SOL    HW2  228   1.895   1.346   2.475  0.6603  0.6371  1.8413
   77SOL     OW  229   2.916   0.933   1.040 -0.5596 -0.1528  0.0083
   77SOL    HW1  230   2.887   0.833   1.032  1.3102 -0.8036  1.4959
   77SOL    HW2  231   2.998   0.939   1.104  0.9274 -0.5841  2.2997
   78SOL     OW  232   2.020   1.375   1.388  0.4520 -0.4120 -0.2970
   78SOL    HW1  233   2.117   1.407   1.374  1.3932 -2.0536 -1.7887
   78SOL    HW2  234   1.945   1.442   1.359 -2.4710 -2.0186 -1.9048
   79SOL     OW  235   0.668   1.414   0.796  0.2831  0.1170  0.2826
   79SOL    HW1  236   0.577   1.378   0.835  2.3514 -2.0192  1.0502
   79SOL    HW2  237   0.714   1.346   0.724 -2.3695 -0.3510  0.6526
   80SOL     OW  238   0.628   0.502   1.505 -0.1933  0.1283  0.2479
   80SOL    HW1  239   0.679   0.541   1.422 -0.8759 -1.4517  0.2738
   80SOL    HW2  240   0.649   0.402   1.527  1.3198  2.3717 -0.0062
   81SOL     OW  241   0.998   1.315   2.612 -0.1085  0.0381  0.5250
   81SOL    HW1  242   1.020   1.215   2.601  0.4261  1.8960 -1.1238
   81SOL    HW2  243   0.947   1.355   2.526  0.1035  0.6147  0.9419
   82SOL     OW  244   1.010   2.841   1.545  0.1910  0.1431  0.0381
   82SOL    HW1  245   0.977   2.750   1.503  0.4088  1.2205 -1.7415
   82SOL    HW2  246   1.035   2.912   1.473  1.7016 -2.5527 -0.4702
   83SOL     OW  247   2.544   2.381   0.881 -0.3964 -0.0777 -0.3443
   83SOL    HW1  248   2.503   2.331   0.802  2.8563  1.4831  2.4491
   83SOL    HW2  249   2.552   2.486   0.863  1.9829  0.6018  0.0540
   84SOL     OW  250   0.741   0.016   2.347  0.3718  0.0788 -0.3934
   84SOL    HW1  251   0.703  -0.027   2.434  1.1309 -0.4478 -1.6744
   84SOL    HW2  252   0.822  -0.036   2.314 -1.4598 -1.4179 -1.4931
   85SOL     OW  253   0.281   1.629   1.425 -0.1228 -0.2203 -0.3592
   85SOL    HW1  254   0.257   1.731   1.439 -0.0199 -0.7085 -0.2893
   85SOL    HW2  255   0.324   1.575   1.499 -3.6609 -0.2174 -3.0900
   86SOL     OW  256   0.427   1.057   1.547 -0.6774 -0.2613  0.6029
   86SOL    HW1  257   0.389   1.017   1.454 -2.0004  1.7023 -2.4444
   86SOL    HW2  258   0.529   1.037   1.553  1.0457 -0.5659 -1.6393
   87SOL     OW  259   1.642   0.671   0.272 -0.3694  0.3926  0.3468
   87SOL    HW1  260   1.690   0.766   0.249  0.1955  1.0829 -0.7907
   87SOL    HW2  261   1.619   0.622   0.180 -0.1135 -4.4989 -2.0524
   88SOL     OW  262   1.595   1.364   0.278  0.4251  0.5135  0.4448
   88SOL    HW1  263   1.641   1.270   0.279 -1.2384  0.0493  1.2166
   88SOL    HW2  264   1.495   1.355   0.257  2.3385  0.6531 -0.3017
   89SOL     OW  265   3.092   0.304   0.633  0.4123  0.3570 -0.1262
   89SOL    HW1  266   3.164   0.227   0.625  2.3296 -3.4029  0.8570
   89SOL    HW2  267   2.997   0.280   0.602  1.3413  0.5056 -0.0130
   90SOL     OW  268   0.796   1.579   0.153 -0.6927  0.0547  0.6089
   90SOL    HW1  269   0.857   1.499   0.124 -0.2656 -1.2265  1.9561
   90SOL    HW2  270   0.707   1.588   0.102  2.1866 -1.9177  0.7576
   91SOL     OW  271   1.219   1.461   1.772  0.1165 -0.3502 -0.0531
   91SOL    HW1  272   1.206   1.535   1.844 -0.6832 -0.0514 -2.4657
   91SOL    HW2  273   1.299   1.401   1.781 -1.6517  2.1024  0.2652
   92SOL     OW  274   0.013   0.953   1.229 -0.1371  0.1746 -0.3913
   92SOL    HW1  275   0.051   1.045   1.198  0.7390  1.6337 -0.2499
   92SOL    HW2  276   0.023   0.940   1.332 -0.2162  2.5317  1.2678
   93SOL     OW  277   3.078   2.715   0.043 -0.5099 -0.4043  0.4143
   93SOL    HW1  278   3.081   2.710  -0.060  1.2903 -0.7863 -0.6877
   93SOL    HW2  279   3.086   2.620   0.089  0.4217 -3.7980 -0.5779
   94SOL     OW  280   1.485   1.410   1.744 -0.2318 -0.4118 -0.3415
   94SOL    HW1  281   1.569   1.359   1.779 -0.1472  2.8458 -0.6925
   94SOL    HW2  282   1.496   1.513   1.765 -0.5592  1.3712  0.1352
   95SOL     OW  283   1.393   2.499   2.957 -0.2581 -0.4605 -0.0763
   95SOL    HW1  284   1.325   2.494   3.031  0.2628  0.6647  1.0862
   95SOL    HW2  285   1.402   2.408   2.908  0.7655  1.0196  1.1470
   96SOL     OW  286   0.563   2.101   1.296  0.0808 -0.2915 -0.6815
   96SOL    HW1  287   0.512   2.092   1.207  1.1354  0.1999  0.7526
   96SOL    HW2  288   0.622   2.019   1.321 -1.3025  0.2138 -0.4871
   97SOL     OW  289   0.305   1.623   2.433  0.0228  0.4944 -0.2775
   97SOL    HW1  290   0.259   1.688   2.367  0.7231  0.6222  1.2854
   97SOL    HW2  291   0.270   1.638   2.529 -3.5077  1.0082 -0.0386
   98SOL     OW  292   2.184   1.616   1.212  0.7474  0.1428  0.7672
   98SOL    HW1  293   2.085   1.594   1.181  0.2928  3.2038 -1.7873
   98SOL    HW2  294   2.253   1.591   1.143 -2.0483 -0.9898 -0.7461
   99SOL     OW  295   2.560   2.130   1.311 -0.3468  0.4528  0.0032
   99SOL    HW1  296   2.621   2.150   1.392  2.3196  0.7139 -0.3836
   99SOL    HW2  297   2.537   2.029   1.306  1.8501  2.4941  1.7172
  100SOL     OW  298   2.306   0.411   2.104  0.0024  0.0039 -0.1555
  100SOL    HW1  299   2.230   0.395   2.174  0.5944 -1.6462 -0.3520
  100SOL    HW2  300   2.401   0.396   2.150 -0.2624  1.3111 -1.3368
  101SOL     OW  301   0.389   1.533   0.516 -0.5403 -0.1108  0.5679
  101SOL    HW1  302   0.392   1.634   0.552 -0.0324  2.4653  0.3209
  101SOL    HW2  303   0.481   1.501   0.480  1.9961 -0.3356 -1.5284
  102SOL     OW  304   2.298   1.067   0.828 -0.0949 -0.1687  0.6346
  102SOL    HW1  305   2.253   0.980   0.799  2.4310  1.0292  1.1708
  102SOL    HW2  306   2.384   1.084   0.774  0.4156  1.6416 -1.3237
  103SOL     OW  307   2.236   0.071   0.332 -0.1399 -0.0719 -0.1047
  103SOL    HW1  308   2.277   0.118   0.249  1.6901 -0.7452 -0.9119
  103SOL    HW2  309   2.313   0.056   0.401  0.8498 -2.1418 -1.9700
  104SOL     OW  310   0.052   1.866   2.092 -0.0137 -0.7744  0.1036
  104SOL    HW1  311   0.101   1.872   2.001  0.7876  0.1901  0.9579
  104SOL    HW2  312  -0.047   1.882   2.092  2.3499  1.1789 -1.7380
  105SOL     OW  313   1.303   2.097   0.775  0.7976 -0.2945 -0.3548
  105SOL    HW1  314   1.283   2.125   0.676 -0.0586  1.0740  0.5638
  105SOL    HW2  315   1.303   1.995   0.786  0.3635  1.8894  0.6107
  106SOL     OW  316   2.085   0.406   1.399  0.4757  0.1367 -0.0367
  106SOL    HW1  317   2.027   0.326   1.367 -1.0035 -1.5128 -0.8860
  106SOL    HW2  318   2.081   0.430   1.501  0.8754 -0.3174  1.3939
  107SOL     OW  319   1.979   2.940   1.200 -0.2537  0.1281  0.2771
  107SOL    HW1  320   1.945   3.038   1.214  0.5092  0.7033  0.5597
  107SOL    HW2  321   1.910   2.886   1.146  1.0467  0.9309  1.1531
  108SOL     OW  322   0.877   2.826   1.171 -0.0713 -0.3285  0.0337
  108SOL    HW1  323   0.884   2.724   1.173  0.4021 -0.3920 -0.3489
  108SOL    HW2  324   0.941   2.870   1.238 -3.7101 -0.4029  2.6796
  109SOL     OW  325   2.147   0.162   0.760 -0.1288  0.1412 -0.8608
  109SOL    HW1  326   2.065   0.116   0.716 -1.4169  1.6264 -0.2187
  109SOL    HW2  327   2.171   0.117   0.849 -0.0755  1.5403 -1.0787
  110SOL     OW  328   0.458   2.794   2.780  0.0416 -0.4485  0.0965
  110SOL    HW1  329   0.453   2.771   2.680 -1.0715  1.1926  0.3197
  110SOL    HW2  330   0.530   2.733   2.836 -1.2045  0.8392  0.1914
  111SOL     OW  331   1.279   0.493   2.327 -0.1778  0.0618 -0.3583
  111SOL    HW1  332   1.179   0.511   2.368  0.3666 -0.7619  1.5836
  111SOL    HW2  333   1.341   0.447   2.396 -0.5769 -0.7007 -2.0965
  112SOL     OW  334   1.777   0.409   1.507 -0.1204 -0.4596  0.6971
  112SOL    HW1  335   1.725   0.412   1.420  0.4877 -1.7177 -1.0992
  112SOL    HW2  336   1.719   0.396   1.592  1.6521  0.3526 -2.1207
  113SOL     OW  337   2.407   1.681   1.717 -0.0307 -0.3226  0.0003
  113SOL    HW1  338   2.396   1.576   1.735  1.0956 -1.1502  1.0003
  113SOL    HW2  339   2.386   1.738   1.804 -0.1203  0.9347 -0.0049
  114SOL     OW  340   0.285   0.483   1.196 -0.0345 -0.7179  0.1845
  114SOL    HW1  341   0.339   0.544   1.136 -0.0418 -0.8268 -2.6656
  114SOL    HW2  342   0.204   0.532   1.236 -0.1093 -1.1918 -0.6454
  115SOL     OW  343   2.779   1.530   1.248 -0.6001  0.6468 -0.6838
  115SOL    HW1  344   2.734   1.436   1.256 -0.9096  1.2902  1.2100
  115SOL    HW2  345   2.869   1.521   1.196 -4.6850 -0.2341  0.2895
  116SOL     OW  346   1.904   0.947   0.681 -0.1452 -0.1178  0.2356
  116SOL    HW1  347   1.805   0.930   0.671  0.6978 -1.7093  1.8012
  116SOL    HW2  348   1.913   1.049   0.681  2.8718 -0.4592  0.7850
  117SOL     OW  349   1.133   0.373   0.563 -0.0096  0.0518 -0.4039
  117SOL    HW1  350   1.150   0.473   0.557 -0.6622  0.0575  2.6340
  117SOL    HW2  351   1.125   0.329   0.466 -2.5282  1.5179  1.0854
  118SOL     OW  352   1.097   1.200   1.120 -0.0429  0.2462 -0.5144
  118SOL    HW1  353   1.006   1.169   1.156  0.2547 -2.2054 -2.3946
  118SOL    HW2  354   1.120   1.299   1.150  1.3507  0.2399  0.3825
  119SOL     OW  355   1.869   1.590   2.198  0.1977 -0.4533 -0.1985
  119SOL    HW1  356   1.817   1.665   2.149  1.6737 -2.0298  1.2360
  119SOL    HW2  357   1.967   1.568   2.160  0.9863 -1.2900 -0.9852
  120SOL     OW  358   2.903   2.795   0.244 -0.3128 -0.2219  0.2643
  120SOL    HW1  359   2.968   2.766   0.169 -1.6883  0.9718  1.3096
  120SOL    HW2  360   2.805   2.772   0.220  2.2307 -0.4244 -2.6173
  121SOL     OW  361   1.864   0.739   2.169  0.4771  0.3778  0.5551
  121SOL    HW1  362   1.889   0.808   2.092  2.3771 -1.0561 -0.1752
  121SOL    HW2  363   1.856   0.639   2.143  0.5637 -0.7009  3.5063
  122SOL     OW  364   2.586   2.504   1.343 -0.4533  0.3846  0.0602
  122SOL    HW1  365   2.670   2.469   1.301  0.0910 -0.3591 -0.3597
  122SOL    HW2  366   2.584   2.488   1.446  1.5030 -1.7591  2.1649
  123SOL     OW  367   1.718   0.139   1.726  0.4769  0.0179  0.1127
  123SOL    HW1  368   1.740   0.063   1.653  0.3638  1.1993  1.8125
  123SOL    HW2  369   1.810   0.180   1.767  0.6956  1.9636  1.1757
  124SOL     OW  370   3.053   0.472   1.105  0.4005  0.1745 -0.5732
  124SOL    HW1  371   2.976   0.524   1.153 -0.0257 -0.1097 -2.1147
  124SOL    HW2  372   3.066   0.506   1.009 -0.9328  1.0229  1.4912
  125SOL     OW  373   0.900   1.910   0.770 -0.3598 -0.0939  0.5444
  125SOL    HW1  374   0.999   1.869   0.763  0.6069 -2.2973 -0.2888
  125SOL    HW2  375   0.852   1.871   0.849  1.0802  1.1860 -2.6694
  126SOL     OW  376   1.966   2.275   2.452  0.0406  0.4215 -0.0546
  126SOL    HW1  377   1.968   2.251   2.353 -0.8619  1.7088 -0.4456
  126SOL    HW2  378   1.951   2.195   2.514  1.9737  1.1369  0.9604
  127SOL     OW  379   0.898   0.973   0.215 -0.1230  0.0607  0.0026
  127SOL    HW1  380   0.928   0.982   0.317  0.9934 -0.9386  1.0654
  127SOL    HW2  381   0.879   0.877   0.188  0.4424 -1.5406 -0.4790
  128SOL     OW  382   0.947   0.266   1.414 -0.1116  0.0258 -0.0821
  128SOL    HW1  383   0.926   0.333   1.337 -1.0020 -1.2029  3.3045
  128SOL    HW2  384   0.885   0.182   1.423  0.3174  4.9482 -0.5643
  129SOL     OW  385   1.869   0.668   1.844 -0.5319  0.5122 -0.4603
  129SOL    HW1  386   1.880   0.643   1.743  1.9321 -0.5665 -1.0171
  129SOL    HW2  387   1.942   0.736   1.881  2.9765  2.1058  2.6709
  130SOL     OW  388   1.414   2.248   1.008 -0.3475 -0.4300  0.0981
  130SOL    HW1  389   1.374   2.191   0.929  0.0382  0.8009 -0.2842
  130SOL    HW2  390   1.481   2.316   0.974 -1.3419  0.4096  2.2092
  131SOL     OW  391   3.049   1.416   1.359  0.1868  0.8393  0.4125
  131SOL    HW1  392   3.008   1.322   1.387 -0.7869  2.4665 -4.2078
  131SOL    HW2  393   3.150   1.425   1.369 -2.2661 -0.7084 -2.6942
  132SOL     OW  394   2.037   2.371   0.522 -0.5600 -0.1895  0.1096
  132SOL    HW1  395   1.942   2.411   0.526 -0.5678 -0.7477  0.2678
  132SOL    HW2  396   2.045   2.284   0.583 -0.2179 -1.0663  3.4878
  133SOL     OW  397   1.795   2.351   2.722 -0.0527  0.4726 -0.1450
  133SOL    HW1  398   1.721   2.413   2.683  3.7245  1.4408 -0.8551
  133SOL    HW2  399   1.884   2.394   2.689  1.0102 -1.1524 -1.3459
  134SOL     OW  400   2.693   2.378   1.602  0.5467  0.1372 -0.0748
  134SOL    HW1  401   2.634   2.376   1.690  0.9858 -0.0482  1.6279
  134SOL    HW2  402   2.768   2.451   1.600 -1.1100  2.4738  1.7411
  135SOL     OW  403   0.697   1.431   2.688  0.3610 -0.3492  0.8788
  135SOL    HW1  404   0.701   1.334   2.725 -0.0697 -4.7331 -3.3814
  135SOL    HW2  405   0.702   1.426   2.582  0.0478  1.4323 -2.3318
  136SOL     OW  406   1.198   2.015   0.425 -0.5903  0.3136 -0.6791
  136SOL    HW1  407   1.137   2.085   0.471  2.4246 -0.3422 -0.0391
  136SOL    HW2  408   1.148   1.940   0.371 -2.0287 -1.1314  0.6395
  137SOL     OW  409   0.408   1.226   2.230  0.2845  0.3775 -0.1928
  137SOL    HW1  410   0.309   1.228   2.265 -3.1429  1.3321  0.0540
  137SOL    HW2  411   0.453   1.135   2.244  0.5668  1.1582 -0.2590
  138SOL     OW  412   2.445   1.545   0.305 -0.0151 -0.6497 -0.4549
  138SOL    HW1  413   2.363   1.513   0.248 -0.4213  1.1724  1.6871
  138SOL    HW2  414   2.512   1.467   0.318  0.2933  0.6450 -0.7114
  139SOL     OW  415   1.863   2.641   1.523  0.7341  0.1182  0.4455
  139SOL    HW1  416   1.776   2.665   1.477  0.8571  0.6735  0.9343
  139SOL    HW2  417   1.896   2.545   1.505 -0.1809 -0.6904  1.0457
  140SOL     OW  418   3.003   2.981   2.612  0.1654 -0.1928  0.6263
  140SOL    HW1  419   3.049   2.893   2.581 -1.6836 -0.9693 -1.8186
  140SOL    HW2  420   3.057   3.065   2.578  1.8057  1.8194 -1.0277
  141SOL     OW  421   1.328   1.623   1.569 -0.2991 -0.5759 -0.1149
  141SOL    HW1  422   1.263   1.696   1.536  1.9746  1.8551  1.8386
  141SOL    HW2  423   1.282   1.551   1.628 -0.9354 -0.2253 -1.3513
  142SOL     OW  424   1.524   0.624   2.237  0.3261  0.0457  0.4211
  142SOL    HW1  425   1.546   0.617   2.134 -3.1449  2.0558  0.2166
  142SOL    HW2  426   1.434   0.574   2.263 -0.4436  0.1770  0.6176
  143SOL     OW  427   2.790   0.815   0.549  0.3448 -0.0516 -0.8402
  143SOL    HW1  428   2.808   0.878   0.464 -1.0811  0.1734 -0.1116
  143SOL    HW2  429   2.808   0.869   0.640  0.6165  1.0301  2.6209
  144SOL     OW  430   2.904   1.183   1.467  0.2757  0.1698 -0.3896
  144SOL    HW1  431   2.838   1.170   1.543  0.7581 -2.1307 -1.9095
  144SOL    HW2  432   2.986   1.120   1.470 -0.5858  0.9037 -0.2563
  145SOL     OW  433   0.924   1.834   0.115 -0.7083  0.6018 -0.6308
  145SOL    HW1  434   1.003   1.834   0.047  0.4814 -0.3585  1.3533
  145SOL    HW2  435   0.855   1.756   0.105 -2.0292 -0.7180 -2.0016
  146SOL     OW  436   2.459   0.669   1.493  0.4557  0.0271  0.1380
  146SOL    HW1  437   2.445   0.574   1.447 -1.0101 -0.2686 -0.5300
  146SOL    HW2  438   2.403   0.747   1.454 -1.5033 -1.2795  0.2223
  147SOL     OW  439   1.100   2.522   0.575  0.4419  0.0768  0.1408
  147SOL    HW1  440   1.040   2.571   0.503  1.3565 -0.1316 -0.4404
  147SOL    HW2  441   1.189   2.486   0.540  1.0726  1.2843  0.0503
  148SOL     OW  442   1.581   1.461  -0.003 -0.2030  0.0126 -0.5086
  148SOL    HW1  443   1.565   1.365  -0.047  0.7735 -0.3636  0.6635
  148SOL    HW2  444   1.564   1.458   0.102  0.1957  1.7762 -0.0717
  149SOL     OW  445   0.695   1.505   1.970  0.0682  0.2749  0.1952
  149SOL    HW1  446   0.608   1.477   2.019  2.1517  0.7321  1.3000
  149SOL    HW2  447   0.717   1.453   1.883 -2.5419  0.9974  1.8045
  150SOL     OW  448   3.028   1.206   0.972 -0.1411 -0.2888  0.0516
  150SOL    HW1  449   3.125   1.190   1.019  1.7831 -1.4579 -0.6927
  150SOL    HW2  450   2.958   1.134   1.002 -1.2598 -1.7056  0.9834
  151SOL     OW  451   0.286   0.811   2.044  0.6234 -0.1730 -0.1680
  151SOL    HW1  452   0.268   0.901   1.998  0.0712 -0.5688 -0.3430
  151SOL    HW2  453   0.305   0.738   1.973  0.6972 -0.8891 -2.9975
  152SOL     OW  454   1.432   1.826   1.151 -0.1326  0.1939 -0.6971
  152SOL    HW1  455   1.472   1.922   1.134 -0.8059  2.6424 -3.0929
  152SOL    HW2  456   1.327   1.824   1.128 -0.3309 -1.4756 -1.3906
  153SOL     OW  457   0.182   1.518   0.214 -0.6790 -0.2343  0.3782
  153SOL    HW1  458   0.162   1.420   0.213 -0.7965  3.1709  1.1361
  153SOL    HW2  459   0.146   1.563   0.299 -0.7292 -0.4713 -1.3465
  154SOL     OW  460   2.280   1.854   2.777 -0.5490 -0.3385 -0.0812
  154SOL    HW1  461   2.303   1.750   2.783  0.3278  0.6013 -0.1088
  154SOL    HW2  462   2.357   1.914   2.734  0.1189  2.1590 -1.4225
  155SOL     OW  463   2.444   1.246   0.345 -0.2278 -0.0872 -0.2765
  155SOL    HW1  464   2.530   1.201   0.308 -1.3732  2.1383 -1.8271
  155SOL    HW2  465   2.363   1.183   0.336 -1.7275 -1.2457  1.1164
  156SOL     OW  466   2.467   0.815   0.732 -0.1657  0.0744 -0.3245
  156SOL    HW1  467   2.370   0.823   0.768 -1.5727 -2.0021 -0.9648
  156SOL    HW2  468   2.470   0.853   0.635  2.5169 -3.1557 -0.3358
  157SOL     OW  469   1.225   2.953   3.015 -0.3133 -0.2476 -0.0260
  157SOL    HW1  470   1.296   2.904   2.957 -0.6179 -1.5523  1.3752
  157SOL    HW2  471   1.243   3.051   3.039  1.5375  2.3137 -1.9610
  158SOL     OW  472   1.037   1.866   1.828  1.0324 -0.4080 -0.0070
  158SOL    HW1  473   1.061   1.968   1.811  0.0267 -1.1377  0.0028
  158SOL    HW2  474   0.957   1.862   1.893  0.4469 -2.1309 -1.1626
  159SOL     OW  475   0.863   0.438   1.217 -0.3737  0.6745  0.0655
  159SOL    HW1  476   0.833   0.535   1.234 -2.0476 -3.5212  0.6261
  159SOL    HW2  477   0.788   0.377   1.180  0.3836 -0.6055 -0.4131
  160SOL     OW  478   1.391   2.427   1.513  0.9829 -0.0387 -0.3927
  160SOL    HW1  479   1.314   2.359   1.538  1.1986  0.4802  0.0813
  160SOL    HW2  480   1.488   2.399   1.524 -1.6537 -0.3628 -1.7240
  161SOL     OW  481   3.049   2.675   0.472 -0.5572 -0.9921 -0.4345
  161SOL    HW1  482   3.029   2.575   0.461  1.4589 -0.4922  1.0227
  161SOL    HW2  483   3.015   2.735   0.394  0.9870  1.2500  4.4971
  162SOL     OW  484   2.576   1.824   0.463  0.4582  0.6495 -0.4717
  162SOL    HW1  485   2.588   1.803   0.359 -1.7631 -2.3263 -2.0796
  162SOL    HW2  486   2.561   1.730   0.508 -1.5564 -0.1428  1.9741
  163SOL     OW  487   1.946   2.669   0.749  0.1871  0.6096 -0.3535
  163SOL    HW1  488   1.936   2.695   0.648 -2.1770  0.0693 -2.2291
  163SOL    HW2  489   2.017   2.595   0.765  0.6686  1.4325  1.4252
  164SOL     OW  490   3.042   0.231   1.219 -0.7299 -0.8489 -0.7189
  164SOL    HW1  491   3.075   0.326   1.181  0.5743 -1.1872  1.2626
  164SOL    HW2  492   3.114   0.201   1.292 -0.1307 -0.0648  0.7463
  165SOL     OW  493   1.105   1.413   0.676  0.2505 -0.2575  0.0979
  165SOL    HW1  494   1.093   1.455   0.776  0.1830  2.0000 -0.0281
  165SOL    HW2  495   1.089   1.475   0.596 -2.3791 -2.3881 -0.7495
  166SOL     OW  496   1.545   1.021   1.772 -0.4391  0.0138  0.3591
  166SOL    HW1  497   1.468   1.028   1.846 -2.5576  1.6819  0.0117
  166SOL    HW2  498   1.598   1.109   1.750  1.9257  0.4825 -0.2905
  167SOL     OW  499   0.781   1.946   1.458 -0.3655  0.4144  0.3143
  167SOL    HW1  500   0.793   2.014   1.534 -0.8002 -1.1496 -0.2736
  167SOL    HW2  501   0.703   1.880   1.476  1.6079  1.8155  0.7123
  168SOL     OW  502   1.569   2.345   0.158 -0.0259 -0.1205 -0.0932
  168SOL    HW1  503   1.637   2.363   0.085  0.5298 -0.8019  1.1558
  168SOL    HW2  504   1.612   2.302   0.242 -1.4469 -1.5623 -0.1778
  169SOL     OW  505   0.080   2.580   2.208 -0.2060  0.1732 -0.2693
  169SOL    HW1  506   0.127   2.550   2.118  1.1601 -1.4154 -1.9592
  169SOL    HW2  507   0.135   2.569   2.295 -0.4747 -0.4205  1.1415
  170SOL     OW  508   1.145   0.214   2.048 -0.0354  0.0877 -0.2302
  170SOL    HW1  509   1.225   0.209   2.123  3.3849 -0.2186  0.6666
  170SOL    HW2  510   1.180   0.187   1.954  0.1782 -0.2114  0.3257
  171SOL     OW  511   0.222   0.856   2.382 -0.2009  0.1987 -0.4006
  171SOL    HW1  512   0.118   0.863   2.409  0.6924  0.5847 -0.4559
  171SOL    HW2  513   0.243   0.832   2.285 -2.7120 -1.6871 -0.3356
  172SOL     OW  514   0.949   1.025   2.901  0.0980  0.2908 -0.5130
  172SOL    HW1  515   0.927   1.098   2.969  0.5451  0.7844 -3.4313
  172SOL    HW2  516   0.881   1.023   2.824  3.6475  1.2591 -2.4530
  173SOL     OW  517   0.503   2.458   0.133 -0.7369  0.1385 -1.0923
  173SOL    HW1  518   0.508   2.372   0.082  1.4962 -0.9001  0.4576
  173SOL    HW2  519   0.418   2.481   0.181  1.4246 -0.1357  0.1878
  174SOL     OW  520   1.513   2.861   1.084  0.3126 -0.2264 -0.0784
  174SOL    HW1  521   1.590   2.900   1.024  2.5400  0.2944 -0.1112
  174SOL    HW2  522   1.461   2.785   1.043  1.7996  2.5473  1.7500
  175SOL     OW  523   0.420   3.061   1.693  0.2925  0.8347  0.5246
  175SOL    HW1  524   0.482   3.041   1.773 -0.5073 -1.0197 -0.1494
  175SOL    HW2  525   0.388   3.160   1.677  3.9914  1.0151 -3.1624
  176SOL     OW  526   2.617   0.359   0.022  0.1853  0.1903 -0.3489
  176SOL    HW1  527   2.623   0.454   0.070  1.3783 -1.4232  2.0043
  176SOL    HW2  528   2.628   0.282   0.087  2.8357  1.7831 -1.0428
  177SOL     OW  529   0.332   0.304   0.996  0.2549  0.4962 -0.0106
  177SOL    HW1  530   0.300   0.204   1.009  1.8654 -1.1235 -0.5753
  177SOL    HW2  531   0.317   0.373   1.071 -0.1287  2.6233 -1.7239
  178SOL     OW  532   0.020   2.740   2.555  0.3275 -0.0824  0.0028
  178SOL    HW1  533  -0.013   2.643   2.533 -0.7390 -0.1637  1.6959
  178SOL    HW2  534   0.103   2.746   2.619  0.0444  1.7818 -1.2564
  179SOL     OW  535   3.009   1.538   1.104 -0.1527 -0.4005  0.0941
  179SOL    HW1  536   3.073   1.613   1.079 -3.6040  0.4620 -0.5684
  179SOL    HW2  537   3.046   1.470   1.178  1.7750 -0.9105  1.7669
  180SOL     OW  538   0.194   1.385   1.770 -0.3625 -0.2783  0.0878
  180SOL    HW1  539   0.287   1.338   1.795  3.1998  1.3076  0.3047
  180SOL    HW2  540   0.146   1.418   1.853 -0.1638  1.7136  2.0742
  181SOL     OW  541   2.965   1.943   2.533  0.2398 -0.0614  0.5937
  181SOL    HW1  542   3.025   2.005   2.488 -3.1345 -2.0455  1.1100
  181SOL    HW2  543   2.881   1.920   2.474  0.8960 -0.4898 -2.4545
  182SOL     OW  544   2.341   1.276   1.266  0.1414 -0.0817  0.0194
  182SOL    HW1  545   2.273   1.232   1.198 -0.2073 -1.2080 -1.6905
  182SOL    HW2  546   2.377   1.372   1.228 -0.0810 -0.6982 -1.3811
  183SOL     OW  547   1.377   2.299   2.459  0.0335  0.9413 -0.6993
  183SOL    HW1  548   1.319   2.232   2.516  0.5034  3.1935  2.2265
  183SOL    HW2  549   1.454   2.251   2.411 -2.6378 -1.7080  0.2641
  184SOL     OW  550   2.163   0.868   0.748 -0.0821 -0.0873  0.4770
  184SOL    HW1  551   2.063   0.879   0.756  1.0730 -0.8305  3.0606
  184SOL    HW2  552   2.179   0.774   0.718  0.4534 -0.0419 -0.3654
  185SOL     OW  553   1.528   2.743   2.036  0.0332 -0.0712  0.2493
  185SOL    HW1  554   1.471   2.831   2.017 -2.5259 -0.8634  3.9659
  185SOL    HW2  555   1.587   2.752   2.122  1.3601 -1.8024 -0.1763
  186SOL     OW  556   0.060   2.201   1.643 -0.3119  0.4067 -0.0805
  186SOL    HW1  557   0.052   2.236   1.735  0.1943 -0.5259 -2.3461
  186SOL    HW2  558   0.151   2.156   1.625 -0.4967  1.8279  0.1805
  187SOL     OW  559   1.357   0.628   1.658 -0.1260 -0.0425  0.2857
  187SOL    HW1  560   1.442   0.678   1.684  1.0755  1.3891  0.2580
  187SOL    HW2  561   1.351   0.531   1.702 -1.2777 -2.2091  3.1928
  188SOL     OW  562   2.775   2.716   1.413 -0.6002 -0.1783 -0.1337
  188SOL    HW1  563   2.749   2.815   1.418  1.7401 -0.2080  0.4429
  188SOL    HW2  564   2.705   2.661   1.355 -2.8581 -1.9320  1.6579
  189SOL     OW  565   0.889   1.195   1.397  0.5277  0.5914 -0.0203
  189SOL    HW1  566   0.948   1.228   1.476  1.0667  1.7290  0.9343
  189SOL    HW2  567   0.832   1.269   1.346 -0.8031 -0.4995 -3.0150
  190SOL     OW  568   1.471   1.873   1.552 -0.0811  0.6056  0.1400
  190SOL    HW1  569   1.417   1.784   1.559 -1.5000 -1.1895 -1.7065
  190SOL    HW2  570   1.497   1.916   1.646 -0.4440  0.7969  2.5590
  191SOL     OW  571   0.928   0.814   1.524 -0.1420 -0.2438 -0.4154
  191SOL    HW1  572   0.970   0.734   1.580  3.3965  0.0959 -0.6928
  191SOL    HW2  573   1.003   0.857   1.467  0.5343  1.0805  2.5470
  192SOL     OW  574   1.855   2.468   1.111  0.2104 -0.0258  0.1082
  192SOL    HW1  575   1.757   2.459   1.074 -1.0316 -0.9635  0.6457
  192SOL    HW2  576   1.929   2.424   1.047 -3.5275  0.7891 -0.3385
  193SOL     OW  577   0.527   0.541   0.427  0.2210  0.6399  0.9468
  193SOL    HW1  578   0.469   0.458   0.436  0.7583  1.1876 -1.7064
  193SOL    HW2  579   0.573   0.545   0.331 -1.2650  0.7876  1.9598
  194SOL     OW  580   0.324   0.915   1.321  0.3342 -0.0143  0.3679
  194SOL    HW1  581   0.251   0.844   1.315  3.8571  0.8541 -0.7082
  194SOL    HW2  582   0.393   0.915   1.241  2.4865  0.3685 -0.2872
  195SOL     OW  583   0.971   2.899   0.539 -0.0583  0.0639  0.1868
  195SOL    HW1  584   0.952   2.810   0.492 -3.1351  1.5515  1.3960
  195SOL    HW2  585   1.071   2.920   0.533 -2.1456 -0.0485  0.5519
  196SOL     OW  586   0.254   1.363   1.346  0.5084  0.3540 -0.2435
  196SOL    HW1  587   0.268   1.461   1.384  2.7206  0.7446 -0.1341
  196SOL    HW2  588   0.239   1.287   1.416  0.2245 -0.3040  0.7698
  197SOL     OW  589   0.825   2.013   0.337  0.0755 -0.0367  0.1021
  197SOL    HW1  590   0.790   1.952   0.418 -0.8540  1.1103  0.5473
  197SOL    HW2  591   0.878   1.957   0.267 -0.5649  2.4762  0.6285
  198SOL     OW  592   0.285   1.237   0.352 -0.1266  0.5893 -0.1647
  198SOL    HW1  593   0.190   1.235   0.309  2.1012 -1.4311  1.1746
  198SOL    HW2  594   0.317   1.332   0.378  1.1702 -2.2784  0.3873
  199SOL     OW  595   2.267   0.468   2.581 -0.7688 -0.1568 -0.2497
  199SOL    HW1  596   2.204   0.408   2.633 -0.0654  1.6073 -0.4903
  199SOL    HW2  597   2.368   0.458   2.604  1.2394  0.5201 -0.2284
  200SOL     OW  598   3.097   2.970   0.813 -0.4803  0.3566  0.2254
  200SOL    HW1  599   3.115   3.065   0.840 -1.1436 -0.0322 -3.5290
  200SOL    HW2  600   3.034   2.968   0.732  1.5994 -0.3878  1.9618
  201SOL     OW  601   0.937   0.735   0.512 -0.6736 -0.2277  0.0505
  201SOL    HW1  602   0.917   0.817   0.571 -0.5345 -1.4134 -3.7766
  201SOL    HW2  603   0.901   0.650   0.551  1.5680  0.3633 -0.6002
  202SOL     OW  604   0.430   1.234   1.853  0.4297  0.6751 -0.1322
  202SOL    HW1  605   0.521   1.180   1.844  2.2474  0.4065 -2.2358
  202SOL    HW2  606   0.420   1.303   1.933 -0.1992  2.0047 -0.2051
  203SOL     OW  607   0.615   0.226   1.560  0.3984 -0.3259 -0.0723
  203SOL    HW1  608   0.615   0.158   1.484 -0.0330  1.8742  0.7188
  203SOL    HW2  609   0.674   0.191   1.639 -0.8976  0.0673 -1.8255
  204SOL     OW  610   2.110   1.806   2.987 -0.3275 -0.5048 -0.5325
  204SOL    HW1  611   2.108   1.704   2.990  0.2526 -0.0099 -0.8237
  204SOL    HW2  612   2.145   1.844   2.904 -1.1129 -1.1520  2.8380
  205SOL     OW  613   1.837   1.885   3.104  0.1182  0.1495  0.3518
  205SOL    HW1  614   1.920   1.840   3.060  0.0086  2.3402  2.0444
  205SOL    HW2  615   1.809   1.968   3.048  1.3384 -1.3662  1.1246
  206SOL     OW  616   2.409   2.785   0.371  0.0673 -0.3104 -0.2983
  206SOL    HW1  617   2.395   2.680   0.372 -1.7673 -0.5735 -2.2554
  206SOL    HW2  618   2.485   2.823   0.310  1.3773  1.4397 -3.4062
  207SOL     OW  619   0.709   1.740   2.882 -0.1162  0.0739  0.1311
  207SOL    HW1  620   0.800   1.701   2.860  0.4739 -0.8419 -1.6446
  207SOL    HW2  621   0.670   1.700   2.967 -0.7953 -1.9912 -0.4544
  208SOL     OW  622   1.088   1.675   1.248 -0.6361 -0.4537 -0.3630
  208SOL    HW1  623   1.094   1.780   1.245 -0.5318  0.4436  2.2344
  208SOL    HW2  624   0.996   1.638   1.279 -2.0425 -0.5531 -2.0189
  209SOL     OW  625   0.203   0.992   3.088  0.0517 -0.0467 -0.2564
  209SOL    HW1  626   0.190   0.914   3.017  3.7951  0.0200 -0.9864
  209SOL    HW2  627   0.202   0.955   3.186  0.2049  0.7419  1.7720
  210SOL     OW  628   1.713   0.484   1.232 -0.2146  0.1487  0.0436
  210SOL    HW1  629   1.640   0.545   1.199  1.8570 -1.5826  0.8915
  210SOL    HW2  630   1.812   0.516   1.217  2.7516 -1.4992  1.4318
  211SOL     OW  631   2.037   1.029   1.560  0.4854  0.2990 -0.4883
  211SOL    HW1  632   2.071   0.963   1.641 -0.4559  0.9734  4.3651
  211SOL    HW2  633   2.111   1.099   1.535  1.6409 -0.2663  3.5204
  212SOL     OW  634   0.038   0.962   1.499  0.0972 -0.1644 -0.5202
  212SOL    HW1  635   0.106   1.037   1.509  0.9091 -1.3693 -0.2327
  212SOL    HW2  636   0.052   0.888   1.569 -0.8252  0.2548  0.4533
  213SOL     OW  637   2.746   0.225   0.259 -0.0162 -0.5567 -0.1769
  213SOL    HW1  638   2.836   0.233   0.203 -2.2423 -0.4385 -0.7529
  213SOL    HW2  639   2.698   0.135   0.254  3.8293  1.5064 -0.3171
  214SOL     OW  640   2.153   0.360   2.340  0.1045  0.0137  0.3477
  214SOL    HW1  641   2.189   0.413   2.421 -0.5459  0.7374  1.2960
  214SOL    HW2  642   2.151   0.253   2.358  0.4467 -1.6089 -1.0907
  215SOL     OW  643   1.659   2.277   2.096 -0.6038  0.1939  0.1453
  215SOL    HW1  644   1.761   2.303   2.094 -0.6420 -0.4100 -0.5338
  215SOL    HW2  645   1.599   2.357   2.121 -1.6541  0.3074 -2.7974
  216SOL     OW  646   2.160   0.609   0.615 -0.0664  0.1416 -1.0949
  216SOL    HW1  647   2.141   0.523   0.571  0.2648  5.2999 -1.0198
  216SOL    HW2  648   2.214   0.668   0.549 -0.2015  0.2520  1.5328
  217SOL     OW  649   0.909   2.833   2.535  0.8135  0.5269  0.1656
  217SOL    HW1  650   0.982   2.780   2.586  3.0280  0.7826 -0.8245
  217SOL    HW2  651   0.842   2.776   2.473 -1.2295 -1.8957  1.3724
  218SOL     OW  652   1.879   1.461   0.057 -0.1464 -0.0563 -0.4722
  218SOL    HW1  653   1.785   1.474   0.018  0.2950  0.8857 -1.2467
  218SOL    HW2  654   1.891   1.379   0.115 -0.9306  1.6814 -2.2674
  219SOL     OW  655   2.486   1.282   2.533 -0.3711 -0.3903 -0.1696
  219SOL    HW1  656   2.520   1.222   2.453  0.9066 -0.5397 -0.4181
  219SOL    HW2  657   2.490   1.230   2.628  2.5830  0.4337  1.5692
  220SOL     OW  658   1.428   1.017   1.409  0.1163 -0.4670 -0.1581
  220SOL    HW1  659   1.531   1.007   1.411 -0.9771  3.5877  2.9641
  220SOL    HW2  660   1.397   1.063   1.325  1.9344  0.6729  0.1873
  221SOL     OW  661   1.352   0.945   2.202  0.4198  0.2419 -0.0355
  221SOL    HW1  662   1.305   0.978   2.115 -0.4777 -1.5017  3.4169
  221SOL    HW2  663   1.424   1.009   2.228  1.4430 -1.2015 -0.9156
  222SOL     OW  664   1.086   0.140   1.235  0.0166 -0.7104  0.3023
  222SOL    HW1  665   1.046   0.207   1.307 -0.1008 -1.0148 -0.7117
  222SOL    HW2  666   1.117   0.179   1.145  0.3197 -0.7999  1.7727
  223SOL     OW  667   2.704   0.908   2.090  0.2624 -0.0870 -0.3652
  223SOL    HW1  668   2.653   0.980   2.149 -0.9028 -1.1914 -0.3931
  223SOL    HW2  669   2.801   0.893   2.125  0.0488 -1.6645  1.5135
  224SOL     OW  670   1.501   1.050   2.724  0.8605  0.3624  0.2481
  224SOL    HW1  671   1.549   0.965   2.677  1.0775 -3.4502 -2.0638
  224SOL    HW2  672   1.480   1.127   2.660 -0.7786 -2.7535 -1.0511
  225SOL     OW  673   2.974   2.678   2.858 -0.0580  0.2728 -0.6268
  225SOL    HW1  674   2.880   2.655   2.812  1.3083 -0.5459  0.9164
  225SOL    HW2  675   3.001   2.776   2.848 -2.7827 -1.1385  0.6671
  226SOL     OW  676   2.373   1.612   2.781 -0.2624 -0.7241  0.2340
  226SOL    HW1  677   2.443   1.613   2.698 -1.0116  1.8700  1.4054
  226SOL    HW2  678   2.354   1.522   2.829 -0.5476 -2.1680  1.5849
  227SOL     OW  679   0.860   0.244   3.076 -0.0436  0.5313  0.2164
  227SOL    HW1  680   0.876   0.339   3.045 -0.0164 -1.0202  0.5187
  227SOL    HW2  681   0.832   0.181   3.001  1.3376 -0.8775  1.2239
  228SOL     OW  682   2.414   0.596   2.815  0.4833 -0.1497 -0.0053
  228SOL    HW1  683   2.419   0.675   2.743 -3.3073  2.0600 -0.8387
  228SOL    HW2  684   2.502   0.544   2.827 -0.4331 -2.0721  1.4963
  229SOL     OW  685   0.547   0.468   1.789 -0.7301  0.3094  0.1919
  229SOL    HW1  686   0.581   0.377   1.820 -0.3109 -0.8422  1.1754
  229SOL    HW2  687   0.609   0.513   1.715 -1.0295  1.8154  0.2983
  230SOL     OW  688   1.872   1.211   2.046  0.1278 -0.1200  0.3141
  230SOL    HW1  689   1.954   1.267   2.015 -1.4383  0.4210 -0.9366
  230SOL    HW2  690   1.801   1.272   2.090 -0.6484  1.3090 -1.4558
  231SOL     OW  691   0.671   1.064   3.090 -0.8149  0.5225 -0.0502
  231SOL    HW1  692   0.758   1.125   3.101  3.7734  0.1748  0.4211
  231SOL    HW2  693   0.589   1.121   3.094  4.1194 -1.4466  1.9579
  232SOL     OW  694   2.453   3.004   2.820 -0.2965  0.3424  0.0529
  232SOL    HW1  695   2.523   2.933   2.842  0.7688  1.4803  0.2548
  232SOL    HW2  696   2.472   3.068   2.744 -2.9853  1.4652  1.5318
  233SOL     OW  697   1.759   1.257   1.217  0.0053  0.0844 -0.6258
  233SOL    HW1  698   1.810   1.238   1.127  0.2141 -1.6499 -0.8558
  233SOL    HW2  699   1.765   1.174   1.283 -2.2668 -0.0860  1.3772
  234SOL     OW  700   1.625   2.545   1.839  0.7666  1.0046 -0.1932
  234SOL    HW1  701   1.592   2.603   1.922  0.8198  0.8356  0.0750
  234SOL    HW2  702   1.553   2.476   1.810 -0.1016 -2.0533 -2.0986
  235SOL     OW  703   0.023   2.965   2.875 -0.3600 -0.4746  0.1790
  235SOL    HW1  704  -0.024   2.982   2.783  0.7774  1.2862 -2.5358
  235SOL    HW2  705  -0.025   3.004   2.954 -0.0204 -2.6829 -2.4656
  236SOL     OW  706   2.909   0.671   0.112  0.7381 -0.6977 -0.3261
  236SOL    HW1  707   2.976   0.715   0.179  1.4387 -0.1303  0.6629
  236SOL    HW2  708   2.958   0.602   0.055 -0.0161  0.8263  1.7826
  237SOL     OW  709   1.466   1.648   0.953 -0.1049  0.0865 -0.2208
  237SOL    HW1  710   1.562   1.619   0.965  0.1201  1.8516  2.1278
  237SOL    HW2  711   1.440   1.722   1.026 -2.4130 -0.3320  0.0606
  238SOL     OW  712   1.882   1.230   0.753  0.0109 -0.3992 -0.1863
  238SOL    HW1  713   1.928   1.242   0.847 -3.4571 -0.2090 -2.5178
  238SOL    HW2  714   1.788   1.274   0.760 -0.6201  1.4922  1.1075
  239SOL     OW  715   2.046   0.288   2.765 -0.1699 -0.4707 -0.4311
  239SOL    HW1  716   2.076   0.256   2.863 -2.2715  0.5879  1.9841
  239SOL    HW2  717   1.984   0.369   2.768 -1.8938 -1.6396  0.3211
  240SOL     OW  718   0.925   0.691   0.221 -0.1724  0.3049  0.4195
  240SOL    HW1  719   0.988   0.609   0.222  0.1276  2.4212  0.4418
  240SOL    HW2  720   0.926   0.723   0.317  2.6758 -1.5296 -2.0200
  241SOL     OW  721   0.585   0.080   0.393 -0.0550  0.0713 -0.0996
  241SOL    HW1  722   0.648   0.150   0.339  1.0469  1.9585  0.5468
  241SOL    HW2  723   0.576  -0.011   0.344 -0.6250 -0.6101 -2.1768
  242SOL     OW  724   0.619   2.563   1.185  0.1127 -0.4497  0.5117
  242SOL    HW1  725   0.645   2.528   1.280 -0.7390 -1.5115  0.4470
  242SOL    HW2  726   0.616   2.669   1.172 -2.3259  1.2261  0.9455
  243SOL     OW  727   1.035   0.543   2.405 -0.4678  0.4815 -0.7097
  243SOL    HW1  728   0.963   0.609   2.384 -0.6693 -1.2120  2.2221
  243SOL    HW2  729   1.018   0.502   2.498  0.8570  1.2439  1.4276
  244SOL     OW  730   2.765   1.889   2.368 -0.3015  0.4225  0.3307
  244SOL    HW1  731   2.787   1.843   2.275  0.3591  0.1167 -1.5441
  244SOL    HW2  732   2.669   1.867   2.402 -0.2246 -0.9446 -0.0367
  245SOL     OW  733   2.173   0.925   2.177  0.2152  0.3676  0.0715
  245SOL    HW1  734   2.247   0.895   2.240 -1.6264 -1.4173 -0.5153
  245SOL    HW2  735   2.128   1.011   2.211 -2.2457  0.3455 -1.2706
  246SOL     OW  736   0.226   2.877   1.737  0.0142 -0.5183  0.6913
  246SOL    HW1  737   0.145   2.869   1.665 -2.0220 -2.6076 -2.0234
  246SOL    HW2  738   0.290   2.956   1.709 -0.7417 -0.3186  2.9326
  247SOL     OW  739   2.237   0.634   3.027 -0.0662 -0.2077  0.5807
  247SOL    HW1  740   2.285   0.611   2.933  0.8840 -1.8415  1.0391
  247SOL    HW2  741   2.166   0.710   3.010 -2.3276  1.6261  1.3072
  248SOL     OW  742   2.197   1.839   1.578  0.1576  0.2647  0.3575
  248SOL    HW1  743   2.268   1.790   1.632 -1.8891  2.9206 -1.4130
  248SOL    HW2  744   2.105   1.791   1.587 -4.1595  1.4997  1.5008
  249SOL     OW  745   1.948   1.877   1.845  0.4559 -0.3406 -0.7989
  249SOL    HW1  746   1.954   1.800   1.778 -1.3430  1.2149 -2.0879
  249SOL    HW2  747   2.043   1.903   1.881 -0.1425 -3.0268  0.0044
  250SOL     OW  748   1.105   0.723   1.885  0.4106  0.5405  0.2825
  250SOL    HW1  749   1.146   0.666   1.960  0.8465  0.4039 -1.4880
  250SOL    HW2  750   1.068   0.666   1.802  0.6841 -1.3633 -1.9039
  251SOL     OW  751   3.009   1.624   2.555  0.0627 -0.1553  0.2740
  251SOL    HW1  752   2.979   1.716   2.594  1.5141 -0.3217  1.8029
  251SOL    HW2  753   2.932   1.559   2.533  1.0530  0.2374  1.9159
  252SOL     OW  754   1.599   0.753   1.713  0.2920  0.4619  0.0316
  252SOL    HW1  755   1.697   0.744   1.677  0.1105 -1.8701 -2.3541
  252SOL    HW2  756   1.569   0.852   1.733 -1.8546  0.2054 -3.0927
  253SOL     OW  757   0.987   1.580   0.465  0.0686 -0.5575  0.5353
  253SOL    HW1  758   0.992   1.487   0.416 -1.1538  1.1285 -0.4982
  253SOL    HW2  759   0.901   1.580   0.525 -2.7013  0.7993  1.1155
  254SOL     OW  760   2.032   2.208   1.662 -0.1345  0.2778 -0.1847
  254SOL    HW1  761   1.993   2.117   1.629  0.8380 -0.8893  0.7594
  254SOL    HW2  762   1.959   2.264   1.713  1.9297  1.1227 -0.6819
  255SOL     OW  763   0.147   1.189   2.904 -0.1994  0.1956 -0.0072
  255SOL    HW1  764   0.178   1.286   2.901 -1.1287 -1.2481 -2.0837
  255SOL    HW2  765   0.200   1.125   2.972  2.9740 -2.4456  1.5332
  256SOL     OW  766   2.840   1.382   1.867  0.0038 -0.2748  0.1485
  256SOL    HW1  767   2.788   1.466   1.827 -2.3805 -0.7480  0.0293
  256SOL    HW2  768   2.826   1.294   1.815  1.0494 -1.2984 -1.5947
  257SOL     OW  769   0.796   0.133   1.752  0.1654 -0.1967  0.6775
  257SOL    HW1  770   0.853   0.221   1.747 -0.4419 -1.0906 -0.4868
  257SOL    HW2  771   0.861   0.043   1.750  2.6352 -2.1676 -1.5825
  258SOL     OW  772   2.975   1.222   0.492 -0.1851 -0.1089 -0.6032
  258SOL    HW1  773   2.888   1.247   0.539  1.5948 -2.1583  3.1202
  258SOL    HW2  774   3.055   1.216   0.558  1.5534  1.5974  0.3266
  259SOL     OW  775   0.388   2.904   3.039 -0.1670  0.7442  0.0743
  259SOL    HW1  776   0.354   2.847   3.119  0.1006  0.7858 -2.2024
  259SOL    HW2  777   0.408   2.844   2.961 -1.0951  0.0628 -0.0050
  260SOL     OW  778   2.730   0.734   2.795  1.0126  0.2674 -0.5047
  260SOL    HW1  779   2.665   0.811   2.772 -1.8764  0.5281  0.0322
  260SOL    HW2  780   2.694   0.664   2.864  0.3432 -0.5914  1.1166
  261SOL     OW  781   2.691   1.261   1.283 -0.1039  0.0591 -0.1532
  261SOL    HW1  782   2.639   1.205   1.216  0.7275 -2.1370  3.8935
  261SOL    HW2  783   2.768   1.209   1.329  0.0462 -1.0109 -2.0767
  262SOL     OW  784   1.368   2.975   1.939  0.1796 -0.2429  0.3658
  262SOL    HW1  785   1.427   3.061   1.935 -1.0742  0.4151  1.4823
  262SOL    HW2  786   1.271   2.989   1.914  0.9383  1.4592  0.2236
  263SOL     OW  787   0.840   0.688   2.284 -0.3850 -0.3324 -0.0788
  263SOL    HW1  788   0.784   0.600   2.265  2.6391 -1.1995 -1.8592
  263SOL    HW2  789   0.863   0.726   2.190 -1.7072  3.4493 -1.1404
  264SOL     OW  790   2.260   0.794   0.440  0.2411 -0.8172  0.7593
  264SOL    HW1  791   2.245   0.733   0.359  0.7945 -0.0626  0.9651
  264SOL    HW2  792   2.346   0.847   0.422 -2.4729  0.8687  0.8610
  265SOL     OW  793   0.948   2.427   2.615  0.1680 -0.4028 -0.0895
  265SOL    HW1  794   1.022   2.472   2.665 -1.4313 -1.5764 -0.6438
  265SOL    HW2  795   0.910   2.339   2.666  0.0905  0.2927 -0.0739
  266SOL     OW  796   1.334   1.771   3.056  0.1835 -0.2477  0.1685
  266SOL    HW1  797   1.349   1.792   3.157 -2.5624  0.6621  0.5812
  266SOL    HW2  798   1.415   1.738   3.001 -0.8808 -0.5810  0.1138
  267SOL     OW  799   1.084   0.068   2.293  0.5861 -0.2615 -0.5160
  267SOL    HW1  800   1.012   0.004   2.254  0.2093 -1.3908 -0.5619
  267SOL    HW2  801   1.095   0.140   2.225  2.0010 -0.9185 -1.1433
  268SOL     OW  802   0.779   1.266   1.037  0.8400 -0.0102 -0.5095
  268SOL    HW1  803   0.724   1.283   1.125  1.5103 -2.9448  2.0942
  268SOL    HW2  804   0.800   1.348   0.987  0.0667 -0.0183 -0.3038
  269SOL     OW  805   2.362   2.507   1.589  0.2220  0.5400  0.1966
  269SOL    HW1  806   2.417   2.418   1.588  1.7780 -1.1993  2.1115
  269SOL    HW2  807   2.301   2.507   1.674 -0.7497 -4.2192  2.2127
  270SOL     OW  808   0.131   2.956   1.969  0.0949 -0.3099  0.2859
  270SOL    HW1  809   0.174   2.920   1.880  1.1889 -0.9894 -0.4096
  270SOL    HW2  810   0.116   2.883   2.042 -1.8902  1.6727  0.8657
  271SOL     OW  811   0.453   1.408   1.146  1.1730  0.4666 -0.3462
  271SOL    HW1  812   0.419   1.368   1.052 -0.3106 -2.6846 -0.3022
  271SOL    HW2  813   0.394   1.378   1.226  1.1967  1.7381 -0.7424
  272SOL     OW  814   1.988   2.996   1.958 -0.1683  0.8654  0.5261
  272SOL    HW1  815   1.886   2.964   1.936 -2.7615  0.8094  2.1683
  272SOL    HW2  816   2.061   2.986   1.882 -3.1861 -1.4369 -0.6097
  273SOL     OW  817   1.484   1.484   2.734 -0.0407  0.6118 -0.3176
  273SOL    HW1  818   1.398   1.439   2.695  0.6767 -1.1354  1.7048
  273SOL    HW2  819   1.521   1.440   2.820  2.0620  1.9192 -2.6369
  274SOL     OW  820   1.170   0.508   2.065  0.0439 -0.2766  0.1282
  274SOL    HW1  821   1.098   0.434   2.058 -3.1454 -0.8412 -0.3229
  274SOL    HW2  822   1.192   0.537   2.160  1.9431 -0.1031 -0.0972
  275SOL     OW  823   0.645   2.139   1.905 -0.3055  0.1240 -0.0841
  275SOL    HW1  824   0.627   2.225   1.958 -0.9206  2.4463 -0.2342
  275SOL    HW2  825   0.565   2.076   1.891  1.2115 -1.9457  2.7717
  276SOL     OW  826   2.180   1.084   2.799 -0.4828 -0.8461  0.5337
  276SOL    HW1  827   2.109   1.110   2.725 -1.1073  0.3087  0.4000
  276SOL    HW2  828   2.165   0.987   2.824  1.2795 -2.0789 -2.5128
  277SOL     OW  829   0.013   0.813   0.271 -0.9623  0.1215  0.1208
  277SOL    HW1  830   0.113   0.838   0.253 -0.9987 -1.2016 -1.7338
  277SOL    HW2  831   0.004   0.723   0.323 -1.8808 -0.4229  1.1016
  278SOL     OW  832   0.222   0.238   2.948  0.2469 -0.0449  0.4968
  278SOL    HW1  833   0.290   0.163   2.959  0.5821  0.4394 -0.7714
  278SOL    HW2  834   0.266   0.335   2.950  1.5953 -1.1015 -0.5747
  279SOL     OW  835   0.274   0.047   0.934  0.3304  0.6988  0.1206
  279SOL    HW1  836   0.268  -0.055   0.928 -0.1498 -1.7047  0.5224
  279SOL    HW2  837   0.348   0.090   0.876 -0.2422  0.0751  1.8811
  280SOL     OW  838   1.603   2.976   2.399  0.2661 -0.3525  0.2954
  280SOL    HW1  839   1.667   3.016   2.465 -0.3538  0.6004  0.2466
  280SOL    HW2  840   1.555   3.039   2.329  0.7294  0.7266  1.6008
  281SOL     OW  841   0.566   0.968   2.286  0.0997 -0.2104 -0.1280
  281SOL    HW1  842   0.580   0.885   2.225 -2.1776  0.2735 -2.8963
  281SOL    HW2  843   0.512   0.945   2.374 -0.2487 -0.9039  0.0649
  282SOL     OW  844   1.779   2.485   0.519  0.2916 -0.0132 -0.0199
  282SOL    HW1  845   1.712   2.407   0.495  0.6949 -1.0599  0.5555
  282SOL    HW2  846   1.754   2.568   0.466 -0.3481 -0.0397  2.1669
  283SOL     OW  847   1.159   0.943   0.763 -0.7961  0.1561 -0.1754
  283SOL    HW1  848   1.180   0.890   0.850 -0.5296 -2.0296 -0.1462
  283SOL    HW2  849   1.130   1.040   0.791  0.4411  0.6678  1.9320
  284SOL     OW  850   2.236   2.821   2.499 -0.2042  0.5263  0.1846
  284SOL    HW1  851   2.338   2.832   2.468  4.9023 -2.1816  0.8914
  284SOL    HW2  852   2.214   2.856   2.595  1.8741  1.3527 -1.1068
  285SOL     OW  853   1.394   0.006   2.563 -0.5413  0.5443  0.2216
  285SOL    HW1  854   1.453   0.029   2.478  0.2304  1.2298 -1.9729
  285SOL    HW2  855   1.294   0.033   2.561  0.6580  0.7107 -1.8533
  286SOL     OW  856   0.433   0.437   0.778  0.4036  0.1388  0.6291
  286SOL    HW1  857   0.418   0.365   0.852  2.7906 -1.0905 -0.8973
  286SOL    HW2  858   0.459   0.386   0.694 -1.5506 -0.5474 -0.3352
  287SOL     OW  859   0.071   1.298   2.594 -0.0765  0.5105  0.9769
  287SOL    HW1  860   0.037   1.226   2.658  2.6943 -1.0895  2.8010
  287SOL    HW2  861   0.091   1.383   2.639  1.1697 -2.6446  3.1722
  288SOL     OW  862   1.585   2.735   1.627 -0.6817  0.1797 -0.3780
  288SOL    HW1  863   1.617   2.664   1.698  1.9900 -1.6146  0.3996
  288SOL    HW2  864   1.591   2.697   1.527  0.8500 -0.8657  2.0857
  289SOL     OW  865   0.584   2.721   0.865  0.1109 -0.7218  0.0692
  289SOL    HW1  866   0.665   2.767   0.814 -0.0672  2.7848 -0.0444
  289SOL    HW2  867   0.581   2.753   0.962  2.6435  0.1448 -1.9745
  290SOL     OW  868   2.809   1.130   1.736 -0.5832  0.1778  0.1452
  290SOL    HW1  869   2.725   1.077   1.761 -0.3892  0.5915 -3.4721
  290SOL    HW2  870   2.885   1.117   1.804  2.6912 -2.0285 -0.6623
  291SOL     OW  871   1.963   3.083   0.039 -0.3431 -0.0449  0.0366
  291SOL    HW1  872   1.996   3.115   0.136 -1.0410  1.1055  0.8161
  291SOL    HW2  873   2.018   3.138  -0.030 -0.2896  0.8538 -1.5601
  292SOL     OW  874   3.026   1.232   3.101 -0.1013 -0.2683 -0.1094
  292SOL    HW1  875   2.982   1.306   3.040  0.4654 -0.6190 -3.2042
  292SOL    HW2  876   3.127   1.205   3.072  0.6127 -1.1575 -0.1127
  293SOL     OW  877   0.590   2.132   0.277  0.6388 -0.4672  0.1046
  293SOL    HW1  878   0.542   2.201   0.339 -0.5547 -2.6089 -0.2087
  293SOL    HW2  879   0.685   2.109   0.307  1.2204  0.2727 -1.1601
  294SOL     OW  880   1.826   2.332   1.799  0.4935 -0.0554  0.7359
  294SOL    HW1  881   1.867   2.331   1.890 -1.6635  1.1973  2.7051
  294SOL    HW2  882   1.765   2.414   1.786  2.4114  0.9818 -0.1389
  295SOL     OW  883   0.984   1.056   0.446  0.1290  0.7037  0.3477
  295SOL    HW1  884   1.081   1.089   0.473 -2.3193  2.5258 -0.0738
  295SOL    HW2  885   0.944   1.002   0.523  0.1843 -0.6651 -0.0901
  296SOL     OW  886   1.193   2.131   2.746 -0.3898 -0.1713  0.4469
  296SOL    HW1  887   1.102   2.180   2.721 -1.6469  1.3243 -0.0752
  296SOL    HW2  888   1.231   2.061   2.675  2.8348  0.2835  1.5102
  297SOL     OW  889   1.353   0.572   1.290 -0.1559 -0.0764  0.1400
  297SOL    HW1  890   1.403   0.496   1.343  2.3279 -0.8529  1.7383
  297SOL    HW2  891   1.423   0.624   1.225  1.7602 -1.5514 -1.7255
  298SOL     OW  892   0.525   1.376   2.991  0.2473 -0.4576 -0.1252
  298SOL    HW1  893   0.500   1.299   3.057 -0.2906 -1.0386  0.2285
  298SOL    HW2  894   0.560   1.337   2.905 -0.9492 -1.3034  0.7851
  299SOL     OW  895   0.420   0.272   1.313 -0.2677 -0.3601  0.1344
  299SOL    HW1  896   0.379   0.363   1.284  1.4897  0.8639 -1.3513
  299SOL    HW2  897   0.370   0.223   1.387 -1.3331 -1.1596  2.0348
  300SOL     OW  898   1.269   1.729   2.579  0.1731 -0.2717  0.0071
  300SOL    HW1  899   1.232   1.646   2.535 -1.5721  2.2942 -0.7872
  300SOL    HW2  900   1.372   1.736   2.570 -0.1887 -2.0335 -0.0678
  301SOL     OW  901   0.430   0.273   0.511 -0.7789  0.4796  0.1328
  301SOL    HW1  902   0.329   0.261   0.540  0.7017 -2.5993  1.7802
  301SOL    HW2  903   0.472   0.177   0.482  0.0755  2.1167 -0.4975
  302SOL     OW  904   1.255   2.463   2.285  0.9264  0.1176 -0.4318
  302SOL    HW1  905   1.157   2.502   2.296  1.8673  2.1138 -0.9663
  302SOL    HW2  906   1.277   2.378   2.338 -0.3959 -1.8458 -2.2505
  303SOL     OW  907   0.940   2.418   0.804  0.1907 -0.6673 -0.3302
  303SOL    HW1  908   1.002   2.435   0.726 -2.6960 -0.4382 -2.6471
  303SOL    HW2  909   0.956   2.468   0.894 -1.9062 -1.0381  0.2907
  304SOL     OW  910   0.075   1.911   0.682  0.4323 -0.5620  0.0841
  304SOL    HW1  911   0.123   1.858   0.600  0.3611  2.0050 -0.0898
  304SOL    HW2  912   0.021   1.991   0.643 -0.4140  0.4204 -0.1143
  305SOL     OW  913   1.590   0.866   0.691 -0.0888 -0.1446 -0.4351
  305SOL    HW1  914   1.552   0.880   0.591 -2.0387  0.8357 -1.1871
  305SOL    HW2  915   1.652   0.789   0.716 -2.9185 -0.6560  0.0562
  306SOL     OW  916   0.424   1.939   1.900  0.0398 -0.2629  0.6094
  306SOL    HW1  917   0.501   1.875   1.865 -3.3528 -0.2537  0.0268
  306SOL    HW2  918   0.424   1.943   2.005 -1.2712 -1.9355 -0.8034
  307SOL     OW  919   3.045   0.887   2.481  0.5733  0.2583 -0.2375
  307SOL    HW1  920   3.067   0.951   2.561  0.1967  0.4398  0.1860
  307SOL    HW2  921   2.993   0.804   2.511  1.9258 -1.5550 -0.8518
  308SOL     OW  922   1.563   2.687   2.828 -0.8340  0.2120 -0.5205
  308SOL    HW1  923   1.563   2.649   2.727  2.8021 -1.2694 -1.1058
  308SOL    HW2  924   1.498   2.638   2.890 -1.5747  1.0595 -1.2078
  309SOL     OW  925   1.240   0.160   1.794 -0.3746 -0.0768  0.0462
  309SOL    HW1  926   1.334   0.119   1.810  1.9433  2.3131 -1.0248
  309SOL    HW2  927   1.224   0.185   1.697  0.1153  2.6612  1.1505
  310SOL     OW  928   1.501   2.590   0.675 -0.6005  0.2355  0.4059
  310SOL    HW1  929   1.455   2.597   0.762  0.5248  0.9163 -3.8742
  310SOL    HW2  930   1.590   2.650   0.663 -0.3124  0.0102  0.5066
  311SOL     OW  931   1.157   0.990   1.748  0.1641 -0.2241  0.5405
  311SOL    HW1  932   1.102   0.919   1.798 -0.3339  1.5448 -0.5885
  311SOL    HW2  933   1.189   0.960   1.656  0.2619  1.2355  2.5063
  312SOL     OW  934   1.542   0.665   1.110  0.0416  0.0977 -0.6662
  312SOL    HW1  935   1.559   0.769   1.125 -0.9094  0.4016  1.5213
  312SOL    HW2  936   1.543   0.637   1.008 -0.7784 -0.5236  0.9858
  313SOL     OW  937   1.634   1.334   0.733  0.4719 -0.3231  0.1603
  313SOL    HW1  938   1.565   1.322   0.807  2.2169 -2.0457  4.3660
  313SOL    HW2  939   1.620   1.268   0.657 -0.3936  1.0881  1.8347
  314SOL     OW  940   2.980   3.091   3.084 -0.2713  0.2303 -0.2555
  314SOL    HW1  941   3.008   3.111   3.184 -0.3670 -0.4495 -2.6497
  314SOL    HW2  942   2.884   3.053   3.078  1.5333  0.0993  2.5324
  315SOL     OW  943   1.169   0.244   2.755 -0.5262  0.0493  0.0878
  315SOL    HW1  944   1.132   0.168   2.694 -1.1770 -0.7517 -1.3449
  315SOL    HW2  945   1.208   0.210   2.846  0.0000 -1.5892 -1.6914
  316SOL     OW  946   1.724   2.091   0.895 -0.3094 -0.0863  0.1957
  316SOL    HW1  947   1.665   2.097   0.980 -4.4397  2.0157 -0.5538
  316SOL    HW2  948   1.760   2.185   0.868 -0.6338 -1.4023  2.5795
  317SOL     OW  949   1.147   0.636   2.764 -0.5285  0.2446  0.3958
  317SOL    HW1  950   1.093   0.693   2.836 -1.5741  0.1107 -1.1011
  317SOL    HW2  951   1.087   0.567   2.720  0.5668  0.2113  1.8927
  318SOL     OW  952   1.430   0.001   2.239 -0.4382  0.1076  0.0504
  318SOL    HW1  953   1.422   0.103   2.252 -0.5177 -1.9612  1.9564
  318SOL    HW2  954   1.345  -0.038   2.201  2.3690 -0.6328 -0.4230
  319SOL     OW  955   0.667   2.347   2.922  0.1309  0.4800  0.3466
  319SOL    HW1  956   0.626   2.296   3.003 -0.3561 -3.0526 -1.3552
  319SOL    HW2  957   0.742   2.292   2.871 -0.3009 -2.6599 -0.1379
  320SOL     OW  958   1.662   2.249   0.405  0.5827 -0.2333 -0.3189
  320SOL    HW1  959   1.741   2.179   0.379 -0.7117  2.6067  0.8769
  320SOL    HW2  960   1.578   2.198   0.444  2.1942  1.1717  1.1363
  321SOL     OW  961   1.682   2.769   0.561  0.5003  0.4659 -0.5616
  321SOL    HW1  962   1.598   2.805   0.511 -3.7414 -1.5159 -2.0524
  321SOL    HW2  963   1.775   2.803   0.529  0.2170  0.0749 -2.1852
  322SOL     OW  964   2.604   1.128   2.305  0.0342 -0.1411 -0.1239
  322SOL    HW1  965   2.681   1.140   2.377 -0.5806  3.0599  2.4841
  322SOL    HW2  966   2.552   1.039   2.313  0.6561  0.9110 -2.3720
  323SOL     OW  967   1.164   2.676   0.803  0.1675  1.0801  0.4157
  323SOL    HW1  968   1.145   2.610   0.724 -0.3229 -3.2784 -0.8749
  323SOL    HW2  969   1.107   2.757   0.816 -0.0510 -0.2948 -1.3607
  324SOL     OW  970   0.207   2.545   2.440 -0.1142 -0.3544 -0.3672
  324SOL    HW1  971   0.136   2.481   2.480  0.4457  0.6162 -1.0105
  324SOL    HW2  972   0.233   2.629   2.501 -1.5559  0.5426  1.0988
  325SOL     OW  973   1.210   3.019   0.459 -0.0931  0.3131  0.1559
  325SOL    HW1  974   1.229   3.055   0.360 -2.5882 -0.1821 -1.5115
  325SOL    HW2  975   1.218   3.102   0.523  1.6698  1.8918  0.3786
  326SOL     OW  976   2.470   0.774   3.090  0.4819 -0.2899 -0.4755
  326SOL    HW1  977   2.381   0.724   3.066 -3.0818 -0.5622 -0.1188
  326SOL    HW2  978   2.542   0.720   3.138 -2.0556 -1.5433 -0.5311
  327SOL     OW  979   2.798   0.289   0.525  0.2656 -0.4277 -0.7205
  327SOL    HW1  980   2.774   0.268   0.419  1.0493 -0.7172 -3.0321
  327SOL    HW2  981   2.793   0.209   0.595 -1.2743  0.6496  0.4182
  328SOL     OW  982   2.600   0.644   0.414 -0.9785  0.3028  0.1628
  328SOL    HW1  983   2.636   0.687   0.502 -0.3490 -1.3471  1.0477
  328SOL    HW2  984   2.565   0.548   0.429  3.8180 -1.8172 -0.7754
  329SOL     OW  985   2.927   2.995   2.094  0.1998  1.0078  0.1043
  329SOL    HW1  986   2.996   2.941   2.149  1.1644  2.0323 -1.2356
  329SOL    HW2  987   2.938   3.096   2.110  0.3773 -1.4520  1.2667
  330SOL     OW  988   0.594   0.214   1.924 -0.2258  0.6863 -0.2192
  330SOL    HW1  989   0.672   0.178   1.860  1.8108 -1.3790  0.4625
  330SOL    HW2  990   0.589   0.152   2.011 -0.1432 -0.4024 -0.9118
  331SOL     OW  991   3.026   1.897   1.117  0.3777 -0.5223 -0.0546
  331SOL    HW1  992   3.000   1.913   1.020 -0.2543  1.2630  3.3034
  331SOL    HW2  993   2.941   1.866   1.172 -1.0081  2.6325 -2.2281
  332SOL     OW  994   0.417   1.174   0.065  0.3054 -0.0835 -0.1094
  332SOL    HW1  995   0.343   1.107   0.040 -2.1519 -0.5316 -2.2332
  332SOL    HW2  996   0.419   1.199   0.162  3.9164 -0.9424  0.0329
  333SOL     OW  997   2.906   0.975   0.386 -0.8946 -0.5657  0.3239
  333SOL    HW1  998   2.939   1.057   0.441 -1.1548  2.6765  1.3409
  333SOL    HW2  999   2.991   0.941   0.325  1.5855 -2.3272 -0.1480
  334SOL     OW 1000   1.687   1.246   1.809  0.1057 -0.9951 -0.7755
  334SOL    HW1 1001   1.733   1.243   1.719 -2.0985 -1.4295 -0.0868
  334SOL    HW2 1002   1.739   1.209   1.890 -1.0402  2.0295  0.5089
  335SOL     OW 1003   1.955   2.741   2.621 -0.4839  0.2492  0.5976
  335SOL    HW1 1004   1.917   2.744   2.721 -0.0244  2.5348  1.8136
  335SOL    HW2 1005   2.054   2.780   2.611 -0.1649 -0.2088 -2.3151
  336SOL     OW 1006   0.255   0.007   2.715  0.7411 -0.3568  0.6763
  336SOL    HW1 1007   0.328   0.047   2.774  0.1405 -0.4594  0.9766
  336SOL    HW2 1008   0.171  -0.028   2.767  1.4118  1.1749 -0.9209
  337SOL     OW 1009   0.919   2.912   2.968 -0.2853 -0.0822 -0.0289
  337SOL    HW1 1010   0.910   2.806   2.995 -1.4657 -5.4387  0.6392
  337SOL    HW2 1011   1.006   2.950   3.004  0.5054 -0.3825  0.3154
  338SOL     OW 1012   0.026   0.957   0.660 -0.2512 -0.1111 -0.3365
  338SOL    HW1 1013  -0.058   0.942   0.717 -0.1065 -2.5287  0.4798
  338SOL    HW2 1014   0.061   1.056   0.663 -1.5749  0.3151  2.4425
  339SOL     OW 1015   1.662   1.351   2.163 -0.8007 -0.1468 -0.0388
  339SOL    HW1 1016   1.559   1.378   2.168  1.6248  2.5766 -3.3574
  339SOL    HW2 1017   1.725   1.434   2.187 -3.9249  0.3140  3.1871
  340SOL     OW 1018   2.230   0.792   1.173  0.4178  0.1977 -0.2715
  340SOL    HW1 1019   2.134   0.836   1.156 -1.1515  2.3207  1.0143
  340SOL    HW2 1020   2.238   0.694   1.144 -0.2096  1.2787  0.2294
  341SOL     OW 1021   1.899   2.085   0.350 -0.3631 -0.7844  0.3466
  341SOL    HW1 1022   1.911   2.105   0.246  0.1467  1.8897 -0.7538
  341SOL    HW2 1023   1.987   2.065   0.401 -0.5520 -0.2392 -1.0062
  342SOL     OW 1024   2.160   2.102   2.745 -0.3626 -0.6746 -0.2507
  342SOL    HW1 1025   2.218   2.019   2.770  2.1234 -0.7334 -1.8609
  342SOL    HW2 1026   2.063   2.077   2.709 -0.2277 -1.8750 -0.3658
  343SOL     OW 1027   0.418   0.778   2.753 -0.2563 -0.0466 -0.5406
  343SOL    HW1 1028   0.440   0.818   2.660 -3.0177  0.5841 -0.4611
  343SOL    HW2 1029   0.488   0.796   2.825  2.3468  0.8174 -0.5645
  344SOL     OW 1030   1.903   1.496   0.403  0.3300 -0.2390  0.4291
  344SOL    HW1 1031   1.916   1.422   0.332  0.9105 -0.8511  2.5236
  344SOL    HW2 1032   1.804   1.499   0.434 -0.0290  0.6345 -0.0943
  345SOL     OW 1033   1.396   2.239   2.868 -0.0695 -0.0421  0.0932
  345SOL    HW1 1034   1.307   2.205   2.829  0.4660  0.3408 -1.6507
  345SOL    HW2 1035   1.476   2.198   2.817  0.5864 -1.7500 -1.6787
  346SOL     OW 1036   2.352   0.900   1.401  0.2163  0.1850  0.0693
  346SOL    HW1 1037   2.296   0.972   1.446 -1.0358 -1.3705  0.3138
  346SOL    HW2 1038   2.304   0.863   1.318  0.3352 -2.0551 -0.7231
  347SOL     OW 1039   0.705   2.725   1.632 -0.3463  0.5165  0.5687
  347SOL    HW1 1040   0.634   2.735   1.712 -0.5316 -0.4153  2.8443
  347SOL    HW2 1041   0.662   2.738   1.541 -1.8485 -0.8019  2.2132
  348SOL     OW 1042   0.168   0.795   2.875 -0.1153  0.3155  0.2571
  348SOL    HW1 1043   0.088   0.757   2.822 -0.1500 -1.5118 -3.6203
  348SOL    HW2 1044   0.258   0.787   2.823  1.0514 -1.1161  0.5979
  349SOL     OW 1045   1.847   0.455   2.803  0.5587 -0.1320  0.2841
  349SOL    HW1 1046   1.832   0.538   2.741 -0.0380 -1.7928  1.6468
  349SOL    HW2 1047   1.826   0.471   2.903 -1.0183  1.9152 -0.3541
  350SOL     OW 1048   1.700   0.359   0.361  0.1958  0.1129  0.1467
  350SOL    HW1 1049   1.777   0.390   0.429  1.3913  0.2615 -1.3088
  350SOL    HW2 1050   1.645   0.440   0.327  1.6329 -2.0291 -0.9161
  351SOL     OW 1051   0.935   0.834   2.057 -0.0926 -0.6923 -0.4395
  351SOL    HW1 1052   0.959   0.930   2.083 -2.2774  0.6450  0.3146
  351SOL    HW2 1053   0.998   0.799   1.984  0.0673  4.4337  1.4309
  352SOL     OW 1054   2.072   1.354   0.578 -0.4598 -0.3199  0.2461
  352SOL    HW1 1055   2.022   1.418   0.517 -0.8172  0.1465  2.0592
  352SOL    HW2 1056   2.023   1.319   0.662 -2.4473 -1.3709 -2.9223
  353SOL     OW 1057   2.193   2.814   1.076 -0.2706  0.2077  0.4377
  353SOL    HW1 1058   2.218   2.727   1.133 -0.5035  1.9336  0.5228
  353SOL    HW2 1059   2.099   2.852   1.101  0.8707 -1.1604 -0.4299
  354SOL     OW 1060   0.284   1.438   2.864 -0.7328 -0.2302  0.0096
  354SOL    HW1 1061   0.278   1.522   2.801 -0.5029  1.6862  0.4811
  354SOL    HW2 1062   0.381   1.428   2.905  2.1415 -1.5709 -0.9907
  355SOL     OW 1063   0.745   1.596   0.611 -0.0709 -0.2811 -0.2643
  355SOL    HW1 1064   0.761   1.548   0.700  2.5750 -1.9107 -0.9977
  355SOL    HW2 1065   0.723   1.531   0.533  0.8913 -1.0320  0.4973
  356SOL     OW 1066   0.870   0.288   2.028  0.4323 -0.4408 -0.1688
  356SOL    HW1 1067   0.957   0.245   2.003 -1.1631 -0.1721  1.5479
  356SOL    HW2 1068   0.791   0.253   1.971  2.4201 -0.3644 -0.4816
  357SOL     OW 1069   1.005   1.340   0.367 -0.2204 -0.0476 -0.0712
  357SOL    HW1 1070   1.107   1.336   0.344  0.8096 -1.9440 -2.5699
  357SOL    HW2 1071   0.963   1.246   0.398  0.3888 -2.7349 -0.9184
  358SOL     OW 1072   1.629   1.530   0.519  0.3501  0.2708  0.4053
  358SOL    HW1 1073   1.609   1.465   0.601  1.6571 -1.4583  1.0863
  358SOL    HW2 1074   1.573   1.497   0.434  1.3892  1.3227 -3.6729
  359SOL     OW 1075   1.618   2.582   0.303  0.4777  0.3182  0.6867
  359SOL    HW1 1076   1.565   2.509   0.246  1.4526 -0.3634 -1.2828
  359SOL    HW2 1077   1.553   2.653   0.346 -0.7575 -0.2370 -0.3529
  360SOL     OW 1078   0.791   0.518   0.579  0.3652 -0.1412  0.2653
  360SOL    HW1 1079   0.711   0.541   0.513 -0.9157 -0.1940 -0.9305
  360SOL    HW2 1080   0.796   0.425   0.612 -1.1995  0.3379 -1.8367
  361SOL     OW 1081   1.330   1.273   0.627  0.4799  0.0786 -0.3032
  361SOL    HW1 1082   1.396   1.335   0.680  1.2261  0.5877  0.8539
  361SOL    HW2 1083   1.233   1.301   0.642 -0.7168  2.5317 -2.6200
  362SOL     OW 1084   1.376   1.767   0.713 -0.1181  0.3510  0.1510
  362SOL    HW1 1085   1.407   1.703   0.790  2.4747  0.5923 -0.2452
  362SOL    HW2 1086   1.453   1.787   0.646 -1.7190  1.1476 -2.6812
  363SOL     OW 1087   1.247   1.312   2.068  0.5955  0.1795  0.2475
  363SOL    HW1 1088   1.329   1.373   2.064 -0.6163 -2.0303 -0.6458
  363SOL    HW2 1089   1.168   1.361   2.110  2.6070  1.1575 -2.5976
  364SOL     OW 1090   0.541   2.356   2.042  0.5476 -0.4321  0.2843
  364SOL    HW1 1091   0.444   2.378   2.073  0.8221  0.9978  1.0723
  364SOL    HW2 1092   0.573   2.422   1.967 -1.5051 -0.7437  0.0039
  365SOL     OW 1093   1.033   1.992   1.334 -0.6438 -0.0957  0.2154
  365SOL    HW1 1094   0.935   2.001   1.371 -0.6607 -1.4584  1.6196
  365SOL    HW2 1095   1.051   2.047   1.246 -0.3775 -1.4660 -2.7711
  366SOL     OW 1096   2.854   1.954   0.340 -0.1364  0.7440 -0.5987
  366SOL    HW1 1097   2.777   1.909   0.294 -0.6636 -1.1132 -0.3002
  366SOL    HW2 1098   2.943   1.907   0.311 -0.7687 -1.3023 -0.0072
  367SOL     OW 1099   0.916   1.190   0.029 -0.5877  0.1663  0.4109
  367SOL    HW1 1100   0.925   1.103   0.081 -1.9292 -0.4105  0.9846
  367SOL    HW2 1101   1.005   1.243   0.030 -1.4792  1.0311 -3.3861
  368SOL     OW 1102   1.479   0.553   0.564  0.4454  0.6590 -0.1987
  368SOL    HW1 1103   1.384   0.594   0.539 -2.6149  0.9890 -1.1626
  368SOL    HW2 1104   1.548   0.629   0.569  0.2884  2.8565 -1.1843
  369SOL     OW 1105   0.400   1.723   0.164  0.3268  0.0275 -0.4393
  369SOL    HW1 1106   0.413   1.783   0.249 -1.0794 -1.7474 -0.8778
  369SOL    HW2 1107   0.343   1.635   0.177  2.3122 -2.1958 -0.7263
  370SOL     OW 1108   0.390   2.116   1.038 -0.9137  0.6868  0.1081
  370SOL    HW1 1109   0.391   2.219   1.024  0.9090  0.6486 -0.3794
  370SOL    HW2 1110   0.309   2.076   0.995  1.6592  0.2549  2.1008
  371SOL     OW 1111   2.878   2.230   2.654  0.2339  0.2851  0.4816
  371SOL    HW1 1112   2.813   2.157   2.688 -0.9751 -0.3693  2.4291
  371SOL    HW2 1113   2.906   2.297   2.726  1.6328  1.8060 -2.0227
  372SOL     OW 1114   1.065   2.104   1.097  0.4888  0.3874  1.0245
  372SOL    HW1 1115   0.980   2.127   1.041  2.0679  0.0461 -0.3042
  372SOL    HW2 1116   1.141   2.173   1.090  0.9188 -0.5147  3.4013
  373SOL     OW 1117   1.921   1.916   0.991 -0.5261  0.5974 -0.1598
  373SOL    HW1 1118   2.021   1.934   1.012 -1.2659  0.8457 -0.7738
  373SOL    HW2 1119   1.866   1.982   0.932  2.6729 -0.4997  0.1048
  374SOL     OW 1120   1.857   0.415   0.571  0.1755 -0.0976  0.0923
  374SOL    HW1 1121   1.849   0.379   0.672 -0.4360 -0.1752  0.4260
  374SOL    HW2 1122   1.951   0.395   0.543 -1.3239  1.5285  2.8233
  375SOL     OW 1123   2.395   2.199   1.104  0.5266 -0.0824  0.4252
  375SOL    HW1 1124   2.438   2.161   1.018  2.0829  1.6571  0.6171
  375SOL    HW2 1125   2.459   2.194   1.188 -0.4854 -1.0338 -1.3184
  376SOL     OW 1126   3.065   0.563   1.404  0.5358  0.3143  0.1741
  376SOL    HW1 1127   3.019   0.619   1.476 -1.9697  1.5396 -0.5123
  376SOL    HW2 1128   3.000   0.493   1.361 -0.9303  4.5058  0.6221
  377SOL     OW 1129   2.162   2.915   0.300 -0.1544 -0.9443 -0.3473
  377SOL    HW1 1130   2.191   3.015   0.307  1.5316 -0.2047 -3.1527
  377SOL    HW2 1131   2.233   2.854   0.348  0.6303 -0.8325 -0.8309
  378SOL     OW 1132   1.758   1.851   2.508  0.4550  0.9054 -0.6275
  378SOL    HW1 1133   1.826   1.874   2.431  1.7940 -0.4867 -3.6607
  378SOL    HW2 1134   1.715   1.761   2.485  1.4345 -0.5540  1.1422
  379SOL     OW 1135   0.740   0.151   2.816  0.1915  0.3959 -0.1052
  379SOL    HW1 1136   0.812   0.077   2.786  1.2073  0.4944 -4.5660
  379SOL    HW2 1137   0.725   0.227   2.751  0.8499 -1.5211  0.7202
  380SOL     OW 1138   1.571   1.142   0.533 -0.0521 -0.3094  0.0507
  380SOL    HW1 1139   1.471   1.168   0.531  0.3306  0.2951  0.8567
  380SOL    HW2 1140   1.580   1.054   0.588 -1.4263  0.6344 -1.3325
  381SOL     OW 1141   1.357   1.229   1.593 -0.0316  0.6405  0.4341
  381SOL    HW1 1142   1.407   1.159   1.532 -0.6187 -0.4722  2.2449
  381SOL    HW2 1143   1.417   1.291   1.654 -0.1306  4.0864  1.2525
  382SOL     OW 1144   1.825   0.894   0.231 -0.2425 -0.2864  0.0718
  382SOL    HW1 1145   1.868   0.853   0.145  1.4607  0.2182  0.6628
  382SOL    HW2 1146   1.878   0.859   0.315  0.0410 -0.9054 -0.7153
  383SOL     OW 1147   2.593   0.996   1.492 -0.1893 -0.0957  0.0398
  383SOL    HW1 1148   2.498   0.957   1.463  1.5491  1.3977  0.7972
  383SOL    HW2 1149   2.666   0.982   1.417  0.1431 -0.0359 -1.5688
  384SOL     OW 1150   0.862   2.232   0.153 -0.6996  0.2034 -0.1416
  384SOL    HW1 1151   0.840   2.329   0.188 -0.0418 -0.7430  2.2294
  384SOL    HW2 1152   0.835   2.157   0.219 -0.2323 -1.0464 -1.2052
  385SOL     OW 1153   2.956   2.002   1.661 -0.2867  0.3577  0.1842
  385SOL    HW1 1154   3.024   2.073   1.679  0.6911  1.9990  0.7752
  385SOL    HW2 1155   2.991   1.905   1.651 -2.2775  0.2757 -0.3389
  386SOL     OW 1156   0.471   1.068   0.468  0.3253 -0.3314  0.0631
  386SOL    HW1 1157   0.439   0.970   0.498 -0.8295 -1.6981  0.8269
  386SOL    HW2 1158   0.398   1.132   0.439  0.2900 -0.0343  0.2353
  387SOL     OW 1159   0.906   0.376   1.660 -0.2378 -0.8187  0.4995
  387SOL    HW1 1160   0.982   0.446   1.662  0.8284  1.6052  1.6974
  387SOL    HW2 1161   0.901   0.330   1.567  4.0634  0.7246  0.4525
  388SOL     OW 1162   1.191   2.731   1.739 -0.1143  0.0813 -0.1622
  388SOL    HW1 1163   1.210   2.755   1.641  1.2845  0.0787 -1.3203
  388SOL    HW2 1164   1.239   2.644   1.771  0.0856 -1.8187  0.1364
  389SOL     OW 1165   0.123   2.966   1.302  0.1853 -0.2220  1.1830
  389SOL    HW1 1166   0.030   2.999   1.265  0.6320 -2.0527 -2.1590
  389SOL    HW2 1167   0.131   2.865   1.301 -0.8320  2.7775  1.0829
  390SOL     OW 1168   1.061   0.973   1.314 -0.2984 -0.2150  0.5888
  390SOL    HW1 1169   1.150   0.933   1.352  0.9024 -0.1383  1.8720
  390SOL    HW2 1170   1.038   1.063   1.356  2.4544 -0.6959 -1.4770
  391SOL     OW 1171   2.175   1.113   1.083  0.0147  0.3768 -0.1849
  391SOL    HW1 1172   2.116   1.027   1.115 -0.1168 -2.6059  3.4181
  391SOL    HW2 1173   2.237   1.092   1.003 -1.3872 -1.7717 -0.1885
  392SOL     OW 1174   0.902   2.639   3.039  0.7499 -0.2942 -0.0824
  392SOL    HW1 1175   0.988   2.594   3.005 -1.5291 -0.8293  1.0981
  392SOL    HW2 1176   0.874   2.596   3.134 -0.2447  2.1475  0.9028
  393SOL     OW 1177   0.335   0.529   1.981 -0.1248 -0.1083 -0.4207
  393SOL    HW1 1178   0.293   0.432   1.993 -2.9934 -0.7272  2.3990
  393SOL    HW2 1179   0.399   0.531   1.903 -0.0747 -0.4458  2.6842
  394SOL     OW 1180   2.998   1.939   2.797  0.1440  0.0732  0.0551
  394SOL    HW1 1181   3.073   2.000   2.836  2.4935  0.3434  1.5283
  394SOL    HW2 1182   2.986   1.950   2.695  0.4926 -1.0666  1.8385
  395SOL     OW 1183   1.597   1.974   0.661  0.1766 -0.5123 -0.1729
  395SOL    HW1 1184   1.657   1.905   0.613 -0.6905 -0.0988  0.4241
  395SOL    HW2 1185   1.644   2.011   0.745 -1.4221 -1.3427 -0.5861
  396SOL     OW 1186   2.817   1.820   1.282 -0.1625 -0.7179  0.6806
  396SOL    HW1 1187   2.815   1.715   1.290  0.5304 -0.6006 -2.5942
  396SOL    HW2 1188   2.755   1.872   1.343 -1.1639 -2.3927 -0.6650
  397SOL     OW 1189   1.027   2.237   0.500  0.0404  0.2546 -0.2006
  397SOL    HW1 1190   0.950   2.194   0.555  0.2886 -0.1925  3.5931
  397SOL    HW2 1191   1.007   2.331   0.473 -0.7613 -1.2815  1.2362
  398SOL     OW 1192   2.159   0.001   1.008 -0.2910  0.0132  0.0682
  398SOL    HW1 1193   2.133  -0.074   1.076 -2.0145 -0.2900  0.7308
  398SOL    HW2 1194   2.084   0.070   0.999  0.8353  0.2673  0.6573
  399SOL     OW 1195   3.099   2.438   2.565  0.3113  0.0358  0.0807
  399SOL    HW1 1196   3.007   2.395   2.544 -3.1759  0.9731  0.6649
  399SOL    HW2 1197   3.125   2.419   2.660 -1.4989  0.8027 -1.7390
  400SOL     OW 1198   0.807   1.639   1.375 -0.1808  0.1276  0.3635
  400SOL    HW1 1199   0.714   1.653   1.426 -2.3456 -2.6313  0.9465
  400SOL    HW2 1200   0.827   1.714   1.307 -1.6876  0.1073  2.2176
  401SOL     OW 1201   1.861   0.104   1.256  0.0007 -0.0382 -0.0512
  401SOL    HW1 1202   1.917   0.110   1.341 -1.9081  1.4576 -1.6933
  401SOL    HW2 1203   1.763   0.128   1.282  2.7389  1.1117  0.8939
  402SOL     OW 1204   1.298   0.129   3.081 -0.0895 -0.1660 -0.5583
  402SOL    HW1 1205   1.395   0.101   3.047  0.0445  1.3267 -0.2479
  402SOL    HW2 1206   1.275   0.234   3.075  0.5866 -0.1425  1.7418
  403SOL     OW 1207   2.271   1.785   0.938  0.0825  0.1471 -0.4108
  403SOL    HW1 1208   2.376   1.767   0.959  2.4465  1.7007  0.5423
  403SOL    HW2 1209   2.242   1.877   0.980  0.7967  1.9838 -3.4134
  404SOL     OW 1210   0.183   2.483   2.821  0.5821  0.5766  0.2794
  404SOL    HW1 1211   0.275   2.457   2.779  0.1679 -0.0821  4.8583
  404SOL    HW2 1212   0.161   2.584   2.818  2.3579 -0.4451  0.5955
  405SOL     OW 1213   0.110   2.481   0.692 -0.7039  0.3420 -0.0928
  405SOL    HW1 1214   0.105   2.392   0.638 -1.7739 -1.0852 -0.1628
  405SOL    HW2 1215   0.206   2.509   0.684  2.3385 -2.3142  1.3713
  406SOL     OW 1216   0.073   1.528   3.051 -0.3114 -0.0041  0.1473
  406SOL    HW1 1217   0.146   1.497   2.983 -1.2479  1.0410  1.1709
  406SOL    HW2 1218   0.112   1.529   3.145 -0.4284 -1.9954  2.5102
  407SOL     OW 1219   1.543   0.952   1.005  0.4267  0.3539 -0.4242
  407SOL    HW1 1220   1.544   0.951   0.904 -1.3005 -0.4391  1.6825
  407SOL    HW2 1221   1.469   1.013   1.050 -1.0809  5.0564  1.2440
  408SOL     OW 1222   1.613   2.451   0.966  0.3976  0.2363 -0.2256
  408SOL    HW1 1223   1.656   2.431   0.875 -0.5266 -0.4512  1.0027
  408SOL    HW2 1224   1.555   2.538   0.967 -0.4520 -1.0355 -0.2784
  409SOL     OW 1225   0.640   0.821   0.759 -0.2696 -0.8074  0.0028
  409SOL    HW1 1226   0.584   0.819   0.670  0.5602 -0.4952 -0.2532
  409SOL    HW2 1227   0.640   0.732   0.820  1.7319 -0.7566  1.7549
  410SOL     OW 1228   1.312   2.028   1.389 -0.4492  0.5535 -0.3188
  410SOL    HW1 1229   1.381   1.972   1.436  0.5801  1.6979  0.9944
  410SOL    HW2 1230   1.224   1.976   1.371  3.7533  1.1648  2.3182
  411SOL     OW 1231   2.643   1.883   3.021  0.4633 -0.8080 -0.6843
  411SOL    HW1 1232   2.576   1.930   2.955 -0.6247 -1.2612 -0.3171
  411SOL    HW2 1233   2.711   1.823   2.973 -0.1148 -0.9590  0.2358
  412SOL     OW 1234   1.492   2.482   2.174  0.3530  0.1714 -0.0527
  412SOL    HW1 1235   1.504   2.576   2.130  1.2089 -0.0234 -1.2412
  412SOL    HW2 1236   1.400   2.459   2.214  0.9732 -0.0999 -1.1745
  413SOL     OW 1237   3.026   0.226   2.925  0.3853 -0.5161  0.7643
  413SOL    HW1 1238   2.970   0.147   2.960 -0.4344  0.7414  0.1552
  413SOL    HW2 1239   3.126   0.206   2.922 -0.5834  1.8312 -1.8165
  414SOL     OW 1240   1.893   1.558   1.197 -0.3816  0.3191 -0.0758
  414SOL    HW1 1241   1.809   1.619   1.201  1.5349 -0.7362 -0.0728
  414SOL    HW2 1242   1.868   1.468   1.148 -0.1907 -1.8229 -2.6179
  415SOL     OW 1243   0.357   2.240   0.742  0.2328  0.7046  0.4389
  415SOL    HW1 1244   0.368   2.333   0.784  2.0249  1.1669  3.8163
  415SOL    HW2 1245   0.270   2.185   0.771 -2.6688 -1.9708 -2.0745
  416SOL     OW 1246   0.369   1.071   1.053 -0.1791 -0.7547 -0.0507
  416SOL    HW1 1247   0.321   0.991   1.001 -1.6149 -2.5039 -1.1954
  416SOL    HW2 1248   0.456   1.106   1.004  2.2164  1.3815 -1.2919
  417SOL     OW 1249   2.238   2.310   1.999  0.2000  0.2252 -0.6582
  417SOL    HW1 1250   2.302   2.275   2.075 -0.6496  0.0264 -1.8318
  417SOL    HW2 1251   2.187   2.233   1.959  2.7023  1.7920 -0.0729
  418SOL     OW 1252   1.073   0.590   1.341 -0.4178  0.7955  0.3018
  418SOL    HW1 1253   1.026   0.550   1.256  2.6992 -2.1360 -1.4530
  418SOL    HW2 1254   1.172   0.580   1.327 -1.5293 -0.8071 -0.5038
  419SOL     OW 1255   0.981   0.509   2.967 -0.0709  0.2415 -0.8297
  419SOL    HW1 1256   0.951   0.518   2.867  1.7308 -0.8689  0.2473
  419SOL    HW2 1257   0.990   0.607   3.012  0.6533 -2.1352  1.4508
  420SOL     OW 1258   0.093   2.258   0.520 -0.1365  0.0025  0.1873
  420SOL    HW1 1259   0.162   2.226   0.451 -1.7192 -0.3463 -0.1933
  420SOL    HW2 1260   0.007   2.199   0.514  0.2878 -0.5921  1.0923
  421SOL     OW 1261   0.317   2.983   0.642  0.4258 -0.2295 -0.2561
  421SOL    HW1 1262   0.285   2.929   0.729 -0.3650 -0.8236  0.0330
  421SOL    HW2 1263   0.414   3.019   0.655  1.8269 -2.0905  0.3846
  422SOL     OW 1264   1.026   2.570   1.032 -0.1233  0.6838  0.1553
  422SOL    HW1 1265   1.113   2.598   0.986  0.9515  1.8332  0.6660
  422SOL    HW2 1266   1.026   2.572   1.136 -1.3141 -0.7983 -2.1502
  423SOL     OW 1267   0.139   0.716   1.269  0.2801  0.5041 -0.6597
  423SOL    HW1 1268   0.069   0.650   1.306 -0.0355 -0.2939 -2.2088
  423SOL    HW2 1269   0.088   0.785   1.214 -1.1487 -2.6760  1.7031
  424SOL     OW 1270   1.045   2.216   2.040  0.9022 -0.3351  0.2317
  424SOL    HW1 1271   1.056   2.318   2.047 -0.5365 -2.1165  1.0423
  424SOL    HW2 1272   1.033   2.175   2.133  2.9406  1.1400  0.0158
  425SOL     OW 1273   1.987   1.293   1.002  0.0088  0.3456  0.0988
  425SOL    HW1 1274   2.056   1.229   1.045 -0.2818 -1.1048 -0.3837
  425SOL    HW2 1275   2.022   1.386   0.963 -0.1720 -0.4215 -1.6946
  426SOL     OW 1276   1.526   1.604   1.377  0.1965 -0.1270 -0.2220
  426SOL    HW1 1277   1.503   1.672   1.308 -1.9624 -2.8472  1.7934
  426SOL    HW2 1278   1.463   1.606   1.464 -0.9674  0.1585  1.2313
  427SOL     OW 1279   1.943   2.337   2.067  0.1132 -0.6909 -0.3114
  427SOL    HW1 1280   2.009   2.272   2.111 -1.1574  0.6545 -2.2612
  427SOL    HW2 1281   1.967   2.440   2.081 -0.1862 -1.0730 -0.3193
  428SOL     OW 1282   0.891   3.046   0.158  0.1026 -0.5945 -0.1755
  428SOL    HW1 1283   0.872   3.112   0.079 -0.8041  1.3142 -2.1050
  428SOL    HW2 1284   0.987   2.995   0.152  1.6051 -0.5708  1.2932
  429SOL     OW 1285   1.325   0.082   0.254 -0.0004  0.1980  0.0093
  429SOL    HW1 1286   1.415   0.097   0.303 -0.0267  0.5966  2.4394
  429SOL    HW2 1287   1.329   0.111   0.154  1.2443  0.6263 -1.5982
  430SOL     OW 1288   2.832   1.415   0.305  0.9260 -0.0142 -0.3290
  430SOL    HW1 1289   2.892   1.472   0.244 -3.1197 -0.6451  0.4603
  430SOL    HW2 1290   2.833   1.446   0.408  0.7406  1.4203  1.9495
  431SOL     OW 1291   2.108   1.535   0.903 -0.4099 -0.5404  0.9460
  431SOL    HW1 1292   2.175   1.608   0.930 -0.1252  0.1876  0.2166
  431SOL    HW2 1293   2.027   1.582   0.853 -0.3819 -2.0402 -2.4242
  432SOL     OW 1294   2.913   2.251   1.158  0.6903 -0.0432 -0.1434
  432SOL    HW1 1295   2.831   2.194   1.181 -0.6090  3.5880 -1.9557
  432SOL    HW2 1296   2.974   2.278   1.239  0.2049  0.2639 -2.3868
  433SOL     OW 1297   1.822   0.316   0.817 -0.2960 -0.7459 -0.7133
  433SOL    HW1 1298   1.721   0.295   0.827  3.8820  0.8856 -2.3898
  433SOL    HW2 1299   1.885   0.258   0.878  3.5708 -0.2548 -1.5131
  434SOL     OW 1300   1.539   0.299   0.700  0.5419  0.1404 -0.1143
  434SOL    HW1 1301   1.538   0.362   0.618  1.1437  1.7419  2.4145
  434SOL    HW2 1302   1.531   0.349   0.794  0.7410  2.0607  0.0674
  435SOL     OW 1303   1.437   1.504   2.081 -0.1092  0.1543 -0.5963
  435SOL    HW1 1304   1.420   1.556   2.172  2.0296 -3.1388  0.3981
  435SOL    HW2 1305   1.472   1.561   2.007  0.1743 -1.4094  2.7899
  436SOL     OW 1306   1.697   2.734   2.287 -0.1401  0.1546  0.0930
  436SOL    HW1 1307   1.651   2.811   2.341  1.3915 -0.7432 -1.5881
  436SOL    HW2 1308   1.721   2.652   2.343  0.2082  0.3769  1.0131
  437SOL     OW 1309   1.107   2.922   0.939  0.3373 -0.4537 -0.5549
  437SOL    HW1 1310   1.052   2.998   0.893 -2.2299  0.2738  1.4912
  437SOL    HW2 1311   1.069   2.888   1.030  1.0751 -2.9053 -1.1642
  438SOL     OW 1312   0.985   2.607   1.326 -0.5025 -0.1639 -0.2350
  438SOL    HW1 1313   1.077   2.610   1.376  0.5684  1.8622  1.9404
  438SOL    HW2 1314   0.945   2.513   1.317  0.0074  2.8877  1.5773
  439SOL     OW 1315   0.694   1.769   1.116  0.7839  0.0214  0.2570
  439SOL    HW1 1316   0.672   1.855   1.060  1.2728  0.6691  2.1932
  439SOL    HW2 1317   0.619   1.744   1.187  0.6555 -1.8409  0.9360
  440SOL     OW 1318   1.038   2.534   1.948 -0.2145 -0.0058  0.0778
  440SOL    HW1 1319   0.981   2.550   1.866  2.4162  1.0043  0.6527
  440SOL    HW2 1320   1.137   2.535   1.924  0.2049  1.1688 -2.3426
  441SOL     OW 1321   0.524   2.726   1.418  0.7185  0.2265  0.1345
  441SOL    HW1 1322   0.552   2.629   1.436 -0.8992  3.5141 -0.7042
  441SOL    HW2 1323   0.422   2.739   1.416 -2.3168 -1.2026 -3.0102
  442SOL     OW 1324   2.254   0.735   2.494 -0.3495  0.3831 -0.3706
  442SOL    HW1 1325   2.265   0.642   2.537  1.5740  1.3241 -1.8772
  442SOL    HW2 1326   2.151   0.756   2.481 -1.0010  0.8441  1.0197
  443SOL     OW 1327   1.206   2.712   2.177 -0.4458 -0.2200  1.1313
  443SOL    HW1 1328   1.168   2.766   2.263 -0.5290  0.9786  1.0402
  443SOL    HW2 1329   1.269   2.633   2.194 -0.5974  2.3457 -0.1312
  444SOL     OW 1330   1.087   1.270   1.573 -0.2027  0.2497 -0.1544
  444SOL    HW1 1331   1.178   1.224   1.568 -1.3039 -1.2794 -1.5102
  444SOL    HW2 1332   1.090   1.363   1.617 -1.8870  1.4819 -3.6064
  445SOL     OW 1333   0.017   2.307   1.901 -0.1273 -0.6456  0.6732
  445SOL    HW1 1334   0.003   2.407   1.867  0.5395  0.9797  1.2466
  445SOL    HW2 1335  -0.053   2.287   1.978 -0.8501  0.7014  1.2862
  446SOL     OW 1336   0.197   1.897   2.317 -0.5513 -0.2776  0.1423
  446SOL    HW1 1337   0.161   1.965   2.382 -1.0334 -1.1610  1.0871
  446SOL    HW2 1338   0.141   1.875   2.233  1.2574 -2.5097 -0.7669
  447SOL     OW 1339   1.221   1.681   1.933  0.5901  0.1097 -0.1436
  447SOL    HW1 1340   1.154   1.747   1.888  2.0615 -0.0207 -0.0726
  447SOL    HW2 1341   1.322   1.699   1.914  2.1551  2.4812  2.0339
  448SOL     OW 1342   0.175   1.560   2.042  0.2414  0.0668 -0.2092
  448SOL    HW1 1343   0.176   1.642   1.986  0.1293 -0.4002  0.3621
  448SOL    HW2 1344   0.131   1.584   2.133 -1.0033  4.0444  0.8099
  449SOL     OW 1345   1.998   2.945   0.823  0.8694 -0.5073 -0.0901
  449SOL    HW1 1346   2.055   2.967   0.910 -0.5188  2.5476 -0.5032
  449SOL    HW2 1347   1.968   2.846   0.803 -0.9915  0.0397 -2.1636
  450SOL     OW 1348   2.323   1.340   0.775 -0.2437  0.7909  0.1331
  450SOL    HW1 1349   2.284   1.244   0.776  2.2683  0.5310  0.5804
  450SOL    HW2 1350   2.253   1.414   0.772  1.1960 -2.7852 -0.3154
  451SOL     OW 1351   1.394   0.013   1.447  0.2863  0.8152  0.3099
  451SOL    HW1 1352   1.317   0.077   1.477 -0.3534  1.3829  0.7310
  451SOL    HW2 1353   1.436  -0.038   1.532  0.7606  1.3652  0.2101
  452SOL     OW 1354   2.654   2.303   2.205 -0.0552 -0.1960  0.9699
  452SOL    HW1 1355   2.587   2.360   2.261  1.0492 -0.5203 -0.3682
  452SOL    HW2 1356   2.715   2.245   2.267 -0.6769 -0.4067 -0.7010
  453SOL     OW 1357   2.430   2.671   3.073 -0.0317 -0.6762  0.1622
  453SOL    HW1 1358   2.342   2.712   3.109  2.3917  0.1194  0.7383
  453SOL    HW2 1359   2.426   2.589   3.015 -0.4181  0.0861  1.9234
  454SOL     OW 1360   1.003   1.090   2.093 -0.4558  0.1371  0.4596
  454SOL    HW1 1361   0.975   1.119   1.993  2.7311  0.6523 -1.5546
  454SOL    HW2 1362   1.105   1.110   2.109 -0.4363 -1.5488  1.2830
  455SOL     OW 1363   0.665   2.614   2.891  0.5933  0.4563 -0.3720
  455SOL    HW1 1364   0.750   2.642   2.945  0.1539  1.5703  3.8461
  455SOL    HW2 1365   0.644   2.511   2.906 -0.6653  0.2018 -1.0854
  456SOL     OW 1366   0.493   1.882   0.387 -0.0405 -0.7035 -0.1919
  456SOL    HW1 1367   0.566   1.869   0.467  1.4826  1.5972  3.1458
  456SOL    HW2 1368   0.504   1.976   0.343  1.4986 -0.1686 -1.1722
  457SOL     OW 1369   0.373   2.606   0.720  0.2937  0.0671 -0.2832
  457SOL    HW1 1370   0.338   2.663   0.642  3.0113 -2.4137 -1.1917
  457SOL    HW2 1371   0.459   2.652   0.767  0.7273 -1.1705  2.2618
  458SOL     OW 1372   2.984   3.052   1.227  0.3595  0.1397  0.8845
  458SOL    HW1 1373   2.980   3.159   1.218 -0.4285  1.4893  2.3538
  458SOL    HW2 1374   2.976   3.012   1.131  3.7680  0.8053  0.9099
  459SOL     OW 1375   2.172   2.539   0.864 -0.4792  0.1313  0.6330
  459SOL    HW1 1376   2.181   2.625   0.922 -3.4435  0.5512  0.9230
  459SOL    HW2 1377   2.241   2.532   0.792  1.5246  1.7494  1.4275
  460SOL     OW 1378   1.145   1.947   2.937  0.0094  0.2712  0.1608
  460SOL    HW1 1379   1.176   2.014   2.867 -1.0564 -0.6258  0.3898
  460SOL    HW2 1380   1.225   1.910   2.987  1.1183 -0.1184 -0.2373
  461SOL     OW 1381   0.482   2.145   2.680  0.1367  0.4084  0.4064
  461SOL    HW1 1382   0.424   2.093   2.615  2.2013 -0.1933 -1.3876
  461SOL    HW2 1383   0.525   2.089   2.758  0.9838 -1.6315 -1.5821
  462SOL     OW 1384   0.936   1.165   1.841 -0.5056  0.6889 -0.2090
  462SOL    HW1 1385   1.007   1.115   1.781  4.4800 -0.5102  0.9355
  462SOL    HW2 1386   0.891   1.247   1.795  1.3671 -0.6254  1.3023
  463SOL     OW 1387   0.453   0.786   0.541 -0.2005  0.1365  0.1030
  463SOL    HW1 1388   0.493   0.704   0.495  2.7783  0.3123  0.0246
  463SOL    HW2 1389   0.349   0.774   0.543 -0.4039  1.9229  0.6640
  464SOL     OW 1390   0.599   2.229   2.292  0.1204  0.4287  0.3738
  464SOL    HW1 1391   0.550   2.310   2.336 -0.4713  0.7852 -1.5576
  464SOL    HW2 1392   0.628   2.249   2.198  0.8074 -2.1852  3.4050
  465SOL     OW 1393   0.282   0.909   0.837 -0.0755  0.4463  0.2604
  465SOL    HW1 1394   0.194   0.942   0.791  0.9172 -0.8406  0.6873
  465SOL    HW2 1395   0.295   0.808   0.826 -1.4593  0.6885  1.3232
  466SOL     OW 1396   1.366   1.111   1.146  0.2630 -0.6602 -0.6880
  466SOL    HW1 1397   1.419   1.195   1.180  1.0052  2.0792 -2.0286
  466SOL    HW2 1398   1.268   1.132   1.121  0.5713 -0.5974  4.1613
  467SOL     OW 1399   0.508   0.318   2.336  0.1650  0.1461  0.6443
  467SOL    HW1 1400   0.499   0.414   2.376  1.0254  0.4903 -0.3107
  467SOL    HW2 1401   0.500   0.239   2.404 -0.8806  1.6904  1.2873
  468SOL     OW 1402   0.433   2.320   1.670 -0.3295  0.1815 -0.2717
  468SOL    HW1 1403   0.476   2.384   1.739 -0.6146  0.7141 -0.9682
  468SOL    HW2 1404   0.428   2.361   1.572 -3.0427 -1.6517  0.4079
  469SOL     OW 1405   1.494   1.337   1.288 -0.0150  0.0656 -0.2426
  469SOL    HW1 1406   1.579   1.298   1.243 -2.5820 -2.1196  2.7214
  469SOL    HW2 1407   1.505   1.418   1.350 -2.2593  0.7925  0.2595
  470SOL     OW 1408   3.009   1.684   0.742 -0.5937 -0.0675 -0.5500
  470SOL    HW1 1409   3.089   1.748   0.729  1.9037 -0.3301 -0.3725
  470SOL    HW2 1410   2.937   1.708   0.815  2.7470  0.7436  1.8617
  471SOL     OW 1411   2.633   1.369   2.150  0.0835 -0.0879  0.4864
  471SOL    HW1 1412   2.611   1.288   2.212 -1.9926 -2.0610 -0.1832
  471SOL    HW2 1413   2.735   1.390   2.158 -1.4973 -0.8950  0.9124
  472SOL     OW 1414   1.116   2.461   3.055 -0.0418 -0.3429 -0.1950
  472SOL    HW1 1415   1.133   2.464   3.157 -3.5062  0.3776 -0.4176
  472SOL    HW2 1416   1.060   2.375   3.037 -0.7137  1.9715  0.1955
  473SOL     OW 1417   1.042   1.492   0.924 -0.5030 -0.0072 -0.1176
  473SOL    HW1 1418   0.941   1.513   0.950  1.8716 -1.2494  2.5501
  473SOL    HW2 1419   1.100   1.473   1.006  2.8203 -2.5778 -0.4155
  474SOL     OW 1420   0.772   1.229   0.609  1.0016 -0.2916 -0.3415
  474SOL    HW1 1421   0.762   1.220   0.506 -1.8015 -0.3783 -0.2729
  474SOL    HW2 1422   0.801   1.141   0.655 -0.8100 -0.5981 -2.7183
  475SOL     OW 1423   2.821   0.147   0.768 -0.4018 -0.3860  0.7560
  475SOL    HW1 1424   2.904   0.149   0.832 -1.8835  0.9792  0.0226
  475SOL    HW2 1425   2.734   0.161   0.825 -0.3078 -0.1390 -1.2953
  476SOL     OW 1426   0.912   2.991   1.788  0.3931  0.5724 -0.2032
  476SOL    HW1 1427   0.981   2.965   1.867 -2.4317 -1.1385  1.3266
  476SOL    HW2 1428   0.942   2.949   1.695 -0.0353 -1.8728  1.1117
  477SOL     OW 1429   1.421   0.334   2.487 -0.1477 -0.0994 -0.0571
  477SOL    HW1 1430   1.437   0.350   2.589 -1.6237  0.6330 -0.9825
  477SOL    HW2 1431   1.485   0.268   2.438  1.3324  1.3445 -2.5769
  478SOL     OW 1432   2.257   1.825   0.240  0.1460 -0.2095 -0.0655
  478SOL    HW1 1433   2.199   1.736   0.221 -1.6453  2.3600 -0.5318
  478SOL    HW2 1434   2.359   1.815   0.243  0.6862 -0.7392 -0.2663
  479SOL     OW 1435   1.256   1.065   2.892 -0.8753 -0.3298 -0.3853
  479SOL    HW1 1436   1.315   1.044   2.810 -2.4360  0.8468 -4.2363
  479SOL    HW2 1437   1.158   1.069   2.866  1.3718 -3.5057 -3.7773
  480SOL     OW 1438   2.522   2.301   0.380  0.5825  0.0812 -0.2968
  480SOL    HW1 1439   2.475   2.222   0.434 -0.6718 -0.7393 -0.1748
  480SOL    HW2 1440   2.482   2.328   0.290  2.3758 -0.1906  0.7448
  481SOL     OW 1441   1.049   1.186   0.829  0.2152  0.0162  0.2723
  481SOL    HW1 1442   1.049   1.277   0.776  1.0561 -0.4657 -2.8626
  481SOL    HW2 1443   1.063   1.193   0.934  0.0729  0.2906  1.0895
  482SOL     OW 1444   1.594   0.326   2.030 -0.0238 -0.0639  0.1769
  482SOL    HW1 1445   1.597   0.426   1.991  1.6256  2.5036 -1.8212
  482SOL    HW2 1446   1.679   0.271   2.009 -2.8229  1.7080  0.5751
  483SOL     OW 1447   0.197   2.387   1.272  0.1912  0.1111  0.1908
  483SOL    HW1 1448   0.106   2.385   1.324 -0.3814  1.0955  1.3511
  483SOL    HW2 1449   0.184   2.419   1.171  0.1497 -1.0545 -0.6098
  484SOL     OW 1450   1.693   0.978   1.389  0.4363  0.0909  0.3153
  484SOL    HW1 1451   1.755   0.893   1.386  0.6711  1.6135  0.6057
  484SOL    HW2 1452   1.736   1.048   1.451 -0.3304 -1.4289  0.7738
  485SOL     OW 1453   0.656   1.085   1.804  0.1557 -0.1565 -0.5675
  485SOL    HW1 1454   0.667   1.062   1.704  2.0245  2.1166  3.4273
  485SOL    HW2 1455   0.733   1.145   1.847  1.8527  0.7471 -0.8953
  486SOL     OW 1456   0.955   1.943   2.480 -0.1847  0.1278  0.6120
  486SOL    HW1 1457   1.007   1.908   2.564  3.0777  1.2309 -0.3337
  486SOL    HW2 1458   0.855   1.974   2.503 -1.0216  2.4158 -1.3944
  487SOL     OW 1459   1.735   1.547   0.903 -0.8309 -0.2083 -0.4679
  487SOL    HW1 1460   1.711   1.493   0.824  1.4260  1.8323  1.2277
  487SOL    HW2 1461   1.818   1.609   0.888 -2.1253 -0.0911  0.2957
  488SOL     OW 1462   2.953   0.902   2.220 -0.1650  0.6431 -0.4539
  488SOL    HW1 1463   3.013   0.834   2.171  0.4607  0.7605  0.3151
  488SOL    HW2 1464   2.953   0.891   2.324  0.4059  0.0383 -2.6179
  489SOL     OW 1465   2.778   0.248   1.296  0.8273  0.0319 -0.2420
  489SOL    HW1 1466   2.759   0.185   1.382 -0.8852 -1.1774  1.3490
  489SOL    HW2 1467   2.874   0.245   1.258 -2.5850 -0.2284 -1.2112
  490SOL     OW 1468   1.445   2.940   2.801 -0.2088  0.2686  0.2256
  490SOL    HW1 1469   1.516   2.867   2.794 -1.3627  2.2861  1.6308
  490SOL    HW2 1470   1.439   2.987   2.712 -1.0752 -1.8383  0.4602
  491SOL     OW 1471   1.783   1.481   2.676  0.0232  0.5030 -0.0198
  491SOL    HW1 1472   1.762   1.511   2.773 -2.4017 -1.7288  0.6300
  491SOL    HW2 1473   1.891   1.482   2.660  0.7802 -0.7297  0.6582
  492SOL     OW 1474   0.526   2.044   0.687  0.4195  0.2725  0.5032
  492SOL    HW1 1475   0.571   2.008   0.774  0.8299  0.9948 -0.3826
  492SOL    HW2 1476   0.456   2.122   0.702  1.7954  4.1093  2.1370
  493SOL     OW 1477   0.440   1.411   2.043 -0.2258  0.1476 -0.0080
  493SOL    HW1 1478   0.358   1.476   2.043  0.2088  1.2191 -0.0820
  493SOL    HW2 1479   0.432   1.349   2.125  0.7280 -0.4624  0.4383
  494SOL     OW 1480   2.637   2.696   0.163  0.4810 -0.2265 -0.3168
  494SOL    HW1 1481   2.634   2.636   0.246  1.4781  0.4754 -0.3706
  494SOL    HW2 1482   2.560   2.676   0.094 -1.8372  0.8026 -0.7933
  495SOL     OW 1483   2.728   2.652   2.690 -0.0363 -0.4510 -0.0189
  495SOL    HW1 1484   2.656   2.581   2.665 -1.9656 -1.3229  1.5564
  495SOL    HW2 1485   2.743   2.721   2.615 -0.1702 -1.5210  0.4907
  496SOL     OW 1486   2.026   2.170   0.709 -0.2075  0.0058 -0.0512
  496SOL    HW1 1487   2.047   2.203   0.802 -2.8264 -0.0420 -1.5119
  496SOL    HW2 1488   2.103   2.110   0.672  1.7521 -2.0635  0.5984
  497SOL     OW 1489   0.196   2.964   2.403  0.1879  0.1578 -0.3053
  497SOL    HW1 1490   0.156   3.046   2.455 -1.2375 -0.4152  1.0517
  497SOL    HW2 1491   0.243   2.991   2.313 -1.5088 -1.6081 -0.0720
  498SOL     OW 1492   1.213   1.449   1.170 -0.1619 -0.0799 -0.4787
  498SOL    HW1 1493   1.315   1.436   1.201  2.4211  0.6168 -0.3610
  498SOL    HW2 1494   1.173   1.547   1.184  1.2830 -0.2615 -3.2620
  499SOL     OW 1495   0.737   1.856   0.545  0.7106  0.5254 -0.0032
  499SOL    HW1 1496   0.737   1.751   0.526 -0.5579 -1.5576  0.9903
  499SOL    HW2 1497   0.800   1.887   0.621 -0.1888 -1.5487  1.2567
  500SOL     OW 1498   1.453   2.974   1.676 -0.2901 -0.1477  1.1585
  500SOL    HW1 1499   1.426   2.980   1.775  0.0675  1.1038  0.6686
  500SOL    HW2 1500   1.508   2.885   1.661 -1.6785 -1.8642  0.9256
  501SOL     OW 1501   0.814   1.117   2.295 -0.9003 -0.0855 -0.2546
  501SOL    HW1 1502   0.715   1.091   2.281  1.3694 -3.9565  1.3169
  501SOL    HW2 1503   0.875   1.117   2.213 -0.6395  1.6345  0.3422
  502SOL     OW 1504   2.597   0.940   1.755 -0.4986  0.0091 -0.1107
  502SOL    HW1 1505   2.592   0.975   1.655 -2.2510 -1.7544 -1.1631
  502SOL    HW2 1506   2.528   0.867   1.779 -2.4033 -0.5495  2.7935
  503SOL     OW 1507   1.298   0.118   0.615  0.3346  0.0319 -0.5110
  503SOL    HW1 1508   1.237   0.189   0.656 -0.1485 -0.1874 -3.8311
  503SOL    HW2 1509   1.392   0.153   0.619 -2.9151 -1.7176  0.4657
  504SOL     OW 1510   3.033   2.315   1.414 -0.0273 -0.4834  0.1208
  504SOL    HW1 1511   2.993   2.385   1.483  0.6803  4.7037  1.5386
  504SOL    HW2 1512   3.091   2.238   1.449 -0.6287  0.2528 -3.0355
  505SOL     OW 1513   2.261   1.172   1.515 -0.0157 -0.2669 -0.6199
  505SOL    HW1 1514   2.279   1.221   1.429 -1.8937  0.2527  1.7604
  505SOL    HW2 1515   2.333   1.198   1.588  0.3522  1.1034 -0.0880
  506SOL     OW 1516   1.999   0.218   1.755  0.0358 -0.3025 -0.2688
  506SOL    HW1 1517   2.056   0.135   1.764 -3.2759 -0.6530  1.8333
  506SOL    HW2 1518   2.023   0.299   1.819 -2.5034  1.2671 -1.5600
  507SOL     OW 1519   0.538   0.677   2.166 -0.0256 -0.5891 -0.3476
  507SOL    HW1 1520   0.451   0.672   2.117  1.9551  2.0929  1.9231
  507SOL    HW2 1521   0.592   0.586   2.149 -0.3385  0.6530  0.6627
  508SOL     OW 1522   0.253   1.618   0.910  0.1945 -0.2548  0.1287
  508SOL    HW1 1523   0.353   1.630   0.914  0.1765  0.5529 -0.1957
  508SOL    HW2 1524   0.203   1.676   0.980 -1.6014 -1.5443 -1.5231
  509SOL     OW 1525   1.346   1.254   2.394  0.1787 -0.0001  0.9937
  509SOL    HW1 1526   1.294   1.190   2.463 -1.5886 -3.2280  4.2645
  509SOL    HW2 1527   1.411   1.194   2.339 -1.8153  1.3446  1.2545
  510SOL     OW 1528   1.282   2.019   2.061 -0.2097 -0.5631  0.4229
  510SOL    HW1 1529   1.210   2.089   2.040 -1.2672  1.0236 -1.7155
  510SOL    HW2 1530   1.252   1.943   2.127  1.3929 -0.1441 -1.0520
  511SOL     OW 1531   3.060   2.670   1.333 -0.4100 -0.3049 -0.7032
  511SOL    HW1 1532   3.047   2.667   1.229 -4.9422 -0.4249  1.6997
  511SOL    HW2 1533   2.978   2.630   1.382 -0.5687 -2.1692  1.1769
  512SOL     OW 1534   2.360   0.423   1.391  0.6486  0.2405 -0.2039
  512SOL    HW1 1535   2.255   0.410   1.397 -1.6102  1.3390  4.4454
  512SOL    HW2 1536   2.404   0.365   1.318 -1.2482  0.1539 -0.2075
  513SOL     OW 1537   2.475   2.026   0.863 -0.2264 -0.4820  0.1663
  513SOL    HW1 1538   2.410   2.089   0.816  0.8759 -1.3956  1.0556
  513SOL    HW2 1539   2.551   2.001   0.794  1.4585 -0.6169 -0.6522
  514SOL     OW 1540   0.599   2.806   0.472  0.2451 -0.0512 -1.1014
  514SOL    HW1 1541   0.610   2.875   0.392  0.1092  1.8425 -0.5031
  514SOL    HW2 1542   0.632   2.841   0.566 -0.0657  1.0118 -2.1156
  515SOL     OW 1543   2.021   1.139   2.254  0.6763 -0.1573  0.0543
  515SOL    HW1 1544   1.965   1.142   2.171 -1.0506  2.1641  2.3293
  515SOL    HW2 1545   1.967   1.170   2.331 -1.8623 -0.8823 -2.9458
  516SOL     OW 1546   0.278   0.268   1.953  0.2090  0.4546 -0.0345
  516SOL    HW1 1547   0.372   0.256   1.914  0.3981  1.2377  1.1322
  516SOL    HW2 1548   0.199   0.226   1.895  1.5395 -0.7133 -0.9083
  517SOL     OW 1549   0.385   3.037   1.183 -0.9093  0.0206  0.3196
  517SOL    HW1 1550   0.436   3.125   1.206 -2.7400 -1.6194  2.2280
  517SOL    HW2 1551   0.281   3.033   1.206 -0.0165  1.0865  1.5747
  518SOL     OW 1552   2.176   3.084   1.750 -0.6220 -0.3883 -0.2021
  518SOL    HW1 1553   2.243   3.167   1.761 -0.1315  0.2529 -0.6304
  518SOL    HW2 1554   2.206   3.014   1.682 -2.1227  1.6185  0.8247
  519SOL     OW 1555   2.383   2.227   2.580  0.7744 -0.3816 -0.1452
  519SOL    HW1 1556   2.308   2.209   2.647  1.7578  1.3835 -0.9211
  519SOL    HW2 1557   2.438   2.306   2.612 -1.4036 -0.7801  0.2277
  520SOL     OW 1558   1.743   2.870   1.872  0.2987 -0.3361 -0.3306
  520SOL    HW1 1559   1.644   2.850   1.878 -0.7625  0.7849 -0.4336
  520SOL    HW2 1560   1.800   2.790   1.844 -0.7388  0.3326 -0.4157
  521SOL     OW 1561   0.560   3.081   2.130  0.5493  0.1582 -0.3282
  521SOL    HW1 1562   0.455   3.086   2.141 -0.1983 -0.3471  2.1578
  521SOL    HW2 1563   0.611   3.096   2.222 -0.5706  0.9907  1.8103
  522SOL     OW 1564   0.204   1.897   1.448 -0.0471  0.4531  0.6100
  522SOL    HW1 1565   0.237   1.953   1.530 -0.6890 -1.4260  1.1903
  522SOL    HW2 1566   0.159   1.955   1.372  0.0747  1.4959  4.3049
  523SOL     OW 1567   2.253   2.908   1.553  0.1767 -0.2539  0.3799
  523SOL    HW1 1568   2.329   2.839   1.539 -0.4144 -0.4876 -0.8424
  523SOL    HW2 1569   2.160   2.871   1.525 -2.6369 -0.4850  0.5652
  524SOL     OW 1570   0.187   2.763   2.767 -0.2850 -0.6510 -0.3093
  524SOL    HW1 1571   0.139   2.841   2.816  3.7645 -0.0015 -0.4643
  524SOL    HW2 1572   0.291   2.780   2.755 -1.3672  2.1461 -0.5965
  525SOL     OW 1573   2.155   1.956   0.486  0.0286 -0.1912  0.1671
  525SOL    HW1 1574   2.172   1.904   0.576  1.6227 -0.0892 -2.1316
  525SOL    HW2 1575   2.192   1.902   0.405  1.8310 -0.8984  2.3467
  526SOL     OW 1576   0.406   1.514   1.632  0.7138 -0.4033 -0.5423
  526SOL    HW1 1577   0.343   1.508   1.716  2.5002 -2.2639  3.0600
  526SOL    HW2 1578   0.461   1.426   1.610 -1.1071  0.4813 -1.6202
  527SOL     OW 1579   1.085   2.965   1.262 -0.1198 -0.0759  0.3935
  527SOL    HW1 1580   1.175   2.925   1.294 -1.5376 -0.6886 -0.8773
  527SOL    HW2 1581   1.089   3.072   1.250  0.9684  1.1162 -1.7842
  528SOL     OW 1582   1.356   2.407   0.510 -0.3625 -0.1495 -0.0226
  528SOL    HW1 1583   1.381   2.309   0.533  2.0577 -0.1041 -0.9280
  528SOL    HW2 1584   1.417   2.478   0.554 -0.5308  1.5923 -1.6134
  529SOL     OW 1585   1.922   1.727   0.799 -0.5697 -0.7987  0.6712
  529SOL    HW1 1586   1.870   1.743   0.713 -0.1662 -2.4264  2.3942
  529SOL    HW2 1587   1.911   1.805   0.865  0.8969  1.7206  0.5911
  530SOL     OW 1588   0.283   2.489   0.323 -0.0126 -0.5595  0.4728
  530SOL    HW1 1589   0.276   2.571   0.390  1.2755  0.6669  2.3023
  530SOL    HW2 1590   0.345   2.417   0.364 -1.6522  0.7519  0.7815
  531SOL     OW 1591   1.805   1.021   0.994 -0.3692  0.0100 -0.0147
  531SOL    HW1 1592   1.843   0.999   0.903 -0.3051 -0.8405 -0.0228
  531SOL    HW2 1593   1.710   0.977   1.011  0.6075  1.7690 -0.2377
  532SOL     OW 1594   0.506   1.073   0.798  0.1384 -0.6577  0.0623
  532SOL    HW1 1595   0.577   1.063   0.725 -0.8708 -0.4288  0.7839
  532SOL    HW2 1596   0.426   1.008   0.791 -3.3622  1.5479  0.2657
  533SOL     OW 1597   1.764   0.014   2.581  0.1219 -0.3471 -0.4747
  533SOL    HW1 1598   1.861  -0.026   2.589  0.7299  1.1687 -1.0753
  533SOL    HW2 1599   1.743   0.091   2.650 -1.4915  0.1146 -0.5304
  534SOL     OW 1600   0.339   0.203   1.618  0.8721 -0.5080 -0.2182
  534SOL    HW1 1601   0.436   0.234   1.612 -0.6885  0.0486 -3.2054
  534SOL    HW2 1602   0.272   0.278   1.613  1.3112 -1.9277  1.2621
  535SOL     OW 1603   1.967   0.333   0.136 -0.3374 -0.0723 -0.0729
  535SOL    HW1 1604   1.970   0.423   0.192  0.6512  1.2760  3.5682
  535SOL    HW2 1605   1.941   0.249   0.199 -1.7904 -1.9890  0.6823
  536SOL     OW 1606   1.401   2.640   0.948 -0.2708  0.3841  0.2125
  536SOL    HW1 1607   1.384   2.611   1.051 -0.0805  1.7708  0.0426
  536SOL    HW2 1608   1.316   2.658   0.893  1.8617 -0.5458 -1.5035
  537SOL     OW 1609   0.813   0.302   2.400 -0.4688 -0.0064 -0.0495
  537SOL    HW1 1610   0.802   0.349   2.308  1.1768  0.2647  0.2000
  537SOL    HW2 1611   0.809   0.198   2.390 -0.0824  0.6452  1.8055
  538SOL     OW 1612   1.674   2.316   1.466  0.0936 -0.1992 -0.7204
  538SOL    HW1 1613   1.672   2.219   1.431 -0.6431 -0.0777  0.3728
  538SOL    HW2 1614   1.764   2.359   1.446 -0.6630 -3.9102 -0.3241
  539SOL     OW 1615   0.161   1.644   2.679 -0.0145  0.0764 -0.4185
  539SOL    HW1 1616   0.073   1.622   2.632  0.0076 -1.1528  2.1258
  539SOL    HW2 1617   0.161   1.720   2.750 -0.7669 -0.6813 -0.2253
  540SOL     OW 1618   2.656   1.754   1.920  0.1144  0.7691  0.0507
  540SOL    HW1 1619   2.591   1.679   1.954  1.6956  1.5680 -0.5932
  540SOL    HW2 1620   2.599   1.844   1.919 -1.1150 -2.7718  0.2486
  541SOL     OW 1621   0.523   2.189   0.011  0.4662 -0.1423 -0.0371
  541SOL    HW1 1622   0.564   2.176   0.105  1.6440 -0.4723 -1.0196
  541SOL    HW2 1623   0.422   2.163   0.012 -2.0774  0.2895  0.3660
  542SOL     OW 1624   2.218   2.566   0.417 -0.3993  0.4699 -0.2051
  542SOL    HW1 1625   2.145   2.640   0.409 -1.7519  0.3650 -0.9558
  542SOL    HW2 1626   2.173   2.480   0.459 -1.1998  1.0933 -1.1589
  543SOL     OW 1627   1.124   1.808   1.556 -0.4178  0.1531 -0.2208
  543SOL    HW1 1628   1.082   1.795   1.651 -1.3296  1.7243  2.1417
  543SOL    HW2 1629   1.102   1.902   1.519  1.6648 -1.7943  0.5138
  544SOL     OW 1630   1.104   0.464   0.179  0.1783  0.4216  0.2184
  544SOL    HW1 1631   1.085   0.373   0.235 -0.3278 -1.7768 -2.2428
  544SOL    HW2 1632   1.111   0.451   0.075 -0.7423  1.6222 -1.4869
  545SOL     OW 1633   1.121   1.762   0.798  0.3763  0.3278 -0.8678
  545SOL    HW1 1634   1.213   1.766   0.753 -1.7478  0.7653  1.2695
  545SOL    HW2 1635   1.096   1.670   0.840  2.5741  2.3675  0.1319
  546SOL     OW 1636   2.640   1.528   3.026 -0.0735  0.2655 -0.5101
  546SOL    HW1 1637   2.634   1.598   2.953  0.6709 -1.6134  3.2539
  546SOL    HW2 1638   2.550   1.480   3.051  0.4379  0.1527 -0.3696
  547SOL     OW 1639   0.627   3.003   2.606 -0.2221  0.3485 -0.2792
  547SOL    HW1 1640   0.705   3.034   2.665 -1.2044  0.3055 -1.0429
  547SOL    HW2 1641   0.558   2.938   2.647 -1.6961 -3.4378  0.1037
  548SOL     OW 1642   2.091   0.863   2.982  0.2011 -0.3995 -0.3751
  548SOL    HW1 1643   1.989   0.832   2.988 -2.7769  1.1767  0.5654
  548SOL    HW2 1644   2.105   0.957   3.024 -0.2985  0.3133 -0.0133
  549SOL     OW 1645   0.664   0.586   0.191 -0.1061  0.6653  0.1023
  549SOL    HW1 1646   0.606   0.604   0.106  0.5446 -1.2948  0.5532
  549SOL    HW2 1647   0.750   0.629   0.203 -2.6650 -0.4637  0.0077
  550SOL     OW 1648   2.616   2.791   2.910 -0.1786 -0.1617  0.4523
  550SOL    HW1 1649   2.557   2.734   2.971 -0.0287  0.4092 -1.7545
  550SOL    HW2 1650   2.653   2.746   2.820 -0.3747 -0.8545  0.3642
  551SOL     OW 1651   0.277   0.879   0.268 -0.2397  0.7362  0.2177
  551SOL    HW1 1652   0.381   0.885   0.261  1.4558  2.0697  2.5841
  551SOL    HW2 1653   0.251   0.846   0.367  0.9652  0.6098  1.7767
  552SOL     OW 1654   0.625   2.991   1.872  0.2994  0.1924 -0.8838
  552SOL    HW1 1655   0.634   3.013   1.974  0.3764  0.7837 -3.4504
  552SOL    HW2 1656   0.718   2.999   1.828 -0.4573  0.7216 -0.0335
  553SOL     OW 1657   2.898   2.442   0.357 -0.2080 -0.4989  0.0828
  553SOL    HW1 1658   2.869   2.354   0.409 -0.4180  1.9866 -2.6238
  553SOL    HW2 1659   2.819   2.510   0.368 -0.3312  1.0101  4.1772
  554SOL     OW 1660   2.122   0.346   0.523 -0.1054 -0.6178 -0.4543
  554SOL    HW1 1661   2.170   0.311   0.437 -1.7634 -1.4076 -0.9181
  554SOL    HW2 1662   2.131   0.288   0.607 -2.5780 -0.5593  1.8131
  555SOL     OW 1663   0.366   2.778   2.507 -0.0345  0.5856  0.1579
  555SOL    HW1 1664   0.302   2.851   2.469 -0.7047 -2.6244  3.7053
  555SOL    HW2 1665   0.438   2.745   2.439  1.7743 -0.2605 -0.0178
  556SOL     OW 1666   0.857   2.348   1.553  0.3678 -0.3704  0.1875
  556SOL    HW1 1667   0.913   2.428   1.589 -2.1300 -0.8014 -1.2473
  556SOL    HW2 1668   0.891   2.321   1.456 -0.2785 -3.4615 -0.6648
  557SOL     OW 1669   0.145   2.012   0.241 -0.1292 -0.2523  0.2850
  557SOL    HW1 1670   0.060   2.027   0.181  1.7373 -1.6703 -0.2934
  557SOL    HW2 1671   0.236   2.041   0.194 -0.1964 -2.4930  0.8595
  558SOL     OW 1672   2.773   2.206   0.432 -0.5454  0.1713  0.0949
  558SOL    HW1 1673   2.680   2.245   0.401 -0.1688 -0.6681 -0.5746
  558SOL    HW2 1674   2.797   2.112   0.389 -2.1107  1.4189  0.0405
  559SOL     OW 1675   0.436   2.324   1.398  0.0638  0.2814 -0.4576
  559SOL    HW1 1676   0.349   2.341   1.337 -1.0044 -0.8731 -2.0150
  559SOL    HW2 1677   0.484   2.234   1.373 -0.2343  0.3342  1.0490
  560SOL     OW 1678   2.113   1.124   3.087  0.0803  0.2334  0.0456
  560SOL    HW1 1679   2.164   1.142   3.173  0.3090 -1.4223  1.5809
  560SOL    HW2 1680   2.174   1.143   3.006  1.0448 -0.8238  1.2713
  561SOL     OW 1681   3.103   1.864   0.011  0.0095 -0.6986  0.4150
  561SOL    HW1 1682   3.092   1.826   0.109  0.6954 -3.1604  0.8897
  561SOL    HW2 1683   3.039   1.944  -0.021  1.6902  3.4805 -0.2848
  562SOL     OW 1684   1.018   2.169   2.310  0.2361  0.3709  0.5990
  562SOL    HW1 1685   0.999   2.258   2.346  2.2555 -2.7560 -3.4269
  562SOL    HW2 1686   0.989   2.085   2.363 -0.6529  1.6529 -0.3314
  563SOL     OW 1687   0.696   2.534   2.631 -0.0076 -0.3492 -0.3776
  563SOL    HW1 1688   0.777   2.470   2.610 -0.5121 -1.6424  2.1989
  563SOL    HW2 1689   0.690   2.567   2.732 -1.8796 -1.3449  0.4955
  564SOL     OW 1690   2.856   1.385   2.913  0.3909  0.4886  0.1882
  564SOL    HW1 1691   2.766   1.395   2.964 -0.9734  0.3920  0.2870
  564SOL    HW2 1692   2.905   1.474   2.896  0.2152 -1.7238  0.8202
  565SOL     OW 1693   2.487   1.991   2.655 -0.4598 -0.0956  0.1184
  565SOL    HW1 1694   2.460   2.079   2.606  2.6481 -3.7500 -2.1071
  565SOL    HW2 1695   2.573   2.009   2.710 -3.0490  0.3123  1.2513
  566SOL     OW 1696   1.990   2.870   1.475 -0.1236 -0.2163  0.0267
  566SOL    HW1 1697   1.957   2.770   1.491  0.0446  0.9325 -1.1707
  566SOL    HW2 1698   1.980   2.897   1.375  0.1926 -2.3538  1.1402
  567SOL     OW 1699   2.420   3.081   2.356  0.5521  0.4326 -0.6158
  567SOL    HW1 1700   2.324   3.093   2.397 -0.6233 -1.4409 -1.4264
  567SOL    HW2 1701   2.415   3.079   2.254  4.6115 -0.8453  1.8578
  568SOL     OW 1702   1.538   1.809   0.255  0.0430  0.0882  0.3879
  568SOL    HW1 1703   1.484   1.889   0.217 -1.0895 -0.7861  0.7428
  568SOL    HW2 1704   1.641   1.826   0.262  0.1953  3.4829  0.3121
  569SOL     OW 1705   0.269   0.643   0.787 -0.0363 -0.5174 -0.0307
  569SOL    HW1 1706   0.334   0.569   0.740 -1.8904 -0.9254 -1.9962
  569SOL    HW2 1707   0.171   0.605   0.791 -2.7287 -0.3514  2.6362
  570SOL     OW 1708   0.650   0.862   2.917  0.2343  0.1291 -0.9239
  570SOL    HW1 1709   0.707   0.863   2.831 -0.9357  3.0227  2.1022
  570SOL    HW2 1710   0.652   0.953   2.968 -1.3500  0.0682  0.8645
  571SOL     OW 1711   0.801   3.100   1.103  0.4610  0.6171  0.7488
  571SOL    HW1 1712   0.850   3.126   1.019  1.1485 -0.0577  1.6665
  571SOL    HW2 1713   0.808   3.004   1.133 -1.4784  0.8896  0.0821
  572SOL     OW 1714   1.622   2.662   1.373 -0.4930  0.1359  0.5645
  572SOL    HW1 1715   1.619   2.578   1.313 -1.6831 -2.6344 -0.9675
  572SOL    HW2 1716   1.622   2.755   1.321 -0.5114 -0.2445 -1.5041
  573SOL     OW 1717   2.975   0.488   2.016  0.9437 -0.0554 -0.4708
  573SOL    HW1 1718   2.885   0.444   2.045 -0.4371  0.6923  1.3456
  573SOL    HW2 1719   3.013   0.451   1.929 -1.6122  0.4664  3.6035
  574SOL     OW 1720   0.161   1.762   1.115  0.1153  0.2030  0.3774
  574SOL    HW1 1721   0.217   1.768   1.199  0.4295  1.3541 -0.4279
  574SOL    HW2 1722   0.088   1.834   1.114 -0.3743 -0.1518  0.5221
  575SOL     OW 1723   0.845   2.182   0.963  0.2004 -0.3084 -0.1176
  575SOL    HW1 1724   0.813   2.228   1.047 -1.6912 -3.0333 -2.1087
  575SOL    HW2 1725   0.863   2.242   0.878 -0.6915  0.9446 -1.6063
  576SOL     OW 1726   2.862   2.979   1.673  0.8837  0.2498  0.3137
  576SOL    HW1 1727   2.761   2.980   1.691 -0.5452 -2.4650 -0.4315
  576SOL    HW2 1728   2.907   3.065   1.643  0.2791 -1.1751 -1.0537
  577SOL     OW 1729   2.619   1.203   0.005  0.3792  0.4554  0.2228
  577SOL    HW1 1730   2.640   1.129  -0.066  2.7816  2.3592 -3.0945
  577SOL    HW2 1731   2.668   1.200   0.095  0.2052  2.8167  0.6880
  578SOL     OW 1732   1.396   2.779   2.474 -0.3300  0.6480 -0.0585
  578SOL    HW1 1733   1.296   2.812   2.466  0.6212  0.9202  2.8320
  578SOL    HW2 1734   1.465   2.846   2.436 -0.0161  2.5547 -0.6103
  579SOL     OW 1735   0.006   2.470   0.180 -0.3417  0.5221 -0.6203
  579SOL    HW1 1736  -0.066   2.436   0.249  0.3297 -3.2684 -2.1018
  579SOL    HW2 1737   0.096   2.494   0.223 -2.0029  0.5125  0.0804
  580SOL     OW 1738   0.981   2.643   0.377  0.6698  0.2034  0.3452
  580SOL    HW1 1739   1.054   2.649   0.299 -0.3469 -0.3601  0.1399
  580SOL    HW2 1740   0.894   2.595   0.344 -1.5504 -0.0948 -2.9716
  581SOL     OW 1741   1.230   2.645   1.437  0.5027 -0.0008 -0.2561
  581SOL    HW1 1742   1.293   2.572   1.482  1.9023  1.8977  1.5773
  581SOL    HW2 1743   1.270   2.740   1.422 -0.3000 -1.5419  1.2473
  582SOL     OW 1744   1.500   0.115   1.883  0.3642 -0.2427  0.4366
  582SOL    HW1 1745   1.503   0.191   1.954  0.2279 -0.8081 -0.6866
  582SOL    HW2 1746   1.580   0.115   1.818 -2.8341  3.9396  0.6205
  583SOL     OW 1747   2.428   3.067   0.533  0.1626 -0.0683 -0.1150
  583SOL    HW1 1748   2.517   3.028   0.502 -0.8640 -1.1329  3.0618
  583SOL    HW2 1749   2.361   2.988   0.551  1.5071 -1.4325 -1.9392
  584SOL     OW 1750   1.575   1.097   2.270  0.6166  0.1240  0.1652
  584SOL    HW1 1751   1.647   1.170   2.251  4.0263  1.1533 -1.5765
  584SOL    HW2 1752   1.628   1.003   2.267  1.8068 -1.1542 -0.5560
  585SOL     OW 1753   2.102   2.659   2.884 -0.1169  0.1931  0.0402
  585SOL    HW1 1754   2.125   2.555   2.868 -0.6949  0.3070 -0.6561
  585SOL    HW2 1755   2.004   2.683   2.898 -1.4036 -0.7832  1.1839
  586SOL     OW 1756   2.889   0.382   1.555  0.2476  0.7274 -0.5516
  586SOL    HW1 1757   2.876   0.472   1.596  3.1935 -0.1508  0.5507
  586SOL    HW2 1758   2.828   0.357   1.472  1.8032 -0.0109 -0.2449
  587SOL     OW 1759   2.065   1.486   2.647  0.0511 -0.2276  0.1248
  587SOL    HW1 1760   2.133   1.426   2.596 -1.1977 -1.7561 -0.5846
  587SOL    HW2 1761   2.100   1.512   2.743  0.8686  0.1138  1.0189
  588SOL     OW 1762   0.504   2.718   2.265  0.5750 -0.0743  0.2112
  588SOL    HW1 1763   0.426   2.741   2.203  0.1829  0.2129 -0.4194
  588SOL    HW2 1764   0.514   2.617   2.295 -1.1184  3.3314  2.0409
  589SOL     OW 1765   2.196   1.286   2.477 -0.0108 -0.2550  0.0851
  589SOL    HW1 1766   2.166   1.214   2.409  1.1711  0.2447 -0.2033
  589SOL    HW2 1767   2.297   1.285   2.488  1.2162 -0.3077  1.3627
  590SOL     OW 1768   2.331   1.768   2.044  0.3827  0.6558  0.2556
  590SOL    HW1 1769   2.399   1.685   2.035  3.3611 -2.0788  0.2659
  590SOL    HW2 1770   2.327   1.795   2.148  1.8012 -1.2619  3.3757
  591SOL     OW 1771   1.233   2.437   0.220 -0.2161 -0.4510 -0.4668
  591SOL    HW1 1772   1.244   2.345   0.173 -1.9052  2.9706  1.8205
  591SOL    HW2 1773   1.269   2.436   0.320  0.3558  1.6147  2.3359
  592SOL     OW 1774   1.792   2.340   0.750  0.4493 -0.3270  0.6473
  592SOL    HW1 1775   1.772   2.397   0.663  2.4688  1.3366 -1.1608
  592SOL    HW2 1776   1.878   2.281   0.737 -2.6251 -0.9564  1.6432
  593SOL     OW 1777   0.707   0.270   0.226  0.1696 -0.4799  0.0954
  593SOL    HW1 1778   0.761   0.245   0.141 -1.0261 -0.2224 -2.3396
  593SOL    HW2 1779   0.694   0.374   0.219  0.6684  0.2912  0.7627
  594SOL     OW 1780   1.055   1.834   2.703  0.1621  0.2981  0.5289
  594SOL    HW1 1781   1.139   1.789   2.661  0.2730 -0.7306 -3.2694
  594SOL    HW2 1782   1.075   1.858   2.799 -2.1191 -1.3662  1.2451
  595SOL     OW 1783   1.575   0.079   0.989  0.0357  0.6330 -0.0557
  595SOL    HW1 1784   1.643   0.004   0.963 -1.9133  0.4063 -0.9906
  595SOL    HW2 1785   1.478   0.056   0.967  1.6464  2.9291  0.3548
  596SOL     OW 1786   0.034   1.552   2.298  0.1701 -0.2105  0.0270
  596SOL    HW1 1787   0.078   1.463   2.315 -0.5437  0.5748 -3.0684
  596SOL    HW2 1788  -0.019   1.581   2.381  1.4528  0.9947  2.6407
  597SOL     OW 1789   1.917   2.681   1.802 -0.0796  0.2227 -0.0522
  597SOL    HW1 1790   1.891   2.681   1.700  2.3801 -0.9266  0.5041
  597SOL    HW2 1791   2.004   2.621   1.814  1.4353  1.6807  1.3283
  598SOL     OW 1792   2.547   2.899   1.218  0.2514 -0.1467 -0.1462
  598SOL    HW1 1793   2.620   2.939   1.278  1.4836 -1.3246  0.7085
  598SOL    HW2 1794   2.573   2.878   1.119 -0.4259 -0.4848 -1.2421
  599SOL     OW 1795   2.865   0.308   2.469 -0.6969  0.1065 -0.0683
  599SOL    HW1 1796   2.944   0.295   2.399 -1.8984 -3.0772 -0.6734
  599SOL    HW2 1797   2.796   0.385   2.439  2.1350  3.5727  2.2781
  600SOL     OW 1798   2.827   1.168   2.737  0.0710  0.8797  0.8382
  600SOL    HW1 1799   2.745   1.106   2.763 -2.7279  1.2840 -1.3126
  600SOL    HW2 1800   2.852   1.243   2.804  2.8195 -0.6717  2.5085
  601SOL     OW 1801   3.086   1.338   2.010 -0.0330 -0.1806 -0.0478
  601SOL    HW1 1802   2.997   1.387   1.985 -2.0596  2.2609  1.9231
  601SOL    HW2 1803   3.163   1.402   2.030 -2.1412 -1.7124 -2.5096
  602SOL     OW 1804   1.445   1.634   2.305  0.0178 -0.8218  0.1197
  602SOL    HW1 1805   1.366   1.587   2.353 -0.7712 -1.4454 -0.4497
  602SOL    HW2 1806   1.539   1.604   2.333  1.3767  0.4376 -0.5939
  603SOL     OW 1807   0.684   1.173   2.755 -0.1419  0.0618 -0.4846
  603SOL    HW1 1808   0.589   1.177   2.713 -0.4116 -0.8185  1.3443
  603SOL    HW2 1809   0.752   1.105   2.713 -2.2977  0.8634 -2.2605
  604SOL     OW 1810   2.437   1.006   0.156  0.2159  0.2754 -0.5349
  604SOL    HW1 1811   2.502   1.086   0.149  0.4696 -1.6362  4.1116
  604SOL    HW2 1812   2.460   0.928   0.088  1.2144 -0.7939 -0.2246
  605SOL     OW 1813   2.495   1.190   1.985 -0.2193  0.0048 -0.2460
  605SOL    HW1 1814   2.544   1.107   1.952 -1.3710  0.0885  0.7137
  605SOL    HW2 1815   2.556   1.265   2.024  1.8945  0.6941  1.1651
  606SOL     OW 1816   1.499   2.548   2.555 -0.5615  0.3171 -0.0188
  606SOL    HW1 1817   1.473   2.644   2.539 -1.3823 -0.9450  1.8987
  606SOL    HW2 1818   1.436   2.479   2.509  0.6589 -0.9053  0.1600
  607SOL     OW 1819   1.364   1.584   0.310  0.2590  0.4519 -0.1366
  607SOL    HW1 1820   1.278   1.642   0.339 -1.0022  1.3925  0.8397
  607SOL    HW2 1821   1.446   1.646   0.289 -0.8858 -1.7593  0.7473
  608SOL     OW 1822   1.446   2.832   0.399 -0.1144  0.4346  0.2402
  608SOL    HW1 1823   1.478   2.871   0.308  0.8370 -0.0178  2.0770
  608SOL    HW2 1824   1.390   2.903   0.451 -1.8501  1.6433 -3.3687
  609SOL     OW 1825   1.295   1.347   0.198  0.4228 -0.1740 -0.2235
  609SOL    HW1 1826   1.317   1.439   0.240  1.1738  0.5225 -1.7951
  609SOL    HW2 1827   1.286   1.353   0.088  0.9182 -0.1715 -2.1778
  610SOL     OW 1828   3.007   1.183   2.243  0.7040  0.5097  0.8162
  610SOL    HW1 1829   2.987   1.081   2.224  1.3046  0.7266 -0.6543
  610SOL    HW2 1830   2.976   1.242   2.163 -0.7374  1.0486  1.3372
  611SOL     OW 1831   2.525   0.268   1.179 -0.6729  0.1983 -0.3300
  611SOL    HW1 1832   2.499   0.168   1.173 -1.3843 -0.4318  1.1715
  611SOL    HW2 1833   2.595   0.290   1.250 -0.2861  2.0430  1.2662
  612SOL     OW 1834   0.736   2.302   1.182  0.5107  0.1061  0.2085
  612SOL    HW1 1835   0.682   2.231   1.242 -0.8865 -0.5406  0.0198
  612SOL    HW2 1836   0.687   2.388   1.156 -0.2764  1.6707  1.4632
  613SOL     OW 1837   0.865   1.378   2.388  0.1157  0.3304 -0.2757
  613SOL    HW1 1838   0.864   1.460   2.318 -0.9723 -0.3896 -2.7531
  613SOL    HW2 1839   0.844   1.282   2.348  0.2381 -0.8014  1.4025
  614SOL     OW 1840   1.560   1.663   1.845 -0.4749 -0.8560 -0.6993
  614SOL    HW1 1841   1.536   1.765   1.828  2.3722 -0.8397  0.5503
  614SOL    HW2 1842   1.661   1.645   1.843 -1.3459  0.9532 -0.0966
  615SOL     OW 1843   0.746   1.372   1.723 -0.0007  0.3275 -0.4005
  615SOL    HW1 1844   0.670   1.338   1.668  1.4043 -0.4389 -1.9737
  615SOL    HW2 1845   0.798   1.450   1.674 -0.5790  0.0295 -1.2112
  616SOL     OW 1846   1.117   1.562   2.174 -0.3400 -0.3085 -0.0498
  616SOL    HW1 1847   1.014   1.586   2.174 -2.7421 -0.6589 -0.9470
  616SOL    HW2 1848   1.164   1.601   2.087  0.3474  0.5505 -0.0394
  617SOL     OW 1849   2.971   1.530   1.621 -0.0575 -0.4980  0.1876
  617SOL    HW1 1850   2.992   1.457   1.692  0.4733 -0.5346 -1.0455
  617SOL    HW2 1851   2.978   1.486   1.526  2.5499  1.5477 -2.6217
  618SOL     OW 1852   1.933   1.956   1.436 -0.1950 -0.8544 -0.0819
  618SOL    HW1 1853   2.025   1.970   1.394 -1.6527 -1.0214  1.2730
  618SOL    HW2 1854   1.919   1.864   1.477  1.1373  1.1710 -0.1624
  619SOL     OW 1855   1.692   0.458   2.369 -0.7537  0.2849 -0.2970
  619SOL    HW1 1856   1.640   0.534   2.321 -1.3331  3.1660 -1.9410
  619SOL    HW2 1857   1.640   0.366   2.376  1.2500 -2.2020 -1.1343
  620SOL     OW 1858   2.187   2.928   0.597 -0.6126  0.1717 -0.1707
  620SOL    HW1 1859   2.110   2.992   0.592  1.1564 -1.2338  0.2771
  620SOL    HW2 1860   2.223   2.904   0.694  2.2763  1.9662  0.5298
  621SOL     OW 1861   2.196   1.883   1.302  0.6679  0.7568  0.6200
  621SOL    HW1 1862   2.213   1.874   1.407  4.1079 -0.3822  1.1130
  621SOL    HW2 1863   2.184   1.788   1.257 -0.4591 -2.6208  0.0286
  622SOL     OW 1864   2.162   0.845   1.729  0.1132  0.3454  0.4452
  622SOL    HW1 1865   2.261   0.814   1.714  2.3222  0.1084  1.9296
  622SOL    HW2 1866   2.136   0.810   1.824 -1.5534  0.2472 -0.2418
  623SOL     OW 1867   1.357   0.762   2.613 -0.3124  0.2100 -0.2368
  623SOL    HW1 1868   1.300   0.703   2.670  2.2432 -0.0612 -3.0179
  623SOL    HW2 1869   1.312   0.806   2.533 -1.2411  1.1922  0.6946
  624SOL     OW 1870   0.494   0.718   3.096  0.0705  0.3636 -0.2731
  624SOL    HW1 1871   0.556   0.748   3.016  1.4544  1.0296 -1.2682
  624SOL    HW2 1872   0.482   0.800   3.164 -0.7196 -1.2265 -1.7510
  625SOL     OW 1873   2.796   1.743   0.902 -0.2039 -0.4213 -0.3033
  625SOL    HW1 1874   2.724   1.796   0.957 -0.8300 -0.0956 -1.6746
  625SOL    HW2 1875   2.785   1.641   0.919  0.4511  0.9783  0.8885
  626SOL     OW 1876   0.537   2.741   1.849  0.0964  0.1160  0.0504
  626SOL    HW1 1877   0.561   2.840   1.876  0.8338 -0.3304  0.8755
  626SOL    HW2 1878   0.437   2.728   1.821 -0.0441  0.0242 -1.8705
  627SOL     OW 1879   0.693   1.007   1.518  0.2509  0.7947  0.1621
  627SOL    HW1 1880   0.762   0.932   1.488 -1.9985 -2.0661 -0.9691
  627SOL    HW2 1881   0.727   1.094   1.478  0.6324 -1.0272 -0.2579
  628SOL     OW 1882   2.415   0.205   0.690  0.0439  0.5234  0.2060
  628SOL    HW1 1883   2.444   0.126   0.629  2.3741 -1.3424  0.3978
  628SOL    HW2 1884   2.317   0.197   0.731 -0.2102  2.2255 -1.1579
  629SOL     OW 1885   1.970   0.907   1.982 -0.0301  0.0372 -0.1009
  629SOL    HW1 1886   2.041   0.922   2.058 -0.1839  0.8548 -1.0724
  629SOL    HW2 1887   1.967   0.994   1.926 -0.1430  1.3418 -1.8064
  630SOL     OW 1888   2.787   2.165   0.780 -0.4199 -0.4629  0.2421
  630SOL    HW1 1889   2.706   2.215   0.820 -1.8279  2.2597  1.1466
  630SOL    HW2 1890   2.769   2.061   0.768  1.0181 -1.2990 -2.6722
  631SOL     OW 1891   2.986   0.152   2.110  0.2455  0.8972 -0.3683
  631SOL    HW1 1892   3.036   0.208   2.180 -0.6053  1.7359  1.2269
  631SOL    HW2 1893   3.033   0.129   2.020 -0.3897  2.3352  0.8063
  632SOL     OW 1894   2.384   2.525   0.634 -0.2534 -0.5402  0.5631
  632SOL    HW1 1895   2.429   2.613   0.668 -1.5083 -0.9239 -1.0823
  632SOL    HW2 1896   2.318   2.552   0.557 -0.3875 -2.2992 -1.6637
  633SOL     OW 1897   1.578   1.272   2.546  0.2901  0.0088  0.2766
  633SOL    HW1 1898   1.610   1.365   2.578 -1.6833 -0.1886  0.3685
  633SOL    HW2 1899   1.490   1.283   2.491  0.1915 -1.4761  2.6055
  634SOL     OW 1900   0.630   1.988   0.963 -0.2625  0.3995  0.5672
  634SOL    HW1 1901   0.547   2.036   1.006  2.0321  1.7525 -1.6018
  634SOL    HW2 1902   0.713   2.053   0.956  1.1668 -0.1097  1.0747
  635SOL     OW 1903   0.022   2.314   3.059  0.2618 -0.1194 -0.1127
  635SOL    HW1 1904   0.009   2.359   2.968  3.1321  0.0324  1.1126
  635SOL    HW2 1905   0.032   2.385   3.133 -1.4069  1.2370 -0.0353
  636SOL     OW 1906   2.289   2.794   2.027  0.2132  0.2866 -0.5418
  636SOL    HW1 1907   2.333   2.879   2.044 -2.6820 -1.3874 -1.3341
  636SOL    HW2 1908   2.247   2.750   2.112 -1.5241  0.9319 -1.2917
  637SOL     OW 1909   2.550   0.691   2.038 -0.1500  0.3285 -0.2817
  637SOL    HW1 1910   2.520   0.714   1.944 -3.1400 -2.3140  0.8000
  637SOL    HW2 1911   2.630   0.749   2.069 -0.3332  1.2394 -1.4435
  638SOL     OW 1912   2.482   1.861   1.315  0.0510  0.7414  0.2790
  638SOL    HW1 1913   2.380   1.878   1.309 -0.6182  0.4953 -0.7527
  638SOL    HW2 1914   2.503   1.765   1.361  1.0835 -3.3972  1.7250
  639SOL     OW 1915   1.260   2.217   1.630  0.2486 -0.3134 -0.5851
  639SOL    HW1 1916   1.265   2.144   1.554  3.4350 -0.5223 -1.3842
  639SOL    HW2 1917   1.180   2.200   1.703 -3.5420 -0.3567 -1.6935
  640SOL     OW 1918   0.187   1.190   1.566 -0.3766 -0.1819  0.3055
  640SOL    HW1 1919   0.161   1.252   1.642  1.8843  1.7736 -1.0264
  640SOL    HW2 1920   0.284   1.153   1.581  0.3431  0.0288  2.0651
  641SOL     OW 1921   2.001   0.095   1.502 -0.6756  0.6721 -1.3786
  641SOL    HW1 1922   2.011   0.165   1.583 -2.3500 -0.1171  0.2782
  641SOL    HW2 1923   1.983   0.000   1.538 -1.9956  0.6052 -0.5551
  642SOL     OW 1924   1.944   0.130   0.323  0.6097  0.3269  0.0991
  642SOL    HW1 1925   2.037   0.116   0.369  0.4837  1.5863  2.5808
  642SOL    HW2 1926   1.868   0.153   0.392 -2.3061 -0.5596  1.7778
  643SOL     OW 1927   2.865   1.903   2.061  0.1754 -0.7720  0.0703
  643SOL    HW1 1928   2.809   1.826   2.024 -3.6628 -0.3691  1.1631
  643SOL    HW2 1929   2.870   1.986   1.997 -0.0851  1.8671 -0.6469
  644SOL     OW 1930   2.177   2.324   1.192 -0.3695  0.2738 -0.1369
  644SOL    HW1 1931   2.263   2.271   1.155  0.3372 -1.0708  3.7203
  644SOL    HW2 1932   2.175   2.307   1.296 -0.3990 -0.4005 -0.5089
  645SOL     OW 1933   0.610   0.783   1.160  0.1497 -0.3860  0.1600
  645SOL    HW1 1934   0.532   0.727   1.114 -3.4922 -0.6551  0.9582
  645SOL    HW2 1935   0.656   0.860   1.107  1.1447 -0.4628 -1.5502
  646SOL     OW 1936   1.519   1.941   1.811  0.2935  0.1868 -0.6654
  646SOL    HW1 1937   1.613   1.989   1.805 -1.1015 -0.0035 -1.4286
  646SOL    HW2 1938   1.451   1.991   1.876 -0.9692  0.0437  1.6696
  647SOL     OW 1939   0.856   0.962   0.685  0.4558  0.0719  0.1259
  647SOL    HW1 1940   0.925   1.001   0.754  3.4393 -0.4839 -1.6334
  647SOL    HW2 1941   0.775   0.916   0.730  1.4018 -1.0420 -1.3664
  648SOL     OW 1942   0.138   0.164   0.292  0.7094 -0.1268 -0.2179
  648SOL    HW1 1943   0.188   0.103   0.224  0.0972  4.0029  2.3975
  648SOL    HW2 1944   0.112   0.254   0.251  2.6903  0.0684  0.4282
  649SOL     OW 1945   3.076   0.160   0.931  0.2535 -0.2020  0.2071
  649SOL    HW1 1946   3.180   0.167   0.926 -0.1445  1.0857  1.6653
  649SOL    HW2 1947   3.033   0.229   0.995  0.4370  0.2781 -0.1785
  650SOL     OW 1948   2.705   0.711   1.393 -0.2720 -0.0332 -0.0583
  650SOL    HW1 1949   2.610   0.726   1.428 -1.0253  1.5096  1.2245
  650SOL    HW2 1950   2.732   0.791   1.336 -1.6577 -2.7321  0.0946
  651SOL     OW 1951   0.898   1.596   1.631 -0.6878 -0.0073 -0.2721
  651SOL    HW1 1952   0.977   1.660   1.646 -0.2471 -0.1440 -2.1242
  651SOL    HW2 1953   0.866   1.600   1.531  4.3783 -0.3125  0.8270
  652SOL     OW 1954   2.248   2.479   2.444 -0.3078 -0.1022 -0.4032
  652SOL    HW1 1955   2.175   2.450   2.507 -0.8705  0.2167 -0.6070
  652SOL    HW2 1956   2.206   2.538   2.364 -1.5458  0.2998 -2.0177
  653SOL     OW 1957   2.729   1.165   0.254 -0.0956 -0.2201  0.5364
  653SOL    HW1 1958   2.774   1.257   0.280  1.3013 -1.3891  1.0289
  653SOL    HW2 1959   2.787   1.092   0.294 -1.6992  0.6477 -0.5723
  654SOL     OW 1960   1.266   2.280   1.253  0.4223 -0.1136  0.3255
  654SOL    HW1 1961   1.278   2.192   1.306  0.3562  1.5360 -1.4597
  654SOL    HW2 1962   1.327   2.289   1.172  0.7639 -0.9826  1.3439
  655SOL     OW 1963   0.215   1.015   1.842 -0.3561  0.1498 -0.0560
  655SOL    HW1 1964   0.237   0.937   1.779  2.2191 -1.3049  1.6090
  655SOL    HW2 1965   0.292   1.079   1.832  0.4583 -3.9619 -0.1051
  656SOL     OW 1966   2.525   2.474   2.592 -0.4169  0.1578  0.7078
  656SOL    HW1 1967   2.614   2.465   2.545 -0.9101 -0.8659 -0.3967
  656SOL    HW2 1968   2.446   2.499   2.524 -1.9180  0.8309 -2.2610
  657SOL     OW 1969   3.048   1.092   1.900 -0.3565  0.4323  0.3146
  657SOL    HW1 1970   3.056   1.191   1.925  0.5248  0.3882 -2.5202
  657SOL    HW2 1971   3.140   1.049   1.881  0.5393  0.4779 -1.4689
  658SOL     OW 1972   1.633   0.171   2.377  0.0978 -0.6926 -0.1838
  658SOL    HW1 1973   1.691   0.128   2.451 -2.6619 -0.2478  1.9238
  658SOL    HW2 1974   1.687   0.170   2.293 -1.5070  0.3505  2.0072
  659SOL     OW 1975   1.396   0.625   2.905 -0.0180 -0.3651  0.2949
  659SOL    HW1 1976   1.435   0.719   2.918 -1.6746  0.7508 -0.7613
  659SOL    HW2 1977   1.306   0.623   2.853  1.3493  1.6480 -1.9162
  660SOL     OW 1978   1.470   0.350   1.401 -0.0820  0.1997 -0.3582
  660SOL    HW1 1979   1.506   0.367   1.500  2.4985 -2.0286 -0.8291
  660SOL    HW2 1980   1.518   0.273   1.355  1.1021 -0.2805 -0.4939
  661SOL     OW 1981   2.531   1.180   0.656 -0.3269  0.3179  0.4083
  661SOL    HW1 1982   2.511   1.129   0.569 -0.6547 -0.8336 -0.1390
  661SOL    HW2 1983   2.468   1.256   0.674  0.7213 -0.9539  0.5024
  662SOL     OW 1984   1.322   0.412   1.825 -0.1303 -0.2557  0.0516
  662SOL    HW1 1985   1.285   0.316   1.817  0.4922 -0.6039 -1.4087
  662SOL    HW2 1986   1.274   0.463   1.899 -0.6078  0.5525 -1.4661
  663SOL     OW 1987   0.829   1.569   2.180  0.1486  0.6471 -0.0476
  663SOL    HW1 1988   0.811   1.670   2.202  0.3982  0.9900  0.4043
  663SOL    HW2 1989   0.791   1.538   2.093  0.1537  0.1253  3.3745
  664SOL     OW 1990   1.665   2.027   1.393  0.1707 -0.3756 -0.6572
  664SOL    HW1 1991   1.590   1.987   1.452 -1.2104 -1.4280 -1.9647
  664SOL    HW2 1992   1.759   1.991   1.411 -1.3272  0.5378  0.9198
  665SOL     OW 1993   2.183   0.688   2.000  0.2127 -0.2542 -0.9530
  665SOL    HW1 1994   2.250   0.611   2.025 -0.8817  0.0861  1.9774
  665SOL    HW2 1995   2.182   0.771   2.068 -1.2023  0.1628 -0.7154
  666SOL     OW 1996   0.465   2.335   0.480  0.5811 -0.3544 -0.2158
  666SOL    HW1 1997   0.552   2.390   0.484 -0.8804 -3.1212  0.9723
  666SOL    HW2 1998   0.447   2.276   0.568  2.1149 -1.6197  3.0218
  667SOL     OW 1999   1.962   0.199   1.024  0.7539  0.1028  0.0044
  667SOL    HW1 2000   1.995   0.295   1.029 -1.9375 -1.7476 -0.2317
  667SOL    HW2 2001   1.895   0.165   1.096 -0.7640  0.2207 -1.3630
  668SOL     OW 2002   1.994   0.546   1.195 -0.2201  0.2433 -0.2506
  668SOL    HW1 2003   2.061   0.532   1.120 -1.3483 -2.9525  1.7115
  668SOL    HW2 2004   2.035   0.509   1.288  2.1992  2.1581  0.4015
  669SOL     OW 2005   3.026   2.159   0.903 -0.7087 -0.7146 -0.7650
  669SOL    HW1 2006   2.933   2.146   0.855  0.3937 -1.9249 -5.9220
  669SOL    HW2 2007   3.018   2.206   0.996  0.2614 -2.3212 -0.6864
  670SOL     OW 2008   2.859   2.333   2.014  0.0339  0.6833 -0.2350
  670SOL    HW1 2009   2.786   2.325   2.088 -1.9065  0.1089  0.3721
  670SOL    HW2 2010   2.860   2.426   1.973  0.3608 -2.6290 -1.3811
  671SOL     OW 2011   1.747   1.736   1.441  0.2344 -0.1962  0.3487
  671SOL    HW1 2012   1.757   1.787   1.354  1.9661  0.4893  2.4505
  671SOL    HW2 2013   1.660   1.681   1.448 -1.2466 -2.6359  0.7194
  672SOL     OW 2014   0.460   0.611   2.451  0.0608  0.6145  0.8111
  672SOL    HW1 2015   0.475   0.644   2.354  2.0500 -0.6618  1.8391
  672SOL    HW2 2016   0.372   0.636   2.493  3.3086  0.5600 -0.9642
  673SOL     OW 2017   0.146   1.191   1.149  0.0768  0.5013  0.6526
  673SOL    HW1 2018   0.170   1.279   1.196 -1.9790  0.5628 -1.0290
  673SOL    HW2 2019   0.229   1.136   1.126  1.1588  0.8339  1.5542
  674SOL     OW 2020   1.550   2.897   0.141 -0.3633 -0.0539 -0.0480
  674SOL    HW1 2021   1.602   2.991   0.136  2.3613  2.8227  0.9886
  674SOL    HW2 2022   1.591   2.817   0.091 -0.8506  0.4646 -0.2888
  675SOL     OW 2023   1.661   0.848   2.290  0.1460  0.0765  0.0178
  675SOL    HW1 2024   1.756   0.823   2.252 -1.7375  4.0367  1.7916
  675SOL    HW2 2025   1.585   0.777   2.278  0.5506  1.2024  2.1357
  676SOL     OW 2026   2.497   1.548   1.998  0.1042 -0.2737 -0.0311
  676SOL    HW1 2027   2.475   1.495   1.909 -0.5862 -2.5816 -0.7463
  676SOL    HW2 2028   2.542   1.485   2.074 -0.6456 -0.3035 -1.2255
  677SOL     OW 2029   1.827   0.617   0.956 -0.3415 -0.1754  1.0591
  677SOL    HW1 2030   1.886   0.634   1.042  1.7144 -0.6372  1.5558
  677SOL    HW2 2031   1.834   0.517   0.929  0.9158 -0.3760  1.4556
  678SOL     OW 2032   0.043   0.754   1.663  0.4537 -0.1325 -0.0850
  678SOL    HW1 2033   0.145   0.751   1.701  1.6000  2.7226  1.7497
  678SOL    HW2 2034  -0.031   0.756   1.739  0.9691  1.3473  0.1019
  679SOL     OW 2035   2.533   1.159   1.104 -0.6990  0.8538 -0.1324
  679SOL    HW1 2036   2.470   1.190   1.184  0.1027  1.1668  2.7666
  679SOL    HW2 2037   2.501   1.073   1.055 -1.5541 -0.0032 -1.2524
  680SOL     OW 2038   2.817   0.655   1.637 -0.1849  0.2772  0.0514
  680SOL    HW1 2039   2.775   0.691   1.548  1.6471 -1.4829 -0.3322
  680SOL    HW2 2040   2.851   0.725   1.707  1.9450 -0.6670  0.2365
  681SOL     OW 2041   2.989   0.121   1.606  0.1491  0.3174 -0.0083
  681SOL    HW1 2042   3.076   0.117   1.550 -0.0695 -0.9054  0.9603
  681SOL    HW2 2043   2.952   0.218   1.616 -1.6782  2.8360 -0.5298
  682SOL     OW 2044   0.794   0.046   1.399  0.1405 -0.6313  0.2384
  682SOL    HW1 2045   0.735  -0.019   1.451 -0.8618  1.0216 -1.7705
  682SOL    HW2 2046   0.790   0.025   1.297 -4.7828  1.1632 -0.9364
  683SOL     OW 2047   1.368   0.265   2.192  0.2507 -0.4782 -0.1811
  683SOL    HW1 2048   1.324   0.336   2.257  1.0788  0.7402  0.2853
  683SOL    HW2 2049   1.439   0.317   2.137  2.7915 -0.6547  1.4794
  684SOL     OW 2050   1.445   2.135   0.494  0.3405 -0.3732  0.1219
  684SOL    HW1 2051   1.494   2.081   0.566  0.1277 -0.8700 -1.7450
  684SOL    HW2 2052   1.362   2.085   0.457  0.7162 -0.8032  1.2219
  685SOL     OW 2053   2.187   1.996   1.937  0.1899 -0.2406 -0.1490
  685SOL    HW1 2054   2.232   2.060   1.872  0.4397 -1.0321  1.9799
  685SOL    HW2 2055   2.262   1.926   1.966 -0.5025 -0.1279  0.0785
  686SOL     OW 2056   1.533   1.734   2.663  0.1599 -0.5686  0.5875
  686SOL    HW1 2057   1.513   1.636   2.692 -0.7562 -0.4809 -0.6304
  686SOL    HW2 2058   1.625   1.769   2.674 -2.3800  1.6563 -0.3100
  687SOL     OW 2059   1.314   2.517   1.895  0.2077 -0.2478 -0.0366
  687SOL    HW1 2060   1.383   2.440   1.877 -1.3102  0.1835  0.7502
  687SOL    HW2 2061   1.349   2.611   1.927  3.1325  1.4666  0.8813
  688SOL     OW 2062   2.072   1.444   1.665 -0.1286  0.2271 -0.8845
  688SOL    HW1 2063   2.165   1.487   1.641  0.0873 -1.4262 -1.7226
  688SOL    HW2 2064   2.049   1.357   1.610 -1.3901 -1.7980 -1.0252
  689SOL     OW 2065   2.466   1.110   2.761  0.1340  0.3640 -0.0368
  689SOL    HW1 2066   2.360   1.121   2.769  1.3304 -1.0235 -0.2347
  689SOL    HW2 2067   2.517   1.070   2.838  1.7480 -0.4601 -2.7850
  690SOL     OW 2068   2.208   2.770   0.072 -0.2515  0.7635 -0.4980
  690SOL    HW1 2069   2.119   2.747   0.032  0.0796  1.0044  1.1209
  690SOL    HW2 2070   2.200   2.810   0.166 -2.2317 -2.7524 -1.5587
  691SOL     OW 2071   2.610   0.412   2.130  0.2234  0.0601 -0.2213
  691SOL    HW1 2072   2.670   0.357   2.066  2.5945  0.8523  0.7281
  691SOL    HW2 2073   2.581   0.507   2.093 -3.6237 -1.2289 -1.4299
  692SOL     OW 2074   2.786   1.206   0.714 -0.2543 -0.1437 -0.1172
  692SOL    HW1 2075   2.682   1.196   0.701  1.1973  1.1433  2.1729
  692SOL    HW2 2076   2.815   1.289   0.771 -0.3386  0.3866  1.0070
  693SOL     OW 2077   2.877   3.014   0.666  0.0337  0.0226 -0.7625
  693SOL    HW1 2078   2.850   3.106   0.716 -1.2629  0.0192 -0.7283
  693SOL    HW2 2079   2.817   2.994   0.582 -0.9201  0.5723  0.7806
  694SOL     OW 2080   2.414   2.235   0.046 -0.2820 -0.3890 -0.1954
  694SOL    HW1 2081   2.382   2.318   0.104 -1.8212  1.9613  2.5941
  694SOL    HW2 2082   2.360   2.144   0.063 -1.8229  0.8470  0.5678
  695SOL     OW 2083   0.583   3.004   1.486 -0.7168  0.4184  0.1253
  695SOL    HW1 2084   0.576   2.906   1.459 -0.6953  1.1479  1.2599
  695SOL    HW2 2085   0.523   3.032   1.564 -0.4709 -1.0886 -2.8843
  696SOL     OW 2086   2.681   1.920   0.708  0.0988 -0.1084  0.1747
  696SOL    HW1 2087   2.718   1.832   0.744 -0.8448 -2.3658 -1.2426
  696SOL    HW2 2088   2.644   1.916   0.610  2.8965  1.5045 -1.1775
  697SOL     OW 2089   1.747   2.067   1.807  0.3408  0.7002 -0.6563
  697SOL    HW1 2090   1.827   2.002   1.809 -3.4615 -0.1227 -3.9184
  697SOL    HW2 2091   1.778   2.169   1.811  0.4375  0.7851  0.5615
  698SOL     OW 2092   2.885   0.387   2.740 -0.4980  0.7774 -0.2469
  698SOL    HW1 2093   2.879   0.378   2.635  0.4761 -0.3321  3.1479
  698SOL    HW2 2094   2.942   0.313   2.782  3.1392  3.1874  1.1937
  699SOL     OW 2095   1.519   0.077   2.939  1.0406  0.3659  0.1606
  699SOL    HW1 2096   1.500  -0.009   2.882 -2.8496  1.7378  1.3229
  699SOL    HW2 2097   1.584   0.132   2.883 -2.2287  2.1144  0.4748
  700SOL     OW 2098   0.972   2.329   1.312 -0.0760  0.5827 -0.0105
  700SOL    HW1 2099   1.065   2.304   1.272 -0.4867  0.4397  0.4638
  700SOL    HW2 2100   0.896   2.294   1.258  1.2453  2.3939  1.8759
  701SOL     OW 2101   1.903   2.814   0.021 -0.1067 -0.3120  0.6461
  701SOL    HW1 2102   1.898   2.765   0.113 -1.0006  0.6379 -1.3408
  701SOL    HW2 2103   1.937   2.915   0.030 -0.8160  1.2264 -1.2115
  702SOL     OW 2104   2.097   1.337   1.917  0.3439  0.3504  0.4713
  702SOL    HW1 2105   2.164   1.252   1.905  0.4633  0.1155  0.3329
  702SOL    HW2 2106   2.083   1.389   1.830  0.5051 -1.3284 -0.2043
  703SOL     OW 2107   1.915   0.819   1.410  0.1224 -0.5466 -0.0197
  703SOL    HW1 2108   1.915   0.729   1.465  0.0492  0.5561 -0.3495
  703SOL    HW2 2109   1.951   0.900   1.471  1.7288  0.3320  1.8004
  704SOL     OW 2110   0.302   2.076   1.660  0.1015 -1.2711 -0.0160
  704SOL    HW1 2111   0.328   2.032   1.751 -1.9042 -1.2156 -0.5622
  704SOL    HW2 2112   0.351   2.168   1.640  2.3652  2.1330  0.5613
  705SOL     OW 2113   2.537   1.394   0.925 -0.0843 -0.2018 -0.4536
  705SOL    HW1 2114   2.450   1.375   0.868  0.6443 -0.0051 -0.6398
  705SOL    HW2 2115   2.577   1.308   0.964  0.0916  0.7630 -4.8700
  706SOL     OW 2116   0.635   1.777   1.836 -0.1078  0.1133  0.2548
  706SOL    HW1 2117   0.656   1.675   1.858  1.4493 -2.1072  0.7973
  706SOL    HW2 2118   0.713   1.832   1.879 -0.4878 -0.1326 -1.5724
  707SOL     OW 2119   2.269   1.119   1.856  0.4174  0.4081 -0.3719
  707SOL    HW1 2120   2.353   1.119   1.914 -2.2822 -1.6445 -2.4838
  707SOL    HW2 2121   2.252   1.026   1.812  0.8174 -2.1099  0.7499
  708SOL     OW 2122   3.034   0.464   3.066  0.9564 -0.3850 -0.4787
  708SOL    HW1 2123   3.073   0.538   3.007  0.7040 -0.8171  2.1295
  708SOL    HW2 2124   3.029   0.379   3.008 -1.5329 -1.9729  0.6249
  709SOL     OW 2125   1.812   1.823   0.277  0.0447 -0.5246  0.5475
  709SOL    HW1 2126   1.876   1.897   0.315 -0.4120 -1.0936 -1.1369
  709SOL    HW2 2127   1.805   1.823   0.171 -0.2137 -2.4980 -2.4712
  710SOL     OW 2128   1.695   1.571   2.423 -0.0117 -0.3285  0.5178
  710SOL    HW1 2129   1.769   1.582   2.348 -2.7574  1.4955  3.2584
  710SOL    HW2 2130   1.734   1.535   2.514 -0.4082 -2.7191 -2.7441
  711SOL     OW 2131   2.640   2.908   0.965 -0.3104 -0.2671 -0.5617
  711SOL    HW1 2132   2.616   3.009   0.954 -2.0651 -1.6628  0.9009
  711SOL    HW2 2133   2.725   2.897   1.028  0.6376  1.8444  1.7919
  712SOL     OW 2134   1.491   2.309   1.797  0.1410  0.3660 -0.8367
  712SOL    HW1 2135   1.580   2.262   1.816  1.4049  0.5715 -0.0271
  712SOL    HW2 2136   1.424   2.262   1.731 -0.5263  0.3490 -0.3700
  713SOL     OW 2137   2.781   1.503   2.491 -0.1414 -0.3637 -0.0580
  713SOL    HW1 2138   2.778   1.399   2.487  3.1721  0.4572  0.8550
  713SOL    HW2 2139   2.698   1.543   2.535 -0.3661  1.7173 -2.1840
  714SOL     OW 2140   2.657   0.467   2.394 -0.2763  0.0738  0.6317
  714SOL    HW1 2141   2.613   0.399   2.458  1.5231  0.5893 -0.5754
  714SOL    HW2 2142   2.643   0.450   2.294 -0.1432  2.1316  2.2469
  715SOL     OW 2143   1.563   2.058   1.131 -0.2773  1.0766 -0.3402
  715SOL    HW1 2144   1.507   2.138   1.098  1.4738  0.1052  0.6497
  715SOL    HW2 2145   1.604   2.065   1.230 -0.3430  1.1762 -3.3883
  716SOL     OW 2146   1.215   0.232   1.521 -0.3877 -0.0708  0.1302
  716SOL    HW1 2147   1.117   0.251   1.499  1.1425 -1.2878 -0.5649
  716SOL    HW2 2148   1.284   0.295   1.474  0.5392 -0.8711 -0.7750
  717SOL     OW 2149   1.089   0.611   1.614 -0.4393 -0.7230  0.0083
  717SOL    HW1 2150   1.193   0.618   1.615  1.5543 -0.4095  1.9468
  717SOL    HW2 2151   1.062   0.626   1.513  1.1771  0.4226 -1.5344
  718SOL     OW 2152   0.720   0.982   1.009 -0.2550  0.0685  0.5881
  718SOL    HW1 2153   0.665   0.958   0.924 -1.1079  0.5506 -0.9265
  718SOL    HW2 2154   0.732   1.085   1.009  2.2112  0.6419 -0.1153
  719SOL     OW 2155   0.756   1.835   2.272  0.6229  0.0550 -0.5661
  719SOL    HW1 2156   0.839   1.825   2.337  0.8464 -0.4573 -0.1327
  719SOL    HW2 2157   0.671   1.859   2.332 -3.4836  0.1259  1.4476
  720SOL     OW 2158   2.205   1.106   0.248  0.0389  0.4745  0.0200
  720SOL    HW1 2159   2.263   1.028   0.211  0.5878 -1.8416 -1.3673
  720SOL    HW2 2160   2.185   1.095   0.353  1.4344 -0.6073  1.5539
  721SOL     OW 2161   2.314   0.008   2.075  0.4682  0.6475 -0.1644
  721SOL    HW1 2162   2.318   0.057   1.985  2.5550 -1.5212 -0.7778
  721SOL    HW2 2163   2.217  -0.022   2.103 -0.9314 -0.2442 -3.0868
  722SOL     OW 2164   2.397   1.620   0.577 -0.0975 -0.1102  0.7288
  722SOL    HW1 2165   2.407   1.600   0.474 -1.8235  0.3751  1.2887
  722SOL    HW2 2166   2.323   1.689   0.604 -1.6302  1.5875  0.8712
  723SOL     OW 2167   2.562   2.762   1.952  0.1154  0.4594 -0.1709
  723SOL    HW1 2168   2.587   2.806   2.047  0.9360 -1.0521  0.5326
  723SOL    HW2 2169   2.462   2.745   1.936 -0.1672 -0.5625 -2.0699
  724SOL     OW 2170   0.518   2.470   2.438 -0.3991 -0.3026  0.5350
  724SOL    HW1 2171   0.423   2.460   2.465 -0.3599 -1.8810  0.8656
  724SOL    HW2 2172   0.579   2.504   2.512  0.8109  0.1306  0.1452
  725SOL     OW 2173   2.480   2.756   1.538 -0.0848 -0.2993 -0.8139
  725SOL    HW1 2174   2.498   2.785   1.441 -1.9921 -2.6972 -2.3816
  725SOL    HW2 2175   2.450   2.656   1.556  2.4866 -0.9598  0.2109
  726SOL     OW 2176   2.351   2.228   0.673  0.0417  0.2735  0.0817
  726SOL    HW1 2177   2.344   2.335   0.669  2.2743 -0.6471  0.1487
  726SOL    HW2 2178   2.380   2.186   0.585 -0.2014 -1.0609 -0.4551
  727SOL     OW 2179   0.229   3.102   0.097  0.1862 -0.3293  0.2469
  727SOL    HW1 2180   0.311   3.073   0.044  0.4913 -1.0224  1.0942
  727SOL    HW2 2181   0.143   3.066   0.053  2.2992  0.2966 -0.6772
  728SOL     OW 2182   2.839   0.669   0.983 -0.4048  0.0468  0.9529
  728SOL    HW1 2183   2.798   0.625   0.902  1.1079  2.8837 -0.2022
  728SOL    HW2 2184   2.817   0.610   1.064 -0.0124  1.5389 -2.1902
  729SOL     OW 2185   2.897   2.440   0.688 -0.1188  0.2906 -0.4074
  729SOL    HW1 2186   2.847   2.376   0.753 -2.5070 -2.9314  0.2322
  729SOL    HW2 2187   2.999   2.418   0.694  0.3041  1.9680  1.2357
  730SOL     OW 2188   2.574   0.591   0.812 -0.6006 -0.0610 -0.6926
  730SOL    HW1 2189   2.527   0.678   0.779  1.1883 -1.1012 -0.3663
  730SOL    HW2 2190   2.641   0.551   0.745 -2.8300  1.7744  2.9718
  731SOL     OW 2191   0.042   2.139   2.425 -1.0577  0.3763  0.0203
  731SOL    HW1 2192   0.060   2.168   2.521 -0.6645 -1.6180 -1.9347
  731SOL    HW2 2193   0.025   2.215   2.357  0.9700 -3.0051  1.2859
  732SOL     OW 2194   1.077   2.880   1.963 -0.4968  0.5489  0.6468
  732SOL    HW1 2195   1.104   2.826   2.050  0.1998  0.0226 -1.5785
  732SOL    HW2 2196   1.112   2.836   1.877 -0.5873 -2.2972  1.9641
  733SOL     OW 2197   0.016   0.716   2.093  0.2622  0.7945 -1.1233
  733SOL    HW1 2198   0.114   0.711   2.066 -2.1684 -1.8390  0.4426
  733SOL    HW2 2199  -0.026   0.619   2.079 -0.8636 -1.0578  0.0401
  734SOL     OW 2200   1.430   0.368   2.772  0.0515 -0.5373  0.1043
  734SOL    HW1 2201   1.431   0.465   2.816 -0.9566  1.9979  0.2985
  734SOL    HW2 2202   1.337   0.323   2.773  2.2613 -0.8439 -2.1925
  735SOL     OW 2203   2.891   2.627   2.254 -0.4398  0.0176  0.1841
  735SOL    HW1 2204   2.829   2.638   2.170 -2.2675 -0.4988  0.9165
  735SOL    HW2 2205   2.982   2.586   2.235 -0.7565  0.7948 -1.9991
  736SOL     OW 2206   0.746   0.457   2.617  0.2834  0.1781  0.1083
  736SOL    HW1 2207   0.705   0.548   2.616  2.9179 -3.7823  1.8916
  736SOL    HW2 2208   0.760   0.422   2.518 -2.3028  2.6254  0.9415
  737SOL     OW 2209   2.637   0.470   2.862  0.0397  0.5504  0.3027
  737SOL    HW1 2210   2.622   0.424   2.956 -1.6888 -0.8292  1.9915
  737SOL    HW2 2211   2.732   0.445   2.827  0.8334 -1.1586  0.5763
  738SOL     OW 2212   1.581   1.233   2.943  0.3428 -0.1404  0.3434
  738SOL    HW1 2213   1.678   1.196   2.949 -2.0268 -1.0287  0.7510
  738SOL    HW2 2214   1.527   1.168   2.882  1.3972  2.2519  2.0016
  739SOL     OW 2215   1.728   0.642   0.674  0.1753  0.4186 -0.2367
  739SOL    HW1 2216   1.764   0.652   0.771 -0.1825  0.6900  0.8914
  739SOL    HW2 2217   1.786   0.576   0.619 -0.1797  0.2687  2.8049
  740SOL     OW 2218   1.959   1.869   2.293 -0.2179  0.4834 -1.0248
  740SOL    HW1 2219   2.027   1.803   2.333  1.4184 -0.6196 -1.3777
  740SOL    HW2 2220   1.931   1.847   2.196 -0.9254  1.2401 -0.1717
  741SOL     OW 2221   2.514   0.041   2.591 -0.5657  0.1501  0.3248
  741SOL    HW1 2222   2.620   0.030   2.587  0.4348  0.0782 -0.2948
  741SOL    HW2 2223   2.467   0.020   2.501  1.8554 -0.4590  1.3014
  742SOL     OW 2224   2.251   1.385   0.152 -0.2054 -0.9295 -0.2651
  742SOL    HW1 2225   2.181   1.444   0.198  2.7505 -1.3321  0.8197
  742SOL    HW2 2226   2.277   1.302   0.208  1.6029  2.3251 -0.3403
  743SOL     OW 2227   1.803   0.618   2.576 -0.1760 -0.7098 -0.2793
  743SOL    HW1 2228   1.766   0.551   2.504  1.4951 -0.2323  0.3726
  743SOL    HW2 2229   1.739   0.696   2.602 -0.2859 -0.0073  0.6230
  744SOL     OW 2230   2.695   2.124   0.065 -0.3473 -0.0674  0.1255
  744SOL    HW1 2231   2.599   2.171   0.071 -0.4307 -1.3011 -0.3478
  744SOL    HW2 2232   2.697   2.026   0.016 -0.0633 -1.9083  1.1042
  745SOL     OW 2233   2.147   2.682   2.229  0.0976 -0.0281 -0.1481
  745SOL    HW1 2234   2.062   2.647   2.176 -1.1712 -0.7807 -1.7678
  745SOL    HW2 2235   2.114   2.755   2.294 -2.6594 -0.9491  2.1635
  746SOL     OW 2236  -0.000   2.570   1.820  0.0176 -0.4751  0.0912
  746SOL    HW1 2237   0.099   2.571   1.785 -0.1769 -0.0830 -0.3399
  746SOL    HW2 2238  -0.035   2.670   1.824  0.2121  1.7109 -0.4141
  747SOL     OW 2239   0.014   1.768   1.628 -0.1177 -0.1710 -0.0345
  747SOL    HW1 2240  -0.038   1.677   1.626  1.3417  0.8965  0.5546
  747SOL    HW2 2241   0.045   1.793   1.533 -1.1727  1.0459 -0.3239
  748SOL     OW 2242   1.822   2.769   2.853 -0.2551 -0.4538  0.2482
  748SOL    HW1 2243   1.856   2.783   2.951  0.2856 -1.2727  1.0870
  748SOL    HW2 2244   1.723   2.742   2.837  0.5171 -0.4964 -1.5742
  749SOL     OW 2245   1.335   3.084   0.869 -0.0367  0.0652  0.0097
  749SOL    HW1 2246   1.283   3.001   0.912  0.0277 -1.2149  1.0886
  749SOL    HW2 2247   1.321   3.097   0.765 -1.9994  0.0663 -3.3332
  750SOL     OW 2248   2.313   0.205   1.887 -0.7444  0.6545  0.4452
  750SOL    HW1 2249   2.330   0.270   1.803 -0.8225 -1.0279 -1.1412
  750SOL    HW2 2250   2.296   0.257   1.973  4.9673 -1.1234 -0.2654
  751SOL     OW 2251   0.862   2.209   2.751 -0.8295  0.0623  1.1436
  751SOL    HW1 2252   0.908   2.201   2.845 -0.2191 -2.0115  0.9757
  751SOL    HW2 2253   0.814   2.123   2.723 -0.4469  1.8679 -0.2891
  752SOL     OW 2254   1.253   0.860   1.524 -0.5195  0.4522  0.0533
  752SOL    HW1 2255   1.321   0.927   1.482 -1.7082 -0.6269 -0.9317
  752SOL    HW2 2256   1.295   0.773   1.558 -1.5461 -0.4203  0.8846
  753SOL     OW 2257   0.939   2.605   1.685  0.0776 -0.1288  0.7176
  753SOL    HW1 2258   1.021   2.670   1.707  1.3299  2.8287 -2.3318
  753SOL    HW2 2259   0.857   2.666   1.657  0.9059 -2.6591  1.6678
  754SOL     OW 2260   1.226   1.329   3.037 -0.0846 -0.5883 -0.3117
  754SOL    HW1 2261   1.251   1.266   2.962  0.1968  3.0209  1.0427
  754SOL    HW2 2262   1.188   1.419   3.000  0.2291 -0.5782 -1.6931
  755SOL     OW 2263   1.914   0.454   2.226 -0.1687  0.2291  0.1553
  755SOL    HW1 2264   2.009   0.429   2.261  0.0435 -0.6655  0.0181
  755SOL    HW2 2265   1.836   0.458   2.297  1.8690  0.1503 -1.1983
  756SOL     OW 2266   2.624   0.968   2.964 -0.2438  0.4827  0.5986
  756SOL    HW1 2267   2.718   0.939   2.987 -3.3360  1.4449 -1.2606
  756SOL    HW2 2268   2.554   0.894   2.986 -3.0626 -1.5554 -0.7775
  757SOL     OW 2269   0.004   0.441   1.792  0.6549  0.1822  0.0866
  757SOL    HW1 2270  -0.007   0.542   1.813  1.2170 -0.8370 -1.5684
  757SOL    HW2 2271   0.078   0.423   1.723  0.4873  1.0900 -1.6385
  758SOL     OW 2272   2.391   0.054   1.462 -0.2775 -0.7965  0.2822
  758SOL    HW1 2273   2.340  -0.031   1.495 -1.6706 -0.9618 -3.0879
  758SOL    HW2 2274   2.376   0.063   1.355 -1.4288 -1.1426 -0.0218
  759SOL     OW 2275   1.680   0.034   0.082 -0.0809 -0.2201 -0.2719
  759SOL    HW1 2276   1.634   0.032  -0.007 -0.5933 -2.7684 -0.8485
  759SOL    HW2 2277   1.782   0.040   0.079 -1.6438 -1.4593 -0.4888
  760SOL     OW 2278   2.717   2.038   2.801  0.0741 -0.1586 -0.5714
  760SOL    HW1 2279   2.781   1.957   2.790 -0.2231 -1.0726 -3.9609
  760SOL    HW2 2280   2.738   2.103   2.878  1.1680  1.5989 -4.8834
  761SOL     OW 2281   1.950   1.717   1.625  0.1664 -0.7350 -0.0161
  761SOL    HW1 2282   1.972   1.620   1.645  0.6202 -0.3569  0.3189
  761SOL    HW2 2283   1.869   1.725   1.560  0.0230 -1.8087 -1.0423
  762SOL     OW 2284   0.498   2.416   0.998  0.2923  0.5427 -0.1458
  762SOL    HW1 2285   0.552   2.420   0.908  0.2129  0.4363 -3.3656
  762SOL    HW2 2286   0.538   2.474   1.073  0.1581  0.4846  1.8643
  763SOL     OW 2287   2.114   1.516   2.988  0.0760  0.3132 -0.0943
  763SOL    HW1 2288   2.199   1.462   3.019  0.6961  0.5194 -0.8863
  763SOL    HW2 2289   2.027   1.493   3.045  2.3341 -2.3035  0.4744
  764SOL     OW 2290   0.692   0.568   0.892  0.0731 -0.6223  0.2482
  764SOL    HW1 2291   0.643   0.501   0.827 -0.7754  1.8319 -1.4968
  764SOL    HW2 2292   0.786   0.533   0.923  1.3653 -0.2340 -0.1312
  765SOL     OW 2293   0.673   0.235   0.823 -0.7586  0.3500 -0.6653
  765SOL    HW1 2294   0.759   0.260   0.768  1.3595 -1.9708 -0.1234
  765SOL    HW2 2295   0.687   0.254   0.925  1.8883 -0.7764  1.3294
  766SOL     OW 2296   2.969   2.096  -0.002 -0.5183  0.3058  0.2889
  766SOL    HW1 2297   2.898   2.108   0.073 -0.1679  0.5913 -1.2977
  766SOL    HW2 2298   3.037   2.177  -0.009  2.0832  1.4160 -0.5088
  767SOL     OW 2299   2.898   1.567   0.539 -0.3655 -0.3287  0.5000
  767SOL    HW1 2300   2.793   1.577   0.544 -2.3275 -1.2757  1.4795
  767SOL    HW2 2301   2.945   1.623   0.613 -0.2562  1.6796 -3.6635
  768SOL     OW 2302   1.075   0.234   0.330  0.1782 -0.1233  0.1100
  768SOL    HW1 2303   1.001   0.171   0.355  0.0735  0.7207 -2.7322
  768SOL    HW2 2304   1.163   0.188   0.300 -0.4537  1.4214  0.2345
  769SOL     OW 2305   1.148   1.837   2.229  0.6872 -0.2152  0.0528
  769SOL    HW1 2306   1.099   1.864   2.316  0.9240  3.0900 -2.2976
  769SOL    HW2 2307   1.152   1.739   2.212  2.1455 -2.3773 -3.2373
  770SOL     OW 2308   0.136   1.283   2.334 -0.1682 -0.7824  0.8312
  770SOL    HW1 2309   0.121   1.303   2.437  0.7161 -2.8510  1.9101
  770SOL    HW2 2310   0.054   1.242   2.289  2.2985  1.4009  1.0580
  771SOL     OW 2311   2.965   2.820   1.879 -0.4270 -0.4958 -0.2113
  771SOL    HW1 2312   2.904   2.875   1.818  0.6917  0.4450  1.3795
  771SOL    HW2 2313   2.964   2.861   1.980 -0.6479 -0.8873  2.1151
  772SOL     OW 2314   2.172   0.118   2.956 -0.5773 -0.0146 -0.1948
  772SOL    HW1 2315   2.249   0.061   2.928 -0.3902  2.0508 -0.1783
  772SOL    HW2 2316   2.195   0.197   3.023  2.9912 -0.4349  1.6866
  773SOL     OW 2317   0.703   2.064   2.505 -0.1140 -0.1462 -0.5517
  773SOL    HW1 2318   0.693   2.121   2.418  0.5728 -0.6827 -1.9332
  773SOL    HW2 2319   0.631   2.087   2.574  0.5876  0.1856 -1.7286
  774SOL     OW 2320   2.044   0.035   2.653  0.0901  0.0005  0.0029
  774SOL    HW1 2321   2.064   0.128   2.685  0.2705 -0.7954 -1.1443
  774SOL    HW2 2322   2.091  -0.028   2.725 -1.0844  0.7926  2.4285
  775SOL     OW 2323   2.542   2.850   2.459 -0.2644 -0.0712 -0.6474
  775SOL    HW1 2324   2.524   2.944   2.413  1.0400  0.9021 -0.9891
  775SOL    HW2 2325   2.644   2.824   2.453 -1.1756  1.3173  0.2930
  776SOL     OW 2326   0.025   1.262   0.257 -0.6394  0.3785  0.1348
  776SOL    HW1 2327  -0.016   1.251   0.161 -1.6769  1.7372 -0.3665
  776SOL    HW2 2328  -0.039   1.272   0.336  0.5127  2.4546 -3.8221
  777SOL     OW 2329   0.227   2.722   0.493 -0.2190 -0.0864 -0.0304
  777SOL    HW1 2330   0.121   2.719   0.482  0.6003 -1.6464 -1.5472
  777SOL    HW2 2331   0.269   2.816   0.504 -1.1092  0.1622 -0.4262
  778SOL     OW 2332   1.337   1.990   0.189  0.0397 -0.1791 -0.0023
  778SOL    HW1 2333   1.285   1.974   0.277 -1.8043 -0.2041 -0.4026
  778SOL    HW2 2334   1.303   2.076   0.138 -0.5893 -0.1755 -1.4684
  779SOL     OW 2335   0.173   0.781   0.511  0.1472 -0.0852  0.3532
  779SOL    HW1 2336   0.131   0.688   0.492  2.2693 -0.6398 -0.8869
  779SOL    HW2 2337   0.109   0.845   0.558 -0.3839 -3.4005 -0.7529
  780SOL     OW 2338   0.022   0.272   2.326 -0.1578 -0.0849  0.3103
  780SOL    HW1 2339   0.004   0.369   2.352  0.6216 -0.6342 -1.4883
  780SOL    HW2 2340   0.116   0.264   2.281  0.9383  1.8919 -0.4282
  781SOL     OW 2341   0.608   1.734   1.564 -0.5010  0.1989 -0.3119
  781SOL    HW1 2342   0.626   1.740   1.667 -0.7391  0.1737 -1.8528
  781SOL    HW2 2343   0.518   1.693   1.547  1.8579  1.9535  3.2626
  782SOL     OW 2344   2.576   0.149   0.921  0.3797  0.0679  0.5258
  782SOL    HW1 2345   2.513   0.177   0.843  0.7661 -1.2792 -0.5191
  782SOL    HW2 2346   2.564   0.206   1.009  2.0883 -0.6251 -0.3466
  783SOL     OW 2347   2.818   0.653   2.505  0.1874  0.0866 -0.2726
  783SOL    HW1 2348   2.772   0.679   2.590  2.4203 -2.8272 -0.6217
  783SOL    HW2 2349   2.760   0.592   2.447 -0.1828  2.1279  2.3882
  784SOL     OW 2350   1.332   2.222   0.051 -0.5622 -0.8325 -0.0846
  784SOL    HW1 2351   1.417   2.268   0.097 -1.8568 -0.1007 -1.3656
  784SOL    HW2 2352   1.342   2.226  -0.052 -1.9123  4.4358  0.1682
  785SOL     OW 2353   2.177   0.362   3.076  0.2390 -0.3037 -0.0095
  785SOL    HW1 2354   2.100   0.368   3.143  0.0276 -0.9911  2.8908
  785SOL    HW2 2355   2.203   0.457   3.044  2.6251 -0.9613 -0.5062
  786SOL     OW 2356   2.054   2.142   2.215 -0.8327  0.2892 -0.0704
  786SOL    HW1 2357   2.013   2.054   2.187  1.4007  2.3571  1.0619
  786SOL    HW2 2358   2.145   2.125   2.262 -2.3157 -2.1354 -0.3815
  787SOL     OW 2359   1.405   0.586   0.867 -0.2253 -0.0242 -0.2963
  787SOL    HW1 2360   1.352   0.677   0.870 -0.4601  0.6013  0.5461
  787SOL    HW2 2361   1.416   0.548   0.772  1.6431 -0.5647 -0.6120
  788SOL     OW 2362   1.215   0.394   3.018  0.3806 -0.2375  0.0708
  788SOL    HW1 2363   1.120   0.435   2.995  0.1017  1.0890  1.0180
  788SOL    HW2 2364   1.283   0.470   3.020 -2.0859 -2.5862 -0.9573
  789SOL     OW 2365   2.574   0.110   1.802  0.7210 -0.2044  0.4206
  789SOL    HW1 2366   2.482   0.149   1.811 -2.8079  0.5389 -0.1144
  789SOL    HW2 2367   2.576   0.012   1.774 -0.7598  1.8077 -1.1402
  790SOL     OW 2368   2.573   2.649   0.842  0.4975  0.2388  0.6541
  790SOL    HW1 2369   2.633   2.653   0.763 -1.7732  2.0039  0.5303
  790SOL    HW2 2370   2.581   2.734   0.898  4.7901 -4.3487  0.6623
  791SOL     OW 2371   1.968   1.257   0.224  0.4934 -0.3946 -0.1695
  791SOL    HW1 2372   1.873   1.222   0.233  2.3942 -0.5012 -2.0822
  791SOL    HW2 2373   2.047   1.188   0.225  1.7146  1.8539  1.2978
  792SOL     OW 2374   0.420   1.988   2.174 -0.1385 -0.4934 -0.3298
  792SOL    HW1 2375   0.456   2.079   2.205  0.9859  0.8947 -2.1553
  792SOL    HW2 2376   0.327   1.967   2.218 -0.3662  0.7495  2.4732
  793SOL     OW 2377   2.127   1.559   2.114 -0.4531 -0.3558  0.6119
  793SOL    HW1 2378   2.185   1.637   2.085  1.6349  3.1735 -0.2251
  793SOL    HW2 2379   2.108   1.489   2.037 -0.3372 -1.1871  0.2111
  794SOL     OW 2380   0.435   1.382   2.478 -0.4500 -0.1175 -0.2713
  794SOL    HW1 2381   0.447   1.334   2.390  0.2052 -0.7882 -2.4207
  794SOL    HW2 2382   0.372   1.462   2.472 -1.0952 -0.0111 -0.7830
  795SOL     OW 2383   2.513   2.331   1.801  0.1404 -0.2368  0.1185
  795SOL    HW1 2384   2.532   2.315   1.903  1.3799 -1.7211 -2.1832
  795SOL    HW2 2385   2.417   2.295   1.771 -2.1000  0.2149  0.2381
  796SOL     OW 2386   3.074   1.046   2.708  0.1591  0.0270  0.0407
  796SOL    HW1 2387   2.978   1.083   2.707 -2.3057 -3.4324 -4.7256
  796SOL    HW2 2388   3.139   1.072   2.782  0.4859  0.2500 -0.3542
  797SOL     OW 2389   0.770   0.672   1.336 -0.1164 -0.1707 -0.4906
  797SOL    HW1 2390   0.824   0.721   1.409 -1.6159  2.8245 -1.0483
  797SOL    HW2 2391   0.714   0.738   1.282  0.9576 -1.0289  0.7518
  798SOL     OW 2392   1.258   0.434   1.049 -0.6085  0.5736 -0.6835
  798SOL    HW1 2393   1.283   0.473   1.140 -0.4104 -3.2001  2.2600
  798SOL    HW2 2394   1.321   0.469   0.969 -0.2923  1.2884 -2.6091
  799SOL     OW 2395   1.881   2.751   1.023 -0.6201  0.4706 -0.0044
  799SOL    HW1 2396   1.871   2.663   1.085 -3.4020 -0.9196  0.3493
  799SOL    HW2 2397   1.908   2.714   0.926 -2.7308 -1.1280  1.2854
  800SOL     OW 2398   2.970   0.812   1.869  0.2039 -0.4328 -0.0386
  800SOL    HW1 2399   2.974   0.916   1.855  0.6099  0.2187  1.0628
  800SOL    HW2 2400   3.024   0.783   1.955  2.3610 -0.1115  0.7832
  801SOL     OW 2401   1.977   2.126   0.078 -0.3310 -0.1420  1.0554
  801SOL    HW1 2402   1.945   2.050   0.021 -0.3570  1.1428  0.7664
  801SOL    HW2 2403   2.083   2.118   0.079  0.8169  0.9369 -1.7582
  802SOL     OW 2404   0.694   0.710   2.537 -0.6056 -0.4868  0.2780
  802SOL    HW1 2405   0.756   0.709   2.453  1.5502 -0.5470 -0.1673
  802SOL    HW2 2406   0.597   0.701   2.505 -1.6129  2.4996 -1.9106
  803SOL     OW 2407   0.940   0.076   0.867 -0.1782 -0.1928 -0.8885
  803SOL    HW1 2408   1.010   0.136   0.922 -1.6429  0.8598  0.3760
  803SOL    HW2 2409   0.904   0.119   0.780 -3.0772  0.3035  1.0737
  804SOL     OW 2410   0.282   3.092   2.170 -0.4970  0.5675  0.2260
  804SOL    HW1 2411   0.269   3.195   2.172  0.2716  1.7469 -3.1797
  804SOL    HW2 2412   0.233   3.052   2.088  0.0904  1.1584 -1.3664
  805SOL     OW 2413   2.341   0.398   0.302  0.2909 -0.1104  0.4570
  805SOL    HW1 2414   2.408   0.384   0.380  0.7618 -0.9253  1.7690
  805SOL    HW2 2415   2.355   0.325   0.224  1.5672 -2.4244  0.6115
  806SOL     OW 2416   0.624   2.476   1.825 -0.0042  0.1904  0.6144
  806SOL    HW1 2417   0.597   2.577   1.837  2.1056  2.2116  1.5288
  806SOL    HW2 2418   0.698   2.466   1.756 -1.0456 -0.9354 -1.0054
  807SOL     OW 2419   2.495   0.933   0.440  0.8671  0.0789  0.3508
  807SOL    HW1 2420   2.583   0.880   0.425 -0.9190  0.3714 -0.9121
  807SOL    HW2 2421   2.456   0.950   0.342 -0.0942 -2.1998 -3.2709
  808SOL     OW 2422   0.608   2.007   2.880 -0.3465  0.2478  0.0804
  808SOL    HW1 2423   0.580   2.054   2.968 -2.8381  2.5050 -0.6308
  808SOL    HW2 2424   0.629   1.904   2.891 -1.5599 -1.6597 -0.3594
  809SOL     OW 2425   2.539   2.003   1.889  0.2243 -0.1402 -0.2033
  809SOL    HW1 2426   2.634   2.051   1.902 -0.6745 -2.4770 -1.0790
  809SOL    HW2 2427   2.518   1.991   1.786 -2.6358  1.1329 -0.9234
  810SOL     OW 2428   2.138   1.096   0.527 -0.4057  0.1735  0.2729
  810SOL    HW1 2429   2.131   1.028   0.607  0.8705 -1.3827  1.2129
  810SOL    HW2 2430   2.102   1.194   0.554  0.3380 -0.7093  0.2162
  811SOL     OW 2431   1.349   2.565   1.205 -0.6464 -0.0105  0.1652
  811SOL    HW1 2432   1.360   2.462   1.216  0.1008  0.1806 -1.9123
  811SOL    HW2 2433   1.301   2.616   1.283 -0.6076 -0.8649 -0.5202
  812SOL     OW 2434   1.394   0.775   1.935 -0.8241 -0.0438 -0.3476
  812SOL    HW1 2435   1.310   0.742   1.879  0.7512 -1.6232 -2.3892
  812SOL    HW2 2436   1.396   0.878   1.945  2.9140 -2.5265 -0.8724
  813SOL     OW 2437   1.587   2.057   2.421  0.0297 -0.4623 -0.2407
  813SOL    HW1 2438   1.651   1.992   2.473  2.1342  0.5756 -0.4467
  813SOL    HW2 2439   1.596   2.044   2.320 -1.2468  0.6050  0.1790
  814SOL     OW 2440   2.959   1.641   2.898 -0.5539  1.2662 -0.1694
  814SOL    HW1 2441   3.051   1.601   2.930  1.8371  0.0270  1.5631
  814SOL    HW2 2442   2.964   1.742   2.906 -0.1979  1.5950  1.2626
  815SOL     OW 2443   2.186   2.900   2.755 -0.4023  0.0154 -0.5299
  815SOL    HW1 2444   2.171   2.814   2.812 -1.3013 -0.3913  1.5543
  815SOL    HW2 2445   2.276   2.948   2.782  1.6649 -0.0249 -0.1193
  816SOL     OW 2446   1.563   0.361   1.680 -0.4454  0.4355 -0.5203
  816SOL    HW1 2447   1.590   0.258   1.684 -0.8012  1.4209  0.1023
  816SOL    HW2 2448   1.496   0.385   1.756 -1.3587  0.9211  0.3873
  817SOL     OW 2449   0.393   1.182   2.654  0.4150 -0.2886 -0.1590
  817SOL    HW1 2450   0.298   1.181   2.695  1.4215  0.5934 -1.0091
  817SOL    HW2 2451   0.423   1.266   2.602  1.2279 -0.1730  2.3070
  818SOL     OW 2452   1.973   0.816   0.443 -0.1350  0.1996  0.0087
  818SOL    HW1 2453   2.076   0.817   0.434  0.3391  1.1697  0.6498
  818SOL    HW2 2454   1.937   0.862   0.533 -3.1394 -1.3905  0.5436
  819SOL     OW 2455   2.725   2.991   3.080 -0.1354  0.1315  0.6960
  819SOL    HW1 2456   2.750   2.908   3.138  2.4911 -1.7330  1.2205
  819SOL    HW2 2457   2.677   2.967   2.990  1.0734  1.8867 -1.7121
  820SOL     OW 2458   1.246   1.044   0.522  0.0679  0.2961 -0.2248
  820SOL    HW1 2459   1.280   1.127   0.566 -0.7212 -0.3326  0.6970
  820SOL    HW2 2460   1.227   0.973   0.596  0.8078 -0.2237  1.5075
  821SOL     OW 2461   0.043   1.237   0.721  0.2842 -0.7024  0.3185
  821SOL    HW1 2462  -0.019   1.244   0.810 -0.9189  1.6384 -1.3201
  821SOL    HW2 2463   0.085   1.329   0.701 -1.3572  0.4875  0.8214
  822SOL     OW 2464   2.515   1.792   2.457  0.2028 -0.3668 -0.1099
  822SOL    HW1 2465   2.515   1.865   2.533 -0.3311 -0.3693  0.8960
  822SOL    HW2 2466   2.436   1.806   2.388  0.2265  0.8672 -2.1964
  823SOL     OW 2467   1.988   0.915   1.166 -0.1356  0.6666  0.4166
  823SOL    HW1 2468   1.960   0.861   1.253  1.1016 -3.7410  2.0723
  823SOL    HW2 2469   1.911   0.953   1.104 -0.3243 -0.3121  2.0532
  824SOL     OW 2470   0.221   1.978   2.778  0.3208 -0.5297 -0.1862
  824SOL    HW1 2471   0.225   1.917   2.863 -1.8734 -0.1405 -0.0101
  824SOL    HW2 2472   0.282   1.962   2.697 -1.5090  0.7478 -1.1207
  825SOL     OW 2473   1.330   1.067   0.262 -0.0754  0.7242 -0.2727
  825SOL    HW1 2474   1.325   1.166   0.230  1.1090 -1.6146 -0.4170
  825SOL    HW2 2475   1.295   1.056   0.357  3.7336 -0.2769  2.7362
  826SOL     OW 2476   1.929   0.617   1.574 -0.1942  0.1930 -0.5715
  826SOL    HW1 2477   2.027   0.588   1.597 -0.6481 -1.2337  1.0599
  826SOL    HW2 2478   1.874   0.536   1.530 -0.9837 -0.5260 -0.3222
  827SOL     OW 2479   0.692   1.199   0.329  0.5432 -0.9360  0.9719
  827SOL    HW1 2480   0.750   1.149   0.258 -2.3623 -1.2940  0.1168
  827SOL    HW2 2481   0.617   1.140   0.367  0.3150  1.8417 -0.8394
  828SOL     OW 2482   2.668   0.122   1.514  0.1589  0.0356  0.1978
  828SOL    HW1 2483   2.576   0.076   1.500  1.5891  0.8792  0.9002
  828SOL    HW2 2484   2.683   0.154   1.614 -0.0799  1.7319  1.0094
  829SOL     OW 2485   2.966   2.414   2.850 -0.0221 -0.3267  0.7592
  829SOL    HW1 2486   2.885   2.371   2.899 -1.3008  2.2012 -2.4253
  829SOL    HW2 2487   2.987   2.510   2.882 -2.1998 -1.2965  1.8347
  830SOL     OW 2488   2.881   0.935   3.039  0.3956 -0.4763  0.2554
  830SOL    HW1 2489   2.934   1.019   3.053 -0.4839 -0.7571 -3.1550
  830SOL    HW2 2490   2.917   0.859   3.096  1.9262  0.6050  0.1976
  831SOL     OW 2491   0.011   0.548   0.412  0.0835  0.0779 -0.3006
  831SOL    HW1 2492  -0.031   0.503   0.496 -1.3332  1.6490  0.5944
  831SOL    HW2 2493   0.045   0.484   0.339  0.1603  0.4846 -1.0013
  832SOL     OW 2494   1.840   0.779   3.068 -0.1655  0.3414  0.7953
  832SOL    HW1 2495   1.747   0.811   3.039 -1.3197 -0.1866 -0.4392
  832SOL    HW2 2496   1.836   0.677   3.098 -3.5913 -3.0913 -2.7057
  833SOL     OW 2497   2.418   2.047   0.444 -0.3619  0.0602  0.2236
  833SOL    HW1 2498   2.321   2.025   0.458 -1.2660 -1.4346 -0.4375
  833SOL    HW2 2499   2.487   1.967   0.450 -0.9118  1.1696  0.3181
  834SOL     OW 2500   0.190   0.129   0.548  0.5172  0.6209  0.1909
  834SOL    HW1 2501   0.246   0.045   0.571 -0.7090 -2.7883  0.3815
  834SOL    HW2 2502   0.170   0.134   0.447 -0.2490  0.4471  1.9478
  835SOL     OW 2503   2.478   1.527   1.163  0.0773  0.2518  0.0793
  835SOL    HW1 2504   2.558   1.572   1.218  2.4282 -1.2982  0.4461
  835SOL    HW2 2505   2.513   1.508   1.068  2.4327  0.9398 -0.7776
  836SOL     OW 2506   1.628   0.827   2.590 -0.1425  0.0956  0.2652
  836SOL    HW1 2507   1.530   0.787   2.595 -1.7443 -0.3664  0.8278
  836SOL    HW2 2508   1.663   0.843   2.493  1.4221  0.7615  0.9020
  837SOL     OW 2509   1.666   0.071   0.607  0.6737  0.5021  0.1771
  837SOL    HW1 2510   1.629   0.158   0.652 -1.3614 -0.9653 -0.1577
  837SOL    HW2 2511   1.629   0.060   0.510  1.2257 -0.4782 -2.2109
  838SOL     OW 2512   1.235   1.361   2.700  0.3351  0.4584 -0.5297
  838SOL    HW1 2513   1.228   1.428   2.780  2.0578 -1.8816  1.5048
  838SOL    HW2 2514   1.139   1.343   2.664 -1.2317 -0.1163  2.0493
  839SOL     OW 2515   1.594   0.360   0.969 -0.6447 -0.6808 -0.0577
  839SOL    HW1 2516   1.610   0.423   1.047 -0.1257 -0.0344 -1.4083
  839SOL    HW2 2517   1.602   0.262   1.003 -1.6988 -1.9078 -0.4116
  840SOL     OW 2518   2.616   2.933   1.737 -0.3928  0.2378 -0.0345
  840SOL    HW1 2519   2.582   2.865   1.663 -1.3488 -0.1445  0.0612
  840SOL    HW2 2520   2.591   2.897   1.833  3.9890  1.1022  1.3287
  841SOL     OW 2521   1.543   0.855   2.962  0.0233 -0.3071 -0.6406
  841SOL    HW1 2522   1.470   0.909   3.010  0.1023 -0.1638  1.6288
  841SOL    HW2 2523   1.552   0.867   2.861 -1.9730  2.1286  0.5979
  842SOL     OW 2524   0.798   1.556   0.994  0.2630  0.3238 -0.2341
  842SOL    HW1 2525   0.779   1.644   1.038  0.4621 -1.1163 -1.2684
  842SOL    HW2 2526   0.720   1.520   0.934  0.3842 -0.2427  1.5075
  843SOL     OW 2527   0.120   0.118   1.428  0.3101 -0.5850  0.0168
  843SOL    HW1 2528   0.187   0.125   1.507  1.3286 -0.5274 -3.6106
  843SOL    HW2 2529   0.136   0.027   1.373 -0.2562  0.0795 -2.2033
  844SOL     OW 2530   0.775   2.491   0.247  0.0775  0.6497  0.2438
  844SOL    HW1 2531   0.740   2.479   0.345  1.2992  0.0647 -2.4448
  844SOL    HW2 2532   0.696   2.518   0.186 -0.6762 -1.9444  2.2350
  845SOL     OW 2533   1.692   2.949   1.334 -0.0888  0.4477 -0.6214
  845SOL    HW1 2534   1.692   2.973   1.434 -2.2788  3.9205 -1.6989
  845SOL    HW2 2535   1.627   3.005   1.276 -0.9755 -1.1333 -1.5281
  846SOL     OW 2536   1.718   2.957   0.909  0.1228 -0.1842 -0.1246
  846SOL    HW1 2537   1.705   2.966   0.807  3.1867 -1.2033 -1.8965
  846SOL    HW2 2538   1.797   2.894   0.935 -1.4032  0.1162  1.2052
  847SOL     OW 2539   2.090   1.616   0.211 -0.3014  0.1292  0.0539
  847SOL    HW1 2540   2.028   1.596   0.290  0.1208  1.3072 -0.5732
  847SOL    HW2 2541   2.046   1.597   0.116 -1.0055  0.2865 -2.2442
  848SOL     OW 2542   2.466   0.815   2.666 -0.2007  0.5130 -0.3791
  848SOL    HW1 2543   2.475   0.919   2.678 -1.4692  2.4216 -0.6334
  848SOL    HW2 2544   2.403   0.785   2.584  2.7818 -0.0473  0.8799
  849SOL     OW 2545   2.425   0.846   2.318 -0.4462  0.4444  0.3182
  849SOL    HW1 2546   2.473   0.786   2.243 -0.9118  0.0231 -2.3543
  849SOL    HW2 2547   2.362   0.789   2.378  0.1252 -0.8777 -0.2891
  850SOL     OW 2548   1.590   0.134   1.276  0.8817  0.5854 -0.1579
  850SOL    HW1 2549   1.588   0.150   1.175  1.1128  2.8644 -0.6823
  850SOL    HW2 2550   1.521   0.068   1.321  0.4674 -1.5204 -0.4164
  851SOL     OW 2551   0.465   1.761   0.686  0.2753  0.4987  0.0960
  851SOL    HW1 2552   0.482   1.864   0.702 -1.0897 -0.0106  2.4494
  851SOL    HW2 2553   0.553   1.710   0.677 -1.2832  0.3070 -1.6191
  852SOL     OW 2554   0.797   2.116   1.662 -0.9624  0.3069  0.3550
  852SOL    HW1 2555   0.812   2.212   1.618  1.7838  2.0695  0.8480
  852SOL    HW2 2556   0.723   2.119   1.736  0.7662 -2.0598 -2.8572
  853SOL     OW 2557   2.541   1.555   2.583 -0.2044  0.1463 -0.1863
  853SOL    HW1 2558   2.498   1.464   2.556  2.3979 -0.6513  0.7087
  853SOL    HW2 2559   2.529   1.631   2.505 -3.2586 -0.3231 -1.8496
  854SOL     OW 2560   2.414   1.409   1.775 -0.7057 -0.3115 -0.4641
  854SOL    HW1 2561   2.477   1.381   1.696  1.0537 -1.2224  0.6475
  854SOL    HW2 2562   2.389   1.323   1.831 -2.4716 -1.6068  0.4982
  855SOL     OW 2563   2.033   2.331   0.961 -0.2536 -0.1908  0.2944
  855SOL    HW1 2564   2.091   2.401   0.908  1.5989 -0.4921  1.3877
  855SOL    HW2 2565   2.084   2.294   1.050  2.7379 -2.0984 -0.7790
  856SOL     OW 2566   1.406   1.365   0.913  0.4600 -0.3722 -0.5946
  856SOL    HW1 2567   1.418   1.463   0.933  1.3094 -2.2838 -3.6036
  856SOL    HW2 2568   1.340   1.324   0.977 -1.0505 -0.5964  0.6822
  857SOL     OW 2569   2.991   2.608   1.071  0.1392 -1.4757 -0.0801
  857SOL    HW1 2570   2.907   2.546   1.073 -0.3783 -0.7069 -0.5917
  857SOL    HW2 2571   3.071   2.558   1.021  3.4759 -3.3976  1.2688
  858SOL     OW 2572   2.301   2.166   1.713 -0.6000  0.5424  1.3091
  858SOL    HW1 2573   2.206   2.173   1.680  0.2035 -1.9424  2.4135
  858SOL    HW2 2574   2.366   2.105   1.658 -2.8770 -0.2403 -0.5683
  859SOL     OW 2575   2.453   0.502   1.036  0.1374 -0.0058 -0.0620
  859SOL    HW1 2576   2.499   0.522   0.943  0.4619  2.2255 -4.2574
  859SOL    HW2 2577   2.493   0.423   1.094  1.8695 -1.2940 -2.3083
  860SOL     OW 2578   1.963   2.770   0.470  0.2166 -0.3694  0.3801
  860SOL    HW1 2579   1.912   2.750   0.376 -1.1279  0.4949 -1.2053
  860SOL    HW2 2580   2.034   2.844   0.456  1.4571 -1.2200 -2.5511
  861SOL     OW 2581   1.101   2.604   2.763 -0.0671 -0.0390  0.2294
  861SOL    HW1 2582   1.117   2.707   2.737 -1.3331  1.5683  0.0132
  861SOL    HW2 2583   1.179   2.575   2.826  2.4407  0.7499  0.8263
  862SOL     OW 2584   2.928   2.537   1.567 -0.0813  0.3890 -0.5069
  862SOL    HW1 2585   3.019   2.561   1.614 -0.9255  1.9703  0.0478
  862SOL    HW2 2586   2.878   2.625   1.535  0.7999 -4.8741  0.0770
  863SOL     OW 2587   1.870   2.620   0.214  0.2468  0.1323  0.4237
  863SOL    HW1 2588   1.923   2.537   0.184  1.7175 -0.4431 -0.3848
  863SOL    HW2 2589   1.773   2.589   0.250  0.9222 -4.2513 -1.1977
  864SOL     OW 2590   1.866   1.191   2.943 -0.2872  0.1658  0.1200
  864SOL    HW1 2591   1.885   1.153   2.849 -0.1801  3.4355 -0.1298
  864SOL    HW2 2592   1.942   1.168   3.008 -0.6174 -1.3970  3.2338
  865SOL     OW 2593   2.184   1.778   0.684 -0.2288 -0.3481 -0.4203
  865SOL    HW1 2594   2.249   1.793   0.760 -1.5958  0.6642 -0.3135
  865SOL    HW2 2595   2.100   1.742   0.725  0.0990 -1.0258 -1.7515
  866SOL     OW 2596   2.951   2.880   1.023 -0.5150 -0.1335 -0.3129
  866SOL    HW1 2597   3.012   2.900   0.940 -0.3846 -0.7741  2.2279
  866SOL    HW2 2598   2.943   2.780   1.043 -2.0514 -0.8226  0.6314
  867SOL     OW 2599   0.421   1.333   0.869  0.0226  0.3319 -0.0763
  867SOL    HW1 2600   0.442   1.231   0.857 -0.7737  0.2823  0.6284
  867SOL    HW2 2601   0.343   1.358   0.808 -1.5615 -1.8524  2.0018
  868SOL     OW 2602   0.824   1.922   2.022  0.0687 -0.4341 -0.0183
  868SOL    HW1 2603   0.804   1.888   2.115  1.6461 -0.3169 -0.9002
  868SOL    HW2 2604   0.796   2.021   2.008 -1.7817  2.8285  1.4775
  869SOL     OW 2605   2.482   2.000   1.589  0.2783  0.1916  0.0035
  869SOL    HW1 2606   2.574   2.046   1.564  1.5289 -0.4540 -0.0114
  869SOL    HW2 2607   2.477   1.907   1.541  1.1507 -1.1021  1.3602
  870SOL     OW 2608   2.276   2.582   1.236  0.5459 -0.9803  0.2102
  870SOL    HW1 2609   2.226   2.493   1.211  3.0941 -0.0369 -0.9340
  870SOL    HW2 2610   2.372   2.562   1.257  0.8335 -0.3145 -2.3195
  871SOL     OW 2611   2.989   2.077   0.565  0.2537 -0.1385 -0.0265
  871SOL    HW1 2612   2.918   2.105   0.639 -1.9132  1.0618 -0.5515
  871SOL    HW2 2613   2.938   2.028   0.491 -1.7842 -0.1465  2.3425
  872SOL     OW 2614   2.147   0.501   1.700  0.0073  0.1915  0.1862
  872SOL    HW1 2615   2.083   0.475   1.777  0.3301  0.5924 -0.5699
  872SOL    HW2 2616   2.245   0.479   1.719  0.2405  1.5355 -0.1401
  873SOL     OW 2617   1.735   2.094   2.968  0.0102  0.4167 -0.3176
  873SOL    HW1 2618   1.724   2.199   2.970  0.9783  1.6141  0.7619
  873SOL    HW2 2619   1.677   2.055   2.890 -1.4397  2.2085 -0.7305
  874SOL     OW 2620   0.666   2.473   0.762  0.2196  0.7466  0.5215
  874SOL    HW1 2621   0.667   2.575   0.783  1.4013 -1.7711 -2.0961
  874SOL    HW2 2622   0.758   2.429   0.769  0.5634  0.4660 -1.2866
  875SOL     OW 2623   2.271   1.561   1.478  0.1752 -0.0023  0.1918
  875SOL    HW1 2624   2.343   1.615   1.527  0.5247  0.6038  2.8697
  875SOL    HW2 2625   2.256   1.574   1.373  0.7810 -1.9475 -1.5100
  876SOL     OW 2626   0.151   2.225   2.690 -0.0349 -0.5061  0.0136
  876SOL    HW1 2627   0.195   2.135   2.719  1.6380 -2.5608 -1.1029
  876SOL    HW2 2628   0.166   2.300   2.762 -1.8066 -0.2029 -1.5800
  877SOL     OW 2629   2.760   2.674   0.662  0.6109 -0.2617 -0.2520
  877SOL    HW1 2630   2.809   2.769   0.657  2.8417  2.8137  0.8345
  877SOL    HW2 2631   2.824   2.592   0.669  1.0996  1.6721  1.5811
  878SOL     OW 2632   2.881   1.443   2.222  0.2615  0.0895 -0.9939
  878SOL    HW1 2633   2.982   1.429   2.230 -1.1264 -1.4381  0.4761
  878SOL    HW2 2634   2.843   1.465   2.315 -0.9448 -0.5104 -4.2054
  879SOL     OW 2635   2.387   0.023   1.183 -0.1919 -0.2603  0.0943
  879SOL    HW1 2636   2.432  -0.070   1.205  1.3181  1.1636  2.0231
  879SOL    HW2 2637   2.323   0.013   1.101 -0.7657  0.3311  0.1478
  880SOL     OW 2638   0.720   0.452   2.190 -0.0588  0.3641 -0.4156
  880SOL    HW1 2639   0.640   0.389   2.223  1.6583  1.5796 -2.4420
  880SOL    HW2 2640   0.794   0.405   2.133  0.1308  2.0243  2.4950
  881SOL     OW 2641   0.904   0.045   0.414  0.6760 -0.1152  0.1446
  881SOL    HW1 2642   0.927  -0.033   0.475 -1.5453  1.7664 -3.7188
  881SOL    HW2 2643   0.883   0.011   0.315 -0.4283 -0.9526 -1.0975
  882SOL     OW 2644   2.724   1.616   1.665  0.5551  0.1954 -0.0821
  882SOL    HW1 2645   2.825   1.592   1.647 -1.1878 -2.6072  1.7729
  882SOL    HW2 2646   2.712   1.666   1.755  0.1742  0.7408  1.9956
  883SOL     OW 2647   0.968   0.584   0.970  0.2944 -0.1427  0.0501
  883SOL    HW1 2648   0.952   0.675   1.007 -0.5475 -2.1268 -2.3344
  883SOL    HW2 2649   1.067   0.552   0.974  0.0574 -2.0344  1.0311
  884SOL     OW 2650   1.176   1.859   1.041  0.1888  1.1170 -0.1432
  884SOL    HW1 2651   1.142   1.826   0.949 -1.5283  2.9722  0.4398
  884SOL    HW2 2652   1.125   1.949   1.066 -0.7470 -0.0708 -1.2879
  885SOL     OW 2653   2.285   1.855   2.309 -0.7288  0.2472  0.0494
  885SOL    HW1 2654   2.224   1.819   2.381 -1.1928  0.8047  0.1276
  885SOL    HW2 2655   2.268   1.955   2.296 -0.2930 -2.5685  2.1659
  886SOL     OW 2656   2.667   0.465   1.783  0.1973 -0.3203  0.3072
  886SOL    HW1 2657   2.719   0.406   1.854 -0.3653  1.3878  0.5990
  886SOL    HW2 2658   2.732   0.532   1.737  0.1225 -0.1306  0.0774
  887SOL     OW 2659   0.098   2.053   1.249 -0.3334  0.2028  0.1494
  887SOL    HW1 2660   0.031   2.010   1.181 -2.0027  0.7141 -0.2437
  887SOL    HW2 2661   0.159   2.121   1.207 -1.4408 -1.4497  0.5025
  888SOL     OW 2662   0.544   1.305   1.556  0.3131 -0.3488 -0.4737
  888SOL    HW1 2663   0.614   1.292   1.480 -2.3261 -0.3273  0.2952
  888SOL    HW2 2664   0.489   1.216   1.578 -2.8398 -0.0710  1.7334
  889SOL     OW 2665   0.846   2.476   2.135  0.4450  0.4011 -0.4118
  889SOL    HW1 2666   0.781   2.407   2.102 -0.5667  0.0481 -1.8403
  889SOL    HW2 2667   0.913   2.502   2.065 -1.0901 -1.8258 -1.0849
  890SOL     OW 2668   2.361   2.475   0.191  0.2455  0.1924 -0.1171
  890SOL    HW1 2669   2.358   2.540   0.112  0.3477 -1.1603 -1.4504
  890SOL    HW2 2670   2.303   2.506   0.270  0.2450 -1.0883 -0.4897
  891SOL     OW 2671   2.635   1.523   0.637  0.3444 -0.0591 -0.3462
  891SOL    HW1 2672   2.668   1.453   0.703 -0.8705  1.6000 -3.1467
  891SOL    HW2 2673   2.535   1.536   0.647  2.5498 -1.5835 -0.0369
  892SOL     OW 2674   0.263   0.277   2.225 -0.4607  0.3856  0.6973
  892SOL    HW1 2675   0.269   0.279   2.119  0.9061  1.3829 -0.9530
  892SOL    HW2 2676   0.353   0.281   2.273 -1.9482 -0.2348  2.6116
  893SOL     OW 2677   1.685   0.217   2.765  0.2540 -0.0413 -0.0991
  893SOL    HW1 2678   1.759   0.284   2.785 -2.2536  0.2439  1.2036
  893SOL    HW2 2679   1.599   0.264   2.737  0.7390  0.3232  0.7421
  894SOL     OW 2680   2.217   2.022   0.049  0.0544 -0.0592  0.2181
  894SOL    HW1 2681   2.226   1.968  -0.039 -0.0233 -0.4182 -2.7326
  894SOL    HW2 2682   2.225   1.961   0.131  1.1408  2.8059 -0.3302
  895SOL     OW 2683   2.890   1.429   0.857  0.7601  0.1520 -0.5425
  895SOL    HW1 2684   2.913   1.414   0.955 -0.9926  2.3874  1.2520
  895SOL    HW2 2685   2.970   1.470   0.807  0.3839 -0.1154  2.9317
  896SOL     OW 2686   1.726   1.776   1.159 -0.4422 -0.2885 -0.0698
  896SOL    HW1 2687   1.783   1.834   1.094  0.3687 -1.9668  0.8423
  896SOL    HW2 2688   1.629   1.811   1.162 -0.4304  3.0782  0.1818
  897SOL     OW 2689   0.271   0.551   3.056 -0.1308 -0.1394  0.2948
  897SOL    HW1 2690   0.205   0.617   3.009  0.0883 -1.2152  0.9636
  897SOL    HW2 2691   0.364   0.601   3.060 -2.1715 -0.3617 -1.3087
  898SOL     OW 2692   0.569   2.832   1.126  0.1369  0.2226 -0.0139
  898SOL    HW1 2693   0.507   2.914   1.133 -0.0619 -0.5937 -1.1425
  898SOL    HW2 2694   0.669   2.851   1.139  0.7515  1.3257  0.2526
  899SOL     OW 2695   2.713   0.963   1.246 -0.3928  0.1704  0.1778
  899SOL    HW1 2696   2.625   0.958   1.187 -1.7153 -0.6105  0.8164
  899SOL    HW2 2697   2.791   0.948   1.178  1.1645 -0.2735  0.9666
  900SOL     OW 2698   0.999   2.545   2.350  0.0908 -0.2141 -0.6111
  900SOL    HW1 2699   0.956   2.509   2.265  3.4060  0.5865  0.2049
  900SOL    HW2 2700   0.937   2.531   2.437 -1.1541 -0.7875 -1.1698
  901SOL     OW 2701   1.935   2.420   1.357 -0.1844  0.8049 -0.1338
  901SOL    HW1 2702   1.908   2.438   1.257 -0.0077  0.6303  3.0995
  901SOL    HW2 2703   2.029   2.388   1.379 -2.9836  2.0978  0.4516
  902SOL     OW 2704   2.583   1.642   1.439 -0.1525 -0.7121 -0.0434
  902SOL    HW1 2705   2.616   1.633   1.537  0.1041  0.8423  0.8713
  902SOL    HW2 2706   2.631   1.576   1.371  1.5735  1.3609  0.4321
  903SOL     OW 2707   0.247   2.442   2.024 -0.0290 -0.1702 -0.0139
  903SOL    HW1 2708   0.174   2.375   1.994  0.4794 -3.1322  0.5107
  903SOL    HW2 2709   0.268   2.509   1.946  0.4271  0.3050  2.1387
  904SOL     OW 2710   1.987   0.758   2.440  0.2158  0.4449  0.8600
  904SOL    HW1 2711   1.913   0.697   2.490 -3.9001  1.5030 -0.3375
  904SOL    HW2 2712   1.968   0.761   2.339  2.2447  0.5074  0.5523
  905SOL     OW 2713   2.783   0.050   2.590 -0.5164 -0.6110  0.1522
  905SOL    HW1 2714   2.853  -0.022   2.612 -1.2347 -0.1894 -1.3702
  905SOL    HW2 2715   2.818   0.136   2.546 -1.9840  0.2661 -0.3682
  906SOL     OW 2716   0.198   1.787   1.871  0.6462  0.3237  0.5125
  906SOL    HW1 2717   0.143   1.814   1.788  0.5953  2.3996  0.4591
  906SOL    HW2 2718   0.278   1.850   1.889 -1.2715  0.1887  1.6695
  907SOL     OW 2719   0.168   2.503   1.015 -0.0631  0.5348  0.2213
  907SOL    HW1 2720   0.224   2.577   1.064  0.0866 -1.2848  2.2169
  907SOL    HW2 2721   0.179   2.515   0.913 -1.7424 -0.6164  0.1677
  908SOL     OW 2722   2.689   2.967   0.453 -0.0638 -0.3006 -0.1246
  908SOL    HW1 2723   2.685   3.019   0.364  2.2944  2.4147  1.4749
  908SOL    HW2 2724   2.732   2.879   0.431 -1.9411 -0.6358 -0.8830
  909SOL     OW 2725   0.825   0.911   2.674  0.1825 -0.1914  0.3316
  909SOL    HW1 2726   0.795   0.817   2.638  2.4917  0.4915 -0.3265
  909SOL    HW2 2727   0.884   0.958   2.603 -0.4431 -0.3934  0.2223
  910SOL     OW 2728   1.761   1.817   2.082  0.0078 -0.6969  0.1362
  910SOL    HW1 2729   1.820   1.857   2.009  0.4548  0.3014 -0.2389
  910SOL    HW2 2730   1.673   1.871   2.094 -0.8690 -0.4163  0.4863
  911SOL     OW 2731   1.788   2.985   1.606 -0.5062  0.4301  0.2398
  911SOL    HW1 2732   1.869   2.935   1.562 -0.7343  1.0750  1.6693
  911SOL    HW2 2733   1.755   2.944   1.699  2.3506 -0.8210  1.0048
  912SOL     OW 2734   2.864   0.946   0.758 -0.1155  0.0349  0.0199
  912SOL    HW1 2735   2.870   0.946   0.861 -0.4217 -0.8494 -1.5154
  912SOL    HW2 2736   2.834   1.038   0.716 -0.2098  0.6962  0.7136
  913SOL     OW 2737   2.548   1.286   1.574 -0.5547  0.6043 -0.2069
  913SOL    HW1 2738   2.607   1.201   1.569 -0.6072 -1.7335  1.6440
  913SOL    HW2 2739   2.543   1.332   1.481  0.6687 -0.6913  1.9772
  914SOL     OW 2740   2.805   0.525   1.227  0.1921  0.2448 -0.1918
  914SOL    HW1 2741   2.785   0.423   1.244 -5.1468  1.0547 -0.9408
  914SOL    HW2 2742   2.748   0.588   1.285  2.6209 -2.7455  0.4386
  915SOL     OW 2743   1.217   0.816   1.005  0.4667 -0.6038  0.2164
  915SOL    HW1 2744   1.249   0.771   1.093  1.3828  1.2320  0.5047
  915SOL    HW2 2745   1.114   0.840   1.014 -1.3709  1.5704  2.8937
  916SOL     OW 2746   0.573   0.032   0.665 -0.7140  0.4633 -0.1341
  916SOL    HW1 2747   0.613   0.091   0.744 -0.7498  0.1386 -0.3702
  916SOL    HW2 2748   0.612   0.050   0.570  1.8039 -0.5275  1.8278
  917SOL     OW 2749   2.804   2.619   1.976 -0.5037  0.6045 -0.6013
  917SOL    HW1 2750   2.713   2.657   1.962  1.6471  0.4767 -0.7220
  917SOL    HW2 2751   2.879   2.683   1.941  1.1939 -0.5991  3.2791
  918SOL     OW 2752   0.992   2.206   3.030 -0.3129 -0.5261 -0.6794
  918SOL    HW1 2753   0.929   2.210   3.116 -0.2457 -0.9464  0.2219
  918SOL    HW2 2754   1.029   2.109   3.019 -0.9963 -0.6361  1.7196
  919SOL     OW 2755   0.920   1.583   2.795  0.2780 -0.1054 -0.8176
  919SOL    HW1 2756   0.945   1.646   2.718  1.0261 -1.7015 -0.0559
  919SOL    HW2 2757   0.855   1.507   2.764  0.7737  1.3656  0.8893
  920SOL     OW 2758   1.251   2.017   2.489 -0.2102  0.3716 -0.1292
  920SOL    HW1 2759   1.245   2.026   2.383 -2.2701  1.1359 -2.4956
  920SOL    HW2 2760   1.271   1.916   2.518 -0.8139  0.0042  0.5662
  921SOL     OW 2761   1.116   0.041   2.567  0.5665 -0.4368  0.0764
  921SOL    HW1 2762   1.106   0.072   2.466  0.8119 -0.8978  1.8405
  921SOL    HW2 2763   1.030  -0.006   2.607 -2.4887 -1.1589 -1.2429
  922SOL     OW 2764   2.160   2.386   2.807  0.5616 -0.0742 -0.5856
  922SOL    HW1 2765   2.136   2.285   2.817  2.1450  0.8767 -1.5482
  922SOL    HW2 2766   2.097   2.433   2.740  1.0157  0.0528  2.7180
  923SOL     OW 2767   1.230   2.710   0.249 -0.5031 -0.0715  0.2754
  923SOL    HW1 2768   1.300   2.752   0.313  0.8423  2.0304 -0.5206
  923SOL    HW2 2769   1.260   2.614   0.218 -1.5838  1.3944 -0.7463
  924SOL     OW 2770   2.913   1.566   0.084  0.2508 -0.2701  0.1452
  924SOL    HW1 2771   2.826   1.539   0.035  2.5856  0.3825  0.7920
  924SOL    HW2 2772   2.998   1.526   0.038  2.0581  3.9288 -1.4201
  925SOL     OW 2773   0.006   2.902   1.588  0.1013 -0.3005  0.3324
  925SOL    HW1 2774  -0.092   2.923   1.618  0.3642 -1.7807  0.3642
  925SOL    HW2 2775   0.016   2.887   1.486  0.5841  0.1684 -1.6402
  926SOL     OW 2776   1.350   2.880   1.311 -0.0707  0.3463 -0.1784
  926SOL    HW1 2777   1.393   2.864   1.219  0.9193  1.9976  0.2600
  926SOL    HW2 2778   1.385   2.971   1.349  1.4894 -1.1573  0.3739
  927SOL     OW 2779   0.270   2.630   1.804 -0.1550 -0.3030  0.4266
  927SOL    HW1 2780   0.252   2.560   1.726  0.2273 -0.9616  0.4687
  927SOL    HW2 2781   0.249   2.729   1.782 -1.9528 -1.2948  0.1699
  928SOL     OW 2782   1.565   2.018   2.129 -0.2622  0.2992  0.0714
  928SOL    HW1 2783   1.619   2.105   2.116 -0.2969  0.2055 -1.1007
  928SOL    HW2 2784   1.472   2.012   2.094  1.1495 -0.2864 -1.3792
  929SOL     OW 2785   2.413   2.481   2.851 -0.1903  0.0533 -0.1929
  929SOL    HW1 2786   2.314   2.456   2.858  4.5759  2.5297  1.5791
  929SOL    HW2 2787   2.446   2.492   2.754  2.3030 -0.8376 -0.4590
  930SOL     OW 2788   2.177   2.016   1.070  0.1894 -0.1223  0.2885
  930SOL    HW1 2789   2.170   1.971   1.166  0.9484 -1.4434 -0.3575
  930SOL    HW2 2790   2.250   2.088   1.085 -0.4947  0.8252 -0.1829
  931SOL     OW 2791   0.541   1.702   2.654  0.1134 -0.2934 -0.3892
  931SOL    HW1 2792   0.599   1.736   2.736  1.0178 -2.2999  2.8521
  931SOL    HW2 2793   0.550   1.599   2.631  0.8749 -1.3813 -2.3516
  932SOL     OW 2794   0.452   0.053   2.908 -0.2459  0.0893 -0.3928
  932SOL    HW1 2795   0.541   0.086   2.876 -0.7539  2.1615  0.0512
  932SOL    HW2 2796   0.450  -0.045   2.946 -2.1209 -0.2698  0.0956
  933SOL     OW 2797   1.061   0.770   2.987 -0.3273  0.0914 -0.3031
  933SOL    HW1 2798   1.141   0.803   3.044 -0.5109 -2.4068  0.4865
  933SOL    HW2 2799   1.008   0.852   2.950  4.1430  3.3076 -0.2920
  934SOL     OW 2800   0.874   3.042   2.717  0.0827  0.1898  0.4198
  934SOL    HW1 2801   0.866   2.962   2.652  1.4763 -1.6100  3.5590
  934SOL    HW2 2802   0.906   3.010   2.811  2.4387  0.8558 -2.0938
  935SOL     OW 2803   3.077   0.513   0.785 -0.1698  0.0749  0.0968
  935SOL    HW1 2804   3.095   0.421   0.738 -0.4447 -3.3299 -0.7272
  935SOL    HW2 2805   2.988   0.549   0.746  0.9184 -0.7490  1.6130
  936SOL     OW 2806   1.100   2.909   0.151 -0.3577 -0.2520  0.0418
  936SOL    HW1 2807   1.149   2.920   0.055 -0.1035  1.4648  0.4486
  936SOL    HW2 2808   1.131   2.825   0.204 -1.1384  0.0622  1.0671
  937SOL     OW 2809   1.895   2.620   2.104 -0.0821  0.0775 -0.0462
  937SOL    HW1 2810   1.827   2.652   2.170 -0.6189 -2.5591 -0.6771
  937SOL    HW2 2811   1.880   2.643   2.004 -2.4196  1.4716  0.8366
  938SOL     OW 2812   2.730   2.107   1.555  0.3942  0.4412 -0.6758
  938SOL    HW1 2813   2.723   2.196   1.606  1.5104  0.2985 -2.8379
  938SOL    HW2 2814   2.816   2.059   1.585 -2.1362  2.8434 -1.8715
  939SOL     OW 2815   2.818   1.240   2.462 -0.4401 -1.3541 -0.4152
  939SOL    HW1 2816   2.899   1.221   2.397 -0.8462 -0.1023 -0.7660
  939SOL    HW2 2817   2.840   1.218   2.564 -0.8375  2.3682  0.6109
  940SOL     OW 2818   1.001   0.444   2.657  0.5943 -0.2794 -0.0519
  940SOL    HW1 2819   1.062   0.359   2.680  0.4549 -0.4717 -2.2681
  940SOL    HW2 2820   0.893   0.437   2.645  1.9349 -2.5918  0.5162
  941SOL     OW 2821   0.042   2.847   2.221 -0.4274 -1.0092  0.2203
  941SOL    HW1 2822   0.031   2.746   2.234  2.5438  2.9179  0.7588
  941SOL    HW2 2823   0.083   2.891   2.312 -1.5882 -1.1703  1.9901
  942SOL     OW 2824   0.037   0.114   2.552 -0.5471 -0.8044 -0.0157
  942SOL    HW1 2825   0.117   0.134   2.611 -0.3135 -1.6480  0.4437
  942SOL    HW2 2826   0.039   0.172   2.465  0.9803 -2.4974 -1.5322
  943SOL     OW 2827   2.109   1.691   2.439  0.0765 -0.0108  0.4064
  943SOL    HW1 2828   2.133   1.645   2.349 -0.6812 -3.1940  1.6717
  943SOL    HW2 2829   2.089   1.625   2.518  2.2994  0.0934 -3.1696
  944SOL     OW 2830   2.168   2.329   1.459  0.1024  0.1012 -0.0478
  944SOL    HW1 2831   2.248   2.379   1.503 -0.3637 -1.0808  0.0451
  944SOL    HW2 2832   2.101   2.283   1.529 -0.7521  0.2108  2.1706
  945SOL     OW 2833   0.621   1.482   0.359  0.4321 -0.0702 -0.1597
  945SOL    HW1 2834   0.689   1.544   0.307  0.7889  1.2956  0.0463
  945SOL    HW2 2835   0.633   1.381   0.328 -0.7162 -2.3880 -0.6716
  946SOL     OW 2836   0.436   0.927   2.520 -0.0063  0.1932  0.4421
  946SOL    HW1 2837   0.351   0.895   2.468  0.5442 -1.7223  2.7220
  946SOL    HW2 2838   0.437   1.022   2.566 -1.2642  3.2239  1.1218
  947SOL     OW 2839   1.539   0.575   0.024 -0.7042  0.0970  0.1393
  947SOL    HW1 2840   1.510   0.578  -0.075 -1.8684 -2.0351 -0.6225
  947SOL    HW2 2841   1.462   0.618   0.085  0.8023  0.1465 -0.3107
  948SOL     OW 2842   2.049   3.085   2.198 -0.3865 -0.0651  0.2352
  948SOL    HW1 2843   2.019   3.054   2.104  1.0331 -1.0651  0.5914
  948SOL    HW2 2844   2.011   3.013   2.265 -1.4176  0.0192 -0.2727
  949SOL     OW 2845   0.690   2.544   0.495  0.0116 -0.0722 -0.4685
  949SOL    HW1 2846   0.649   2.639   0.495  0.6570 -0.0914  1.2388
  949SOL    HW2 2847   0.686   2.508   0.592 -3.4363  2.0506  0.6154
  950SOL     OW 2848   0.261   2.165   3.063  0.6690  0.4647  0.5371
  950SOL    HW1 2849   0.182   2.231   3.067  1.1520  0.1027 -1.4745
  950SOL    HW2 2850   0.270   2.109   2.977 -0.0617  1.4712  0.6886
  951SOL     OW 2851   1.177   2.859   2.718 -0.1850  0.0215  0.4475
  951SOL    HW1 2852   1.138   2.924   2.649 -0.4965  1.8441 -2.1568
  951SOL    HW2 2853   1.274   2.882   2.737 -0.6077 -1.4531 -0.0356
  952SOL     OW 2854   0.093   1.635   0.439 -0.2566 -0.8023  0.0899
  952SOL    HW1 2855   0.151   1.725   0.456 -1.3238  1.9374  0.9526
  952SOL    HW2 2856   0.044   1.608   0.525  2.0524  2.2310  0.1176
  953SOL     OW 2857   2.522   1.785   0.190  0.5492  0.3091  0.7647
  953SOL    HW1 2858   2.515   1.680   0.219  0.8854 -2.3960  1.7486
  953SOL    HW2 2859   2.532   1.802   0.089 -0.2627  2.0793  1.8715
  954SOL     OW 2860   2.194   0.534   0.982  0.0781  0.4731  0.1006
  954SOL    HW1 2861   2.152   0.541   0.885 -0.8308 -1.0029 -2.9709
  954SOL    HW2 2862   2.295   0.510   0.981 -0.0515 -2.3909 -1.3089
  955SOL     OW 2863   0.246   2.692   1.362 -0.8005  0.2092  0.1061
  955SOL    HW1 2864   0.150   2.656   1.374  1.1572 -0.2220  1.3844
  955SOL    HW2 2865   0.268   2.707   1.260 -2.8541  0.2174 -2.4137
  956SOL     OW 2866   2.763   2.463   2.451  0.2036  0.6120 -0.0578
  956SOL    HW1 2867   2.762   2.365   2.446  2.1564  0.3840 -2.0708
  956SOL    HW2 2868   2.789   2.512   2.363  1.4860  0.6915  2.7748
  957SOL     OW 2869   1.562   2.000   2.739  0.4733 -0.4808 -0.1295
  957SOL    HW1 2870   1.511   1.911   2.756  1.2495  3.0579 -2.0459
  957SOL    HW2 2871   1.556   2.033   2.639  0.5619 -1.1002  0.1055
  958SOL     OW 2872   2.725   2.327   2.960 -0.4187  0.2695  0.3364
  958SOL    HW1 2873   2.634   2.374   2.938  0.4889 -1.1605 -1.3090
  958SOL    HW2 2874   2.711   2.261   3.039  1.5586 -0.1815 -0.0567
  959SOL     OW 2875   0.250   2.739   0.128  0.3092 -0.2146  0.0381
  959SOL    HW1 2876   0.152   2.772   0.115  1.7085  2.2382 -1.6634
  959SOL    HW2 2877   0.267   2.667   0.195  0.0234  0.3096 -0.8648
  960SOL     OW 2878   1.981   0.443   1.944  0.0955  0.1168  0.6048
  960SOL    HW1 2879   1.927   0.530   1.916 -1.2262  2.2764 -0.1041
  960SOL    HW2 2880   1.973   0.433   2.046  0.2676 -0.1173 -1.5379
  961SOL     OW 2881   2.570   1.835   1.028  0.2035  0.4219 -0.0600
  961SOL    HW1 2882   2.541   1.911   0.963 -0.9656 -0.8078 -2.3875
  961SOL    HW2 2883   2.543   1.846   1.129 -0.5082 -0.7615  0.3496
  962SOL     OW 2884   1.282   0.896   0.048  0.6289 -0.0824 -0.0222
  962SOL    HW1 2885   1.269   0.974  -0.022 -0.4218  0.1124  1.4135
  962SOL    HW2 2886   1.317   0.933   0.141 -0.6509  0.4940  0.8162
  963SOL     OW 2887   2.211   2.549   1.854  0.2747  0.0742  0.2323
  963SOL    HW1 2888   2.227   2.477   1.926 -0.7879 -0.2464  0.6987
  963SOL    HW2 2889   2.206   2.640   1.894  0.7804 -1.7241 -0.2889
  964SOL     OW 2890   2.416   0.424   1.689  0.2505 -0.5001  0.2074
  964SOL    HW1 2891   2.511   0.453   1.721  0.1692  1.5442 -0.4712
  964SOL    HW2 2892   2.425   0.404   1.590  0.7474  0.1793 -1.4718
  965SOL     OW 2893   2.603   3.077   0.197  0.3072  0.1943 -0.4889
  965SOL    HW1 2894   2.669   3.060   0.118 -2.4709 -0.3834 -0.8256
  965SOL    HW2 2895   2.498   3.060   0.174 -2.0547 -1.1022 -1.8527
  966SOL     OW 2896   2.467   2.468   2.303 -0.1295  0.3583  0.0085
  966SOL    HW1 2897   2.377   2.459   2.354  3.1466 -0.7440 -0.3216
  966SOL    HW2 2898   2.466   2.538   2.226 -1.9809  1.3025  0.0942
  967SOL     OW 2899   2.822   2.784   2.462  0.1720  0.0986  0.5864
  967SOL    HW1 2900   2.856   2.726   2.385  1.8384  1.4674  0.4771
  967SOL    HW2 2901   2.896   2.842   2.508  0.9080 -0.6013  0.3215
  968SOL     OW 2902   1.914   1.072   2.661  0.2320 -0.4539  0.0814
  968SOL    HW1 2903   1.875   1.136   2.588  0.9845  2.9294 -2.3031
  968SOL    HW2 2904   1.874   0.973   2.658 -2.4965 -2.3529 -1.1038
  969SOL     OW 2905   2.732   2.452   1.081  0.2969  0.0470  0.1069
  969SOL    HW1 2906   2.645   2.436   1.029  1.4360 -2.1752 -0.6990
  969SOL    HW2 2907   2.778   2.363   1.108 -0.0120 -1.5863 -0.2663
  970SOL     OW 2908   1.051   2.130   1.777  0.2399 -0.2472 -0.3522
  970SOL    HW1 2909   0.958   2.142   1.729  1.4681  1.2244 -2.1840
  970SOL    HW2 2910   1.048   2.166   1.876 -1.5338  0.9301  0.0022
  971SOL     OW 2911   2.811   2.112   1.884 -0.1999  0.1089  0.1443
  971SOL    HW1 2912   2.838   2.208   1.921  0.1408  1.5646 -1.6137
  971SOL    HW2 2913   2.862   2.074   1.800 -0.1007 -0.5777 -0.5850
  972SOL     OW 2914   2.037   2.365   0.209  0.5361  0.3611  0.3552
  972SOL    HW1 2915   2.016   2.278   0.156 -0.5255  2.4166 -0.1415
  972SOL    HW2 2916   2.043   2.359   0.310  0.7440  1.3044 -1.4419
  973SOL     OW 2917   1.330   1.068   1.950 -0.3366  0.0728 -0.1679
  973SOL    HW1 2918   1.266   1.063   1.869  1.6636  1.9521  1.0955
  973SOL    HW2 2919   1.322   1.163   1.994 -1.2567 -1.6132  0.6812
  974SOL     OW 2920   1.596   0.600   1.969 -0.1006  0.6758 -0.9976
  974SOL    HW1 2921   1.688   0.617   1.929 -0.6822 -0.8468  1.4525
  974SOL    HW2 2922   1.524   0.669   1.939  0.9221 -0.0919 -2.2618
  975SOL     OW 2923   2.367   3.027   0.046  0.1223  0.4299  0.0251
  975SOL    HW1 2924   2.295   2.959   0.064  2.4431  1.0159  0.1050
  975SOL    HW2 2925   2.399   3.019  -0.056  1.6367 -1.4895 -0.2113
  976SOL     OW 2926   1.934   2.891   2.360  0.2566  0.0610 -0.2684
  976SOL    HW1 2927   1.837   2.853   2.338 -0.7826 -2.3196 -0.4508
  976SOL    HW2 2928   1.975   2.843   2.439 -0.0900 -1.8873 -0.0810
  977SOL     OW 2929   0.445   0.631   0.992  0.1601 -0.4932 -0.2397
  977SOL    HW1 2930   0.375   0.616   0.915 -2.6246 -1.2400 -0.7551
  977SOL    HW2 2931   0.544   0.618   0.964 -2.5773 -0.5020  1.8566
   3.10000   3.10000   3.10000
