1000 SPC/Fw water molecules t=   0.52000 step= 520
 2931
    1SOL     OW    1   2.477   0.346   2.622  0.2984  0.4013 -0.0865
    1SOL    HW1    2   2.486   0.244   2.595 -1.3486 -0.8715  1.5848
    1SOL    HW2    3   2.502   0.367   2.721 -1.7259 -1.0494 -0.3828
    2SOL     OW    4   2.699   3.061   1.451 -0.3665  0.5545 -0.2726
    2SOL    HW1    5   2.737   3.088   1.357 -3.0071  0.5936  0.4518
    2SOL    HW2    6   2.693   3.139   1.518  2.4784  0.1599  2.2213
    3SOL     OW    7   2.739   2.593   0.399  0.5216 -0.2074  0.2605
    3SOL    HW1    8   2.720   2.492   0.398 -1.3610  1.7203  0.1821
    3SOL    HW2    9   2.812   2.623   0.465  0.2248 -0.7811  1.2306
    4SOL     OW   10   1.313   1.484   2.359 -0.2328 -0.1353  0.0631
    4SOL    HW1   11   1.218   1.529   2.340  1.3787 -0.8384  1.8627
    4SOL    HW2   12   1.308   1.406   2.431 -1.8373 -0.9736 -3.0885
    5SOL     OW   13   1.188   1.509   3.043  0.2434 -0.1984  0.1192
    5SOL    HW1   14   1.234   1.591   3.094 -1.1306  0.4410  1.3350
    5SOL    HW2   15   1.084   1.517   3.043 -1.0160 -0.2823 -0.7183
    6SOL     OW   16   0.070   1.814   2.915  0.6954  0.7071  0.0469
    6SOL    HW1   17   0.033   1.867   2.993 -1.9155  1.5305 -4.6756
    6SOL    HW2   18   0.071   1.711   2.926  0.2965 -0.2028 -2.5335
    7SOL     OW   19   2.603   0.907   1.169  0.1392 -0.2720  0.3347
    7SOL    HW1   20   2.507   0.880   1.192  3.5002  1.7996 -0.1977
    7SOL    HW2   21   2.609   0.908   1.067  0.0143  1.7074  0.0701
    8SOL     OW   22   0.446   0.601   1.512 -0.0518 -0.3682 -0.2919
    8SOL    HW1   23   0.543   0.564   1.522  2.0275  2.6419 -1.1289
    8SOL    HW2   24   0.406   0.584   1.419  0.2351 -0.9897  0.5632
    9SOL     OW   25   1.147   0.925   2.278 -0.1178  0.0226 -0.1436
    9SOL    HW1   26   1.226   0.967   2.234 -1.6121 -2.3808  1.1701
    9SOL    HW2   27   1.070   0.899   2.208 -1.6301 -1.0615  0.3356
   10SOL     OW   28   0.703   1.334   1.262 -0.7580  0.1507 -0.3820
   10SOL    HW1   29   0.620   1.376   1.217  1.6824 -2.0513 -1.2375
   10SOL    HW2   30   0.766   1.406   1.294  0.5120 -0.5953  3.7738
   11SOL     OW   31   2.380   2.699   0.934 -0.0044  0.0600 -0.2596
   11SOL    HW1   32   2.376   2.701   1.039  0.7575 -0.1265 -0.1180
   11SOL    HW2   33   2.469   2.737   0.895 -0.8245 -1.1394  3.0064
   12SOL     OW   34   1.463   0.925   0.356  0.2566  0.5497 -0.2454
   12SOL    HW1   35   1.394   0.996   0.323  0.9941  1.0128  1.8275
   12SOL    HW2   36   1.472   0.849   0.285 -0.0925  2.4414 -2.4470
   13SOL     OW   37   2.543   0.670   1.819  0.1321  0.2590  0.1438
   13SOL    HW1   38   2.455   0.655   1.875  1.4462  0.7123  1.0301
   13SOL    HW2   39   2.538   0.640   1.720  1.5089  2.1715 -0.5873
   14SOL     OW   40   1.974   0.066   0.716  0.3125  0.3669  0.5818
   14SOL    HW1   41   1.916   0.129   0.664  0.8761  0.1028  2.4702
   14SOL    HW2   42   1.923  -0.005   0.767  0.6043  0.2411 -1.0737
   15SOL     OW   43   1.943   2.016   2.821 -0.0325  0.3310 -0.3701
   15SOL    HW1   44   1.920   2.119   2.827 -1.4021 -3.0115 -1.2163
   15SOL    HW2   45   1.873   1.964   2.768  1.8136 -0.5506 -1.4409
   16SOL     OW   46   1.601   1.724   3.047  0.2877 -0.5136 -0.8985
   16SOL    HW1   47   1.617   1.622   3.065  1.8933  1.6685  0.7702
   16SOL    HW2   48   1.672   1.783   3.096 -0.6832 -0.3719 -0.3128
   17SOL     OW   49   0.099   0.497   0.146  0.2179  0.0859  0.1498
   17SOL    HW1   50   0.176   0.530   0.084 -0.7703  2.3766  0.2847
   17SOL    HW2   51   0.005   0.516   0.104  1.0251 -1.4022  1.8144
   18SOL     OW   52   0.986   2.923   2.153  0.5837  0.3865 -0.7617
   18SOL    HW1   53   0.896   2.868   2.158 -1.4799 -0.9213  0.1254
   18SOL    HW2   54   1.053   2.892   2.078 -2.0238  0.5752 -0.8255
   19SOL     OW   55   0.542   0.836   1.920 -0.2033 -0.2477 -0.0916
   19SOL    HW1   56   0.539   0.819   2.022 -0.3654 -0.6646 -0.9855
   19SOL    HW2   57   0.636   0.806   1.877  2.5350  0.4283  0.0748
   20SOL     OW   58   0.172   2.800   0.813  0.2134 -0.3076 -0.4092
   20SOL    HW1   59   0.109   2.856   0.752  0.9274  1.0700 -1.8286
   20SOL    HW2   60   0.259   2.774   0.763  3.3183 -1.0898  1.7862
   21SOL     OW   61   2.763   0.201   2.090 -0.1667  0.2188 -0.5775
   21SOL    HW1   62   2.727   0.136   2.015 -1.7006  1.5992 -0.2631
   21SOL    HW2   63   2.847   0.161   2.141 -0.6881  0.3141  0.5860
   22SOL     OW   64   2.325   0.235   0.069  0.5500  0.5094  0.4654
   22SOL    HW1   65   2.309   0.130   0.087  0.4693 -1.7765  0.7467
   22SOL    HW2   66   2.236   0.284   0.054  3.7510 -0.4009  0.0033
   23SOL     OW   67   2.754   0.629   0.645 -0.0600  0.0564 -0.8440
   23SOL    HW1   68   2.734   0.533   0.610 -3.5247 -0.0342  0.7637
   23SOL    HW2   69   2.761   0.694   0.570  0.2086 -0.8967  1.3051
   24SOL     OW   70   0.127   1.916   0.388 -0.1987 -0.0757 -0.3415
   24SOL    HW1   71   0.059   1.974   0.340 -0.4192 -0.1741  4.2219
   24SOL    HW2   72   0.217   1.921   0.336 -2.3638 -3.8447  0.9861
   25SOL     OW   73   2.235   0.519   0.204  0.0181  0.5232 -0.2870
   25SOL    HW1   74   2.273   0.597   0.252 -3.4352 -3.5002 -0.1081
   25SOL    HW2   75   2.216   0.546   0.105 -1.8964 -1.1991 -0.3821
   26SOL     OW   76   2.530   2.159   2.080  0.7644 -1.0032 -0.0757
   26SOL    HW1   77   2.589   2.208   2.150  1.0842 -0.6046  0.0745
   26SOL    HW2   78   2.576   2.077   2.036 -0.8378  2.3422  0.3914
   27SOL     OW   79   0.609   2.947   0.151 -0.7030 -0.4002  0.3785
   27SOL    HW1   80   0.712   2.966   0.135 -0.0434  0.4121  1.7546
   27SOL    HW2   81   0.555   2.975   0.065  1.4234  1.5927  0.1912
   28SOL     OW   82   1.577   0.169   0.309 -0.2992 -0.1344  0.4841
   28SOL    HW1   83   1.585   0.148   0.207  1.8572 -1.1249 -0.6685
   28SOL    HW2   84   1.580   0.272   0.332 -0.1598 -1.0763  2.8984
   29SOL     OW   85   2.000   0.510   0.375 -0.9802 -0.6406 -0.2164
   29SOL    HW1   86   1.974   0.615   0.359  0.0114  1.8049 -0.4459
   29SOL    HW2   87   2.083   0.488   0.320 -1.1861  0.7475  2.2053
   30SOL     OW   88   0.176   2.056   0.935  1.1619 -0.0672 -0.1383
   30SOL    HW1   89   0.198   2.062   0.833  0.8944 -0.4460 -1.3900
   30SOL    HW2   90   0.076   2.082   0.967 -1.8484 -2.4884 -0.6100
   31SOL     OW   91   2.118   3.085   2.307 -0.4312 -0.0876  0.4946
   31SOL    HW1   92   2.129   3.081   2.413  1.9048 -3.4366  0.5178
   31SOL    HW2   93   2.030   3.046   2.269  0.6165  1.4881 -1.5102
   32SOL     OW   94   2.965   0.206   0.231 -0.0203  0.1683  0.4795
   32SOL    HW1   95   2.922   0.127   0.282  3.1996  1.5162  3.1831
   32SOL    HW2   96   3.070   0.218   0.250  2.8917 -0.8388 -1.1417
   33SOL     OW   97   0.908   0.341   0.545 -0.2414  0.0438  0.3854
   33SOL    HW1   98   0.898   0.239   0.513  0.7820  2.6365  3.1204
   33SOL    HW2   99   0.982   0.346   0.618  1.1674 -1.2126  0.7626
   34SOL     OW  100   0.371   2.859   1.039 -0.2013  0.5192  1.1271
   34SOL    HW1  101   0.303   2.804   0.985 -0.1999  1.7136 -1.1465
   34SOL    HW2  102   0.469   2.829   1.028 -1.7735 -1.1210  0.6259
   35SOL     OW  103   0.031   0.190   1.865 -0.3359  0.4610 -0.1949
   35SOL    HW1  104   0.055   0.095   1.895 -1.1880  2.2522 -0.7275
   35SOL    HW2  105  -0.046   0.194   1.796  0.7455  1.9742  0.9321
   36SOL     OW  106   1.945   1.092   1.832 -0.1211 -0.0882  0.6342
   36SOL    HW1  107   2.006   1.065   1.751 -0.0948 -0.1033 -0.3920
   36SOL    HW2  108   1.985   1.177   1.892 -3.0739  0.2543  2.5001
   37SOL     OW  109   1.205   0.180   0.947  0.0699 -0.5243 -0.5666
   37SOL    HW1  110   1.247   0.247   1.015  0.1632  0.1247  2.7560
   37SOL    HW2  111   1.272   0.128   0.886  1.3385 -0.4801 -0.5263
   38SOL     OW  112   1.066   2.746   2.405  0.2278  0.0704  0.3646
   38SOL    HW1  113   1.026   2.670   2.456 -0.8827 -0.2580 -2.9138
   38SOL    HW2  114   1.032   2.843   2.436  1.5288  2.6793  1.1955
   39SOL     OW  115   2.300   1.356   3.003 -0.2757  0.4471  0.1471
   39SOL    HW1  116   2.387   1.305   3.018 -1.2141 -0.2859 -1.8653
   39SOL    HW2  117   2.260   1.377   3.098 -0.4301 -0.6275  0.6240
   40SOL     OW  118   2.123   2.522   2.510 -0.5789  0.0540 -0.1237
   40SOL    HW1  119   2.095   2.615   2.545 -3.0865  0.3631  0.2264
   40SOL    HW2  120   2.050   2.457   2.469 -1.9414  0.9154  2.3917
   41SOL     OW  121   2.949   0.692   2.744  0.2093 -0.3734 -0.1068
   41SOL    HW1  122   2.882   0.759   2.778  0.2900 -4.4100 -1.1648
   41SOL    HW2  123   2.924   0.594   2.740  0.8780 -1.0901 -1.3132
   42SOL     OW  124   1.737   1.774   0.565  0.0830 -0.6124  0.1944
   42SOL    HW1  125   1.692   1.683   0.535 -0.6072 -0.1477  0.3803
   42SOL    HW2  126   1.783   1.829   0.491  2.4012  0.6040  0.5423
   43SOL     OW  127   0.464   1.719   1.125 -0.0983 -0.6041 -0.7720
   43SOL    HW1  128   0.446   1.616   1.118 -2.7519  2.2143  0.2594
   43SOL    HW2  129   0.376   1.771   1.107 -2.2168  0.2647  3.3707
   44SOL     OW  130   1.820   2.474   3.033  0.0536 -0.1052  0.0929
   44SOL    HW1  131   1.799   2.555   2.961 -0.9725  2.6978 -1.3403
   44SOL    HW2  132   1.922   2.465   3.054  1.9161 -0.0345 -1.7774
   45SOL     OW  133   0.304   1.905   2.600  0.2503  0.3187 -0.0515
   45SOL    HW1  134   0.265   1.905   2.506 -1.3329 -0.4172  0.8339
   45SOL    HW2  135   0.386   1.844   2.608  0.0233 -1.4095  1.3197
   46SOL     OW  136   1.218   0.665   0.165 -0.0085 -0.6968 -0.3830
   46SOL    HW1  137   1.252   0.748   0.112 -2.1600 -0.2034 -2.6769
   46SOL    HW2  138   1.118   0.670   0.182 -0.8475 -2.1087 -2.0414
   47SOL     OW  139   0.183   2.441   1.629 -0.6064  0.3922 -0.2703
   47SOL    HW1  140   0.272   2.391   1.610  2.2639  0.9268 -0.0664
   47SOL    HW2  141   0.147   2.488   1.545  3.1040  0.1787  2.6216
   48SOL     OW  142   2.622   0.601   0.150 -0.1686 -0.4871 -0.2010
   48SOL    HW1  143   2.578   0.607   0.251  2.2643  0.7829 -2.5123
   48SOL    HW2  144   2.719   0.642   0.139  1.4174 -1.8102  1.2009
   49SOL     OW  145   0.366   0.781   1.701 -0.1050 -0.3783 -0.1414
   49SOL    HW1  146   0.442   0.803   1.772 -0.4682  0.7200 -1.5177
   49SOL    HW2  147   0.398   0.701   1.646 -1.7779  1.1974  1.0155
   50SOL     OW  148   1.661   1.138   0.307 -0.2572 -0.1887 -0.6481
   50SOL    HW1  149   1.635   1.041   0.273 -0.5773  0.7555 -0.5752
   50SOL    HW2  150   1.626   1.153   0.408 -0.2724  1.1753  4.3455
   51SOL     OW  151   2.956   1.909   0.296 -0.7111 -0.6144  0.5622
   51SOL    HW1  152   2.905   1.833   0.247 -1.3634 -0.9001  1.8255
   51SOL    HW2  153   3.035   1.873   0.347 -0.6403  0.6658 -1.0798
   52SOL     OW  154   0.811   1.931   0.478  0.7830 -0.4494 -0.8138
   52SOL    HW1  155   0.724   1.980   0.515  1.2933  0.8063  0.3630
   52SOL    HW2  156   0.834   1.849   0.535 -0.0163 -1.1902 -1.1574
   53SOL     OW  157   3.100   0.354   1.553 -0.0757 -0.2206  0.0973
   53SOL    HW1  158   3.056   0.395   1.641 -0.7177  4.0285  2.8660
   53SOL    HW2  159   3.067   0.402   1.468 -0.4481  2.9623  0.4830
   54SOL     OW  160   1.760   0.445   3.078 -0.0347  0.2014 -0.1623
   54SOL    HW1  161   1.787   0.387   3.163 -1.4450 -1.0524  0.9383
   54SOL    HW2  162   1.660   0.477   3.085  2.8509 -1.3952  0.4246
   55SOL     OW  163   0.752   2.925   0.603  0.0034 -0.0829  0.7305
   55SOL    HW1  164   0.706   3.011   0.639 -1.5693 -3.2577  3.4958
   55SOL    HW2  165   0.839   2.944   0.552 -1.6062 -0.9511 -3.4917
   56SOL     OW  166   0.449   1.575   3.034 -0.5547 -0.0587  0.3875
   56SOL    HW1  167   0.375   1.638   3.061 -2.1313  0.1838  2.3424
   56SOL    HW2  168   0.409   1.496   2.973  0.2234 -0.4000 -2.4004
   57SOL     OW  169   1.807   2.505   2.660  0.0312  0.4821  0.2660
   57SOL    HW1  170   1.842   2.485   2.566  0.4362 -2.4976  0.8522
   57SOL    HW2  171   1.706   2.534   2.665 -0.4963  1.6802  1.3233
   58SOL     OW  172   0.659   0.394   1.086 -0.3112  0.0690 -0.9199
   58SOL    HW1  173   0.592   0.472   1.059  0.9086 -2.4512 -0.8925
   58SOL    HW2  174   0.624   0.299   1.090 -0.9137  1.9004 -3.4192
   59SOL     OW  175   0.405   2.351   2.761  0.1777 -0.2026 -0.0452
   59SOL    HW1  176   0.414   2.251   2.735  0.0763 -0.4037  1.0277
   59SOL    HW2  177   0.501   2.385   2.791  2.4151  0.6444 -1.0243
   60SOL     OW  178   2.331   2.082   2.243  0.0709 -0.1348 -0.2316
   60SOL    HW1  179   2.420   2.118   2.198  1.0534  0.2212 -0.4516
   60SOL    HW2  180   2.330   2.112   2.343  2.9296  1.0623 -2.2842
   61SOL     OW  181   1.308   0.612   0.516 -0.9192 -0.5720  0.2385
   61SOL    HW1  182   1.224   0.668   0.547  1.8527 -1.2698 -1.2193
   61SOL    HW2  183   1.319   0.615   0.414 -0.7899  1.9723  2.2958
   62SOL     OW  184   2.662   1.791   2.965  0.0467 -0.4886 -0.8152
   62SOL    HW1  185   2.665   1.694   3.008 -1.3407 -1.0325  0.9869
   62SOL    HW2  186   2.717   1.793   2.882 -1.5148  0.7773  1.4772
   63SOL     OW  187   0.565   0.894   0.152  0.4153  0.5293  0.1113
   63SOL    HW1  188   0.515   0.984   0.157 -0.8528  1.1096 -3.6637
   63SOL    HW2  189   0.650   0.882   0.212  1.8393 -0.4353 -0.0047
   64SOL     OW  190   0.057   0.551   2.544 -0.1648  0.9222 -0.0589
   64SOL    HW1  191   0.137   0.537   2.609  2.2323 -0.7818  3.3952
   64SOL    HW2  192   0.062   0.649   2.504 -0.4128  1.3947 -1.3993
   65SOL     OW  193   0.192   1.484   0.580  0.0523 -0.0595 -0.6210
   65SOL    HW1  194   0.258   1.540   0.638 -1.6506 -2.2738 -4.1559
   65SOL    HW2  195   0.241   1.454   0.496 -0.1485  1.5950 -0.2972
   66SOL     OW  196   2.511   0.450   0.618 -0.1659 -0.6227 -0.2238
   66SOL    HW1  197   2.445   0.491   0.693 -0.1169  1.5007  2.6622
   66SOL    HW2  198   2.528   0.349   0.634 -0.5289  0.5739 -0.5295
   67SOL     OW  199   0.525   2.492   1.416  0.4575  0.1993 -0.6066
   67SOL    HW1  200   0.575   2.494   1.507  0.4539  0.2022 -1.1327
   67SOL    HW2  201   0.481   2.398   1.403  0.9354 -1.3715  0.5465
   68SOL     OW  202   1.005   1.104   2.457  0.3784  0.0026  0.5125
   68SOL    HW1  203   1.046   1.023   2.408 -2.0587  2.6729 -1.1734
   68SOL    HW2  204   0.922   1.144   2.410  2.0803 -0.3622 -1.0265
   69SOL     OW  205   0.750   2.775   2.165  0.6554 -0.4545  0.1928
   69SOL    HW1  206   0.792   2.679   2.157 -0.8737  4.8288 -0.3186
   69SOL    HW2  207   0.647   2.769   2.175  0.4743 -2.1866  0.9540
   70SOL     OW  208   0.647   0.287   2.704 -0.3104 -0.2608  0.2327
   70SOL    HW1  209   0.632   0.371   2.761  2.2942 -3.1806 -0.9365
   70SOL    HW2  210   0.577   0.212   2.715  2.4840  0.5166 -1.7327
   71SOL     OW  211   1.077   1.783   0.333 -0.7798 -0.2308  0.3256
   71SOL    HW1  212   1.009   1.713   0.353  0.3245  2.5556 -1.7978
   71SOL    HW2  213   1.085   1.796   0.230 -1.8132 -2.5077 -0.0949
   72SOL     OW  214   1.770   0.124   2.026 -0.1230  0.3368 -0.1382
   72SOL    HW1  215   1.846   0.141   1.951 -0.6502  0.2780 -2.5328
   72SOL    HW2  216   1.796   0.046   2.090  0.1087  1.0937  3.6876
   73SOL     OW  217   2.764   2.161   2.508  0.7466  0.1991 -0.0765
   73SOL    HW1  218   2.713   2.067   2.504 -0.7044 -2.6948  1.9996
   73SOL    HW2  219   2.798   2.175   2.602  0.1349 -2.0259 -5.5101
   74SOL     OW  220   2.711   2.946   2.009 -0.4096  0.2019  0.6192
   74SOL    HW1  221   2.652   2.946   2.096 -0.6568 -0.7939  2.7087
   74SOL    HW2  222   2.809   2.975   2.033  5.4683 -1.6388 -0.0450
   75SOL     OW  223   0.954   0.768   1.021  0.7115 -0.0880  0.1705
   75SOL    HW1  224   0.866   0.776   0.969  0.9400 -1.6056  1.2918
   75SOL    HW2  225   0.962   0.831   1.101 -2.0426  1.0052  2.9421
   76SOL     OW  226   1.735   1.249   2.563 -0.2659 -0.1813 -0.5134
   76SOL    HW1  227   1.637   1.211   2.576  1.1439  1.7439  1.8836
   76SOL    HW2  228   1.746   1.344   2.603  1.5243  1.0817  0.9946
   77SOL     OW  229   2.915   0.966   0.977  0.3777 -0.0200  0.0688
   77SOL    HW1  230   2.883   0.864   0.979 -1.0909 -2.1945  0.6481
   77SOL    HW2  231   2.959   0.983   1.072  1.2351 -2.8637 -0.4182
   78SOL     OW  232   2.056   1.409   1.534  0.5153 -0.4145 -0.2413
   78SOL    HW1  233   2.141   1.462   1.508 -4.2639  1.3676 -2.2651
   78SOL    HW2  234   2.028   1.357   1.451  0.0924  0.1359  0.4621
   79SOL     OW  235   0.625   1.321   0.839  0.1805 -0.4979  0.4355
   79SOL    HW1  236   0.529   1.353   0.864  1.0570  2.2921  0.5199
   79SOL    HW2  237   0.641   1.315   0.732  1.2308 -1.3360 -1.9271
   80SOL     OW  238   0.681   0.472   1.605  0.0870 -0.3788  0.2285
   80SOL    HW1  239   0.738   0.516   1.534  2.5411  0.3673  1.7819
   80SOL    HW2  240   0.694   0.371   1.605 -1.2871  0.1315  1.0169
   81SOL     OW  241   1.055   1.354   2.593 -0.0329  0.4106 -0.1201
   81SOL    HW1  242   1.112   1.271   2.553  0.9758 -1.6986 -0.8253
   81SOL    HW2  243   0.985   1.388   2.524 -0.6339 -2.8411  2.1367
   82SOL     OW  244   0.969   2.955   1.502 -0.5931 -0.2157  0.1156
   82SOL    HW1  245   1.014   2.976   1.408 -1.8538  1.0695  0.1329
   82SOL    HW2  246   0.888   2.886   1.502 -0.1794  1.1286 -1.5355
   83SOL     OW  247   2.683   2.481   0.848  0.4186 -0.3614  0.2883
   83SOL    HW1  248   2.611   2.419   0.814  1.2593  2.2650  0.4144
   83SOL    HW2  249   2.654   2.579   0.841 -0.2123  1.3695 -1.4850
   84SOL     OW  250   0.720   3.083   2.333  0.1022  0.3486 -0.5939
   84SOL    HW1  251   0.653   3.061   2.413 -2.0274 -2.0648  0.0110
   84SOL    HW2  252   0.805   3.026   2.345 -1.3022  1.6353  0.6044
   85SOL     OW  253   0.400   1.617   1.564 -0.8870 -0.4737 -0.2194
   85SOL    HW1  254   0.336   1.699   1.548  0.2685  1.3510 -3.7567
   85SOL    HW2  255   0.414   1.586   1.665  2.9186 -0.1268 -0.2362
   86SOL     OW  256   0.346   0.968   1.497  0.2703 -0.0718  0.3846
   86SOL    HW1  257   0.318   0.926   1.407 -0.5038  0.9964  0.1219
   86SOL    HW2  258   0.351   0.899   1.572 -1.5255  0.7612 -0.9346
   87SOL     OW  259   1.525   0.667   0.224  0.6854 -0.2570 -0.7056
   87SOL    HW1  260   1.613   0.715   0.228 -2.0066  0.3254 -2.6528
   87SOL    HW2  261   1.494   0.639   0.130  1.6705 -2.1590 -2.3208
   88SOL     OW  262   1.549   1.364   0.234  0.3783 -0.0193  0.6166
   88SOL    HW1  263   1.590   1.274   0.261  0.2530  2.6021  1.2426
   88SOL    HW2  264   1.447   1.360   0.263  1.9222  1.0695 -2.4775
   89SOL     OW  265   0.024   0.416   0.604  0.0440 -0.1428  0.1678
   89SOL    HW1  266   0.095   0.348   0.581 -1.6226  1.0865  2.3678
   89SOL    HW2  267  -0.063   0.398   0.548  0.1127 -0.8249  0.3657
   90SOL     OW  268   0.925   1.560   3.046 -0.0238 -0.5898  0.9058
   90SOL    HW1  269   0.847   1.559   3.116 -2.8064  0.0493  1.4258
   90SOL    HW2  270   0.893   1.601   2.953  2.4632  1.2200  0.4483
   91SOL     OW  271   1.276   1.444   1.834 -0.1446 -0.9187 -0.1821
   91SOL    HW1  272   1.265   1.532   1.889  0.0006  0.3011 -1.7085
   91SOL    HW2  273   1.374   1.435   1.802  2.3652  0.8204 -1.4417
   92SOL     OW  274   3.046   1.007   1.210  0.0813 -0.3062 -0.3718
   92SOL    HW1  275   3.099   1.088   1.173 -0.9571 -1.5481 -1.8904
   92SOL    HW2  276   3.066   0.977   1.311 -1.9198 -0.3247  2.7869
   93SOL     OW  277   3.094   2.737   0.041 -0.1740 -0.3300  0.0764
   93SOL    HW1  278   3.049   2.753  -0.054 -1.1387 -1.9457  0.4958
   93SOL    HW2  279   3.143   2.646   0.059  0.1484  0.7818 -2.6549
   94SOL     OW  280   1.547   1.456   1.695  0.1263  0.8417 -0.1158
   94SOL    HW1  281   1.616   1.402   1.645  0.6680 -1.3872  1.4689
   94SOL    HW2  282   1.594   1.510   1.773  2.2464 -1.8054 -0.3782
   95SOL     OW  283   1.320   2.524   3.002  0.3268  0.3319  0.3481
   95SOL    HW1  284   1.254   2.516   3.083  2.0847  1.3524  1.2065
   95SOL    HW2  285   1.334   2.430   2.950 -1.0382 -0.8024 -1.0734
   96SOL     OW  286   0.548   2.014   1.277 -0.4460 -0.0868  0.4512
   96SOL    HW1  287   0.530   2.040   1.175 -0.0265  2.5236  2.4108
   96SOL    HW2  288   0.541   1.912   1.288  1.9313  0.0141  2.2612
   97SOL     OW  289   0.368   1.575   2.471  0.5738  0.2222 -0.9146
   97SOL    HW1  290   0.272   1.579   2.514 -0.8875  2.3045  1.7468
   97SOL    HW2  291   0.436   1.625   2.531  1.1407 -0.2912 -1.3869
   98SOL     OW  292   1.944   1.589   1.267  0.0952  0.2200  0.2905
   98SOL    HW1  293   1.900   1.540   1.345  0.6181 -0.5942 -2.0368
   98SOL    HW2  294   1.949   1.530   1.177  0.7218 -1.0961 -2.6922
   99SOL     OW  295   2.468   2.100   1.381 -0.0628  0.4096 -1.1239
   99SOL    HW1  296   2.494   2.135   1.475 -1.3958 -1.6258 -0.5187
   99SOL    HW2  297   2.466   1.996   1.379  1.5278  0.2211 -0.7272
  100SOL     OW  298   2.308   0.395   2.074 -0.2156 -0.2011  0.8468
  100SOL    HW1  299   2.256   0.352   2.149  0.3699  0.6057 -3.9663
  100SOL    HW2  300   2.409   0.406   2.095 -2.3431  0.0867  1.0435
  101SOL     OW  301   0.389   1.485   0.254 -0.2814  0.0503 -0.4335
  101SOL    HW1  302   0.444   1.531   0.328 -2.0118 -2.3123 -0.2379
  101SOL    HW2  303   0.403   1.525   0.160 -1.6235 -0.1004  0.9788
  102SOL     OW  304   2.322   1.031   0.829 -0.0439 -0.4976  0.1462
  102SOL    HW1  305   2.237   0.980   0.807  1.6034  1.9170  0.6946
  102SOL    HW2  306   2.343   1.116   0.770  2.1944  2.1363 -0.5210
  103SOL     OW  307   2.290   0.017   0.407 -0.4200 -0.7812  0.0426
  103SOL    HW1  308   2.331   0.113   0.382 -1.3311  2.1327  0.1438
  103SOL    HW2  309   2.354  -0.026   0.477 -0.9574 -0.1537 -0.2142
  104SOL     OW  310   0.086   1.753   2.196 -0.0138 -0.3519  0.3860
  104SOL    HW1  311   0.127   1.726   2.105 -0.5518  0.8639  5.1555
  104SOL    HW2  312  -0.017   1.747   2.205  0.5962 -0.4401 -2.3094
  105SOL     OW  313   1.235   2.039   0.817  0.2566  0.6277 -0.0951
  105SOL    HW1  314   1.176   2.034   0.731  0.5610  1.1857 -1.1465
  105SOL    HW2  315   1.310   1.967   0.822  1.6398  1.0710 -0.4151
  106SOL     OW  316   2.140   0.553   1.365  0.3014  0.0767  0.0722
  106SOL    HW1  317   2.079   0.467   1.376 -0.0274 -1.1202 -0.9608
  106SOL    HW2  318   2.088   0.642   1.373 -1.1595 -0.7578 -1.8908
  107SOL     OW  319   1.773   3.001   1.094 -0.5873  0.4811 -0.1449
  107SOL    HW1  320   1.819   3.077   1.144 -1.0260 -1.8382  0.7011
  107SOL    HW2  321   1.697   2.958   1.153 -2.2227  2.1611 -1.3120
  108SOL     OW  322   0.823   2.750   1.234 -0.1858  0.5229 -0.0557
  108SOL    HW1  323   0.784   2.760   1.329  0.9282 -0.7378 -1.8419
  108SOL    HW2  324   0.905   2.808   1.217  1.5797 -3.5734  0.2245
  109SOL     OW  325   2.220   0.148   0.801 -0.0097  0.3716 -0.2763
  109SOL    HW1  326   2.127   0.118   0.763  2.6570 -0.9640 -0.3079
  109SOL    HW2  327   2.220   0.144   0.905 -2.0582 -2.0382 -1.4386
  110SOL     OW  328   0.432   2.797   2.711  0.0974  0.2377  0.5110
  110SOL    HW1  329   0.435   2.850   2.623 -1.1069  0.3669 -0.8716
  110SOL    HW2  330   0.519   2.750   2.734  0.5377  0.8052 -0.8978
  111SOL     OW  331   1.328   0.535   2.277 -0.8768  0.4055  0.2231
  111SOL    HW1  332   1.262   0.566   2.350  0.0498 -0.7016 -0.8807
  111SOL    HW2  333   1.372   0.441   2.297  0.3726 -0.0668  4.0840
  112SOL     OW  334   1.745   0.519   1.475  0.4321 -0.2340  0.1614
  112SOL    HW1  335   1.739   0.498   1.371  0.5533  1.0637  0.3981
  112SOL    HW2  336   1.709   0.442   1.536 -0.0569 -0.3045  1.0186
  113SOL     OW  337   2.265   1.620   1.757 -0.0440  0.3691  0.1435
  113SOL    HW1  338   2.301   1.525   1.737  0.9281 -1.4608  1.6307
  113SOL    HW2  339   2.310   1.665   1.838  2.2511 -0.3910 -1.8840
  114SOL     OW  340   0.343   0.530   1.275  0.6819  0.0050 -0.2246
  114SOL    HW1  341   0.309   0.624   1.250 -0.4197  2.8140  0.9365
  114SOL    HW2  342   0.316   0.459   1.209 -0.6529 -1.6142  0.4938
  115SOL     OW  343   2.685   1.635   1.269  1.3342 -0.3973  0.2529
  115SOL    HW1  344   2.730   1.546   1.301  1.2087  1.4931 -0.5882
  115SOL    HW2  345   2.715   1.663   1.175  0.2815  0.1755 -0.2957
  116SOL     OW  346   1.791   1.021   0.714  0.2475 -0.6106 -0.3018
  116SOL    HW1  347   1.703   0.969   0.691 -0.8705 -0.0079 -2.6664
  116SOL    HW2  348   1.763   1.117   0.745 -1.5105 -2.7442  1.8135
  117SOL     OW  349   1.146   0.379   0.686  0.0967  0.6764  0.1271
  117SOL    HW1  350   1.145   0.367   0.788  1.1413  1.0877 -1.9310
  117SOL    HW2  351   1.214   0.449   0.649  1.0754  0.9750 -1.3312
  118SOL     OW  352   1.105   1.149   1.077 -0.0323  0.0855  0.0200
  118SOL    HW1  353   1.102   1.054   1.127 -0.9473  1.9087 -1.7793
  118SOL    HW2  354   1.121   1.218   1.150 -0.5535  0.6858  0.4257
  119SOL     OW  355   1.849   1.600   2.124  0.1831  0.1309 -0.2108
  119SOL    HW1  356   1.824   1.705   2.127 -1.4422  0.7786 -0.4410
  119SOL    HW2  357   1.944   1.594   2.100  1.3979 -2.2400  1.2025
  120SOL     OW  358   2.962   2.836   0.271 -0.2021 -0.0485 -0.7842
  120SOL    HW1  359   2.996   2.812   0.174  1.6290  0.1317 -3.7640
  120SOL    HW2  360   2.906   2.766   0.316  2.1908  1.9864 -0.5772
  121SOL     OW  361   1.989   0.753   2.289  0.7480  0.2371  0.8705
  121SOL    HW1  362   2.010   0.807   2.204 -1.9983 -0.8420 -2.0757
  121SOL    HW2  363   1.999   0.648   2.270  1.3977  1.2575  1.6728
  122SOL     OW  364   2.683   2.665   1.270 -0.8461 -0.2596 -0.6153
  122SOL    HW1  365   2.732   2.582   1.229 -1.2716 -0.1949  3.1781
  122SOL    HW2  366   2.586   2.666   1.248 -2.5144  0.3015 -3.7823
  123SOL     OW  367   1.728   0.064   1.693  0.0256  0.0083 -0.3475
  123SOL    HW1  368   1.764   0.005   1.618  0.1609 -2.7911 -0.9801
  123SOL    HW2  369   1.805   0.116   1.738 -0.0228  0.1166 -0.6833
  124SOL     OW  370   0.120   0.436   1.093  0.0133 -1.1689  0.3711
  124SOL    HW1  371   0.124   0.513   1.169  0.5059  3.1126  2.5181
  124SOL    HW2  372   0.069   0.459   1.005  0.1712  0.8921 -0.6340
  125SOL     OW  373   0.864   1.699   0.666 -0.7214  0.2793  0.5590
  125SOL    HW1  374   0.969   1.723   0.662  0.4957 -0.2395 -0.3369
  125SOL    HW2  375   0.835   1.656   0.755  0.6744  2.2273  2.8759
  126SOL     OW  376   1.909   2.357   2.423  0.3295  0.4755  0.2503
  126SOL    HW1  377   1.958   2.304   2.348  0.4236 -1.6039 -0.1757
  126SOL    HW2  378   1.851   2.292   2.480  0.0574  0.7818  1.2622
  127SOL     OW  379   0.809   0.920   0.292  0.3310 -0.6484  0.4195
  127SOL    HW1  380   0.869   0.955   0.369  2.3181  1.4594 -0.5116
  127SOL    HW2  381   0.847   0.826   0.269 -0.3548 -2.0221  2.1664
  128SOL     OW  382   0.941   0.198   1.353 -0.1693 -0.4004  0.0553
  128SOL    HW1  383   0.929   0.296   1.316  2.8240 -0.9839 -0.2246
  128SOL    HW2  384   0.858   0.139   1.342  2.4368  2.6494  1.1908
  129SOL     OW  385   1.854   0.679   1.866 -0.5122  0.5583 -0.2841
  129SOL    HW1  386   1.870   0.700   1.772 -0.2292 -1.8246  1.2705
  129SOL    HW2  387   1.866   0.763   1.931 -0.0455 -0.4354  3.6255
  130SOL     OW  388   1.335   2.226   1.012  0.0653  0.2298  0.5839
  130SOL    HW1  389   1.303   2.169   0.929  1.5342  0.9361  1.7320
  130SOL    HW2  390   1.409   2.297   0.992 -0.6192 -0.9700  1.0265
  131SOL     OW  391   0.010   1.499   1.405 -0.5914 -0.5952  0.1490
  131SOL    HW1  392  -0.036   1.405   1.406  1.8197 -2.2589 -0.7625
  131SOL    HW2  393   0.114   1.487   1.419 -0.7698 -2.3966 -1.7133
  132SOL     OW  394   2.005   2.406   0.505  0.2106  0.7421 -0.0213
  132SOL    HW1  395   1.922   2.357   0.468 -0.0098 -0.5169  0.6860
  132SOL    HW2  396   2.032   2.383   0.603 -0.4784 -1.9793 -2.2048
  133SOL     OW  397   1.887   2.278   2.867 -0.1257 -0.4203 -0.6937
  133SOL    HW1  398   1.846   2.329   2.948  0.2094 -2.4532 -1.6198
  133SOL    HW2  399   1.895   2.344   2.785 -1.5427  3.3971  0.4945
  134SOL     OW  400   2.710   2.349   1.633  0.0001  0.0180 -0.3505
  134SOL    HW1  401   2.657   2.323   1.720  1.7668  1.9985 -0.3119
  134SOL    HW2  402   2.765   2.437   1.635 -1.4085  0.3235 -0.9451
  135SOL     OW  403   0.718   1.534   2.633 -0.3023 -0.6706  0.7669
  135SOL    HW1  404   0.694   1.445   2.672 -0.0602 -2.2970  1.5458
  135SOL    HW2  405   0.771   1.507   2.541  0.7272 -1.8141 -4.8223
  136SOL     OW  406   1.217   2.023   0.424 -0.3602 -0.5909  0.0204
  136SOL    HW1  407   1.159   2.079   0.491  0.3418 -1.6730  3.8594
  136SOL    HW2  408   1.162   1.946   0.372 -0.0923 -2.0717 -0.1653
  137SOL     OW  409   0.390   1.131   2.108 -1.0564  0.3489  0.1272
  137SOL    HW1  410   0.308   1.148   2.171  0.3498 -3.1293 -0.4802
  137SOL    HW2  411   0.451   1.053   2.139  1.3150  0.9599 -0.2797
  138SOL     OW  412   2.438   1.493   0.226 -0.1423 -0.4541  0.3336
  138SOL    HW1  413   2.346   1.520   0.181 -2.9098 -1.7269  1.4178
  138SOL    HW2  414   2.435   1.401   0.274  1.2224  0.9792  3.2607
  139SOL     OW  415   1.802   2.663   1.257 -0.2479  0.3588  0.0973
  139SOL    HW1  416   1.706   2.638   1.212  1.7578  0.7528  1.5840
  139SOL    HW2  417   1.862   2.581   1.281 -0.4175  1.4500  1.3888
  140SOL     OW  418   3.030   2.973   2.621 -0.2388 -0.3222  0.3539
  140SOL    HW1  419   3.056   2.872   2.607 -2.5106  0.6878 -3.7882
  140SOL    HW2  420   3.104   3.044   2.612 -0.6233 -0.7069  1.8015
  141SOL     OW  421   1.238   1.709   1.609  0.8066  0.1027 -0.1654
  141SOL    HW1  422   1.165   1.773   1.649 -0.7935  1.1372  0.7238
  141SOL    HW2  423   1.269   1.638   1.681  0.7934 -1.0985  0.5808
  142SOL     OW  424   1.585   0.605   2.180  0.1377  0.0202  0.2481
  142SOL    HW1  425   1.603   0.612   2.080 -0.9979  1.2851 -1.6612
  142SOL    HW2  426   1.487   0.592   2.208  1.7514 -1.6090  0.5645
  143SOL     OW  427   2.745   0.883   0.502 -0.0852 -0.0622 -0.3450
  143SOL    HW1  428   2.764   0.939   0.416 -2.7569 -0.2477 -0.8742
  143SOL    HW2  429   2.779   0.919   0.597  2.2449 -0.0634  0.2384
  144SOL     OW  430   2.958   1.262   1.428 -0.6626  0.0440  0.3460
  144SOL    HW1  431   2.925   1.193   1.499 -0.6651  1.4951  1.6022
  144SOL    HW2  432   3.010   1.215   1.353  1.9034  0.2929  1.2140
  145SOL     OW  433   1.018   1.828   0.041 -0.0480  0.7250  0.1108
  145SOL    HW1  434   1.029   1.919  -0.008  0.4564 -0.3506 -1.4875
  145SOL    HW2  435   0.981   1.753  -0.020  2.9489  1.0900 -0.2782
  146SOL     OW  436   2.440   0.669   1.534  0.4782  0.2300 -0.4075
  146SOL    HW1  437   2.442   0.583   1.474 -0.2681 -2.7829 -0.6571
  146SOL    HW2  438   2.354   0.735   1.527  0.1066  0.0785  0.6515
  147SOL     OW  439   1.101   2.453   0.581  0.4483 -0.0978 -0.2954
  147SOL    HW1  440   1.078   2.505   0.498  1.6340 -0.9224  0.9241
  147SOL    HW2  441   1.192   2.407   0.583  1.7774 -0.9507 -0.1735
  148SOL     OW  442   1.641   1.453   3.085 -0.0725  0.0216 -0.3892
  148SOL    HW1  443   1.659   1.362   3.033 -1.9846 -1.4632  2.4536
  148SOL    HW2  444   1.609   1.447   3.183 -0.6534  1.9992 -2.7008
  149SOL     OW  445   0.714   1.422   1.909  0.2779 -0.3965 -0.3182
  149SOL    HW1  446   0.624   1.394   1.960 -2.6061 -0.8347  0.1020
  149SOL    HW2  447   0.742   1.353   1.833  0.2804 -1.6748  0.6120
  150SOL     OW  448   3.019   1.240   0.925  0.4927  0.0364  0.4944
  150SOL    HW1  449   3.091   1.256   0.996  0.0177  2.4303 -2.0586
  150SOL    HW2  450   2.972   1.146   0.928  0.1720 -0.4474  1.5230
  151SOL     OW  451   0.172   0.768   2.120  0.3066  0.1182  0.1167
  151SOL    HW1  452   0.161   0.845   2.056 -0.8247  0.0245  0.6340
  151SOL    HW2  453   0.237   0.695   2.096 -0.6453  0.6262  0.7770
  152SOL     OW  454   1.364   1.729   1.278 -0.3470  0.7019  0.2132
  152SOL    HW1  455   1.368   1.804   1.345  0.6748  1.8836 -0.9376
  152SOL    HW2  456   1.274   1.731   1.222 -1.7510 -0.2540 -1.8868
  153SOL     OW  457   0.045   1.532   0.182  0.5057  0.7760  0.3232
  153SOL    HW1  458   0.036   1.431   0.193  1.3171  3.0453 -0.6969
  153SOL    HW2  459   0.025   1.585   0.272 -2.5656 -1.4362 -0.1988
  154SOL     OW  460   2.365   1.871   2.833  0.0636  0.1989  0.2016
  154SOL    HW1  461   2.391   1.768   2.839 -0.8841 -2.0903  0.4476
  154SOL    HW2  462   2.449   1.937   2.834  1.5098  0.4071 -0.3639
  155SOL     OW  463   2.473   1.236   0.358 -0.7183 -0.3569 -0.1213
  155SOL    HW1  464   2.559   1.252   0.308 -0.9135 -0.3125  1.3416
  155SOL    HW2  465   2.393   1.202   0.304  1.5937 -1.3204  0.8213
  156SOL     OW  466   2.582   0.944   0.901 -0.3551  0.3805 -0.0298
  156SOL    HW1  467   2.483   0.981   0.912  0.5639 -1.3713  1.3195
  156SOL    HW2  468   2.643   1.001   0.840  1.5428  0.1958 -0.3330
  157SOL     OW  469   1.207   2.978   2.997  0.4013 -0.0939  0.7160
  157SOL    HW1  470   1.273   2.939   2.929 -0.8077 -0.8344 -0.3170
  157SOL    HW2  471   1.234   3.077   3.008  1.8712  1.1757  0.5537
  158SOL     OW  472   0.996   1.877   1.984  0.0676 -0.1408  0.3567
  158SOL    HW1  473   1.066   1.947   2.016  1.3501 -2.1395  0.4834
  158SOL    HW2  474   0.897   1.889   2.027 -1.7350 -0.9273  0.9522
  159SOL     OW  475   0.841   0.446   1.296  0.0985  0.2514 -0.1342
  159SOL    HW1  476   0.835   0.543   1.337  1.5148  1.9652 -2.2565
  159SOL    HW2  477   0.762   0.427   1.226 -0.1904 -0.0542 -0.7761
  160SOL     OW  478   1.433   2.436   1.675 -0.2259 -0.7789  0.6154
  160SOL    HW1  479   1.476   2.514   1.624  2.1506 -1.7701 -0.7183
  160SOL    HW2  480   1.497   2.357   1.661  0.8220 -0.5701  0.0142
  161SOL     OW  481   0.152   2.895   0.316 -0.8328 -0.1963  0.1900
  161SOL    HW1  482   0.059   2.861   0.334  2.3556  4.6358 -0.6590
  161SOL    HW2  483   0.162   2.970   0.249 -0.5524  0.4552 -0.7356
  162SOL     OW  484   2.587   1.912   0.457 -0.3622  0.5595 -0.0836
  162SOL    HW1  485   2.605   1.869   0.360  1.2147 -1.3594 -0.5449
  162SOL    HW2  486   2.566   1.844   0.532  2.8869 -0.4095 -3.7738
  163SOL     OW  487   1.987   2.667   0.752 -0.1107  0.6991  0.6358
  163SOL    HW1  488   1.965   2.687   0.653 -1.8291  0.4733  0.5567
  163SOL    HW2  489   2.066   2.602   0.766 -0.2118 -0.7154 -0.3657
  164SOL     OW  490   3.039   0.249   1.243  0.1336 -0.5712 -1.0026
  164SOL    HW1  491   3.107   0.314   1.198  2.5766  1.1481  0.4851
  164SOL    HW2  492   3.081   0.161   1.278 -0.5901 -3.0659 -0.2898
  165SOL     OW  493   0.944   1.437   0.660 -0.7010  0.4155 -0.0283
  165SOL    HW1  494   0.925   1.466   0.758 -0.9721  0.0658 -0.9996
  165SOL    HW2  495   0.914   1.506   0.590 -0.0519 -1.3960  2.8071
  166SOL     OW  496   1.480   1.088   1.716 -0.3020  0.3518 -0.4261
  166SOL    HW1  497   1.409   1.054   1.782 -3.1357 -0.4199  1.4101
  166SOL    HW2  498   1.559   1.140   1.762 -0.2190  1.9545  2.4447
  167SOL     OW  499   0.789   1.910   1.507 -0.5539 -0.4484 -0.3963
  167SOL    HW1  500   0.751   1.968   1.587 -2.1753 -0.1818 -0.7922
  167SOL    HW2  501   0.742   1.820   1.494  0.3476  0.2540 -0.9020
  168SOL     OW  502   1.618   2.382   0.138  0.6516 -0.1308 -0.3191
  168SOL    HW1  503   1.709   2.414   0.094 -1.2213  1.7592 -1.1764
  168SOL    HW2  504   1.633   2.329   0.226 -1.3663  0.9102 -1.1058
  169SOL     OW  505   0.237   2.612   2.218 -0.1125 -0.1889  0.1006
  169SOL    HW1  506   0.279   2.549   2.143  4.0660 -1.6429  1.2552
  169SOL    HW2  507   0.183   2.561   2.292 -0.9375 -2.3509  2.0285
  170SOL     OW  508   1.243   0.297   1.937  0.2022 -0.0894  0.3212
  170SOL    HW1  509   1.288   0.262   2.024 -0.7936 -1.0046 -1.1426
  170SOL    HW2  510   1.199   0.221   1.881  0.0354 -0.1834 -1.7337
  171SOL     OW  511   0.210   0.818   2.395 -0.0435  0.8053 -0.5601
  171SOL    HW1  512   0.124   0.834   2.449 -0.8689 -1.5075 -0.9842
  171SOL    HW2  513   0.201   0.802   2.294  2.1035 -2.7370  1.7471
  172SOL     OW  514   0.887   1.110   2.965  0.7019 -0.0527 -0.1655
  172SOL    HW1  515   0.985   1.147   2.976  1.8695  2.6978 -1.8557
  172SOL    HW2  516   0.867   1.081   2.864 -0.2397  0.4108 -2.9082
  173SOL     OW  517   0.668   2.671   0.097  0.4874 -0.6135 -0.5954
  173SOL    HW1  518   0.634   2.769   0.080 -1.1046  2.0243 -1.8835
  173SOL    HW2  519   0.583   2.609   0.126 -0.0128 -1.0234 -1.9867
  174SOL     OW  520   1.393   2.823   1.073  0.0282  0.3024 -0.5444
  174SOL    HW1  521   1.378   2.922   1.042 -2.3487  2.1169 -0.9003
  174SOL    HW2  522   1.348   2.753   1.007  2.7451 -1.2019  1.9892
  175SOL     OW  523   0.425   0.056   1.634 -0.5667  0.3927 -0.2373
  175SOL    HW1  524   0.471   0.076   1.725 -0.7338 -0.6968  1.4812
  175SOL    HW2  525   0.352   0.125   1.605 -2.0913  1.1657 -1.0232
  176SOL     OW  526   2.536   0.396   3.090  0.5731 -0.3400  0.2086
  176SOL    HW1  527   2.542   0.479   3.151 -2.4252 -2.7187  1.5968
  176SOL    HW2  528   2.460   0.339   3.116 -1.8032  3.4244  1.3288
  177SOL     OW  529   0.352   0.288   0.930  0.1846  0.0569  0.0511
  177SOL    HW1  530   0.422   0.228   0.986  1.0341 -1.7799 -1.1983
  177SOL    HW2  531   0.268   0.309   0.993 -3.2965  1.3420  0.0819
  178SOL     OW  532   0.031   2.711   2.618 -0.2112 -0.2709  0.4069
  178SOL    HW1  533  -0.036   2.633   2.642  0.0758 -0.4400 -0.7319
  178SOL    HW2  534   0.108   2.735   2.683  1.2223 -0.5351  0.6789
  179SOL     OW  535   0.013   1.701   1.180  0.3749 -0.1483 -0.1303
  179SOL    HW1  536  -0.064   1.770   1.218  0.7305  2.0037  1.4761
  179SOL    HW2  537   0.033   1.628   1.251 -1.7009 -0.2451 -0.9148
  180SOL     OW  538   0.231   1.214   1.852 -0.5703  0.0112  0.1286
  180SOL    HW1  539   0.328   1.233   1.825 -1.1926 -1.6350  1.1144
  180SOL    HW2  540   0.199   1.276   1.935 -2.4025  1.8879  2.1815
  181SOL     OW  541   3.041   1.860   2.547 -0.7768 -0.2614  0.2257
  181SOL    HW1  542   3.140   1.888   2.523 -3.6647 -0.3359 -2.6739
  181SOL    HW2  543   2.978   1.886   2.479  0.8029  1.2379 -0.6991
  182SOL     OW  544   2.296   1.285   1.162 -0.5699  0.2475 -0.1281
  182SOL    HW1  545   2.225   1.232   1.108 -0.0112  1.0460  3.3736
  182SOL    HW2  546   2.323   1.376   1.120  2.2357 -0.8219 -1.1179
  183SOL     OW  547   1.510   2.276   2.503  0.4647  0.0650  0.4899
  183SOL    HW1  548   1.444   2.200   2.521  1.0614  1.3484 -0.7134
  183SOL    HW2  549   1.596   2.242   2.475 -1.4523 -1.3782 -0.7926
  184SOL     OW  550   2.044   0.941   0.835 -0.0105  0.0587 -0.2581
  184SOL    HW1  551   1.963   0.985   0.788  1.5558  0.7220  1.4465
  184SOL    HW2  552   2.027   0.844   0.866 -0.1245 -0.8196  0.1611
  185SOL     OW  553   1.581   2.690   2.073 -0.4406  0.4401 -0.1568
  185SOL    HW1  554   1.562   2.793   2.060  0.0314  1.3464  0.9486
  185SOL    HW2  555   1.540   2.662   2.160 -0.0747  0.5094  0.6763
  186SOL     OW  556   0.074   2.210   1.721  0.3197 -0.3564 -0.1575
  186SOL    HW1  557   0.113   2.284   1.661 -1.1927 -3.0528 -2.9277
  186SOL    HW2  558   0.131   2.118   1.724  3.1661  1.0837 -0.2138
  187SOL     OW  559   1.380   0.705   1.681 -0.2647 -0.4134  0.0446
  187SOL    HW1  560   1.440   0.758   1.617 -0.1159  1.8121  0.7299
  187SOL    HW2  561   1.425   0.708   1.773  1.8553 -0.0759 -1.8196
  188SOL     OW  562   2.798   2.775   1.465 -0.2612  0.2740 -0.4440
  188SOL    HW1  563   2.768   2.874   1.470  3.2273  1.5362  1.4756
  188SOL    HW2  564   2.735   2.719   1.401  0.0115  1.0449  0.2884
  189SOL     OW  565   0.847   1.043   1.381  0.4790  0.3270 -0.1250
  189SOL    HW1  566   0.915   1.113   1.426 -1.5805  1.3126  0.6809
  189SOL    HW2  567   0.796   1.071   1.298 -0.2338  2.4472  0.6458
  190SOL     OW  568   1.531   1.879   1.561  0.2981 -0.0483 -0.1711
  190SOL    HW1  569   1.438   1.837   1.563  0.1564  1.0021  0.0536
  190SOL    HW2  570   1.567   1.908   1.656  1.5256  0.9544 -1.3406
  191SOL     OW  571   0.967   0.744   1.562  0.2047  0.1696 -0.0078
  191SOL    HW1  572   1.005   0.648   1.583  0.1732 -0.1520 -1.0560
  191SOL    HW2  573   1.049   0.810   1.564  0.7208 -1.3177  0.3392
  192SOL     OW  574   1.849   2.286   1.122 -0.1344 -0.7683 -0.2351
  192SOL    HW1  575   1.802   2.249   1.041 -0.4702 -0.5988  3.1881
  192SOL    HW2  576   1.923   2.356   1.095  1.7386 -2.2774 -0.2655
  193SOL     OW  577   0.507   0.613   0.397  0.0939 -0.0262  0.1585
  193SOL    HW1  578   0.484   0.539   0.463 -0.3423  1.8226 -1.4707
  193SOL    HW2  579   0.567   0.577   0.321  0.5256  0.7790 -1.6593
  194SOL     OW  580   0.293   0.851   1.256 -0.0763  0.0387 -0.6228
  194SOL    HW1  581   0.195   0.813   1.243 -0.5203 -2.7680 -0.5840
  194SOL    HW2  582   0.324   0.913   1.178 -1.3186 -0.0656  0.6699
  195SOL     OW  583   0.986   2.929   0.434  0.4080 -0.2301  0.3233
  195SOL    HW1  584   0.985   2.822   0.433  2.4196 -0.7438 -0.7942
  195SOL    HW2  585   1.089   2.966   0.440 -0.3127 -3.0219  0.0358
  196SOL     OW  586   0.283   1.405   1.407 -0.3311 -0.1930  0.0831
  196SOL    HW1  587   0.346   1.465   1.462 -2.8182  0.7556 -1.1935
  196SOL    HW2  588   0.251   1.327   1.464  0.6152  1.7697  0.4061
  197SOL     OW  589   0.923   2.048   0.228 -0.6278 -0.1060  0.1748
  197SOL    HW1  590   0.872   2.014   0.313 -0.2447  0.6268 -0.3500
  197SOL    HW2  591   0.970   1.972   0.179 -0.8932  1.5955 -0.5040
  198SOL     OW  592   0.265   1.251   0.283  0.3802 -0.0077 -0.1618
  198SOL    HW1  593   0.166   1.263   0.263  1.0337  1.1316 -1.2811
  198SOL    HW2  594   0.321   1.339   0.262 -1.9593 -2.4857  0.6098
  199SOL     OW  595   2.219   0.390   2.514 -0.3456  0.0172  0.4337
  199SOL    HW1  596   2.147   0.348   2.574  1.0172 -0.0175 -1.4265
  199SOL    HW2  597   2.320   0.387   2.556  2.7418  2.6901  1.6816
  200SOL     OW  598   3.100   2.968   0.672  0.1456 -0.1767 -0.2415
  200SOL    HW1  599   3.007   2.953   0.627  0.3118 -1.7165 -0.0163
  200SOL    HW2  600   3.119   3.059   0.715 -2.4795  0.6475 -3.4720
  201SOL     OW  601   1.106   0.728   0.642 -0.0959 -0.4427 -0.1516
  201SOL    HW1  602   1.122   0.794   0.722  1.2776 -1.5626  3.2263
  201SOL    HW2  603   1.006   0.695   0.639 -1.9875  0.4830 -0.1968
  202SOL     OW  604   0.500   1.246   1.779  0.0814 -0.1384  0.8390
  202SOL    HW1  605   0.547   1.248   1.690  3.8530  0.5360  1.8797
  202SOL    HW2  606   0.549   1.172   1.839  0.1006 -0.4129  3.0681
  203SOL     OW  607   0.735   0.212   1.599  0.2973  0.4798 -0.4755
  203SOL    HW1  608   0.750   0.129   1.539 -0.0462 -2.1667 -0.4769
  203SOL    HW2  609   0.798   0.201   1.679 -1.9625 -3.1053 -0.6658
  204SOL     OW  610   2.102   1.838   3.002  0.2295  0.3892 -0.3350
  204SOL    HW1  611   2.124   1.741   3.034 -2.8354  0.1240 -0.5963
  204SOL    HW2  612   2.082   1.861   2.902  0.1884  0.5998  3.1831
  205SOL     OW  613   1.845   1.869   0.031 -0.1635  0.4036  0.1161
  205SOL    HW1  614   1.917   1.827  -0.027  0.2532 -1.4128  0.2669
  205SOL    HW2  615   1.821   1.968   0.003 -0.1663 -0.5349 -1.1933
  206SOL     OW  616   2.533   2.777   0.344 -0.5876 -0.4177 -0.3316
  206SOL    HW1  617   2.607   2.708   0.355 -1.8405 -1.4765 -0.5063
  206SOL    HW2  618   2.556   2.853   0.279 -1.1103  2.7689 -1.6410
  207SOL     OW  619   0.580   1.781   2.916 -0.6177  0.6539 -0.0455
  207SOL    HW1  620   0.667   1.745   2.868  0.6434 -1.1260 -0.2217
  207SOL    HW2  621   0.523   1.707   2.963 -0.9507 -1.3155 -0.3001
  208SOL     OW  622   1.087   1.543   1.425  0.7717  0.1746 -0.4986
  208SOL    HW1  623   0.992   1.573   1.411 -0.0173 -0.6368 -0.3860
  208SOL    HW2  624   1.146   1.617   1.457 -0.8540 -1.6650 -0.4255
  209SOL     OW  625   0.286   0.946   2.997 -0.3257  0.2494  0.0495
  209SOL    HW1  626   0.328   0.885   2.924 -0.5446  0.6226 -0.6110
  209SOL    HW2  627   0.256   0.896   3.083  1.3309 -0.6854 -1.2918
  210SOL     OW  628   1.720   0.481   1.182  0.4407  0.1225  0.1451
  210SOL    HW1  629   1.682   0.570   1.144 -1.1704  0.0641 -1.9193
  210SOL    HW2  630   1.821   0.468   1.168 -1.6774  1.6490  0.7692
  211SOL     OW  631   2.106   1.077   1.617 -0.3667  0.1331 -0.2631
  211SOL    HW1  632   2.162   1.000   1.656 -1.3949 -3.0662 -0.9739
  211SOL    HW2  633   2.153   1.136   1.541  0.5964  1.8468  0.9899
  212SOL     OW  634   0.014   0.996   1.470  0.0981 -0.0397 -0.3071
  212SOL    HW1  635   0.080   1.077   1.469  2.5074  0.8795 -2.0737
  212SOL    HW2  636   0.043   0.933   1.546  1.0015 -1.1860 -0.9748
  213SOL     OW  637   2.752   0.369   0.264  0.2395  0.4016 -0.1708
  213SOL    HW1  638   2.828   0.309   0.217  4.2538  0.1851 -0.7071
  213SOL    HW2  639   2.707   0.447   0.200  0.7508  1.3599 -2.4993
  214SOL     OW  640   2.180   0.274   2.290 -0.1517 -0.3949 -0.4628
  214SOL    HW1  641   2.214   0.329   2.375 -1.9574  1.3807  0.4916
  214SOL    HW2  642   2.165   0.175   2.316 -1.1856  0.0437 -1.6708
  215SOL     OW  643   1.659   2.292   2.018 -0.4666 -0.5278  0.2140
  215SOL    HW1  644   1.754   2.328   2.033 -1.1906 -1.6225 -0.9066
  215SOL    HW2  645   1.588   2.346   2.070 -3.6969  1.4556 -0.0237
  216SOL     OW  646   2.209   0.544   0.698  0.3819 -0.4672  0.0655
  216SOL    HW1  647   2.202   0.445   0.673  0.5200  1.5850  0.0539
  216SOL    HW2  648   2.217   0.606   0.617 -3.5661  1.5689 -1.8826
  217SOL     OW  649   0.734   2.780   2.467 -0.0002  0.1420  1.0305
  217SOL    HW1  650   0.743   2.676   2.487 -2.5712 -2.4908  1.7858
  217SOL    HW2  651   0.732   2.790   2.362  0.2937  1.4461  0.2934
  218SOL     OW  652   1.912   1.401   0.065  0.1804  0.2845 -0.0367
  218SOL    HW1  653   1.815   1.430   0.041  0.8965 -0.6585  1.3865
  218SOL    HW2  654   1.905   1.341   0.149  2.1119  3.7423 -1.2107
  219SOL     OW  655   2.348   1.281   2.538 -0.2984  0.5782  0.9883
  219SOL    HW1  656   2.370   1.215   2.463  2.1399  0.1769 -2.4718
  219SOL    HW2  657   2.353   1.235   2.631  1.6768  1.1794  0.0604
  220SOL     OW  658   1.532   1.006   1.218  0.0997 -0.7207  0.1984
  220SOL    HW1  659   1.624   1.042   1.248 -1.5080  0.1202 -3.0144
  220SOL    HW2  660   1.481   1.067   1.149  3.3004 -1.9134 -0.6951
  221SOL     OW  661   1.370   1.104   2.203  0.5010 -0.6254 -0.2346
  221SOL    HW1  662   1.313   1.146   2.123  0.3405 -2.4501  0.2579
  221SOL    HW2  663   1.467   1.079   2.173 -0.3055  1.4299 -2.5528
  222SOL     OW  664   1.244   0.033   1.236  0.2172 -0.0421 -0.0972
  222SOL    HW1  665   1.272   0.102   1.306  1.2931 -1.0349 -0.3936
  222SOL    HW2  666   1.267   0.056   1.138 -2.6975 -1.5401  0.5214
  223SOL     OW  667   2.869   0.862   2.034 -0.7323 -0.0972  0.4069
  223SOL    HW1  668   2.890   0.902   2.127 -1.1302  2.2122 -0.1772
  223SOL    HW2  669   2.930   0.906   1.960 -0.7173  3.6374  0.0449
  224SOL     OW  670   1.491   0.953   2.758  0.2210 -0.2637 -0.7160
  224SOL    HW1  671   1.524   0.900   2.680 -1.3619  2.2205  0.5126
  224SOL    HW2  672   1.470   1.047   2.723  0.7640  0.0014 -2.5722
  225SOL     OW  673   2.974   2.762   2.881 -0.6108  0.4048  0.2243
  225SOL    HW1  674   2.974   2.677   2.825  1.1061  0.5615 -1.6009
  225SOL    HW2  675   3.003   2.843   2.830  0.0156 -0.3498  1.8703
  226SOL     OW  676   2.427   1.590   2.844 -0.2728  0.2578 -0.3321
  226SOL    HW1  677   2.480   1.564   2.756 -0.1787 -0.8263 -0.3119
  226SOL    HW2  678   2.381   1.506   2.885 -0.6357 -1.4613  2.0613
  227SOL     OW  679   0.897   0.121   3.029 -0.2812 -0.1002  0.3333
  227SOL    HW1  680   0.940   0.033   3.049  1.4533  3.8840  1.9158
  227SOL    HW2  681   0.874   0.122   2.931  2.4217 -0.4205  1.2647
  228SOL     OW  682   2.374   0.631   2.838 -0.5121  0.0742  0.4100
  228SOL    HW1  683   2.302   0.614   2.766  0.1866 -1.0172  2.0370
  228SOL    HW2  684   2.465   0.597   2.811 -0.9094 -2.9265  0.4337
  229SOL     OW  685   0.558   0.528   1.877  0.5123  0.0461  0.4736
  229SOL    HW1  686   0.524   0.455   1.814 -1.2029  1.1759  0.6978
  229SOL    HW2  687   0.634   0.593   1.851 -0.1047  1.3831 -3.2286
  230SOL     OW  688   1.916   1.214   2.157  0.0635 -0.4432 -0.2029
  230SOL    HW1  689   1.981   1.265   2.093  3.2262 -0.5217  1.9008
  230SOL    HW2  690   1.826   1.255   2.160  1.4781 -1.7217  2.6810
  231SOL     OW  691   0.636   0.979   3.003 -0.0696  0.1630  0.0554
  231SOL    HW1  692   0.703   1.055   2.989  0.5982 -1.0888 -0.1492
  231SOL    HW2  693   0.611   0.979   3.105  1.3858  1.3201 -1.0669
  232SOL     OW  694   2.454   0.006   2.751 -0.4375  0.8238 -0.1273
  232SOL    HW1  695   2.503  -0.067   2.805 -0.1889 -3.0606 -2.0890
  232SOL    HW2  696   2.497   0.016   2.655  1.1378  3.0917 -0.4653
  233SOL     OW  697   1.693   1.299   1.099 -0.0502  0.1703  0.2232
  233SOL    HW1  698   1.656   1.298   1.000  0.7648  0.8639 -1.7549
  233SOL    HW2  699   1.781   1.254   1.104 -0.1147  1.1334 -0.7863
  234SOL     OW  700   1.636   2.552   1.848 -0.5537  0.5376 -0.1631
  234SOL    HW1  701   1.643   2.595   1.944  0.3665 -2.3596  0.0083
  234SOL    HW2  702   1.539   2.524   1.819 -0.9314 -2.7772  0.5205
  235SOL     OW  703   0.029   3.025   2.902 -0.4389  0.2923 -0.1403
  235SOL    HW1  704   0.092   3.106   2.892 -1.2332 -0.3818  1.2800
  235SOL    HW2  705  -0.028   3.021   2.991  0.7293  1.3841  1.7556
  236SOL     OW  706   2.863   0.685   0.132  0.1949  0.1059  0.5838
  236SOL    HW1  707   2.923   0.749   0.183  1.7441 -4.3617 -2.6008
  236SOL    HW2  708   2.913   0.629   0.063 -2.8095 -0.1944  1.0173
  237SOL     OW  709   1.488   1.634   1.029 -1.5484  0.1665  0.3789
  237SOL    HW1  710   1.586   1.608   1.001  0.3922 -3.4670  1.6471
  237SOL    HW2  711   1.479   1.668   1.128  2.0138  2.4223 -1.5928
  238SOL     OW  712   1.761   1.293   0.806  0.2523 -0.1239  0.5479
  238SOL    HW1  713   1.854   1.316   0.764  2.7452 -0.2798 -0.1647
  238SOL    HW2  714   1.687   1.356   0.761 -0.4051  1.9030 -0.2384
  239SOL     OW  715   2.037   0.278   2.686 -0.1669 -0.1548  0.5794
  239SOL    HW1  716   2.096   0.265   2.773 -0.3635  0.4371  3.9892
  239SOL    HW2  717   1.948   0.333   2.707 -3.0186  0.6194 -0.5465
  240SOL     OW  718   0.923   0.677   0.265  0.9073  0.0357  0.6258
  240SOL    HW1  719   0.939   0.577   0.229  0.5044  0.5687 -3.0521
  240SOL    HW2  720   0.928   0.693   0.363  1.8465  1.7899 -1.8438
  241SOL     OW  721   0.584   0.099   0.317 -0.1340  0.4635 -0.0471
  241SOL    HW1  722   0.627   0.130   0.230 -0.2731 -3.9740 -2.5169
  241SOL    HW2  723   0.551  -0.003   0.312  0.9289 -0.8105  0.9063
  242SOL     OW  724   0.653   2.479   1.145  0.4341  0.5268 -0.2793
  242SOL    HW1  725   0.639   2.493   1.246 -0.1492  1.3098  0.9940
  242SOL    HW2  726   0.746   2.497   1.106 -2.6391 -2.6126  0.7368
  243SOL     OW  727   1.124   0.631   2.437  0.1831 -0.5645 -0.1197
  243SOL    HW1  728   1.071   0.705   2.399  0.2061  0.8444 -1.4796
  243SOL    HW2  729   1.063   0.557   2.467 -0.2647  1.6067 -0.0618
  244SOL     OW  730   2.802   1.857   2.391  0.2167 -0.0136 -0.2734
  244SOL    HW1  731   2.863   1.833   2.308  2.0313  0.8403  1.8263
  244SOL    HW2  732   2.723   1.790   2.405 -1.9417 -1.1012  0.1855
  245SOL     OW  733   2.495   0.695   2.156  0.4769 -0.7672  0.5422
  245SOL    HW1  734   2.503   0.768   2.231  0.7375 -1.1220  1.3175
  245SOL    HW2  735   2.550   0.615   2.175  1.2349  3.9602  1.3440
  246SOL     OW  736   0.295   2.915   1.691 -0.5087  0.6819  0.0443
  246SOL    HW1  737   0.224   2.901   1.619  0.9030  0.2031  1.1613
  246SOL    HW2  738   0.354   3.001   1.671 -2.0900  1.7534  0.4414
  247SOL     OW  739   2.217   0.580   3.047  0.4052 -0.6645  0.3081
  247SOL    HW1  740   2.289   0.579   2.970  3.1325  2.0137  0.1227
  247SOL    HW2  741   2.162   0.671   3.038  1.3911 -3.5628 -1.6024
  248SOL     OW  742   2.142   1.841   1.619 -0.4269 -0.9935  0.0187
  248SOL    HW1  743   2.207   1.781   1.670 -0.6341 -0.5610 -1.8439
  248SOL    HW2  744   2.045   1.847   1.658 -0.7229  3.0011 -0.3500
  249SOL     OW  745   1.942   1.989   1.959  0.5510 -0.5923  0.1672
  249SOL    HW1  746   1.923   1.934   1.873 -1.1059  0.9054 -0.0865
  249SOL    HW2  747   2.034   2.038   1.957 -1.2271 -2.9331 -0.6798
  250SOL     OW  748   1.085   0.736   1.862  0.8221 -0.0176 -0.2577
  250SOL    HW1  749   1.101   0.654   1.928  2.0990  0.6089  1.6067
  250SOL    HW2  750   1.081   0.705   1.764 -1.0430  2.0831 -1.5828
  251SOL     OW  751   3.048   1.572   2.540 -0.6357 -0.3788 -0.1740
  251SOL    HW1  752   3.039   1.674   2.553  0.9524 -1.8843  0.3073
  251SOL    HW2  753   2.962   1.528   2.576  0.2161  0.7876  1.8541
  252SOL     OW  754   1.523   0.898   1.503  0.4534 -0.1319 -0.3558
  252SOL    HW1  755   1.525   0.917   1.402 -1.1139  0.3364 -0.3471
  252SOL    HW2  756   1.526   0.987   1.555  0.1117 -3.3895 -2.3608
  253SOL     OW  757   0.930   1.556   0.386  0.0619 -0.5465  0.2140
  253SOL    HW1  758   0.985   1.467   0.380 -2.4414  0.4123 -2.5600
  253SOL    HW2  759   0.834   1.528   0.373 -3.1890 -1.8940  0.7985
  254SOL     OW  760   2.076   2.176   1.601  0.5964 -0.1669 -0.2035
  254SOL    HW1  761   2.063   2.108   1.527 -0.1829  0.1060  0.3604
  254SOL    HW2  762   1.989   2.192   1.655 -0.1154 -1.9608 -1.1908
  255SOL     OW  763   0.136   1.152   2.926 -0.4486 -0.0399  0.0393
  255SOL    HW1  764   0.180   1.248   2.898  3.3056  2.7934 -0.2425
  255SOL    HW2  765   0.210   1.079   2.947 -2.4323 -0.2386  0.3296
  256SOL     OW  766   2.812   1.365   1.844 -0.1870 -0.0372 -0.1745
  256SOL    HW1  767   2.740   1.438   1.834 -0.2821 -1.4652 -1.3724
  256SOL    HW2  768   2.771   1.273   1.859 -0.3118 -0.0402 -0.4255
  257SOL     OW  769   0.900   0.153   1.848  0.0548 -0.2808 -0.6253
  257SOL    HW1  770   0.953   0.215   1.788  0.4636  1.4043  0.2855
  257SOL    HW2  771   0.926   0.055   1.827 -1.0772 -1.0818 -4.2718
  258SOL     OW  772   2.981   1.286   0.443 -0.2957  0.3044  0.0343
  258SOL    HW1  773   2.969   1.382   0.414  0.5985 -1.4172 -0.3338
  258SOL    HW2  774   3.025   1.279   0.539  0.0517 -2.1843  3.9813
  259SOL     OW  775   0.460   2.941   2.998  0.5225  0.4370  0.3885
  259SOL    HW1  776   0.408   2.884   3.065  3.6263  3.6566 -0.3989
  259SOL    HW2  777   0.446   2.906   2.900 -3.4116  2.3888 -0.8395
  260SOL     OW  778   2.703   0.857   2.739  0.0074 -0.3602 -0.1687
  260SOL    HW1  779   2.609   0.844   2.694  0.8517 -0.1303 -1.5870
  260SOL    HW2  780   2.706   0.908   2.829  0.0250  0.2929 -0.7129
  261SOL     OW  781   2.725   1.376   1.313 -0.4704  0.4272 -0.0876
  261SOL    HW1  782   2.680   1.300   1.252 -0.2706 -0.6491 -0.7931
  261SOL    HW2  783   2.810   1.348   1.367  1.4150 -1.6369  1.5643
  262SOL     OW  784   1.435   2.934   1.977 -0.0555  0.9829  0.4433
  262SOL    HW1  785   1.445   3.018   1.921 -1.7555  0.4210  0.2236
  262SOL    HW2  786   1.334   2.901   1.979  1.1278 -1.7370  2.5610
  263SOL     OW  787   0.858   0.756   2.313  0.0571 -0.8487  0.6318
  263SOL    HW1  788   0.833   0.659   2.288  0.6683  0.0433  1.1120
  263SOL    HW2  789   0.898   0.811   2.236  0.0186 -2.4029  1.0297
  264SOL     OW  790   2.252   0.714   0.407  0.0352  0.6502 -0.8512
  264SOL    HW1  791   2.151   0.747   0.428 -0.0919  1.1511  1.7695
  264SOL    HW2  792   2.334   0.783   0.433 -0.7222  1.2100  1.1747
  265SOL     OW  793   0.907   2.282   2.659 -0.2521  0.2641 -0.7200
  265SOL    HW1  794   0.971   2.328   2.729  1.7957 -1.0312  0.2346
  265SOL    HW2  795   0.839   2.218   2.709  2.9212 -0.5888 -1.0326
  266SOL     OW  796   1.334   1.728   0.034 -0.2766  0.4871 -0.0353
  266SOL    HW1  797   1.317   1.809   0.097  2.4198  0.4173 -3.2413
  266SOL    HW2  798   1.433   1.710   0.010 -2.0945  0.1932 -0.5353
  267SOL     OW  799   1.041   3.058   2.384 -0.1777 -0.0883 -0.5468
  267SOL    HW1  800   1.071   3.018   2.292  0.8008  1.2228 -1.1246
  267SOL    HW2  801   0.983   3.140   2.367 -0.0990 -0.1712 -0.5337
  268SOL     OW  802   0.669   1.152   1.069 -0.2956 -0.2614  0.3068
  268SOL    HW1  803   0.710   1.214   1.143  0.1299  0.3948  3.5904
  268SOL    HW2  804   0.652   1.204   0.983  1.3182 -1.1832  0.8364
  269SOL     OW  805   2.431   2.435   1.569 -0.3048  0.4680 -0.3677
  269SOL    HW1  806   2.529   2.405   1.547 -1.1805  2.6084 -0.7963
  269SOL    HW2  807   2.409   2.419   1.670 -1.8745 -0.2239 -3.0736
  270SOL     OW  808   0.147   3.043   1.925 -0.2502  0.3515 -0.0843
  270SOL    HW1  809   0.234   3.022   1.871 -1.2249  1.6615 -1.9216
  270SOL    HW2  810   0.082   2.961   1.923 -0.4779  0.6166 -4.4900
  271SOL     OW  811   0.458   1.438   1.170  0.3713  0.3510 -0.8836
  271SOL    HW1  812   0.402   1.389   1.097  2.4564 -1.2053 -0.1891
  271SOL    HW2  813   0.409   1.459   1.262  2.2222  2.0440  2.0827
  272SOL     OW  814   1.962   2.918   1.927  1.0620 -0.0555 -0.1748
  272SOL    HW1  815   1.876   2.866   1.889 -0.7699 -0.4762 -0.5472
  272SOL    HW2  816   2.006   2.984   1.858 -2.6753 -2.6863 -0.0211
  273SOL     OW  817   1.385   1.424   2.837 -0.2279 -0.0437  0.0572
  273SOL    HW1  818   1.328   1.502   2.801 -0.7122  2.7702 -1.0627
  273SOL    HW2  819   1.381   1.423   2.939  0.1764 -1.0626  1.7979
  274SOL     OW  820   1.152   0.550   2.058  0.2675 -0.3342 -0.1297
  274SOL    HW1  821   1.182   0.470   2.001 -2.9501  1.5491  3.1293
  274SOL    HW2  822   1.213   0.557   2.143  1.9768  1.7599  0.8140
  275SOL     OW  823   0.619   2.076   1.946 -0.3786  0.0363 -0.4650
  275SOL    HW1  824   0.572   2.168   1.960  1.2250 -0.7741 -0.0354
  275SOL    HW2  825   0.548   2.004   1.907 -1.6321 -0.6329 -0.9477
  276SOL     OW  826   2.180   0.902   2.755  0.5142 -0.2686  0.7349
  276SOL    HW1  827   2.101   0.871   2.695 -2.5611 -0.5724  1.0716
  276SOL    HW2  828   2.188   0.854   2.849 -0.3677 -0.6189 -0.6861
  277SOL     OW  829   3.072   0.877   0.224  0.1472  0.1622  0.1590
  277SOL    HW1  830   3.147   0.938   0.188 -1.3712  2.3516 -0.8874
  277SOL    HW2  831   3.111   0.804   0.291  1.8308 -1.1050  0.2267
  278SOL     OW  832   0.225   0.301   2.990  0.4685  0.0984  0.8361
  278SOL    HW1  833   0.276   0.221   3.034  1.1660  1.2313 -1.3874
  278SOL    HW2  834   0.261   0.396   3.011 -0.5467 -3.9792 -2.6562
  279SOL     OW  835   0.142   0.070   0.879 -0.4690 -0.1319  0.5705
  279SOL    HW1  836   0.169   0.032   0.970 -2.0286  2.0305  0.7347
  279SOL    HW2  837   0.228   0.086   0.822 -0.6969 -1.0482  0.2285
  280SOL     OW  838   1.645   2.881   2.554 -0.0233 -0.0092  0.1360
  280SOL    HW1  839   1.718   2.945   2.521 -0.5249 -1.3581  0.9351
  280SOL    HW2  840   1.551   2.917   2.563  0.3844  0.0413 -0.3596
  281SOL     OW  841   0.571   0.971   2.285 -0.0924 -0.2334  0.0851
  281SOL    HW1  842   0.583   0.873   2.250  1.4906 -2.9103  1.4479
  281SOL    HW2  843   0.524   0.973   2.375 -0.5196 -0.0581  1.4017
  282SOL     OW  844   1.690   2.378   0.502 -0.1868 -0.2924 -0.0660
  282SOL    HW1  845   1.653   2.313   0.427 -1.4754  0.0075  0.3634
  282SOL    HW2  846   1.678   2.483   0.500  2.1466  2.5038  2.9201
  283SOL     OW  847   1.187   0.943   0.840 -0.5530  0.2219  0.1899
  283SOL    HW1  848   1.231   0.885   0.913 -0.6411 -1.6271 -2.0552
  283SOL    HW2  849   1.112   1.003   0.874  2.3239 -2.2683 -0.7521
  284SOL     OW  850   2.371   2.790   2.303 -0.2322  0.0579  0.2066
  284SOL    HW1  851   2.431   2.850   2.240  0.7827  1.2748 -1.3451
  284SOL    HW2  852   2.405   2.789   2.401 -1.3222 -4.1321 -2.9013
  285SOL     OW  853   1.357   2.968   2.521  0.9093  0.1711  0.5689
  285SOL    HW1  854   1.392   2.969   2.420  2.5711 -0.5996 -0.6408
  285SOL    HW2  855   1.281   3.034   2.526  2.9451 -0.7100 -3.5744
  286SOL     OW  856   0.449   0.416   0.715 -0.1198  0.3438  0.5666
  286SOL    HW1  857   0.408   0.361   0.799 -2.9250  0.6028  1.1094
  286SOL    HW2  858   0.433   0.361   0.625 -0.1477  0.8109 -0.4059
  287SOL     OW  859   0.144   1.289   2.540  0.0931 -0.0589 -0.1610
  287SOL    HW1  860   0.097   1.217   2.602 -0.1850  0.8075  3.9405
  287SOL    HW2  861   0.083   1.373   2.525  2.0768 -0.9286  2.0844
  288SOL     OW  862   1.542   2.673   1.543 -0.4342 -0.3355  0.7263
  288SOL    HW1  863   1.635   2.716   1.558 -3.9559 -2.4898 -0.6129
  288SOL    HW2  864   1.506   2.699   1.445  0.2438  1.1204 -1.4281
  289SOL     OW  865   0.688   2.693   0.812 -0.0302 -0.1219  0.1876
  289SOL    HW1  866   0.723   2.764   0.747 -0.8856 -2.3847 -0.2069
  289SOL    HW2  867   0.670   2.736   0.908  0.0765  0.9604  2.0236
  290SOL     OW  868   2.840   1.079   1.614 -0.0918 -0.5087  0.2770
  290SOL    HW1  869   2.776   1.148   1.660  0.1502 -0.1383 -0.2817
  290SOL    HW2  870   2.914   1.045   1.677 -1.2603  2.7459  0.6356
  291SOL     OW  871   1.966   0.053   0.083  0.1058  0.3218 -0.4853
  291SOL    HW1  872   1.986   0.074   0.185 -0.6368 -0.1249 -0.1754
  291SOL    HW2  873   2.010   0.131   0.030 -1.1010  0.9406  1.2138
  292SOL     OW  874   2.981   1.171   3.036 -0.3143  0.1210  0.4777
  292SOL    HW1  875   2.928   1.248   2.991 -2.5285 -0.0397  0.7743
  292SOL    HW2  876   3.074   1.159   2.994  1.0806 -2.3510  0.7378
  293SOL     OW  877   0.602   2.133   0.137 -0.5990 -0.1205  0.0040
  293SOL    HW1  878   0.594   2.172   0.235 -0.1879 -1.3076 -1.6465
  293SOL    HW2  879   0.691   2.089   0.123 -1.3210 -1.4313  1.1748
  294SOL     OW  880   1.687   2.210   1.745  0.1259  1.0223 -0.1758
  294SOL    HW1  881   1.691   2.276   1.823 -1.5754 -0.6361  0.5475
  294SOL    HW2  882   1.689   2.268   1.658 -2.1376 -0.9224  1.3978
  295SOL     OW  883   1.042   1.004   0.440  0.7231  0.4471  0.5391
  295SOL    HW1  884   1.140   0.982   0.469 -2.4339 -1.8697 -1.7758
  295SOL    HW2  885   0.974   1.014   0.524 -2.3208  1.6221  2.7076
  296SOL     OW  886   1.300   2.044   2.521 -0.7107  0.1493  0.3046
  296SOL    HW1  887   1.312   2.064   2.421 -1.4454  3.1284 -2.2809
  296SOL    HW2  888   1.296   1.937   2.543  1.3242 -1.0613 -2.2866
  297SOL     OW  889   1.477   0.631   1.372 -0.0683 -0.1863  0.5133
  297SOL    HW1  890   1.463   0.534   1.405 -0.8609  1.3862  0.2800
  297SOL    HW2  891   1.564   0.669   1.416  1.1958 -2.8492 -0.5487
  298SOL     OW  892   0.465   1.246   2.896  0.6429  0.4062  0.4477
  298SOL    HW1  893   0.480   1.169   2.966  1.1383  1.7473  0.8558
  298SOL    HW2  894   0.553   1.251   2.838  1.8363  2.6006 -0.2561
  299SOL     OW  895   0.472   0.272   1.423 -0.4272 -0.5415 -0.2802
  299SOL    HW1  896   0.523   0.328   1.357  0.1861  1.2252  1.9286
  299SOL    HW2  897   0.528   0.244   1.501  3.1037 -0.8329 -0.9484
  300SOL     OW  898   1.196   1.815   2.897 -0.4047  0.3199  0.1530
  300SOL    HW1  899   1.165   1.740   2.832 -1.3376  3.2321 -2.1988
  300SOL    HW2  900   1.220   1.783   2.996  1.4469 -0.0470 -3.0258
  301SOL     OW  901   0.455   0.277   0.488 -0.0844 -0.4789  0.0566
  301SOL    HW1  902   0.357   0.239   0.482 -2.2143  4.2462  1.5443
  301SOL    HW2  903   0.514   0.239   0.410  0.5520  2.2129 -0.1320
  302SOL     OW  904   1.252   2.359   2.271 -0.0010  0.4137 -0.7739
  302SOL    HW1  905   1.192   2.412   2.346 -0.6635  2.4999 -0.7352
  302SOL    HW2  906   1.232   2.260   2.263 -1.7160  0.7140 -0.5576
  303SOL     OW  907   0.958   2.340   0.790 -0.2476 -0.1259  0.3016
  303SOL    HW1  908   1.010   2.401   0.728 -3.0189  0.6851  0.1224
  303SOL    HW2  909   0.966   2.365   0.891  1.9162  0.4996 -0.3950
  304SOL     OW  910   0.150   2.058   0.630  0.1644 -0.0340 -0.1167
  304SOL    HW1  911   0.163   1.993   0.551 -0.6280  2.0379 -1.4333
  304SOL    HW2  912   0.104   2.152   0.601  2.0472  0.9781 -2.0443
  305SOL     OW  913   1.580   0.901   0.594 -0.0755  0.1340 -0.2965
  305SOL    HW1  914   1.532   0.891   0.500  0.2342  1.3843  3.0231
  305SOL    HW2  915   1.646   0.827   0.624 -2.8872 -1.5666 -0.5400
  306SOL     OW  916   0.464   1.854   1.879 -0.2685  0.5247 -0.4124
  306SOL    HW1  917   0.559   1.820   1.867 -3.1507  2.5120 -2.3381
  306SOL    HW2  918   0.426   1.846   1.975  1.1448 -0.1106 -1.9688
  307SOL     OW  919   0.034   0.855   2.592  0.0667  0.0459  0.0202
  307SOL    HW1  920   0.058   0.952   2.613 -1.5068 -1.4627 -1.4961
  307SOL    HW2  921  -0.039   0.820   2.656 -0.9766  4.3187 -0.1092
  308SOL     OW  922   1.534   2.678   2.856  0.1062  0.0994  0.2965
  308SOL    HW1  923   1.554   2.629   2.764 -0.9215  0.2171 -5.4290
  308SOL    HW2  924   1.470   2.619   2.914 -0.2342  1.2198 -3.3735
  309SOL     OW  925   1.234   0.074   1.778 -0.6594 -0.0112  0.3163
  309SOL    HW1  926   1.336   0.072   1.805  1.5775 -1.9055 -0.5346
  309SOL    HW2  927   1.218   0.084   1.674  0.2613 -3.7253 -1.0646
  310SOL     OW  928   1.493   2.551   0.687  0.9539 -0.0739 -0.4329
  310SOL    HW1  929   1.497   2.604   0.779 -0.0991  0.3095  1.2167
  310SOL    HW2  930   1.563   2.589   0.616  2.6740  1.2373  2.3124
  311SOL     OW  931   1.183   0.919   1.580  0.0505 -0.5620  0.3712
  311SOL    HW1  932   1.258   0.861   1.620  0.1082 -2.2000 -1.7478
  311SOL    HW2  933   1.222   1.002   1.528  0.3732 -2.5531  3.1700
  312SOL     OW  934   1.661   0.691   1.028  0.3640 -0.6505  0.1385
  312SOL    HW1  935   1.590   0.767   1.053 -1.7893  0.0737  1.2731
  312SOL    HW2  936   1.628   0.634   0.946  0.3359  1.3309 -1.5555
  313SOL     OW  937   1.514   1.426   0.679  0.2085  0.0883 -0.1049
  313SOL    HW1  938   1.438   1.451   0.741  1.3014 -0.0638 -1.8329
  313SOL    HW2  939   1.494   1.336   0.630 -0.0460  1.5477 -0.1262
  314SOL     OW  940   2.992   3.069   0.041  0.2211  0.4115  0.4506
  314SOL    HW1  941   2.953   3.133   0.111  2.7579  3.3981  2.4355
  314SOL    HW2  942   2.915   3.012  -0.004 -0.3258  1.7319  0.6597
  315SOL     OW  943   1.226   0.224   2.782  0.1684  0.0780  0.5361
  315SOL    HW1  944   1.206   0.148   2.710 -2.3942 -1.4990 -1.6996
  315SOL    HW2  945   1.241   0.191   2.880  1.0687  1.3001 -1.3087
  316SOL     OW  946   1.662   2.115   0.918 -0.1223 -0.0290  0.1280
  316SOL    HW1  947   1.621   2.111   1.015 -2.6609  0.2924  1.7799
  316SOL    HW2  948   1.650   2.202   0.868  0.6746 -0.8069  1.0876
  317SOL     OW  949   1.120   0.721   2.851  0.1323  0.4042  0.3045
  317SOL    HW1  950   1.029   0.751   2.891 -1.0111 -0.5633 -2.3422
  317SOL    HW2  951   1.114   0.624   2.816 -1.4374 -2.1893  1.0089
  318SOL     OW  952   1.395   3.012   2.260 -0.8446  0.1109 -0.5135
  318SOL    HW1  953   1.410   3.109   2.245  0.1408 -3.9188 -0.1152
  318SOL    HW2  954   1.381   2.971   2.168 -2.4623  1.1228  4.3699
  319SOL     OW  955   0.648   2.409   2.910 -0.1454  0.0837  0.2391
  319SOL    HW1  956   0.578   2.368   2.971 -1.4358  2.3492 -1.2702
  319SOL    HW2  957   0.735   2.357   2.912 -0.1138  0.5422  1.5470
  320SOL     OW  958   1.636   2.173   0.333 -0.0880 -0.4030 -0.3694
  320SOL    HW1  959   1.739   2.152   0.354 -2.0499 -2.6303  0.1419
  320SOL    HW2  960   1.573   2.145   0.406  1.4272  3.9797 -1.2575
  321SOL     OW  961   1.644   2.649   0.484  0.7695  0.0427 -0.1033
  321SOL    HW1  962   1.568   2.717   0.456  2.5206  2.0514  0.5394
  321SOL    HW2  963   1.738   2.687   0.464  0.7628  1.6446 -0.5080
  322SOL     OW  964   2.575   1.127   2.296  0.2579  0.5140  0.4509
  322SOL    HW1  965   2.645   1.163   2.370  3.6292 -0.8808 -1.7870
  322SOL    HW2  966   2.560   1.022   2.308 -0.9880  0.3402  2.2976
  323SOL     OW  967   1.006   2.632   0.799 -0.3732 -0.1909  0.3628
  323SOL    HW1  968   1.003   2.605   0.701  0.5625 -0.0438  1.9384
  323SOL    HW2  969   1.010   2.736   0.813  3.6692  1.9091 -0.5106
  324SOL     OW  970   0.236   2.472   2.492  0.3213  0.5599  0.2267
  324SOL    HW1  971   0.273   2.392   2.548 -2.2079 -1.8331  0.6777
  324SOL    HW2  972   0.169   2.535   2.542 -0.3392 -1.1294  0.6880
  325SOL     OW  973   1.235   3.042   0.445  0.9168 -0.1420 -0.4518
  325SOL    HW1  974   1.256   3.079   0.349  1.4976 -1.0539 -0.6482
  325SOL    HW2  975   1.257   3.109   0.521 -0.5653  0.6918 -2.2071
  326SOL     OW  976   2.482   0.773   3.067 -0.0078  0.0050  0.4401
  326SOL    HW1  977   2.433   0.738   2.983 -0.1251  3.0191  0.4239
  326SOL    HW2  978   2.512   0.696   3.131 -1.9838 -0.0311  1.6285
  327SOL     OW  979   2.886   0.365   0.494 -0.3518 -0.3817  0.4095
  327SOL    HW1  980   2.827   0.368   0.406  0.2301  0.5856 -0.4231
  327SOL    HW2  981   2.842   0.308   0.563  0.6610  0.3314 -2.5837
  328SOL     OW  982   2.507   0.611   0.396  0.5376  1.0258 -0.3719
  328SOL    HW1  983   2.404   0.632   0.407 -1.1375 -1.1000  1.3811
  328SOL    HW2  984   2.531   0.550   0.478  0.0289 -0.6555 -0.5824
  329SOL     OW  985   2.962   2.964   2.166  0.6455  0.1141  0.0191
  329SOL    HW1  986   3.008   2.880   2.208  0.6584 -1.0385 -1.1159
  329SOL    HW2  987   2.999   3.052   2.205  1.6920 -1.5798  0.9870
  330SOL     OW  988   0.536   0.198   1.880  0.5356 -0.1477 -0.2520
  330SOL    HW1  989   0.613   0.264   1.876  1.1276  0.0943 -2.5334
  330SOL    HW2  990   0.555   0.120   1.943 -1.6199  0.1026  0.7942
  331SOL     OW  991   2.934   1.930   1.114  0.3773 -0.1891 -0.1083
  331SOL    HW1  992   2.973   2.000   1.049  0.5972  1.0261  1.0437
  331SOL    HW2  993   2.891   1.971   1.198  1.5350  0.8654 -1.6395
  332SOL     OW  994   0.421   1.127   0.064  0.0325  0.0113  0.0417
  332SOL    HW1  995   0.354   1.068   0.012 -1.3067  0.6496  0.9066
  332SOL    HW2  996   0.392   1.147   0.159  0.2086  0.1127 -0.8434
  333SOL     OW  997   2.860   1.046   0.310 -0.0913  0.1380  0.0986
  333SOL    HW1  998   2.898   1.094   0.392 -0.6799 -0.2121 -2.1107
  333SOL    HW2  999   2.930   0.982   0.266 -0.3036 -2.0628  1.0568
  334SOL     OW 1000   1.681   1.177   1.886  0.1940 -0.1390  0.1491
  334SOL    HW1 1001   1.766   1.160   1.834 -0.0799  0.6578  0.4140
  334SOL    HW2 1002   1.690   1.266   1.942  2.7121 -0.9473  1.3531
  335SOL     OW 1003   1.990   2.757   2.609  0.2244 -0.3065 -0.3692
  335SOL    HW1 1004   1.899   2.738   2.664 -2.4891 -0.8666  0.7283
  335SOL    HW2 1005   2.065   2.804   2.671 -0.3485  3.7900  2.1908
  336SOL     OW 1006   0.250   0.070   2.812 -0.1812 -0.1587  0.5112
  336SOL    HW1 1007   0.347   0.049   2.780 -0.5817  1.9123  0.8339
  336SOL    HW2 1008   0.247   0.164   2.863 -2.2895 -1.2402  0.3422
  337SOL     OW 1009   0.926   2.806   2.816  0.2118 -0.1344  0.4505
  337SOL    HW1 1010   0.911   2.784   2.916  1.8783 -0.9398 -1.7964
  337SOL    HW2 1011   1.015   2.765   2.781 -1.7128  1.4512  0.2574
  338SOL     OW 1012   0.045   1.007   0.701  0.8384 -0.0674 -0.0472
  338SOL    HW1 1013  -0.045   0.960   0.726 -1.3192  2.2025  1.9259
  338SOL    HW2 1014   0.025   1.108   0.675 -1.9974  2.3807 -0.3856
  339SOL     OW 1015   1.704   1.380   2.080  0.1516 -0.6243 -0.2387
  339SOL    HW1 1016   1.605   1.397   2.099 -0.4035 -1.3975  0.5705
  339SOL    HW2 1017   1.764   1.467   2.101  4.6307  0.1950  0.7062
  340SOL     OW 1018   2.349   0.752   1.226  0.4160 -0.5997  0.1053
  340SOL    HW1 1019   2.248   0.744   1.211  0.0776 -2.4512  0.5073
  340SOL    HW2 1020   2.405   0.670   1.187 -1.4988 -2.2847  1.2645
  341SOL     OW 1021   1.909   2.179   0.342  0.0613  0.0168  0.3945
  341SOL    HW1 1022   1.931   2.211   0.244  2.3685  2.2029  1.2125
  341SOL    HW2 1023   1.995   2.160   0.396  3.0109 -0.6936  0.5687
  342SOL     OW 1024   2.211   2.084   2.755 -0.0896  0.2143 -0.0950
  342SOL    HW1 1025   2.282   2.019   2.785 -1.5581 -2.2089 -4.7459
  342SOL    HW2 1026   2.114   2.060   2.788 -0.8326 -0.3075 -1.5274
  343SOL     OW 1027   0.354   0.784   2.751  0.6977 -0.4351 -0.1900
  343SOL    HW1 1028   0.366   0.871   2.685  0.8699 -1.6336 -4.2861
  343SOL    HW2 1029   0.445   0.739   2.773  2.8424  4.7617 -0.7144
  344SOL     OW 1030   1.927   1.411   0.444 -0.3647 -0.6651 -0.7595
  344SOL    HW1 1031   1.924   1.333   0.371  1.0645 -1.4033  2.0700
  344SOL    HW2 1032   1.836   1.460   0.453  1.3604 -1.5245 -0.3157
  345SOL     OW 1033   1.393   2.264   2.900 -0.1422 -0.6575 -0.2981
  345SOL    HW1 1034   1.299   2.231   2.876 -1.1292  0.2848 -0.0543
  345SOL    HW2 1035   1.462   2.202   2.853  0.7617  0.2865 -1.5802
  346SOL     OW 1036   2.308   0.898   1.458  0.0182  0.0196 -0.7468
  346SOL    HW1 1037   2.276   0.991   1.423 -0.1891  0.1603 -0.9434
  346SOL    HW2 1038   2.323   0.837   1.377 -0.5121 -2.5024 -0.4487
  347SOL     OW 1039   0.729   2.810   1.488 -0.2313 -0.5928 -0.6440
  347SOL    HW1 1040   0.699   2.739   1.560  0.7699 -2.0564 -0.5399
  347SOL    HW2 1041   0.658   2.884   1.476  1.2459 -1.1371 -0.3017
  348SOL     OW 1042   0.120   0.667   2.837  0.8028  0.2995 -0.0353
  348SOL    HW1 1043   0.037   0.666   2.772 -3.1481 -4.1039 -2.3260
  348SOL    HW2 1044   0.199   0.717   2.793 -0.0976  1.9272 -0.5188
  349SOL     OW 1045   1.826   0.408   2.798 -0.4143 -0.2500  0.2773
  349SOL    HW1 1046   1.801   0.482   2.727  1.7225 -1.0546 -0.4884
  349SOL    HW2 1047   1.812   0.426   2.900  0.8046 -0.4739  1.2798
  350SOL     OW 1048   1.598   0.436   0.370 -0.8127  0.2473 -0.2055
  350SOL    HW1 1049   1.668   0.465   0.444 -2.0515 -0.8468  0.1701
  350SOL    HW2 1050   1.568   0.526   0.326  0.4753  1.3834 -1.9314
  351SOL     OW 1051   0.970   0.869   2.094 -0.2294 -0.1148  0.5883
  351SOL    HW1 1052   0.928   0.957   2.073  2.3333 -1.0802 -4.2206
  351SOL    HW2 1053   1.004   0.826   2.007  0.2329 -0.4007  0.8813
  352SOL     OW 1054   2.040   1.302   0.687  0.5265  0.0816  0.4261
  352SOL    HW1 1055   1.997   1.336   0.605  1.2502 -0.4268  2.4396
  352SOL    HW2 1056   2.119   1.368   0.711 -0.3467 -1.8019 -1.0378
  353SOL     OW 1057   2.140   2.932   1.101 -0.1284  0.0033 -0.4130
  353SOL    HW1 1058   2.206   2.904   1.178  1.2616  1.0280 -0.0941
  353SOL    HW2 1059   2.078   2.851   1.065 -1.8069 -1.0829  1.3788
  354SOL     OW 1060   0.250   1.401   2.883 -0.1446 -0.0345  0.3629
  354SOL    HW1 1061   0.261   1.472   2.815  1.9107  2.0064  1.6879
  354SOL    HW2 1062   0.337   1.340   2.884  1.9310  2.2602  1.6819
  355SOL     OW 1063   0.525   1.528   0.513 -0.1702  0.4612 -0.1571
  355SOL    HW1 1064   0.553   1.616   0.554 -0.3497 -1.7207  2.4104
  355SOL    HW2 1065   0.584   1.446   0.534 -3.1012 -1.4491 -0.9042
  356SOL     OW 1066   0.951   0.299   2.095  0.1417 -0.2660 -0.2466
  356SOL    HW1 1067   0.985   0.388   2.069  0.2166 -2.4630  2.1059
  356SOL    HW2 1068   0.930   0.239   2.012  2.2738 -2.4009  1.9121
  357SOL     OW 1069   1.031   1.308   0.381  0.0606 -0.0638  0.2604
  357SOL    HW1 1070   0.949   1.295   0.325 -1.0352  0.6835  1.2241
  357SOL    HW2 1071   1.032   1.270   0.475 -0.6842 -0.1113  1.6952
  358SOL     OW 1072   1.678   1.503   0.481  0.9395 -0.0042  0.2720
  358SOL    HW1 1073   1.616   1.484   0.562 -0.3789  1.6722 -0.4105
  358SOL    HW2 1074   1.626   1.470   0.397  0.8696  0.6679  0.0203
  359SOL     OW 1075   1.579   2.724   0.068  0.3848  0.4883 -0.3761
  359SOL    HW1 1076   1.543   2.637   0.030 -3.5773 -0.0478  0.8438
  359SOL    HW2 1077   1.522   2.805   0.038  1.3513 -0.4577  0.9887
  360SOL     OW 1078   0.863   0.624   0.532  0.2963 -0.0658  0.1644
  360SOL    HW1 1079   0.798   0.619   0.614 -0.6504 -1.0279 -0.3360
  360SOL    HW2 1080   0.889   0.528   0.507  0.7984 -1.0944 -0.3119
  361SOL     OW 1081   1.239   1.385   0.689 -0.1752 -0.0286  0.4860
  361SOL    HW1 1082   1.257   1.392   0.789 -1.5516  1.8300 -0.1043
  361SOL    HW2 1083   1.175   1.465   0.656 -2.2916  0.4939 -0.3355
  362SOL     OW 1084   1.364   1.752   0.769 -0.6871  0.0364  0.3235
  362SOL    HW1 1085   1.395   1.706   0.859 -0.8313  0.7415 -0.0918
  362SOL    HW2 1086   1.439   1.809   0.728  1.2904  0.0474 -1.2689
  363SOL     OW 1087   1.214   1.270   2.057 -0.3508 -0.2474  0.0863
  363SOL    HW1 1088   1.280   1.326   2.112  0.4665 -2.0249 -2.7446
  363SOL    HW2 1089   1.205   1.307   1.959 -2.8086  2.4819  1.0403
  364SOL     OW 1090   0.552   2.339   1.932  0.2588 -0.2336  0.3598
  364SOL    HW1 1091   0.464   2.389   1.951 -0.9480 -1.4505  2.1375
  364SOL    HW2 1092   0.599   2.367   1.845 -3.1713 -1.5302  0.2535
  365SOL     OW 1093   1.047   1.916   1.400 -0.3722 -0.5527 -0.0572
  365SOL    HW1 1094   0.949   1.934   1.430 -0.5194  0.7700  0.0191
  365SOL    HW2 1095   1.054   1.844   1.330 -1.0333 -1.6616 -0.2631
  366SOL     OW 1096   2.811   2.054   0.497  0.2409  0.2223 -0.1462
  366SOL    HW1 1097   2.721   2.005   0.481 -1.8215 -0.4459 -0.2111
  366SOL    HW2 1098   2.886   2.025   0.429 -0.8528 -0.4311  1.9060
  367SOL     OW 1099   0.816   1.162   0.166  0.1031  0.1779  0.5769
  367SOL    HW1 1100   0.850   1.072   0.209  1.1333  0.6042  0.3244
  367SOL    HW2 1101   0.830   1.175   0.063  1.5343 -2.6087  0.9209
  368SOL     OW 1102   1.521   0.583   0.729  0.1335  0.1670  0.0314
  368SOL    HW1 1103   1.458   0.613   0.653  1.1000  1.4054 -2.0115
  368SOL    HW2 1104   1.613   0.622   0.713  0.0703  0.6547  0.0433
  369SOL     OW 1105   0.243   1.717   0.041 -0.4741 -0.9337 -0.0772
  369SOL    HW1 1106   0.288   1.809   0.076  2.2087 -0.5106  1.0404
  369SOL    HW2 1107   0.197   1.669   0.119  0.0538 -0.4272  0.6285
  370SOL     OW 1108   0.428   2.112   1.047  0.7392 -0.0618 -0.1998
  370SOL    HW1 1109   0.454   2.213   1.035 -1.3469 -0.8689  0.5365
  370SOL    HW2 1110   0.330   2.093   1.019 -0.0407  1.0655 -0.2300
  371SOL     OW 1111   2.887   2.235   2.728  0.2126  0.3156 -0.2099
  371SOL    HW1 1112   2.881   2.205   2.831  1.1592 -3.2922  1.7430
  371SOL    HW2 1113   2.973   2.288   2.707 -2.9818 -0.8276 -1.4786
  372SOL     OW 1114   1.062   1.926   0.979  0.6645  0.6640  0.3047
  372SOL    HW1 1115   0.980   1.945   0.923  0.3714  0.6539  2.3745
  372SOL    HW2 1116   1.139   1.982   0.936 -2.2838  1.6459  2.5109
  373SOL     OW 1117   1.971   1.991   0.895 -0.1254 -0.2863  0.2359
  373SOL    HW1 1118   2.031   1.972   0.981 -0.2900 -0.1175  0.3792
  373SOL    HW2 1119   1.876   2.033   0.917 -0.1023  0.4022 -0.9260
  374SOL     OW 1120   1.794   0.468   0.551 -0.3165  0.4938 -0.4674
  374SOL    HW1 1121   1.780   0.392   0.625  1.2084 -4.3549  2.2661
  374SOL    HW2 1122   1.893   0.471   0.513 -3.0608 -3.5489  1.4942
  375SOL     OW 1123   2.368   2.153   1.147  0.0582 -0.5169 -0.0785
  375SOL    HW1 1124   2.455   2.171   1.087 -0.2402  2.3369  2.9365
  375SOL    HW2 1125   2.391   2.128   1.248 -0.1071  0.4829  0.0027
  376SOL     OW 1126   3.002   0.613   1.415 -0.5421 -0.0039  0.1091
  376SOL    HW1 1127   3.049   0.641   1.503  0.5924  3.4512 -1.8223
  376SOL    HW2 1128   2.906   0.648   1.406  1.2467  0.3897  1.0072
  377SOL     OW 1129   2.260   2.832   0.354 -0.3288  0.1183  0.0540
  377SOL    HW1 1130   2.242   2.936   0.348  0.5986  2.8688  1.4408
  377SOL    HW2 1131   2.360   2.801   0.365 -0.1161 -0.5682 -1.8713
  378SOL     OW 1132   1.768   1.881   2.656 -0.6305 -0.7887  0.4784
  378SOL    HW1 1133   1.682   1.841   2.696 -4.1505 -0.0740  0.9160
  378SOL    HW2 1134   1.820   1.812   2.597  2.8812 -2.1549  1.0163
  379SOL     OW 1135   0.876   0.128   2.757 -0.2899  0.7386 -0.2056
  379SOL    HW1 1136   0.839   0.056   2.697  0.3446  2.5828 -0.6889
  379SOL    HW2 1137   0.819   0.216   2.744  0.8936  0.8575  0.2249
  380SOL     OW 1138   1.516   1.163   0.546 -0.6206  0.4664 -0.4746
  380SOL    HW1 1139   1.418   1.135   0.546  0.3025 -0.4094 -1.7026
  380SOL    HW2 1140   1.576   1.081   0.565  3.9639 -0.4113  0.2186
  381SOL     OW 1141   1.295   1.192   1.554  0.2470  0.1162  0.3798
  381SOL    HW1 1142   1.339   1.223   1.464  0.5875  0.8158 -1.3030
  381SOL    HW2 1143   1.362   1.146   1.621 -1.1886 -2.7441 -1.4677
  382SOL     OW 1144   1.767   0.799   0.270 -0.0911 -0.0749  0.1387
  382SOL    HW1 1145   1.798   0.793   0.171 -1.5797  0.4932 -1.0710
  382SOL    HW2 1146   1.840   0.821   0.341  1.1161  2.5136 -1.4989
  383SOL     OW 1147   2.570   0.964   1.509  0.0279 -0.2973  0.2271
  383SOL    HW1 1148   2.474   0.927   1.499 -0.6674  2.1487 -0.2314
  383SOL    HW2 1149   2.639   0.901   1.469  1.3737 -2.0763  0.5329
  384SOL     OW 1150   0.893   2.291   0.053  0.5755 -0.3881 -0.0530
  384SOL    HW1 1151   0.859   2.374   0.106 -0.4397  0.9535  2.1178
  384SOL    HW2 1152   0.920   2.206   0.108 -2.6465  0.0927 -1.3011
  385SOL     OW 1153   3.013   1.997   1.793  0.1366 -0.6166  0.2508
  385SOL    HW1 1154   3.078   2.071   1.764 -1.3770  1.6556  0.0406
  385SOL    HW2 1155   3.058   1.905   1.769 -1.4302 -0.1879  1.4738
  386SOL     OW 1156   0.434   1.146   0.489  0.3794  0.6551  0.3053
  386SOL    HW1 1157   0.464   1.051   0.465 -2.1762  2.0430  0.9896
  386SOL    HW2 1158   0.364   1.192   0.421 -3.2596  1.0325  0.5359
  387SOL     OW 1159   1.004   0.304   1.647 -0.1668 -0.0807  0.6138
  387SOL    HW1 1160   1.057   0.398   1.635  1.4059  2.2912 -1.5632
  387SOL    HW2 1161   0.983   0.258   1.560 -0.8622  2.3433 -1.1160
  388SOL     OW 1162   1.208   2.629   1.787  0.1473  0.3222 -0.0956
  388SOL    HW1 1163   1.226   2.638   1.682 -0.3609  3.9200  1.1731
  388SOL    HW2 1164   1.270   2.575   1.849 -1.1922  1.9263  0.6558
  389SOL     OW 1165   0.236   3.086   1.132  0.4993 -0.6097 -0.5398
  389SOL    HW1 1166   0.192   3.058   1.223 -0.0526 -1.4081  0.5404
  389SOL    HW2 1167   0.291   3.014   1.087 -0.9951  1.2230 -0.3176
  390SOL     OW 1168   1.055   0.909   1.234 -0.1487  0.8147 -0.0249
  390SOL    HW1 1169   1.155   0.882   1.261 -2.0270 -1.1677  2.4101
  390SOL    HW2 1170   0.994   0.932   1.313  2.4342  1.6076 -0.6523
  391SOL     OW 1171   2.080   1.118   1.044  0.1016  0.1372 -0.4410
  391SOL    HW1 1172   1.980   1.081   1.066 -2.2752 -1.6459 -0.1497
  391SOL    HW2 1173   2.131   1.059   0.974 -2.5342 -1.0773  1.4130
  392SOL     OW 1174   0.895   2.696   3.049 -0.0834 -0.2700  0.1944
  392SOL    HW1 1175   0.801   2.686   3.099 -0.2044  1.1573 -0.5630
  392SOL    HW2 1176   0.975   2.730   3.112  1.3214 -3.4836 -0.3935
  393SOL     OW 1177   0.379   0.532   2.105  0.0933 -0.6024 -0.0509
  393SOL    HW1 1178   0.280   0.510   2.086  0.8788 -2.7025 -3.0585
  393SOL    HW2 1179   0.439   0.521   2.021  0.6811 -2.5589  2.2288
  394SOL     OW 1180   2.912   1.847   2.786  0.6670  0.2029 -0.4711
  394SOL    HW1 1181   2.988   1.817   2.851  1.1086 -4.0909  0.1370
  394SOL    HW2 1182   2.958   1.881   2.697 -1.0902  0.5520 -0.5698
  395SOL     OW 1183   1.585   1.932   0.727  0.0159 -0.2095 -0.3705
  395SOL    HW1 1184   1.661   1.892   0.666  2.4537  1.0276 -1.9723
  395SOL    HW2 1185   1.615   1.976   0.814 -0.0136  0.2387  1.6734
  396SOL     OW 1186   2.770   2.066   1.318 -0.5052  0.1690 -0.0990
  396SOL    HW1 1187   2.792   2.076   1.420  0.1879 -1.3869  1.1066
  396SOL    HW2 1188   2.668   2.058   1.305  0.6822 -2.0543  1.9828
  397SOL     OW 1189   1.027   2.099   0.628  0.0462  0.7124 -0.2017
  397SOL    HW1 1190   0.946   2.038   0.604 -0.9495 -3.2263 -0.2728
  397SOL    HW2 1191   1.003   2.193   0.665  1.6641 -1.9944 -1.2686
  398SOL     OW 1192   2.174   0.095   1.086  1.2702 -0.0286  0.2761
  398SOL    HW1 1193   2.156  -0.006   1.073  2.5883  2.5380 -2.0558
  398SOL    HW2 1194   2.090   0.155   1.075 -1.8656  0.9765  0.4080
  399SOL     OW 1195   2.948   2.528   2.717 -0.6337  0.1212  0.4997
  399SOL    HW1 1196   2.897   2.505   2.630  0.5861  0.5657  0.0575
  399SOL    HW2 1197   2.907   2.482   2.807 -1.9605  0.7208  0.3646
  400SOL     OW 1198   0.825   1.594   1.293 -0.4623 -0.1254 -0.0261
  400SOL    HW1 1199   0.742   1.607   1.357 -2.0539  1.2995 -0.6234
  400SOL    HW2 1200   0.845   1.673   1.228 -0.7126 -1.4561  0.9247
  401SOL     OW 1201   1.811   0.136   1.264  0.1441 -0.1755 -0.3527
  401SOL    HW1 1202   1.871   0.183   1.331 -2.3586 -0.6424  0.4107
  401SOL    HW2 1203   1.710   0.123   1.296  0.4955  1.5024  1.4020
  402SOL     OW 1204   1.318   0.138   3.047  0.2442  0.4874 -0.2660
  402SOL    HW1 1205   1.420   0.143   3.025 -1.8602 -1.1406  3.6593
  402SOL    HW2 1206   1.275   0.235   3.068 -1.4684  1.7542  0.0596
  403SOL     OW 1207   2.334   1.807   0.948 -0.1658  0.2690 -0.5766
  403SOL    HW1 1208   2.434   1.821   0.983  0.9046  2.4976 -0.1725
  403SOL    HW2 1209   2.264   1.858   1.002  0.2952 -1.9148  1.2719
  404SOL     OW 1210   0.171   2.502   2.848 -0.4662  0.0291  0.5297
  404SOL    HW1 1211   0.266   2.477   2.812 -0.5997 -0.2336 -0.0572
  404SOL    HW2 1212   0.167   2.603   2.862 -1.5603  0.7565  4.3460
  405SOL     OW 1213   0.236   2.560   0.531  0.0068  0.0222 -0.0528
  405SOL    HW1 1214   0.164   2.578   0.463 -0.0817 -1.9426 -0.3560
  405SOL    HW2 1215   0.296   2.636   0.553  0.2631 -0.6034  0.6351
  406SOL     OW 1216   0.002   1.525   2.968 -0.1497  0.0756 -0.1686
  406SOL    HW1 1217   0.067   1.453   2.928 -1.6517  1.1151  1.5561
  406SOL    HW2 1218   0.007   1.534   3.072 -2.0725  0.9892  0.2470
  407SOL     OW 1219   1.511   0.900   0.920 -0.0777 -0.1004  0.3320
  407SOL    HW1 1220   1.480   0.885   0.822  3.0078 -1.1583 -1.4810
  407SOL    HW2 1221   1.473   0.980   0.966 -1.0634 -1.1514 -0.0350
  408SOL     OW 1222   1.534   2.409   0.965  0.6967  0.4964  0.3702
  408SOL    HW1 1223   1.605   2.405   0.887  1.4396 -1.6452 -0.4235
  408SOL    HW2 1224   1.572   2.470   1.041  0.7233 -3.4518 -2.1313
  409SOL     OW 1225   0.679   0.853   0.680  0.0547 -0.1796  0.7260
  409SOL    HW1 1226   0.595   0.878   0.618 -0.2683  0.5928 -1.5221
  409SOL    HW2 1227   0.682   0.752   0.703  1.1322  1.5369  0.9508
  410SOL     OW 1228   1.282   2.026   1.483 -0.3824  0.2425  0.2722
  410SOL    HW1 1229   1.285   2.049   1.580 -1.0748 -3.0653 -3.9871
  410SOL    HW2 1230   1.181   2.002   1.460 -0.8704 -1.1985 -2.2809
  411SOL     OW 1231   2.383   1.825   0.011  0.0092 -0.2664 -0.4268
  411SOL    HW1 1232   2.312   1.888  -0.028  1.2141  0.4846  0.3686
  411SOL    HW2 1233   2.454   1.797  -0.058 -0.1414 -0.8459 -2.5195
  412SOL     OW 1234   1.498   2.408   2.206 -0.3936  0.4059 -0.0015
  412SOL    HW1 1235   1.562   2.439   2.281 -1.4396  0.7914  1.5157
  412SOL    HW2 1236   1.403   2.384   2.234  1.2795 -0.9317  2.3306
  413SOL     OW 1237   3.029   0.251   2.981  0.2709 -0.3243  0.0658
  413SOL    HW1 1238   3.014   0.158   3.028  4.1086  0.5249  0.3925
  413SOL    HW2 1239   3.128   0.273   2.971 -1.5512 -0.5139 -0.9156
  414SOL     OW 1240   1.765   1.385   1.351 -0.4000 -0.1691  0.8984
  414SOL    HW1 1241   1.696   1.449   1.391 -2.6980 -2.0408  1.1903
  414SOL    HW2 1242   1.744   1.363   1.250  0.9272  2.2666 -1.7563
  415SOL     OW 1243   0.361   2.269   0.642 -0.2077 -0.2071 -0.6020
  415SOL    HW1 1244   0.324   2.350   0.602 -1.6922 -0.8585  0.7438
  415SOL    HW2 1245   0.306   2.184   0.627 -0.0717  2.3463  0.3303
  416SOL     OW 1246   0.374   1.011   1.076 -0.1994  0.0265  0.1774
  416SOL    HW1 1247   0.335   0.962   0.993  2.2590  3.2120 -0.3786
  416SOL    HW2 1248   0.457   1.071   1.061  0.9301  0.8277  0.5523
  417SOL     OW 1249   2.122   2.359   1.916 -0.0948  0.6299  0.1429
  417SOL    HW1 1250   2.126   2.267   1.869 -0.8518 -1.7755 -3.3098
  417SOL    HW2 1251   2.045   2.371   1.986 -1.7933 -1.1840  2.2606
  418SOL     OW 1252   1.141   0.508   1.315  0.1206  0.4554 -0.0742
  418SOL    HW1 1253   1.046   0.504   1.277 -2.4020  0.4337 -0.1244
  418SOL    HW2 1254   1.209   0.448   1.255  1.5527 -0.3037 -1.8755
  419SOL     OW 1255   1.000   0.378   3.049  0.3242  0.0015  0.4617
  419SOL    HW1 1256   1.034   0.429   2.966 -0.5718 -0.2071 -0.5527
  419SOL    HW2 1257   0.963   0.288   3.020  1.7267 -0.1728 -1.6275
  420SOL     OW 1258   0.222   2.254   0.337  0.2072  0.1606 -0.2320
  420SOL    HW1 1259   0.177   2.209   0.256  1.2454  0.7740  2.1629
  420SOL    HW2 1260   0.159   2.279   0.418 -0.6636 -2.1156 -0.0995
  421SOL     OW 1261   0.334   3.089   0.669  0.6695 -0.2476  0.0427
  421SOL    HW1 1262   0.306   2.994   0.701 -1.4769 -0.7415  1.9001
  421SOL    HW2 1263   0.436   3.107   0.658  0.9484  2.4433 -0.5087
  422SOL     OW 1264   0.923   2.497   1.031  0.0631 -0.0728  0.2483
  422SOL    HW1 1265   0.939   2.563   0.950  0.6539  0.6751 -3.0070
  422SOL    HW2 1266   0.982   2.534   1.109 -0.4422  2.8213 -0.8649
  423SOL     OW 1267   0.052   0.712   1.206 -0.0016 -0.1776 -0.0454
  423SOL    HW1 1268  -0.004   0.672   1.282  1.1328 -0.0926  1.5585
  423SOL    HW2 1269  -0.009   0.762   1.139  2.1531 -1.5864  1.7034
  424SOL     OW 1270   1.002   2.162   2.101 -0.6319 -0.0748  0.1397
  424SOL    HW1 1271   0.983   2.259   2.065 -1.0577  2.1275  0.8385
  424SOL    HW2 1272   0.959   2.146   2.195  0.6434  0.0361  2.6982
  425SOL     OW 1273   1.996   1.421   1.042  0.2021  0.1491 -0.6034
  425SOL    HW1 1274   2.014   1.325   1.005 -3.3546 -0.4082  0.3354
  425SOL    HW2 1275   2.049   1.495   0.994  1.3090  3.0503 -0.2369
  426SOL     OW 1276   1.534   1.549   1.403 -0.0039 -0.2455  0.8593
  426SOL    HW1 1277   1.474   1.627   1.372  0.5660  1.0783 -0.7893
  426SOL    HW2 1278   1.502   1.517   1.498 -1.5111  1.1873  3.8688
  427SOL     OW 1279   1.908   2.381   2.081  0.1922  0.8663  0.4703
  427SOL    HW1 1280   1.953   2.311   2.140 -1.1438  1.9234  2.5958
  427SOL    HW2 1281   1.880   2.471   2.124 -2.1732 -1.3744 -1.7154
  428SOL     OW 1282   0.887   3.020   0.130 -0.5327 -0.2811  0.2211
  428SOL    HW1 1283   0.932   3.106   0.175  0.4907  1.6357  1.1122
  428SOL    HW2 1284   0.956   2.953   0.101  1.0828  0.2480 -5.1171
  429SOL     OW 1285   1.319   0.076   0.221 -0.1196  0.1592  0.1964
  429SOL    HW1 1286   1.404   0.117   0.258  0.2770  0.1110 -0.0730
  429SOL    HW2 1287   1.310   0.073   0.115 -0.9292  2.9128  2.9323
  430SOL     OW 1288   2.804   1.500   0.349  0.0673 -0.1821  0.2668
  430SOL    HW1 1289   2.793   1.576   0.283  0.9964  0.5973 -1.4320
  430SOL    HW2 1290   2.814   1.539   0.445  0.0050  0.7057 -1.7151
  431SOL     OW 1291   2.133   1.613   0.905 -0.5645  0.7110  0.1218
  431SOL    HW1 1292   2.211   1.675   0.942 -0.4312  0.7561  2.9617
  431SOL    HW2 1293   2.059   1.661   0.847  0.3658  1.7264 -0.5945
  432SOL     OW 1294   2.914   2.269   1.216  0.2929 -0.3880 -0.2046
  432SOL    HW1 1295   2.878   2.177   1.259 -4.2607  0.8291  1.1014
  432SOL    HW2 1296   2.960   2.327   1.297 -0.4482 -2.3193  0.1527
  433SOL     OW 1297   1.830   0.359   0.812  0.1959 -0.1716  0.9506
  433SOL    HW1 1298   1.730   0.352   0.833 -1.6490 -2.9718 -4.3967
  433SOL    HW2 1299   1.891   0.304   0.878  0.5309 -0.8225  1.1722
  434SOL     OW 1300   1.515   0.296   0.712  0.2127  0.3238  0.3738
  434SOL    HW1 1301   1.485   0.387   0.690  0.6318 -1.2351  1.7899
  434SOL    HW2 1302   1.541   0.290   0.816  0.4527 -0.2149  2.6816
  435SOL     OW 1303   1.429   1.461   2.094 -0.1354 -0.6633  0.2906
  435SOL    HW1 1304   1.386   1.474   2.188 -1.7609 -1.9570  0.5530
  435SOL    HW2 1305   1.386   1.522   2.029  1.0642  0.2386  0.9623
  436SOL     OW 1306   1.657   2.652   2.433 -0.1354 -0.2631 -0.0557
  436SOL    HW1 1307   1.657   2.747   2.467 -0.0658 -0.5490 -3.2008
  436SOL    HW2 1308   1.577   2.602   2.477 -0.9964  1.2700  0.4811
  437SOL     OW 1309   1.089   2.916   0.927  0.2960 -0.4426  0.2439
  437SOL    HW1 1310   1.020   2.993   0.901 -1.3529 -1.4146  0.5485
  437SOL    HW2 1311   1.093   2.918   1.032 -2.9753 -2.9063  2.4764
  438SOL     OW 1312   1.094   2.537   1.282  0.3644  0.3053 -0.0735
  438SOL    HW1 1313   1.088   2.603   1.360 -0.4145 -1.0394 -3.6417
  438SOL    HW2 1314   1.078   2.438   1.299  0.7727  1.7074  1.4157
  439SOL     OW 1315   0.742   1.765   1.027  0.3866  0.9065 -0.3585
  439SOL    HW1 1316   0.701   1.851   0.982 -1.3051 -1.0104  0.7990
  439SOL    HW2 1317   0.662   1.713   1.070  0.2092  1.9388 -2.6861
  440SOL     OW 1318   1.027   2.442   2.035  0.1483  0.5064  0.2855
  440SOL    HW1 1319   0.977   2.491   1.957 -1.6069 -0.4738 -0.3142
  440SOL    HW2 1320   1.126   2.443   2.018 -1.8566  1.8732 -0.3631
  441SOL     OW 1321   0.354   2.703   1.428  0.8502  0.6818  0.1232
  441SOL    HW1 1322   0.433   2.631   1.430 -0.6183  1.6428  1.0867
  441SOL    HW2 1323   0.351   2.759   1.344 -2.7848  0.5136  4.2281
  442SOL     OW 1324   2.230   0.636   2.601  0.0814  0.1140 -0.1415
  442SOL    HW1 1325   2.213   0.542   2.560  0.0641  2.4007 -3.4835
  442SOL    HW2 1326   2.157   0.701   2.570 -0.9253  1.6017  0.7626
  443SOL     OW 1327   1.267   2.672   2.214  0.0049 -0.0116 -0.4389
  443SOL    HW1 1328   1.257   2.576   2.239 -4.3324  1.6421 -2.2805
  443SOL    HW2 1329   1.220   2.734   2.283  1.8199  0.6501 -0.0510
  444SOL     OW 1330   1.031   1.224   1.492 -0.0919 -0.4208 -0.4662
  444SOL    HW1 1331   1.131   1.199   1.517  1.1323 -1.0837 -3.7001
  444SOL    HW2 1332   0.993   1.297   1.564  1.4608  1.6246  3.4005
  445SOL     OW 1333   0.087   2.305   1.969 -1.1134  0.3450 -0.1989
  445SOL    HW1 1334   0.085   2.260   1.874 -2.6076 -0.4877 -1.6794
  445SOL    HW2 1335  -0.006   2.338   2.004  0.6866  2.6029 -3.2869
  446SOL     OW 1336   0.159   1.946   2.379  0.4536 -0.0190 -0.1582
  446SOL    HW1 1337   0.106   2.037   2.388  1.2750  0.2060 -0.4093
  446SOL    HW2 1338   0.130   1.877   2.299  0.1352 -3.0372 -1.1242
  447SOL     OW 1339   1.257   1.685   1.962 -0.3557  0.2805 -0.4825
  447SOL    HW1 1340   1.166   1.735   1.956 -2.0651 -1.6621 -0.7041
  447SOL    HW2 1341   1.337   1.750   1.981  0.8675 -0.9113  1.9985
  448SOL     OW 1342   0.175   1.430   2.029 -0.2834 -0.6917  0.1069
  448SOL    HW1 1343   0.149   1.509   1.964 -1.2744 -0.0465 -3.9570
  448SOL    HW2 1344   0.117   1.437   2.120  0.9294  0.7529 -0.7498
  449SOL     OW 1345   1.850   2.923   0.828 -0.0771  0.1981  0.8918
  449SOL    HW1 1346   1.841   2.947   0.927 -1.0250 -0.1162 -0.3489
  449SOL    HW2 1347   1.904   2.831   0.807 -0.5477 -1.3733  0.5625
  450SOL     OW 1348   2.246   1.469   0.684  0.1015 -0.2248 -0.5816
  450SOL    HW1 1349   2.233   1.540   0.762  0.0393  1.6838  1.4552
  450SOL    HW2 1350   2.259   1.521   0.593  2.8786 -0.0970  1.1460
  451SOL     OW 1351   1.385   3.046   1.505  0.2630  0.6843 -0.2410
  451SOL    HW1 1352   1.302   3.107   1.506  1.0557 -1.5196 -1.0431
  451SOL    HW2 1353   1.405   2.983   1.592  0.5928 -5.0155  4.0870
  452SOL     OW 1354   2.653   2.298   2.294 -0.0756 -0.2834 -0.4729
  452SOL    HW1 1355   2.597   2.388   2.291 -0.4876  1.3890 -0.1203
  452SOL    HW2 1356   2.665   2.255   2.386  0.7255  0.4367 -1.1394
  453SOL     OW 1357   2.469   2.662   0.003  0.1480  0.2858  0.6817
  453SOL    HW1 1358   2.380   2.717   0.014  3.0425 -0.8546 -1.9839
  453SOL    HW2 1359   2.447   2.581  -0.055 -1.9218 -1.3817  2.6299
  454SOL     OW 1360   0.921   1.133   2.018  0.4453 -0.2665 -0.1117
  454SOL    HW1 1361   0.936   1.101   1.916  1.2138 -2.3038 -1.0663
  454SOL    HW2 1362   0.955   1.231   2.039  0.4333  1.3648 -0.1424
  455SOL     OW 1363   0.667   2.678   2.836  0.2323  0.0618  0.0586
  455SOL    HW1 1364   0.763   2.716   2.832 -3.7134  0.4376 -1.2046
  455SOL    HW2 1365   0.650   2.587   2.889 -1.0182  0.8011 -1.1066
  456SOL     OW 1366   0.374   1.904   0.224  0.1039 -0.2899 -0.0281
  456SOL    HW1 1367   0.476   1.887   0.224 -0.3954 -1.3924  2.8399
  456SOL    HW2 1368   0.347   2.001   0.215  5.1249  0.5414  2.3457
  457SOL     OW 1369   0.397   2.788   0.648 -0.4941  0.2615 -0.5464
  457SOL    HW1 1370   0.414   2.843   0.562 -0.6126 -2.2362  2.6239
  457SOL    HW2 1371   0.488   2.742   0.672 -0.6018 -0.1803 -0.4524
  458SOL     OW 1372   2.818   0.033   1.216 -0.3373  0.1104  0.0587
  458SOL    HW1 1373   2.880   0.106   1.171  0.0275  0.7227 -2.2873
  458SOL    HW2 1374   2.827  -0.055   1.162  0.3793 -0.4289  0.0170
  459SOL     OW 1375   2.199   2.538   0.802 -0.2346  0.2984  0.4256
  459SOL    HW1 1376   2.268   2.611   0.838  0.3605  2.5520  1.4156
  459SOL    HW2 1377   2.242   2.444   0.786  1.0250 -1.2369 -1.1560
  460SOL     OW 1378   1.213   2.057   2.785  0.3567 -0.2016 -0.2488
  460SOL    HW1 1379   1.248   2.048   2.687  1.4920 -0.6046 -1.2201
  460SOL    HW2 1380   1.225   1.970   2.843  1.1988  0.1641  2.0313
  461SOL     OW 1381   0.441   2.095   2.731  0.9766  0.1933 -0.2064
  461SOL    HW1 1382   0.382   2.018   2.685 -2.4683 -0.5473 -2.5622
  461SOL    HW2 1383   0.466   2.078   2.832 -1.3686  1.8481  2.2222
  462SOL     OW 1384   0.958   1.045   1.776  0.5552  0.4254 -0.1141
  462SOL    HW1 1385   0.978   0.969   1.707 -2.0206  0.2241  0.2680
  462SOL    HW2 1386   0.886   1.116   1.746  1.9742  0.3898  0.7912
  463SOL     OW 1387   0.457   0.878   0.493 -0.0548 -0.1810 -0.1812
  463SOL    HW1 1388   0.485   0.777   0.465  0.1795 -0.0011 -0.9287
  463SOL    HW2 1389   0.361   0.904   0.465  1.2618 -1.4880  2.1375
  464SOL     OW 1390   0.607   2.333   2.194  0.4288 -0.1478  0.0437
  464SOL    HW1 1391   0.553   2.416   2.233  0.1988  3.6790 -1.8167
  464SOL    HW2 1392   0.588   2.317   2.092  2.4554  0.8296 -3.4652
  465SOL     OW 1393   0.258   0.904   0.839  0.2084  0.3101 -0.0924
  465SOL    HW1 1394   0.177   0.936   0.772 -0.7476 -1.3437 -2.3568
  465SOL    HW2 1395   0.278   0.799   0.827 -0.5165 -1.9014  1.0642
  466SOL     OW 1396   1.376   1.147   1.026  0.3418  0.3884  0.8044
  466SOL    HW1 1397   1.408   1.237   0.983 -0.9820  0.0564 -0.3555
  466SOL    HW2 1398   1.270   1.141   1.031 -1.0299 -0.6546 -2.2490
  467SOL     OW 1399   0.601   0.417   2.468  0.5978  0.3451 -0.4456
  467SOL    HW1 1400   0.544   0.501   2.503  1.1062  0.0263  0.4987
  467SOL    HW2 1401   0.639   0.364   2.549 -0.2527  0.6425  0.6536
  468SOL     OW 1402   0.394   2.265   1.612 -0.7043  0.0740  0.1739
  468SOL    HW1 1403   0.489   2.296   1.640 -0.3406 -0.4942  0.4812
  468SOL    HW2 1404   0.390   2.258   1.506  3.2191 -0.3911 -1.3066
  469SOL     OW 1405   1.443   1.305   1.320  0.4580 -0.4618  0.5599
  469SOL    HW1 1406   1.507   1.258   1.260  2.2423  2.7158  2.2348
  469SOL    HW2 1407   1.485   1.400   1.350 -0.0080  5.0304  0.0905
  470SOL     OW 1408   3.013   1.808   0.715  0.1610  0.6323 -0.1365
  470SOL    HW1 1409   3.095   1.861   0.684 -2.4612 -1.1165 -0.0550
  470SOL    HW2 1410   3.034   1.757   0.806  0.0710  1.9786  0.6928
  471SOL     OW 1411   2.580   1.369   2.159  0.2957  0.0642  0.0192
  471SOL    HW1 1412   2.575   1.271   2.197  1.1479 -1.9401  0.8345
  471SOL    HW2 1413   2.672   1.411   2.186  1.2175 -0.3018 -2.4899
  472SOL     OW 1414   1.159   2.388   0.093  0.7972 -0.3971  0.5011
  472SOL    HW1 1415   1.220   2.381   0.176 -0.2438 -0.2510  1.0875
  472SOL    HW2 1416   1.068   2.339   0.104 -2.2795  1.2347  0.6222
  473SOL     OW 1417   1.101   1.486   1.030 -0.2536  0.1214  0.0128
  473SOL    HW1 1418   1.006   1.497   0.990 -0.9022  1.2859 -0.3629
  473SOL    HW2 1419   1.102   1.419   1.114 -3.1480 -1.3625  0.1389
  474SOL     OW 1420   0.664   1.264   0.559 -0.6418  0.1415  0.3208
  474SOL    HW1 1421   0.573   1.218   0.538  1.0638 -1.7454  2.7741
  474SOL    HW2 1422   0.741   1.194   0.585 -1.1837 -0.9286  2.2946
  475SOL     OW 1423   2.826   0.016   0.799  0.5939  0.5260  0.1799
  475SOL    HW1 1424   2.905   0.080   0.819  1.7699  0.2324  0.2306
  475SOL    HW2 1425   2.738   0.053   0.839 -1.7623 -2.1570 -0.9524
  476SOL     OW 1426   0.994   2.984   1.771  0.0039 -0.3079  0.3202
  476SOL    HW1 1427   1.086   3.026   1.807  2.3163 -3.4337  0.5063
  476SOL    HW2 1428   0.994   2.971   1.666 -1.3365 -1.4662 -0.3423
  477SOL     OW 1429   1.468   0.316   2.410 -0.3107 -0.2495  0.2323
  477SOL    HW1 1430   1.455   0.347   2.508  0.9228  2.4308 -0.4904
  477SOL    HW2 1431   1.561   0.265   2.399 -0.1099 -0.6503  0.5069
  478SOL     OW 1432   2.218   1.860   0.255  0.1127 -0.2084 -0.0445
  478SOL    HW1 1433   2.144   1.795   0.300  1.9998 -0.1862  0.8897
  478SOL    HW2 1434   2.284   1.820   0.191  0.2402 -0.7412 -0.1544
  479SOL     OW 1435   1.259   0.960   2.931  0.0132 -0.0593 -0.7832
  479SOL    HW1 1436   1.328   0.967   2.856  0.9107 -2.3462  0.6366
  479SOL    HW2 1437   1.188   0.889   2.909  0.8581  0.0019 -0.2342
  480SOL     OW 1438   2.627   2.341   0.376 -1.2491 -0.0606 -0.3422
  480SOL    HW1 1439   2.609   2.271   0.445 -0.1864  0.3983 -0.1317
  480SOL    HW2 1440   2.544   2.370   0.323 -1.0702 -0.0572  1.8492
  481SOL     OW 1441   1.005   1.190   0.812 -0.4911 -0.7255 -0.0423
  481SOL    HW1 1442   0.983   1.285   0.774  0.3196  1.9744 -0.5861
  481SOL    HW2 1443   1.027   1.192   0.910  1.3894  0.4651  0.0456
  482SOL     OW 1444   1.560   0.322   1.987 -0.3853 -0.0162  0.0968
  482SOL    HW1 1445   1.570   0.426   1.976 -0.1283  1.3025  0.6909
  482SOL    HW2 1446   1.650   0.277   1.996 -0.5282  1.2068 -0.5616
  483SOL     OW 1447   0.162   2.326   1.242 -0.5143  0.1526  0.0516
  483SOL    HW1 1448   0.102   2.393   1.297 -0.0690 -0.8876  3.3451
  483SOL    HW2 1449   0.178   2.350   1.142 -0.0051 -2.4553  0.7414
  484SOL     OW 1450   1.777   1.088   1.361  0.0755  0.4395 -0.0268
  484SOL    HW1 1451   1.839   1.021   1.407  0.3424 -1.8481 -0.8530
  484SOL    HW2 1452   1.798   1.188   1.387 -0.1891  0.9547 -1.8024
  485SOL     OW 1453   0.777   0.755   1.776 -0.1477  0.0986 -0.2542
  485SOL    HW1 1454   0.762   0.790   1.677  1.6252  1.6650  1.6381
  485SOL    HW2 1455   0.867   0.793   1.817  0.0149  0.5386  1.3436
  486SOL     OW 1456   0.847   1.851   2.430  0.2156  0.1890  0.2613
  486SOL    HW1 1457   0.874   1.877   2.523  0.9168 -2.3601  0.0879
  486SOL    HW2 1458   0.763   1.906   2.395 -1.2208  0.4774 -0.9343
  487SOL     OW 1459   1.746   1.581   0.976  0.0439 -0.2971 -0.5232
  487SOL    HW1 1460   1.798   1.493   0.993  0.4624  1.1930 -0.0549
  487SOL    HW2 1461   1.799   1.642   0.909  1.8403  0.9503 -1.4890
  488SOL     OW 1462   2.977   0.868   2.313 -0.6942 -0.2037  0.2110
  488SOL    HW1 1463   2.998   0.774   2.268  1.1352  1.2713 -1.0218
  488SOL    HW2 1464   2.940   0.855   2.408  2.5389 -0.3988 -0.0430
  489SOL     OW 1465   2.788   0.378   1.258 -0.0642  0.1928  0.8551
  489SOL    HW1 1466   2.744   0.341   1.347 -0.3208 -2.5031  1.2934
  489SOL    HW2 1467   2.888   0.347   1.250  0.5735 -1.5726 -1.9697
  490SOL     OW 1468   1.420   2.948   2.806 -0.5896  0.2342 -0.7305
  490SOL    HW1 1469   1.475   2.863   2.825  0.6533  2.5465  1.1381
  490SOL    HW2 1470   1.400   2.956   2.707 -3.0981 -0.4494 -0.4772
  491SOL     OW 1471   1.732   1.493   2.674 -0.2976  0.3075 -0.2571
  491SOL    HW1 1472   1.659   1.495   2.746 -0.4061  1.4784 -0.0957
  491SOL    HW2 1473   1.814   1.547   2.701  2.5212  1.1797 -0.2424
  492SOL     OW 1474   0.569   2.070   0.617 -0.0662 -0.8182  0.4238
  492SOL    HW1 1475   0.589   2.048   0.715 -0.7752  1.5846 -2.2359
  492SOL    HW2 1476   0.508   2.154   0.607 -1.9261  2.3432  0.3350
  493SOL     OW 1477   0.498   1.384   2.073  0.3384  0.3699 -0.3931
  493SOL    HW1 1478   0.416   1.449   2.077  0.2281 -0.4048 -1.5326
  493SOL    HW2 1479   0.467   1.288   2.097 -2.4591  0.6706  0.1210
  494SOL     OW 1480   2.702   2.543   0.102  0.2228 -0.1277 -0.4007
  494SOL    HW1 1481   2.711   2.562   0.204 -0.2827  0.4426 -1.4436
  494SOL    HW2 1482   2.622   2.595   0.055 -0.0690  0.0533 -0.6254
  495SOL     OW 1483   2.539   2.783   2.609  0.4565 -0.6289 -0.1859
  495SOL    HW1 1484   2.536   2.688   2.643  3.6606 -1.3095 -0.3483
  495SOL    HW2 1485   2.633   2.804   2.577 -1.3322  1.4044  2.2555
  496SOL     OW 1486   2.021   2.294   0.822  0.5328 -0.5287  0.1101
  496SOL    HW1 1487   2.030   2.368   0.896 -2.4103  1.0313  0.7852
  496SOL    HW2 1488   2.039   2.199   0.853 -0.8654  2.0359 -1.7811
  497SOL     OW 1489   0.126   3.006   2.364  0.2710  0.6573  0.1014
  497SOL    HW1 1490   0.119   3.078   2.439 -2.3710  1.4306 -0.8823
  497SOL    HW2 1491   0.181   3.036   2.284 -1.8709 -0.8399  1.8641
  498SOL     OW 1492   1.182   1.341   1.253  0.3435 -0.7357  0.1206
  498SOL    HW1 1493   1.283   1.314   1.264  0.6250  0.5381  0.5647
  498SOL    HW2 1494   1.151   1.399   1.330  1.7187 -1.7313 -0.4352
  499SOL     OW 1495   0.632   1.787   0.275 -0.1188  0.6256 -0.1352
  499SOL    HW1 1496   0.658   1.722   0.194 -0.8087  0.9833 -3.8536
  499SOL    HW2 1497   0.720   1.806   0.334  0.8566 -2.1957 -3.8226
  500SOL     OW 1498   1.439   2.878   1.693 -0.8783  0.4305 -0.9885
  500SOL    HW1 1499   1.447   2.878   1.795 -1.7932 -0.0031 -3.2025
  500SOL    HW2 1500   1.460   2.786   1.655 -0.3227 -1.9061  2.3941
  501SOL     OW 1501   0.794   1.145   2.244 -0.3823  0.5318  0.3497
  501SOL    HW1 1502   0.712   1.075   2.250  0.1800 -0.8447 -0.8781
  501SOL    HW2 1503   0.834   1.151   2.147  2.5198  0.3815 -3.2247
  502SOL     OW 1504   2.606   0.955   1.785 -0.3328 -0.3301  0.1596
  502SOL    HW1 1505   2.600   0.967   1.683 -2.1314  0.8007 -1.2815
  502SOL    HW2 1506   2.626   0.859   1.815 -0.0622  0.3202 -0.2349
  503SOL     OW 1507   1.299   0.158   0.608  0.0100  0.3611 -0.3055
  503SOL    HW1 1508   1.223   0.223   0.636  0.4134 -1.8811 -1.5600
  503SOL    HW2 1509   1.395   0.197   0.620 -1.5012 -1.4655  0.2986
  504SOL     OW 1510   3.022   2.344   1.494 -0.0040  0.3462 -0.0401
  504SOL    HW1 1511   2.975   2.426   1.537  2.7344 -0.9207  1.6278
  504SOL    HW2 1512   3.038   2.264   1.556  1.1066 -1.5652 -0.8532
  505SOL     OW 1513   2.257   1.158   1.409  0.1895  0.0055  0.1004
  505SOL    HW1 1514   2.248   1.207   1.322 -2.5554 -0.1755  0.0050
  505SOL    HW2 1515   2.339   1.184   1.469  0.3473  0.4969  2.4389
  506SOL     OW 1516   1.950   0.194   1.810 -0.0987  0.0568 -0.2969
  506SOL    HW1 1517   2.031   0.136   1.790 -0.8295  2.0055  2.1896
  506SOL    HW2 1518   1.965   0.294   1.830  0.6780 -0.3181 -0.1525
  507SOL     OW 1519   0.549   0.719   2.191 -0.2747 -0.2454 -0.3495
  507SOL    HW1 1520   0.470   0.662   2.165 -0.2575  1.2279  0.8893
  507SOL    HW2 1521   0.635   0.660   2.196  1.6616 -2.5020 -0.9594
  508SOL     OW 1522   0.332   1.663   0.778 -0.1316  0.2544  0.5564
  508SOL    HW1 1523   0.381   1.718   0.702 -1.8533 -0.0195  1.2625
  508SOL    HW2 1524   0.286   1.721   0.849  0.2726 -2.6416 -0.8161
  509SOL     OW 1525   1.297   1.189   2.464 -0.4357  0.1059 -0.2268
  509SOL    HW1 1526   1.346   1.162   2.377  0.4422 -0.1251 -1.1612
  509SOL    HW2 1527   1.195   1.183   2.443  1.5978 -3.1195 -1.6257
  510SOL     OW 1528   1.280   2.069   2.212 -0.5289  0.1362  0.1900
  510SOL    HW1 1529   1.308   2.049   2.115 -0.3107  0.0570 -2.1808
  510SOL    HW2 1530   1.210   2.003   2.256 -2.2793  0.4664  0.1815
  511SOL     OW 1531   3.022   2.720   1.256  0.0630 -0.3237  0.1358
  511SOL    HW1 1532   3.032   2.702   1.158 -0.8315 -0.1493  3.9222
  511SOL    HW2 1533   2.927   2.723   1.291 -0.2735 -0.7801 -0.5939
  512SOL     OW 1534   2.384   0.433   1.367  0.1862  0.6545 -0.2870
  512SOL    HW1 1535   2.289   0.464   1.367  0.0375 -1.3300 -1.2011
  512SOL    HW2 1536   2.399   0.373   1.286 -0.8091  0.3776 -1.2159
  513SOL     OW 1537   2.569   2.171   0.934 -0.2847  0.1795 -0.1161
  513SOL    HW1 1538   2.507   2.192   0.853 -1.3867  2.3330 -2.3102
  513SOL    HW2 1539   2.665   2.157   0.901 -1.0635  2.2699 -0.0753
  514SOL     OW 1540   0.668   2.733   0.393  0.1074  1.1668  0.1883
  514SOL    HW1 1541   0.680   2.783   0.302  1.1401 -1.4848  0.0444
  514SOL    HW2 1542   0.687   2.794   0.475 -1.8172  4.0834  0.6097
  515SOL     OW 1543   1.919   1.377   2.393 -0.1619 -0.0588 -0.4100
  515SOL    HW1 1544   1.945   1.336   2.305 -1.0799  0.8492 -2.9133
  515SOL    HW2 1545   1.864   1.314   2.455  1.8644  1.2119  1.1047
  516SOL     OW 1546   0.289   0.301   1.895  0.3999  0.3402  0.0281
  516SOL    HW1 1547   0.384   0.260   1.900 -1.7415  0.8927  2.7484
  516SOL    HW2 1548   0.222   0.239   1.842 -1.3980 -1.4672 -1.0374
  517SOL     OW 1549   0.475   0.146   1.142 -0.5198 -0.9508 -0.2407
  517SOL    HW1 1550   0.549   0.107   1.205 -2.8791  0.0039 -0.8715
  517SOL    HW2 1551   0.388   0.101   1.157  3.0641  1.6599  0.1482
  518SOL     OW 1552   2.126   3.082   1.792 -0.5068 -0.2157  0.1378
  518SOL    HW1 1553   2.197   3.145   1.828 -1.4571  1.7853 -3.7615
  518SOL    HW2 1554   2.162   3.028   1.714 -1.1569  4.5361  2.2227
  519SOL     OW 1555   2.320   2.152   2.510 -0.7168  0.0670  0.2025
  519SOL    HW1 1556   2.290   2.145   2.607  3.0078 -0.9839 -2.3106
  519SOL    HW2 1557   2.351   2.244   2.486 -0.2779 -1.5795 -2.5514
  520SOL     OW 1558   1.825   2.736   1.726 -0.3964 -0.5075  0.0135
  520SOL    HW1 1559   1.763   2.667   1.768  0.6526  1.7769  0.4715
  520SOL    HW2 1560   1.918   2.698   1.705  2.4907 -3.8315  2.5359
  521SOL     OW 1561   0.556   0.005   2.109 -0.2157 -0.3204  0.0790
  521SOL    HW1 1562   0.454   0.016   2.133  0.2841 -0.5240 -2.2466
  521SOL    HW2 1563   0.617  -0.022   2.185  1.1915  0.1950 -0.2384
  522SOL     OW 1564   0.225   1.865   1.495 -0.4618 -0.5025  0.5885
  522SOL    HW1 1565   0.276   1.928   1.562  1.3448  0.8619  1.3989
  522SOL    HW2 1566   0.179   1.924   1.424  0.0137  1.2965  0.6445
  523SOL     OW 1567   2.184   2.920   1.516  0.2152 -0.0447 -0.1267
  523SOL    HW1 1568   2.246   2.839   1.534 -1.3884 -0.3033 -2.6311
  523SOL    HW2 1569   2.102   2.906   1.446 -3.2627  1.7099  0.4009
  524SOL     OW 1570   0.188   2.778   2.818  0.1789  0.1927  0.1903
  524SOL    HW1 1571   0.152   2.860   2.879  0.3177 -0.0936  3.2414
  524SOL    HW2 1572   0.287   2.784   2.798  0.6055  0.7948 -0.5799
  525SOL     OW 1573   2.167   2.050   0.453  0.5597  0.0179 -1.2180
  525SOL    HW1 1574   2.186   2.005   0.541 -2.8206 -0.9536 -0.2955
  525SOL    HW2 1575   2.202   1.996   0.370 -0.1190  0.2773 -0.8547
  526SOL     OW 1576   0.407   1.552   1.828  0.4474 -0.2035  0.3325
  526SOL    HW1 1577   0.456   1.582   1.908 -0.6030 -3.1918 -1.0274
  526SOL    HW2 1578   0.417   1.450   1.813  3.5061  4.3275  1.1147
  527SOL     OW 1579   1.062   2.922   1.214  0.3387 -0.2414 -0.4616
  527SOL    HW1 1580   1.104   2.830   1.242  0.6776 -2.1726  0.9291
  527SOL    HW2 1581   1.141   2.994   1.232  2.0610 -2.1281  0.0124
  528SOL     OW 1582   1.364   2.343   0.542 -0.2325 -0.7929 -0.6133
  528SOL    HW1 1583   1.407   2.253   0.554 -1.1660  2.2530  1.2917
  528SOL    HW2 1584   1.400   2.413   0.613  0.7860  2.6204  1.0806
  529SOL     OW 1585   1.905   1.730   0.811  0.7587  0.4122 -0.8290
  529SOL    HW1 1586   1.858   1.731   0.722 -0.4647  0.8745  3.0585
  529SOL    HW2 1587   1.928   1.823   0.849 -0.9222 -0.6241  1.2077
  530SOL     OW 1588   0.456   2.538   0.156 -0.1428  1.0165 -0.0447
  530SOL    HW1 1589   0.453   2.495   0.256 -1.4767  0.9736  0.8308
  530SOL    HW2 1590   0.443   2.473   0.076  0.1625  1.2019  0.4278
  531SOL     OW 1591   1.836   0.984   1.077 -0.4383 -0.5913  0.6366
  531SOL    HW1 1592   1.773   0.918   1.032  0.4422 -0.8368  1.1761
  531SOL    HW2 1593   1.802   1.009   1.171 -0.4745  0.1120 -2.4619
  532SOL     OW 1594   0.296   1.228   0.704 -0.0090 -0.9329 -0.5290
  532SOL    HW1 1595   0.346   1.221   0.614  0.2158  1.4660  1.9173
  532SOL    HW2 1596   0.270   1.134   0.735 -2.1515 -0.6672 -1.3270
  533SOL     OW 1597   1.793   0.024   2.544 -0.4415  0.0050  0.9969
  533SOL    HW1 1598   1.895   0.016   2.553  0.3594 -1.5939 -0.7660
  533SOL    HW2 1599   1.745   0.056   2.628  0.1486 -4.1315 -1.3344
  534SOL     OW 1600   0.214   0.198   1.525  0.7520  0.1794 -0.0814
  534SOL    HW1 1601   0.296   0.245   1.481  1.6807  1.0458  1.3971
  534SOL    HW2 1602   0.127   0.259   1.541 -0.5008  2.5875 -1.8976
  535SOL     OW 1603   1.844   0.315   0.221  0.0545  0.1177  0.1174
  535SOL    HW1 1604   1.892   0.341   0.314  1.1002  1.0656  1.6450
  535SOL    HW2 1605   1.751   0.273   0.232 -1.8695 -1.0318 -1.5960
  536SOL     OW 1606   1.285   2.631   0.931  1.0578  0.1062  0.4652
  536SOL    HW1 1607   1.330   2.556   0.990  2.7754 -1.6963 -3.8038
  536SOL    HW2 1608   1.193   2.606   0.895 -0.4445  0.9625 -0.6976
  537SOL     OW 1609   0.905   0.213   2.364 -0.4943 -0.0981 -0.6195
  537SOL    HW1 1610   0.931   0.233   2.267  2.5989 -2.3521  0.8233
  537SOL    HW2 1611   0.819   0.159   2.369 -2.2708  4.7640  1.1005
  538SOL     OW 1612   1.665   2.342   1.516 -0.3984 -0.6137 -0.4262
  538SOL    HW1 1613   1.663   2.237   1.491  1.6375 -0.7655  1.1893
  538SOL    HW2 1614   1.732   2.400   1.462  1.0825 -2.7425  1.0457
  539SOL     OW 1615   0.184   1.600   2.701 -0.2170 -0.5627  0.0609
  539SOL    HW1 1616   0.094   1.583   2.652 -2.7805  0.9364 -3.3532
  539SOL    HW2 1617   0.206   1.696   2.721  1.6829  0.7613 -1.3074
  540SOL     OW 1618   2.714   1.700   1.991  0.1439 -0.0978 -0.3707
  540SOL    HW1 1619   2.659   1.606   1.977 -0.7575 -1.0496  0.9891
  540SOL    HW2 1620   2.670   1.792   1.949 -0.4419 -0.0446 -1.6714
  541SOL     OW 1621   0.435   2.327   3.078  0.2524  0.1057  0.0297
  541SOL    HW1 1622   0.463   2.271   3.154 -2.3388  3.7234 -0.4064
  541SOL    HW2 1623   0.340   2.308   3.043 -1.8052 -0.4710  0.9762
  542SOL     OW 1624   2.236   2.575   0.480  0.2994 -0.2003 -0.2409
  542SOL    HW1 1625   2.214   2.656   0.418  0.7383 -0.2195  1.0100
  542SOL    HW2 1626   2.155   2.518   0.510 -1.0438 -2.5321  0.8699
  543SOL     OW 1627   0.987   1.795   1.716  0.0500 -0.1124  0.2428
  543SOL    HW1 1628   0.985   1.841   1.810  0.2150 -0.6636 -1.8169
  543SOL    HW2 1629   0.942   1.848   1.638 -1.4593  0.1626 -0.5398
  544SOL     OW 1630   0.913   0.417   0.226 -0.1451 -0.2704 -0.3413
  544SOL    HW1 1631   0.952   0.387   0.318 -0.8126 -0.3631  1.5535
  544SOL    HW2 1632   0.936   0.351   0.150  1.0874 -1.0647 -0.2235
  545SOL     OW 1633   1.138   1.719   0.602 -0.3919  0.1695  0.1342
  545SOL    HW1 1634   1.216   1.747   0.662  0.4103 -1.1074 -1.3987
  545SOL    HW2 1635   1.130   1.771   0.514  0.1576 -0.1973 -0.0508
  546SOL     OW 1636   2.653   1.541   0.012 -0.0874 -0.1919 -0.6199
  546SOL    HW1 1637   2.572   1.515  -0.054 -2.4280  1.6889 -0.3533
  546SOL    HW2 1638   2.632   1.507   0.105  2.2171  0.3297  0.4565
  547SOL     OW 1639   0.535   0.020   2.780 -0.1009 -0.1953 -0.3219
  547SOL    HW1 1640   0.606  -0.035   2.729  1.2354  0.3195  1.0515
  547SOL    HW2 1641   0.565   0.006   2.881  1.8660 -0.3042  3.1274
  548SOL     OW 1642   2.080   0.832   3.031 -0.8457  0.1217 -0.0826
  548SOL    HW1 1643   1.981   0.815   3.049  1.5506  1.5710  1.0304
  548SOL    HW2 1644   2.114   0.925   3.060  0.9843  0.8439  0.2487
  549SOL     OW 1645   0.619   0.457   0.176  0.5598  0.7920  0.0433
  549SOL    HW1 1646   0.579   0.536   0.121  2.0460  1.6449  0.6268
  549SOL    HW2 1647   0.715   0.463   0.207 -3.0922  1.7701  0.1762
  550SOL     OW 1648   2.566   2.865   2.860 -0.1027 -0.2639  0.0517
  550SOL    HW1 1649   2.544   2.786   2.926 -1.6084 -0.6698  0.4094
  550SOL    HW2 1650   2.551   2.833   2.756  1.2419  0.4071 -4.8006
  551SOL     OW 1651   0.259   0.906   0.175  0.0480  0.4895  1.0674
  551SOL    HW1 1652   0.327   0.837   0.206  0.9156  0.1829  0.9482
  551SOL    HW2 1653   0.218   0.959   0.253  0.0733 -0.1885  0.6866
  552SOL     OW 1654   0.777   2.826   1.866  0.3725  0.2653 -0.7784
  552SOL    HW1 1655   0.752   2.851   1.962 -0.6246  3.4580 -5.3203
  552SOL    HW2 1656   0.844   2.893   1.832 -1.0449  2.4803 -2.3692
  553SOL     OW 1657   3.064   2.536   0.357  0.2713 -0.2646 -0.1181
  553SOL    HW1 1658   3.030   2.443   0.338 -0.5341  1.1484  0.6606
  553SOL    HW2 1659   3.013   2.589   0.427 -1.0865 -3.3809 -0.8393
  554SOL     OW 1660   2.218   0.307   0.557  0.4680  0.3729  0.2048
  554SOL    HW1 1661   2.292   0.285   0.492  2.5725  1.2058  0.9041
  554SOL    HW2 1662   2.226   0.253   0.649  1.1498  0.3547  0.3975
  555SOL     OW 1663   0.414   2.912   2.428  0.2510 -0.3148  0.2337
  555SOL    HW1 1664   0.310   2.901   2.436  0.8620 -0.7078 -2.3879
  555SOL    HW2 1665   0.459   2.836   2.371 -1.1525 -1.9326  2.2049
  556SOL     OW 1666   0.912   2.358   1.692  0.4563  0.9371  0.2758
  556SOL    HW1 1667   0.927   2.443   1.751  0.6316  1.7551 -2.2346
  556SOL    HW2 1668   0.980   2.351   1.613 -0.5792 -1.6099  0.2902
  557SOL     OW 1669   0.131   2.102   0.115 -0.0286 -0.3458  0.0470
  557SOL    HW1 1670   0.059   2.031   0.093 -0.4164  1.7743  0.1041
  557SOL    HW2 1671   0.145   2.165   0.037 -3.9473 -0.2561 -0.0542
  558SOL     OW 1672   2.961   2.274   0.329 -0.4904 -0.1283  0.6892
  558SOL    HW1 1673   2.889   2.200   0.335  0.0663 -0.2881 -3.1461
  558SOL    HW2 1674   2.967   2.302   0.229  1.6742  0.4501 -0.3347
  559SOL     OW 1675   0.424   2.265   1.344 -0.6659  0.5415 -0.3754
  559SOL    HW1 1676   0.333   2.293   1.303  2.5987  0.5656 -0.8240
  559SOL    HW2 1677   0.450   2.166   1.324 -0.7953 -0.1336 -1.6445
  560SOL     OW 1678   2.093   1.123   3.087 -0.1360 -0.2185 -0.4910
  560SOL    HW1 1679   1.995   1.158   3.084  0.8247  0.2205  0.3027
  560SOL    HW2 1680   2.160   1.197   3.103  1.8365 -3.7757 -0.3275
  561SOL     OW 1681   3.018   1.952   0.004 -0.8167  0.0667 -0.3135
  561SOL    HW1 1682   2.992   1.883   0.073 -0.2355  2.0596  0.2561
  561SOL    HW2 1683   2.946   2.023  -0.015  0.4595 -3.8613  3.0827
  562SOL     OW 1684   0.897   2.146   2.349  0.0446 -0.4455 -0.4347
  562SOL    HW1 1685   0.795   2.125   2.365  1.9286  1.1230  2.9498
  562SOL    HW2 1686   0.941   2.166   2.442  2.9994  1.1596  2.6408
  563SOL     OW 1687   0.686   2.452   2.601  0.2638 -0.6580  0.0491
  563SOL    HW1 1688   0.770   2.402   2.616 -0.4766  2.4307 -0.2456
  563SOL    HW2 1689   0.662   2.509   2.685  0.1770 -2.6377 -0.5470
  564SOL     OW 1690   2.733   1.316   2.855  0.6527  0.8956  0.4107
  564SOL    HW1 1691   2.652   1.326   2.920 -0.1666 -2.7248  0.7694
  564SOL    HW2 1692   2.779   1.405   2.827 -0.0021 -0.8057  0.8373
  565SOL     OW 1693   2.529   1.969   2.568  0.1733  0.1179 -0.0624
  565SOL    HW1 1694   2.456   2.028   2.527  0.3085 -1.8142 -1.2039
  565SOL    HW2 1695   2.554   2.007   2.661 -2.4620 -1.7386  0.5200
  566SOL     OW 1696   1.978   2.874   1.337  0.6636  0.2594  0.2671
  566SOL    HW1 1697   1.913   2.791   1.327  2.3968 -1.0443  0.6917
  566SOL    HW2 1698   2.017   2.905   1.243  1.2707 -0.9203 -2.0075
  567SOL     OW 1699   2.424   0.115   2.196  0.5943  0.1761 -0.2430
  567SOL    HW1 1700   2.419   0.111   2.094 -1.2444 -0.9483  0.6695
  567SOL    HW2 1701   2.327   0.109   2.235 -2.2360 -1.0744  2.7204
  568SOL     OW 1702   1.523   1.813   0.327  0.7937 -0.4183 -0.6133
  568SOL    HW1 1703   1.470   1.858   0.249 -0.0541  0.0559 -3.2827
  568SOL    HW2 1704   1.591   1.871   0.371 -1.6690  1.5709  0.3766
  569SOL     OW 1705   0.297   0.626   0.795  0.5958  0.2435  0.1364
  569SOL    HW1 1706   0.347   0.562   0.734 -1.3263  0.3386  3.9263
  569SOL    HW2 1707   0.211   0.578   0.819  3.8759  0.3530 -0.9228
  570SOL     OW 1708   0.630   0.768   2.832 -0.0747 -0.5752 -0.3756
  570SOL    HW1 1709   0.673   0.805   2.745 -1.0294 -0.0858  0.5435
  570SOL    HW2 1710   0.635   0.836   2.906 -0.4617 -1.1342 -2.1792
  571SOL     OW 1711   0.853   3.066   1.124  0.2101  0.0183 -0.3444
  571SOL    HW1 1712   0.877   3.110   1.032  1.5856 -0.2410  0.0474
  571SOL    HW2 1713   0.929   2.999   1.153  1.9223 -0.0654 -0.5800
  572SOL     OW 1714   1.561   2.629   1.175  0.3832  0.2139 -0.2957
  572SOL    HW1 1715   1.488   2.584   1.239  1.0736  0.6602  0.0502
  572SOL    HW2 1716   1.526   2.720   1.135 -1.6097 -1.4920  0.0764
  573SOL     OW 1717   2.943   0.443   2.063 -0.5472  0.1052 -0.4695
  573SOL    HW1 1718   2.888   0.358   2.076  0.9614  0.4306 -0.5741
  573SOL    HW2 1719   2.881   0.524   2.024  0.3737  1.3729 -1.6818
  574SOL     OW 1720   0.211   1.787   1.004 -0.0212  0.1715 -0.2566
  574SOL    HW1 1721   0.179   1.878   0.970 -2.2378 -1.7783  1.8554
  574SOL    HW2 1722   0.144   1.750   1.075  0.0462  0.7987  0.7270
  575SOL     OW 1723   0.816   2.165   0.973 -0.7774  0.1001 -0.3461
  575SOL    HW1 1724   0.832   2.206   1.068 -0.0816  0.6827  0.4119
  575SOL    HW2 1725   0.873   2.214   0.900  0.5634  0.5910 -0.1825
  576SOL     OW 1726   2.933   2.912   1.716  0.1894  0.4194  0.0357
  576SOL    HW1 1727   2.892   2.839   1.659  0.0594 -0.0217 -1.1014
  576SOL    HW2 1728   2.948   2.997   1.664  1.2025  0.3811  0.2436
  577SOL     OW 1729   2.552   1.249   3.084 -0.0646  0.2561  0.1156
  577SOL    HW1 1730   2.571   1.167   3.030  0.3652  0.1266  0.3241
  577SOL    HW2 1731   2.620   1.264   3.159 -0.4775 -1.0552 -0.7351
  578SOL     OW 1732   1.333   2.708   2.578  0.3666  0.4561 -0.1545
  578SOL    HW1 1733   1.242   2.674   2.537 -3.0636  0.1663  1.3814
  578SOL    HW2 1734   1.346   2.812   2.548 -2.0746  0.5884 -0.4912
  579SOL     OW 1735   0.118   2.501   0.126 -0.0703  0.2801 -0.9585
  579SOL    HW1 1736   0.071   2.529   0.216 -0.5477  1.7736 -0.2424
  579SOL    HW2 1737   0.219   2.489   0.133 -0.2614  3.2984 -0.8369
  580SOL     OW 1738   1.019   2.644   0.390  0.0228 -0.5197  0.2040
  580SOL    HW1 1739   1.108   2.663   0.340 -0.2580  0.0027 -1.6521
  580SOL    HW2 1740   0.940   2.605   0.330 -1.3504 -2.5664 -1.2805
  581SOL     OW 1741   1.247   2.635   1.527  0.3069 -0.1174  0.3554
  581SOL    HW1 1742   1.301   2.547   1.520 -0.3106  1.0536 -2.9939
  581SOL    HW2 1743   1.281   2.718   1.476  0.7631 -1.7271 -0.5176
  582SOL     OW 1744   1.500   0.075   1.855 -0.2454 -0.2278  0.0770
  582SOL    HW1 1745   1.517   0.162   1.909  0.5909  1.6665 -0.9195
  582SOL    HW2 1746   1.590   0.053   1.802  0.0641  0.3318  0.6253
  583SOL     OW 1747   2.484   2.970   0.543  0.4215 -0.1151 -0.1734
  583SOL    HW1 1748   2.514   2.878   0.506 -1.6752 -0.0044 -0.6058
  583SOL    HW2 1749   2.425   2.947   0.632 -1.3012 -2.5552  1.9499
  584SOL     OW 1750   1.609   1.028   2.108  0.1732  0.1412 -0.8415
  584SOL    HW1 1751   1.647   1.088   2.033 -1.5524  1.0776 -0.8996
  584SOL    HW2 1752   1.681   0.993   2.174  1.1584  3.0971  2.5206
  585SOL     OW 1753   2.095   2.622   2.872  0.2683  0.1792  0.3498
  585SOL    HW1 1754   2.107   2.522   2.827  0.7737 -2.6797 -2.0750
  585SOL    HW2 1755   1.998   2.659   2.862 -1.3478  1.2252  1.7976
  586SOL     OW 1756   2.735   0.241   1.519 -0.4920 -0.4235 -0.3536
  586SOL    HW1 1757   2.769   0.327   1.564  2.3285  2.4992 -1.8824
  586SOL    HW2 1758   2.656   0.205   1.575  0.2472 -0.4987 -2.6292
  587SOL     OW 1759   1.958   1.619   2.730 -0.3007 -0.4455 -0.0375
  587SOL    HW1 1760   2.004   1.542   2.672  0.1646  0.6896 -1.6177
  587SOL    HW2 1761   2.028   1.682   2.772  1.0628  1.5316  1.6764
  588SOL     OW 1762   0.505   2.724   2.208 -0.7001  0.5322 -0.1221
  588SOL    HW1 1763   0.415   2.762   2.174 -0.4439 -1.2988  0.8401
  588SOL    HW2 1764   0.494   2.642   2.270 -2.2375  0.4718  1.0086
  589SOL     OW 1765   2.105   1.449   2.581 -0.1037 -0.0860 -0.3711
  589SOL    HW1 1766   2.032   1.390   2.530  1.0321 -1.9139 -2.8775
  589SOL    HW2 1767   2.200   1.413   2.568  0.4654  0.8845 -1.3071
  590SOL     OW 1768   2.349   1.680   2.015 -0.2273 -0.3954  0.7746
  590SOL    HW1 1769   2.436   1.634   1.980  1.8373  1.3618 -1.7074
  590SOL    HW2 1770   2.360   1.738   2.101  0.9478 -0.1526  0.5178
  591SOL     OW 1771   1.368   2.428   0.273 -0.9632 -0.0999 -0.8958
  591SOL    HW1 1772   1.462   2.442   0.231  0.2472  1.4691  0.0862
  591SOL    HW2 1773   1.376   2.387   0.370 -0.4515 -0.1624  1.7576
  592SOL     OW 1774   1.733   2.355   0.774  0.2328  0.6593  0.1034
  592SOL    HW1 1775   1.704   2.355   0.676  0.8554  0.9111  3.3932
  592SOL    HW2 1776   1.836   2.345   0.782  2.2452 -0.0694 -1.2069
  593SOL     OW 1777   0.644   0.201   0.060 -0.4219  0.7135  0.3461
  593SOL    HW1 1778   0.744   0.181   0.033 -0.9032  3.8345 -1.9988
  593SOL    HW2 1779   0.633   0.307   0.090 -1.0686  5.3558  0.6880
  594SOL     OW 1780   0.927   1.917   2.688  0.4701 -0.5511 -0.0799
  594SOL    HW1 1781   1.026   1.936   2.670 -0.5749  0.5164  0.0422
  594SOL    HW2 1782   0.876   1.992   2.741 -0.1010 -0.3953  0.4692
  595SOL     OW 1783   1.538   0.038   1.026  0.1590 -0.2261 -0.8488
  595SOL    HW1 1784   1.623  -0.020   1.032  0.0430 -1.3607  1.9245
  595SOL    HW2 1785   1.485   0.028   0.942  1.8836  0.6363  0.6781
  596SOL     OW 1786   3.083   1.429   2.226 -0.7752  0.0438 -0.7200
  596SOL    HW1 1787   2.982   1.457   2.217  2.4653 -0.3213  0.9884
  596SOL    HW2 1788   3.124   1.447   2.318 -1.9393  4.6047  0.6243
  597SOL     OW 1789   2.058   2.605   1.620 -0.1089  0.4076  0.2588
  597SOL    HW1 1790   2.062   2.528   1.544  0.4356  0.4212  0.6747
  597SOL    HW2 1791   2.138   2.603   1.688 -2.4423  1.3339  0.0311
  598SOL     OW 1792   2.477   2.931   1.372 -0.4176 -0.2335  0.6061
  598SOL    HW1 1793   2.554   2.993   1.405 -4.2039 -0.3913  0.6623
  598SOL    HW2 1794   2.492   2.891   1.278 -2.5821  3.1225 -0.5115
  599SOL     OW 1795   2.906   0.381   2.454  0.0116  0.3790 -0.2711
  599SOL    HW1 1796   2.959   0.458   2.407  2.2944 -0.0947 -0.1692
  599SOL    HW2 1797   2.803   0.392   2.445  0.7497  1.3655 -2.2958
  600SOL     OW 1798   2.808   1.131   2.675  0.2653  0.4665 -0.7407
  600SOL    HW1 1799   2.756   1.039   2.686  0.3102  0.9839 -0.5596
  600SOL    HW2 1800   2.767   1.206   2.743 -1.2505  0.9458  0.6179
  601SOL     OW 1801   3.038   1.240   2.006  0.7483  0.1368 -0.4793
  601SOL    HW1 1802   2.973   1.302   1.951  0.3434  0.1073 -2.7010
  601SOL    HW2 1803   3.093   1.288   2.075  1.8382 -0.3633 -0.1748
  602SOL     OW 1804   1.469   1.711   2.357 -0.7163  0.0850  0.3327
  602SOL    HW1 1805   1.419   1.624   2.363  0.9522 -0.3543  1.3717
  602SOL    HW2 1806   1.568   1.700   2.375 -3.8174  0.9536 -1.7546
  603SOL     OW 1807   0.642   1.258   2.694  0.0715  0.6577 -0.4480
  603SOL    HW1 1808   0.566   1.230   2.630 -0.7698  0.0244  0.3463
  603SOL    HW2 1809   0.719   1.182   2.696 -0.4323 -1.7034 -1.9474
  604SOL     OW 1810   2.404   0.976   0.144  0.0411 -0.0088  0.2942
  604SOL    HW1 1811   2.502   1.013   0.133 -1.2220  0.0061 -1.8768
  604SOL    HW2 1812   2.399   0.886   0.098 -1.1007  1.2213  1.7489
  605SOL     OW 1813   2.664   1.151   1.942 -0.4953 -0.0079 -0.1245
  605SOL    HW1 1814   2.627   1.073   1.884 -2.4110 -0.6847  0.4247
  605SOL    HW2 1815   2.701   1.115   2.028  2.3275 -1.0184  0.2815
  606SOL     OW 1816   1.509   2.501   2.630 -0.0020 -0.9746  0.3605
  606SOL    HW1 1817   1.418   2.547   2.624  0.6479 -1.3213  1.2383
  606SOL    HW2 1818   1.509   2.398   2.608 -1.5547 -0.3293 -1.1365
  607SOL     OW 1819   1.391   1.589   0.385  0.1453  0.5086 -0.0736
  607SOL    HW1 1820   1.334   1.601   0.471 -0.5612 -1.0069  2.4536
  607SOL    HW2 1821   1.445   1.675   0.364  2.1207 -1.3316  0.9693
  608SOL     OW 1822   1.447   2.830   0.425 -0.2496 -0.2739 -0.2225
  608SOL    HW1 1823   1.526   2.895   0.392 -0.3395  1.2174 -1.9485
  608SOL    HW2 1824   1.359   2.885   0.445  0.0705  0.5816  0.7508
  609SOL     OW 1825   1.276   1.368   0.274 -0.7116  0.1719 -0.1402
  609SOL    HW1 1826   1.313   1.459   0.299 -1.6610  0.3557 -3.1025
  609SOL    HW2 1827   1.174   1.361   0.300  0.9332 -0.3205  1.3998
  610SOL     OW 1828   2.967   1.128   2.262  0.1851  0.4244  0.1981
  610SOL    HW1 1829   2.989   1.026   2.273 -0.8743 -1.2334  1.2736
  610SOL    HW2 1830   2.952   1.158   2.166  0.6440  0.6020  0.4879
  611SOL     OW 1831   2.525   0.308   1.162  0.4120  0.4058  0.5290
  611SOL    HW1 1832   2.489   0.216   1.196  1.5289 -0.3296 -0.6872
  611SOL    HW2 1833   2.623   0.329   1.191 -0.3800 -0.4711 -0.3666
  612SOL     OW 1834   0.821   2.235   1.252  0.3312  0.0198 -0.0469
  612SOL    HW1 1835   0.783   2.140   1.267 -0.0779  0.6381 -0.6887
  612SOL    HW2 1836   0.746   2.305   1.225 -1.8702 -1.1941 -0.7309
  613SOL     OW 1837   0.853   1.449   2.407 -0.3808 -0.5851  0.3223
  613SOL    HW1 1838   0.897   1.512   2.339 -1.2285  0.8622  2.3095
  613SOL    HW2 1839   0.775   1.393   2.370 -1.2163 -0.8739  1.0788
  614SOL     OW 1840   1.657   1.605   1.881 -0.2600  0.2966  0.3750
  614SOL    HW1 1841   1.600   1.692   1.884 -0.7561 -0.6371  0.8878
  614SOL    HW2 1842   1.715   1.592   1.965  0.7517  0.7191 -0.0530
  615SOL     OW 1843   0.809   1.276   1.707 -0.7170  0.4215  0.7616
  615SOL    HW1 1844   0.752   1.235   1.623 -3.3958  2.4847 -0.3450
  615SOL    HW2 1845   0.836   1.379   1.685  0.8336 -0.9288  0.8424
  616SOL     OW 1846   1.090   1.603   2.254  0.1314 -0.1144  0.8350
  616SOL    HW1 1847   1.009   1.572   2.193 -1.1850  1.1451  2.5700
  616SOL    HW2 1848   1.097   1.711   2.253 -0.1092 -0.7394  0.9584
  617SOL     OW 1849   2.921   1.528   1.602  0.2198 -0.1057  0.0458
  617SOL    HW1 1850   2.912   1.440   1.656 -3.3370  2.0497 -1.7902
  617SOL    HW2 1851   2.986   1.521   1.523 -0.2139  0.2827 -1.0297
  618SOL     OW 1852   1.898   2.084   1.344  0.3901 -0.3527 -0.5576
  618SOL    HW1 1853   1.859   2.149   1.275  0.9098  1.5221 -1.0789
  618SOL    HW2 1854   1.904   1.991   1.292  0.3045 -0.7784  1.9106
  619SOL     OW 1855   1.740   0.506   2.378 -0.1875 -0.0248 -0.4262
  619SOL    HW1 1856   1.694   0.522   2.286 -2.4116 -1.2066 -1.1368
  619SOL    HW2 1857   1.720   0.407   2.404 -1.5873  0.0518  0.4587
  620SOL     OW 1858   2.320   2.921   0.765  0.2248  0.7270 -0.5142
  620SOL    HW1 1859   2.241   2.988   0.754  3.3479  1.4239  0.2531
  620SOL    HW2 1860   2.310   2.855   0.847 -0.0933 -1.7889  1.1345
  621SOL     OW 1861   2.123   1.814   1.323 -1.1332  0.1555 -0.2051
  621SOL    HW1 1862   2.124   1.843   1.420 -3.6138 -0.3000 -1.2860
  621SOL    HW2 1863   2.068   1.724   1.308  0.1848 -1.8711 -1.0619
  622SOL     OW 1864   2.268   0.919   1.827  0.0030  0.1212 -0.4444
  622SOL    HW1 1865   2.362   0.911   1.779  0.1307 -0.2290  2.0209
  622SOL    HW2 1866   2.251   0.833   1.877  2.4295  0.2500 -0.3500
  623SOL     OW 1867   1.351   0.794   2.418  0.1900 -0.2466  0.5383
  623SOL    HW1 1868   1.303   0.723   2.477  2.6368 -1.9398  4.4197
  623SOL    HW2 1869   1.276   0.849   2.369 -3.1107  0.4817 -1.1230
  624SOL     OW 1870   0.571   0.675   3.096  0.0340 -0.3742  0.2624
  624SOL    HW1 1871   0.627   0.697   3.014  2.1322 -0.1206 -0.1964
  624SOL    HW2 1872   0.573   0.752   3.166  1.9811  0.7731 -1.1044
  625SOL     OW 1873   2.780   1.741   0.991 -0.2097 -0.1183 -0.2166
  625SOL    HW1 1874   2.688   1.783   1.004 -1.7325 -0.6275  0.1690
  625SOL    HW2 1875   2.852   1.787   1.051  0.3271 -0.6209 -0.5219
  626SOL     OW 1876   0.621   2.684   1.714  0.2011 -0.0923  0.2587
  626SOL    HW1 1877   0.674   2.739   1.788  0.5197  2.2822 -0.0455
  626SOL    HW2 1878   0.518   2.679   1.742 -0.2111 -1.2997 -0.4679
  627SOL     OW 1879   0.687   0.937   1.579  0.3431  0.6872 -0.1173
  627SOL    HW1 1880   0.624   0.882   1.527  0.3042  3.1321 -1.7564
  627SOL    HW2 1881   0.764   0.970   1.516 -2.0598 -0.1106 -1.0318
  628SOL     OW 1882   2.492   0.170   0.660 -0.0047 -0.2690 -0.2956
  628SOL    HW1 1883   2.530   0.114   0.578  2.4090 -2.3646 -0.1219
  628SOL    HW2 1884   2.411   0.122   0.703  0.9113  0.9773 -3.8725
  629SOL     OW 1885   1.908   0.931   2.055  0.3373  0.4581  0.6612
  629SOL    HW1 1886   1.929   0.963   1.956 -0.7597 -0.4601 -1.3738
  629SOL    HW2 1887   1.905   1.008   2.122 -1.1989  1.0373 -0.9393
  630SOL     OW 1888   2.935   2.333   0.802 -0.6027  0.2158  0.1681
  630SOL    HW1 1889   2.847   2.385   0.814 -0.0624  0.2476  1.0211
  630SOL    HW2 1890   2.910   2.233   0.782 -0.5547 -1.6352 -0.3077
  631SOL     OW 1891   3.086   0.155   2.193 -0.3495 -0.3210 -0.1270
  631SOL    HW1 1892   3.117   0.202   2.280  5.3976  0.0210  0.8092
  631SOL    HW2 1893   3.116   0.211   2.110  2.5460 -1.8776  0.6552
  632SOL     OW 1894   2.467   2.589   0.638  0.1700 -0.6485  0.3937
  632SOL    HW1 1895   2.503   2.668   0.685 -2.2771 -2.7539 -0.3412
  632SOL    HW2 1896   2.369   2.597   0.605  1.1791 -1.0645  0.4021
  633SOL     OW 1897   1.467   1.206   2.684 -0.2362  0.7156  0.3301
  633SOL    HW1 1898   1.443   1.284   2.751  0.8581  1.9099  0.5423
  633SOL    HW2 1899   1.395   1.212   2.603 -2.9044 -0.0854 -1.5674
  634SOL     OW 1900   0.621   1.992   0.894 -0.0786 -0.2396 -0.3653
  634SOL    HW1 1901   0.540   2.010   0.958 -0.3398 -0.3257 -1.1109
  634SOL    HW2 1902   0.704   2.056   0.907  1.3150 -2.5628 -1.4476
  635SOL     OW 1903   2.987   2.352   0.061 -0.2885  0.1319 -0.1058
  635SOL    HW1 1904   2.915   2.410   0.010 -0.0711 -1.1868 -1.4848
  635SOL    HW2 1905   3.086   2.395   0.065  2.5024 -1.3958  0.5531
  636SOL     OW 1906   2.357   2.763   1.963 -0.1036  0.0732 -0.3947
  636SOL    HW1 1907   2.367   2.864   1.964  0.3038 -3.3158  2.6147
  636SOL    HW2 1908   2.285   2.735   2.034  0.0518 -0.8911 -0.0241
  637SOL     OW 1909   2.758   0.621   1.968 -0.4117 -0.2545 -0.0464
  637SOL    HW1 1910   2.674   0.626   1.906  0.6605 -0.8020 -1.7641
  637SOL    HW2 1911   2.798   0.718   1.996 -0.9927 -1.8376  0.4646
  638SOL     OW 1912   2.409   1.846   1.322  0.4326  0.2558  0.0588
  638SOL    HW1 1913   2.308   1.840   1.306  0.2680  0.3920 -1.7383
  638SOL    HW2 1914   2.438   1.771   1.387  1.3393  0.7685 -2.5567
  639SOL     OW 1915   1.298   2.195   1.713  0.4081  0.0690 -0.5653
  639SOL    HW1 1916   1.305   2.291   1.686 -1.7238 -0.7399  0.3509
  639SOL    HW2 1917   1.205   2.168   1.751  0.2955 -0.9233  1.1927
  640SOL     OW 1918   0.224   1.188   1.557  0.2343  0.0106  0.8399
  640SOL    HW1 1919   0.197   1.206   1.657 -1.8233  0.8956  2.4667
  640SOL    HW2 1920   0.292   1.114   1.532  1.6592 -0.2685  0.1045
  641SOL     OW 1921   2.032   0.279   1.433  0.3530  0.7240 -0.0436
  641SOL    HW1 1922   2.001   0.329   1.517 -1.5174  0.9536  1.3424
  641SOL    HW2 1923   2.089   0.193   1.457  1.5849  0.3451  0.5916
  642SOL     OW 1924   2.020   0.074   0.341 -0.1921 -0.5249 -0.5240
  642SOL    HW1 1925   2.105   0.029   0.378  0.5079  1.9635 -0.0784
  642SOL    HW2 1926   1.970   0.132   0.409  2.5559  1.3155 -1.7029
  643SOL     OW 1927   2.913   1.793   2.153 -0.1127 -0.4691 -0.7634
  643SOL    HW1 1928   2.846   1.734   2.099 -1.2188 -0.1432  0.5950
  643SOL    HW2 1929   2.912   1.893   2.123 -0.4848  0.4039  1.1353
  644SOL     OW 1930   2.287   2.411   1.217 -0.2969  0.0450  0.1671
  644SOL    HW1 1931   2.340   2.332   1.179 -0.9070  3.5527  0.8369
  644SOL    HW2 1932   2.257   2.395   1.314 -2.0059  0.0022 -1.2113
  645SOL     OW 1933   0.574   0.840   1.295  0.0442  0.2223  0.2016
  645SOL    HW1 1934   0.474   0.845   1.307 -1.2994  1.2336 -1.0667
  645SOL    HW2 1935   0.588   0.867   1.197 -1.5292 -0.9657 -0.4846
  646SOL     OW 1936   1.462   1.832   2.034 -0.2136  0.2762  0.1431
  646SOL    HW1 1937   1.539   1.885   1.988 -0.9149 -0.7118 -1.4081
  646SOL    HW2 1938   1.483   1.810   2.134  1.6302 -1.1941 -0.3036
  647SOL     OW 1939   0.829   1.082   0.645 -0.1439 -1.1801  0.0264
  647SOL    HW1 1940   0.890   1.106   0.727 -0.6493 -2.3409  1.3678
  647SOL    HW2 1941   0.772   0.995   0.662 -1.6999 -2.8348 -2.2802
  648SOL     OW 1942   0.130   0.233   0.243 -0.1610 -0.9778 -0.6924
  648SOL    HW1 1943   0.153   0.151   0.179 -1.2778 -1.2071 -0.1613
  648SOL    HW2 1944   0.120   0.326   0.201 -0.9948 -0.0081 -1.6217
  649SOL     OW 1945   3.012   0.208   0.840 -0.6087  0.3164  0.2041
  649SOL    HW1 1946   3.109   0.168   0.836 -1.0063  0.2565  0.4773
  649SOL    HW2 1947   3.008   0.311   0.816  0.5035  0.9022  2.0580
  650SOL     OW 1948   2.711   0.644   1.533 -0.2662 -0.6900 -0.1370
  650SOL    HW1 1949   2.609   0.651   1.538  1.6829  1.0508  0.8518
  650SOL    HW2 1950   2.743   0.728   1.482  1.9444 -1.3074  0.4443
  651SOL     OW 1951   0.905   1.525   1.643  0.2219 -0.4036 -0.3292
  651SOL    HW1 1952   0.917   1.620   1.683 -1.1437 -0.8676  0.8174
  651SOL    HW2 1953   0.982   1.495   1.575  1.5414 -1.5664 -1.0297
  652SOL     OW 1954   2.393   2.402   2.443 -0.4771 -0.7831 -0.1706
  652SOL    HW1 1955   2.309   2.443   2.488 -1.2746  0.8607  0.9410
  652SOL    HW2 1956   2.426   2.455   2.359  2.2841  1.5193  0.8815
  653SOL     OW 1957   2.700   1.286   0.237 -0.3000  0.0632  0.7356
  653SOL    HW1 1958   2.721   1.379   0.280 -0.7268  0.3181 -2.6235
  653SOL    HW2 1959   2.759   1.211   0.274  1.8365  4.9068  1.5622
  654SOL     OW 1960   1.266   2.221   1.283 -0.1095 -0.1260 -0.3951
  654SOL    HW1 1961   1.299   2.154   1.354 -0.3672 -1.0662  1.3739
  654SOL    HW2 1962   1.259   2.193   1.184  1.4971  2.0002 -0.8989
  655SOL     OW 1963   0.170   0.929   1.872  0.5842 -0.1782 -0.4014
  655SOL    HW1 1964   0.227   0.869   1.811  2.3772  1.6282 -1.2137
  655SOL    HW2 1965   0.190   1.032   1.866 -3.0652 -0.3237  2.8918
  656SOL     OW 1966   2.547   2.506   2.634 -0.0869 -0.3531 -0.5009
  656SOL    HW1 1967   2.648   2.505   2.608 -1.1829 -1.5462 -0.2479
  656SOL    HW2 1968   2.486   2.474   2.551 -1.4488 -2.8519 -2.5475
  657SOL     OW 1969   3.017   1.014   1.847  0.0213 -0.0280  0.6364
  657SOL    HW1 1970   3.032   1.107   1.898 -0.0967  2.3081  2.3656
  657SOL    HW2 1971   3.113   0.977   1.834 -1.8974  2.0827 -0.2485
  658SOL     OW 1972   1.705   0.209   2.355  0.5587  0.4307  0.0812
  658SOL    HW1 1973   1.736   0.139   2.424 -2.6377 -1.1442  1.6277
  658SOL    HW2 1974   1.753   0.199   2.265 -3.1008 -3.0390  2.2419
  659SOL     OW 1975   1.376   0.624   2.790 -0.0372 -0.1278  0.2382
  659SOL    HW1 1976   1.453   0.688   2.811  0.1387 -1.5311  3.7683
  659SOL    HW2 1977   1.277   0.657   2.822 -2.0614 -1.6078 -1.9590
  660SOL     OW 1978   1.403   0.337   1.446 -0.3939  0.3913 -0.7569
  660SOL    HW1 1979   1.414   0.363   1.547  0.7149 -2.6516 -0.2301
  660SOL    HW2 1980   1.464   0.251   1.426  2.0263 -1.8637  2.0866
  661SOL     OW 1981   2.413   1.250   0.675 -0.0148 -0.2222  0.4169
  661SOL    HW1 1982   2.436   1.239   0.577 -4.6604 -1.3058  3.4819
  661SOL    HW2 1983   2.391   1.347   0.698 -0.6835  0.9857  2.0920
  662SOL     OW 1984   1.405   0.408   1.729 -0.3338  0.0056  0.8391
  662SOL    HW1 1985   1.380   0.351   1.816  0.2220  1.4855  2.2529
  662SOL    HW2 1986   1.425   0.507   1.752  1.0563 -2.0157 -2.0429
  663SOL     OW 1987   0.866   1.534   2.122 -0.0027  0.6061 -0.1889
  663SOL    HW1 1988   0.780   1.572   2.174 -1.3036 -1.7462  2.0355
  663SOL    HW2 1989   0.850   1.475   2.042  0.5098  0.8708 -1.7094
  664SOL     OW 1990   1.639   2.083   1.420  0.0936  0.2143 -0.1912
  664SOL    HW1 1991   1.584   2.022   1.481  3.0209  2.3021 -0.3544
  664SOL    HW2 1992   1.742   2.068   1.425  2.3643  0.5324 -2.0244
  665SOL     OW 1993   2.306   0.652   1.959 -0.3744  0.4776 -0.3374
  665SOL    HW1 1994   2.275   0.554   1.979  0.7356  3.0206  1.3633
  665SOL    HW2 1995   2.362   0.688   2.040 -0.1624  0.7891  1.7863
  666SOL     OW 1996   0.514   2.251   0.383  0.2107  0.0272  0.0490
  666SOL    HW1 1997   0.556   2.330   0.437 -0.2114 -1.5263  0.7001
  666SOL    HW2 1998   0.409   2.262   0.375 -0.5499 -0.7791 -1.6129
  667SOL     OW 1999   1.955   0.253   1.060 -0.3123 -0.5235 -0.1621
  667SOL    HW1 2000   1.987   0.351   1.083  2.3941 -1.7840  0.5254
  667SOL    HW2 2001   1.879   0.217   1.123  0.7454  1.9852 -1.4053
  668SOL     OW 2002   2.002   0.488   1.133  0.3096  0.5164  0.5265
  668SOL    HW1 2003   2.077   0.499   1.064  0.4676 -1.3214 -0.8231
  668SOL    HW2 2004   2.012   0.536   1.222 -0.4238 -1.3695 -2.7406
  669SOL     OW 2005   3.060   2.191   1.001  0.5738  0.2144  0.1136
  669SOL    HW1 2006   3.054   2.242   0.916  0.1333 -3.3383  1.9775
  669SOL    HW2 2007   3.031   2.254   1.079 -0.6658  0.1992 -2.7909
  670SOL     OW 2008   2.873   2.326   2.132 -0.2615 -0.1222  0.3808
  670SOL    HW1 2009   2.798   2.333   2.203 -0.5772 -0.7710  0.2592
  670SOL    HW2 2010   2.874   2.408   2.071  1.2263  0.7945 -3.1917
  671SOL     OW 2011   1.784   1.790   1.499 -0.0537  0.3463 -0.4835
  671SOL    HW1 2012   1.807   1.762   1.401 -1.0621  3.4946 -2.4190
  671SOL    HW2 2013   1.686   1.822   1.520  1.0660 -0.6030  0.1081
  672SOL     OW 2014   0.465   0.650   2.494 -0.4417 -0.0322 -1.1103
  672SOL    HW1 2015   0.513   0.664   2.405  2.8227  2.0073 -1.4298
  672SOL    HW2 2016   0.378   0.708   2.502  0.6930 -1.4508  0.7782
  673SOL     OW 2017   0.124   1.231   1.134  0.5839 -0.8073  0.2935
  673SOL    HW1 2018   0.186   1.298   1.175  0.8126 -1.6051 -0.3508
  673SOL    HW2 2019   0.178   1.158   1.083  0.7244 -1.5975 -0.9506
  674SOL     OW 2020   1.610   3.005   0.317 -0.1351  0.4785  0.0249
  674SOL    HW1 2021   1.585   3.106   0.328 -0.8750  1.5868 -3.3064
  674SOL    HW2 2022   1.703   2.990   0.265  3.9740 -0.4703  0.8844
  675SOL     OW 2023   1.719   0.842   2.300 -0.2907 -0.3975 -0.1516
  675SOL    HW1 2024   1.815   0.811   2.276 -2.9968 -0.5480 -0.6059
  675SOL    HW2 2025   1.648   0.782   2.250 -0.3297 -0.4988 -2.5559
  676SOL     OW 2026   2.555   1.483   1.917 -0.1193  0.1663  0.1531
  676SOL    HW1 2027   2.491   1.456   1.835 -1.5637 -0.2333 -1.9594
  676SOL    HW2 2028   2.553   1.404   1.983  0.2044  1.7656 -1.2791
  677SOL     OW 2029   1.922   0.681   0.909 -0.4109 -0.0141  0.3109
  677SOL    HW1 2030   1.844   0.688   0.977 -0.9919  2.8266 -1.2474
  677SOL    HW2 2031   2.016   0.639   0.935  1.5107  0.6388  0.2601
  678SOL     OW 2032   0.081   0.744   1.605 -0.2860  0.0545 -0.7410
  678SOL    HW1 2033   0.182   0.714   1.604  1.1487  0.9921  0.2048
  678SOL    HW2 2034   0.030   0.710   1.687  0.2706  0.6465  0.1114
  679SOL     OW 2035   2.582   1.174   1.198  0.2053  0.6052  0.6820
  679SOL    HW1 2036   2.495   1.194   1.143  0.8992  1.2597 -0.5078
  679SOL    HW2 2037   2.597   1.071   1.211  1.6628 -2.5117  0.3178
  680SOL     OW 2038   2.827   0.448   1.696 -0.2454 -0.2495 -0.8379
  680SOL    HW1 2039   2.783   0.526   1.643  3.6181 -0.5702 -2.5181
  680SOL    HW2 2040   2.902   0.491   1.760 -2.9513 -0.9950  0.7324
  681SOL     OW 2041   2.958   0.054   1.590 -0.1382 -0.1814 -0.0030
  681SOL    HW1 2042   3.016   0.041   1.502  1.3614  2.6023  3.2837
  681SOL    HW2 2043   2.868   0.107   1.567 -0.2719  1.4672 -0.0843
  682SOL     OW 2044   0.711   0.027   1.335  0.1257  0.0857  0.2680
  682SOL    HW1 2045   0.638  -0.038   1.367  3.0632  1.2586  0.4086
  682SOL    HW2 2046   0.771  -0.012   1.256  1.3811 -1.7463  2.5264
  683SOL     OW 2047   1.386   0.182   2.145  0.4314  0.5461  0.2139
  683SOL    HW1 2048   1.376   0.202   2.247  0.5623 -0.3521  0.0499
  683SOL    HW2 2049   1.465   0.229   2.093 -0.4650 -1.6725  1.2670
  684SOL     OW 2050   1.465   2.092   0.540  0.0344  0.0663 -0.7642
  684SOL    HW1 2051   1.511   2.019   0.601  1.1823 -0.9167  0.2690
  684SOL    HW2 2052   1.372   2.068   0.496  1.2258 -1.0432  3.0620
  685SOL     OW 2053   2.199   2.063   1.955 -0.4142  0.1939 -0.4124
  685SOL    HW1 2054   2.246   2.068   1.869  0.3276 -0.9291  3.6907
  685SOL    HW2 2055   2.267   2.089   2.030 -2.0187 -0.2770  1.1581
  686SOL     OW 2056   1.472   1.835   2.817  1.1416  0.8473 -0.1118
  686SOL    HW1 2057   1.530   1.820   2.901 -0.4640 -2.1869 -0.3080
  686SOL    HW2 2058   1.369   1.815   2.830  0.7246 -0.2392 -2.0056
  687SOL     OW 2059   1.314   2.458   1.968  0.7215 -0.0325 -0.0100
  687SOL    HW1 2060   1.321   2.356   1.943 -1.7462  0.0878  2.3617
  687SOL    HW2 2061   1.372   2.479   2.049  0.7871  1.7093  0.6026
  688SOL     OW 2062   2.008   1.524   1.785 -0.3566  0.6770 -0.1476
  688SOL    HW1 2063   2.099   1.577   1.797 -2.4301 -0.6519 -2.1123
  688SOL    HW2 2064   1.999   1.480   1.689 -2.2746 -1.2730  0.9217
  689SOL     OW 2065   2.395   1.088   2.768 -0.0397 -0.0599 -0.0598
  689SOL    HW1 2066   2.304   1.033   2.772 -0.9704 -1.9807  0.2585
  689SOL    HW2 2067   2.435   1.089   2.865  0.4574 -1.5002  1.2916
  690SOL     OW 2068   2.231   2.802   0.011 -0.4942 -0.1414 -0.3015
  690SOL    HW1 2069   2.143   2.774  -0.042  0.6341  1.5243  0.1931
  690SOL    HW2 2070   2.203   2.829   0.112 -2.3747  1.4169  2.3867
  691SOL     OW 2071   2.579   0.397   2.122  0.6560  0.3457  0.9461
  691SOL    HW1 2072   2.626   0.303   2.125 -2.7152 -1.3853  1.7106
  691SOL    HW2 2073   2.602   0.450   2.032  0.3111 -0.9411 -0.8149
  692SOL     OW 2074   2.666   1.214   0.789 -0.6862  0.2981 -0.6746
  692SOL    HW1 2075   2.566   1.212   0.775  0.6331 -3.7957 -0.3745
  692SOL    HW2 2076   2.702   1.301   0.832 -0.9558  2.5323 -2.7925
  693SOL     OW 2077   2.858   2.984   0.552 -0.0228 -0.9652  0.3729
  693SOL    HW1 2078   2.831   3.039   0.638  0.9826  2.3234  0.4934
  693SOL    HW2 2079   2.823   3.018   0.459  0.1315 -0.1299  0.9585
  694SOL     OW 2080   2.420   2.208   0.100  0.1077  0.6436 -0.3809
  694SOL    HW1 2081   2.385   2.307   0.117 -3.3204  0.8069  1.1631
  694SOL    HW2 2082   2.345   2.141   0.079 -0.1156 -1.8864 -1.5128
  695SOL     OW 2083   0.510   2.984   1.427  0.7233  0.3082  0.0973
  695SOL    HW1 2084   0.447   2.903   1.436  2.1273 -0.6735 -0.1810
  695SOL    HW2 2085   0.466   3.071   1.461 -1.3837 -0.8949  0.6499
  696SOL     OW 2086   2.875   2.072   0.767 -0.1697 -0.1181  0.1700
  696SOL    HW1 2087   2.867   1.981   0.819  0.0385 -1.7554  0.4410
  696SOL    HW2 2088   2.865   2.062   0.664 -0.8002 -1.4254  0.3706
  697SOL     OW 2089   1.666   1.910   1.847  0.2623  0.3073  0.3577
  697SOL    HW1 2090   1.745   1.843   1.835 -2.9659 -2.4668  0.5837
  697SOL    HW2 2091   1.692   2.012   1.848  1.0733  1.4400  3.0690
  698SOL     OW 2092   2.887   0.421   2.731  0.1510  0.0758  0.2393
  698SOL    HW1 2093   2.900   0.396   2.631  2.0468  0.7644 -1.2086
  698SOL    HW2 2094   2.907   0.344   2.794  1.0789 -1.6374  1.8955
  699SOL     OW 2095   1.574   0.036   2.933 -0.1517 -0.0536  0.1750
  699SOL    HW1 2096   1.516  -0.038   2.885  0.0977 -1.5372 -0.3865
  699SOL    HW2 2097   1.619   0.093   2.859  0.0969  1.7642 -0.0744
  700SOL     OW 2098   1.041   2.305   1.411  0.3917  0.5262 -0.4645
  700SOL    HW1 2099   1.130   2.273   1.367 -0.1442  2.2412 -2.9210
  700SOL    HW2 2100   0.964   2.256   1.370  2.2211 -1.4448 -0.7550
  701SOL     OW 2101   1.924   2.878   0.004  0.0803  0.1911  0.3721
  701SOL    HW1 2102   1.873   2.836   0.086  2.4303 -3.5800  3.4442
  701SOL    HW2 2103   1.947   2.980   0.012  0.8952  2.7508 -0.9477
  702SOL     OW 2104   2.063   1.313   1.940 -0.2428 -0.1599 -0.1797
  702SOL    HW1 2105   2.160   1.284   1.916  0.0568 -2.6930 -0.3268
  702SOL    HW2 2106   2.028   1.394   1.884 -0.4446  3.1600  2.6043
  703SOL     OW 2107   1.942   0.890   1.469 -0.2070  0.3438 -0.1407
  703SOL    HW1 2108   1.930   0.803   1.529 -1.5010 -0.3502  1.0631
  703SOL    HW2 2109   2.000   0.965   1.513  1.7686  1.9001 -0.8774
  704SOL     OW 2110   0.291   2.018   1.719 -0.1324 -0.5096  1.1256
  704SOL    HW1 2111   0.351   1.951   1.762 -0.2397 -0.1268  0.7664
  704SOL    HW2 2112   0.343   2.104   1.688  1.7474 -0.1103  1.1883
  705SOL     OW 2113   2.497   1.553   0.879  0.8354  0.3996  0.4094
  705SOL    HW1 2114   2.443   1.473   0.836  1.2579 -0.9067  0.5066
  705SOL    HW2 2115   2.595   1.529   0.902  1.4840 -0.6498  0.0635
  706SOL     OW 2116   0.713   1.717   1.873  0.0593 -0.0279  0.2057
  706SOL    HW1 2117   0.724   1.615   1.866 -0.8615  0.8195 -0.4453
  706SOL    HW2 2118   0.776   1.760   1.940  1.6247 -0.1517  3.7539
  707SOL     OW 2119   2.303   1.185   1.941  0.1294 -0.8037 -0.8524
  707SOL    HW1 2120   2.401   1.191   1.975  0.4356  1.5516 -2.9734
  707SOL    HW2 2121   2.272   1.090   1.928 -0.8960 -0.3935  0.2844
  708SOL     OW 2122   2.960   0.524   3.020 -0.3327  0.5385  0.5764
  708SOL    HW1 2123   2.953   0.559   2.924  0.7345 -2.5687 -2.0382
  708SOL    HW2 2124   2.975   0.424   3.024  4.0528  0.2121 -1.3035
  709SOL     OW 2125   1.871   1.877   0.339 -0.7156 -0.1589 -0.6723
  709SOL    HW1 2126   1.878   1.980   0.332 -2.0317 -1.2442 -0.4019
  709SOL    HW2 2127   1.848   1.838   0.248  0.2761  0.0045  0.4342
  710SOL     OW 2128   1.722   1.619   2.409 -0.1045 -0.3854 -0.4925
  710SOL    HW1 2129   1.771   1.583   2.324 -3.1803  1.3303 -2.2769
  710SOL    HW2 2130   1.752   1.572   2.495  1.0149  3.5579  1.6754
  711SOL     OW 2131   2.573   2.905   1.034 -0.2982  0.0476  0.8748
  711SOL    HW1 2132   2.556   3.005   1.014  1.0452  1.6833  0.7108
  711SOL    HW2 2133   2.672   2.881   1.049 -0.0805  0.4664 -0.6021
  712SOL     OW 2134   1.409   2.131   1.970  0.2656  0.2252  0.3779
  712SOL    HW1 2135   1.512   2.155   1.975  0.2207  0.7819 -2.0670
  712SOL    HW2 2136   1.378   2.108   1.869 -0.4921  0.7170  0.2015
  713SOL     OW 2137   2.777   1.471   2.523  0.1915 -0.7344 -0.5311
  713SOL    HW1 2138   2.769   1.372   2.492  0.1840 -1.8218 -2.2277
  713SOL    HW2 2139   2.686   1.503   2.565  0.3915  3.4017 -0.4498
  714SOL     OW 2140   2.640   0.437   2.408  0.1850  0.0645 -0.1564
  714SOL    HW1 2141   2.565   0.406   2.473  1.1334 -0.7288 -0.4789
  714SOL    HW2 2142   2.610   0.434   2.304  2.3485  0.9226  1.2593
  715SOL     OW 2143   1.541   2.096   1.160 -0.0789 -0.4264  0.2842
  715SOL    HW1 2144   1.452   2.131   1.125 -1.1352 -0.4653 -1.8897
  715SOL    HW2 2145   1.559   2.121   1.261 -1.9661 -1.7298 -0.0046
  716SOL     OW 2146   1.192   0.145   1.494 -0.4563 -0.3220  0.2017
  716SOL    HW1 2147   1.101   0.156   1.450  1.0143 -1.0297  2.4700
  716SOL    HW2 2148   1.256   0.216   1.477 -4.0108 -3.6639  0.7456
  717SOL     OW 2149   1.139   0.538   1.604  0.2406  0.7313  0.0493
  717SOL    HW1 2150   1.241   0.551   1.624  3.2951 -2.8658  0.5123
  717SOL    HW2 2151   1.109   0.524   1.504 -0.9267  2.3374 -0.1556
  718SOL     OW 2152   0.661   0.893   0.971 -0.0154  0.0902 -0.1889
  718SOL    HW1 2153   0.646   0.884   0.872  0.1781 -0.8999  1.7183
  718SOL    HW2 2154   0.683   0.989   1.008 -1.0165  3.3005  0.3434
  719SOL     OW 2155   0.623   1.729   2.311  1.2159  0.4844  0.0212
  719SOL    HW1 2156   0.715   1.751   2.363 -0.6305 -1.9887  1.0948
  719SOL    HW2 2157   0.587   1.638   2.344  1.3934 -1.4372  1.2933
  720SOL     OW 2158   2.216   1.127   0.284 -0.1059  0.1024  0.3601
  720SOL    HW1 2159   2.259   1.052   0.233 -0.5428  2.3735  0.1520
  720SOL    HW2 2160   2.199   1.111   0.385  0.2532  0.6366 -1.1010
  721SOL     OW 2161   2.239   3.040   2.066  0.1184  0.1408  0.1445
  721SOL    HW1 2162   2.161   3.027   1.996 -2.1020  0.7318  2.6101
  721SOL    HW2 2163   2.200   3.031   2.161 -0.0429 -1.9967 -0.8085
  722SOL     OW 2164   2.307   1.627   0.456 -0.2617 -0.5885  0.0647
  722SOL    HW1 2165   2.374   1.615   0.373 -0.0367 -0.2383 -2.5053
  722SOL    HW2 2166   2.206   1.649   0.427 -1.4629 -0.7196 -1.9268
  723SOL     OW 2167   2.667   2.693   1.900 -0.4059 -0.6139 -0.4419
  723SOL    HW1 2168   2.695   2.787   1.944  0.2423 -1.2278  1.4715
  723SOL    HW2 2169   2.564   2.669   1.913 -1.1582 -0.5455 -1.4139
  724SOL     OW 2170   0.495   2.492   2.389  0.1082  0.0303  0.1317
  724SOL    HW1 2171   0.394   2.496   2.419  1.1685  2.9427  4.0720
  724SOL    HW2 2172   0.564   2.453   2.462  0.9948 -2.7012 -1.0891
  725SOL     OW 2173   2.358   2.712   1.530  0.2089 -0.0411 -0.9561
  725SOL    HW1 2174   2.430   2.760   1.466  1.4028 -2.0555  0.2618
  725SOL    HW2 2175   2.385   2.608   1.544  0.2759 -0.5525 -0.7500
  726SOL     OW 2176   2.475   2.315   0.730  0.6311  0.6349  0.4237
  726SOL    HW1 2177   2.476   2.404   0.684 -4.2013 -0.0553 -0.3426
  726SOL    HW2 2178   2.457   2.235   0.657  1.9450 -2.6001 -1.3435
  727SOL     OW 2179   0.153   3.088   0.123  0.2269  0.2550  0.4406
  727SOL    HW1 2180   0.224   3.115   0.054 -2.5559  0.3862 -1.1007
  727SOL    HW2 2181   0.058   3.058   0.083 -0.1503 -0.2364  1.5723
  728SOL     OW 2182   2.899   0.681   0.874 -0.0094 -0.1168  0.0162
  728SOL    HW1 2183   2.828   0.678   0.798 -1.5811  1.9762  1.1581
  728SOL    HW2 2184   2.869   0.649   0.970  0.2404  0.5887  1.8316
  729SOL     OW 2185   0.031   2.544   0.732  0.0887  0.4096 -0.6528
  729SOL    HW1 2186   0.030   2.474   0.808 -2.6639 -1.2564  2.8147
  729SOL    HW2 2187   0.113   2.535   0.666  1.5770  1.3799 -0.3037
  730SOL     OW 2188   2.542   0.657   0.811 -0.0276  0.1410  0.3520
  730SOL    HW1 2189   2.518   0.759   0.814  1.3353  1.8003  2.3547
  730SOL    HW2 2190   2.598   0.636   0.729  1.1302 -0.3803  0.3558
  731SOL     OW 2191   0.019   2.180   2.424  0.1614  0.2074  0.1529
  731SOL    HW1 2192   0.043   2.238   2.506  1.8231 -0.1281  0.7889
  731SOL    HW2 2193  -0.080   2.169   2.402 -0.1129 -0.1554 -0.4419
  732SOL     OW 2194   1.203   2.809   1.985 -0.2074  0.2006 -0.0671
  732SOL    HW1 2195   1.225   2.749   2.071 -0.6876  0.0774  1.9729
  732SOL    HW2 2196   1.190   2.748   1.900 -0.2389  0.1067 -0.3365
  733SOL     OW 2197   3.072   0.620   2.221 -0.1406  0.3993 -0.2504
  733SOL    HW1 2198   3.147   0.681   2.183 -2.4564 -0.3137  2.2166
  733SOL    HW2 2199   3.033   0.555   2.147 -0.1267 -0.7622 -1.1508
  734SOL     OW 2200   1.428   0.349   2.681 -0.7395 -0.0706  0.0389
  734SOL    HW1 2201   1.443   0.443   2.714  1.1310 -1.9769  2.6564
  734SOL    HW2 2202   1.341   0.306   2.711 -0.8752 -0.1441 -1.9562
  735SOL     OW 2203   2.904   2.620   2.276 -0.2308 -0.0654  0.3712
  735SOL    HW1 2204   2.883   2.598   2.180  2.2786 -2.2544 -1.3473
  735SOL    HW2 2205   2.993   2.676   2.285  3.5183  0.5379 -1.1483
  736SOL     OW 2206   0.926   0.454   2.524  0.2653  0.1237  0.6563
  736SOL    HW1 2207   0.847   0.514   2.497  2.8783 -1.2543 -3.0832
  736SOL    HW2 2208   0.921   0.362   2.484 -1.1194  2.7748  1.9078
  737SOL     OW 2209   2.616   0.505   2.822  0.1603  0.0025 -0.0159
  737SOL    HW1 2210   2.608   0.456   2.915  1.4736 -0.5636 -1.4727
  737SOL    HW2 2211   2.707   0.490   2.780 -0.0155 -2.1780 -0.7365
  738SOL     OW 2212   1.740   1.264   2.890 -0.2058  0.0125 -0.0239
  738SOL    HW1 2213   1.845   1.260   2.876 -1.4262 -2.9827  2.7947
  738SOL    HW2 2214   1.687   1.182   2.854  0.6002  0.9363  1.3644
  739SOL     OW 2215   1.771   0.704   0.670 -0.6091  0.2492  0.4332
  739SOL    HW1 2216   1.805   0.706   0.766  1.6331  0.9635 -1.2722
  739SOL    HW2 2217   1.786   0.610   0.626  0.0767 -2.5212  0.5335
  740SOL     OW 2218   1.920   1.940   2.384  0.1047 -0.5825  0.0588
  740SOL    HW1 2219   1.993   1.875   2.392 -0.1206  0.4581  0.3585
  740SOL    HW2 2220   1.857   1.910   2.308  0.7837  2.5542  2.8647
  741SOL     OW 2221   2.595   0.103   2.505 -0.5969  0.2744  0.4522
  741SOL    HW1 2222   2.689   0.057   2.498  0.2791  1.8137  0.8262
  741SOL    HW2 2223   2.555   0.132   2.419  0.1682  0.1380  1.9032
  742SOL     OW 2224   2.164   1.370   0.142  0.5888  0.0537  0.2347
  742SOL    HW1 2225   2.074   1.412   0.114 -1.5477  1.5413  1.6687
  742SOL    HW2 2226   2.149   1.290   0.207 -0.5136 -4.7449  0.5612
  743SOL     OW 2227   1.759   0.624   2.622 -0.5284 -0.0954  0.0157
  743SOL    HW1 2228   1.776   0.583   2.528  1.0082  2.0387  4.6030
  743SOL    HW2 2229   1.682   0.689   2.624  1.3116  1.6033  1.3145
  744SOL     OW 2230   2.702   2.015   0.050  0.1062  0.0530  0.5710
  744SOL    HW1 2231   2.653   2.008   0.136  2.5405  0.8800 -1.7056
  744SOL    HW2 2232   2.679   1.932  -0.005 -1.0817 -0.8051  1.1515
  745SOL     OW 2233   2.162   2.650   2.163 -0.5897 -0.0602 -0.1435
  745SOL    HW1 2234   2.062   2.639   2.142  0.1974 -3.3019 -1.3472
  745SOL    HW2 2235   2.189   2.698   2.247  0.5081  1.2064 -2.4018
  746SOL     OW 2236   0.011   2.652   1.729  0.1164 -0.0473  0.0721
  746SOL    HW1 2237   0.084   2.579   1.720 -1.6770 -0.8177  0.3860
  746SOL    HW2 2238   0.017   2.722   1.805  2.1088 -2.2471 -1.4192
  747SOL     OW 2239   3.094   1.756   1.647 -0.4529 -0.5641  0.3063
  747SOL    HW1 2240   3.006   1.706   1.610  1.8130 -1.9924 -0.5569
  747SOL    HW2 2241   3.170   1.773   1.576 -0.1941 -0.6298 -1.6771
  748SOL     OW 2242   1.827   2.723   2.904 -0.2340 -0.3594 -0.0287
  748SOL    HW1 2243   1.863   2.798   2.965 -2.6701 -2.0342 -0.4835
  748SOL    HW2 2244   1.721   2.718   2.907 -0.0250 -1.5820  0.7523
  749SOL     OW 2245   1.358   3.053   0.850 -0.7403 -0.2145 -0.1159
  749SOL    HW1 2246   1.276   2.983   0.851  0.2135  3.0435  1.8075
  749SOL    HW2 2247   1.445   3.015   0.815  0.8072 -0.5706  1.1034
  750SOL     OW 2248   2.296   0.190   1.871  0.3857  0.0207 -0.3310
  750SOL    HW1 2249   2.299   0.247   1.783 -1.2480  0.7402 -1.3020
  750SOL    HW2 2250   2.286   0.251   1.953 -1.4320  1.1765  1.8070
  751SOL     OW 2251   0.779   2.076   2.843 -0.4352 -0.8831 -0.1377
  751SOL    HW1 2252   0.824   2.096   2.934  0.1778 -1.0735 -2.9390
  751SOL    HW2 2253   0.676   2.052   2.848 -0.0402 -1.1148  0.6621
  752SOL     OW 2254   1.319   0.820   1.273  0.1652  0.7829  0.2740
  752SOL    HW1 2255   1.383   0.898   1.251 -0.6971  1.5846 -2.2477
  752SOL    HW2 2256   1.374   0.736   1.309  2.3017  1.3379 -1.0994
  753SOL     OW 2257   0.951   2.580   1.836  0.1362  0.7557  0.0027
  753SOL    HW1 2258   1.049   2.600   1.805  1.0276 -1.2123 -0.6887
  753SOL    HW2 2259   0.897   2.668   1.847  0.7079  0.1011 -1.2858
  754SOL     OW 2260   1.154   1.227   3.046 -0.0194 -0.7081 -0.3046
  754SOL    HW1 2261   1.242   1.186   3.020 -1.7227  0.9989  1.4364
  754SOL    HW2 2262   1.154   1.328   3.048 -0.5724 -1.0745  1.0314
  755SOL     OW 2263   1.984   0.474   2.234  0.2448  0.2524  0.4158
  755SOL    HW1 2264   2.043   0.398   2.261 -1.2404  2.1983  1.8129
  755SOL    HW2 2265   1.893   0.485   2.287  0.0318  0.4028 -1.1465
  756SOL     OW 2266   2.583   0.990   2.979  0.1715 -0.2353 -0.2215
  756SOL    HW1 2267   2.685   0.978   3.002 -0.2201  1.2751 -2.6503
  756SOL    HW2 2268   2.525   0.903   3.008 -0.8458 -1.4157 -1.2850
  757SOL     OW 2269   0.128   0.494   2.004 -0.3472 -0.0468  0.6539
  757SOL    HW1 2270   0.191   0.426   1.951 -0.8215 -1.3234 -1.1524
  757SOL    HW2 2271   0.068   0.444   2.060  1.0577  2.9650  0.4350
  758SOL     OW 2272   2.192   0.090   1.513  0.0130 -0.2422  0.0615
  758SOL    HW1 2273   2.168  -0.010   1.530  1.3963  0.0585  0.9318
  758SOL    HW2 2274   2.251   0.095   1.431  0.0926  0.2360 -0.4906
  759SOL     OW 2275   1.673   0.116   0.062 -0.2732  0.2923  0.1710
  759SOL    HW1 2276   1.630   0.074  -0.023 -0.2822  1.1822  2.2016
  759SOL    HW2 2277   1.779   0.103   0.058  0.2597  2.1863  0.7288
  760SOL     OW 2278   2.540   2.064   2.831 -0.1968 -0.3954  0.0162
  760SOL    HW1 2279   2.628   2.010   2.848  0.8282 -1.3356 -0.5033
  760SOL    HW2 2280   2.545   2.164   2.862 -1.4996 -1.1306 -0.5974
  761SOL     OW 2281   1.908   1.797   1.750 -0.3648 -0.2241 -0.4146
  761SOL    HW1 2282   1.931   1.700   1.783 -0.7311 -1.2414  0.3761
  761SOL    HW2 2283   1.867   1.803   1.650 -0.7334 -0.2533 -0.9818
  762SOL     OW 2284   0.488   2.366   0.952 -0.3106 -0.1937  0.2693
  762SOL    HW1 2285   0.527   2.369   0.858  0.6358  2.8462 -0.7960
  762SOL    HW2 2286   0.551   2.405   1.023 -1.6938 -1.2538 -0.8548
  763SOL     OW 2287   2.106   1.569   3.000  0.3747 -0.2487  0.6323
  763SOL    HW1 2288   2.175   1.496   2.981  0.6717  0.4356 -1.2502
  763SOL    HW2 2289   2.010   1.523   3.008 -3.1001  1.2338 -0.8039
  764SOL     OW 2290   0.680   0.550   0.729 -0.5267 -0.0316  0.4494
  764SOL    HW1 2291   0.593   0.487   0.726  1.5065 -0.0193 -0.0845
  764SOL    HW2 2292   0.748   0.516   0.803  0.5525 -1.7130  1.8409
  765SOL     OW 2293   0.771   0.250   0.783  0.1431 -0.2632 -0.1104
  765SOL    HW1 2294   0.780   0.284   0.684 -2.2737 -1.0176  2.7592
  765SOL    HW2 2295   0.784   0.316   0.854 -0.1072 -0.4799  2.0794
  766SOL     OW 2296   2.885   2.163   2.997 -0.5456 -0.1274 -0.3980
  766SOL    HW1 2297   2.808   2.116   3.046 -0.4696 -0.2232 -1.1201
  766SOL    HW2 2298   2.926   2.241   3.060  1.7282  0.6537  0.9317
  767SOL     OW 2299   2.795   1.675   0.576 -0.2627  0.0134  0.0800
  767SOL    HW1 2300   2.698   1.683   0.614 -2.7133  1.6520  0.0317
  767SOL    HW2 2301   2.871   1.723   0.635  0.2477  2.1684 -2.6584
  768SOL     OW 2302   1.031   0.144   0.240  0.1030 -0.3454 -0.0506
  768SOL    HW1 2303   0.993   0.164   0.334 -0.0228 -3.8250 -1.9093
  768SOL    HW2 2304   1.136   0.125   0.247 -0.1661 -3.3256 -1.6334
  769SOL     OW 2305   1.117   1.884   2.332 -0.2375  0.4119  0.3566
  769SOL    HW1 2306   1.014   1.884   2.348 -2.1990  2.7619  0.4921
  769SOL    HW2 2307   1.173   1.834   2.402 -1.3997  1.5422 -1.0766
  770SOL     OW 2308   0.169   1.135   2.313  0.1988 -0.0007 -0.1062
  770SOL    HW1 2309   0.178   1.192   2.398 -0.8324  0.8940  0.4130
  770SOL    HW2 2310   0.072   1.106   2.294  1.4555  2.4867 -2.7303
  771SOL     OW 2311   3.065   2.831   1.943  0.1737  0.3597  0.1483
  771SOL    HW1 2312   3.014   2.869   1.859 -1.5838  1.1561 -3.8460
  771SOL    HW2 2313   3.032   2.874   2.034  3.7564  2.2171  2.0327
  772SOL     OW 2314   2.281   0.198   2.858 -0.7997 -0.3775  0.0005
  772SOL    HW1 2315   2.349   0.133   2.817 -1.2650 -2.0930 -0.6121
  772SOL    HW2 2316   2.320   0.244   2.945 -0.2498  0.5691  0.7246
  773SOL     OW 2317   0.632   2.137   2.377  0.2169 -0.2693 -0.0542
  773SOL    HW1 2318   0.624   2.187   2.288  2.7194  1.9799  0.1164
  773SOL    HW2 2319   0.542   2.108   2.408  3.0420 -0.3838  0.5494
  774SOL     OW 2320   2.117   3.078   2.582 -0.2424 -0.3484 -0.3739
  774SOL    HW1 2321   2.132   3.166   2.628  0.4041 -2.5997 -0.4909
  774SOL    HW2 2322   2.139   2.995   2.641 -0.4110  1.2136 -1.8747
  775SOL     OW 2323   2.557   2.987   2.227 -0.0169  0.2769 -0.0971
  775SOL    HW1 2324   2.496   3.068   2.214 -0.3429 -2.2229  0.2325
  775SOL    HW2 2325   2.618   2.998   2.309  2.7910 -0.8236 -0.3046
  776SOL     OW 2326   3.097   1.252   0.190  0.5711 -0.6532  0.2608
  776SOL    HW1 2327   3.036   1.218   0.110 -0.4571 -0.5779 -1.5955
  776SOL    HW2 2328   3.056   1.242   0.288  0.0149 -0.3368 -1.0090
  777SOL     OW 2329   0.422   2.924   0.391 -0.3155 -0.7769 -0.4961
  777SOL    HW1 2330   0.320   2.905   0.373 -0.2394  0.8501 -0.5537
  777SOL    HW2 2331   0.482   2.898   0.310  0.9609  2.5895 -0.3970
  778SOL     OW 2332   1.322   1.969   0.192 -0.0510  0.5347 -0.1345
  778SOL    HW1 2333   1.297   1.996   0.285 -1.2429  2.8914 -2.4948
  778SOL    HW2 2334   1.372   2.045   0.142  0.6729 -1.2988  1.0441
  779SOL     OW 2335   0.187   0.900   0.464 -0.1424  0.0176  0.2003
  779SOL    HW1 2336   0.150   0.812   0.431  3.5012  0.9890 -1.5230
  779SOL    HW2 2337   0.135   0.934   0.551 -1.3498  0.3318  1.4029
  780SOL     OW 2338   0.156   0.322   2.416 -0.2017 -0.0653 -0.0994
  780SOL    HW1 2339   0.107   0.408   2.456 -0.6427  0.1966  0.6982
  780SOL    HW2 2340   0.240   0.340   2.359 -1.8618 -0.1078  1.5834
  781SOL     OW 2341   0.674   1.651   1.514 -0.0411  0.1286 -0.0095
  781SOL    HW1 2342   0.728   1.581   1.568  0.2672  0.4374  1.5491
  781SOL    HW2 2343   0.569   1.640   1.521  0.7470  0.0960  1.5034
  782SOL     OW 2344   2.604   0.150   0.930  0.0730  0.3208 -0.0999
  782SOL    HW1 2345   2.560   0.170   0.839  1.6047 -2.4892  0.0769
  782SOL    HW2 2346   2.561   0.211   1.007  1.9547 -0.2182  0.0118
  783SOL     OW 2347   2.748   0.683   2.440  0.3804 -0.2376 -0.1519
  783SOL    HW1 2348   2.816   0.678   2.512  0.4703  1.4888  0.2384
  783SOL    HW2 2349   2.702   0.598   2.424  2.8542  0.0626 -1.2032
  784SOL     OW 2350   1.453   2.188   0.058  0.7052 -0.0953 -0.1984
  784SOL    HW1 2351   1.483   2.257   0.122 -0.1632 -3.1844  1.2549
  784SOL    HW2 2352   1.447   2.224  -0.044  0.1562  2.0006 -1.9175
  785SOL     OW 2353   2.071   0.298   0.012 -0.0307  0.2625  0.6699
  785SOL    HW1 2354   2.009   0.313   0.092 -0.3131 -0.5687  3.4422
  785SOL    HW2 2355   2.092   0.386  -0.032  0.5056 -2.8038 -0.4335
  786SOL     OW 2356   2.040   2.195   2.236  0.7843 -0.3258 -0.1882
  786SOL    HW1 2357   2.007   2.108   2.286 -0.6019 -0.6121  0.2491
  786SOL    HW2 2358   2.138   2.198   2.246  0.9034  1.7387  2.0088
  787SOL     OW 2359   1.335   0.517   0.914  0.2700 -0.8268  0.2114
  787SOL    HW1 2360   1.302   0.608   0.964 -4.0511  1.9538 -0.2123
  787SOL    HW2 2361   1.405   0.538   0.844  0.3702  2.2208  0.0154
  788SOL     OW 2362   1.225   0.402   0.078  0.0509 -0.0301  0.2892
  788SOL    HW1 2363   1.126   0.389   0.045 -0.7312 -0.0356 -1.6707
  788SOL    HW2 2364   1.228   0.496   0.128  3.4808  0.7057  2.9717
  789SOL     OW 2365   2.555   0.097   1.905  0.3848 -0.0975  0.4655
  789SOL    HW1 2366   2.462   0.123   1.877 -2.3529 -2.6476 -0.1188
  789SOL    HW2 2367   2.577  -0.002   1.885 -2.5622  2.0255 -0.0774
  790SOL     OW 2368   2.617   2.782   0.774 -0.1098  0.8382 -0.0695
  790SOL    HW1 2369   2.685   2.793   0.694 -1.6892 -1.5046  2.1303
  790SOL    HW2 2370   2.621   2.858   0.846 -0.1270 -0.2260  1.5966
  791SOL     OW 2371   1.926   1.216   0.264 -0.2305  0.3461 -0.2556
  791SOL    HW1 2372   1.824   1.185   0.279 -1.9960  2.8915  0.4290
  791SOL    HW2 2373   1.991   1.132   0.255 -1.2709  1.0338 -1.2861
  792SOL     OW 2374   0.408   1.757   2.140  0.5929  0.0850  0.4257
  792SOL    HW1 2375   0.490   1.745   2.201 -1.8214 -1.5322  0.5980
  792SOL    HW2 2376   0.329   1.798   2.189  0.5696  1.3931 -2.2816
  793SOL     OW 2377   2.130   1.567   2.111  0.2704  0.5286  0.5608
  793SOL    HW1 2378   2.220   1.617   2.085  1.7786 -0.4283 -0.3119
  793SOL    HW2 2379   2.134   1.470   2.076 -1.3196  0.9247 -0.1980
  794SOL     OW 2380   0.566   1.428   2.341 -0.4542 -0.6226  0.2259
  794SOL    HW1 2381   0.545   1.427   2.241  1.5882  0.1824 -0.5167
  794SOL    HW2 2382   0.483   1.450   2.395 -1.1899 -0.7831  0.1938
  795SOL     OW 2383   2.526   2.263   1.814 -0.3652  0.0716  0.3804
  795SOL    HW1 2384   2.530   2.272   1.914 -0.4629  0.5631 -0.0255
  795SOL    HW2 2385   2.449   2.203   1.782  0.1074  1.3794 -0.4675
  796SOL     OW 2386   3.098   1.106   2.691 -0.1657  0.4265 -0.2068
  796SOL    HW1 2387   2.994   1.115   2.685  0.8118 -3.0579 -2.4732
  796SOL    HW2 2388   3.134   1.124   2.787  1.5876 -2.7270  0.1579
  797SOL     OW 2389   0.762   0.676   1.396 -0.6830 -0.3040 -0.0559
  797SOL    HW1 2390   0.842   0.716   1.451  0.5445 -1.3703 -0.2715
  797SOL    HW2 2391   0.695   0.744   1.353  1.1475  2.0970 -0.4648
  798SOL     OW 2392   1.314   0.354   1.128 -0.8369 -0.3769 -0.3308
  798SOL    HW1 2393   1.392   0.344   1.189  1.4392 -2.2235 -0.2044
  798SOL    HW2 2394   1.326   0.421   1.045 -0.1965  2.2027 -0.6862
  799SOL     OW 2395   1.965   2.714   1.030 -0.3203 -0.4023  0.5817
  799SOL    HW1 2396   1.886   2.719   1.093  2.0801  1.6562 -0.4567
  799SOL    HW2 2397   1.946   2.706   0.929  0.3208  0.2283  3.1174
  800SOL     OW 2398   3.037   0.604   1.810  0.2546  0.1559  0.5684
  800SOL    HW1 2399   2.993   0.665   1.877 -2.6066 -0.3353 -0.7112
  800SOL    HW2 2400   3.106   0.548   1.861  0.6384  1.3368  1.8139
  801SOL     OW 2401   1.970   2.258   0.084  0.3312  0.0448 -0.3578
  801SOL    HW1 2402   1.886   2.241   0.023 -0.3931  0.9872  0.8614
  801SOL    HW2 2403   2.041   2.179   0.088  1.5272 -0.3463 -1.1847
  802SOL     OW 2404   0.715   0.823   2.570  0.4501  0.4332 -0.1110
  802SOL    HW1 2405   0.780   0.838   2.493  0.7950 -1.0269  2.9957
  802SOL    HW2 2406   0.624   0.789   2.533 -2.2591 -0.8089 -1.3240
  803SOL     OW 2407   0.954   0.058   0.884 -0.3057  0.3378 -0.1470
  803SOL    HW1 2408   1.044   0.103   0.906  2.3242  2.1835 -1.0607
  803SOL    HW2 2409   0.884   0.118   0.836  0.2918  2.7248  1.2908
  804SOL     OW 2410   0.276   0.033   2.150  0.2727 -0.0877 -0.3891
  804SOL    HW1 2411   0.224   0.104   2.207  0.2142 -0.3014 -0.0471
  804SOL    HW2 2412   0.236   0.016   2.051 -2.7017  0.6912 -0.7076
  805SOL     OW 2413   2.435   0.252   0.337 -0.3982  0.4260  0.4824
  805SOL    HW1 2414   2.529   0.265   0.294 -1.3176 -0.0038  1.3605
  805SOL    HW2 2415   2.366   0.305   0.282  3.2973 -1.0196  0.8288
  806SOL     OW 2416   0.628   2.410   1.652  0.1528  1.0587 -0.0755
  806SOL    HW1 2417   0.640   2.498   1.708 -1.8820  0.9584  1.7402
  806SOL    HW2 2418   0.721   2.375   1.621 -0.7876  0.9584  1.0508
  807SOL     OW 2419   2.414   0.929   0.435  0.6119 -0.5072 -0.3976
  807SOL    HW1 2420   2.513   0.901   0.462 -0.9399 -2.3667 -3.0758
  807SOL    HW2 2421   2.400   0.963   0.341  0.9520  1.0440  1.0960
  808SOL     OW 2422   0.525   2.040   2.974  0.2505 -0.2186  0.4819
  808SOL    HW1 2423   0.549   2.067   3.073  3.5091  2.0978  1.3763
  808SOL    HW2 2424   0.538   1.941   2.951  0.2926 -1.5716  0.4157
  809SOL     OW 2425   2.668   1.965   1.916  0.6475 -0.6944  0.4245
  809SOL    HW1 2426   2.759   2.009   1.951  3.1829  2.5745  0.9889
  809SOL    HW2 2427   2.637   1.989   1.819  0.2282  1.8314  0.9173
  810SOL     OW 2428   2.103   1.052   0.528  0.2050  0.1715 -0.5217
  810SOL    HW1 2429   2.195   1.011   0.544 -0.8649  0.7031 -2.2005
  810SOL    HW2 2430   2.074   1.115   0.599 -0.4560 -1.5799 -2.7403
  811SOL     OW 2431   1.378   2.497   1.287  0.0722  0.0940 -0.3523
  811SOL    HW1 2432   1.398   2.397   1.290 -2.7860  1.9708  0.0545
  811SOL    HW2 2433   1.275   2.511   1.291 -0.1921  2.4339  2.1968
  812SOL     OW 2434   1.468   0.841   1.955  0.1939  0.0284 -0.0863
  812SOL    HW1 2435   1.519   0.913   2.013 -0.6051  3.7217 -1.5171
  812SOL    HW2 2436   1.375   0.884   1.927 -2.4313  1.8387  1.4086
  813SOL     OW 2437   1.739   2.147   2.469 -0.3642  0.0374 -0.0312
  813SOL    HW1 2438   1.801   2.065   2.491 -1.4578 -0.7149 -0.5803
  813SOL    HW2 2439   1.697   2.133   2.377  3.8549 -3.6056  1.6493
  814SOL     OW 2440   2.866   1.545   2.842 -0.1351 -0.2680  0.0584
  814SOL    HW1 2441   2.956   1.550   2.888 -0.1780 -1.6895 -1.3029
  814SOL    HW2 2442   2.857   1.613   2.769  1.4005 -1.7806 -0.6169
  815SOL     OW 2443   2.199   2.838   2.754 -0.9560  0.5338  0.3977
  815SOL    HW1 2444   2.173   2.760   2.809  3.3899  0.2363 -3.6840
  815SOL    HW2 2445   2.300   2.852   2.750 -1.0940  0.3138  0.1713
  816SOL     OW 2446   1.643   0.311   1.620 -0.0863  0.2696  0.8313
  816SOL    HW1 2447   1.674   0.214   1.628 -0.0905  2.6030  0.3498
  816SOL    HW2 2448   1.547   0.328   1.666  0.1383 -1.9421  2.1440
  817SOL     OW 2449   0.414   1.225   2.529 -0.1906  0.0880  0.2423
  817SOL    HW1 2450   0.318   1.252   2.556 -2.2335  1.1804 -0.8929
  817SOL    HW2 2451   0.458   1.274   2.449 -0.1799 -1.3226 -0.5001
  818SOL     OW 2452   1.960   0.793   0.473  0.4363 -0.3528 -0.4394
  818SOL    HW1 2453   1.993   0.886   0.497 -2.5637 -1.8929  0.9123
  818SOL    HW2 2454   1.875   0.764   0.528  1.0529 -0.2987 -1.2053
  819SOL     OW 2455   2.790   2.918   3.025  0.1491 -0.1554  0.1923
  819SOL    HW1 2456   2.852   2.845   2.988  0.2139  1.6379  1.0799
  819SOL    HW2 2457   2.705   2.931   2.966  0.8647 -1.9089  0.3729
  820SOL     OW 2458   1.247   1.124   0.623  0.3920  0.1793  0.6045
  820SOL    HW1 2459   1.248   1.223   0.634 -2.3687 -2.8252  2.1487
  820SOL    HW2 2460   1.191   1.087   0.702 -0.1542 -1.1113  1.2981
  821SOL     OW 2461   0.010   1.279   0.674 -0.6994  0.5441  0.0100
  821SOL    HW1 2462  -0.031   1.287   0.766  1.0743 -0.0389 -0.4099
  821SOL    HW2 2463   0.098   1.332   0.654  1.4859  0.0471 -1.7100
  822SOL     OW 2464   2.549   1.736   2.427 -0.1262 -0.0845  0.3132
  822SOL    HW1 2465   2.528   1.816   2.491  1.8060 -0.1056  2.1604
  822SOL    HW2 2466   2.483   1.726   2.353  2.5007  2.7038  1.1469
  823SOL     OW 2467   2.043   0.787   1.219  0.6020 -0.2653 -0.2251
  823SOL    HW1 2468   2.011   0.861   1.283 -0.4551  1.9405 -2.9002
  823SOL    HW2 2469   1.996   0.795   1.128  2.1266 -3.9785  0.8872
  824SOL     OW 2470   0.132   2.055   2.788  0.1946 -0.2276  0.1292
  824SOL    HW1 2471   0.105   1.970   2.838 -2.1352  1.0635  0.2474
  824SOL    HW2 2472   0.190   2.036   2.709 -3.5731  1.8815  1.4580
  825SOL     OW 2473   1.274   1.097   0.277 -0.5439  0.1837  1.3261
  825SOL    HW1 2474   1.269   1.197   0.293 -0.2016 -2.0506  1.3235
  825SOL    HW2 2475   1.196   1.053   0.322 -1.2710 -0.4515 -3.8010
  826SOL     OW 2476   1.938   0.655   1.604 -0.2638 -0.1130  0.1863
  826SOL    HW1 2477   2.018   0.586   1.624  0.9208  0.6126 -0.6184
  826SOL    HW2 2478   1.855   0.611   1.551 -2.2803  0.6544  1.1954
  827SOL     OW 2479   0.703   1.384   0.270  0.1678 -0.5749 -0.1469
  827SOL    HW1 2480   0.704   1.286   0.236 -1.2842 -1.4470 -0.6884
  827SOL    HW2 2481   0.637   1.387   0.348  2.3920 -0.7365 -0.1928
  828SOL     OW 2482   2.499   0.110   1.612  0.9486 -0.2307 -0.5722
  828SOL    HW1 2483   2.423   0.162   1.564  2.1879 -1.5217 -2.4226
  828SOL    HW2 2484   2.469   0.029   1.680 -1.9859 -0.1461 -1.6214
  829SOL     OW 2485   2.829   2.457   2.950  0.2756 -0.2270  0.2665
  829SOL    HW1 2486   2.759   2.380   2.940  0.8442  0.9254  1.7170
  829SOL    HW2 2487   2.806   2.519   3.029 -0.4582 -1.2960 -0.8877
  830SOL     OW 2488   2.830   0.913   3.017  0.4149  0.9361 -0.4919
  830SOL    HW1 2489   2.910   0.980   3.016 -0.5751 -1.4123 -3.6442
  830SOL    HW2 2490   2.850   0.830   3.078  2.4161  2.2195 -0.8362
  831SOL     OW 2491   0.067   0.664   0.369  0.6423 -0.0903  0.2158
  831SOL    HW1 2492   0.036   0.625   0.460  2.9761  2.8809  1.6890
  831SOL    HW2 2493   0.087   0.599   0.295 -1.5422  1.9536 -0.9461
  832SOL     OW 2494   1.810   0.743   3.084 -0.1522 -0.0333 -0.6241
  832SOL    HW1 2495   1.723   0.767   3.040 -0.5053 -0.7516  0.0565
  832SOL    HW2 2496   1.833   0.643   3.076  1.0662  0.9850  0.5519
  833SOL     OW 2497   2.420   2.130   0.522  0.3630  0.6325  0.0175
  833SOL    HW1 2498   2.322   2.107   0.497  0.2819 -1.6914 -0.2973
  833SOL    HW2 2499   2.483   2.049   0.505 -1.6984  2.1852 -3.3002
  834SOL     OW 2500   0.190   0.192   0.499  0.3845  0.5183 -0.5906
  834SOL    HW1 2501   0.223   0.098   0.545  1.1973 -4.0086  2.1876
  834SOL    HW2 2502   0.157   0.178   0.398 -1.7597  0.3854 -1.4466
  835SOL     OW 2503   2.359   1.572   1.123  0.2871  0.0421 -0.4384
  835SOL    HW1 2504   2.433   1.595   1.198 -0.5440  3.2547  4.2532
  835SOL    HW2 2505   2.396   1.596   1.029 -0.1064  1.3269 -0.5171
  836SOL     OW 2506   1.581   0.836   2.532  0.4772 -0.0430 -0.4421
  836SOL    HW1 2507   1.485   0.807   2.492 -0.7044 -2.8790  1.1786
  836SOL    HW2 2508   1.645   0.854   2.450 -1.4567 -0.6064 -1.8473
  837SOL     OW 2509   1.739   0.151   0.548 -0.6100  0.5033  0.0877
  837SOL    HW1 2510   1.658   0.190   0.601 -0.0376  1.8080 -2.1965
  837SOL    HW2 2511   1.714   0.118   0.449  0.7374 -3.9145 -1.0656
  838SOL     OW 2512   1.129   1.568   2.778  0.1238 -0.1617  0.3242
  838SOL    HW1 2513   1.140   1.540   2.875 -3.0427  0.5374 -0.2126
  838SOL    HW2 2514   1.074   1.503   2.719  2.0886 -0.3813  2.1459
  839SOL     OW 2515   1.615   0.290   0.984  0.8102  0.1005 -0.1961
  839SOL    HW1 2516   1.652   0.349   1.063 -2.9048  1.5159 -0.2374
  839SOL    HW2 2517   1.587   0.192   1.007  2.4754  1.1992  0.2319
  840SOL     OW 2518   2.458   2.936   1.725 -0.1341 -0.0830  0.3990
  840SOL    HW1 2519   2.395   2.850   1.732 -1.1853 -2.6442  0.2040
  840SOL    HW2 2520   2.547   2.902   1.690 -0.4935 -0.2665  0.4370
  841SOL     OW 2521   1.558   0.832   2.995 -0.0547  0.0497 -0.5007
  841SOL    HW1 2522   1.501   0.874   3.078 -0.0992  1.0150  3.6082
  841SOL    HW2 2523   1.524   0.875   2.905  1.0375 -0.8565  1.3801
  842SOL     OW 2524   0.832   1.524   0.898  0.8664  0.6844 -0.4989
  842SOL    HW1 2525   0.801   1.612   0.943  1.0322 -0.8552  3.1304
  842SOL    HW2 2526   0.754   1.456   0.900  1.4060  1.9642 -0.9185
  843SOL     OW 2527   0.072   0.010   1.364 -0.5422  0.4127 -0.3663
  843SOL    HW1 2528   0.107   0.084   1.430 -0.9583  0.4864  1.8755
  843SOL    HW2 2529   0.056  -0.077   1.414  0.9560 -0.4172  2.5273
  844SOL     OW 2530   0.779   2.480   0.236 -0.1262  0.1003 -0.1754
  844SOL    HW1 2531   0.737   2.452   0.328 -2.1509  2.0259 -1.6403
  844SOL    HW2 2532   0.733   2.557   0.180  2.8107 -1.5437 -0.5636
  845SOL     OW 2533   1.658   2.883   1.318 -0.0408 -0.1965 -0.2327
  845SOL    HW1 2534   1.715   2.796   1.302 -3.5994 -1.1203  1.8375
  845SOL    HW2 2535   1.698   2.945   1.386  0.2384 -0.3648 -2.0797
  846SOL     OW 2536   1.583   2.928   0.760 -0.5396 -0.2451 -0.1287
  846SOL    HW1 2537   1.582   2.862   0.681 -0.7067 -0.9722  0.4589
  846SOL    HW2 2538   1.681   2.952   0.786  0.7171  0.9374  0.2680
  847SOL     OW 2539   2.050   1.663   0.369 -0.3817 -0.2890 -0.0067
  847SOL    HW1 2540   2.006   1.575   0.409  2.0751  2.7791  2.3453
  847SOL    HW2 2541   1.988   1.742   0.348 -4.4467  0.4970 -1.5179
  848SOL     OW 2542   2.449   0.841   2.632 -0.0140  0.4688 -0.0509
  848SOL    HW1 2543   2.436   0.931   2.678 -1.7896  0.7424 -1.9553
  848SOL    HW2 2544   2.366   0.779   2.630  1.2789 -3.5285  0.1598
  849SOL     OW 2545   2.573   0.864   2.374 -0.2475 -0.1117 -0.2575
  849SOL    HW1 2546   2.661   0.814   2.397  1.1886 -0.9094  0.8718
  849SOL    HW2 2547   2.507   0.868   2.453  2.8475 -1.0301  1.3979
  850SOL     OW 2548   1.524   0.102   1.321 -0.8378  0.2373  0.3583
  850SOL    HW1 2549   1.503   0.080   1.223  0.0135  1.1329 -0.6859
  850SOL    HW2 2550   1.492   0.035   1.394  0.8349  1.1811  2.4701
  851SOL     OW 2551   0.451   1.828   0.564  0.5925  0.6287 -0.3767
  851SOL    HW1 2552   0.495   1.922   0.580 -0.4251  0.4993  1.9263
  851SOL    HW2 2553   0.442   1.808   0.464  1.2363  0.7225  1.8559
  852SOL     OW 2554   0.789   2.086   1.732  0.1814  0.3920 -0.3968
  852SOL    HW1 2555   0.824   2.184   1.722 -0.3498 -0.1818 -1.0814
  852SOL    HW2 2556   0.729   2.078   1.815  0.8371 -3.1678 -2.8093
  853SOL     OW 2557   2.509   1.516   2.584  0.0671 -0.8161 -0.4198
  853SOL    HW1 2558   2.445   1.449   2.551  0.9151  1.5118 -1.2321
  853SOL    HW2 2559   2.521   1.590   2.514 -1.6984 -1.1428 -0.6268
  854SOL     OW 2560   2.393   1.363   1.707  0.0225  0.3595  0.0811
  854SOL    HW1 2561   2.456   1.333   1.633 -3.2854  1.1696 -0.3988
  854SOL    HW2 2562   2.324   1.290   1.731  0.1572 -0.1839  1.7699
  855SOL     OW 2563   2.054   2.456   1.085 -0.3405  0.3015 -0.1210
  855SOL    HW1 2564   2.034   2.559   1.069  1.6286 -0.1999  2.4563
  855SOL    HW2 2565   2.145   2.443   1.138  0.2451 -0.3109  0.5740
  856SOL     OW 2566   1.345   1.418   0.933 -0.1378  0.6414 -0.0751
  856SOL    HW1 2567   1.422   1.480   0.967 -0.2951 -0.3247 -2.1420
  856SOL    HW2 2568   1.251   1.450   0.970  1.4857 -0.2115 -0.0172
  857SOL     OW 2569   3.026   2.709   0.980 -0.2170 -0.2301 -0.7219
  857SOL    HW1 2570   2.995   2.626   0.922  0.9388 -0.1389  1.7074
  857SOL    HW2 2571   3.105   2.753   0.932  1.5843 -1.4183 -2.5899
  858SOL     OW 2572   2.328   2.101   1.718 -0.5037  0.0303  0.0755
  858SOL    HW1 2573   2.235   2.104   1.679  1.7296 -1.4802 -0.7550
  858SOL    HW2 2574   2.392   2.025   1.683 -1.6536 -1.8645 -0.0495
  859SOL     OW 2575   2.482   0.575   1.064 -0.5076 -0.2279 -1.0166
  859SOL    HW1 2576   2.509   0.588   0.963  1.6812 -1.0579  0.3841
  859SOL    HW2 2577   2.515   0.481   1.104  0.9582 -0.9363  0.3375
  860SOL     OW 2578   1.876   2.793   0.453  0.4782 -0.0016 -0.5867
  860SOL    HW1 2579   1.868   2.760   0.353  1.0047  0.6322  1.2415
  860SOL    HW2 2580   1.900   2.886   0.463 -1.2158 -4.4556 -0.5928
  861SOL     OW 2581   1.010   2.408   2.873  0.3759 -0.1834  0.1847
  861SOL    HW1 2582   1.066   2.489   2.840 -2.4097  0.1819 -0.7729
  861SOL    HW2 2583   1.047   2.382   2.966 -1.2224  2.0096 -0.1491
  862SOL     OW 2584   2.888   2.564   1.597 -0.7434 -0.5856  0.2935
  862SOL    HW1 2585   2.978   2.593   1.639 -0.5488 -0.6427  2.6390
  862SOL    HW2 2586   2.846   2.651   1.552 -0.2760  2.1403  0.2836
  863SOL     OW 2587   1.837   2.715   0.200  0.1786  0.0313 -0.6456
  863SOL    HW1 2588   1.893   2.626   0.215 -0.6508 -2.2268  0.6546
  863SOL    HW2 2589   1.747   2.690   0.159 -0.7827  2.4174  0.1127
  864SOL     OW 2590   2.005   1.223   2.834  0.3771 -0.1021  0.0577
  864SOL    HW1 2591   1.960   1.172   2.756 -0.0652  1.0533  1.4859
  864SOL    HW2 2592   2.070   1.166   2.888 -2.9701  3.0831  0.3217
  865SOL     OW 2593   2.177   1.904   0.705  0.6275 -0.6374  0.2565
  865SOL    HW1 2594   2.256   1.864   0.760  1.0689 -2.2164 -1.7964
  865SOL    HW2 2595   2.098   1.939   0.768 -0.1160 -0.6915  0.9148
  866SOL     OW 2596   2.842   2.933   1.011 -0.0808 -0.3228  0.0670
  866SOL    HW1 2597   2.837   3.001   0.935 -0.4277 -3.0212  1.5820
  866SOL    HW2 2598   2.919   2.860   0.987  0.1139  1.1237 -0.4542
  867SOL     OW 2599   0.338   1.391   0.903  0.0724 -0.2794 -0.1897
  867SOL    HW1 2600   0.315   1.311   0.835 -1.4254  1.0183  3.8958
  867SOL    HW2 2601   0.307   1.478   0.863  2.1503 -0.0701  0.7243
  868SOL     OW 2602   0.763   1.917   2.108 -0.6031  0.5863  0.4609
  868SOL    HW1 2603   0.713   1.880   2.184  1.8535 -0.3235 -1.9032
  868SOL    HW2 2604   0.715   1.994   2.056  0.5052 -0.3384  2.5136
  869SOL     OW 2605   2.560   1.950   1.663 -0.3917 -0.4314  0.4492
  869SOL    HW1 2606   2.638   2.002   1.621 -0.0613 -1.9529 -0.2064
  869SOL    HW2 2607   2.578   1.846   1.666  2.2339  2.6862  1.6949
  870SOL     OW 2608   2.296   2.683   1.249  0.4436 -0.4004  0.5919
  870SOL    HW1 2609   2.293   2.582   1.212 -1.2827  1.2226 -4.4533
  870SOL    HW2 2610   2.285   2.689   1.352  0.0942 -0.0791 -2.7030
  871SOL     OW 2611   0.032   2.300   0.556 -0.1714 -0.1561  0.7101
  871SOL    HW1 2612   0.013   2.366   0.634  2.1649 -1.3175  0.0970
  871SOL    HW2 2613  -0.048   2.294   0.486 -0.6472  0.0455 -0.0473
  872SOL     OW 2614   2.112   0.471   1.686 -0.0305  0.2528  0.1047
  872SOL    HW1 2615   2.084   0.462   1.786  0.6224  1.1038 -1.3944
  872SOL    HW2 2616   2.212   0.451   1.674  0.7652  0.5965  0.9352
  873SOL     OW 2617   1.738   2.140   3.066  0.0992  0.3155 -0.3154
  873SOL    HW1 2618   1.659   2.188   3.112 -1.2457  0.5358 -3.2472
  873SOL    HW2 2619   1.719   2.141   2.966 -0.3275 -0.2488 -0.1756
  874SOL     OW 2620   0.680   2.418   0.742  0.2112 -0.4523  0.5635
  874SOL    HW1 2621   0.682   2.510   0.794  1.2181 -1.6034 -2.8749
  874SOL    HW2 2622   0.767   2.360   0.748  1.5319 -1.5505  1.3995
  875SOL     OW 2623   2.272   1.551   1.423  0.4236 -0.2568  0.6506
  875SOL    HW1 2624   2.344   1.587   1.487 -1.2562  2.4557 -2.5924
  875SOL    HW2 2625   2.306   1.550   1.319 -1.4991  1.6114 -0.8732
  876SOL     OW 2626   0.070   2.308   2.688 -0.6130 -0.2842  0.0780
  876SOL    HW1 2627   0.128   2.222   2.721 -0.5469 -0.8190 -0.5564
  876SOL    HW2 2628   0.105   2.391   2.738  1.1132  0.3355  0.4053
  877SOL     OW 2629   2.932   2.682   0.580  0.8089  1.2389 -0.3225
  877SOL    HW1 2630   2.936   2.783   0.591 -1.2401 -1.4065  0.0065
  877SOL    HW2 2631   2.992   2.629   0.646 -0.6580  1.2162  2.2452
  878SOL     OW 2632   2.814   1.503   2.229 -0.0412  0.2478  0.0311
  878SOL    HW1 2633   2.786   1.592   2.183 -1.1183  2.1009 -0.2741
  878SOL    HW2 2634   2.821   1.509   2.332  1.8026  0.6824 -0.3282
  879SOL     OW 2635   2.394   0.082   1.263  0.0707 -0.1296 -0.5613
  879SOL    HW1 2636   2.404  -0.014   1.292 -1.1924  1.6965 -1.2124
  879SOL    HW2 2637   2.317   0.096   1.194 -0.6038 -0.1253 -0.8210
  880SOL     OW 2638   0.762   0.507   2.267  0.1054  0.0163  0.2628
  880SOL    HW1 2639   0.712   0.451   2.334  2.7823  1.4703  0.9455
  880SOL    HW2 2640   0.834   0.454   2.218 -1.8645  1.5510 -3.2114
  881SOL     OW 2641   0.846   0.079   0.454  0.2585  0.8175  0.7668
  881SOL    HW1 2642   0.871  -0.019   0.426  0.4667 -1.4426  1.1906
  881SOL    HW2 2643   0.746   0.083   0.462  0.4090 -0.0875 -2.5515
  882SOL     OW 2644   2.717   1.681   1.716 -0.1601  0.3079  0.3520
  882SOL    HW1 2645   2.791   1.622   1.664  3.2495  0.9673  1.8097
  882SOL    HW2 2646   2.735   1.688   1.816 -1.1018  2.6978 -0.2976
  883SOL     OW 2647   0.863   0.493   0.930  0.3291 -0.1820 -0.0054
  883SOL    HW1 2648   0.922   0.577   0.934  0.7552 -2.1761 -2.2479
  883SOL    HW2 2649   0.824   0.460   1.023 -0.7439 -1.4340 -0.1580
  884SOL     OW 2650   1.101   1.744   1.165  0.4692 -0.5166  0.4548
  884SOL    HW1 2651   1.092   1.656   1.119  1.4415 -3.1088 -0.7783
  884SOL    HW2 2652   1.076   1.829   1.104  0.9152 -0.2945  1.7128
  885SOL     OW 2653   2.318   1.803   2.266 -0.3720 -0.6920  0.0260
  885SOL    HW1 2654   2.235   1.758   2.312 -1.2116 -1.1373 -0.1349
  885SOL    HW2 2655   2.326   1.906   2.248  1.8892 -0.5588 -1.9569
  886SOL     OW 2656   2.608   0.336   1.808  0.0083  0.5444  0.0676
  886SOL    HW1 2657   2.607   0.260   1.879  0.6949  0.6595 -0.7784
  886SOL    HW2 2658   2.703   0.377   1.778  1.3681  0.2858 -2.3661
  887SOL     OW 2659   0.123   2.050   1.295 -0.0836 -0.7331  0.1784
  887SOL    HW1 2660   0.127   2.014   1.196 -2.4567 -0.8839 -0.3084
  887SOL    HW2 2661   0.168   2.145   1.304 -0.4648 -1.5722 -0.5787
  888SOL     OW 2662   0.625   1.225   1.508 -0.3336 -0.1896 -0.4346
  888SOL    HW1 2663   0.657   1.237   1.412 -2.6288  0.5169  0.3197
  888SOL    HW2 2664   0.595   1.123   1.531  0.1548 -1.6105 -2.0159
  889SOL     OW 2665   0.827   2.507   2.200  0.0231 -0.3422 -0.1097
  889SOL    HW1 2666   0.762   2.428   2.223 -0.8895  0.2952 -0.8601
  889SOL    HW2 2667   0.912   2.477   2.144 -1.9290 -1.4344 -0.0969
  890SOL     OW 2668   2.398   2.496   0.261  1.1229 -0.6262  0.0611
  890SOL    HW1 2669   2.454   2.579   0.228 -0.1020 -0.4833 -1.7010
  890SOL    HW2 2670   2.349   2.499   0.353 -0.1014  1.5463  0.6250
  891SOL     OW 2671   2.512   1.713   0.643 -0.0272 -0.4681 -0.2448
  891SOL    HW1 2672   2.511   1.650   0.723  0.0548 -0.7417 -0.7146
  891SOL    HW2 2673   2.435   1.702   0.574  0.8482  0.0902 -2.1510
  892SOL     OW 2674   0.394   0.299   2.295 -0.7733 -0.5046  0.9187
  892SOL    HW1 2675   0.423   0.304   2.194 -0.7080 -2.2855 -1.7129
  892SOL    HW2 2676   0.466   0.338   2.359 -0.3423  0.1541 -0.8079
  893SOL     OW 2677   1.661   0.199   2.733  0.0003  0.0149 -0.4076
  893SOL    HW1 2678   1.726   0.270   2.768 -0.5712 -0.1823 -0.4874
  893SOL    HW2 2679   1.568   0.249   2.727  0.4249  0.8734 -1.8040
  894SOL     OW 2680   2.175   2.071   0.073 -0.3705  0.3847 -0.5907
  894SOL    HW1 2681   2.136   2.017  -0.010 -0.3622  0.4029 -2.2103
  894SOL    HW2 2682   2.203   2.006   0.152  1.6438  0.8161  1.5124
  895SOL     OW 2683   2.796   1.435   0.889  0.1881  0.6460 -0.0420
  895SOL    HW1 2684   2.878   1.369   0.899  1.7746 -0.8397 -1.5051
  895SOL    HW2 2685   2.820   1.536   0.893 -0.1549 -2.1376  1.2777
  896SOL     OW 2686   1.846   1.844   1.202 -0.4764 -0.1080 -0.1957
  896SOL    HW1 2687   1.892   1.752   1.218  1.4875  0.5879  1.8369
  896SOL    HW2 2688   1.755   1.839   1.156  0.7295 -1.7184  2.1590
  897SOL     OW 2689   0.274   0.576   3.051 -0.5732 -0.0220 -0.2733
  897SOL    HW1 2690   0.202   0.613   2.981  1.2502  1.5724  0.0865
  897SOL    HW2 2691   0.373   0.616   3.043  2.1238  1.3524  2.1960
  898SOL     OW 2692   0.658   2.855   1.040 -0.1987  0.6924  0.1655
  898SOL    HW1 2693   0.683   2.957   1.029  1.0545 -0.2224 -2.0521
  898SOL    HW2 2694   0.702   2.804   1.122 -2.2945  1.1371  0.6307
  899SOL     OW 2695   2.784   0.854   1.374 -0.2467  0.0682 -0.9053
  899SOL    HW1 2696   2.779   0.797   1.287 -0.1113 -0.3407  2.9631
  899SOL    HW2 2697   2.814   0.952   1.356 -1.6903 -1.4369 -2.6505
  900SOL     OW 2698   0.981   2.492   2.479 -0.5351  0.1983 -1.1196
  900SOL    HW1 2699   0.938   2.477   2.389  1.3802  2.1349 -0.8619
  900SOL    HW2 2700   0.974   2.417   2.555 -1.0445  2.8131 -1.1251
  901SOL     OW 2701   1.895   2.427   1.356 -0.3173 -0.6222 -0.4955
  901SOL    HW1 2702   1.857   2.368   1.282 -0.1346  1.5043  0.9262
  901SOL    HW2 2703   1.994   2.408   1.362 -0.4475 -0.0755  0.4879
  902SOL     OW 2704   2.538   1.662   1.480 -0.2055 -0.2826  0.2828
  902SOL    HW1 2705   2.584   1.645   1.572  3.8946  1.7797  0.9552
  902SOL    HW2 2706   2.601   1.648   1.396 -1.8352 -0.5281 -0.2630
  903SOL     OW 2707   0.312   2.497   1.979 -0.5112  0.1868 -0.6293
  903SOL    HW1 2708   0.228   2.437   1.968  0.0721  0.9787 -3.2067
  903SOL    HW2 2709   0.313   2.568   1.905  0.2379  0.1220 -0.1923
  904SOL     OW 2710   1.987   0.785   2.555 -0.4380 -0.0799 -0.3350
  904SOL    HW1 2711   1.918   0.720   2.599  2.7534  0.3373 -0.9220
  904SOL    HW2 2712   1.988   0.768   2.452  1.9746 -0.0104 -1.0707
  905SOL     OW 2713   2.916   0.108   2.458  0.6941 -0.2694  0.6564
  905SOL    HW1 2714   2.952   0.063   2.542  1.5899  1.6023  1.1733
  905SOL    HW2 2715   2.924   0.211   2.474 -1.6063  0.8493 -0.0456
  906SOL     OW 2716   0.159   1.658   1.873 -0.7284  0.4966 -0.1646
  906SOL    HW1 2717   0.111   1.690   1.790 -2.5230  1.0261  0.4894
  906SOL    HW2 2718   0.250   1.625   1.845 -1.0316 -1.6030 -1.1023
  907SOL     OW 2719   0.207   2.415   0.965  0.3571 -0.1813  0.0884
  907SOL    HW1 2720   0.308   2.395   0.945  0.9625  0.3213 -2.2180
  907SOL    HW2 2721   0.189   2.512   0.998 -0.8261 -0.7642 -1.9234
  908SOL     OW 2722   2.810   3.084   0.304 -0.4438  0.0293  0.0970
  908SOL    HW1 2723   2.726   3.079   0.244  3.3425  1.7559 -0.7482
  908SOL    HW2 2724   2.865   3.002   0.284 -0.7526  1.1418  1.9455
  909SOL     OW 2725   0.840   1.062   2.673 -0.1237 -0.2963 -0.0044
  909SOL    HW1 2726   0.794   0.969   2.656  0.7369  0.2210 -2.0359
  909SOL    HW2 2727   0.914   1.085   2.600  1.9217 -0.6880 -2.0217
  910SOL     OW 2728   1.777   1.883   2.141  0.3474  0.6047 -0.7000
  910SOL    HW1 2729   1.832   1.922   2.062  1.4878 -1.3780  0.2826
  910SOL    HW2 2730   1.700   1.945   2.173  1.1838  0.5309  0.1766
  911SOL     OW 2731   1.834   2.960   1.551  0.7279 -0.7358 -0.0253
  911SOL    HW1 2732   1.918   2.932   1.492  2.4881  2.2193  2.0036
  911SOL    HW2 2733   1.822   2.896   1.631 -1.4273 -1.6719  0.4350
  912SOL     OW 2734   2.857   1.028   0.718  0.3394 -0.4246  0.3424
  912SOL    HW1 2735   2.886   1.001   0.814  0.7420  1.6937 -0.3226
  912SOL    HW2 2736   2.782   1.099   0.718 -1.9569 -1.0063 -1.4948
  913SOL     OW 2737   2.543   1.231   1.527 -0.4497  0.2615 -0.1186
  913SOL    HW1 2738   2.560   1.125   1.528 -0.2263 -2.0247 -0.1031
  913SOL    HW2 2739   2.600   1.291   1.466  0.2343  1.4069  1.6488
  914SOL     OW 2740   2.745   0.641   1.162  0.6881  0.6872  0.2582
  914SOL    HW1 2741   2.771   0.549   1.195 -2.3216 -0.3259  0.0083
  914SOL    HW2 2742   2.648   0.637   1.120  2.7355 -3.9597 -2.2442
  915SOL     OW 2743   1.224   0.763   1.024  0.1931 -0.5451 -0.4743
  915SOL    HW1 2744   1.254   0.765   1.124 -1.0836 -1.2252  0.2739
  915SOL    HW2 2745   1.124   0.764   1.008 -1.9718 -0.8805 -3.2407
  916SOL     OW 2746   0.617   0.080   0.637  1.0829 -0.6277 -0.2003
  916SOL    HW1 2747   0.654   0.133   0.720 -0.6880  1.8355 -0.5242
  916SOL    HW2 2748   0.549   0.130   0.584 -3.0178 -1.7002  2.3919
  917SOL     OW 2749   2.900   2.580   1.979 -0.2372 -0.1694  0.1897
  917SOL    HW1 2750   2.809   2.607   1.934  1.0769 -0.4356 -1.1785
  917SOL    HW2 2751   2.982   2.613   1.919  2.5296  1.5166  0.7296
  918SOL     OW 2752   1.040   2.059   3.005 -0.0720  0.1311  0.2969
  918SOL    HW1 2753   1.067   2.145   3.055 -0.1679 -1.2113 -1.4902
  918SOL    HW2 2754   1.082   2.056   2.910  2.6796 -0.0107  1.7949
  919SOL     OW 2755   0.824   1.695   2.825 -0.5803  0.2182  0.2406
  919SOL    HW1 2756   0.868   1.788   2.814  0.3339 -1.5869  2.3646
  919SOL    HW2 2757   0.814   1.643   2.736  0.8951 -0.0709  0.7945
  920SOL     OW 2758   1.269   1.778   2.560  0.1118  0.1573  0.1350
  920SOL    HW1 2759   1.345   1.735   2.497  1.1303  0.7320 -0.4536
  920SOL    HW2 2760   1.213   1.715   2.623 -2.7090 -0.4866 -1.7036
  921SOL     OW 2761   1.127   0.006   2.647  0.0740  0.1553  0.5092
  921SOL    HW1 2762   1.082  -0.002   2.557  1.7692 -0.0425  1.0751
  921SOL    HW2 2763   1.060   0.027   2.727 -0.5398  0.4337  2.0164
  922SOL     OW 2764   2.166   2.379   2.797  0.4356 -0.1372  0.0686
  922SOL    HW1 2765   2.175   2.276   2.810 -1.1601 -2.7824  1.4816
  922SOL    HW2 2766   2.152   2.417   2.705 -1.4372 -1.4222  1.3579
  923SOL     OW 2767   1.264   2.688   0.274 -0.1229 -0.5213 -0.1433
  923SOL    HW1 2768   1.323   2.732   0.344 -1.9484  0.4520 -1.6087
  923SOL    HW2 2769   1.285   2.590   0.262 -0.0410 -0.4967  1.2606
  924SOL     OW 2770   2.902   1.692   0.118  0.1903  0.7206 -0.5151
  924SOL    HW1 2771   2.825   1.653   0.063 -0.5250  0.2320 -1.4130
  924SOL    HW2 2772   2.981   1.631   0.138 -2.6184  0.7477  0.1258
  925SOL     OW 2773   0.037   2.846   1.485 -0.1734 -0.5424 -0.7439
  925SOL    HW1 2774   0.011   2.799   1.572 -0.2046  1.2509  0.0960
  925SOL    HW2 2775  -0.019   2.808   1.406  3.0309 -2.0654  0.9153
  926SOL     OW 2776   1.307   2.840   1.333 -0.0577 -0.3096  0.4857
  926SOL    HW1 2777   1.342   2.822   1.233 -1.3848  0.9389 -1.6929
  926SOL    HW2 2778   1.357   2.928   1.362  1.3706 -0.5570  2.5466
  927SOL     OW 2779   0.351   2.651   1.747  0.3424 -0.2738  0.2177
  927SOL    HW1 2780   0.313   2.578   1.689  0.0288  0.5777  1.4890
  927SOL    HW2 2781   0.330   2.747   1.719 -2.5829 -1.2280  2.9628
  928SOL     OW 2782   1.614   2.091   2.226  0.5201  0.4370 -0.5385
  928SOL    HW1 2783   1.645   2.142   2.140 -2.4029 -0.0305  1.1044
  928SOL    HW2 2784   1.514   2.113   2.245  0.4267  2.6497 -0.0146
  929SOL     OW 2785   2.422   2.499   2.875 -0.0881  0.2250 -0.1086
  929SOL    HW1 2786   2.322   2.467   2.864 -1.2546 -0.8462  2.5332
  929SOL    HW2 2787   2.481   2.490   2.790 -0.1768  2.5830  1.8651
  930SOL     OW 2788   2.147   1.961   1.095  0.1209  0.2750 -0.0404
  930SOL    HW1 2789   2.116   1.905   1.176  0.3344  0.0799 -0.3158
  930SOL    HW2 2790   2.213   2.037   1.127  3.5182  2.9350  0.3240
  931SOL     OW 2791   0.530   1.765   2.628  0.0706  0.3471  0.1694
  931SOL    HW1 2792   0.541   1.791   2.726  2.6398 -1.2611  1.4070
  931SOL    HW2 2793   0.613   1.713   2.592  1.9468 -0.7140  1.3330
  932SOL     OW 2794   0.382   0.079   3.082  1.6466  0.1031 -0.5028
  932SOL    HW1 2795   0.454   0.122   3.139 -0.7197  0.1271  0.6234
  932SOL    HW2 2796   0.414  -0.002   3.021 -1.1948  0.0062 -0.1497
  933SOL     OW 2797   0.917   0.842   2.999 -0.1265 -0.4235  0.3771
  933SOL    HW1 2798   0.957   0.831   3.094 -2.7618  0.9903  0.0702
  933SOL    HW2 2799   0.888   0.941   2.981 -0.5984  2.3482 -0.1656
  934SOL     OW 2800   0.752   2.977   2.672  0.1578  0.1046 -0.6758
  934SOL    HW1 2801   0.744   2.916   2.589  0.5480  0.3578 -4.3202
  934SOL    HW2 2802   0.786   2.929   2.754 -0.3360  0.4439 -3.0765
  935SOL     OW 2803   0.014   0.528   0.840 -0.4736 -0.1296  0.1823
  935SOL    HW1 2804   0.020   0.484   0.741 -2.3331 -1.0311  0.2314
  935SOL    HW2 2805  -0.053   0.605   0.851  0.8238 -1.5518  3.0336
  936SOL     OW 2806   1.091   2.827   0.082  0.4956 -0.1088  0.2066
  936SOL    HW1 2807   1.144   2.892   0.020 -0.0428  1.5452 -1.5199
  936SOL    HW2 2808   1.149   2.795   0.163  0.1502 -1.9460 -0.2685
  937SOL     OW 2809   1.891   2.670   2.103  0.0345  0.4033  0.4313
  937SOL    HW1 2810   1.789   2.690   2.105 -0.0816 -1.3370 -1.3106
  937SOL    HW2 2811   1.947   2.747   2.064  1.0079  0.6769  0.7937
  938SOL     OW 2812   2.789   2.083   1.597 -0.1515  0.0476  0.5598
  938SOL    HW1 2813   2.789   2.187   1.583 -0.9659 -0.9503  2.2560
  938SOL    HW2 2814   2.850   2.057   1.680 -0.6029 -0.1665  0.2126
  939SOL     OW 2815   2.784   1.207   2.432 -0.1650 -0.1880 -0.1522
  939SOL    HW1 2816   2.856   1.180   2.361  0.5681 -0.6617 -1.4072
  939SOL    HW2 2817   2.818   1.184   2.526  1.4535  0.2004  0.2345
  940SOL     OW 2818   1.070   0.457   2.766  0.7528 -0.6546 -0.1386
  940SOL    HW1 2819   1.129   0.372   2.770 -1.3563 -2.3847  2.5892
  940SOL    HW2 2820   1.008   0.470   2.681 -2.5840  1.1341 -0.3634
  941SOL     OW 2821   0.020   2.774   2.290 -0.5390  0.4130 -0.0850
  941SOL    HW1 2822   0.091   2.720   2.235  1.4400 -1.7074 -2.0973
  941SOL    HW2 2823   0.067   2.858   2.334  0.4621 -1.5427  0.7986
  942SOL     OW 2824   0.123   0.084   2.568  0.6777 -0.0944  0.1291
  942SOL    HW1 2825   0.149   0.083   2.672 -2.0522 -0.0546  1.3649
  942SOL    HW2 2826   0.157   0.168   2.513 -0.1112 -0.1958 -0.7534
  943SOL     OW 2827   2.089   1.660   2.368  0.1475 -0.5515  0.7264
  943SOL    HW1 2828   2.107   1.611   2.276 -0.2925  2.2766 -0.4347
  943SOL    HW2 2829   2.090   1.592   2.451 -1.0781  0.1492  1.1033
  944SOL     OW 2830   2.190   2.382   1.464  0.4401 -0.2763  0.2297
  944SOL    HW1 2831   2.274   2.424   1.507  3.8890 -0.5701 -1.3790
  944SOL    HW2 2832   2.148   2.306   1.516  0.1391 -0.2810 -2.9108
  945SOL     OW 2833   0.681   1.579   0.095 -0.2765  0.2187  0.0972
  945SOL    HW1 2834   0.612   1.552   0.022 -2.2900  3.2721  2.4599
  945SOL    HW2 2835   0.702   1.502   0.164  1.4664 -3.2903 -1.5989
  946SOL     OW 2836   0.399   0.946   2.531 -0.2297 -0.3175  0.2751
  946SOL    HW1 2837   0.323   0.896   2.477  2.5998  1.1196 -0.5384
  946SOL    HW2 2838   0.394   1.048   2.515  0.7699 -2.1196 -1.9283
  947SOL     OW 2839   1.499   0.499   3.077  0.5814  0.1942 -0.1310
  947SOL    HW1 2840   1.475   0.569   3.002 -2.2516 -0.1497 -2.5993
  947SOL    HW2 2841   1.411   0.450   3.118 -0.9679 -1.1428  0.7740
  948SOL     OW 2842   1.867   3.010   2.174 -0.0640  0.1638 -0.0829
  948SOL    HW1 2843   1.870   2.958   2.086  2.2763 -1.9046 -0.5276
  948SOL    HW2 2844   1.847   2.947   2.255  0.5877  2.6361 -1.5424
  949SOL     OW 2845   0.628   2.486   0.489  0.3041  0.0475 -0.1809
  949SOL    HW1 2846   0.646   2.591   0.467 -0.7524  2.1900  0.4887
  949SOL    HW2 2847   0.640   2.471   0.592  2.5282  0.7583 -0.3360
  950SOL     OW 2848   0.184   2.262   3.003  0.5068  0.0874  0.0716
  950SOL    HW1 2849   0.159   2.351   2.957  0.5386  1.9976 -2.1009
  950SOL    HW2 2850   0.179   2.184   2.936 -2.5167 -1.0841  1.5792
  951SOL     OW 2851   1.167   2.614   2.786 -0.0795 -0.4337  0.4598
  951SOL    HW1 2852   1.210   2.606   2.882 -0.8262  0.4815  1.0297
  951SOL    HW2 2853   1.220   2.673   2.721  0.2420  1.3084  0.3021
  952SOL     OW 2854   0.030   1.648   0.419 -0.1974  0.0249  0.0985
  952SOL    HW1 2855   0.081   1.746   0.411  3.2112  2.4752  1.5928
  952SOL    HW2 2856   0.070   1.596   0.497  1.4630 -0.8201 -0.9535
  953SOL     OW 2857   2.565   1.743   0.197  0.2365  0.0880 -0.1107
  953SOL    HW1 2858   2.526   1.644   0.202 -0.3742  1.0071  1.3014
  953SOL    HW2 2859   2.518   1.808   0.132  0.2343 -0.1488 -2.8648
  954SOL     OW 2860   2.204   0.600   0.968  0.5648 -0.1423  0.6164
  954SOL    HW1 2861   2.224   0.578   0.872  0.2576 -1.3852  4.2531
  954SOL    HW2 2862   2.294   0.609   1.015  0.3865 -0.2008  0.7277
  955SOL     OW 2863   0.120   2.561   1.404 -0.3582  0.0598  0.0376
  955SOL    HW1 2864   0.046   2.626   1.379  0.5560 -1.5575  3.5263
  955SOL    HW2 2865   0.209   2.609   1.427  0.8882  2.7231 -2.3734
  956SOL     OW 2866   2.797   2.457   2.497  0.1849 -0.3246 -0.3562
  956SOL    HW1 2867   2.791   2.361   2.527  0.4485  0.3156 -1.2377
  956SOL    HW2 2868   2.846   2.463   2.407 -1.3934  0.1685 -1.6589
  957SOL     OW 2869   1.567   2.096   2.795  0.2521  0.0513  0.9492
  957SOL    HW1 2870   1.530   1.997   2.798  0.9984 -1.5695 -1.1879
  957SOL    HW2 2871   1.606   2.125   2.703  0.1100  0.4735  3.5112
  958SOL     OW 2872   2.591   2.291   2.983 -0.0064 -0.2585  0.7581
  958SOL    HW1 2873   2.528   2.369   2.964  4.2163  2.4771  0.0097
  958SOL    HW2 2874   2.571   2.246   3.075 -3.1662 -1.5745 -1.9932
  959SOL     OW 2875   0.313   2.786   0.072  0.2806 -0.4928  0.0998
  959SOL    HW1 2876   0.233   2.808   0.129 -0.7367 -2.5860 -2.7786
  959SOL    HW2 2877   0.356   2.693   0.100  0.1729 -1.5345 -2.2517
  960SOL     OW 2878   2.016   0.448   1.927  0.2517  0.2272 -0.1883
  960SOL    HW1 2879   1.956   0.533   1.923 -0.4614 -1.3998  0.4813
  960SOL    HW2 2880   2.052   0.434   2.024  2.2145  0.9172  1.6061
  961SOL     OW 2881   2.571   1.918   1.058 -0.3737  0.0014  0.1818
  961SOL    HW1 2882   2.573   2.013   1.015  1.2796 -1.1352 -0.0628
  961SOL    HW2 2883   2.542   1.919   1.160 -0.2058 -2.2506  1.6032
  962SOL     OW 2884   1.308   0.908   0.083 -0.2284  0.1789  0.1344
  962SOL    HW1 2885   1.277   0.920  -0.022 -0.5378  0.5906 -1.4583
  962SOL    HW2 2886   1.298   0.999   0.134  1.3250 -2.3384  0.3378
  963SOL     OW 2887   2.307   2.527   1.807  0.2621 -0.4972 -1.0128
  963SOL    HW1 2888   2.251   2.462   1.869  0.4785 -0.2097  1.6529
  963SOL    HW2 2889   2.328   2.619   1.847 -2.1769  1.9780  1.0949
  964SOL     OW 2890   2.376   0.366   1.677 -0.5139  0.2763  0.3681
  964SOL    HW1 2891   2.460   0.345   1.731  0.8617  0.0804  0.1325
  964SOL    HW2 2892   2.393   0.371   1.575  1.1669  1.1322  0.0848
  965SOL     OW 2893   2.602   2.990   0.147  0.5483  0.0125 -0.9405
  965SOL    HW1 2894   2.651   2.924   0.086 -0.2156 -1.7919 -0.3766
  965SOL    HW2 2895   2.506   3.016   0.119 -0.0726  1.0996 -1.5850
  966SOL     OW 2896   2.527   2.533   2.263  0.1592  0.0497  0.7413
  966SOL    HW1 2897   2.585   2.610   2.299 -0.8064  0.1122  0.5834
  966SOL    HW2 2898   2.465   2.569   2.193  1.3385  1.1986  1.6733
  967SOL     OW 2899   2.785   2.802   2.458 -0.3089 -0.2185  0.4956
  967SOL    HW1 2900   2.820   2.729   2.394 -0.4412  0.4830 -2.7342
  967SOL    HW2 2901   2.856   2.873   2.480 -0.1271 -1.0090 -0.7856
  968SOL     OW 2902   1.925   1.065   2.604 -0.5504  0.1685 -0.4914
  968SOL    HW1 2903   1.848   1.126   2.564  0.8786  0.8956  0.2537
  968SOL    HW2 2904   1.913   0.964   2.579  0.6433 -3.2632  0.6802
  969SOL     OW 2905   2.747   2.453   1.117  0.1325  0.2910  0.2723
  969SOL    HW1 2906   2.740   2.461   1.016  0.2934 -0.9245  0.8124
  969SOL    HW2 2907   2.800   2.367   1.149 -2.5801 -1.6372  0.6875
  970SOL     OW 2908   1.092   2.111   1.846 -0.2797  0.1365 -0.7609
  970SOL    HW1 2909   1.009   2.077   1.801 -1.2396  0.7060  1.3379
  970SOL    HW2 2910   1.074   2.126   1.948 -1.6915 -0.0604 -1.1038
  971SOL     OW 2911   2.894   2.048   2.047 -0.0323 -0.1891  0.3904
  971SOL    HW1 2912   2.898   2.145   2.075  2.0510  0.6051  1.6022
  971SOL    HW2 2913   2.957   2.026   1.971  0.9608 -0.0307 -0.4164
  972SOL     OW 2914   1.972   2.490   0.227  0.2502 -0.2887 -0.2777
  972SOL    HW1 2915   1.980   2.418   0.150 -0.1729 -2.0702 -2.4926
  972SOL    HW2 2916   2.030   2.472   0.314 -0.6534  0.4757 -0.0962
  973SOL     OW 2917   1.239   0.961   1.872  0.0483  1.0048  0.2783
  973SOL    HW1 2918   1.170   0.885   1.854 -1.6437  1.0351 -0.3423
  973SOL    HW2 2919   1.201   1.059   1.856  0.4831  2.0670  0.3206
  974SOL     OW 2920   1.566   0.595   1.898 -0.3847  0.5266 -0.1560
  974SOL    HW1 2921   1.666   0.604   1.869 -3.2204 -1.2611 -0.8914
  974SOL    HW2 2922   1.525   0.683   1.937  1.0026 -3.3234 -0.2428
  975SOL     OW 2923   2.354   3.056   0.034  0.3296 -0.0696  0.1600
  975SOL    HW1 2924   2.299   2.969   0.014 -1.7325 -0.2811  0.7914
  975SOL    HW2 2925   2.376   3.102  -0.056  1.3595 -1.4224  0.4229
  976SOL     OW 2926   1.865   2.814   2.378  0.1560 -0.9243  0.0399
  976SOL    HW1 2927   1.789   2.744   2.378  0.6270  3.0173  2.9385
  976SOL    HW2 2928   1.924   2.808   2.463  1.4206 -2.7270 -0.7768
  977SOL     OW 2929   0.537   0.600   0.983 -0.3520  0.2736  0.0469
  977SOL    HW1 2930   0.453   0.583   0.934  4.0739  0.5757  2.6286
  977SOL    HW2 2931   0.595   0.674   0.943 -2.1792 -0.2081  3.6123
   3.10000   3.10000   3.10000
