1000 SPC/Fw water molecules t=   1.19000 step= 1190
 2931
    1SOL     OW    1   2.552   0.351   2.591 -0.5310  0.0314 -0.0863
    1SOL    HW1    2   2.556   0.251   2.572  1.3407  0.5365 -0.6479
    1SOL    HW2    3   2.594   0.377   2.684 -0.4549  0.9037  1.7542
    2SOL     OW    4   2.767   3.000   1.380  0.1110 -0.5737  0.1581
    2SOL    HW1    5   2.818   3.027   1.295 -0.4172 -1.9157 -0.5078
    2SOL    HW2    6   2.726   3.078   1.432 -1.6621 -0.2733 -2.5767
    3SOL     OW    7   2.629   2.612   0.427  0.1672  0.0610 -0.1718
    3SOL    HW1    8   2.632   2.510   0.395  0.8892 -0.7255 -0.0756
    3SOL    HW2    9   2.708   2.640   0.489  0.7659  0.8509  1.2536
    4SOL     OW   10   1.241   1.533   2.368  0.3548  0.1126  0.2652
    4SOL    HW1   11   1.174   1.565   2.302 -0.8877  0.6781  0.9681
    4SOL    HW2   12   1.246   1.429   2.370  2.4809  0.3512 -2.7375
    5SOL     OW   13   1.146   1.575   3.025  0.7106  0.1845 -0.4412
    5SOL    HW1   14   1.211   1.656   3.039  0.4128  1.3559  2.0337
    5SOL    HW2   15   1.049   1.591   3.049  0.6702 -1.3524 -4.2753
    6SOL     OW   16   0.213   1.781   3.014 -0.0035  1.1463  0.4183
    6SOL    HW1   17   0.120   1.797   3.059 -1.1310 -0.2053  0.3515
    6SOL    HW2   18   0.286   1.747   3.078  3.6371 -2.8905  0.2671
    7SOL     OW   19   2.537   0.864   1.054 -0.4208 -0.4566  0.0866
    7SOL    HW1   20   2.448   0.833   1.102 -1.3560 -0.6248  0.1779
    7SOL    HW2   21   2.545   0.820   0.960  1.1908 -3.6747  1.0621
    8SOL     OW   22   0.441   0.603   1.465  0.0188 -0.0853 -0.3951
    8SOL    HW1   23   0.532   0.547   1.483  2.4267 -0.8936 -0.2110
    8SOL    HW2   24   0.405   0.593   1.368  1.2934 -1.0062  0.9580
    9SOL     OW   25   1.189   0.885   2.418 -0.6475 -1.0798 -0.2003
    9SOL    HW1   26   1.220   0.914   2.325 -1.0262 -0.1084 -1.7695
    9SOL    HW2   27   1.137   0.797   2.425  1.0119 -0.8078 -2.4569
   10SOL     OW   28   0.672   1.367   1.315  0.2382  0.1734 -0.2212
   10SOL    HW1   29   0.582   1.351   1.259 -2.1399  0.4899  0.7518
   10SOL    HW2   30   0.713   1.463   1.307 -2.4251 -3.0251 -1.5672
   11SOL     OW   31   2.307   2.805   0.852 -0.2988 -0.2896 -0.0689
   11SOL    HW1   32   2.265   2.811   0.943 -0.3922 -0.7621 -5.4866
   11SOL    HW2   33   2.406   2.776   0.852 -0.0338  0.3426 -0.8192
   12SOL     OW   34   1.458   0.839   0.414 -0.1760 -0.4266  0.1639
   12SOL    HW1   35   1.437   0.909   0.342 -2.1551 -0.9373 -0.2051
   12SOL    HW2   36   1.491   0.749   0.374  1.0108 -1.4915  0.5018
   13SOL     OW   37   2.445   0.739   1.767 -0.5722  0.6568 -0.4088
   13SOL    HW1   38   2.361   0.701   1.825  0.9867 -2.5478 -1.2393
   13SOL    HW2   39   2.470   0.677   1.688 -2.7989  0.0571 -0.5414
   14SOL     OW   40   1.861   0.077   0.695  0.2907 -0.4062  0.1967
   14SOL    HW1   41   1.771   0.082   0.641 -0.1364  0.4896  0.2399
   14SOL    HW2   42   1.859  -0.003   0.762 -0.0744 -2.6114 -2.1224
   15SOL     OW   43   1.867   2.102   2.725  0.1653 -0.1245 -0.6048
   15SOL    HW1   44   1.815   2.191   2.710  2.2406  0.4589  1.2691
   15SOL    HW2   45   1.827   2.022   2.678 -2.0983  0.7250  1.3329
   16SOL     OW   46   1.582   1.685   3.004 -0.3036  0.1123 -0.0383
   16SOL    HW1   47   1.580   1.605   3.067  0.6039  1.1494 -4.2166
   16SOL    HW2   48   1.671   1.736   3.020 -0.6818 -1.7718 -1.2399
   17SOL     OW   49   0.070   0.465   0.149  0.5525  0.2539 -0.0398
   17SOL    HW1   50   0.149   0.525   0.117 -1.0558 -0.9369  1.5843
   17SOL    HW2   51  -0.014   0.471   0.082  1.2767  0.0414  1.2456
   18SOL     OW   52   0.938   2.965   2.152  0.2790 -0.0485  0.1362
   18SOL    HW1   53   0.842   2.928   2.133 -0.4651  0.5477  1.1858
   18SOL    HW2   54   0.997   2.962   2.068 -1.3116  1.1225  4.3399
   19SOL     OW   55   0.483   0.837   1.883 -0.5294  0.1656  0.3661
   19SOL    HW1   56   0.526   0.796   1.967 -0.2860  0.7655 -2.8455
   19SOL    HW2   57   0.543   0.918   1.852  2.3201  0.9673  3.8282
   20SOL     OW   58   0.195   2.817   0.863 -0.0285  0.2619 -0.0895
   20SOL    HW1   59   0.139   2.879   0.801  1.6042 -0.3426  2.1111
   20SOL    HW2   60   0.238   2.737   0.812 -0.2336  0.3544  1.2608
   21SOL     OW   61   2.724   0.252   1.976  0.9108 -0.0176 -0.2800
   21SOL    HW1   62   2.701   0.194   1.892  1.3500 -0.5961 -1.5976
   21SOL    HW2   63   2.793   0.207   2.035 -0.6526  2.8626 -0.2422
   22SOL     OW   64   2.322   0.196   0.137 -0.0317  0.1144  0.5863
   22SOL    HW1   65   2.303   0.098   0.103 -0.3496  0.4840  1.5978
   22SOL    HW2   66   2.255   0.265   0.089  1.4201 -1.2492  0.7384
   23SOL     OW   67   2.791   0.591   0.671  0.4437 -0.2578  0.4324
   23SOL    HW1   68   2.807   0.502   0.614  1.5902  1.9868  0.5596
   23SOL    HW2   69   2.793   0.675   0.608 -2.6809  0.4406  0.8365
   24SOL     OW   70   0.222   1.920   0.440 -0.0507 -0.0169  0.1951
   24SOL    HW1   71   0.189   1.970   0.353  3.1952 -0.2572 -1.0120
   24SOL    HW2   72   0.318   1.878   0.428 -3.3218  0.5388  0.8448
   25SOL     OW   73   2.229   0.640   0.202 -0.5326 -0.2760 -0.1600
   25SOL    HW1   74   2.239   0.659   0.102  0.1948 -1.4763 -0.4898
   25SOL    HW2   75   2.279   0.552   0.234 -0.0568  0.0859 -0.5548
   26SOL     OW   76   2.447   2.178   2.031  0.3024 -0.3307  0.1792
   26SOL    HW1   77   2.526   2.228   2.078 -0.4885 -0.4693 -1.8605
   26SOL    HW2   78   2.483   2.089   1.988  3.9084  2.8839 -0.5168
   27SOL     OW   79   0.637   2.912   0.271  0.5807  0.1321  0.5967
   27SOL    HW1   80   0.737   2.950   0.260  2.3652  0.9600 -1.6561
   27SOL    HW2   81   0.596   2.897   0.176  2.5274 -1.2816  0.4002
   28SOL     OW   82   1.586   0.167   0.280 -0.1013 -0.2831  0.1875
   28SOL    HW1   83   1.660   0.144   0.211  0.2371 -0.4467  0.9129
   28SOL    HW2   84   1.591   0.268   0.311  0.4865  2.1247 -0.9466
   29SOL     OW   85   1.971   0.567   0.305 -0.1556 -0.3509 -0.5578
   29SOL    HW1   86   1.913   0.653   0.334  0.2913  0.8013  0.4981
   29SOL    HW2   87   2.059   0.600   0.253  3.9022 -4.1110  0.4299
   30SOL     OW   88   0.195   2.081   0.914  0.4196  0.2953 -0.1277
   30SOL    HW1   89   0.154   2.031   0.832  2.0250 -0.5681 -0.3553
   30SOL    HW2   90   0.121   2.132   0.964  1.3971 -0.0162  1.5403
   31SOL     OW   91   2.116   0.083   2.396  0.0355  0.8486 -0.2018
   31SOL    HW1   92   2.094   0.050   2.491  0.9267  1.0129 -0.2016
   31SOL    HW2   93   2.066   0.028   2.323 -2.0057 -0.7553 -0.5666
   32SOL     OW   94   2.988   0.028   0.226 -0.6455  0.0150  0.5353
   32SOL    HW1   95   2.970  -0.071   0.242  1.1573  2.9798 -1.5739
   32SOL    HW2   96   3.077   0.072   0.267  0.4809  0.5862 -0.5845
   33SOL     OW   97   0.892   0.325   0.630 -0.1288 -0.1764  0.0493
   33SOL    HW1   98   0.880   0.234   0.581  1.1001 -2.8560  2.0228
   33SOL    HW2   99   0.997   0.349   0.636  0.0646 -0.3556  1.7863
   34SOL     OW  100   0.342   2.715   1.087  0.0750  0.0299  0.1442
   34SOL    HW1  101   0.266   2.743   1.025 -0.7296  2.0971  2.5889
   34SOL    HW2  102   0.433   2.762   1.072 -0.7957 -1.5314  1.1233
   35SOL     OW  103   0.050   0.123   1.884 -0.6332  0.4514 -0.1841
   35SOL    HW1  104   0.086   0.032   1.917 -1.6801 -1.1980 -0.1346
   35SOL    HW2  105  -0.004   0.124   1.796  2.4370  2.1471 -1.3388
   36SOL     OW  106   1.873   1.250   1.600 -0.8060 -0.2593 -0.5704
   36SOL    HW1  107   1.944   1.180   1.600 -2.9346 -1.9921 -0.1613
   36SOL    HW2  108   1.893   1.333   1.542 -2.4686  0.7191  1.2833
   37SOL     OW  109   1.184   0.247   0.954  0.0625 -0.0284 -0.4271
   37SOL    HW1  110   1.223   0.323   1.018  1.1187  1.0743  0.8963
   37SOL    HW2  111   1.258   0.210   0.885  1.5744  0.2145 -0.6488
   38SOL     OW  112   1.154   2.812   2.389 -0.1293 -0.2270 -0.1936
   38SOL    HW1  113   1.104   2.722   2.394  1.2865  0.4808 -1.5677
   38SOL    HW2  114   1.090   2.896   2.364  0.9276  4.5573  2.7047
   39SOL     OW  115   2.332   1.406   3.051 -0.3972 -0.4762 -0.2008
   39SOL    HW1  116   2.407   1.336   3.058 -2.1387  0.4773 -0.3793
   39SOL    HW2  117   2.292   1.430   3.144  0.8655  0.2045 -3.4532
   40SOL     OW  118   2.000   2.459   2.641 -0.5866  0.5338  0.1228
   40SOL    HW1  119   1.971   2.554   2.612 -2.4160 -1.1253  2.0865
   40SOL    HW2  120   1.965   2.385   2.577  1.0045 -1.9790 -0.7106
   41SOL     OW  121   3.008   0.649   2.798  0.0051  0.0181  0.2963
   41SOL    HW1  122   2.924   0.711   2.796 -0.7593 -0.6706 -0.0409
   41SOL    HW2  123   2.983   0.545   2.784 -1.7533  1.2034 -0.8059
   42SOL     OW  124   1.736   1.795   0.488 -0.3249  0.1517 -0.0976
   42SOL    HW1  125   1.692   1.703   0.498 -3.1207 -0.4006  2.4812
   42SOL    HW2  126   1.732   1.823   0.385 -0.5427 -2.5578 -2.0144
   43SOL     OW  127   0.426   1.689   1.173  0.3191 -0.2248  0.1701
   43SOL    HW1  128   0.432   1.591   1.195  1.7111  1.5337 -1.6441
   43SOL    HW2  129   0.331   1.727   1.198 -0.3823  1.3757  2.4805
   44SOL     OW  130   1.694   2.337   2.992  0.0768  0.1010  0.2548
   44SOL    HW1  131   1.616   2.406   3.006 -0.5894 -2.4221 -1.2983
   44SOL    HW2  132   1.729   2.341   2.896 -1.5469 -3.2084  2.6661
   45SOL     OW  133   0.347   1.874   2.598 -0.0635 -0.1630 -0.5348
   45SOL    HW1  134   0.322   1.858   2.499  0.1400  0.5927  0.5508
   45SOL    HW2  135   0.407   1.797   2.635  0.1806  0.3933  1.1228
   46SOL     OW  136   1.281   0.620   0.147 -0.3665  0.3634  0.1269
   46SOL    HW1  137   1.289   0.719   0.120 -0.0550 -1.7120 -1.3516
   46SOL    HW2  138   1.184   0.582   0.139 -1.1638 -1.9969 -1.9219
   47SOL     OW  139   0.215   2.509   1.577 -0.1896 -0.1493  0.1628
   47SOL    HW1  140   0.221   2.406   1.591 -1.9751 -0.4180  2.8232
   47SOL    HW2  141   0.221   2.542   1.482 -1.1897  2.0508  1.2262
   48SOL     OW  142   2.619   0.631   0.137 -0.2260 -0.1390  0.3007
   48SOL    HW1  143   2.606   0.608   0.240 -0.4930 -0.4713 -2.3558
   48SOL    HW2  144   2.717   0.657   0.111  0.0854 -0.4358 -0.7832
   49SOL     OW  145   0.330   0.740   1.655 -0.2352 -0.0595 -0.6065
   49SOL    HW1  146   0.390   0.751   1.738 -1.3401  0.8518 -1.3922
   49SOL    HW2  147   0.375   0.704   1.565 -1.5039  0.0410 -1.5672
   50SOL     OW  148   1.684   1.101   0.340  0.2086 -0.4635 -0.3711
   50SOL    HW1  149   1.676   1.025   0.271  1.2758  1.4747  2.2619
   50SOL    HW2  150   1.630   1.085   0.425  1.0159  1.1442 -3.1650
   51SOL     OW  151   2.986   1.730   0.265 -0.1223 -0.1829  0.0114
   51SOL    HW1  152   2.931   1.644   0.240  0.3035  0.9211 -1.1388
   51SOL    HW2  153   3.062   1.708   0.329  0.6328  0.6714 -2.3893
   52SOL     OW  154   0.804   2.134   0.616  0.1221 -0.1067  0.4650
   52SOL    HW1  155   0.724   2.191   0.656 -0.2630  1.1048  0.8031
   52SOL    HW2  156   0.834   2.054   0.671  1.4571  2.4385 -0.1500
   53SOL     OW  157   0.189   0.469   1.590 -0.5400  0.3391 -0.0556
   53SOL    HW1  158   0.248   0.550   1.607 -1.5301 -1.5230 -1.1035
   53SOL    HW2  159   0.102   0.485   1.538  0.7670  1.6654 -1.4576
   54SOL     OW  160   1.803   0.499   3.027 -0.5475  0.1889 -0.0450
   54SOL    HW1  161   1.858   0.447   3.100 -0.5767 -0.8759  0.7786
   54SOL    HW2  162   1.696   0.488   3.036  0.9511  0.0482  0.5718
   55SOL     OW  163   0.760   2.882   0.662 -0.5386 -0.8946  0.1799
   55SOL    HW1  164   0.725   2.982   0.666  2.1392  1.2392 -0.8128
   55SOL    HW2  165   0.860   2.879   0.630  0.1258  1.9320  1.6086
   56SOL     OW  166   0.597   1.605   0.022 -0.1497 -0.5456 -0.0218
   56SOL    HW1  167   0.519   1.651   0.074  3.6334  1.8316  0.9896
   56SOL    HW2  168   0.566   1.516  -0.026 -1.4394 -0.6620 -0.0147
   57SOL     OW  169   1.711   2.525   2.354  0.3534 -0.0381  0.1092
   57SOL    HW1  170   1.775   2.452   2.348 -1.8934  2.7774 -0.2780
   57SOL    HW2  171   1.643   2.507   2.432  1.1618  1.0521  0.7783
   58SOL     OW  172   0.686   0.285   1.070 -0.1307 -0.2406  0.4739
   58SOL    HW1  173   0.598   0.300   1.123 -1.4883 -1.7628 -0.1163
   58SOL    HW2  174   0.693   0.188   1.036  1.1182 -2.7276  1.1124
   59SOL     OW  175   0.386   2.335   2.721 -0.4426  0.5930 -0.0179
   59SOL    HW1  176   0.394   2.243   2.681 -0.5664  0.1219 -1.6487
   59SOL    HW2  177   0.464   2.365   2.786 -2.0070  0.7123  0.6247
   60SOL     OW  178   2.320   2.096   2.310  0.0590  0.3246  0.2279
   60SOL    HW1  179   2.388   2.145   2.251 -2.0447  0.1142  1.4244
   60SOL    HW2  180   2.285   2.158   2.386  0.5656 -1.6981 -1.1806
   61SOL     OW  181   1.263   0.593   0.416  0.1013  0.0626 -0.6495
   61SOL    HW1  182   1.163   0.614   0.455  0.3888  1.1750  3.0822
   61SOL    HW2  183   1.271   0.610   0.313  0.2976  1.6402  2.0914
   62SOL     OW  184   2.730   1.746   2.903  0.3154 -0.2054 -0.6901
   62SOL    HW1  185   2.714   1.755   2.801  0.0224 -1.8964  0.5881
   62SOL    HW2  186   2.824   1.711   2.930  0.5383  0.3957  1.8891
   63SOL     OW  187   0.548   0.822   0.198  0.6748  0.4149 -0.3709
   63SOL    HW1  188   0.577   0.916   0.161 -0.2345  1.0449 -0.3200
   63SOL    HW2  189   0.571   0.810   0.300  0.5451 -1.3114  0.8074
   64SOL     OW  190   3.102   0.488   2.470 -0.5048  0.9382  0.0304
   64SOL    HW1  191   3.072   0.536   2.557 -2.5458  1.7240 -1.7285
   64SOL    HW2  192   3.074   0.544   2.392 -0.4723  0.8603  2.7845
   65SOL     OW  193   0.201   1.506   0.642  0.4167 -0.2641  0.1643
   65SOL    HW1  194   0.213   1.562   0.731  1.8323  2.8765  1.8998
   65SOL    HW2  195   0.292   1.481   0.608  0.0613  1.4132  2.2857
   66SOL     OW  196   2.529   0.379   0.560 -0.2196  0.0352 -0.1349
   66SOL    HW1  197   2.627   0.351   0.555  1.4843 -0.0581 -0.0501
   66SOL    HW2  198   2.467   0.307   0.610 -2.8432  0.0759  0.3758
   67SOL     OW  199   0.603   2.462   1.408  0.4168 -0.2196  0.2685
   67SOL    HW1  200   0.689   2.427   1.458  3.9428 -0.6511 -1.3019
   67SOL    HW2  201   0.527   2.392   1.395 -0.3008  0.7509  1.8441
   68SOL     OW  202   0.968   1.034   2.522  0.0929  0.0277 -0.4094
   68SOL    HW1  203   1.047   0.970   2.502 -1.2554  4.2031 -1.4738
   68SOL    HW2  204   0.923   1.064   2.433 -0.7999 -0.8171  3.3995
   69SOL     OW  205   0.701   2.794   2.184  0.1293 -0.4872  0.6541
   69SOL    HW1  206   0.749   2.705   2.163 -2.6930 -1.1018  0.4316
   69SOL    HW2  207   0.603   2.781   2.187  0.3584  0.3896  1.9647
   70SOL     OW  208   0.475   0.155   2.574 -0.6207 -0.3555 -0.1926
   70SOL    HW1  209   0.385   0.138   2.620 -0.5845 -0.5510  0.4464
   70SOL    HW2  210   0.548   0.084   2.606  0.5807 -3.3829  0.0598
   71SOL     OW  211   1.104   1.813   0.381 -0.0574 -0.3063  0.1097
   71SOL    HW1  212   1.061   1.746   0.443 -0.3539 -0.7987 -2.2539
   71SOL    HW2  213   1.081   1.805   0.276  1.6759  2.1907 -0.9829
   72SOL     OW  214   1.821   0.197   2.166  0.2548 -0.3563  0.2514
   72SOL    HW1  215   1.885   0.283   2.184  1.5485 -2.3688 -0.7935
   72SOL    HW2  216   1.871   0.115   2.132  2.5025  0.8389  0.1182
   73SOL     OW  217   2.809   2.189   2.374 -0.3124 -0.2470 -0.6637
   73SOL    HW1  218   2.842   2.096   2.342  0.2620 -1.7847 -1.9738
   73SOL    HW2  219   2.854   2.208   2.468  0.2288 -1.3256 -2.0755
   74SOL     OW  220   2.637   2.856   2.194 -0.6386  0.0381  0.0191
   74SOL    HW1  221   2.590   2.854   2.289  2.1429 -1.1972 -1.0998
   74SOL    HW2  222   2.715   2.923   2.194  0.1251  2.5085 -0.0198
   75SOL     OW  223   0.966   0.848   1.067  0.2025  0.1886 -0.3850
   75SOL    HW1  224   0.889   0.882   1.010  0.1406 -0.3285 -0.8606
   75SOL    HW2  225   0.963   0.897   1.157  4.0784 -1.6226  0.0731
   76SOL     OW  226   1.776   1.214   2.477  0.1946  0.3443 -0.0246
   76SOL    HW1  227   1.672   1.204   2.500  0.2828 -0.0751 -2.4971
   76SOL    HW2  228   1.809   1.311   2.506 -0.3601  1.9380 -1.3414
   77SOL     OW  229   2.944   0.940   1.023  0.0920 -0.1071  0.0286
   77SOL    HW1  230   2.919   0.846   0.992  1.0046 -0.1632 -0.5449
   77SOL    HW2  231   3.015   0.938   1.100  2.4128  1.0652 -0.7381
   78SOL     OW  232   1.990   1.476   1.475  0.0270 -0.7169 -0.9827
   78SOL    HW1  233   2.084   1.493   1.435 -0.9949  3.0049 -1.2831
   78SOL    HW2  234   1.919   1.499   1.402 -2.3389 -0.9423 -1.0023
   79SOL     OW  235   0.637   1.426   0.794 -0.1123  0.2575 -0.2942
   79SOL    HW1  236   0.540   1.420   0.825 -0.1004  0.7180  1.7429
   79SOL    HW2  237   0.651   1.357   0.713  3.4513  0.1355  2.1862
   80SOL     OW  238   0.659   0.456   1.538 -0.2871  0.0864  0.1763
   80SOL    HW1  239   0.716   0.510   1.470  1.2380  3.0940  0.8019
   80SOL    HW2  240   0.663   0.353   1.528 -0.8729  0.7346 -1.4825
   81SOL     OW  241   1.024   1.283   2.612 -0.5310 -0.2970 -0.4834
   81SOL    HW1  242   1.011   1.189   2.571  0.1193 -2.1411  0.3140
   81SOL    HW2  243   0.982   1.359   2.555 -2.1045  2.0610  0.5128
   82SOL     OW  244   0.918   2.996   1.508 -0.4755 -0.3324 -0.3370
   82SOL    HW1  245   0.815   2.980   1.518 -1.8579  0.1501 -2.4228
   82SOL    HW2  246   0.950   2.982   1.410  1.2035 -1.3018 -1.0554
   83SOL     OW  247   2.605   2.379   0.854 -0.5526 -0.2596  0.2321
   83SOL    HW1  248   2.561   2.431   0.933  1.8679 -0.0427  0.2662
   83SOL    HW2  249   2.534   2.358   0.781 -6.4340  1.4689 -0.5011
   84SOL     OW  250   0.717   3.084   2.383  0.8297  0.2705  0.3884
   84SOL    HW1  251   0.631   3.083   2.442  2.0195 -2.1453 -0.1366
   84SOL    HW2  252   0.772   3.002   2.406  0.7366 -0.7558  2.8846
   85SOL     OW  253   0.266   1.634   1.448 -0.1341  0.6301  0.5002
   85SOL    HW1  254   0.242   1.739   1.437 -3.4135 -0.5624  1.4826
   85SOL    HW2  255   0.306   1.618   1.543 -0.4794  0.8385 -2.3868
   86SOL     OW  256   0.471   1.090   1.467 -0.0111  0.0999  0.1421
   86SOL    HW1  257   0.431   1.018   1.405 -1.5283  1.1595 -1.0407
   86SOL    HW2  258   0.563   1.064   1.501  1.2092  1.5090 -0.9276
   87SOL     OW  259   1.658   0.664   0.274  0.3354  0.1649  0.4988
   87SOL    HW1  260   1.690   0.759   0.247 -0.1362 -0.1066 -0.9031
   87SOL    HW2  261   1.668   0.592   0.200  1.0579 -1.5019 -3.2111
   88SOL     OW  262   1.594   1.360   0.270  0.0757 -0.2692  0.0563
   88SOL    HW1  263   1.608   1.255   0.268  1.0914 -0.8161 -1.4505
   88SOL    HW2  264   1.492   1.392   0.260 -1.4901 -0.7519 -2.8191
   89SOL     OW  265   3.095   0.394   0.595 -0.2984 -0.2055  0.4488
   89SOL    HW1  266   3.153   0.311   0.580  1.5658 -0.7156 -0.4958
   89SOL    HW2  267   3.000   0.371   0.574  1.8313 -0.7116 -1.9108
   90SOL     OW  268   0.865   1.576   0.072 -0.8888 -0.1022  0.1672
   90SOL    HW1  269   0.885   1.472   0.069 -0.2751 -2.0693  1.5187
   90SOL    HW2  270   0.778   1.604   0.022 -0.4445  0.8772  0.6246
   91SOL     OW  271   1.220   1.455   1.782  0.2508 -0.1107  0.1830
   91SOL    HW1  272   1.191   1.539   1.841 -1.2658 -1.1800 -0.0370
   91SOL    HW2  273   1.319   1.432   1.794 -1.8691 -0.6682 -0.6434
   92SOL     OW  274  -0.000   0.954   1.253  0.1353 -0.0664  0.4792
   92SOL    HW1  275   0.052   1.036   1.215  0.8060 -0.3106 -0.2354
   92SOL    HW2  276  -0.011   0.949   1.356  1.0188  0.3646  0.2981
   93SOL     OW  277   3.054   2.722   0.043 -0.6426 -0.2537 -0.4698
   93SOL    HW1  278   3.009   2.711  -0.048  1.0479  0.7749 -0.0963
   93SOL    HW2  279   3.091   2.636   0.083 -1.0906  2.0237  1.9452
   94SOL     OW  280   1.497   1.467   1.810 -0.3973 -0.3007 -0.6514
   94SOL    HW1  281   1.557   1.383   1.813 -3.6961 -1.6364 -0.0960
   94SOL    HW2  282   1.529   1.554   1.858 -0.5411  1.0783  0.9126
   95SOL     OW  283   1.484   2.507   2.964 -0.1344 -0.1053 -0.2412
   95SOL    HW1  284   1.433   2.556   3.037  0.0534  0.9194 -0.1333
   95SOL    HW2  285   1.431   2.427   2.920  0.0729  2.0924  0.6520
   96SOL     OW  286   0.558   2.098   1.301 -0.0949  0.4008  0.0162
   96SOL    HW1  287   0.525   2.065   1.207 -1.1675 -1.2364  1.0698
   96SOL    HW2  288   0.620   2.031   1.357 -1.4893 -0.6686  1.5593
   97SOL     OW  289   0.310   1.620   2.451  0.3145 -0.4501  0.0938
   97SOL    HW1  290   0.240   1.673   2.394 -0.1376 -0.3143  0.2823
   97SOL    HW2  291   0.290   1.609   2.551 -0.9211 -1.5043  1.4066
   98SOL     OW  292   2.097   1.593   1.206  0.2023 -0.1095  0.5616
   98SOL    HW1  293   1.998   1.560   1.228 -1.3289  0.2782 -0.0845
   98SOL    HW2  294   2.149   1.537   1.137 -0.6975 -2.3102 -0.8049
   99SOL     OW  295   2.554   2.068   1.289  0.0334 -0.0281 -0.2480
   99SOL    HW1  296   2.628   2.098   1.359  0.6103  1.8894  1.1990
   99SOL    HW2  297   2.505   1.978   1.313  1.9201 -0.8144 -2.2788
  100SOL     OW  298   2.293   0.407   2.071 -0.4403 -0.3658 -0.7246
  100SOL    HW1  299   2.246   0.407   2.167  1.5066  0.8244  3.2908
  100SOL    HW2  300   2.395   0.438   2.083  1.8570 -0.5057 -1.3579
  101SOL     OW  301   0.451   1.507   0.457  0.0797  0.0382 -0.2455
  101SOL    HW1  302   0.423   1.598   0.499 -0.9521 -0.5780 -1.6842
  101SOL    HW2  303   0.544   1.509   0.415  1.0715  0.4794 -0.2467
  102SOL     OW  304   2.273   1.083   0.833  0.3458  0.3099  0.1877
  102SOL    HW1  305   2.190   1.041   0.795  4.7322  1.2714 -0.0745
  102SOL    HW2  306   2.346   1.111   0.763 -0.3786  1.4130  0.0088
  103SOL     OW  307   2.221   0.117   0.383  0.2904  0.0569  0.2096
  103SOL    HW1  308   2.281   0.149   0.303 -1.1597  3.7367 -0.8864
  103SOL    HW2  309   2.270   0.077   0.462 -0.6420  0.5777 -0.8766
  104SOL     OW  310   0.068   1.872   2.118 -0.6892  0.6040 -0.2277
  104SOL    HW1  311   0.108   1.855   2.022  1.0102  2.7848  1.7800
  104SOL    HW2  312  -0.033   1.867   2.115  0.0346  1.4295 -0.8380
  105SOL     OW  313   1.276   2.119   0.803 -0.2253  0.1804  0.2384
  105SOL    HW1  314   1.305   2.208   0.762 -0.1711  1.8774 -0.0365
  105SOL    HW2  315   1.226   2.059   0.736  1.5095 -2.1308  1.1675
  106SOL     OW  316   2.129   0.348   1.421 -0.1795 -0.2144  0.8030
  106SOL    HW1  317   2.111   0.250   1.444 -2.8229 -0.1592 -0.3024
  106SOL    HW2  318   2.121   0.409   1.501 -1.6783 -0.4175 -0.1255
  107SOL     OW  319   1.913   2.941   1.232  0.1439 -0.1007 -0.2554
  107SOL    HW1  320   1.849   3.027   1.238  0.7228  0.3991  0.2637
  107SOL    HW2  321   1.865   2.855   1.195 -0.5741  1.1848  0.9747
  108SOL     OW  322   0.824   2.806   1.249  0.6799  0.0075 -0.5349
  108SOL    HW1  323   0.873   2.724   1.289  0.5513  0.8511 -1.4541
  108SOL    HW2  324   0.888   2.876   1.214 -1.9342  1.5524  1.3471
  109SOL     OW  325   2.117   0.136   0.748  0.6008  0.1864 -0.0242
  109SOL    HW1  326   2.016   0.126   0.716  0.8050 -1.1986 -1.1904
  109SOL    HW2  327   2.126   0.122   0.851  0.1159  0.2146  0.0220
  110SOL     OW  328   0.458   2.797   2.768 -0.5551 -0.0436  0.5364
  110SOL    HW1  329   0.430   2.773   2.670 -0.8117 -0.5441 -1.6438
  110SOL    HW2  330   0.525   2.726   2.811 -3.4726 -0.9746 -0.8862
  111SOL     OW  331   1.259   0.463   2.334  0.1336 -0.0109 -0.5392
  111SOL    HW1  332   1.182   0.504   2.393  0.7519 -1.3368 -1.3904
  111SOL    HW2  333   1.330   0.412   2.395  0.9562 -2.2626  1.3407
  112SOL     OW  334   1.767   0.471   1.494 -0.0973 -0.2389  0.0541
  112SOL    HW1  335   1.721   0.456   1.401  0.7212  0.2240  0.3727
  112SOL    HW2  336   1.704   0.456   1.575  4.3011  1.5450 -0.3497
  113SOL     OW  337   2.365   1.626   1.731 -1.0681  0.4205 -0.5824
  113SOL    HW1  338   2.413   1.536   1.742  0.5284 -0.4183 -0.7352
  113SOL    HW2  339   2.382   1.688   1.811 -0.4109  0.8813  2.1187
  114SOL     OW  340   0.333   0.556   1.212 -0.1402  0.4262 -0.1442
  114SOL    HW1  341   0.388   0.621   1.154  0.5469  1.9578  1.3099
  114SOL    HW2  342   0.247   0.605   1.241  2.5385 -1.8896 -3.4182
  115SOL     OW  343   2.763   1.613   1.279  0.4765 -0.3213  0.8692
  115SOL    HW1  344   2.704   1.522   1.285 -1.9617 -2.5321  1.1088
  115SOL    HW2  345   2.863   1.595   1.257 -0.7304  0.2344  1.7905
  116SOL     OW  346   1.821   1.037   0.629  0.3878 -0.3455  0.0875
  116SOL    HW1  347   1.735   0.987   0.629  1.6927 -0.5680 -0.1471
  116SOL    HW2  348   1.815   1.130   0.666 -2.8617 -1.2368  0.5054
  117SOL     OW  349   1.141   0.354   0.581 -0.0908 -0.4711 -0.0651
  117SOL    HW1  350   1.205   0.428   0.601  0.0439 -0.4912  0.3056
  117SOL    HW2  351   1.144   0.320   0.480  0.4096  0.8330  1.3726
  118SOL     OW  352   1.067   1.187   1.131 -0.1566  0.3294 -0.5180
  118SOL    HW1  353   1.037   1.112   1.199 -0.7574 -2.3496  0.7025
  118SOL    HW2  354   1.092   1.272   1.182  0.9555  0.5490  2.1182
  119SOL     OW  355   1.827   1.578   2.178  0.2568  0.1901  0.3984
  119SOL    HW1  356   1.787   1.673   2.192 -0.8053  0.9471 -1.0108
  119SOL    HW2  357   1.932   1.576   2.166  1.0515  1.3878 -0.0898
  120SOL     OW  358   2.897   2.845   0.231 -0.1347 -0.2731 -0.4959
  120SOL    HW1  359   2.979   2.805   0.176  0.6694 -0.7091  0.3119
  120SOL    HW2  360   2.816   2.777   0.232 -0.4948  2.6773  1.2536
  121SOL     OW  361   1.902   0.712   2.214 -0.5355 -0.3313 -0.1898
  121SOL    HW1  362   1.923   0.796   2.157 -1.1910  0.4403  1.9340
  121SOL    HW2  363   1.923   0.625   2.160 -0.8393  0.3093 -1.8573
  122SOL     OW  364   2.652   2.565   1.327 -0.4959 -0.2853 -0.0678
  122SOL    HW1  365   2.661   2.552   1.224 -0.4044  1.8297  1.4633
  122SOL    HW2  366   2.642   2.479   1.387  0.4392 -2.9824 -0.9423
  123SOL     OW  367   1.725   0.062   1.698 -0.4387  0.6940 -0.2357
  123SOL    HW1  368   1.770  -0.011   1.642 -0.3439  1.2862 -0.2828
  123SOL    HW2  369   1.795   0.100   1.771  3.4290 -0.1965  3.5253
  124SOL     OW  370   0.014   0.436   1.080 -0.3742 -0.1822 -0.4462
  124SOL    HW1  371   0.009   0.512   1.155 -2.0258  0.4088  2.5671
  124SOL    HW2  372   0.023   0.480   0.986 -1.5205 -1.7039 -0.2835
  125SOL     OW  373   0.909   1.918   0.749 -0.1181  0.6050  0.2296
  125SOL    HW1  374   0.984   1.843   0.753  0.2571 -0.5418 -0.4384
  125SOL    HW2  375   0.825   1.894   0.800  1.6101  2.6648 -1.2782
  126SOL     OW  376   1.848   2.282   2.408  0.7631  0.0889 -0.1353
  126SOL    HW1  377   1.922   2.250   2.340 -1.7740 -0.9145 -1.7049
  126SOL    HW2  378   1.799   2.197   2.435  0.9061 -0.1865  0.5517
  127SOL     OW  379   0.920   0.954   0.184 -0.3393 -0.1804  0.5529
  127SOL    HW1  380   0.945   0.990   0.279  1.7871 -1.6636 -0.6643
  127SOL    HW2  381   0.910   0.854   0.183  2.4012  0.4743  0.1217
  128SOL     OW  382   0.920   0.279   1.421  0.2322 -0.0225  0.0411
  128SOL    HW1  383   0.910   0.339   1.338  2.2310 -1.0531  0.2909
  128SOL    HW2  384   0.885   0.185   1.401  3.7197  3.3231  3.4547
  129SOL     OW  385   1.858   0.674   1.857 -0.1225  0.2090 -0.3820
  129SOL    HW1  386   1.873   0.685   1.760 -0.8073 -1.0159  0.7845
  129SOL    HW2  387   1.888   0.756   1.911 -1.0768  2.8062 -1.2063
  130SOL     OW  388   1.426   2.159   1.022  0.3003  0.4039 -0.4529
  130SOL    HW1  389   1.362   2.111   0.953  1.6879  0.8874  0.3000
  130SOL    HW2  390   1.495   2.223   0.981 -0.0652 -1.3793  0.6839
  131SOL     OW  391   3.025   1.339   1.382 -0.1496 -0.3689 -0.2269
  131SOL    HW1  392   2.986   1.256   1.438 -1.2383  0.9581 -0.0194
  131SOL    HW2  393   3.131   1.345   1.380 -0.9388  3.4513 -1.6431
  132SOL     OW  394   2.030   2.417   0.460 -0.2774 -0.1816 -0.0945
  132SOL    HW1  395   1.941   2.459   0.484  1.5338 -0.4299  1.7379
  132SOL    HW2  396   2.039   2.318   0.498  0.6914  0.0544  0.1965
  133SOL     OW  397   1.749   2.352   2.718 -0.3395  0.4010 -0.4223
  133SOL    HW1  398   1.660   2.387   2.676  2.5279  4.0561  0.7464
  133SOL    HW2  399   1.825   2.419   2.704 -1.2283 -1.3819  2.9266
  134SOL     OW  400   2.676   2.283   1.599 -0.2369  0.7237  0.2959
  134SOL    HW1  401   2.596   2.313   1.659 -1.8663 -1.0004 -0.3517
  134SOL    HW2  402   2.761   2.342   1.613  1.1333 -0.0238 -0.1815
  135SOL     OW  403   0.723   1.474   2.665 -0.0311  0.2081 -0.2828
  135SOL    HW1  404   0.723   1.392   2.726  0.5225  1.3587  0.7296
  135SOL    HW2  405   0.716   1.456   2.560 -0.3044 -1.7482 -1.9892
  136SOL     OW  406   1.230   2.029   0.492  0.1074  0.1784  0.2156
  136SOL    HW1  407   1.178   2.117   0.489  1.6669 -0.9264 -1.0221
  136SOL    HW2  408   1.172   1.955   0.446  1.0895 -0.9186 -0.5855
  137SOL     OW  409   0.429   1.200   2.248  0.5067  0.0241  0.0573
  137SOL    HW1  410   0.335   1.173   2.208 -3.2893  1.3482 -0.6080
  137SOL    HW2  411   0.497   1.129   2.228 -1.8342  0.4836 -1.9691
  138SOL     OW  412   2.507   1.498   0.269 -0.0292  0.0244  0.0403
  138SOL    HW1  413   2.417   1.444   0.275 -1.0033 -2.6693  0.1698
  138SOL    HW2  414   2.584   1.454   0.325  1.1080 -1.0901  1.7960
  139SOL     OW  415   1.909   2.615   1.482 -0.5140 -0.0946  0.5364
  139SOL    HW1  416   1.812   2.652   1.471  0.3171 -1.1805  2.0568
  139SOL    HW2  417   1.920   2.521   1.438 -0.4855  2.0803  1.0710
  140SOL     OW  418   3.018   2.986   2.545 -0.2520 -0.4695  0.2742
  140SOL    HW1  419   3.071   2.902   2.558 -1.6807 -0.0398 -2.0559
  140SOL    HW2  420   3.073   3.066   2.513 -0.9860 -1.3589 -0.7625
  141SOL     OW  421   1.314   1.704   1.645  0.0778 -0.1074 -0.2742
  141SOL    HW1  422   1.231   1.761   1.627  0.3535 -0.6415 -2.0050
  141SOL    HW2  423   1.289   1.613   1.688  1.4910 -0.6839 -3.2100
  142SOL     OW  424   1.539   0.581   2.247 -0.4562  0.0007  0.2084
  142SOL    HW1  425   1.590   0.562   2.159  1.6150  0.5283  0.9515
  142SOL    HW2  426   1.441   0.547   2.260 -1.1883 -1.4988  1.4242
  143SOL     OW  427   2.780   0.903   0.503  0.0768 -0.0980 -0.3881
  143SOL    HW1  428   2.812   0.936   0.412  2.0128 -1.2703 -0.0851
  143SOL    HW2  429   2.846   0.918   0.583  2.9270  1.2985  1.5757
  144SOL     OW  430   2.899   1.148   1.513 -0.1926 -0.4893  0.1516
  144SOL    HW1  431   2.868   1.160   1.609  1.3457  2.1469 -1.2346
  144SOL    HW2  432   2.954   1.061   1.498 -0.3905  2.2342  1.0273
  145SOL     OW  433   1.012   1.801   0.114 -0.2366  0.1879 -0.1558
  145SOL    HW1  434   1.027   1.841   0.021 -3.4642  0.3872  1.9563
  145SOL    HW2  435   0.972   1.706   0.110  1.5566  0.5278  0.5305
  146SOL     OW  436   2.444   0.661   1.498 -0.1546 -0.0144 -0.5592
  146SOL    HW1  437   2.427   0.575   1.443 -0.4769 -0.5913 -0.8461
  146SOL    HW2  438   2.393   0.741   1.464  0.8488  0.1264  1.1189
  147SOL     OW  439   1.083   2.564   0.594 -0.6520 -0.5316 -0.9996
  147SOL    HW1  440   1.046   2.612   0.510  0.8913  1.0645 -0.2528
  147SOL    HW2  441   1.172   2.520   0.580  0.6233  0.2753  2.3294
  148SOL     OW  442   1.625   1.439   0.010 -0.3240 -0.2405  0.0028
  148SOL    HW1  443   1.619   1.366  -0.063  2.0901 -1.1415 -0.1836
  148SOL    HW2  444   1.617   1.404   0.108  2.2579  0.4193 -0.0600
  149SOL     OW  445   0.636   1.464   1.930 -0.3923 -0.2296  0.5090
  149SOL    HW1  446   0.548   1.409   1.937  0.1607 -0.1088  1.0211
  149SOL    HW2  447   0.695   1.427   1.848 -2.4050 -0.2908  0.2865
  150SOL     OW  448   3.016   1.230   0.993 -0.1834  0.2354 -0.1103
  150SOL    HW1  449   3.105   1.238   1.047 -0.7551 -2.8434  2.1049
  150SOL    HW2  450   2.974   1.137   0.991 -0.8871  0.6015  1.5457
  151SOL     OW  451   0.182   0.722   2.088  0.3586  0.8231 -0.6416
  151SOL    HW1  452   0.206   0.797   2.021  0.0379  0.8513  1.5233
  151SOL    HW2  453   0.239   0.636   2.073  2.0538  1.7726 -0.3936
  152SOL     OW  454   1.466   1.786   1.163 -0.0233  0.3175  0.1119
  152SOL    HW1  455   1.497   1.875   1.198  2.2022  1.0896  0.4188
  152SOL    HW2  456   1.367   1.792   1.127  0.5135  1.8742  0.2723
  153SOL     OW  457   0.166   1.542   0.227  0.3224 -0.8751  0.1973
  153SOL    HW1  458   0.124   1.448   0.214  0.9297  0.6223  1.5193
  153SOL    HW2  459   0.139   1.590   0.319 -1.6773  0.0169 -0.9298
  154SOL     OW  460   2.362   1.909   2.832 -0.0610 -0.3322 -0.2395
  154SOL    HW1  461   2.396   1.814   2.845 -3.6485  1.2510  0.8233
  154SOL    HW2  462   2.421   1.957   2.759  2.4091 -1.9801 -1.0486
  155SOL     OW  463   2.524   1.157   0.408  0.0815  1.2275  0.1614
  155SOL    HW1  464   2.579   1.156   0.321  0.3588 -0.3568  1.9911
  155SOL    HW2  465   2.439   1.104   0.395 -0.7834  0.1925 -0.6536
  156SOL     OW  466   2.471   0.835   0.739  0.2510 -0.2487 -0.1411
  156SOL    HW1  467   2.384   0.886   0.733 -0.5672 -0.0765  0.1752
  156SOL    HW2  468   2.547   0.898   0.707 -0.1063  0.1274  0.5471
  157SOL     OW  469   1.232   3.005   2.987  0.5464  0.0962 -0.4784
  157SOL    HW1  470   1.322   2.968   2.943 -0.4974  1.5470  2.0790
  157SOL    HW2  471   1.239   3.105   3.007 -0.7508  0.5744  2.0222
  158SOL     OW  472   0.977   1.863   1.853 -0.2625  0.0705 -0.8393
  158SOL    HW1  473   0.996   1.953   1.805 -1.0379  0.3611  0.6017
  158SOL    HW2  474   0.893   1.866   1.916  0.2087  1.8371 -0.0776
  159SOL     OW  475   0.874   0.445   1.200 -1.0044 -0.1938  0.4923
  159SOL    HW1  476   0.805   0.511   1.236  4.1142 -1.4674 -1.7339
  159SOL    HW2  477   0.829   0.371   1.143  0.4777 -0.6911 -0.7307
  160SOL     OW  478   1.363   2.451   1.565  0.0443 -0.1406 -0.1030
  160SOL    HW1  479   1.327   2.377   1.632 -2.0764  1.9608 -0.4396
  160SOL    HW2  480   1.465   2.448   1.564 -2.9320 -1.4070 -2.6342
  161SOL     OW  481   3.072   2.830   0.457 -0.2433 -1.1910 -0.2976
  161SOL    HW1  482   3.048   2.788   0.550 -3.1161  0.0658  2.9466
  161SOL    HW2  483   2.996   2.798   0.386 -4.4870 -2.2906 -0.1002
  162SOL     OW  484   2.576   1.828   0.483 -0.3464  0.0685 -0.4435
  162SOL    HW1  485   2.542   1.792   0.393 -0.7343 -2.2437  1.1515
  162SOL    HW2  486   2.646   1.776   0.532 -1.0011  0.1145 -1.4515
  163SOL     OW  487   1.966   2.705   0.724 -0.0010 -0.5885  0.0698
  163SOL    HW1  488   1.954   2.749   0.632 -1.0717 -0.5029 -0.8329
  163SOL    HW2  489   2.041   2.633   0.718 -1.4709  0.0244 -0.2718
  164SOL     OW  490   3.077   0.227   1.278  0.2196  1.2162 -0.2188
  164SOL    HW1  491   3.118   0.303   1.216  1.8793 -1.0520  1.9938
  164SOL    HW2  492   3.136   0.201   1.364  0.5173  0.5134 -1.2735
  165SOL     OW  493   1.036   1.405   0.735  0.4807  0.2074 -0.4633
  165SOL    HW1  494   1.067   1.436   0.830  1.4981 -1.2273  0.5130
  165SOL    HW2  495   0.987   1.478   0.685  0.6796 -1.9770 -1.6212
  166SOL     OW  496   1.596   1.006   1.795 -0.3022  0.1980 -0.2423
  166SOL    HW1  497   1.499   1.026   1.824  0.9266 -1.0576 -1.2838
  166SOL    HW2  498   1.642   1.096   1.799 -2.0686 -0.4454 -1.6273
  167SOL     OW  499   0.741   1.970   1.450  0.1365 -0.4112 -0.2108
  167SOL    HW1  500   0.763   2.026   1.539 -0.0658  0.6530 -0.7193
  167SOL    HW2  501   0.695   1.877   1.475  0.1073  1.5881 -0.8228
  168SOL     OW  502   1.606   2.341   0.187 -0.0828 -0.2680  0.4969
  168SOL    HW1  503   1.679   2.352   0.112 -0.2242  0.0880  1.7522
  168SOL    HW2  504   1.656   2.298   0.269  2.3861  1.3290 -1.2497
  169SOL     OW  505   0.178   2.564   2.242 -0.4048  0.0193  0.1513
  169SOL    HW1  506   0.199   2.489   2.170 -2.0896  0.9096 -1.1296
  169SOL    HW2  507   0.197   2.524   2.335  0.2913 -3.2159 -0.7842
  170SOL     OW  508   1.104   0.253   2.011 -0.2533  0.0673  0.1305
  170SOL    HW1  509   1.168   0.212   2.082  0.5611 -0.4186  0.3117
  170SOL    HW2  510   1.118   0.220   1.918 -0.0460  3.2180 -0.3038
  171SOL     OW  511   0.183   0.802   2.372  0.6936  0.2169  0.1889
  171SOL    HW1  512   0.102   0.819   2.436 -0.4472  0.2652  1.4645
  171SOL    HW2  513   0.161   0.785   2.276  0.6258  1.1879 -0.9329
  172SOL     OW  514   0.997   0.986   2.895  0.1856  0.1321  0.3822
  172SOL    HW1  515   0.955   1.051   2.966  0.5981 -1.4010  1.9232
  172SOL    HW2  516   0.921   0.931   2.843  1.0930  0.7515 -1.0438
  173SOL     OW  517   0.540   2.505   0.116 -0.6971 -0.6834 -0.0526
  173SOL    HW1  518   0.540   2.407   0.082  1.0625  0.1996  1.7936
  173SOL    HW2  519   0.454   2.560   0.127  2.3067 -1.3726  0.3928
  174SOL     OW  520   1.508   2.819   1.033 -0.7610  0.2743  0.5319
  174SOL    HW1  521   1.556   2.885   0.963  2.2958  0.2061 -1.2285
  174SOL    HW2  522   1.464   2.745   0.982  2.5119  1.9990  2.7059
  175SOL     OW  523   0.466   3.041   1.706 -0.3079 -0.3726 -0.3442
  175SOL    HW1  524   0.529   2.993   1.776  0.3205 -0.1206 -1.5847
  175SOL    HW2  525   0.436   3.137   1.737 -0.9099 -1.5311 -1.2386
  176SOL     OW  526   2.549   0.380   0.013  0.3388 -0.1818 -0.4735
  176SOL    HW1  527   2.557   0.471   0.063  0.9163  2.7148  0.2416
  176SOL    HW2  528   2.486   0.312   0.050  0.8069 -1.1310 -0.1611
  177SOL     OW  529   0.297   0.298   0.938 -0.0732 -0.5421  0.0358
  177SOL    HW1  530   0.318   0.196   0.945  0.0432  0.1840 -0.1933
  177SOL    HW2  531   0.242   0.322   1.021  1.9371 -1.2164  1.5969
  178SOL     OW  532   0.029   2.728   2.607 -0.4864 -0.1232  0.1698
  178SOL    HW1  533   0.005   2.630   2.571 -0.0132 -1.0534 -0.7542
  178SOL    HW2  534   0.110   2.723   2.670  1.2297  0.2711  0.2004
  179SOL     OW  535   3.028   1.565   1.154  0.3199 -0.3851 -0.3355
  179SOL    HW1  536   3.078   1.534   1.070 -0.1404  0.4929  1.5645
  179SOL    HW2  537   3.070   1.529   1.242  0.4486  0.6788  1.9054
  180SOL     OW  538   0.200   1.302   1.800  0.5505 -0.1356  0.0398
  180SOL    HW1  539   0.284   1.250   1.830  0.1901  1.7272 -0.4676
  180SOL    HW2  540   0.162   1.373   1.860 -0.1835  0.7735  0.2316
  181SOL     OW  541   3.050   1.923   2.504 -0.3151  0.1866  0.6977
  181SOL    HW1  542   3.124   1.985   2.479 -0.4530 -0.7355  2.9708
  181SOL    HW2  543   2.978   1.894   2.431 -1.6963 -1.3370  1.2626
  182SOL     OW  544   2.338   1.221   1.228  0.1560  0.0655  0.3636
  182SOL    HW1  545   2.248   1.184   1.186 -4.2413  2.9093 -1.9568
  182SOL    HW2  546   2.364   1.321   1.199  0.5470 -0.2993 -0.5848
  183SOL     OW  547   1.420   2.247   2.539  0.1797 -0.6190 -0.0918
  183SOL    HW1  548   1.339   2.194   2.583 -1.6036  1.1598 -0.4886
  183SOL    HW2  549   1.487   2.186   2.494  1.6443  0.8580  0.0212
  184SOL     OW  550   2.060   0.941   0.728  0.5566 -0.3909 -0.1657
  184SOL    HW1  551   1.971   0.979   0.701  3.4534 -0.6666  0.4550
  184SOL    HW2  552   2.049   0.839   0.729 -2.3857  0.2530  0.5810
  185SOL     OW  553   1.573   2.735   1.966 -0.1755 -0.0212  0.4484
  185SOL    HW1  554   1.488   2.796   1.969 -0.5258  0.6421  0.2511
  185SOL    HW2  555   1.626   2.733   2.056  0.8949  0.0920  1.7471
  186SOL     OW  556   0.099   2.211   1.631 -0.1762  0.0666  0.0481
  186SOL    HW1  557   0.086   2.263   1.717  0.2915  0.7846 -0.2998
  186SOL    HW2  558   0.176   2.140   1.629 -2.5224 -0.1850 -2.7272
  187SOL     OW  559   1.392   0.635   1.657  0.1134 -0.3655  0.0219
  187SOL    HW1  560   1.483   0.679   1.639  2.6630  1.5457  1.3703
  187SOL    HW2  561   1.407   0.557   1.723  1.2984 -2.0435 -1.2633
  188SOL     OW  562   2.845   2.757   1.479  0.4165 -0.3096  0.2995
  188SOL    HW1  563   2.830   2.854   1.460 -1.5514 -1.1320  0.2338
  188SOL    HW2  564   2.775   2.697   1.429 -1.1957  1.1936  1.4330
  189SOL     OW  565   0.868   1.215   1.425 -0.2873 -0.5663 -0.1672
  189SOL    HW1  566   0.932   1.264   1.487 -1.5171  1.8261 -2.4264
  189SOL    HW2  567   0.780   1.271   1.418 -0.3436  0.2221  1.8717
  190SOL     OW  568   1.476   1.914   1.588  0.2901 -0.3353  0.0259
  190SOL    HW1  569   1.447   1.817   1.573  1.7152  0.3634 -2.5363
  190SOL    HW2  570   1.479   1.924   1.690 -1.1995 -0.9567 -2.6963
  191SOL     OW  571   0.929   0.766   1.496  0.3350  0.4075  0.0494
  191SOL    HW1  572   0.984   0.706   1.563  0.1817 -2.0861 -1.5386
  191SOL    HW2  573   0.982   0.817   1.421 -0.1415 -1.4268 -0.0273
  192SOL     OW  574   1.838   2.359   1.116  0.2561  0.6554 -0.2553
  192SOL    HW1  575   1.745   2.360   1.068 -1.8321  0.2563  2.0165
  192SOL    HW2  576   1.919   2.355   1.051 -0.5036  0.0283  1.8791
  193SOL     OW  577   0.515   0.503   0.406  0.4942  0.3636 -0.4984
  193SOL    HW1  578   0.448   0.427   0.425  0.2681 -0.6475  0.6338
  193SOL    HW2  579   0.586   0.481   0.327  0.6306 -1.0135 -0.9930
  194SOL     OW  580   0.339   0.911   1.320 -0.6030 -0.1487 -0.2632
  194SOL    HW1  581   0.273   0.832   1.335 -0.8559  0.5177  0.7176
  194SOL    HW2  582   0.344   0.942   1.219  1.2758 -1.6527 -2.5723
  195SOL     OW  583   1.009   2.904   0.537 -0.1300  0.0072 -0.4731
  195SOL    HW1  584   0.964   2.825   0.488  1.6250  0.8558 -2.0482
  195SOL    HW2  585   1.098   2.926   0.492 -2.5493 -3.6354 -1.7116
  196SOL     OW  586   0.197   1.363   1.356  0.3724 -0.2040 -0.4081
  196SOL    HW1  587   0.236   1.453   1.395 -1.9227 -0.9482  0.8467
  196SOL    HW2  588   0.204   1.287   1.429 -0.2493 -1.6895 -1.3025
  197SOL     OW  589   0.812   2.029   0.249 -0.0878  0.0341 -0.1412
  197SOL    HW1  590   0.863   2.017   0.342 -0.2176 -0.8933  2.5539
  197SOL    HW2  591   0.813   1.941   0.196  1.2562 -2.2389  2.8557
  198SOL     OW  592   0.344   1.260   0.350  0.4532 -0.3072 -0.1887
  198SOL    HW1  593   0.249   1.263   0.307 -2.3701 -0.0994 -0.0789
  198SOL    HW2  594   0.372   1.356   0.389 -0.1129  2.8689 -1.8291
  199SOL     OW  595   2.293   0.446   2.589  0.0589  0.0516  0.2454
  199SOL    HW1  596   2.220   0.396   2.642  3.3811  1.3095 -1.9824
  199SOL    HW2  597   2.389   0.412   2.619 -0.0561  1.1847  0.0983
  200SOL     OW  598   3.084   2.976   0.732  0.1838  0.6593 -0.1010
  200SOL    HW1  599   3.108   3.055   0.798  2.1855  0.8827  0.4534
  200SOL    HW2  600   2.993   2.984   0.677 -1.1019  0.4605  0.3466
  201SOL     OW  601   1.010   0.690   0.524 -0.4080  0.1342 -0.2429
  201SOL    HW1  602   1.008   0.755   0.605 -0.3619 -1.6774 -1.2697
  201SOL    HW2  603   0.922   0.639   0.530 -1.8862  2.8576  1.1083
  202SOL     OW  604   0.420   1.163   1.902 -0.2661  0.7819 -0.8791
  202SOL    HW1  605   0.515   1.118   1.885  3.0305  0.6989  0.0617
  202SOL    HW2  606   0.432   1.234   1.976  2.7890  0.3631  0.8285
  203SOL     OW  607   0.611   0.180   1.505 -0.9741 -0.2697  0.4100
  203SOL    HW1  608   0.664   0.151   1.418  0.0126 -0.1913  0.5605
  203SOL    HW2  609   0.672   0.178   1.594  2.2750 -1.8685 -1.1974
  204SOL     OW  610   2.114   1.811   2.937  0.7212 -0.1010  0.1173
  204SOL    HW1  611   2.082   1.716   2.905 -1.7529  0.5693  3.0821
  204SOL    HW2  612   2.190   1.856   2.888 -2.9658 -0.0048  2.0380
  205SOL     OW  613   1.840   1.832   3.038 -0.3505  0.5690 -0.4958
  205SOL    HW1  614   1.942   1.829   3.008  0.8693  1.2104  1.6214
  205SOL    HW2  615   1.792   1.923   3.021  0.5775  0.2748  0.9992
  206SOL     OW  616   2.413   2.813   0.360  0.0097  0.0085  0.5296
  206SOL    HW1  617   2.467   2.741   0.408 -0.5427  1.4049 -0.0176
  206SOL    HW2  618   2.470   2.887   0.324 -0.8875 -0.3338 -1.1891
  207SOL     OW  619   0.684   1.790   2.951  0.0562 -0.2205  0.1632
  207SOL    HW1  620   0.760   1.740   2.899 -1.9910 -3.0507  0.7826
  207SOL    HW2  621   0.662   1.741   3.040  0.2192  2.3339 -0.8286
  208SOL     OW  622   1.167   1.648   1.344  0.0498  0.3170 -0.1115
  208SOL    HW1  623   1.181   1.721   1.268  0.0097  1.0674  0.5506
  208SOL    HW2  624   1.138   1.689   1.432  1.3698 -1.4459  0.4270
  209SOL     OW  625   0.258   0.960   3.083 -0.0928  0.3944 -0.0070
  209SOL    HW1  626   0.236   0.878   3.027  1.2647  0.0195 -0.1040
  209SOL    HW2  627   0.254   0.931   3.183  2.7412 -1.6192  2.0618
  210SOL     OW  628   1.700   0.499   1.195 -0.2213 -0.3335  0.5491
  210SOL    HW1  629   1.668   0.590   1.168  1.3076 -2.1428  0.3815
  210SOL    HW2  630   1.805   0.497   1.184 -0.2264  3.2393  1.1530
  211SOL     OW  631   2.087   1.003   1.593 -0.5177 -0.2513 -0.2340
  211SOL    HW1  632   2.105   0.945   1.679  0.4081 -1.9472  1.2436
  211SOL    HW2  633   2.168   1.061   1.570 -1.2859  2.2847 -1.8462
  212SOL     OW  634  -0.000   0.987   1.518  0.3690 -0.1722  0.1629
  212SOL    HW1  635   0.057   1.070   1.545  1.2428 -1.5224  0.4625
  212SOL    HW2  636   0.032   0.897   1.561 -1.7045  0.2235  0.8499
  213SOL     OW  637   2.710   0.156   0.369 -0.4431 -0.1040 -0.3818
  213SOL    HW1  638   2.782   0.097   0.312  2.4322 -1.1867 -1.2665
  213SOL    HW2  639   2.613   0.137   0.345 -3.0684  0.6912 -0.9012
  214SOL     OW  640   2.194   0.326   2.334 -0.0466  0.7107  0.3432
  214SOL    HW1  641   2.205   0.361   2.430  0.9617 -1.7728  2.2171
  214SOL    HW2  642   2.198   0.220   2.340 -3.0300 -0.2716 -0.7886
  215SOL     OW  643   1.628   2.275   2.095  0.1089 -0.8239  0.2777
  215SOL    HW1  644   1.720   2.308   2.062 -0.8857  0.8347 -1.0048
  215SOL    HW2  645   1.568   2.352   2.130 -1.3930 -0.7434  0.8403
  216SOL     OW  646   2.232   0.629   0.680 -0.0034 -0.5102  0.6012
  216SOL    HW1  647   2.213   0.541   0.633  4.3605  2.2313  0.8837
  216SOL    HW2  648   2.271   0.699   0.614  0.1833 -2.7640  0.4490
  217SOL     OW  649   0.785   2.800   2.447  0.1577  0.6035  0.2028
  217SOL    HW1  650   0.723   2.741   2.501  0.3372  1.7769  0.7521
  217SOL    HW2  651   0.767   2.799   2.343  2.9069 -0.7122 -0.3881
  218SOL     OW  652   1.906   1.454   0.048  0.3721  0.1523  0.2521
  218SOL    HW1  653   1.811   1.459   0.001  0.2109  2.7817  0.9727
  218SOL    HW2  654   1.908   1.388   0.130  1.6674  3.0877 -0.7819
  219SOL     OW  655   2.447   1.296   2.503 -0.2169 -0.0158 -0.1693
  219SOL    HW1  656   2.512   1.269   2.429  1.0225 -2.6500 -0.3148
  219SOL    HW2  657   2.458   1.243   2.591  0.5427  1.1049  0.5033
  220SOL     OW  658   1.450   1.019   1.327  0.0084 -0.4917  0.1335
  220SOL    HW1  659   1.548   0.979   1.332 -1.0518 -0.1473 -0.5611
  220SOL    HW2  660   1.424   1.058   1.234  0.2564 -1.7543 -0.0538
  221SOL     OW  661   1.284   0.995   2.178  0.2129 -0.1760 -0.0046
  221SOL    HW1  662   1.242   1.040   2.095  0.1994  3.1498  3.0102
  221SOL    HW2  663   1.382   1.023   2.183  0.6982  2.2780 -0.6752
  222SOL     OW  664   1.135   0.104   1.202 -0.1721  0.2668  0.1536
  222SOL    HW1  665   1.049   0.138   1.250  0.0277 -0.6249 -0.5421
  222SOL    HW2  666   1.163   0.159   1.119  0.9909 -3.7663 -1.5443
  223SOL     OW  667   2.707   0.941   2.142 -0.0411  0.3546  0.0719
  223SOL    HW1  668   2.681   1.029   2.190  1.1649 -0.6488  0.6092
  223SOL    HW2  669   2.798   0.901   2.169  0.4701  0.1510  0.7145
  224SOL     OW  670   1.492   1.074   2.723 -0.6180  0.4207 -0.5236
  224SOL    HW1  671   1.547   0.986   2.701 -0.1082 -2.6988  1.0250
  224SOL    HW2  672   1.456   1.122   2.644  2.0240 -0.1385  2.6585
  225SOL     OW  673   2.972   2.711   2.892  0.1552  0.1008  0.5898
  225SOL    HW1  674   2.887   2.695   2.829 -4.1376 -0.8338 -0.0153
  225SOL    HW2  675   3.051   2.754   2.844 -0.5977  0.9579 -1.2079
  226SOL     OW  676   2.420   1.633   2.881 -1.1940  0.1447 -0.8855
  226SOL    HW1  677   2.450   1.597   2.783  3.2955  0.1404  1.9657
  226SOL    HW2  678   2.374   1.557   2.936 -2.0961 -0.1697  1.9243
  227SOL     OW  679   0.829   0.193   3.076  0.1242  0.2039 -0.5743
  227SOL    HW1  680   0.871   0.287   3.045  1.1394  0.2878 -1.3593
  227SOL    HW2  681   0.792   0.143   2.988 -0.9123  1.1450 -0.8858
  228SOL     OW  682   2.454   0.571   2.862  0.0512  0.1866 -0.2895
  228SOL    HW1  683   2.458   0.645   2.781  1.1859  2.3340 -1.3682
  228SOL    HW2  684   2.535   0.507   2.861  2.5381 -0.9143 -1.7111
  229SOL     OW  685   0.573   0.478   1.811  0.3352 -0.6390 -0.1159
  229SOL    HW1  686   0.561   0.380   1.841  0.3308 -2.5855 -1.2472
  229SOL    HW2  687   0.604   0.481   1.710 -1.5514 -4.1119  0.1454
  230SOL     OW  688   1.923   1.166   2.055 -0.1772  0.3390 -0.6293
  230SOL    HW1  689   1.981   1.247   2.019 -0.7784 -0.9751 -1.0906
  230SOL    HW2  690   1.836   1.197   2.104 -0.5006  1.2656 -1.6006
  231SOL     OW  691   0.620   1.045   0.023 -0.6273  0.0913 -0.2283
  231SOL    HW1  692   0.710   1.098   0.034  1.4755  2.7232 -0.8062
  231SOL    HW2  693   0.540   1.105   0.044  1.6530 -1.6508  1.2909
  232SOL     OW  694   2.438   3.069   2.868 -0.5058 -0.4963 -0.0220
  232SOL    HW1  695   2.495   2.980   2.871  1.1836  1.1665 -0.6128
  232SOL    HW2  696   2.482   3.132   2.796 -2.4963 -0.4571  0.2386
  233SOL     OW  697   1.776   1.216   1.146  0.5444  0.6872  0.3154
  233SOL    HW1  698   1.814   1.153   1.074 -1.0787 -0.6617  2.4457
  233SOL    HW2  699   1.783   1.171   1.238  0.5693  1.6047  2.0067
  234SOL     OW  700   1.591   2.475   1.837  0.0799  0.2597  0.1963
  234SOL    HW1  701   1.597   2.558   1.894  2.2446 -1.2493  0.5437
  234SOL    HW2  702   1.547   2.396   1.887 -0.4774 -2.5443 -1.0221
  235SOL     OW  703   3.102   3.038   2.807  0.5271  0.1931  0.4357
  235SOL    HW1  704   3.060   3.029   2.708  0.5341 -0.4456 -0.2133
  235SOL    HW2  705   3.037   3.056   2.886  1.8249 -3.3678 -0.6209
  236SOL     OW  706   2.877   0.744   0.051  0.2541 -0.1490 -0.0586
  236SOL    HW1  707   2.940   0.756   0.137 -1.2448 -1.9681  1.0228
  236SOL    HW2  708   2.895   0.655   0.006 -0.8753  2.8307 -0.0959
  237SOL     OW  709   1.553   1.631   0.965 -0.3344  0.0563 -0.1227
  237SOL    HW1  710   1.651   1.599   0.962  0.5035 -0.6142  1.2967
  237SOL    HW2  711   1.531   1.706   1.035 -2.1019 -2.0527 -1.7461
  238SOL     OW  712   1.841   1.261   0.779  1.2087  0.8626  0.0028
  238SOL    HW1  713   1.896   1.265   0.866  2.2418 -2.4823 -2.0895
  238SOL    HW2  714   1.756   1.327   0.774 -1.4457  1.7351 -0.5269
  239SOL     OW  715   2.110   0.290   2.741 -0.1376  0.0907 -0.4601
  239SOL    HW1  716   2.122   0.215   2.817 -0.9198 -2.2634  0.5331
  239SOL    HW2  717   2.035   0.360   2.758 -0.8978 -0.6284  0.5692
  240SOL     OW  718   0.935   0.684   0.246 -0.0500 -0.3415 -0.2905
  240SOL    HW1  719   0.962   0.587   0.215 -0.0389  2.4531 -1.5699
  240SOL    HW2  720   0.967   0.709   0.343  1.7435 -1.6831 -2.7036
  241SOL     OW  721   0.604   0.052   0.391 -0.0917  0.8615  0.2885
  241SOL    HW1  722   0.653   0.127   0.338  0.8104 -0.6772 -0.4520
  241SOL    HW2  723   0.607  -0.042   0.343 -1.7134 -1.7846 -2.4029
  242SOL     OW  724   0.594   2.485   1.145 -0.1778  0.5551 -0.5608
  242SOL    HW1  725   0.588   2.490   1.248  3.3411 -1.4555 -0.2913
  242SOL    HW2  726   0.606   2.580   1.107  1.0241  0.4260 -1.3180
  243SOL     OW  727   1.065   0.607   2.488 -0.4689  0.2978  0.2667
  243SOL    HW1  728   0.987   0.622   2.420  1.4035 -1.1913 -2.5006
  243SOL    HW2  729   1.041   0.553   2.573  1.5280  1.0287  0.2263
  244SOL     OW  730   2.827   1.861   2.354 -0.8395 -0.0468  0.1429
  244SOL    HW1  731   2.839   1.855   2.252  2.4564 -1.6784  0.6259
  244SOL    HW2  732   2.735   1.839   2.388 -2.6079  1.9853 -1.0739
  245SOL     OW  733   2.204   0.883   2.138  0.0946  0.2699  0.2051
  245SOL    HW1  734   2.279   0.881   2.204 -2.1801  0.6556 -1.7168
  245SOL    HW2  735   2.139   0.957   2.168  1.4939  1.7452  4.7268
  246SOL     OW  736   0.231   2.916   1.694 -0.0897  0.2527 -0.0343
  246SOL    HW1  737   0.173   2.917   1.610  1.4187 -1.1325 -3.5040
  246SOL    HW2  738   0.323   2.956   1.677 -0.2078 -2.0165  0.4164
  247SOL     OW  739   2.202   0.643   2.992  0.1116  0.2304 -0.1285
  247SOL    HW1  740   2.272   0.595   2.929 -0.6935 -0.5430 -2.2907
  247SOL    HW2  741   2.149   0.722   2.952 -0.7942  0.3151 -3.3760
  248SOL     OW  742   2.182   1.830   1.577  0.0986  0.0101 -0.3947
  248SOL    HW1  743   2.255   1.776   1.624 -1.5839  0.5582 -0.8604
  248SOL    HW2  744   2.096   1.852   1.638 -0.6312 -0.4842  3.3908
  249SOL     OW  745   1.896   1.962   1.920 -0.1975 -0.6628  0.0282
  249SOL    HW1  746   1.898   1.875   1.862  0.6490 -0.1180 -0.9012
  249SOL    HW2  747   1.992   2.007   1.932  0.1075 -1.2329  1.4606
  250SOL     OW  748   1.082   0.680   1.878  0.2880 -0.2263  0.5000
  250SOL    HW1  749   1.117   0.618   1.951  0.3945 -0.6780 -0.3928
  250SOL    HW2  750   1.086   0.637   1.783 -2.3080  0.8710 -1.6423
  251SOL     OW  751   3.099   1.658   2.540 -0.4589  0.7888 -0.3455
  251SOL    HW1  752   3.079   1.761   2.526 -2.1203  0.9180  0.0600
  251SOL    HW2  753   3.010   1.605   2.538 -0.0696 -1.7032 -0.9538
  252SOL     OW  754   1.611   0.796   1.640 -0.2904 -0.5175  0.8942
  252SOL    HW1  755   1.702   0.807   1.588  3.2582  0.3074  0.4494
  252SOL    HW2  756   1.606   0.872   1.713 -0.1957 -0.7537  3.4907
  253SOL     OW  757   0.995   1.576   0.509  0.5012 -0.1770 -1.3023
  253SOL    HW1  758   0.983   1.492   0.453 -1.5381  0.6696  1.7943
  253SOL    HW2  759   0.902   1.613   0.546 -0.2690  1.0082  0.3067
  254SOL     OW  760   2.039   2.172   1.631  0.3877  0.0883  0.6222
  254SOL    HW1  761   2.005   2.120   1.546 -2.3825  0.7406 -0.1084
  254SOL    HW2  762   1.961   2.207   1.691  1.5169  0.9686  0.0192
  255SOL     OW  763   0.137   1.155   2.923  0.0893  0.4339 -0.0061
  255SOL    HW1  764   0.193   1.240   2.904 -2.6159  0.8747 -0.3556
  255SOL    HW2  765   0.192   1.086   2.985  0.6377 -2.7866  1.2518
  256SOL     OW  766   2.874   1.426   1.790  0.3009  0.0886  0.2662
  256SOL    HW1  767   2.801   1.498   1.768  1.0616  0.9489  0.2396
  256SOL    HW2  768   2.838   1.335   1.817 -0.9925 -0.4316  2.2847
  257SOL     OW  769   0.774   0.140   1.707  0.3492  0.4688  0.1844
  257SOL    HW1  770   0.831   0.224   1.714 -1.6569  1.9218  0.4920
  257SOL    HW2  771   0.830   0.049   1.723  1.0465 -1.6512  1.4419
  258SOL     OW  772   3.012   1.219   0.437 -0.2180 -0.1244  0.5783
  258SOL    HW1  773   2.918   1.255   0.415  1.2008  0.5682 -2.7783
  258SOL    HW2  774   3.052   1.246   0.530  1.5884  2.4999  1.6853
  259SOL     OW  775   0.458   2.913   3.053 -0.4316 -0.2891  0.3078
  259SOL    HW1  776   0.381   2.861   3.101  3.4826  1.3341 -0.2402
  259SOL    HW2  777   0.493   2.868   2.968 -0.4002 -0.1859 -1.1577
  260SOL     OW  778   2.743   0.689   2.803  0.1740 -0.4994  0.1213
  260SOL    HW1  779   2.646   0.719   2.796  0.4152 -2.6257 -0.6998
  260SOL    HW2  780   2.762   0.592   2.829 -1.4981  0.3357 -2.6631
  261SOL     OW  781   2.682   1.350   1.305  0.5144 -0.4475 -0.2753
  261SOL    HW1  782   2.643   1.280   1.241 -1.5460 -0.5474  2.1636
  261SOL    HW2  783   2.779   1.329   1.338  0.6722 -0.5902  4.3782
  262SOL     OW  784   1.393   2.960   1.947 -0.0750 -0.1158 -0.5781
  262SOL    HW1  785   1.427   3.056   1.921  2.7338  0.0195 -0.6180
  262SOL    HW2  786   1.294   2.935   1.931  0.2534 -2.6289 -0.8074
  263SOL     OW  787   0.872   0.668   2.311  0.2020  0.3279 -0.8016
  263SOL    HW1  788   0.808   0.596   2.272  2.2127  2.2313 -1.7124
  263SOL    HW2  789   0.909   0.741   2.249  1.5594 -0.9085 -0.6825
  264SOL     OW  790   2.224   0.803   0.454 -0.1371 -0.0801 -0.5744
  264SOL    HW1  791   2.216   0.730   0.379 -0.0321  1.2955 -0.0921
  264SOL    HW2  792   2.321   0.843   0.470 -1.7957  0.7560 -3.7540
  265SOL     OW  793   0.932   2.462   2.636 -0.4220  0.2844  0.8462
  265SOL    HW1  794   0.983   2.510   2.717  1.6297  2.7776  1.3585
  265SOL    HW2  795   0.957   2.356   2.628  0.9758 -0.5682  1.6947
  266SOL     OW  796   1.335   1.814   3.018 -0.2265  0.7434 -0.2849
  266SOL    HW1  797   1.316   1.880   3.096 -1.7008  1.9364 -0.9991
  266SOL    HW2  798   1.427   1.771   3.039 -0.7377  1.1407  2.7050
  267SOL     OW  799   1.026   0.030   2.353 -0.5983  0.3799 -0.1020
  267SOL    HW1  800   0.979  -0.026   2.277  2.6924  2.8000 -1.9711
  267SOL    HW2  801   1.015   0.130   2.341  1.7463 -1.3570 -0.2322
  268SOL     OW  802   0.600   1.155   1.054  0.5176  0.3853  0.0632
  268SOL    HW1  803   0.652   1.153   1.146 -0.0745 -0.4360  1.7930
  268SOL    HW2  804   0.602   1.246   1.018  2.2382 -0.9542  0.9323
  269SOL     OW  805   2.289   2.539   1.617  0.4534 -0.3540  0.1775
  269SOL    HW1  806   2.380   2.489   1.631  2.9835 -0.5133 -1.6175
  269SOL    HW2  807   2.230   2.559   1.703 -1.5788 -1.8893  0.2544
  270SOL     OW  808   0.155   2.964   1.963  0.1212 -0.2873  0.0073
  270SOL    HW1  809   0.187   2.932   1.869  0.5581 -0.6995 -1.4064
  270SOL    HW2  810   0.074   2.908   1.998  1.0341 -1.9241  0.6539
  271SOL     OW  811   0.411   1.384   1.192 -0.0348 -0.2329 -0.1196
  271SOL    HW1  812   0.392   1.371   1.090  0.4010 -2.2476 -1.6023
  271SOL    HW2  813   0.326   1.367   1.246 -0.1432  1.0168  1.3810
  272SOL     OW  814   2.030   2.937   1.933  0.2583  0.5377 -0.0401
  272SOL    HW1  815   1.961   2.870   1.890 -2.5536  0.1019  1.3806
  272SOL    HW2  816   2.104   2.956   1.868 -3.9219 -0.6898  2.1300
  273SOL     OW  817   1.490   1.461   2.741  0.1024  0.1265  0.1186
  273SOL    HW1  818   1.389   1.443   2.764  0.0744 -0.2692 -2.7440
  273SOL    HW2  819   1.552   1.416   2.811 -1.9021 -0.5217 -0.6617
  274SOL     OW  820   1.190   0.501   2.070 -0.3273  0.3893 -0.1391
  274SOL    HW1  821   1.143   0.409   2.054 -0.7470  0.1232  2.5894
  274SOL    HW2  822   1.205   0.515   2.173  1.8655 -2.2295 -0.3109
  275SOL     OW  823   0.621   2.109   1.881  0.1493  0.7913 -0.0809
  275SOL    HW1  824   0.631   2.204   1.918  0.6750 -0.0924 -1.8793
  275SOL    HW2  825   0.529   2.064   1.905  1.3140  1.5892 -0.6278
  276SOL     OW  826   2.219   1.068   2.769  0.2114  0.7882  0.1704
  276SOL    HW1  827   2.143   1.114   2.713  0.5690 -1.1964 -1.7265
  276SOL    HW2  828   2.186   0.994   2.830 -0.3264  0.6970 -0.0162
  277SOL     OW  829   3.075   0.769   0.245  0.0777 -0.4591  0.0360
  277SOL    HW1  830   3.153   0.827   0.219  0.3342 -0.9459  0.9602
  277SOL    HW2  831   3.101   0.698   0.315 -0.4012 -1.3833  0.2462
  278SOL     OW  832   0.226   0.300   2.940 -0.5458 -0.0729 -0.6450
  278SOL    HW1  833   0.287   0.221   2.949 -0.2554  0.3712  1.4734
  278SOL    HW2  834   0.264   0.393   2.975 -3.5960  1.7943 -0.4199
  279SOL     OW  835   0.235   0.025   0.889  0.2637 -0.2203 -0.2745
  279SOL    HW1  836   0.236  -0.043   0.967 -0.4705 -1.9379 -0.2560
  279SOL    HW2  837   0.285  -0.007   0.804  0.2800  1.9682  1.2843
  280SOL     OW  838   1.600   2.934   2.412  0.2370  0.1931 -0.7828
  280SOL    HW1  839   1.667   2.986   2.464  1.0179 -2.9191 -0.5417
  280SOL    HW2  840   1.532   2.986   2.351 -0.0706  1.1198  0.3643
  281SOL     OW  841   0.593   0.962   2.292  0.0107  0.2507 -0.2772
  281SOL    HW1  842   0.598   0.886   2.226  1.0915 -1.3589  0.7407
  281SOL    HW2  843   0.511   0.953   2.356  1.0560  0.2192  0.3723
  282SOL     OW  844   1.782   2.491   0.499  0.3841  0.1405 -0.2263
  282SOL    HW1  845   1.731   2.402   0.466  0.9092 -2.0014 -0.7247
  282SOL    HW2  846   1.718   2.563   0.540 -1.0739 -3.3011  1.9323
  283SOL     OW  847   1.225   0.939   0.804 -0.1695 -0.1309 -0.3748
  283SOL    HW1  848   1.260   0.878   0.879  1.7328  0.6210  0.2666
  283SOL    HW2  849   1.158   1.015   0.830  1.1216  0.3438  1.7637
  284SOL     OW  850   2.231   2.846   2.510  0.0225 -0.0502 -0.2654
  284SOL    HW1  851   2.327   2.822   2.475  3.4324 -1.2570 -0.9108
  284SOL    HW2  852   2.230   2.916   2.580 -1.7881 -2.0134 -0.8558
  285SOL     OW  853   1.359   3.036   2.587  0.0631  0.2151  0.3823
  285SOL    HW1  854   1.392   3.046   2.488  1.9695  1.1799 -2.5088
  285SOL    HW2  855   1.283   3.095   2.616  1.1930 -0.2164 -0.0942
  286SOL     OW  856   0.443   0.434   0.739 -0.0679 -0.0712  0.6789
  286SOL    HW1  857   0.390   0.387   0.820  0.7598  2.7616 -0.0875
  286SOL    HW2  858   0.430   0.393   0.645  0.6327 -0.6486  0.4480
  287SOL     OW  859   0.079   1.257   2.498 -0.2161  0.1830  0.3530
  287SOL    HW1  860   0.070   1.179   2.572 -1.4638 -0.7483  1.4242
  287SOL    HW2  861   0.126   1.343   2.522 -1.4486 -2.4120 -2.1216
  288SOL     OW  862   1.581   2.667   1.605 -0.0599  0.9159 -0.4323
  288SOL    HW1  863   1.620   2.607   1.681  3.7302 -2.7399  2.2457
  288SOL    HW2  864   1.599   2.628   1.509 -1.5102  1.7295 -0.4730
  289SOL     OW  865   0.601   2.747   0.854 -0.2302 -0.0999 -0.2645
  289SOL    HW1  866   0.683   2.762   0.787  0.8287 -1.1077 -1.5307
  289SOL    HW2  867   0.615   2.789   0.946 -0.9731 -1.0135  0.9052
  290SOL     OW  868   2.818   1.136   1.810  0.6915  0.2961 -0.0986
  290SOL    HW1  869   2.757   1.056   1.792  2.0344 -0.1517  1.0802
  290SOL    HW2  870   2.901   1.104   1.864  1.6099 -1.2598  1.8134
  291SOL     OW  871   1.977   0.006   0.033 -0.3977 -0.7200  0.0899
  291SOL    HW1  872   1.970   0.061   0.121 -0.4484 -2.4656 -0.2001
  291SOL    HW2  873   2.045   0.035  -0.038 -0.2898  4.5212  1.4583
  292SOL     OW  874   3.016   1.218   3.071  0.1986  0.2207 -0.0619
  292SOL    HW1  875   2.950   1.251   3.004 -0.1784  0.9029 -0.2027
  292SOL    HW2  876   3.112   1.214   3.035  1.4873  1.5939 -0.0301
  293SOL     OW  877   0.549   2.180   0.284 -0.4299  0.1146 -0.2687
  293SOL    HW1  878   0.518   2.246   0.364 -0.8604  0.4307  2.2320
  293SOL    HW2  879   0.650   2.157   0.289  1.2460 -0.6902 -0.2848
  294SOL     OW  880   1.815   2.298   1.778  0.0329  0.3924  0.0572
  294SOL    HW1  881   1.832   2.323   1.877  0.7289 -0.5581  0.2534
  294SOL    HW2  882   1.743   2.353   1.720  0.3384 -1.9033  0.4177
  295SOL     OW  883   0.977   1.050   0.421  0.0759  0.1725  0.2228
  295SOL    HW1  884   1.069   1.056   0.468 -0.6999  1.6596  0.2281
  295SOL    HW2  885   0.900   1.030   0.494 -3.5321  0.4784  3.9246
  296SOL     OW  886   1.196   2.128   2.652  0.8453  0.0812  0.7516
  296SOL    HW1  887   1.091   2.153   2.656 -2.1896  1.1034 -0.6213
  296SOL    HW2  888   1.206   2.053   2.578 -1.4283  0.1970 -0.8417
  297SOL     OW  889   1.348   0.614   1.303 -0.3894 -0.3743 -0.0553
  297SOL    HW1  890   1.382   0.544   1.370 -0.5659 -1.1711  2.2343
  297SOL    HW2  891   1.416   0.692   1.282 -0.9780 -0.7766  0.4959
  298SOL     OW  892   0.488   1.376   2.991  0.4274 -0.0527  0.6663
  298SOL    HW1  893   0.450   1.330   3.079  0.2153  0.2495 -1.2247
  298SOL    HW2  894   0.552   1.321   2.936  1.7090  1.8310  1.6887
  299SOL     OW  895   0.459   0.289   1.258 -0.0195  0.2739  0.4919
  299SOL    HW1  896   0.409   0.382   1.256 -0.3717 -1.4721  2.0568
  299SOL    HW2  897   0.495   0.270   1.353  2.3015 -1.1473  1.9728
  300SOL     OW  898   1.273   1.690   2.635 -0.0606  0.3294 -0.8966
  300SOL    HW1  899   1.273   1.591   2.611 -0.0178 -0.5415  0.3106
  300SOL    HW2  900   1.357   1.722   2.694  0.5336  1.1776 -2.7538
  301SOL     OW  901   0.364   0.288   0.481  0.2439 -0.4157  0.2503
  301SOL    HW1  902   0.268   0.251   0.505 -1.2864 -2.7497  2.8206
  301SOL    HW2  903   0.427   0.218   0.433 -1.5206 -3.1353 -2.3486
  302SOL     OW  904   1.248   2.425   2.360 -0.2522  0.1568 -0.2254
  302SOL    HW1  905   1.161   2.487   2.365  1.2236  0.1555 -0.9842
  302SOL    HW2  906   1.235   2.339   2.414 -1.9770 -1.0363 -1.3733
  303SOL     OW  907   0.915   2.425   0.785 -0.0875  0.2196  0.2625
  303SOL    HW1  908   0.972   2.453   0.705  0.0683 -0.0155  0.3259
  303SOL    HW2  909   0.972   2.435   0.872 -1.4320  1.8894 -2.7169
  304SOL     OW  910   0.088   1.943   0.694 -0.0923 -0.7019  0.1530
  304SOL    HW1  911   0.156   1.921   0.617 -0.9760  1.0878  0.0952
  304SOL    HW2  912   0.010   2.010   0.667  0.1845  3.5457 -0.7886
  305SOL     OW  913   1.588   0.854   0.679  0.0916  0.5630  0.2102
  305SOL    HW1  914   1.523   0.839   0.592  0.7152 -1.7248 -1.2576
  305SOL    HW2  915   1.638   0.764   0.686 -0.3103  0.8288 -1.0980
  306SOL     OW  916   0.411   1.883   1.864 -0.5399  0.5501 -0.2097
  306SOL    HW1  917   0.498   1.835   1.832  1.0811 -0.6892 -0.8476
  306SOL    HW2  918   0.415   1.905   1.968 -0.6972 -0.7156  3.1079
  307SOL     OW  919   3.066   0.888   2.522 -0.9797  0.2199  0.1923
  307SOL    HW1  920   3.078   0.972   2.582  0.0650 -1.7195  0.5089
  307SOL    HW2  921   2.992   0.827   2.557  1.4038 -1.2409  0.1660
  308SOL     OW  922   1.604   2.688   2.797  0.3550 -0.4766 -0.2182
  308SOL    HW1  923   1.600   2.660   2.695 -1.7505 -1.1191 -1.4209
  308SOL    HW2  924   1.590   2.604   2.853 -0.2944  0.3331 -0.0985
  309SOL     OW  925   1.253   0.181   1.775 -0.0296 -0.0897 -0.2642
  309SOL    HW1  926   1.347   0.135   1.789 -0.2621 -0.4824  3.1532
  309SOL    HW2  927   1.220   0.166   1.678  2.0903 -1.8348  2.2618
  310SOL     OW  928   1.546   2.566   0.686  0.0059 -0.0799 -0.1421
  310SOL    HW1  929   1.503   2.571   0.777 -1.0000 -1.6608 -0.8647
  310SOL    HW2  930   1.603   2.656   0.663 -0.3304 -0.9767 -1.5252
  311SOL     OW  931   1.129   0.921   1.739 -0.5175  0.4369  0.0730
  311SOL    HW1  932   1.108   0.828   1.788 -0.4527 -0.0684 -0.5306
  311SOL    HW2  933   1.189   0.909   1.654  0.5055  1.1577  1.5169
  312SOL     OW  934   1.562   0.734   1.120 -0.2267 -0.4423 -0.4196
  312SOL    HW1  935   1.558   0.834   1.085 -1.1489  1.9530 -2.8954
  312SOL    HW2  936   1.539   0.671   1.040 -0.2038 -3.7176 -1.6813
  313SOL     OW  937   1.604   1.394   0.709  0.6592 -0.2648  0.0787
  313SOL    HW1  938   1.545   1.453   0.774 -3.1605  0.6598 -2.0241
  313SOL    HW2  939   1.568   1.297   0.693  3.7522  3.2078 -2.6295
  314SOL     OW  940   2.972   0.013   3.037  0.0475 -0.8706  0.1926
  314SOL    HW1  941   2.987   0.041   3.136  1.6967 -0.1495 -0.9809
  314SOL    HW2  942   2.891  -0.049   3.028 -0.1623 -0.1163 -2.2430
  315SOL     OW  943   1.125   0.244   2.796  0.6787  0.4382  0.1804
  315SOL    HW1  944   1.099   0.182   2.716  0.1338 -0.5941 -0.9305
  315SOL    HW2  945   1.110   0.202   2.889 -0.6272  0.1871 -1.5816
  316SOL     OW  946   1.728   2.065   0.921 -0.6980  0.3932 -0.6289
  316SOL    HW1  947   1.706   2.065   1.021 -1.2375  0.6083  1.2732
  316SOL    HW2  948   1.716   2.162   0.883  1.1965 -0.0018  2.0576
  317SOL     OW  949   1.209   0.638   2.825  0.1234 -0.4179 -0.5228
  317SOL    HW1  950   1.145   0.702   2.885  0.3295 -1.4445 -0.7202
  317SOL    HW2  951   1.159   0.575   2.765 -0.8007  2.0194 -0.8382
  318SOL     OW  952   1.431   3.070   2.241  0.1224  0.6917  0.1641
  318SOL    HW1  953   1.364   3.149   2.229  0.1829  1.4072 -1.0885
  318SOL    HW2  954   1.437   3.014   2.154 -0.5364  1.0709 -1.0786
  319SOL     OW  955   0.583   2.368   2.921  0.1535 -0.8377  0.2616
  319SOL    HW1  956   0.547   2.305   2.993 -1.9879  2.0370  4.2876
  319SOL    HW2  957   0.681   2.349   2.895  3.8043 -1.3740  1.8919
  320SOL     OW  958   1.713   2.241   0.404 -0.0439  0.2340 -0.5448
  320SOL    HW1  959   1.803   2.186   0.382  0.5764 -1.1331  0.1872
  320SOL    HW2  960   1.654   2.194   0.470  0.4551 -2.1236  0.4227
  321SOL     OW  961   1.675   2.763   0.554  0.1588 -0.3666 -0.0583
  321SOL    HW1  962   1.596   2.776   0.489 -0.8605  0.8688  0.1667
  321SOL    HW2  963   1.759   2.806   0.515 -2.5508 -3.6052 -0.8917
  322SOL     OW  964   2.605   1.115   2.347  0.1271 -0.2313  0.4734
  322SOL    HW1  965   2.697   1.120   2.401  3.7018 -0.2849  1.1399
  322SOL    HW2  966   2.549   1.032   2.373 -0.1053 -0.6345  0.8138
  323SOL     OW  967   1.162   2.683   0.854 -0.2361  0.5558  0.1024
  323SOL    HW1  968   1.123   2.646   0.765 -0.4885 -0.3176  1.6021
  323SOL    HW2  969   1.121   2.770   0.884  1.3515 -4.2488  1.2487
  324SOL     OW  970   0.273   2.497   2.502 -0.0206  0.1874 -0.4437
  324SOL    HW1  971   0.254   2.452   2.590  0.1587 -0.2335 -1.7192
  324SOL    HW2  972   0.299   2.597   2.508  2.6082 -0.3967 -0.1186
  325SOL     OW  973   1.250   2.991   0.462  0.3257 -0.1794  0.7448
  325SOL    HW1  974   1.268   3.025   0.367 -1.3055 -1.5059  1.9858
  325SOL    HW2  975   1.262   3.064   0.532  0.4820  0.4321 -0.8067
  326SOL     OW  976   2.445   0.778   0.002  0.2659 -0.3857  0.4008
  326SOL    HW1  977   2.393   0.716  -0.060 -0.6723  2.1421 -0.4325
  326SOL    HW2  978   2.515   0.726   0.052 -1.4058  2.0648 -3.5105
  327SOL     OW  979   2.821   0.325   0.569  0.2798  0.2864 -0.0024
  327SOL    HW1  980   2.791   0.278   0.476 -3.6475 -1.2208 -1.1754
  327SOL    HW2  981   2.816   0.247   0.637  0.3128 -2.4814 -2.2282
  328SOL     OW  982   2.601   0.619   0.411 -0.0368  0.6836  0.0335
  328SOL    HW1  983   2.599   0.721   0.436  1.7076  0.3687  0.2874
  328SOL    HW2  984   2.540   0.565   0.472  1.5473  2.7847  1.7061
  329SOL     OW  985   2.922   2.950   2.160  0.0882  0.0766  0.0479
  329SOL    HW1  986   3.005   2.899   2.201 -0.0110  0.6080  1.1393
  329SOL    HW2  987   2.931   3.054   2.161  0.4181 -1.7372 -3.9370
  330SOL     OW  988   0.572   0.199   1.918  0.3804  0.0579  0.2760
  330SOL    HW1  989   0.648   0.156   1.856  2.8684 -0.8819 -1.3985
  330SOL    HW2  990   0.549   0.146   2.010 -1.8484 -1.7851  1.1732
  331SOL     OW  991   3.009   1.943   1.097 -0.0012 -0.0341 -0.1653
  331SOL    HW1  992   2.966   1.915   1.008 -0.8796  0.2316  1.1037
  331SOL    HW2  993   2.950   1.922   1.183  0.5506  0.5041  2.3257
  332SOL     OW  994   0.404   1.203   0.088  0.4566  0.4410 -0.2219
  332SOL    HW1  995   0.329   1.137   0.064 -0.5374 -0.9823 -2.2822
  332SOL    HW2  996   0.396   1.224   0.188 -4.5374 -2.4072 -1.2518
  333SOL     OW  997   2.938   1.004   0.274 -0.5672 -0.5940  0.7044
  333SOL    HW1  998   3.008   1.063   0.314  0.5659  0.4163 -1.9147
  333SOL    HW2  999   2.971   0.920   0.225  0.5956 -1.1655  0.5728
  334SOL     OW 1000   1.696   1.265   1.795  0.3931 -0.1495 -0.3552
  334SOL    HW1 1001   1.766   1.279   1.716 -0.8051  1.6274  0.5677
  334SOL    HW2 1002   1.740   1.281   1.891 -1.1058 -0.7714  0.9771
  335SOL     OW 1003   1.970   2.732   2.573  0.1252 -0.3400 -0.1130
  335SOL    HW1 1004   1.908   2.733   2.658  0.4272 -0.2410  2.0568
  335SOL    HW2 1005   2.036   2.811   2.580  0.2219  2.7607  0.0687
  336SOL     OW 1006   0.239   0.064   2.730 -0.1557 -0.3594 -0.0640
  336SOL    HW1 1007   0.304   0.075   2.812  0.1025 -0.8723  0.6981
  336SOL    HW2 1008   0.142   0.061   2.768  1.6156 -0.9122 -0.6798
  337SOL     OW 1009   0.977   2.891   2.906  0.0870  0.7741 -0.1377
  337SOL    HW1 1010   0.952   2.798   2.945 -1.1985  0.2654  0.3084
  337SOL    HW2 1011   1.066   2.920   2.937 -2.9778  0.2567 -0.0756
  338SOL     OW 1012   0.078   0.997   0.682  0.1942 -0.5757  0.1239
  338SOL    HW1 1013  -0.011   0.958   0.719  0.3107 -1.4892  0.4147
  338SOL    HW2 1014   0.077   1.103   0.674  0.5610 -1.0475 -0.9156
  339SOL     OW 1015   1.698   1.311   2.127 -0.1789 -0.1301  0.1753
  339SOL    HW1 1016   1.596   1.345   2.122 -0.2561  4.7900  1.3215
  339SOL    HW2 1017   1.765   1.392   2.135 -0.1086  2.5927  1.3312
  340SOL     OW 1018   2.290   0.745   1.162  0.2407 -0.3196  0.0929
  340SOL    HW1 1019   2.191   0.761   1.140 -1.1226  1.0684 -0.9522
  340SOL    HW2 1020   2.328   0.663   1.114  0.6326  1.3768  0.8745
  341SOL     OW 1021   1.930   2.095   0.301  0.2029  0.3395  0.3985
  341SOL    HW1 1022   1.934   2.145   0.207  0.6416  1.2603 -1.6894
  341SOL    HW2 1023   2.022   2.088   0.349  1.0284 -1.0232  0.3023
  342SOL     OW 1024   2.165   2.146   2.793 -0.5286 -0.0339 -0.0461
  342SOL    HW1 1025   2.224   2.065   2.811  0.6717  0.1694  0.2899
  342SOL    HW2 1026   2.076   2.120   2.747  1.0710 -1.0768 -1.4140
  343SOL     OW 1027   0.396   0.813   2.789  0.2946 -0.2870 -0.2554
  343SOL    HW1 1028   0.412   0.833   2.689 -2.7118 -1.0353  0.5118
  343SOL    HW2 1029   0.482   0.830   2.842  2.2042  0.8013 -0.5522
  344SOL     OW 1030   1.908   1.491   0.445  0.4643  0.2642  0.1094
  344SOL    HW1 1031   1.897   1.403   0.388 -2.0870  0.4799  0.6634
  344SOL    HW2 1032   1.816   1.533   0.468 -0.4866 -0.2054 -0.4225
  345SOL     OW 1033   1.386   2.255   2.874 -0.3443  0.1783 -0.4806
  345SOL    HW1 1034   1.303   2.285   2.820 -1.2446 -0.2135  1.9566
  345SOL    HW2 1035   1.453   2.184   2.832  0.3863 -1.6536 -1.0204
  346SOL     OW 1036   2.346   0.895   1.385 -0.4275  0.2106 -0.0792
  346SOL    HW1 1037   2.291   0.983   1.388  0.5839 -1.7595 -1.1616
  346SOL    HW2 1038   2.319   0.839   1.301 -1.3949  1.8715 -1.3062
  347SOL     OW 1039   0.753   2.738   1.617 -0.1670  0.2025  0.0359
  347SOL    HW1 1040   0.692   2.725   1.703 -1.8706 -0.0203  0.5581
  347SOL    HW2 1041   0.711   2.805   1.554  1.0073 -0.4715  1.4493
  348SOL     OW 1042   0.147   0.731   2.926 -0.0566  0.6272 -0.0349
  348SOL    HW1 1043   0.069   0.693   2.871 -0.5037  0.5697 -1.4314
  348SOL    HW2 1044   0.221   0.770   2.872 -0.2238 -0.9590  2.8954
  349SOL     OW 1045   1.865   0.441   2.772 -0.3187 -0.1076 -0.0764
  349SOL    HW1 1046   1.857   0.525   2.709  2.1950 -3.4442 -1.4571
  349SOL    HW2 1047   1.835   0.462   2.869  2.0780  0.7878  0.8330
  350SOL     OW 1048   1.647   0.405   0.394  0.0574 -0.1980 -0.0416
  350SOL    HW1 1049   1.747   0.396   0.434  2.1632  1.1722 -0.0170
  350SOL    HW2 1050   1.629   0.501   0.358 -2.8710  0.6531  0.4923
  351SOL     OW 1051   0.973   0.826   2.103 -0.3925  0.3438 -0.0494
  351SOL    HW1 1052   1.003   0.926   2.111  3.3073  1.7108 -0.0514
  351SOL    HW2 1053   1.007   0.775   2.019 -2.7025 -2.5098  2.4370
  352SOL     OW 1054   2.078   1.335   0.641 -0.6557 -0.0601 -0.3431
  352SOL    HW1 1055   2.023   1.373   0.566  2.7809 -0.8727 -2.6955
  352SOL    HW2 1056   2.015   1.310   0.719  1.8042 -3.2787 -2.3803
  353SOL     OW 1057   2.190   2.802   1.086  0.4488 -0.4665  0.0332
  353SOL    HW1 1058   2.238   2.745   1.162  3.5178  1.5598 -0.2840
  353SOL    HW2 1059   2.095   2.763   1.065 -1.4659  1.3094 -0.5260
  354SOL     OW 1060   0.267   1.390   2.850  0.4411  0.1016 -0.3748
  354SOL    HW1 1061   0.248   1.470   2.790  1.9134  2.4683  0.5373
  354SOL    HW2 1062   0.357   1.394   2.906  2.4006 -0.2579 -0.7040
  355SOL     OW 1063   0.721   1.604   0.582 -0.3471 -0.2306  0.6646
  355SOL    HW1 1064   0.698   1.527   0.648  1.4800 -0.7841  1.8372
  355SOL    HW2 1065   0.716   1.577   0.482  0.5207  3.5264  0.9049
  356SOL     OW 1066   0.814   0.319   2.045  0.6923 -0.1444 -0.0946
  356SOL    HW1 1067   0.889   0.246   2.065  1.8035  0.4148  0.0220
  356SOL    HW2 1068   0.835   0.378   1.956 -1.1437 -1.1060  0.2701
  357SOL     OW 1069   0.965   1.321   0.342 -0.2257  0.1355  0.6548
  357SOL    HW1 1070   1.052   1.346   0.294  0.8716  0.3042  0.4825
  357SOL    HW2 1071   0.962   1.227   0.388  0.1861 -2.3217  1.3292
  358SOL     OW 1072   1.639   1.546   0.476 -0.1894 -0.0938  0.5709
  358SOL    HW1 1073   1.611   1.492   0.556 -2.4019 -0.7449 -0.4450
  358SOL    HW2 1074   1.622   1.497   0.388 -1.6969  0.9018 -1.5758
  359SOL     OW 1075   1.587   2.614   0.230  0.4212  0.1452  0.2743
  359SOL    HW1 1076   1.583   2.508   0.222 -1.3234 -1.6280  1.2647
  359SOL    HW2 1077   1.531   2.656   0.301 -0.1250 -0.1662 -0.6566
  360SOL     OW 1078   0.758   0.565   0.536 -0.4714 -0.4190  0.4704
  360SOL    HW1 1079   0.657   0.569   0.511  2.5813 -0.3737 -3.3881
  360SOL    HW2 1080   0.787   0.476   0.566 -0.0238  2.9170 -2.0942
  361SOL     OW 1081   1.294   1.293   0.667  0.2032 -0.1990  0.0791
  361SOL    HW1 1082   1.339   1.335   0.752  0.1666  0.9005 -1.0255
  361SOL    HW2 1083   1.196   1.322   0.666  1.8212  1.1966  0.1145
  362SOL     OW 1084   1.381   1.771   0.783 -0.1708 -0.3122 -0.5319
  362SOL    HW1 1085   1.459   1.716   0.822 -2.3688 -0.9080  0.5998
  362SOL    HW2 1086   1.412   1.855   0.730  0.8421 -1.2808 -0.8053
  363SOL     OW 1087   1.250   1.346   2.059  0.2444 -0.2742  0.4897
  363SOL    HW1 1088   1.348   1.383   2.037 -0.7207  1.0362  0.6498
  363SOL    HW2 1089   1.185   1.427   2.054  2.0525  0.2429  1.1217
  364SOL     OW 1090   0.518   2.361   1.990  0.3662  0.0102 -0.2660
  364SOL    HW1 1091   0.423   2.403   2.005 -0.3155  2.2119 -0.0910
  364SOL    HW2 1092   0.564   2.392   1.901  1.8901  0.4300  2.0602
  365SOL     OW 1093   1.012   1.969   1.325  0.4570 -0.3813  0.1024
  365SOL    HW1 1094   0.915   1.982   1.359  1.6375  1.1180 -0.4230
  365SOL    HW2 1095   1.023   2.001   1.227  2.7554  2.3168  0.6283
  366SOL     OW 1096   2.848   1.956   0.391 -0.0144 -0.6459 -0.3460
  366SOL    HW1 1097   2.762   1.973   0.339  0.7495  1.2850 -0.5945
  366SOL    HW2 1098   2.898   1.870   0.356 -0.9829  3.2774 -2.8473
  367SOL     OW 1099   0.921   1.148   0.009  0.8058  0.7801 -0.2038
  367SOL    HW1 1100   0.924   1.077   0.081  0.6018  1.9884  0.0366
  367SOL    HW2 1101   1.011   1.198   0.003  0.2289  0.5361  2.9344
  368SOL     OW 1102   1.443   0.556   0.631 -0.3335  0.1987 -0.0164
  368SOL    HW1 1103   1.387   0.577   0.548  0.4793 -2.5325  2.1455
  368SOL    HW2 1104   1.542   0.571   0.622 -4.1848  2.9617 -2.6469
  369SOL     OW 1105   0.371   1.694   0.140 -0.0185  0.9051  0.5028
  369SOL    HW1 1106   0.401   1.755   0.222  0.5631  1.0423  0.8078
  369SOL    HW2 1107   0.303   1.617   0.171 -2.4968  0.6471 -1.4543
  370SOL     OW 1108   0.436   2.060   1.075 -0.2234  0.3209 -0.0196
  370SOL    HW1 1109   0.451   2.156   1.027 -5.0756  0.1394 -1.3030
  370SOL    HW2 1110   0.346   2.022   1.044 -0.0673  0.1500  1.4411
  371SOL     OW 1111   2.916   2.221   2.626  0.0913 -0.0714 -0.1588
  371SOL    HW1 1112   2.856   2.183   2.699  0.8530  0.3109 -1.1020
  371SOL    HW2 1113   3.010   2.232   2.664 -3.8732  2.9971  1.6856
  372SOL     OW 1114   1.023   2.027   1.045 -0.3792  0.0757 -0.5685
  372SOL    HW1 1115   0.944   2.081   1.002  0.5013  1.5224  0.3016
  372SOL    HW2 1116   1.095   2.001   0.973  1.5831  1.4207 -1.0356
  373SOL     OW 1117   1.965   1.947   0.863  0.0098  0.0563  1.0648
  373SOL    HW1 1118   2.048   1.959   0.925  0.6257 -0.3621 -0.3805
  373SOL    HW2 1119   1.885   1.991   0.913  0.1672 -0.8189  0.3275
  374SOL     OW 1120   1.860   0.383   0.561  0.0948 -0.0343 -0.3476
  374SOL    HW1 1121   1.860   0.373   0.671 -2.0115  1.4942  0.3449
  374SOL    HW2 1122   1.954   0.401   0.523 -1.6191 -0.7717  1.8892
  375SOL     OW 1123   2.418   2.147   1.080  0.2867 -0.0769  0.3006
  375SOL    HW1 1124   2.468   2.139   0.989 -1.0622 -1.5490  0.1132
  375SOL    HW2 1125   2.479   2.119   1.163 -0.1221 -0.1529 -0.9805
  376SOL     OW 1126   3.022   0.538   1.487 -0.0496 -0.5880 -0.4919
  376SOL    HW1 1127   3.039   0.629   1.532 -0.0191  1.7934 -1.8062
  376SOL    HW2 1128   2.922   0.503   1.488 -0.1370 -0.7629  1.3745
  377SOL     OW 1129   2.154   2.903   0.299 -0.2399 -0.3583  0.3729
  377SOL    HW1 1130   2.139   3.003   0.326  1.5471  2.0002  0.7114
  377SOL    HW2 1131   2.244   2.867   0.333  1.8456  0.0955 -5.4060
  378SOL     OW 1132   1.750   1.832   2.571 -0.5773 -0.4694 -0.7863
  378SOL    HW1 1133   1.814   1.796   2.646  1.0042 -0.2564 -2.3242
  378SOL    HW2 1134   1.720   1.769   2.495 -2.3439  2.1324 -0.4501
  379SOL     OW 1135   0.686   0.125   2.852 -0.0738  1.3120 -0.2862
  379SOL    HW1 1136   0.663   0.036   2.802  2.3534 -2.2430  1.3546
  379SOL    HW2 1137   0.726   0.199   2.792 -0.1497  0.6656  0.3185
  380SOL     OW 1138   1.514   1.150   0.618 -0.2032 -0.2897 -0.1820
  380SOL    HW1 1139   1.434   1.213   0.622 -0.3001  0.0560 -0.8084
  380SOL    HW2 1140   1.488   1.054   0.650  0.5707 -0.6732 -0.4882
  381SOL     OW 1141   1.345   1.169   1.549 -0.1255  0.2096  0.7047
  381SOL    HW1 1142   1.402   1.127   1.473 -1.1740  1.9674  0.5029
  381SOL    HW2 1143   1.397   1.246   1.592 -0.8164  1.9994  0.8402
  382SOL     OW 1144   1.794   0.889   0.186 -0.1090  0.7643 -0.0396
  382SOL    HW1 1145   1.811   0.867   0.084  1.8829 -3.7589 -0.4559
  382SOL    HW2 1146   1.877   0.872   0.248  0.6570 -0.1729  0.4400
  383SOL     OW 1147   2.587   1.008   1.474 -0.0256  0.3015  0.0832
  383SOL    HW1 1148   2.496   0.971   1.440 -0.4609 -1.7014  1.8901
  383SOL    HW2 1149   2.669   0.968   1.424  3.4716 -1.3266 -1.8884
  384SOL     OW 1150   0.971   2.232   0.158 -0.4452 -0.3631  0.0914
  384SOL    HW1 1151   0.969   2.311   0.229  0.1328 -0.6569  0.4452
  384SOL    HW2 1152   0.913   2.149   0.186  0.9617 -0.8046  0.8348
  385SOL     OW 1153   2.976   2.034   1.641 -0.6698 -0.4906 -0.0744
  385SOL    HW1 1154   3.060   2.095   1.644  0.3890 -1.4028  0.4385
  385SOL    HW2 1155   3.016   1.940   1.637 -0.8260  2.1556  0.6694
  386SOL     OW 1156   0.513   1.069   0.434  0.3866 -0.5559  0.3359
  386SOL    HW1 1157   0.480   0.977   0.466  1.8741  1.0841 -1.0357
  386SOL    HW2 1158   0.444   1.126   0.385  0.8815  0.1898  0.2782
  387SOL     OW 1159   0.963   0.336   1.674 -0.4939  1.0486 -0.3273
  387SOL    HW1 1160   1.046   0.390   1.704  1.3507  1.4577  0.9183
  387SOL    HW2 1161   0.947   0.329   1.570 -0.5983  1.6297  1.4692
  388SOL     OW 1162   1.217   2.696   1.749  0.2113  0.4754  0.1205
  388SOL    HW1 1163   1.255   2.705   1.654  0.0487 -2.0728  1.6548
  388SOL    HW2 1164   1.256   2.619   1.805 -0.4800  2.6251  0.0173
  389SOL     OW 1165   0.165   3.032   1.166 -0.4920 -0.1172  0.6653
  389SOL    HW1 1166   0.125   3.122   1.204 -0.7401  4.5295 -0.2262
  389SOL    HW2 1167   0.110   2.945   1.187  0.6852 -0.5576  3.4819
  390SOL     OW 1168   1.033   0.998   1.321 -0.0535 -0.2328  0.1593
  390SOL    HW1 1169   1.119   0.961   1.372  3.2805  0.6247  0.0798
  390SOL    HW2 1170   0.969   1.054   1.381  2.7535  1.9414  0.0156
  391SOL     OW 1171   2.157   1.106   1.065 -0.0006  0.2787  0.0139
  391SOL    HW1 1172   2.102   1.016   1.085 -0.6591 -2.3573  0.8390
  391SOL    HW2 1173   2.222   1.099   0.987 -1.0935  2.5899  0.4133
  392SOL     OW 1174   0.844   2.711  -0.001 -0.0071 -0.7034  0.0656
  392SOL    HW1 1175   0.935   2.674   0.010 -0.5233 -0.6658 -0.5240
  392SOL    HW2 1176   0.820   2.781   0.072  0.2716  1.0906  2.8937
  393SOL     OW 1177   0.363   0.548   1.998 -0.1317  0.2742 -0.1766
  393SOL    HW1 1178   0.285   0.478   1.968 -0.1315 -3.2780 -3.0927
  393SOL    HW2 1179   0.439   0.540   1.931 -1.7128  0.5036 -0.9218
  394SOL     OW 1180   3.007   1.849   2.772 -0.8476  0.6462 -1.1266
  394SOL    HW1 1181   3.053   1.934   2.811  0.2171 -0.1623  0.9576
  394SOL    HW2 1182   2.992   1.862   2.671 -1.6604  3.3450  2.4891
  395SOL     OW 1183   1.646   1.974   0.677 -0.2079  0.4675 -0.0973
  395SOL    HW1 1184   1.675   1.892   0.618 -1.4586 -0.0191  0.0586
  395SOL    HW2 1185   1.701   1.986   0.766 -1.2737 -0.5662 -0.3778
  396SOL     OW 1186   2.841   1.882   1.286 -0.2004 -0.2553 -0.4538
  396SOL    HW1 1187   2.790   1.788   1.304  1.5580 -0.6403 -0.9729
  396SOL    HW2 1188   2.827   1.949   1.360  0.3949 -1.7474 -3.5452
  397SOL     OW 1189   1.042   2.218   0.500 -0.0033  0.0811 -0.1105
  397SOL    HW1 1190   0.948   2.192   0.544  0.2157 -1.1302  0.9606
  397SOL    HW2 1191   1.055   2.316   0.482 -0.5445 -2.4137  0.2989
  398SOL     OW 1192   2.129   3.095   1.010  0.1927  0.2706 -0.0415
  398SOL    HW1 1193   2.134   3.000   1.060  1.2780 -0.3311  0.5453
  398SOL    HW2 1194   2.074   3.164   1.061  3.1699 -0.1984  0.3486
  399SOL     OW 1195   3.043   2.472   2.514  0.2701 -0.3592 -0.1563
  399SOL    HW1 1196   2.940   2.461   2.535 -1.3465  0.0143  1.0062
  399SOL    HW2 1197   3.090   2.381   2.499 -1.6849  2.4303 -1.7550
  400SOL     OW 1198   0.762   1.608   1.329 -0.2327  0.1506 -0.1524
  400SOL    HW1 1199   0.746   1.667   1.415  1.0093  3.5987  1.1676
  400SOL    HW2 1200   0.759   1.665   1.242  5.6386 -3.7600 -0.0734
  401SOL     OW 1201   1.798   0.087   1.320  0.5335 -0.1159 -0.4124
  401SOL    HW1 1202   1.872   0.094   1.393  0.6217 -0.5619 -0.1165
  401SOL    HW2 1203   1.704   0.117   1.357  1.6641 -1.4881 -1.0494
  402SOL     OW 1204   1.324   0.170   3.065  0.1850  0.2649  0.0442
  402SOL    HW1 1205   1.402   0.129   3.013 -0.3639 -1.8264  0.6595
  402SOL    HW2 1206   1.314   0.275   3.049 -2.4940  2.0437 -1.3333
  403SOL     OW 1207   2.314   1.765   0.906 -0.9919 -0.5594  0.3972
  403SOL    HW1 1208   2.419   1.766   0.916  0.2921  2.5184 -0.8403
  403SOL    HW2 1209   2.272   1.831   0.971  2.0095 -0.1252  1.3370
  404SOL     OW 1210   0.178   2.526   2.783  0.0968 -0.4189 -0.0232
  404SOL    HW1 1211   0.271   2.474   2.780  0.6813  0.9612 -2.1819
  404SOL    HW2 1212   0.176   2.609   2.848 -1.8150  0.9989  0.9867
  405SOL     OW 1213   0.144   2.379   0.679 -0.3666  0.2789  0.4956
  405SOL    HW1 1214   0.136   2.369   0.574  0.2046  1.5338  2.7569
  405SOL    HW2 1215   0.192   2.464   0.709  0.2393 -0.7943  3.9184
  406SOL     OW 1216   0.053   1.523   3.026  0.6140  0.0583 -0.0528
  406SOL    HW1 1217   0.145   1.500   2.988 -2.8150  2.1843  1.2264
  406SOL    HW2 1218   0.047   1.610   3.079  1.0074  0.1077  3.4038
  407SOL     OW 1219   1.560   0.957   0.936 -0.6505  0.0569  0.8499
  407SOL    HW1 1220   1.563   0.937   0.836  1.7625 -0.5124  4.9891
  407SOL    HW2 1221   1.494   1.029   0.968 -1.1072  2.0044  2.0072
  408SOL     OW 1222   1.622   2.358   0.946  0.1198  0.7134  0.5334
  408SOL    HW1 1223   1.690   2.359   0.866 -0.7371  0.2989 -0.4537
  408SOL    HW2 1224   1.540   2.420   0.928  1.9178 -2.0960  0.8879
  409SOL     OW 1225   0.634   0.850   0.723  0.1714  0.7056  0.7007
  409SOL    HW1 1226   0.549   0.853   0.665 -2.8360 -1.4267 -0.4450
  409SOL    HW2 1227   0.642   0.750   0.764  0.5333 -0.8364 -1.2114
  410SOL     OW 1228   1.306   2.048   1.424  0.3672  0.2747 -0.2625
  410SOL    HW1 1229   1.361   1.989   1.492  3.3934  0.4953  1.6558
  410SOL    HW2 1230   1.210   2.004   1.395  0.5620 -0.5657  1.0885
  411SOL     OW 1231   2.561   1.886   3.065  0.6788  0.4158 -0.6257
  411SOL    HW1 1232   2.470   1.885   3.016 -0.9562 -0.7188 -0.7814
  411SOL    HW2 1233   2.632   1.824   3.018  1.9268  1.0890 -0.9296
  412SOL     OW 1234   1.467   2.496   2.178 -0.2204 -0.1517 -0.2319
  412SOL    HW1 1235   1.463   2.598   2.193  0.2318 -0.3828  0.3088
  412SOL    HW2 1236   1.406   2.446   2.244 -0.1366  0.4628 -3.4782
  413SOL     OW 1237   3.067   0.265   2.983 -0.4104  0.8189 -0.4214
  413SOL    HW1 1238   3.032   0.166   2.997  2.2812  0.8022  0.5288
  413SOL    HW2 1239   3.170   0.263   2.962 -1.1395 -1.9733  0.0427
  414SOL     OW 1240   1.847   1.529   1.228  0.3085  0.2602 -0.4531
  414SOL    HW1 1241   1.839   1.609   1.161  0.2343 -3.8100 -0.0820
  414SOL    HW2 1242   1.810   1.438   1.193  0.0776 -0.8814 -0.8121
  415SOL     OW 1243   0.353   2.191   0.702  0.3329  0.2496 -0.3496
  415SOL    HW1 1244   0.266   2.235   0.678  0.0470  0.4022  1.2454
  415SOL    HW2 1245   0.337   2.136   0.790  2.8195  0.8838  0.4770
  416SOL     OW 1246   0.378   1.020   1.045  0.3228 -0.1853  0.2113
  416SOL    HW1 1247   0.370   0.957   0.968 -1.2729  2.7600  1.2519
  416SOL    HW2 1248   0.469   1.070   1.043 -1.4606  0.8017 -0.7972
  417SOL     OW 1249   2.237   2.301   1.974  0.2420  1.0219  0.5372
  417SOL    HW1 1250   2.325   2.254   2.012  0.2733 -3.0021 -0.8493
  417SOL    HW2 1251   2.168   2.234   1.941 -0.2837  2.5809  2.8448
  418SOL     OW 1252   1.098   0.515   1.369  0.0097  0.1866 -0.3655
  418SOL    HW1 1253   1.017   0.489   1.303 -0.0175 -1.7775 -1.8424
  418SOL    HW2 1254   1.184   0.549   1.320 -1.7047 -1.0008  0.0021
  419SOL     OW 1255   0.918   0.452   3.001 -0.2654  0.2833 -0.0220
  419SOL    HW1 1256   0.931   0.519   2.923 -0.3475 -0.3049 -2.1114
  419SOL    HW2 1257   0.862   0.492   3.077  0.5108  1.3350  3.7419
  420SOL     OW 1258   0.083   2.270   0.457  0.3459  0.1352 -0.0606
  420SOL    HW1 1259   0.130   2.222   0.379 -0.7639 -0.6317 -1.4498
  420SOL    HW2 1260   0.013   2.211   0.508  1.0758 -0.3400  0.0786
  421SOL     OW 1261   0.349   3.008   0.674 -0.0866  0.3703 -0.1851
  421SOL    HW1 1262   0.388   2.926   0.723  0.5660  1.5367  1.3704
  421SOL    HW2 1263   0.418   3.078   0.656  0.9553 -0.4859 -0.7407
  422SOL     OW 1264   1.068   2.487   1.012  0.0349  0.1080  0.1651
  422SOL    HW1 1265   1.101   2.561   0.952  0.2324 -1.2117 -0.2766
  422SOL    HW2 1266   1.048   2.526   1.105  1.1525 -2.7441  0.7205
  423SOL     OW 1267   0.073   0.668   1.296  0.2198  0.2493  0.5614
  423SOL    HW1 1268   0.016   0.603   1.363 -1.3804 -2.6681 -0.3600
  423SOL    HW2 1269   0.045   0.769   1.298 -1.6824 -2.1962  1.1127
  424SOL     OW 1270   0.984   2.203   2.048 -0.3821  0.0394  0.0501
  424SOL    HW1 1271   0.979   2.305   2.030 -0.4902 -2.5524 -0.7426
  424SOL    HW2 1272   0.987   2.175   2.149  3.0401 -0.4418  0.3243
  425SOL     OW 1273   2.010   1.325   0.985  0.3338 -0.5637 -0.1228
  425SOL    HW1 1274   2.063   1.240   1.014  0.7695 -1.6048 -1.4504
  425SOL    HW2 1275   2.072   1.396   0.934 -1.3723  0.5054  0.0388
  426SOL     OW 1276   1.492   1.611   1.376 -0.8171 -0.2410  0.2010
  426SOL    HW1 1277   1.451   1.680   1.316  2.1429 -0.1454  1.8792
  426SOL    HW2 1278   1.444   1.600   1.470  0.9482 -1.1889  0.5889
  427SOL     OW 1279   1.895   2.366   2.034  0.0319 -0.2187 -0.1458
  427SOL    HW1 1280   1.942   2.291   2.089 -1.8520 -1.5589 -0.8508
  427SOL    HW2 1281   1.929   2.464   2.058  1.3267  1.2104  0.8233
  428SOL     OW 1282   0.871   3.024   0.200  0.1513  0.3674 -0.6970
  428SOL    HW1 1283   0.858   3.119   0.167 -0.8610  0.3139  0.9347
  428SOL    HW2 1284   0.956   2.985   0.159 -1.5322  1.5168  0.6674
  429SOL     OW 1285   1.320   0.058   0.259 -0.7871 -0.0600  0.3703
  429SOL    HW1 1286   1.408   0.095   0.296 -0.6684 -0.8862 -0.5447
  429SOL    HW2 1287   1.315   0.075   0.158  1.5950 -0.9137  0.7808
  430SOL     OW 1288   2.782   1.423   0.320 -0.4915  0.7503 -0.0268
  430SOL    HW1 1289   2.815   1.472   0.237 -1.9168  0.4926  0.0647
  430SOL    HW2 1290   2.806   1.478   0.410  0.0204  0.8731  0.9934
  431SOL     OW 1291   2.117   1.562   0.867 -0.4059  0.1070  0.4087
  431SOL    HW1 1292   2.207   1.611   0.887  0.7197  1.1095 -1.1420
  431SOL    HW2 1293   2.048   1.612   0.802 -0.1028  0.1546 -1.5331
  432SOL     OW 1294   2.845   2.240   1.271 -0.6042 -0.1687 -0.1811
  432SOL    HW1 1295   2.806   2.145   1.258  0.4863 -0.1391 -1.9627
  432SOL    HW2 1296   2.922   2.249   1.343 -0.5550  3.1676 -0.8484
  433SOL     OW 1297   1.901   0.376   0.831 -1.0725 -0.2860 -0.1538
  433SOL    HW1 1298   1.810   0.344   0.867  0.1308 -1.0150  0.9959
  433SOL    HW2 1299   1.978   0.356   0.898  1.3509 -0.9589  2.7030
  434SOL     OW 1300   1.493   0.255   0.747  0.2940 -0.5792  0.3048
  434SOL    HW1 1301   1.509   0.333   0.687 -1.5597 -2.6317 -0.1994
  434SOL    HW2 1302   1.539   0.269   0.841  0.8825 -0.8038  2.9220
  435SOL     OW 1303   1.491   1.480   2.119 -0.2211  0.2660  0.3413
  435SOL    HW1 1304   1.479   1.513   2.222 -0.2811 -2.6888  1.7045
  435SOL    HW2 1305   1.509   1.555   2.050 -0.0535 -1.6614  0.0788
  436SOL     OW 1306   1.689   2.752   2.224  0.2301 -0.1385  0.5214
  436SOL    HW1 1307   1.629   2.823   2.270  0.4780  0.3840 -2.2152
  436SOL    HW2 1308   1.679   2.657   2.270  0.9388 -1.5617  0.9502
  437SOL     OW 1309   1.053   2.931   0.932  0.8125  0.3117  0.0711
  437SOL    HW1 1310   1.019   3.011   0.878 -0.4023 -1.9264 -4.6695
  437SOL    HW2 1311   1.039   2.940   1.034 -0.5546 -0.5900  0.3176
  438SOL     OW 1312   1.003   2.594   1.297 -0.4760 -0.3909  0.0273
  438SOL    HW1 1313   1.095   2.617   1.349  0.6439 -1.4863  2.0027
  438SOL    HW2 1314   0.993   2.493   1.288  0.4516 -0.0484  1.7621
  439SOL     OW 1315   0.689   1.744   1.090 -0.2213  0.1858 -0.0590
  439SOL    HW1 1316   0.708   1.822   1.024  0.6222  0.3815 -0.2757
  439SOL    HW2 1317   0.586   1.741   1.112 -0.9300  1.6935  1.3058
  440SOL     OW 1318   1.001   2.500   1.987  0.3259  0.4449  0.0635
  440SOL    HW1 1319   0.957   2.536   1.900 -0.2365 -1.5280  2.2847
  440SOL    HW2 1320   1.102   2.477   1.979  1.5986 -1.1414  0.4913
  441SOL     OW 1321   0.496   2.731   1.416  0.2023 -0.2930  0.5680
  441SOL    HW1 1322   0.564   2.657   1.440 -1.8572  2.7582 -1.6283
  441SOL    HW2 1323   0.427   2.706   1.344 -2.1227  0.3417 -0.2459
  442SOL     OW 1324   2.331   0.677   2.443 -0.1379  0.4538  0.6610
  442SOL    HW1 1325   2.338   0.590   2.498 -1.2790  0.2124  1.1891
  442SOL    HW2 1326   2.228   0.688   2.419 -2.5666 -0.0915  2.5454
  443SOL     OW 1327   1.256   2.714   2.147  0.1352 -0.7267  0.2219
  443SOL    HW1 1328   1.284   2.803   2.201  2.8874  1.4752 -0.4044
  443SOL    HW2 1329   1.201   2.652   2.206  0.7073  0.3537 -2.7362
  444SOL     OW 1330   1.086   1.285   1.607  0.0317 -0.3930 -0.1168
  444SOL    HW1 1331   1.181   1.239   1.604  0.4502  2.0840 -1.5461
  444SOL    HW2 1332   1.094   1.380   1.656  0.3251 -0.2594  1.9183
  445SOL     OW 1333   0.016   2.385   1.845  0.2311 -0.5654  0.0741
  445SOL    HW1 1334  -0.002   2.478   1.810  0.1038 -0.0906 -0.8493
  445SOL    HW2 1335  -0.068   2.345   1.893  0.3710 -0.3290  1.8592
  446SOL     OW 1336   0.254   1.914   2.318  0.2272 -0.3715 -0.4210
  446SOL    HW1 1337   0.207   1.992   2.364 -2.1345 -2.2005 -3.3558
  446SOL    HW2 1338   0.188   1.890   2.242  1.1341 -0.0605 -2.1185
  447SOL     OW 1339   1.180   1.699   1.917  0.0755 -0.5860  0.2798
  447SOL    HW1 1340   1.096   1.757   1.896 -0.7271 -1.9371  1.5915
  447SOL    HW2 1341   1.254   1.754   1.964  2.8147  0.1850 -1.5721
  448SOL     OW 1342   0.139   1.535   1.981  0.1797  0.3822  0.6459
  448SOL    HW1 1343   0.171   1.598   1.911  1.4424 -1.3059  0.5451
  448SOL    HW2 1344   0.088   1.579   2.059  1.2677 -1.2788  1.1919
  449SOL     OW 1345   1.943   2.952   0.842 -0.1283  0.2194 -0.2306
  449SOL    HW1 1346   2.028   2.974   0.902 -0.7813  1.1559  0.4180
  449SOL    HW2 1347   1.954   2.855   0.796  1.0715 -0.3035  0.4217
  450SOL     OW 1348   2.327   1.379   0.738  0.2317 -0.0283  0.1913
  450SOL    HW1 1349   2.235   1.335   0.716  0.0354 -1.6366 -1.8154
  450SOL    HW2 1350   2.342   1.462   0.679 -0.0800 -1.0499  0.9560
  451SOL     OW 1351   1.329   3.039   1.460 -0.5400  0.3877  0.0697
  451SOL    HW1 1352   1.270   3.125   1.475 -0.0658  3.3218  0.0250
  451SOL    HW2 1353   1.366   2.998   1.547  0.0323 -0.7195  0.2323
  452SOL     OW 1354   2.675   2.300   2.154 -0.2028 -0.1899  0.3845
  452SOL    HW1 1355   2.592   2.357   2.185 -0.8639 -1.9445 -1.1228
  452SOL    HW2 1356   2.712   2.237   2.226 -3.7374 -0.7161 -1.7087
  453SOL     OW 1357   2.488   2.651   3.092 -0.4464  0.2803  0.4279
  453SOL    HW1 1358   2.399   2.696   3.113  3.0913 -1.9387  0.1074
  453SOL    HW2 1359   2.483   2.570   3.029  2.1400  2.2834  1.9744
  454SOL     OW 1360   1.027   1.147   2.078 -0.1220 -0.5365  0.0049
  454SOL    HW1 1361   0.983   1.131   1.983  0.7227  0.2342 -1.7576
  454SOL    HW2 1362   1.105   1.216   2.083  0.3777  0.8372 -0.1588
  455SOL     OW 1363   0.641   2.647   2.899 -0.1563 -0.8731 -1.0031
  455SOL    HW1 1364   0.714   2.666   2.970  0.3960  0.3142  0.7625
  455SOL    HW2 1365   0.584   2.562   2.928 -0.2076 -0.8675  1.2663
  456SOL     OW 1366   0.478   1.887   0.317  0.4854  0.6820  0.2672
  456SOL    HW1 1367   0.567   1.864   0.367  1.5792  0.4163  0.4214
  456SOL    HW2 1368   0.466   1.986   0.296 -0.6773  2.4584  0.0437
  457SOL     OW 1369   0.293   2.625   0.668  0.6293 -0.4776  0.4606
  457SOL    HW1 1370   0.285   2.680   0.585  0.0501 -1.3758 -0.6141
  457SOL    HW2 1371   0.392   2.616   0.701  3.2203 -1.3900  0.3904
  458SOL     OW 1372   2.973   3.069   1.213  0.1918  0.5094  0.0907
  458SOL    HW1 1373   3.013   3.166   1.227 -3.3852  2.5593 -2.8131
  458SOL    HW2 1374   2.987   3.024   1.124 -1.0493  2.8471  0.2137
  459SOL     OW 1375   2.196   2.554   0.789  0.7708  0.7938  0.2598
  459SOL    HW1 1376   2.214   2.635   0.854  1.7969 -0.8739 -0.5455
  459SOL    HW2 1377   2.267   2.541   0.715 -1.2221 -0.8104 -0.4630
  460SOL     OW 1378   1.162   1.977   2.887  0.0229 -0.6617  0.4701
  460SOL    HW1 1379   1.196   2.030   2.804 -0.5311 -2.2292  2.7293
  460SOL    HW2 1380   1.232   1.907   2.922 -0.6132 -0.4178 -0.7267
  461SOL     OW 1381   0.532   2.079   2.668 -0.2264  0.2839 -0.4509
  461SOL    HW1 1382   0.456   2.013   2.644 -1.7859 -0.6078  0.2683
  461SOL    HW2 1383   0.571   2.080   2.765 -0.1035  1.1080 -0.2603
  462SOL     OW 1384   0.933   1.088   1.830 -0.5750 -0.4240 -0.5330
  462SOL    HW1 1385   1.007   1.019   1.795  0.1364 -2.7438  1.5837
  462SOL    HW2 1386   0.934   1.177   1.774 -2.1127 -4.3198 -0.0339
  463SOL     OW 1387   0.457   0.767   0.493  0.1534  0.2573  0.1964
  463SOL    HW1 1388   0.469   0.670   0.467 -2.3464 -1.3657  0.5635
  463SOL    HW2 1389   0.365   0.789   0.528  2.8142 -1.8222 -0.3945
  464SOL     OW 1390   0.595   2.276   2.237 -0.3075 -0.1761  0.2398
  464SOL    HW1 1391   0.555   2.360   2.291 -0.2186  0.0018 -0.8839
  464SOL    HW2 1392   0.581   2.280   2.135  0.3354  1.0149  0.5218
  465SOL     OW 1393   0.318   0.924   0.801  0.0404  0.1165  0.3258
  465SOL    HW1 1394   0.234   0.982   0.773  0.9068  1.3708  1.9055
  465SOL    HW2 1395   0.296   0.824   0.797 -0.2143 -3.2344 -0.8711
  466SOL     OW 1396   1.335   1.138   1.072 -0.1771  0.2644  0.2252
  466SOL    HW1 1397   1.393   1.218   1.101 -0.5058  0.3338  2.9942
  466SOL    HW2 1398   1.234   1.145   1.086  1.1209  0.2713 -4.5155
  467SOL     OW 1399   0.474   0.334   2.365  0.7382 -0.6687 -0.3205
  467SOL    HW1 1400   0.419   0.423   2.385 -0.1216 -2.6550 -2.3839
  467SOL    HW2 1401   0.474   0.276   2.452  0.7883  0.8913 -1.0562
  468SOL     OW 1402   0.462   2.293   1.670  0.1770 -0.0045  0.2506
  468SOL    HW1 1403   0.520   2.376   1.675  3.0910  0.2448  0.3188
  468SOL    HW2 1404   0.432   2.272   1.571 -1.0858  1.6113 -1.4196
  469SOL     OW 1405   1.512   1.368   1.210  0.2773 -0.5802  0.2337
  469SOL    HW1 1406   1.600   1.321   1.179 -1.6710 -1.0544  2.5218
  469SOL    HW2 1407   1.534   1.469   1.236  2.3719  0.9979  0.3203
  470SOL     OW 1408   3.038   1.670   0.791 -0.2741  0.0962  0.4098
  470SOL    HW1 1409   3.125   1.720   0.773 -0.1531  0.2811  1.5182
  470SOL    HW2 1410   2.967   1.730   0.837 -0.9913 -1.9112 -3.4015
  471SOL     OW 1411   2.652   1.318   2.142  0.0226  0.2360  0.0627
  471SOL    HW1 1412   2.631   1.249   2.220 -0.9985  1.3535  2.2426
  471SOL    HW2 1413   2.711   1.397   2.169 -0.5443 -1.8660 -1.0624
  472SOL     OW 1414   1.139   2.490   3.071 -0.1434  0.5147 -0.0787
  472SOL    HW1 1415   1.196   2.465   3.158  1.1726  2.3258  0.0746
  472SOL    HW2 1416   1.099   2.407   3.017  2.2210 -0.1040  0.3706
  473SOL     OW 1417   1.114   1.519   1.003 -0.1948 -0.4286  0.3176
  473SOL    HW1 1418   1.011   1.542   1.015  2.4980 -1.0738 -1.1940
  473SOL    HW2 1419   1.157   1.477   1.088  2.7242 -0.5022  1.3942
  474SOL     OW 1420   0.700   1.276   0.575 -0.1922 -0.2991  0.5215
  474SOL    HW1 1421   0.728   1.293   0.475  0.2810  0.1489 -1.2138
  474SOL    HW2 1422   0.745   1.189   0.615  0.8548  0.1820  0.9534
  475SOL     OW 1423   2.835   0.104   0.791  0.4068  0.3771 -0.5874
  475SOL    HW1 1424   2.917   0.161   0.831  0.2499 -0.6508 -1.0792
  475SOL    HW2 1425   2.742   0.109   0.847  0.5955 -0.8567  0.7630
  476SOL     OW 1426   0.906   3.027   1.766 -0.6738 -0.9076 -0.6812
  476SOL    HW1 1427   0.977   2.989   1.833 -0.9699  0.6078  1.3372
  476SOL    HW2 1428   0.924   2.992   1.667 -0.5526 -1.1756 -1.7653
  477SOL     OW 1429   1.439   0.346   2.479 -0.7982  0.3771  0.3812
  477SOL    HW1 1430   1.446   0.363   2.582  0.2531 -1.0522 -1.4997
  477SOL    HW2 1431   1.534   0.307   2.448  2.5647  1.1647  1.0985
  478SOL     OW 1432   2.209   1.857   0.255 -0.0681  0.2736 -0.0535
  478SOL    HW1 1433   2.136   1.787   0.223  1.4629  2.7742 -0.8916
  478SOL    HW2 1434   2.305   1.813   0.263  1.8968 -1.7760  3.1813
  479SOL     OW 1435   1.232   1.080   2.925  0.0593  0.2121  0.1946
  479SOL    HW1 1436   1.291   1.066   2.839  4.3796 -0.2707 -1.5021
  479SOL    HW2 1437   1.133   1.048   2.915 -0.3192 -0.1797  5.1233
  480SOL     OW 1438   2.520   2.321   0.363 -0.5985 -0.6524  0.3014
  480SOL    HW1 1439   2.466   2.236   0.393  0.0078 -1.1361 -3.0227
  480SOL    HW2 1440   2.455   2.377   0.306  0.1027 -0.3601  0.9137
  481SOL     OW 1441   1.036   1.135   0.814  0.1389  0.4504  0.1586
  481SOL    HW1 1442   1.033   1.226   0.762  0.3409 -2.1869 -3.7541
  481SOL    HW2 1443   1.040   1.150   0.917  0.1499  2.2312  0.3578
  482SOL     OW 1444   1.578   0.279   2.037  0.2201 -0.1788 -0.1659
  482SOL    HW1 1445   1.593   0.376   1.995 -0.9573  3.5464 -0.4632
  482SOL    HW2 1446   1.653   0.253   2.101 -1.4330  1.5213 -0.6045
  483SOL     OW 1447   0.132   2.314   1.260  0.5058  0.3565 -0.9884
  483SOL    HW1 1448   0.057   2.328   1.333  1.3775 -1.3697  2.1616
  483SOL    HW2 1449   0.131   2.390   1.190 -0.2128  3.3653  0.0495
  484SOL     OW 1450   1.748   1.066   1.381  0.1021  0.0079  0.4590
  484SOL    HW1 1451   1.830   1.001   1.393  0.9382  0.2593  1.6536
  484SOL    HW2 1452   1.724   1.120   1.468  1.5537 -0.9038  1.5989
  485SOL     OW 1453   0.650   1.051   1.829 -0.1509  0.3171  0.4646
  485SOL    HW1 1454   0.636   1.025   1.731 -3.2245 -0.2149  2.1311
  485SOL    HW2 1455   0.751   1.061   1.857  2.8066  1.3136  1.4178
  486SOL     OW 1456   0.870   1.935   2.451  0.0013 -0.6796 -0.4201
  486SOL    HW1 1457   0.918   1.881   2.525  1.9727 -1.1557  2.6711
  486SOL    HW2 1458   0.826   2.023   2.493 -0.6578  0.0481  4.9652
  487SOL     OW 1459   1.813   1.608   0.933  0.0536 -0.4117 -0.2443
  487SOL    HW1 1460   1.891   1.549   0.962 -1.2666 -1.0898 -1.7076
  487SOL    HW2 1461   1.835   1.653   0.838  0.9057  0.8382 -1.4288
  488SOL     OW 1462   2.945   0.866   2.264 -0.2897 -0.1730  0.2743
  488SOL    HW1 1463   2.982   0.771   2.241  1.9520  0.0791 -1.7537
  488SOL    HW2 1464   2.979   0.900   2.357  1.0245 -1.8744 -0.1992
  489SOL     OW 1465   2.766   0.238   1.305  0.2503  0.6442 -0.4131
  489SOL    HW1 1466   2.724   0.178   1.385  0.6900 -0.7774  2.8892
  489SOL    HW2 1467   2.860   0.206   1.282 -1.6435 -0.1898 -0.2294
  490SOL     OW 1468   1.460   2.929   2.804 -0.1594 -0.1037 -0.0072
  490SOL    HW1 1469   1.494   2.830   2.800  0.0214  2.6986 -0.8367
  490SOL    HW2 1470   1.424   2.965   2.712  1.4880 -0.3515 -1.0553
  491SOL     OW 1471   1.833   1.461   2.589 -0.2092 -0.0683 -0.2968
  491SOL    HW1 1472   1.782   1.406   2.657  0.9463  0.5014  1.6807
  491SOL    HW2 1473   1.925   1.496   2.626  0.3909  1.4280  0.3450
  492SOL     OW 1474   0.529   1.969   0.655 -0.0934  0.3683 -0.3123
  492SOL    HW1 1475   0.578   1.987   0.745 -0.9203 -1.2326 -2.4224
  492SOL    HW2 1476   0.457   2.042   0.639 -2.5674 -1.3533 -2.9815
  493SOL     OW 1477   0.387   1.407   2.069  0.1927  0.0073 -0.1327
  493SOL    HW1 1478   0.292   1.444   2.073  1.4334 -1.0881  0.1059
  493SOL    HW2 1479   0.410   1.344   2.144  0.9626  0.6325  1.2216
  494SOL     OW 1480   2.668   2.716   0.185 -1.0410  0.3005  0.4089
  494SOL    HW1 1481   2.642   2.672   0.271  0.5315 -1.7396 -2.1120
  494SOL    HW2 1482   2.609   2.682   0.106 -2.1751  2.8651  1.1675
  495SOL     OW 1483   2.788   2.658   2.696  0.6115  0.0527 -0.4997
  495SOL    HW1 1484   2.712   2.592   2.671  0.9071 -0.5694 -1.6257
  495SOL    HW2 1485   2.807   2.726   2.618  0.2239 -0.3599 -1.1919
  496SOL     OW 1486   2.054   2.235   0.708 -0.3446 -0.0144  0.0367
  496SOL    HW1 1487   2.091   2.279   0.793  0.8633 -1.9257 -0.6529
  496SOL    HW2 1488   2.099   2.142   0.699  1.3661 -1.3471  0.7847
  497SOL     OW 1489   0.251   2.966   2.469 -0.2864  0.3171  0.2614
  497SOL    HW1 1490   0.238   3.038   2.544 -0.3345  1.6590  0.9136
  497SOL    HW2 1491   0.276   3.012   2.379  0.4553  1.5456  0.9095
  498SOL     OW 1492   1.240   1.409   1.220 -0.1879  0.1536 -0.0005
  498SOL    HW1 1493   1.341   1.386   1.235  2.3699  1.4742  0.6573
  498SOL    HW2 1494   1.214   1.488   1.282 -1.1910 -0.6885 -1.2113
  499SOL     OW 1495   0.706   1.866   0.461 -0.0100  0.1374  0.5389
  499SOL    HW1 1496   0.729   1.789   0.529  2.9777 -1.3782  0.4103
  499SOL    HW2 1497   0.687   1.954   0.507 -0.0047  0.3203  0.1453
  500SOL     OW 1498   1.461   2.892   1.664 -0.0822  0.6255 -0.5831
  500SOL    HW1 1499   1.481   2.913   1.761  2.6637 -0.6131 -1.9530
  500SOL    HW2 1500   1.503   2.799   1.634  1.5046  1.1723  2.1414
  501SOL     OW 1501   0.833   1.118   2.295  0.6267 -0.0133  0.4837
  501SOL    HW1 1502   0.756   1.044   2.279  1.5328 -0.9683 -0.4006
  501SOL    HW2 1503   0.894   1.131   2.211  0.4113 -1.1963 -0.8909
  502SOL     OW 1504   2.629   0.943   1.727  0.0604  0.0404  0.1495
  502SOL    HW1 1505   2.619   0.972   1.627 -1.0253  0.1496  1.5764
  502SOL    HW2 1506   2.557   0.873   1.753  1.2482 -4.0315  0.8933
  503SOL     OW 1507   1.268   0.132   0.659 -0.5075 -0.2522  0.0465
  503SOL    HW1 1508   1.212   0.221   0.650  2.9111  2.1311  0.4689
  503SOL    HW2 1509   1.369   0.154   0.670 -2.4476  0.1796 -2.0588
  504SOL     OW 1510   3.037   2.344   1.448  0.5094  0.1511 -0.0841
  504SOL    HW1 1511   2.987   2.426   1.493  1.3660  2.0606  2.5717
  504SOL    HW2 1512   3.089   2.296   1.525 -3.1135  0.5667 -1.7936
  505SOL     OW 1513   2.271   1.166   1.493 -0.1160  0.2478 -0.0754
  505SOL    HW1 1514   2.309   1.207   1.404  1.0312  0.0836  0.8500
  505SOL    HW2 1515   2.278   1.237   1.576  0.1823  1.0691  2.7584
  506SOL     OW 1516   1.994   0.158   1.806  0.0331 -0.4158 -0.0692
  506SOL    HW1 1517   2.060   0.091   1.852  1.2276  0.0909 -0.4810
  506SOL    HW2 1518   1.987   0.254   1.857  1.2073  0.4439  1.1073
  507SOL     OW 1519   0.542   0.709   2.149  0.3860  0.5213  0.2965
  507SOL    HW1 1520   0.456   0.669   2.110  4.0008 -0.5328 -0.6150
  507SOL    HW2 1521   0.617   0.630   2.146 -1.0726  0.2198 -2.0603
  508SOL     OW 1522   0.228   1.660   0.875 -0.4088  0.3069  0.4048
  508SOL    HW1 1523   0.290   1.725   0.825  2.5561 -0.7578  2.0612
  508SOL    HW2 1524   0.211   1.698   0.972 -0.8108  0.6054 -2.3528
  509SOL     OW 1525   1.270   1.250   2.323  0.9273 -0.3259 -0.0569
  509SOL    HW1 1526   1.298   1.292   2.228  0.7212 -0.7677 -3.5420
  509SOL    HW2 1527   1.261   1.149   2.330  0.9033  5.0431 -1.1986
  510SOL     OW 1528   1.286   2.015   2.084  0.0188  0.0640  0.1350
  510SOL    HW1 1529   1.287   2.117   2.066 -0.6570 -0.3299 -2.9160
  510SOL    HW2 1530   1.202   1.982   2.139  0.7903 -0.2682 -3.7433
  511SOL     OW 1531   3.063   2.779   1.301  0.4923 -0.6827 -0.6545
  511SOL    HW1 1532   3.039   2.769   1.200 -0.4246  0.2990 -1.0883
  511SOL    HW2 1533   2.979   2.778   1.366 -1.8345 -3.6587  2.7233
  512SOL     OW 1534   2.373   0.454   1.351 -0.1490 -0.2546  0.3183
  512SOL    HW1 1535   2.273   0.436   1.350 -2.2221  0.3469 -0.0789
  512SOL    HW2 1536   2.420   0.385   1.289 -1.7074 -1.0939  0.1228
  513SOL     OW 1537   2.527   2.052   0.837 -0.4885  0.6999  0.1004
  513SOL    HW1 1538   2.482   2.121   0.776 -1.9505  1.0086  2.3217
  513SOL    HW2 1539   2.602   1.986   0.795 -0.7956 -0.4615 -1.9010
  514SOL     OW 1540   0.592   2.765   0.508 -0.3166  0.1720  0.5333
  514SOL    HW1 1541   0.587   2.825   0.423  0.0464 -0.2041  0.8215
  514SOL    HW2 1542   0.646   2.812   0.585  0.1092 -1.1012  2.2587
  515SOL     OW 1543   2.022   1.124   2.319  0.1790 -0.4809 -0.5381
  515SOL    HW1 1544   2.012   1.128   2.222  3.1908  1.0517  0.7038
  515SOL    HW2 1545   1.938   1.134   2.368  3.6624  0.4593  0.9046
  516SOL     OW 1546   0.220   0.334   1.903  1.0580  0.2075  0.2822
  516SOL    HW1 1547   0.288   0.294   1.841  1.4469 -1.7686  1.6488
  516SOL    HW2 1548   0.130   0.280   1.902 -0.9912  0.4460  0.3189
  517SOL     OW 1549   0.465   3.085   1.170 -0.0590  0.0421  0.1613
  517SOL    HW1 1550   0.471   3.183   1.199  1.3593  0.4802 -2.6914
  517SOL    HW2 1551   0.368   3.049   1.174 -2.2440 -2.1240 -1.9477
  518SOL     OW 1552   2.245   0.010   1.822 -0.2007  0.1943 -0.1359
  518SOL    HW1 1553   2.296   0.105   1.838  2.7607  2.9034 -0.2171
  518SOL    HW2 1554   2.286  -0.039   1.739 -0.2793 -0.6603  1.0287
  519SOL     OW 1555   2.359   2.224   2.580  0.3756  0.2923  0.1327
  519SOL    HW1 1556   2.284   2.204   2.651 -0.1893  1.2373 -2.3171
  519SOL    HW2 1557   2.347   2.318   2.538 -1.0213 -0.6868  1.5534
  520SOL     OW 1558   1.811   2.803   1.841 -0.1775  0.1107  0.8686
  520SOL    HW1 1559   1.708   2.786   1.859  0.5060 -0.8772  0.7384
  520SOL    HW2 1560   1.854   2.717   1.799 -0.7678  3.0311 -0.6964
  521SOL     OW 1561   0.586   0.016   2.139 -0.3119  0.3455 -0.5600
  521SOL    HW1 1562   0.488  -0.015   2.153  0.2779  0.7044  1.8084
  521SOL    HW2 1563   0.647   0.011   2.225  1.3520  0.5692  0.5918
  522SOL     OW 1564   0.202   1.891   1.453  0.3676  0.0953 -0.6357
  522SOL    HW1 1565   0.271   1.941   1.514  0.3823  0.0881  0.3886
  522SOL    HW2 1566   0.180   1.946   1.367 -0.5631 -1.5215  0.1133
  523SOL     OW 1567   2.250   3.002   1.559  0.6399 -0.5258  0.0552
  523SOL    HW1 1568   2.339   2.951   1.552 -3.0855 -0.4586 -0.8780
  523SOL    HW2 1569   2.172   2.938   1.533  0.9136  1.5739 -2.2046
  524SOL     OW 1570   0.175   2.821   2.841  0.7345  0.4570 -0.3000
  524SOL    HW1 1571   0.118   2.908   2.827 -3.1327 -2.6169 -1.5845
  524SOL    HW2 1572   0.276   2.837   2.846  0.3432 -0.8987  0.7217
  525SOL     OW 1573   2.160   2.030   0.473  0.0355 -0.3263  0.0518
  525SOL    HW1 1574   2.179   1.976   0.561 -0.2670  2.7235  0.9300
  525SOL    HW2 1575   2.173   1.963   0.391 -0.9785 -1.5234 -0.4032
  526SOL     OW 1576   0.420   1.560   1.667 -0.1982 -0.4922  0.1241
  526SOL    HW1 1577   0.454   1.592   1.759 -0.7366 -0.0058  1.2345
  526SOL    HW2 1578   0.466   1.474   1.637 -1.8378  1.0042 -2.1499
  527SOL     OW 1579   1.082   2.936   1.231  0.7226  0.4999  0.0086
  527SOL    HW1 1580   1.166   2.879   1.251  0.1158  0.5366  0.8114
  527SOL    HW2 1581   1.104   3.038   1.215  1.6639  1.9055  0.9433
  528SOL     OW 1582   1.327   2.417   0.550  0.2033 -0.4323 -0.2758
  528SOL    HW1 1583   1.341   2.317   0.537  1.3371  2.3480 -0.0405
  528SOL    HW2 1584   1.414   2.463   0.576 -1.1662  1.0830 -0.6821
  529SOL     OW 1585   1.947   1.725   0.676  0.0622 -0.3243  0.2802
  529SOL    HW1 1586   1.876   1.730   0.603  1.4241 -0.4958  4.2065
  529SOL    HW2 1587   1.959   1.810   0.733  0.5552 -1.1004  0.3777
  530SOL     OW 1588   0.301   2.604   0.296  0.0046 -0.4849  0.0827
  530SOL    HW1 1589   0.284   2.688   0.358 -0.1911  0.9734 -3.5141
  530SOL    HW2 1590   0.347   2.527   0.341 -0.7476 -0.0302 -0.2294
  531SOL     OW 1591   1.825   0.997   0.988 -0.4716  0.1977  0.3516
  531SOL    HW1 1592   1.889   0.958   0.916 -0.1414 -2.0009 -1.6374
  531SOL    HW2 1593   1.721   0.984   0.968 -1.3723  0.6380  0.6349
  532SOL     OW 1594   0.437   1.161   0.727  0.3098 -0.3550  0.3052
  532SOL    HW1 1595   0.478   1.167   0.632 -0.0504  0.9328  4.4450
  532SOL    HW2 1596   0.405   1.066   0.753  1.3600  0.3608  1.4696
  533SOL     OW 1597   1.743   0.022   2.600  0.5536  0.1631  0.3805
  533SOL    HW1 1598   1.837  -0.018   2.612  0.7450 -0.5092  0.3784
  533SOL    HW2 1599   1.716   0.072   2.685 -0.4620  1.0591  1.1865
  534SOL     OW 1600   0.362   0.211   1.645 -0.2224  0.4936 -0.2867
  534SOL    HW1 1601   0.450   0.197   1.586 -0.7003  1.8721  0.6074
  534SOL    HW2 1602   0.322   0.308   1.633 -1.3678 -2.4437 -0.3873
  535SOL     OW 1603   1.975   0.350   0.142  0.2153 -0.3896  0.0487
  535SOL    HW1 1604   1.983   0.423   0.211 -1.0177  1.6721 -1.9487
  535SOL    HW2 1605   1.951   0.262   0.189  1.9911  0.6241  1.8071
  536SOL     OW 1606   1.397   2.572   0.926 -0.1244  0.3096 -0.2327
  536SOL    HW1 1607   1.392   2.540   1.027  0.4302  3.0743 -0.2105
  536SOL    HW2 1608   1.308   2.618   0.897 -1.6563 -1.0322 -0.9115
  537SOL     OW 1609   0.794   0.244   2.402  0.2416 -0.2081  0.0394
  537SOL    HW1 1610   0.732   0.310   2.350  0.9031 -0.2246  0.5606
  537SOL    HW2 1611   0.770   0.142   2.391  1.4923  1.4109 -5.2614
  538SOL     OW 1612   1.648   2.373   1.562  0.0935  0.1252  0.0201
  538SOL    HW1 1613   1.589   2.285   1.556 -1.8758  0.8344 -1.6845
  538SOL    HW2 1614   1.733   2.380   1.499 -0.4046 -0.9253  0.3905
  539SOL     OW 1615   0.206   1.622   2.730 -0.3853  0.7915 -0.2752
  539SOL    HW1 1616   0.133   1.659   2.670 -0.8336 -1.6272  2.3202
  539SOL    HW2 1617   0.244   1.689   2.800  1.5369 -0.6806 -0.2792
  540SOL     OW 1618   2.669   1.728   1.914 -0.5924  0.3593 -0.3000
  540SOL    HW1 1619   2.629   1.676   1.998 -0.5420 -0.2016 -0.1472
  540SOL    HW2 1620   2.639   1.832   1.900  0.5981 -1.0713 -1.0880
  541SOL     OW 1621   0.473   2.199   0.022  0.3899  0.0661  0.1403
  541SOL    HW1 1622   0.490   2.200   0.123 -1.0011  0.8976 -0.8890
  541SOL    HW2 1623   0.379   2.170  -0.012 -0.1180 -1.5081 -0.8588
  542SOL     OW 1624   2.247   2.589   0.441 -0.2070 -0.0709 -0.1950
  542SOL    HW1 1625   2.231   2.688   0.414 -3.0252  0.5394 -2.2696
  542SOL    HW2 1626   2.160   2.533   0.458 -1.2944  0.3228  0.8361
  543SOL     OW 1627   1.081   1.857   1.563  0.0592  0.0591  0.1558
  543SOL    HW1 1628   1.089   1.920   1.642 -0.0396  1.1907  1.4372
  543SOL    HW2 1629   1.049   1.904   1.475 -2.3168 -0.9857  1.2436
  544SOL     OW 1630   1.034   0.430   0.193  0.9524  0.3743  0.7982
  544SOL    HW1 1631   1.058   0.354   0.256 -2.2724  1.6203  0.8568
  544SOL    HW2 1632   1.026   0.392   0.102  0.1597  1.0518  1.9375
  545SOL     OW 1633   1.103   1.727   0.811  0.4596  0.3943  0.2269
  545SOL    HW1 1634   1.202   1.757   0.811 -1.2870 -1.5260  0.6501
  545SOL    HW2 1635   1.092   1.636   0.866  0.1390  0.1754  0.1530
  546SOL     OW 1636   2.609   1.469   3.023 -0.5586  0.2110  0.1111
  546SOL    HW1 1637   2.569   1.551   2.970  3.0994  0.8060  0.3513
  546SOL    HW2 1638   2.541   1.423   3.088 -1.9646 -0.5568  1.4692
  547SOL     OW 1639   0.615   3.026   2.669  0.4694 -0.5188 -0.5238
  547SOL    HW1 1640   0.715   3.011   2.657 -3.5871  1.1443  1.8477
  547SOL    HW2 1641   0.571   2.945   2.722  1.0860 -0.2867 -1.7789
  548SOL     OW 1642   2.080   0.925   2.944 -0.0721  0.0691  0.1139
  548SOL    HW1 1643   1.991   0.871   2.965 -2.2458 -0.9600  0.9770
  548SOL    HW2 1644   2.083   1.017   2.985 -1.1464  2.4611 -2.0698
  549SOL     OW 1645   0.695   0.526   0.195  0.0201  0.1972 -0.3719
  549SOL    HW1 1646   0.629   0.564   0.123  2.4440 -2.0852  0.5845
  549SOL    HW2 1647   0.769   0.588   0.216 -3.0687 -2.2680  3.3500
  550SOL     OW 1648   2.595   2.838   2.900  0.4105 -0.1901 -0.4039
  550SOL    HW1 1649   2.563   2.764   2.961 -1.0527  2.0174 -0.4700
  550SOL    HW2 1650   2.638   2.793   2.816 -0.9181  1.3505 -1.7034
  551SOL     OW 1651   0.273   0.863   0.231  0.0219 -0.2181  0.2102
  551SOL    HW1 1652   0.375   0.847   0.215  0.6155  0.3055 -0.0988
  551SOL    HW2 1653   0.242   0.869   0.330 -0.9405 -2.8449  0.4238
  552SOL     OW 1654   0.640   2.958   1.914 -0.3756  0.4803  0.7185
  552SOL    HW1 1655   0.628   3.005   2.009  0.2707  0.8238 -1.6165
  552SOL    HW2 1656   0.723   2.994   1.857 -0.1179  1.1566 -1.2218
  553SOL     OW 1657   2.951   2.504   0.367 -0.1546  0.0676 -0.1976
  553SOL    HW1 1658   2.886   2.419   0.352  1.4239 -0.2175 -0.0887
  553SOL    HW2 1659   2.971   2.525   0.468 -0.7563 -1.0475  2.1925
  554SOL     OW 1660   2.143   0.391   0.566 -0.1470  0.0891 -0.3287
  554SOL    HW1 1661   2.189   0.361   0.475 -0.1426 -1.0607  0.2941
  554SOL    HW2 1662   2.141   0.307   0.628  0.3635 -0.1773  1.2867
  555SOL     OW 1663   0.379   2.742   2.494 -0.0982  0.5949 -0.5893
  555SOL    HW1 1664   0.318   2.828   2.494  2.2820 -0.1048 -2.8320
  555SOL    HW2 1665   0.421   2.729   2.395  1.3840 -0.8822 -1.3443
  556SOL     OW 1666   0.840   2.387   1.522  0.4245 -0.1196  0.5713
  556SOL    HW1 1667   0.890   2.462   1.571 -2.0143  0.7618 -2.5815
  556SOL    HW2 1668   0.895   2.343   1.442  0.2920 -0.0068  0.1629
  557SOL     OW 1669   0.132   2.097   0.234  0.4776 -0.1548  0.3611
  557SOL    HW1 1670   0.031   2.105   0.220 -0.4830 -1.8564  0.7361
  557SOL    HW2 1671   0.182   2.104   0.143  3.6299  0.3330  0.4307
  558SOL     OW 1672   2.805   2.279   0.355 -0.1253 -0.2370  0.3930
  558SOL    HW1 1673   2.703   2.281   0.380 -2.6088 -0.4126  0.5101
  558SOL    HW2 1674   2.838   2.183   0.330 -1.2811 -2.2638  2.0597
  559SOL     OW 1675   0.375   2.275   1.404  0.1326 -0.0914 -0.1597
  559SOL    HW1 1676   0.276   2.286   1.367 -0.4822 -0.3810  1.2409
  559SOL    HW2 1677   0.433   2.197   1.361  2.4126 -0.7606 -0.6710
  560SOL     OW 1678   2.121   1.193   3.074 -0.0551  0.2423  0.0049
  560SOL    HW1 1679   2.141   1.180   3.174  2.5384 -0.4952 -1.1070
  560SOL    HW2 1680   2.187   1.262   3.034  0.7957 -2.2295  1.0057
  561SOL     OW 1681   3.081   1.851   0.017  0.8385 -0.3360 -0.5402
  561SOL    HW1 1682   3.032   1.815   0.103  0.7468  0.2599  1.8360
  561SOL    HW2 1683   3.037   1.944  -0.011 -2.2219  0.8151 -2.0323
  562SOL     OW 1684   0.954   2.223   2.332 -0.5012  0.0368  0.3196
  562SOL    HW1 1685   0.861   2.250   2.361  2.0552 -0.1726 -2.8259
  562SOL    HW2 1686   1.001   2.138   2.376  0.5837 -3.8307 -1.8200
  563SOL     OW 1687   0.691   2.583   2.625 -0.2111 -0.1785  0.1807
  563SOL    HW1 1688   0.780   2.533   2.628 -0.3012  0.7201 -0.0360
  563SOL    HW2 1689   0.671   2.626   2.718 -0.4817  0.5501 -0.1926
  564SOL     OW 1690   2.830   1.338   2.903  0.1847  0.1998 -0.2663
  564SOL    HW1 1691   2.733   1.372   2.927 -1.9569 -1.0701  2.4326
  564SOL    HW2 1692   2.891   1.411   2.865 -0.9314 -1.0919  0.1302
  565SOL     OW 1693   2.529   1.998   2.641 -0.1771  0.0631 -0.2184
  565SOL    HW1 1694   2.474   2.084   2.617  1.4513 -1.4426  0.5454
  565SOL    HW2 1695   2.619   2.015   2.698 -1.0291  0.4283  1.1714
  566SOL     OW 1696   2.076   2.820   1.410 -0.1276  0.1696 -0.0654
  566SOL    HW1 1697   2.011   2.736   1.417  2.3072 -0.6468 -0.8979
  566SOL    HW2 1698   2.064   2.874   1.322 -0.7490 -0.5277 -1.8748
  567SOL     OW 1699   2.428   3.052   2.400  0.3702 -0.1877  0.6480
  567SOL    HW1 1700   2.331   3.095   2.396 -1.4284  3.1695 -0.4420
  567SOL    HW2 1701   2.484   3.087   2.322 -2.0932 -0.5427  0.1694
  568SOL     OW 1702   1.539   1.740   0.207 -0.0572  0.0135 -0.0506
  568SOL    HW1 1703   1.474   1.823   0.202  0.8624  2.1021  0.9672
  568SOL    HW2 1704   1.639   1.759   0.177  2.5355 -2.3563 -0.7700
  569SOL     OW 1705   0.272   0.640   0.841 -0.1029  0.7366 -0.3282
  569SOL    HW1 1706   0.344   0.587   0.788 -1.0763  0.0320 -0.7564
  569SOL    HW2 1707   0.173   0.621   0.823 -2.8059 -2.2536  3.2450
  570SOL     OW 1708   0.640   0.861   2.937  0.6220 -0.3387 -0.1790
  570SOL    HW1 1709   0.678   0.898   2.846  0.9373 -1.8038  1.3716
  570SOL    HW2 1710   0.628   0.941   3.007 -0.3926  1.6022  1.1291
  571SOL     OW 1711   0.791   3.072   1.057  0.1470  0.2203 -0.0502
  571SOL    HW1 1712   0.857   3.106   0.987 -1.4170 -1.1301  2.9815
  571SOL    HW2 1713   0.725   2.996   1.031 -0.8993  2.5015  2.1065
  572SOL     OW 1714   1.640   2.597   1.342  0.0419  0.8817  0.3970
  572SOL    HW1 1715   1.591   2.553   1.265  1.3960 -0.6587 -2.1581
  572SOL    HW2 1716   1.639   2.701   1.341  1.9707  0.7213 -0.0058
  573SOL     OW 1717   2.895   0.490   2.004 -0.2962 -0.2402  0.0443
  573SOL    HW1 1718   2.823   0.411   1.995 -1.0660 -3.4520  2.5937
  573SOL    HW2 1719   2.963   0.490   1.927 -1.5950 -1.8951  1.2603
  574SOL     OW 1720   0.142   1.780   1.087  0.3553  0.0357  0.4724
  574SOL    HW1 1721   0.196   1.869   1.093 -1.0043 -1.8105 -0.2571
  574SOL    HW2 1722   0.041   1.805   1.100  1.7672  2.6858 -0.5776
  575SOL     OW 1723   0.829   2.188   0.923 -0.1472  0.3738  0.1439
  575SOL    HW1 1724   0.805   2.243   1.003  0.3877 -2.0743 -1.6451
  575SOL    HW2 1725   0.869   2.249   0.848  0.4005 -1.0514  0.4591
  576SOL     OW 1726   2.861   3.005   1.682 -0.2272  0.3525 -0.0171
  576SOL    HW1 1727   2.759   2.993   1.655 -0.7280 -0.3975 -2.5256
  576SOL    HW2 1728   2.896   3.096   1.644 -2.0015 -1.2950 -2.1268
  577SOL     OW 1729   2.514   1.205   3.100  0.5501 -0.2956 -0.2604
  577SOL    HW1 1730   2.514   1.138   3.021  2.6708 -0.7321  0.6990
  577SOL    HW2 1731   2.602   1.185   3.154  0.0954 -2.1107  1.3113
  578SOL     OW 1732   1.464   2.704   2.446  0.1835 -0.7499  0.5254
  578SOL    HW1 1733   1.363   2.691   2.462  2.1685 -0.2518  1.0106
  578SOL    HW2 1734   1.498   2.801   2.437  0.9235 -0.5336 -0.3973
  579SOL     OW 1735   0.057   2.489   0.181 -0.1492 -0.3973  0.5410
  579SOL    HW1 1736  -0.029   2.486   0.242  0.2367 -2.1867  1.8631
  579SOL    HW2 1737   0.137   2.529   0.231 -0.4386  2.0137 -1.8156
  580SOL     OW 1738   0.959   2.669   0.385  0.5115 -0.0106 -0.0434
  580SOL    HW1 1739   1.018   2.692   0.307 -1.0014 -2.7392  2.3429
  580SOL    HW2 1740   0.885   2.597   0.366 -3.1026 -1.4518 -0.0640
  581SOL     OW 1741   1.221   2.668   1.453  0.0000 -0.0289 -0.0850
  581SOL    HW1 1742   1.277   2.590   1.494 -0.1206 -1.3983  0.3769
  581SOL    HW2 1743   1.289   2.734   1.410 -0.2758 -1.1432  0.8962
  582SOL     OW 1744   1.499   0.101   1.859 -0.3067  0.5178  0.0615
  582SOL    HW1 1745   1.536   0.172   1.924 -2.0972 -0.7373  1.7544
  582SOL    HW2 1746   1.570   0.065   1.793 -2.4204  0.3657 -0.5561
  583SOL     OW 1747   2.441   3.075   0.519 -0.2241  0.5104 -0.6160
  583SOL    HW1 1748   2.523   3.027   0.473 -0.6219  1.1117 -4.0461
  583SOL    HW2 1749   2.360   3.013   0.560 -2.6268 -1.2779  1.6299
  584SOL     OW 1750   1.537   1.094   2.185 -0.0140  0.3673  0.9869
  584SOL    HW1 1751   1.609   1.159   2.151  0.8027  2.0754 -0.2114
  584SOL    HW2 1752   1.567   1.002   2.229 -2.7223 -0.7420 -2.3283
  585SOL     OW 1753   2.148   2.690   2.930 -0.4014  0.2673 -0.4907
  585SOL    HW1 1754   2.170   2.591   2.900  0.1670  0.7107  0.7654
  585SOL    HW2 1755   2.048   2.702   2.940 -1.1011  0.5850  1.0888
  586SOL     OW 1756   2.822   0.349   1.629 -0.2776 -0.0178  0.2273
  586SOL    HW1 1757   2.802   0.436   1.676  2.1936 -2.2330 -1.6823
  586SOL    HW2 1758   2.740   0.286   1.606  2.0422 -2.5749 -0.4650
  587SOL     OW 1759   2.092   1.534   2.661 -0.0269 -0.2585  0.0986
  587SOL    HW1 1760   2.130   1.456   2.606  1.4669  0.3367  1.8521
  587SOL    HW2 1761   2.107   1.525   2.764  1.1297 -3.1363  0.8327
  588SOL     OW 1762   0.453   2.662   2.228  0.3830  0.3245 -0.1867
  588SOL    HW1 1763   0.355   2.660   2.198 -0.8748  2.1406  0.1588
  588SOL    HW2 1764   0.485   2.569   2.263  1.5121  2.3224 -1.4610
  589SOL     OW 1765   2.145   1.338   2.468  0.4210 -0.1704  0.0093
  589SOL    HW1 1766   2.110   1.260   2.406  1.9994  0.9534  0.0258
  589SOL    HW2 1767   2.242   1.327   2.501 -0.6360 -1.3511  0.0393
  590SOL     OW 1768   2.332   1.717   2.041 -0.4504  0.5705  0.0141
  590SOL    HW1 1769   2.380   1.622   2.026  2.7520 -0.8168 -1.5572
  590SOL    HW2 1770   2.359   1.771   2.130  0.4545  3.0979  1.2399
  591SOL     OW 1771   1.257   2.422   0.206 -0.2698  0.0598 -0.0017
  591SOL    HW1 1772   1.321   2.366   0.146  0.5314  0.8783  2.2182
  591SOL    HW2 1773   1.287   2.416   0.308 -0.0040 -0.7657  2.6927
  592SOL     OW 1774   1.760   2.301   0.729  0.0406  0.4602 -0.3040
  592SOL    HW1 1775   1.713   2.334   0.644  0.6066  0.6704 -2.3691
  592SOL    HW2 1776   1.864   2.302   0.722 -1.1903 -0.2092  0.9251
  593SOL     OW 1777   0.702   0.235   0.220 -0.1716  0.2856  0.2383
  593SOL    HW1 1778   0.756   0.214   0.134  0.6660  1.1254  0.1749
  593SOL    HW2 1779   0.682   0.333   0.245 -0.4205 -0.7786 -0.4127
  594SOL     OW 1780   1.012   1.825   2.690 -0.0804  0.1484  0.0579
  594SOL    HW1 1781   1.082   1.758   2.652 -0.1542 -1.9590  1.9034
  594SOL    HW2 1782   1.060   1.882   2.756  1.1160 -0.5771 -0.1024
  595SOL     OW 1783   1.550   0.042   1.071 -0.0844  0.1544 -0.6934
  595SOL    HW1 1784   1.617  -0.018   1.014  1.9369 -0.6139 -0.5224
  595SOL    HW2 1785   1.452   0.016   1.044 -0.2467  0.3075 -2.2765
  596SOL     OW 1786   0.046   1.530   2.268  0.1832  0.6846  0.0274
  596SOL    HW1 1787   0.071   1.433   2.268 -1.0698  3.2882  1.3915
  596SOL    HW2 1788   0.013   1.556   2.359  0.6549  1.9897 -1.4170
  597SOL     OW 1789   1.929   2.596   1.735  0.0092  0.5211  0.8218
  597SOL    HW1 1790   1.910   2.587   1.634  2.0938 -0.7781  1.5586
  597SOL    HW2 1791   2.025   2.583   1.768  1.3534  1.4520 -0.0195
  598SOL     OW 1792   2.547   2.918   1.218 -0.2577 -0.1944 -0.1581
  598SOL    HW1 1793   2.622   2.946   1.283 -0.6220 -0.2127 -0.3382
  598SOL    HW2 1794   2.584   2.918   1.119 -0.2662 -1.0344 -0.1050
  599SOL     OW 1795   2.879   0.318   2.479  0.1919 -0.6348 -0.2449
  599SOL    HW1 1796   2.965   0.362   2.444  0.5949 -0.4654  0.8898
  599SOL    HW2 1797   2.795   0.377   2.480  1.4227  1.9850 -2.0623
  600SOL     OW 1798   2.808   1.102   2.731  0.4634 -0.4460 -0.0409
  600SOL    HW1 1799   2.774   1.026   2.794  0.2912 -0.1177  0.0354
  600SOL    HW2 1800   2.786   1.189   2.778  2.4910 -0.8123 -1.4808
  601SOL     OW 1801   3.041   1.319   2.008  0.6408  0.2198  0.1937
  601SOL    HW1 1802   2.967   1.335   1.935 -0.4884  0.4276 -2.9415
  601SOL    HW2 1803   3.103   1.401   2.017 -0.8168 -0.6724  1.7663
  602SOL     OW 1804   1.441   1.724   2.284  0.1680 -0.9737 -0.0855
  602SOL    HW1 1805   1.374   1.658   2.324  2.7140  0.8605 -2.3562
  602SOL    HW2 1806   1.515   1.754   2.351 -1.1408 -1.1916  1.3484
  603SOL     OW 1807   0.612   1.212   2.802  0.0819 -0.2251  0.1540
  603SOL    HW1 1808   0.523   1.199   2.749 -2.0733  1.7712  1.1131
  603SOL    HW2 1809   0.676   1.131   2.784  1.1339  1.3712  1.5033
  604SOL     OW 1810   2.398   0.999   0.167 -0.1295 -0.0387  0.2915
  604SOL    HW1 1811   2.439   1.069   0.103  1.0567 -0.0152  0.5547
  604SOL    HW2 1812   2.401   0.907   0.119  3.2087 -2.3733 -1.1201
  605SOL     OW 1813   2.508   1.130   1.917  0.1691  0.0009 -0.5131
  605SOL    HW1 1814   2.556   1.069   1.853 -2.2937  0.5869  2.9387
  605SOL    HW2 1815   2.564   1.159   2.000  0.1778  2.0544 -0.0322
  606SOL     OW 1816   1.560   2.484   2.576 -0.0947  0.3761  0.3903
  606SOL    HW1 1817   1.492   2.556   2.552 -3.0531 -2.4377  0.2352
  606SOL    HW2 1818   1.522   2.391   2.544 -0.2984  1.2182 -0.0591
  607SOL     OW 1819   1.333   1.586   0.315  0.3404  0.1442 -0.4585
  607SOL    HW1 1820   1.276   1.658   0.370 -0.9391  2.2708  2.0297
  607SOL    HW2 1821   1.421   1.627   0.275 -0.0575  2.0945 -2.0093
  608SOL     OW 1822   1.451   2.818   0.401  0.3716  0.2063 -0.1028
  608SOL    HW1 1823   1.505   2.883   0.336  2.6022  1.5310  1.5625
  608SOL    HW2 1824   1.370   2.865   0.452 -0.2775  0.7762  1.3544
  609SOL     OW 1825   1.274   1.315   0.271 -0.2476 -0.6768  0.1930
  609SOL    HW1 1826   1.286   1.405   0.320 -0.1424  0.2814  1.3587
  609SOL    HW2 1827   1.237   1.327   0.169  3.6106  1.9903 -2.0807
  610SOL     OW 1828   2.946   1.146   2.217  0.1406 -0.2752 -0.1735
  610SOL    HW1 1829   2.928   1.047   2.188  1.0548  0.0643 -2.8407
  610SOL    HW2 1830   2.970   1.210   2.139 -1.5728  1.6013  0.4849
  611SOL     OW 1831   2.513   0.296   1.168 -0.2098  0.1423  0.2950
  611SOL    HW1 1832   2.467   0.202   1.166  1.1266 -0.3158 -3.6604
  611SOL    HW2 1833   2.612   0.285   1.200  1.1729 -1.1238 -0.7910
  612SOL     OW 1834   0.753   2.254   1.187 -0.2816  0.0277  0.3040
  612SOL    HW1 1835   0.692   2.175   1.220  2.7554 -0.0004  0.0604
  612SOL    HW2 1836   0.695   2.335   1.182  0.9685 -0.4318  2.8021
  613SOL     OW 1837   0.798   1.368   2.394 -0.3652 -0.2155 -0.2155
  613SOL    HW1 1838   0.790   1.435   2.313 -0.0848  0.7222 -0.0851
  613SOL    HW2 1839   0.809   1.270   2.359  2.8735 -0.8419  1.1499
  614SOL     OW 1840   1.563   1.700   1.974  0.3562  0.7157 -0.2686
  614SOL    HW1 1841   1.497   1.765   1.924 -1.5060  2.0027 -1.5648
  614SOL    HW2 1842   1.651   1.745   2.004  0.8460 -0.8903 -0.3350
  615SOL     OW 1843   0.783   1.358   1.742 -0.4197 -0.2748  0.0683
  615SOL    HW1 1844   0.729   1.292   1.683 -0.1746 -0.3247  0.1450
  615SOL    HW2 1845   0.856   1.422   1.690 -2.1935  1.0919 -0.5976
  616SOL     OW 1846   1.074   1.627   2.161  0.1657 -0.2042  0.5047
  616SOL    HW1 1847   0.970   1.621   2.177 -0.6265  0.0666  0.7184
  616SOL    HW2 1848   1.108   1.640   2.066  0.6481 -1.4259 -0.2573
  617SOL     OW 1849   2.961   1.574   1.543 -0.0860 -0.2494 -0.1120
  617SOL    HW1 1850   2.951   1.513   1.624 -0.3577 -1.4590 -2.1296
  617SOL    HW2 1851   2.975   1.517   1.460  1.8991 -2.3995 -1.3835
  618SOL     OW 1852   1.918   2.044   1.421 -0.0454 -0.2732 -0.3705
  618SOL    HW1 1853   1.988   2.023   1.343  1.4489  0.2404 -0.3767
  618SOL    HW2 1854   1.863   1.958   1.445 -0.3063 -1.2427 -0.9623
  619SOL     OW 1855   1.750   0.502   2.403  0.7392 -0.0182 -0.1570
  619SOL    HW1 1856   1.670   0.544   2.347 -1.8648  0.1934 -1.1207
  619SOL    HW2 1857   1.727   0.401   2.415 -0.9732  0.5430  0.4527
  620SOL     OW 1858   2.199   2.979   0.614 -0.5464 -0.0814 -0.3944
  620SOL    HW1 1859   2.141   3.058   0.633  0.5839 -2.4839 -0.0409
  620SOL    HW2 1860   2.204   2.918   0.700  0.1559 -1.4001  0.1228
  621SOL     OW 1861   2.129   1.856   1.304 -0.3888  0.1253 -0.1311
  621SOL    HW1 1862   2.152   1.859   1.405  2.4625 -2.1426 -0.8420
  621SOL    HW2 1863   2.108   1.759   1.263 -0.3295 -2.8965 -1.8467
  622SOL     OW 1864   2.206   0.867   1.789 -0.8403 -0.4475  0.4173
  622SOL    HW1 1865   2.304   0.863   1.759 -2.6692 -1.0426 -0.2067
  622SOL    HW2 1866   2.178   0.786   1.847  1.1279 -0.9397 -2.3948
  623SOL     OW 1867   1.376   0.799   2.631  0.1146 -0.5610  0.2478
  623SOL    HW1 1868   1.325   0.748   2.704  3.1255  0.8865 -0.9632
  623SOL    HW2 1869   1.315   0.826   2.552  1.4079  0.3791  0.6088
  624SOL     OW 1870   0.543   0.643   0.009 -0.9336  0.2684  0.8828
  624SOL    HW1 1871   0.578   0.689  -0.075 -0.7230  2.3823 -1.5837
  624SOL    HW2 1872   0.529   0.709   0.087  1.4187  1.1214 -1.0162
  625SOL     OW 1873   2.814   1.750   0.951  0.0863 -0.2299  0.0891
  625SOL    HW1 1874   2.712   1.744   0.970 -1.8084  1.6607  0.2259
  625SOL    HW2 1875   2.871   1.700   1.023 -0.5991 -3.1508 -0.6767
  626SOL     OW 1876   0.582   2.674   1.855 -0.3297  0.0773 -0.2996
  626SOL    HW1 1877   0.611   2.757   1.908 -1.3037  0.0133 -0.3590
  626SOL    HW2 1878   0.480   2.666   1.845 -0.5115 -0.2535  0.5756
  627SOL     OW 1879   0.718   0.982   1.549  0.0674  0.2994  0.0300
  627SOL    HW1 1880   0.788   0.912   1.582  3.0888 -1.4660 -2.2188
  627SOL    HW2 1881   0.757   1.029   1.466  0.4322 -1.2606 -1.5342
  628SOL     OW 1882   2.392   0.168   0.726 -0.1338  0.1800 -0.0723
  628SOL    HW1 1883   2.424   0.096   0.654 -2.1056  0.1025 -3.9148
  628SOL    HW2 1884   2.298   0.149   0.759  2.6926 -0.4939 -2.0987
  629SOL     OW 1885   1.971   0.903   2.009 -0.2012  0.0705 -0.4366
  629SOL    HW1 1886   2.072   0.894   2.030 -2.4306 -0.1604  1.5467
  629SOL    HW2 1887   1.929   0.997   2.009  2.4801  0.0296 -2.0727
  630SOL     OW 1888   2.835   2.211   0.776  0.1959 -0.1526 -0.5626
  630SOL    HW1 1889   2.753   2.274   0.790 -2.4912  1.3064  0.3302
  630SOL    HW2 1890   2.798   2.115   0.755  1.4371  0.4538 -2.6699
  631SOL     OW 1891   2.945   0.141   2.117  0.3547  0.0303 -0.2312
  631SOL    HW1 1892   2.957   0.202   2.198 -0.5323  0.3873  0.5828
  631SOL    HW2 1893   3.025   0.150   2.053 -3.6627  1.3054  0.5165
  632SOL     OW 1894   2.429   2.517   0.655  0.4502 -0.1144 -0.2449
  632SOL    HW1 1895   2.450   2.616   0.670 -1.6943 -1.6437 -1.1008
  632SOL    HW2 1896   2.380   2.497   0.565 -1.9366  0.4502  0.1964
  633SOL     OW 1897   1.476   1.282   2.524  0.2994 -0.0572  0.2978
  633SOL    HW1 1898   1.474   1.358   2.597 -2.2247  1.2788  0.0745
  633SOL    HW2 1899   1.397   1.282   2.453 -0.0749 -0.3371  0.3184
  634SOL     OW 1900   0.655   1.978   0.915  0.2269 -0.0248  0.1018
  634SOL    HW1 1901   0.572   2.005   0.974 -0.7091  0.5315 -1.5445
  634SOL    HW2 1902   0.728   2.055   0.916  1.9115 -0.0959  0.6053
  635SOL     OW 1903   3.095   2.323   3.055  0.1806  0.3334  0.0068
  635SOL    HW1 1904   3.034   2.359   2.977  2.5612 -3.6729  0.0329
  635SOL    HW2 1905   3.123   2.400   3.122 -1.4916  1.5244 -1.5848
  636SOL     OW 1906   2.290   2.718   2.074  0.1627  0.3500  0.0064
  636SOL    HW1 1907   2.279   2.820   2.085  0.2383 -1.9992 -1.6007
  636SOL    HW2 1908   2.274   2.664   2.167 -1.7889 -2.0953 -0.1558
  637SOL     OW 1909   2.584   0.705   2.031  0.0120 -0.5936  0.4280
  637SOL    HW1 1910   2.548   0.715   1.935  0.8998 -0.3297  1.2988
  637SOL    HW2 1911   2.624   0.797   2.066  0.8975 -1.2439  1.6152
  638SOL     OW 1912   2.396   1.836   1.272  0.4628  0.9235 -0.3763
  638SOL    HW1 1913   2.296   1.840   1.269  1.2648 -1.9641  0.5345
  638SOL    HW2 1914   2.430   1.766   1.342  0.8464 -0.9942 -0.6733
  639SOL     OW 1915   1.321   2.220   1.694 -0.0379  0.3761 -0.6438
  639SOL    HW1 1916   1.354   2.182   1.605  1.2961 -1.2077 -0.8115
  639SOL    HW2 1917   1.221   2.192   1.709 -0.7302  1.2448  1.1204
  640SOL     OW 1918   0.196   1.191   1.558 -0.2789  0.3175  0.1591
  640SOL    HW1 1919   0.179   1.249   1.642 -0.8665  2.2370 -0.8789
  640SOL    HW2 1920   0.267   1.117   1.577  0.2615 -0.7451 -0.0263
  641SOL     OW 1921   2.047   0.100   1.528  0.2100 -0.4155 -0.8225
  641SOL    HW1 1922   2.021   0.123   1.627  1.9539  1.6902  0.4090
  641SOL    HW2 1923   2.132   0.047   1.519 -1.2380 -0.1454  0.0665
  642SOL     OW 1924   1.955   0.117   0.286  0.2700  0.0346 -0.4462
  642SOL    HW1 1925   2.037   0.138   0.343  0.6773  1.0517  0.3572
  642SOL    HW2 1926   1.882   0.066   0.336 -1.0935 -0.3363  2.5577
  643SOL     OW 1927   2.888   1.871   2.069  0.2682  0.4142 -0.2037
  643SOL    HW1 1928   2.832   1.792   2.038  0.6939  1.3437 -0.5549
  643SOL    HW2 1929   2.869   1.948   2.004 -2.2677  1.5122  1.8612
  644SOL     OW 1930   2.261   2.349   1.200 -0.0702 -0.4987  0.0002
  644SOL    HW1 1931   2.329   2.274   1.161  0.8595  1.7094 -2.0738
  644SOL    HW2 1932   2.214   2.333   1.293 -2.7998  0.4606 -0.7440
  645SOL     OW 1933   0.635   0.870   1.214 -0.0590  0.0570 -1.0887
  645SOL    HW1 1934   0.532   0.878   1.213  0.1287  1.3552 -0.1974
  645SOL    HW2 1935   0.677   0.894   1.126  0.2023  0.1233  0.6556
  646SOL     OW 1936   1.430   1.930   1.876  0.2838 -0.5880 -0.4179
  646SOL    HW1 1937   1.513   1.992   1.873  0.0663  0.9803 -0.7003
  646SOL    HW2 1938   1.358   1.970   1.945 -0.7839  0.7527 -0.2180
  647SOL     OW 1939   0.812   1.034   0.648  0.1356 -0.7874 -0.2971
  647SOL    HW1 1940   0.893   1.036   0.719  0.5678 -1.3132  1.0503
  647SOL    HW2 1941   0.756   0.946   0.661  1.2786 -1.4106  1.8292
  648SOL     OW 1942   0.140   0.181   0.237  0.1712 -0.1406  0.2900
  648SOL    HW1 1943   0.168   0.105   0.172 -2.6376  0.4344  2.6923
  648SOL    HW2 1944   0.108   0.268   0.187  0.5564  1.5060 -0.0491
  649SOL     OW 1945   3.056   0.236   0.896 -0.0654 -0.7222  0.1639
  649SOL    HW1 1946   3.133   0.168   0.901  1.8111  2.0902  1.1832
  649SOL    HW2 1947   3.080   0.328   0.940 -1.4273  0.0242  0.5122
  650SOL     OW 1948   2.722   0.671   1.432  0.1622  0.3652 -0.1633
  650SOL    HW1 1949   2.622   0.664   1.462 -1.4677  5.9301 -1.4600
  650SOL    HW2 1950   2.732   0.753   1.371  0.7915 -3.4780 -0.4269
  651SOL     OW 1951   0.949   1.561   1.609  0.0680  0.0709  0.3559
  651SOL    HW1 1952   0.957   1.660   1.630  1.0705  2.1358  0.0910
  651SOL    HW2 1953   0.992   1.537   1.515  1.3479  2.3626 -0.4786
  652SOL     OW 1954   2.263   2.493   2.511  0.3058  0.4907 -0.0061
  652SOL    HW1 1955   2.201   2.484   2.589  0.5455  0.4994 -0.2852
  652SOL    HW2 1956   2.219   2.525   2.422 -0.4983 -1.4376 -1.4282
  653SOL     OW 1957   2.717   1.194   0.172  0.2485 -0.4434  0.1233
  653SOL    HW1 1958   2.749   1.284   0.217  2.3774 -2.0717 -0.0121
  653SOL    HW2 1959   2.787   1.121   0.184  1.2929  2.3027 -1.0175
  654SOL     OW 1960   1.269   2.264   1.232 -0.5823 -0.3708 -0.0027
  654SOL    HW1 1961   1.286   2.200   1.311  0.1114  2.4578 -1.4908
  654SOL    HW2 1962   1.321   2.233   1.151 -0.8813  2.3383  0.8381
  655SOL     OW 1963   0.215   0.950   1.857  0.5343 -0.4681 -0.0371
  655SOL    HW1 1964   0.261   0.890   1.783  0.2190  0.4493 -1.9284
  655SOL    HW2 1965   0.271   1.025   1.900 -0.3866 -1.7089  2.4160
  656SOL     OW 1966   2.539   2.507   2.616  0.0197 -0.3075 -1.0956
  656SOL    HW1 1967   2.620   2.476   2.571 -1.2966  0.8315  0.1047
  656SOL    HW2 1968   2.463   2.549   2.559  1.4839  1.8788 -0.7350
  657SOL     OW 1969   3.060   1.047   1.917 -0.0118 -0.0772 -0.5187
  657SOL    HW1 1970   3.070   1.139   1.955  0.9187 -3.1382  0.5225
  657SOL    HW2 1971   3.155   1.008   1.898 -1.3023 -1.2695 -1.6320
  658SOL     OW 1972   1.717   0.227   2.429 -0.2143 -0.1978 -0.2218
  658SOL    HW1 1973   1.700   0.149   2.494 -1.1482 -0.4869 -2.4370
  658SOL    HW2 1974   1.770   0.195   2.348 -0.8558 -0.7697  1.6198
  659SOL     OW 1975   1.454   0.645   2.944 -0.0155 -0.0747 -0.4029
  659SOL    HW1 1976   1.502   0.735   2.931  1.8289  0.2463  2.4219
  659SOL    HW2 1977   1.359   0.636   2.902  0.5509 -0.6257 -0.9596
  660SOL     OW 1978   1.434   0.328   1.452  0.2144  0.2814 -0.0587
  660SOL    HW1 1979   1.506   0.355   1.526  1.5336  2.2897 -0.6062
  660SOL    HW2 1980   1.454   0.237   1.411 -0.2556 -2.2710  2.4813
  661SOL     OW 1981   2.492   1.156   0.680 -0.2063 -0.5828 -0.3400
  661SOL    HW1 1982   2.503   1.157   0.573  0.7945  2.0468 -0.5984
  661SOL    HW2 1983   2.439   1.241   0.711  2.0988 -2.1382 -0.2148
  662SOL     OW 1984   1.369   0.434   1.837 -0.5998 -0.3784 -0.1908
  662SOL    HW1 1985   1.304   0.357   1.817  0.8798 -1.7136  1.6866
  662SOL    HW2 1986   1.352   0.473   1.929  0.7972 -0.9444 -0.5004
  663SOL     OW 1987   0.793   1.567   2.153  0.4571  0.4633 -0.4193
  663SOL    HW1 1988   0.726   1.643   2.191 -0.0216 -1.5597  1.2451
  663SOL    HW2 1989   0.749   1.513   2.076  3.0838 -0.4064 -1.2890
  664SOL     OW 1990   1.634   2.113   1.465 -0.0274 -0.2461 -0.2379
  664SOL    HW1 1991   1.589   2.037   1.515 -1.0758  0.7352 -2.7676
  664SOL    HW2 1992   1.737   2.127   1.483  0.0200 -0.3991 -0.9404
  665SOL     OW 1993   2.242   0.662   1.950 -0.3345  0.5434  0.1533
  665SOL    HW1 1994   2.245   0.567   1.989 -2.0424 -0.4510 -0.3033
  665SOL    HW2 1995   2.230   0.735   2.024 -0.3021  3.2372  0.4025
  666SOL     OW 1996   0.400   2.354   0.437  0.2897  0.3917  0.1371
  666SOL    HW1 1997   0.468   2.408   0.492  0.9300 -0.3196 -1.2873
  666SOL    HW2 1998   0.354   2.276   0.489 -2.3313 -2.8333  0.7260
  667SOL     OW 1999   2.003   0.200   1.136 -0.5364  1.1518 -0.0444
  667SOL    HW1 2000   2.007   0.292   1.179 -0.7786 -0.4518 -3.6409
  667SOL    HW2 2001   1.931   0.141   1.183  2.6999 -1.0708 -0.0682
  668SOL     OW 2002   1.997   0.459   1.178 -0.0934 -0.4888 -0.5581
  668SOL    HW1 2003   2.069   0.487   1.110  1.5854  0.4626 -1.3544
  668SOL    HW2 2004   2.030   0.457   1.279  1.3282  2.8907  0.4004
  669SOL     OW 2005   3.021   2.264   0.995 -0.6015  0.3463 -0.0234
  669SOL    HW1 2006   2.946   2.247   0.921  0.1330  3.0468 -2.3142
  669SOL    HW2 2007   2.990   2.239   1.094  2.5501  0.5495  1.1226
  670SOL     OW 2008   2.867   2.347   1.963  0.2079  0.3567  0.3300
  670SOL    HW1 2009   2.807   2.313   2.045 -3.2603  1.5175 -0.1032
  670SOL    HW2 2010   2.860   2.449   1.953  2.6585 -1.4397  1.1698
  671SOL     OW 2011   1.787   1.741   1.451  0.4507  0.5890  0.0892
  671SOL    HW1 2012   1.796   1.750   1.347  1.1783 -1.5124  2.6332
  671SOL    HW2 2013   1.693   1.705   1.471 -0.2425  1.6272 -1.1037
  672SOL     OW 2014   0.377   0.599   2.376  0.0150  0.0543  0.3584
  672SOL    HW1 2015   0.454   0.650   2.323  1.7769 -1.1909 -0.0633
  672SOL    HW2 2016   0.297   0.661   2.403  2.1298 -1.1613  0.7465
  673SOL     OW 2017   0.150   1.172   1.128 -0.0011  0.2433 -0.2788
  673SOL    HW1 2018   0.183   1.231   1.208 -1.0777 -1.3516  0.9734
  673SOL    HW2 2019   0.228   1.149   1.064  1.9695  2.7890 -2.2957
  674SOL     OW 2020   1.598   2.932   0.206 -0.3656 -0.4979 -0.5709
  674SOL    HW1 2021   1.638   3.018   0.166  2.2673 -1.3057  0.3854
  674SOL    HW2 2022   1.602   2.861   0.137  0.9209  0.0107  3.7471
  675SOL     OW 2023   1.670   0.870   2.288  0.4828 -0.2123 -0.6382
  675SOL    HW1 2024   1.759   0.817   2.272 -0.3448  3.7449 -0.1913
  675SOL    HW2 2025   1.585   0.812   2.306 -1.9235  2.1759 -0.5800
  676SOL     OW 2026   2.482   1.504   2.039 -0.1497  1.2044  0.1639
  676SOL    HW1 2027   2.489   1.457   1.945  0.8394 -0.2718 -2.7180
  676SOL    HW2 2028   2.531   1.447   2.109 -1.2393  1.5636 -0.4855
  677SOL     OW 2029   1.925   0.670   0.836 -0.5140 -0.2301  0.6876
  677SOL    HW1 2030   1.944   0.695   0.935  0.4702 -2.2123 -0.3783
  677SOL    HW2 2031   1.945   0.571   0.812 -0.3686  1.0942  1.3887
  678SOL     OW 2032   0.046   0.738   1.662 -0.0930  0.0535  0.1481
  678SOL    HW1 2033   0.152   0.741   1.664  2.5165  0.9697 -1.9375
  678SOL    HW2 2034   0.005   0.751   1.752  0.7315  1.5803 -0.6902
  679SOL     OW 2035   2.600   1.159   1.133 -0.4498  0.2251  0.3169
  679SOL    HW1 2036   2.502   1.158   1.173 -0.0556 -1.1108  1.8856
  679SOL    HW2 2037   2.611   1.071   1.080 -0.3219  0.1183 -2.0048
  680SOL     OW 2038   2.796   0.634   1.705  0.7592  0.0716 -0.0518
  680SOL    HW1 2039   2.755   0.659   1.613 -0.8323  1.4723  1.3797
  680SOL    HW2 2040   2.850   0.720   1.738  0.3403  0.6557 -0.2987
  681SOL     OW 2041   2.990   0.126   1.610  0.0283 -0.6824 -0.2608
  681SOL    HW1 2042   3.071   0.129   1.554 -1.3790  2.1687  0.7416
  681SOL    HW2 2043   2.941   0.216   1.609  0.7050  0.4901  0.5305
  682SOL     OW 2044   0.760   0.038   1.307  1.0269  0.0209  0.5357
  682SOL    HW1 2045   0.730  -0.031   1.373  2.0082  0.4132 -0.4755
  682SOL    HW2 2046   0.774   0.006   1.209  0.5505  2.6046  0.2384
  683SOL     OW 2047   1.337   0.213   2.171  0.2914  0.1717 -0.1667
  683SOL    HW1 2048   1.319   0.300   2.230  3.4789 -0.4344  0.2626
  683SOL    HW2 2049   1.426   0.221   2.120 -1.5617 -0.1724 -2.4555
  684SOL     OW 2050   1.477   2.172   0.577  0.0693  0.0469  0.3733
  684SOL    HW1 2051   1.546   2.110   0.621 -1.2086  0.2165 -0.7454
  684SOL    HW2 2052   1.396   2.119   0.539  1.1082  3.0341 -1.7797
  685SOL     OW 2053   2.172   2.003   1.924  0.6977 -0.0836 -0.7169
  685SOL    HW1 2054   2.252   2.044   1.877  1.9004 -0.8895  2.2498
  685SOL    HW2 2055   2.197   1.912   1.973  1.9144  0.6779 -1.1284
  686SOL     OW 2056   1.510   1.781   2.763  0.0913 -0.2980 -0.0281
  686SOL    HW1 2057   1.542   1.738   2.856  0.7224 -1.3545 -0.3932
  686SOL    HW2 2058   1.546   1.719   2.686  1.2459 -1.3904  0.8190
  687SOL     OW 2059   1.274   2.497   1.938  0.2099 -0.4966 -0.4642
  687SOL    HW1 2060   1.334   2.417   1.947 -2.0841  0.8353  1.6307
  687SOL    HW2 2061   1.288   2.575   2.003  1.9252  0.3765  0.3948
  688SOL     OW 2062   2.093   1.544   1.724  1.1444  0.3645  0.4228
  688SOL    HW1 2063   2.193   1.566   1.727  0.5478 -1.4975  1.3475
  688SOL    HW2 2064   2.055   1.534   1.630 -0.7425  0.7017  0.8860
  689SOL     OW 2065   2.484   1.088   2.714 -0.1127  0.0978  0.5627
  689SOL    HW1 2066   2.380   1.062   2.706  2.0413  2.2158  0.5029
  689SOL    HW2 2067   2.520   1.038   2.799 -0.6819 -2.6626 -0.0065
  690SOL     OW 2068   2.253   2.795   0.059 -0.1649  0.1535  0.3371
  690SOL    HW1 2069   2.217   2.766  -0.034  1.1024 -2.1408 -1.5436
  690SOL    HW2 2070   2.181   2.827   0.130  0.6725  0.3099  2.1482
  691SOL     OW 2071   2.559   0.452   2.112  0.2616 -0.3987  0.3448
  691SOL    HW1 2072   2.613   0.386   2.055  1.7190  1.1474  0.4281
  691SOL    HW2 2073   2.570   0.553   2.080  1.4006 -1.5474  2.3423
  692SOL     OW 2074   2.778   1.215   0.715 -0.1075 -0.2100 -0.5261
  692SOL    HW1 2075   2.676   1.209   0.707  0.8265 -1.6938  1.6342
  692SOL    HW2 2076   2.812   1.291   0.781  1.2622 -1.4561  4.2573
  693SOL     OW 2077   2.788   2.941   0.646  0.4134  0.6026  0.6312
  693SOL    HW1 2078   2.786   3.034   0.696 -1.0617  1.2821  0.4955
  693SOL    HW2 2079   2.740   2.948   0.556  0.3488  1.3081 -0.1463
  694SOL     OW 2080   2.433   2.223   0.089  0.1100  0.0828 -0.0468
  694SOL    HW1 2081   2.381   2.309   0.115 -0.7934  1.8032  1.6609
  694SOL    HW2 2082   2.373   2.143   0.072  1.6002  0.1124 -1.1140
  695SOL     OW 2083   0.621   2.966   1.474  0.3657  0.5363  0.2664
  695SOL    HW1 2084   0.566   2.889   1.429  3.1770  0.2088  0.1311
  695SOL    HW2 2085   0.570   3.016   1.549  0.9989  0.5183 -2.5889
  696SOL     OW 2086   2.749   1.928   0.744 -0.7340 -0.6049 -0.3135
  696SOL    HW1 2087   2.770   1.857   0.817  1.5072  1.3120  1.3321
  696SOL    HW2 2088   2.795   1.903   0.654 -4.2062 -1.1936  0.1803
  697SOL     OW 2089   1.664   2.072   1.852  0.2081 -0.2191  0.4162
  697SOL    HW1 2090   1.735   2.010   1.893 -0.3409  0.5201 -1.5073
  697SOL    HW2 2091   1.703   2.171   1.826  2.0939  1.1121  3.0178
  698SOL     OW 2092   2.961   0.393   2.739 -0.3112 -0.5065 -0.1098
  698SOL    HW1 2093   2.931   0.348   2.650  0.5349  0.0328  1.3032
  698SOL    HW2 2094   3.025   0.327   2.796  1.8969 -1.9092  0.4727
  699SOL     OW 2095   1.556   0.042   2.928 -0.2760 -0.5964  0.2860
  699SOL    HW1 2096   1.529  -0.045   2.873 -0.6757  1.8479 -0.5395
  699SOL    HW2 2097   1.605   0.115   2.879 -3.8412 -1.7699  0.9333
  700SOL     OW 2098   1.004   2.318   1.308 -0.5210  0.7195 -0.0773
  700SOL    HW1 2099   1.099   2.292   1.268 -0.6874  0.5414 -2.5573
  700SOL    HW2 2100   0.927   2.280   1.254  1.5846  0.4865  1.1005
  701SOL     OW 2101   1.926   2.836   3.063 -0.1335 -0.2319 -0.0084
  701SOL    HW1 2102   1.902   2.769   3.142  1.8334  0.3622  1.4130
  701SOL    HW2 2103   1.967   2.927   3.100  0.8808  0.7175  1.9391
  702SOL     OW 2104   2.082   1.338   1.909  0.0790 -0.8042  0.1938
  702SOL    HW1 2105   2.150   1.256   1.894  0.3512 -1.8997 -0.8491
  702SOL    HW2 2106   2.086   1.403   1.831  1.2654  1.3120 -1.3339
  703SOL     OW 2107   1.965   0.878   1.392 -0.2335 -0.0827 -0.0438
  703SOL    HW1 2108   1.944   0.785   1.434 -0.3572 -1.1500  0.1776
  703SOL    HW2 2109   2.018   0.939   1.462 -0.4428  0.9566  0.9570
  704SOL     OW 2110   0.326   2.052   1.670  0.1177  0.1010  0.1671
  704SOL    HW1 2111   0.360   1.977   1.734 -3.2084 -0.3032 -2.4619
  704SOL    HW2 2112   0.375   2.138   1.702 -1.2058  0.2773  4.9004
  705SOL     OW 2113   2.517   1.379   0.947  0.2468  0.1951 -0.2995
  705SOL    HW1 2114   2.448   1.347   0.872 -0.7576 -2.4771 -1.5254
  705SOL    HW2 2115   2.583   1.304   0.976 -0.4245  1.1855 -0.7002
  706SOL     OW 2116   0.667   1.725   1.838  0.2957  1.0246  0.0981
  706SOL    HW1 2117   0.698   1.631   1.874  1.2565  0.8307  0.8283
  706SOL    HW2 2118   0.683   1.806   1.898 -0.4193 -0.3212 -2.4120
  707SOL     OW 2119   2.242   1.123   1.893 -0.4102 -0.5117  0.3324
  707SOL    HW1 2120   2.346   1.124   1.908 -1.4902  1.1693 -3.5264
  707SOL    HW2 2121   2.206   1.028   1.857 -0.1000 -3.0711 -1.2816
  708SOL     OW 2122   2.964   0.504   3.051 -0.1271 -0.2208 -0.0269
  708SOL    HW1 2123   2.995   0.565   2.975 -0.3116 -2.9343 -1.7509
  708SOL    HW2 2124   2.992   0.409   3.029  2.2629 -2.5712 -1.1049
  709SOL     OW 2125   1.771   1.891   0.207 -0.1815  0.5111  0.9967
  709SOL    HW1 2126   1.816   1.974   0.250  0.1044 -1.0157 -0.2215
  709SOL    HW2 2127   1.788   1.890   0.105 -0.8057 -0.8950 -1.1029
  710SOL     OW 2128   1.676   1.624   2.426 -0.2161  0.1363  0.0135
  710SOL    HW1 2129   1.719   1.589   2.334  0.8418 -0.3513 -0.7532
  710SOL    HW2 2130   1.707   1.561   2.506  3.0972 -2.1932  0.8608
  711SOL     OW 2131   2.621   2.973   0.954 -0.3124 -0.2644  0.1932
  711SOL    HW1 2132   2.575   3.064   0.936 -0.5420 -1.5933 -0.3171
  711SOL    HW2 2133   2.724   2.974   0.967  0.9173  0.5781  2.4482
  712SOL     OW 2134   1.382   2.253   1.961  0.3528  0.8410 -0.7304
  712SOL    HW1 2135   1.482   2.226   1.974  1.5692  0.9847  0.2720
  712SOL    HW2 2136   1.350   2.220   1.864 -0.0615 -1.2846 -0.1776
  713SOL     OW 2137   2.893   1.479   2.559 -0.5721  0.7352 -0.2079
  713SOL    HW1 2138   2.846   1.398   2.513 -1.8540  0.7258 -0.2710
  713SOL    HW2 2139   2.834   1.506   2.637 -2.5192 -1.1808  0.7126
  714SOL     OW 2140   2.664   0.476   2.362 -0.1040  0.0376 -0.6898
  714SOL    HW1 2141   2.590   0.454   2.436 -0.9946 -1.5972 -1.8507
  714SOL    HW2 2142   2.626   0.476   2.262  3.3550 -0.4395 -1.8023
  715SOL     OW 2143   1.603   2.037   1.210 -0.3911  0.0516 -0.3884
  715SOL    HW1 2144   1.529   2.091   1.159 -2.0152  0.7602  1.3479
  715SOL    HW2 2145   1.612   2.070   1.313  3.9722 -2.3819 -0.9025
  716SOL     OW 2146   1.194   0.181   1.503  0.0405  0.2832  0.2460
  716SOL    HW1 2147   1.099   0.209   1.479  1.2180 -0.0182  1.0124
  716SOL    HW2 2148   1.263   0.251   1.467  0.8618 -0.8054 -0.9523
  717SOL     OW 2149   1.131   0.599   1.618 -0.1834  0.1876  0.5732
  717SOL    HW1 2150   1.231   0.614   1.644  1.7322  2.2948  1.4966
  717SOL    HW2 2151   1.106   0.555   1.524  1.4988  0.7942 -0.8839
  718SOL     OW 2152   0.750   0.936   0.958 -0.4073  0.4306  0.4464
  718SOL    HW1 2153   0.726   0.900   0.865 -0.4749  1.2951  0.9457
  718SOL    HW2 2154   0.706   1.023   0.983  0.9760  0.7460 -3.3309
  719SOL     OW 2155   0.675   1.814   2.281  0.3767  0.1673  0.3861
  719SOL    HW1 2156   0.743   1.830   2.354  0.9323 -1.6129 -1.3620
  719SOL    HW2 2157   0.586   1.849   2.311 -0.1338  0.3797  2.0041
  720SOL     OW 2158   2.167   1.158   0.236  0.0972  0.2722 -0.2431
  720SOL    HW1 2159   2.230   1.084   0.197  0.7882 -1.2983 -1.5640
  720SOL    HW2 2160   2.164   1.153   0.341 -1.3754 -0.9769 -0.4017
  721SOL     OW 2161   2.290   2.990   2.085  0.2062  0.0400 -0.1213
  721SOL    HW1 2162   2.312   2.991   1.986 -1.0559  0.5546  0.9160
  721SOL    HW2 2163   2.190   3.002   2.116  0.7036 -1.8328  3.5751
  722SOL     OW 2164   2.377   1.611   0.593  0.1646 -0.2680  0.1723
  722SOL    HW1 2165   2.395   1.567   0.504  1.2761  1.1191  2.2808
  722SOL    HW2 2166   2.303   1.682   0.590  1.0358  0.2668  0.2818
  723SOL     OW 2167   2.541   2.673   2.017 -0.5959 -0.0901  0.0879
  723SOL    HW1 2168   2.582   2.745   2.082 -1.8456 -0.9714 -0.6436
  723SOL    HW2 2169   2.436   2.681   2.023 -2.1725  1.2246 -0.1501
  724SOL     OW 2170   0.540   2.463   2.421 -0.0963  0.2806  0.4401
  724SOL    HW1 2171   0.446   2.477   2.458  2.1989 -1.1097 -1.2165
  724SOL    HW2 2172   0.614   2.489   2.491 -1.6503 -1.3562 -1.0744
  725SOL     OW 2173   2.431   2.777   1.521  0.1410 -0.0338  0.2410
  725SOL    HW1 2174   2.447   2.783   1.422  0.6699  0.3712  0.6633
  725SOL    HW2 2175   2.382   2.691   1.549 -2.5735  0.9885 -0.0553
  726SOL     OW 2176   2.383   2.221   0.682 -0.2225  0.1907  0.4705
  726SOL    HW1 2177   2.354   2.321   0.686  0.0864 -1.3492  0.8909
  726SOL    HW2 2178   2.392   2.181   0.587  0.3911 -1.5503 -2.8943
  727SOL     OW 2179   0.159   3.078   0.052  0.0430  0.2745 -0.0539
  727SOL    HW1 2180   0.212   2.988   0.061  1.9207 -0.5699 -0.2873
  727SOL    HW2 2181   0.063   3.058   0.011  1.1474 -0.6394 -1.0290
  728SOL     OW 2182   2.878   0.673   0.979 -0.1451 -0.5412 -0.2613
  728SOL    HW1 2183   2.792   0.677   0.926  0.3664 -2.2674  1.0418
  728SOL    HW2 2184   2.865   0.626   1.069 -3.4575  2.1581 -1.8029
  729SOL     OW 2185   2.962   2.504   0.747  0.2036 -0.5317  0.0334
  729SOL    HW1 2186   2.939   2.416   0.787  0.7080 -2.4738  0.7228
  729SOL    HW2 2187   3.060   2.510   0.733 -2.0626 -1.5761  0.6223
  730SOL     OW 2188   2.609   0.626   0.860  0.3345 -0.4693  0.2080
  730SOL    HW1 2189   2.539   0.688   0.803 -1.8651  0.6153 -1.4856
  730SOL    HW2 2190   2.685   0.592   0.789 -0.0944  0.5512  0.4069
  731SOL     OW 2191   0.133   2.149   2.439 -0.1916  0.2025 -0.0974
  731SOL    HW1 2192   0.130   2.203   2.529  0.8518 -0.1604  0.6023
  731SOL    HW2 2193   0.129   2.208   2.350 -1.8102 -3.1359 -0.6205
  732SOL     OW 2194   1.094   2.873   1.926 -0.1904  0.3568 -0.4429
  732SOL    HW1 2195   1.110   2.833   2.019 -0.1920  2.4785 -0.9134
  732SOL    HW2 2196   1.116   2.808   1.849 -1.8308  0.6879 -2.2125
  733SOL     OW 2197   3.051   0.600   2.213  0.4290  0.8852 -0.2070
  733SOL    HW1 2198   3.131   0.646   2.172 -2.3759 -1.9224  3.8443
  733SOL    HW2 2199   2.987   0.550   2.145 -0.6639  2.8303 -1.8145
  734SOL     OW 2200   1.416   0.387   2.751  0.0724  0.0832 -0.0215
  734SOL    HW1 2201   1.453   0.460   2.817 -0.1593  2.1551  0.5863
  734SOL    HW2 2202   1.327   0.347   2.776  0.5972  1.4069 -1.3748
  735SOL     OW 2203   2.912   2.609   2.235  0.8061 -0.2886 -0.1113
  735SOL    HW1 2204   2.881   2.599   2.136 -0.9597 -0.5741  0.6313
  735SOL    HW2 2205   3.008   2.581   2.244 -2.1963 -1.3490 -0.5178
  736SOL     OW 2206   0.742   0.323   2.660 -0.5325  0.4194  0.8837
  736SOL    HW1 2207   0.639   0.323   2.677 -0.2598 -0.3654 -2.0407
  736SOL    HW2 2208   0.766   0.295   2.554 -0.4386  0.6239 -2.6257
  737SOL     OW 2209   2.662   0.377   2.863 -0.2725  0.0513  0.3233
  737SOL    HW1 2210   2.614   0.370   2.956  0.5971  0.5529 -0.0179
  737SOL    HW2 2211   2.764   0.387   2.862 -2.1438  1.3261 -1.5586
  738SOL     OW 2212   1.616   1.236   2.916 -0.1585 -0.0686 -0.1681
  738SOL    HW1 2213   1.718   1.197   2.908  1.6062 -2.0086  0.4299
  738SOL    HW2 2214   1.551   1.192   2.845  1.0423 -1.7557  0.5518
  739SOL     OW 2215   1.713   0.589   0.671 -0.3393  0.0551 -0.9397
  739SOL    HW1 2216   1.786   0.633   0.733 -1.4067 -0.2764  2.9903
  739SOL    HW2 2217   1.751   0.508   0.620  0.4995  0.7863  0.4018
  740SOL     OW 2218   1.972   1.926   2.307 -1.0993 -0.3416  0.2128
  740SOL    HW1 2219   2.024   1.857   2.359 -0.0093 -0.2951  2.8575
  740SOL    HW2 2220   1.889   1.883   2.263  1.5168  0.4444 -0.4743
  741SOL     OW 2221   2.531   0.062   2.620 -0.4665 -0.1044 -0.7395
  741SOL    HW1 2222   2.635   0.054   2.632  0.7064  1.7109  0.8047
  741SOL    HW2 2223   2.494   0.007   2.543 -1.9287 -0.2358  0.0773
  742SOL     OW 2224   2.215   1.451   0.193 -0.0107 -0.7900 -0.2105
  742SOL    HW1 2225   2.151   1.536   0.183  1.0718  1.9913 -1.1075
  742SOL    HW2 2226   2.167   1.365   0.228  0.5294 -1.5386 -0.2551
  743SOL     OW 2227   1.851   0.657   2.616  0.2565 -0.0673 -0.3506
  743SOL    HW1 2228   1.815   0.594   2.540  1.0250  0.1641  1.0831
  743SOL    HW2 2229   1.790   0.741   2.620 -2.2182  1.0827 -0.6160
  744SOL     OW 2230   2.682   2.099   0.069 -0.0117  0.1631  0.1871
  744SOL    HW1 2231   2.598   2.147   0.109  1.0396  2.1794  1.5369
  744SOL    HW2 2232   2.650   2.009   0.016  3.9211 -0.3323 -2.0767
  745SOL     OW 2233   2.166   2.647   2.305  0.1380  0.4337 -0.7079
  745SOL    HW1 2234   2.085   2.628   2.245 -0.1120  1.9707 -0.7095
  745SOL    HW2 2235   2.156   2.712   2.382  0.5911 -0.2904 -1.3512
  746SOL     OW 2236   3.068   2.627   1.726  0.2931 -0.0444 -0.1017
  746SOL    HW1 2237   3.154   2.642   1.667 -0.8510  2.4780 -0.3764
  746SOL    HW2 2238   3.030   2.714   1.771  0.3636 -0.0816  2.1759
  747SOL     OW 2239   3.099   1.789   1.629  0.1619 -0.4330  0.0449
  747SOL    HW1 2240   3.043   1.699   1.625  2.1765 -0.7316 -0.9807
  747SOL    HW2 2241   3.157   1.802   1.546 -0.9829  2.3993 -2.3864
  748SOL     OW 2242   1.864   2.737   2.808  0.3640  0.2981  0.4952
  748SOL    HW1 2243   1.880   2.790   2.897 -2.2869  0.3407  2.0266
  748SOL    HW2 2244   1.759   2.731   2.804 -0.5317  0.9379  5.5050
  749SOL     OW 2245   1.311   3.072   0.895 -0.1892  0.2768 -0.8834
  749SOL    HW1 2246   1.241   2.998   0.913  3.6737 -0.1361  2.7125
  749SOL    HW2 2247   1.290   3.111   0.801 -2.7949 -1.2057 -2.3212
  750SOL     OW 2248   2.412   0.243   1.896  0.1114  0.3649  0.0384
  750SOL    HW1 2249   2.423   0.310   1.816 -0.1774  1.8213 -0.0317
  750SOL    HW2 2250   2.370   0.290   1.977 -2.4118 -1.1346 -0.5385
  751SOL     OW 2251   0.944   2.184   2.705 -0.2055 -0.6309  0.3201
  751SOL    HW1 2252   0.983   2.186   2.803  0.1880 -0.1426  0.7578
  751SOL    HW2 2253   0.848   2.149   2.699  0.7147 -1.5244 -0.1867
  752SOL     OW 2254   1.253   0.881   1.462 -0.5315 -0.0204  0.7194
  752SOL    HW1 2255   1.328   0.923   1.405 -1.9008 -3.1580  0.3056
  752SOL    HW2 2256   1.279   0.784   1.472  0.5595  0.9967  0.6864
  753SOL     OW 2257   0.956   2.582   1.708 -0.2480 -0.3264 -0.5945
  753SOL    HW1 2258   1.056   2.620   1.704  1.5947  2.6329  0.8771
  753SOL    HW2 2259   0.878   2.648   1.682 -0.6040 -1.1252  1.9482
  754SOL     OW 2260   1.197   1.319   0.009  0.5468  0.1383 -0.2994
  754SOL    HW1 2261   1.239   1.254  -0.062 -1.1684 -0.2854  0.2907
  754SOL    HW2 2262   1.185   1.418  -0.030  0.2101  2.4432  1.6672
  755SOL     OW 2263   1.971   0.429   2.191 -0.5658 -0.0310  0.4058
  755SOL    HW1 2264   2.049   0.388   2.248 -0.3518 -3.3974 -0.5910
  755SOL    HW2 2265   1.898   0.470   2.253 -0.5962  0.4260 -2.5794
  756SOL     OW 2266   2.572   0.976   2.939  1.1384  0.1315 -0.2307
  756SOL    HW1 2267   2.655   0.983   2.995 -2.7190 -0.4860 -2.5059
  756SOL    HW2 2268   2.519   0.890   2.965 -0.4906  1.2153  3.6274
  757SOL     OW 2269   3.082   0.432   1.807 -0.4938  0.3720 -0.0757
  757SOL    HW1 2270   3.188   0.426   1.795  0.4751  2.6883  0.2100
  757SOL    HW2 2271   3.028   0.399   1.724  0.9795 -2.5099 -3.2612
  758SOL     OW 2272   2.389   0.107   1.407  0.1134  0.2365  0.3304
  758SOL    HW1 2273   2.319   0.044   1.456 -0.5922  0.6806  1.0065
  758SOL    HW2 2274   2.382   0.114   1.297 -0.2856  1.4322 -3.2706
  759SOL     OW 2275   1.715   0.043   0.075  0.0436 -0.1976 -0.4286
  759SOL    HW1 2276   1.672   0.072  -0.014 -1.4490 -0.9995 -1.0672
  759SOL    HW2 2277   1.815   0.013   0.064  0.0982  0.3220  0.4659
  760SOL     OW 2278   2.746   2.074   2.816  0.2752 -0.0300  0.4410
  760SOL    HW1 2279   2.751   1.995   2.887  0.4686 -0.8447  0.8097
  760SOL    HW2 2280   2.718   2.163   2.863  1.2363 -0.8257 -1.0329
  761SOL     OW 2281   1.911   1.774   1.708  0.3657 -0.4851 -0.7192
  761SOL    HW1 2282   1.972   1.697   1.725 -0.6876  1.1724 -1.6216
  761SOL    HW2 2283   1.863   1.765   1.617  1.5358  0.6469  0.8181
  762SOL     OW 2284   0.457   2.305   0.987  0.2266  0.1868  0.1035
  762SOL    HW1 2285   0.502   2.346   0.904 -0.2997  0.9571 -0.5800
  762SOL    HW2 2286   0.475   2.372   1.061 -1.7769 -0.6420 -0.7727
  763SOL     OW 2287   2.088   1.512   2.934  0.2773  0.3694  0.2943
  763SOL    HW1 2288   2.176   1.464   2.959  1.4746 -1.5642 -0.6114
  763SOL    HW2 2289   2.009   1.501   3.001  0.3765 -0.3991  2.4761
  764SOL     OW 2290   0.639   0.618   0.822  0.0015 -0.4892 -0.3048
  764SOL    HW1 2291   0.588   0.540   0.774  1.1932 -0.1385 -0.2249
  764SOL    HW2 2292   0.737   0.592   0.847  1.4182  1.8524  1.7017
  765SOL     OW 2293   0.724   0.236   0.806  0.2939  0.0754  0.3216
  765SOL    HW1 2294   0.789   0.287   0.738 -2.4214  0.4565  1.4179
  765SOL    HW2 2295   0.687   0.294   0.884  0.0329  0.9056 -0.0493
  766SOL     OW 2296   2.948   2.094   3.084  0.3317  0.1033 -0.1740
  766SOL    HW1 2297   2.857   2.120   3.120  1.9581 -0.4594 -0.3716
  766SOL    HW2 2298   3.013   2.177   3.077  0.7242  1.9446  1.8081
  767SOL     OW 2299   2.842   1.560   0.540  0.3432 -0.1924 -0.1911
  767SOL    HW1 2300   2.771   1.530   0.609  1.4656  0.2663  2.3482
  767SOL    HW2 2301   2.929   1.576   0.591 -1.7045  2.5288 -4.8534
  768SOL     OW 2302   1.106   0.194   0.338 -0.3017  0.2289 -0.3647
  768SOL    HW1 2303   1.041   0.138   0.395  1.1257 -0.3349  2.7101
  768SOL    HW2 2304   1.193   0.134   0.313  0.4364  1.5471 -0.6323
  769SOL     OW 2305   1.085   1.883   2.228  1.1676  0.4540  0.1175
  769SOL    HW1 2306   0.988   1.918   2.225 -1.4976 -1.9938  0.6325
  769SOL    HW2 2307   1.084   1.782   2.209 -1.4554 -2.5661 -0.5482
  770SOL     OW 2308   0.151   1.217   2.225 -0.4577  0.6389 -0.4945
  770SOL    HW1 2309   0.131   1.221   2.329  0.5174  0.2676  0.9316
  770SOL    HW2 2310   0.070   1.194   2.172 -0.4794  1.2266  2.9292
  771SOL     OW 2311   2.941   2.847   1.881 -0.4675 -0.4180 -0.1367
  771SOL    HW1 2312   2.903   2.891   1.799  1.6850 -0.5147 -0.2578
  771SOL    HW2 2313   2.933   2.904   1.969  0.2992  0.0476  0.9535
  772SOL     OW 2314   2.178   0.112   2.963  0.0376 -0.7053  0.3765
  772SOL    HW1 2315   2.257   0.074   2.909  0.7302  0.2851  1.0669
  772SOL    HW2 2316   2.194   0.216   2.993  2.5637  1.0971  1.3365
  773SOL     OW 2317   0.719   2.194   2.506  0.7314 -0.6399  0.3095
  773SOL    HW1 2318   0.677   2.224   2.413 -0.8470  1.2957 -0.6479
  773SOL    HW2 2319   0.648   2.149   2.570  0.2832  0.1136 -0.0424
  774SOL     OW 2320   2.025   0.049   2.655 -0.1223  0.0528  0.2992
  774SOL    HW1 2321   2.052   0.145   2.667  1.6951 -1.9291  4.0349
  774SOL    HW2 2322   2.076  -0.020   2.716 -2.0107  0.3677 -0.0132
  775SOL     OW 2323   2.534   2.806   2.455  0.1055 -0.5227  0.5442
  775SOL    HW1 2324   2.489   2.901   2.436  0.8351  1.4334 -1.9389
  775SOL    HW2 2325   2.632   2.808   2.490 -0.0225  1.1673  1.8619
  776SOL     OW 2326   0.058   1.260   0.218 -0.3073 -0.2817  0.3795
  776SOL    HW1 2327  -0.003   1.238   0.136  1.3912 -0.6483 -0.2032
  776SOL    HW2 2328   0.005   1.254   0.305  2.9030  2.7246 -2.3294
  777SOL     OW 2329   0.248   2.836   0.473 -0.0186 -0.1175  0.1551
  777SOL    HW1 2330   0.145   2.865   0.469 -1.7011 -0.0170  4.7757
  777SOL    HW2 2331   0.306   2.909   0.516  2.2447  0.4075 -2.1089
  778SOL     OW 2332   1.354   1.951   0.169  0.3080  0.0506 -0.4228
  778SOL    HW1 2333   1.280   1.924   0.232  1.4245 -1.2063 -1.7314
  778SOL    HW2 2334   1.346   2.045   0.123 -0.2221 -0.5963 -0.4739
  779SOL     OW 2335   0.189   0.843   0.496 -0.4988 -0.3187  0.2608
  779SOL    HW1 2336   0.153   0.744   0.483  0.3847 -1.0857 -1.2292
  779SOL    HW2 2337   0.144   0.897   0.574 -0.0207  0.6619  0.6363
  780SOL     OW 2338   0.059   0.248   2.238 -0.6860 -0.1605 -0.0937
  780SOL    HW1 2339   0.062   0.347   2.217 -2.1375 -1.2995  1.5520
  780SOL    HW2 2340   0.139   0.194   2.206 -1.3258 -0.3030 -0.5249
  781SOL     OW 2341   0.648   1.737   1.560  0.5605 -0.1643  0.0255
  781SOL    HW1 2342   0.665   1.719   1.664 -2.5851 -0.8259  1.1925
  781SOL    HW2 2343   0.550   1.717   1.538  1.1133 -0.1283  2.5021
  782SOL     OW 2344   2.582   0.126   0.912 -0.2084  0.0773  0.0614
  782SOL    HW1 2345   2.512   0.167   0.846 -1.4506 -0.8679 -0.2604
  782SOL    HW2 2346   2.598   0.192   0.994 -2.3672 -1.2789  0.9182
  783SOL     OW 2347   2.832   0.675   2.518 -0.7635 -0.6031 -0.0422
  783SOL    HW1 2348   2.798   0.693   2.612  2.1794 -0.4358 -1.9247
  783SOL    HW2 2349   2.765   0.624   2.455  1.1196  1.4684 -1.2114
  784SOL     OW 2350   1.390   2.211   0.057 -0.2260 -0.0457 -0.1176
  784SOL    HW1 2351   1.485   2.225   0.103  1.1539  0.3722 -1.5180
  784SOL    HW2 2352   1.392   2.215  -0.049 -1.8618 -1.0033 -2.4038
  785SOL     OW 2353   2.181   0.358   3.057  0.1961 -0.2885 -0.0127
  785SOL    HW1 2354   2.094   0.344   3.109 -0.9018 -0.0145  1.1547
  785SOL    HW2 2355   2.194   0.456   3.027 -1.7488 -0.7864  2.6107
  786SOL     OW 2356   2.031   2.185   2.201  0.6180 -0.1673  0.0856
  786SOL    HW1 2357   1.998   2.089   2.231  0.2508  1.2667  1.3908
  786SOL    HW2 2358   2.135   2.186   2.173  2.3954 -1.0046 -5.4873
  787SOL     OW 2359   1.413   0.619   0.904  0.3480 -0.0734 -0.6909
  787SOL    HW1 2360   1.334   0.687   0.916 -1.2890  1.4726  0.3480
  787SOL    HW2 2361   1.429   0.596   0.804  0.1754  0.2027 -2.0563
  788SOL     OW 2362   1.226   0.430   3.046  0.2467 -0.0763 -0.0600
  788SOL    HW1 2363   1.124   0.451   3.026 -1.6153  2.1856 -0.4209
  788SOL    HW2 2364   1.273   0.514   3.092 -2.9931  1.2082 -2.4514
  789SOL     OW 2365   2.596   0.054   1.799 -0.3557  0.1657  0.5670
  789SOL    HW1 2366   2.526   0.122   1.834 -0.0271  2.2141  3.0396
  789SOL    HW2 2367   2.571  -0.044   1.813  2.4241  4.2217 -2.2191
  790SOL     OW 2368   2.585   2.714   0.868 -0.1862 -0.5409  0.3632
  790SOL    HW1 2369   2.587   2.814   0.903 -2.6822  1.7042 -0.9638
  790SOL    HW2 2370   2.681   2.664   0.867  0.6332  1.0385 -1.1300
  791SOL     OW 2371   1.909   1.273   0.253  0.0322 -0.1003 -0.3452
  791SOL    HW1 2372   1.833   1.210   0.287  0.3639  2.3742  1.2395
  791SOL    HW2 2373   1.993   1.215   0.226 -0.8535 -0.0021 -0.4792
  792SOL     OW 2374   0.462   2.006   2.142 -0.1193  0.0062  0.2337
  792SOL    HW1 2375   0.529   2.067   2.187 -2.1649  1.7605 -1.2912
  792SOL    HW2 2376   0.384   1.965   2.198  2.2494  0.1872 -0.4829
  793SOL     OW 2377   2.096   1.560   2.077 -0.1502  0.0162  0.4728
  793SOL    HW1 2378   2.162   1.636   2.059 -0.5395  0.3432  0.0947
  793SOL    HW2 2379   2.113   1.481   2.012  1.8732  1.5982  4.1233
  794SOL     OW 2380   0.473   1.381   2.483 -0.2296  0.5089  0.1291
  794SOL    HW1 2381   0.488   1.314   2.408 -0.1884  0.8609  1.0853
  794SOL    HW2 2382   0.424   1.463   2.450  0.2483 -0.7719  0.4027
  795SOL     OW 2383   2.473   2.367   1.770  0.3482  0.2637  0.5904
  795SOL    HW1 2384   2.487   2.389   1.869  2.1570 -0.2476  0.0185
  795SOL    HW2 2385   2.430   2.275   1.755 -3.8184 -0.2509 -0.5699
  796SOL     OW 2386   3.084   1.088   2.708 -0.5535 -0.0549 -0.2004
  796SOL    HW1 2387   2.984   1.110   2.718  0.2242 -2.7536  1.5905
  796SOL    HW2 2388   3.127   1.100   2.803 -3.5833  0.4192  0.3002
  797SOL     OW 2389   0.728   0.635   1.334  0.5111  0.5194 -0.2528
  797SOL    HW1 2390   0.801   0.677   1.398  0.2429 -0.6595  0.4469
  797SOL    HW2 2391   0.674   0.706   1.280 -1.2022 -1.3803  0.5365
  798SOL     OW 2392   1.338   0.426   1.094  0.2234  0.1333  0.0949
  798SOL    HW1 2393   1.352   0.468   1.185  1.3104  2.1179  0.4365
  798SOL    HW2 2394   1.364   0.498   1.020 -1.1492  0.9537  0.6119
  799SOL     OW 2395   1.940   2.630   1.049  0.2883  0.9869 -0.0579
  799SOL    HW1 2396   1.875   2.563   1.101 -4.1916 -2.0486 -0.7235
  799SOL    HW2 2397   1.961   2.599   0.951  0.8882 -0.1393  0.3850
  800SOL     OW 2398   2.908   0.841   1.839  0.0117  0.1882 -0.2888
  800SOL    HW1 2399   2.972   0.917   1.873  0.2654 -1.3829  1.1039
  800SOL    HW2 2400   2.858   0.782   1.910 -1.4751  0.1949  0.4746
  801SOL     OW 2401   1.993   2.184   0.035 -0.5179 -0.4182  0.2266
  801SOL    HW1 2402   1.921   2.137  -0.016  1.2068  0.6468  1.4615
  801SOL    HW2 2403   2.093   2.147   0.024  0.7660  1.1360 -1.8240
  802SOL     OW 2404   0.660   0.808   2.549  0.6609 -0.8677 -0.6279
  802SOL    HW1 2405   0.701   0.720   2.515 -0.8222  1.4089 -0.3946
  802SOL    HW2 2406   0.569   0.831   2.509  0.4345 -1.8338  0.7530
  803SOL     OW 2407   0.969   0.082   0.885 -0.8742 -0.2465  0.7190
  803SOL    HW1 2408   1.045   0.146   0.917  2.1495 -2.8207  0.4762
  803SOL    HW2 2409   0.895   0.131   0.837 -0.3599  0.0021  0.8942
  804SOL     OW 2410   0.311   3.061   2.201 -0.1799 -0.0665 -0.1375
  804SOL    HW1 2411   0.310   3.167   2.195  2.1789 -0.7367 -1.7590
  804SOL    HW2 2412   0.266   3.012   2.120 -0.9507 -0.7677  1.4330
  805SOL     OW 2413   2.344   0.404   0.331 -0.3776  0.0523 -0.7598
  805SOL    HW1 2414   2.418   0.426   0.393  0.0897 -0.8169 -0.8025
  805SOL    HW2 2415   2.363   0.322   0.274 -2.5648  0.2468  0.3410
  806SOL     OW 2416   0.714   2.436   1.811 -0.4935 -0.0682  0.4466
  806SOL    HW1 2417   0.697   2.531   1.851  0.0245  0.3194 -1.6630
  806SOL    HW2 2418   0.766   2.438   1.723 -1.2258 -0.3807  2.0630
  807SOL     OW 2419   2.511   0.878   0.448  0.5982  0.0498  0.5249
  807SOL    HW1 2420   2.605   0.910   0.486  0.5186 -1.9250  1.2343
  807SOL    HW2 2421   2.496   0.864   0.344 -0.1445 -0.2700 -2.9138
  808SOL     OW 2422   0.663   2.082   2.945  0.2823 -0.4835 -0.0953
  808SOL    HW1 2423   0.597   2.107   3.016  0.3772 -1.1723  1.1016
  808SOL    HW2 2424   0.688   1.983   2.944  1.0191 -0.1040  0.8020
  809SOL     OW 2425   2.576   1.974   1.862 -0.0943 -0.1141  0.3576
  809SOL    HW1 2426   2.656   2.040   1.869 -0.7072 -0.6606 -0.6241
  809SOL    HW2 2427   2.548   1.949   1.763  0.6910  3.4686 -2.8649
  810SOL     OW 2428   2.201   1.139   0.508 -0.2111  0.5089 -0.2647
  810SOL    HW1 2429   2.192   1.046   0.549  0.0811 -1.4072  2.9647
  810SOL    HW2 2430   2.154   1.213   0.562 -1.8617  1.9286  0.6925
  811SOL     OW 2431   1.397   2.518   1.200  0.0068  0.2850  0.1971
  811SOL    HW1 2432   1.363   2.425   1.225  2.6253  0.5786 -1.0774
  811SOL    HW2 2433   1.352   2.596   1.251  1.8356 -1.0210  0.1794
  812SOL     OW 2434   1.414   0.731   1.985 -0.2575  0.2341 -0.3511
  812SOL    HW1 2435   1.345   0.770   2.053 -0.7816 -1.1153  2.5421
  812SOL    HW2 2436   1.443   0.799   1.914  3.0272  0.2108  1.5806
  813SOL     OW 2437   1.637   2.070   2.463 -0.6545  0.2961 -0.2822
  813SOL    HW1 2438   1.686   1.983   2.498  2.3734  2.3861  0.4426
  813SOL    HW2 2439   1.614   2.066   2.363 -1.2123 -1.2874 -1.2840
  814SOL     OW 2440   2.950   1.566   2.861  0.4814  0.0988  0.1298
  814SOL    HW1 2441   3.025   1.524   2.920  0.7087 -0.2379 -2.3710
  814SOL    HW2 2442   2.988   1.638   2.804 -1.4916 -2.9323 -0.9071
  815SOL     OW 2443   2.184   2.958   2.809  0.4123 -0.2730  0.0339
  815SOL    HW1 2444   2.174   2.863   2.842 -3.4843 -1.6035 -0.2803
  815SOL    HW2 2445   2.279   2.998   2.820  1.8484 -1.4409  2.9815
  816SOL     OW 2446   1.582   0.372   1.688  0.3272  0.1463 -0.2920
  816SOL    HW1 2447   1.601   0.271   1.708 -2.1946 -0.2836  1.1205
  816SOL    HW2 2448   1.503   0.405   1.749 -1.2034  1.4771  1.9892
  817SOL     OW 2449   0.359   1.171   2.645  0.1136  0.6213  0.2583
  817SOL    HW1 2450   0.300   1.203   2.724 -0.2251 -1.0216  0.7680
  817SOL    HW2 2451   0.385   1.241   2.578  1.3181  0.5196  0.5038
  818SOL     OW 2452   1.957   0.844   0.401  0.0534 -0.4877  0.6257
  818SOL    HW1 2453   2.051   0.825   0.440  0.2365 -0.2681  0.5042
  818SOL    HW2 2454   1.897   0.895   0.472 -0.5730  0.6161  0.5033
  819SOL     OW 2455   2.764   2.948   3.077 -0.0536 -0.2877  1.2137
  819SOL    HW1 2456   2.790   2.882   3.156  0.3642  2.3639  2.3192
  819SOL    HW2 2457   2.705   2.898   3.006 -0.1236 -0.2358  2.8279
  820SOL     OW 2458   1.227   1.046   0.553  0.3516  0.3363 -0.3044
  820SOL    HW1 2459   1.252   1.138   0.579 -0.2787 -2.1359 -2.3450
  820SOL    HW2 2460   1.230   0.978   0.633 -0.1286 -0.8586 -0.7470
  821SOL     OW 2461   0.037   1.269   0.712 -0.2264 -0.1191  0.5080
  821SOL    HW1 2462  -0.029   1.290   0.789 -0.1666 -1.3363 -0.4692
  821SOL    HW2 2463   0.087   1.354   0.675  3.5718  0.3796 -2.9895
  822SOL     OW 2464   2.576   1.812   2.453 -0.5102  0.4492 -0.1245
  822SOL    HW1 2465   2.563   1.886   2.522 -0.3774  0.1300 -0.2689
  822SOL    HW2 2466   2.490   1.798   2.396 -1.0972  0.6303  0.7974
  823SOL     OW 2467   2.011   0.869   1.125  0.5096  0.9433 -0.3807
  823SOL    HW1 2468   2.004   0.856   1.231 -2.5887 -2.5138  1.8436
  823SOL    HW2 2469   1.925   0.918   1.094  3.4119  0.6301  0.2186
  824SOL     OW 2470   0.192   1.989   2.811  0.3279 -0.5420  0.0412
  824SOL    HW1 2471   0.209   1.908   2.878  1.7945 -0.4811 -0.4128
  824SOL    HW2 2472   0.250   1.966   2.730  0.9371 -1.7203  2.1831
  825SOL     OW 2473   1.318   1.032   0.289  0.1942  0.3961 -0.4006
  825SOL    HW1 2474   1.276   1.119   0.258  1.9644 -2.6783  0.9891
  825SOL    HW2 2475   1.294   1.013   0.389 -0.7973  1.7959  0.6495
  826SOL     OW 2476   1.953   0.652   1.571 -0.6302 -0.3836  0.4321
  826SOL    HW1 2477   2.036   0.600   1.608  2.0829 -0.1825  0.9996
  826SOL    HW2 2478   1.881   0.583   1.534  0.1438 -2.2166 -0.4980
  827SOL     OW 2479   0.683   1.220   0.291 -0.8993  0.3274  0.3256
  827SOL    HW1 2480   0.742   1.146   0.244 -1.5269 -1.6058 -2.9193
  827SOL    HW2 2481   0.617   1.176   0.363 -0.5925 -1.3020  2.4622
  828SOL     OW 2482   2.638   0.093   1.529  0.0702 -0.0348 -0.5921
  828SOL    HW1 2483   2.540   0.098   1.494  0.3124 -0.4779 -1.5119
  828SOL    HW2 2484   2.636   0.080   1.635 -0.3155  1.3677  1.1766
  829SOL     OW 2485   2.919   2.432   2.858  0.5347 -0.6796 -0.5372
  829SOL    HW1 2486   2.831   2.381   2.881  1.4515 -2.8243 -0.9853
  829SOL    HW2 2487   2.906   2.524   2.811  2.6705  0.8881 -0.5929
  830SOL     OW 2488   2.824   1.010   3.041 -0.2698  0.1664 -0.2988
  830SOL    HW1 2489   2.886   1.089   3.066  1.8523 -0.6695 -0.3569
  830SOL    HW2 2490   2.879   0.920   3.051  0.9046 -0.4477  0.9384
  831SOL     OW 2491   0.125   0.583   0.416 -0.4381 -0.1262  0.3080
  831SOL    HW1 2492   0.098   0.518   0.493 -0.0564 -0.0457  0.1697
  831SOL    HW2 2493   0.144   0.525   0.332 -0.1323 -0.8537  0.7451
  832SOL     OW 2494   1.841   0.783   3.011 -0.1275 -0.0026  0.0482
  832SOL    HW1 2495   1.753   0.835   2.997 -1.2406  0.6094  1.8352
  832SOL    HW2 2496   1.838   0.678   3.008  0.7775 -0.7338  0.1177
  833SOL     OW 2497   2.429   2.063   0.453 -0.2479 -0.3941 -0.0847
  833SOL    HW1 2498   2.333   2.035   0.431  0.1615 -0.2328 -0.5378
  833SOL    HW2 2499   2.485   1.979   0.474 -1.8067  3.6726  0.6346
  834SOL     OW 2500   0.121   0.161   0.505  0.0373 -0.8966 -0.3037
  834SOL    HW1 2501   0.107   0.062   0.539  2.0462 -0.8799  0.2937
  834SOL    HW2 2502   0.132   0.172   0.403 -0.0844  0.5388  2.1146
  835SOL     OW 2503   2.388   1.509   1.164  0.1844  0.1634 -0.0208
  835SOL    HW1 2504   2.393   1.613   1.187  2.1175  1.5961  2.1005
  835SOL    HW2 2505   2.431   1.475   1.076  0.2675 -2.8656  0.2892
  836SOL     OW 2506   1.626   0.883   2.584 -0.2110  0.3170  0.1515
  836SOL    HW1 2507   1.535   0.837   2.597  0.5879  0.5883  1.1939
  836SOL    HW2 2508   1.646   0.898   2.485 -2.0682 -2.2943 -0.1726
  837SOL     OW 2509   1.621   0.085   0.563  0.1550 -0.6464  0.3332
  837SOL    HW1 2510   1.563   0.145   0.624  1.7572  0.2524 -1.3082
  837SOL    HW2 2511   1.591   0.087   0.462  1.0865 -0.1547 -1.6017
  838SOL     OW 2512   1.226   1.413   2.783  0.2306 -0.5884  0.1699
  838SOL    HW1 2513   1.188   1.471   2.861  1.9485 -0.3640 -0.2780
  838SOL    HW2 2514   1.158   1.357   2.725 -0.0938 -2.8994  1.0216
  839SOL     OW 2515   1.661   0.293   0.995 -0.2751  1.0420  0.0106
  839SOL    HW1 2516   1.686   0.366   1.062 -1.3857  0.0892 -0.5459
  839SOL    HW2 2517   1.621   0.212   1.047  1.0625  1.7240  0.7849
  840SOL     OW 2518   2.524   2.871   1.763  0.3001  0.2910  0.3154
  840SOL    HW1 2519   2.477   2.829   1.680 -0.4322 -1.2657 -1.9900
  840SOL    HW2 2520   2.560   2.799   1.826  0.2163 -0.4327  1.5092
  841SOL     OW 2521   1.583   0.908   2.977  0.0749 -0.5617  0.1496
  841SOL    HW1 2522   1.529   0.938   3.062 -1.3235  1.6765  0.4769
  841SOL    HW2 2523   1.590   0.980   2.901 -0.5444 -1.9035 -0.4572
  842SOL     OW 2524   0.813   1.511   0.972 -0.7717  0.2453  0.3496
  842SOL    HW1 2525   0.769   1.597   1.013 -0.3118  0.0801 -0.3103
  842SOL    HW2 2526   0.752   1.458   0.904  1.3696 -0.4161  1.7253
  843SOL     OW 2527   0.133   0.120   1.473  0.0202 -0.1590  0.0674
  843SOL    HW1 2528   0.231   0.134   1.503  0.0698  2.4323 -0.1386
  843SOL    HW2 2529   0.098   0.023   1.493 -1.1661 -2.4311  2.3831
  844SOL     OW 2530   0.771   2.476   0.292  0.1810  0.0332  0.1348
  844SOL    HW1 2531   0.720   2.490   0.385 -2.3713 -1.8039 -0.7060
  844SOL    HW2 2532   0.710   2.489   0.206  1.0573 -1.6121 -2.2043
  845SOL     OW 2533   1.664   2.886   1.383  0.4334  0.4439  0.3504
  845SOL    HW1 2534   1.728   2.899   1.464  1.3286  0.4145  1.7554
  845SOL    HW2 2535   1.632   2.974   1.340 -0.9517 -1.1988 -2.6855
  846SOL     OW 2536   1.675   2.973   0.868  0.8510  0.0016  0.4995
  846SOL    HW1 2537   1.636   2.969   0.774 -0.8228 -0.1447  0.5438
  846SOL    HW2 2538   1.779   2.973   0.878 -1.2464  0.8134 -1.1941
  847SOL     OW 2539   2.024   1.650   0.222 -0.2557 -0.0796  0.1302
  847SOL    HW1 2540   1.993   1.607   0.309  2.4078 -0.0740 -1.9409
  847SOL    HW2 2541   1.949   1.638   0.149 -0.5672 -1.0661 -0.1292
  848SOL     OW 2542   2.495   0.784   2.669 -0.7721 -0.3449 -0.3441
  848SOL    HW1 2543   2.500   0.889   2.676 -2.0824  2.4205  2.1632
  848SOL    HW2 2544   2.459   0.757   2.576  0.0233 -1.0625  1.1535
  849SOL     OW 2545   2.470   0.874   2.344 -0.4339 -0.1741 -0.3191
  849SOL    HW1 2546   2.533   0.835   2.271  0.4212  0.2204 -1.6432
  849SOL    HW2 2547   2.409   0.803   2.387  0.0657 -0.3852 -1.6032
  850SOL     OW 2548   1.517   0.095   1.332  0.4745 -0.2393 -0.4231
  850SOL    HW1 2549   1.540   0.086   1.232  0.3558  0.7573  1.9340
  850SOL    HW2 2550   1.426   0.048   1.353  2.2041  1.9209 -0.6097
  851SOL     OW 2551   0.470   1.699   0.665 -0.0452  0.1262  0.6695
  851SOL    HW1 2552   0.496   1.799   0.646  2.3007  1.1451 -2.0202
  851SOL    HW2 2553   0.550   1.646   0.698  0.1842 -0.2278  0.2033
  852SOL     OW 2554   0.819   2.163   1.671  0.1510 -0.4718  0.2329
  852SOL    HW1 2555   0.827   2.246   1.605 -0.1928  2.6605 -1.4987
  852SOL    HW2 2556   0.734   2.169   1.728  1.3104  0.9302 -2.0559
  853SOL     OW 2557   2.480   1.561   2.623  0.1662 -0.1083  0.3151
  853SOL    HW1 2558   2.444   1.481   2.574 -3.1712 -0.2406  1.3487
  853SOL    HW2 2559   2.515   1.641   2.562  0.1425  2.0172 -0.5039
  854SOL     OW 2560   2.518   1.395   1.785 -0.0477  0.0138  0.4907
  854SOL    HW1 2561   2.542   1.367   1.688 -1.9178  0.7693  0.8815
  854SOL    HW2 2562   2.509   1.311   1.844  1.0493 -0.1811  0.1219
  855SOL     OW 2563   2.098   2.353   0.960 -0.8505 -0.8737  0.2644
  855SOL    HW1 2564   2.133   2.425   0.892  0.3138  0.1692 -0.4948
  855SOL    HW2 2565   2.141   2.355   1.059  0.5234 -0.8760  1.4757
  856SOL     OW 2566   1.390   1.432   0.881  0.4011 -1.0437  0.3617
  856SOL    HW1 2567   1.456   1.481   0.943 -3.3901 -1.7104 -0.2849
  856SOL    HW2 2568   1.300   1.478   0.897  0.0582  1.5755 -0.7811
  857SOL     OW 2569   2.973   2.624   1.044  0.1752 -1.1559  0.7166
  857SOL    HW1 2570   2.895   2.562   1.065  1.0100  1.1691  1.8823
  857SOL    HW2 2571   3.061   2.570   1.028  1.4592 -3.6128  0.7787
  858SOL     OW 2572   2.317   2.126   1.696 -0.1638  0.7457 -0.3828
  858SOL    HW1 2573   2.221   2.144   1.668 -0.3861  1.6826  0.9886
  858SOL    HW2 2574   2.363   2.044   1.648  0.9093 -0.5480  3.6511
  859SOL     OW 2575   2.448   0.534   1.063  0.0236 -0.8787  0.6507
  859SOL    HW1 2576   2.515   0.581   1.000 -0.3148  3.4456 -0.6091
  859SOL    HW2 2577   2.473   0.442   1.095  0.7172  1.0453 -1.4421
  860SOL     OW 2578   1.941   2.819   0.466 -0.1504  0.0117 -0.2091
  860SOL    HW1 2579   1.935   2.777   0.366  0.8442 -1.1153 -1.4003
  860SOL    HW2 2580   2.016   2.884   0.483  0.3002  0.5491 -3.8494
  861SOL     OW 2581   1.102   2.589   2.805 -0.0395  0.2084 -0.6340
  861SOL    HW1 2582   1.138   2.662   2.742 -0.3209 -0.9837 -0.0451
  861SOL    HW2 2583   1.128   2.591   2.904  4.7639 -2.3125 -1.8412
  862SOL     OW 2584   2.850   2.500   1.603  0.1063 -0.2378 -0.1645
  862SOL    HW1 2585   2.920   2.527   1.680  2.0847  2.9459  2.2610
  862SOL    HW2 2586   2.816   2.586   1.555  1.5170  0.1497  1.6657
  863SOL     OW 2587   1.860   2.682   0.193  0.1223  0.3065  0.0766
  863SOL    HW1 2588   1.883   2.578   0.188  1.9530 -1.3693 -0.8922
  863SOL    HW2 2589   1.759   2.705   0.208  0.9136  0.2090 -1.8389
  864SOL     OW 2590   1.857   1.143   2.896  0.0488 -0.1444  0.3764
  864SOL    HW1 2591   1.910   1.100   2.821  0.2461  3.0785  2.3744
  864SOL    HW2 2592   1.914   1.195   2.963  0.2009  1.8757 -0.6393
  865SOL     OW 2593   2.189   1.864   0.680 -0.0715  0.1305  0.6495
  865SOL    HW1 2594   2.242   1.834   0.762 -0.8380  0.5024 -2.1205
  865SOL    HW2 2595   2.096   1.817   0.676  2.9565 -1.2581  1.0118
  866SOL     OW 2596   2.960   2.903   0.984  0.0351  0.1456 -0.1490
  866SOL    HW1 2597   2.998   2.916   0.888 -2.3474  0.0146  1.2268
  866SOL    HW2 2598   2.956   2.800   1.004  0.1029 -0.5621 -1.9678
  867SOL     OW 2599   0.332   1.368   0.926  0.4255 -0.6719 -0.4512
  867SOL    HW1 2600   0.348   1.288   0.857  0.3497 -0.3910 -0.0817
  867SOL    HW2 2601   0.277   1.447   0.893  1.5533 -0.2761 -0.6664
  868SOL     OW 2602   0.762   1.908   2.026  0.2692 -0.0266 -0.0652
  868SOL    HW1 2603   0.721   1.879   2.113  0.4012 -1.7417 -2.6290
  868SOL    HW2 2604   0.721   1.997   1.983 -1.5732  0.3976  0.2071
  869SOL     OW 2605   2.504   1.923   1.598 -0.1312 -0.3449 -0.2205
  869SOL    HW1 2606   2.590   1.960   1.558 -0.5203 -0.8835  0.4264
  869SOL    HW2 2607   2.505   1.819   1.595 -0.6009  0.0609 -0.8043
  870SOL     OW 2608   2.291   2.620   1.277 -0.3456 -0.3065 -0.4214
  870SOL    HW1 2609   2.285   2.528   1.218 -2.9825  0.2041  0.6789
  870SOL    HW2 2610   2.241   2.614   1.366 -0.3028  0.3524 -0.9460
  871SOL     OW 2611   2.986   2.089   0.577 -0.2366 -0.0898  0.4797
  871SOL    HW1 2612   2.926   2.157   0.635  1.1714  2.8706 -0.3773
  871SOL    HW2 2613   2.940   2.037   0.498  0.1671  0.6633  1.3530
  872SOL     OW 2614   2.132   0.480   1.688  0.0607 -0.0451 -0.3792
  872SOL    HW1 2615   2.069   0.463   1.770  1.2439  0.1474  1.0163
  872SOL    HW2 2616   2.225   0.433   1.691  0.9984  0.4296  2.1072
  873SOL     OW 2617   1.737   2.080   2.994  0.2559 -0.2729 -0.1066
  873SOL    HW1 2618   1.726   2.179   3.025 -0.3589 -1.3971 -1.3341
  873SOL    HW2 2619   1.701   2.069   2.899  0.8944  0.0205  0.4360
  874SOL     OW 2620   0.657   2.461   0.807 -0.1848  0.1742  0.0415
  874SOL    HW1 2621   0.640   2.551   0.857 -3.4620 -4.2028  0.6179
  874SOL    HW2 2622   0.759   2.439   0.800  1.2358  1.6468  0.6259
  875SOL     OW 2623   2.295   1.467   1.431 -0.0867  0.0254 -0.1735
  875SOL    HW1 2624   2.382   1.494   1.474  0.0516 -2.7642  0.6205
  875SOL    HW2 2625   2.303   1.476   1.325 -0.3542 -0.4050  1.9027
  876SOL     OW 2626   0.078   2.243   2.691  0.2504  0.2448  0.3695
  876SOL    HW1 2627   0.112   2.161   2.740 -0.8363  0.0230  3.0581
  876SOL    HW2 2628   0.097   2.323   2.751 -1.9905 -1.8786  0.2666
  877SOL     OW 2629   2.858   2.685   0.581 -0.4444 -0.4465  0.0801
  877SOL    HW1 2630   2.837   2.777   0.631 -0.2618  2.2468  0.9072
  877SOL    HW2 2631   2.893   2.615   0.645 -4.1859  0.5611 -1.0921
  878SOL     OW 2632   2.835   1.592   2.189  0.1448 -0.4648  0.2280
  878SOL    HW1 2633   2.920   1.551   2.145  2.0543  1.1996 -0.5362
  878SOL    HW2 2634   2.859   1.628   2.283  2.2043 -0.2411 -0.4277
  879SOL     OW 2635   2.382   0.042   1.137  0.6652  0.3246  0.1087
  879SOL    HW1 2636   2.424  -0.050   1.159 -2.1161 -1.1129 -0.1368
  879SOL    HW2 2637   2.287   0.038   1.094 -0.2931 -0.6948  0.0537
  880SOL     OW 2638   0.674   0.474   2.233 -0.4813 -0.4350  0.1242
  880SOL    HW1 2639   0.597   0.428   2.286 -0.2760 -0.2295 -0.5606
  880SOL    HW2 2640   0.725   0.410   2.163 -0.2194 -2.4760 -0.2419
  881SOL     OW 2641   0.893   0.075   0.506  0.7819 -0.3553 -0.2068
  881SOL    HW1 2642   0.935  -0.016   0.534 -0.9757  1.3017  3.6936
  881SOL    HW2 2643   0.814   0.073   0.436 -1.4785  0.8698 -2.4271
  882SOL     OW 2644   2.714   1.655   1.649  0.0884 -0.2629  0.8490
  882SOL    HW1 2645   2.814   1.660   1.624 -1.9685 -0.6773  2.0184
  882SOL    HW2 2646   2.700   1.670   1.751  1.3460 -0.2462  1.3935
  883SOL     OW 2647   0.896   0.588   0.956  0.7751  0.0477 -0.3729
  883SOL    HW1 2648   0.945   0.671   0.995  0.5112  0.0023 -0.7925
  883SOL    HW2 2649   0.904   0.502   1.021 -0.1307 -0.9017  0.3910
  884SOL     OW 2650   1.176   1.790   1.122 -0.1189  0.4771 -1.1781
  884SOL    HW1 2651   1.139   1.704   1.080 -0.3414 -2.6560 -0.5780
  884SOL    HW2 2652   1.106   1.872   1.136 -1.6383  2.4490 -0.9265
  885SOL     OW 2653   2.349   1.825   2.305 -0.2168  0.1663 -0.0977
  885SOL    HW1 2654   2.268   1.760   2.332 -1.2360  0.4809  2.6577
  885SOL    HW2 2655   2.321   1.927   2.299  0.5972 -3.5528  0.8096
  886SOL     OW 2656   2.610   0.463   1.808  0.2686 -0.2199 -0.3952
  886SOL    HW1 2657   2.646   0.385   1.866  2.0973  2.7651  3.7700
  886SOL    HW2 2658   2.680   0.537   1.791  1.4146  0.5691  1.0072
  887SOL     OW 2659   0.149   2.034   1.220 -0.0210 -0.1861 -0.4243
  887SOL    HW1 2660   0.046   2.027   1.187 -0.1899  0.9706 -1.2686
  887SOL    HW2 2661   0.188   2.130   1.212  0.9381 -2.6760  1.2507
  888SOL     OW 2662   0.548   1.327   1.566  0.2835  0.7449  0.6142
  888SOL    HW1 2663   0.599   1.357   1.480  0.1623  1.5141 -0.3326
  888SOL    HW2 2664   0.487   1.245   1.541 -1.7124 -0.7761 -1.4935
  889SOL     OW 2665   0.805   2.536   2.176 -0.0634 -0.6531 -0.5431
  889SOL    HW1 2666   0.729   2.468   2.192 -2.7534  1.8271 -0.1571
  889SOL    HW2 2667   0.876   2.524   2.100  0.3317  1.0390  0.9691
  890SOL     OW 2668   2.358   2.486   0.209 -0.0914  0.2198 -0.4698
  890SOL    HW1 2669   2.381   2.565   0.145 -2.5026  0.5280 -0.6470
  890SOL    HW2 2670   2.307   2.519   0.295 -0.1750 -0.5904 -1.4636
  891SOL     OW 2671   2.605   1.600   0.738  0.3301 -0.7629 -0.6765
  891SOL    HW1 2672   2.567   1.543   0.819 -0.5632  1.3287 -0.3935
  891SOL    HW2 2673   2.524   1.630   0.681 -1.9724 -3.2442  0.6760
  892SOL     OW 2674   0.323   0.219   2.156 -0.4793 -0.1244  0.4071
  892SOL    HW1 2675   0.308   0.267   2.064  1.9133 -0.1755 -1.1496
  892SOL    HW2 2676   0.397   0.259   2.214  1.3054 -3.8717 -1.0443
  893SOL     OW 2677   1.656   0.238   2.761 -0.3631  0.2191  0.1129
  893SOL    HW1 2678   1.735   0.303   2.744 -0.3683 -1.8956 -0.4953
  893SOL    HW2 2679   1.562   0.283   2.749 -0.6454 -0.4412  1.3610
  894SOL     OW 2680   2.232   2.000   0.032  0.8545 -0.0536  0.5733
  894SOL    HW1 2681   2.210   1.922  -0.036 -1.5580 -1.5160 -2.8793
  894SOL    HW2 2682   2.244   1.957   0.125 -1.5201 -2.9574 -2.0421
  895SOL     OW 2683   2.867   1.436   0.881  0.2007  0.6852 -0.3096
  895SOL    HW1 2684   2.908   1.361   0.941 -3.2026 -1.2836  3.3152
  895SOL    HW2 2685   2.934   1.512   0.853  2.0056 -2.5064 -0.2565
  896SOL     OW 2686   1.808   1.850   1.176  0.0587 -0.6835 -0.1792
  896SOL    HW1 2687   1.799   1.819   1.077 -0.8769 -0.8193  0.0515
  896SOL    HW2 2688   1.743   1.929   1.204  0.1130  0.7161 -0.6224
  897SOL     OW 2689   0.291   0.542   3.081  0.2173 -0.1602 -0.1921
  897SOL    HW1 2690   0.239   0.601   3.007  0.6761 -2.1166  0.2729
  897SOL    HW2 2691   0.397   0.545   3.082 -0.0661 -0.9152 -3.4243
  898SOL     OW 2692   0.591   2.852   1.121  0.2272 -0.5216  0.0162
  898SOL    HW1 2693   0.543   2.942   1.140 -0.8415 -1.4776 -2.7254
  898SOL    HW2 2694   0.673   2.833   1.184 -2.0116 -0.6446  0.0930
  899SOL     OW 2695   2.742   0.880   1.266 -0.5618 -0.1577 -0.4795
  899SOL    HW1 2696   2.673   0.865   1.193  0.3395  1.3810 -1.4552
  899SOL    HW2 2697   2.832   0.909   1.232 -1.3635  0.4947 -0.9770
  900SOL     OW 2698   1.026   2.573   2.378  0.3870  0.6999 -0.3249
  900SOL    HW1 2699   0.947   2.560   2.314  0.0402 -0.2458 -1.2710
  900SOL    HW2 2700   1.004   2.544   2.478  0.0909  0.6191  0.1884
  901SOL     OW 2701   1.870   2.371   1.397 -0.3771 -0.2234 -0.1394
  901SOL    HW1 2702   1.847   2.365   1.293 -0.4395  1.1605  0.7864
  901SOL    HW2 2703   1.964   2.335   1.423 -1.8858  0.2689  1.9598
  902SOL     OW 2704   2.534   1.656   1.420  0.0757 -0.3302 -0.2707
  902SOL    HW1 2705   2.579   1.623   1.509  1.1681  0.2664  1.4362
  902SOL    HW2 2706   2.592   1.622   1.337  2.5867 -0.5997 -0.1489
  903SOL     OW 2707   0.273   2.477   1.973 -0.2805 -0.2984  0.5817
  903SOL    HW1 2708   0.194   2.429   1.927 -1.7592 -0.2213 -2.8470
  903SOL    HW2 2709   0.299   2.565   1.925 -2.6810 -0.6026  1.3554
  904SOL     OW 2710   2.055   0.691   2.437 -0.6229 -0.1620 -0.5303
  904SOL    HW1 2711   1.989   0.691   2.519 -0.6743  0.8388 -0.6728
  904SOL    HW2 2712   2.009   0.712   2.349 -0.3711 -1.5028  0.0287
  905SOL     OW 2713   2.802   0.068   2.592  0.2438  0.0753  0.2968
  905SOL    HW1 2714   2.852  -0.022   2.599  0.9922  1.0482 -1.0527
  905SOL    HW2 2715   2.872   0.144   2.571  0.3953  0.0598 -2.3751
  906SOL     OW 2716   0.162   1.789   1.866  0.5247 -0.0351  0.2568
  906SOL    HW1 2717   0.109   1.803   1.776 -0.9467  1.6315  1.3474
  906SOL    HW2 2718   0.262   1.822   1.869 -0.9343 -1.6057 -1.6840
  907SOL     OW 2719   0.143   2.472   1.006 -0.2874  0.7371  0.4273
  907SOL    HW1 2720   0.243   2.460   1.004  0.7626 -1.5918  1.0308
  907SOL    HW2 2721   0.099   2.410   0.938  0.7440 -0.8858 -0.4180
  908SOL     OW 2722   2.667   2.964   0.405  0.3875 -0.1585  0.5039
  908SOL    HW1 2723   2.633   2.998   0.311 -0.1892 -2.3695  0.7330
  908SOL    HW2 2724   2.736   2.893   0.386 -0.8163  0.1559 -0.8544
  909SOL     OW 2725   0.767   0.980   2.728 -0.2019 -0.4145  0.3851
  909SOL    HW1 2726   0.728   0.909   2.662 -2.2355  0.7599 -0.5701
  909SOL    HW2 2727   0.847   1.026   2.684  0.8435 -1.6915  0.7838
  910SOL     OW 2728   1.756   1.862   2.141  0.8094 -0.1467 -0.4750
  910SOL    HW1 2729   1.813   1.907   2.070  0.1347  1.7539  1.9109
  910SOL    HW2 2730   1.673   1.917   2.159  2.3112 -0.7251  0.3354
  911SOL     OW 2731   1.861   2.939   1.589 -0.3946  0.1890  0.0063
  911SOL    HW1 2732   1.945   2.912   1.533  0.6741  1.4506  1.7003
  911SOL    HW2 2733   1.832   2.867   1.663 -2.6769 -1.5084  0.7049
  912SOL     OW 2734   2.914   0.982   0.743 -0.0775  0.0050  0.3656
  912SOL    HW1 2735   2.909   0.965   0.845 -0.2736 -0.0569 -0.6282
  912SOL    HW2 2736   2.862   1.073   0.721 -2.3940 -0.1503 -0.1912
  913SOL     OW 2737   2.555   1.284   1.543  0.3106 -0.1631  0.5363
  913SOL    HW1 2738   2.562   1.178   1.553  0.0181 -3.5161  0.9854
  913SOL    HW2 2739   2.609   1.316   1.459 -0.8421 -2.6877  1.3522
  914SOL     OW 2740   2.829   0.546   1.212 -0.5943 -0.3315 -0.1997
  914SOL    HW1 2741   2.869   0.456   1.245 -2.0128 -4.9323 -0.7961
  914SOL    HW2 2742   2.800   0.611   1.287  0.8896  2.0354 -2.1285
  915SOL     OW 2743   1.239   0.792   1.037 -0.2754  0.3959 -0.2836
  915SOL    HW1 2744   1.305   0.772   1.114 -1.2400  1.1736  0.2573
  915SOL    HW2 2745   1.137   0.802   1.060 -2.3340 -1.7236  0.9065
  916SOL     OW 2746   0.632   0.009   0.675 -0.5919  0.1724 -0.0206
  916SOL    HW1 2747   0.657   0.100   0.723 -0.6948  0.4251  0.9615
  916SOL    HW2 2748   0.637   0.018   0.571  0.2963  0.8533 -1.9961
  917SOL     OW 2749   2.821   2.620   1.975  0.4377 -0.1541 -0.0040
  917SOL    HW1 2750   2.718   2.631   1.992  0.4145 -0.7102  0.5665
  917SOL    HW2 2751   2.874   2.713   1.968  2.4386 -1.9508 -0.7723
  918SOL     OW 2752   1.060   2.231   2.976 -0.1682 -0.2115  0.4021
  918SOL    HW1 2753   1.017   2.242   3.071 -2.3681  1.2006  0.1193
  918SOL    HW2 2754   1.117   2.145   2.962 -1.5622 -0.2358  0.3760
  919SOL     OW 2755   0.873   1.641   2.838 -0.1208 -0.5602  0.0968
  919SOL    HW1 2756   0.936   1.704   2.782  0.7132  1.9916 -0.7597
  919SOL    HW2 2757   0.834   1.564   2.778  0.6524 -1.1519 -1.0668
  920SOL     OW 2758   1.270   1.905   2.467  0.4073  0.2466  0.1154
  920SOL    HW1 2759   1.216   1.886   2.380 -2.7864  0.8377 -0.7861
  920SOL    HW2 2760   1.281   1.819   2.521 -1.4137  1.0961  0.0145
  921SOL     OW 2761   1.093   0.040   2.608  0.3202  0.2289 -0.6722
  921SOL    HW1 2762   1.077   0.058   2.508 -0.9195 -1.3358 -0.8466
  921SOL    HW2 2763   1.018  -0.025   2.645 -1.3963 -2.3509  3.1425
  922SOL     OW 2764   2.158   2.415   2.848 -0.1780  0.2461  1.0735
  922SOL    HW1 2765   2.171   2.308   2.853 -2.7217 -2.8844  1.1938
  922SOL    HW2 2766   2.073   2.439   2.789 -1.4428 -0.0875  0.9014
  923SOL     OW 2767   1.247   2.722   0.254  0.1350 -0.3853  0.2895
  923SOL    HW1 2768   1.316   2.756   0.326  2.6430 -0.7321  0.0784
  923SOL    HW2 2769   1.252   2.619   0.235  0.7262  0.2704  0.1395
  924SOL     OW 2770   2.871   1.526   0.068 -0.3897 -0.0676  0.3610
  924SOL    HW1 2771   2.799   1.537  -0.008 -0.3213  1.8721  0.4122
  924SOL    HW2 2772   2.965   1.498   0.026  1.2839  2.1549 -3.3513
  925SOL     OW 2773   0.013   2.963   1.501 -0.5348 -0.1064  0.4634
  925SOL    HW1 2774  -0.077   2.966   1.551 -0.5113 -3.3571 -2.7511
  925SOL    HW2 2775   0.002   2.911   1.413  1.5401  0.6132 -1.4766
  926SOL     OW 2776   1.349   2.819   1.257  0.2802 -0.1743  0.2709
  926SOL    HW1 2777   1.409   2.810   1.171 -2.1739  0.2906 -0.1176
  926SOL    HW2 2778   1.387   2.887   1.328 -0.7953  3.2888 -2.1153
  927SOL     OW 2779   0.317   2.674   1.782 -0.4943 -0.0713 -0.2913
  927SOL    HW1 2780   0.270   2.617   1.705  1.3199 -1.1708  0.3234
  927SOL    HW2 2781   0.306   2.773   1.763  2.3833 -0.3447 -0.8039
  928SOL     OW 2782   1.549   2.029   2.190 -0.0130  0.5422 -0.4598
  928SOL    HW1 2783   1.579   2.121   2.157  0.8377 -2.6403  1.8435
  928SOL    HW2 2784   1.452   2.014   2.167 -0.1086  2.0071  0.5705
  929SOL     OW 2785   2.439   2.469   2.901  0.3331 -0.3978  0.0917
  929SOL    HW1 2786   2.338   2.438   2.910  1.8195  1.0913  3.4667
  929SOL    HW2 2787   2.471   2.477   2.800 -2.2116 -1.6160 -2.8091
  930SOL     OW 2788   2.191   1.965   1.046 -0.0413  0.2061 -0.2836
  930SOL    HW1 2789   2.143   1.940   1.134  2.4143 -0.6179  0.1408
  930SOL    HW2 2790   2.270   2.031   1.060  1.6937 -0.1914  1.1507
  931SOL     OW 2791   0.533   1.714   2.700 -0.4527  0.1287 -0.4315
  931SOL    HW1 2792   0.589   1.736   2.780  0.2270 -0.3371 -0.5138
  931SOL    HW2 2793   0.548   1.625   2.654  0.3933 -1.1435  2.9587
  932SOL     OW 2794   0.425   0.091   2.943  0.6046 -0.8428 -0.4091
  932SOL    HW1 2795   0.517   0.133   2.951  1.8645 -1.6818  0.9137
  932SOL    HW2 2796   0.429  -0.002   2.992  2.0406  2.0447  0.3863
  933SOL     OW 2797   1.033   0.728   3.030  0.2330 -0.1151  0.0797
  933SOL    HW1 2798   1.097   0.771   3.098 -1.5942  0.0128  0.2870
  933SOL    HW2 2799   0.946   0.783   3.018  0.1120 -0.3158  1.1588
  934SOL     OW 2800   0.882   2.985   2.663 -0.0840 -0.1431  0.4680
  934SOL    HW1 2801   0.887   2.910   2.591  3.5892 -0.4754 -2.7743
  934SOL    HW2 2802   0.892   2.946   2.761 -0.6983  1.5602  1.7577
  935SOL     OW 2803   0.010   0.558   0.839 -0.4334  0.2027 -0.0047
  935SOL    HW1 2804  -0.009   0.492   0.759 -2.7811 -0.9492 -1.8191
  935SOL    HW2 2805  -0.065   0.625   0.862  1.1147 -2.2867 -0.4977
  936SOL     OW 2806   1.099   2.909   0.104 -0.8900  0.9175  0.4684
  936SOL    HW1 2807   1.155   2.948   0.021 -3.8993 -0.0255 -0.7124
  936SOL    HW2 2808   1.159   2.841   0.158  0.9943  0.6002  3.4487
  937SOL     OW 2809   1.972   2.660   2.106  0.0481  0.4223 -0.4264
  937SOL    HW1 2810   1.879   2.690   2.097 -0.4570 -1.3415  0.8330
  937SOL    HW2 2811   2.047   2.719   2.066 -0.6457 -1.3417 -0.8996
  938SOL     OW 2812   2.768   2.051   1.486 -0.7396 -0.0499  0.2782
  938SOL    HW1 2813   2.726   2.137   1.532  2.9665  2.0657 -1.1893
  938SOL    HW2 2814   2.861   2.030   1.533 -3.0167  1.3337 -0.9730
  939SOL     OW 2815   2.820   1.231   2.474  0.0822  0.0327 -0.2609
  939SOL    HW1 2816   2.899   1.192   2.415  0.2316 -0.6420 -2.5516
  939SOL    HW2 2817   2.820   1.188   2.569 -0.5967 -1.4506 -0.3530
  940SOL     OW 2818   0.971   0.451   2.698 -0.2215 -0.2608 -0.5697
  940SOL    HW1 2819   1.033   0.375   2.736  0.4860  2.7335 -0.5113
  940SOL    HW2 2820   0.883   0.397   2.675  2.4701 -0.7514  1.1086
  941SOL     OW 2821   0.075   2.835   2.229 -0.3057 -0.0244 -0.9873
  941SOL    HW1 2822   0.090   2.732   2.214 -0.9171  0.4619  2.4024
  941SOL    HW2 2823   0.116   2.868   2.326 -0.0318 -1.4962  2.9133
  942SOL     OW 2824   0.060   0.117   2.489  0.2538  0.3851  0.4530
  942SOL    HW1 2825   0.128   0.158   2.550  1.8451 -1.2881 -1.1555
  942SOL    HW2 2826   0.051   0.176   2.405 -0.2677  1.7191  0.5127
  943SOL     OW 2827   2.113   1.658   2.349  0.4026 -0.3835 -0.2753
  943SOL    HW1 2828   2.099   1.627   2.250  2.0985  1.2294 -5.0417
  943SOL    HW2 2829   2.102   1.583   2.419  0.1479 -0.9439 -0.7044
  944SOL     OW 2830   2.149   2.363   1.462  0.3471 -0.2686 -0.2098
  944SOL    HW1 2831   2.195   2.439   1.513 -2.6990  0.5105 -3.2178
  944SOL    HW2 2832   2.118   2.290   1.528  0.3854 -0.3595 -1.7766
  945SOL     OW 2833   0.688   1.492   0.310 -0.8774  0.2898 -0.3316
  945SOL    HW1 2834   0.689   1.553   0.229  1.1494  0.4747 -0.0820
  945SOL    HW2 2835   0.713   1.397   0.281 -3.1472 -1.9454 -1.4266
  946SOL     OW 2836   0.405   0.933   2.497 -0.1998 -0.1315  0.2009
  946SOL    HW1 2837   0.323   0.882   2.463  0.9299 -0.6395  2.3248
  946SOL    HW2 2838   0.375   1.023   2.542  0.5514  2.7733 -1.9796
  947SOL     OW 2839   1.554   0.508   0.047  0.2214  0.5654  0.2924
  947SOL    HW1 2840   1.529   0.563  -0.038 -1.0729  3.7611 -0.7929
  947SOL    HW2 2841   1.471   0.507   0.113  1.0035  1.3993 -0.5651
  948SOL     OW 2842   1.983   3.047   2.173 -0.0135 -0.1616  0.0037
  948SOL    HW1 2843   2.006   3.008   2.078  4.7264  0.4651  0.1205
  948SOL    HW2 2844   1.937   2.977   2.241  1.2641  1.1580  0.6780
  949SOL     OW 2845   0.612   2.497   0.521  0.6921  0.6070  0.1358
  949SOL    HW1 2846   0.589   2.599   0.503 -0.2209 -1.1810 -4.4349
  949SOL    HW2 2847   0.638   2.467   0.620 -0.1215 -1.1254  0.0416
  950SOL     OW 2848   0.211   2.135   3.066 -0.1827  0.1710 -0.3064
  950SOL    HW1 2849   0.149   2.215   3.055 -2.0134 -0.7503  0.0442
  950SOL    HW2 2850   0.201   2.067   2.989  3.0121 -1.0863  0.5504
  951SOL     OW 2851   1.186   2.790   2.652 -0.4703  0.5040 -0.2394
  951SOL    HW1 2852   1.156   2.799   2.553 -1.5355  0.6722  0.5876
  951SOL    HW2 2853   1.186   2.883   2.700  2.8752 -0.3757 -1.9136
  952SOL     OW 2854   0.107   1.681   0.456  0.7633 -0.7346  0.4480
  952SOL    HW1 2855   0.137   1.786   0.469  2.8717 -0.9452 -1.0508
  952SOL    HW2 2856   0.135   1.610   0.524 -0.1892  2.8197 -1.4093
  953SOL     OW 2857   2.502   1.773   0.227  0.1850 -0.0505 -0.0931
  953SOL    HW1 2858   2.525   1.670   0.206  2.3384 -1.4710 -1.6479
  953SOL    HW2 2859   2.533   1.831   0.151 -0.0120  0.5991  3.2052
  954SOL     OW 2860   2.176   0.538   0.968  0.1258  0.0459  0.2004
  954SOL    HW1 2861   2.166   0.574   0.869 -0.5227 -3.1259 -1.9128
  954SOL    HW2 2862   2.272   0.513   0.989 -0.9542 -0.6466  0.5769
  955SOL     OW 2863   0.205   2.619   1.330  0.3423 -0.0380  0.6005
  955SOL    HW1 2864   0.119   2.669   1.313  2.6228 -0.2449  0.8799
  955SOL    HW2 2865   0.267   2.613   1.245  1.4016 -0.1573  0.6753
  956SOL     OW 2866   2.756   2.459   2.439 -0.1872  0.0165  0.2907
  956SOL    HW1 2867   2.772   2.360   2.427  1.4861 -0.9393  2.9828
  956SOL    HW2 2868   2.763   2.512   2.348 -2.1025 -1.2320  2.6825
  957SOL     OW 2869   1.564   2.054   2.756 -0.5567 -0.6144 -0.7623
  957SOL    HW1 2870   1.529   1.957   2.771 -2.4536  0.0058  1.3250
  957SOL    HW2 2871   1.568   2.078   2.655 -0.7727  2.6688 -2.3220
  958SOL     OW 2872   2.683   2.338   2.977 -0.4883  0.6463 -0.3975
  958SOL    HW1 2873   2.589   2.380   2.957 -2.3850 -2.3761  1.8400
  958SOL    HW2 2874   2.682   2.281   3.061  0.2323  0.7548 -0.2515
  959SOL     OW 2875   0.238   2.781   0.063  0.5607 -0.4337  0.5442
  959SOL    HW1 2876   0.137   2.770   0.032  0.4504  1.1069 -0.4921
  959SOL    HW2 2877   0.259   2.716   0.142 -1.1823 -1.2406  1.2154
  960SOL     OW 2878   1.950   0.430   1.912  0.3103  0.1075  0.1979
  960SOL    HW1 2879   1.909   0.527   1.895 -1.0889  0.3870  0.6269
  960SOL    HW2 2880   1.981   0.418   2.008 -0.3655  3.6133  0.1958
  961SOL     OW 2881   2.536   1.850   1.026 -0.6311  0.3650  0.3440
  961SOL    HW1 2882   2.525   1.933   0.963  0.9042 -0.5025 -2.6026
  961SOL    HW2 2883   2.510   1.876   1.126  1.6331  2.2734  1.6814
  962SOL     OW 2884   1.269   0.906   0.041 -0.1016 -0.0195 -0.2811
  962SOL    HW1 2885   1.244   0.973  -0.037 -1.0726  0.3529 -0.7512
  962SOL    HW2 2886   1.262   0.943   0.138 -0.0592  0.2281  0.5473
  963SOL     OW 2887   2.182   2.557   1.871 -0.5842  0.0769  0.0499
  963SOL    HW1 2888   2.218   2.461   1.899  0.4829  1.1062 -0.2784
  963SOL    HW2 2889   2.222   2.630   1.930 -0.5269 -3.2164 -1.2088
  964SOL     OW 2890   2.395   0.392   1.658  0.0214  0.0539  0.0809
  964SOL    HW1 2891   2.463   0.447   1.711 -0.9027 -2.9314 -0.8171
  964SOL    HW2 2892   2.394   0.403   1.555 -0.2392 -0.2234  0.8536
  965SOL     OW 2893   2.590   3.049   0.171  0.5090  0.3871  0.0725
  965SOL    HW1 2894   2.659   3.034   0.097  0.3077 -3.0755 -0.6894
  965SOL    HW2 2895   2.490   3.059   0.133 -4.5521 -2.1276 -0.7295
  966SOL     OW 2896   2.485   2.475   2.205  0.0354 -0.2727 -0.0511
  966SOL    HW1 2897   2.393   2.501   2.242  0.7373 -0.6540  1.0768
  966SOL    HW2 2898   2.532   2.553   2.151 -0.0415  3.5508  0.9797
  967SOL     OW 2899   2.820   2.806   2.459  0.0539  0.8903 -0.0688
  967SOL    HW1 2900   2.839   2.737   2.385 -1.6498 -0.5863 -0.6356
  967SOL    HW2 2901   2.891   2.884   2.467  1.5448  1.3599  0.9186
  968SOL     OW 2902   1.950   1.062   2.650 -0.1250  0.2206  0.4078
  968SOL    HW1 2903   1.889   1.094   2.580  1.3279  0.6457  3.6809
  968SOL    HW2 2904   2.017   0.995   2.614 -0.5816  0.9355  1.0307
  969SOL     OW 2905   2.766   2.434   1.080  0.2582 -0.2283  0.1583
  969SOL    HW1 2906   2.739   2.407   0.985  2.5915  0.3420 -0.5527
  969SOL    HW2 2907   2.796   2.354   1.145  0.8602 -0.7315  0.5307
  970SOL     OW 2908   1.065   2.133   1.761 -0.0944  0.0966 -0.0997
  970SOL    HW1 2909   0.970   2.138   1.712 -0.7477  1.2692  0.0797
  970SOL    HW2 2910   1.063   2.156   1.865  0.7375  2.9250  1.5043
  971SOL     OW 2911   2.831   2.087   1.874 -0.1774  0.0775  0.2117
  971SOL    HW1 2912   2.865   2.182   1.894 -2.0399  2.1618  1.5034
  971SOL    HW2 2913   2.857   2.063   1.778 -0.2808 -1.4667  0.3010
  972SOL     OW 2914   1.943   2.422   0.184 -0.0997  0.0027  0.5605
  972SOL    HW1 2915   1.970   2.356   0.107  0.4604  0.0229  0.6014
  972SOL    HW2 2916   1.990   2.393   0.274 -1.5372 -0.7108 -0.8572
  973SOL     OW 2917   1.337   1.061   1.864  0.6205 -0.0904  0.2403
  973SOL    HW1 2918   1.274   1.006   1.801  0.5349 -0.6379  0.2717
  973SOL    HW2 2919   1.291   1.150   1.901  1.0113  1.4728  0.5420
  974SOL     OW 2920   1.628   0.555   1.991  0.2107 -0.0756 -0.1052
  974SOL    HW1 2921   1.690   0.584   1.910 -2.2844 -0.8719 -2.0926
  974SOL    HW2 2922   1.534   0.609   1.989  0.7448  2.5508  0.7151
  975SOL     OW 2923   2.348   3.042   0.034 -0.0301 -1.0876 -0.9725
  975SOL    HW1 2924   2.323   2.946   0.055  2.8983  0.2747  0.5592
  975SOL    HW2 2925   2.369   3.060  -0.068 -1.4316 -3.3315 -0.1561
  976SOL     OW 2926   1.914   2.856   2.343 -0.3071  0.7781 -0.1555
  976SOL    HW1 2927   1.838   2.816   2.280 -0.8967  2.0173 -0.3630
  976SOL    HW2 2928   1.947   2.795   2.420  0.1411 -1.3596  0.7536
  977SOL     OW 2929   0.465   0.713   1.046  0.0367 -0.2739  0.0758
  977SOL    HW1 2930   0.394   0.718   0.967 -1.3385 -1.2515 -3.5076
  977SOL    HW2 2931   0.547   0.656   1.015 -0.0464  1.2344 -1.5371
   3.10000   3.10000   3.10000
