1000 SPC/Fw water molecules t=   0.49000 step= 490
 2931
    1SOL     OW    1   2.474   0.332   2.619 -0.4968  0.3821  0.2315
    1SOL    HW1    2   2.535   0.247   2.627  1.7500  2.4389 -1.2775
    1SOL    HW2    3   2.502   0.406   2.685  1.6470 -0.9487 -1.7298
    2SOL     OW    4   2.712   3.043   1.454 -0.1322  0.5439 -0.1239
    2SOL    HW1    5   2.773   3.068   1.373  0.1653  0.5466  1.7459
    2SOL    HW2    6   2.633   3.107   1.472 -3.1117 -0.0202 -1.4386
    3SOL     OW    7   2.732   2.599   0.389  0.1608 -0.2124  0.0890
    3SOL    HW1    8   2.679   2.510   0.392 -0.9318  0.5068 -0.5216
    3SOL    HW2    9   2.787   2.617   0.476 -0.9111  1.2616  2.3472
    4SOL     OW   10   1.320   1.492   2.354 -0.3094 -0.3572  0.3040
    4SOL    HW1   11   1.232   1.526   2.315  1.7126 -4.0115  1.4708
    4SOL    HW2   12   1.300   1.433   2.437  0.4845  2.9118 -0.5012
    5SOL     OW   13   1.189   1.513   3.038 -0.2692 -0.2345  0.0924
    5SOL    HW1   14   1.248   1.586   3.088  0.4153 -1.4426 -0.6769
    5SOL    HW2   15   1.087   1.537   3.043 -0.6984  2.5644  1.7597
    6SOL     OW   16   0.053   1.795   2.921  0.2855  0.5611  0.0995
    6SOL    HW1   17   0.028   1.845   3.004  1.7112  1.8160 -0.3890
    6SOL    HW2   18   0.047   1.691   2.926  3.4042 -1.0289 -0.2994
    7SOL     OW   19   2.586   0.901   1.164  0.3818  0.3997  0.2999
    7SOL    HW1   20   2.501   0.853   1.189  3.3250  0.1797 -0.9870
    7SOL    HW2   21   2.584   0.916   1.061  1.6668  2.1626 -1.8780
    8SOL     OW   22   0.446   0.612   1.521  0.3534 -0.2461 -0.3742
    8SOL    HW1   23   0.495   0.541   1.581 -1.8065 -1.6147  1.9630
    8SOL    HW2   24   0.399   0.567   1.441 -0.6788 -0.5396 -0.2280
    9SOL     OW   25   1.160   0.939   2.278 -0.0416 -0.8333  0.1244
    9SOL    HW1   26   1.206   1.023   2.250 -1.8455 -0.7081  2.1915
    9SOL    HW2   27   1.101   0.892   2.204 -0.7241 -1.4490 -0.5356
   10SOL     OW   28   0.719   1.338   1.267 -0.4734 -0.1588 -0.0839
   10SOL    HW1   29   0.620   1.365   1.278  1.1194 -2.9303  1.0430
   10SOL    HW2   30   0.778   1.422   1.256  2.2050  0.9652 -2.9719
   11SOL     OW   31   2.377   2.698   0.939  0.2849  0.0885 -0.3158
   11SOL    HW1   32   2.366   2.702   1.042  2.7910  0.9757 -1.0899
   11SOL    HW2   33   2.474   2.713   0.915 -3.9200  1.7807  0.0887
   12SOL     OW   34   1.459   0.901   0.362  0.1387  0.6491 -0.6317
   12SOL    HW1   35   1.400   0.963   0.303 -0.5634 -0.4207 -0.2880
   12SOL    HW2   36   1.459   0.803   0.327 -1.2846 -0.6927  2.0302
   13SOL     OW   37   2.532   0.659   1.812  0.1607 -0.0066  0.3667
   13SOL    HW1   38   2.451   0.654   1.877  0.8587  3.8997 -0.0181
   13SOL    HW2   39   2.511   0.649   1.711  2.0735 -0.3436  0.0747
   14SOL     OW   40   1.960   0.057   0.699  0.4937  0.5090  0.5703
   14SOL    HW1   41   1.886   0.091   0.638 -0.0086 -0.0512 -0.3550
   14SOL    HW2   42   1.939  -0.034   0.741 -0.3800 -0.4990  0.0686
   15SOL     OW   43   1.950   2.014   2.835 -0.4057  0.3240 -0.3432
   15SOL    HW1   44   1.910   2.100   2.872  0.7397 -2.2185 -0.7826
   15SOL    HW2   45   1.896   1.980   2.755 -1.8104  0.7832 -0.9294
   16SOL     OW   46   1.598   1.737   3.072 -0.2805 -0.2470 -0.5684
   16SOL    HW1   47   1.603   1.636   3.089  0.1411  0.7603 -3.7389
   16SOL    HW2   48   1.691   1.778   3.091  0.2600 -2.7131 -0.5869
   17SOL     OW   49   0.092   0.496   0.136  0.0877 -0.0007  0.4267
   17SOL    HW1   50   0.173   0.540   0.089  1.1881 -1.9973  0.7132
   17SOL    HW2   51   0.014   0.477   0.071  0.9808  2.4941  1.4824
   18SOL     OW   52   0.981   2.915   2.172  0.0658  0.1463 -0.7052
   18SOL    HW1   53   0.889   2.868   2.147 -1.0145 -1.3665 -1.3229
   18SOL    HW2   54   1.059   2.889   2.109 -2.2374 -0.6758  1.6956
   19SOL     OW   55   0.544   0.842   1.922 -0.1422 -0.0895  0.0804
   19SOL    HW1   56   0.558   0.812   2.019  1.0643  0.6279 -1.8326
   19SOL    HW2   57   0.638   0.842   1.870 -0.9482 -1.7574 -0.3496
   20SOL     OW   58   0.163   2.808   0.826  0.1356 -0.1099 -0.3688
   20SOL    HW1   59   0.085   2.860   0.775 -1.8619  0.8211  0.5231
   20SOL    HW2   60   0.244   2.788   0.763  2.1774 -0.3711 -1.5186
   21SOL     OW   61   2.779   0.192   2.105 -0.6602  0.1321 -0.5823
   21SOL    HW1   62   2.708   0.142   2.048  1.4581  0.0973  0.5122
   21SOL    HW2   63   2.823   0.130   2.177  2.3871  3.1826 -1.9582
   22SOL     OW   64   2.313   0.224   0.053 -0.2200  0.3064  0.5240
   22SOL    HW1   65   2.335   0.125   0.086  0.9898 -0.4665  0.7899
   22SOL    HW2   66   2.215   0.241   0.032  2.1114 -0.3074  1.3290
   23SOL     OW   67   2.767   0.629   0.652 -0.8353 -0.1224  0.0877
   23SOL    HW1   68   2.799   0.562   0.579  1.1115 -1.9907  1.0976
   23SOL    HW2   69   2.723   0.710   0.611  0.7970  0.8086  0.1934
   24SOL     OW   70   0.139   1.924   0.388 -0.5039 -0.2194 -0.5816
   24SOL    HW1   71   0.082   1.952   0.310  1.0415  1.8217  1.5460
   24SOL    HW2   72   0.235   1.910   0.354 -1.5571  0.5665  5.6925
   25SOL     OW   73   2.239   0.507   0.213 -0.1239  0.7882 -0.2796
   25SOL    HW1   74   2.274   0.576   0.274 -2.6077 -2.5927  0.6646
   25SOL    HW2   75   2.246   0.538   0.115  1.3580 -1.5766 -2.4142
   26SOL     OW   76   2.517   2.183   2.082  0.3440 -0.8204 -0.1592
   26SOL    HW1   77   2.575   2.227   2.156  1.7022  0.0619  0.3368
   26SOL    HW2   78   2.563   2.110   2.028 -1.6413  1.1564  1.1132
   27SOL     OW   79   0.627   2.952   0.137 -0.3969 -0.1356  0.3707
   27SOL    HW1   80   0.711   3.014   0.131 -1.2530 -0.3478 -0.7523
   27SOL    HW2   81   0.573   2.957   0.049 -0.6269 -1.4392  1.9642
   28SOL     OW   82   1.581   0.181   0.294  0.0293 -0.0741  0.4589
   28SOL    HW1   83   1.634   0.164   0.204  1.6360 -1.0023 -0.1558
   28SOL    HW2   84   1.571   0.282   0.322 -2.3710 -1.8463  1.6192
   29SOL     OW   85   2.026   0.522   0.378 -0.3944 -0.3790 -0.1927
   29SOL    HW1   86   1.995   0.624   0.389 -0.5353 -0.0713 -0.5452
   29SOL    HW2   87   2.107   0.514   0.319 -0.8460  0.3575  1.7026
   30SOL     OW   88   0.160   2.052   0.935  0.1601  0.0745  0.2796
   30SOL    HW1   89   0.158   2.031   0.831 -0.6826  2.7110 -0.8825
   30SOL    HW2   90   0.076   2.111   0.974  0.8916  3.2989  0.3099
   31SOL     OW   91   2.120   3.094   2.301  0.0253 -0.4813  0.1910
   31SOL    HW1   92   2.143   3.062   2.398  0.3462  1.0225  0.3625
   31SOL    HW2   93   2.030   3.067   2.261  2.0150 -1.7037 -1.7159
   32SOL     OW   94   2.951   0.193   0.209  0.4543  0.3354  0.6522
   32SOL    HW1   95   2.899   0.121   0.261  1.5220  1.8043  1.3425
   32SOL    HW2   96   3.044   0.217   0.255  0.4510 -0.3650  2.9585
   33SOL     OW   97   0.912   0.332   0.527 -0.4750  0.2083  0.5792
   33SOL    HW1   98   0.884   0.236   0.504  3.3080  3.5760  1.8159
   33SOL    HW2   99   1.010   0.330   0.557  1.2384  1.0522 -0.4103
   34SOL     OW  100   0.376   2.846   1.016 -0.1426  0.4633  0.6498
   34SOL    HW1  101   0.332   2.829   0.924  0.3113 -4.9977  0.0017
   34SOL    HW2  102   0.478   2.856   1.013 -0.4412  0.4641 -1.3104
   35SOL     OW  103   0.035   0.166   1.868 -0.2472  0.8788 -0.0454
   35SOL    HW1  104   0.089   0.089   1.906  1.1205  2.6254 -1.0492
   35SOL    HW2  105  -0.011   0.144   1.779 -0.0838  1.0270  1.5831
   36SOL     OW  106   1.946   1.098   1.821  0.5695 -0.1187 -0.1222
   36SOL    HW1  107   1.984   1.080   1.727 -2.1947 -0.4204 -0.3460
   36SOL    HW2  108   1.983   1.184   1.873 -1.5536 -3.6928 -0.4948
   37SOL     OW  109   1.196   0.188   0.955  0.3046 -0.3105 -0.2649
   37SOL    HW1  110   1.236   0.255   1.029  1.9232  1.7369  1.1977
   37SOL    HW2  111   1.268   0.131   0.904  0.1732 -0.7746 -0.8012
   38SOL     OW  112   1.066   2.737   2.403 -0.1681  0.5849  0.0271
   38SOL    HW1  113   1.033   2.650   2.441  0.6886 -0.3803  0.0407
   38SOL    HW2  114   0.991   2.813   2.390  0.0998  3.0001  0.2405
   39SOL     OW  115   2.313   1.351   3.006 -0.4063 -0.1072  0.0150
   39SOL    HW1  116   2.407   1.311   3.023  0.1917  0.0224 -0.6744
   39SOL    HW2  117   2.257   1.350   3.096 -1.3896  0.0159 -1.1125
   40SOL     OW  118   2.145   2.513   2.513 -0.1696  0.1458 -0.0436
   40SOL    HW1  119   2.109   2.607   2.544 -2.8539 -0.0459 -1.7001
   40SOL    HW2  120   2.074   2.445   2.475 -1.1988  3.9063 -1.2500
   41SOL     OW  121   2.941   0.712   2.750  0.4355 -0.3137  0.1645
   41SOL    HW1  122   2.859   0.771   2.740  1.2513 -0.8977 -1.7570
   41SOL    HW2  123   2.931   0.611   2.725 -1.1673 -2.3725 -2.9107
   42SOL     OW  124   1.738   1.782   0.558 -0.4208  0.0040  0.0729
   42SOL    HW1  125   1.691   1.692   0.531  0.9659 -0.8364  2.3752
   42SOL    HW2  126   1.803   1.825   0.487  1.7884  0.2553 -0.1765
   43SOL     OW  127   0.474   1.730   1.142 -0.2766 -0.1607 -0.4875
   43SOL    HW1  128   0.477   1.650   1.206 -0.1599 -0.8897 -6.0436
   43SOL    HW2  129   0.388   1.727   1.085 -0.3203 -1.8405 -2.4825
   44SOL     OW  130   1.814   2.483   3.042  0.3722 -0.7819 -0.6546
   44SOL    HW1  131   1.811   2.580   2.992  0.7232 -1.2553 -0.6593
   44SOL    HW2  132   1.874   2.482   3.128  1.2788 -0.1072 -2.0380
   45SOL     OW  133   0.296   1.897   2.600  0.4417  0.3000  0.1069
   45SOL    HW1  134   0.233   1.914   2.518 -1.0129  2.0711  0.1416
   45SOL    HW2  135   0.377   1.834   2.578  1.7639 -1.9319 -0.8050
   46SOL     OW  136   1.211   0.677   0.182  0.4586 -0.1443 -1.0193
   46SOL    HW1  137   1.267   0.763   0.155  2.6596  1.2624  3.9519
   46SOL    HW2  138   1.129   0.703   0.238  0.1316  1.1612  0.3563
   47SOL     OW  139   0.199   2.435   1.639 -0.7360  0.3367 -0.5319
   47SOL    HW1  140   0.283   2.370   1.629  0.9815 -3.2699 -0.7687
   47SOL    HW2  141   0.151   2.444   1.549 -0.9750 -3.3350  2.3677
   48SOL     OW  142   2.608   0.611   0.158  0.2085 -0.0298  0.1457
   48SOL    HW1  143   2.560   0.614   0.249  4.7684 -1.2273 -4.9840
   48SOL    HW2  144   2.708   0.636   0.157  1.0141 -2.5579  0.6670
   49SOL     OW  145   0.372   0.790   1.709  0.0407 -0.4589 -0.3616
   49SOL    HW1  146   0.435   0.800   1.792 -2.1372 -0.4515  0.0594
   49SOL    HW2  147   0.416   0.726   1.643 -0.4020  0.9522 -0.6693
   50SOL     OW  148   1.671   1.129   0.321 -0.0459  0.3455 -0.7351
   50SOL    HW1  149   1.660   1.026   0.302 -0.3149  3.4325 -0.9180
   50SOL    HW2  150   1.623   1.158   0.415 -2.9369  2.1357  0.0713
   51SOL     OW  151   2.975   1.920   0.290 -0.1184 -0.2018 -0.2381
   51SOL    HW1  152   2.933   1.871   0.209 -2.4695 -0.1909  0.0837
   51SOL    HW2  153   2.977   1.858   0.370  0.3220  0.9132  0.9927
   52SOL     OW  154   0.786   1.944   0.502  0.6871 -0.4191 -0.7334
   52SOL    HW1  155   0.711   2.004   0.549  0.6856 -1.0599 -1.9681
   52SOL    HW2  156   0.808   1.861   0.559  0.9478 -0.0456 -0.0561
   53SOL     OW  157   3.099   0.360   1.550  0.6508 -0.0310  0.0698
   53SOL    HW1  158   3.006   0.342   1.603 -1.5849 -0.9722  0.9581
   53SOL    HW2  159   3.082   0.370   1.447 -2.5801 -1.4769  0.0378
   54SOL     OW  160   1.762   0.448   3.078 -0.3264 -0.0820  0.0096
   54SOL    HW1  161   1.797   0.402   3.166 -0.0541 -0.3800 -0.3916
   54SOL    HW2  162   1.663   0.439   3.070  3.7788 -1.4570  1.5017
   55SOL     OW  163   0.751   2.925   0.590  0.1999  0.6182  0.0482
   55SOL    HW1  164   0.683   3.001   0.574  0.6268 -0.6015 -0.5506
   55SOL    HW2  165   0.846   2.943   0.555  3.0959 -2.4485  4.1343
   56SOL     OW  166   0.457   1.571   3.025  0.0076  0.1937 -0.0696
   56SOL    HW1  167   0.381   1.630   3.065 -1.3587  2.5492  1.9365
   56SOL    HW2  168   0.419   1.474   2.994  0.5811 -1.0509  0.3892
   57SOL     OW  169   1.806   2.490   2.653 -0.0026  0.5489  0.0003
   57SOL    HW1  170   1.853   2.493   2.562  1.6413  2.4804  0.5197
   57SOL    HW2  171   1.702   2.477   2.652 -0.6854  0.8388  0.0046
   58SOL     OW  172   0.664   0.385   1.119  0.3521  0.3352 -0.5435
   58SOL    HW1  173   0.629   0.471   1.075  1.0157 -2.6138 -0.9250
   58SOL    HW2  174   0.598   0.308   1.127 -2.0436  2.8563 -0.8939
   59SOL     OW  175   0.396   2.367   2.760  0.0748 -0.6253 -0.0554
   59SOL    HW1  176   0.398   2.265   2.741  0.4005 -0.3683  0.8119
   59SOL    HW2  177   0.488   2.394   2.809  0.0347  0.4799  2.4665
   60SOL     OW  178   2.315   2.084   2.254  0.5022 -0.2923 -0.0545
   60SOL    HW1  179   2.381   2.135   2.190  2.1078  0.5090  0.9515
   60SOL    HW2  180   2.331   2.123   2.349  1.2442 -0.2594 -1.4657
   61SOL     OW  181   1.337   0.625   0.513 -0.9688 -0.2718 -0.1102
   61SOL    HW1  182   1.267   0.680   0.560  0.8945 -1.9844 -1.9531
   61SOL    HW2  183   1.318   0.621   0.414 -1.4599 -0.6867  1.6289
   62SOL     OW  184   2.668   1.807   2.982 -0.1406 -0.5910 -0.6211
   62SOL    HW1  185   2.658   1.715   3.034 -0.6533 -0.2448  1.1992
   62SOL    HW2  186   2.748   1.806   2.921 -1.9389  2.6754 -0.3700
   63SOL     OW  187   0.553   0.885   0.163  0.4579  0.0781 -0.3938
   63SOL    HW1  188   0.491   0.968   0.155 -1.5272  0.1563  0.2068
   63SOL    HW2  189   0.642   0.896   0.221  2.2738 -1.2387 -0.2172
   64SOL     OW  190   0.062   0.531   2.540 -0.0498  0.5266 -0.0866
   64SOL    HW1  191   0.096   0.534   2.642  3.4329 -3.0604  1.6928
   64SOL    HW2  192   0.073   0.623   2.488 -4.0068  0.3332  0.4324
   65SOL     OW  193   0.194   1.494   0.603  0.0321 -0.2041 -0.6896
   65SOL    HW1  194   0.239   1.560   0.664 -0.6959 -4.4210 -2.0849
   65SOL    HW2  195   0.269   1.441   0.561 -0.5679  0.5335 -2.5315
   66SOL     OW  196   2.516   0.449   0.622  0.0487  0.4439 -0.0787
   66SOL    HW1  197   2.455   0.509   0.687 -3.6984  0.3788 -1.2009
   66SOL    HW2  198   2.494   0.349   0.633  1.4053  2.2893 -2.8924
   67SOL     OW  199   0.517   2.494   1.430  0.1011  0.2738 -0.1552
   67SOL    HW1  200   0.555   2.447   1.514 -0.8732 -0.1375 -0.4813
   67SOL    HW2  201   0.480   2.421   1.365  1.7965 -1.1911 -1.3663
   68SOL     OW  202   0.996   1.100   2.440  0.1493  0.1570  0.6550
   68SOL    HW1  203   1.061   1.029   2.411 -1.1829  1.9160 -0.4780
   68SOL    HW2  204   0.924   1.119   2.368  2.8452 -1.3167 -0.6411
   69SOL     OW  205   0.759   2.777   2.154 -0.2386 -0.0533  0.1610
   69SOL    HW1  206   0.797   2.687   2.175 -3.9410  4.4534  1.1626
   69SOL    HW2  207   0.656   2.775   2.154 -2.0167  0.9171  0.8754
   70SOL     OW  208   0.648   0.294   2.709 -0.0598  0.0181 -0.1962
   70SOL    HW1  209   0.627   0.370   2.771 -0.2179 -0.5361 -4.0162
   70SOL    HW2  210   0.624   0.202   2.742 -0.7518  2.1315 -1.7024
   71SOL     OW  211   1.101   1.792   0.325 -0.6997 -0.0898  0.3753
   71SOL    HW1  212   1.038   1.721   0.356  1.3993 -2.2567 -1.8538
   71SOL    HW2  213   1.092   1.800   0.221 -2.0014 -1.9787 -0.0428
   72SOL     OW  214   1.775   0.125   2.030 -0.0247 -0.4223 -0.4354
   72SOL    HW1  215   1.845   0.133   1.949  0.2946  2.3542  0.9829
   72SOL    HW2  216   1.792   0.042   2.092 -2.0075 -1.2422  1.1312
   73SOL     OW  217   2.742   2.164   2.516  0.4029  0.0280  0.1902
   73SOL    HW1  218   2.755   2.062   2.487  0.4497 -3.2013 -1.6126
   73SOL    HW2  219   2.795   2.181   2.596  1.1880 -1.9695 -4.0691
   74SOL     OW  220   2.717   2.952   1.992 -0.3699 -0.5892  0.1608
   74SOL    HW1  221   2.639   2.949   2.066 -1.8525 -1.3132 -0.4122
   74SOL    HW2  222   2.813   2.925   2.033  3.8150  0.2635  1.6537
   75SOL     OW  223   0.927   0.771   1.010  0.9196 -0.1572 -0.2211
   75SOL    HW1  224   0.835   0.821   0.997  1.4088  0.9058  1.7319
   75SOL    HW2  225   0.978   0.797   1.098  2.3540 -0.1104  3.9759
   76SOL     OW  226   1.732   1.244   2.568  0.2095  0.2421 -0.0829
   76SOL    HW1  227   1.635   1.208   2.579  3.3496  0.3812 -1.7931
   76SOL    HW2  228   1.748   1.334   2.620 -1.8749  2.7280  1.6671
   77SOL     OW  229   2.904   0.971   0.972  0.2886  0.2584  0.2091
   77SOL    HW1  230   2.918   0.868   0.948 -0.2901 -1.1860  1.7853
   77SOL    HW2  231   2.946   0.980   1.067 -1.1594 -1.0641 -1.1648
   78SOL     OW  232   2.049   1.421   1.539  0.2923 -0.3047  0.0925
   78SOL    HW1  233   2.119   1.473   1.489  1.2366 -1.6474  2.9923
   78SOL    HW2  234   1.989   1.369   1.474  1.3828  0.0780 -1.7544
   79SOL     OW  235   0.614   1.334   0.833  0.3902 -0.2220  0.1809
   79SOL    HW1  236   0.515   1.363   0.843  0.7802 -2.3107  0.6366
   79SOL    HW2  237   0.639   1.302   0.734  1.3801 -0.2239  0.4405
   80SOL     OW  238   0.674   0.481   1.593  0.3169 -0.3576  0.3328
   80SOL    HW1  239   0.707   0.561   1.536  0.2349  0.9689 -1.5051
   80SOL    HW2  240   0.732   0.397   1.585  0.2136 -2.0813  0.8198
   81SOL     OW  241   1.052   1.359   2.594  0.2336 -0.1230 -0.1296
   81SOL    HW1  242   1.013   1.266   2.631  2.2638 -3.4756 -2.9551
   81SOL    HW2  243   0.986   1.403   2.532  1.6629 -2.6041  1.5657
   82SOL     OW  244   0.986   2.958   1.498 -0.4322  0.0153  0.0308
   82SOL    HW1  245   1.036   2.924   1.414 -1.4963  0.3611  1.8535
   82SOL    HW2  246   0.888   2.926   1.505  2.7592 -1.1149  0.2656
   83SOL     OW  247   2.674   2.483   0.841  0.4327 -0.0921  0.3968
   83SOL    HW1  248   2.598   2.419   0.826  0.6690 -0.2260  1.6859
   83SOL    HW2  249   2.655   2.573   0.793 -4.0099  3.2296  0.4637
   84SOL     OW  250   0.729   3.076   2.351 -0.2491  0.1130 -0.6902
   84SOL    HW1  251   0.654   3.058   2.425 -0.2403 -0.0327  1.6837
   84SOL    HW2  252   0.755   2.985   2.311  1.1534  1.4703  1.3889
   85SOL     OW  253   0.417   1.631   1.568 -0.3968 -0.4351  0.4240
   85SOL    HW1  254   0.366   1.709   1.521 -0.1597 -1.3911 -1.4348
   85SOL    HW2  255   0.404   1.613   1.670  1.7980 -2.3070 -0.1413
   86SOL     OW  256   0.348   0.964   1.496 -0.2002  0.0367 -0.3710
   86SOL    HW1  257   0.322   0.908   1.411 -1.0530 -0.4060 -1.7254
   86SOL    HW2  258   0.354   0.907   1.581  1.1093  0.0135 -0.1230
   87SOL     OW  259   1.512   0.675   0.255  0.1051  0.1699 -0.7327
   87SOL    HW1  260   1.598   0.730   0.261  1.9115 -2.1341 -1.5855
   87SOL    HW2  261   1.491   0.642   0.158 -0.0670  2.1747 -4.1808
   88SOL     OW  262   1.546   1.359   0.216 -0.3642  0.1687  0.8464
   88SOL    HW1  263   1.579   1.275   0.261  0.0849  0.4392 -2.0052
   88SOL    HW2  264   1.443   1.357   0.227  1.4496  1.4743 -1.2302
   89SOL     OW  265   0.034   0.414   0.588 -0.3785  0.0633  0.5611
   89SOL    HW1  266   0.094   0.335   0.570 -0.9053  2.0385 -1.1644
   89SOL    HW2  267  -0.063   0.398   0.552 -1.8154  0.6900  0.7991
   90SOL     OW  268   0.922   1.577   3.027  0.1413 -0.5109  0.0245
   90SOL    HW1  269   0.835   1.559   3.084  0.7045 -0.8710  3.9625
   90SOL    HW2  270   0.905   1.631   2.937 -1.2480 -2.1931  0.3358
   91SOL     OW  271   1.277   1.460   1.833 -0.2352 -0.1285  0.7223
   91SOL    HW1  272   1.261   1.556   1.874 -1.0087  0.4465 -1.6922
   91SOL    HW2  273   1.368   1.457   1.779  2.8474 -0.3768 -0.0624
   92SOL     OW  274   3.048   1.027   1.216  0.0081 -0.6993 -0.2445
   92SOL    HW1  275   3.116   1.094   1.176 -1.1114 -0.3381  1.4876
   92SOL    HW2  276   3.055   1.002   1.320 -0.8949 -4.1159  0.5911
   93SOL     OW  277   3.094   2.747   0.046 -0.1111 -0.3260 -0.4398
   93SOL    HW1  278   3.086   2.764  -0.058  3.2228 -1.2494  0.5726
   93SOL    HW2  279   3.161   2.675   0.078 -1.8350  0.9743 -1.4481
   94SOL     OW  280   1.538   1.435   1.692  0.1930  0.5424  0.1481
   94SOL    HW1  281   1.612   1.379   1.649  3.9126  2.9988  0.0311
   94SOL    HW2  282   1.578   1.494   1.768  0.0796 -0.0556 -0.3582
   95SOL     OW  283   1.312   2.516   2.992  0.0041 -0.0194  0.3829
   95SOL    HW1  284   1.240   2.485   3.059  1.2932  0.3927 -0.9275
   95SOL    HW2  285   1.370   2.434   2.955  1.8533  1.5889  1.8272
   96SOL     OW  286   0.558   2.014   1.255 -0.4979 -0.3321  0.4823
   96SOL    HW1  287   0.492   2.046   1.181  2.9800  2.1312  2.5856
   96SOL    HW2  288   0.534   1.921   1.290  0.3049  1.1579  1.9990
   97SOL     OW  289   0.363   1.563   2.493  0.0220  0.5788 -0.4243
   97SOL    HW1  290   0.264   1.542   2.523 -2.3332  0.2440 -0.9404
   97SOL    HW2  291   0.398   1.648   2.543 -1.5690 -0.1960  0.5128
   98SOL     OW  292   1.943   1.592   1.264 -0.5029 -0.2782  0.2467
   98SOL    HW1  293   1.931   1.532   1.346  0.4826  1.1682 -1.4277
   98SOL    HW2  294   1.971   1.534   1.176  2.1717 -1.3289  0.0699
   99SOL     OW  295   2.476   2.095   1.411 -0.1387 -0.0095 -0.7991
   99SOL    HW1  296   2.494   2.100   1.513 -0.1056  2.0827 -1.1236
   99SOL    HW2  297   2.429   2.005   1.390 -1.7892 -1.0987  2.7392
  100SOL     OW  298   2.309   0.387   2.060  0.2768  0.5409  0.3968
  100SOL    HW1  299   2.261   0.366   2.143  1.0279  1.7538 -1.1848
  100SOL    HW2  300   2.411   0.378   2.067 -0.6458 -0.9123 -0.6909
  101SOL     OW  301   0.402   1.491   0.261 -0.1569 -0.2556 -0.2135
  101SOL    HW1  302   0.446   1.505   0.353 -1.4339  3.2011 -1.5228
  101SOL    HW2  303   0.454   1.529   0.184 -3.5769 -1.9568 -1.9890
  102SOL     OW  304   2.318   1.036   0.826 -0.0446 -0.1702  0.1781
  102SOL    HW1  305   2.219   1.011   0.828  2.3758 -0.6030  1.0825
  102SOL    HW2  306   2.348   1.117   0.766  0.1517  1.8940 -2.5707
  103SOL     OW  307   2.304   0.032   0.406 -0.3958 -0.3093  0.2656
  103SOL    HW1  308   2.365   0.109   0.364  0.2586 -0.6859 -1.5867
  103SOL    HW2  309   2.368  -0.024   0.467 -0.8764 -1.6191 -2.8885
  104SOL     OW  310   0.091   1.763   2.175 -0.0489 -0.4444  0.6395
  104SOL    HW1  311   0.118   1.736   2.082 -4.1182  0.1621  3.7809
  104SOL    HW2  312  -0.009   1.767   2.195  0.3097 -0.4640  1.0968
  105SOL     OW  313   1.237   2.020   0.814 -0.2274  0.5076  0.5012
  105SOL    HW1  314   1.169   2.065   0.748 -0.5447  0.2291  0.2566
  105SOL    HW2  315   1.282   1.935   0.775  0.7897  0.5773  0.6691
  106SOL     OW  316   2.131   0.547   1.368  0.2066  0.3617 -0.4155
  106SOL    HW1  317   2.106   0.466   1.431 -0.8127  0.6697  0.0524
  106SOL    HW2  318   2.127   0.637   1.420 -0.5580 -0.2836 -0.7200
  107SOL     OW  319   1.793   2.992   1.098 -0.6048  0.0405 -0.1234
  107SOL    HW1  320   1.807   3.090   1.118 -1.4036 -0.2127  0.6652
  107SOL    HW2  321   1.749   2.943   1.180 -0.2301  0.2367  0.6960
  108SOL     OW  322   0.824   2.744   1.240  0.0174  0.0528 -0.1314
  108SOL    HW1  323   0.797   2.735   1.337 -0.6009  0.8304 -1.6649
  108SOL    HW2  324   0.912   2.793   1.227 -1.9882  3.1963 -1.0211
  109SOL     OW  325   2.220   0.141   0.806  0.0421  0.2122 -0.1000
  109SOL    HW1  326   2.133   0.100   0.771 -0.1697  1.2224  3.0115
  109SOL    HW2  327   2.227   0.128   0.906 -0.0345  1.6769 -0.6896
  110SOL     OW  328   0.438   2.792   2.702 -0.4325  0.2028  0.4292
  110SOL    HW1  329   0.449   2.813   2.599  1.5542  1.0756 -1.2433
  110SOL    HW2  330   0.516   2.738   2.744  0.2718 -1.4850  0.9302
  111SOL     OW  331   1.344   0.520   2.265 -0.3780  0.5863  0.0228
  111SOL    HW1  332   1.279   0.576   2.319  1.5077 -0.7424  2.7294
  111SOL    HW2  333   1.407   0.459   2.326  0.7203  0.4763  0.5367
  112SOL     OW  334   1.736   0.521   1.464  0.0932 -0.0455  0.1976
  112SOL    HW1  335   1.716   0.525   1.362 -0.5622 -1.0435  1.8111
  112SOL    HW2  336   1.713   0.431   1.511 -0.0414  0.8563  2.4384
  113SOL     OW  337   2.268   1.615   1.756 -0.6640  0.1760 -0.0525
  113SOL    HW1  338   2.333   1.547   1.710  3.5334 -0.6020  1.0709
  113SOL    HW2  339   2.314   1.663   1.835 -0.8239 -2.6193  1.0966
  114SOL     OW  340   0.324   0.533   1.277  0.4930 -0.3158 -0.0423
  114SOL    HW1  341   0.317   0.634   1.246 -0.1046  2.9970 -0.6581
  114SOL    HW2  342   0.300   0.463   1.206  2.4875 -3.1003 -0.9958
  115SOL     OW  343   2.658   1.638   1.245  0.8417 -0.0336  1.3237
  115SOL    HW1  344   2.682   1.538   1.255 -2.9306  1.2780 -0.7489
  115SOL    HW2  345   2.717   1.683   1.173  0.5282 -0.4826 -0.9284
  116SOL     OW  346   1.798   1.043   0.731 -0.4626 -0.5778 -0.7930
  116SOL    HW1  347   1.705   1.000   0.713 -2.7423  0.9394  1.9997
  116SOL    HW2  348   1.778   1.141   0.759  1.3361 -1.1963 -2.1469
  117SOL     OW  349   1.140   0.360   0.690  0.3145  0.3010  0.0089
  117SOL    HW1  350   1.135   0.346   0.791 -0.6318  2.2515 -1.8827
  117SOL    HW2  351   1.168   0.455   0.660  1.4868  1.2276 -0.6703
  118SOL     OW  352   1.105   1.139   1.085  0.0314  0.0544 -0.2489
  118SOL    HW1  353   1.063   1.058   1.136  1.2965  2.3830 -2.8832
  118SOL    HW2  354   1.118   1.216   1.151  0.0574  3.4559 -0.0648
  119SOL     OW  355   1.843   1.608   2.126  0.0979 -0.0388 -0.1146
  119SOL    HW1  356   1.816   1.713   2.139 -1.5545 -1.1468  1.3135
  119SOL    HW2  357   1.944   1.597   2.117  2.1217 -3.5460 -0.1828
  120SOL     OW  358   2.962   2.833   0.293 -0.2847  0.1200 -0.2880
  120SOL    HW1  359   3.016   2.813   0.202  3.1061 -0.5314 -1.9791
  120SOL    HW2  360   2.889   2.766   0.313  1.2511  0.8107  0.2110
  121SOL     OW  361   1.970   0.744   2.265  0.1553  0.1570  0.6347
  121SOL    HW1  362   2.038   0.796   2.209  1.1981  1.5355  0.8750
  121SOL    HW2  363   1.963   0.646   2.229  1.8685  2.3852  0.2198
  122SOL     OW  364   2.698   2.658   1.266  0.0729  0.4446  0.1041
  122SOL    HW1  365   2.724   2.582   1.198 -1.2650  0.4772  0.3596
  122SOL    HW2  366   2.627   2.627   1.332 -5.6708  0.3398  0.6160
  123SOL     OW  367   1.729   0.071   1.708 -0.0997 -0.1424 -0.5384
  123SOL    HW1  368   1.753  -0.013   1.649  0.4943 -3.8051 -1.5764
  123SOL    HW2  369   1.816   0.115   1.747 -0.0833  0.4242  1.5151
  124SOL     OW  370   0.117   0.459   1.079  0.2033 -0.9354  0.4718
  124SOL    HW1  371   0.099   0.547   1.144  0.4121  1.9239  0.3126
  124SOL    HW2  372   0.102   0.479   0.976 -0.0828  0.4877  1.1422
  125SOL     OW  373   0.877   1.707   0.649 -0.1431 -0.6410  0.6497
  125SOL    HW1  374   0.980   1.694   0.621 -0.7547 -1.2994  0.3255
  125SOL    HW2  375   0.837   1.629   0.701 -0.1677 -1.4900 -0.3071
  126SOL     OW  376   1.905   2.355   2.417 -0.1434 -0.3064  0.2400
  126SOL    HW1  377   1.970   2.308   2.347  0.4132  0.3430 -1.8878
  126SOL    HW2  378   1.829   2.289   2.446 -0.2776 -1.5371 -0.8533
  127SOL     OW  379   0.796   0.929   0.275  0.5319 -0.0569  0.7179
  127SOL    HW1  380   0.853   0.971   0.351 -0.2365 -0.3950  3.3091
  127SOL    HW2  381   0.846   0.840   0.245  1.5457 -0.3523 -2.2931
  128SOL     OW  382   0.945   0.202   1.359 -0.6265  0.1106 -0.6712
  128SOL    HW1  383   0.904   0.295   1.341 -1.9356 -0.1891  1.0236
  128SOL    HW2  384   0.885   0.125   1.343  2.6658  1.0829  0.1358
  129SOL     OW  385   1.865   0.669   1.871 -0.1907  0.4741 -0.1662
  129SOL    HW1  386   1.894   0.677   1.777 -0.7040 -4.2088 -0.9608
  129SOL    HW2  387   1.878   0.757   1.930 -1.5554  1.2544  1.2936
  130SOL     OW  388   1.328   2.216   0.995  0.5638  0.3702  0.2429
  130SOL    HW1  389   1.298   2.147   0.923 -0.7625  3.8160  0.8849
  130SOL    HW2  390   1.398   2.283   0.966 -0.3617 -0.2705 -0.7041
  131SOL     OW  391   0.026   1.518   1.404 -0.4000 -0.2345 -0.0112
  131SOL    HW1  392  -0.029   1.431   1.393  0.7030 -1.2840  0.5175
  131SOL    HW2  393   0.126   1.492   1.395 -1.9162 -2.3418  1.6983
  132SOL     OW  394   2.002   2.391   0.513  0.5541  0.1200 -0.4303
  132SOL    HW1  395   1.903   2.382   0.485  0.2285 -0.0362  0.0213
  132SOL    HW2  396   2.018   2.382   0.615 -4.2011  2.1153 -1.6442
  133SOL     OW  397   1.891   2.281   2.874 -0.0730  0.2315  0.3672
  133SOL    HW1  398   1.863   2.363   2.929  0.0459 -0.4622 -3.6811
  133SOL    HW2  399   1.909   2.310   2.776 -0.0728 -0.0993 -0.8180
  134SOL     OW  400   2.713   2.345   1.638 -0.1350  0.1445 -0.2037
  134SOL    HW1  401   2.650   2.318   1.716 -0.8151  1.2284 -1.8764
  134SOL    HW2  402   2.774   2.427   1.654 -1.1674 -0.5525  3.5968
  135SOL     OW  403   0.724   1.554   2.616  0.0179 -0.2736  0.7033
  135SOL    HW1  404   0.668   1.469   2.636 -1.6003 -1.6187  2.6910
  135SOL    HW2  405   0.783   1.534   2.521  1.7745 -1.4687 -2.1439
  136SOL     OW  406   1.219   2.039   0.426  0.1389 -0.3987 -0.0905
  136SOL    HW1  407   1.178   2.120   0.477 -0.9199  0.9889 -1.1543
  136SOL    HW2  408   1.166   1.947   0.428 -0.1983 -0.1707 -1.8938
  137SOL     OW  409   0.414   1.125   2.111 -0.6862  0.3985 -0.1308
  137SOL    HW1  410   0.316   1.123   2.144  2.0457  3.2239 -0.4588
  137SOL    HW2  411   0.478   1.067   2.172 -2.6959 -3.1742 -0.3880
  138SOL     OW  412   2.441   1.508   0.211  0.0449 -0.2330  0.6159
  138SOL    HW1  413   2.363   1.509   0.138  0.2900  1.5737  0.1911
  138SOL    HW2  414   2.441   1.423   0.271 -0.6933 -1.5822 -2.5806
  139SOL     OW  415   1.813   2.656   1.249 -0.4754  0.0425  0.1513
  139SOL    HW1  416   1.723   2.637   1.202  1.3292  2.4184  4.7170
  139SOL    HW2  417   1.849   2.578   1.306 -0.2663  1.7424  1.3175
  140SOL     OW  418   3.035   2.981   2.605  0.0839 -0.2960  0.7659
  140SOL    HW1  419   3.078   2.889   2.580  0.2279 -0.2932  4.1208
  140SOL    HW2  420   3.095   3.064   2.614 -0.6690  0.9501 -2.2443
  141SOL     OW  421   1.222   1.704   1.610  0.5749  0.2974  0.1132
  141SOL    HW1  422   1.127   1.744   1.639 -0.6344  0.1926 -1.3849
  141SOL    HW2  423   1.252   1.625   1.674  0.0068  0.2471 -0.0395
  142SOL     OW  424   1.583   0.612   2.180  0.1087 -0.3064 -0.1806
  142SOL    HW1  425   1.587   0.579   2.081 -1.8645 -2.2459 -3.2591
  142SOL    HW2  426   1.495   0.584   2.227 -0.3803  0.9953  0.1126
  143SOL     OW  427   2.745   0.883   0.514 -0.0180  0.0836 -0.4503
  143SOL    HW1  428   2.780   0.908   0.419  2.6806  0.2711  1.0161
  143SOL    HW2  429   2.773   0.946   0.596 -1.5238 -0.1224  0.3288
  144SOL     OW  430   2.975   1.258   1.411 -0.4708 -0.0420  0.8907
  144SOL    HW1  431   2.947   1.214   1.501 -0.9395 -0.8953  0.1724
  144SOL    HW2  432   2.986   1.189   1.334 -0.7886  2.3696 -2.2802
  145SOL     OW  433   1.017   1.813   0.047  0.0611  0.1985 -0.2838
  145SOL    HW1  434   1.012   1.884  -0.027  1.1363  0.3536 -1.2697
  145SOL    HW2  435   0.976   1.722   0.020 -2.0901  2.5409 -0.8865
  146SOL     OW  436   2.430   0.655   1.545  0.2026  0.7241 -0.2887
  146SOL    HW1  437   2.388   0.579   1.484  0.3821 -0.1018 -2.7752
  146SOL    HW2  438   2.385   0.753   1.544  0.9518 -1.4474  0.2483
  147SOL     OW  439   1.089   2.459   0.583 -0.0152 -0.3625  0.3073
  147SOL    HW1  440   1.051   2.529   0.518  0.6389  0.3244  0.7813
  147SOL    HW2  441   1.188   2.430   0.566  3.7513 -0.0386 -1.6104
  148SOL     OW  442   1.648   1.453   3.090 -0.0749 -0.1571  0.5669
  148SOL    HW1  443   1.660   1.386   3.010 -0.9980  2.3578 -0.7196
  148SOL    HW2  444   1.596   1.420   3.172 -1.4819 -3.4456 -3.0318
  149SOL     OW  445   0.712   1.440   1.918  0.2897 -0.5286 -0.3796
  149SOL    HW1  446   0.631   1.420   1.986  0.0396 -1.9758 -0.1016
  149SOL    HW2  447   0.729   1.358   1.855 -0.8964  1.5199 -0.1089
  150SOL     OW  448   3.003   1.239   0.921  0.5586  0.0783 -0.0084
  150SOL    HW1  449   3.075   1.255   0.992 -0.6745 -0.6002 -0.2206
  150SOL    HW2  450   2.961   1.142   0.921  0.0344 -0.0238 -2.5113
  151SOL     OW  451   0.171   0.773   2.109 -0.2005 -0.4023  0.5587
  151SOL    HW1  452   0.159   0.845   2.036  0.7200  2.4833 -0.8165
  151SOL    HW2  453   0.248   0.708   2.098  0.5649 -1.8169 -0.8281
  152SOL     OW  454   1.367   1.714   1.276  0.2465  0.3145  0.3432
  152SOL    HW1  455   1.385   1.793   1.338 -0.1554  0.4027  1.6946
  152SOL    HW2  456   1.276   1.723   1.220 -0.8566 -0.6429 -1.6962
  153SOL     OW  457   0.031   1.517   0.164  0.3580 -0.0212  0.8945
  153SOL    HW1  458   0.015   1.417   0.160 -1.0143  1.4940  0.6838
  153SOL    HW2  459   0.032   1.553   0.261  2.0543 -2.3284  0.6460
  154SOL     OW  460   2.361   1.861   2.830  0.1652  0.2847  0.2050
  154SOL    HW1  461   2.393   1.760   2.828  0.5626 -0.1077 -1.7443
  154SOL    HW2  462   2.439   1.931   2.811 -1.7572  1.2542  0.1572
  155SOL     OW  463   2.479   1.248   0.366  0.0744 -0.5430 -0.2382
  155SOL    HW1  464   2.562   1.255   0.307  0.9581  1.4533 -2.9310
  155SOL    HW2  465   2.405   1.186   0.331 -1.4554  2.0141 -1.9902
  156SOL     OW  466   2.581   0.938   0.891 -0.0116  0.1635  0.5898
  156SOL    HW1  467   2.483   0.961   0.862  2.0381 -1.2007  0.9291
  156SOL    HW2  468   2.650   1.016   0.895  2.7471 -0.4314 -1.8236
  157SOL     OW  469   1.200   2.981   2.975  0.2706 -0.1357  0.5898
  157SOL    HW1  470   1.277   2.970   2.905  0.5640 -0.9512 -0.4577
  157SOL    HW2  471   1.213   3.074   3.026 -1.3862  1.7342  1.9032
  158SOL     OW  472   1.001   1.876   1.975 -0.4668  0.6498  0.2912
  158SOL    HW1  473   1.052   1.963   1.953  0.6873 -0.5706  2.4598
  158SOL    HW2  474   0.921   1.881   2.046 -0.0593 -1.6594  1.4622
  159SOL     OW  475   0.840   0.439   1.300 -0.4045  0.0308 -0.2487
  159SOL    HW1  476   0.819   0.538   1.329  0.3641 -0.5009  0.1721
  159SOL    HW2  477   0.780   0.403   1.219  2.2993  1.2196 -1.2978
  160SOL     OW  478   1.440   2.463   1.656 -0.7570 -0.8843  0.7408
  160SOL    HW1  479   1.468   2.552   1.612  2.2256 -0.2515 -1.1462
  160SOL    HW2  480   1.508   2.395   1.615  1.8659 -1.4642  1.6067
  161SOL     OW  481   0.171   2.892   0.311 -0.3505 -0.3648  0.4006
  161SOL    HW1  482   0.091   2.836   0.332 -0.1080  2.9015 -3.1308
  161SOL    HW2  483   0.156   2.978   0.254 -3.3398  3.4098 -0.4262
  162SOL     OW  484   2.587   1.894   0.465  0.0979  0.6767 -0.0260
  162SOL    HW1  485   2.582   1.846   0.369  0.0761 -1.8701  2.0910
  162SOL    HW2  486   2.568   1.832   0.543  2.2514  1.4193 -3.7485
  163SOL     OW  487   1.978   2.663   0.732  0.2433 -0.0826  0.7504
  163SOL    HW1  488   1.941   2.667   0.635  2.3944 -0.0083 -1.1525
  163SOL    HW2  489   2.068   2.609   0.743  2.0718  0.1470  2.0429
  164SOL     OW  490   3.037   0.267   1.267 -0.1428 -0.3515 -0.5635
  164SOL    HW1  491   3.086   0.311   1.184 -0.5155 -0.9024 -2.9466
  164SOL    HW2  492   3.097   0.196   1.319  1.0458 -2.0995 -0.5911
  165SOL     OW  493   0.964   1.423   0.665 -0.7016  0.4279 -0.4631
  165SOL    HW1  494   0.905   1.450   0.744  1.4953  2.3084 -0.7189
  165SOL    HW2  495   0.952   1.477   0.581  1.2743  0.3175  2.7483
  166SOL     OW  496   1.491   1.076   1.725 -0.1558  0.6946 -0.7232
  166SOL    HW1  497   1.420   1.019   1.778 -1.0897 -1.7952  2.6011
  166SOL    HW2  498   1.562   1.125   1.791  1.3539 -1.0229  1.1603
  167SOL     OW  499   0.809   1.918   1.524 -0.7127 -0.2435 -0.8400
  167SOL    HW1  500   0.791   2.001   1.587  0.7502 -1.3220  0.1273
  167SOL    HW2  501   0.735   1.847   1.527  0.2658  0.1749  1.4893
  168SOL     OW  502   1.612   2.386   0.156  0.1882 -0.2050 -0.4051
  168SOL    HW1  503   1.673   2.410   0.075 -1.7220  1.6900  1.2571
  168SOL    HW2  504   1.638   2.301   0.205 -1.6646  0.6538 -0.5729
  169SOL     OW  505   0.232   2.622   2.216  0.0986  0.0857 -0.0629
  169SOL    HW1  506   0.262   2.593   2.117 -0.5432 -0.7735 -0.0668
  169SOL    HW2  507   0.268   2.557   2.293 -1.8560 -2.9376  0.6587
  170SOL     OW  508   1.238   0.305   1.934  0.3651 -0.2310  0.1375
  170SOL    HW1  509   1.277   0.270   2.022 -0.8141 -0.2036 -0.7341
  170SOL    HW2  510   1.210   0.228   1.870 -1.2367 -2.2077  0.5380
  171SOL     OW  511   0.211   0.796   2.405  0.0714  0.6762 -0.5044
  171SOL    HW1  512   0.142   0.818   2.481 -1.4050  0.4164  1.7926
  171SOL    HW2  513   0.184   0.808   2.307 -1.1311  2.4809  0.0721
  172SOL     OW  514   0.872   1.116   2.974  0.0832 -0.6743 -0.4564
  172SOL    HW1  515   0.958   1.167   3.011  0.4621 -1.2200  1.4414
  172SOL    HW2  516   0.858   1.134   2.868  2.0184  0.8081 -1.4975
  173SOL     OW  517   0.656   2.693   0.111  0.1225 -0.8153 -0.3970
  173SOL    HW1  518   0.648   2.799   0.122  0.3179  0.8434  0.8072
  173SOL    HW2  519   0.561   2.649   0.095  2.1293  0.6471  0.5140
  174SOL     OW  520   1.394   2.821   1.077 -0.3137 -0.3953  0.1414
  174SOL    HW1  521   1.461   2.890   1.036 -0.6446  2.7259  1.8050
  174SOL    HW2  522   1.344   2.763   1.009  0.3026  2.1905  2.1943
  175SOL     OW  523   0.442   0.044   1.644 -0.4653  0.3561 -0.3557
  175SOL    HW1  524   0.511   0.112   1.689  0.0583  0.5383  0.5347
  175SOL    HW2  525   0.355   0.090   1.608 -2.3555  0.0426 -0.4191
  176SOL     OW  526   2.527   0.407   3.074  0.4841 -0.3600  0.2014
  176SOL    HW1  527   2.557   0.473   3.146 -2.0865 -1.7836  1.7100
  176SOL    HW2  528   2.448   0.354   3.106  0.2996 -0.3049  6.2895
  177SOL     OW  529   0.353   0.287   0.935 -0.1202 -0.2275  0.1884
  177SOL    HW1  530   0.398   0.240   1.018  1.3422 -0.2864 -3.3267
  177SOL    HW2  531   0.257   0.329   0.954  0.1112  0.4562 -1.8258
  178SOL     OW  532   0.034   2.715   2.604 -0.1546 -0.0719  0.4204
  178SOL    HW1  533  -0.039   2.639   2.614  0.1772  0.5127  0.7591
  178SOL    HW2  534   0.102   2.728   2.683  0.6937  0.7435  2.3204
  179SOL     OW  535   0.009   1.701   1.183  0.0100 -0.0164  0.1278
  179SOL    HW1  536  -0.072   1.769   1.161 -0.4075 -2.3128  0.8101
  179SOL    HW2  537  -0.010   1.651   1.270  2.2336  0.6902 -2.0344
  180SOL     OW  538   0.250   1.210   1.836 -0.0852  0.2393  0.4924
  180SOL    HW1  539   0.351   1.216   1.826 -1.1847 -0.9471  1.3337
  180SOL    HW2  540   0.207   1.284   1.904 -1.2593 -0.1351  1.7064
  181SOL     OW  541   3.059   1.860   2.548  0.2270  0.1418  0.2564
  181SOL    HW1  542   3.127   1.904   2.482 -1.8548 -0.1320  1.0210
  181SOL    HW2  543   2.970   1.860   2.504 -0.9882  1.8606 -5.3254
  182SOL     OW  544   2.308   1.274   1.157 -0.4785  0.5601  0.0515
  182SOL    HW1  545   2.234   1.219   1.114  3.2014  0.4698  0.6030
  182SOL    HW2  546   2.282   1.371   1.180 -1.0291  0.4493  1.2679
  183SOL     OW  547   1.492   2.269   2.495  0.5131  0.2944  0.0056
  183SOL    HW1  548   1.414   2.201   2.497  1.3169 -0.7004  1.3352
  183SOL    HW2  549   1.576   2.224   2.522  3.3411 -0.9933  1.4353
  184SOL     OW  550   2.043   0.935   0.828 -0.0128  0.2704  0.3229
  184SOL    HW1  551   1.964   0.991   0.796  0.6846 -0.5237  0.9027
  184SOL    HW2  552   2.017   0.848   0.881 -0.4589 -1.4135  0.7267
  185SOL     OW  553   1.595   2.687   2.080 -0.2390  0.1828 -0.1922
  185SOL    HW1  554   1.527   2.760   2.043 -1.3444 -0.5637 -2.7808
  185SOL    HW2  555   1.555   2.638   2.159 -1.8495 -1.6821  0.1135
  186SOL     OW  556   0.068   2.212   1.723  0.0164 -0.2124 -0.1030
  186SOL    HW1  557   0.074   2.315   1.719  2.6936 -1.3084  1.4417
  186SOL    HW2  558   0.155   2.165   1.685 -0.3726  2.2802  0.6476
  187SOL     OW  559   1.383   0.715   1.683  0.0054 -0.6485 -0.0158
  187SOL    HW1  560   1.417   0.770   1.601  2.9585  1.1876 -0.7776
  187SOL    HW2  561   1.397   0.774   1.766 -0.1262 -0.0701 -0.3342
  188SOL     OW  562   2.801   2.790   1.488 -0.1542 -0.9879 -1.0055
  188SOL    HW1  563   2.789   2.894   1.491 -1.0383 -1.2375  1.1314
  188SOL    HW2  564   2.760   2.747   1.403  3.2568 -3.2831 -0.5329
  189SOL     OW  565   0.843   1.032   1.387  0.0394  0.3665  0.0358
  189SOL    HW1  566   0.916   1.102   1.417 -0.1870 -0.3366 -4.2363
  189SOL    HW2  567   0.807   1.041   1.292  0.1341  0.5811 -0.4572
  190SOL     OW  568   1.519   1.868   1.576  0.5277  0.7512 -0.4897
  190SOL    HW1  569   1.420   1.891   1.560 -0.3078 -4.6832 -1.4534
  190SOL    HW2  570   1.549   1.870   1.677 -0.3426  2.1950 -1.0680
  191SOL     OW  571   0.971   0.752   1.563 -0.4241 -0.4421  0.0424
  191SOL    HW1  572   1.010   0.656   1.549 -0.9599 -0.5811  2.1362
  191SOL    HW2  573   1.048   0.822   1.552 -1.2738 -0.9940 -1.8037
  192SOL     OW  574   1.845   2.304   1.128 -0.0301 -0.3294 -0.5998
  192SOL    HW1  575   1.785   2.279   1.051  3.1067 -1.2177 -0.5789
  192SOL    HW2  576   1.935   2.346   1.095  2.2593  0.1427  3.1802
  193SOL     OW  577   0.505   0.609   0.401 -0.0152  0.0920  0.0443
  193SOL    HW1  578   0.472   0.547   0.474  0.8222  1.1988 -1.2933
  193SOL    HW2  579   0.528   0.559   0.313  1.9297  0.5936 -2.2368
  194SOL     OW  580   0.292   0.840   1.274  0.2553  0.8181 -0.2284
  194SOL    HW1  581   0.202   0.788   1.253 -1.6335  1.2104  0.2569
  194SOL    HW2  582   0.308   0.916   1.206  1.8401  0.2624  1.0003
  195SOL     OW  583   0.973   2.934   0.427  0.3427  0.0068  0.3068
  195SOL    HW1  584   0.993   2.837   0.398  2.4901  2.9115  1.6770
  195SOL    HW2  585   1.064   2.982   0.441 -3.9971 -2.2518 -2.3818
  196SOL     OW  586   0.296   1.414   1.405 -0.2799 -0.2936 -0.0289
  196SOL    HW1  587   0.338   1.486   1.464  0.9039 -2.1206  0.5843
  196SOL    HW2  588   0.272   1.330   1.460  0.5262 -1.9574 -1.0221
  197SOL     OW  589   0.937   2.049   0.222 -0.2118 -0.2316  0.2978
  197SOL    HW1  590   0.909   2.027   0.319 -1.0448  1.2920 -0.4547
  197SOL    HW2  591   0.962   1.967   0.169  0.5361  0.2862  0.3539
  198SOL     OW  592   0.260   1.248   0.286  0.4454  0.3645  0.1493
  198SOL    HW1  593   0.165   1.245   0.252 -0.0405 -0.1392 -0.5431
  198SOL    HW2  594   0.296   1.343   0.296 -2.8498 -2.0265 -1.0176
  199SOL     OW  595   2.232   0.385   2.523 -0.7078  0.1071 -0.3791
  199SOL    HW1  596   2.150   0.351   2.574 -0.0278  1.4984 -2.4403
  199SOL    HW2  597   2.326   0.356   2.570  0.2775 -0.3451 -0.0327
  200SOL     OW  598   0.002   2.974   0.691 -0.3806 -0.4189 -0.8445
  200SOL    HW1  599  -0.059   3.009   0.613  0.8835  3.2201 -0.6794
  200SOL    HW2  600   0.061   3.039   0.743 -0.4381 -1.6979 -0.6469
  201SOL     OW  601   1.112   0.740   0.642 -0.2382 -0.3937  0.1041
  201SOL    HW1  602   1.118   0.827   0.702 -0.2954  1.8016  0.1331
  201SOL    HW2  603   1.015   0.732   0.599 -1.2284 -2.1423  1.0958
  202SOL     OW  604   0.492   1.250   1.752  0.0516 -0.0958  0.8725
  202SOL    HW1  605   0.514   1.274   1.654 -1.5694 -0.3491 -1.5479
  202SOL    HW2  606   0.550   1.163   1.776  0.6166 -0.5671  2.3094
  203SOL     OW  607   0.722   0.201   1.612  0.4306  0.4832  0.0010
  203SOL    HW1  608   0.748   0.131   1.538  2.2048 -1.5305 -1.7660
  203SOL    HW2  609   0.804   0.211   1.672  1.1425  1.2138 -1.2313
  204SOL     OW  610   2.099   1.837   3.009  0.1138 -0.1808 -0.1888
  204SOL    HW1  611   2.084   1.734   2.992  1.2910 -0.7712 -0.6686
  204SOL    HW2  612   2.063   1.913   2.949  1.6260 -3.6253 -2.2836
  205SOL     OW  613   1.845   1.863   0.030 -0.0022  0.0439 -0.1386
  205SOL    HW1  614   1.945   1.865   0.007  1.6842  0.4993 -2.6004
  205SOL    HW2  615   1.795   1.954   0.010  0.0026 -0.5653  1.4739
  206SOL     OW  616   2.552   2.788   0.357 -0.3895 -0.5833 -0.3555
  206SOL    HW1  617   2.617   2.705   0.368 -0.2979 -1.3150  1.9223
  206SOL    HW2  618   2.575   2.847   0.271  1.0908  2.0263 -3.1948
  207SOL     OW  619   0.597   1.774   2.911 -0.5725 -0.0180  0.0507
  207SOL    HW1  620   0.703   1.765   2.907  0.4233 -0.7827  1.8162
  207SOL    HW2  621   0.545   1.688   2.948  0.6865 -0.5801  2.7898
  208SOL     OW  622   1.066   1.541   1.440  0.5916 -0.0246 -0.3424
  208SOL    HW1  623   1.023   1.583   1.357 -1.1083  0.6672 -2.4507
  208SOL    HW2  624   1.126   1.606   1.489  0.2191 -0.0947  0.2896
  209SOL     OW  625   0.300   0.939   2.997 -0.4640  0.0688  0.0310
  209SOL    HW1  626   0.306   0.865   2.925  0.3015 -1.0700  1.3381
  209SOL    HW2  627   0.276   0.907   3.092 -0.5580  0.8048 -0.7910
  210SOL     OW  628   1.718   0.471   1.183  0.0425  0.1714 -0.0067
  210SOL    HW1  629   1.670   0.559   1.156  0.2049  1.8828 -0.7463
  210SOL    HW2  630   1.820   0.475   1.174 -1.5101 -0.7812 -1.3754
  211SOL     OW  631   2.118   1.064   1.618 -0.4035  0.5491  0.2151
  211SOL    HW1  632   2.178   1.046   1.700  1.9051  0.9905  0.7122
  211SOL    HW2  633   2.158   1.122   1.537 -2.0374 -2.4809 -1.3872
  212SOL     OW  634   0.012   0.993   1.484  0.2065  0.5179 -0.5514
  212SOL    HW1  635   0.054   1.064   1.551  0.6437  2.2876  0.0357
  212SOL    HW2  636   0.037   0.896   1.515 -2.7169 -0.2872 -0.5511
  213SOL     OW  637   2.728   0.356   0.269  0.8069  0.5129 -0.0982
  213SOL    HW1  638   2.816   0.310   0.230  1.0398  0.9353  0.0241
  213SOL    HW2  639   2.700   0.448   0.219  2.3741 -1.6040  0.6179
  214SOL     OW  640   2.180   0.272   2.280  0.3786  0.0845  0.9460
  214SOL    HW1  641   2.194   0.311   2.378 -1.8304  3.4486  0.7647
  214SOL    HW2  642   2.134   0.179   2.285  0.3029  0.3292 -0.9416
  215SOL     OW  643   1.667   2.293   2.014  0.5819  0.3737  0.1435
  215SOL    HW1  644   1.768   2.319   2.018  0.4212  0.8792 -1.7217
  215SOL    HW2  645   1.607   2.357   2.075 -3.1350  1.7481  3.1100
  216SOL     OW  646   2.205   0.553   0.689  0.0571 -0.4575  0.8836
  216SOL    HW1  647   2.176   0.467   0.640 -1.8056  1.3039  1.2707
  216SOL    HW2  648   2.246   0.627   0.629  1.5819  0.9348 -2.1382
  217SOL     OW  649   0.739   2.780   2.438 -0.3781 -0.1823  0.6439
  217SOL    HW1  650   0.772   2.690   2.484  1.5565 -0.0565  0.9802
  217SOL    HW2  651   0.702   2.761   2.341  1.4891  1.9352  0.6437
  218SOL     OW  652   1.899   1.393   0.063  0.3186  0.1211  0.2206
  218SOL    HW1  653   1.806   1.435   0.050  1.2426  0.6561 -1.0539
  218SOL    HW2  654   1.886   1.318   0.129 -0.0119  1.4519 -2.3207
  219SOL     OW  655   2.352   1.266   2.521  0.0020  0.4928  0.5273
  219SOL    HW1  656   2.354   1.216   2.430 -0.8023 -2.2621 -2.5908
  219SOL    HW2  657   2.387   1.208   2.602 -3.2092  1.7314  1.5349
  220SOL     OW  658   1.526   1.024   1.225  0.2677 -0.5742 -0.4239
  220SOL    HW1  659   1.607   1.077   1.254 -1.9692 -0.2923 -1.3377
  220SOL    HW2  660   1.486   1.053   1.136  1.6578  2.4993  2.2528
  221SOL     OW  661   1.355   1.113   2.219  0.2981 -0.1888 -0.5674
  221SOL    HW1  662   1.306   1.184   2.161  2.1827 -0.8189  0.3088
  221SOL    HW2  663   1.450   1.095   2.181 -0.7603  0.4361 -1.3182
  222SOL     OW  664   1.237   0.036   1.226  0.5672 -0.1555  0.4022
  222SOL    HW1  665   1.234   0.048   1.327 -2.4579  2.6721  0.7087
  222SOL    HW2  666   1.275   0.116   1.175 -0.5752 -2.7037 -1.8732
  223SOL     OW  667   2.893   0.857   2.023 -0.9980  0.0425  0.1626
  223SOL    HW1  668   2.952   0.854   2.108 -2.3404  1.5707  0.9233
  223SOL    HW2  669   2.911   0.945   1.969  1.9493  0.6235  0.1886
  224SOL     OW  670   1.487   0.951   2.779 -0.0208 -0.2010 -0.4782
  224SOL    HW1  671   1.512   0.899   2.697  0.3552  2.3156 -2.0780
  224SOL    HW2  672   1.490   1.053   2.753  1.2021  2.8236 -0.9879
  225SOL     OW  673   2.984   2.755   2.879  0.0765  0.2214  0.1771
  225SOL    HW1  674   2.969   2.667   2.824 -2.0332 -2.1695 -0.8548
  225SOL    HW2  675   3.017   2.832   2.823 -0.8268  0.0911 -2.1266
  226SOL     OW  676   2.439   1.583   2.853 -0.2041  0.2084 -0.3371
  226SOL    HW1  677   2.471   1.561   2.754 -1.4310  2.7165 -0.8180
  226SOL    HW2  678   2.371   1.508   2.884 -2.6624 -0.4794 -1.7520
  227SOL     OW  679   0.899   0.120   3.018  0.0112  0.1336  0.1010
  227SOL    HW1  680   0.901   0.036   3.074 -1.3718 -0.3565 -0.8938
  227SOL    HW2  681   0.931   0.098   2.924 -0.6232  1.3308 -2.1923
  228SOL     OW  682   2.384   0.633   2.827 -0.4238  0.1421  0.0928
  228SOL    HW1  683   2.335   0.653   2.738  2.2699  0.3897 -0.5807
  228SOL    HW2  684   2.465   0.569   2.817  2.3720 -0.2918 -1.1330
  229SOL     OW  685   0.545   0.521   1.867 -0.1022  0.0644  0.4885
  229SOL    HW1  686   0.551   0.496   1.766  1.4832  0.4121 -0.0944
  229SOL    HW2  687   0.620   0.585   1.904  4.3746  0.8293 -3.1924
  230SOL     OW  688   1.908   1.231   2.156  0.2857 -0.3515  0.0820
  230SOL    HW1  689   1.983   1.250   2.083  1.4486 -2.9595 -1.9619
  230SOL    HW2  690   1.823   1.283   2.144 -1.5217 -1.6899  0.5401
  231SOL     OW  691   0.633   0.984   3.002  0.2219 -0.5997 -0.0937
  231SOL    HW1  692   0.719   1.039   3.011 -0.7725  1.6162  1.1127
  231SOL    HW2  693   0.611   0.943   3.095 -1.0443 -0.6391 -1.3876
  232SOL     OW  694   2.465   3.092   2.758 -0.2959  0.3067 -0.2497
  232SOL    HW1  695   2.499   3.005   2.808  1.5271  0.8311  1.3703
  232SOL    HW2  696   2.481   3.083   2.653  0.0393 -2.2028 -0.4832
  233SOL     OW  697   1.695   1.283   1.094 -0.2036  0.6857  0.4592
  233SOL    HW1  698   1.664   1.318   0.998  0.1093 -0.1147 -1.4097
  233SOL    HW2  699   1.782   1.233   1.088  1.6469  1.9516  0.3654
  234SOL     OW  700   1.655   2.550   1.847 -0.7529 -0.2308  0.5223
  234SOL    HW1  701   1.629   2.579   1.943 -0.2252  0.9707 -1.2120
  234SOL    HW2  702   1.586   2.499   1.788 -1.8741  1.6667 -0.8382
  235SOL     OW  703   0.050   3.008   2.901 -1.0454  0.5672  0.1105
  235SOL    HW1  704   0.110   3.073   2.850 -1.8928  0.1507  3.0400
  235SOL    HW2  705  -0.015   3.054   2.970  1.1932  2.0297  0.5774
  236SOL     OW  706   2.870   0.699   0.113 -0.3953 -0.3825  0.5811
  236SOL    HW1  707   2.943   0.755   0.153 -3.6399 -0.3842  1.8826
  236SOL    HW2  708   2.907   0.626   0.052  3.9541  0.1913  0.9675
  237SOL     OW  709   1.501   1.632   1.018  0.4391  0.2521  0.3138
  237SOL    HW1  710   1.601   1.597   1.013  2.6649  0.6845  2.1612
  237SOL    HW2  711   1.476   1.667   1.113  0.4949 -4.7729 -0.6141
  238SOL     OW  712   1.749   1.296   0.791  0.2317 -0.3344  0.3556
  238SOL    HW1  713   1.847   1.326   0.764  1.6570 -0.3734  0.7462
  238SOL    HW2  714   1.676   1.358   0.740  0.0753 -0.8514  0.5270
  239SOL     OW  715   2.051   0.276   2.672 -0.5940  0.3648 -0.1914
  239SOL    HW1  716   2.136   0.260   2.737  0.6519 -2.1348 -0.2829
  239SOL    HW2  717   1.971   0.328   2.722 -1.1113  0.3096  2.3979
  240SOL     OW  718   0.902   0.685   0.257  0.8383 -0.7687  0.3959
  240SOL    HW1  719   0.912   0.588   0.214 -1.7953 -0.5159 -2.1885
  240SOL    HW2  720   0.875   0.685   0.353 -2.1754  2.2631 -0.4146
  241SOL     OW  721   0.584   0.095   0.323  0.0799  0.1195  0.2219
  241SOL    HW1  722   0.614   0.139   0.236 -0.1380  0.6103 -0.4479
  241SOL    HW2  723   0.557  -0.007   0.301  0.5352  1.3166 -3.6237
  242SOL     OW  724   0.653   2.464   1.154  0.1683  0.3487 -0.7361
  242SOL    HW1  725   0.592   2.520   1.217 -1.2619 -0.5897  2.9910
  242SOL    HW2  726   0.738   2.508   1.121 -2.7710  1.3484  1.3505
  243SOL     OW  727   1.118   0.639   2.440  0.3867 -0.4438  0.0618
  243SOL    HW1  728   1.065   0.723   2.414 -2.4835  2.9889 -1.2344
  243SOL    HW2  729   1.055   0.568   2.479 -0.2707 -1.7166  1.3014
  244SOL     OW  730   2.801   1.861   2.404  0.1600 -0.4605 -0.9927
  244SOL    HW1  731   2.837   1.830   2.310 -2.4092  1.9454 -0.7581
  244SOL    HW2  732   2.707   1.816   2.427 -2.2924  1.2455  2.0559
  245SOL     OW  733   2.482   0.713   2.144  0.1824 -0.7143  0.0318
  245SOL    HW1  734   2.530   0.785   2.203  1.1881 -1.7175  1.3389
  245SOL    HW2  735   2.502   0.622   2.176  1.0191  1.7234 -0.8359
  246SOL     OW  736   0.307   2.902   1.679 -0.1536 -0.1196  0.4141
  246SOL    HW1  737   0.218   2.916   1.636  0.5508 -0.1901  0.9721
  246SOL    HW2  738   0.363   2.991   1.688 -0.1993 -0.3327 -1.0306
  247SOL     OW  739   2.195   0.595   3.042  0.3583  0.1438  0.3899
  247SOL    HW1  740   2.251   0.593   2.953  0.5149  0.6291 -1.7907
  247SOL    HW2  741   2.160   0.692   3.050  2.7317 -2.4505 -0.5887
  248SOL     OW  742   2.161   1.864   1.617 -0.7403 -0.5961  0.3557
  248SOL    HW1  743   2.227   1.792   1.644  0.8312  1.3968 -1.0591
  248SOL    HW2  744   2.071   1.867   1.669 -2.1095 -2.3396 -1.5943
  249SOL     OW  745   1.930   2.005   1.954  0.2743 -0.1411 -0.1247
  249SOL    HW1  746   1.931   1.939   1.875  2.2047 -1.7807  1.9683
  249SOL    HW2  747   2.025   2.029   1.978 -2.2078 -1.6676  1.8367
  250SOL     OW  748   1.060   0.729   1.868  0.7013  0.3379 -0.3117
  250SOL    HW1  749   1.073   0.673   1.957  0.2596  3.3837  1.3590
  250SOL    HW2  750   1.063   0.669   1.783  3.4024  1.2075 -1.0474
  251SOL     OW  751   3.062   1.579   2.548 -0.4733 -0.0832 -0.0168
  251SOL    HW1  752   3.082   1.680   2.541 -1.2325 -0.5926 -1.2345
  251SOL    HW2  753   2.961   1.568   2.529  0.0786 -1.2085 -2.9708
  252SOL     OW  754   1.512   0.902   1.517  0.1887  0.0934 -0.2914
  252SOL    HW1  755   1.547   0.958   1.440  1.0699 -0.2324 -1.2881
  252SOL    HW2  756   1.492   0.966   1.593  0.5422 -1.7950 -2.7338
  253SOL     OW  757   0.934   1.572   0.381 -0.0194 -0.2428  0.4788
  253SOL    HW1  758   0.992   1.485   0.374  1.0709  0.2945  2.7770
  253SOL    HW2  759   0.850   1.554   0.323 -3.1250 -3.4546 -4.0611
  254SOL     OW  760   2.058   2.179   1.603  0.8921 -0.0561  0.1907
  254SOL    HW1  761   2.004   2.117   1.544  0.9245 -0.4610 -0.7079
  254SOL    HW2  762   2.003   2.210   1.687 -3.3442  0.5072 -2.0461
  255SOL     OW  763   0.137   1.156   2.923  0.1549 -0.2089 -0.0895
  255SOL    HW1  764   0.201   1.245   2.926  0.4530  1.4981  2.3640
  255SOL    HW2  765   0.190   1.069   2.942 -1.6967  2.2915  0.1418
  256SOL     OW  766   2.820   1.364   1.852 -0.3749  0.1020 -0.6205
  256SOL    HW1  767   2.767   1.452   1.863 -0.0806 -1.0523  1.8357
  256SOL    HW2  768   2.762   1.284   1.886 -0.5921 -0.1779  2.1367
  257SOL     OW  769   0.901   0.167   1.872 -0.1768 -0.4299 -0.9000
  257SOL    HW1  770   0.954   0.190   1.786  1.5192 -0.4701 -3.1566
  257SOL    HW2  771   0.896   0.063   1.885  1.5737 -2.0341  1.9233
  258SOL     OW  772   2.983   1.282   0.430  0.1994  0.2361  0.3637
  258SOL    HW1  773   2.910   1.353   0.443  0.4691 -0.7277 -3.1739
  258SOL    HW2  774   3.046   1.273   0.518  3.0312  0.4430  3.0389
  259SOL     OW  775   0.446   2.920   2.987 -0.0187  0.3701  0.6094
  259SOL    HW1  776   0.376   2.869   3.038  0.3892  1.4481 -2.7939
  259SOL    HW2  777   0.515   2.856   2.944  1.4691  1.2013 -1.4077
  260SOL     OW  778   2.706   0.869   2.747 -0.1941  0.0097 -0.2452
  260SOL    HW1  779   2.632   0.830   2.685 -0.3851 -1.8919  0.6712
  260SOL    HW2  780   2.687   0.863   2.848 -0.0859  2.2429 -0.3583
  261SOL     OW  781   2.732   1.364   1.316 -0.0995  0.5235 -0.0432
  261SOL    HW1  782   2.690   1.289   1.252  0.1727  1.0036  1.2561
  261SOL    HW2  783   2.824   1.338   1.364  1.9010 -0.6993 -0.4015
  262SOL     OW  784   1.450   2.912   1.971 -0.9289  0.6557 -0.5433
  262SOL    HW1  785   1.470   3.009   1.946  0.8396  1.4012  0.8571
  262SOL    HW2  786   1.347   2.895   1.977 -0.3591 -0.7075 -2.3860
  263SOL     OW  787   0.853   0.778   2.301  0.3027 -0.2714  0.1808
  263SOL    HW1  788   0.839   0.676   2.305 -1.5560 -0.5647 -0.9944
  263SOL    HW2  789   0.893   0.813   2.213  0.9585 -1.2295 -1.1358
  264SOL     OW  790   2.255   0.702   0.434  0.0158  0.3409 -0.8860
  264SOL    HW1  791   2.153   0.674   0.432  0.6742  2.8404 -2.3960
  264SOL    HW2  792   2.275   0.806   0.447 -1.1461 -3.1170 -1.9288
  265SOL     OW  793   0.902   2.274   2.675  0.3485  0.1755 -0.1859
  265SOL    HW1  794   0.955   2.321   2.753 -0.9386 -0.6076  2.1704
  265SOL    HW2  795   0.869   2.180   2.705 -0.8335  3.6595 -0.8265
  266SOL     OW  796   1.339   1.715   0.042 -0.1255  0.4022 -0.4261
  266SOL    HW1  797   1.309   1.782   0.112  0.4878 -1.0006 -1.6853
  266SOL    HW2  798   1.434   1.730   0.008 -0.9886  2.1640  1.3219
  267SOL     OW  799   1.040   3.061   2.398  0.0739 -0.0252  0.2153
  267SOL    HW1  800   1.006   3.017   2.307  0.4564 -0.7601  0.0417
  267SOL    HW2  801   1.078   3.154   2.378 -1.8220  1.6331 -0.6841
  268SOL     OW  802   0.675   1.157   1.046  0.0062 -0.0807  0.6136
  268SOL    HW1  803   0.675   1.213   1.138 -0.3298  1.1501  3.0471
  268SOL    HW2  804   0.678   1.221   0.965 -1.9761 -1.4660  0.6194
  269SOL     OW  805   2.443   2.428   1.585 -0.0562 -0.1070 -0.2884
  269SOL    HW1  806   2.536   2.384   1.588 -2.2058 -0.9835 -2.4934
  269SOL    HW2  807   2.407   2.454   1.677  1.2318 -0.1742 -2.7085
  270SOL     OW  808   0.162   3.028   1.931 -0.6072  0.7955 -0.3200
  270SOL    HW1  809   0.198   2.976   1.849  0.1139 -1.6123  2.0302
  270SOL    HW2  810   0.078   2.981   1.972  1.5569 -1.5720  0.6701
  271SOL     OW  811   0.442   1.426   1.188  0.1202  0.3341 -0.4998
  271SOL    HW1  812   0.415   1.431   1.090  2.6834  2.7146  0.4562
  271SOL    HW2  813   0.370   1.401   1.262 -0.0479 -0.4692  1.3830
  272SOL     OW  814   1.931   2.920   1.928  0.8588  0.2508  0.2531
  272SOL    HW1  815   1.906   2.853   1.848  2.5995  1.1167 -0.6328
  272SOL    HW2  816   1.991   2.993   1.895 -0.1014 -4.2499  1.5398
  273SOL     OW  817   1.396   1.420   2.833 -0.3212  0.1482  0.3099
  273SOL    HW1  818   1.318   1.451   2.768 -1.8575  1.9545 -1.9751
  273SOL    HW2  819   1.380   1.455   2.931  0.8118 -0.7024  3.0622
  274SOL     OW  820   1.147   0.545   2.050  0.1831  0.1004  0.1345
  274SOL    HW1  821   1.182   0.464   2.002 -0.2533  3.8340  0.7505
  274SOL    HW2  822   1.199   0.561   2.140 -0.6388  1.0538  2.9986
  275SOL     OW  823   0.624   2.079   1.957 -0.0674 -0.0918 -0.1238
  275SOL    HW1  824   0.582   2.171   1.955  1.2872 -1.1239 -2.7452
  275SOL    HW2  825   0.548   2.004   1.951  0.3786 -0.1696 -1.9488
  276SOL     OW  826   2.172   0.914   2.742  0.2992 -0.4381  0.3880
  276SOL    HW1  827   2.114   0.894   2.658 -1.2324 -1.8085 -0.1802
  276SOL    HW2  828   2.127   0.881   2.831  0.6708 -1.1145 -2.7257
  277SOL     OW  829   3.062   0.873   0.216  0.5340  0.4090  0.4575
  277SOL    HW1  830   3.148   0.881   0.158  0.0992 -0.6874 -0.9366
  277SOL    HW2  831   3.081   0.804   0.297 -2.1454 -2.6421 -0.7210
  278SOL     OW  832   0.214   0.298   2.975  0.5603  0.4281  0.3032
  278SOL    HW1  833   0.267   0.229   3.028 -0.9984  0.8723  1.1215
  278SOL    HW2  834   0.231   0.394   2.994 -1.7144 -3.8339  1.7342
  279SOL     OW  835   0.156   0.068   0.864 -0.2341  0.2184  0.2540
  279SOL    HW1  836   0.199   0.055   0.957 -2.4352 -1.0992  0.4123
  279SOL    HW2  837   0.232   0.063   0.791 -0.2987  3.2188  0.3008
  280SOL     OW  838   1.638   2.897   2.559  0.7072 -0.9521 -0.1251
  280SOL    HW1  839   1.716   2.965   2.549 -0.3149  0.2330 -2.5306
  280SOL    HW2  840   1.550   2.918   2.510 -1.8841  0.5485  1.1351
  281SOL     OW  841   0.569   0.983   2.283  0.4853 -0.1476 -0.2278
  281SOL    HW1  842   0.572   0.879   2.254 -1.9286 -2.1396 -1.1983
  281SOL    HW2  843   0.531   0.992   2.380 -1.6818 -1.3585  1.2074
  282SOL     OW  844   1.701   2.386   0.504 -0.6961 -0.5734 -0.2105
  282SOL    HW1  845   1.649   2.305   0.461  0.9120 -1.7227  0.6878
  282SOL    HW2  846   1.671   2.487   0.486 -1.0193  2.1990 -1.2410
  283SOL     OW  847   1.191   0.951   0.827 -0.1195 -0.2636  0.8336
  283SOL    HW1  848   1.190   0.868   0.886  1.2467 -1.2033  0.8727
  283SOL    HW2  849   1.141   1.029   0.866  1.0437 -2.9330 -1.3058
  284SOL     OW  850   2.381   2.790   2.314 -0.1799  0.1700 -0.2237
  284SOL    HW1  851   2.423   2.855   2.242 -0.5679 -0.4515 -3.4108
  284SOL    HW2  852   2.342   2.835   2.396  3.1743 -1.9535 -2.1417
  285SOL     OW  853   1.334   2.968   2.523  0.4995  0.1088 -0.4472
  285SOL    HW1  854   1.335   2.989   2.419 -2.1929  1.6208 -2.6086
  285SOL    HW2  855   1.245   2.997   2.563  1.3332 -1.9843  0.6695
  286SOL     OW  856   0.455   0.410   0.703 -0.2158 -0.1400  0.0735
  286SOL    HW1  857   0.412   0.351   0.779 -0.0811  0.8469 -0.0048
  286SOL    HW2  858   0.470   0.355   0.615 -0.4376 -0.0861  1.3049
  287SOL     OW  859   0.135   1.294   2.540  0.6127 -0.1074 -0.0766
  287SOL    HW1  860   0.094   1.218   2.602 -2.6980 -0.7967 -1.2048
  287SOL    HW2  861   0.096   1.386   2.567 -1.7762 -3.4971 -3.2540
  288SOL     OW  862   1.559   2.683   1.529 -0.2320 -0.1990  0.5951
  288SOL    HW1  863   1.655   2.708   1.543 -5.5577  0.0183 -1.5078
  288SOL    HW2  864   1.538   2.700   1.426 -0.7239 -0.7369 -0.4193
  289SOL     OW  865   0.687   2.705   0.799  0.2704 -0.4975  0.5958
  289SOL    HW1  866   0.722   2.771   0.731  0.0319 -1.4910  1.7259
  289SOL    HW2  867   0.676   2.751   0.895 -1.2483 -1.4183  1.6106
  290SOL     OW  868   2.848   1.096   1.606 -0.2937 -0.5382  0.2329
  290SOL    HW1  869   2.781   1.146   1.668  1.2144 -2.1046  1.3254
  290SOL    HW2  870   2.911   1.039   1.662 -2.7128 -0.5431 -0.8785
  291SOL     OW  871   1.961   0.038   0.088  0.2199  0.6414 -0.1116
  291SOL    HW1  872   1.972   0.059   0.190  0.6017  0.1787 -0.4884
  291SOL    HW2  873   2.014   0.110   0.037 -0.0079 -0.7453 -0.3907
  292SOL     OW  874   2.989   1.169   3.027 -0.1413  0.0918 -0.1003
  292SOL    HW1  875   2.929   1.229   2.965 -1.3715  2.0688  2.0605
  292SOL    HW2  876   3.085   1.154   2.985  1.8972 -0.8931  2.0913
  293SOL     OW  877   0.614   2.139   0.137 -0.2346 -0.2419  0.1313
  293SOL    HW1  878   0.560   2.167   0.221  2.5743 -0.3321 -0.7199
  293SOL    HW2  879   0.712   2.150   0.155  0.6782 -0.0215 -1.6391
  294SOL     OW  880   1.687   2.180   1.753  0.0831  1.4026 -0.5053
  294SOL    HW1  881   1.690   2.223   1.846  0.1202  0.0542  0.9232
  294SOL    HW2  882   1.687   2.253   1.682  0.7193 -1.8466 -0.8570
  295SOL     OW  883   1.034   0.993   0.440  0.5760 -0.0139 -0.2604
  295SOL    HW1  884   1.116   1.013   0.497 -2.6693  0.2082 -3.2103
  295SOL    HW2  885   0.941   1.020   0.487 -2.1069 -0.5593 -1.3376
  296SOL     OW  886   1.325   2.041   2.518 -0.8060 -0.1826  0.4226
  296SOL    HW1  887   1.304   2.056   2.416  0.0511 -1.5873 -2.4937
  296SOL    HW2  888   1.314   1.939   2.547 -1.7644  2.3417 -0.0920
  297SOL     OW  889   1.483   0.624   1.362 -0.1562  0.6256  0.1803
  297SOL    HW1  890   1.490   0.530   1.401 -0.6892  1.7618 -1.7771
  297SOL    HW2  891   1.525   0.689   1.429 -0.1743 -0.5987  0.2149
  298SOL     OW  892   0.443   1.225   2.887  0.5823  0.6784  0.2011
  298SOL    HW1  893   0.482   1.184   2.975 -1.6078 -0.5040 -0.9140
  298SOL    HW2  894   0.524   1.235   2.819  0.1981  0.0166 -1.0197
  299SOL     OW  895   0.476   0.285   1.435 -0.4949 -0.3568 -0.6114
  299SOL    HW1  896   0.515   0.315   1.345  3.9859 -0.5151 -0.4528
  299SOL    HW2  897   0.551   0.278   1.505  2.2709 -0.5732  1.4599
  300SOL     OW  898   1.206   1.797   2.895  0.2026  0.1267  0.3359
  300SOL    HW1  899   1.154   1.715   2.864 -0.1598  0.7491  0.9726
  300SOL    HW2  900   1.202   1.821   2.996 -0.0585  2.6036 -3.9382
  301SOL     OW  901   0.458   0.275   0.474 -0.2164  0.0447  0.4558
  301SOL    HW1  902   0.358   0.269   0.499  2.0069 -0.2785  1.9981
  301SOL    HW2  903   0.487   0.213   0.396  3.5502  2.8307  1.2543
  302SOL     OW  904   1.249   2.343   2.297  0.1288  0.7680 -0.7209
  302SOL    HW1  905   1.166   2.335   2.367  0.3410 -0.0061 -0.2933
  302SOL    HW2  906   1.267   2.259   2.245  0.9862  0.6628 -1.6344
  303SOL     OW  907   0.961   2.334   0.788  0.0292  0.2118  0.1655
  303SOL    HW1  908   1.004   2.364   0.700  1.5966  1.2184 -0.1818
  303SOL    HW2  909   0.939   2.413   0.853 -0.1100  1.2115 -0.8733
  304SOL     OW  910   0.146   2.057   0.642  0.4154  0.0432 -0.4393
  304SOL    HW1  911   0.149   2.006   0.553 -1.4370  0.9938  0.0213
  304SOL    HW2  912   0.095   2.149   0.628 -1.5046 -3.1610 -1.6911
  305SOL     OW  913   1.585   0.889   0.603 -0.2025  0.4050 -0.3119
  305SOL    HW1  914   1.528   0.896   0.517  2.1556  0.8817  2.2137
  305SOL    HW2  915   1.661   0.819   0.606 -0.0848  0.8129 -2.3564
  306SOL     OW  916   0.475   1.845   1.894  0.0315  0.0291 -0.1568
  306SOL    HW1  917   0.562   1.803   1.863 -3.0646 -2.4931 -1.5044
  306SOL    HW2  918   0.442   1.802   1.982 -3.0349 -0.4878 -2.3120
  307SOL     OW  919   0.029   0.849   2.598  0.4940  0.4896 -0.2722
  307SOL    HW1  920  -0.003   0.941   2.625 -2.6395 -2.4072  2.4718
  307SOL    HW2  921  -0.037   0.775   2.623  0.1862 -0.2219 -1.6071
  308SOL     OW  922   1.528   2.673   2.864  0.2990  0.3035 -0.0503
  308SOL    HW1  923   1.530   2.618   2.772 -0.7188 -1.4413 -3.4341
  308SOL    HW2  924   1.443   2.655   2.919  4.3419  0.1217 -1.1083
  309SOL     OW  925   1.240   0.077   1.767 -0.0460 -0.2227  0.5051
  309SOL    HW1  926   1.340   0.045   1.784  1.2644  1.3135 -0.6601
  309SOL    HW2  927   1.227   0.132   1.677  1.0506  1.9762  1.9468
  310SOL     OW  928   1.464   2.549   0.696  0.8810 -0.1163 -0.4732
  310SOL    HW1  929   1.436   2.615   0.775  4.9224  0.8743 -0.2648
  310SOL    HW2  930   1.527   2.596   0.628 -2.2326 -1.6919 -0.3465
  311SOL     OW  931   1.176   0.936   1.565  0.4927 -0.4583  0.3502
  311SOL    HW1  932   1.243   0.903   1.633  1.1176  0.7769  0.7059
  311SOL    HW2  933   1.195   1.035   1.542 -0.2534 -3.9216  0.8710
  312SOL     OW  934   1.651   0.705   1.023  0.2984 -0.3052  0.4318
  312SOL    HW1  935   1.625   0.788   0.961  0.2330  0.3201 -0.0816
  312SOL    HW2  936   1.598   0.620   0.994  2.0344  0.6392 -1.6436
  313SOL     OW  937   1.525   1.414   0.688 -0.9915  0.5278 -0.3131
  313SOL    HW1  938   1.439   1.450   0.723  0.8665 -0.3396  1.3916
  313SOL    HW2  939   1.512   1.323   0.638 -1.1369  1.4233 -0.4495
  314SOL     OW  940   2.980   3.059   0.019 -0.0221 -0.2374  0.6351
  314SOL    HW1  941   2.955   3.118   0.101 -0.3648  1.5741  1.7380
  314SOL    HW2  942   2.904   2.990  -0.006  2.9502 -2.0511  0.4399
  315SOL     OW  943   1.223   0.219   2.778  0.1921  0.1062  0.3103
  315SOL    HW1  944   1.177   0.152   2.708 -0.5241 -0.5753 -2.1966
  315SOL    HW2  945   1.212   0.200   2.878 -0.7615  0.1574 -2.2471
  316SOL     OW  946   1.679   2.112   0.914 -0.7096  0.1980  0.0465
  316SOL    HW1  947   1.607   2.106   0.993 -2.6992 -0.4322  1.6669
  316SOL    HW2  948   1.683   2.204   0.866 -3.2037 -0.0666  0.2258
  317SOL     OW  949   1.119   0.718   2.848  0.1352  0.0621  0.1058
  317SOL    HW1  950   1.042   0.773   2.892 -0.5667 -2.8161  0.8049
  317SOL    HW2  951   1.083   0.624   2.814 -2.6058 -0.5125 -2.2610
  318SOL     OW  952   1.421   3.016   2.256 -0.6800 -0.3831  0.1006
  318SOL    HW1  953   1.395   3.092   2.199 -0.4090  1.6829  4.8231
  318SOL    HW2  954   1.471   2.951   2.201 -3.3397  1.5438  0.3696
  319SOL     OW  955   0.651   2.402   2.905 -0.1346  0.0339  0.1369
  319SOL    HW1  956   0.599   2.384   2.991 -1.1487 -0.9264  0.1582
  319SOL    HW2  957   0.752   2.390   2.915  1.1124  0.8311 -2.4419
  320SOL     OW  958   1.639   2.182   0.342 -0.0825 -0.0328 -0.0156
  320SOL    HW1  959   1.738   2.149   0.337 -0.7490  2.2739 -0.5803
  320SOL    HW2  960   1.583   2.133   0.407  3.2638 -2.0917 -0.5485
  321SOL     OW  961   1.619   2.643   0.485  0.6483 -0.0649 -0.1102
  321SOL    HW1  962   1.542   2.710   0.458  2.4391 -0.2135  0.1103
  321SOL    HW2  963   1.704   2.694   0.511  0.4202  2.7824  0.1597
  322SOL     OW  964   2.559   1.119   2.277  0.5413 -0.1135  0.8084
  322SOL    HW1  965   2.638   1.170   2.323 -3.0279 -0.0109  1.6963
  322SOL    HW2  966   2.555   1.019   2.313  3.7785  0.3644 -1.5101
  323SOL     OW  967   1.014   2.639   0.796 -0.1316 -0.5416 -0.1659
  323SOL    HW1  968   1.049   2.603   0.706 -2.3497  1.8599 -0.3639
  323SOL    HW2  969   0.997   2.744   0.796 -2.7136  0.9077  0.8704
  324SOL     OW  970   0.233   2.464   2.482 -0.0892 -0.0143  0.2425
  324SOL    HW1  971   0.246   2.412   2.572  2.2544  1.4145  1.3180
  324SOL    HW2  972   0.154   2.531   2.486  1.5080 -0.0502  4.1198
  325SOL     OW  973   1.215   3.046   0.459  0.3697 -0.2650 -0.2900
  325SOL    HW1  974   1.244   3.073   0.362  0.0674  1.8766  0.1241
  325SOL    HW2  975   1.236   3.119   0.528  0.8765 -1.4571 -0.0791
  326SOL     OW  976   2.475   0.757   3.054  0.1134  0.3766  0.2708
  326SOL    HW1  977   2.418   0.693   2.997  1.2696  0.2958  0.7449
  326SOL    HW2  978   2.528   0.706   3.128  3.4863  2.1010 -0.9436
  327SOL     OW  979   2.888   0.376   0.496  0.0908 -0.4292 -0.1970
  327SOL    HW1  980   2.836   0.387   0.406  1.8004 -1.6652 -1.4982
  327SOL    HW2  981   2.846   0.303   0.549  1.4208  1.1706 -0.2531
  328SOL     OW  982   2.496   0.584   0.398  0.3343  0.7871  0.1135
  328SOL    HW1  983   2.413   0.641   0.426 -0.8161 -1.0588 -0.7259
  328SOL    HW2  984   2.517   0.525   0.482 -1.6116  0.8613  1.2872
  329SOL     OW  985   2.942   2.969   2.167  0.6001 -0.3440 -0.1176
  329SOL    HW1  986   2.983   2.898   2.231  1.6494  0.6480  1.2862
  329SOL    HW2  987   2.995   3.057   2.166 -1.2335  0.2446  1.6468
  330SOL     OW  988   0.532   0.192   1.888 -0.0193  0.4501 -0.2795
  330SOL    HW1  989   0.584   0.279   1.908  1.2780  1.9271 -0.3666
  330SOL    HW2  990   0.535   0.121   1.964 -1.0699 -2.0796 -0.7914
  331SOL     OW  991   2.924   1.936   1.120  0.0846 -0.3945 -0.0692
  331SOL    HW1  992   2.977   2.017   1.083 -1.8790  0.9761 -0.7331
  331SOL    HW2  993   2.856   1.965   1.193  0.6094  0.5321 -1.6960
  332SOL     OW  994   0.421   1.127   0.070  0.1604  0.0672 -0.1524
  332SOL    HW1  995   0.391   1.056  -0.000 -1.1916 -1.2747  0.3280
  332SOL    HW2  996   0.351   1.199   0.088 -1.6052 -1.5035  0.6270
  333SOL     OW  997   2.866   1.049   0.312 -0.3683 -0.2577  0.1429
  333SOL    HW1  998   2.897   1.132   0.361 -1.1195 -1.1855 -0.0164
  333SOL    HW2  999   2.947   0.989   0.281  0.7887  0.8954 -2.9403
  334SOL     OW 1000   1.681   1.181   1.879 -0.2668 -0.1310 -0.0682
  334SOL    HW1 1001   1.777   1.150   1.880  0.1291 -0.3434  2.3813
  334SOL    HW2 1002   1.670   1.270   1.936 -0.1314  0.4636 -1.0837
  335SOL     OW 1003   1.985   2.761   2.613  0.0470 -0.0869 -0.1981
  335SOL    HW1 1004   1.915   2.742   2.693  0.3991  1.1497  0.5168
  335SOL    HW2 1005   2.077   2.801   2.654  0.4432 -2.3926  0.5237
  336SOL     OW 1006   0.259   0.079   2.793 -0.1167 -0.0880  0.7759
  336SOL    HW1 1007   0.354   0.040   2.793 -2.9172 -2.9056  0.4147
  336SOL    HW2 1008   0.256   0.169   2.844  1.4629 -1.7719 -0.8588
  337SOL     OW 1009   0.925   2.806   2.805 -0.0917  0.2266  0.4622
  337SOL    HW1 1010   0.923   2.774   2.900 -0.6146 -0.1104 -0.8202
  337SOL    HW2 1011   1.006   2.772   2.753 -1.8147 -0.9428  1.5973
  338SOL     OW 1012   0.033   0.997   0.697  0.3909  0.1254  0.4006
  338SOL    HW1 1013  -0.068   0.986   0.668  0.8556  0.8730 -0.2570
  338SOL    HW2 1014   0.055   1.101   0.690 -3.1895  2.3469 -0.0641
  339SOL     OW 1015   1.686   1.389   2.086  0.6170  0.0561 -0.1001
  339SOL    HW1 1016   1.588   1.428   2.078 -0.3219 -1.7970 -1.1372
  339SOL    HW2 1017   1.758   1.463   2.123  3.1856 -1.1004  0.3841
  340SOL     OW 1018   2.339   0.778   1.223  0.6361 -0.9078  0.3253
  340SOL    HW1 1019   2.237   0.786   1.205  0.2353 -2.0946 -1.1486
  340SOL    HW2 1020   2.381   0.694   1.174 -0.6473  1.5656 -1.6783
  341SOL     OW 1021   1.905   2.166   0.335 -0.3831  0.4672 -0.1307
  341SOL    HW1 1022   1.925   2.201   0.237  0.0792  2.5004  1.4491
  341SOL    HW2 1023   1.986   2.186   0.399  3.5279  0.5945 -0.2764
  342SOL     OW 1024   2.207   2.091   2.766  0.3798 -0.4204 -0.2114
  342SOL    HW1 1025   2.271   2.014   2.784  1.9635  0.8665  1.1360
  342SOL    HW2 1026   2.106   2.065   2.755 -0.2176 -2.0044 -1.3249
  343SOL     OW 1027   0.333   0.790   2.769  0.5282 -0.1240 -0.4039
  343SOL    HW1 1028   0.347   0.875   2.704  4.3225 -1.5628  0.2503
  343SOL    HW2 1029   0.403   0.720   2.751 -1.0874  1.5787 -2.3753
  344SOL     OW 1030   1.930   1.433   0.460  0.0509 -0.6192 -0.3773
  344SOL    HW1 1031   1.941   1.359   0.389  0.9284  1.4565  0.8307
  344SOL    HW2 1032   1.833   1.457   0.478  1.4433 -1.2436  1.9706
  345SOL     OW 1033   1.393   2.276   2.906 -0.0332 -0.1572  0.0292
  345SOL    HW1 1034   1.310   2.236   2.860 -1.1042 -0.6315  0.8374
  345SOL    HW2 1035   1.479   2.262   2.849  1.3963 -0.9188  1.4717
  346SOL     OW 1036   2.306   0.892   1.471 -0.0292  0.5152 -0.1979
  346SOL    HW1 1037   2.266   0.990   1.472  0.5233  1.3076  0.4931
  346SOL    HW2 1038   2.298   0.853   1.374  1.0443 -0.5756 -1.3491
  347SOL     OW 1039   0.732   2.831   1.505 -0.1741 -0.8029 -0.5780
  347SOL    HW1 1040   0.695   2.767   1.581  0.3834  1.3220  1.5315
  347SOL    HW2 1041   0.656   2.880   1.458  1.8209  1.1223  1.6472
  348SOL     OW 1042   0.109   0.657   2.843  0.4792  0.2427 -0.4609
  348SOL    HW1 1043   0.011   0.701   2.856 -3.1029  1.5030 -0.2538
  348SOL    HW2 1044   0.174   0.727   2.799  1.9751 -0.9101  0.0077
  349SOL     OW 1045   1.832   0.420   2.793 -0.1998 -0.2687 -0.1055
  349SOL    HW1 1046   1.823   0.508   2.736 -1.4083 -0.2664  0.3398
  349SOL    HW2 1047   1.816   0.422   2.896 -0.7016 -1.8086  0.7343
  350SOL     OW 1048   1.616   0.428   0.371 -0.2037  0.0740  0.0959
  350SOL    HW1 1049   1.678   0.447   0.453  0.0416 -0.8870 -2.0056
  350SOL    HW2 1050   1.566   0.519   0.353 -1.9747  1.2057 -0.2526
  351SOL     OW 1051   0.970   0.878   2.075 -0.0204 -0.5941  0.9909
  351SOL    HW1 1052   0.944   0.972   2.055 -0.5679  0.4472 -0.1259
  351SOL    HW2 1053   0.976   0.826   1.985  1.8971  1.4817 -2.4783
  352SOL     OW 1054   2.017   1.300   0.669  0.8168  0.2129  0.7209
  352SOL    HW1 1055   1.981   1.355   0.593  0.5394 -1.1717 -2.0543
  352SOL    HW2 1056   2.106   1.343   0.697 -0.3020 -0.1958 -0.3115
  353SOL     OW 1057   2.141   2.919   1.118 -0.1228  0.6122 -0.5416
  353SOL    HW1 1058   2.214   2.850   1.147 -0.2803  2.3196  0.5281
  353SOL    HW2 1059   2.069   2.877   1.052  3.0772  0.2412 -2.9658
  354SOL     OW 1060   0.245   1.401   2.867  0.1951 -0.5222  0.7514
  354SOL    HW1 1061   0.243   1.475   2.796 -0.7165  0.2947 -2.5915
  354SOL    HW2 1062   0.339   1.351   2.871  1.8063  2.2871  0.7176
  355SOL     OW 1063   0.536   1.520   0.512 -0.0924 -0.1253  0.1915
  355SOL    HW1 1064   0.531   1.620   0.531 -0.7569  0.6247 -2.1371
  355SOL    HW2 1065   0.611   1.465   0.557  0.7123  0.7762  2.1196
  356SOL     OW 1066   0.941   0.319   2.101  0.4832 -0.7445 -0.5685
  356SOL    HW1 1067   1.019   0.373   2.077 -1.1622  1.0050 -0.0041
  356SOL    HW2 1068   0.911   0.254   2.023 -1.7620 -0.7803  0.9343
  357SOL     OW 1069   1.027   1.307   0.367  0.0206  0.5557  0.4984
  357SOL    HW1 1070   1.003   1.239   0.295 -1.5369 -1.5992  0.1845
  357SOL    HW2 1071   1.046   1.271   0.463  0.6720 -3.3450  2.0704
  358SOL     OW 1072   1.655   1.504   0.470  0.5275 -0.2501  0.3617
  358SOL    HW1 1073   1.587   1.489   0.547  0.2384 -0.0472  1.8800
  358SOL    HW2 1074   1.603   1.510   0.380  0.2056 -0.3121  0.2552
  359SOL     OW 1075   1.575   2.710   0.079 -0.0498  0.6667 -0.3555
  359SOL    HW1 1076   1.592   2.627   0.022 -0.7043 -1.5291 -1.2845
  359SOL    HW2 1077   1.494   2.764   0.041  1.6824  0.4357 -0.0051
  360SOL     OW 1078   0.860   0.623   0.527 -0.1445  0.2551  0.5431
  360SOL    HW1 1079   0.776   0.610   0.591 -0.9389  1.4624 -0.7191
  360SOL    HW2 1080   0.898   0.528   0.505 -1.1921 -2.0322 -0.2446
  361SOL     OW 1081   1.242   1.385   0.674  0.0374 -0.1878  0.2382
  361SOL    HW1 1082   1.275   1.378   0.770  0.4736 -0.2933  0.4103
  361SOL    HW2 1083   1.166   1.461   0.667  0.7608  2.5448  0.5859
  362SOL     OW 1084   1.383   1.755   0.766 -0.6070 -0.2181  0.1410
  362SOL    HW1 1085   1.396   1.696   0.851 -0.2410  0.0368 -1.7687
  362SOL    HW2 1086   1.462   1.825   0.756  1.5778  0.4454 -0.5491
  363SOL     OW 1087   1.224   1.281   2.049 -0.1463 -0.5460  0.4978
  363SOL    HW1 1088   1.207   1.358   2.113  3.1672 -0.7796 -1.4976
  363SOL    HW2 1089   1.250   1.319   1.955 -0.1561 -0.9076  0.3461
  364SOL     OW 1090   0.542   2.348   1.918  0.3253 -0.3549  0.2781
  364SOL    HW1 1091   0.461   2.411   1.934 -0.4175  2.4552 -0.9914
  364SOL    HW2 1092   0.604   2.375   1.841  2.3039 -0.8668  3.3936
  365SOL     OW 1093   1.054   1.930   1.401 -0.2228 -0.2974  0.2323
  365SOL    HW1 1094   0.954   1.921   1.432 -1.5308 -0.9682 -0.8279
  365SOL    HW2 1095   1.069   1.902   1.302  1.6570 -0.8303 -1.7802
  366SOL     OW 1096   2.818   2.050   0.493 -0.0608  0.1693  0.0774
  366SOL    HW1 1097   2.722   2.008   0.500 -1.7604 -1.0326  1.8631
  366SOL    HW2 1098   2.871   2.015   0.411 -1.7754 -1.2188  2.6647
  367SOL     OW 1099   0.812   1.170   0.148  0.1398 -0.5469  0.6213
  367SOL    HW1 1100   0.769   1.089   0.197  1.2608 -2.3747 -3.3612
  367SOL    HW2 1101   0.837   1.153   0.048 -0.8798 -0.0248  2.5054
  368SOL     OW 1102   1.515   0.578   0.721  0.2171 -0.1694  0.8123
  368SOL    HW1 1103   1.446   0.600   0.644 -2.7328  2.2097  0.6845
  368SOL    HW2 1104   1.598   0.640   0.710  1.3630  0.0207 -2.5673
  369SOL     OW 1105   0.256   1.738   0.044 -0.4369 -0.3301 -0.2947
  369SOL    HW1 1106   0.289   1.792   0.132 -1.8362  2.2609 -0.6197
  369SOL    HW2 1107   0.185   1.668   0.071  1.3166 -0.7277  1.7106
  370SOL     OW 1108   0.406   2.116   1.049  0.9143 -0.1492  0.2936
  370SOL    HW1 1109   0.440   2.207   1.013 -0.1849 -1.7525 -1.5938
  370SOL    HW2 1110   0.314   2.091   1.009  0.7186  0.3115 -0.9520
  371SOL     OW 1111   2.891   2.232   2.738  0.0144  0.3617 -0.4136
  371SOL    HW1 1112   2.875   2.202   2.839 -2.4016 -0.7033  1.3317
  371SOL    HW2 1113   2.987   2.240   2.709 -2.8559 -0.9821 -0.1869
  372SOL     OW 1114   1.036   1.911   0.960  1.2634  0.4022  0.7133
  372SOL    HW1 1115   0.943   1.942   0.936  0.8312 -1.6998 -0.7385
  372SOL    HW2 1116   1.102   1.973   0.913  0.8927 -1.4640  1.3260
  373SOL     OW 1117   1.971   1.999   0.886  0.2204 -0.3381  0.4626
  373SOL    HW1 1118   2.028   1.982   0.973  0.2767  0.7908 -1.4073
  373SOL    HW2 1119   1.874   2.033   0.904  1.4322 -1.3686  0.4251
  374SOL     OW 1120   1.815   0.464   0.554 -0.9473  0.2353 -0.2152
  374SOL    HW1 1121   1.834   0.424   0.654  3.0761 -1.6240  0.6261
  374SOL    HW2 1122   1.894   0.446   0.492 -4.1386  1.7559  5.2568
  375SOL     OW 1123   2.366   2.162   1.140  0.1690 -0.0040  0.3068
  375SOL    HW1 1124   2.428   2.162   1.056 -2.2029 -1.0055  2.9291
  375SOL    HW2 1125   2.418   2.154   1.229  0.3142  0.2374 -1.5020
  376SOL     OW 1126   3.012   0.609   1.409 -0.3069  0.0500  0.1493
  376SOL    HW1 1127   3.075   0.628   1.489 -1.5716 -0.3891  1.6887
  376SOL    HW2 1128   2.913   0.624   1.429  0.8144  1.5466 -0.9319
  377SOL     OW 1129   2.267   2.824   0.347 -0.2313  0.1028  0.3458
  377SOL    HW1 1130   2.236   2.926   0.355  0.5717  1.4426 -1.0146
  377SOL    HW2 1131   2.372   2.809   0.344 -1.3173  0.5252  2.5204
  378SOL     OW 1132   1.782   1.903   2.643 -0.2696 -0.7442  0.4628
  378SOL    HW1 1133   1.718   1.833   2.690 -2.9285 -0.0734  3.1861
  378SOL    HW2 1134   1.792   1.889   2.537  1.8132 -0.6585 -0.9553
  379SOL     OW 1135   0.875   0.101   2.753  0.0362  1.1308  0.5323
  379SOL    HW1 1136   0.823   0.014   2.744  2.1260 -0.6840  0.0477
  379SOL    HW2 1137   0.828   0.177   2.700 -1.1182  0.1991  1.2279
  380SOL     OW 1138   1.522   1.156   0.564  0.0299  0.1087 -0.7164
  380SOL    HW1 1139   1.419   1.162   0.552 -0.4395  3.0321  1.6781
  380SOL    HW2 1140   1.555   1.056   0.584  0.8198 -4.0053 -0.2982
  381SOL     OW 1141   1.295   1.190   1.542 -0.1006 -0.3728  0.5370
  381SOL    HW1 1142   1.336   1.234   1.455 -1.1405  2.3680  0.2861
  381SOL    HW2 1143   1.361   1.188   1.622 -2.2631  2.1206  0.1145
  382SOL     OW 1144   1.768   0.797   0.265 -0.0507  0.2483  0.1020
  382SOL    HW1 1145   1.809   0.778   0.170  1.8654  0.0254 -0.1538
  382SOL    HW2 1146   1.837   0.801   0.345  0.1331 -2.7798  1.2503
  383SOL     OW 1147   2.569   0.968   1.506 -0.2322 -0.0107  0.1044
  383SOL    HW1 1148   2.479   0.919   1.480 -0.0333 -2.0152  2.3366
  383SOL    HW2 1149   2.646   0.947   1.439  2.4618  1.5090 -1.6970
  384SOL     OW 1150   0.885   2.289   0.061  0.4521  0.0322 -0.3972
  384SOL    HW1 1151   0.831   2.370   0.103 -2.4692  2.5736 -1.7387
  384SOL    HW2 1152   0.886   2.201   0.116 -2.4845  2.9241 -0.0283
  385SOL     OW 1153   3.005   2.008   1.785  0.6654 -0.4477  0.3159
  385SOL    HW1 1154   3.066   2.091   1.762 -0.9700  1.7221  1.4934
  385SOL    HW2 1155   3.049   1.927   1.734 -2.5510  0.4216  0.4928
  386SOL     OW 1156   0.431   1.138   0.473  0.1088 -0.1522  0.5867
  386SOL    HW1 1157   0.431   1.040   0.496  0.3416  2.0940  1.6027
  386SOL    HW2 1158   0.365   1.167   0.392  0.3357 -1.3759 -2.0673
  387SOL     OW 1159   1.000   0.293   1.640  0.1780  0.4467  0.1984
  387SOL    HW1 1160   1.042   0.394   1.650  1.5714  0.6507 -1.7895
  387SOL    HW2 1161   1.010   0.260   1.545  1.8995  1.8689 -0.6874
  388SOL     OW 1162   1.202   2.620   1.787  0.5875 -0.0143  0.0529
  388SOL    HW1 1163   1.220   2.636   1.686 -1.9367 -0.3934 -0.4085
  388SOL    HW2 1164   1.233   2.538   1.839 -0.3514 -0.2494  1.0024
  389SOL     OW 1165   0.235   3.100   1.139  0.0017 -0.5931 -0.0932
  389SOL    HW1 1166   0.157   3.127   1.206 -1.7941  0.2736  0.7397
  389SOL    HW2 1167   0.256   3.001   1.139  0.1436  0.1201  0.3801
  390SOL     OW 1168   1.056   0.893   1.233  0.3064  0.6881  0.0285
  390SOL    HW1 1169   1.150   0.854   1.258 -2.7671 -1.6897  0.3595
  390SOL    HW2 1170   0.989   0.885   1.307  1.9038 -1.7847 -1.2376
  391SOL     OW 1171   2.089   1.128   1.056 -0.2035 -0.6875 -0.3912
  391SOL    HW1 1172   1.995   1.077   1.073 -0.1196 -0.6120 -2.6856
  391SOL    HW2 1173   2.130   1.098   0.967 -3.0779  0.0115  2.1280
  392SOL     OW 1174   0.890   2.706   3.052  0.1851 -0.1147  0.0840
  392SOL    HW1 1175   0.819   2.663   3.113  2.8038 -2.0337 -1.2047
  392SOL    HW2 1176   0.972   2.747   3.102 -1.4309  0.7140 -2.3868
  393SOL     OW 1177   0.378   0.556   2.099  0.0193 -0.5013  0.4541
  393SOL    HW1 1178   0.290   0.501   2.100 -0.6068 -1.6004  1.3687
  393SOL    HW2 1179   0.437   0.535   2.015 -1.8062 -1.0442  0.0324
  394SOL     OW 1180   2.888   1.842   2.800  1.1117  0.1525 -0.5821
  394SOL    HW1 1181   2.961   1.890   2.859  0.5889  1.1598  1.8796
  394SOL    HW2 1182   2.931   1.812   2.709 -0.4754  2.1017 -0.4780
  395SOL     OW 1183   1.575   1.931   0.737  0.1235  0.1027 -0.3848
  395SOL    HW1 1184   1.641   1.872   0.675  1.7830 -3.3221  1.4756
  395SOL    HW2 1185   1.621   2.010   0.793  1.6925  2.9148 -1.1326
  396SOL     OW 1186   2.782   2.055   1.314 -0.1764  0.3346  0.2946
  396SOL    HW1 1187   2.792   2.036   1.416 -2.5529  0.6725  1.5259
  396SOL    HW2 1188   2.700   2.115   1.301  1.2593 -0.1744 -1.1478
  397SOL     OW 1189   1.023   2.089   0.637  0.1438  0.2471 -0.0876
  397SOL    HW1 1190   0.947   2.055   0.572 -1.3414  0.2120 -3.1192
  397SOL    HW2 1191   0.995   2.161   0.704  3.7662 -0.0447 -3.0631
  398SOL     OW 1192   2.156   0.093   1.081  0.1562 -0.0658  0.0435
  398SOL    HW1 1193   2.137  -0.007   1.087 -1.1276  2.4358  1.1023
  398SOL    HW2 1194   2.068   0.153   1.062 -2.6989  2.3363 -0.1652
  399SOL     OW 1195   2.966   2.531   2.707 -0.4086 -0.3058  0.1271
  399SOL    HW1 1196   2.905   2.502   2.629 -0.9846  0.4600 -0.0550
  399SOL    HW2 1197   2.937   2.486   2.799 -0.2724  0.5973 -1.4093
  400SOL     OW 1198   0.843   1.599   1.290 -0.6858 -0.3260  0.1831
  400SOL    HW1 1199   0.789   1.629   1.376  0.4480  1.3847  0.3270
  400SOL    HW2 1200   0.833   1.663   1.209  1.0827  0.1439  3.5783
  401SOL     OW 1201   1.813   0.139   1.270 -0.1946 -0.1179 -0.3236
  401SOL    HW1 1202   1.871   0.180   1.341 -2.3681 -0.4252  0.6127
  401SOL    HW2 1203   1.711   0.133   1.300  1.4430  1.0953  1.9865
  402SOL     OW 1204   1.314   0.131   3.045  0.3680 -0.0045  0.0662
  402SOL    HW1 1205   1.399   0.106   2.995 -3.8299  3.0271  0.3955
  402SOL    HW2 1206   1.327   0.202   3.122 -1.6202  0.0127  0.8790
  403SOL     OW 1207   2.326   1.805   0.956  0.5206  0.0273 -0.1401
  403SOL    HW1 1208   2.429   1.802   0.984  0.0121 -1.2259  2.2328
  403SOL    HW2 1209   2.266   1.854   1.023  1.3732  0.5499 -0.2255
  404SOL     OW 1210   0.189   2.502   2.834 -0.3140 -0.0745  0.2203
  404SOL    HW1 1211   0.279   2.453   2.804 -1.2892 -2.3372  1.2652
  404SOL    HW2 1212   0.204   2.606   2.842 -1.8416  2.4587 -2.1990
  405SOL     OW 1213   0.232   2.564   0.536  0.0672 -0.3723 -0.3506
  405SOL    HW1 1214   0.186   2.575   0.445 -2.7855  1.6602 -1.4434
  405SOL    HW2 1215   0.308   2.630   0.556  1.5268  1.2743  1.4700
  406SOL     OW 1216   0.018   1.519   2.980 -0.5599 -0.0045 -0.5668
  406SOL    HW1 1217   0.104   1.497   2.927 -3.0594  2.9794 -0.7043
  406SOL    HW2 1218   0.026   1.510   3.083  1.3655  1.1238 -0.4215
  407SOL     OW 1219   1.509   0.913   0.910  0.0736 -0.6401  0.4329
  407SOL    HW1 1220   1.445   0.872   0.838 -1.6230  0.5215 -1.2579
  407SOL    HW2 1221   1.472   0.993   0.960  1.8563  0.2828  1.7704
  408SOL     OW 1222   1.518   2.406   0.963  0.5112  0.1992  0.2622
  408SOL    HW1 1223   1.571   2.407   0.874  0.5084  0.5861 -1.1706
  408SOL    HW2 1224   1.523   2.498   1.005 -1.0342 -3.9166 -0.4308
  409SOL     OW 1225   0.670   0.854   0.669  0.3210 -0.3674  0.0417
  409SOL    HW1 1226   0.604   0.881   0.590  0.4401  2.0571  1.0213
  409SOL    HW2 1227   0.687   0.754   0.676 -0.0546  2.0094 -0.5971
  410SOL     OW 1228   1.298   2.027   1.485 -0.5769  0.0913  0.1212
  410SOL    HW1 1229   1.288   2.090   1.562  1.1651  0.5957 -3.4340
  410SOL    HW2 1230   1.210   1.967   1.482 -1.7399 -1.4872 -0.0737
  411SOL     OW 1231   2.380   1.833   0.028 -0.0330 -0.0730 -0.3792
  411SOL    HW1 1232   2.296   1.823  -0.033  0.6056  1.6938 -1.3734
  411SOL    HW2 1233   2.470   1.828  -0.026  1.8788 -2.4519 -1.4184
  412SOL     OW 1234   1.509   2.404   2.202 -0.2298  0.1134 -0.3329
  412SOL    HW1 1235   1.585   2.400   2.275 -1.7591 -1.0185  3.1308
  412SOL    HW2 1236   1.421   2.363   2.235  0.3251 -1.6022  0.8523
  413SOL     OW 1237   3.019   0.259   2.976  0.3014 -0.2157  0.2361
  413SOL    HW1 1238   2.976   0.176   3.021  1.7395  0.0194 -0.5422
  413SOL    HW2 1239   3.119   0.256   2.980 -0.3352 -0.0375  2.7713
  414SOL     OW 1240   1.771   1.386   1.335 -0.1318  0.0987  0.4068
  414SOL    HW1 1241   1.719   1.475   1.345  2.1359  2.7299 -1.2017
  414SOL    HW2 1242   1.749   1.338   1.242 -0.4631  0.0622 -0.8225
  415SOL     OW 1243   0.365   2.270   0.655  0.0896 -0.3173 -0.2627
  415SOL    HW1 1244   0.345   2.365   0.629 -1.9863  1.5451 -2.3700
  415SOL    HW2 1245   0.283   2.211   0.665 -0.2086  0.9537 -2.3293
  416SOL     OW 1246   0.374   1.013   1.059 -0.1615 -0.2038  0.6198
  416SOL    HW1 1247   0.332   0.977   0.972  2.1708 -0.4238  2.5329
  416SOL    HW2 1248   0.473   1.041   1.052  1.2313  0.0638 -1.9349
  417SOL     OW 1249   2.132   2.346   1.909 -0.3226  0.7043  0.2720
  417SOL    HW1 1250   2.164   2.253   1.954 -1.8390 -3.0907  0.9024
  417SOL    HW2 1251   2.026   2.362   1.920 -1.6822  2.5241  1.2333
  418SOL     OW 1252   1.137   0.492   1.323  0.2577  0.5700 -0.2961
  418SOL    HW1 1253   1.036   0.479   1.303 -0.7153  2.6367 -2.4176
  418SOL    HW2 1254   1.199   0.440   1.250  0.7557  0.7133  1.2101
  419SOL     OW 1255   0.984   0.375   3.036  0.5966  0.3344  0.5498
  419SOL    HW1 1256   0.975   0.410   2.938  1.9461 -0.8862 -0.9390
  419SOL    HW2 1257   0.961   0.273   3.037 -0.5702 -1.6645 -0.1555
  420SOL     OW 1258   0.220   2.252   0.341 -0.0320 -0.1610 -0.1667
  420SOL    HW1 1259   0.181   2.186   0.274 -1.8178  3.0015  0.6767
  420SOL    HW2 1260   0.157   2.283   0.419 -0.9868  1.1821 -2.1445
  421SOL     OW 1261   0.320   3.095   0.664  0.3731 -0.1412  0.3357
  421SOL    HW1 1262   0.302   2.992   0.664 -3.4327 -0.5028  1.2138
  421SOL    HW2 1263   0.420   3.129   0.657  0.8541 -0.3860  0.0229
  422SOL     OW 1264   0.922   2.496   1.030 -0.1598 -0.1812  0.1274
  422SOL    HW1 1265   0.966   2.572   0.967  0.5499  1.8473 -1.3433
  422SOL    HW2 1266   0.971   2.502   1.122  0.6616 -1.1048 -0.3768
  423SOL     OW 1267   0.049   0.718   1.201 -0.2139 -0.0356 -0.0020
  423SOL    HW1 1268  -0.000   0.677   1.283  0.3995  0.5104  2.5204
  423SOL    HW2 1269  -0.011   0.788   1.155  2.7422 -2.7600 -0.3640
  424SOL     OW 1270   1.017   2.164   2.097 -0.4135 -0.1921 -0.6729
  424SOL    HW1 1271   1.023   2.272   2.092  1.3826  0.5264 -0.4088
  424SOL    HW2 1272   0.984   2.131   2.191 -0.0553 -0.3468  0.8767
  425SOL     OW 1273   1.993   1.410   1.056 -0.0863  0.0585 -0.5483
  425SOL    HW1 1274   2.015   1.311   1.077  0.0563  2.0441 -0.4711
  425SOL    HW2 1275   2.063   1.460   0.996 -0.6350  6.6763  0.1380
  426SOL     OW 1276   1.541   1.546   1.385 -0.2763  0.1959  0.2806
  426SOL    HW1 1277   1.483   1.611   1.324 -1.0208  0.2583  0.0728
  426SOL    HW2 1278   1.526   1.575   1.487 -2.5904 -0.9215  2.2359
  427SOL     OW 1279   1.911   2.365   2.072 -0.5834  0.2562  0.2417
  427SOL    HW1 1280   1.947   2.302   2.145  1.4077 -2.1893 -0.3239
  427SOL    HW2 1281   1.940   2.464   2.075  0.7142 -1.7975  2.2498
  428SOL     OW 1282   0.896   3.029   0.128 -0.2755 -0.6549 -0.2006
  428SOL    HW1 1283   0.954   3.117   0.154  0.0563  1.1571  0.3070
  428SOL    HW2 1284   0.951   2.942   0.144  0.9202 -2.9682  4.3419
  429SOL     OW 1285   1.319   0.069   0.219 -0.1574  0.2143 -0.5457
  429SOL    HW1 1286   1.401   0.108   0.264  0.1078  1.0115  0.3594
  429SOL    HW2 1287   1.324   0.060   0.117  1.7881  0.4453  2.8299
  430SOL     OW 1288   2.803   1.512   0.354 -0.0737 -0.5316 -0.0268
  430SOL    HW1 1289   2.835   1.570   0.275 -2.6769  3.2535 -2.3453
  430SOL    HW2 1290   2.800   1.570   0.440  0.1838 -1.4041 -1.1200
  431SOL     OW 1291   2.147   1.596   0.897 -0.0993  0.2454 -0.2460
  431SOL    HW1 1292   2.221   1.671   0.913 -0.8308  0.0691  1.2211
  431SOL    HW2 1293   2.049   1.633   0.897  0.0954 -0.8886  1.6504
  432SOL     OW 1294   2.925   2.284   1.230 -0.3889 -0.2111 -0.6338
  432SOL    HW1 1295   2.851   2.215   1.254  2.6596 -1.5093 -0.9052
  432SOL    HW2 1296   2.961   2.323   1.322 -4.6190 -0.4872 -3.9246
  433SOL     OW 1297   1.822   0.363   0.794 -0.0077 -0.2291  0.2727
  433SOL    HW1 1298   1.763   0.365   0.879 -0.2421  3.7012  1.6517
  433SOL    HW2 1299   1.911   0.308   0.805  1.4006  1.7514  1.1142
  434SOL     OW 1300   1.514   0.289   0.699 -0.4374  0.3339  0.1152
  434SOL    HW1 1301   1.545   0.374   0.662 -1.0081  0.2689  0.1758
  434SOL    HW2 1302   1.547   0.280   0.802  1.1480 -0.1755  1.4816
  435SOL     OW 1303   1.436   1.482   2.092 -0.3858 -0.9059 -0.1090
  435SOL    HW1 1304   1.426   1.490   2.196  1.5091  1.5126  1.2657
  435SOL    HW2 1305   1.377   1.551   2.046 -0.5065 -0.0487 -2.6618
  436SOL     OW 1306   1.655   2.646   2.429 -0.0141  0.3013  0.2747
  436SOL    HW1 1307   1.651   2.743   2.461  0.3362  1.1126  3.3954
  436SOL    HW2 1308   1.633   2.583   2.508 -1.4699 -1.9452 -0.2461
  437SOL     OW 1309   1.087   2.927   0.912 -0.2882 -0.0647  0.5603
  437SOL    HW1 1310   1.021   3.011   0.910  1.7771  0.0600 -0.0815
  437SOL    HW2 1311   1.126   2.923   1.009  0.3563  1.9966  1.2959
  438SOL     OW 1312   1.085   2.528   1.286  0.1664  0.6304 -0.3285
  438SOL    HW1 1313   1.137   2.594   1.344 -0.6690 -3.5935  1.4916
  438SOL    HW2 1314   1.048   2.444   1.332  1.3966 -0.6263 -0.6521
  439SOL     OW 1315   0.726   1.736   1.037  0.4498  0.8051 -0.5017
  439SOL    HW1 1316   0.744   1.812   0.972 -1.6585  2.0779  2.9446
  439SOL    HW2 1317   0.644   1.765   1.091  3.4829  0.2116  1.3735
  440SOL     OW 1318   1.036   2.416   2.039 -0.3958  0.6343 -0.3412
  440SOL    HW1 1319   0.998   2.464   1.954  0.7254  3.4136 -1.6260
  440SOL    HW2 1320   1.135   2.433   2.050 -0.7298 -1.5244  1.1659
  441SOL     OW 1321   0.344   2.692   1.412  0.3729 -0.1643  0.4847
  441SOL    HW1 1322   0.414   2.623   1.442 -3.2103 -0.0275  0.9439
  441SOL    HW2 1323   0.351   2.722   1.318 -1.1858 -0.1559  3.5448
  442SOL     OW 1324   2.229   0.643   2.609  0.1101 -0.5727 -0.0596
  442SOL    HW1 1325   2.243   0.553   2.559  0.4745 -1.4230  1.7292
  442SOL    HW2 1326   2.128   0.669   2.606 -2.4571  0.2795 -4.1760
  443SOL     OW 1327   1.269   2.667   2.230 -0.0586  0.3930 -0.3385
  443SOL    HW1 1328   1.315   2.586   2.266  0.2126  0.1686 -1.3218
  443SOL    HW2 1329   1.175   2.681   2.275 -1.7482 -0.8925 -1.4740
  444SOL     OW 1330   1.025   1.227   1.501  0.6091  0.1152  0.1707
  444SOL    HW1 1331   1.122   1.251   1.530 -1.4498 -0.6542  0.8933
  444SOL    HW2 1332   0.948   1.272   1.564 -0.9224  2.6805 -3.0753
  445SOL     OW 1333   0.118   2.305   1.988 -0.9675  0.1310 -0.6539
  445SOL    HW1 1334   0.092   2.250   1.903 -0.3178  0.3692 -1.9464
  445SOL    HW2 1335   0.097   2.257   2.079 -5.0230 -0.0932 -4.9755
  446SOL     OW 1336   0.149   1.952   2.382  0.0744  0.0126  0.0355
  446SOL    HW1 1337   0.114   2.050   2.373  0.9884 -0.9616  1.2344
  446SOL    HW2 1338   0.146   1.885   2.298 -1.5271 -1.2758  0.4825
  447SOL     OW 1339   1.259   1.682   1.972  0.1480  0.0185 -0.3041
  447SOL    HW1 1340   1.170   1.733   1.986 -1.2869 -1.5291 -1.7184
  447SOL    HW2 1341   1.345   1.738   1.999  1.5865 -1.9507 -0.3904
  448SOL     OW 1342   0.188   1.442   2.038 -0.9135 -0.1096 -0.1226
  448SOL    HW1 1343   0.181   1.522   1.967  0.8907  1.4877 -1.0467
  448SOL    HW2 1344   0.117   1.452   2.113  1.0737 -2.1343 -4.1952
  449SOL     OW 1345   1.860   2.924   0.809 -0.6412  0.0561  0.5749
  449SOL    HW1 1346   1.847   2.918   0.910  0.3656 -0.4831 -0.1559
  449SOL    HW2 1347   1.895   2.833   0.763  0.6786  1.3460  0.3762
  450SOL     OW 1348   2.248   1.476   0.695  0.1649  0.0062 -0.0620
  450SOL    HW1 1349   2.203   1.527   0.779 -1.7579  1.1444 -0.2399
  450SOL    HW2 1350   2.268   1.551   0.625 -4.5463 -2.2530 -0.6236
  451SOL     OW 1351   1.377   3.043   1.499  0.0073  0.4852 -0.0122
  451SOL    HW1 1352   1.308   3.117   1.519 -0.2098 -2.5985 -0.6283
  451SOL    HW2 1353   1.411   2.980   1.585  1.4130 -3.3274  3.2889
  452SOL     OW 1354   2.656   2.294   2.296 -0.3224  0.2655  0.3647
  452SOL    HW1 1355   2.624   2.396   2.304 -1.0082  1.3371  0.9069
  452SOL    HW2 1356   2.679   2.245   2.383  1.7819  1.4951  0.2150
  453SOL     OW 1357   2.470   2.657   3.079 -0.4479  0.3098  1.0849
  453SOL    HW1 1358   2.384   2.710   3.094  1.4555 -3.9517  1.6053
  453SOL    HW2 1359   2.454   2.591   3.002  0.4481  2.4877 -3.3733
  454SOL     OW 1360   0.913   1.148   2.017 -0.0718 -0.4698  0.1338
  454SOL    HW1 1361   0.900   1.098   1.924  1.3274 -0.6946  0.7485
  454SOL    HW2 1362   1.009   1.191   2.031 -1.0121  1.0304  2.0353
  455SOL     OW 1363   0.664   2.673   2.831  0.5041  0.2555  0.5332
  455SOL    HW1 1364   0.750   2.722   2.828 -1.4187 -2.4350 -0.9672
  455SOL    HW2 1365   0.654   2.580   2.877 -0.8667  1.2234 -0.4364
  456SOL     OW 1366   0.360   1.921   0.223  0.4456 -0.7826  0.1508
  456SOL    HW1 1367   0.462   1.907   0.227  1.2562  1.4756 -2.7545
  456SOL    HW2 1368   0.328   1.997   0.164  0.5143 -0.9811 -0.5970
  457SOL     OW 1369   0.411   2.783   0.651 -0.2677  0.2448 -0.2407
  457SOL    HW1 1370   0.443   2.839   0.574 -2.1925 -0.4606  2.2371
  457SOL    HW2 1371   0.493   2.759   0.710 -0.1644 -0.9655 -0.1960
  458SOL     OW 1372   2.829   0.025   1.219 -0.4997  0.0810 -0.3090
  458SOL    HW1 1373   2.882   0.116   1.234  0.1190  0.8322 -0.5883
  458SOL    HW2 1374   2.844  -0.008   1.122 -0.7892  0.1049 -0.5213
  459SOL     OW 1375   2.216   2.520   0.797 -0.6812  0.8719 -0.1249
  459SOL    HW1 1376   2.286   2.583   0.849  0.0391  0.4847  0.7568
  459SOL    HW2 1377   2.262   2.439   0.747 -2.0644 -3.2906  2.6899
  460SOL     OW 1378   1.199   2.066   2.787  0.4407 -0.2922  0.2628
  460SOL    HW1 1379   1.247   2.103   2.701 -0.0592  0.0342 -0.5799
  460SOL    HW2 1380   1.221   1.964   2.805 -1.8107 -1.4673 -0.3585
  461SOL     OW 1381   0.420   2.093   2.728  0.4984 -0.3419  0.4470
  461SOL    HW1 1382   0.380   2.012   2.666  0.2205 -0.5596 -0.9039
  461SOL    HW2 1383   0.438   2.069   2.829  1.3422  1.6799  0.9494
  462SOL     OW 1384   0.946   1.029   1.769 -0.0099  0.4281  0.2922
  462SOL    HW1 1385   1.020   1.003   1.703 -0.1615  2.0007  1.8039
  462SOL    HW2 1386   0.896   1.115   1.743  1.2646 -1.7187  0.9023
  463SOL     OW 1387   0.460   0.870   0.493 -0.2459  0.6747 -0.0635
  463SOL    HW1 1388   0.498   0.790   0.435 -0.9925  0.2127  2.8133
  463SOL    HW2 1389   0.363   0.858   0.519  2.0559  1.9256 -0.7445
  464SOL     OW 1390   0.597   2.332   2.199  0.2609 -0.3734 -0.2104
  464SOL    HW1 1391   0.561   2.399   2.276  0.6217 -1.4096  1.3806
  464SOL    HW2 1392   0.564   2.355   2.100 -1.6718  2.9153 -1.1465
  465SOL     OW 1393   0.257   0.901   0.845  0.0671  0.1408 -0.1808
  465SOL    HW1 1394   0.157   0.927   0.817  1.5327 -0.5231  1.3039
  465SOL    HW2 1395   0.274   0.799   0.821 -1.5618  0.9269 -1.8307
  466SOL     OW 1396   1.377   1.139   1.011 -0.2080  0.3118  0.3693
  466SOL    HW1 1397   1.371   1.232   0.962  0.6348 -1.6974 -0.5286
  466SOL    HW2 1398   1.284   1.095   1.031 -1.4118  2.0117 -0.0610
  467SOL     OW 1399   0.582   0.405   2.472  0.5747  0.4376 -0.0212
  467SOL    HW1 1400   0.544   0.496   2.510  0.1269 -1.6569  0.4160
  467SOL    HW2 1401   0.601   0.342   2.552  0.4150  0.3907  0.7366
  468SOL     OW 1402   0.405   2.260   1.614 -0.3877  0.1901 -0.2317
  468SOL    HW1 1403   0.484   2.304   1.665  0.3228  1.2059 -2.4989
  468SOL    HW2 1404   0.433   2.240   1.513  1.2532 -0.2300  0.0709
  469SOL     OW 1405   1.428   1.303   1.302  0.4596 -0.1854  0.4823
  469SOL    HW1 1406   1.459   1.258   1.218  0.7569  0.1375  1.6023
  469SOL    HW2 1407   1.484   1.397   1.319  1.8242  2.5408 -0.3345
  470SOL     OW 1408   3.013   1.789   0.722  0.2371  0.5778 -0.3381
  470SOL    HW1 1409   3.077   1.863   0.709 -2.2113 -1.6482 -0.0071
  470SOL    HW2 1410   3.053   1.717   0.787 -1.7573  1.7439  0.3501
  471SOL     OW 1411   2.569   1.366   2.163  0.4093  0.0923 -0.2564
  471SOL    HW1 1412   2.550   1.273   2.209  0.4310 -0.7857  0.5633
  471SOL    HW2 1413   2.667   1.397   2.186 -0.8292  1.3488  1.4140
  472SOL     OW 1414   1.147   2.402   0.075  0.2930 -0.4685  0.5714
  472SOL    HW1 1415   1.214   2.387   0.152  1.1234  0.4364 -0.4376
  472SOL    HW2 1416   1.048   2.378   0.102 -1.1227 -3.1233  0.9832
  473SOL     OW 1417   1.105   1.487   1.027  0.1670 -0.1034  0.0759
  473SOL    HW1 1418   1.003   1.474   1.014 -0.3566 -2.0547  2.1804
  473SOL    HW2 1419   1.136   1.441   1.119  0.3643  1.6927 -0.0627
  474SOL     OW 1420   0.666   1.281   0.544  0.1981 -0.5811  0.2135
  474SOL    HW1 1421   0.580   1.232   0.516  2.2594 -0.9757  0.6933
  474SOL    HW2 1422   0.741   1.218   0.583 -1.7163 -1.3675  0.7578
  475SOL     OW 1423   2.806   0.012   0.800  0.6403 -0.0254  0.0845
  475SOL    HW1 1424   2.886   0.079   0.800  3.3278 -1.6265 -3.1282
  475SOL    HW2 1425   2.722   0.049   0.849 -0.6769 -0.2646  0.0537
  476SOL     OW 1426   0.996   3.001   1.769 -0.0306 -0.6725 -0.1832
  476SOL    HW1 1427   1.095   3.036   1.783 -1.8676  1.2279  0.1822
  476SOL    HW2 1428   0.978   2.974   1.670  0.1041 -0.1310  0.1126
  477SOL     OW 1429   1.466   0.320   2.399  0.2808  0.0292  0.4955
  477SOL    HW1 1430   1.455   0.316   2.502 -0.4730 -2.5743  0.7140
  477SOL    HW2 1431   1.551   0.265   2.368 -0.1260  0.6730 -0.0886
  478SOL     OW 1432   2.213   1.868   0.256 -0.0741 -0.2361  0.0277
  478SOL    HW1 1433   2.167   1.775   0.280  0.5521  1.5937 -1.5713
  478SOL    HW2 1434   2.283   1.867   0.181  0.7719 -0.8717 -1.3300
  479SOL     OW 1435   1.251   0.964   2.933  0.3151 -0.2557  0.6508
  479SOL    HW1 1436   1.342   0.970   2.886 -1.0504  1.8243 -2.2491
  479SOL    HW2 1437   1.205   0.875   2.905  0.3598  0.6539 -1.1839
  480SOL     OW 1438   2.658   2.340   0.385 -0.7460  0.3386 -0.2447
  480SOL    HW1 1439   2.630   2.257   0.435 -1.9288 -0.8732 -0.1626
  480SOL    HW2 1440   2.609   2.353   0.296 -1.9233  0.9280  0.7004
  481SOL     OW 1441   1.019   1.205   0.819 -0.7320 -0.6743 -0.3780
  481SOL    HW1 1442   1.042   1.293   0.762 -0.2423  1.4050 -1.5381
  481SOL    HW2 1443   1.046   1.214   0.918 -0.5630  1.1470  1.2221
  482SOL     OW 1444   1.573   0.312   1.990 -0.5085  0.5724 -0.1747
  482SOL    HW1 1445   1.578   0.391   1.921  0.5712  1.3851 -1.3241
  482SOL    HW2 1446   1.663   0.266   2.002 -0.0209  0.2570  0.1633
  483SOL     OW 1447   0.181   2.328   1.234 -0.7190 -0.0359  0.1391
  483SOL    HW1 1448   0.173   2.405   1.303 -2.0767 -1.3704  1.9747
  483SOL    HW2 1449   0.159   2.348   1.137  1.4870 -3.5466  0.6642
  484SOL     OW 1450   1.771   1.077   1.356  0.3692  0.5345  0.4424
  484SOL    HW1 1451   1.825   1.004   1.406 -0.5275 -1.9674  0.4506
  484SOL    HW2 1452   1.779   1.173   1.398 -0.5924  0.5712 -1.1031
  485SOL     OW 1453   0.772   0.748   1.794  0.3686  0.3466 -0.8470
  485SOL    HW1 1454   0.737   0.805   1.715  0.8218 -4.3959 -0.5382
  485SOL    HW2 1455   0.876   0.745   1.793 -0.4822  2.6389 -0.7673
  486SOL     OW 1456   0.836   1.851   2.425  0.3123 -0.1148  0.3934
  486SOL    HW1 1457   0.858   1.839   2.522  2.5478 -0.0279 -0.0235
  486SOL    HW2 1458   0.828   1.953   2.395 -2.3524 -0.0264 -1.8115
  487SOL     OW 1459   1.758   1.583   0.995 -1.0222  0.1526 -0.7686
  487SOL    HW1 1460   1.802   1.492   1.021 -2.9200  0.7431 -1.8398
  487SOL    HW2 1461   1.816   1.634   0.921  1.6681  0.5317 -1.4274
  488SOL     OW 1462   2.991   0.862   2.306 -0.2583  0.1345  0.3525
  488SOL    HW1 1463   3.045   0.773   2.304 -1.0247  1.0721  1.0560
  488SOL    HW2 1464   2.907   0.856   2.364  1.5217  4.2978  0.3833
  489SOL     OW 1465   2.783   0.373   1.241  0.4371  0.3453  0.3480
  489SOL    HW1 1466   2.759   0.373   1.344 -1.6793 -0.4564  0.4981
  489SOL    HW2 1467   2.879   0.333   1.221  0.2915 -0.6649  0.3217
  490SOL     OW 1468   1.437   2.930   2.823 -0.1746  0.6032 -0.4569
  490SOL    HW1 1469   1.473   2.833   2.818 -2.9074 -0.5642  0.8184
  490SOL    HW2 1470   1.422   2.971   2.730 -1.6751  3.4757 -0.5225
  491SOL     OW 1471   1.729   1.488   2.681  0.0781 -0.2310 -0.4212
  491SOL    HW1 1472   1.683   1.459   2.771 -2.3616  0.0689 -0.1591
  491SOL    HW2 1473   1.818   1.545   2.698  2.9577  3.3311  1.3509
  492SOL     OW 1474   0.579   2.073   0.616 -0.2683 -0.0796 -0.1172
  492SOL    HW1 1475   0.599   2.060   0.714 -1.7804  0.3574 -2.7058
  492SOL    HW2 1476   0.528   2.165   0.599 -1.1762  4.4364  0.2025
  493SOL     OW 1477   0.484   1.378   2.086  0.6182  0.1977 -0.0502
  493SOL    HW1 1478   0.385   1.411   2.080  0.9834 -1.0262 -0.6981
  493SOL    HW2 1479   0.481   1.274   2.078 -0.0745 -0.8607 -3.8342
  494SOL     OW 1480   2.700   2.549   0.111  0.0744 -0.0398 -0.1411
  494SOL    HW1 1481   2.727   2.565   0.209 -1.7011 -3.0382 -1.0026
  494SOL    HW2 1482   2.604   2.585   0.088  0.2377 -0.8102  1.2304
  495SOL     OW 1483   2.529   2.799   2.605  0.4797 -0.4719  0.4752
  495SOL    HW1 1484   2.494   2.703   2.597 -2.8806 -1.4097 -0.0940
  495SOL    HW2 1485   2.604   2.814   2.539 -1.0405 -2.6143 -1.5371
  496SOL     OW 1486   2.003   2.305   0.823  0.7738 -0.5448  0.1623
  496SOL    HW1 1487   2.074   2.359   0.877  1.5115  1.1422  0.1575
  496SOL    HW2 1488   2.012   2.206   0.824  0.2072  1.9580  0.1972
  497SOL     OW 1489   0.135   2.996   2.360 -0.6535 -0.0995 -0.2079
  497SOL    HW1 1490   0.112   3.063   2.435  1.3070  0.2006  1.7048
  497SOL    HW2 1491   0.178   3.042   2.282 -0.1552 -1.1952  1.4041
  498SOL     OW 1492   1.168   1.367   1.249  0.5501 -0.9546 -0.1024
  498SOL    HW1 1493   1.266   1.346   1.281 -0.0233  0.6104  1.9989
  498SOL    HW2 1494   1.108   1.389   1.327  0.8736  1.9098  0.0263
  499SOL     OW 1495   0.634   1.776   0.290  0.0878  0.2550 -0.5477
  499SOL    HW1 1496   0.690   1.718   0.224  1.5148 -0.7418  0.8890
  499SOL    HW2 1497   0.699   1.836   0.346 -2.7006 -1.9886 -2.2310
  500SOL     OW 1498   1.467   2.869   1.716 -0.9515  0.5093  0.2585
  500SOL    HW1 1499   1.472   2.866   1.819 -0.1968 -3.6554 -1.2733
  500SOL    HW2 1500   1.499   2.781   1.674 -0.9679 -0.6272 -2.2454
  501SOL     OW 1501   0.794   1.130   2.264 -0.0894  0.3024 -0.9655
  501SOL    HW1 1502   0.701   1.075   2.268  1.2574  3.4105 -0.4951
  501SOL    HW2 1503   0.829   1.143   2.163  0.7900 -1.8041 -3.2059
  502SOL     OW 1504   2.614   0.950   1.777 -0.2006  0.4224  0.4259
  502SOL    HW1 1505   2.618   0.959   1.672  1.7874  0.0816 -2.5154
  502SOL    HW2 1506   2.592   0.855   1.810 -0.1034  0.7172  0.8960
  503SOL     OW 1507   1.297   0.150   0.617  0.2245  0.5913 -0.2168
  503SOL    HW1 1508   1.228   0.223   0.629  1.0125 -1.3782 -0.1938
  503SOL    HW2 1509   1.388   0.176   0.655 -0.9636 -0.9860 -1.0955
  504SOL     OW 1510   3.013   2.334   1.491  0.3526  0.4366  0.0964
  504SOL    HW1 1511   2.968   2.425   1.509 -0.9198 -2.1398 -1.4797
  504SOL    HW2 1512   3.065   2.295   1.570 -0.9016  1.3595  3.2721
  505SOL     OW 1513   2.263   1.166   1.404 -0.5584 -0.2423  0.0070
  505SOL    HW1 1514   2.250   1.185   1.305 -0.7070 -0.1193 -2.5676
  505SOL    HW2 1515   2.351   1.206   1.449  2.1254 -2.0392  1.7499
  506SOL     OW 1516   1.947   0.190   1.819 -0.0713  0.2239 -0.4746
  506SOL    HW1 1517   2.015   0.119   1.790  0.3746  1.7240 -0.4319
  506SOL    HW2 1518   1.986   0.275   1.863  1.8834  0.0065 -0.8636
  507SOL     OW 1519   0.558   0.725   2.201 -0.7137 -0.1623 -0.4084
  507SOL    HW1 1520   0.494   0.653   2.165 -0.5706 -1.8594 -0.4251
  507SOL    HW2 1521   0.658   0.688   2.217  2.6976  0.0270  1.1590
  508SOL     OW 1522   0.332   1.658   0.763  0.1046  0.2565  0.1592
  508SOL    HW1 1523   0.373   1.720   0.691  0.9235 -0.2723  2.1681
  508SOL    HW2 1524   0.299   1.706   0.844  1.6476 -1.3466 -0.5889
  509SOL     OW 1525   1.304   1.191   2.469 -0.2352  0.0178 -0.0358
  509SOL    HW1 1526   1.335   1.166   2.372  0.9729 -2.0195 -0.4514
  509SOL    HW2 1527   1.204   1.166   2.476  1.3346  0.5102 -1.8867
  510SOL     OW 1528   1.305   2.066   2.218 -0.9702 -0.1778 -0.0510
  510SOL    HW1 1529   1.323   2.104   2.122 -0.5018  2.2043 -1.6898
  510SOL    HW2 1530   1.221   1.998   2.226 -1.9128 -0.1054 -0.4378
  511SOL     OW 1531   3.023   2.730   1.256  0.1832 -0.3657 -0.3052
  511SOL    HW1 1532   3.032   2.724   1.155 -1.9298  0.1867 -0.0885
  511SOL    HW2 1533   2.927   2.721   1.289 -2.6314  0.7185 -0.3799
  512SOL     OW 1534   2.378   0.420   1.388  0.2411  0.0972 -0.5149
  512SOL    HW1 1535   2.291   0.460   1.349 -0.4707  3.5078 -1.1017
  512SOL    HW2 1536   2.439   0.390   1.308 -0.4313 -0.7497 -4.0079
  513SOL     OW 1537   2.581   2.154   0.941 -0.2601  0.1438 -0.0866
  513SOL    HW1 1538   2.542   2.231   0.880 -1.4849  3.5242 -0.1366
  513SOL    HW2 1539   2.682   2.145   0.926 -0.7748  0.3280  0.3920
  514SOL     OW 1540   0.671   2.715   0.393 -0.3075  0.0114 -0.5314
  514SOL    HW1 1541   0.663   2.757   0.299 -0.6964  2.5666  2.6102
  514SOL    HW2 1542   0.721   2.775   0.462  0.8906 -1.2176  2.0055
  515SOL     OW 1543   1.922   1.370   2.407 -0.2391  0.0895 -0.0109
  515SOL    HW1 1544   1.936   1.316   2.320  3.4052 -0.0052 -3.3190
  515SOL    HW2 1545   1.836   1.345   2.461 -1.5726  1.8564 -2.3219
  516SOL     OW 1546   0.280   0.299   1.892  0.6881  0.0470  0.1649
  516SOL    HW1 1547   0.366   0.242   1.886 -0.7928  1.2533 -1.3621
  516SOL    HW2 1548   0.190   0.242   1.884 -1.7130  0.5095 -0.1378
  517SOL     OW 1549   0.492   0.168   1.149 -0.4741 -0.6898 -0.2375
  517SOL    HW1 1550   0.549   0.132   1.226 -1.5032 -1.0849 -1.6863
  517SOL    HW2 1551   0.411   0.116   1.139  0.2600  0.9847  0.2097
  518SOL     OW 1552   2.146   3.073   1.790 -0.7082  0.3518 -0.0773
  518SOL    HW1 1553   2.196   3.158   1.809  2.4478  0.4519 -0.6018
  518SOL    HW2 1554   2.163   3.036   1.700  2.0363  0.5723  2.8816
  519SOL     OW 1555   2.336   2.151   2.512 -0.3589  0.0694 -0.0036
  519SOL    HW1 1556   2.275   2.126   2.588 -1.8826 -2.4607 -3.2018
  519SOL    HW2 1557   2.366   2.248   2.517  1.1116  1.9513 -0.0064
  520SOL     OW 1558   1.833   2.750   1.722 -0.7644  0.0749  0.4515
  520SOL    HW1 1559   1.775   2.692   1.784  1.9858 -3.5236 -1.9816
  520SOL    HW2 1560   1.913   2.694   1.680  1.8953 -1.9780 -3.1037
  521SOL     OW 1561   0.556   0.017   2.107 -0.0953 -0.4844  0.1292
  521SOL    HW1 1562   0.458   0.025   2.140  1.1241 -0.0191 -1.1296
  521SOL    HW2 1563   0.629   0.028   2.176  2.4051 -2.2034  0.1893
  522SOL     OW 1564   0.232   1.870   1.476  0.0010 -0.2283  0.4741
  522SOL    HW1 1565   0.246   1.931   1.564 -1.5352  1.9956  1.4304
  522SOL    HW2 1566   0.217   1.935   1.396 -0.9684  0.2032  0.2964
  523SOL     OW 1567   2.176   2.919   1.526  0.6393  0.0483 -0.4331
  523SOL    HW1 1568   2.231   2.837   1.551  0.8952  2.9621  0.9975
  523SOL    HW2 1569   2.082   2.902   1.476  1.4590 -3.0732 -3.0362
  524SOL     OW 1570   0.185   2.778   2.815 -0.2490 -0.3115  0.2723
  524SOL    HW1 1571   0.136   2.864   2.860  0.2103  0.9898 -2.9258
  524SOL    HW2 1572   0.276   2.804   2.771  0.9801 -0.6794 -1.5019
  525SOL     OW 1573   2.151   2.048   0.480  0.9358  0.0117 -0.3751
  525SOL    HW1 1574   2.141   2.003   0.573 -2.7231  0.0433  1.7499
  525SOL    HW2 1575   2.171   1.977   0.405 -0.6096  0.9557 -0.9455
  526SOL     OW 1576   0.403   1.546   1.822 -0.4438  0.2654 -0.1591
  526SOL    HW1 1577   0.488   1.586   1.849 -1.7497 -0.5193  3.2174
  526SOL    HW2 1578   0.401   1.450   1.851  0.3783  3.9463  0.5709
  527SOL     OW 1579   1.055   2.933   1.231 -0.2139 -0.2933 -0.6447
  527SOL    HW1 1580   1.134   2.863   1.242  1.3067 -0.3261 -0.5773
  527SOL    HW2 1581   1.108   3.024   1.213 -0.7804 -1.6099  0.4849
  528SOL     OW 1582   1.366   2.358   0.554  0.1081 -0.5763 -0.3406
  528SOL    HW1 1583   1.407   2.266   0.568 -0.2483  0.9105 -0.6151
  528SOL    HW2 1584   1.410   2.432   0.622  2.5803  1.3456  0.9859
  529SOL     OW 1585   1.889   1.727   0.820  0.0379 -0.1949 -0.0265
  529SOL    HW1 1586   1.851   1.715   0.728  2.7690 -0.3619  0.3119
  529SOL    HW2 1587   1.909   1.825   0.845  1.2784  0.3710 -0.6796
  530SOL     OW 1588   0.450   2.506   0.163  0.3035  0.7727 -0.4197
  530SOL    HW1 1589   0.484   2.467   0.256 -0.0955  0.8696 -2.0607
  530SOL    HW2 1590   0.434   2.435   0.090  1.9673  1.7815 -0.0741
  531SOL     OW 1591   1.846   1.002   1.072 -0.3586 -0.7039 -0.0459
  531SOL    HW1 1592   1.783   0.987   0.996 -1.7777 -2.0987  0.6110
  531SOL    HW2 1593   1.798   0.990   1.161  2.8507  0.1512 -0.5836
  532SOL     OW 1594   0.308   1.232   0.709 -0.5177  0.2057 -0.0962
  532SOL    HW1 1595   0.348   1.195   0.624 -1.8462  2.4444  0.6380
  532SOL    HW2 1596   0.281   1.158   0.775 -0.9753  1.4782  1.7045
  533SOL     OW 1597   1.808   0.033   2.527 -0.6955 -0.0760  0.4550
  533SOL    HW1 1598   1.902   0.002   2.555  1.2887 -0.1742  0.6505
  533SOL    HW2 1599   1.764   0.102   2.586 -0.4480 -0.9391 -2.6350
  534SOL     OW 1600   0.206   0.183   1.524 -0.1601  0.4830  0.2338
  534SOL    HW1 1601   0.287   0.231   1.478 -3.0549  1.8573 -3.1788
  534SOL    HW2 1602   0.124   0.250   1.547 -0.3134  0.2039 -0.0429
  535SOL     OW 1603   1.849   0.316   0.211 -0.4002 -0.2904  0.6068
  535SOL    HW1 1604   1.918   0.382   0.263 -0.5739 -0.6530  1.5209
  535SOL    HW2 1605   1.771   0.278   0.266 -2.9963 -2.1993 -1.6552
  536SOL     OW 1606   1.254   2.624   0.925  1.0708  0.1132  0.1401
  536SOL    HW1 1607   1.214   2.567   1.003  3.7511  1.6493  1.5052
  536SOL    HW2 1608   1.187   2.636   0.847 -1.2055 -2.4098 -0.8392
  537SOL     OW 1609   0.911   0.212   2.368 -0.1494 -0.1351  0.1735
  537SOL    HW1 1610   0.940   0.235   2.272  0.7158  3.8963 -0.3909
  537SOL    HW2 1611   0.846   0.133   2.370  0.0302 -1.0441  0.7698
  538SOL     OW 1612   1.674   2.359   1.522 -0.0533 -0.6370 -0.1028
  538SOL    HW1 1613   1.636   2.279   1.464 -0.6568  2.3174 -1.7405
  538SOL    HW2 1614   1.754   2.408   1.481 -3.7687  1.4844 -1.8191
  539SOL     OW 1615   0.186   1.614   2.705  0.6887 -0.6740 -0.1663
  539SOL    HW1 1616   0.098   1.602   2.642 -3.4526 -0.6725 -1.4677
  539SOL    HW2 1617   0.197   1.711   2.743 -2.3509  2.6507  0.1699
  540SOL     OW 1618   2.711   1.698   2.003 -0.0090  0.0462 -0.3983
  540SOL    HW1 1619   2.637   1.636   1.959  1.2507  2.1763  0.9610
  540SOL    HW2 1620   2.686   1.801   2.011  1.0461 -2.8188 -0.9568
  541SOL     OW 1621   0.441   2.318   3.084 -0.1359  0.6729  0.2335
  541SOL    HW1 1622   0.501   2.239   3.097 -1.8517  0.0868 -1.5086
  541SOL    HW2 1623   0.346   2.293   3.043 -2.1516 -1.2343 -2.6760
  542SOL     OW 1624   2.225   2.585   0.482  0.5332 -0.1960 -0.0694
  542SOL    HW1 1625   2.212   2.683   0.446  1.7453 -1.7383 -0.0719
  542SOL    HW2 1626   2.142   2.521   0.480 -1.9953 -1.8446  0.6721
  543SOL     OW 1627   0.988   1.798   1.711  0.1580 -0.1199  0.2049
  543SOL    HW1 1628   1.003   1.822   1.810 -2.0889 -0.9929 -1.8138
  543SOL    HW2 1629   0.925   1.862   1.658 -0.0057  1.6055 -0.5671
  544SOL     OW 1630   0.909   0.415   0.229  0.3176  0.1985  0.4458
  544SOL    HW1 1631   0.966   0.377   0.308  2.1243  0.8746  0.6193
  544SOL    HW2 1632   0.961   0.420   0.139 -0.4776 -1.5691 -0.9635
  545SOL     OW 1633   1.151   1.713   0.604 -0.6756  0.3996  0.0476
  545SOL    HW1 1634   1.239   1.724   0.657 -0.0718  0.8205 -0.6588
  545SOL    HW2 1635   1.151   1.754   0.510 -0.5077  0.5039 -1.2510
  546SOL     OW 1636   2.659   1.543   0.025 -0.6536 -0.0713 -0.2757
  546SOL    HW1 1637   2.646   1.509  -0.077 -0.2985 -0.2168  0.2475
  546SOL    HW2 1638   2.593   1.500   0.091  2.7966 -0.7075  2.9633
  547SOL     OW 1639   0.536   0.033   2.782 -0.0494 -0.2904 -0.4008
  547SOL    HW1 1640   0.602  -0.028   2.730 -0.6498 -1.1417 -1.4842
  547SOL    HW2 1641   0.515  -0.024   2.872  1.8079 -1.0393  4.3937
  548SOL     OW 1642   2.096   0.834   3.033 -0.1247 -0.7920 -0.0181
  548SOL    HW1 1643   2.008   0.784   3.044  0.5564  0.3498 -1.7740
  548SOL    HW2 1644   2.094   0.934   3.062 -1.4325  1.6637  0.0381
  549SOL     OW 1645   0.614   0.435   0.171 -0.1275  0.5463  0.6401
  549SOL    HW1 1646   0.589   0.502   0.095  0.3815 -0.4351 -0.8179
  549SOL    HW2 1647   0.710   0.435   0.203 -0.4644  1.9524 -4.9701
  550SOL     OW 1648   2.566   2.875   2.875  0.1049 -0.4119 -0.4881
  550SOL    HW1 1649   2.560   2.796   2.944  0.5702  1.5436 -0.7018
  550SOL    HW2 1650   2.586   2.843   2.771 -0.9706  1.5017 -2.0135
  551SOL     OW 1651   0.250   0.889   0.154  0.3303  0.9571  0.3853
  551SOL    HW1 1652   0.322   0.817   0.142  1.1446 -1.2697  0.9315
  551SOL    HW2 1653   0.249   0.928   0.251  0.3815  1.8313  0.1180
  552SOL     OW 1654   0.779   2.811   1.901 -0.6423  0.3961 -0.7237
  552SOL    HW1 1655   0.763   2.809   2.001  1.7446 -0.5405 -1.3535
  552SOL    HW2 1656   0.836   2.893   1.878  3.7703  2.1072  0.2870
  553SOL     OW 1657   3.062   2.546   0.364  0.3221 -0.2229 -0.3953
  553SOL    HW1 1658   3.015   2.456   0.347 -2.8613  0.0299  2.4620
  553SOL    HW2 1659   3.013   2.606   0.431 -1.4175 -1.4571 -0.7178
  554SOL     OW 1660   2.203   0.295   0.559  0.5213  0.4446 -0.0216
  554SOL    HW1 1661   2.236   0.267   0.467  1.8032 -0.4288 -0.8981
  554SOL    HW2 1662   2.196   0.214   0.627  0.2057  0.2942 -0.9645
  555SOL     OW 1663   0.410   2.918   2.429  0.1198 -0.0104 -0.0318
  555SOL    HW1 1664   0.309   2.935   2.416  1.3743 -3.4962 -0.5220
  555SOL    HW2 1665   0.453   2.899   2.337 -2.7059 -0.3771  0.6086
  556SOL     OW 1666   0.898   2.324   1.680  0.5134  1.2189  0.3472
  556SOL    HW1 1667   0.919   2.410   1.733 -1.5102 -0.6229  3.3356
  556SOL    HW2 1668   0.947   2.318   1.588  1.4987  3.9513  1.3054
  557SOL     OW 1669   0.139   2.105   0.119 -0.3266 -0.3068 -0.2642
  557SOL    HW1 1670   0.050   2.052   0.111 -1.9145  3.0546 -2.6091
  557SOL    HW2 1671   0.152   2.175   0.045  0.2510  2.5779  0.3557
  558SOL     OW 1672   2.973   2.278   0.323 -0.1341 -0.0652 -0.2801
  558SOL    HW1 1673   2.875   2.267   0.358  1.1451 -1.6675  1.6443
  558SOL    HW2 1674   2.972   2.264   0.220 -2.6149 -1.2374 -1.5724
  559SOL     OW 1675   0.428   2.240   1.347 -0.3699  1.0279  0.2238
  559SOL    HW1 1676   0.345   2.241   1.287  2.1741  0.9022  0.8878
  559SOL    HW2 1677   0.500   2.173   1.313  0.8979  0.6596  0.4536
  560SOL     OW 1678   2.092   1.126   3.098  0.0688  0.3450 -0.1501
  560SOL    HW1 1679   2.001   1.137   3.050 -0.2296 -1.8169  1.4019
  560SOL    HW2 1680   2.124   1.209   3.147  2.7421  0.2602 -2.7454
  561SOL     OW 1681   3.045   1.948   0.010 -0.6265  0.1013  0.1147
  561SOL    HW1 1682   2.957   1.907   0.029 -1.0583  0.8769 -0.7784
  561SOL    HW2 1683   3.036   2.028  -0.050 -2.2615 -3.4393  0.7271
  562SOL     OW 1684   0.893   2.157   2.357 -0.0787 -0.4148 -0.5768
  562SOL    HW1 1685   0.790   2.166   2.343  2.3370  0.4857  0.3194
  562SOL    HW2 1686   0.911   2.170   2.461 -0.0158 -0.2859  2.9217
  563SOL     OW 1687   0.678   2.477   2.599  0.1473 -1.0712  0.2554
  563SOL    HW1 1688   0.728   2.392   2.611  1.8094  0.0808 -0.6162
  563SOL    HW2 1689   0.686   2.535   2.684  0.5917 -0.5320 -1.4898
  564SOL     OW 1690   2.717   1.304   2.847  0.3101  0.2637  0.0021
  564SOL    HW1 1691   2.637   1.290   2.912  0.1600  0.5008  0.5770
  564SOL    HW2 1692   2.754   1.399   2.837  3.9591 -2.9120 -0.1489
  565SOL     OW 1693   2.525   1.971   2.566  0.0353  0.3306  0.1392
  565SOL    HW1 1694   2.446   2.032   2.538 -2.3836 -0.9479  0.6809
  565SOL    HW2 1695   2.564   2.004   2.656  1.0851 -1.7737 -0.1184
  566SOL     OW 1696   1.958   2.864   1.329  0.2201  0.1352  0.1987
  566SOL    HW1 1697   1.946   2.769   1.289  0.6471  1.7154  0.1057
  566SOL    HW2 1698   2.005   2.931   1.262 -0.0789 -0.3109 -0.8163
  567SOL     OW 1699   2.420   0.116   2.200 -0.0850 -0.2166 -0.2326
  567SOL    HW1 1700   2.465   0.139   2.110 -0.3610 -0.9369 -0.0100
  567SOL    HW2 1701   2.316   0.138   2.199 -4.2014 -1.2243 -0.2428
  568SOL     OW 1702   1.504   1.826   0.347  0.4167 -0.4764 -0.5261
  568SOL    HW1 1703   1.446   1.894   0.285  0.1225  3.2079 -2.1111
  568SOL    HW2 1704   1.604   1.839   0.342  1.2160  0.5823  0.3249
  569SOL     OW 1705   0.278   0.622   0.790  0.4410 -0.0480  0.0165
  569SOL    HW1 1706   0.324   0.537   0.769 -0.6805  0.6368 -1.4833
  569SOL    HW2 1707   0.183   0.598   0.813  0.7369 -0.6304  1.8744
  570SOL     OW 1708   0.631   0.778   2.840 -0.0178  0.2113  0.1446
  570SOL    HW1 1709   0.696   0.767   2.759 -1.2049 -0.4917 -0.8091
  570SOL    HW2 1710   0.639   0.871   2.880  1.6983  1.3407 -1.4058
  571SOL     OW 1711   0.842   3.065   1.119  0.2637  0.0808  0.4666
  571SOL    HW1 1712   0.876   3.097   1.026  1.3259  0.0746  1.8940
  571SOL    HW2 1713   0.920   3.017   1.170  1.9189  1.8834 -0.2505
  572SOL     OW 1714   1.556   2.627   1.171  0.1497  0.2065  0.3481
  572SOL    HW1 1715   1.504   2.557   1.226 -1.1945  0.8314 -2.0650
  572SOL    HW2 1716   1.494   2.700   1.133  1.4596 -0.7929  0.5310
  573SOL     OW 1717   2.947   0.432   2.076 -0.1322  0.5611 -0.3619
  573SOL    HW1 1718   2.901   0.342   2.079  2.4175  1.0852  1.2603
  573SOL    HW2 1719   2.893   0.505   2.020  0.8378 -0.0263  0.2699
  574SOL     OW 1720   0.215   1.785   1.003 -0.1440  0.1312  0.0006
  574SOL    HW1 1721   0.201   1.886   0.997  0.3748 -0.2828  1.7741
  574SOL    HW2 1722   0.149   1.746   1.072 -2.7005  1.4285 -0.2915
  575SOL     OW 1723   0.836   2.160   0.977 -0.8204  0.1987 -0.0876
  575SOL    HW1 1724   0.859   2.176   1.078  0.3463  0.9977 -0.3499
  575SOL    HW2 1725   0.891   2.226   0.916 -0.0548 -0.8436 -0.8409
  576SOL     OW 1726   2.925   2.901   1.718  0.5269  0.1185 -0.0045
  576SOL    HW1 1727   2.874   2.848   1.643 -2.3098 -1.7598 -0.7008
  576SOL    HW2 1728   2.945   2.997   1.688 -0.3857  2.4156 -0.6155
  577SOL     OW 1729   2.555   1.248   3.082 -0.1663 -0.0724 -0.0932
  577SOL    HW1 1730   2.563   1.150   3.047  0.7119 -3.4616  0.9843
  577SOL    HW2 1731   2.616   1.268   3.163 -0.0617  0.1000  0.4519
  578SOL     OW 1732   1.317   2.694   2.572  0.4965  0.3640  0.9486
  578SOL    HW1 1733   1.264   2.692   2.480  1.1571  0.1173 -0.4289
  578SOL    HW2 1734   1.339   2.796   2.590  2.1799 -2.1021 -1.9265
  579SOL     OW 1735   0.121   2.491   0.152 -0.0080  0.4338 -0.8692
  579SOL    HW1 1736   0.064   2.515   0.239 -0.5223 -2.1149  0.9998
  579SOL    HW2 1737   0.195   2.422   0.169 -0.2524  0.4620 -2.1402
  580SOL     OW 1738   1.017   2.661   0.389  0.0037 -0.4681  0.2069
  580SOL    HW1 1739   1.117   2.675   0.358  0.0905 -1.0299 -1.2268
  580SOL    HW2 1740   0.955   2.618   0.313 -0.3401  0.6579 -2.0284
  581SOL     OW 1741   1.234   2.636   1.512  0.3283 -0.1375  0.9939
  581SOL    HW1 1742   1.309   2.569   1.492  0.9794  2.2380  1.0246
  581SOL    HW2 1743   1.237   2.722   1.454  2.3973 -2.2301 -1.1852
  582SOL     OW 1744   1.503   0.077   1.851  0.0294  0.0311 -0.0362
  582SOL    HW1 1745   1.532   0.155   1.914  0.9499 -0.3436  1.5772
  582SOL    HW2 1746   1.581   0.063   1.780 -0.9931  1.3500  0.8731
  583SOL     OW 1747   2.473   2.980   0.550  0.4374 -0.2637 -0.3242
  583SOL    HW1 1748   2.506   2.904   0.488  0.0009 -0.1327  0.8344
  583SOL    HW2 1749   2.429   2.931   0.637  0.2275 -0.8871  0.1632
  584SOL     OW 1750   1.603   1.018   2.128  0.3621  0.6151 -0.5765
  584SOL    HW1 1751   1.651   1.062   2.048 -0.0932  0.6832 -1.5061
  584SOL    HW2 1752   1.667   0.964   2.194  0.5493 -4.1086 -1.3596
  585SOL     OW 1753   2.082   2.629   2.875  0.3529 -0.3763 -0.5906
  585SOL    HW1 1754   2.113   2.524   2.860  1.7534 -0.1823  2.4910
  585SOL    HW2 1755   1.977   2.641   2.874 -0.2737 -0.6980 -1.0874
  586SOL     OW 1756   2.741   0.252   1.543 -0.5559 -0.4715 -0.8714
  586SOL    HW1 1757   2.782   0.318   1.613  4.7436  0.6869  0.0072
  586SOL    HW2 1758   2.639   0.242   1.555  1.8257 -1.7620 -1.6585
  587SOL     OW 1759   1.965   1.630   2.730 -0.0641 -0.6107 -0.0907
  587SOL    HW1 1760   2.040   1.568   2.685 -1.6370 -0.7546 -0.0590
  587SOL    HW2 1761   2.000   1.694   2.806  2.0041  2.5524 -0.1351
  588SOL     OW 1762   0.499   2.713   2.218  0.5198  0.6496 -0.3849
  588SOL    HW1 1763   0.410   2.692   2.172  1.8472  0.1607 -0.5160
  588SOL    HW2 1764   0.525   2.635   2.282  0.3118 -3.3327 -2.4510
  589SOL     OW 1765   2.113   1.450   2.591 -0.3172  0.1280  0.1275
  589SOL    HW1 1766   2.042   1.434   2.512  0.4377  1.0008 -0.3954
  589SOL    HW2 1767   2.185   1.376   2.591 -1.6742 -0.7161 -2.3900
  590SOL     OW 1768   2.357   1.690   1.998 -0.2602 -0.2318  0.1438
  590SOL    HW1 1769   2.422   1.611   2.024  0.8515 -0.7246  1.7416
  590SOL    HW2 1770   2.353   1.766   2.069  0.0137 -1.3508  0.3522
  591SOL     OW 1771   1.387   2.433   0.291 -0.2153 -0.3297 -0.5276
  591SOL    HW1 1772   1.484   2.411   0.256 -0.0731 -0.0658 -0.9212
  591SOL    HW2 1773   1.379   2.414   0.396  0.1059  0.0508  1.1449
  592SOL     OW 1774   1.724   2.336   0.768 -0.0413  0.5134 -0.0665
  592SOL    HW1 1775   1.709   2.370   0.674  1.2243  0.2912  2.0518
  592SOL    HW2 1776   1.827   2.328   0.791  2.5134  0.2405  0.4085
  593SOL     OW 1777   0.653   0.168   0.054 -0.1895  0.9137  0.0138
  593SOL    HW1 1778   0.744   0.152   0.002 -0.0864 -0.2981  4.7466
  593SOL    HW2 1779   0.645   0.275   0.078  2.0542  2.6420  0.2885
  594SOL     OW 1780   0.920   1.932   2.683  0.0708 -0.4468  0.1279
  594SOL    HW1 1781   1.019   1.948   2.707 -0.1778 -1.1797 -0.6357
  594SOL    HW2 1782   0.852   1.980   2.747  1.3152  1.4451  1.6317
  595SOL     OW 1783   1.530   0.039   1.052  0.2084  0.3907 -0.9403
  595SOL    HW1 1784   1.623  -0.005   1.039  2.8238 -0.1342 -1.1512
  595SOL    HW2 1785   1.457   0.005   0.990 -1.2543 -1.1321  0.7280
  596SOL     OW 1786   3.101   1.423   2.238 -0.4965  0.4205 -0.4989
  596SOL    HW1 1787   3.003   1.452   2.239  3.2776 -1.7720  1.1645
  596SOL    HW2 1788   3.129   1.377   2.324 -2.1323  1.6140  2.3463
  597SOL     OW 1789   2.063   2.597   1.619  0.2473 -0.1134 -0.2069
  597SOL    HW1 1790   2.056   2.525   1.541 -1.8573  1.8216  1.8326
  597SOL    HW2 1791   2.146   2.586   1.677 -2.5880 -1.5007 -2.1153
  598SOL     OW 1792   2.496   2.929   1.347 -0.4465  0.4610  0.8912
  598SOL    HW1 1793   2.583   2.960   1.389 -3.5233  1.3739  1.0772
  598SOL    HW2 1794   2.508   2.871   1.264  0.9886 -1.4692  2.5042
  599SOL     OW 1795   2.899   0.377   2.464  0.0955 -0.1441 -0.1826
  599SOL    HW1 1796   2.977   0.439   2.428 -1.5915  2.1483 -1.1830
  599SOL    HW2 1797   2.810   0.389   2.415 -0.2148 -2.0401  1.8946
  600SOL     OW 1798   2.810   1.105   2.698 -0.4276  1.0346 -0.5941
  600SOL    HW1 1799   2.772   1.011   2.726  0.4039  3.6510 -2.0964
  600SOL    HW2 1800   2.762   1.181   2.755  0.4546 -0.7389  0.6241
  601SOL     OW 1801   3.007   1.239   2.019  1.0116 -0.1153 -0.2744
  601SOL    HW1 1802   2.947   1.292   1.947  0.0018  0.6945 -0.2485
  601SOL    HW2 1803   3.065   1.298   2.080  2.3581 -0.7389  2.2867
  602SOL     OW 1804   1.489   1.711   2.350 -0.2775 -0.0488  0.2825
  602SOL    HW1 1805   1.422   1.634   2.344 -1.6495 -2.1801 -2.7516
  602SOL    HW2 1806   1.585   1.681   2.363 -1.0608 -0.8213  1.2896
  603SOL     OW 1807   0.643   1.246   2.705 -0.0025  0.1398  0.0055
  603SOL    HW1 1808   0.574   1.230   2.630  1.8095 -0.6822 -1.2452
  603SOL    HW2 1809   0.724   1.177   2.691  0.4782  1.9923 -1.5165
  604SOL     OW 1810   2.409   0.967   0.144 -0.1281  0.2397 -0.2800
  604SOL    HW1 1811   2.479   1.042   0.127 -0.0080 -0.4991  3.1816
  604SOL    HW2 1812   2.406   0.903   0.067 -0.1047  1.3766 -1.0845
  605SOL     OW 1813   2.683   1.159   1.951 -0.5153 -0.0419 -0.5117
  605SOL    HW1 1814   2.657   1.078   1.886 -0.0748 -2.0614 -2.2258
  605SOL    HW2 1815   2.638   1.148   2.043 -0.5130 -2.2533  2.6179
  606SOL     OW 1816   1.519   2.527   2.627 -0.4869 -0.5551  0.2139
  606SOL    HW1 1817   1.470   2.615   2.613 -0.8540 -1.3063 -0.7262
  606SOL    HW2 1818   1.475   2.447   2.573  0.1959  0.7949 -1.1480
  607SOL     OW 1819   1.380   1.581   0.390  0.5381 -0.0644 -0.5815
  607SOL    HW1 1820   1.333   1.613   0.480 -1.7800  0.2004  0.9810
  607SOL    HW2 1821   1.449   1.651   0.357  0.7270 -1.0611 -1.2809
  608SOL     OW 1822   1.441   2.837   0.438  0.6433 -0.4575 -0.4004
  608SOL    HW1 1823   1.511   2.897   0.384 -1.1012 -1.0484 -1.5274
  608SOL    HW2 1824   1.362   2.896   0.474  0.3819 -0.3051 -2.8481
  609SOL     OW 1825   1.290   1.365   0.281 -0.0872  0.0583 -0.0846
  609SOL    HW1 1826   1.325   1.454   0.319  0.3715  1.0743  2.0077
  609SOL    HW2 1827   1.189   1.354   0.306  0.2793  0.0758 -2.2068
  610SOL     OW 1828   2.965   1.120   2.252  0.0103  0.3014  0.1456
  610SOL    HW1 1829   2.969   1.015   2.265 -0.8522 -1.5748  0.3660
  610SOL    HW2 1830   3.002   1.154   2.161  0.8819 -0.3258 -0.5078
  611SOL     OW 1831   2.518   0.295   1.149  0.1856  0.3945  0.2769
  611SOL    HW1 1832   2.472   0.213   1.193  0.5875 -0.0407  1.2729
  611SOL    HW2 1833   2.618   0.306   1.169 -1.0079  0.1316 -0.2497
  612SOL     OW 1834   0.811   2.233   1.256  0.5249 -0.0944 -0.1744
  612SOL    HW1 1835   0.746   2.158   1.283  0.6866  1.4107 -0.5345
  612SOL    HW2 1836   0.757   2.311   1.209 -1.3840  0.0624  2.0288
  613SOL     OW 1837   0.871   1.464   2.397 -0.5206 -0.2397  0.0542
  613SOL    HW1 1838   0.925   1.488   2.313 -0.1752 -0.6795  0.8252
  613SOL    HW2 1839   0.773   1.440   2.378 -1.0970 -2.8724 -0.0692
  614SOL     OW 1840   1.660   1.607   1.872 -0.1185 -0.2673  0.2744
  614SOL    HW1 1841   1.665   1.711   1.875 -1.6343 -0.6081  0.6338
  614SOL    HW2 1842   1.723   1.563   1.940  0.0701  0.4077  1.4122
  615SOL     OW 1843   0.834   1.267   1.685 -0.6831  0.1149  0.3732
  615SOL    HW1 1844   0.737   1.272   1.644  1.4270 -0.9909  0.1281
  615SOL    HW2 1845   0.872   1.362   1.699 -4.0246 -2.9429 -0.9439
  616SOL     OW 1846   1.096   1.604   2.231 -0.5933  0.3340  0.7966
  616SOL    HW1 1847   1.009   1.586   2.178  2.6322  0.1243 -0.5018
  616SOL    HW2 1848   1.107   1.706   2.249 -1.3246 -2.0274 -2.4564
  617SOL     OW 1849   2.917   1.527   1.603 -0.1665 -0.3917  0.0849
  617SOL    HW1 1850   2.930   1.467   1.684  1.0982  2.8558 -0.4768
  617SOL    HW2 1851   2.991   1.521   1.533  0.6937  3.0704 -1.2304
  618SOL     OW 1852   1.894   2.089   1.354 -0.0063 -0.3519 -0.4631
  618SOL    HW1 1853   1.882   2.156   1.275 -1.6902  2.8918  0.9793
  618SOL    HW2 1854   1.896   1.991   1.315 -0.2166  1.1546  1.9983
  619SOL     OW 1855   1.754   0.496   2.385 -0.2550  0.5881 -0.0733
  619SOL    HW1 1856   1.682   0.560   2.343 -1.9327  3.0021  1.3602
  619SOL    HW2 1857   1.714   0.399   2.381 -1.0214  0.1090  0.7146
  620SOL     OW 1858   2.310   2.909   0.773  0.0521  0.5925 -0.1480
  620SOL    HW1 1859   2.211   2.936   0.765  3.0668 -0.0797 -1.0750
  620SOL    HW2 1860   2.328   2.825   0.835  0.7166 -0.4012  1.7123
  621SOL     OW 1861   2.150   1.811   1.339 -0.1404  0.4774 -0.6451
  621SOL    HW1 1862   2.148   1.829   1.440  2.4921 -2.0443 -0.2785
  621SOL    HW2 1863   2.087   1.729   1.313  0.4391 -0.4445 -0.5753
  622SOL     OW 1864   2.268   0.919   1.835 -0.1505 -0.1280 -0.2704
  622SOL    HW1 1865   2.363   0.903   1.794 -1.4324 -0.4716 -0.3652
  622SOL    HW2 1866   2.242   0.835   1.884  0.7704 -1.1582 -0.2253
  623SOL     OW 1867   1.345   0.801   2.406 -0.1173 -0.0426  0.2011
  623SOL    HW1 1868   1.256   0.746   2.432 -0.0998 -3.4800 -0.8532
  623SOL    HW2 1869   1.318   0.885   2.344  1.1125  2.2261 -1.8124
  624SOL     OW 1870   0.560   0.671   3.088  0.5897  0.2608  0.6509
  624SOL    HW1 1871   0.594   0.704   2.994  1.3957  1.6182 -1.6949
  624SOL    HW2 1872   0.570   0.746   3.161 -0.8783  3.4221 -1.7197
  625SOL     OW 1873   2.783   1.739   0.999  0.0681  0.2134 -0.0543
  625SOL    HW1 1874   2.694   1.793   0.997 -1.3675  1.7144 -1.8690
  625SOL    HW2 1875   2.863   1.801   1.028  1.1684  0.0206 -1.0291
  626SOL     OW 1876   0.617   2.677   1.706 -0.1828  0.3176  0.2304
  626SOL    HW1 1877   0.655   2.745   1.778  2.4683  1.0947 -1.3711
  626SOL    HW2 1878   0.513   2.667   1.720  1.2955  0.7837  1.1694
  627SOL     OW 1879   0.676   0.916   1.578  0.6474  0.8496  0.2633
  627SOL    HW1 1880   0.601   0.868   1.534  0.7200 -2.1995 -0.2639
  627SOL    HW2 1881   0.737   0.962   1.508 -1.7736  0.4728 -0.7515
  628SOL     OW 1882   2.487   0.177   0.677  0.4348 -0.3459 -0.4005
  628SOL    HW1 1883   2.470   0.141   0.580 -0.5336  0.7238 -1.8486
  628SOL    HW2 1884   2.400   0.172   0.729  2.9995 -1.7794 -1.4612
  629SOL     OW 1885   1.904   0.922   2.034  0.0609  0.1987  0.8773
  629SOL    HW1 1886   1.917   0.987   1.951 -0.4022  0.3843  0.6939
  629SOL    HW2 1887   1.888   0.964   2.125  1.9296  0.3267  1.0133
  630SOL     OW 1888   2.945   2.333   0.795  0.0842  0.1493  0.2785
  630SOL    HW1 1889   2.867   2.400   0.781 -0.2386  0.0612  0.5944
  630SOL    HW2 1890   2.911   2.234   0.772  0.4280 -2.2350  1.2947
  631SOL     OW 1891   3.088   0.164   2.190  0.4052 -0.1920  0.0686
  631SOL    HW1 1892   3.039   0.200   2.274 -1.8738  1.0470  1.7816
  631SOL    HW2 1893   3.080   0.231   2.111 -0.8087 -0.7924  1.1373
  632SOL     OW 1894   2.465   2.599   0.629  0.0796  0.1051  0.4750
  632SOL    HW1 1895   2.499   2.683   0.670  0.0557  0.3742 -0.2202
  632SOL    HW2 1896   2.380   2.609   0.570 -0.2746  1.3789 -0.0021
  633SOL     OW 1897   1.474   1.196   2.676 -0.2747  0.0155  0.2564
  633SOL    HW1 1898   1.446   1.286   2.725 -0.4205 -1.0524  0.1492
  633SOL    HW2 1899   1.400   1.179   2.597  0.4353 -1.3861 -0.8958
  634SOL     OW 1900   0.626   2.003   0.905 -0.1684 -0.3290 -0.1135
  634SOL    HW1 1901   0.535   2.026   0.947 -1.3189 -1.0384 -1.7004
  634SOL    HW2 1902   0.711   2.050   0.943 -0.6964 -0.1171 -0.1811
  635SOL     OW 1903   2.993   2.358   0.063 -0.2720 -0.1298  0.0469
  635SOL    HW1 1904   2.920   2.420   0.022 -0.2014 -2.1918  1.8970
  635SOL    HW2 1905   3.082   2.404   0.097  0.7687 -1.8123 -0.5882
  636SOL     OW 1906   2.360   2.765   1.974 -0.1198  0.0866 -0.7093
  636SOL    HW1 1907   2.350   2.865   1.976  0.6597 -2.5166 -2.3542
  636SOL    HW2 1908   2.296   2.726   2.047  0.4439  0.6482  0.9773
  637SOL     OW 1909   2.768   0.630   1.975 -0.0496  0.1566 -0.2476
  637SOL    HW1 1910   2.699   0.637   1.900 -1.3587  0.5771  1.0363
  637SOL    HW2 1911   2.816   0.719   2.002 -2.0613 -3.8204 -0.5829
  638SOL     OW 1912   2.401   1.839   1.323 -0.4210 -0.1303  0.3820
  638SOL    HW1 1913   2.301   1.809   1.316 -1.2085 -1.0744 -2.5135
  638SOL    HW2 1914   2.459   1.769   1.371  1.1978  1.8390 -1.3522
  639SOL     OW 1915   1.302   2.197   1.713 -0.3624 -0.2576  0.0486
  639SOL    HW1 1916   1.307   2.298   1.702  1.7920  0.8814  1.1321
  639SOL    HW2 1917   1.220   2.166   1.771 -0.8954 -0.1097  4.3978
  640SOL     OW 1918   0.210   1.192   1.538  0.5209 -0.0198  0.1932
  640SOL    HW1 1919   0.218   1.215   1.643 -0.3321 -0.2399  2.7848
  640SOL    HW2 1920   0.260   1.105   1.502 -0.4459 -3.7273 -1.1358
  641SOL     OW 1921   2.008   0.270   1.434  0.9795 -0.0892 -0.2635
  641SOL    HW1 1922   1.983   0.320   1.521  2.5203  2.6212  1.4224
  641SOL    HW2 1923   2.085   0.197   1.447  1.1301 -0.5610 -0.2407
  642SOL     OW 1924   2.023   0.083   0.363 -0.2167 -0.1558 -0.8448
  642SOL    HW1 1925   2.120   0.109   0.385  0.1273 -2.2590  0.7999
  642SOL    HW2 1926   1.958   0.086   0.442  1.2675  0.6189 -0.5919
  643SOL     OW 1927   2.916   1.808   2.163 -0.2417 -0.5991  0.0306
  643SOL    HW1 1928   2.861   1.759   2.089  1.2074 -0.3371 -0.3305
  643SOL    HW2 1929   2.931   1.910   2.145  1.1292  0.1961  0.6045
  644SOL     OW 1930   2.300   2.408   1.215 -0.0169 -0.2714 -0.1301
  644SOL    HW1 1931   2.328   2.318   1.179 -2.7321  1.0314 -1.5166
  644SOL    HW2 1932   2.249   2.400   1.303 -0.5587  0.6985  1.3722
  645SOL     OW 1933   0.579   0.835   1.288 -0.0698  0.2393  0.4849
  645SOL    HW1 1934   0.479   0.806   1.295 -3.2940 -0.8087 -0.1587
  645SOL    HW2 1935   0.600   0.841   1.187  0.3447  2.2276 -1.2819
  646SOL     OW 1936   1.474   1.825   2.037 -0.3490  0.2637 -0.3516
  646SOL    HW1 1937   1.550   1.865   1.977 -0.6193  0.7972  1.6027
  646SOL    HW2 1938   1.488   1.837   2.139 -3.5018 -0.3533  0.2293
  647SOL     OW 1939   0.847   1.100   0.640 -0.8005 -0.0766  0.3648
  647SOL    HW1 1940   0.915   1.140   0.710  0.0602  1.6035 -1.9925
  647SOL    HW2 1941   0.802   1.011   0.675 -0.8004 -0.0932  1.6871
  648SOL     OW 1942   0.140   0.258   0.263 -0.3003 -0.7745 -0.6359
  648SOL    HW1 1943   0.144   0.176   0.198  0.2199  0.7316 -0.2989
  648SOL    HW2 1944   0.122   0.352   0.221  0.0367  0.5986 -1.4672
  649SOL     OW 1945   3.024   0.199   0.827 -0.1879  0.2294  0.5147
  649SOL    HW1 1946   3.099   0.138   0.865  0.1037  3.3280  1.4519
  649SOL    HW2 1947   3.065   0.286   0.786 -1.9223 -0.0120  0.9702
  650SOL     OW 1948   2.711   0.657   1.541  0.0087  0.0173 -0.5017
  650SOL    HW1 1949   2.609   0.666   1.533  0.5876 -1.3350 -0.3266
  650SOL    HW2 1950   2.752   0.734   1.485  1.8054  1.0633 -0.2345
  651SOL     OW 1951   0.899   1.540   1.652  0.3087 -0.3127 -0.3819
  651SOL    HW1 1952   0.910   1.624   1.709 -1.2191 -1.4549  0.1012
  651SOL    HW2 1953   0.957   1.536   1.562  2.6619 -1.5989  0.7084
  652SOL     OW 1954   2.386   2.422   2.456  0.3578 -0.5756 -0.3536
  652SOL    HW1 1955   2.290   2.468   2.451 -1.2679 -0.7082 -2.2668
  652SOL    HW2 1956   2.453   2.452   2.380  0.9661 -1.5839 -2.3550
  653SOL     OW 1957   2.711   1.269   0.210 -0.4853  0.8509  1.1773
  653SOL    HW1 1958   2.757   1.357   0.242  2.6628 -1.4304  2.6050
  653SOL    HW2 1959   2.768   1.185   0.217 -2.3766  0.4510 -0.7150
  654SOL     OW 1960   1.272   2.219   1.295 -0.2092  0.4222 -0.3343
  654SOL    HW1 1961   1.278   2.127   1.347  0.3142 -2.2596  2.3477
  654SOL    HW2 1962   1.267   2.221   1.191 -2.1135 -1.0394 -1.0963
  655SOL     OW 1963   0.166   0.929   1.881 -0.2548  0.3328 -0.3533
  655SOL    HW1 1964   0.203   0.865   1.809 -1.2250 -3.2653  1.0446
  655SOL    HW2 1965   0.211   1.023   1.887  0.4667 -1.2364 -0.9318
  656SOL     OW 1966   2.559   2.522   2.648 -0.3118 -0.3531 -0.3717
  656SOL    HW1 1967   2.658   2.505   2.622 -2.2826  0.7302  0.0244
  656SOL    HW2 1968   2.491   2.455   2.599 -0.5473 -1.1019 -1.4259
  657SOL     OW 1969   3.014   1.010   1.826  0.4831 -0.2460  0.6172
  657SOL    HW1 1970   3.000   1.108   1.867  0.4308  2.1998  1.5887
  657SOL    HW2 1971   3.114   0.990   1.835 -1.4182  0.0720  0.3727
  658SOL     OW 1972   1.707   0.204   2.342 -0.2410  0.0554  0.6259
  658SOL    HW1 1973   1.717   0.112   2.387  1.4255 -2.7344  0.9534
  658SOL    HW2 1974   1.726   0.203   2.243  1.5826  2.4230  3.8644
  659SOL     OW 1975   1.385   0.634   2.785 -0.4066 -0.3213  0.3465
  659SOL    HW1 1976   1.405   0.675   2.694  2.6077  0.1457  2.1581
  659SOL    HW2 1977   1.287   0.650   2.823  0.8479  0.5871  0.3755
  660SOL     OW 1978   1.404   0.334   1.456 -0.3396 -0.0268  0.0315
  660SOL    HW1 1979   1.410   0.364   1.555  2.9792 -1.8445 -0.8448
  660SOL    HW2 1980   1.496   0.281   1.442  1.1505 -0.2931  1.9131
  661SOL     OW 1981   2.423   1.257   0.650 -0.2080  0.0050  0.8244
  661SOL    HW1 1982   2.474   1.248   0.564  1.0549 -1.6164  4.1669
  661SOL    HW2 1983   2.328   1.295   0.636 -3.6371  0.0589  0.2232
  662SOL     OW 1984   1.416   0.407   1.707 -0.2830  0.1135  0.4265
  662SOL    HW1 1985   1.333   0.368   1.759  1.0416 -1.8874 -1.3545
  662SOL    HW2 1986   1.434   0.503   1.732 -2.0403 -2.9092  1.9292
  663SOL     OW 1987   0.859   1.517   2.121  0.3437  0.2489  0.3482
  663SOL    HW1 1988   0.835   1.622   2.133 -1.6533  0.5765  0.0099
  663SOL    HW2 1989   0.807   1.466   2.048 -0.0381 -0.7656 -0.9738
  664SOL     OW 1990   1.622   2.084   1.428  0.6004 -0.1276  0.1576
  664SOL    HW1 1991   1.580   2.012   1.486 -0.7820 -0.6539 -4.7454
  664SOL    HW2 1992   1.726   2.073   1.418  2.9335 -3.1017  0.0334
  665SOL     OW 1993   2.309   0.641   1.961  0.0930 -0.1102 -0.0155
  665SOL    HW1 1994   2.287   0.544   1.986  0.5761  2.6092  0.0678
  665SOL    HW2 1995   2.365   0.685   2.039  1.4770 -0.9196  2.4958
  666SOL     OW 1996   0.508   2.257   0.370  0.2510  0.0383  0.9643
  666SOL    HW1 1997   0.540   2.336   0.429  1.1747 -1.2541 -0.6641
  666SOL    HW2 1998   0.407   2.235   0.386  0.3896 -0.6572  0.7922
  667SOL     OW 1999   1.945   0.243   1.056  0.5689  0.5960  0.3096
  667SOL    HW1 2000   1.987   0.335   1.079  0.1805 -0.0116  1.1423
  667SOL    HW2 2001   1.892   0.199   1.133  4.7719 -1.1087 -1.7658
  668SOL     OW 2002   2.000   0.507   1.127 -0.2026 -1.0008  0.3773
  668SOL    HW1 2003   2.058   0.544   1.048  2.7697 -1.1159 -2.4372
  668SOL    HW2 2004   2.034   0.519   1.222 -0.7057  0.2506 -1.8745
  669SOL     OW 2005   3.041   2.193   1.006  0.8594  0.0945 -0.6432
  669SOL    HW1 2006   3.000   2.250   0.935 -0.8714 -0.0829  1.1912
  669SOL    HW2 2007   2.996   2.220   1.096  0.5759 -5.3204 -0.3068
  670SOL     OW 2008   2.880   2.323   2.118 -0.3434  0.3382  0.4945
  670SOL    HW1 2009   2.794   2.319   2.179  0.7430 -3.2130  2.0144
  670SOL    HW2 2010   2.902   2.422   2.087  0.9297  3.3799 -0.0079
  671SOL     OW 2011   1.787   1.778   1.520 -0.1591  0.4765 -0.6420
  671SOL    HW1 2012   1.827   1.750   1.429 -1.0452 -2.1489 -0.6651
  671SOL    HW2 2013   1.686   1.804   1.525  1.2751  0.9949 -3.3578
  672SOL     OW 2014   0.471   0.655   2.518 -0.0814 -0.0573 -0.4603
  672SOL    HW1 2015   0.468   0.649   2.414  1.1555 -2.6258 -2.4732
  672SOL    HW2 2016   0.405   0.726   2.553 -0.2640 -2.9029 -1.4036
  673SOL     OW 2017   0.105   1.248   1.126  0.5168 -0.3201  0.2131
  673SOL    HW1 2018   0.094   1.331   1.183  3.5809  0.2064  0.9937
  673SOL    HW2 2019   0.207   1.222   1.114  1.3990 -4.0378 -1.2037
  674SOL     OW 2020   1.622   2.992   0.317 -0.5286  0.2720  0.3766
  674SOL    HW1 2021   1.618   3.091   0.351 -1.9782 -0.1066  0.3406
  674SOL    HW2 2022   1.620   2.987   0.209  1.7039  0.7065 -1.2189
  675SOL     OW 2023   1.732   0.850   2.304 -0.1839  0.0808 -0.3128
  675SOL    HW1 2024   1.828   0.818   2.289 -2.4185  0.1522  1.6933
  675SOL    HW2 2025   1.669   0.769   2.284  0.3335 -2.4219  2.5989
  676SOL     OW 2026   2.556   1.482   1.915  0.0073 -0.1263 -0.0522
  676SOL    HW1 2027   2.524   1.403   1.850 -1.0770 -1.4956 -0.2241
  676SOL    HW2 2028   2.569   1.442   2.007  0.8906  2.3671 -1.2965
  677SOL     OW 2029   1.930   0.685   0.901 -0.2389 -0.1136  0.6438
  677SOL    HW1 2030   1.860   0.669   0.975 -0.8374 -2.8405 -0.7084
  677SOL    HW2 2031   2.030   0.650   0.913  0.3926 -3.6725 -1.4462
  678SOL     OW 2032   0.083   0.743   1.627 -0.0435  0.0862 -0.4621
  678SOL    HW1 2033   0.188   0.731   1.626  0.2282 -2.1753 -2.3593
  678SOL    HW2 2034   0.035   0.677   1.693 -0.2636 -0.9286  0.1847
  679SOL     OW 2035   2.574   1.173   1.182  0.1816 -0.3922  0.3537
  679SOL    HW1 2036   2.476   1.213   1.183  0.9941 -1.5465  0.6490
  679SOL    HW2 2037   2.579   1.075   1.143  1.5768 -2.7063 -1.0757
  680SOL     OW 2038   2.836   0.460   1.715  0.0200 -0.0969 -0.2642
  680SOL    HW1 2039   2.775   0.523   1.662 -1.3435 -1.6463  2.1943
  680SOL    HW2 2040   2.914   0.519   1.755 -2.2256 -0.9783 -2.2703
  681SOL     OW 2041   2.961   0.057   1.584  0.0279 -0.1574 -0.2158
  681SOL    HW1 2042   3.015   0.024   1.503 -3.3708  0.0671  2.5921
  681SOL    HW2 2043   2.888   0.129   1.562  0.6379 -0.1741  2.4414
  682SOL     OW 2044   0.698   0.035   1.330  0.5460 -0.5309 -0.0034
  682SOL    HW1 2045   0.624  -0.030   1.356  3.1012 -0.5097 -0.8487
  682SOL    HW2 2046   0.757   0.003   1.251  0.5699  0.1568 -0.1919
  683SOL     OW 2047   1.379   0.179   2.147  0.1649 -0.2006 -0.3863
  683SOL    HW1 2048   1.371   0.224   2.239  0.1352 -0.6555 -0.4029
  683SOL    HW2 2049   1.453   0.213   2.084 -1.4991  0.3202  1.5834
  684SOL     OW 2050   1.459   2.093   0.548  0.0302 -0.1755 -0.4516
  684SOL    HW1 2051   1.500   2.051   0.637 -1.1711  0.5585  2.5136
  684SOL    HW2 2052   1.371   2.051   0.515  2.0856  0.9991  2.0647
  685SOL     OW 2053   2.215   2.068   1.964 -0.4392 -0.3281 -0.5660
  685SOL    HW1 2054   2.260   2.063   1.875 -1.2962 -1.1891 -1.3928
  685SOL    HW2 2055   2.283   2.041   2.038  0.5533  2.0222  1.1048
  686SOL     OW 2056   1.451   1.820   2.828  0.0615  0.3284 -0.4462
  686SOL    HW1 2057   1.509   1.760   2.887  0.0329  1.8508  0.4771
  686SOL    HW2 2058   1.347   1.811   2.847  0.6287  0.3222  1.0870
  687SOL     OW 2059   1.301   2.442   1.970  0.0387  0.8744 -0.2255
  687SOL    HW1 2060   1.356   2.396   1.893 -2.3948 -0.4584  0.5006
  687SOL    HW2 2061   1.362   2.473   2.047  0.8115  0.4776  0.9245
  688SOL     OW 2062   2.020   1.517   1.781 -0.1302 -0.0690  0.1406
  688SOL    HW1 2063   2.109   1.568   1.776 -3.2147 -1.6064  4.1260
  688SOL    HW2 2064   2.001   1.468   1.690  1.5668  2.1717 -1.1230
  689SOL     OW 2065   2.392   1.091   2.761  0.2196  0.0444  0.3665
  689SOL    HW1 2066   2.308   1.026   2.774 -0.5072  0.2177  0.2722
  689SOL    HW2 2067   2.453   1.083   2.847 -0.5668  0.5139  1.5011
  690SOL     OW 2068   2.241   2.805   0.021 -0.4010  0.0751 -0.8224
  690SOL    HW1 2069   2.165   2.766  -0.038  3.0128 -0.1389  2.7931
  690SOL    HW2 2070   2.220   2.779   0.124  0.6372  0.2267  0.2961
  691SOL     OW 2071   2.573   0.396   2.096 -0.2975 -0.2838  0.5753
  691SOL    HW1 2072   2.635   0.314   2.094  0.6727  1.3144  1.9398
  691SOL    HW2 2073   2.604   0.471   2.029 -0.4999  0.4538  2.1193
  692SOL     OW 2074   2.675   1.205   0.810 -0.0349  0.0670 -0.6462
  692SOL    HW1 2075   2.598   1.227   0.746  0.0293  1.6972 -0.8084
  692SOL    HW2 2076   2.724   1.292   0.846  2.5973 -0.4141  2.1790
  693SOL     OW 2077   2.855   3.002   0.549  0.2240 -0.6248 -0.2829
  693SOL    HW1 2078   2.815   3.044   0.639 -1.1249  0.5804 -0.2440
  693SOL    HW2 2079   2.847   3.058   0.461  0.9157  0.2553  1.2252
  694SOL     OW 2080   2.423   2.196   0.112 -0.0992  0.1140 -0.5591
  694SOL    HW1 2081   2.423   2.292   0.158  1.4106  0.7823 -1.8562
  694SOL    HW2 2082   2.326   2.154   0.106 -2.8698  2.0844  1.2153
  695SOL     OW 2083   0.485   2.974   1.425  0.6804  0.4438 -0.3274
  695SOL    HW1 2084   0.428   2.889   1.436 -0.4246  0.8410  2.1515
  695SOL    HW2 2085   0.495   3.026   1.516  2.6830  0.9520 -0.2122
  696SOL     OW 2086   2.873   2.076   0.760  0.2277  0.1776  0.3757
  696SOL    HW1 2087   2.918   1.983   0.779 -2.0244 -1.7747  0.4981
  696SOL    HW2 2088   2.841   2.083   0.660  0.9885 -1.1238  0.9143
  697SOL     OW 2089   1.661   1.908   1.828  0.4933 -0.1274  0.9247
  697SOL    HW1 2090   1.761   1.889   1.826 -0.6764 -1.2999 -0.3963
  697SOL    HW2 2091   1.633   2.005   1.797 -1.5059 -0.4122 -1.7432
  698SOL     OW 2092   2.875   0.424   2.729  0.0829 -0.1924 -0.1826
  698SOL    HW1 2093   2.899   0.411   2.625  2.1052  1.3454 -1.6508
  698SOL    HW2 2094   2.935   0.365   2.793  1.7464 -2.2539  2.2776
  699SOL     OW 2095   1.569   0.036   2.926  0.3263 -0.0634  0.1592
  699SOL    HW1 2096   1.539  -0.059   2.889 -2.1349 -0.7945  1.1367
  699SOL    HW2 2097   1.609   0.094   2.847  2.3392  0.6069 -0.5007
  700SOL     OW 2098   1.022   2.289   1.431  0.9312  0.5567 -0.4136
  700SOL    HW1 2099   1.109   2.237   1.406  0.5381 -2.1467 -1.1750
  700SOL    HW2 2100   0.948   2.263   1.365 -0.2980  1.1533 -2.9840
  701SOL     OW 2101   1.922   2.884   3.093  0.0400 -0.2297  0.0423
  701SOL    HW1 2102   1.903   2.816   3.173 -4.2822 -3.2877 -0.7100
  701SOL    HW2 2103   1.948   2.984   3.122  1.4392  1.5451 -0.5951
  702SOL     OW 2104   2.067   1.311   1.949 -0.0080  0.3985 -0.6281
  702SOL    HW1 2105   2.163   1.266   1.953  0.1178 -0.7053  2.1585
  702SOL    HW2 2106   2.063   1.401   1.896 -1.7976  0.9308 -1.4187
  703SOL     OW 2107   1.951   0.889   1.474 -0.3634 -0.2697 -0.2470
  703SOL    HW1 2108   1.926   0.797   1.521  0.2160 -1.3567 -2.3833
  703SOL    HW2 2109   2.015   0.951   1.532 -0.9766  1.0496  1.2025
  704SOL     OW 2110   0.295   2.034   1.687 -0.1929 -0.4733  0.7574
  704SOL    HW1 2111   0.333   1.981   1.764  1.8856 -1.1627  1.3777
  704SOL    HW2 2112   0.358   2.116   1.659  0.0351  0.8735  1.8232
  705SOL     OW 2113   2.477   1.541   0.867  0.5021  0.6246  0.2661
  705SOL    HW1 2114   2.412   1.483   0.805  1.5302 -2.1760  2.8865
  705SOL    HW2 2115   2.565   1.491   0.885  1.1492  1.1873  1.0824
  706SOL     OW 2116   0.705   1.710   1.865  0.0056  0.2763  0.3554
  706SOL    HW1 2117   0.727   1.610   1.888  0.5043  0.7582 -0.7527
  706SOL    HW2 2118   0.782   1.777   1.890  3.8151  2.9337  1.3922
  707SOL     OW 2119   2.307   1.199   1.963 -0.1909 -0.2517 -0.4913
  707SOL    HW1 2120   2.375   1.210   2.040  0.4656 -0.3989 -1.1862
  707SOL    HW2 2121   2.305   1.107   1.918 -2.3641 -0.0510 -2.9477
  708SOL     OW 2122   2.966   0.519   3.019 -0.6689  0.0770  0.1671
  708SOL    HW1 2123   3.010   0.580   2.946  0.4463 -1.7699 -3.7394
  708SOL    HW2 2124   2.986   0.418   3.003  0.4524 -1.3647 -4.3534
  709SOL     OW 2125   1.887   1.884   0.350 -0.3170 -0.2858 -0.3039
  709SOL    HW1 2126   1.928   1.976   0.377  0.1453 -0.9200 -0.5449
  709SOL    HW2 2127   1.878   1.880   0.248 -2.4458 -0.7131 -0.3311
  710SOL     OW 2128   1.733   1.621   2.425 -0.2179 -0.1563 -0.5583
  710SOL    HW1 2129   1.826   1.597   2.386 -2.1136  2.2305 -3.2611
  710SOL    HW2 2130   1.706   1.574   2.511 -3.4053 -0.9694 -1.7402
  711SOL     OW 2131   2.578   2.904   1.010 -0.1529 -0.3553  0.8469
  711SOL    HW1 2132   2.517   2.989   1.006  1.0965  2.5736  0.4277
  711SOL    HW2 2133   2.679   2.927   1.018  0.1555 -0.6421  0.7419
  712SOL     OW 2134   1.408   2.126   1.962 -0.0752 -0.1778 -0.0306
  712SOL    HW1 2135   1.497   2.181   1.961 -2.3903 -0.6577  1.6014
  712SOL    HW2 2136   1.358   2.133   1.869  1.1581  1.5251  1.7600
  713SOL     OW 2137   2.775   1.485   2.533 -0.3572 -0.4795  0.0793
  713SOL    HW1 2138   2.787   1.381   2.515  3.3385 -0.2224 -1.7125
  713SOL    HW2 2139   2.687   1.509   2.585 -0.7974  0.6128 -0.5396
  714SOL     OW 2140   2.623   0.433   2.407  0.5260  0.0138 -0.0543
  714SOL    HW1 2141   2.566   0.413   2.490  1.6763  2.3771 -0.3411
  714SOL    HW2 2142   2.589   0.382   2.323  1.7876  2.3535  3.3296
  715SOL     OW 2143   1.551   2.110   1.154 -0.3926 -0.4408  0.2514
  715SOL    HW1 2144   1.467   2.167   1.138 -2.2438  0.5031  0.2817
  715SOL    HW2 2145   1.563   2.082   1.255  1.8738 -0.0236 -1.5252
  716SOL     OW 2146   1.206   0.165   1.479 -0.0746 -0.6294  0.6904
  716SOL    HW1 2147   1.116   0.178   1.436 -0.8741 -1.7817 -1.5645
  716SOL    HW2 2148   1.275   0.233   1.463 -1.6334  1.7528  2.4562
  717SOL     OW 2149   1.138   0.525   1.595 -0.4037 -0.2000  0.2630
  717SOL    HW1 2150   1.204   0.594   1.641 -0.5596  2.9312  1.3656
  717SOL    HW2 2151   1.152   0.505   1.491  0.9479  0.1050  0.9565
  718SOL     OW 2152   0.669   0.887   0.969 -0.3706 -0.1417 -0.0470
  718SOL    HW1 2153   0.657   0.879   0.868 -1.4022  3.0105  0.3957
  718SOL    HW2 2154   0.667   0.987   1.010 -0.6620  2.0612  3.2310
  719SOL     OW 2155   0.600   1.721   2.306  0.4168  0.4200  0.3731
  719SOL    HW1 2156   0.681   1.753   2.365  0.2043 -4.3388 -3.0703
  719SOL    HW2 2157   0.589   1.619   2.316 -2.2283 -1.0674  2.9904
  720SOL     OW 2158   2.217   1.126   0.281  0.0991 -0.1417 -0.0174
  720SOL    HW1 2159   2.258   1.077   0.204  0.4538 -1.1423  0.3491
  720SOL    HW2 2160   2.188   1.065   0.359 -2.4694  1.0564 -0.2666
  721SOL     OW 2161   2.239   3.029   2.054  0.0139  0.6410  0.3805
  721SOL    HW1 2162   2.159   3.000   1.995  0.0678  0.0921  1.9777
  721SOL    HW2 2163   2.202   3.055   2.145 -1.8480  0.9942 -1.2945
  722SOL     OW 2164   2.319   1.643   0.466 -0.4460 -0.1638 -0.3949
  722SOL    HW1 2165   2.379   1.590   0.395 -1.1735 -0.1783 -0.3746
  722SOL    HW2 2166   2.223   1.665   0.427  0.1940 -1.7508 -1.1320
  723SOL     OW 2167   2.673   2.709   1.911  0.0045 -0.1307 -0.1734
  723SOL    HW1 2168   2.703   2.808   1.932 -0.4310 -1.8698 -1.4478
  723SOL    HW2 2169   2.572   2.689   1.929  1.5604 -0.4142  0.4371
  724SOL     OW 2170   0.489   2.492   2.381  0.2574 -0.1171  0.1332
  724SOL    HW1 2171   0.391   2.475   2.412  0.9407 -0.4338 -2.1341
  724SOL    HW2 2172   0.553   2.519   2.462 -3.2551  1.5547  1.2878
  725SOL     OW 2173   2.356   2.716   1.553 -0.1217 -0.3081 -0.6832
  725SOL    HW1 2174   2.428   2.785   1.523 -2.6154 -1.7870 -0.1042
  725SOL    HW2 2175   2.407   2.629   1.578  0.6763  1.7603 -1.3998
  726SOL     OW 2176   2.459   2.311   0.715  0.5009 -0.3134  0.4457
  726SOL    HW1 2177   2.451   2.400   0.666  3.7059  1.9119  1.5972
  726SOL    HW2 2178   2.444   2.225   0.644 -3.1892  0.4207 -1.3957
  727SOL     OW 2179   0.147   3.081   0.117  0.5969  0.2192 -0.2688
  727SOL    HW1 2180   0.224   3.125   0.065  1.9818 -3.8490 -0.9864
  727SOL    HW2 2181   0.059   3.060   0.062  1.5995  2.4688 -0.9566
  728SOL     OW 2182   2.895   0.686   0.879  0.3304 -0.1356 -0.4556
  728SOL    HW1 2183   2.850   0.679   0.783  0.2638 -1.9357 -0.8528
  728SOL    HW2 2184   2.832   0.666   0.962 -1.0032 -2.7968 -0.8143
  729SOL     OW 2185   0.033   2.533   0.739 -0.1617  0.0260 -0.2791
  729SOL    HW1 2186   0.062   2.472   0.820 -0.4387 -0.6610  3.5577
  729SOL    HW2 2187   0.110   2.555   0.668 -1.0096  2.2186 -0.2866
  730SOL     OW 2188   2.529   0.659   0.812  0.5199 -0.3725 -0.5567
  730SOL    HW1 2189   2.548   0.763   0.826 -3.3134  1.6660 -1.3886
  730SOL    HW2 2190   2.611   0.609   0.774  2.4012 -0.7694 -0.7612
  731SOL     OW 2191   0.009   2.175   2.424  0.4707 -0.0968 -0.0079
  731SOL    HW1 2192   0.053   2.240   2.493  0.0097  1.1208  0.9016
  731SOL    HW2 2193  -0.089   2.193   2.396 -0.7633 -2.2250 -0.7631
  732SOL     OW 2194   1.194   2.803   1.992  0.5215  0.0393 -0.4966
  732SOL    HW1 2195   1.233   2.757   2.079  1.5501  0.4743 -0.6150
  732SOL    HW2 2196   1.202   2.742   1.907  1.1889  2.4590 -0.9433
  733SOL     OW 2197   3.074   0.615   2.236  0.1206  0.3241 -1.0044
  733SOL    HW1 2198   3.148   0.659   2.183 -0.4929 -1.7299  1.1866
  733SOL    HW2 2199   3.027   0.538   2.182 -0.3920 -0.4170  0.4213
  734SOL     OW 2200   1.450   0.360   2.681 -0.3948 -0.3137  0.0688
  734SOL    HW1 2201   1.427   0.460   2.692 -2.6645  0.6832 -3.4147
  734SOL    HW2 2202   1.384   0.296   2.729 -1.4393 -1.4567  1.5939
  735SOL     OW 2203   2.898   2.619   2.270 -0.0324  0.0354  0.2729
  735SOL    HW1 2204   2.889   2.611   2.167  1.5552  2.6541 -2.1871
  735SOL    HW2 2205   3.000   2.651   2.297  2.7801  0.6649 -0.7633
  736SOL     OW 2206   0.920   0.447   2.509  0.1939  0.4770  0.1663
  736SOL    HW1 2207   0.826   0.462   2.544  0.8716 -0.3191 -0.0086
  736SOL    HW2 2208   0.928   0.357   2.465 -2.4821 -0.0148  0.8648
  737SOL     OW 2209   2.616   0.501   2.826 -0.3105  0.5422 -0.2711
  737SOL    HW1 2210   2.571   0.455   2.910  1.4483  0.6888 -0.1883
  737SOL    HW2 2211   2.712   0.465   2.816  1.5348  0.7414  1.6140
  738SOL     OW 2212   1.738   1.269   2.893  0.2486 -0.5248  0.0074
  738SOL    HW1 2213   1.841   1.258   2.892 -1.2573  2.6188 -4.0451
  738SOL    HW2 2214   1.690   1.203   2.832  3.2634  0.4620  0.6197
  739SOL     OW 2215   1.782   0.704   0.664 -0.3623  0.1541  0.0418
  739SOL    HW1 2216   1.849   0.710   0.744  0.7668 -0.5164 -1.2587
  739SOL    HW2 2217   1.781   0.605   0.624 -0.0279 -2.3459 -1.5646
  740SOL     OW 2218   1.920   1.948   2.371 -0.2277 -0.2823  0.2047
  740SOL    HW1 2219   1.982   1.883   2.413  1.1923  0.0310  2.6561
  740SOL    HW2 2220   1.872   1.904   2.292 -0.7229  1.8719  1.2090
  741SOL     OW 2221   2.609   0.092   2.486 -0.5575  0.2768  0.6860
  741SOL    HW1 2222   2.712   0.113   2.490  0.2533 -2.1173  1.1329
  741SOL    HW2 2223   2.565   0.108   2.397  1.0319  1.3192  0.4066
  742SOL     OW 2224   2.162   1.376   0.130 -0.1093  0.0283  0.1399
  742SOL    HW1 2225   2.057   1.395   0.129 -3.2181 -1.1035 -1.0706
  742SOL    HW2 2226   2.193   1.314   0.213  0.3711 -1.6151  4.1215
  743SOL     OW 2227   1.768   0.627   2.616 -0.2026 -0.4601 -0.4145
  743SOL    HW1 2228   1.770   0.567   2.534 -0.6779  0.6408  2.5592
  743SOL    HW2 2229   1.695   0.695   2.624 -1.8765  0.4107  1.6310
  744SOL     OW 2230   2.699   2.014   0.034  0.0430  0.0065  0.5161
  744SOL    HW1 2231   2.618   2.035   0.089  2.0945 -2.3213  2.2620
  744SOL    HW2 2232   2.679   1.924  -0.017  0.5283 -2.7967 -2.1620
  745SOL     OW 2233   2.178   2.655   2.166 -0.7221 -0.1635 -0.0220
  745SOL    HW1 2234   2.077   2.668   2.186 -2.4084 -0.5731 -0.9216
  745SOL    HW2 2235   2.246   2.690   2.233  0.2105 -2.0460  0.8883
  746SOL     OW 2236   0.015   2.660   1.730 -0.5558 -0.1840 -0.1616
  746SOL    HW1 2237   0.098   2.599   1.716  0.4278  0.9560  1.1730
  746SOL    HW2 2238   0.010   2.722   1.812  0.4638 -1.9266 -1.0110
  747SOL     OW 2239   0.010   1.779   1.647 -0.6179 -0.9413  0.0143
  747SOL    HW1 2240  -0.070   1.716   1.617  0.9119  3.0091 -0.7659
  747SOL    HW2 2241   0.074   1.801   1.568 -1.9696 -1.8520 -1.2281
  748SOL     OW 2242   1.831   2.731   2.897  0.0350 -0.0011  0.5068
  748SOL    HW1 2243   1.869   2.795   2.967 -0.2754 -2.4560 -0.4511
  748SOL    HW2 2244   1.751   2.774   2.847  0.4373  0.7405  3.0687
  749SOL     OW 2245   1.368   3.048   0.853 -0.3200 -0.0017 -0.3504
  749SOL    HW1 2246   1.276   3.023   0.810  2.5841  0.6419  3.6401
  749SOL    HW2 2247   1.453   3.015   0.806  1.7741  1.6004 -2.3496
  750SOL     OW 2248   2.292   0.193   1.877  0.0711 -0.4725  0.0254
  750SOL    HW1 2249   2.315   0.253   1.791 -0.7203 -0.2038 -1.3158
  750SOL    HW2 2250   2.269   0.256   1.960 -0.3844  2.2262  2.6072
  751SOL     OW 2251   0.788   2.110   2.853 -0.0697 -1.0665 -0.3303
  751SOL    HW1 2252   0.857   2.098   2.926 -3.8133  0.4043 -0.1070
  751SOL    HW2 2253   0.687   2.107   2.882  0.5860 -1.4499 -3.0129
  752SOL     OW 2254   1.312   0.812   1.272  0.0688 -0.1746 -0.3902
  752SOL    HW1 2255   1.394   0.873   1.256  1.8510 -1.7084  0.2890
  752SOL    HW2 2256   1.344   0.718   1.309 -2.2775  0.3412  0.5354
  753SOL     OW 2257   0.936   2.576   1.829  0.6707  0.0109  0.2935
  753SOL    HW1 2258   1.027   2.616   1.798  1.8480  0.4923  0.5041
  753SOL    HW2 2259   0.862   2.649   1.836  1.0520 -1.1645  1.5236
  754SOL     OW 2260   1.150   1.242   3.050  0.4310 -0.2646 -0.1714
  754SOL    HW1 2261   1.205   1.168   3.008  0.8505  0.5156  0.8147
  754SOL    HW2 2262   1.193   1.335   3.051  0.8311  1.3845  0.5283
  755SOL     OW 2263   1.980   0.462   2.221  0.0176  0.4541  0.4715
  755SOL    HW1 2264   2.057   0.406   2.248 -0.3849 -0.2338 -0.3384
  755SOL    HW2 2265   1.904   0.475   2.293  1.7556  0.2127  1.6847
  756SOL     OW 2266   2.583   1.009   2.989  0.2022 -0.6800 -0.1922
  756SOL    HW1 2267   2.684   0.991   2.989 -1.2397  0.5488 -0.9988
  756SOL    HW2 2268   2.521   0.922   2.990 -1.2481  1.5733  0.3097
  757SOL     OW 2269   0.132   0.487   1.985  0.2454  0.2386  0.6409
  757SOL    HW1 2270   0.191   0.406   1.943  2.9134 -0.5749  0.8654
  757SOL    HW2 2271   0.037   0.464   1.990  0.1908  0.6611  0.7535
  758SOL     OW 2272   2.204   0.091   1.504 -0.8445 -0.0362  0.5080
  758SOL    HW1 2273   2.192  -0.013   1.506 -1.8895  0.9176  2.2603
  758SOL    HW2 2274   2.285   0.115   1.444  0.3188 -0.0399 -0.7211
  759SOL     OW 2275   1.686   0.101   0.061 -0.6097  0.4182 -0.4420
  759SOL    HW1 2276   1.649   0.084  -0.033 -0.1259  1.8868  1.7265
  759SOL    HW2 2277   1.789   0.082   0.065 -1.6652  0.9600  1.6839
  760SOL     OW 2278   2.561   2.076   2.832 -0.8532  0.3232  0.0422
  760SOL    HW1 2279   2.608   2.000   2.886  0.7976 -0.7891 -1.6480
  760SOL    HW2 2280   2.564   2.170   2.875 -2.3121 -1.0624  0.7994
  761SOL     OW 2281   1.915   1.799   1.759 -0.0938  0.1528 -0.3685
  761SOL    HW1 2282   1.929   1.702   1.794 -0.4682  0.2014 -0.2488
  761SOL    HW2 2283   1.862   1.804   1.666 -1.0944  0.2726  2.0310
  762SOL     OW 2284   0.491   2.367   0.950 -0.0622  0.1588  0.2955
  762SOL    HW1 2285   0.541   2.372   0.859  1.5347 -2.4558 -2.3095
  762SOL    HW2 2286   0.548   2.402   1.028  1.0693  2.3160 -1.7038
  763SOL     OW 2287   2.102   1.565   2.986  0.1620  0.1224  0.4054
  763SOL    HW1 2288   2.172   1.498   2.949  1.6905  2.6947  0.3498
  763SOL    HW2 2289   2.025   1.516   3.042 -2.1388  1.6513 -0.2220
  764SOL     OW 2290   0.690   0.565   0.716 -0.2138 -0.9217  0.2463
  764SOL    HW1 2291   0.609   0.501   0.716  2.1367  1.9596  0.3464
  764SOL    HW2 2292   0.759   0.537   0.790 -0.8289 -1.6241  1.7748
  765SOL     OW 2293   0.777   0.261   0.778 -0.5398 -0.3355 -0.0743
  765SOL    HW1 2294   0.819   0.300   0.691 -0.3526 -2.4812  2.1629
  765SOL    HW2 2295   0.786   0.316   0.860  0.6647  2.6993  3.2625
  766SOL     OW 2296   2.891   2.159   3.007 -0.2850  0.3092 -0.1562
  766SOL    HW1 2297   2.814   2.117   3.063 -0.5458  1.1876  0.0574
  766SOL    HW2 2298   2.943   2.236   3.063  2.2532 -0.8585 -0.7100
  767SOL     OW 2299   2.804   1.666   0.578 -0.0209  0.5250 -0.0187
  767SOL    HW1 2300   2.708   1.701   0.600 -1.9648 -0.8626 -0.3853
  767SOL    HW2 2301   2.885   1.726   0.607 -1.7753 -1.4796  0.5792
  768SOL     OW 2302   1.031   0.156   0.243  0.0909 -0.3057  0.3474
  768SOL    HW1 2303   0.989   0.128   0.331 -0.2764  3.9388 -1.7437
  768SOL    HW2 2304   1.133   0.172   0.248 -1.1638  1.1145 -1.5396
  769SOL     OW 2305   1.127   1.861   2.324  0.0498  0.7002  0.3190
  769SOL    HW1 2306   1.023   1.875   2.334 -2.1622 -0.1954  0.2214
  769SOL    HW2 2307   1.175   1.831   2.409 -0.2849  2.3705 -1.3744
  770SOL     OW 2308   0.164   1.131   2.312 -0.0390  0.1035  0.0667
  770SOL    HW1 2309   0.182   1.201   2.386  0.9659  1.1686  1.5061
  770SOL    HW2 2310   0.068   1.096   2.310  0.7204 -0.4861  1.8372
  771SOL     OW 2311   3.058   2.823   1.936  0.0923  0.1912  0.5310
  771SOL    HW1 2312   3.002   2.876   1.859  1.1486  2.0584 -3.6445
  771SOL    HW2 2313   3.009   2.811   2.029 -0.2485 -0.4900 -0.0477
  772SOL     OW 2314   2.300   0.210   2.853 -0.3788 -0.2772  0.3745
  772SOL    HW1 2315   2.371   0.142   2.817 -0.1379 -0.3574 -1.1743
  772SOL    HW2 2316   2.323   0.242   2.952 -1.2951  0.3768  0.1089
  773SOL     OW 2317   0.614   2.131   2.377  0.2888  0.3986 -0.0140
  773SOL    HW1 2318   0.596   2.212   2.313  4.6236  3.1270 -1.1835
  773SOL    HW2 2319   0.550   2.129   2.455  0.9637 -2.5607 -0.9452
  774SOL     OW 2320   2.121   3.092   2.595  0.0025 -0.3716 -0.3519
  774SOL    HW1 2321   2.107   3.175   2.648  1.0614 -1.4335  0.2357
  774SOL    HW2 2322   2.160   3.013   2.648 -1.7890  0.1214 -0.2952
  775SOL     OW 2323   2.559   2.984   2.227 -0.2582  0.2915  0.2289
  775SOL    HW1 2324   2.497   3.065   2.238  0.6688  0.0942 -3.1634
  775SOL    HW2 2325   2.599   2.948   2.316  0.6869 -0.6313  1.6548
  776SOL     OW 2326   3.084   1.266   0.187  0.2409  0.0429  0.6029
  776SOL    HW1 2327   3.037   1.217   0.106  0.3114  0.2244 -1.1649
  776SOL    HW2 2328   3.033   1.272   0.280  0.0427 -0.1507 -2.2052
  777SOL     OW 2329   0.426   2.938   0.407 -0.1997 -0.3902 -0.7377
  777SOL    HW1 2330   0.329   2.947   0.373  0.2259  0.6598  1.1090
  777SOL    HW2 2331   0.486   2.879   0.347 -0.0658  0.4295  0.1088
  778SOL     OW 2332   1.334   1.955   0.187 -0.2669  0.1454  0.2875
  778SOL    HW1 2333   1.275   1.991   0.262  0.5803  0.1619  2.2802
  778SOL    HW2 2334   1.369   2.032   0.128 -3.5209  0.7853 -0.3609
  779SOL     OW 2335   0.186   0.897   0.457 -0.0231 -0.0291  0.1059
  779SOL    HW1 2336   0.136   0.812   0.441  0.6094 -0.0178 -0.0513
  779SOL    HW2 2337   0.138   0.960   0.530  2.6045  1.8909  1.0245
  780SOL     OW 2338   0.161   0.314   2.416 -0.1438  0.6403  0.1087
  780SOL    HW1 2339   0.133   0.412   2.444 -0.3878  0.9269 -1.4459
  780SOL    HW2 2340   0.251   0.307   2.370 -1.7480  0.6623  0.9682
  781SOL     OW 2341   0.675   1.648   1.508 -0.4218 -0.0949  0.1340
  781SOL    HW1 2342   0.741   1.616   1.582 -0.7401 -1.1834  0.6861
  781SOL    HW2 2343   0.574   1.643   1.534  1.3482  1.6489  0.3083
  782SOL     OW 2344   2.597   0.141   0.927 -0.1190  0.6728  0.0954
  782SOL    HW1 2345   2.564   0.177   0.838  1.6564  0.3619  1.6667
  782SOL    HW2 2346   2.572   0.203   1.008  2.5691 -3.0127  0.3152
  783SOL     OW 2347   2.746   0.682   2.451 -0.1481  0.2563 -0.5355
  783SOL    HW1 2348   2.809   0.679   2.532  2.6020  0.1902  1.5604
  783SOL    HW2 2349   2.711   0.591   2.425 -3.8959 -1.3309 -0.2738
  784SOL     OW 2350   1.429   2.186   0.065  0.9519  0.3204 -0.0331
  784SOL    HW1 2351   1.481   2.269   0.085  0.7573  0.5191 -1.8172
  784SOL    HW2 2352   1.369   2.192  -0.024  0.2348 -2.0057 -1.6698
  785SOL     OW 2353   2.062   0.306   3.092  0.7822 -0.0901  0.5651
  785SOL    HW1 2354   1.973   0.305   3.148 -1.9778 -3.6641  2.4875
  785SOL    HW2 2355   2.087   0.400   3.063  1.5817 -1.8659 -1.4801
  786SOL     OW 2356   2.026   2.195   2.241  0.2414  0.5001  0.1787
  786SOL    HW1 2357   1.978   2.112   2.292 -2.2900 -0.1552 -0.4467
  786SOL    HW2 2358   2.108   2.156   2.194  1.7336  1.9532 -3.3265
  787SOL     OW 2359   1.329   0.535   0.916  0.2560 -0.6738 -0.2778
  787SOL    HW1 2360   1.275   0.629   0.932  1.0572  1.4530  0.9912
  787SOL    HW2 2361   1.406   0.544   0.846  0.5879  0.0421 -1.6818
  788SOL     OW 2362   1.232   0.406   0.071 -0.5643 -0.1374  0.3249
  788SOL    HW1 2363   1.151   0.395   0.003  0.0582 -4.0550  0.3400
  788SOL    HW2 2364   1.230   0.504   0.114  1.5097  0.2113 -0.3348
  789SOL     OW 2365   2.554   0.084   1.909  0.4557  0.7668 -0.5990
  789SOL    HW1 2366   2.453   0.101   1.898 -3.0401 -0.1520 -2.4392
  789SOL    HW2 2367   2.576  -0.016   1.899 -3.6075  2.2193 -0.7355
  790SOL     OW 2368   2.627   2.764   0.771 -0.1394  0.4505 -0.1483
  790SOL    HW1 2369   2.704   2.793   0.710 -4.1007 -1.4568  0.3725
  790SOL    HW2 2370   2.612   2.818   0.859 -1.1863  1.6771 -0.8807
  791SOL     OW 2371   1.932   1.200   0.270 -0.3000  0.0111 -0.1650
  791SOL    HW1 2372   1.846   1.151   0.305  0.6720  1.2357 -1.2248
  791SOL    HW2 2373   2.022   1.150   0.285 -1.5217  4.0520 -0.7329
  792SOL     OW 2374   0.389   1.758   2.132  0.7757  0.1415  0.2738
  792SOL    HW1 2375   0.467   1.757   2.199  2.7181  0.4152 -2.6757
  792SOL    HW2 2376   0.304   1.715   2.170  0.6750  0.9900  2.1679
  793SOL     OW 2377   2.117   1.547   2.098  0.6081  0.5176  0.4142
  793SOL    HW1 2378   2.186   1.603   2.039  0.0316  2.0753  0.5184
  793SOL    HW2 2379   2.110   1.450   2.062  2.9413  0.2967  0.8884
  794SOL     OW 2380   0.572   1.448   2.340  0.0726 -0.6730 -0.2442
  794SOL    HW1 2381   0.556   1.403   2.247  0.1551 -2.2018 -1.2248
  794SOL    HW2 2382   0.483   1.489   2.379  0.4838  4.0310  0.7020
  795SOL     OW 2383   2.535   2.260   1.811 -0.1897  0.2121 -0.2131
  795SOL    HW1 2384   2.535   2.242   1.911  0.6431 -1.3861  1.5389
  795SOL    HW2 2385   2.448   2.226   1.766 -0.4285 -1.8727 -0.8662
  796SOL     OW 2386   3.095   1.105   2.697  0.0645 -0.0587  0.1681
  796SOL    HW1 2387   2.994   1.112   2.715  1.5016  0.8850 -3.1720
  796SOL    HW2 2388   3.154   1.112   2.782  1.9315 -0.3401 -1.5695
  797SOL     OW 2389   0.773   0.678   1.399 -0.0555 -0.0478 -0.0952
  797SOL    HW1 2390   0.843   0.713   1.471 -0.2542  2.4601 -0.5654
  797SOL    HW2 2391   0.705   0.750   1.362 -0.9265 -0.0091 -0.4170
  798SOL     OW 2392   1.336   0.365   1.139 -0.6692 -0.6858 -0.4679
  798SOL    HW1 2393   1.400   0.389   1.216  0.8895  1.9019  1.1518
  798SOL    HW2 2394   1.339   0.433   1.054 -1.0483  0.0213 -0.5507
  799SOL     OW 2395   1.971   2.723   1.006 -0.3261 -0.0449  0.8661
  799SOL    HW1 2396   1.912   2.687   1.077 -0.0956 -0.8109 -0.1062
  799SOL    HW2 2397   1.961   2.685   0.912  1.2784 -0.4614  2.1657
  800SOL     OW 2398   3.040   0.598   1.797 -0.4853  0.1178  0.1652
  800SOL    HW1 2399   2.999   0.674   1.854 -0.5189  1.1941  1.1907
  800SOL    HW2 2400   3.119   0.552   1.847  0.0042 -4.0831 -0.6064
  801SOL     OW 2401   1.962   2.251   0.090  0.0379 -0.0527 -0.1892
  801SOL    HW1 2402   1.890   2.205   0.029  1.4101  0.8599 -0.8178
  801SOL    HW2 2403   2.062   2.241   0.062  0.3439  0.3253  2.0880
  802SOL     OW 2404   0.710   0.816   2.567  0.3011  0.2284 -0.0434
  802SOL    HW1 2405   0.751   0.802   2.476 -0.0778  0.9274  1.4937
  802SOL    HW2 2406   0.607   0.787   2.568 -2.8297 -0.8245  2.4459
  803SOL     OW 2407   0.958   0.053   0.887 -0.1330 -0.7920 -0.1187
  803SOL    HW1 2408   1.039   0.116   0.919  0.4762  3.2718  1.5098
  803SOL    HW2 2409   0.885   0.105   0.831  1.0644  0.8777 -0.5314
  804SOL     OW 2410   0.271   0.034   2.168  0.1956  0.0156 -0.5471
  804SOL    HW1 2411   0.243   0.134   2.177 -1.5859 -2.1486 -0.9212
  804SOL    HW2 2412   0.233  -0.011   2.079  0.1485  1.7580  0.0840
  805SOL     OW 2413   2.441   0.244   0.320 -0.3295  0.1771  0.5295
  805SOL    HW1 2414   2.536   0.282   0.330 -1.2280 -0.9702 -2.8473
  805SOL    HW2 2415   2.389   0.303   0.258  0.1887 -1.4685  3.9295
  806SOL     OW 2416   0.638   2.388   1.657 -0.5031  0.2251 -0.1769
  806SOL    HW1 2417   0.642   2.493   1.659 -0.9958  0.2813 -1.1069
  806SOL    HW2 2418   0.731   2.348   1.681 -2.1821 -0.7517 -2.1248
  807SOL     OW 2419   2.398   0.940   0.446  0.6011 -0.3954 -0.1940
  807SOL    HW1 2420   2.463   0.984   0.513  0.6021 -1.7068 -3.1322
  807SOL    HW2 2421   2.430   0.932   0.350 -0.2661  2.0285  0.1375
  808SOL     OW 2422   0.522   2.035   2.970 -0.1246  0.5285 -0.3315
  808SOL    HW1 2423   0.518   2.059   3.074 -2.5097  2.2533  0.5978
  808SOL    HW2 2424   0.549   1.935   2.949  0.2405 -1.5176  0.6714
  809SOL     OW 2425   2.640   1.977   1.916  0.7430 -0.2470 -0.3867
  809SOL    HW1 2426   2.745   2.001   1.921  3.1478 -0.7369 -0.2932
  809SOL    HW2 2427   2.604   1.954   1.820  3.4588 -0.2038 -0.2189
  810SOL     OW 2428   2.106   1.047   0.547 -0.2013  0.2012 -0.4058
  810SOL    HW1 2429   2.172   1.005   0.613  2.2792 -0.4796 -2.6566
  810SOL    HW2 2430   2.049   1.117   0.587  0.7716  1.3623  0.2350
  811SOL     OW 2431   1.367   2.478   1.301  0.5509  0.7772 -0.4365
  811SOL    HW1 2432   1.373   2.379   1.322  2.9603  2.5765 -1.7013
  811SOL    HW2 2433   1.267   2.501   1.285 -1.1747 -1.3246 -0.3720
  812SOL     OW 2434   1.467   0.830   1.954  0.1804  0.1808 -0.1146
  812SOL    HW1 2435   1.519   0.874   2.035 -2.2357  1.7461  1.1373
  812SOL    HW2 2436   1.377   0.886   1.945 -0.3337  1.7470  0.6554
  813SOL     OW 2437   1.742   2.145   2.467  0.0208  0.4030  0.1344
  813SOL    HW1 2438   1.821   2.079   2.480 -1.5076 -2.4680 -1.1411
  813SOL    HW2 2439   1.682   2.109   2.395  2.7281  0.2778  0.3557
  814SOL     OW 2440   2.866   1.557   2.839 -0.1219 -0.4033 -0.2294
  814SOL    HW1 2441   2.955   1.526   2.879  1.7624  1.5187  2.3361
  814SOL    HW2 2442   2.870   1.655   2.812 -0.5596  0.8298 -1.2718
  815SOL     OW 2443   2.228   2.830   2.743 -1.1760  0.0813  0.3129
  815SOL    HW1 2444   2.188   2.758   2.800  0.4121  2.3147  3.0258
  815SOL    HW2 2445   2.327   2.845   2.763  0.6584 -1.5077  0.9797
  816SOL     OW 2446   1.647   0.305   1.595 -0.4340 -0.0168  0.6621
  816SOL    HW1 2447   1.684   0.218   1.630 -2.0299  1.6399  2.0810
  816SOL    HW2 2448   1.583   0.351   1.664  1.9669  0.8217 -0.4073
  817SOL     OW 2449   0.424   1.226   2.523 -0.2901 -0.5600  0.2051
  817SOL    HW1 2450   0.330   1.268   2.544 -1.6602  1.8220  1.2459
  817SOL    HW2 2451   0.482   1.280   2.454 -1.1028  0.8546  0.6506
  818SOL     OW 2452   1.953   0.811   0.482 -0.2448 -0.6932 -0.1503
  818SOL    HW1 2453   1.993   0.902   0.489  0.8413 -1.6900  0.5704
  818SOL    HW2 2454   1.908   0.782   0.572  2.8725  1.1874  0.5833
  819SOL     OW 2455   2.785   2.916   3.017  0.0193  0.2567  0.2421
  819SOL    HW1 2456   2.859   2.852   2.987 -0.8799  0.2451 -0.6414
  819SOL    HW2 2457   2.705   2.919   2.953  1.6083  2.8070 -0.2268
  820SOL     OW 2458   1.237   1.126   0.594  0.3968  0.2234  0.9483
  820SOL    HW1 2459   1.210   1.210   0.641  0.5974  1.9940 -0.6967
  820SOL    HW2 2460   1.264   1.056   0.669 -1.7836 -1.3100  4.6575
  821SOL     OW 2461   0.023   1.269   0.675 -0.4208  0.0887 -0.0041
  821SOL    HW1 2462  -0.019   1.270   0.769  0.1804 -1.5763  0.8464
  821SOL    HW2 2463   0.098   1.341   0.655  2.3300  1.6329  0.6853
  822SOL     OW 2464   2.543   1.737   2.413  0.2287 -0.4017  0.2752
  822SOL    HW1 2465   2.547   1.813   2.486  2.1918  2.7895 -0.2935
  822SOL    HW2 2466   2.474   1.755   2.342  0.6752 -2.7245  0.5465
  823SOL     OW 2467   2.025   0.802   1.224  0.3646 -0.6882 -0.3142
  823SOL    HW1 2468   1.983   0.800   1.318  1.7756 -0.8415  1.5303
  823SOL    HW2 2469   1.994   0.885   1.174  0.4703 -1.3264  1.0344
  824SOL     OW 2470   0.139   2.054   2.784  0.1349 -0.0542 -0.1674
  824SOL    HW1 2471   0.082   1.980   2.825 -1.3107  0.6783  1.7891
  824SOL    HW2 2472   0.204   2.020   2.718 -0.9599  1.7226  0.0728
  825SOL     OW 2473   1.282   1.097   0.247 -0.0876  0.1045  0.8110
  825SOL    HW1 2474   1.311   1.188   0.212  0.4435 -0.4849 -0.8454
  825SOL    HW2 2475   1.212   1.111   0.317 -0.4982 -2.5776  1.5566
  826SOL     OW 2476   1.943   0.653   1.595  0.0231  0.2185  0.0898
  826SOL    HW1 2477   2.022   0.588   1.617 -0.5559  2.0591  3.1867
  826SOL    HW2 2478   1.858   0.608   1.551  0.7213  1.0642  0.7916
  827SOL     OW 2479   0.697   1.402   0.285 -0.0709 -0.3881 -0.3037
  827SOL    HW1 2480   0.764   1.329   0.250  1.5044 -0.7526 -1.2009
  827SOL    HW2 2481   0.629   1.354   0.345 -1.7154  0.5806 -2.5316
  828SOL     OW 2482   2.478   0.108   1.622  0.3705  0.6147  0.1142
  828SOL    HW1 2483   2.388   0.152   1.644  0.8172 -3.1247 -0.4503
  828SOL    HW2 2484   2.484   0.003   1.640  0.6666  3.7597 -0.0202
  829SOL     OW 2485   2.814   2.467   2.949  0.6164 -0.5751 -0.0069
  829SOL    HW1 2486   2.747   2.397   2.918  0.2670  1.6150  0.9398
  829SOL    HW2 2487   2.773   2.532   3.014 -0.0620 -1.4144 -1.4091
  830SOL     OW 2488   2.825   0.888   3.038  0.2978  0.6623 -0.6583
  830SOL    HW1 2489   2.887   0.964   3.065 -2.2739 -1.2287  1.1382
  830SOL    HW2 2490   2.837   0.806   3.100 -0.5389  0.7018 -1.6026
  831SOL     OW 2491   0.044   0.656   0.369  0.9185  0.2317 -0.0406
  831SOL    HW1 2492  -0.008   0.588   0.426 -1.8000  1.0490 -0.2844
  831SOL    HW2 2493   0.097   0.621   0.291  1.8271  1.0383 -0.8222
  832SOL     OW 2494   1.816   0.739   3.098 -0.1834  0.1347 -0.4248
  832SOL    HW1 2495   1.738   0.803   3.080 -1.2433  2.1949 -0.1066
  832SOL    HW2 2496   1.788   0.640   3.096 -0.0510 -0.6238 -0.0224
  833SOL     OW 2497   2.420   2.118   0.529 -0.0059  0.2162 -0.0196
  833SOL    HW1 2498   2.323   2.114   0.491  0.5096  0.7502 -3.7601
  833SOL    HW2 2499   2.473   2.039   0.494 -2.5711  0.9494  1.4925
  834SOL     OW 2500   0.181   0.187   0.525  0.2475 -0.0785 -1.0699
  834SOL    HW1 2501   0.214   0.083   0.550 -0.6446 -1.9372 -0.1947
  834SOL    HW2 2502   0.167   0.201   0.421  0.6398  0.8806  0.5969
  835SOL     OW 2503   2.361   1.557   1.141 -0.0967  0.6570 -1.0518
  835SOL    HW1 2504   2.465   1.581   1.158  0.8241 -0.8158  1.9428
  835SOL    HW2 2505   2.329   1.575   1.045  0.3825  0.1624  0.3585
  836SOL     OW 2506   1.576   0.838   2.551  0.0392  0.1094 -0.6374
  836SOL    HW1 2507   1.483   0.814   2.504  0.1216  1.2641 -1.0646
  836SOL    HW2 2508   1.645   0.867   2.478  0.9753 -1.7807  0.7139
  837SOL     OW 2509   1.753   0.139   0.548 -0.4829  0.2461  0.0477
  837SOL    HW1 2510   1.735   0.147   0.648 -1.2333  0.1476 -1.8186
  837SOL    HW2 2511   1.694   0.205   0.488  0.1998  0.2704 -1.8965
  838SOL     OW 2512   1.134   1.569   2.766 -0.2401  0.3670  0.3243
  838SOL    HW1 2513   1.115   1.533   2.859  1.4879 -1.1794  0.1021
  838SOL    HW2 2514   1.102   1.508   2.689 -2.8997  0.3348  3.4141
  839SOL     OW 2515   1.595   0.295   0.987  0.4346 -0.4156  0.0487
  839SOL    HW1 2516   1.634   0.344   1.071  2.5042 -3.5069 -0.5253
  839SOL    HW2 2517   1.557   0.201   1.004  0.4197  0.5462 -0.1474
  840SOL     OW 2518   2.468   2.945   1.714 -0.4443 -0.2319  0.4295
  840SOL    HW1 2519   2.405   2.858   1.728 -1.8241 -1.5787 -0.4996
  840SOL    HW2 2520   2.564   2.912   1.709 -0.2306 -0.1102 -2.7075
  841SOL     OW 2521   1.559   0.831   3.008 -0.1693  0.1472 -1.0822
  841SOL    HW1 2522   1.469   0.835   3.068 -0.1409  1.3763  0.5756
  841SOL    HW2 2523   1.540   0.869   2.914  2.4612  0.0148  2.9725
  842SOL     OW 2524   0.809   1.505   0.909  0.5617  0.5326 -0.2876
  842SOL    HW1 2525   0.779   1.577   0.977 -0.3555  2.3004 -0.4685
  842SOL    HW2 2526   0.729   1.445   0.886  0.9805  0.0155  1.6668
  843SOL     OW 2527   0.085   3.099   1.373 -0.5180  0.5104 -0.5713
  843SOL    HW1 2528   0.144   3.163   1.436  2.0481 -1.8826  0.6928
  843SOL    HW2 2529   0.084   3.004   1.415  1.3120 -1.8957  1.7126
  844SOL     OW 2530   0.789   2.471   0.246 -0.5565  0.2414 -0.4246
  844SOL    HW1 2531   0.755   2.444   0.339  1.4226  1.7896 -0.9138
  844SOL    HW2 2532   0.752   2.558   0.206  0.8073 -1.2791  2.4355
  845SOL     OW 2533   1.663   2.892   1.326  0.0621 -0.2585 -0.1087
  845SOL    HW1 2534   1.710   2.800   1.323 -1.0343  0.6159 -2.2961
  845SOL    HW2 2535   1.659   2.933   1.416 -0.4307 -0.7780  0.4757
  846SOL     OW 2536   1.595   2.933   0.757 -0.2474 -0.0064  0.3569
  846SOL    HW1 2537   1.566   2.906   0.661 -1.1359 -2.0593  0.9720
  846SOL    HW2 2538   1.700   2.922   0.772  0.9724 -1.8535  1.6469
  847SOL     OW 2539   2.062   1.668   0.369 -0.3442 -0.3530 -0.1246
  847SOL    HW1 2540   2.030   1.569   0.354 -0.9699  3.6601 -0.6630
  847SOL    HW2 2541   1.994   1.732   0.414 -2.9457  1.1553  2.8120
  848SOL     OW 2542   2.449   0.839   2.632  0.0628 -0.2493  0.2895
  848SOL    HW1 2543   2.436   0.933   2.673  2.0464 -0.0894  1.2791
  848SOL    HW2 2544   2.360   0.784   2.622 -2.4989  0.1580 -0.4657
  849SOL     OW 2545   2.565   0.869   2.374  0.2169  0.3318 -0.1598
  849SOL    HW1 2546   2.644   0.798   2.388  0.6021 -2.1544  2.9530
  849SOL    HW2 2547   2.510   0.879   2.462  1.6497 -2.0273 -0.6699
  850SOL     OW 2548   1.548   0.092   1.313 -0.8367  0.1964  0.0860
  850SOL    HW1 2549   1.549   0.068   1.211  0.8608  0.3520 -1.5874
  850SOL    HW2 2550   1.484   0.038   1.374 -0.6641 -0.3279  1.0235
  851SOL     OW 2551   0.439   1.808   0.565  0.2870  0.6777 -0.0740
  851SOL    HW1 2552   0.474   1.901   0.591  0.4904  0.3501  0.5352
  851SOL    HW2 2553   0.403   1.804   0.470  0.5312 -1.6685  2.4091
  852SOL     OW 2554   0.792   2.083   1.744 -0.6197  0.2500  0.0695
  852SOL    HW1 2555   0.833   2.177   1.725  1.4804 -1.7880 -2.8263
  852SOL    HW2 2556   0.732   2.082   1.826  0.3743 -0.0336 -1.4374
  853SOL     OW 2557   2.506   1.535   2.601  0.2030 -0.5620 -0.2010
  853SOL    HW1 2558   2.464   1.455   2.557 -0.6535 -0.7588 -2.1417
  853SOL    HW2 2559   2.514   1.611   2.530 -0.0990  0.9819 -2.1429
  854SOL     OW 2560   2.395   1.360   1.705 -0.0984 -0.0089 -0.1851
  854SOL    HW1 2561   2.453   1.309   1.639  2.4966  0.1617  2.7929
  854SOL    HW2 2562   2.332   1.300   1.761 -1.9622 -1.1058 -1.4354
  855SOL     OW 2563   2.063   2.455   1.079 -0.6795 -0.0431  0.3495
  855SOL    HW1 2564   2.058   2.556   1.056  0.2765 -2.6113  0.1436
  855SOL    HW2 2565   2.154   2.435   1.127 -0.2455  1.5146  0.0143
  856SOL     OW 2566   1.351   1.407   0.941 -0.2614  0.3228  0.0232
  856SOL    HW1 2567   1.418   1.483   0.958 -1.1530 -0.5741  0.3600
  856SOL    HW2 2568   1.257   1.429   0.974  0.9078 -1.4573 -2.2611
  857SOL     OW 2569   3.031   2.720   0.990 -0.5497 -0.6547  0.0394
  857SOL    HW1 2570   3.002   2.644   0.924  0.8430  2.1922  0.0983
  857SOL    HW2 2571   3.130   2.744   0.971  1.6964  0.9126 -0.2512
  858SOL     OW 2572   2.336   2.103   1.714 -0.3478  0.1849  0.5092
  858SOL    HW1 2573   2.262   2.109   1.647  1.7665 -0.6634 -1.3693
  858SOL    HW2 2574   2.408   2.028   1.693  0.1082 -0.4270 -2.9816
  859SOL     OW 2575   2.483   0.583   1.085  0.6360 -0.1556 -0.3836
  859SOL    HW1 2576   2.534   0.614   1.001 -1.1975 -1.3201  0.1463
  859SOL    HW2 2577   2.477   0.478   1.089  0.4867 -0.2498 -1.5544
  860SOL     OW 2578   1.866   2.799   0.473  0.3035 -0.0548 -0.8640
  860SOL    HW1 2579   1.848   2.776   0.374  0.6338  0.0417 -0.4259
  860SOL    HW2 2580   1.887   2.892   0.488  0.7549 -2.3234 -1.5246
  861SOL     OW 2581   1.008   2.412   2.873  0.1010 -0.1052 -0.2526
  861SOL    HW1 2582   1.045   2.503   2.842  0.6995 -1.6227  0.1868
  861SOL    HW2 2583   0.993   2.417   2.975  1.2373 -3.8935 -1.2480
  862SOL     OW 2584   2.910   2.564   1.590 -0.6041  0.1358  0.0078
  862SOL    HW1 2585   2.983   2.595   1.659  0.0367  1.7185  1.0038
  862SOL    HW2 2586   2.865   2.655   1.554 -0.7984  1.1377 -0.6237
  863SOL     OW 2587   1.823   2.720   0.213  0.6208 -0.2854 -0.1556
  863SOL    HW1 2588   1.862   2.622   0.225  3.4133 -0.8403 -0.5183
  863SOL    HW2 2589   1.720   2.716   0.197  0.5492 -1.6345 -1.4911
  864SOL     OW 2590   2.002   1.215   2.825  0.0283  0.0029  0.2062
  864SOL    HW1 2591   1.999   1.154   2.743  0.1080  3.2052 -1.3366
  864SOL    HW2 2592   2.089   1.220   2.873 -3.5790 -2.0232  0.4772
  865SOL     OW 2593   2.161   1.925   0.706  0.6323 -0.6371 -0.3310
  865SOL    HW1 2594   2.239   1.892   0.765 -0.5164  0.5246  0.3705
  865SOL    HW2 2595   2.077   1.958   0.761  0.0504  0.9216 -3.9322
  866SOL     OW 2596   2.851   2.943   1.010 -0.3743 -0.2487 -0.0829
  866SOL    HW1 2597   2.851   2.980   0.917  1.1184 -0.6065  2.8406
  866SOL    HW2 2598   2.904   2.852   1.009 -2.4060  1.4146 -0.8329
  867SOL     OW 2599   0.341   1.407   0.913 -0.4137 -1.1386 -1.0350
  867SOL    HW1 2600   0.297   1.359   0.834  1.8087  0.6303  1.3915
  867SOL    HW2 2601   0.339   1.506   0.898 -1.8760 -0.1196  2.5053
  868SOL     OW 2602   0.767   1.898   2.100  0.0723  0.8387 -0.0678
  868SOL    HW1 2603   0.708   1.864   2.171 -0.3308  1.9880 -0.2761
  868SOL    HW2 2604   0.729   1.978   2.048  0.5753 -1.3176 -1.3053
  869SOL     OW 2605   2.568   1.957   1.642 -0.3939 -0.1334  0.8101
  869SOL    HW1 2606   2.658   1.997   1.613  0.4680 -1.1890  0.3422
  869SOL    HW2 2607   2.555   1.861   1.607  2.1324  2.4858  1.9734
  870SOL     OW 2608   2.289   2.692   1.241  0.0010 -0.5582  0.7068
  870SOL    HW1 2609   2.294   2.590   1.226  0.6802  0.6765 -0.2027
  870SOL    HW2 2610   2.265   2.725   1.333  1.6136  0.9961 -4.4167
  871SOL     OW 2611   0.030   2.302   0.538  0.0154  0.3804  0.5807
  871SOL    HW1 2612  -0.025   2.342   0.614  1.4791 -1.0261 -1.3230
  871SOL    HW2 2613  -0.023   2.285   0.448  1.7634 -1.3842  1.0142
  872SOL     OW 2614   2.117   0.458   1.678 -0.4094  0.5990  0.3387
  872SOL    HW1 2615   2.083   0.452   1.775  0.3230 -0.0985 -0.5961
  872SOL    HW2 2616   2.216   0.426   1.673  1.2158 -0.2646  0.3960
  873SOL     OW 2617   1.735   2.126   3.084  0.4771  0.7665 -0.6805
  873SOL    HW1 2618   1.641   2.101   3.121 -0.0630  3.1362  1.6747
  873SOL    HW2 2619   1.721   2.156   2.987 -1.6814 -1.1576 -2.2227
  874SOL     OW 2620   0.675   2.435   0.741 -0.1281 -0.4446 -0.0952
  874SOL    HW1 2621   0.670   2.537   0.756 -0.4768 -4.1735 -0.2790
  874SOL    HW2 2622   0.771   2.392   0.735  1.3569  0.3103 -2.3467
  875SOL     OW 2623   2.268   1.548   1.412  0.1031  0.4324  0.4512
  875SOL    HW1 2624   2.355   1.574   1.456 -2.2378 -2.0919 -0.6494
  875SOL    HW2 2625   2.262   1.580   1.311  2.5066 -2.2350  1.0971
  876SOL     OW 2626   0.077   2.306   2.678  0.2768  0.4138  0.4214
  876SOL    HW1 2627   0.090   2.211   2.727 -2.6160  1.8728  0.6348
  876SOL    HW2 2628   0.106   2.380   2.745 -0.8297  1.8041  2.1210
  877SOL     OW 2629   2.917   2.652   0.585  0.1811  0.9376 -0.3019
  877SOL    HW1 2630   2.934   2.752   0.583  0.7416 -1.2901 -0.0511
  877SOL    HW2 2631   2.971   2.602   0.660  1.9148  0.2651  0.4188
  878SOL     OW 2632   2.815   1.494   2.238  0.0958  0.0878 -0.3694
  878SOL    HW1 2633   2.805   1.575   2.172 -0.9117  1.5547 -0.7917
  878SOL    HW2 2634   2.781   1.515   2.334 -1.1645 -0.3219 -1.1343
  879SOL     OW 2635   2.387   0.086   1.279  0.4074 -0.0042 -0.3919
  879SOL    HW1 2636   2.431  -0.002   1.305  0.2316  0.2230 -0.0627
  879SOL    HW2 2637   2.308   0.072   1.212 -0.3125 -2.0630 -1.8762
  880SOL     OW 2638   0.757   0.506   2.259  0.2736 -0.2921  0.2467
  880SOL    HW1 2639   0.680   0.472   2.314 -2.2521  1.3771 -1.3095
  880SOL    HW2 2640   0.828   0.433   2.241  2.2364 -0.0770  2.6841
  881SOL     OW 2641   0.842   0.072   0.439 -0.0664  0.1097  0.3418
  881SOL    HW1 2642   0.894  -0.021   0.427  1.9294 -1.2053 -2.8771
  881SOL    HW2 2643   0.745   0.055   0.412 -2.1544 -3.0784  5.6554
  882SOL     OW 2644   2.716   1.668   1.701  0.0418  0.3860  0.6650
  882SOL    HW1 2645   2.795   1.613   1.652 -0.8846  1.0805 -1.2275
  882SOL    HW2 2646   2.739   1.698   1.794  2.2519 -2.4539  0.0587
  883SOL     OW 2647   0.856   0.505   0.932  0.4335 -0.1412 -0.0307
  883SOL    HW1 2648   0.900   0.591   0.967  1.2497 -2.5345 -0.4981
  883SOL    HW2 2649   0.788   0.457   0.997 -0.4647 -1.1522 -2.0590
  884SOL     OW 2650   1.091   1.754   1.165  0.0249  0.3491 -0.3263
  884SOL    HW1 2651   1.088   1.659   1.124 -0.1038 -3.6531 -0.8605
  884SOL    HW2 2652   1.066   1.830   1.093  1.5493 -0.3376  0.6925
  885SOL     OW 2653   2.325   1.817   2.263 -0.1452 -0.2388  0.2657
  885SOL    HW1 2654   2.240   1.767   2.301 -0.3025 -1.1648  1.3167
  885SOL    HW2 2655   2.331   1.922   2.258  0.1618  1.7697 -0.3725
  886SOL     OW 2656   2.608   0.335   1.809 -0.1070 -0.3813  0.0887
  886SOL    HW1 2657   2.596   0.231   1.811  0.0830  0.7455  0.6973
  886SOL    HW2 2658   2.707   0.374   1.802 -0.0122 -0.0491  0.5858
  887SOL     OW 2659   0.133   2.067   1.293 -0.3105 -0.0606 -0.0780
  887SOL    HW1 2660   0.153   2.016   1.205 -0.2256  0.3726  1.2599
  887SOL    HW2 2661   0.093   2.162   1.276  0.1762 -2.6100  1.0443
  888SOL     OW 2662   0.630   1.223   1.520  0.1490  0.1962 -0.0383
  888SOL    HW1 2663   0.665   1.276   1.441 -1.1529 -2.5830 -0.6397
  888SOL    HW2 2664   0.622   1.119   1.496 -1.4212  0.9149  1.0566
  889SOL     OW 2665   0.831   2.518   2.210 -0.0196 -0.4731 -0.3957
  889SOL    HW1 2666   0.742   2.470   2.186  1.0755 -0.7084 -0.2817
  889SOL    HW2 2667   0.910   2.487   2.151 -1.7025  1.7000 -0.3707
  890SOL     OW 2668   2.374   2.507   0.260  0.6119 -0.2844 -0.1306
  890SOL    HW1 2669   2.416   2.603   0.244  0.3801 -0.6807  2.3874
  890SOL    HW2 2670   2.300   2.500   0.334  1.4642  0.4387  1.4871
  891SOL     OW 2671   2.511   1.724   0.652  0.0520 -0.3564 -0.4488
  891SOL    HW1 2672   2.492   1.711   0.752  1.0536  0.4629  0.9496
  891SOL    HW2 2673   2.440   1.682   0.586 -2.1333 -1.0453  0.5393
  892SOL     OW 2674   0.417   0.317   2.275 -0.5981 -0.6901  0.8364
  892SOL    HW1 2675   0.428   0.390   2.198  1.1397 -1.5225 -2.1382
  892SOL    HW2 2676   0.496   0.318   2.341 -1.6269 -0.6134  0.1035
  893SOL     OW 2677   1.666   0.200   2.741 -0.4378 -0.2241  0.2553
  893SOL    HW1 2678   1.742   0.268   2.758  0.5915  0.1359 -0.8080
  893SOL    HW2 2679   1.588   0.259   2.699 -1.5801 -1.0262 -0.7209
  894SOL     OW 2680   2.175   2.059   0.085  0.2749 -0.1526 -0.1864
  894SOL    HW1 2681   2.160   2.004  -0.003 -2.5253  1.9549 -0.6108
  894SOL    HW2 2682   2.192   1.998   0.171  0.8479  0.1988  0.2342
  895SOL     OW 2683   2.792   1.429   0.896  0.0186  0.1022 -0.5498
  895SOL    HW1 2684   2.880   1.380   0.928  0.3412 -0.4643  1.8135
  895SOL    HW2 2685   2.792   1.531   0.906  0.8257 -3.3559 -1.8482
  896SOL     OW 2686   1.853   1.849   1.202 -0.1994 -0.2770 -0.0040
  896SOL    HW1 2687   1.867   1.746   1.202  0.7468 -1.0276 -1.3105
  896SOL    HW2 2688   1.784   1.885   1.137  0.9810 -0.1764  1.7472
  897SOL     OW 2689   0.284   0.570   3.052 -0.4555  0.3172  0.0241
  897SOL    HW1 2690   0.231   0.612   2.972 -0.8815 -2.4390  2.3179
  897SOL    HW2 2691   0.385   0.603   3.067  1.6736  1.4072 -2.9403
  898SOL     OW 2692   0.663   2.833   1.038 -0.0649  0.7429  0.1527
  898SOL    HW1 2693   0.677   2.934   1.059 -1.3186 -0.8686  0.5120
  898SOL    HW2 2694   0.717   2.767   1.097  0.5798  1.6773 -2.7399
  899SOL     OW 2695   2.797   0.856   1.391 -0.6125 -0.3733 -0.4989
  899SOL    HW1 2696   2.766   0.901   1.305 -0.2885 -3.7715  1.6062
  899SOL    HW2 2697   2.882   0.896   1.432 -3.1163  1.1027 -0.7302
  900SOL     OW 2698   0.995   2.478   2.506 -0.3507  0.3315 -0.5016
  900SOL    HW1 2699   0.927   2.487   2.435 -0.5099  0.8832 -1.2412
  900SOL    HW2 2700   0.982   2.407   2.582  0.7645  0.6072 -2.9099
  901SOL     OW 2701   1.909   2.437   1.366 -0.5375 -0.2312 -0.6831
  901SOL    HW1 2702   1.890   2.386   1.279 -2.3238 -1.1787  0.7554
  901SOL    HW2 2703   2.002   2.412   1.402  1.4073  1.2230  1.6888
  902SOL     OW 2704   2.529   1.670   1.491  0.2000 -0.1978 -0.8055
  902SOL    HW1 2705   2.594   1.647   1.572  0.7273 -3.0288  0.0468
  902SOL    HW2 2706   2.576   1.661   1.398  1.6414  2.6359  0.1445
  903SOL     OW 2707   0.322   2.487   1.993 -0.2257  0.2630 -0.0509
  903SOL    HW1 2708   0.259   2.404   1.986  0.2254 -0.1466 -0.3306
  903SOL    HW2 2709   0.320   2.539   1.903 -0.3539  0.6014 -0.7801
  904SOL     OW 2710   1.991   0.784   2.564 -0.0885 -0.0999  0.1457
  904SOL    HW1 2711   1.921   0.719   2.603  0.4966  2.4791 -0.6986
  904SOL    HW2 2712   2.000   0.765   2.462 -1.2368  1.3824 -1.3369
  905SOL     OW 2713   2.889   0.102   2.439  0.9673  0.5333  0.7185
  905SOL    HW1 2714   2.956   0.034   2.479  0.4084 -1.4657  1.5006
  905SOL    HW2 2715   2.916   0.198   2.476  2.4762  2.2754 -1.1222
  906SOL     OW 2716   0.169   1.657   1.879  0.1492 -0.3996 -0.1570
  906SOL    HW1 2717   0.108   1.690   1.802 -1.7533 -0.3752 -1.6627
  906SOL    HW2 2718   0.257   1.617   1.838  5.1534 -0.6494  0.8968
  907SOL     OW 2719   0.199   2.425   0.972  0.0828 -0.2848 -0.2411
  907SOL    HW1 2720   0.286   2.383   0.932  1.3217 -0.4062  0.6101
  907SOL    HW2 2721   0.202   2.527   0.981 -0.2282 -2.2153  1.4190
  908SOL     OW 2722   2.823   3.076   0.290 -0.7270  0.3880  0.4414
  908SOL    HW1 2723   2.727   3.045   0.271  0.0370  0.8233  1.5753
  908SOL    HW2 2724   2.880   2.991   0.298  1.9274  0.7764 -0.4855
  909SOL     OW 2725   0.841   1.067   2.683 -0.3524 -0.0900 -0.0070
  909SOL    HW1 2726   0.788   0.980   2.661  2.1986  1.3739 -2.2163
  909SOL    HW2 2727   0.905   1.091   2.602  0.2273  0.2276 -1.0428
  910SOL     OW 2728   1.769   1.867   2.162 -0.0176  0.4061 -0.7450
  910SOL    HW1 2729   1.811   1.908   2.078  2.2858  0.6410  1.1663
  910SOL    HW2 2730   1.691   1.923   2.199  0.3877 -0.1679  0.6974
  911SOL     OW 2731   1.813   2.973   1.547  0.8315 -0.0991 -0.0583
  911SOL    HW1 2732   1.876   2.970   1.463 -1.2694 -1.5580  0.5374
  911SOL    HW2 2733   1.832   2.894   1.613  0.0525 -0.0638  2.9647
  912SOL     OW 2734   2.847   1.032   0.711  0.2233  0.0012  0.3231
  912SOL    HW1 2735   2.865   0.987   0.803 -0.8389 -0.6878 -0.8846
  912SOL    HW2 2736   2.786   1.116   0.723  1.0375  3.4574  0.7049
  913SOL     OW 2737   2.557   1.232   1.524 -0.2387 -0.1719  0.2583
  913SOL    HW1 2738   2.570   1.124   1.525 -0.9190 -1.6859  0.7609
  913SOL    HW2 2739   2.605   1.288   1.451 -2.3098 -0.6529 -1.7382
  914SOL     OW 2740   2.741   0.629   1.154 -0.3446  0.5796  0.2447
  914SOL    HW1 2741   2.761   0.533   1.183 -3.8816 -0.7982 -0.5948
  914SOL    HW2 2742   2.639   0.642   1.158  0.8581 -1.6238  1.7937
  915SOL     OW 2743   1.228   0.766   1.034  0.0626  0.4317  0.5449
  915SOL    HW1 2744   1.272   0.794   1.128  0.8269  0.4424  0.5055
  915SOL    HW2 2745   1.141   0.710   1.041 -4.2896 -0.2138  0.5631
  916SOL     OW 2746   0.588   0.091   0.640  0.7298 -0.5358 -0.0724
  916SOL    HW1 2747   0.650   0.135   0.715  1.1252  0.6845 -0.0196
  916SOL    HW2 2748   0.555   0.161   0.573  3.7336  3.5593 -0.1141
  917SOL     OW 2749   2.898   2.578   1.981  0.0786  0.1598 -0.3127
  917SOL    HW1 2750   2.810   2.623   1.946  2.0270  0.4315  2.0692
  917SOL    HW2 2751   2.969   2.574   1.901  0.2156  1.9550 -1.3655
  918SOL     OW 2752   1.034   2.060   3.001  0.3119 -0.0648  0.1440
  918SOL    HW1 2753   1.043   2.132   3.073  2.9198  0.0305 -2.8727
  918SOL    HW2 2754   1.103   2.073   2.926 -1.8987  0.2338 -2.1919
  919SOL     OW 2755   0.838   1.697   2.808 -0.3713 -0.0860  0.6590
  919SOL    HW1 2756   0.890   1.758   2.746 -1.3526 -1.0462  0.6293
  919SOL    HW2 2757   0.780   1.626   2.759 -0.2822 -0.7912  1.9822
  920SOL     OW 2758   1.264   1.769   2.555 -0.0028  0.0683  0.2117
  920SOL    HW1 2759   1.353   1.761   2.498 -0.5805  1.1968  0.5874
  920SOL    HW2 2760   1.257   1.721   2.647  0.4538  1.2863  0.3668
  921SOL     OW 2761   1.127   0.002   2.633  0.1182  0.0831 -0.0239
  921SOL    HW1 2762   1.108  -0.025   2.536  0.7178 -0.7870 -0.4051
  921SOL    HW2 2763   1.034   0.032   2.679 -0.1290 -0.3478  1.2734
  922SOL     OW 2764   2.166   2.382   2.779 -0.4161  0.3245  0.8960
  922SOL    HW1 2765   2.180   2.276   2.789  0.6725 -3.2181 -0.3127
  922SOL    HW2 2766   2.147   2.420   2.687  0.7198 -0.6322  0.0433
  923SOL     OW 2767   1.267   2.700   0.278 -0.0725 -0.2056  0.3282
  923SOL    HW1 2768   1.338   2.761   0.318  1.2359 -0.1525 -1.4606
  923SOL    HW2 2769   1.307   2.609   0.253 -0.5478 -1.2991 -3.5727
  924SOL     OW 2770   2.900   1.673   0.134  0.3972  0.7114 -0.3880
  924SOL    HW1 2771   2.821   1.622   0.088 -1.5895 -1.5069 -0.6007
  924SOL    HW2 2772   2.987   1.621   0.150 -1.1925 -0.4984 -0.9080
  925SOL     OW 2773   0.037   2.865   1.502 -0.1300 -0.4772 -0.5155
  925SOL    HW1 2774   0.038   2.795   1.578  0.2310 -1.9881 -0.6241
  925SOL    HW2 2775   0.003   2.819   1.417 -1.5558  1.7681  0.5777
  926SOL     OW 2776   1.306   2.837   1.329  0.4005  0.4041 -0.4179
  926SOL    HW1 2777   1.348   2.863   1.232  1.2108 -1.7837 -0.5921
  926SOL    HW2 2778   1.329   2.919   1.393 -2.5315  1.1183 -0.5146
  927SOL     OW 2779   0.341   2.650   1.742  0.4019  0.5272 -0.1019
  927SOL    HW1 2780   0.295   2.588   1.674 -0.0925 -0.0313 -0.3457
  927SOL    HW2 2781   0.314   2.749   1.738 -0.5784  1.4692 -0.1852
  928SOL     OW 2782   1.599   2.081   2.236  0.6256  0.3141 -0.2081
  928SOL    HW1 2783   1.630   2.159   2.177 -0.0575 -1.8286  0.9706
  928SOL    HW2 2784   1.503   2.057   2.210  0.0045  1.8832 -1.2656
  929SOL     OW 2785   2.420   2.490   2.876  0.4883  0.1164 -0.2874
  929SOL    HW1 2786   2.321   2.462   2.849 -1.6496  2.4681  1.9567
  929SOL    HW2 2787   2.482   2.511   2.798  0.4097 -0.4975  2.6838
  930SOL     OW 2788   2.145   1.954   1.096 -0.2669 -0.1498 -0.1337
  930SOL    HW1 2789   2.136   1.897   1.183  0.0083 -2.0525 -0.9876
  930SOL    HW2 2790   2.197   2.047   1.115  1.0346  3.1528  0.5190
  931SOL     OW 2791   0.527   1.753   2.624 -0.0959  0.8970 -0.2687
  931SOL    HW1 2792   0.522   1.765   2.727  0.2817 -1.6219  1.1129
  931SOL    HW2 2793   0.600   1.679   2.598  0.5358 -0.8558  1.9612
  932SOL     OW 2794   0.351   0.083   3.097  0.3877 -0.3420 -0.2473
  932SOL    HW1 2795   0.441   0.128   3.106 -0.5994  1.0861  0.2055
  932SOL    HW2 2796   0.352  -0.015   3.064 -0.6608  0.2997  0.3973
  933SOL     OW 2797   0.932   0.840   2.994 -0.6110  0.1646  0.0634
  933SOL    HW1 2798   0.960   0.811   3.088  0.7883  1.2090 -2.3605
  933SOL    HW2 2799   0.888   0.937   2.992 -2.2190  1.5216  2.0469
  934SOL     OW 2800   0.747   2.968   2.695  0.1502  0.4411 -0.2277
  934SOL    HW1 2801   0.706   2.930   2.606 -0.1045 -2.7575 -3.8332
  934SOL    HW2 2802   0.828   2.915   2.731  1.4652  3.9633  0.6294
  935SOL     OW 2803   0.035   0.534   0.836 -0.7216 -0.0723  0.0351
  935SOL    HW1 2804   0.027   0.496   0.737  1.6319 -2.2921  1.3585
  935SOL    HW2 2805  -0.045   0.585   0.871 -0.7315 -0.1762 -0.8435
  936SOL     OW 2806   1.083   2.830   0.090  0.0601  0.0248 -0.3136
  936SOL    HW1 2807   1.110   2.883   0.002 -0.9751 -0.2999 -3.1274
  936SOL    HW2 2808   1.166   2.783   0.136 -1.5061  0.4474  1.7180
  937SOL     OW 2809   1.890   2.665   2.092  0.0380  0.1181  0.3806
  937SOL    HW1 2810   1.792   2.640   2.115 -0.0601  1.7629  0.8350
  937SOL    HW2 2811   1.897   2.721   2.006  1.4013  0.6527  0.1711
  938SOL     OW 2812   2.799   2.087   1.583 -0.3026  0.0329  0.1817
  938SOL    HW1 2813   2.767   2.177   1.622 -0.3814 -1.8490 -0.0721
  938SOL    HW2 2814   2.889   2.059   1.627 -2.6563 -1.0018  1.2758
  939SOL     OW 2815   2.785   1.226   2.440  0.0639 -0.5402 -0.2590
  939SOL    HW1 2816   2.860   1.190   2.372  1.2212 -2.0535 -1.0014
  939SOL    HW2 2817   2.787   1.170   2.528 -2.3421 -2.4394  0.1608
  940SOL     OW 2818   1.053   0.471   2.766  0.7111 -0.2410  0.2066
  940SOL    HW1 2819   1.133   0.407   2.783  1.5448  1.1087  0.1599
  940SOL    HW2 2820   0.993   0.456   2.678 -1.4535  1.2167 -1.0258
  941SOL     OW 2821   0.027   2.766   2.289  0.0027  0.5432  0.0583
  941SOL    HW1 2822   0.110   2.701   2.267  2.6355 -0.0881  1.1669
  941SOL    HW2 2823   0.067   2.853   2.334 -1.9865 -0.8914  0.0337
  942SOL     OW 2824   0.107   0.087   2.564  0.6847  0.0578  0.2982
  942SOL    HW1 2825   0.175   0.089   2.644  0.4300 -1.4225 -0.5511
  942SOL    HW2 2826   0.096   0.174   2.508 -1.1076 -0.9218  0.8662
  943SOL     OW 2827   2.092   1.676   2.351 -0.0471 -1.0586  0.3792
  943SOL    HW1 2828   2.083   1.624   2.262 -1.8670  2.2417  1.4171
  943SOL    HW2 2829   2.089   1.617   2.437 -0.9466  2.1857 -0.1578
  944SOL     OW 2830   2.169   2.390   1.468  0.4400 -0.1308 -0.0296
  944SOL    HW1 2831   2.271   2.401   1.494  3.4344  2.1037  0.5656
  944SOL    HW2 2832   2.124   2.303   1.500 -0.7287 -0.3638 -1.3176
  945SOL     OW 2833   0.697   1.575   0.086 -0.7545  0.1934  0.5855
  945SOL    HW1 2834   0.617   1.583   0.020  3.1699 -3.5204 -2.4081
  945SOL    HW2 2835   0.687   1.493   0.153 -1.5239 -0.6682  1.3420
  946SOL     OW 2836   0.406   0.959   2.525 -0.4196 -0.4145  0.0219
  946SOL    HW1 2837   0.338   0.930   2.455 -0.2788  1.3302  2.1360
  946SOL    HW2 2838   0.418   1.060   2.525 -1.3557 -1.1064  0.9372
  947SOL     OW 2839   1.481   0.499   3.084  0.7280 -0.1984 -0.0883
  947SOL    HW1 2840   1.476   0.562   3.000 -0.2758  1.3048  0.9941
  947SOL    HW2 2841   1.384   0.458   3.108  0.7854  1.2603 -1.2736
  948SOL     OW 2842   1.867   3.006   2.180 -0.3730 -0.3124  0.4285
  948SOL    HW1 2843   1.910   2.955   2.100  2.3886  0.7386 -2.0005
  948SOL    HW2 2844   1.859   2.942   2.262  0.2964  0.0207 -1.9673
  949SOL     OW 2845   0.613   2.468   0.481  0.5749  0.7468  0.5419
  949SOL    HW1 2846   0.613   2.573   0.456  1.6032  0.2373  1.0906
  949SOL    HW2 2847   0.638   2.461   0.581  0.3241  2.2381 -0.3954
  950SOL     OW 2848   0.176   2.256   2.993  0.1856 -0.0683  0.5205
  950SOL    HW1 2849   0.140   2.355   2.979 -1.7558  2.9427  0.9243
  950SOL    HW2 2850   0.163   2.195   2.909  1.4747  0.3030 -1.4013
  951SOL     OW 2851   1.169   2.629   2.780  0.1401 -0.3882 -0.0128
  951SOL    HW1 2852   1.232   2.589   2.855 -0.4651 -0.1219 -0.6214
  951SOL    HW2 2853   1.214   2.641   2.687  0.8536 -0.3886 -1.2284
  952SOL     OW 2854   0.035   1.650   0.415 -0.3828 -0.2023 -0.0005
  952SOL    HW1 2855   0.081   1.749   0.424  0.1305 -0.1532  0.6973
  952SOL    HW2 2856   0.074   1.589   0.488 -1.2127  1.7957  1.6948
  953SOL     OW 2857   2.560   1.752   0.218  0.2132 -0.8933 -1.0367
  953SOL    HW1 2858   2.554   1.650   0.242 -0.2554  0.8226 -3.2836
  953SOL    HW2 2859   2.487   1.786   0.151 -0.9839  0.3713 -1.0756
  954SOL     OW 2860   2.186   0.602   0.947  0.5061  0.1378  0.6155
  954SOL    HW1 2861   2.188   0.571   0.850 -1.0018  1.1479  0.0988
  954SOL    HW2 2862   2.283   0.591   0.981  2.5623 -0.1711  0.3690
  955SOL     OW 2863   0.116   2.562   1.389  0.3179 -0.0715  0.9577
  955SOL    HW1 2864   0.042   2.602   1.332  4.1540  0.7164 -1.5604
  955SOL    HW2 2865   0.196   2.628   1.402  2.2856  1.9169  1.3498
  956SOL     OW 2866   2.795   2.463   2.514 -0.0821 -0.2698 -0.3128
  956SOL    HW1 2867   2.788   2.364   2.493 -0.1344 -1.4351  0.7201
  956SOL    HW2 2868   2.822   2.518   2.429  2.9441  0.3587 -1.0325
  957SOL     OW 2869   1.562   2.094   2.763  0.2664  0.3311  1.0255
  957SOL    HW1 2870   1.508   2.010   2.794  0.0990 -1.2091  0.1155
  957SOL    HW2 2871   1.637   2.072   2.697 -4.3209  1.0079 -0.1239
  958SOL     OW 2872   2.591   2.299   2.966 -0.0532 -0.2823  0.4989
  958SOL    HW1 2873   2.513   2.364   2.949 -3.3066 -3.1508  0.5413
  958SOL    HW2 2874   2.606   2.281   3.066  1.9257 -0.3577 -0.8730
  959SOL     OW 2875   0.310   2.800   0.082  0.0284 -0.1965 -0.6302
  959SOL    HW1 2876   0.240   2.844   0.138  0.7074  0.4334 -0.2298
  959SOL    HW2 2877   0.313   2.696   0.100  3.0395  0.2560  1.8090
  960SOL     OW 2878   2.003   0.445   1.936  0.6470  0.1686 -0.5880
  960SOL    HW1 2879   1.944   0.525   1.903  1.3155 -0.0595  0.6821
  960SOL    HW2 2880   1.990   0.435   2.041  0.1553 -0.7114  1.2500
  961SOL     OW 2881   2.578   1.915   1.054 -0.0964  0.7763  0.0109
  961SOL    HW1 2882   2.577   2.012   1.015  0.1513 -1.4119 -0.8821
  961SOL    HW2 2883   2.530   1.902   1.147 -0.0050 -1.5393 -0.0584
  962SOL     OW 2884   1.325   0.904   0.084 -1.0094  0.5107  0.0468
  962SOL    HW1 2885   1.285   0.933  -0.012  1.2443  0.7481  0.8605
  962SOL    HW2 2886   1.299   0.972   0.155 -0.9596 -3.0655 -0.9942
  963SOL     OW 2887   2.303   2.541   1.824  0.2618 -0.2797 -0.5100
  963SOL    HW1 2888   2.244   2.454   1.849 -1.6249  1.7961  0.8686
  963SOL    HW2 2889   2.316   2.607   1.904  0.7889 -1.6911  3.6298
  964SOL     OW 2890   2.377   0.363   1.659  0.2295 -0.4004  0.7135
  964SOL    HW1 2891   2.465   0.377   1.714  2.9996  1.4809  0.0773
  964SOL    HW2 2892   2.388   0.391   1.557  0.6565  0.6583  0.1766
  965SOL     OW 2893   2.586   2.983   0.173  0.5539  0.0879 -0.5390
  965SOL    HW1 2894   2.664   3.000   0.107  1.4083  0.2801 -1.8200
  965SOL    HW2 2895   2.493   3.021   0.141 -0.9188  1.4536 -0.8009
  966SOL     OW 2896   2.524   2.538   2.229  0.0062 -0.3385  1.1212
  966SOL    HW1 2897   2.584   2.618   2.257  0.4312 -0.3844  1.7384
  966SOL    HW2 2898   2.444   2.574   2.181  0.5968  0.8659 -0.2159
  967SOL     OW 2899   2.790   2.813   2.452 -0.0720 -0.2718  0.0090
  967SOL    HW1 2900   2.827   2.733   2.396  1.3361 -4.1081  2.4783
  967SOL    HW2 2901   2.861   2.860   2.510  0.4207 -0.0389 -1.4488
  968SOL     OW 2902   1.940   1.066   2.620 -0.8339  0.0846 -0.4694
  968SOL    HW1 2903   1.859   1.126   2.592  1.4796 -0.6554  2.4090
  968SOL    HW2 2904   1.949   0.976   2.566  1.6457 -1.6645 -0.3821
  969SOL     OW 2905   2.744   2.456   1.104  0.2064 -0.1756  0.4555
  969SOL    HW1 2906   2.718   2.440   1.006 -1.6408 -1.7447  0.7434
  969SOL    HW2 2907   2.811   2.387   1.146 -0.0680 -0.5578  0.1475
  970SOL     OW 2908   1.093   2.109   1.862  0.1918 -0.0116 -0.0292
  970SOL    HW1 2909   1.017   2.069   1.808 -1.7618 -0.7902  1.7034
  970SOL    HW2 2910   1.056   2.145   1.955 -0.3466 -0.0705 -0.6090
  971SOL     OW 2911   2.896   2.055   2.032 -0.1975 -0.6081  0.7116
  971SOL    HW1 2912   2.892   2.153   2.071 -1.6591  2.2524  1.4086
  971SOL    HW2 2913   2.942   2.050   1.938  1.7110  1.2065 -2.0597
  972SOL     OW 2914   1.977   2.492   0.238 -0.1417  0.2413 -0.1693
  972SOL    HW1 2915   1.969   2.395   0.193 -1.3610 -0.6924 -1.9140
  972SOL    HW2 2916   1.969   2.499   0.342  1.1346  0.2386 -2.0121
  973SOL     OW 2917   1.241   0.937   1.863  0.0509  0.7713  0.2200
  973SOL    HW1 2918   1.198   0.843   1.883  0.3560  0.3585  1.7508
  973SOL    HW2 2919   1.169   1.015   1.858 -1.0953 -0.6333  0.3012
  974SOL     OW 2920   1.589   0.591   1.905 -0.9973  0.3885 -0.0256
  974SOL    HW1 2921   1.688   0.605   1.884 -3.2962 -0.8773 -0.5146
  974SOL    HW2 2922   1.541   0.675   1.929  0.2456 -1.9927 -1.7451
  975SOL     OW 2923   2.349   3.057   0.024  0.0309  0.0717  0.3422
  975SOL    HW1 2924   2.307   2.960   0.023  0.6135 -0.2015 -1.3378
  975SOL    HW2 2925   2.317   3.107  -0.061  1.8902  1.5483  1.6504
  976SOL     OW 2926   1.866   2.838   2.368 -0.3550 -0.3892 -0.0391
  976SOL    HW1 2927   1.794   2.769   2.353  2.6867 -1.0235  0.9141
  976SOL    HW2 2928   1.910   2.831   2.461 -1.4977  0.5243  1.5040
  977SOL     OW 2929   0.533   0.595   0.970  0.0854  0.2128  0.3390
  977SOL    HW1 2930   0.445   0.613   0.939  2.0252 -0.8375  0.6020
  977SOL    HW2 2931   0.599   0.670   0.957  0.0200 -2.1239 -2.1251
   3.10000   3.10000   3.10000
