1000 SPC/Fw water molecules t=   0.44000 step= 440
 2931
    1SOL     OW    1   2.510   0.314   2.624 -0.8573  0.3280  0.1464
    1SOL    HW1    2   2.507   0.211   2.617 -2.3672  0.2643 -0.5838
    1SOL    HW2    3   2.568   0.356   2.702  0.6586 -0.6992  2.5873
    2SOL     OW    4   2.711   3.058   1.452  0.4935 -0.2343 -0.2277
    2SOL    HW1    5   2.782   3.091   1.382  1.1357 -0.2270  0.3826
    2SOL    HW2    6   2.681   3.138   1.515  0.7792 -4.8506  2.8086
    3SOL     OW    7   2.742   2.599   0.389  0.0336  0.2142 -0.0363
    3SOL    HW1    8   2.732   2.495   0.380 -0.8616  1.3672 -2.2395
    3SOL    HW2    9   2.802   2.621   0.471 -1.9783 -0.9090 -0.8119
    4SOL     OW   10   1.324   1.495   2.347 -0.0944  0.5239 -0.2251
    4SOL    HW1   11   1.224   1.516   2.308 -2.8827  1.5622  0.5830
    4SOL    HW2   12   1.330   1.415   2.415 -1.0407 -2.3851 -1.7774
    5SOL     OW   13   1.199   1.509   3.037 -0.1011  0.1676  0.0943
    5SOL    HW1   14   1.257   1.570   3.095  1.7183  0.2383 -0.5646
    5SOL    HW2   15   1.100   1.542   3.024  0.4923  2.5616 -0.0599
    6SOL     OW   16   0.037   1.780   2.898  0.1922 -0.2237  0.6514
    6SOL    HW1   17   0.028   1.837   2.987 -2.1484 -1.1584 -0.6703
    6SOL    HW2   18   0.036   1.680   2.924  2.4241  2.1328  0.1834
    7SOL     OW   19   2.561   0.886   1.160  0.3246 -0.0030  0.1440
    7SOL    HW1   20   2.458   0.870   1.176 -1.8415  1.0775 -3.7171
    7SOL    HW2   21   2.572   0.923   1.063  1.0526 -2.0436  2.7731
    8SOL     OW   22   0.418   0.629   1.532  0.7775 -0.4540 -0.4254
    8SOL    HW1   23   0.502   0.578   1.561 -0.9166  0.4851  0.4157
    8SOL    HW2   24   0.368   0.587   1.451 -0.2399 -2.2799  1.2397
    9SOL     OW   25   1.146   0.965   2.255  0.0266 -0.2496  0.3185
    9SOL    HW1   26   1.209   1.040   2.209 -0.6459  2.4649  1.0992
    9SOL    HW2   27   1.082   0.927   2.186  0.8832  1.3164  3.1223
   10SOL     OW   28   0.714   1.350   1.267  0.2295 -0.2021  0.3409
   10SOL    HW1   29   0.616   1.382   1.258  0.2974  3.1372 -0.0789
   10SOL    HW2   30   0.774   1.438   1.269  0.4536 -1.8399  2.2910
   11SOL     OW   31   2.360   2.680   0.965  0.0149  0.5569 -0.6969
   11SOL    HW1   32   2.330   2.715   1.061  1.9772  1.2492 -0.1778
   11SOL    HW2   33   2.458   2.644   0.964  3.3893 -0.9028  1.3780
   12SOL     OW   34   1.441   0.913   0.395  0.1510 -0.5454 -0.5021
   12SOL    HW1   35   1.377   0.979   0.346  0.6396  0.1257 -0.1513
   12SOL    HW2   36   1.472   0.836   0.333  0.4347 -0.9864  0.7418
   13SOL     OW   37   2.531   0.664   1.803 -0.1101 -0.4113 -0.7066
   13SOL    HW1   38   2.447   0.661   1.866  0.3492  1.5175  0.4189
   13SOL    HW2   39   2.504   0.623   1.709 -0.5483  1.6494 -1.4262
   14SOL     OW   40   1.978   0.039   0.685 -0.9026 -0.0483  0.0803
   14SOL    HW1   41   1.895   0.094   0.653  0.3020 -0.3336  1.8003
   14SOL    HW2   42   1.956  -0.053   0.727  0.8090  1.7526 -1.0104
   15SOL     OW   43   1.954   2.010   2.854  0.3287 -0.2927 -0.3151
   15SOL    HW1   44   1.922   2.106   2.886 -1.3339  0.2850  0.4194
   15SOL    HW2   45   1.892   1.971   2.776  0.8929 -0.1157  1.0511
   16SOL     OW   46   1.617   1.733   3.096 -0.3291  0.1795 -0.3906
   16SOL    HW1   47   1.613   1.627   3.082  0.5845 -0.5560  0.2713
   16SOL    HW2   48   1.708   1.769   3.136 -1.7439  0.6779  1.4206
   17SOL     OW   49   0.081   0.495   0.120  0.1243  0.0974 -0.2924
   17SOL    HW1   50   0.180   0.522   0.098  0.4302 -0.0824 -0.9177
   17SOL    HW2   51   0.012   0.520   0.045 -2.3430  2.2546  0.7872
   18SOL     OW   52   0.992   2.905   2.177 -0.1971  0.6550  0.3897
   18SOL    HW1   53   0.902   2.874   2.139  0.6231  0.8759  1.6178
   18SOL    HW2   54   1.075   2.859   2.133  2.9824  0.3344 -2.1979
   19SOL     OW   55   0.535   0.848   1.936  0.3816 -0.4529 -0.5305
   19SOL    HW1   56   0.550   0.904   2.024  2.4145 -0.1274  1.9713
   19SOL    HW2   57   0.619   0.839   1.876  1.2521 -0.1518 -0.6765
   20SOL     OW   58   0.169   2.804   0.836 -0.5650  0.1440  0.1301
   20SOL    HW1   59   0.098   2.864   0.795  2.5774  2.2055 -0.8516
   20SOL    HW2   60   0.235   2.778   0.763 -1.7325 -2.6023  2.6087
   21SOL     OW   61   2.784   0.179   2.128 -0.3127 -0.0479 -0.5482
   21SOL    HW1   62   2.819   0.102   2.068  2.2001  0.2456 -2.9837
   21SOL    HW2   63   2.820   0.167   2.226  2.2205  0.4665  0.4388
   22SOL     OW   64   2.321   0.233   0.017  0.0150 -0.2890  0.5309
   22SOL    HW1   65   2.313   0.130   0.015 -0.1314  1.1511 -0.0598
   22SOL    HW2   66   2.225   0.280   0.020 -2.2243  1.1291  2.9581
   23SOL     OW   67   2.796   0.638   0.645 -0.5598 -0.2123 -0.0876
   23SOL    HW1   68   2.791   0.549   0.595 -0.3358  1.8327  0.2521
   23SOL    HW2   69   2.748   0.712   0.586  1.8025 -0.0343 -2.4775
   24SOL     OW   70   0.144   1.923   0.420 -0.0159  0.1232 -0.5127
   24SOL    HW1   71   0.067   1.926   0.345  0.5564  1.3883 -4.0716
   24SOL    HW2   72   0.235   1.910   0.369  0.7019  2.4376 -4.5867
   25SOL     OW   73   2.253   0.493   0.213 -0.5598  0.4966  0.2992
   25SOL    HW1   74   2.342   0.437   0.229  3.3169  0.8126 -1.7964
   25SOL    HW2   75   2.249   0.512   0.112  0.1386 -0.5135  2.7470
   26SOL     OW   76   2.494   2.197   2.090  1.0005  0.3411 -0.1509
   26SOL    HW1   77   2.570   2.223   2.158  0.0163  0.8545 -2.5727
   26SOL    HW2   78   2.512   2.108   2.037 -1.1079 -2.2687 -0.7894
   27SOL     OW   79   0.646   2.980   0.114 -0.6042 -0.4103  0.4581
   27SOL    HW1   80   0.746   3.008   0.122  0.5749 -0.5879 -0.3727
   27SOL    HW2   81   0.601   3.029   0.034  0.6228  2.0447 -0.8810
   28SOL     OW   82   1.571   0.174   0.279  0.3222  0.1630 -0.0903
   28SOL    HW1   83   1.607   0.159   0.182  0.4553  0.5125  1.1136
   28SOL    HW2   84   1.583   0.275   0.305 -1.5495  1.8195  0.6616
   29SOL     OW   85   2.034   0.540   0.372 -0.5028 -0.2546  0.7360
   29SOL    HW1   86   1.993   0.621   0.329  2.1099 -1.7430  0.0366
   29SOL    HW2   87   2.126   0.507   0.322  0.8023 -0.9080 -0.5715
   30SOL     OW   88   0.141   2.035   0.924  0.4144  0.4268 -0.2128
   30SOL    HW1   89   0.122   2.020   0.823 -0.0063  0.0079 -0.5752
   30SOL    HW2   90   0.068   2.087   0.966  3.2228 -0.7624  3.3423
   31SOL     OW   91   2.104   0.014   2.300  0.2113 -0.0179  0.0074
   31SOL    HW1   92   2.111  -0.016   2.398  1.5161  0.9652 -0.6496
   31SOL    HW2   93   2.018  -0.028   2.254  2.0186 -1.3167 -2.2377
   32SOL     OW   94   2.931   0.189   0.170  0.5463  0.0747  0.5517
   32SOL    HW1   95   2.896   0.101   0.221 -0.2855 -1.5348  1.6487
   32SOL    HW2   96   3.014   0.232   0.206 -0.7124  0.3711  1.0804
   33SOL     OW   97   0.925   0.321   0.504 -0.4523 -0.0778  0.2082
   33SOL    HW1   98   0.890   0.222   0.488  3.0251 -4.3162  3.3931
   33SOL    HW2   99   1.019   0.328   0.558 -1.4692  0.7277 -1.5274
   34SOL     OW  100   0.387   2.840   1.020 -0.1786 -0.1379 -0.5877
   34SOL    HW1  101   0.335   2.781   0.953 -0.4562  3.8154 -2.0665
   34SOL    HW2  102   0.490   2.827   1.027 -0.7766 -1.1941 -1.1273
   35SOL     OW  103   0.039   0.118   1.858  0.0291  1.0351  0.3556
   35SOL    HW1  104   0.098   0.032   1.883  0.3244  0.6646  0.5235
   35SOL    HW2  105  -0.024   0.101   1.775 -0.3485  2.0619 -0.4897
   36SOL     OW  106   1.936   1.117   1.820 -0.1394 -0.2841  0.1819
   36SOL    HW1  107   1.981   1.108   1.722 -0.1685 -0.7938 -1.5440
   36SOL    HW2  108   1.988   1.190   1.876  0.5389  0.6513  4.1127
   37SOL     OW  109   1.189   0.212   0.948 -0.0845 -0.6910  0.2602
   37SOL    HW1  110   1.227   0.296   0.990 -1.7561 -1.9507 -0.0608
   37SOL    HW2  111   1.248   0.131   0.963  0.1801 -1.3374 -0.8409
   38SOL     OW  112   1.068   2.698   2.414  0.1994  0.3282 -0.1276
   38SOL    HW1  113   1.022   2.615   2.462 -1.1419  1.1495  0.8443
   38SOL    HW2  114   1.004   2.773   2.407  3.4044 -0.5347 -1.7096
   39SOL     OW  115   2.325   1.374   2.998  0.1540 -0.4963 -0.0375
   39SOL    HW1  116   2.424   1.338   3.008  0.4058 -0.4554  1.4722
   39SOL    HW2  117   2.277   1.364   3.087  0.0580 -0.8257  1.0916
   40SOL     OW  118   2.116   2.511   2.527  0.9225 -0.3543 -0.0788
   40SOL    HW1  119   2.106   2.612   2.546  3.5944  1.5403  1.7989
   40SOL    HW2  120   2.037   2.460   2.488 -1.2100 -2.3931 -0.1575
   41SOL     OW  121   2.926   0.709   2.752  0.1672  0.3163  0.2017
   41SOL    HW1  122   2.834   0.757   2.762  0.5613  2.8000 -1.8034
   41SOL    HW2  123   2.928   0.609   2.769 -0.1323  2.7122 -0.1469
   42SOL     OW  124   1.753   1.775   0.566 -0.2666  0.2801 -0.5053
   42SOL    HW1  125   1.705   1.697   0.522 -2.7253  0.6286  0.7822
   42SOL    HW2  126   1.819   1.819   0.497 -0.0709  0.1720  1.0222
   43SOL     OW  127   0.469   1.744   1.184  0.3560 -0.0397 -0.9017
   43SOL    HW1  128   0.438   1.676   1.255  0.0169 -2.4085 -0.4080
   43SOL    HW2  129   0.394   1.771   1.115  0.1505 -0.4368  1.0253
   44SOL     OW  130   1.792   2.521   3.087  0.2127 -0.5739 -0.9425
   44SOL    HW1  131   1.779   2.560   2.996  1.6522 -0.7372 -2.1803
   44SOL    HW2  132   1.886   2.533   3.129  2.3515 -2.3105  1.2303
   45SOL     OW  133   0.287   1.889   2.602  0.1696 -0.4109 -0.0598
   45SOL    HW1  134   0.260   1.911   2.505  0.3702  1.0478  1.2155
   45SOL    HW2  135   0.338   1.800   2.607 -1.6590  0.7700 -0.5786
   46SOL     OW  136   1.179   0.666   0.223  0.5889  0.4764 -0.5910
   46SOL    HW1  137   1.243   0.740   0.195  0.6108 -1.0296 -0.8552
   46SOL    HW2  138   1.077   0.684   0.219  1.2467  0.2604 -0.5290
   47SOL     OW  139   0.214   2.440   1.627  0.0373 -0.0608  0.7350
   47SOL    HW1  140   0.295   2.386   1.592 -1.8023  3.4987  2.3738
   47SOL    HW2  141   0.137   2.444   1.557 -0.0565  0.4406 -2.1498
   48SOL     OW  142   2.593   0.604   0.149  0.2499  0.2196  0.3932
   48SOL    HW1  143   2.545   0.610   0.245 -3.8902  1.4494  3.8155
   48SOL    HW2  144   2.702   0.607   0.150 -0.0566  1.2552 -3.1355
   49SOL     OW  145   0.362   0.808   1.734 -0.0228  0.0285 -0.3878
   49SOL    HW1  146   0.427   0.811   1.816  2.1423 -0.6535 -2.5788
   49SOL    HW2  147   0.399   0.738   1.663  0.8256 -0.1046  0.2332
   50SOL     OW  148   1.681   1.099   0.359 -0.2074  0.7309 -0.5104
   50SOL    HW1  149   1.662   1.002   0.332 -2.2836 -2.5235 -2.7317
   50SOL    HW2  150   1.631   1.125   0.442 -0.0425  0.2612 -1.0216
   51SOL     OW  151   2.989   1.908   0.319 -0.2522  0.3721 -0.5270
   51SOL    HW1  152   2.978   1.889   0.218 -1.1045 -0.0474  0.6502
   51SOL    HW2  153   2.926   1.846   0.377 -1.1952  1.6343 -1.0850
   52SOL     OW  154   0.789   1.950   0.510 -0.1817 -0.3509  0.2807
   52SOL    HW1  155   0.717   1.992   0.569  1.0374  0.9458  2.0316
   52SOL    HW2  156   0.828   1.858   0.552 -0.4508 -0.5688  1.8010
   53SOL     OW  157   3.085   0.358   1.552  0.0175 -0.0498 -0.2095
   53SOL    HW1  158   3.029   0.356   1.634 -0.1619 -0.0374 -2.4896
   53SOL    HW2  159   3.068   0.435   1.484 -0.6711  1.7031 -0.9686
   54SOL     OW  160   1.752   0.466   3.068  0.6152 -0.4694  0.3938
   54SOL    HW1  161   1.795   0.431   3.157  0.5114 -1.8676 -0.5507
   54SOL    HW2  162   1.643   0.468   3.067 -3.3235  1.4458  0.4922
   55SOL     OW  163   0.730   2.913   0.586 -0.0048 -0.6162  0.0532
   55SOL    HW1  164   0.704   3.010   0.611  2.4030 -0.7580  3.0410
   55SOL    HW2  165   0.825   2.924   0.536  1.1608 -1.2573  2.6970
   56SOL     OW  166   0.453   1.570   3.028 -0.1288 -0.0061 -0.0143
   56SOL    HW1  167   0.389   1.635   3.082 -0.5408 -2.3686  1.9499
   56SOL    HW2  168   0.400   1.495   2.996  1.8614  0.6261  0.0467
   57SOL     OW  169   1.812   2.454   2.664 -0.3629  0.6522 -0.7358
   57SOL    HW1  170   1.879   2.441   2.585  0.8578  0.3385  0.3496
   57SOL    HW2  171   1.734   2.513   2.636  1.0164  1.6239  0.7122
   58SOL     OW  172   0.651   0.398   1.120 -0.2729 -0.9128  0.2920
   58SOL    HW1  173   0.614   0.478   1.066  3.6774 -0.1004 -2.1435
   58SOL    HW2  174   0.579   0.334   1.165  1.3415 -1.9966 -0.2660
   59SOL     OW  175   0.428   2.381   2.743 -0.6009 -0.4086  0.6079
   59SOL    HW1  176   0.424   2.280   2.713  0.6732 -2.6450 -0.3995
   59SOL    HW2  177   0.519   2.404   2.779 -0.9872  0.0062 -2.2060
   60SOL     OW  178   2.290   2.103   2.255 -0.0333 -0.3643 -0.3106
   60SOL    HW1  179   2.344   2.152   2.180  1.2317 -0.8313  1.9769
   60SOL    HW2  180   2.315   2.131   2.354  0.2145  0.0386 -0.0592
   61SOL     OW  181   1.359   0.646   0.508 -0.0910 -0.4252  0.4006
   61SOL    HW1  182   1.268   0.699   0.525 -3.0536 -0.7971 -1.6045
   61SOL    HW2  183   1.388   0.641   0.406  1.2179  2.1516  0.3336
   62SOL     OW  184   2.664   1.804   3.000  0.1721  0.1051 -0.3657
   62SOL    HW1  185   2.648   1.711   3.037  2.9746  0.0494 -1.7681
   62SOL    HW2  186   2.747   1.797   2.932  1.9555 -0.5326 -2.7678
   63SOL     OW  187   0.513   0.891   0.168  1.0590  0.1903  0.0136
   63SOL    HW1  188   0.486   0.987   0.139 -1.3003 -1.3588  0.7891
   63SOL    HW2  189   0.606   0.896   0.209 -0.0770  0.1385 -0.0629
   64SOL     OW  190   0.070   0.521   2.542 -0.1062  0.1363  0.3930
   64SOL    HW1  191  -0.007   0.582   2.562 -0.7010 -0.7358 -0.2669
   64SOL    HW2  192   0.124   0.564   2.470  0.7938  1.0530 -0.9848
   65SOL     OW  193   0.180   1.485   0.626  0.1515  0.3787 -0.2705
   65SOL    HW1  194   0.246   1.561   0.662  3.2043 -0.1626 -1.6373
   65SOL    HW2  195   0.236   1.403   0.590  0.9388  1.7101  2.3481
   66SOL     OW  196   2.520   0.429   0.640 -0.1327  0.3484 -0.3040
   66SOL    HW1  197   2.477   0.485   0.712  0.2874 -2.3747 -0.3513
   66SOL    HW2  198   2.479   0.332   0.638 -1.2134 -2.6564 -0.3481
   67SOL     OW  199   0.508   2.481   1.429  0.1667 -0.2638  0.2983
   67SOL    HW1  200   0.550   2.506   1.520  2.2088  0.1661 -0.0128
   67SOL    HW2  201   0.510   2.381   1.406  1.6066  1.7653  0.1589
   68SOL     OW  202   1.005   1.091   2.456 -0.3551  0.1019 -1.2369
   68SOL    HW1  203   1.074   1.017   2.421  1.7416  0.2105  0.8604
   68SOL    HW2  204   0.922   1.113   2.392 -3.2573 -1.1059  0.6934
   69SOL     OW  205   0.748   2.756   2.165  0.1612  0.4178  0.1558
   69SOL    HW1  206   0.770   2.651   2.180 -1.9692 -3.2703  0.8510
   69SOL    HW2  207   0.648   2.780   2.195  2.7639  0.6557 -2.0251
   70SOL     OW  208   0.646   0.284   2.735 -0.0608  0.2160 -0.4476
   70SOL    HW1  209   0.709   0.325   2.812  0.1923  1.9367  0.6128
   70SOL    HW2  210   0.607   0.187   2.761 -1.1636 -0.4824 -1.0880
   71SOL     OW  211   1.126   1.800   0.328 -0.2686  0.0244 -0.3250
   71SOL    HW1  212   1.064   1.723   0.370 -0.2098 -0.4655  0.3359
   71SOL    HW2  213   1.108   1.822   0.228  0.1923 -1.5139  1.0351
   72SOL     OW  214   1.787   0.145   2.059 -0.4379 -0.5869 -0.4099
   72SOL    HW1  215   1.860   0.161   1.990  0.8705 -0.1652 -0.2737
   72SOL    HW2  216   1.812   0.054   2.106  0.4526 -0.1173  1.1762
   73SOL     OW  217   2.739   2.182   2.524 -0.5042 -0.7842 -0.2896
   73SOL    HW1  218   2.691   2.093   2.512  4.1483  2.4784  0.7333
   73SOL    HW2  219   2.803   2.185   2.612  0.8486 -1.0507  1.3954
   74SOL     OW  220   2.725   2.981   1.998 -0.2737  0.3218 -0.2878
   74SOL    HW1  221   2.652   2.956   2.064  0.3681 -3.3725  0.0480
   74SOL    HW2  222   2.812   2.974   2.050 -1.8716 -0.2813 -2.2897
   75SOL     OW  223   0.903   0.764   1.020 -0.2182  0.3930 -0.2326
   75SOL    HW1  224   0.820   0.806   0.981 -1.5585 -0.0644 -0.9016
   75SOL    HW2  225   0.930   0.798   1.113  0.0419 -1.1824 -3.6707
   76SOL     OW  226   1.732   1.228   2.574 -0.2696  0.3116  0.0939
   76SOL    HW1  227   1.648   1.181   2.611 -2.2205 -3.6124  0.3221
   76SOL    HW2  228   1.738   1.329   2.603 -2.8414 -0.3297 -1.7646
   77SOL     OW  229   2.909   0.961   0.971 -0.1176  0.0924 -0.5988
   77SOL    HW1  230   2.912   0.858   0.952 -1.2676  0.5952  2.9372
   77SOL    HW2  231   2.940   0.992   1.066 -1.6334 -3.4671  2.9597
   78SOL     OW  232   2.023   1.422   1.508  0.4934 -0.0738  0.5952
   78SOL    HW1  233   2.114   1.466   1.473  0.3641  0.9996  1.3664
   78SOL    HW2  234   1.948   1.422   1.436  4.0982 -0.0146 -0.6442
   79SOL     OW  235   0.585   1.342   0.820  0.5875 -0.2169 -0.1339
   79SOL    HW1  236   0.503   1.400   0.853 -0.6975  0.4472  1.8505
   79SOL    HW2  237   0.582   1.322   0.721  0.1542  0.9877 -0.2820
   80SOL     OW  238   0.664   0.490   1.586  0.3246  0.3277 -0.1438
   80SOL    HW1  239   0.718   0.554   1.527  1.7885 -2.7952  1.2842
   80SOL    HW2  240   0.718   0.406   1.611 -2.3421 -0.3684  0.9074
   81SOL     OW  241   1.027   1.373   2.602  0.8863 -0.0083  0.0290
   81SOL    HW1  242   0.973   1.302   2.647 -0.1261  3.8396  0.6280
   81SOL    HW2  243   0.976   1.420   2.518 -0.4528 -0.3249 -4.4189
   82SOL     OW  244   0.985   2.958   1.513  0.2184  0.0108 -0.5959
   82SOL    HW1  245   1.004   2.978   1.412 -1.3249  1.6777 -2.3522
   82SOL    HW2  246   0.900   2.893   1.526 -0.0195 -3.9525  1.2549
   83SOL     OW  247   2.671   2.471   0.807 -0.1765  0.8408  0.7055
   83SOL    HW1  248   2.596   2.407   0.770  0.3262  0.1133  1.6950
   83SOL    HW2  249   2.654   2.572   0.796 -1.2180 -3.4217  2.1885
   84SOL     OW  250   0.726   3.081   2.371  0.0716 -0.1389 -0.3853
   84SOL    HW1  251   0.636   3.041   2.394  1.9904  0.2565  0.2810
   84SOL    HW2  252   0.801   3.028   2.417  0.2904 -3.7936 -1.2712
   85SOL     OW  253   0.409   1.657   1.544  0.0028 -0.4052  0.4359
   85SOL    HW1  254   0.335   1.724   1.512  1.0831 -0.5261 -0.4504
   85SOL    HW2  255   0.403   1.642   1.649  0.3567 -3.1959 -0.3094
   86SOL     OW  256   0.362   0.973   1.514 -0.2425 -0.4099 -0.1728
   86SOL    HW1  257   0.321   0.913   1.441 -0.9365  1.2495  1.5303
   86SOL    HW2  258   0.355   0.928   1.608  0.8186 -0.0972 -1.2102
   87SOL     OW  259   1.525   0.641   0.269 -0.0846 -0.1137  0.0194
   87SOL    HW1  260   1.615   0.694   0.275 -0.0011 -0.5656 -0.0395
   87SOL    HW2  261   1.489   0.621   0.176 -0.5091  1.9164  2.5760
   88SOL     OW  262   1.564   1.337   0.199 -0.1149  0.8708  0.0810
   88SOL    HW1  263   1.597   1.247   0.244 -3.0339 -1.1688 -0.2546
   88SOL    HW2  264   1.463   1.343   0.216  0.2488 -1.8082  2.0056
   89SOL     OW  265   0.041   0.435   0.570  0.0916 -0.8666  0.3405
   89SOL    HW1  266   0.092   0.341   0.582  0.8130 -2.4205 -1.1890
   89SOL    HW2  267  -0.056   0.419   0.535  3.0844 -0.7746  0.3804
   90SOL     OW  268   0.936   1.599   3.020 -0.5655 -0.5175  0.2420
   90SOL    HW1  269   0.847   1.581   3.071  0.1203  0.3863  1.6797
   90SOL    HW2  270   0.917   1.633   2.925 -0.3223 -0.4695 -1.3281
   91SOL     OW  271   1.282   1.462   1.798  0.2237 -0.4472  0.3459
   91SOL    HW1  272   1.282   1.540   1.865 -0.2800  2.6577 -1.3124
   91SOL    HW2  273   1.368   1.452   1.744 -1.5209  0.4386  1.8068
   92SOL     OW  274   3.054   1.052   1.226  0.0282  0.1672  0.0707
   92SOL    HW1  275   3.131   1.111   1.185 -0.5311  2.2570 -1.2866
   92SOL    HW2  276   3.080   1.011   1.317 -2.4947 -1.7168 -1.6374
   93SOL     OW  277   3.090   2.755   0.071  0.0941  0.0170 -0.4441
   93SOL    HW1  278   3.030   2.764  -0.011 -2.2465  2.1880 -0.0248
   93SOL    HW2  279   3.151   2.672   0.076  2.3812 -1.9852  0.4673
   94SOL     OW  280   1.521   1.417   1.692  0.0590  0.1293 -0.3525
   94SOL    HW1  281   1.526   1.328   1.747 -0.8840  1.2841  0.9490
   94SOL    HW2  282   1.583   1.493   1.727 -0.9779  0.4323  1.6070
   95SOL     OW  283   1.310   2.524   2.976  0.3293  0.3778 -0.1536
   95SOL    HW1  284   1.231   2.496   3.044 -1.4832  0.1282  2.1661
   95SOL    HW2  285   1.352   2.439   2.931  1.1527  0.1693 -1.1345
   96SOL     OW  286   0.579   2.017   1.213 -0.3008 -0.0166  1.3821
   96SOL    HW1  287   0.484   2.043   1.174 -3.2494 -1.1736 -0.9799
   96SOL    HW2  288   0.590   1.915   1.187  1.4077 -0.7897 -2.6307
   97SOL     OW  289   0.373   1.538   2.515 -0.2446  0.0287 -0.7989
   97SOL    HW1  290   0.279   1.534   2.553  1.7255  2.8572  0.8360
   97SOL    HW2  291   0.429   1.615   2.555  0.6719  1.6492 -0.8652
   98SOL     OW  292   1.971   1.615   1.267 -0.2637 -0.2266 -0.3333
   98SOL    HW1  293   1.871   1.586   1.272 -3.4460 -1.9938  3.0579
   98SOL    HW2  294   2.036   1.538   1.258 -0.8093  1.4488 -1.8544
   99SOL     OW  295   2.480   2.098   1.399  0.0153 -0.8400  0.8532
   99SOL    HW1  296   2.524   2.107   1.492 -0.7936 -0.5151  0.6023
   99SOL    HW2  297   2.435   2.005   1.381 -0.8951  1.0128  2.4089
  100SOL     OW  298   2.299   0.379   2.061 -0.0838 -0.0712  0.3715
  100SOL    HW1  299   2.250   0.332   2.147 -0.2905 -0.4488 -0.0918
  100SOL    HW2  300   2.404   0.375   2.068 -2.0536 -1.7171 -0.5065
  101SOL     OW  301   0.403   1.492   0.278  0.5526  0.0702  0.0263
  101SOL    HW1  302   0.476   1.507   0.355 -1.2822  1.3626  1.6366
  101SOL    HW2  303   0.428   1.548   0.192  1.5834  0.6130 -0.3256
  102SOL     OW  304   2.314   1.038   0.821  0.3385  0.1128 -0.0663
  102SOL    HW1  305   2.221   0.989   0.831 -0.9204 -1.7932  2.3348
  102SOL    HW2  306   2.327   1.078   0.727 -1.3782 -0.4910  3.2785
  103SOL     OW  307   2.309   0.046   0.400  0.0877 -0.1316 -0.1358
  103SOL    HW1  308   2.350   0.136   0.372 -0.9109 -0.0772  2.6486
  103SOL    HW2  309   2.355   0.004   0.484  3.5685  0.5776  0.9163
  104SOL     OW  310   0.091   1.791   2.124  0.5456 -0.9343  0.5261
  104SOL    HW1  311   0.121   1.743   2.034  1.5545 -1.8800 -1.9435
  104SOL    HW2  312  -0.013   1.789   2.148  2.3577  0.6957  4.8068
  105SOL     OW  313   1.245   1.994   0.790 -0.0294  0.4967  0.2353
  105SOL    HW1  314   1.164   2.003   0.727  0.4918 -0.3807 -0.2171
  105SOL    HW2  315   1.301   1.909   0.771  1.6896  1.1386  0.3750
  106SOL     OW  316   2.116   0.520   1.385  0.6021  0.4857 -0.1572
  106SOL    HW1  317   2.069   0.434   1.413 -2.0863  2.3730  0.4458
  106SOL    HW2  318   2.077   0.605   1.428 -0.9438  1.9679 -1.6140
  107SOL     OW  319   1.810   3.000   1.092 -0.1042 -0.2071  0.1806
  107SOL    HW1  320   1.863   3.079   1.137  1.0765 -0.8082  1.0133
  107SOL    HW2  321   1.741   2.956   1.153  1.4151  1.3848 -0.0851
  108SOL     OW  322   0.820   2.730   1.265  0.4255  0.1037 -0.6260
  108SOL    HW1  323   0.781   2.792   1.342  0.0743  0.8410 -1.0458
  108SOL    HW2  324   0.924   2.749   1.253 -0.3610  0.4866 -1.8683
  109SOL     OW  325   2.205   0.122   0.795  0.8062  0.4370  0.1487
  109SOL    HW1  326   2.118   0.078   0.751  0.8985  0.3277  0.7281
  109SOL    HW2  327   2.216   0.107   0.900  0.3375  2.0308  0.5431
  110SOL     OW  328   0.442   2.797   2.683  0.2373 -0.4406  0.1251
  110SOL    HW1  329   0.474   2.858   2.608 -1.8569 -1.5076  1.4354
  110SOL    HW2  330   0.515   2.759   2.744 -0.8064  1.2936 -0.6814
  111SOL     OW  331   1.326   0.517   2.250  0.6752 -0.3055  0.1887
  111SOL    HW1  332   1.247   0.547   2.311  1.1458  0.4280  2.4518
  111SOL    HW2  333   1.384   0.439   2.282  0.4345 -0.4167 -1.5933
  112SOL     OW  334   1.749   0.524   1.447 -0.2607  0.1551  0.5067
  112SOL    HW1  335   1.736   0.506   1.346 -0.6495 -0.8493  0.0484
  112SOL    HW2  336   1.723   0.439   1.505  0.1765  1.8784  2.6910
  113SOL     OW  337   2.288   1.624   1.736 -0.2962 -0.5276  0.1853
  113SOL    HW1  338   2.329   1.532   1.709 -1.3607  1.3465  1.7388
  113SOL    HW2  339   2.329   1.675   1.816 -1.5642  0.9558  1.1424
  114SOL     OW  340   0.304   0.542   1.286  0.3168  0.2929 -0.5690
  114SOL    HW1  341   0.324   0.640   1.275 -0.6461 -2.0868  0.9398
  114SOL    HW2  342   0.263   0.507   1.199 -1.2029  0.4796  0.8966
  115SOL     OW  343   2.618   1.605   1.205  0.6994  1.3549  0.1932
  115SOL    HW1  344   2.663   1.516   1.236  1.5387 -0.5669  0.3985
  115SOL    HW2  345   2.673   1.652   1.128 -0.3940 -0.2392 -0.2044
  116SOL     OW  346   1.817   1.042   0.774  0.2060 -0.1040 -0.9133
  116SOL    HW1  347   1.732   0.998   0.732  1.3612  3.2971 -1.6724
  116SOL    HW2  348   1.804   1.142   0.803 -1.7506  0.6506 -2.4726
  117SOL     OW  349   1.120   0.343   0.705  0.3739  0.3131 -0.4895
  117SOL    HW1  350   1.121   0.297   0.799  1.5122 -0.3852  0.5687
  117SOL    HW2  351   1.138   0.445   0.707 -0.1934 -0.9857 -1.4625
  118SOL     OW  352   1.105   1.124   1.111 -0.1821  0.3107 -0.8499
  118SOL    HW1  353   1.086   1.033   1.155  0.2079 -1.1981  1.7627
  118SOL    HW2  354   1.094   1.199   1.185  0.4395 -1.6191 -1.4292
  119SOL     OW  355   1.828   1.603   2.123  0.2805  0.0952  0.2111
  119SOL    HW1  356   1.818   1.700   2.133  1.8586  0.7286  0.8695
  119SOL    HW2  357   1.929   1.583   2.092  1.5925  1.7434 -0.4194
  120SOL     OW  358   2.966   2.819   0.295 -0.3421  0.4955 -0.2724
  120SOL    HW1  359   3.015   2.808   0.205  2.5425  0.5722  5.0478
  120SOL    HW2  360   2.953   2.724   0.335 -0.6695 -0.6713  1.2588
  121SOL     OW  361   1.983   0.720   2.240 -0.2441  0.4250  0.4219
  121SOL    HW1  362   1.943   0.762   2.151 -0.3242 -0.3737  0.6783
  121SOL    HW2  363   2.011   0.622   2.227 -0.1364 -0.3122 -0.4381
  122SOL     OW  364   2.711   2.649   1.294 -0.6606  0.0933 -0.7402
  122SOL    HW1  365   2.739   2.610   1.206  0.3728  1.7189  0.0180
  122SOL    HW2  366   2.647   2.584   1.347  2.9673  0.4641 -2.3857
  123SOL     OW  367   1.741   0.077   1.717 -0.0439  0.0247 -0.0592
  123SOL    HW1  368   1.756   0.010   1.641 -0.6921  0.5922  2.3860
  123SOL    HW2  369   1.827   0.094   1.766 -0.0022 -1.2518 -1.9425
  124SOL     OW  370   0.113   0.491   1.084  0.0455 -0.4299 -0.0427
  124SOL    HW1  371   0.085   0.572   1.133  0.6865  0.7398 -1.6436
  124SOL    HW2  372   0.070   0.478   0.991  0.4843 -2.2648 -3.7793
  125SOL     OW  373   0.886   1.742   0.634 -0.6065 -0.2900 -0.3452
  125SOL    HW1  374   0.974   1.713   0.597 -0.4818  0.2431 -0.4389
  125SOL    HW2  375   0.891   1.773   0.734 -0.9971 -2.6230  1.4622
  126SOL     OW  376   1.915   2.367   2.417 -0.2996  0.0083 -0.0101
  126SOL    HW1  377   1.976   2.325   2.347  0.2445  1.6429  0.3280
  126SOL    HW2  378   1.841   2.302   2.449  1.6522 -1.4444  1.3724
  127SOL     OW  379   0.786   0.953   0.255 -0.1326 -0.5488  0.3105
  127SOL    HW1  380   0.826   0.985   0.343  2.6141 -1.6035 -1.0769
  127SOL    HW2  381   0.820   0.859   0.236 -2.6824 -0.2169  1.0139
  128SOL     OW  382   0.958   0.184   1.392  0.3698  0.7552 -0.6916
  128SOL    HW1  383   0.938   0.286   1.374 -0.5093 -0.6035  1.9547
  128SOL    HW2  384   0.871   0.123   1.379  0.4133 -1.8823  0.1940
  129SOL     OW  385   1.878   0.675   1.868 -0.5392  0.0049  0.7266
  129SOL    HW1  386   1.904   0.677   1.761 -0.2781 -0.2980 -0.7765
  129SOL    HW2  387   1.893   0.772   1.899 -1.4609 -1.3885 -1.5750
  130SOL     OW  388   1.308   2.189   1.006  0.2773  0.7128 -0.4246
  130SOL    HW1  389   1.269   2.140   0.922 -2.2726  0.1409 -0.2591
  130SOL    HW2  390   1.390   2.256   0.986  0.2999  0.8988 -0.0710
  131SOL     OW  391   0.027   1.515   1.397  0.2613  0.4029 -0.0212
  131SOL    HW1  392  -0.026   1.422   1.391  2.6637 -0.8079  3.2890
  131SOL    HW2  393   0.130   1.503   1.411 -0.0320  0.6984  2.4853
  132SOL     OW  394   1.995   2.399   0.534 -0.4700 -0.5495 -0.3496
  132SOL    HW1  395   1.893   2.417   0.512 -1.9034  2.4885  2.2301
  132SOL    HW2  396   2.015   2.332   0.611  2.2320 -2.4645  0.8619
  133SOL     OW  397   1.877   2.276   2.871  0.3180  0.1048 -0.3276
  133SOL    HW1  398   1.937   2.327   2.942  0.3535  1.4289  2.9450
  133SOL    HW2  399   1.827   2.338   2.802  1.8615  0.4453  1.2599
  134SOL     OW  400   2.733   2.347   1.627 -0.2386 -0.0583  0.1893
  134SOL    HW1  401   2.667   2.327   1.706 -1.9487 -0.7671 -0.5694
  134SOL    HW2  402   2.803   2.425   1.636  0.7969 -0.2524  0.6087
  135SOL     OW  403   0.723   1.552   2.585  0.0690  0.5036 -0.1672
  135SOL    HW1  404   0.698   1.469   2.643  0.0418 -0.8935  0.0653
  135SOL    HW2  405   0.769   1.528   2.507 -2.2766 -0.8089  2.0026
  136SOL     OW  406   1.201   2.042   0.435  0.4544  0.3405 -0.1554
  136SOL    HW1  407   1.138   2.078   0.509  1.4467  0.6109  0.0864
  136SOL    HW2  408   1.175   1.948   0.405  1.9874  1.1564 -2.7104
  137SOL     OW  409   0.420   1.108   2.115  0.3582 -0.1023 -0.1383
  137SOL    HW1  410   0.322   1.129   2.144 -2.1666  0.3962  0.3317
  137SOL    HW2  411   0.474   1.053   2.184  1.3837  2.6010  1.1565
  138SOL     OW  412   2.433   1.496   0.196  0.0250  0.5459  0.1643
  138SOL    HW1  413   2.332   1.490   0.182 -0.4634 -1.3225  0.9148
  138SOL    HW2  414   2.470   1.426   0.264  2.1409 -1.4951 -0.9625
  139SOL     OW  415   1.818   2.650   1.223  0.2154 -0.1922  0.5515
  139SOL    HW1  416   1.722   2.622   1.186 -2.3132 -0.1379  0.2283
  139SOL    HW2  417   1.868   2.563   1.264  1.7149  0.5819 -0.8901
  140SOL     OW  418   3.004   2.970   2.552  1.2101  0.1936  1.2654
  140SOL    HW1  419   3.047   2.891   2.601  0.0257  0.3435  1.2054
  140SOL    HW2  420   3.066   3.056   2.548 -1.6201  1.3898 -0.9646
  141SOL     OW  421   1.210   1.683   1.606 -0.1262  0.1991 -0.0872
  141SOL    HW1  422   1.134   1.735   1.653 -0.5512  1.4922  0.1550
  141SOL    HW2  423   1.250   1.612   1.665  1.0702  1.4704  1.7806
  142SOL     OW  424   1.599   0.629   2.207 -0.2894 -0.4153 -0.9522
  142SOL    HW1  425   1.616   0.616   2.107 -1.9910  2.4535  2.2309
  142SOL    HW2  426   1.503   0.616   2.236  0.4360 -0.6483 -0.0331
  143SOL     OW  427   2.732   0.872   0.510  0.4896  0.1182  0.5740
  143SOL    HW1  428   2.783   0.915   0.431 -2.3423  1.4920 -1.7763
  143SOL    HW2  429   2.753   0.917   0.598 -2.3035 -1.9994  1.2127
  144SOL     OW  430   2.995   1.264   1.375 -0.1517 -0.3983  0.5019
  144SOL    HW1  431   2.949   1.231   1.463 -0.8901 -0.8819 -0.0022
  144SOL    HW2  432   3.013   1.181   1.314  0.2229  0.8970 -0.7036
  145SOL     OW  433   1.018   1.822   0.069 -0.2243 -0.6626 -0.3823
  145SOL    HW1  434   1.048   1.904   0.009  1.1618 -2.0287  0.4819
  145SOL    HW2  435   0.969   1.746   0.016 -0.9281 -0.3879 -1.1158
  146SOL     OW  436   2.430   0.640   1.557 -0.4088  0.0475  0.1977
  146SOL    HW1  437   2.410   0.562   1.493  1.8619 -0.0424  1.1038
  146SOL    HW2  438   2.364   0.716   1.545 -0.8168  3.1828  1.7041
  147SOL     OW  439   1.084   2.478   0.579  0.3351 -0.4833 -0.3210
  147SOL    HW1  440   1.067   2.559   0.519 -0.0049  1.4330  2.5838
  147SOL    HW2  441   1.175   2.431   0.568 -2.5057  1.5167  1.2069
  148SOL     OW  442   1.643   1.473   3.063  0.2796 -0.5147  0.4232
  148SOL    HW1  443   1.675   1.403   2.994 -1.0661  2.6542 -2.1267
  148SOL    HW2  444   1.618   1.441   3.161 -0.8798  0.2790  0.9793
  149SOL     OW  445   0.676   1.428   1.924  0.5161  0.9140 -0.0685
  149SOL    HW1  446   0.602   1.403   1.992  1.7318 -1.4453  0.8095
  149SOL    HW2  447   0.705   1.352   1.860  1.7581 -0.9033 -1.3900
  150SOL     OW  448   2.982   1.246   0.925  0.4494 -0.2693  0.3534
  150SOL    HW1  449   3.064   1.249   0.991  2.8956 -1.4039 -1.1769
  150SOL    HW2  450   2.944   1.150   0.916 -2.1768  1.5263 -0.1663
  151SOL     OW  451   0.178   0.775   2.115 -0.0904  0.2261 -0.8585
  151SOL    HW1  452   0.155   0.842   2.042 -0.6223 -2.7344  2.8339
  151SOL    HW2  453   0.264   0.720   2.099 -1.7555  1.3992  1.4304
  152SOL     OW  454   1.356   1.718   1.258 -0.0805 -0.1401  0.1295
  152SOL    HW1  455   1.370   1.782   1.339  1.7127 -0.3161  0.7830
  152SOL    HW2  456   1.273   1.747   1.207  0.8938 -0.0868  1.6622
  153SOL     OW  457   0.027   1.542   0.151 -0.2472 -0.3435 -0.5607
  153SOL    HW1  458   0.021   1.434   0.152 -2.7301 -1.0316 -1.2274
  153SOL    HW2  459   0.043   1.584   0.246 -0.4535  0.5208 -1.7316
  154SOL     OW  460   2.360   1.852   2.822 -0.0866  0.2111  0.1361
  154SOL    HW1  461   2.381   1.758   2.858 -0.7577 -1.2962 -0.6911
  154SOL    HW2  462   2.443   1.894   2.782  0.7307  0.6654 -1.0962
  155SOL     OW  463   2.484   1.270   0.359 -0.3532 -0.3818  0.7210
  155SOL    HW1  464   2.575   1.251   0.310 -2.0381  1.0724  3.1002
  155SOL    HW2  465   2.400   1.229   0.316  1.3096 -0.7738  2.7924
  156SOL     OW  466   2.553   0.937   0.870  0.7915 -0.1736  0.0946
  156SOL    HW1  467   2.461   0.985   0.859 -1.4111 -0.8107  0.7345
  156SOL    HW2  468   2.630   0.998   0.830  1.9350 -2.3357  0.9491
  157SOL     OW  469   1.189   2.980   2.964  0.0949  0.2757 -0.0592
  157SOL    HW1  470   1.259   2.950   2.896  0.3799 -1.6770  0.8829
  157SOL    HW2  471   1.221   3.068   3.001 -0.0474  0.3001 -3.1838
  158SOL     OW  472   1.025   1.844   1.975 -0.5797  0.6365 -0.3988
  158SOL    HW1  473   1.061   1.937   1.943  3.2343 -0.1289 -2.1338
  158SOL    HW2  474   0.951   1.854   2.046  0.4549 -0.7215 -1.3847
  159SOL     OW  475   0.864   0.439   1.307 -0.0232  0.1732  0.2371
  159SOL    HW1  476   0.834   0.527   1.356  1.3917  0.6231  2.3281
  159SOL    HW2  477   0.791   0.404   1.243  0.4116 -0.2018 -0.8107
  160SOL     OW  478   1.463   2.483   1.636 -0.2381  0.0806  0.0953
  160SOL    HW1  479   1.452   2.571   1.580  0.6059 -1.2321  1.4919
  160SOL    HW2  480   1.546   2.429   1.612 -1.8306  3.2234 -0.8137
  161SOL     OW  481   0.184   2.897   0.326 -0.4174  0.1369 -0.9738
  161SOL    HW1  482   0.116   2.850   0.385 -1.4382 -1.1897  1.1765
  161SOL    HW2  483   0.155   2.964   0.252  4.6240 -2.7516 -0.0300
  162SOL     OW  484   2.594   1.912   0.484 -0.4007 -0.7299 -1.2074
  162SOL    HW1  485   2.580   1.871   0.389 -1.4778  1.5621 -2.7114
  162SOL    HW2  486   2.568   1.852   0.570  0.4613 -0.6440  3.5138
  163SOL     OW  487   1.959   2.671   0.707  0.3355 -0.0787  0.1939
  163SOL    HW1  488   1.913   2.713   0.624  0.0547  0.1990  1.8017
  163SOL    HW2  489   2.024   2.594   0.682 -0.7307  0.1453  0.1378
  164SOL     OW  490   3.047   0.280   1.265 -0.0778 -0.1179  0.8142
  164SOL    HW1  491   3.113   0.350   1.232  0.7882 -0.7775  1.0577
  164SOL    HW2  492   3.078   0.230   1.346 -0.4449 -1.5105 -1.2420
  165SOL     OW  493   0.967   1.425   0.675 -0.0146 -0.5147 -0.2126
  165SOL    HW1  494   0.905   1.472   0.748 -0.5070 -0.8828  1.2752
  165SOL    HW2  495   1.022   1.492   0.615  0.9652  0.6838 -2.7549
  166SOL     OW  496   1.480   1.062   1.752  0.4146 -0.0645 -0.3321
  166SOL    HW1  497   1.413   0.993   1.788  0.3068  1.7748 -1.5266
  166SOL    HW2  498   1.546   1.101   1.816  0.6047 -0.8566 -0.6709
  167SOL     OW  499   0.831   1.922   1.542 -0.1012 -0.0509  0.2235
  167SOL    HW1  500   0.808   1.989   1.616  1.2021  0.0004  0.3728
  167SOL    HW2  501   0.764   1.841   1.534 -2.2708 -0.3112 -0.9491
  168SOL     OW  502   1.618   2.385   0.161 -0.0003 -0.0689 -0.0988
  168SOL    HW1  503   1.706   2.418   0.114  1.7643 -0.7187 -0.4713
  168SOL    HW2  504   1.632   2.284   0.197 -0.7704 -0.8005  0.2211
  169SOL     OW  505   0.233   2.604   2.212  0.2084  0.2640  0.0043
  169SOL    HW1  506   0.261   2.567   2.121  1.7543 -0.6530 -1.0704
  169SOL    HW2  507   0.267   2.546   2.289  2.6209  3.2418  1.5552
  170SOL     OW  508   1.233   0.299   1.922 -0.2863  0.7149  0.2380
  170SOL    HW1  509   1.270   0.253   2.008 -0.3427  1.4024  1.3545
  170SOL    HW2  510   1.209   0.234   1.844 -0.9166  1.8010  2.0420
  171SOL     OW  511   0.217   0.762   2.414 -0.3453  0.5759 -0.0948
  171SOL    HW1  512   0.152   0.787   2.490  2.9396 -3.1531 -0.9633
  171SOL    HW2  513   0.193   0.796   2.320  1.4014  0.5434  0.3574
  172SOL     OW  514   0.884   1.147   2.974 -0.2880 -0.4293  0.5535
  172SOL    HW1  515   0.976   1.181   3.007  0.6608 -1.7835  1.7653
  172SOL    HW2  516   0.886   1.113   2.879  0.6613  0.1404  0.3799
  173SOL     OW  517   0.644   2.687   0.130  0.4197  0.5218 -0.3853
  173SOL    HW1  518   0.627   2.787   0.102 -0.7563  0.8884  1.7874
  173SOL    HW2  519   0.559   2.634   0.153 -2.2335 -0.2646 -0.1768
  174SOL     OW  520   1.397   2.816   1.051  0.2754  0.4572  0.5793
  174SOL    HW1  521   1.371   2.909   1.008  1.5866 -0.2591 -0.5169
  174SOL    HW2  522   1.328   2.741   1.020 -1.9268 -1.5691 -0.4150
  175SOL     OW  523   0.457   0.025   1.661  0.0343  0.3092 -0.3293
  175SOL    HW1  524   0.493   0.062   1.749  0.0318 -2.4680  0.3150
  175SOL    HW2  525   0.414   0.102   1.609 -0.8993  0.6455  1.5421
  176SOL     OW  526   2.508   0.425   3.067  0.3070 -0.1813  0.0357
  176SOL    HW1  527   2.539   0.493   3.141  0.6292  0.5249 -0.3599
  176SOL    HW2  528   2.431   0.349   3.077  0.7478 -0.7185 -1.8111
  177SOL     OW  529   0.361   0.308   0.940 -0.3908 -0.5478 -0.2458
  177SOL    HW1  530   0.424   0.243   0.991  2.9219 -1.3333  1.5603
  177SOL    HW2  531   0.279   0.327   1.000 -3.3271  0.0383 -0.1639
  178SOL     OW  532   0.044   2.718   2.576 -0.3593  0.0503  0.4748
  178SOL    HW1  533  -0.017   2.648   2.619 -0.4452 -1.7841 -1.8081
  178SOL    HW2  534   0.127   2.739   2.636 -0.5995  1.4370 -2.6238
  179SOL     OW  535   0.011   1.715   1.171 -0.2027 -0.0960 -0.0469
  179SOL    HW1  536  -0.063   1.784   1.178 -1.3360 -1.1382  3.0395
  179SOL    HW2  537   0.015   1.651   1.258 -0.2158 -1.6882  3.7967
  180SOL     OW  538   0.229   1.206   1.820  0.5870 -0.1719  0.3548
  180SOL    HW1  539   0.315   1.240   1.766  1.9172  1.0724 -3.1987
  180SOL    HW2  540   0.214   1.262   1.902  0.6648 -1.1132 -0.4332
  181SOL     OW  541   3.042   1.847   2.555 -0.1855  0.2404 -0.5497
  181SOL    HW1  542   3.129   1.885   2.518  1.8039 -3.1412  1.8839
  181SOL    HW2  543   2.946   1.861   2.497  2.0007  2.5129 -1.6884
  182SOL     OW  544   2.324   1.262   1.147  0.0612 -0.0997  0.0883
  182SOL    HW1  545   2.232   1.216   1.115 -2.0892 -0.3032 -0.3554
  182SOL    HW2  546   2.313   1.367   1.148 -0.7821 -1.0807  0.0222
  183SOL     OW  547   1.486   2.285   2.509 -0.4398 -0.6374 -0.7355
  183SOL    HW1  548   1.417   2.214   2.526  1.2544  0.5092  1.2015
  183SOL    HW2  549   1.584   2.246   2.494 -4.5047  0.3423  1.4301
  184SOL     OW  550   2.061   0.941   0.802 -0.9398 -0.0841  0.0701
  184SOL    HW1  551   1.976   1.004   0.790  0.4506  2.9022  1.8310
  184SOL    HW2  552   2.033   0.851   0.845  0.2345  1.4000 -1.5500
  185SOL     OW  553   1.617   2.674   2.092 -0.4987  0.2889  0.0729
  185SOL    HW1  554   1.576   2.761   2.061 -1.9945 -2.7804 -1.0518
  185SOL    HW2  555   1.584   2.656   2.191 -3.1398  0.3940 -1.4659
  186SOL     OW  556   0.075   2.210   1.719 -0.4460  0.0802  0.1691
  186SOL    HW1  557   0.107   2.309   1.700 -0.0557  2.1963 -0.9281
  186SOL    HW2  558   0.148   2.138   1.711  0.0353 -1.1589  1.2516
  187SOL     OW  559   1.373   0.726   1.684  0.2195  0.1883 -0.1188
  187SOL    HW1  560   1.432   0.775   1.614 -1.6659  2.5029  4.6358
  187SOL    HW2  561   1.397   0.748   1.780 -0.8383 -1.2496 -0.0329
  188SOL     OW  562   2.795   2.791   1.506  0.4022  0.6905  0.3026
  188SOL    HW1  563   2.772   2.891   1.483  0.0144  1.3491 -1.0028
  188SOL    HW2  564   2.774   2.735   1.418  2.8441 -0.5541 -1.5374
  189SOL     OW  565   0.855   1.017   1.394 -0.3213  0.4046  0.1139
  189SOL    HW1  566   0.924   1.086   1.435  2.8588  2.1603 -0.8527
  189SOL    HW2  567   0.771   1.055   1.342 -0.5249 -0.5512 -2.5642
  190SOL     OW  568   1.506   1.830   1.586  0.2622  1.0990  0.6460
  190SOL    HW1  569   1.400   1.828   1.571 -0.0426  0.9380 -4.3047
  190SOL    HW2  570   1.533   1.886   1.669 -2.4959  1.1625  0.9206
  191SOL     OW  571   0.997   0.762   1.560 -0.3174  0.0628  0.0040
  191SOL    HW1  572   1.049   0.673   1.570  0.7573  0.5183  3.0668
  191SOL    HW2  573   1.062   0.846   1.564  1.2932 -0.7613 -1.0386
  192SOL     OW  574   1.838   2.312   1.165  0.2209 -0.1759 -0.7875
  192SOL    HW1  575   1.741   2.305   1.124 -1.8348  3.0111 -0.2586
  192SOL    HW2  576   1.906   2.337   1.090 -1.9505  1.1843 -0.3249
  193SOL     OW  577   0.498   0.584   0.401  0.1071  0.7963 -0.2993
  193SOL    HW1  578   0.534   0.535   0.485 -0.7853  1.4203  2.4662
  193SOL    HW2  579   0.519   0.528   0.315 -0.8851 -0.9251  2.9414
  194SOL     OW  580   0.294   0.813   1.257 -0.5749 -0.1532  0.7108
  194SOL    HW1  581   0.204   0.768   1.238  1.1696 -0.9453  0.2485
  194SOL    HW2  582   0.312   0.883   1.182  0.0849 -0.5625 -1.8584
  195SOL     OW  583   0.958   2.929   0.428 -0.2553  0.1669 -0.1582
  195SOL    HW1  584   0.972   2.826   0.397  3.3673 -2.0115 -0.5384
  195SOL    HW2  585   1.050   2.986   0.434  2.7182  2.9299 -2.2441
  196SOL     OW  586   0.290   1.445   1.423  0.0983 -0.4100 -0.2596
  196SOL    HW1  587   0.353   1.511   1.475  0.6083 -2.7822  0.5794
  196SOL    HW2  588   0.277   1.354   1.474 -0.3437 -0.1009 -2.0502
  197SOL     OW  589   0.934   2.046   0.206  0.4202  0.5533 -0.2136
  197SOL    HW1  590   0.925   2.038   0.309 -0.7106  1.7594 -0.1734
  197SOL    HW2  591   0.960   1.953   0.163  0.3534  0.5343  0.7003
  198SOL     OW  592   0.248   1.254   0.274 -0.0863 -0.1835  0.3521
  198SOL    HW1  593   0.147   1.253   0.237  0.2557 -1.7489  1.4353
  198SOL    HW2  594   0.284   1.349   0.303  0.0704  1.3418  0.6591
  199SOL     OW  595   2.257   0.380   2.511  0.0474  0.1157  0.0982
  199SOL    HW1  596   2.191   0.329   2.579 -1.8074 -0.5653  3.7628
  199SOL    HW2  597   2.352   0.358   2.537 -0.6114  2.4299  1.7189
  200SOL     OW  598   3.097   2.989   0.712  0.3529  0.0818 -0.0317
  200SOL    HW1  599   3.018   3.017   0.653 -0.5363 -4.2247 -0.9605
  200SOL    HW2  600   3.144   3.060   0.772  2.4446  1.2781 -0.6680
  201SOL     OW  601   1.135   0.750   0.626 -0.4585  0.0830  0.4807
  201SOL    HW1  602   1.157   0.826   0.690 -1.2175 -1.8718  0.9745
  201SOL    HW2  603   1.038   0.742   0.605 -0.5494  1.5437  1.2520
  202SOL     OW  604   0.497   1.256   1.732  0.0701 -0.1711  0.0495
  202SOL    HW1  605   0.558   1.245   1.649  1.0582 -1.3970  1.8006
  202SOL    HW2  606   0.525   1.192   1.801 -1.9904  0.2764 -1.8069
  203SOL     OW  607   0.696   0.193   1.607  0.4134 -0.0819  0.0378
  203SOL    HW1  608   0.645   0.134   1.541  3.0970 -0.6564  4.3178
  203SOL    HW2  609   0.730   0.141   1.688 -0.0173 -0.4987 -1.0669
  204SOL     OW  610   2.096   1.848   3.025 -0.1495 -0.0037 -0.4150
  204SOL    HW1  611   2.090   1.752   2.991  4.9856  0.5853  3.0123
  204SOL    HW2  612   2.057   1.919   2.962  0.2942  2.0760  2.9893
  205SOL     OW  613   1.846   1.867   0.059 -0.0130  0.0266 -1.1470
  205SOL    HW1  614   1.929   1.866  -0.005 -1.7361 -0.7472 -1.7195
  205SOL    HW2  615   1.784   1.946   0.047  0.3050  0.0441  0.1483
  206SOL     OW  616   2.541   2.812   0.391  0.2284 -0.1144 -0.7945
  206SOL    HW1  617   2.616   2.744   0.388 -0.2020 -0.7416 -1.8567
  206SOL    HW2  618   2.553   2.880   0.317  0.0988 -3.0026 -0.1623
  207SOL     OW  619   0.613   1.772   2.891 -0.1691  0.3687  0.1568
  207SOL    HW1  620   0.708   1.753   2.863  0.0856  0.2962  0.0633
  207SOL    HW2  621   0.564   1.699   2.944 -1.3389  1.3297  3.0815
  208SOL     OW  622   1.047   1.536   1.452  0.4154  0.2697 -0.0761
  208SOL    HW1  623   0.987   1.586   1.382  0.9159 -0.0023  4.0627
  208SOL    HW2  624   1.115   1.605   1.492 -3.1647  0.8327  1.7374
  209SOL     OW  625   0.305   0.955   3.003  0.6385 -0.1257 -0.4764
  209SOL    HW1  626   0.307   0.899   2.913 -2.5904  1.0779 -0.6521
  209SOL    HW2  627   0.280   0.895   3.086 -2.5863 -0.6461 -0.7685
  210SOL     OW  628   1.726   0.478   1.175 -0.3694 -0.3676  0.4008
  210SOL    HW1  629   1.669   0.561   1.147  1.7922 -0.0039  2.4716
  210SOL    HW2  630   1.831   0.494   1.177  1.0704 -3.3497  0.1739
  211SOL     OW  631   2.136   1.048   1.627 -0.1791  0.0527 -0.5485
  211SOL    HW1  632   2.205   1.021   1.703  0.0409 -3.5400 -1.8090
  211SOL    HW2  633   2.177   1.104   1.555 -3.2418  0.5605 -1.3266
  212SOL     OW  634   0.007   0.958   1.487  0.0496  0.3177  0.4915
  212SOL    HW1  635   0.063   1.034   1.520  0.1708  0.0600 -0.8331
  212SOL    HW2  636   0.038   0.871   1.535 -0.3020  0.8202  5.4481
  213SOL     OW  637   2.696   0.345   0.272 -0.3132  0.0941  0.3393
  213SOL    HW1  638   2.768   0.284   0.225  1.6401 -1.3604 -0.4176
  213SOL    HW2  639   2.692   0.440   0.241  0.3201  1.8003 -2.8874
  214SOL     OW  640   2.172   0.261   2.262  0.1270  0.1697 -0.3635
  214SOL    HW1  641   2.180   0.303   2.355 -3.6184 -0.3415 -1.1462
  214SOL    HW2  642   2.138   0.163   2.275  1.2367 -0.3931  0.8269
  215SOL     OW  643   1.647   2.261   2.011 -0.1220  0.2410 -0.4359
  215SOL    HW1  644   1.741   2.298   1.994 -0.3879  1.8267 -1.4186
  215SOL    HW2  645   1.606   2.321   2.082  1.0035 -1.1050 -3.0738
  216SOL     OW  646   2.204   0.538   0.665  0.1331  0.8811 -0.4853
  216SOL    HW1  647   2.144   0.462   0.632 -1.2762  0.6639  0.6967
  216SOL    HW2  648   2.235   0.605   0.591  1.4494 -2.1254  0.9420
  217SOL     OW  649   0.750   2.780   2.442 -0.1867  0.0216 -0.6145
  217SOL    HW1  650   0.703   2.692   2.451 -1.1864 -0.1797 -0.3003
  217SOL    HW2  651   0.772   2.798   2.344 -0.2667 -2.0186 -3.2004
  218SOL     OW  652   1.911   1.388   0.072 -0.5147  0.0627 -0.4800
  218SOL    HW1  653   1.818   1.432   0.051 -1.2975 -2.5753  1.1565
  218SOL    HW2  654   1.895   1.319   0.152 -2.4163  0.3979  1.6979
  219SOL     OW  655   2.363   1.263   2.517 -0.2246 -0.3837 -0.2588
  219SOL    HW1  656   2.422   1.204   2.455 -1.3620  2.0136  0.7455
  219SOL    HW2  657   2.353   1.217   2.606 -0.8255 -1.7750 -0.1406
  220SOL     OW  658   1.505   1.028   1.254  0.5924  0.0474 -0.7249
  220SOL    HW1  659   1.606   1.049   1.284  1.1984  0.1847  0.9400
  220SOL    HW2  660   1.473   1.059   1.158 -1.5557  1.2978 -1.2353
  221SOL     OW  661   1.356   1.139   2.208  0.2050 -0.9056  0.4453
  221SOL    HW1  662   1.319   1.215   2.147 -0.5362 -0.1396  0.8700
  221SOL    HW2  663   1.446   1.091   2.175  0.2419 -0.8185 -0.5487
  222SOL     OW  664   1.227   0.051   1.200 -0.2054 -0.3527  1.0613
  222SOL    HW1  665   1.303   0.040   1.274 -0.6455 -2.9849  0.9411
  222SOL    HW2  666   1.208   0.153   1.186  2.5497  0.4564 -0.8853
  223SOL     OW  667   2.937   0.843   2.012 -0.8384  0.5765  0.3830
  223SOL    HW1  668   2.948   0.855   2.116  1.2154  2.6293  0.5340
  223SOL    HW2  669   2.966   0.923   1.951  0.1612 -1.1054 -0.2607
  224SOL     OW  670   1.489   0.957   2.803 -0.3385 -0.0172 -0.3741
  224SOL    HW1  671   1.510   0.888   2.724  0.3712 -1.1540  0.5872
  224SOL    HW2  672   1.498   1.056   2.775  0.5429 -4.6167 -0.0498
  225SOL     OW  673   2.984   2.769   2.890 -0.3676 -0.5299 -0.6112
  225SOL    HW1  674   2.968   2.694   2.822  0.3128  1.5986  2.4180
  225SOL    HW2  675   3.085   2.796   2.896 -1.6795 -0.3544  0.6119
  226SOL     OW  676   2.449   1.579   2.890 -0.2548 -0.2365 -0.3365
  226SOL    HW1  677   2.493   1.558   2.801 -0.4233  0.8300 -1.9873
  226SOL    HW2  678   2.384   1.505   2.920  1.8223 -2.6873 -1.5814
  227SOL     OW  679   0.891   0.114   3.010  0.2370  0.0965  0.6544
  227SOL    HW1  680   0.924   0.037   3.070  0.0423 -0.2703 -1.4345
  227SOL    HW2  681   0.905   0.087   2.909 -1.1872 -1.4513  3.6363
  228SOL     OW  682   2.381   0.615   2.841  0.4513  0.5858 -0.5064
  228SOL    HW1  683   2.334   0.655   2.760 -2.3376 -1.2038  0.1733
  228SOL    HW2  684   2.433   0.527   2.820 -0.5282  1.9431  2.0780
  229SOL     OW  685   0.553   0.519   1.857 -0.1735 -0.0725  0.1375
  229SOL    HW1  686   0.514   0.464   1.783 -0.0867 -0.7149 -1.0524
  229SOL    HW2  687   0.616   0.599   1.843 -3.3833  2.4853  0.4423
  230SOL     OW  688   1.882   1.250   2.168  0.3366  0.1270 -0.5252
  230SOL    HW1  689   1.948   1.260   2.093 -1.0756 -2.8033  1.6730
  230SOL    HW2  690   1.789   1.293   2.138  0.4698 -0.1786  0.9064
  231SOL     OW  691   0.636   1.000   3.008 -0.3232 -0.4295  0.0643
  231SOL    HW1  692   0.719   1.064   3.003 -2.8587  2.2536  0.4234
  231SOL    HW2  693   0.560   1.048   3.054  0.4857 -0.6242  0.3815
  232SOL     OW  694   2.469   0.011   2.756 -0.7079 -0.4473  0.0459
  232SOL    HW1  695   2.476  -0.077   2.811  3.5392 -0.0168  1.8597
  232SOL    HW2  696   2.505   0.000   2.661  4.4065 -0.9568  2.4062
  233SOL     OW  697   1.699   1.246   1.072 -0.0550  0.4355  0.2815
  233SOL    HW1  698   1.727   1.304   0.995  1.3571  0.3626  3.8089
  233SOL    HW2  699   1.760   1.160   1.084 -0.6281  0.2981 -0.4853
  234SOL     OW  700   1.690   2.577   1.822 -0.5224 -0.4972  0.1427
  234SOL    HW1  701   1.672   2.594   1.923  0.3292  1.5217  1.4293
  234SOL    HW2  702   1.616   2.521   1.776  2.0842 -2.9700  0.2373
  235SOL     OW  703   0.095   2.999   2.901 -1.0081 -0.5520 -0.2404
  235SOL    HW1  704   0.150   3.077   2.853  3.4421  1.6440  0.6703
  235SOL    HW2  705   0.016   3.030   2.963  0.4011 -0.6384  2.5767
  236SOL     OW  706   2.869   0.678   0.114  0.8951  0.2769 -0.5825
  236SOL    HW1  707   2.917   0.763   0.154 -0.9594  0.7572  0.5169
  236SOL    HW2  708   2.924   0.623   0.041  0.9963  3.0921  1.5991
  237SOL     OW  709   1.481   1.633   1.001  0.3381  0.1172  0.0463
  237SOL    HW1  710   1.582   1.608   1.018 -0.1961 -0.0460  0.9847
  237SOL    HW2  711   1.417   1.630   1.081 -3.3415 -1.3181 -0.0556
  238SOL     OW  712   1.772   1.314   0.807 -0.9247 -0.3565 -0.5956
  238SOL    HW1  713   1.861   1.324   0.755 -1.6497  0.6590 -2.0606
  238SOL    HW2  714   1.692   1.351   0.757 -1.6932  1.0304 -2.0579
  239SOL     OW  715   2.072   0.251   2.710 -0.4347  0.3801 -0.9209
  239SOL    HW1  716   2.158   0.234   2.762 -2.2071 -1.0227  0.7110
  239SOL    HW2  717   2.006   0.308   2.760 -1.2803  0.3440 -3.4407
  240SOL     OW  718   0.880   0.692   0.244  0.1866  0.0029  0.6417
  240SOL    HW1  719   0.891   0.600   0.202  0.9681  1.6031  0.4658
  240SOL    HW2  720   0.892   0.673   0.352  0.7078  0.2455  1.3506
  241SOL     OW  721   0.579   0.070   0.311  0.1779  0.9667 -0.2433
  241SOL    HW1  722   0.615   0.021   0.221 -0.6760 -1.4429 -1.1397
  241SOL    HW2  723   0.513   0.019   0.366  2.0982  0.6188 -0.7484
  242SOL     OW  724   0.670   2.449   1.160 -0.6872  0.1270  0.3983
  242SOL    HW1  725   0.660   2.510   1.245 -0.3570 -1.1142 -1.7291
  242SOL    HW2  726   0.759   2.462   1.105  0.5779 -1.6851 -1.8908
  243SOL     OW  727   1.105   0.651   2.432  0.0253  0.2031  0.2427
  243SOL    HW1  728   1.047   0.725   2.393  2.9070 -2.8454  2.4377
  243SOL    HW2  729   1.050   0.574   2.466  1.7422  1.9669 -1.4964
  244SOL     OW  730   2.802   1.880   2.438  0.2765 -0.5705  0.1810
  244SOL    HW1  731   2.823   1.861   2.340  2.0661 -0.6959 -1.8773
  244SOL    HW2  732   2.730   1.815   2.470 -0.0934  0.5851 -2.2567
  245SOL     OW  733   2.471   0.739   2.150  0.2160  0.0616  0.1203
  245SOL    HW1  734   2.483   0.780   2.245 -1.0436  0.3626 -1.6297
  245SOL    HW2  735   2.543   0.664   2.124  2.2170 -3.1398  2.8246
  246SOL     OW  736   0.292   2.908   1.672  0.7427  0.5348  0.0704
  246SOL    HW1  737   0.207   2.888   1.609  1.3204 -1.2223 -2.2545
  246SOL    HW2  738   0.330   3.003   1.662  1.9066 -0.4911 -1.7760
  247SOL     OW  739   2.179   0.571   3.037  0.3231  0.2929 -0.1017
  247SOL    HW1  740   2.252   0.568   2.962  0.0797  1.8851  3.0057
  247SOL    HW2  741   2.134   0.665   3.046  0.5028  2.7848 -2.4840
  248SOL     OW  742   2.194   1.872   1.615 -0.6691  0.3368  0.0004
  248SOL    HW1  743   2.243   1.793   1.664  0.2335 -0.4314 -1.9325
  248SOL    HW2  744   2.102   1.891   1.657  1.1777  2.7834  0.5762
  249SOL     OW  745   1.927   2.006   1.962 -0.0982  0.3260 -0.5066
  249SOL    HW1  746   1.927   1.924   1.894  0.8012 -0.7791  1.2850
  249SOL    HW2  747   2.024   2.050   1.975  1.4162  0.1541  0.1540
  250SOL     OW  748   1.025   0.687   1.856  0.2926  0.7707  0.3242
  250SOL    HW1  749   1.045   0.626   1.937  0.9769 -0.6507  0.7766
  250SOL    HW2  750   1.077   0.647   1.776  1.6351  1.5184 -0.5231
  251SOL     OW  751   3.067   1.572   2.557  0.4225  0.5865 -0.2796
  251SOL    HW1  752   3.073   1.675   2.577 -1.8445  0.7565 -0.1942
  251SOL    HW2  753   2.967   1.544   2.547 -0.0358  0.2818  2.6642
  252SOL     OW  754   1.507   0.898   1.518  0.0232 -0.3052 -0.0596
  252SOL    HW1  755   1.510   0.937   1.420 -0.2700  1.9119  2.9843
  252SOL    HW2  756   1.492   0.974   1.585 -0.1780  1.8344 -0.1392
  253SOL     OW  757   0.947   1.586   0.360 -0.5254 -0.5186  0.1500
  253SOL    HW1  758   0.938   1.495   0.325 -1.0547  1.7844  1.3945
  253SOL    HW2  759   0.860   1.612   0.411  3.0258 -2.4052 -1.7773
  254SOL     OW  760   2.028   2.184   1.601  0.4690  0.0066  0.0961
  254SOL    HW1  761   1.967   2.140   1.526 -1.6558  1.7017  1.1197
  254SOL    HW2  762   1.985   2.202   1.691  3.5065 -2.1145 -0.0400
  255SOL     OW  763   0.135   1.153   2.924  0.1952  0.0662  0.0954
  255SOL    HW1  764   0.184   1.240   2.913 -1.6665 -0.4604 -1.1051
  255SOL    HW2  765   0.202   1.075   2.948  2.4882 -3.8964 -0.7644
  256SOL     OW  766   2.821   1.379   1.847  0.5006 -0.5430  0.5906
  256SOL    HW1  767   2.759   1.462   1.844  0.2165  0.7043  0.6364
  256SOL    HW2  768   2.772   1.292   1.879 -0.4870  0.0208 -0.5177
  257SOL     OW  769   0.909   0.189   1.902 -0.1430 -0.4222 -0.3928
  257SOL    HW1  770   0.911   0.226   1.806 -0.8808 -0.6190  1.6382
  257SOL    HW2  771   0.934   0.091   1.904  0.2407  1.5038 -2.5950
  258SOL     OW  772   2.963   1.282   0.433  0.5275 -0.5871  0.1515
  258SOL    HW1  773   2.905   1.368   0.416  0.1967  1.9610 -3.2245
  258SOL    HW2  774   3.014   1.294   0.520 -2.5161  0.9993 -2.4048
  259SOL     OW  775   0.446   2.916   2.974  0.3376 -0.3674  0.2386
  259SOL    HW1  776   0.404   2.859   3.055 -0.8430 -2.2487 -0.0240
  259SOL    HW2  777   0.423   2.868   2.885 -0.2188  1.8968  1.6242
  260SOL     OW  778   2.685   0.834   2.763  0.6839  0.6349 -0.2100
  260SOL    HW1  779   2.595   0.811   2.716  0.8849  3.0587 -0.6374
  260SOL    HW2  780   2.676   0.845   2.866  2.1772 -0.8379  0.0289
  261SOL     OW  781   2.724   1.353   1.318  0.3536 -0.2129  0.2899
  261SOL    HW1  782   2.681   1.288   1.249 -3.4974 -0.3561 -1.5502
  261SOL    HW2  783   2.826   1.342   1.329  0.3256 -0.7506 -1.7352
  262SOL     OW  784   1.481   2.897   2.008 -0.0993  0.0025 -0.4707
  262SOL    HW1  785   1.496   2.976   1.937 -2.7865  2.5368  1.3657
  262SOL    HW2  786   1.381   2.880   2.015  0.2662 -1.1770 -1.2030
  263SOL     OW  787   0.852   0.783   2.313 -0.3479 -0.1663 -0.4840
  263SOL    HW1  788   0.810   0.693   2.282 -0.7234  1.7787 -0.1232
  263SOL    HW2  789   0.888   0.843   2.236 -1.4783  0.2223  1.5516
  264SOL     OW  790   2.264   0.719   0.472 -0.3394 -1.2246 -0.0639
  264SOL    HW1  791   2.164   0.707   0.448 -2.7141 -2.5370  0.9103
  264SOL    HW2  792   2.299   0.817   0.476  1.3323  2.9183 -1.6759
  265SOL     OW  793   0.897   2.277   2.670  0.1417 -0.1043 -0.0211
  265SOL    HW1  794   0.964   2.312   2.745  1.1378 -1.4542 -0.2769
  265SOL    HW2  795   0.823   2.217   2.710 -1.6494 -2.8356 -0.6800
  266SOL     OW  796   1.343   1.708   0.060  0.0108  0.2636 -0.1010
  266SOL    HW1  797   1.309   1.798   0.106 -1.8459  0.7455 -1.9411
  266SOL    HW2  798   1.448   1.691   0.063 -0.1663 -2.6718  0.7116
  267SOL     OW  799   1.057   3.069   2.384 -0.5563 -0.7665 -0.0923
  267SOL    HW1  800   1.041   3.015   2.298  0.4080  0.2252  0.3800
  267SOL    HW2  801   1.017   3.166   2.379  0.5122 -1.0661 -2.9417
  268SOL     OW  802   0.675   1.156   1.014  0.2339  0.0063  0.7838
  268SOL    HW1  803   0.717   1.215   1.083 -0.2447 -0.8446 -1.3948
  268SOL    HW2  804   0.642   1.212   0.932 -1.5093  1.3416 -0.6536
  269SOL     OW  805   2.428   2.456   1.605  0.5557 -0.5896 -0.0122
  269SOL    HW1  806   2.508   2.387   1.601  0.7080 -1.9768 -1.4716
  269SOL    HW2  807   2.406   2.488   1.704 -0.3191 -2.0563  2.6369
  270SOL     OW  808   0.182   2.990   1.942 -0.6167  0.5171 -0.2624
  270SOL    HW1  809   0.273   2.972   1.896  0.8400  3.8603  0.6877
  270SOL    HW2  810   0.114   2.911   1.944  0.4821 -1.7523 -0.5894
  271SOL     OW  811   0.464   1.404   1.190 -0.8665  0.1122 -0.2531
  271SOL    HW1  812   0.443   1.461   1.103 -0.3556  3.3391 -0.1810
  271SOL    HW2  813   0.379   1.409   1.249  2.2524  0.2579  1.5802
  272SOL     OW  814   1.899   2.918   1.906 -0.0536 -0.0831  0.2052
  272SOL    HW1  815   1.863   2.850   1.836  0.6002 -2.1327  1.2589
  272SOL    HW2  816   1.994   2.960   1.881  4.4366  0.7490 -0.3453
  273SOL     OW  817   1.406   1.411   2.818 -0.0703 -0.0527  0.1738
  273SOL    HW1  818   1.355   1.484   2.769 -0.4521 -3.2039  0.3373
  273SOL    HW2  819   1.417   1.439   2.915 -0.5071  0.4572 -0.8166
  274SOL     OW  820   1.148   0.520   2.041  0.2080  0.4126  0.0785
  274SOL    HW1  821   1.197   0.446   1.979  1.7035 -2.2548  0.3977
  274SOL    HW2  822   1.202   0.529   2.129 -1.7664 -0.4311 -2.3132
  275SOL     OW  823   0.619   2.086   1.969  0.2437 -0.0901 -0.1058
  275SOL    HW1  824   0.564   2.178   1.968 -2.3640  0.3494 -3.9774
  275SOL    HW2  825   0.559   2.007   1.945  0.8509  1.1536 -0.8333
  276SOL     OW  826   2.171   0.938   2.764  0.1279 -0.3644 -1.0420
  276SOL    HW1  827   2.088   0.969   2.705 -0.7412 -1.4023 -2.1031
  276SOL    HW2  828   2.149   0.892   2.851  0.6528 -1.3448  0.9959
  277SOL     OW  829   3.054   0.864   0.205  0.0979  0.0915  0.2181
  277SOL    HW1  830   3.133   0.882   0.140  0.3000  2.7613  0.0654
  277SOL    HW2  831   3.080   0.794   0.273  0.6137 -1.3762 -2.2549
  278SOL     OW  832   0.193   0.279   2.960  0.5252  0.0362  0.1315
  278SOL    HW1  833   0.243   0.204   3.018 -1.2700  0.9689 -1.2612
  278SOL    HW2  834   0.227   0.381   2.975 -1.5624  3.5429 -0.0336
  279SOL     OW  835   0.162   0.053   0.869 -0.2429 -0.0453 -0.5220
  279SOL    HW1  836   0.199   0.045   0.967  2.2816  0.8602 -0.4924
  279SOL    HW2  837   0.237   0.032   0.802  0.7006  0.9967  1.4657
  280SOL     OW  838   1.608   2.936   2.558  0.1620 -0.4465  0.0138
  280SOL    HW1  839   1.671   2.988   2.498  2.6395 -2.2100  2.7561
  280SOL    HW2  840   1.509   2.967   2.566  2.7060  0.3856  2.5479
  281SOL     OW  841   0.567   0.973   2.310 -0.1496  0.4970 -0.7799
  281SOL    HW1  842   0.594   0.884   2.271  0.4256  0.5644  1.2946
  281SOL    HW2  843   0.508   0.966   2.396  0.2410  0.7892 -1.2083
  282SOL     OW  844   1.729   2.414   0.512 -0.2841 -0.6132 -0.2943
  282SOL    HW1  845   1.713   2.359   0.428  3.0017 -0.4952 -0.6460
  282SOL    HW2  846   1.685   2.506   0.503  2.0772 -2.6744  3.3892
  283SOL     OW  847   1.182   0.971   0.787  0.3962 -0.6148  0.9559
  283SOL    HW1  848   1.241   0.906   0.848 -1.2321  1.2273  2.4760
  283SOL    HW2  849   1.135   1.048   0.842 -2.7346  1.8217 -0.2672
  284SOL     OW  850   2.368   2.796   2.345  0.0783 -0.1233 -1.1731
  284SOL    HW1  851   2.413   2.863   2.279  2.2545 -1.9487  0.6750
  284SOL    HW2  852   2.427   2.786   2.429 -0.4320 -1.5726  3.2478
  285SOL     OW  853   1.340   2.970   2.544 -0.2826 -0.2799 -0.5012
  285SOL    HW1  854   1.329   2.997   2.446 -1.1626 -1.5451  3.2452
  285SOL    HW2  855   1.253   2.981   2.602 -1.1634  0.6694 -0.5348
  286SOL     OW  856   0.464   0.425   0.702 -0.0394 -0.2523  0.1708
  286SOL    HW1  857   0.428   0.389   0.794 -0.7393  0.2400  0.8831
  286SOL    HW2  858   0.441   0.360   0.621 -0.6417 -2.0931  0.3024
  287SOL     OW  859   0.120   1.306   2.542  0.2716 -0.6150  0.4386
  287SOL    HW1  860   0.084   1.248   2.620 -1.9347  1.2505 -0.1821
  287SOL    HW2  861   0.078   1.401   2.538  1.9694  2.9392 -1.2222
  288SOL     OW  862   1.595   2.698   1.504 -1.1278 -0.1004  0.8793
  288SOL    HW1  863   1.623   2.609   1.458  4.9901 -1.6427 -2.1922
  288SOL    HW2  864   1.631   2.779   1.451  0.1022 -3.8878  0.8359
  289SOL     OW  865   0.667   2.735   0.758  0.7404 -0.1892  0.3471
  289SOL    HW1  866   0.686   2.817   0.690 -1.0868  1.7456  0.1236
  289SOL    HW2  867   0.674   2.768   0.855 -1.2514  0.3604 -0.7677
  290SOL     OW  868   2.865   1.147   1.595 -0.2727 -1.1423  0.3280
  290SOL    HW1  869   2.775   1.099   1.587 -0.4016 -0.9555  1.9320
  290SOL    HW2  870   2.921   1.120   1.683  0.4885 -1.9248  2.2473
  291SOL     OW  871   1.971   0.040   0.105 -0.8235 -0.6801 -0.5433
  291SOL    HW1  872   1.984   0.060   0.206  0.9816  0.0598 -0.8635
  291SOL    HW2  873   1.996   0.124   0.048 -0.3224  1.3422  0.5682
  292SOL     OW  874   2.976   1.155   3.032  0.1885  0.4543  0.0357
  292SOL    HW1  875   2.914   1.204   2.968  1.1886 -0.8331 -1.8109
  292SOL    HW2  876   3.066   1.145   2.981  1.5906  0.6215 -0.3019
  293SOL     OW  877   0.614   2.131   0.123 -0.2128  0.8742  0.6523
  293SOL    HW1  878   0.568   2.173   0.207  1.3703 -0.5731  2.6542
  293SOL    HW2  879   0.718   2.113   0.139 -0.7935 -0.5294  0.2145
  294SOL     OW  880   1.681   2.153   1.764  0.0867 -0.1221  0.4227
  294SOL    HW1  881   1.677   2.205   1.854  2.0002  0.7676 -1.0415
  294SOL    HW2  882   1.692   2.223   1.688 -0.6602  2.9314  0.6075
  295SOL     OW  883   1.010   0.995   0.437  0.1568  0.0493  1.0453
  295SOL    HW1  884   1.099   1.031   0.481  3.6068  2.1065  3.0279
  295SOL    HW2  885   0.929   1.019   0.498 -0.7630  0.1660 -1.4932
  296SOL     OW  886   1.335   2.039   2.504  0.2485  0.4556  0.0321
  296SOL    HW1  887   1.341   2.059   2.401  1.3817  0.2496 -0.6307
  296SOL    HW2  888   1.335   1.941   2.528  1.5438 -2.0829  1.1569
  297SOL     OW  889   1.480   0.605   1.357  0.1114  0.2380  0.2370
  297SOL    HW1  890   1.421   0.518   1.364  2.2803 -2.9937 -0.6506
  297SOL    HW2  891   1.578   0.585   1.387  0.4974 -0.4061  0.0510
  298SOL     OW  892   0.436   1.206   2.885 -0.1457  0.1555  0.1565
  298SOL    HW1  893   0.450   1.147   2.967  1.7122 -0.9104  0.8747
  298SOL    HW2  894   0.521   1.207   2.825  1.0721 -1.3844  0.4521
  299SOL     OW  895   0.463   0.296   1.463  0.5830 -0.5067 -0.3244
  299SOL    HW1  896   0.446   0.390   1.425 -0.9167 -1.9761  1.2753
  299SOL    HW2  897   0.556   0.276   1.506 -1.4853  2.3517 -1.5940
  300SOL     OW  898   1.182   1.797   2.894  0.2836 -0.2990  0.0796
  300SOL    HW1  899   1.128   1.732   2.826 -0.1426  0.4820 -1.4735
  300SOL    HW2  900   1.185   1.757   2.989  0.7856 -1.3802  1.6239
  301SOL     OW  901   0.442   0.275   0.449  0.2301 -0.3139  0.6562
  301SOL    HW1  902   0.342   0.278   0.414 -1.2633 -0.4397 -1.3300
  301SOL    HW2  903   0.506   0.256   0.365  2.6271  0.9425 -0.1949
  302SOL     OW  904   1.243   2.321   2.321  0.1448  0.0380 -0.0257
  302SOL    HW1  905   1.187   2.341   2.398 -0.3549  1.2468 -3.1774
  302SOL    HW2  906   1.255   2.216   2.306 -0.1442 -1.5345 -0.7188
  303SOL     OW  907   0.947   2.328   0.791  0.1746 -0.1117  0.0261
  303SOL    HW1  908   0.973   2.381   0.704 -0.9573 -1.8734  0.0063
  303SOL    HW2  909   0.961   2.381   0.879  2.7111 -1.1587 -0.3593
  304SOL     OW  910   0.132   2.059   0.661  0.0094  0.2630 -0.0921
  304SOL    HW1  911   0.167   1.993   0.583  2.7676 -0.9131  0.1374
  304SOL    HW2  912   0.079   2.142   0.627 -2.9167 -0.8276 -2.4743
  305SOL     OW  913   1.600   0.887   0.625 -0.1698 -0.9666 -0.4797
  305SOL    HW1  914   1.535   0.884   0.543 -0.9905  4.2993 -2.5823
  305SOL    HW2  915   1.670   0.808   0.631  1.7534  1.1639  0.1389
  306SOL     OW  916   0.472   1.867   1.900  0.0763 -0.6400  0.1468
  306SOL    HW1  917   0.556   1.806   1.870  1.4647 -0.4333  0.9681
  306SOL    HW2  918   0.434   1.831   1.992  0.8658  1.5311 -0.1681
  307SOL     OW  919   0.021   0.841   2.605 -0.1537 -0.0786 -0.0419
  307SOL    HW1  920   0.008   0.943   2.632  1.4290  0.5613  0.8366
  307SOL    HW2  921  -0.053   0.773   2.634 -0.1643  0.8122 -1.2669
  308SOL     OW  922   1.517   2.646   2.884 -0.2928  0.4477 -0.4839
  308SOL    HW1  923   1.504   2.628   2.784 -0.4692  4.1439  2.3361
  308SOL    HW2  924   1.438   2.605   2.942 -3.4444 -2.1812  1.2162
  309SOL     OW  925   1.226   0.090   1.744  0.5240 -0.2789  0.3781
  309SOL    HW1  926   1.320   0.057   1.767  2.7138  0.4485 -0.5545
  309SOL    HW2  927   1.218   0.145   1.659 -2.9392 -0.9263 -0.3644
  310SOL     OW  928   1.420   2.573   0.734  0.8217 -1.0746 -0.6202
  310SOL    HW1  929   1.386   2.630   0.812 -0.2644 -1.5687  0.2745
  310SOL    HW2  930   1.491   2.622   0.675  2.3484  5.9311  0.1748
  311SOL     OW  931   1.162   0.970   1.552 -0.6171 -0.5607  0.2611
  311SOL    HW1  932   1.246   0.905   1.570 -0.9999 -0.3915  2.4732
  311SOL    HW2  933   1.190   1.071   1.548  1.9343  1.1112  0.8471
  312SOL     OW  934   1.628   0.707   1.007  0.5109  0.2032  0.4709
  312SOL    HW1  935   1.605   0.797   0.964  1.8254  0.7365  0.3724
  312SOL    HW2  936   1.588   0.628   0.956 -2.4528  0.2439 -0.7338
  313SOL     OW  937   1.534   1.404   0.669  0.3012 -0.2195  0.9509
  313SOL    HW1  938   1.433   1.432   0.691 -1.8578  0.3826 -0.4296
  313SOL    HW2  939   1.537   1.303   0.639 -0.1923 -0.0936  1.0345
  314SOL     OW  940   2.985   3.091   3.074  0.0404 -0.6109  0.8310
  314SOL    HW1  941   2.942   3.166   3.131  0.2536 -2.8303  2.9321
  314SOL    HW2  942   2.911   3.019   3.061 -0.7829 -1.9211  3.4125
  315SOL     OW  943   1.221   0.229   2.780 -0.0545 -0.5148 -0.0871
  315SOL    HW1  944   1.169   0.160   2.724 -0.3285  2.4950 -0.1459
  315SOL    HW2  945   1.276   0.183   2.854  1.6933 -0.9106  1.8139
  316SOL     OW  946   1.719   2.092   0.920  0.5340  0.0076 -0.2288
  316SOL    HW1  947   1.670   2.090   1.008  2.1183  0.0667 -2.0631
  316SOL    HW2  948   1.722   2.187   0.875  0.5799  0.7915 -1.9696
  317SOL     OW  949   1.138   0.713   2.840 -0.4842  0.2734  0.0239
  317SOL    HW1  950   1.073   0.754   2.912 -0.6687 -1.0599  3.5361
  317SOL    HW2  951   1.102   0.633   2.785  1.2042  0.9432  0.1883
  318SOL     OW  952   1.457   3.026   2.262 -0.4237 -0.4969 -0.0728
  318SOL    HW1  953   1.418   3.125   2.243 -1.1364 -0.6148 -2.8106
  318SOL    HW2  954   1.462   2.985   2.166 -0.2321  2.6248 -1.8530
  319SOL     OW  955   0.652   2.404   2.912  0.1007  0.0723 -0.3003
  319SOL    HW1  956   0.591   2.371   2.989  0.3629  1.3270 -0.4476
  319SOL    HW2  957   0.739   2.346   2.917 -0.5429 -0.2144  1.3096
  320SOL     OW  958   1.626   2.179   0.344  0.0303  0.0743  0.1054
  320SOL    HW1  959   1.724   2.146   0.350 -0.8910  1.1680 -1.9383
  320SOL    HW2  960   1.562   2.155   0.430  0.2798 -0.3937  0.6996
  321SOL     OW  961   1.597   2.654   0.494  0.5087 -0.5986 -0.2920
  321SOL    HW1  962   1.512   2.712   0.497 -1.2335 -0.5233  0.6861
  321SOL    HW2  963   1.690   2.705   0.504 -0.7919  0.4295 -2.2471
  322SOL     OW  964   2.546   1.118   2.256 -0.1231  0.4753 -0.1531
  322SOL    HW1  965   2.600   1.156   2.334  2.5778 -1.0440  1.7517
  322SOL    HW2  966   2.532   1.013   2.265 -1.3763 -1.7486  0.6571
  323SOL     OW  967   0.999   2.662   0.787  0.8019 -0.2867  0.2705
  323SOL    HW1  968   1.017   2.628   0.692 -1.1673 -2.4207 -1.4102
  323SOL    HW2  969   1.032   2.759   0.805 -1.5098 -0.6877 -3.4929
  324SOL     OW  970   0.215   2.469   2.464  1.0410 -0.2165  0.2725
  324SOL    HW1  971   0.195   2.379   2.511 -0.9295 -0.1846  0.0988
  324SOL    HW2  972   0.152   2.547   2.492 -0.8872  1.6517 -3.0098
  325SOL     OW  973   1.210   3.050   0.459  0.3305  0.1014  0.2400
  325SOL    HW1  974   1.243   3.089   0.368  0.2074 -0.5863  1.4526
  325SOL    HW2  975   1.230   3.114   0.542 -0.8496 -1.8231  0.4322
  326SOL     OW  976   2.463   0.763   3.052  0.2578 -0.3114 -0.2274
  326SOL    HW1  977   2.410   0.694   2.995 -1.7687 -0.3901  0.6370
  326SOL    HW2  978   2.526   0.711   3.118 -1.2197 -1.8395 -0.5014
  327SOL     OW  979   2.861   0.394   0.508  0.7058 -0.0400 -0.3900
  327SOL    HW1  980   2.791   0.386   0.432  1.7349 -2.6659 -0.4124
  327SOL    HW2  981   2.832   0.331   0.589  0.2448 -1.9442  0.4694
  328SOL     OW  982   2.477   0.557   0.393  0.4750  0.2584 -0.1544
  328SOL    HW1  983   2.394   0.617   0.416  1.4498  0.7999  0.3558
  328SOL    HW2  984   2.525   0.515   0.477  0.0857  2.1385  0.0709
  329SOL     OW  985   2.940   2.989   2.167 -0.5861 -0.5518  0.1457
  329SOL    HW1  986   2.982   2.913   2.224  0.1605 -0.2424 -1.1073
  329SOL    HW2  987   2.967   3.084   2.198  0.7813  0.4991 -2.0297
  330SOL     OW  988   0.527   0.179   1.889  0.1884  0.2366  0.3209
  330SOL    HW1  989   0.597   0.255   1.897 -1.1338 -0.6770  0.6437
  330SOL    HW2  990   0.534   0.124   1.977 -0.6134  0.9086 -1.1155
  331SOL     OW  991   2.947   1.941   1.117 -0.3912  0.3321 -0.0145
  331SOL    HW1  992   2.982   2.019   1.056 -0.6110 -0.6208  0.0425
  331SOL    HW2  993   2.883   1.970   1.196 -1.3969 -0.7374  1.2064
  332SOL     OW  994   0.425   1.120   0.080  0.0550  0.1287 -0.6085
  332SOL    HW1  995   0.362   1.070   0.014  0.7020 -0.5174  1.5933
  332SOL    HW2  996   0.371   1.178   0.151  0.4336 -3.1944  2.6260
  333SOL     OW  997   2.874   1.052   0.306  0.1299  0.4334  0.1796
  333SOL    HW1  998   2.897   1.132   0.372  2.3575 -0.1117  0.8336
  333SOL    HW2  999   2.957   0.997   0.276 -1.7238  1.6718 -2.9679
  334SOL     OW 1000   1.683   1.192   1.897  0.3133 -0.1325 -0.5668
  334SOL    HW1 1001   1.786   1.169   1.873  0.4701  0.7573  1.6918
  334SOL    HW2 1002   1.672   1.284   1.940  1.4901 -0.1403 -1.8311
  335SOL     OW 1003   1.995   2.761   2.614 -0.4969  0.2574 -0.5761
  335SOL    HW1 1004   1.924   2.725   2.676  1.0674 -3.5662  0.5310
  335SOL    HW2 1005   2.076   2.803   2.658 -1.5222  1.8736  3.2504
  336SOL     OW 1006   0.255   0.105   2.762 -0.0968 -0.6507  0.2885
  336SOL    HW1 1007   0.357   0.095   2.733  2.0615  0.7633 -0.2621
  336SOL    HW2 1008   0.245   0.193   2.820  1.4470  0.0532  1.9717
  337SOL     OW 1009   0.929   2.783   2.796  0.6037  0.6578 -0.2321
  337SOL    HW1 1010   0.912   2.778   2.903 -1.5951 -2.3406 -1.0685
  337SOL    HW2 1011   1.017   2.731   2.767 -0.6605 -0.0492 -2.2920
  338SOL     OW 1012   0.032   0.985   0.666 -0.0900  0.1169  0.9419
  338SOL    HW1 1013  -0.061   0.940   0.670 -1.8846  0.3503 -0.2720
  338SOL    HW2 1014   0.033   1.086   0.638 -2.2556 -0.2338 -1.0105
  339SOL     OW 1015   1.677   1.389   2.086  0.3771 -0.3436  0.2201
  339SOL    HW1 1016   1.582   1.431   2.105 -1.2909  1.1169 -1.0342
  339SOL    HW2 1017   1.742   1.465   2.105  2.2754 -0.2426 -0.0061
  340SOL     OW 1018   2.294   0.808   1.207  1.0521 -0.1369  0.7647
  340SOL    HW1 1019   2.188   0.821   1.207  1.0254 -0.6560  1.0013
  340SOL    HW2 1020   2.328   0.715   1.174  3.4938 -0.4977 -0.1093
  341SOL     OW 1021   1.918   2.151   0.353  0.0906 -0.2457 -0.2491
  341SOL    HW1 1022   1.940   2.232   0.295  1.6000 -0.3274 -1.7669
  341SOL    HW2 1023   1.999   2.102   0.398 -1.8430 -0.6149 -1.3202
  342SOL     OW 1024   2.204   2.105   2.770 -0.4199  0.0106  0.1810
  342SOL    HW1 1025   2.273   2.032   2.805  1.3246 -0.5407 -2.8547
  342SOL    HW2 1026   2.110   2.070   2.782  1.7355  1.7640  0.2059
  343SOL     OW 1027   0.327   0.794   2.773 -0.5187 -0.2534  0.1447
  343SOL    HW1 1028   0.292   0.842   2.691 -0.5878  1.5558  0.6739
  343SOL    HW2 1029   0.436   0.791   2.786  3.6733  2.4725 -0.2488
  344SOL     OW 1030   1.905   1.455   0.438  0.3020 -0.1486  0.9022
  344SOL    HW1 1031   1.918   1.390   0.357  0.8043  0.3793 -0.6231
  344SOL    HW2 1032   1.800   1.481   0.445  0.1491  0.1532  0.6254
  345SOL     OW 1033   1.392   2.265   2.876 -0.0188  0.5995  0.8121
  345SOL    HW1 1034   1.298   2.227   2.855 -0.7170  0.9781  0.5401
  345SOL    HW2 1035   1.461   2.214   2.817 -0.7051 -0.9491  1.1701
  346SOL     OW 1036   2.308   0.865   1.467 -0.0693  0.4024  0.2106
  346SOL    HW1 1037   2.271   0.958   1.481 -0.5506  0.2248 -1.4285
  346SOL    HW2 1038   2.296   0.836   1.367 -1.1064  0.0944  0.3295
  347SOL     OW 1039   0.727   2.860   1.514  0.3448 -0.3696 -0.1015
  347SOL    HW1 1040   0.707   2.777   1.575  1.1570  1.3495  1.7592
  347SOL    HW2 1041   0.637   2.902   1.477 -1.2013  1.1333  1.3312
  348SOL     OW 1042   0.080   0.651   2.864  0.1692  0.0441 -0.4223
  348SOL    HW1 1043  -0.007   0.673   2.819  4.2349 -0.1410 -2.4544
  348SOL    HW2 1044   0.156   0.690   2.809  2.3943 -0.1613 -0.2305
  349SOL     OW 1045   1.852   0.430   2.800 -0.5739  0.2087 -0.1449
  349SOL    HW1 1046   1.849   0.524   2.763 -0.8586 -1.9768 -1.7471
  349SOL    HW2 1047   1.821   0.425   2.900  2.2711 -2.4780 -0.6256
  350SOL     OW 1048   1.636   0.426   0.380 -0.7176  0.7674 -0.6098
  350SOL    HW1 1049   1.707   0.444   0.453  0.0424  2.0085 -0.0355
  350SOL    HW2 1050   1.578   0.507   0.358  1.7047  0.8163  4.9983
  351SOL     OW 1051   0.967   0.906   2.067  0.2220 -0.3328 -0.2761
  351SOL    HW1 1052   0.935   1.002   2.032 -0.7288 -2.4355 -1.0260
  351SOL    HW2 1053   0.985   0.834   1.997  0.6322  2.0362  2.1523
  352SOL     OW 1054   1.999   1.296   0.652 -0.0915 -0.1950  0.3537
  352SOL    HW1 1055   1.960   1.365   0.581  2.1017 -2.0603  2.9520
  352SOL    HW2 1056   2.080   1.337   0.699 -0.2694 -0.1100 -0.7833
  353SOL     OW 1057   2.138   2.895   1.133  0.0126  0.0586  0.1647
  353SOL    HW1 1058   2.197   2.821   1.180  2.0524 -0.4897  0.7994
  353SOL    HW2 1059   2.078   2.852   1.061  2.9316 -0.4148 -2.6685
  354SOL     OW 1060   0.241   1.407   2.846 -0.0691  0.1558  0.3155
  354SOL    HW1 1061   0.241   1.482   2.772 -2.6400 -0.9481  0.4760
  354SOL    HW2 1062   0.321   1.345   2.848  1.4696  2.4890 -1.2537
  355SOL     OW 1063   0.519   1.531   0.518  0.4893 -0.2645 -0.6358
  355SOL    HW1 1064   0.551   1.609   0.578  0.1020 -0.4560 -1.8465
  355SOL    HW2 1065   0.578   1.446   0.526 -2.8973  0.4492  0.1703
  356SOL     OW 1066   0.921   0.356   2.125  0.2322 -1.0096 -0.0736
  356SOL    HW1 1067   0.996   0.425   2.087 -0.5283  0.7886 -0.4711
  356SOL    HW2 1068   0.911   0.285   2.050  2.0748 -0.1474 -0.1083
  357SOL     OW 1069   1.024   1.291   0.335  0.4598  0.1994  0.9201
  357SOL    HW1 1070   0.944   1.298   0.270  1.7448 -0.3163  0.3373
  357SOL    HW2 1071   1.025   1.223   0.411  0.4070  3.9126  0.9875
  358SOL     OW 1072   1.652   1.527   0.445  0.1665 -0.6930  0.1401
  358SOL    HW1 1073   1.610   1.484   0.529  1.3472  1.1158 -0.9580
  358SOL    HW2 1074   1.584   1.531   0.369 -1.9207 -1.5580  3.2494
  359SOL     OW 1075   1.569   2.690   0.096  0.2592  0.4607 -0.4921
  359SOL    HW1 1076   1.601   2.601   0.047 -0.7170  0.3294  1.0897
  359SOL    HW2 1077   1.471   2.690   0.114  0.1764  0.8673 -1.4895
  360SOL     OW 1078   0.890   0.608   0.497 -0.5465  0.4439  0.0347
  360SOL    HW1 1079   0.824   0.618   0.573 -1.3381 -0.1322 -0.4549
  360SOL    HW2 1080   0.901   0.508   0.472 -0.1850  2.2820  0.7455
  361SOL     OW 1081   1.252   1.394   0.675 -0.6470  0.0108 -0.1853
  361SOL    HW1 1082   1.291   1.371   0.771 -0.6802  2.1773  0.6532
  361SOL    HW2 1083   1.155   1.409   0.678  2.0566 -1.0245  0.4728
  362SOL     OW 1084   1.379   1.744   0.773 -0.1072  0.2777 -0.2746
  362SOL    HW1 1085   1.405   1.692   0.859  1.8713 -1.9673  0.1624
  362SOL    HW2 1086   1.449   1.819   0.755 -0.2983 -0.2330 -0.6184
  363SOL     OW 1087   1.206   1.308   2.028  0.7442 -0.7366  0.2849
  363SOL    HW1 1088   1.180   1.388   2.092 -3.3760 -0.1036  1.2498
  363SOL    HW2 1089   1.240   1.341   1.934  0.7110  1.3505  1.3000
  364SOL     OW 1090   0.541   2.342   1.921 -0.4570  0.5068 -0.1128
  364SOL    HW1 1091   0.457   2.401   1.934  1.4120 -1.5099  0.1382
  364SOL    HW2 1092   0.597   2.368   1.837  0.0390 -0.8035 -1.1884
  365SOL     OW 1093   1.071   1.946   1.392 -0.4390 -0.2593  0.1227
  365SOL    HW1 1094   0.973   1.957   1.415  0.3129  0.4942  0.3521
  365SOL    HW2 1095   1.087   1.875   1.319 -1.8465 -0.8164  2.5510
  366SOL     OW 1096   2.815   2.050   0.478 -0.0298 -0.5066  0.3258
  366SOL    HW1 1097   2.715   2.014   0.480  1.0686  0.2723 -0.9141
  366SOL    HW2 1098   2.869   2.021   0.394  1.7088  2.3924 -1.6168
  367SOL     OW 1099   0.804   1.208   0.141  0.1277 -0.4652  0.2109
  367SOL    HW1 1100   0.800   1.106   0.165 -0.7119 -3.1488 -0.6148
  367SOL    HW2 1101   0.831   1.235   0.043 -0.0202  2.9617 -2.6019
  368SOL     OW 1102   1.520   0.571   0.711 -0.4160  0.4661 -0.2970
  368SOL    HW1 1103   1.452   0.597   0.639  1.9220  1.2735  1.8704
  368SOL    HW2 1104   1.616   0.600   0.693 -1.5589 -0.1749 -0.6178
  369SOL     OW 1105   0.281   1.728   0.053 -0.1030  0.1019 -0.3992
  369SOL    HW1 1106   0.318   1.809   0.098 -3.2395  0.1183 -0.1396
  369SOL    HW2 1107   0.184   1.702   0.084 -2.9057  1.8319 -1.0503
  370SOL     OW 1108   0.383   2.120   1.032 -0.0796  0.2251  0.5423
  370SOL    HW1 1109   0.412   2.217   1.004  1.2457 -0.3711 -2.4739
  370SOL    HW2 1110   0.289   2.088   0.996  0.5386 -1.6693  0.4297
  371SOL     OW 1111   2.903   2.216   2.747 -0.2165  0.2245  0.3092
  371SOL    HW1 1112   2.887   2.195   2.846  0.4805  0.3560 -2.4162
  371SOL    HW2 1113   2.991   2.273   2.732  1.5853  2.0548 -1.3348
  372SOL     OW 1114   0.971   1.903   0.932  0.8485  0.3539  0.4652
  372SOL    HW1 1115   0.933   2.002   0.946  4.1557  1.2395 -0.7123
  372SOL    HW2 1116   1.056   1.909   0.873  1.2750  2.1147  0.5728
  373SOL     OW 1117   1.957   2.011   0.898 -0.9071  0.1328 -0.5905
  373SOL    HW1 1118   2.006   2.008   0.992 -0.8592  2.3727  1.7661
  373SOL    HW2 1119   1.852   2.030   0.906 -2.9139 -0.8434 -1.6570
  374SOL     OW 1120   1.844   0.459   0.544 -0.4509  0.0338  0.1540
  374SOL    HW1 1121   1.868   0.400   0.628 -1.7464 -0.3489  0.5815
  374SOL    HW2 1122   1.920   0.475   0.469  4.8482 -1.1165 -5.2697
  375SOL     OW 1123   2.378   2.149   1.131 -0.5909  0.1698 -0.2655
  375SOL    HW1 1124   2.452   2.146   1.058  3.4901  1.1986 -0.5658
  375SOL    HW2 1125   2.417   2.146   1.231 -1.1840  0.5129  2.0843
  376SOL     OW 1126   3.032   0.607   1.417 -0.3460 -0.0218 -0.4135
  376SOL    HW1 1127   3.078   0.674   1.482  0.4192  0.1097 -2.4356
  376SOL    HW2 1128   2.927   0.608   1.415 -1.2988 -0.6799 -0.6797
  377SOL     OW 1129   2.277   2.825   0.323 -0.0753 -0.0835  0.4934
  377SOL    HW1 1130   2.238   2.919   0.337 -1.1512 -0.1383  1.0834
  377SOL    HW2 1131   2.377   2.816   0.344  2.8009 -1.7164 -0.5396
  378SOL     OW 1132   1.801   1.917   2.634 -0.9256  0.1655 -0.2231
  378SOL    HW1 1133   1.818   1.818   2.652  0.4167  1.2888  0.7702
  378SOL    HW2 1134   1.825   1.932   2.538 -1.1165  2.0577  1.4740
  379SOL     OW 1135   0.876   0.067   2.729  0.6483  0.1616  0.2031
  379SOL    HW1 1136   0.809  -0.013   2.712  0.6000  1.0961 -2.6320
  379SOL    HW2 1137   0.833   0.156   2.705  0.9764 -1.0557 -1.5014
  380SOL     OW 1138   1.518   1.148   0.590  0.1262  0.2907 -0.2073
  380SOL    HW1 1139   1.422   1.144   0.556  0.5943  2.3531 -2.2545
  380SOL    HW2 1140   1.545   1.053   0.616 -3.0497  2.9469  0.2107
  381SOL     OW 1141   1.314   1.193   1.511 -0.3946  0.0591  0.4679
  381SOL    HW1 1142   1.350   1.247   1.428 -1.0814  1.0941  1.2074
  381SOL    HW2 1143   1.385   1.185   1.587  1.0659 -1.5711  2.1431
  382SOL     OW 1144   1.757   0.794   0.267  0.4301 -0.0168 -0.1974
  382SOL    HW1 1145   1.802   0.789   0.176 -1.6198  0.1336 -0.6554
  382SOL    HW2 1146   1.820   0.807   0.347  0.4327  0.7976 -1.1527
  383SOL     OW 1147   2.576   0.972   1.505 -0.2467 -0.2447 -0.0845
  383SOL    HW1 1148   2.507   0.901   1.495  0.1743 -0.1932 -0.7541
  383SOL    HW2 1149   2.650   0.955   1.433 -0.0330 -1.1860  1.4239
  384SOL     OW 1150   0.891   2.275   0.092 -0.6468  0.0832 -0.1137
  384SOL    HW1 1151   0.857   2.350   0.155 -1.0864  0.4410 -5.2741
  384SOL    HW2 1152   0.912   2.186   0.141 -3.0988 -2.3471  1.5641
  385SOL     OW 1153   2.988   2.014   1.760 -0.2905  0.0508  0.6773
  385SOL    HW1 1154   3.043   2.102   1.749  1.6205 -1.2788 -2.5211
  385SOL    HW2 1155   3.046   1.938   1.724  2.2292  2.1711 -3.6620
  386SOL     OW 1156   0.435   1.150   0.455 -0.4597 -0.0904  0.1492
  386SOL    HW1 1157   0.454   1.044   0.459  1.7615 -1.7306  0.5766
  386SOL    HW2 1158   0.365   1.175   0.386  0.9735 -0.2064  2.6030
  387SOL     OW 1159   0.980   0.280   1.657  0.3191  0.0055 -0.4154
  387SOL    HW1 1160   1.048   0.351   1.643  1.3944 -2.1244 -2.7197
  387SOL    HW2 1161   0.938   0.232   1.571 -1.0944 -0.9890 -1.6649
  388SOL     OW 1162   1.172   2.621   1.783  0.7941 -0.0593  0.0616
  388SOL    HW1 1163   1.175   2.640   1.681 -3.3183 -1.1431  2.0165
  388SOL    HW2 1164   1.255   2.567   1.817 -0.7338  2.1972  2.3429
  389SOL     OW 1165   0.256   0.023   1.135 -0.8511 -0.3097  0.3067
  389SOL    HW1 1166   0.178   0.016   1.199  2.7396 -0.1559 -0.3900
  389SOL    HW2 1167   0.299  -0.070   1.110 -0.4961 -0.2076 -2.9347
  390SOL     OW 1168   1.029   0.879   1.235  0.6654  0.1235 -0.1011
  390SOL    HW1 1169   1.119   0.838   1.272  0.7228 -3.2267 -0.5449
  390SOL    HW2 1170   0.963   0.929   1.306 -0.9274  1.5529  0.9971
  391SOL     OW 1171   2.094   1.153   1.063 -0.1515  0.2844  0.2141
  391SOL    HW1 1172   1.998   1.111   1.074 -1.3570 -0.8050 -0.3959
  391SOL    HW2 1173   2.168   1.085   1.034  3.4538 -2.0815 -0.9083
  392SOL     OW 1174   0.874   2.710   3.056  0.3125 -0.2076 -0.0721
  392SOL    HW1 1175   0.805   2.667   3.122 -2.0031  0.6202  0.3553
  392SOL    HW2 1176   0.954   2.758   3.107  1.7320  1.1043  0.3542
  393SOL     OW 1177   0.370   0.574   2.059  0.0548 -0.2753  1.1250
  393SOL    HW1 1178   0.274   0.545   2.034  1.0810  1.2220  0.1962
  393SOL    HW2 1179   0.438   0.571   1.980  2.8124 -2.9663  2.0759
  394SOL     OW 1180   2.847   1.829   2.809  0.4529 -0.1008  0.5292
  394SOL    HW1 1181   2.948   1.831   2.832 -0.6672  3.7866  1.4555
  394SOL    HW2 1182   2.840   1.845   2.709  1.8351 -0.8114 -1.0468
  395SOL     OW 1183   1.589   1.932   0.735 -0.3047  0.0057  0.3712
  395SOL    HW1 1184   1.645   1.868   0.684  0.1828  0.2588  1.5206
  395SOL    HW2 1185   1.643   1.999   0.790 -2.3867  1.9120 -0.8445
  396SOL     OW 1186   2.765   2.054   1.309  0.4524 -0.0499 -0.0782
  396SOL    HW1 1187   2.792   2.070   1.410  1.7803  0.3573 -1.4990
  396SOL    HW2 1188   2.662   2.043   1.298 -0.6259 -2.2906  3.5340
  397SOL     OW 1189   1.012   2.080   0.650 -0.1183  0.1622 -0.1004
  397SOL    HW1 1190   0.920   2.044   0.616  2.7642 -1.6085  2.6606
  397SOL    HW2 1191   1.005   2.179   0.682  0.0370  3.2245 -0.5992
  398SOL     OW 1192   2.180   0.068   1.085 -0.6347  0.8093 -0.1360
  398SOL    HW1 1193   2.154  -0.033   1.093 -0.8163 -1.6388 -0.0803
  398SOL    HW2 1194   2.105   0.132   1.063  1.9336 -1.4558  1.8039
  399SOL     OW 1195   2.969   2.537   2.727  0.4483 -0.1796 -0.6080
  399SOL    HW1 1196   2.914   2.516   2.639  0.3867  1.8088 -1.8408
  399SOL    HW2 1197   2.918   2.512   2.811 -1.0389  1.3575  0.2787
  400SOL     OW 1198   0.845   1.614   1.268  0.0983 -0.1463  0.1769
  400SOL    HW1 1199   0.777   1.638   1.343  0.1965 -0.5437  1.1486
  400SOL    HW2 1200   0.824   1.646   1.172  0.8316  2.1337 -1.8958
  401SOL     OW 1201   1.828   0.134   1.275 -0.4311  0.4197  0.0712
  401SOL    HW1 1202   1.892   0.179   1.351  0.9812 -0.2080  1.3855
  401SOL    HW2 1203   1.729   0.119   1.300 -1.0267 -0.1119 -0.9324
  402SOL     OW 1204   1.319   0.133   3.038 -0.0918 -0.3638  0.0984
  402SOL    HW1 1205   1.423   0.122   3.009  5.4398 -0.5364  0.9191
  402SOL    HW2 1206   1.300   0.227   3.084 -2.7506  0.2787 -2.8279
  403SOL     OW 1207   2.301   1.808   0.948  0.4995 -0.4300  0.1484
  403SOL    HW1 1208   2.402   1.802   0.958  0.2552  0.3255  0.1853
  403SOL    HW2 1209   2.253   1.882   1.007 -1.2598  1.4221 -0.3448
  404SOL     OW 1210   0.178   2.499   2.836  0.1591  0.4431  0.1823
  404SOL    HW1 1211   0.266   2.466   2.797  1.6443  2.1471 -1.0251
  404SOL    HW2 1212   0.186   2.602   2.850  0.0334  0.5388 -3.5202
  405SOL     OW 1213   0.240   2.572   0.567 -0.6342  0.0032 -0.7932
  405SOL    HW1 1214   0.237   2.548   0.468 -0.0779 -1.3271  2.6115
  405SOL    HW2 1215   0.308   2.648   0.587 -3.1957 -1.6534 -1.8266
  406SOL     OW 1216   0.036   1.513   2.981 -0.1423 -0.1057  0.6936
  406SOL    HW1 1217   0.118   1.469   2.933  1.8645  1.5902 -1.3527
  406SOL    HW2 1218   0.046   1.511   3.086  0.7704  1.7510  0.1280
  407SOL     OW 1219   1.520   0.928   0.887 -0.6582  0.0792  0.2002
  407SOL    HW1 1220   1.532   0.954   0.789 -1.1108 -2.5137  2.2503
  407SOL    HW2 1221   1.457   0.993   0.939 -0.1000 -0.6201  0.6771
  408SOL     OW 1222   1.501   2.400   0.962  0.2611  0.0500 -0.2601
  408SOL    HW1 1223   1.567   2.392   0.880 -0.2317  2.7045  1.4305
  408SOL    HW2 1224   1.534   2.472   1.029  2.0562  2.8707 -0.9028
  409SOL     OW 1225   0.666   0.869   0.684 -0.0997 -0.5137 -0.2782
  409SOL    HW1 1226   0.592   0.871   0.610  0.0247  0.0019 -0.8220
  409SOL    HW2 1227   0.680   0.766   0.710  2.1053 -3.2788 -1.8244
  410SOL     OW 1228   1.318   2.012   1.498 -0.0341  0.1283 -0.3580
  410SOL    HW1 1229   1.314   2.077   1.581 -3.6384  0.9112  1.2535
  410SOL    HW2 1230   1.226   1.976   1.480  1.5174  3.0979  1.4619
  411SOL     OW 1231   2.376   1.836   0.042  0.1049 -0.2316 -0.3977
  411SOL    HW1 1232   2.286   1.789   0.039  0.7853 -0.4088 -0.4232
  411SOL    HW2 1233   2.418   1.848  -0.051 -0.9913  2.0812  1.7815
  412SOL     OW 1234   1.507   2.405   2.220  0.2763  0.3022 -0.4566
  412SOL    HW1 1235   1.558   2.485   2.252  0.7924 -1.8663  1.1530
  412SOL    HW2 1236   1.455   2.345   2.288 -1.5023 -1.1367 -1.1064
  413SOL     OW 1237   3.008   0.264   2.952  0.0397 -0.2532  0.4722
  413SOL    HW1 1238   2.982   0.179   3.003  1.9532  1.8461  4.1971
  413SOL    HW2 1239   3.115   0.274   2.946  0.1846  1.4046  2.3563
  414SOL     OW 1240   1.775   1.364   1.331 -0.4289  0.3916  0.1981
  414SOL    HW1 1241   1.695   1.429   1.351  0.7237  2.5576 -0.3771
  414SOL    HW2 1242   1.773   1.329   1.237  1.8573  2.9442  0.3962
  415SOL     OW 1243   0.369   2.273   0.669 -0.0618  0.2009 -0.2004
  415SOL    HW1 1244   0.339   2.364   0.625 -0.1536 -2.2346  1.0594
  415SOL    HW2 1245   0.301   2.196   0.673  0.9459  0.3553  0.7599
  416SOL     OW 1246   0.371   1.019   1.055  0.3601  0.2953 -0.1371
  416SOL    HW1 1247   0.313   0.980   0.976 -2.9665 -0.9899 -0.5188
  416SOL    HW2 1248   0.452   1.081   1.032 -0.3244 -1.5615 -0.2127
  417SOL     OW 1249   2.151   2.316   1.890 -0.0542 -0.1329  0.5899
  417SOL    HW1 1250   2.168   2.221   1.919 -1.0540 -0.1212 -1.8787
  417SOL    HW2 1251   2.064   2.354   1.922  0.6193  1.0680  0.4240
  418SOL     OW 1252   1.129   0.453   1.330 -0.4518  0.7161  0.2295
  418SOL    HW1 1253   1.026   0.451   1.298 -1.6523  1.8589 -3.7291
  418SOL    HW2 1254   1.193   0.427   1.259  1.3399  0.9790 -0.3242
  419SOL     OW 1255   0.970   0.379   3.029 -0.2701 -0.2410 -0.2257
  419SOL    HW1 1256   1.010   0.424   2.946  1.8729 -0.2652  2.1053
  419SOL    HW2 1257   0.945   0.279   3.017  4.1366  1.0412 -0.9940
  420SOL     OW 1258   0.223   2.266   0.349  0.5668 -0.5241 -0.1902
  420SOL    HW1 1259   0.191   2.190   0.281  1.9752 -0.7487 -2.8441
  420SOL    HW2 1260   0.166   2.279   0.434  1.9873  1.6347 -0.5770
  421SOL     OW 1261   0.328   3.080   0.648 -0.0473  0.4164  0.1586
  421SOL    HW1 1262   0.323   3.029   0.557 -0.6079 -0.6632  1.1040
  421SOL    HW2 1263   0.421   3.124   0.659 -0.6125  1.3218  2.2460
  422SOL     OW 1264   0.929   2.503   1.029 -0.1637 -0.1314 -0.0955
  422SOL    HW1 1265   0.932   2.579   0.964 -0.0127 -0.6651  2.7405
  422SOL    HW2 1266   0.980   2.523   1.115  1.6839  1.8194 -1.1339
  423SOL     OW 1267   0.040   0.726   1.194  0.4325 -0.4813  0.4463
  423SOL    HW1 1268  -0.013   0.675   1.271 -1.0943  0.3411 -0.7624
  423SOL    HW2 1269  -0.021   0.788   1.141  0.3645  3.8942 -0.2353
  424SOL     OW 1270   1.024   2.149   2.150 -0.2155  0.3743 -0.7919
  424SOL    HW1 1271   1.018   2.248   2.132  1.3353  0.8555 -0.5386
  424SOL    HW2 1272   0.968   2.121   2.231 -1.1265  0.3543 -0.9264
  425SOL     OW 1273   1.999   1.401   1.076 -0.3491 -0.1267 -0.1783
  425SOL    HW1 1274   2.053   1.314   1.053  0.6856 -2.7356 -0.0914
  425SOL    HW2 1275   2.051   1.482   1.030 -0.9836  0.0823  0.0704
  426SOL     OW 1276   1.556   1.527   1.379 -0.0448  0.2333  0.0366
  426SOL    HW1 1277   1.514   1.607   1.334 -1.1366  0.8111 -0.3233
  426SOL    HW2 1278   1.542   1.528   1.479  1.4561  3.0447 -0.8669
  427SOL     OW 1279   1.924   2.372   2.049 -0.0692  0.0006  0.6815
  427SOL    HW1 1280   1.934   2.301   2.126  1.4140 -0.8807 -2.2026
  427SOL    HW2 1281   1.907   2.470   2.075 -1.4230  0.8294  0.3024
  428SOL     OW 1282   0.910   3.051   0.126 -0.3830  0.2270  0.0924
  428SOL    HW1 1283   0.946   3.132   0.171 -0.5690 -0.0391 -2.1528
  428SOL    HW2 1284   0.969   2.968   0.145 -0.3810  1.7684  0.0092
  429SOL     OW 1285   1.319   0.058   0.239  0.1316 -0.0505 -0.0381
  429SOL    HW1 1286   1.412   0.082   0.286 -0.9808 -0.5547 -0.1021
  429SOL    HW2 1287   1.324   0.044   0.136 -1.9646  1.9407 -2.2527
  430SOL     OW 1288   2.810   1.509   0.357 -0.3519  0.5639 -0.1836
  430SOL    HW1 1289   2.828   1.578   0.279  0.5736 -1.1916  2.4601
  430SOL    HW2 1290   2.811   1.550   0.452  0.4573  0.9159  0.5208
  431SOL     OW 1291   2.130   1.600   0.910  0.8111 -0.0143 -0.0016
  431SOL    HW1 1292   2.209   1.666   0.901  2.3174  0.6010  0.9148
  431SOL    HW2 1293   2.038   1.645   0.890 -0.3226 -0.2070 -0.2614
  432SOL     OW 1294   2.922   2.301   1.245  0.7291  0.0935 -0.1869
  432SOL    HW1 1295   2.861   2.213   1.251  1.5985 -2.9225  2.0628
  432SOL    HW2 1296   2.975   2.320   1.334 -1.3404  0.8421  5.5425
  433SOL     OW 1297   1.824   0.342   0.799 -0.2482  0.5951 -0.0765
  433SOL    HW1 1298   1.721   0.354   0.810  0.2153 -0.7754  0.5207
  433SOL    HW2 1299   1.863   0.281   0.872  3.1869  0.2935 -3.4843
  434SOL     OW 1300   1.543   0.272   0.703 -0.3578 -0.0049  0.0618
  434SOL    HW1 1301   1.535   0.374   0.669 -0.0936  1.2874 -0.6065
  434SOL    HW2 1302   1.558   0.268   0.802 -0.6516  1.5039 -3.2066
  435SOL     OW 1303   1.439   1.527   2.109 -0.2152 -0.9308 -0.1544
  435SOL    HW1 1304   1.385   1.512   2.195 -0.2992  1.5784 -2.5817
  435SOL    HW2 1305   1.382   1.583   2.042  2.3348  1.3917  2.1147
  436SOL     OW 1306   1.658   2.661   2.393  0.1960 -0.5531  0.7141
  436SOL    HW1 1307   1.663   2.754   2.439  0.1638 -3.0916  1.4496
  436SOL    HW2 1308   1.606   2.593   2.447  0.5867  1.2249 -1.2539
  437SOL     OW 1309   1.097   2.914   0.874  0.1352 -0.2557  0.7873
  437SOL    HW1 1310   1.031   2.991   0.860  0.6383  1.7622  1.6642
  437SOL    HW2 1311   1.138   2.912   0.969 -1.6268  3.1426  1.2929
  438SOL     OW 1312   1.055   2.516   1.290  0.8304  0.0366  0.3162
  438SOL    HW1 1313   1.102   2.559   1.373  2.1558  2.5013  0.6848
  438SOL    HW2 1314   1.025   2.417   1.294  0.6106  1.0889 -1.9634
  439SOL     OW 1315   0.716   1.697   1.048  0.0892  0.3602 -0.3105
  439SOL    HW1 1316   0.746   1.796   1.032 -0.9229  1.3349  0.4609
  439SOL    HW2 1317   0.642   1.683   1.126  2.3994  1.8016  3.4350
  440SOL     OW 1318   1.040   2.426   2.044  0.0002 -0.5899  0.1627
  440SOL    HW1 1319   0.986   2.481   1.976  0.0892 -1.1917  3.6674
  440SOL    HW2 1320   1.145   2.437   2.031  0.4689  0.0842 -1.9191
  441SOL     OW 1321   0.345   2.717   1.361 -0.1011 -0.2886  1.2925
  441SOL    HW1 1322   0.406   2.633   1.390 -0.2822 -0.5261  2.0930
  441SOL    HW2 1323   0.366   2.745   1.259 -0.4143 -0.6062 -1.4553
  442SOL     OW 1324   2.246   0.665   2.610 -0.4337 -0.2060  0.1880
  442SOL    HW1 1325   2.247   0.568   2.576 -3.7639 -0.2627  0.8823
  442SOL    HW2 1326   2.169   0.723   2.569  2.2581 -1.0267  0.3314
  443SOL     OW 1327   1.280   2.643   2.235 -0.3417  0.8604  0.3445
  443SOL    HW1 1328   1.297   2.538   2.249 -1.8546 -0.0167  1.2972
  443SOL    HW2 1329   1.198   2.673   2.290  1.9816  1.5670 -1.0569
  444SOL     OW 1330   1.019   1.204   1.477 -0.4378  0.1364  0.6503
  444SOL    HW1 1331   1.120   1.212   1.452  3.2507  2.0260 -0.2853
  444SOL    HW2 1332   0.984   1.287   1.523  0.0245  0.0123  2.7429
  445SOL     OW 1333   0.162   2.284   2.035 -0.5108  0.7383 -0.9859
  445SOL    HW1 1334   0.065   2.281   1.992 -1.0632 -1.6225 -1.6890
  445SOL    HW2 1335   0.168   2.250   2.130  0.2593 -0.2550  1.1785
  446SOL     OW 1336   0.147   1.950   2.362 -0.0966  0.1101  0.1750
  446SOL    HW1 1337   0.117   2.051   2.356  1.6046  2.7619  1.4219
  446SOL    HW2 1338   0.131   1.900   2.274  1.0677 -2.6619  2.7204
  447SOL     OW 1339   1.258   1.700   1.980 -0.0909 -0.5223  0.5065
  447SOL    HW1 1340   1.166   1.750   1.970 -0.8023 -0.7952 -0.3975
  447SOL    HW2 1341   1.327   1.770   2.018 -0.5846  1.0076  0.8972
  448SOL     OW 1342   0.214   1.443   2.055  0.6014 -0.0239 -0.4676
  448SOL    HW1 1343   0.195   1.529   2.001 -1.9936 -0.1842  0.6114
  448SOL    HW2 1344   0.144   1.431   2.133 -3.2905 -0.8524  3.5146
  449SOL     OW 1345   1.883   2.917   0.798 -0.1579  0.2298 -0.2015
  449SOL    HW1 1346   1.868   2.927   0.904  0.8229  0.4551  2.0652
  449SOL    HW2 1347   1.908   2.824   0.770 -1.0949  0.5673 -1.8313
  450SOL     OW 1348   2.257   1.456   0.680  0.3634  0.4749  0.5887
  450SOL    HW1 1349   2.231   1.528   0.749 -0.0455  2.1926 -1.6151
  450SOL    HW2 1350   2.277   1.498   0.586 -4.1054  2.0450 -2.7546
  451SOL     OW 1351   1.388   3.036   1.492 -0.2265 -0.2347  0.4993
  451SOL    HW1 1352   1.321   3.114   1.508 -2.0730  2.7727 -1.8247
  451SOL    HW2 1353   1.417   2.996   1.578 -0.6694  0.4460 -3.4991
  452SOL     OW 1354   2.672   2.291   2.266 -0.8001 -0.1970  0.2192
  452SOL    HW1 1355   2.626   2.381   2.258 -0.7917 -2.0376  0.6790
  452SOL    HW2 1356   2.673   2.246   2.360  2.3761 -0.3497  1.3566
  453SOL     OW 1357   2.484   2.670   3.057  0.3024  0.1899 -0.3026
  453SOL    HW1 1358   2.387   2.703   3.092 -2.6124 -3.7013  2.4191
  453SOL    HW2 1359   2.477   2.600   2.975 -0.3221  3.2896  0.1586
  454SOL     OW 1360   0.923   1.174   2.000 -0.1109 -0.5807  0.5266
  454SOL    HW1 1361   0.933   1.130   1.908 -1.4269 -1.6643 -0.3576
  454SOL    HW2 1362   1.001   1.234   2.023 -0.4461  0.5804  0.5395
  455SOL     OW 1363   0.653   2.660   2.805  0.1266 -0.3492  0.5517
  455SOL    HW1 1364   0.749   2.708   2.804  0.0642  4.0511 -1.8245
  455SOL    HW2 1365   0.647   2.575   2.864 -2.4912  1.6550 -0.1688
  456SOL     OW 1366   0.365   1.943   0.220 -0.5280 -0.0831  0.0823
  456SOL    HW1 1367   0.462   1.930   0.257 -1.4218 -1.4513  1.5313
  456SOL    HW2 1368   0.331   2.040   0.194 -0.0349  0.1143 -0.3102
  457SOL     OW 1369   0.423   2.773   0.653 -0.0419  0.3355  0.3017
  457SOL    HW1 1370   0.443   2.856   0.587  3.5242  1.1134 -1.2401
  457SOL    HW2 1371   0.512   2.746   0.697 -0.8588  0.9176 -2.1458
  458SOL     OW 1372   2.859   0.028   1.237 -0.9908  0.0069  0.0718
  458SOL    HW1 1373   2.928   0.095   1.207 -1.4795 -2.7305 -2.5531
  458SOL    HW2 1374   2.851  -0.051   1.169  0.9609 -1.8112  1.5314
  459SOL     OW 1375   2.232   2.494   0.792  0.3728  0.3425  0.2442
  459SOL    HW1 1376   2.273   2.535   0.875  0.2992 -1.0653  1.4101
  459SOL    HW2 1377   2.296   2.498   0.714 -0.4585  0.3758 -0.2925
  460SOL     OW 1378   1.194   2.069   2.769  0.2217  0.4377  0.4819
  460SOL    HW1 1379   1.261   2.087   2.693 -1.5015 -1.6599 -1.7603
  460SOL    HW2 1380   1.206   1.974   2.806 -1.3491  0.5507  0.0030
  461SOL     OW 1381   0.416   2.115   2.708 -0.4627 -0.0353  0.2360
  461SOL    HW1 1382   0.379   2.034   2.660 -0.6928 -0.7887 -1.4583
  461SOL    HW2 1383   0.448   2.084   2.802  2.1385 -0.0360  2.0666
  462SOL     OW 1384   0.944   1.020   1.755  0.2227  0.0248  0.0130
  462SOL    HW1 1385   0.934   0.939   1.687  0.3319 -1.2462 -0.3621
  462SOL    HW2 1386   0.948   1.115   1.706 -1.8140  1.9497 -0.9521
  463SOL     OW 1387   0.458   0.846   0.485  0.4672 -0.1526  0.3357
  463SOL    HW1 1388   0.484   0.754   0.443  0.0670 -0.8193  0.7671
  463SOL    HW2 1389   0.352   0.868   0.474 -1.0326  4.9320 -1.4588
  464SOL     OW 1390   0.600   2.347   2.188 -0.3809 -0.3223  0.0931
  464SOL    HW1 1391   0.542   2.392   2.258 -2.0065  1.2487 -0.4436
  464SOL    HW2 1392   0.561   2.342   2.093  2.6756  1.7551 -1.0708
  465SOL     OW 1393   0.241   0.896   0.834  0.6554 -0.1391  0.5302
  465SOL    HW1 1394   0.151   0.923   0.791 -1.3158  0.9055 -1.1735
  465SOL    HW2 1395   0.281   0.805   0.799 -2.4137 -2.9443 -0.5477
  466SOL     OW 1396   1.379   1.141   1.001  0.1935 -0.1244  0.0002
  466SOL    HW1 1397   1.397   1.233   0.957  1.3998 -0.1261 -2.4172
  466SOL    HW2 1398   1.289   1.136   1.050 -0.2459 -0.4703 -0.8881
  467SOL     OW 1399   0.573   0.405   2.482 -0.1790 -0.2782 -0.4346
  467SOL    HW1 1400   0.534   0.497   2.505 -0.0709 -0.3155  2.0366
  467SOL    HW2 1401   0.586   0.341   2.567  1.4862  0.8533 -0.9423
  468SOL     OW 1402   0.429   2.263   1.610 -0.3465 -0.1657  0.3367
  468SOL    HW1 1403   0.496   2.336   1.642 -0.2706  2.5875 -1.1775
  468SOL    HW2 1404   0.436   2.231   1.511 -1.2279  0.2096 -0.2724
  469SOL     OW 1405   1.406   1.318   1.283  0.0455 -0.3247  0.2278
  469SOL    HW1 1406   1.459   1.231   1.253  3.9506 -1.2904 -2.1245
  469SOL    HW2 1407   1.466   1.393   1.307 -1.8817 -2.2470  1.3441
  470SOL     OW 1408   3.022   1.774   0.735 -0.4621  0.2606  0.0034
  470SOL    HW1 1409   3.097   1.821   0.674  3.6850  0.4150 -1.3778
  470SOL    HW2 1410   3.065   1.704   0.797  0.1175 -1.3050 -2.4439
  471SOL     OW 1411   2.557   1.372   2.165  0.0373 -0.4397 -0.0160
  471SOL    HW1 1412   2.555   1.269   2.183  2.7405 -0.0791  1.5625
  471SOL    HW2 1413   2.631   1.418   2.218 -0.4687  0.5472  0.1564
  472SOL     OW 1414   1.132   2.430   0.066  0.2632 -0.4575 -0.0864
  472SOL    HW1 1415   1.204   2.421   0.139  0.2855 -2.2702  0.7853
  472SOL    HW2 1416   1.058   2.359   0.076  1.0602  0.6680 -1.8738
  473SOL     OW 1417   1.083   1.504   1.003  0.7786 -0.0494  0.3224
  473SOL    HW1 1418   0.982   1.496   0.972  0.8025  0.1534  0.7253
  473SOL    HW2 1419   1.106   1.445   1.084 -0.6964 -2.5144  0.1520
  474SOL     OW 1420   0.655   1.286   0.544  0.2770  0.1394  0.0052
  474SOL    HW1 1421   0.576   1.233   0.496 -1.4733  0.3380 -1.8979
  474SOL    HW2 1422   0.721   1.230   0.602  0.7771  0.2565  0.8579
  475SOL     OW 1423   2.798   0.032   0.801 -0.4508 -0.6861 -0.2570
  475SOL    HW1 1424   2.885   0.092   0.804 -0.4764 -1.2929 -2.1325
  475SOL    HW2 1425   2.722   0.088   0.848  1.7079 -0.2513  0.7090
  476SOL     OW 1426   0.990   3.031   1.783  0.0393 -0.5705 -0.3257
  476SOL    HW1 1427   1.077   3.084   1.787  0.7177  0.4974  2.4750
  476SOL    HW2 1428   0.974   2.998   1.684  2.7045 -1.5969 -2.2691
  477SOL     OW 1429   1.462   0.304   2.395 -0.2480  0.5893 -0.1589
  477SOL    HW1 1430   1.458   0.304   2.499  0.6035  0.8434 -0.0608
  477SOL    HW2 1431   1.545   0.257   2.356 -0.2086 -0.3118  0.3296
  478SOL     OW 1432   2.222   1.875   0.283 -0.4730 -0.5800 -0.7434
  478SOL    HW1 1433   2.183   1.786   0.307 -0.7002 -0.8397  2.5273
  478SOL    HW2 1434   2.299   1.870   0.208  0.6277  1.0679 -0.0362
  479SOL     OW 1435   1.236   0.967   2.911  0.3606 -0.0162  0.2418
  479SOL    HW1 1436   1.335   0.966   2.876 -0.4229 -1.0068 -0.2854
  479SOL    HW2 1437   1.184   0.881   2.883 -0.2072  0.4171  0.2463
  480SOL     OW 1438   2.698   2.316   0.381 -0.5579  0.3995  0.1729
  480SOL    HW1 1439   2.695   2.271   0.477 -1.8740  0.4117 -1.1682
  480SOL    HW2 1440   2.629   2.279   0.315  0.1609  2.4604 -0.1041
  481SOL     OW 1441   1.057   1.193   0.848 -0.5540  0.8105 -0.5104
  481SOL    HW1 1442   1.031   1.286   0.822  1.2258 -2.1393 -0.7251
  481SOL    HW2 1443   1.064   1.176   0.952 -0.3586  2.2053 -0.7773
  482SOL     OW 1444   1.575   0.293   2.000  0.1412  0.0671 -0.2339
  482SOL    HW1 1445   1.602   0.387   1.968  2.6420 -1.9590  3.9404
  482SOL    HW2 1446   1.656   0.225   2.002 -0.8716 -0.7837  0.0951
  483SOL     OW 1447   0.212   2.341   1.225 -0.4973  0.1973  0.4841
  483SOL    HW1 1448   0.155   2.401   1.291 -3.9177 -2.6997 -1.0778
  483SOL    HW2 1449   0.197   2.383   1.126  0.3209  0.3942 -1.8220
  484SOL     OW 1450   1.757   1.058   1.341  0.1404  0.1916  0.4164
  484SOL    HW1 1451   1.811   1.012   1.420  1.6285  0.8138 -0.1032
  484SOL    HW2 1452   1.789   1.155   1.335  0.7459  0.1704 -1.9932
  485SOL     OW 1453   0.753   0.743   1.826  0.1405  0.3077 -0.1386
  485SOL    HW1 1454   0.737   0.749   1.723  1.1852  0.3308 -3.4874
  485SOL    HW2 1455   0.856   0.748   1.851  1.6965  0.4421  0.6588
  486SOL     OW 1456   0.826   1.870   2.413 -0.1613 -0.4669  0.0344
  486SOL    HW1 1457   0.865   1.915   2.501  2.1142 -1.7600  1.3664
  486SOL    HW2 1458   0.790   1.940   2.351  2.1958 -1.1429  0.7610
  487SOL     OW 1459   1.794   1.566   1.035 -0.1904  0.1876 -0.4840
  487SOL    HW1 1460   1.862   1.492   1.062  0.3384 -2.1871 -1.4254
  487SOL    HW2 1461   1.820   1.623   0.954  0.8508 -0.9145  1.0072
  488SOL     OW 1462   2.978   0.845   2.295  0.6953  0.3061 -0.0142
  488SOL    HW1 1463   3.021   0.752   2.268  0.1725 -1.0871  1.0747
  488SOL    HW2 1464   2.909   0.831   2.373 -1.5969  1.1114  0.6201
  489SOL     OW 1465   2.766   0.347   1.248  0.2449  0.5644 -0.4707
  489SOL    HW1 1466   2.724   0.312   1.335 -0.2691  1.7368 -0.4440
  489SOL    HW2 1467   2.867   0.333   1.250  0.4991  0.1200 -2.1346
  490SOL     OW 1468   1.438   2.906   2.821  0.2481  0.3880  0.0842
  490SOL    HW1 1469   1.483   2.818   2.854 -2.2431 -1.5744 -0.4349
  490SOL    HW2 1470   1.452   2.910   2.718  0.1349 -2.3524  0.7854
  491SOL     OW 1471   1.737   1.498   2.704  0.1729 -0.0620 -0.2844
  491SOL    HW1 1472   1.702   1.438   2.776  0.0910  1.3800 -0.9152
  491SOL    HW2 1473   1.809   1.561   2.736 -4.1072  0.0287 -1.1345
  492SOL     OW 1474   0.565   2.067   0.656  0.5095  0.4278 -0.8835
  492SOL    HW1 1475   0.600   2.033   0.751  1.2263 -0.2092  1.9035
  492SOL    HW2 1476   0.514   2.157   0.661  2.3806 -3.6624 -1.1828
  493SOL     OW 1477   0.467   1.385   2.091 -0.3064  0.1389 -0.3198
  493SOL    HW1 1478   0.369   1.419   2.088 -0.6419  0.5026 -0.5204
  493SOL    HW2 1479   0.477   1.281   2.105 -1.0493  1.2827  0.6060
  494SOL     OW 1480   2.698   2.562   0.098  0.0866 -0.4031  0.4104
  494SOL    HW1 1481   2.712   2.579   0.200 -1.8552 -2.3395  2.4898
  494SOL    HW2 1482   2.614   2.608   0.055 -0.2740 -0.9525  0.0656
  495SOL     OW 1483   2.533   2.819   2.596 -0.0433 -0.0525  0.0324
  495SOL    HW1 1484   2.555   2.717   2.614 -1.1703  1.7224 -2.0184
  495SOL    HW2 1485   2.598   2.861   2.524 -2.2854 -0.9789 -1.6690
  496SOL     OW 1486   1.975   2.315   0.814 -0.0011  0.1359  0.0102
  496SOL    HW1 1487   2.053   2.381   0.832 -2.6384 -0.3159 -0.3236
  496SOL    HW2 1488   1.997   2.218   0.850  1.2746 -2.5158 -0.1483
  497SOL     OW 1489   0.160   3.000   2.377 -0.3858  0.2193 -0.3566
  497SOL    HW1 1490   0.143   3.076   2.449 -0.5133 -1.0224 -2.9033
  497SOL    HW2 1491   0.209   3.039   2.290 -1.5426  0.3557 -0.6944
  498SOL     OW 1492   1.136   1.373   1.257  0.7169  0.1519  0.2166
  498SOL    HW1 1493   1.224   1.325   1.273 -0.1360 -0.7984 -0.1872
  498SOL    HW2 1494   1.100   1.432   1.339  1.9960  1.2622 -0.1073
  499SOL     OW 1495   0.630   1.786   0.316 -0.2124 -0.6606 -0.6363
  499SOL    HW1 1496   0.682   1.733   0.242  2.4306  1.0757 -0.1386
  499SOL    HW2 1497   0.694   1.845   0.374  3.3938 -0.1459  1.0520
  500SOL     OW 1498   1.498   2.877   1.696 -0.4577 -0.2519  0.5103
  500SOL    HW1 1499   1.529   2.831   1.783 -2.1247 -1.9270  0.3752
  500SOL    HW2 1500   1.529   2.824   1.609  0.0105 -0.4193  2.6611
  501SOL     OW 1501   0.783   1.135   2.292  0.5865 -0.4514 -0.0359
  501SOL    HW1 1502   0.697   1.084   2.314 -4.1096 -0.1701  0.1134
  501SOL    HW2 1503   0.813   1.121   2.193 -1.7458 -0.0659 -1.4085
  502SOL     OW 1504   2.609   0.928   1.778  0.3054  0.3845 -0.4029
  502SOL    HW1 1505   2.598   0.951   1.679 -0.5595  0.4112  2.3067
  502SOL    HW2 1506   2.592   0.828   1.798  1.6747 -0.6766  0.0286
  503SOL     OW 1507   1.291   0.137   0.635 -0.1259  0.0485 -0.5248
  503SOL    HW1 1508   1.225   0.219   0.658 -0.2981  0.4165 -0.8941
  503SOL    HW2 1509   1.390   0.161   0.668  0.7347  0.3443 -1.5250
  504SOL     OW 1510   3.021   2.310   1.508 -0.5086  0.2546 -0.8457
  504SOL    HW1 1511   2.988   2.408   1.522 -0.5476  1.5542 -0.9839
  504SOL    HW2 1512   3.069   2.266   1.594  0.2401  0.2345 -2.5858
  505SOL     OW 1513   2.298   1.180   1.427 -0.4469  0.0476 -0.7911
  505SOL    HW1 1514   2.310   1.205   1.326 -2.2830 -2.3187  0.7157
  505SOL    HW2 1515   2.358   1.235   1.485 -3.4550 -1.5127 -1.5375
  506SOL     OW 1516   1.959   0.179   1.844 -0.4939  0.1048 -0.5515
  506SOL    HW1 1517   2.045   0.121   1.826  0.4905  0.0198 -1.9505
  506SOL    HW2 1518   1.974   0.279   1.876 -2.0311  0.4413 -1.4984
  507SOL     OW 1519   0.573   0.722   2.214  0.4712  0.1911 -0.0540
  507SOL    HW1 1520   0.514   0.688   2.134 -0.0539 -3.4739  1.1735
  507SOL    HW2 1521   0.634   0.650   2.244 -0.5798  4.5815  0.2012
  508SOL     OW 1522   0.326   1.672   0.786  0.0510 -0.4363 -0.5189
  508SOL    HW1 1523   0.361   1.736   0.708 -1.2558 -1.6508  0.0486
  508SOL    HW2 1524   0.294   1.726   0.874  2.3244 -1.0277  0.4139
  509SOL     OW 1525   1.289   1.207   2.486  0.6577 -0.4439 -0.1732
  509SOL    HW1 1526   1.315   1.174   2.388 -2.1912 -2.0873  0.6572
  509SOL    HW2 1527   1.187   1.207   2.504 -0.0715 -1.1572 -1.0718
  510SOL     OW 1528   1.327   2.055   2.227  0.0797  0.5231 -0.2084
  510SOL    HW1 1529   1.338   2.107   2.138  2.3244 -0.0223  1.0853
  510SOL    HW2 1530   1.267   1.977   2.214  2.9742  0.3512 -0.5244
  511SOL     OW 1531   3.016   2.744   1.286  0.0130 -0.2904 -0.4803
  511SOL    HW1 1532   3.067   2.771   1.198  0.8264 -2.6171  0.0876
  511SOL    HW2 1533   2.913   2.740   1.279  3.3996 -0.6679  0.1585
  512SOL     OW 1534   2.381   0.414   1.393  0.0287 -0.3409  0.5822
  512SOL    HW1 1535   2.290   0.464   1.399  1.8169  0.4238 -2.3849
  512SOL    HW2 1536   2.386   0.351   1.313  0.2305  4.1787  1.2430
  513SOL     OW 1537   2.595   2.149   0.936 -0.2291  0.0328  0.1959
  513SOL    HW1 1538   2.525   2.194   0.876  2.0408 -0.6933  1.5059
  513SOL    HW2 1539   2.687   2.146   0.889  0.0959  2.2964 -0.2577
  514SOL     OW 1540   0.668   2.713   0.410  0.2625  0.1370 -0.3232
  514SOL    HW1 1541   0.703   2.752   0.321  2.5710 -0.9557 -1.8713
  514SOL    HW2 1542   0.690   2.772   0.494 -0.6414  0.6550 -1.8582
  515SOL     OW 1543   1.926   1.357   2.414 -0.1392  0.0443 -0.2908
  515SOL    HW1 1544   1.944   1.312   2.320  1.1398  3.8737  1.0406
  515SOL    HW2 1545   1.859   1.298   2.464 -0.5169 -0.0581 -1.0270
  516SOL     OW 1546   0.267   0.279   1.880  0.1429  0.3550  0.1687
  516SOL    HW1 1547   0.358   0.227   1.871  2.3825 -1.8523 -0.1753
  516SOL    HW2 1548   0.186   0.218   1.866  0.7740  1.3725  1.2538
  517SOL     OW 1549   0.491   0.167   1.166  0.8393  0.1781 -0.0786
  517SOL    HW1 1550   0.546   0.132   1.249 -0.8557  1.7239 -0.3200
  517SOL    HW2 1551   0.391   0.120   1.161 -0.0272  1.3182  0.5522
  518SOL     OW 1552   2.152   3.058   1.791  0.2405  0.4902 -0.2690
  518SOL    HW1 1553   2.190   3.155   1.767 -0.7698 -1.1829  0.7500
  518SOL    HW2 1554   2.123   2.997   1.708 -0.8167 -0.3817  1.0615
  519SOL     OW 1555   2.342   2.170   2.519 -0.0189 -0.3994 -0.1594
  519SOL    HW1 1556   2.260   2.171   2.583  1.7296 -0.2207  1.5327
  519SOL    HW2 1557   2.387   2.264   2.532 -2.8156 -1.7029 -0.4397
  520SOL     OW 1558   1.848   2.744   1.702  0.0275 -0.1157  0.4382
  520SOL    HW1 1559   1.789   2.677   1.756  1.9020 -1.5514  3.2021
  520SOL    HW2 1560   1.932   2.703   1.655 -2.3083  3.7429  1.1926
  521SOL     OW 1561   0.551   0.040   2.123  0.0818 -0.3281 -0.6140
  521SOL    HW1 1562   0.455   0.022   2.160 -1.2642  0.1513 -2.0584
  521SOL    HW2 1563   0.625   0.019   2.197 -0.6761  2.4570 -0.5228
  522SOL     OW 1564   0.233   1.869   1.462  0.0438  0.2775  0.2781
  522SOL    HW1 1565   0.253   1.933   1.538  1.6345  1.0512 -2.8250
  522SOL    HW2 1566   0.225   1.914   1.369 -1.7848 -0.1398 -0.3900
  523SOL     OW 1567   2.139   2.922   1.556  0.3454 -0.0247 -0.8024
  523SOL    HW1 1568   2.219   2.854   1.579  3.5222  0.3863  1.5749
  523SOL    HW2 1569   2.080   2.892   1.480  0.8776  0.5296  1.1439
  524SOL     OW 1570   0.213   2.768   2.803 -0.6093  0.6517  0.6072
  524SOL    HW1 1571   0.176   2.852   2.843 -0.1077  2.5743 -0.1692
  524SOL    HW2 1572   0.303   2.779   2.745  0.5582 -0.2717  1.7819
  525SOL     OW 1573   2.126   2.049   0.472  0.0790  0.2516  0.1311
  525SOL    HW1 1574   2.142   2.008   0.569 -4.6481 -1.5627 -1.2441
  525SOL    HW2 1575   2.160   1.983   0.403  0.2540  0.3888  0.0859
  526SOL     OW 1576   0.433   1.530   1.806 -0.6153 -0.0194  0.7825
  526SOL    HW1 1577   0.477   1.554   1.904  2.4658  3.5732 -0.1451
  526SOL    HW2 1578   0.469   1.440   1.763  0.6251 -0.8685  0.5865
  527SOL     OW 1579   1.064   2.937   1.233  0.0485 -0.0614  0.4141
  527SOL    HW1 1580   1.124   2.869   1.285  1.4496  2.9218  1.8845
  527SOL    HW2 1581   1.116   3.023   1.209  3.0776 -1.5479 -1.4165
  528SOL     OW 1582   1.337   2.356   0.561  0.6262  0.0543 -0.1211
  528SOL    HW1 1583   1.392   2.265   0.553  1.8168 -3.0244  1.5455
  528SOL    HW2 1584   1.371   2.417   0.633  0.3322 -0.2140 -3.2393
  529SOL     OW 1585   1.888   1.745   0.808 -0.1946 -0.1228  0.1079
  529SOL    HW1 1586   1.846   1.739   0.710  0.0277 -1.5734 -0.2670
  529SOL    HW2 1587   1.910   1.842   0.840  1.3079 -2.2666  0.1376
  530SOL     OW 1588   0.444   2.488   0.193 -0.0096  0.0514 -0.2301
  530SOL    HW1 1589   0.450   2.413   0.262 -2.0394  0.9332  2.0974
  530SOL    HW2 1590   0.435   2.450   0.093  0.4258 -0.3576 -2.3757
  531SOL     OW 1591   1.855   1.032   1.068  0.0497 -0.0027  0.4020
  531SOL    HW1 1592   1.821   0.977   0.982  2.0313  0.1690  0.6709
  531SOL    HW2 1593   1.805   1.003   1.156 -3.0681 -1.2627 -0.5754
  532SOL     OW 1594   0.351   1.206   0.714 -0.7372  0.5633 -0.0185
  532SOL    HW1 1595   0.388   1.180   0.618 -2.2199  0.0364 -2.0703
  532SOL    HW2 1596   0.308   1.120   0.754 -0.8796  0.5151 -1.3832
  533SOL     OW 1597   1.832   0.042   2.529 -0.1061 -0.2646 -0.1223
  533SOL    HW1 1598   1.925   0.005   2.560 -2.7121 -1.9333 -2.6617
  533SOL    HW2 1599   1.785   0.097   2.604 -1.3478 -1.9957  2.2844
  534SOL     OW 1600   0.239   0.184   1.529 -0.3399 -0.2204 -0.1258
  534SOL    HW1 1601   0.328   0.227   1.493 -0.7809  1.5756 -4.3585
  534SOL    HW2 1602   0.167   0.252   1.552 -3.7227 -1.0818 -0.0296
  535SOL     OW 1603   1.892   0.356   0.190 -0.9684 -0.8491  0.2444
  535SOL    HW1 1604   1.936   0.405   0.263  2.5154 -1.4082 -2.4423
  535SOL    HW2 1605   1.811   0.301   0.228 -1.1674 -2.1268  0.4409
  536SOL     OW 1606   1.244   2.623   0.950 -0.3746  0.3036 -0.7559
  536SOL    HW1 1607   1.306   2.547   0.924 -0.7001  0.7278 -2.7106
  536SOL    HW2 1608   1.153   2.622   0.895 -1.2840  0.8398  1.9137
  537SOL     OW 1609   0.907   0.209   2.352  0.4069  0.4740  0.1741
  537SOL    HW1 1610   0.929   0.269   2.269 -4.6530  0.4703  1.6798
  537SOL    HW2 1611   0.821   0.156   2.330  3.5490 -3.4648  0.6754
  538SOL     OW 1612   1.684   2.355   1.530 -0.1290  0.1488 -0.2085
  538SOL    HW1 1613   1.648   2.269   1.485 -3.1256  1.4410 -0.8013
  538SOL    HW2 1614   1.772   2.393   1.485  0.3342  3.5598  0.0135
  539SOL     OW 1615   0.183   1.635   2.708 -0.2832 -0.3288  0.3005
  539SOL    HW1 1616   0.113   1.610   2.646  2.0715  1.2880  0.5608
  539SOL    HW2 1617   0.163   1.709   2.775  0.7273  1.2302 -2.1304
  540SOL     OW 1618   2.705   1.706   2.023  0.1287 -0.2239 -0.2646
  540SOL    HW1 1619   2.653   1.622   1.985  1.0035 -5.5466 -0.2857
  540SOL    HW2 1620   2.663   1.798   1.997 -0.7540  3.0103 -3.2503
  541SOL     OW 1621   0.454   2.292   3.069 -0.3290 -0.1734  0.0883
  541SOL    HW1 1622   0.520   2.233   3.128 -0.8636  0.7309  2.4399
  541SOL    HW2 1623   0.371   2.251   3.029  2.0722  2.9170  1.7522
  542SOL     OW 1624   2.195   2.601   0.488  0.4740 -0.5181 -0.1440
  542SOL    HW1 1625   2.175   2.667   0.413  1.2929  1.2128 -1.4313
  542SOL    HW2 1626   2.128   2.522   0.494  0.0593  2.7585  2.3359
  543SOL     OW 1627   0.988   1.792   1.712 -0.4895  0.4912 -0.0680
  543SOL    HW1 1628   1.004   1.822   1.812  0.9376  0.7983  1.2450
  543SOL    HW2 1629   0.943   1.864   1.648  1.1505 -1.7469 -0.3990
  544SOL     OW 1630   0.885   0.416   0.193  0.5444  0.0381  1.0699
  544SOL    HW1 1631   0.944   0.380   0.269 -1.5849 -2.6270  0.4599
  544SOL    HW2 1632   0.925   0.401   0.099 -0.1501 -2.2637  1.3657
  545SOL     OW 1633   1.178   1.695   0.602  0.1114  0.2066 -0.0446
  545SOL    HW1 1634   1.249   1.713   0.678  1.0115 -0.0564 -0.5800
  545SOL    HW2 1635   1.206   1.727   0.508 -1.5009 -0.6582  1.0248
  546SOL     OW 1636   2.679   1.557   0.022  0.2471 -0.1247  0.0648
  546SOL    HW1 1637   2.721   1.490  -0.035 -1.1883 -0.3805  0.2007
  546SOL    HW2 1638   2.585   1.521   0.054 -2.3001 -0.0622  1.6485
  547SOL     OW 1639   0.544   0.038   2.801 -0.2813  0.1726 -0.1368
  547SOL    HW1 1640   0.616  -0.022   2.763  0.2196 -0.8076  3.4349
  547SOL    HW2 1641   0.485  -0.013   2.862  1.0893  0.7455 -6.0462
  548SOL     OW 1642   2.078   0.865   3.032  0.5341  0.6776  0.4980
  548SOL    HW1 1643   1.991   0.808   3.041  0.2980 -0.0113 -0.2630
  548SOL    HW2 1644   2.069   0.965   3.063  2.6468 -1.9120 -1.4253
  549SOL     OW 1645   0.623   0.406   0.148 -0.0589  0.6599  0.3998
  549SOL    HW1 1646   0.556   0.460   0.092 -0.0231 -0.3026  0.0590
  549SOL    HW2 1647   0.726   0.430   0.153  2.9329 -0.2926  3.1384
  550SOL     OW 1648   2.541   2.858   2.891  0.5358 -0.1712  0.1410
  550SOL    HW1 1649   2.540   2.771   2.950  0.9669 -3.1127  2.3660
  550SOL    HW2 1650   2.536   2.833   2.793  1.1845  1.0698 -0.8398
  551SOL     OW 1651   0.238   0.836   0.160  0.1581  0.7929 -0.3271
  551SOL    HW1 1652   0.338   0.808   0.166 -2.1738  0.4441 -0.1587
  551SOL    HW2 1653   0.198   0.844   0.254 -0.7294  2.2269 -1.7396
  552SOL     OW 1654   0.799   2.796   1.871 -0.2514  0.1082  1.0258
  552SOL    HW1 1655   0.754   2.804   1.964  1.3504  0.4583  0.0297
  552SOL    HW2 1656   0.869   2.874   1.851 -3.5152 -2.4103  1.2705
  553SOL     OW 1657   3.055   2.555   0.380  0.1543  0.0062 -0.3650
  553SOL    HW1 1658   3.008   2.465   0.352  0.8695 -0.1017 -0.8530
  553SOL    HW2 1659   3.027   2.604   0.469  0.1757  1.8052 -0.4784
  554SOL     OW 1660   2.177   0.290   0.569  0.5904  0.1154 -0.1663
  554SOL    HW1 1661   2.244   0.250   0.497  0.1404 -0.0901 -0.7245
  554SOL    HW2 1662   2.172   0.237   0.655  2.1312  0.4793 -0.6866
  555SOL     OW 1663   0.418   2.918   2.433 -0.4853  0.3722 -0.0308
  555SOL    HW1 1664   0.316   2.937   2.415 -2.0843 -0.8974 -0.4855
  555SOL    HW2 1665   0.455   2.830   2.389  0.1364 -0.9827 -1.2017
  556SOL     OW 1666   0.907   2.300   1.677 -0.3063 -0.2731 -0.6927
  556SOL    HW1 1667   0.926   2.382   1.741 -2.8283  0.6438 -0.0382
  556SOL    HW2 1668   0.956   2.310   1.585  0.0569  1.1487 -0.1726
  557SOL     OW 1669   0.165   2.120   0.129 -0.4328 -0.5473  0.0451
  557SOL    HW1 1670   0.090   2.051   0.109  1.4036 -1.5483  0.5887
  557SOL    HW2 1671   0.176   2.197   0.059 -1.0311  0.0120  3.3103
  558SOL     OW 1672   2.954   2.297   0.321  0.5935 -0.7450  0.2569
  558SOL    HW1 1673   2.864   2.295   0.370  0.3993  1.1844 -0.5646
  558SOL    HW2 1674   2.944   2.315   0.219 -0.5230 -0.2518  1.8497
  559SOL     OW 1675   0.425   2.217   1.351 -0.0303 -0.1003 -0.3219
  559SOL    HW1 1676   0.368   2.269   1.279  1.4339  1.7398 -2.3414
  559SOL    HW2 1677   0.484   2.140   1.309 -1.1928  0.2480  0.1306
  560SOL     OW 1678   2.082   1.114   3.097  0.1064 -0.6858  0.0047
  560SOL    HW1 1679   2.065   1.158   3.003  2.3437  1.3414  0.4951
  560SOL    HW2 1680   2.013   1.158   3.164  1.8757  2.2836  0.9375
  561SOL     OW 1681   3.058   1.941   0.008 -0.0041  0.5171 -0.1261
  561SOL    HW1 1682   3.013   1.843   0.020  0.9969  0.2700 -1.8206
  561SOL    HW2 1683   3.001   2.018  -0.040 -0.0192  2.5915  0.5382
  562SOL     OW 1684   0.877   2.166   2.386  0.9274  0.0296 -0.9059
  562SOL    HW1 1685   0.776   2.149   2.388 -1.5047 -0.5897  1.2404
  562SOL    HW2 1686   0.914   2.198   2.476 -2.0866 -0.8273 -2.8481
  563SOL     OW 1687   0.679   2.525   2.584 -0.5059 -0.9089  0.4508
  563SOL    HW1 1688   0.762   2.462   2.614 -0.7241 -1.0244  3.7803
  563SOL    HW2 1689   0.660   2.596   2.659  1.1831  1.4700 -2.6476
  564SOL     OW 1690   2.708   1.302   2.845 -0.5330 -0.0281  0.2629
  564SOL    HW1 1691   2.635   1.310   2.919  1.9801  0.3970  1.5292
  564SOL    HW2 1692   2.758   1.395   2.835  1.3510  0.1642 -2.4923
  565SOL     OW 1693   2.533   1.956   2.581 -0.1478 -0.1797 -0.6980
  565SOL    HW1 1694   2.461   2.029   2.564  0.5876 -0.4120  0.6303
  565SOL    HW2 1695   2.588   1.984   2.664 -0.8787  0.2382  0.2564
  566SOL     OW 1696   1.964   2.867   1.347 -0.3170  0.2142 -0.5026
  566SOL    HW1 1697   1.923   2.777   1.312 -0.6715 -1.6897 -1.9139
  566SOL    HW2 1698   2.002   2.928   1.272  3.8099 -0.8166 -0.3433
  567SOL     OW 1699   2.453   0.132   2.221 -0.9483 -0.1842 -0.4778
  567SOL    HW1 1700   2.471   0.126   2.120 -2.0228 -1.2061 -1.1950
  567SOL    HW2 1701   2.359   0.166   2.240  1.9281 -0.6439  0.6938
  568SOL     OW 1702   1.493   1.834   0.376 -0.1036  0.0659 -0.7693
  568SOL    HW1 1703   1.451   1.874   0.296 -0.7875 -1.2809  3.4582
  568SOL    HW2 1704   1.592   1.860   0.397  1.7850 -1.3104 -3.0728
  569SOL     OW 1705   0.309   0.633   0.794 -0.8000 -0.2126 -0.1035
  569SOL    HW1 1706   0.343   0.565   0.720 -3.7742  0.8000  0.7749
  569SOL    HW2 1707   0.214   0.605   0.832  2.9359 -0.3529 -1.4464
  570SOL     OW 1708   0.613   0.767   2.839  0.6000  0.0278  0.1901
  570SOL    HW1 1709   0.640   0.756   2.741 -1.2246  0.7845  1.4963
  570SOL    HW2 1710   0.671   0.839   2.890  1.3086 -0.2656 -2.3003
  571SOL     OW 1711   0.818   3.045   1.099  0.2892  0.3917  0.2573
  571SOL    HW1 1712   0.843   3.098   1.013  1.9502  1.4061 -0.1508
  571SOL    HW2 1713   0.897   2.999   1.151  1.0167 -0.5839 -0.0343
  572SOL     OW 1714   1.550   2.594   1.160  0.0360  0.8998  0.2007
  572SOL    HW1 1715   1.486   2.560   1.237 -0.8266 -0.0326 -0.8818
  572SOL    HW2 1716   1.512   2.681   1.109  0.9708  1.0017 -1.0205
  573SOL     OW 1717   2.940   0.408   2.084  0.1757  0.2396 -0.1465
  573SOL    HW1 1718   2.884   0.318   2.110 -0.9421 -1.4371  0.7270
  573SOL    HW2 1719   2.876   0.472   2.035  0.3047  0.1949 -0.3174
  574SOL     OW 1720   0.229   1.777   1.006 -0.2128 -0.1790 -0.3409
  574SOL    HW1 1721   0.215   1.877   0.974 -0.4409 -0.2137  0.4727
  574SOL    HW2 1722   0.152   1.741   1.068  0.5948  0.6522 -2.4770
  575SOL     OW 1723   0.877   2.141   0.992 -0.5390  0.0442 -0.4679
  575SOL    HW1 1724   0.849   2.202   1.072 -0.5426  1.3648 -0.7601
  575SOL    HW2 1725   0.889   2.191   0.904 -0.5258  0.7681  0.1812
  576SOL     OW 1726   2.907   2.921   1.727 -0.0854 -0.9759 -0.4129
  576SOL    HW1 1727   2.857   2.861   1.663  1.0911  1.7210  0.9153
  576SOL    HW2 1728   2.925   3.012   1.682  1.1613 -2.2054  1.0945
  577SOL     OW 1729   2.560   1.266   3.074 -0.2227 -0.3605  0.4746
  577SOL    HW1 1730   2.549   1.175   3.026  0.6151  3.5658  0.6578
  577SOL    HW2 1731   2.619   1.263   3.158 -1.0794  0.6364 -0.1755
  578SOL     OW 1732   1.298   2.686   2.536 -0.2828  0.2160  0.1353
  578SOL    HW1 1733   1.205   2.692   2.488 -0.7951  1.3973  1.4365
  578SOL    HW2 1734   1.360   2.761   2.511 -0.6031  2.9124 -2.8310
  579SOL     OW 1735   0.129   2.482   0.185 -0.2349 -0.0219 -0.2607
  579SOL    HW1 1736   0.064   2.512   0.259 -0.8484  0.4435 -2.1720
  579SOL    HW2 1737   0.212   2.429   0.218 -0.1026 -0.9935  0.6140
  580SOL     OW 1738   1.012   2.663   0.377  0.2155  0.3890  0.2698
  580SOL    HW1 1739   1.105   2.659   0.335  0.4168 -1.0970  0.2397
  580SOL    HW2 1740   0.941   2.605   0.334 -0.1566  1.0957  1.1790
  581SOL     OW 1741   1.213   2.626   1.491  0.6051  0.6514 -0.0780
  581SOL    HW1 1742   1.287   2.551   1.488 -0.9412 -2.4469 -2.2685
  581SOL    HW2 1743   1.232   2.714   1.435 -1.1403  1.4169 -2.7710
  582SOL     OW 1744   1.489   0.061   1.854  0.2554  0.3653  0.0329
  582SOL    HW1 1745   1.510   0.139   1.920  0.1311  1.1851 -0.9654
  582SOL    HW2 1746   1.564   0.047   1.785  2.4235  0.6811 -1.0634
  583SOL     OW 1747   2.456   2.993   0.581  0.2638 -0.1491 -0.7558
  583SOL    HW1 1748   2.498   2.927   0.510  0.0468 -3.9110  0.0655
  583SOL    HW2 1749   2.399   2.947   0.652 -0.4395 -1.0377 -3.3610
  584SOL     OW 1750   1.576   1.008   2.140  0.4465  0.0242  0.3240
  584SOL    HW1 1751   1.626   1.082   2.088 -0.5908 -0.1496 -0.7139
  584SOL    HW2 1752   1.641   0.948   2.189  0.0583  2.0524 -0.8187
  585SOL     OW 1753   2.091   2.644   2.899 -0.3849 -0.2892 -0.4425
  585SOL    HW1 1754   2.109   2.550   2.881 -1.5995 -1.0088 -0.6409
  585SOL    HW2 1755   1.992   2.670   2.875 -1.5040  2.0351 -0.6858
  586SOL     OW 1756   2.745   0.253   1.562  0.1869  0.5768  0.0520
  586SOL    HW1 1757   2.791   0.343   1.592 -1.8190 -0.9140 -0.4691
  586SOL    HW2 1758   2.655   0.254   1.614 -1.9463  0.0235  2.6994
  587SOL     OW 1759   1.963   1.645   2.731  0.0218 -0.2403 -0.0921
  587SOL    HW1 1760   2.002   1.611   2.646 -0.1693  0.4052 -2.0124
  587SOL    HW2 1761   2.022   1.622   2.813 -1.6119 -1.2879  0.0103
  588SOL     OW 1762   0.492   2.722   2.232 -0.0113 -0.8357 -0.0511
  588SOL    HW1 1763   0.408   2.715   2.172  0.0030  1.2520 -1.6242
  588SOL    HW2 1764   0.519   2.634   2.281  0.5567 -0.9395 -2.9771
  589SOL     OW 1765   2.136   1.447   2.580 -0.4530  0.1428  0.7060
  589SOL    HW1 1766   2.046   1.417   2.540 -0.2168  0.7640 -2.4306
  589SOL    HW2 1767   2.219   1.387   2.550  1.6263 -0.3966 -0.7859
  590SOL     OW 1768   2.369   1.697   2.003  0.0623 -0.0091 -0.0252
  590SOL    HW1 1769   2.463   1.659   1.986 -0.0697  1.9533 -1.3720
  590SOL    HW2 1770   2.355   1.753   2.089 -0.9949 -0.0505  1.9781
  591SOL     OW 1771   1.372   2.466   0.299  0.2302 -0.3827  0.1472
  591SOL    HW1 1772   1.464   2.430   0.270  1.0413 -0.5429  0.5125
  591SOL    HW2 1773   1.343   2.428   0.389  2.8339 -0.6648  0.3457
  592SOL     OW 1774   1.710   2.326   0.775  0.8859 -0.0576 -0.0409
  592SOL    HW1 1775   1.700   2.366   0.677  0.6705  1.1070 -1.8877
  592SOL    HW2 1776   1.807   2.314   0.802 -3.3316 -1.9367  0.1155
  593SOL     OW 1777   0.637   0.143   0.040  0.3933 -0.1292  0.6629
  593SOL    HW1 1778   0.736   0.120   0.026  3.3276 -0.8543  0.9180
  593SOL    HW2 1779   0.625   0.232   0.087  1.5934  0.2938 -1.0394
  594SOL     OW 1780   0.923   1.959   2.682 -0.0942 -0.8412  0.3484
  594SOL    HW1 1781   1.014   2.002   2.659 -0.0014 -0.5649 -0.7814
  594SOL    HW2 1782   0.858   2.018   2.737 -1.4460 -1.2595 -3.3267
  595SOL     OW 1783   1.528   0.023   1.075 -0.2750  0.0097 -0.4904
  595SOL    HW1 1784   1.624  -0.006   1.051 -3.7095 -1.1480  2.0649
  595SOL    HW2 1785   1.464   0.003   0.994  0.6832  0.3659  0.7880
  596SOL     OW 1786   0.010   1.398   2.243  0.0451  0.5031  0.2092
  596SOL    HW1 1787  -0.085   1.442   2.232 -2.4982  3.0170 -0.5676
  596SOL    HW2 1788   0.053   1.392   2.342  0.7712 -0.7907 -0.0934
  597SOL     OW 1789   2.066   2.612   1.641 -0.6746 -0.2337 -0.6289
  597SOL    HW1 1790   2.061   2.520   1.596  1.3048 -2.1806 -1.4916
  597SOL    HW2 1791   2.145   2.618   1.714  1.1730  1.3770  3.8830
  598SOL     OW 1792   2.503   2.906   1.292 -0.1336  0.1802  0.9649
  598SOL    HW1 1793   2.553   2.966   1.364  1.0894  1.3823  0.1833
  598SOL    HW2 1794   2.573   2.852   1.233 -1.0788  0.8703  0.4720
  599SOL     OW 1795   2.909   0.376   2.468 -0.1588  0.0863 -0.2670
  599SOL    HW1 1796   2.993   0.435   2.463 -0.5473  0.7859  4.8103
  599SOL    HW2 1797   2.821   0.424   2.436 -1.9964  1.3184 -0.6052
  600SOL     OW 1798   2.834   1.088   2.720  0.5965  0.0852 -0.5796
  600SOL    HW1 1799   2.786   0.994   2.735 -2.1102 -2.0597  0.0019
  600SOL    HW2 1800   2.777   1.170   2.754 -0.6990 -0.6157  0.8466
  601SOL     OW 1801   2.992   1.245   2.019 -0.7094 -0.0009 -0.2103
  601SOL    HW1 1802   2.937   1.300   1.957  2.6599  2.0646 -0.5987
  601SOL    HW2 1803   3.019   1.304   2.101  0.7474 -0.9485 -0.5083
  602SOL     OW 1804   1.507   1.724   2.350 -0.4803 -0.5729 -0.3126
  602SOL    HW1 1805   1.447   1.642   2.324  1.9339  2.9928 -0.5516
  602SOL    HW2 1806   1.591   1.702   2.408 -2.6240  0.9232  0.2568
  603SOL     OW 1807   0.634   1.252   2.697 -0.0418 -0.1408  0.4824
  603SOL    HW1 1808   0.554   1.247   2.626 -0.3009 -1.1432 -1.4828
  603SOL    HW2 1809   0.703   1.176   2.696  0.6040 -0.3420 -2.1266
  604SOL     OW 1810   2.418   0.961   0.154 -0.0362  0.1178 -0.4350
  604SOL    HW1 1811   2.449   1.023   0.080 -0.4912 -1.6731 -1.1557
  604SOL    HW2 1812   2.412   0.862   0.113  0.6620 -0.7253  0.5773
  605SOL     OW 1813   2.694   1.151   1.960  0.1512  0.2967  0.0482
  605SOL    HW1 1814   2.682   1.071   1.903 -0.8618  1.4716  2.8288
  605SOL    HW2 1815   2.659   1.134   2.055 -0.8190  1.7266 -1.6951
  606SOL     OW 1816   1.530   2.521   2.624  0.2834  0.0225  0.2383
  606SOL    HW1 1817   1.452   2.590   2.598 -1.0129  1.8170  1.0832
  606SOL    HW2 1818   1.511   2.424   2.597  0.5117  0.0367  1.8485
  607SOL     OW 1819   1.353   1.595   0.427  0.2683  0.2233 -0.6384
  607SOL    HW1 1820   1.323   1.576   0.521  0.5354 -1.7812 -2.9474
  607SOL    HW2 1821   1.422   1.671   0.427  3.4439 -1.1852  1.0220
  608SOL     OW 1822   1.410   2.880   0.461  0.2067 -0.7902  0.0146
  608SOL    HW1 1823   1.490   2.929   0.415  1.9540 -0.8118 -2.2340
  608SOL    HW2 1824   1.321   2.936   0.460 -0.1080  0.1077 -0.6126
  609SOL     OW 1825   1.284   1.372   0.281 -0.0116 -0.2895  0.1220
  609SOL    HW1 1826   1.316   1.468   0.314  0.0547 -2.0258 -0.8364
  609SOL    HW2 1827   1.184   1.363   0.292  0.2273  1.6898  0.0532
  610SOL     OW 1828   2.960   1.119   2.273  0.1925 -0.0807 -0.6383
  610SOL    HW1 1829   2.986   1.020   2.280 -0.4840  1.2132  0.4887
  610SOL    HW2 1830   2.964   1.157   2.178  0.1831  0.0596 -0.7699
  611SOL     OW 1831   2.518   0.293   1.147 -0.2300 -0.2866 -0.2277
  611SOL    HW1 1832   2.472   0.217   1.203  0.1977  0.2185 -0.9614
  611SOL    HW2 1833   2.613   0.321   1.183  1.4003  0.4965 -1.0029
  612SOL     OW 1834   0.778   2.219   1.261  0.9988  0.7551 -0.2910
  612SOL    HW1 1835   0.723   2.129   1.250 -1.2982 -0.0346  1.1962
  612SOL    HW2 1836   0.727   2.304   1.227 -1.9290  0.2632  4.2294
  613SOL     OW 1837   0.886   1.471   2.393 -0.0869  0.1032  0.4794
  613SOL    HW1 1838   0.932   1.541   2.331  0.6265  0.2879 -0.3085
  613SOL    HW2 1839   0.814   1.414   2.339 -3.6294  1.2981  3.4308
  614SOL     OW 1840   1.670   1.611   1.843  0.1335  0.1293  0.6361
  614SOL    HW1 1841   1.616   1.699   1.833  0.4485  0.0809  0.7328
  614SOL    HW2 1842   1.711   1.602   1.939 -1.4884 -0.2176  1.2557
  615SOL     OW 1843   0.845   1.287   1.705  0.5571 -0.7485 -0.3885
  615SOL    HW1 1844   0.777   1.261   1.627 -1.1759 -0.8953 -1.4706
  615SOL    HW2 1845   0.865   1.395   1.711 -1.8913  4.5851 -0.6542
  616SOL     OW 1846   1.117   1.577   2.206  0.2232  0.6147  0.3162
  616SOL    HW1 1847   1.027   1.571   2.146 -1.0730  1.0538 -1.2404
  616SOL    HW2 1848   1.140   1.676   2.238 -1.7960  2.5388  1.1794
  617SOL     OW 1849   2.946   1.528   1.614 -0.5941 -0.1700 -0.1617
  617SOL    HW1 1850   2.941   1.432   1.654 -2.3423 -2.1313 -1.0610
  617SOL    HW2 1851   3.010   1.532   1.529 -0.9523  0.8626  1.0636
  618SOL     OW 1852   1.882   2.092   1.359  0.2970  0.1017  0.2256
  618SOL    HW1 1853   1.900   2.173   1.297  3.1543  0.0210  0.2927
  618SOL    HW2 1854   1.882   2.009   1.298  1.3311 -0.9372 -3.4034
  619SOL     OW 1855   1.758   0.459   2.376  0.2910  0.3637  0.1198
  619SOL    HW1 1856   1.704   0.530   2.326 -1.1494 -2.1807  1.6062
  619SOL    HW2 1857   1.738   0.366   2.337 -3.1113  2.3110  0.6853
  620SOL     OW 1858   2.301   2.882   0.770  0.1685  0.4386  0.0855
  620SOL    HW1 1859   2.233   2.947   0.806 -2.8387  0.9558  0.6106
  620SOL    HW2 1860   2.317   2.801   0.835  1.9681  1.4695 -0.5313
  621SOL     OW 1861   2.122   1.811   1.355  0.0876 -0.7514 -0.0770
  621SOL    HW1 1862   2.143   1.839   1.456  1.3705 -1.4645  0.6584
  621SOL    HW2 1863   2.078   1.720   1.346  2.2032 -0.8582  0.8315
  622SOL     OW 1864   2.290   0.932   1.845 -0.8630 -0.0943 -0.2170
  622SOL    HW1 1865   2.390   0.941   1.838 -2.0049 -2.0601 -0.4797
  622SOL    HW2 1866   2.263   0.834   1.878  1.3172 -0.3214 -0.1289
  623SOL     OW 1867   1.351   0.792   2.425  0.1037  0.2319 -0.5290
  623SOL    HW1 1868   1.282   0.726   2.454  2.4314 -2.0650  0.4783
  623SOL    HW2 1869   1.301   0.862   2.370 -1.3610 -0.9846  0.2095
  624SOL     OW 1870   0.536   0.644   3.079  0.1472  0.2535 -0.0311
  624SOL    HW1 1871   0.585   0.661   2.991 -0.6358 -0.8394  1.6080
  624SOL    HW2 1872   0.519   0.727   3.136 -1.8843  1.4594 -1.9618
  625SOL     OW 1873   2.786   1.716   1.005 -0.2161  0.6898  0.0677
  625SOL    HW1 1874   2.710   1.785   0.990  0.9284 -0.9759 -2.1522
  625SOL    HW2 1875   2.869   1.762   1.041 -1.3319  0.7145 -0.6610
  626SOL     OW 1876   0.620   2.660   1.707 -0.0474 -0.4253 -0.4577
  626SOL    HW1 1877   0.676   2.724   1.767 -0.7429 -1.1926  0.8952
  626SOL    HW2 1878   0.521   2.665   1.735 -1.0379  1.1164  1.7902
  627SOL     OW 1879   0.653   0.891   1.574  0.4866  0.2220 -0.0417
  627SOL    HW1 1880   0.554   0.867   1.540  1.0952  2.3856  0.0889
  627SOL    HW2 1881   0.719   0.919   1.500 -0.1972 -2.0095  0.0341
  628SOL     OW 1882   2.442   0.167   0.704  0.8928  0.7563 -0.1141
  628SOL    HW1 1883   2.479   0.086   0.650  1.2310  2.3851  1.4491
  628SOL    HW2 1884   2.345   0.146   0.744  0.0783 -0.8453 -1.2015
  629SOL     OW 1885   1.901   0.902   1.991  0.1863  0.4704  0.5919
  629SOL    HW1 1886   1.915   0.978   1.922 -0.6632 -1.3632 -1.0655
  629SOL    HW2 1887   1.870   0.935   2.085 -1.1242 -1.6897  1.4562
  630SOL     OW 1888   2.925   2.326   0.781  0.6496 -0.0638  0.1522
  630SOL    HW1 1889   2.842   2.385   0.765 -0.2411 -1.1533  0.6479
  630SOL    HW2 1890   2.913   2.231   0.748  0.2750  2.3855 -2.1784
  631SOL     OW 1891   3.070   0.155   2.178  0.0838  0.3842  0.2631
  631SOL    HW1 1892   3.154   0.173   2.237 -2.2123  0.9933 -0.0248
  631SOL    HW2 1893   3.083   0.170   2.078  1.9382  3.9160  0.8619
  632SOL     OW 1894   2.454   2.569   0.607  0.1002  0.6031  0.2922
  632SOL    HW1 1895   2.525   2.644   0.639  0.9064 -1.1624  1.3854
  632SOL    HW2 1896   2.363   2.603   0.574  3.0286  0.3783  0.1451
  633SOL     OW 1897   1.481   1.203   2.680  0.3705  0.1026 -0.2498
  633SOL    HW1 1898   1.462   1.293   2.730 -2.8168  3.1706 -0.7680
  633SOL    HW2 1899   1.413   1.189   2.606 -0.7034  1.6236 -0.7494
  634SOL     OW 1900   0.632   2.026   0.903 -0.1001 -0.3026  0.0300
  634SOL    HW1 1901   0.545   2.061   0.950 -0.3973 -1.6099 -2.3407
  634SOL    HW2 1902   0.720   2.052   0.953  0.5198 -1.0003 -1.5122
  635SOL     OW 1903   3.002   2.379   0.044 -0.2210 -0.2937  0.7298
  635SOL    HW1 1904   2.940   2.447  -0.008 -1.3105  0.2448 -2.0984
  635SOL    HW2 1905   3.087   2.428   0.080  2.4356 -1.7599 -0.6150
  636SOL     OW 1906   2.374   2.769   1.997 -0.7944  0.1638  0.2748
  636SOL    HW1 1907   2.333   2.866   1.979 -3.9573  1.5746  2.1894
  636SOL    HW2 1908   2.314   2.718   2.064 -0.5479  1.3655 -1.8042
  637SOL     OW 1909   2.772   0.615   1.978 -0.1623  0.3183 -0.0953
  637SOL    HW1 1910   2.682   0.648   1.927 -1.1564 -0.1500  1.0508
  637SOL    HW2 1911   2.834   0.695   2.007  2.9974  0.6549  2.4517
  638SOL     OW 1912   2.438   1.860   1.303 -0.5574  0.2101  0.6318
  638SOL    HW1 1913   2.348   1.814   1.280  0.6623  0.0343  0.4913
  638SOL    HW2 1914   2.489   1.802   1.371  0.6639 -2.0545 -1.0624
  639SOL     OW 1915   1.312   2.205   1.693 -0.4733 -0.2000  0.4910
  639SOL    HW1 1916   1.346   2.303   1.696 -0.3311 -1.0502 -2.3869
  639SOL    HW2 1917   1.214   2.195   1.721  3.0797  0.7017  0.7822
  640SOL     OW 1918   0.192   1.199   1.544  0.4828  0.0322  0.1187
  640SOL    HW1 1919   0.169   1.222   1.637 -2.2350 -0.3464 -2.6762
  640SOL    HW2 1920   0.270   1.134   1.541 -1.5871  0.4321 -1.1732
  641SOL     OW 1921   1.967   0.271   1.459  0.4210 -0.0293 -0.6886
  641SOL    HW1 1922   1.905   0.281   1.541  0.5958 -0.3682 -1.9802
  641SOL    HW2 1923   2.057   0.231   1.481 -0.4292 -1.3041 -2.0496
  642SOL     OW 1924   2.021   0.081   0.382 -0.0868  0.1618  0.0369
  642SOL    HW1 1925   2.118   0.041   0.388 -0.6849 -0.8339  0.3157
  642SOL    HW2 1926   2.003   0.167   0.437 -1.0347  0.3778  0.7748
  643SOL     OW 1927   2.916   1.839   2.154  0.0914 -0.4192  0.0380
  643SOL    HW1 1928   2.844   1.785   2.100  0.3438 -1.7586 -0.4707
  643SOL    HW2 1929   2.932   1.932   2.110  1.9861 -1.9848 -0.3248
  644SOL     OW 1930   2.297   2.431   1.229  0.2854 -0.2026 -0.1712
  644SOL    HW1 1931   2.321   2.339   1.180 -0.8541 -0.6147 -0.7057
  644SOL    HW2 1932   2.263   2.409   1.325 -0.8811 -0.9551 -4.2642
  645SOL     OW 1933   0.591   0.825   1.262 -0.3598  0.0364  0.5493
  645SOL    HW1 1934   0.489   0.820   1.272  2.5276  3.1971 -0.7803
  645SOL    HW2 1935   0.613   0.856   1.170 -1.9417 -0.8033  2.7960
  646SOL     OW 1936   1.497   1.817   2.046 -0.3803  0.0377 -0.0331
  646SOL    HW1 1937   1.550   1.884   1.990 -1.2232  2.3165  0.1658
  646SOL    HW2 1938   1.554   1.770   2.119  0.8560 -0.7513 -1.1942
  647SOL     OW 1939   0.859   1.096   0.636  0.6964 -0.0611 -0.7873
  647SOL    HW1 1940   0.919   1.138   0.707  0.9494 -0.5804  1.7912
  647SOL    HW2 1941   0.806   1.016   0.675 -0.9439 -0.4779 -1.2051
  648SOL     OW 1942   0.148   0.269   0.289 -0.2209  0.1406 -0.3319
  648SOL    HW1 1943   0.156   0.186   0.230  2.0040 -0.6356 -0.2512
  648SOL    HW2 1944   0.116   0.356   0.238  1.2183  0.8704  1.4005
  649SOL     OW 1945   3.025   0.182   0.794  0.2228  0.1845  0.6832
  649SOL    HW1 1946   3.123   0.150   0.816  2.2745  1.1326  2.5155
  649SOL    HW2 1947   3.012   0.284   0.795 -1.0733  0.4787 -1.3724
  650SOL     OW 1948   2.718   0.647   1.556 -0.1195  0.0414  0.3394
  650SOL    HW1 1949   2.617   0.650   1.539  0.1140  0.6890 -1.1321
  650SOL    HW2 1950   2.759   0.732   1.514 -3.7680 -2.4821 -2.0466
  651SOL     OW 1951   0.881   1.546   1.673  0.4304  0.2419 -0.5648
  651SOL    HW1 1952   0.881   1.647   1.709 -0.4553  1.5172 -0.6370
  651SOL    HW2 1953   0.954   1.535   1.603  0.3090 -1.7512  0.7579
  652SOL     OW 1954   2.397   2.447   2.471 -0.2029 -0.5299 -0.2015
  652SOL    HW1 1955   2.302   2.482   2.477 -0.7446 -2.2326  2.0661
  652SOL    HW2 1956   2.443   2.474   2.384 -1.1050 -0.4381  0.6772
  653SOL     OW 1957   2.733   1.244   0.179 -0.2713  0.0989  0.0206
  653SOL    HW1 1958   2.792   1.316   0.223 -1.5961  1.4795 -1.6007
  653SOL    HW2 1959   2.762   1.145   0.198 -0.7790 -0.2651  0.1249
  654SOL     OW 1960   1.271   2.199   1.295  0.2588  0.5179 -0.1227
  654SOL    HW1 1961   1.306   2.130   1.361  0.5974  5.9982 -0.2434
  654SOL    HW2 1962   1.248   2.161   1.203 -0.8433  0.2439  1.7292
  655SOL     OW 1963   0.185   0.943   1.884 -0.0107 -0.7443  0.0233
  655SOL    HW1 1964   0.246   0.866   1.845  0.9596  0.3123  1.8686
  655SOL    HW2 1965   0.214   1.034   1.843 -3.3261  0.2749 -1.1091
  656SOL     OW 1966   2.569   2.546   2.657 -0.0359 -0.6208 -0.0137
  656SOL    HW1 1967   2.669   2.521   2.641  2.6291 -1.4631  0.9707
  656SOL    HW2 1968   2.504   2.490   2.601 -0.2351 -0.0928  0.1678
  657SOL     OW 1969   3.002   1.030   1.806 -0.3347 -0.4295  0.1307
  657SOL    HW1 1970   3.004   1.107   1.873  3.5361 -2.0701 -3.9521
  657SOL    HW2 1971   3.097   0.991   1.789  1.4610 -0.3680 -0.3953
  658SOL     OW 1972   1.711   0.207   2.302  0.1370  0.0550  0.3669
  658SOL    HW1 1973   1.747   0.128   2.364 -0.3379  3.5421  0.4808
  658SOL    HW2 1974   1.748   0.198   2.204 -1.7292 -3.1151 -2.5688
  659SOL     OW 1975   1.393   0.637   2.766 -0.5188 -0.0417  0.3210
  659SOL    HW1 1976   1.443   0.700   2.696  1.7880 -0.7828 -2.6133
  659SOL    HW2 1977   1.298   0.670   2.788  0.2474  1.3090  3.0049
  660SOL     OW 1978   1.432   0.354   1.422 -0.5254 -0.2484  0.5606
  660SOL    HW1 1979   1.429   0.380   1.527 -1.1154 -3.6914  2.2215
  660SOL    HW2 1980   1.485   0.271   1.392 -1.4443  1.4943  2.8708
  661SOL     OW 1981   2.434   1.254   0.631 -0.4348  0.1246 -0.4632
  661SOL    HW1 1982   2.475   1.242   0.537 -0.3784  0.4290 -0.9955
  661SOL    HW2 1983   2.357   1.325   0.624  4.6178  0.8979  0.1463
  662SOL     OW 1984   1.426   0.428   1.710 -0.6534 -0.4997 -0.1615
  662SOL    HW1 1985   1.396   0.369   1.789  1.7549  0.5571  1.5666
  662SOL    HW2 1986   1.458   0.525   1.745  3.2721  1.9797  0.2846
  663SOL     OW 1987   0.866   1.544   2.116 -0.2625 -0.8119  0.3089
  663SOL    HW1 1988   0.820   1.606   2.176  2.6925 -0.9940 -0.7590
  663SOL    HW2 1989   0.802   1.489   2.052  0.2672 -2.5984  1.3326
  664SOL     OW 1990   1.610   2.109   1.429  0.3301 -0.6771  0.1933
  664SOL    HW1 1991   1.541   2.035   1.457 -0.4211 -1.8161  1.9118
  664SOL    HW2 1992   1.708   2.075   1.415 -2.2796  0.4911 -4.0177
  665SOL     OW 1993   2.285   0.647   1.957  0.4537 -0.2351  0.0390
  665SOL    HW1 1994   2.261   0.546   1.962 -0.8589 -1.7770  1.0068
  665SOL    HW2 1995   2.324   0.687   2.046  0.1374 -1.9729 -2.3608
  666SOL     OW 1996   0.479   2.243   0.318  0.1330  0.2543  0.1813
  666SOL    HW1 1997   0.520   2.309   0.392 -1.5542  0.8912  2.9272
  666SOL    HW2 1998   0.375   2.236   0.333  1.1303 -1.5010  1.8610
  667SOL     OW 1999   1.915   0.230   1.033  0.1796  0.3194  0.3580
  667SOL    HW1 2000   1.906   0.333   1.048 -0.5409  0.4596 -0.6941
  667SOL    HW2 2001   1.883   0.175   1.118  0.9906 -2.2357  2.4391
  668SOL     OW 2002   1.993   0.524   1.133  0.7422  0.3337 -0.2374
  668SOL    HW1 2003   2.057   0.548   1.058 -3.7479 -2.7238  2.6214
  668SOL    HW2 2004   2.026   0.543   1.229 -3.0022  0.9884  1.6230
  669SOL     OW 2005   3.018   2.181   1.021  0.0327  0.1719 -0.0077
  669SOL    HW1 2006   2.986   2.252   0.946 -1.1355  3.6595  3.5278
  669SOL    HW2 2007   3.022   2.229   1.113 -0.7631 -1.4994 -0.1919
  670SOL     OW 2008   2.890   2.306   2.094 -0.1227  0.2691  0.0888
  670SOL    HW1 2009   2.817   2.300   2.164  1.0298 -0.5093  3.3104
  670SOL    HW2 2010   2.892   2.405   2.061 -1.9914 -0.1437  1.5008
  671SOL     OW 2011   1.779   1.766   1.541  0.4185  0.0168 -0.3781
  671SOL    HW1 2012   1.832   1.799   1.459  0.7963  0.6075  0.2206
  671SOL    HW2 2013   1.676   1.780   1.545 -0.9609 -1.2916  2.9269
  672SOL     OW 2014   0.474   0.669   2.530 -0.1983  0.0181 -0.3939
  672SOL    HW1 2015   0.408   0.725   2.470  1.8254 -0.2051 -1.9191
  672SOL    HW2 2016   0.430   0.649   2.620 -1.6229  3.1314  1.6713
  673SOL     OW 2017   0.075   1.274   1.116  0.5049 -0.8284  0.0321
  673SOL    HW1 2018   0.029   1.362   1.153 -0.8218 -1.5407  0.2725
  673SOL    HW2 2019   0.176   1.286   1.113 -2.7530  1.0629  0.9911
  674SOL     OW 2020   1.637   2.981   0.309  0.0112  0.1883  0.0021
  674SOL    HW1 2021   1.619   3.072   0.263  2.7245  4.3097  1.6251
  674SOL    HW2 2022   1.676   2.912   0.250 -3.3481  1.6143 -1.0741
  675SOL     OW 2023   1.732   0.848   2.323 -0.1424  0.3036 -0.4202
  675SOL    HW1 2024   1.836   0.828   2.305  1.5153 -2.9171  0.0438
  675SOL    HW2 2025   1.671   0.765   2.310  0.3093  2.4907 -1.0821
  676SOL     OW 2026   2.555   1.501   1.920 -0.1634 -0.4204 -0.2618
  676SOL    HW1 2027   2.503   1.440   1.858  1.0368  1.3978  1.4906
  676SOL    HW2 2028   2.558   1.455   2.018  0.5714 -5.8991  0.5723
  677SOL     OW 2029   1.926   0.719   0.886  0.5137 -0.9254  0.1534
  677SOL    HW1 2030   1.841   0.690   0.937 -0.8874  2.0233 -0.9416
  677SOL    HW2 2031   2.008   0.659   0.908 -0.9095 -0.5235 -4.6889
  678SOL     OW 2032   0.104   0.750   1.623 -0.5004 -0.0082  0.1623
  678SOL    HW1 2033   0.201   0.775   1.635 -0.9626  0.7277  0.4786
  678SOL    HW2 2034   0.062   0.698   1.702  0.1907 -1.8469 -1.1370
  679SOL     OW 2035   2.577   1.194   1.172 -0.5777  0.0298  0.0559
  679SOL    HW1 2036   2.476   1.218   1.157 -3.2723 -2.0910 -0.4945
  679SOL    HW2 2037   2.594   1.094   1.161  1.2139  1.8034  3.2006
  680SOL     OW 2038   2.834   0.470   1.711 -0.3152 -0.5726  0.1143
  680SOL    HW1 2039   2.773   0.526   1.641 -0.5143  2.6355 -0.0381
  680SOL    HW2 2040   2.905   0.533   1.753  0.7417  0.8706  0.4199
  681SOL     OW 2041   2.973   0.062   1.594 -0.6341 -0.2016 -0.4608
  681SOL    HW1 2042   3.043   0.047   1.518  4.1863  0.3221 -1.8606
  681SOL    HW2 2043   2.926   0.156   1.584 -0.6171  1.8286  0.3230
  682SOL     OW 2044   0.666   0.056   1.339  0.4814  0.1225 -0.4360
  682SOL    HW1 2045   0.596  -0.023   1.356 -0.3341 -0.2134  1.9597
  682SOL    HW2 2046   0.718   0.049   1.248 -0.3530 -1.5440  0.6627
  683SOL     OW 2047   1.378   0.200   2.156  0.1992 -0.2700 -0.1088
  683SOL    HW1 2048   1.382   0.239   2.254 -0.2798 -4.5924  0.8056
  683SOL    HW2 2049   1.437   0.251   2.086  0.2363  0.1654 -1.1157
  684SOL     OW 2050   1.458   2.110   0.547  0.3394 -0.5915  0.2049
  684SOL    HW1 2051   1.503   2.061   0.625 -1.6882  1.9782  0.4875
  684SOL    HW2 2052   1.367   2.069   0.515 -2.9333  1.2938 -1.0660
  685SOL     OW 2053   2.228   2.078   1.972  0.1195  0.4459  0.4504
  685SOL    HW1 2054   2.285   2.036   1.893 -0.2889  0.8632  0.8480
  685SOL    HW2 2055   2.258   2.039   2.060 -1.2614 -1.7966 -3.5245
  686SOL     OW 2056   1.479   1.817   2.840 -0.7570 -0.3893 -0.3028
  686SOL    HW1 2057   1.533   1.819   2.931  1.2549  1.3316 -0.6726
  686SOL    HW2 2058   1.379   1.800   2.850 -0.5785  1.8544  0.1501
  687SOL     OW 2059   1.317   2.409   1.969 -0.2575  0.6676 -0.1892
  687SOL    HW1 2060   1.335   2.310   1.963  1.2033  1.0888 -1.3961
  687SOL    HW2 2061   1.363   2.448   2.056 -3.2723 -0.6766  2.2421
  688SOL     OW 2062   2.033   1.529   1.788 -0.5940 -0.1975  0.0048
  688SOL    HW1 2063   2.134   1.561   1.782  2.5239  0.3246  2.0869
  688SOL    HW2 2064   2.002   1.485   1.695  1.4131  2.7344 -2.0989
  689SOL     OW 2065   2.388   1.087   2.736  0.1012 -0.1457  0.2766
  689SOL    HW1 2066   2.302   1.032   2.750 -0.9878  1.3918  1.9685
  689SOL    HW2 2067   2.438   1.107   2.823 -0.6090 -2.9874  1.6677
  690SOL     OW 2068   2.244   2.791   0.053  0.4781  0.6659 -0.6235
  690SOL    HW1 2069   2.156   2.755   0.015 -3.9019 -0.2100 -2.4239
  690SOL    HW2 2070   2.241   2.800   0.158 -3.8752 -1.2034 -0.8106
  691SOL     OW 2071   2.591   0.410   2.091 -0.2196  0.1098 -0.4365
  691SOL    HW1 2072   2.643   0.321   2.112  0.6120 -0.8400  0.8930
  691SOL    HW2 2073   2.622   0.453   2.003 -0.9282 -0.6122 -0.7585
  692SOL     OW 2074   2.646   1.202   0.823  0.6625  0.0249  0.0723
  692SOL    HW1 2075   2.577   1.225   0.749  0.6011  0.5924  1.3321
  692SOL    HW2 2076   2.680   1.287   0.868  0.6444 -1.6854 -0.5380
  693SOL     OW 2077   2.858   3.008   0.577 -0.3308  0.6018 -0.2428
  693SOL    HW1 2078   2.800   3.054   0.649 -0.1064  0.1200  0.5644
  693SOL    HW2 2079   2.853   3.046   0.483  0.3422 -0.6546 -2.0195
  694SOL     OW 2080   2.440   2.194   0.134 -0.3312  0.0064 -0.4342
  694SOL    HW1 2081   2.435   2.283   0.178 -2.3695 -1.2807  1.8089
  694SOL    HW2 2082   2.348   2.158   0.102 -0.4436 -2.6280  1.5371
  695SOL     OW 2083   0.475   2.953   1.432 -0.5236  0.0216  0.0530
  695SOL    HW1 2084   0.425   2.860   1.424  0.8003  0.5398  1.3518
  695SOL    HW2 2085   0.450   3.008   1.515  0.0516  1.5064 -2.5198
  696SOL     OW 2086   2.858   2.065   0.742  0.4788  0.4064  0.3117
  696SOL    HW1 2087   2.871   1.968   0.772 -0.7563  0.9713  0.8215
  696SOL    HW2 2088   2.843   2.074   0.638 -0.4292  0.6629 -1.5445
  697SOL     OW 2089   1.649   1.886   1.813 -0.0090  0.8334 -0.3385
  697SOL    HW1 2090   1.745   1.846   1.798  0.5282 -0.7415 -2.6531
  697SOL    HW2 2091   1.656   1.990   1.808 -1.8070 -0.4818  0.5664
  698SOL     OW 2092   2.874   0.439   2.748 -0.6148 -0.0665 -0.4189
  698SOL    HW1 2093   2.870   0.409   2.653  0.9543  1.4006  0.3177
  698SOL    HW2 2094   2.912   0.368   2.810 -2.1289  1.1694 -2.3125
  699SOL     OW 2095   1.551   0.050   2.927  0.0466 -0.2617  0.1466
  699SOL    HW1 2096   1.524  -0.044   2.901 -0.6087  0.9651 -0.8877
  699SOL    HW2 2097   1.607   0.092   2.852  0.6371 -2.1395  0.1331
  700SOL     OW 2098   0.999   2.261   1.419 -0.0756  0.5522  1.3389
  700SOL    HW1 2099   1.069   2.190   1.413 -0.9681  3.6718 -1.0375
  700SOL    HW2 2100   0.909   2.241   1.367  2.8812 -0.1033  0.8643
  701SOL     OW 2101   1.923   2.879  -0.001  0.1354  0.5395 -0.0122
  701SOL    HW1 2102   1.853   2.846   0.069  0.0411 -0.2436 -0.8721
  701SOL    HW2 2103   1.960   2.965   0.041  0.7241  0.9130 -1.1399
  702SOL     OW 2104   2.068   1.305   1.958 -0.1371  0.0570  0.2396
  702SOL    HW1 2105   2.165   1.269   1.952 -0.2579 -0.3049 -0.1621
  702SOL    HW2 2106   2.053   1.377   1.884  0.1313 -1.1927 -1.1286
  703SOL     OW 2107   1.953   0.910   1.484  0.4043 -0.1676  0.0204
  703SOL    HW1 2108   1.922   0.817   1.513  1.7602 -2.5981 -0.9979
  703SOL    HW2 2109   1.996   0.960   1.563 -2.6656  1.1675  0.4302
  704SOL     OW 2110   0.289   2.028   1.677 -0.0871  0.1502 -0.3321
  704SOL    HW1 2111   0.337   1.950   1.731  1.1072  0.4248 -1.4817
  704SOL    HW2 2112   0.348   2.108   1.657 -1.5704  0.1259 -1.0044
  705SOL     OW 2113   2.462   1.515   0.855 -0.1352  0.4670 -0.2527
  705SOL    HW1 2114   2.380   1.469   0.815 -0.7314 -0.6402  0.1958
  705SOL    HW2 2115   2.543   1.452   0.869 -0.4273 -0.5885 -0.3357
  706SOL     OW 2116   0.697   1.698   1.841  0.5140  0.1443  0.4479
  706SOL    HW1 2117   0.701   1.598   1.859  0.9215 -0.7822 -0.0667
  706SOL    HW2 2118   0.751   1.754   1.906 -1.7478 -2.6083 -3.0090
  707SOL     OW 2119   2.334   1.206   1.981 -0.4340 -0.2044 -0.1747
  707SOL    HW1 2120   2.396   1.203   2.063 -2.0624  2.3640  0.8158
  707SOL    HW2 2121   2.313   1.107   1.947 -0.3451 -0.0936  0.5313
  708SOL     OW 2122   3.002   0.529   3.034 -1.1891 -0.3256  0.0833
  708SOL    HW1 2123   3.057   0.582   2.965  1.4888 -1.0317  2.2910
  708SOL    HW2 2124   2.970   0.430   3.020 -0.8665 -0.1859 -0.7100
  709SOL     OW 2125   1.896   1.876   0.347  0.2945  0.8579  0.6361
  709SOL    HW1 2126   1.922   1.975   0.347 -0.8481  0.5846 -0.4337
  709SOL    HW2 2127   1.846   1.853   0.258 -1.2159  2.1360  1.6300
  710SOL     OW 2128   1.760   1.625   2.463 -0.3411 -0.0535 -0.6391
  710SOL    HW1 2129   1.789   1.552   2.395  0.2177 -0.2503 -1.7122
  710SOL    HW2 2130   1.750   1.576   2.558 -3.1395  0.2526  0.5655
  711SOL     OW 2131   2.584   2.921   0.978 -0.3770 -0.4746  0.3869
  711SOL    HW1 2132   2.563   3.016   0.946 -0.6459 -2.4631  0.6864
  711SOL    HW2 2133   2.684   2.899   0.984 -0.6239 -0.0464 -0.1144
  712SOL     OW 2134   1.418   2.137   1.963 -0.1222 -0.2010  0.2242
  712SOL    HW1 2135   1.513   2.181   1.981  4.7045 -1.7697 -0.0123
  712SOL    HW2 2136   1.399   2.123   1.863 -1.4061  0.6245 -2.3216
  713SOL     OW 2137   2.796   1.509   2.524 -0.4797 -0.2502  0.0324
  713SOL    HW1 2138   2.791   1.405   2.520 -0.5967 -2.0976  0.6325
  713SOL    HW2 2139   2.713   1.539   2.576 -0.3983  0.9975  1.0294
  714SOL     OW 2140   2.609   0.436   2.380  0.0739 -0.1937  0.5728
  714SOL    HW1 2141   2.569   0.391   2.471  0.5297 -2.4606  1.4943
  714SOL    HW2 2142   2.557   0.404   2.297 -1.7384 -2.3281 -1.5232
  715SOL     OW 2143   1.573   2.135   1.143 -0.3337 -0.5138  0.2977
  715SOL    HW1 2144   1.479   2.127   1.097  0.7146 -0.6271 -0.1687
  715SOL    HW2 2145   1.562   2.135   1.243 -2.1604 -1.0245  1.3242
  716SOL     OW 2146   1.219   0.160   1.470 -0.6490  0.5645 -0.6321
  716SOL    HW1 2147   1.117   0.163   1.446  3.9902 -1.3396  0.4107
  716SOL    HW2 2148   1.279   0.238   1.426 -1.3612 -1.1108  1.9141
  717SOL     OW 2149   1.159   0.540   1.585 -0.1144 -0.2895 -0.0958
  717SOL    HW1 2150   1.256   0.554   1.617 -2.2208 -1.4251  2.1024
  717SOL    HW2 2151   1.154   0.510   1.485 -1.6710 -0.2718 -2.4175
  718SOL     OW 2152   0.667   0.890   0.953  0.6021 -0.1117  0.3161
  718SOL    HW1 2153   0.661   0.878   0.849  0.8322 -0.3311 -0.9214
  718SOL    HW2 2154   0.668   0.987   0.982  1.5760 -3.8681  2.8899
  719SOL     OW 2155   0.601   1.736   2.285 -0.2635 -0.4818  0.1959
  719SOL    HW1 2156   0.659   1.787   2.351 -0.4853  1.2742  1.2358
  719SOL    HW2 2157   0.580   1.634   2.313  3.0476  0.4891  2.3344
  720SOL     OW 2158   2.218   1.129   0.287 -0.0271 -0.0813 -0.3457
  720SOL    HW1 2159   2.275   1.062   0.225  0.3467 -0.8847  1.5293
  720SOL    HW2 2160   2.188   1.080   0.374 -1.5657  2.0659 -1.4676
  721SOL     OW 2161   2.248   2.993   2.048  0.1675  0.0144 -0.1835
  721SOL    HW1 2162   2.218   3.037   1.960 -2.0212  0.7826  3.1976
  721SOL    HW2 2163   2.218   3.045   2.138 -2.7531  0.2422 -0.8057
  722SOL     OW 2164   2.343   1.643   0.483 -0.1881 -0.1741  0.1748
  722SOL    HW1 2165   2.420   1.650   0.417 -0.3597  0.8616 -2.2264
  722SOL    HW2 2166   2.250   1.669   0.445 -2.0214  1.8431  0.6837
  723SOL     OW 2167   2.655   2.709   1.917  0.4376 -0.1475 -0.3905
  723SOL    HW1 2168   2.692   2.807   1.915  0.7337  3.0437  2.3469
  723SOL    HW2 2169   2.550   2.706   1.925 -1.2245 -3.1621 -0.2158
  724SOL     OW 2170   0.477   2.500   2.409  0.4048 -0.0341 -0.3853
  724SOL    HW1 2171   0.376   2.475   2.432 -2.3693 -0.3479 -0.2472
  724SOL    HW2 2172   0.530   2.537   2.488  1.6894  0.1982 -0.7446
  725SOL     OW 2173   2.365   2.730   1.569 -0.5289 -0.3419 -0.1088
  725SOL    HW1 2174   2.457   2.769   1.544  1.5196 -1.2122  1.2853
  725SOL    HW2 2175   2.372   2.625   1.589  4.8252 -0.3965 -0.1322
  726SOL     OW 2176   2.461   2.324   0.697 -0.6232 -0.3031  0.2671
  726SOL    HW1 2177   2.445   2.420   0.652  0.8743  0.8703  1.4064
  726SOL    HW2 2178   2.432   2.248   0.643 -2.9769  3.2980 -0.8145
  727SOL     OW 2179   0.106   3.086   0.142  0.3670 -0.2298 -0.5438
  727SOL    HW1 2180   0.191   3.057   0.086  2.5098 -0.6970  0.2220
  727SOL    HW2 2181   0.019   3.089   0.090 -0.6174 -2.9477  0.6625
  728SOL     OW 2182   2.892   0.703   0.918 -0.3391 -0.2579 -0.1311
  728SOL    HW1 2183   2.829   0.699   0.837  0.8130 -0.3424 -1.4290
  728SOL    HW2 2184   2.853   0.659   1.002  2.2934 -1.5766 -0.7222
  729SOL     OW 2185   0.037   2.540   0.735  0.2971 -0.1003 -0.0560
  729SOL    HW1 2186   0.062   2.461   0.796 -1.8115  1.2276  0.3751
  729SOL    HW2 2187   0.111   2.548   0.665  2.4567  1.5215  0.7740
  730SOL     OW 2188   2.533   0.670   0.842 -0.2467  0.1314 -0.4600
  730SOL    HW1 2189   2.525   0.771   0.857 -2.9656 -0.8684 -0.1679
  730SOL    HW2 2190   2.611   0.657   0.775  0.0731  2.7061 -0.4671
  731SOL     OW 2191   3.085   2.186   2.416  0.3730  0.1571  0.6094
  731SOL    HW1 2192   3.112   2.240   2.499 -0.3553 -1.6999  0.2652
  731SOL    HW2 2193   3.010   2.230   2.359  0.6624 -1.7336 -0.0858
  732SOL     OW 2194   1.177   2.796   2.028 -0.1883  0.2833 -0.4154
  732SOL    HW1 2195   1.231   2.736   2.094  0.6173 -0.4258 -0.8365
  732SOL    HW2 2196   1.180   2.759   1.930  0.5946  0.7884 -2.5770
  733SOL     OW 2197   3.098   0.589   2.257 -0.6742  0.6911 -0.0661
  733SOL    HW1 2198   3.157   0.640   2.184  0.3635  0.0411 -2.5771
  733SOL    HW2 2199   3.029   0.523   2.213 -1.3962  0.6071  1.7618
  734SOL     OW 2200   1.462   0.377   2.677 -0.0096 -0.2284  0.3708
  734SOL    HW1 2201   1.462   0.471   2.721  2.0655 -2.3394  1.1175
  734SOL    HW2 2202   1.377   0.322   2.702 -0.5608  2.7029 -4.3011
  735SOL     OW 2203   2.879   2.613   2.274  0.3710  0.3175 -0.2682
  735SOL    HW1 2204   2.867   2.591   2.173  1.2483 -1.2830 -0.8359
  735SOL    HW2 2205   2.959   2.667   2.297  1.1936 -1.9548 -0.4842
  736SOL     OW 2206   0.920   0.436   2.514  0.0373 -0.0633 -0.2369
  736SOL    HW1 2207   0.828   0.483   2.520  0.5509 -0.7168  1.1449
  736SOL    HW2 2208   0.922   0.339   2.464 -0.5212 -0.6706  2.2214
  737SOL     OW 2209   2.620   0.465   2.816  0.4463  0.8428  0.3082
  737SOL    HW1 2210   2.574   0.439   2.903 -0.4090 -1.8089 -2.0342
  737SOL    HW2 2211   2.725   0.451   2.813 -0.7632 -1.3694  0.9938
  738SOL     OW 2212   1.716   1.287   2.890  0.3501 -0.2414  0.4366
  738SOL    HW1 2213   1.821   1.272   2.888  2.4002  0.9528 -1.7345
  738SOL    HW2 2214   1.656   1.205   2.862 -2.0146 -1.0134 -0.9994
  739SOL     OW 2215   1.784   0.698   0.661  0.1220  0.3852  0.4863
  739SOL    HW1 2216   1.845   0.726   0.740  1.3199 -0.3135  1.0155
  739SOL    HW2 2217   1.803   0.603   0.628 -3.2000  1.8791  1.8247
  740SOL     OW 2218   1.938   1.942   2.368 -0.1682  0.7365 -0.3362
  740SOL    HW1 2219   2.017   1.868   2.368 -1.8907 -0.5597 -0.1800
  740SOL    HW2 2220   1.865   1.899   2.309  0.5623 -1.3191  1.3472
  741SOL     OW 2221   2.591   0.074   2.460  1.3390  0.4172  0.2452
  741SOL    HW1 2222   2.691   0.094   2.459  0.2865 -0.2975  1.2945
  741SOL    HW2 2223   2.540   0.108   2.372 -0.1430  1.5546  0.6658
  742SOL     OW 2224   2.186   1.375   0.141 -0.5203 -0.0958 -0.5171
  742SOL    HW1 2225   2.087   1.381   0.123  0.3856  1.0401  0.4832
  742SOL    HW2 2226   2.210   1.288   0.181 -0.9495  3.6141  0.6852
  743SOL     OW 2227   1.772   0.638   2.619 -0.1899  0.4507 -0.0209
  743SOL    HW1 2228   1.775   0.570   2.539  1.6596  0.4941  0.1535
  743SOL    HW2 2229   1.679   0.693   2.627  1.9788 -1.4367  2.2981
  744SOL     OW 2230   2.684   2.061   0.036  0.6606 -1.3332 -0.5533
  744SOL    HW1 2231   2.618   2.094   0.108 -0.4133 -1.8224 -0.8444
  744SOL    HW2 2232   2.662   1.966   0.008  0.2360  2.7684  3.5932
  745SOL     OW 2233   2.210   2.651   2.171 -0.3378  0.6980 -0.2371
  745SOL    HW1 2234   2.109   2.659   2.181  1.9768  1.0024 -2.8355
  745SOL    HW2 2235   2.260   2.700   2.251 -0.5979  0.4287 -1.7469
  746SOL     OW 2236   0.047   2.656   1.734 -0.2747  0.1035 -0.0401
  746SOL    HW1 2237   0.129   2.593   1.734 -0.9549  0.0346 -0.7601
  746SOL    HW2 2238   0.024   2.713   1.820 -1.4504  4.8556 -1.0126
  747SOL     OW 2239   0.041   1.808   1.655 -0.7285 -0.0531  0.0024
  747SOL    HW1 2240  -0.017   1.726   1.634 -0.0963 -3.9308 -0.7615
  747SOL    HW2 2241   0.111   1.835   1.578  1.2512  0.2391 -1.5582
  748SOL     OW 2242   1.817   2.733   2.872  0.3588 -0.1635  0.1144
  748SOL    HW1 2243   1.866   2.799   2.943  0.0988  2.4083  2.0308
  748SOL    HW2 2244   1.713   2.735   2.883  0.1887  1.3119 -0.4989
  749SOL     OW 2245   1.374   3.045   0.867  0.0483 -0.0550 -0.4100
  749SOL    HW1 2246   1.290   3.048   0.813 -2.8652  1.0012  0.8834
  749SOL    HW2 2247   1.460   3.038   0.800 -0.2245  1.8726  0.1777
  750SOL     OW 2248   2.285   0.196   1.840  0.4192  0.2699  1.0310
  750SOL    HW1 2249   2.323   0.243   1.761 -0.9779 -0.0737 -0.1590
  750SOL    HW2 2250   2.284   0.251   1.924  1.7893  0.3339 -2.4864
  751SOL     OW 2251   0.778   2.131   2.890  0.6687  0.0026 -0.5216
  751SOL    HW1 2252   0.853   2.096   2.962  4.7403 -1.1781 -1.7112
  751SOL    HW2 2253   0.687   2.082   2.898  0.2337 -0.5106 -0.5432
  752SOL     OW 2254   1.320   0.829   1.284  0.0073 -0.1553  0.0712
  752SOL    HW1 2255   1.387   0.906   1.252  0.0398  1.6538  2.2052
  752SOL    HW2 2256   1.373   0.749   1.323  0.4683 -0.9205 -0.1234
  753SOL     OW 2257   0.906   2.558   1.808  0.2405  0.9120  0.3925
  753SOL    HW1 2258   1.003   2.585   1.782 -1.3747  0.6075 -1.1951
  753SOL    HW2 2259   0.848   2.642   1.825  0.2120  1.3317  0.6570
  754SOL     OW 2260   1.112   1.230   3.042  0.6327  0.4666  0.1334
  754SOL    HW1 2261   1.187   1.158   3.030 -0.5028 -0.0112  0.5994
  754SOL    HW2 2262   1.148   1.329   3.042  0.0641 -1.6409  0.8460
  755SOL     OW 2263   1.978   0.446   2.207 -0.0810  0.4406  0.0568
  755SOL    HW1 2264   2.042   0.359   2.226  0.1664 -1.2177 -0.7894
  755SOL    HW2 2265   1.911   0.466   2.281 -0.8101  0.5092 -2.2188
  756SOL     OW 2266   2.562   0.998   2.994  0.7975  0.2642 -0.0352
  756SOL    HW1 2267   2.667   0.980   3.014  3.3920 -0.1187 -2.2646
  756SOL    HW2 2268   2.513   0.908   3.009 -0.7944  0.5168  0.1129
  757SOL     OW 2269   0.108   0.482   1.982  0.2263  0.6046 -0.6479
  757SOL    HW1 2270   0.153   0.402   1.945 -2.0518  2.3864 -0.6016
  757SOL    HW2 2271   0.014   0.452   2.027 -0.2767 -0.6851 -0.0956
  758SOL     OW 2272   2.218   0.095   1.490  0.5424 -0.1229 -0.2568
  758SOL    HW1 2273   2.161   0.012   1.505 -0.5783 -0.1515  0.0570
  758SOL    HW2 2274   2.264   0.092   1.395 -0.2146 -1.8881  0.9271
  759SOL     OW 2275   1.703   0.072   0.065  0.0335  0.5914  0.2327
  759SOL    HW1 2276   1.654   0.059  -0.029  0.4629 -0.1807 -2.8041
  759SOL    HW2 2277   1.802   0.038   0.060  0.7187  0.2203 -0.3462
  760SOL     OW 2278   2.608   2.039   2.822 -1.0284  0.7887  0.3512
  760SOL    HW1 2279   2.652   1.970   2.886  0.2191  0.8711 -1.3086
  760SOL    HW2 2280   2.600   2.134   2.864 -1.2671  2.3495 -1.4037
  761SOL     OW 2281   1.924   1.793   1.776 -0.3276  0.1158 -0.3734
  761SOL    HW1 2282   1.930   1.694   1.811  1.9368  0.4478  1.7719
  761SOL    HW2 2283   1.884   1.797   1.681 -1.1059  0.0395 -2.0557
  762SOL     OW 2284   0.482   2.362   0.957  0.4099 -0.1790 -0.3878
  762SOL    HW1 2285   0.521   2.354   0.861 -1.2063  0.9154  2.1224
  762SOL    HW2 2286   0.547   2.401   1.027 -0.6977  0.3209 -0.9489
  763SOL     OW 2287   2.081   1.550   2.966  0.2801  0.2249  0.4084
  763SOL    HW1 2288   2.178   1.516   2.985  3.4409 -0.4368 -0.7212
  763SOL    HW2 2289   2.020   1.492   3.022  0.4661  0.6457  0.8868
  764SOL     OW 2290   0.688   0.602   0.714  0.1686 -0.2534  0.0000
  764SOL    HW1 2291   0.611   0.530   0.707 -2.9626 -1.9122 -0.1007
  764SOL    HW2 2292   0.746   0.588   0.803 -1.5032 -1.0312  0.3179
  765SOL     OW 2293   0.801   0.272   0.760 -0.1189 -0.1956  0.6446
  765SOL    HW1 2294   0.835   0.282   0.666 -2.5254 -1.0827 -0.1427
  765SOL    HW2 2295   0.813   0.362   0.822 -1.7000 -3.2592 -0.4142
  766SOL     OW 2296   2.912   2.151   3.017 -0.5337 -0.1280 -0.3093
  766SOL    HW1 2297   2.815   2.140   3.058 -1.6696  0.7562  0.0903
  766SOL    HW2 2298   2.958   2.236   3.048 -0.6287 -0.4356  0.7273
  767SOL     OW 2299   2.803   1.659   0.593  0.1348 -0.0184 -0.5443
  767SOL    HW1 2300   2.705   1.670   0.625  0.1397 -0.5892 -1.3035
  767SOL    HW2 2301   2.866   1.730   0.637  2.6235  0.2718  0.9842
  768SOL     OW 2302   1.050   0.144   0.244 -1.1993 -0.1564 -0.0143
  768SOL    HW1 2303   1.021   0.200   0.328 -0.7897  1.7356  2.9719
  768SOL    HW2 2304   1.156   0.138   0.238  0.3879  1.0740 -0.6963
  769SOL     OW 2305   1.129   1.834   2.319 -0.2053  0.3772  0.2526
  769SOL    HW1 2306   1.029   1.844   2.342  2.0026  0.6864 -1.6773
  769SOL    HW2 2307   1.190   1.816   2.403  1.4191  0.3356  1.0138
  770SOL     OW 2308   0.160   1.125   2.304 -0.0085  0.0812  0.2484
  770SOL    HW1 2309   0.169   1.160   2.403 -1.3108 -0.2765 -1.2683
  770SOL    HW2 2310   0.064   1.132   2.268  1.4045 -0.1385 -2.1893
  771SOL     OW 2311   3.063   2.821   1.937 -0.2873 -0.0014 -0.3310
  771SOL    HW1 2312   3.016   2.883   1.872  2.7904  0.8565  0.2007
  771SOL    HW2 2313   3.031   2.848   2.030 -0.5894 -1.6768  1.9902
  772SOL     OW 2314   2.312   0.215   2.838  0.0120  0.0590  0.1171
  772SOL    HW1 2315   2.381   0.143   2.804  0.6560 -1.2780  1.3075
  772SOL    HW2 2316   2.324   0.228   2.938  0.3862 -0.2713  1.2151
  773SOL     OW 2317   0.604   2.112   2.392  0.0309  0.0937 -0.2547
  773SOL    HW1 2318   0.595   2.182   2.315 -1.0138 -0.5918  0.1928
  773SOL    HW2 2319   0.509   2.107   2.435 -1.5097  2.4107  1.1878
  774SOL     OW 2320   2.115   0.008   2.598  0.3433 -0.2266  0.4686
  774SOL    HW1 2321   2.098   0.102   2.648 -0.1114  1.1203 -0.8417
  774SOL    HW2 2322   2.182  -0.058   2.641 -0.1430  0.1376 -0.6370
  775SOL     OW 2323   2.575   2.966   2.224 -0.1931  0.2991  0.0194
  775SOL    HW1 2324   2.503   3.041   2.219 -1.6219  1.6747 -1.1884
  775SOL    HW2 2325   2.653   3.003   2.283 -1.2129  1.4367 -1.5952
  776SOL     OW 2326   3.088   1.248   0.167 -0.2443  0.0459  0.1973
  776SOL    HW1 2327   3.049   1.212   0.077  1.2356  2.3626 -0.2255
  776SOL    HW2 2328   3.030   1.226   0.248 -1.6839  1.9286  2.3055
  777SOL     OW 2329   0.440   2.939   0.427 -0.1776  0.0256 -0.0872
  777SOL    HW1 2330   0.351   2.928   0.370 -1.4789  1.2493 -0.1891
  777SOL    HW2 2331   0.521   2.900   0.375  0.3658  0.3044 -1.0622
  778SOL     OW 2332   1.334   1.952   0.175  0.4562 -0.1328 -0.0326
  778SOL    HW1 2333   1.306   1.985   0.271 -0.0998  0.2152 -1.0138
  778SOL    HW2 2334   1.360   2.028   0.108 -1.2052 -0.1798  0.4140
  779SOL     OW 2335   0.170   0.877   0.450  0.4279  0.8570  0.4374
  779SOL    HW1 2336   0.101   0.797   0.431  0.6231 -0.6548 -2.0937
  779SOL    HW2 2337   0.132   0.929   0.528 -1.4820 -1.2208 -0.6940
  780SOL     OW 2338   0.180   0.287   2.397 -0.5286  0.1379  0.7807
  780SOL    HW1 2339   0.152   0.372   2.450 -1.1801 -1.3111  1.7219
  780SOL    HW2 2340   0.275   0.296   2.349  0.7014  0.2981 -0.6556
  781SOL     OW 2341   0.705   1.663   1.490 -0.2647 -0.6637  0.4655
  781SOL    HW1 2342   0.753   1.598   1.557  0.0124  0.1849  0.9662
  781SOL    HW2 2343   0.603   1.672   1.506 -1.4650  1.1188  0.2766
  782SOL     OW 2344   2.575   0.118   0.930  0.6333  0.2267 -0.7501
  782SOL    HW1 2345   2.518   0.176   0.858 -0.1316  3.4311 -0.6303
  782SOL    HW2 2346   2.573   0.167   1.021  1.5269  0.8281  0.6930
  783SOL     OW 2347   2.761   0.676   2.465 -0.2781 -0.1426 -0.1445
  783SOL    HW1 2348   2.761   0.709   2.562  2.4344 -0.6547 -4.3853
  783SOL    HW2 2349   2.685   0.604   2.454 -0.0511  3.4962  2.0779
  784SOL     OW 2350   1.401   2.186   0.063  0.1187 -0.1480  0.0018
  784SOL    HW1 2351   1.427   2.232   0.156  1.4901 -1.6319  2.8604
  784SOL    HW2 2352   1.419   2.244  -0.016  1.7898 -2.6924  2.6909
  785SOL     OW 2353   2.037   0.321   3.070 -0.0415 -0.2975  0.4687
  785SOL    HW1 2354   1.990   0.345   3.159 -0.6375  0.4073 -2.3295
  785SOL    HW2 2355   2.066   0.414   3.033  0.4759  1.2917  0.2712
  786SOL     OW 2356   2.033   2.165   2.246 -0.3256 -0.0131  0.0330
  786SOL    HW1 2357   1.992   2.093   2.298  1.6834  0.1783 -1.9753
  786SOL    HW2 2358   2.136   2.141   2.245 -0.3714 -0.8639  2.1876
  787SOL     OW 2359   1.343   0.530   0.922 -0.6308  0.6010  0.0548
  787SOL    HW1 2360   1.281   0.606   0.937 -0.5364  0.9701  1.6461
  787SOL    HW2 2361   1.414   0.547   0.845 -1.3691 -0.0779 -3.5604
  788SOL     OW 2362   1.225   0.420   0.058  1.0468 -0.2087  0.0478
  788SOL    HW1 2363   1.136   0.408   0.009 -1.3457 -0.2317 -0.6133
  788SOL    HW2 2364   1.217   0.504   0.116 -1.7853  0.5312  2.0202
  789SOL     OW 2365   2.543   0.071   1.961  0.6219 -0.4430 -0.9957
  789SOL    HW1 2366   2.515   0.067   1.856 -1.6995 -1.2676  0.5867
  789SOL    HW2 2367   2.611  -0.000   1.993  1.6405 -2.7865 -0.9976
  790SOL     OW 2368   2.655   2.751   0.774 -0.4507  0.4437  0.4283
  790SOL    HW1 2369   2.689   2.814   0.700  1.4846  0.0845 -2.4623
  790SOL    HW2 2370   2.618   2.807   0.857  0.4161 -1.7014  1.2038
  791SOL     OW 2371   1.934   1.208   0.286  0.2847 -0.4093 -0.3521
  791SOL    HW1 2372   1.859   1.152   0.339 -2.8821 -1.8330  0.3260
  791SOL    HW2 2373   2.030   1.170   0.301  2.0009 -1.5980  0.2758
  792SOL     OW 2374   0.362   1.743   2.126 -0.4327  0.3768  0.2748
  792SOL    HW1 2375   0.448   1.745   2.186  0.9295 -0.6061 -1.6240
  792SOL    HW2 2376   0.279   1.789   2.171  2.0047 -0.8333  2.1918
  793SOL     OW 2377   2.096   1.547   2.093  0.0930 -0.4669 -0.0518
  793SOL    HW1 2378   2.182   1.599   2.078 -0.2514 -2.1104 -2.8755
  793SOL    HW2 2379   2.103   1.451   2.055  0.0185  0.2414 -2.2670
  794SOL     OW 2380   0.570   1.455   2.343  0.0136  0.2930  0.1995
  794SOL    HW1 2381   0.544   1.416   2.252  0.2016 -0.8532  1.6350
  794SOL    HW2 2382   0.484   1.466   2.399  0.6668 -1.8240  1.1466
  795SOL     OW 2383   2.540   2.264   1.832 -0.1113 -0.3656  0.2170
  795SOL    HW1 2384   2.538   2.265   1.936 -1.6522  0.2385 -2.6852
  795SOL    HW2 2385   2.450   2.234   1.793  2.5599 -0.1532 -0.3453
  796SOL     OW 2386   3.094   1.108   2.686 -0.5534 -0.0278  0.1937
  796SOL    HW1 2387   2.993   1.115   2.719 -1.3199  1.1864  2.4293
  796SOL    HW2 2388   3.158   1.126   2.769 -1.0943 -1.6954  1.8060
  797SOL     OW 2389   0.780   0.672   1.412 -0.2982  0.2882 -0.1407
  797SOL    HW1 2390   0.856   0.720   1.463  0.9108  0.5753 -1.2066
  797SOL    HW2 2391   0.708   0.731   1.371 -1.9100 -1.6901 -0.7887
  798SOL     OW 2392   1.332   0.384   1.156  0.6911 -0.2386 -0.0108
  798SOL    HW1 2393   1.406   0.395   1.231  0.4285  1.1133  0.5583
  798SOL    HW2 2394   1.350   0.431   1.070 -0.4121 -0.9562 -1.4212
  799SOL     OW 2395   1.987   2.715   0.978 -0.5466  0.3876  0.2805
  799SOL    HW1 2396   1.904   2.706   1.046 -0.2425 -0.2476  0.2996
  799SOL    HW2 2397   1.971   2.689   0.877  1.3396  0.7739  1.3448
  800SOL     OW 2398   3.048   0.617   1.811  0.5870 -0.5913 -0.3993
  800SOL    HW1 2399   3.005   0.673   1.885  0.8240 -4.2190  0.4719
  800SOL    HW2 2400   3.136   0.581   1.851 -2.7683 -1.3907  1.6715
  801SOL     OW 2401   1.955   2.249   0.083  0.2851  0.0800  0.1120
  801SOL    HW1 2402   1.876   2.192   0.047 -2.5099  0.5529  2.4312
  801SOL    HW2 2403   2.047   2.199   0.073  0.8666 -1.2067  1.6808
  802SOL     OW 2404   0.722   0.812   2.559 -0.5688  0.1162  0.2397
  802SOL    HW1 2405   0.770   0.825   2.467 -0.8477  0.5129 -2.3912
  802SOL    HW2 2406   0.634   0.766   2.541  3.7759 -1.4616  0.2797
  803SOL     OW 2407   0.951   0.093   0.890  0.2973 -0.5172 -0.2203
  803SOL    HW1 2408   1.035   0.142   0.921 -1.6512 -0.2028  1.5266
  803SOL    HW2 2409   0.884   0.147   0.835 -0.8635 -0.8201 -0.4996
  804SOL     OW 2410   0.284   0.040   2.168 -0.3355 -0.4265  0.4238
  804SOL    HW1 2411   0.298   0.142   2.178 -1.0868  1.7182  0.8008
  804SOL    HW2 2412   0.210   0.008   2.102 -1.9882 -0.3052 -0.7880
  805SOL     OW 2413   2.452   0.252   0.290  0.3820  0.0306  1.0793
  805SOL    HW1 2414   2.555   0.285   0.280  1.0433  0.1181 -1.3434
  805SOL    HW2 2415   2.406   0.229   0.196 -1.0114  0.3860 -1.1231
  806SOL     OW 2416   0.655   2.408   1.676 -0.2172 -0.2675 -0.2310
  806SOL    HW1 2417   0.659   2.514   1.672  0.5384 -0.1793 -1.5866
  806SOL    HW2 2418   0.754   2.370   1.675  1.7615  1.1091  0.0771
  807SOL     OW 2419   2.376   0.963   0.457  0.0807 -0.2590 -0.0576
  807SOL    HW1 2420   2.432   0.931   0.537 -0.7088 -0.1707  2.0393
  807SOL    HW2 2421   2.426   0.974   0.361  0.1476 -2.3205 -2.7677
  808SOL     OW 2422   0.543   2.015   2.991 -0.4995  0.1092 -0.0170
  808SOL    HW1 2423   0.529   2.037   3.087 -0.0138  1.1478 -1.4578
  808SOL    HW2 2424   0.571   1.916   2.978  0.0934 -0.0525 -0.0896
  809SOL     OW 2425   2.599   1.981   1.945  0.5063  0.1097 -0.6299
  809SOL    HW1 2426   2.692   1.988   1.985 -0.6261 -0.4915 -0.4969
  809SOL    HW2 2427   2.593   2.002   1.844  0.2663  0.5545 -2.6481
  810SOL     OW 2428   2.100   1.046   0.571  0.2616 -0.5880  0.1686
  810SOL    HW1 2429   2.076   0.995   0.658 -1.9957  2.1822 -1.8580
  810SOL    HW2 2430   2.072   1.149   0.584  2.2302 -1.2921 -1.4168
  811SOL     OW 2431   1.351   2.460   1.321  0.1062 -0.0102  0.0857
  811SOL    HW1 2432   1.341   2.355   1.321 -2.2983 -0.5995 -0.7281
  811SOL    HW2 2433   1.268   2.502   1.275  2.4210 -1.5122 -0.9446
  812SOL     OW 2434   1.473   0.807   1.955  0.1180  0.3687 -0.0224
  812SOL    HW1 2435   1.519   0.856   2.034 -2.6859  2.7668  0.3304
  812SOL    HW2 2436   1.377   0.838   1.932  0.6743 -0.1166 -0.9052
  813SOL     OW 2437   1.729   2.154   2.450  0.2926 -0.7886  0.5569
  813SOL    HW1 2438   1.824   2.115   2.457 -2.1023  0.0530  0.7048
  813SOL    HW2 2439   1.668   2.119   2.368  0.1461 -0.1837 -0.4969
  814SOL     OW 2440   2.863   1.554   2.862  0.1044  0.7685 -0.6961
  814SOL    HW1 2441   2.954   1.553   2.914 -2.0199 -0.7616 -2.3163
  814SOL    HW2 2442   2.842   1.642   2.814  1.1807 -0.2824  1.0591
  815SOL     OW 2443   2.262   2.832   2.721 -0.2563 -0.1920  0.3845
  815SOL    HW1 2444   2.262   2.781   2.815 -2.0370 -1.7082  0.2552
  815SOL    HW2 2445   2.339   2.816   2.653 -1.7723  1.0975  2.8420
  816SOL     OW 2446   1.669   0.293   1.578 -0.4725  0.1025 -0.2361
  816SOL    HW1 2447   1.694   0.200   1.627  0.6556 -0.8740  0.9141
  816SOL    HW2 2448   1.594   0.347   1.625 -1.1917  0.4080 -0.2132
  817SOL     OW 2449   0.441   1.254   2.503 -0.2234 -0.3048  0.5083
  817SOL    HW1 2450   0.363   1.313   2.540 -0.1813 -1.6311 -0.7266
  817SOL    HW2 2451   0.499   1.295   2.432 -0.7299 -0.4393  0.4827
  818SOL     OW 2452   1.958   0.831   0.464  0.0374 -0.1863  0.8438
  818SOL    HW1 2453   2.018   0.921   0.460  0.1437 -0.3416 -0.6274
  818SOL    HW2 2454   1.918   0.807   0.556 -2.2413  1.0380  0.7123
  819SOL     OW 2455   2.792   2.893   3.018  0.0261  0.3486 -0.2230
  819SOL    HW1 2456   2.871   2.846   2.965 -0.8431  0.5830  0.5246
  819SOL    HW2 2457   2.699   2.885   2.967 -1.2600  1.5307 -0.2722
  820SOL     OW 2458   1.242   1.112   0.544 -0.3037 -0.3046  0.8246
  820SOL    HW1 2459   1.231   1.216   0.558  2.2086 -0.9874  1.4292
  820SOL    HW2 2460   1.215   1.061   0.628 -2.8138  4.0664 -3.2588
  821SOL     OW 2461   0.020   1.272   0.665  0.7516  0.1331  0.0864
  821SOL    HW1 2462  -0.017   1.256   0.760 -0.3865 -1.5477 -0.5132
  821SOL    HW2 2463   0.065   1.361   0.653 -1.5531 -2.1452  0.3320
  822SOL     OW 2464   2.533   1.753   2.410  0.1210  0.0617  0.0719
  822SOL    HW1 2465   2.521   1.820   2.487  1.5560 -0.7794 -2.2092
  822SOL    HW2 2466   2.457   1.765   2.339 -1.3040 -0.5549  0.4577
  823SOL     OW 2467   2.026   0.847   1.219 -0.4017 -0.9628  0.0595
  823SOL    HW1 2468   2.007   0.881   1.318  0.4380  0.3548 -1.2740
  823SOL    HW2 2469   1.943   0.854   1.158 -0.9484  0.6299  0.9742
  824SOL     OW 2470   0.121   2.038   2.800  0.4579  0.4747 -0.2182
  824SOL    HW1 2471   0.075   1.949   2.836  1.1939  1.9711 -1.2076
  824SOL    HW2 2472   0.193   2.006   2.727  0.7261  0.2610 -1.7024
  825SOL     OW 2473   1.288   1.090   0.235  0.1628  0.6428 -0.0544
  825SOL    HW1 2474   1.288   1.191   0.263 -3.2927 -0.6114 -0.4317
  825SOL    HW2 2475   1.186   1.062   0.251  0.8172 -0.4350  1.8452
  826SOL     OW 2476   1.938   0.636   1.598 -0.1350 -0.0914 -0.1957
  826SOL    HW1 2477   2.013   0.562   1.608  1.3862  0.2062  0.6876
  826SOL    HW2 2478   1.856   0.598   1.543 -0.6988  1.2547 -2.4231
  827SOL     OW 2479   0.722   1.409   0.286 -0.4755 -0.2914 -0.2299
  827SOL    HW1 2480   0.718   1.330   0.219 -5.7859  0.3420  1.8915
  827SOL    HW2 2481   0.696   1.375   0.379  1.7936 -1.9313  0.7340
  828SOL     OW 2482   2.494   0.093   1.601 -0.7375  0.1900  0.6976
  828SOL    HW1 2483   2.398   0.097   1.552 -4.1323  2.4409 -0.1258
  828SOL    HW2 2484   2.520   0.000   1.638  2.2927 -3.1119 -0.0066
  829SOL     OW 2485   2.807   2.495   2.962 -0.2644 -0.4575 -0.3900
  829SOL    HW1 2486   2.734   2.422   2.935 -1.2269 -0.9343 -0.6031
  829SOL    HW2 2487   2.785   2.551   3.052  0.3721 -0.5381  0.5140
  830SOL     OW 2488   2.813   0.913   3.034 -0.0594 -0.9218  0.5822
  830SOL    HW1 2489   2.891   0.984   3.048  3.1323 -0.9721 -2.2965
  830SOL    HW2 2490   2.834   0.818   3.075 -0.0279  0.1718  0.8059
  831SOL     OW 2491   0.018   0.639   0.380  0.1895  0.0010  0.0007
  831SOL    HW1 2492   0.051   0.589   0.464  1.4157  3.6412 -1.9904
  831SOL    HW2 2493   0.000   0.570   0.300 -1.0707  1.9188  0.4075
  832SOL     OW 2494   1.830   0.731   0.008 -0.6369  0.0967 -0.0640
  832SOL    HW1 2495   1.733   0.771  -0.010  0.0530 -3.6757  1.0651
  832SOL    HW2 2496   1.824   0.628  -0.005  3.2374  1.3687  0.7951
  833SOL     OW 2497   2.429   2.104   0.530  0.1391 -0.0335 -0.0553
  833SOL    HW1 2498   2.333   2.071   0.502  0.9855 -0.2897  1.2420
  833SOL    HW2 2499   2.506   2.029   0.523  0.8775 -2.2459 -0.9687
  834SOL     OW 2500   0.171   0.194   0.565  0.2588  0.1671 -0.3959
  834SOL    HW1 2501   0.220   0.114   0.596 -0.3339 -0.4307 -0.7945
  834SOL    HW2 2502   0.154   0.193   0.462 -0.5213 -2.4540 -4.3315
  835SOL     OW 2503   2.373   1.531   1.160 -0.3725  0.4257  0.2466
  835SOL    HW1 2504   2.472   1.548   1.181 -1.6302  1.2951  3.0585
  835SOL    HW2 2505   2.361   1.552   1.058 -0.8609  2.4453 -2.8398
  836SOL     OW 2506   1.578   0.821   2.566  0.0408  0.3472 -0.1968
  836SOL    HW1 2507   1.489   0.832   2.517 -0.2266  0.4465 -1.4495
  836SOL    HW2 2508   1.657   0.832   2.499  0.6642  0.3257 -0.6613
  837SOL     OW 2509   1.744   0.142   0.550  0.5636 -0.3551 -0.0022
  837SOL    HW1 2510   1.668   0.211   0.563  0.9966  2.6862  2.7058
  837SOL    HW2 2511   1.740   0.095   0.461  0.1384  1.4902  0.4332
  838SOL     OW 2512   1.162   1.562   2.734 -0.8846 -0.3420  0.2906
  838SOL    HW1 2513   1.196   1.532   2.830 -2.6784  2.4381  2.2247
  838SOL    HW2 2514   1.121   1.485   2.673 -3.9239 -0.5953  0.9121
  839SOL     OW 2515   1.587   0.312   0.976 -0.2487 -0.0350  0.3256
  839SOL    HW1 2516   1.627   0.369   1.053  1.8260  1.3621 -0.6132
  839SOL    HW2 2517   1.545   0.221   1.005  0.9801 -1.8502 -0.0868
  840SOL     OW 2518   2.497   2.939   1.715 -0.8358  0.5272 -0.4142
  840SOL    HW1 2519   2.424   2.872   1.711  2.1662  0.9663  1.0208
  840SOL    HW2 2520   2.580   2.900   1.763 -0.7463 -1.1917  0.3183
  841SOL     OW 2521   1.584   0.816   3.052 -0.8977  0.1885 -0.2244
  841SOL    HW1 2522   1.496   0.825   3.104  0.1864  1.4320 -0.0576
  841SOL    HW2 2523   1.573   0.859   2.956 -4.5096  3.2429 -3.9827
  842SOL     OW 2524   0.812   1.480   0.910 -0.5987  0.4619  0.2771
  842SOL    HW1 2525   0.775   1.564   0.960 -0.3634 -2.0023 -0.5238
  842SOL    HW2 2526   0.738   1.423   0.864 -0.7742  1.1630  0.2041
  843SOL     OW 2527   0.092   3.101   1.384 -0.2198 -0.5194 -0.1132
  843SOL    HW1 2528   0.154   3.166   1.434  0.8609  0.6523 -0.2764
  843SOL    HW2 2529   0.079   3.002   1.417  0.3471  0.5766 -0.0324
  844SOL     OW 2530   0.806   2.474   0.262 -0.0873 -0.4682 -0.1241
  844SOL    HW1 2531   0.747   2.463   0.348 -1.1108 -1.0194  0.4435
  844SOL    HW2 2532   0.775   2.551   0.198  0.7956 -0.8600 -5.0284
  845SOL     OW 2533   1.652   2.889   1.314  0.0432  0.0983  0.4948
  845SOL    HW1 2534   1.719   2.819   1.278  1.0053  1.6377  1.3710
  845SOL    HW2 2535   1.691   2.941   1.400 -0.6690  0.3548  0.5213
  846SOL     OW 2536   1.594   2.941   0.728  0.2645 -0.2128  0.6467
  846SOL    HW1 2537   1.588   2.942   0.627  0.2366 -0.1260  0.7592
  846SOL    HW2 2538   1.681   2.901   0.762 -1.9003 -1.1439  0.9247
  847SOL     OW 2539   2.077   1.666   0.384 -0.2674  0.2285 -0.5628
  847SOL    HW1 2540   2.028   1.578   0.375  0.9711 -3.0146  0.9543
  847SOL    HW2 2541   2.014   1.751   0.365  3.1275 -1.0058 -2.9991
  848SOL     OW 2542   2.448   0.857   2.612  0.0388 -0.1570 -0.0288
  848SOL    HW1 2543   2.428   0.949   2.658 -1.6536 -0.3809 -0.1789
  848SOL    HW2 2544   2.366   0.794   2.614  3.3277 -0.9578 -0.0422
  849SOL     OW 2545   2.550   0.861   2.373  0.0604 -0.1309  0.1862
  849SOL    HW1 2546   2.633   0.803   2.371 -0.0066  2.1160  0.9618
  849SOL    HW2 2547   2.500   0.872   2.465 -1.2833  2.3649  2.9642
  850SOL     OW 2548   1.563   0.091   1.349  0.0365 -0.2156 -1.0631
  850SOL    HW1 2549   1.547   0.068   1.250  1.0738  2.1512  0.4055
  850SOL    HW2 2550   1.507   0.030   1.411  1.1390 -0.6085 -0.3852
  851SOL     OW 2551   0.433   1.801   0.561 -0.1858 -0.1703  0.0535
  851SOL    HW1 2552   0.473   1.898   0.552  1.2950 -0.8860  0.9625
  851SOL    HW2 2553   0.464   1.744   0.478 -0.9104 -0.6704 -2.4242
  852SOL     OW 2554   0.805   2.058   1.776 -0.1825  0.4403 -0.9783
  852SOL    HW1 2555   0.828   2.148   1.728 -0.6146  0.1067 -1.2060
  852SOL    HW2 2556   0.752   2.083   1.867  0.8735  3.1089  0.5197
  853SOL     OW 2557   2.503   1.545   2.601 -0.0950  0.0551  0.0180
  853SOL    HW1 2558   2.470   1.452   2.563  0.2388  1.3257  0.0023
  853SOL    HW2 2559   2.504   1.620   2.532  0.8393 -3.8699  1.6861
  854SOL     OW 2560   2.405   1.365   1.728 -0.7269 -0.1650 -0.6890
  854SOL    HW1 2561   2.469   1.332   1.651  2.2930  1.0244  0.2550
  854SOL    HW2 2562   2.366   1.290   1.785  3.3475 -0.2312 -0.7567
  855SOL     OW 2563   2.086   2.467   1.048  0.0302 -0.4509  0.4822
  855SOL    HW1 2564   2.050   2.562   1.026 -0.7984  1.4717  2.1441
  855SOL    HW2 2565   2.163   2.463   1.119 -0.8168 -0.6161  1.4424
  856SOL     OW 2566   1.342   1.403   0.940  0.6543 -0.0947  0.2911
  856SOL    HW1 2567   1.406   1.485   0.961 -0.3667  0.2321  1.2054
  856SOL    HW2 2568   1.243   1.422   0.977 -1.0135 -1.2425  0.0839
  857SOL     OW 2569   3.056   2.744   0.981 -0.2922 -0.2224 -0.1791
  857SOL    HW1 2570   3.030   2.649   0.967  0.5646 -1.5226  1.3022
  857SOL    HW2 2571   3.148   2.770   0.934 -1.2294 -2.1536 -0.0668
  858SOL     OW 2572   2.346   2.092   1.707 -0.3869  0.0300 -0.0040
  858SOL    HW1 2573   2.254   2.110   1.659 -1.6529  0.2483 -1.5457
  858SOL    HW2 2574   2.406   2.015   1.680 -0.1596  2.1492  0.4342
  859SOL     OW 2575   2.436   0.581   1.094  0.9473  0.0466  0.2503
  859SOL    HW1 2576   2.505   0.611   1.020  0.9809  0.5473 -3.1247
  859SOL    HW2 2577   2.450   0.486   1.131  3.1652  0.3643  0.4144
  860SOL     OW 2578   1.844   2.798   0.506  0.6966 -0.1796 -0.5074
  860SOL    HW1 2579   1.830   2.802   0.401 -0.1721 -1.2488  1.5627
  860SOL    HW2 2580   1.841   2.896   0.554  0.0751  0.9560  1.5293
  861SOL     OW 2581   0.999   2.437   2.879  0.1827 -0.6986  0.0183
  861SOL    HW1 2582   1.044   2.520   2.833  1.1153  1.2751  1.1558
  861SOL    HW2 2583   0.971   2.470   2.973  1.2838  1.5556  1.0451
  862SOL     OW 2584   2.927   2.557   1.598 -0.3768 -0.0292 -0.3919
  862SOL    HW1 2585   3.011   2.572   1.658 -0.7376  1.9136 -1.6464
  862SOL    HW2 2586   2.871   2.640   1.583  1.9896 -0.0052 -0.4033
  863SOL     OW 2587   1.805   2.739   0.230  0.0227 -0.2491 -0.5151
  863SOL    HW1 2588   1.864   2.661   0.254 -1.5575  0.2318  0.4077
  863SOL    HW2 2589   1.711   2.705   0.201  0.1842 -1.5129  0.2763
  864SOL     OW 2590   2.024   1.221   2.846 -0.4147 -0.4867 -0.2396
  864SOL    HW1 2591   2.034   1.135   2.780 -3.0684 -0.8749  0.2001
  864SOL    HW2 2592   2.043   1.312   2.795  1.6408  0.9478 -0.9792
  865SOL     OW 2593   2.159   1.932   0.738 -0.1350  0.0018 -0.5147
  865SOL    HW1 2594   2.219   1.889   0.811  0.0655 -0.1522  1.0353
  865SOL    HW2 2595   2.078   1.980   0.784 -1.3351  2.4777 -1.3820
  866SOL     OW 2596   2.875   2.952   1.012 -0.3263 -0.1916  0.2034
  866SOL    HW1 2597   2.860   3.021   0.927  0.0072 -0.1455 -2.3485
  866SOL    HW2 2598   2.937   2.872   0.987 -0.8221  0.3238 -3.4892
  867SOL     OW 2599   0.358   1.448   0.936 -0.0332 -0.3625 -0.0111
  867SOL    HW1 2600   0.314   1.375   0.878 -1.0341 -0.2856 -1.0552
  867SOL    HW2 2601   0.343   1.546   0.890 -3.0492 -2.1507  0.4936
  868SOL     OW 2602   0.765   1.854   2.109 -0.0794  0.8738  0.1167
  868SOL    HW1 2603   0.692   1.809   2.176  1.8072  0.5632  0.2586
  868SOL    HW2 2604   0.726   1.934   2.055 -0.8080 -0.7817 -0.2819
  869SOL     OW 2605   2.578   1.947   1.626 -0.1900  0.3048 -0.2060
  869SOL    HW1 2606   2.670   1.983   1.579  0.2647  1.0914  1.6624
  869SOL    HW2 2607   2.549   1.851   1.607 -0.6046 -1.2433 -1.3914
  870SOL     OW 2608   2.293   2.701   1.221 -0.7722 -0.2797 -0.1752
  870SOL    HW1 2609   2.284   2.597   1.250 -2.3517 -0.1908 -0.7888
  870SOL    HW2 2610   2.383   2.742   1.263  1.5064  2.0603  3.9237
  871SOL     OW 2611   0.027   2.275   0.549  0.2600  0.4116 -0.4559
  871SOL    HW1 2612  -0.003   2.338   0.629  0.3571  2.3081  2.6292
  871SOL    HW2 2613  -0.034   2.286   0.463 -0.3134 -1.4781 -1.3640
  872SOL     OW 2614   2.105   0.439   1.677  0.7997  0.2759 -0.5261
  872SOL    HW1 2615   2.077   0.421   1.775  1.7601 -0.4883  0.3332
  872SOL    HW2 2616   2.207   0.422   1.660 -1.5732  0.1480 -0.6468
  873SOL     OW 2617   1.716   2.102   3.103  0.3518  0.0838  0.0183
  873SOL    HW1 2618   1.616   2.090   3.124  1.4696 -1.3569 -3.9313
  873SOL    HW2 2619   1.730   2.110   2.999  0.1781  1.7291  1.4616
  874SOL     OW 2620   0.678   2.461   0.755  0.2578 -0.3862 -0.1883
  874SOL    HW1 2621   0.663   2.566   0.748 -1.1950  2.2840 -2.0955
  874SOL    HW2 2622   0.776   2.433   0.761 -2.1121 -2.1711  0.7151
  875SOL     OW 2623   2.260   1.525   1.417  0.0796  0.5567 -0.8473
  875SOL    HW1 2624   2.308   1.595   1.484  2.1087  2.0957  2.2812
  875SOL    HW2 2625   2.319   1.499   1.337  1.1655 -1.6385 -0.6167
  876SOL     OW 2626   0.071   2.281   2.655  0.3262  0.0431  0.0197
  876SOL    HW1 2627   0.083   2.197   2.709 -1.4389  2.0406  3.2846
  876SOL    HW2 2628   0.084   2.368   2.713 -2.1784 -0.3422  0.8507
  877SOL     OW 2629   2.922   2.632   0.604 -0.1930 -0.2748 -0.5170
  877SOL    HW1 2630   2.903   2.730   0.633 -0.3528  2.0393 -1.3554
  877SOL    HW2 2631   2.984   2.578   0.670 -1.2110  1.5036 -0.6359
  878SOL     OW 2632   2.816   1.492   2.258 -0.0532 -0.2591 -0.3373
  878SOL    HW1 2633   2.795   1.578   2.205 -0.1426 -0.9449  0.5781
  878SOL    HW2 2634   2.795   1.498   2.361  0.8955  0.6238  0.7279
  879SOL     OW 2635   2.380   0.087   1.268 -0.2905  0.2262  0.9820
  879SOL    HW1 2636   2.446   0.006   1.273 -1.2444 -0.0780  1.9325
  879SOL    HW2 2637   2.320   0.090   1.185  1.8601  0.0370  2.6646
  880SOL     OW 2638   0.740   0.521   2.242  0.3490 -0.4448  0.2409
  880SOL    HW1 2639   0.714   0.449   2.314  3.2308 -1.4357 -0.1104
  880SOL    HW2 2640   0.805   0.474   2.174 -2.3683  1.2582 -1.5541
  881SOL     OW 2641   0.841   0.084   0.414  0.5990  0.1249 -0.0192
  881SOL    HW1 2642   0.891  -0.003   0.395 -1.4862  2.7082  2.0616
  881SOL    HW2 2643   0.736   0.074   0.420  1.7953 -2.7337  0.9565
  882SOL     OW 2644   2.708   1.667   1.691 -0.3632 -0.1963 -0.4088
  882SOL    HW1 2645   2.777   1.600   1.658  0.5400  2.1028 -1.0115
  882SOL    HW2 2646   2.740   1.722   1.776  0.1120  1.8579  1.5605
  883SOL     OW 2647   0.829   0.515   0.940  0.5212 -0.0669  0.1106
  883SOL    HW1 2648   0.862   0.607   0.982  1.6716  2.3897 -1.5277
  883SOL    HW2 2649   0.765   0.466   1.005  1.5992  0.7298  0.1480
  884SOL     OW 2650   1.100   1.747   1.170 -0.2304 -0.1629  0.0941
  884SOL    HW1 2651   1.082   1.653   1.127  0.7008  1.0217  1.8687
  884SOL    HW2 2652   1.048   1.816   1.119 -1.0297  0.6301 -0.2114
  885SOL     OW 2653   2.325   1.821   2.234 -0.1842 -0.0160  0.8692
  885SOL    HW1 2654   2.242   1.775   2.274  2.2298 -0.9090  0.2670
  885SOL    HW2 2655   2.318   1.923   2.246  1.9865 -2.1638 -3.6187
  886SOL     OW 2656   2.597   0.346   1.797  0.4321 -0.1498  0.0344
  886SOL    HW1 2657   2.585   0.293   1.884 -0.5361 -1.5286  0.7646
  886SOL    HW2 2658   2.692   0.387   1.784 -0.3825  1.7061 -1.1546
  887SOL     OW 2659   0.148   2.062   1.283 -0.2530  0.0983  0.6099
  887SOL    HW1 2660   0.090   2.027   1.204  1.2979 -1.1362 -2.7238
  887SOL    HW2 2661   0.163   2.165   1.280  0.0913  2.6838  0.6308
  888SOL     OW 2662   0.641   1.221   1.494 -0.3077  0.1519  0.3866
  888SOL    HW1 2663   0.672   1.270   1.402 -3.5860  1.1725 -3.2459
  888SOL    HW2 2664   0.630   1.121   1.485 -0.6458  0.9537  1.8522
  889SOL     OW 2665   0.844   2.508   2.231 -0.3214  0.9232 -0.5859
  889SOL    HW1 2666   0.769   2.433   2.225 -0.9089  0.2362  0.6703
  889SOL    HW2 2667   0.923   2.489   2.163 -0.3703  1.5233 -1.7756
  890SOL     OW 2668   2.351   2.503   0.249  0.1969  0.6186  0.3709
  890SOL    HW1 2669   2.395   2.563   0.183  0.9637 -0.7400 -1.7009
  890SOL    HW2 2670   2.343   2.533   0.347  1.0466 -0.5183  2.0345
  891SOL     OW 2671   2.512   1.727   0.684 -0.4677  0.0869 -0.7665
  891SOL    HW1 2672   2.493   1.673   0.772  1.4789  0.4238 -1.5145
  891SOL    HW2 2673   2.445   1.707   0.609  0.0927  0.8459  0.4484
  892SOL     OW 2674   0.420   0.353   2.237  0.3492 -0.4351  0.4559
  892SOL    HW1 2675   0.436   0.416   2.159  0.4083 -2.6036  1.1659
  892SOL    HW2 2676   0.493   0.358   2.311  2.3067 -0.3491  1.2170
  893SOL     OW 2677   1.697   0.213   2.721 -0.5654 -0.1555  0.3380
  893SOL    HW1 2678   1.760   0.293   2.740 -3.7575  1.1662  1.2482
  893SOL    HW2 2679   1.604   0.247   2.707  1.5214  0.2142 -0.4281
  894SOL     OW 2680   2.164   2.081   0.071  0.2690 -0.3560  0.1306
  894SOL    HW1 2681   2.114   2.019   0.006 -1.3411 -0.4372 -0.6582
  894SOL    HW2 2682   2.204   2.021   0.145 -0.1463 -0.2250  1.6531
  895SOL     OW 2683   2.779   1.449   0.923  0.5478 -0.5004 -0.6413
  895SOL    HW1 2684   2.871   1.401   0.933 -0.8796 -1.3672 -1.3045
  895SOL    HW2 2685   2.781   1.553   0.936  0.2935  2.8552  2.5430
  896SOL     OW 2686   1.852   1.867   1.212  0.1693 -0.4486 -0.2895
  896SOL    HW1 2687   1.923   1.794   1.241 -0.0996  0.8095 -0.6867
  896SOL    HW2 2688   1.783   1.831   1.142 -1.7082  1.4914 -1.3200
  897SOL     OW 2689   0.290   0.545   3.044  0.8032  0.9912  0.3528
  897SOL    HW1 2690   0.224   0.611   3.002 -2.7771  1.0588 -0.8069
  897SOL    HW2 2691   0.386   0.581   3.057  0.1418  0.0691 -0.1570
  898SOL     OW 2692   0.676   2.814   1.033 -0.2815  0.2312  0.4131
  898SOL    HW1 2693   0.691   2.915   1.054 -0.4939  2.4399 -4.3588
  898SOL    HW2 2694   0.712   2.751   1.110 -1.0809 -0.0952  2.5008
  899SOL     OW 2695   2.831   0.881   1.409 -0.4264 -0.3472 -0.2653
  899SOL    HW1 2696   2.844   0.846   1.312 -1.8878  0.2018 -3.2653
  899SOL    HW2 2697   2.894   0.961   1.435 -0.1110  1.6228 -0.2185
  900SOL     OW 2698   1.002   2.462   2.507 -0.0852  0.4135  0.5234
  900SOL    HW1 2699   0.938   2.482   2.423  2.5768  2.0539  0.5507
  900SOL    HW2 2700   0.967   2.394   2.575  2.8011  0.2019  0.9647
  901SOL     OW 2701   1.917   2.435   1.382  0.1777 -0.1048 -0.2265
  901SOL    HW1 2702   1.906   2.380   1.295  2.7373 -0.7457  0.4100
  901SOL    HW2 2703   2.012   2.417   1.415 -2.2771  1.0948 -1.0345
  902SOL     OW 2704   2.515   1.675   1.504  0.5100  0.0404  0.4909
  902SOL    HW1 2705   2.579   1.670   1.586 -0.9715  0.2349 -0.1801
  902SOL    HW2 2706   2.554   1.628   1.421 -0.3825 -0.8262 -0.1391
  903SOL     OW 2707   0.329   2.502   1.985 -0.1309 -0.4280  0.0089
  903SOL    HW1 2708   0.269   2.417   1.999  0.0922 -1.5061 -3.1609
  903SOL    HW2 2709   0.313   2.551   1.895 -0.8251 -0.6901  1.8605
  904SOL     OW 2710   1.989   0.794   2.546 -0.1226 -0.2941  0.8714
  904SOL    HW1 2711   1.932   0.721   2.591  0.2720 -3.1090 -1.5486
  904SOL    HW2 2712   1.990   0.780   2.443 -0.1594 -0.4980  1.9782
  905SOL     OW 2713   2.862   0.082   2.400  0.1429  0.0119  0.7323
  905SOL    HW1 2714   2.893   0.014   2.470  0.8183  3.7696  2.4054
  905SOL    HW2 2715   2.895   0.174   2.424 -1.9892 -0.7907  0.3767
  906SOL     OW 2716   0.146   1.687   1.889  0.2591 -0.4123 -0.0644
  906SOL    HW1 2717   0.114   1.729   1.803  3.0796 -2.6282 -0.2215
  906SOL    HW2 2718   0.243   1.667   1.874 -2.9810 -0.9174  0.2222
  907SOL     OW 2719   0.206   2.451   0.966 -0.3297 -0.6972  0.1582
  907SOL    HW1 2720   0.308   2.447   0.944 -0.5068 -0.7670  2.3039
  907SOL    HW2 2721   0.164   2.544   0.954 -1.4532  0.8516  0.1851
  908SOL     OW 2722   2.834   3.053   0.271  0.1226  0.4022  0.3486
  908SOL    HW1 2723   2.744   3.030   0.225  1.7151 -3.3840  0.5565
  908SOL    HW2 2724   2.883   2.962   0.289 -1.3320  1.9650 -2.0455
  909SOL     OW 2725   0.855   1.057   2.681 -0.1312  0.3734  0.2047
  909SOL    HW1 2726   0.800   0.970   2.661 -1.4948 -2.4931 -0.5454
  909SOL    HW2 2727   0.928   1.078   2.609 -0.4262  0.2042  0.0061
  910SOL     OW 2728   1.763   1.878   2.169 -0.1593 -0.2278  0.4368
  910SOL    HW1 2729   1.804   1.933   2.087  2.0423 -2.1249 -0.8612
  910SOL    HW2 2730   1.671   1.925   2.198 -1.7828 -0.5778 -2.3666
  911SOL     OW 2731   1.792   2.973   1.548  0.0594  0.3532  0.0109
  911SOL    HW1 2732   1.873   2.950   1.492  1.5809 -0.8172  0.1494
  911SOL    HW2 2733   1.784   2.903   1.625  1.2085  1.8356  0.4122
  912SOL     OW 2734   2.853   1.025   0.716  0.0471  0.2746 -0.4001
  912SOL    HW1 2735   2.871   0.995   0.815 -1.0864 -0.6943  0.6367
  912SOL    HW2 2736   2.817   1.122   0.712 -1.4956 -2.5957 -1.0996
  913SOL     OW 2737   2.563   1.262   1.513  0.1576 -0.9106 -0.1006
  913SOL    HW1 2738   2.553   1.162   1.513 -1.1952  0.4896  1.6877
  913SOL    HW2 2739   2.634   1.292   1.442  0.2045  1.4954 -0.6841
  914SOL     OW 2740   2.774   0.616   1.125 -0.2837  0.5150  0.1546
  914SOL    HW1 2741   2.767   0.515   1.168 -0.3816 -0.2710 -0.0720
  914SOL    HW2 2742   2.691   0.679   1.133 -2.4818 -1.3883  0.4087
  915SOL     OW 2743   1.212   0.765   1.001  0.4957 -0.4835  0.3640
  915SOL    HW1 2744   1.244   0.797   1.090  1.1697  0.1097 -0.0339
  915SOL    HW2 2745   1.116   0.798   0.979  2.0189 -1.8729  0.5103
  916SOL     OW 2746   0.564   0.106   0.658 -0.2855 -0.4744 -0.3313
  916SOL    HW1 2747   0.622   0.145   0.730  1.6643 -1.6950 -3.0285
  916SOL    HW2 2748   0.509   0.171   0.595  1.0870 -0.7102 -2.7081
  917SOL     OW 2749   2.884   2.556   1.998  0.8085  0.0456 -0.0943
  917SOL    HW1 2750   2.790   2.592   1.965 -1.7355  3.9780  0.1934
  917SOL    HW2 2751   2.961   2.592   1.942 -1.6545 -0.9607 -2.1974
  918SOL     OW 2752   1.006   2.065   3.007  0.2622 -0.1833  0.0224
  918SOL    HW1 2753   0.996   2.149   3.068  1.4196  1.4397 -0.9257
  918SOL    HW2 2754   1.067   2.081   2.921 -1.8437 -0.8638 -0.8343
  919SOL     OW 2755   0.861   1.710   2.773 -0.3792 -0.1527  0.4693
  919SOL    HW1 2756   0.888   1.806   2.733  0.1680  1.4599  2.2940
  919SOL    HW2 2757   0.813   1.647   2.703  0.2360 -0.6225  0.0498
  920SOL     OW 2758   1.276   1.759   2.536 -0.0834  0.1910  0.5328
  920SOL    HW1 2759   1.364   1.734   2.491 -0.4324  0.9227 -0.6745
  920SOL    HW2 2760   1.231   1.681   2.589 -5.0754  0.7973 -1.0791
  921SOL     OW 2761   1.119   0.007   2.652 -0.5370 -0.0257 -0.0928
  921SOL    HW1 2762   1.124  -0.003   2.546 -2.6607  0.5311 -0.5602
  921SOL    HW2 2763   1.024   0.022   2.680  1.2365  1.1242  1.3037
  922SOL     OW 2764   2.187   2.377   2.743  0.0122 -0.2585  0.2977
  922SOL    HW1 2765   2.182   2.278   2.753 -0.2326  3.2598 -0.0117
  922SOL    HW2 2766   2.134   2.422   2.664 -1.0367  3.4020  1.0194
  923SOL     OW 2767   1.270   2.703   0.268 -0.0415 -0.3420  0.1413
  923SOL    HW1 2768   1.328   2.761   0.334  0.5518 -1.4991 -0.9853
  923SOL    HW2 2769   1.302   2.602   0.273 -1.0036  1.4948  0.1672
  924SOL     OW 2770   2.880   1.668   0.143  0.3622 -0.7638 -0.2426
  924SOL    HW1 2771   2.821   1.626   0.071 -0.1347  0.5323  2.9705
  924SOL    HW2 2772   2.972   1.625   0.161  0.2388 -1.0262  0.6983
  925SOL     OW 2773   0.048   2.868   1.517 -0.0215  0.1085 -0.0958
  925SOL    HW1 2774   0.000   2.862   1.609 -0.4612 -0.1534 -1.7224
  925SOL    HW2 2775   0.001   2.808   1.447 -1.7417  0.5107  1.0201
  926SOL     OW 2776   1.299   2.837   1.331 -0.3839 -0.4380  0.3909
  926SOL    HW1 2777   1.357   2.840   1.249  0.6534  0.9756  0.8160
  926SOL    HW2 2778   1.335   2.902   1.404  1.5612  3.7100 -1.6318
  927SOL     OW 2779   0.345   2.636   1.767 -0.3036 -0.1539 -0.5346
  927SOL    HW1 2780   0.315   2.568   1.694 -0.0187 -2.3172  3.6095
  927SOL    HW2 2781   0.313   2.734   1.750 -2.0022 -2.6676 -0.3161
  928SOL     OW 2782   1.594   2.070   2.242 -0.3006 -0.0015  0.2349
  928SOL    HW1 2783   1.629   2.104   2.150 -3.0148 -1.7118 -2.6809
  928SOL    HW2 2784   1.489   2.046   2.242 -0.1278  1.4587  0.9156
  929SOL     OW 2785   2.394   2.480   2.862 -0.0811 -0.3422  0.5505
  929SOL    HW1 2786   2.308   2.436   2.825 -0.1672  3.6916  1.3536
  929SOL    HW2 2787   2.460   2.490   2.778  0.3814 -1.2410 -2.3991
  930SOL     OW 2788   2.155   1.971   1.111 -0.0529 -0.4257 -0.4332
  930SOL    HW1 2789   2.127   1.926   1.199 -1.2745 -0.7128  0.0902
  930SOL    HW2 2790   2.218   2.048   1.131 -1.8546 -2.4539 -0.7621
  931SOL     OW 2791   0.526   1.727   2.635  0.1351  0.3596 -0.2791
  931SOL    HW1 2792   0.519   1.763   2.734 -0.8550  1.7078  0.4644
  931SOL    HW2 2793   0.615   1.686   2.605  1.2153 -2.1609  1.5501
  932SOL     OW 2794   0.360   0.096   3.092 -0.1959 -0.2700  0.1753
  932SOL    HW1 2795   0.443   0.151   3.130 -0.7530  0.4476  1.0555
  932SOL    HW2 2796   0.394   0.023   3.027 -2.1996  1.9142 -1.1224
  933SOL     OW 2797   0.952   0.841   3.013 -0.0375 -0.0959 -0.8605
  933SOL    HW1 2798   0.856   0.814   3.041 -1.4881  0.0968  3.0929
  933SOL    HW2 2799   0.971   0.943   3.022 -0.0035 -1.0254 -0.6149
  934SOL     OW 2800   0.722   2.940   2.688  0.3434  0.5739  0.3635
  934SOL    HW1 2801   0.712   2.885   2.601  1.2232  3.7037  3.5103
  934SOL    HW2 2802   0.782   2.890   2.755  0.0885  2.0963  0.7776
  935SOL     OW 2803   0.015   0.536   0.810  0.5011  0.0684  0.4134
  935SOL    HW1 2804   0.033   0.506   0.713  1.5447 -1.8814  2.3298
  935SOL    HW2 2805  -0.056   0.616   0.814  0.6010  1.0195 -0.2162
  936SOL     OW 2806   1.100   2.836   0.095 -0.2515 -0.3837  0.0736
  936SOL    HW1 2807   1.131   2.886   0.010  0.8274 -1.2608  0.1469
  936SOL    HW2 2808   1.181   2.802   0.145 -0.3537  1.0777  2.8469
  937SOL     OW 2809   1.891   2.651   2.075 -0.1966  0.1452  0.2283
  937SOL    HW1 2810   1.789   2.664   2.084 -0.5305  0.3586 -2.6437
  937SOL    HW2 2811   1.938   2.737   2.040  0.8834  0.1914  1.3448
  938SOL     OW 2812   2.816   2.088   1.580  0.2118 -0.0897  0.0159
  938SOL    HW1 2813   2.803   2.192   1.596  0.2686  0.8668  0.5187
  938SOL    HW2 2814   2.886   2.048   1.650 -2.6554  0.3860  4.6350
  939SOL     OW 2815   2.788   1.237   2.453  0.0045  0.1485 -0.4285
  939SOL    HW1 2816   2.859   1.200   2.390 -0.9128  0.2128  0.8220
  939SOL    HW2 2817   2.773   1.175   2.535  0.1372  0.4076 -0.3294
  940SOL     OW 2818   1.027   0.454   2.758  0.1482  0.6303 -0.2993
  940SOL    HW1 2819   1.102   0.382   2.759 -1.5383 -2.4357  1.9346
  940SOL    HW2 2820   0.981   0.450   2.666 -0.4921  3.1174  2.7287
  941SOL     OW 2821   0.006   2.769   2.273  0.3075 -0.5863  0.4517
  941SOL    HW1 2822   0.084   2.712   2.237  1.6027  0.6544  1.1271
  941SOL    HW2 2823   0.035   2.835   2.348  2.2134  2.4280  0.9773
  942SOL     OW 2824   0.084   0.090   2.558  0.7538  0.3817  0.0675
  942SOL    HW1 2825   0.136   0.101   2.649  0.4446 -0.5535  1.0098
  942SOL    HW2 2826   0.108   0.172   2.496 -0.9039  1.1173 -0.6730
  943SOL     OW 2827   2.106   1.706   2.332 -0.0701 -0.5181  0.2479
  943SOL    HW1 2828   2.073   1.641   2.253 -2.1768 -1.0398 -2.9837
  943SOL    HW2 2829   2.085   1.665   2.424  0.0137  0.7560  2.6062
  944SOL     OW 2830   2.179   2.380   1.478 -0.5995  0.3660 -0.2898
  944SOL    HW1 2831   2.266   2.395   1.530 -2.8424 -2.0450 -2.3472
  944SOL    HW2 2832   2.132   2.298   1.522 -0.9684 -0.3379 -2.4817
  945SOL     OW 2833   0.703   1.582   0.067  0.0806  0.0250  0.1059
  945SOL    HW1 2834   0.663   1.523  -0.006  0.9923 -1.0327 -1.9618
  945SOL    HW2 2835   0.701   1.538   0.162 -0.7423 -0.7364 -0.7324
  946SOL     OW 2836   0.412   0.962   2.527  0.6009 -0.2751 -0.2446
  946SOL    HW1 2837   0.327   0.934   2.473 -0.7512  0.2275  0.6178
  946SOL    HW2 2838   0.423   1.069   2.531 -0.9012  0.3816 -0.4452
  947SOL     OW 2839   1.477   0.517   3.077 -0.2729 -0.6707  0.3234
  947SOL    HW1 2840   1.475   0.601   3.015 -1.8903 -0.3435 -1.5414
  947SOL    HW2 2841   1.389   0.464   3.088 -3.1229 -1.3406  1.2124
  948SOL     OW 2842   1.890   3.027   2.164 -0.5881  0.3823 -0.0185
  948SOL    HW1 2843   1.888   2.983   2.068 -0.3098  1.9047  2.8038
  948SOL    HW2 2844   1.843   2.968   2.235 -0.5164 -1.2002 -0.4383
  949SOL     OW 2845   0.600   2.453   0.469  0.1470  0.0866 -0.2181
  949SOL    HW1 2846   0.588   2.551   0.437  0.4873  0.9775  2.7490
  949SOL    HW2 2847   0.610   2.439   0.575 -2.0592  0.6234  1.3891
  950SOL     OW 2848   0.177   2.246   2.974 -0.3811  0.1985  0.0811
  950SOL    HW1 2849   0.167   2.340   2.939  2.0061 -1.1275  0.8939
  950SOL    HW2 2850   0.171   2.174   2.905 -0.1622  0.7909  1.1511
  951SOL     OW 2851   1.160   2.643   2.787 -0.0157 -0.3264  0.2086
  951SOL    HW1 2852   1.225   2.611   2.860 -0.7785 -0.1925  1.8400
  951SOL    HW2 2853   1.208   2.663   2.695 -0.3721  0.3148  0.3759
  952SOL     OW 2854   0.070   1.651   0.403 -1.2068  0.1908  0.2498
  952SOL    HW1 2855   0.090   1.749   0.400  2.6116 -1.3353  0.1545
  952SOL    HW2 2856   0.098   1.604   0.495  1.0245  0.8419  1.6750
  953SOL     OW 2857   2.545   1.776   0.250  0.4852  0.0235  0.1697
  953SOL    HW1 2858   2.583   1.686   0.228  0.9545 -1.3332  0.1895
  953SOL    HW2 2859   2.485   1.815   0.172 -0.0819  2.4015  1.3595
  954SOL     OW 2860   2.177   0.591   0.925 -0.0735  0.3385  0.4666
  954SOL    HW1 2861   2.196   0.571   0.825  1.5552  2.2136  1.9818
  954SOL    HW2 2862   2.264   0.612   0.973 -2.0880  0.7289 -2.7449
  955SOL     OW 2863   0.099   2.550   1.363  0.3055  0.1555  0.0815
  955SOL    HW1 2864   0.021   2.608   1.326  0.3634 -0.3847 -2.0529
  955SOL    HW2 2865   0.189   2.597   1.384 -2.6700 -0.8793 -0.3610
  956SOL     OW 2866   2.801   2.475   2.509 -0.4708 -0.1742  0.1616
  956SOL    HW1 2867   2.768   2.376   2.511  0.9054  0.5548 -0.9243
  956SOL    HW2 2868   2.825   2.500   2.412  0.7378 -1.0711  2.5646
  957SOL     OW 2869   1.566   2.070   2.729  0.0073  0.3522  0.4787
  957SOL    HW1 2870   1.533   1.973   2.751 -3.5066  1.7890 -1.8997
  957SOL    HW2 2871   1.642   2.075   2.659  2.0252  1.3721 -1.3616
  958SOL     OW 2872   2.589   2.310   2.958  0.4266  0.1761  0.1625
  958SOL    HW1 2873   2.504   2.366   2.923  2.4197  0.8936 -2.3544
  958SOL    HW2 2874   2.572   2.272   3.052 -4.4980  0.9247 -0.7399
  959SOL     OW 2875   0.319   2.789   0.097 -0.5015  0.3940 -0.1322
  959SOL    HW1 2876   0.265   2.814   0.185  0.6655 -0.7106  1.3230
  959SOL    HW2 2877   0.298   2.695   0.069 -1.0260  2.4509 -0.2407
  960SOL     OW 2878   1.972   0.424   1.938  0.6401  0.2731  0.6339
  960SOL    HW1 2879   1.945   0.518   1.902 -1.8671  1.1341  1.2768
  960SOL    HW2 2880   1.970   0.419   2.041  0.1537  0.4296 -1.3064
  961SOL     OW 2881   2.554   1.873   1.056  0.7670  0.7479  0.2051
  961SOL    HW1 2882   2.570   1.974   1.035  0.9103  3.0906  0.2698
  961SOL    HW2 2883   2.519   1.863   1.155  0.8366 -1.7931  0.4115
  962SOL     OW 2884   1.349   0.876   0.060  0.3589  0.1738  0.1831
  962SOL    HW1 2885   1.314   0.884  -0.036  1.0932  1.0041 -1.2817
  962SOL    HW2 2886   1.337   0.971   0.113 -2.1646  2.5708  1.5845
  963SOL     OW 2887   2.297   2.552   1.815  0.4430 -0.2337 -0.0817
  963SOL    HW1 2888   2.258   2.459   1.827 -5.0908  0.2736  0.8715
  963SOL    HW2 2889   2.315   2.611   1.900  0.6510  0.3378 -0.9689
  964SOL     OW 2890   2.370   0.360   1.661 -0.1319  0.1115 -0.1619
  964SOL    HW1 2891   2.448   0.346   1.731  0.7929  1.6536 -0.9824
  964SOL    HW2 2892   2.395   0.354   1.564 -0.5989  2.4696 -0.4337
  965SOL     OW 2893   2.576   2.989   0.170 -0.1462  0.0310  0.2611
  965SOL    HW1 2894   2.594   2.919   0.098  0.5247  0.2425  2.3227
  965SOL    HW2 2895   2.504   3.056   0.144 -0.0547 -1.4068  1.6689
  966SOL     OW 2896   2.520   2.544   2.196  0.2067  0.3651  0.4489
  966SOL    HW1 2897   2.570   2.626   2.162 -0.7641 -0.9645 -0.0878
  966SOL    HW2 2898   2.442   2.518   2.130  0.6614  1.1597  0.4685
  967SOL     OW 2899   2.778   2.845   2.455  0.3878 -0.7411 -0.0331
  967SOL    HW1 2900   2.792   2.746   2.427 -0.7987  1.0817 -2.2131
  967SOL    HW2 2901   2.863   2.898   2.481  0.7017 -2.1305  2.6730
  968SOL     OW 2902   1.943   1.054   2.613  0.3992  0.3461  0.1090
  968SOL    HW1 2903   1.862   1.113   2.583 -2.9947  0.5134 -1.4587
  968SOL    HW2 2904   1.940   0.963   2.560  0.6360 -0.3139  1.9725
  969SOL     OW 2905   2.748   2.462   1.075 -0.2796 -0.2860  0.2871
  969SOL    HW1 2906   2.711   2.418   0.988 -1.9584 -0.3419  1.7062
  969SOL    HW2 2907   2.801   2.400   1.139  0.9260  0.4248 -0.2813
  970SOL     OW 2908   1.087   2.115   1.842  0.1766 -0.3264 -0.1235
  970SOL    HW1 2909   0.990   2.105   1.799 -0.6376  2.4248  1.7575
  970SOL    HW2 2910   1.087   2.133   1.943  0.6112 -3.4830  0.1645
  971SOL     OW 2911   2.895   2.060   2.005  0.3689  0.4109  0.4021
  971SOL    HW1 2912   2.897   2.157   2.034  0.0998 -1.2814  1.4784
  971SOL    HW2 2913   2.938   2.039   1.915  0.0720  1.5446  2.0439
  972SOL     OW 2914   1.966   2.482   0.256  0.4718 -0.0791 -0.4677
  972SOL    HW1 2915   1.994   2.412   0.185  0.4443  3.6946 -2.5569
  972SOL    HW2 2916   1.979   2.448   0.353 -1.0461 -1.0566  1.8590
  973SOL     OW 2917   1.227   0.920   1.857  0.2391  0.0882 -0.1727
  973SOL    HW1 2918   1.168   0.837   1.836 -0.7355 -0.1045 -0.4095
  973SOL    HW2 2919   1.187   1.008   1.830  1.9877  1.3175  1.4944
  974SOL     OW 2920   1.636   0.578   1.918 -0.3226  0.2234 -0.6573
  974SOL    HW1 2921   1.740   0.597   1.901 -0.3692 -1.0351  0.3842
  974SOL    HW2 2922   1.579   0.671   1.918 -0.5414  1.6785  1.3914
  975SOL     OW 2923   2.342   3.045   0.003 -0.0413  0.2547  0.7161
  975SOL    HW1 2924   2.293   2.957   0.030  1.0459 -1.6892  0.2251
  975SOL    HW2 2925   2.402   3.027  -0.078 -1.2409 -0.2364 -2.1847
  976SOL     OW 2926   1.883   2.832   2.378 -0.1061  0.0121  0.4041
  976SOL    HW1 2927   1.826   2.746   2.362 -1.4436  0.2408  0.1657
  976SOL    HW2 2928   1.923   2.839   2.476 -2.9969  2.8460  0.4043
  977SOL     OW 2929   0.519   0.601   0.977  0.3466 -0.1400 -0.3978
  977SOL    HW1 2930   0.436   0.584   0.906  0.4135 -1.4268 -0.6901
  977SOL    HW2 2931   0.561   0.697   0.969 -1.2495 -0.9952  0.6612
   3.10000   3.10000   3.10000
