1000 SPC/Fw water molecules t=   0.83000 step= 830
 2931
    1SOL     OW    1   2.490   0.344   2.620  0.3543  0.0566  0.9654
    1SOL    HW1    2   2.519   0.248   2.591  1.3814  0.6193  1.5926
    1SOL    HW2    3   2.552   0.368   2.700  2.2341  0.2203  0.5113
    2SOL     OW    4   2.746   3.075   1.425 -0.5444 -0.4950  0.2806
    2SOL    HW1    5   2.826   3.118   1.372  0.6871 -1.2101 -1.4170
    2SOL    HW2    6   2.699   3.142   1.485  0.6185  0.1376 -0.4983
    3SOL     OW    7   2.722   2.607   0.364 -0.7541 -0.3080  0.3352
    3SOL    HW1    8   2.703   2.503   0.372 -1.2152 -2.6590 -0.1138
    3SOL    HW2    9   2.790   2.637   0.437 -0.1412  0.6909 -0.2249
    4SOL     OW   10   1.277   1.479   2.340 -0.2077  0.7020 -0.8829
    4SOL    HW1   11   1.196   1.535   2.312 -1.6744  1.0912  1.5957
    4SOL    HW2   12   1.261   1.379   2.370 -1.3928 -1.9288  1.9583
    5SOL     OW   13   1.143   1.498   3.084  0.0591 -0.4586  0.2023
    5SOL    HW1   14   1.213   1.572   3.103  1.0475 -0.3465  0.0677
    5SOL    HW2   15   1.046   1.527   3.113  1.9341  0.8478 -0.9296
    6SOL     OW   16   0.128   1.848   2.946  0.4123 -0.6163  0.0215
    6SOL    HW1   17   0.035   1.866   2.998  2.1856 -1.6508  3.1591
    6SOL    HW2   18   0.203   1.810   3.004 -0.1640  0.5503 -0.2461
    7SOL     OW   19   2.608   0.921   1.130  0.5613 -0.3203 -0.8223
    7SOL    HW1   20   2.527   0.862   1.161 -2.5661 -0.3853  1.1130
    7SOL    HW2   21   2.609   0.926   1.028  0.1019  2.4201 -1.1995
    8SOL     OW   22   0.394   0.622   1.543 -0.0103  0.0684  0.2455
    8SOL    HW1   23   0.489   0.585   1.557  0.7391  1.5523  3.0359
    8SOL    HW2   24   0.358   0.603   1.447 -0.4821 -3.2343  1.3740
    9SOL     OW   25   1.179   0.862   2.393  0.2140 -0.2216  0.1309
    9SOL    HW1   26   1.262   0.904   2.351  0.9375 -0.2841  1.8683
    9SOL    HW2   27   1.125   0.819   2.317 -1.8975 -0.7870  1.0475
   10SOL     OW   28   0.641   1.341   1.303  0.4348  0.3206  0.2680
   10SOL    HW1   29   0.545   1.356   1.257 -0.2491  0.7400 -1.2702
   10SOL    HW2   30   0.699   1.429   1.308 -4.3475 -0.5382  0.8741
   11SOL     OW   31   2.352   2.735   0.832 -0.0184 -0.4943 -0.1878
   11SOL    HW1   32   2.314   2.783   0.914  0.4002 -0.8660 -0.1958
   11SOL    HW2   33   2.453   2.730   0.842 -0.4467  0.0196  2.0053
   12SOL     OW   34   1.485   0.897   0.344 -0.0256 -0.2960 -0.4970
   12SOL    HW1   35   1.436   0.968   0.286  0.7192  0.1821  2.1403
   12SOL    HW2   36   1.496   0.810   0.287  3.2359  0.6819 -0.4479
   13SOL     OW   37   2.472   0.659   1.781  0.4029 -0.0393 -0.2524
   13SOL    HW1   38   2.379   0.635   1.823 -2.1853  1.1463  0.4073
   13SOL    HW2   39   2.487   0.625   1.683  0.6800  1.1200  0.0916
   14SOL     OW   40   1.881   0.047   0.738 -0.6310 -0.1948 -0.1312
   14SOL    HW1   41   1.818   0.085   0.665  0.9674 -1.2620  1.8256
   14SOL    HW2   42   1.841  -0.031   0.793 -1.8700 -0.0640 -0.9049
   15SOL     OW   43   1.998   2.091   2.733  0.2460  0.0324  0.0202
   15SOL    HW1   44   1.970   2.178   2.783 -0.1335  1.0031  1.0804
   15SOL    HW2   45   1.921   2.029   2.705  0.4203  2.1814 -1.5061
   16SOL     OW   46   1.617   1.728   2.963 -0.1541  0.0361 -0.0443
   16SOL    HW1   47   1.625   1.634   3.010 -0.1155 -1.6030 -1.7676
   16SOL    HW2   48   1.694   1.789   2.993 -2.3253  1.8423  2.4120
   17SOL     OW   49   0.139   0.520   0.212 -0.0274 -0.0017  0.5562
   17SOL    HW1   50   0.237   0.550   0.223 -2.4571 -1.5754  0.2689
   17SOL    HW2   51   0.100   0.536   0.115 -2.8964 -1.3683 -0.2602
   18SOL     OW   52   0.974   2.934   2.100  0.0340 -0.5935  0.5527
   18SOL    HW1   53   0.895   2.873   2.094  1.1685 -0.3516 -0.8717
   18SOL    HW2   54   1.056   2.912   2.034  0.1980 -0.4983 -0.8883
   19SOL     OW   55   0.525   0.814   1.897  0.2866 -0.2179  0.3402
   19SOL    HW1   56   0.546   0.748   1.973 -1.0482  0.9704 -0.7244
   19SOL    HW2   57   0.606   0.864   1.874 -2.9899  0.6381  1.8475
   20SOL     OW   58   0.209   2.697   0.833 -0.4575  0.0453 -0.3515
   20SOL    HW1   59   0.142   2.775   0.814 -0.5731 -0.3450 -2.8558
   20SOL    HW2   60   0.254   2.661   0.747 -1.7605 -1.4909 -0.8799
   21SOL     OW   61   2.740   0.209   2.101  0.0950 -0.1512  0.0247
   21SOL    HW1   62   2.683   0.157   2.036  1.2732  0.9271 -0.0596
   21SOL    HW2   63   2.834   0.169   2.122 -0.7578 -0.1219  1.3637
   22SOL     OW   64   2.387   0.230   0.132  0.1641 -0.0992  0.2395
   22SOL    HW1   65   2.392   0.129   0.120 -1.4393 -0.6793  0.8634
   22SOL    HW2   66   2.301   0.277   0.089 -2.4266  1.4960  0.2072
   23SOL     OW   67   2.780   0.657   0.647  0.2100  0.0132  0.1061
   23SOL    HW1   68   2.844   0.582   0.609 -0.9528  0.2124 -2.7610
   23SOL    HW2   69   2.761   0.732   0.576  0.3032 -1.2282  3.7264
   24SOL     OW   70   0.206   1.904   0.365  0.3738 -0.4587 -0.4273
   24SOL    HW1   71   0.145   1.959   0.300 -0.5064 -0.2668  1.4737
   24SOL    HW2   72   0.311   1.910   0.339  3.0508  2.7897  3.2404
   25SOL     OW   73   2.202   0.553   0.312  0.1698  0.3973 -0.9551
   25SOL    HW1   74   2.236   0.596   0.222 -0.2341  0.7851 -2.0096
   25SOL    HW2   75   2.251   0.470   0.349 -1.3700 -2.1038  1.7419
   26SOL     OW   76   2.525   2.088   2.085 -0.1039  0.2115  0.0057
   26SOL    HW1   77   2.579   2.165   2.125 -1.8126 -1.2538  0.4999
   26SOL    HW2   78   2.573   2.033   2.010 -0.0953 -1.5729 -2.1276
   27SOL     OW   79   0.598   2.968   0.223  0.1367 -0.2814 -0.4906
   27SOL    HW1   80   0.697   2.944   0.205 -1.4996  0.3930  1.5047
   27SOL    HW2   81   0.547   2.992   0.135 -1.6381 -0.1031  0.3248
   28SOL     OW   82   1.565   0.153   0.275 -0.3529  0.0181 -0.3376
   28SOL    HW1   83   1.591   0.109   0.183  0.0481 -0.8379  2.0822
   28SOL    HW2   84   1.602   0.250   0.288 -0.0335  0.2033 -1.5537
   29SOL     OW   85   1.956   0.601   0.425 -0.3181  0.4034  0.1845
   29SOL    HW1   86   1.951   0.702   0.424  0.6905  0.1045 -1.1327
   29SOL    HW2   87   2.052   0.563   0.404 -3.2828 -3.2003 -0.5555
   30SOL     OW   88   0.189   1.978   0.912  0.1921 -0.3186 -0.5725
   30SOL    HW1   89   0.161   1.967   0.816  0.3708 -0.5089  2.4839
   30SOL    HW2   90   0.117   2.021   0.969  0.4509 -1.1940 -1.5634
   31SOL     OW   91   2.108   3.065   2.328 -0.2268 -0.0919  0.1812
   31SOL    HW1   92   2.071   3.089   2.422  0.5565  2.6811  0.5520
   31SOL    HW2   93   2.061   2.989   2.276 -3.1360  0.8140  3.9457
   32SOL     OW   94   2.948   0.105   0.215 -0.6220  0.0639  0.5412
   32SOL    HW1   95   2.922   0.012   0.257  0.5782  1.1759 -2.0477
   32SOL    HW2   96   3.040   0.132   0.248 -0.8388  0.2277 -0.8648
   33SOL     OW   97   0.957   0.288   0.615  0.0235  0.3450 -0.1214
   33SOL    HW1   98   0.926   0.199   0.572 -2.9489 -0.5825  0.4659
   33SOL    HW2   99   1.041   0.321   0.568 -0.2487 -1.0211 -0.5385
   34SOL     OW  100   0.296   2.782   1.097 -0.7095 -0.2429  0.3508
   34SOL    HW1  101   0.274   2.757   1.002  1.0608 -1.5760  3.5455
   34SOL    HW2  102   0.386   2.834   1.095 -0.7245  0.4930  0.4091
   35SOL     OW  103   0.021   0.134   1.872  0.1010 -0.9757  0.6029
   35SOL    HW1  104   0.059   0.042   1.904  1.1749 -2.5362 -1.9499
   35SOL    HW2  105  -0.002   0.141   1.772  0.5176 -1.2445  0.0127
   36SOL     OW  106   1.934   1.166   1.745 -0.8359  0.0359 -0.0683
   36SOL    HW1  107   1.959   1.139   1.652 -2.2030  1.0991  0.5479
   36SOL    HW2  108   2.006   1.234   1.777  2.9246  2.1177 -0.9589
   37SOL     OW  109   1.190   0.150   0.942 -0.5356  0.0867  0.2496
   37SOL    HW1  110   1.243   0.223   0.995 -0.4014 -2.5199  0.9061
   37SOL    HW2  111   1.217   0.146   0.842 -1.5131  2.3999 -0.8436
   38SOL     OW  112   1.075   2.779   2.480 -0.3023 -0.2796 -0.0528
   38SOL    HW1  113   1.030   2.700   2.427  0.9702 -0.6342  2.9807
   38SOL    HW2  114   1.021   2.866   2.480 -1.9905 -0.1910 -0.6081
   39SOL     OW  115   2.301   1.392   3.032  0.0532  0.3512  0.4687
   39SOL    HW1  116   2.391   1.343   3.031 -1.3536 -0.7688 -0.4946
   39SOL    HW2  117   2.248   1.375   3.123 -3.5849 -3.6866 -3.3394
   40SOL     OW  118   2.069   2.480   2.552 -0.8618 -0.0033 -0.3455
   40SOL    HW1  119   2.051   2.578   2.588 -4.6774 -1.5047 -1.3101
   40SOL    HW2  120   1.983   2.441   2.506 -1.8197 -1.8037  0.6511
   41SOL     OW  121   3.042   0.686   2.850  0.2936  0.1598  0.3981
   41SOL    HW1  122   2.990   0.764   2.803  2.7955 -0.8803 -1.9500
   41SOL    HW2  123   3.013   0.595   2.808 -0.2532  3.8301 -4.9626
   42SOL     OW  124   1.772   1.721   0.480  0.6379 -0.4854 -0.1468
   42SOL    HW1  125   1.716   1.632   0.468 -0.2376 -2.8670  2.0220
   42SOL    HW2  126   1.787   1.765   0.387 -2.1808  1.5397 -1.6314
   43SOL     OW  127   0.479   1.676   1.116  0.5127 -0.5307  0.6298
   43SOL    HW1  128   0.464   1.575   1.142 -0.8641 -0.2841  1.2396
   43SOL    HW2  129   0.390   1.725   1.118 -1.1291  0.8082 -2.0220
   44SOL     OW  130   1.802   2.498   3.059 -0.7359  0.1751 -0.1415
   44SOL    HW1  131   1.811   2.595   3.024  0.7652  1.5009 -0.0221
   44SOL    HW2  132   1.807   2.418   2.992 -1.4769 -0.6090  0.0721
   45SOL     OW  133   0.442   1.938   2.604 -0.1409 -0.0398 -0.2163
   45SOL    HW1  134   0.365   1.922   2.530 -1.3928  0.3453 -1.3008
   45SOL    HW2  135   0.480   1.851   2.651  0.8292  0.5174  1.8480
   46SOL     OW  136   1.250   0.703   0.197 -0.0814 -0.2190  0.0790
   46SOL    HW1  137   1.282   0.783   0.140  0.6529 -2.7307 -1.7912
   46SOL    HW2  138   1.159   0.719   0.233  3.2773  2.2500 -0.4733
   47SOL     OW  139   0.231   2.501   1.584 -0.3799  0.1406 -0.5292
   47SOL    HW1  140   0.188   2.421   1.628  2.1700 -1.3152 -1.3104
   47SOL    HW2  141   0.225   2.494   1.476  0.7245 -0.0291 -1.1428
   48SOL     OW  142   2.623   0.641   0.130 -0.2152 -0.1687  0.1834
   48SOL    HW1  143   2.590   0.646   0.230  0.6979  1.7232  1.7400
   48SOL    HW2  144   2.721   0.650   0.120 -2.1682 -2.4966 -0.0919
   49SOL     OW  145   0.325   0.806   1.734 -0.4493  0.3633  0.8071
   49SOL    HW1  146   0.402   0.822   1.802  0.2713  0.5123 -1.1892
   49SOL    HW2  147   0.351   0.743   1.655 -0.4182  0.0810 -0.7336
   50SOL     OW  148   1.664   1.118   0.306  0.1763  0.5405  0.2741
   50SOL    HW1  149   1.673   1.019   0.284 -1.7490 -0.4006  0.6393
   50SOL    HW2  150   1.617   1.128   0.394  0.1694 -0.9237  1.0726
   51SOL     OW  151   2.891   1.863   0.311 -0.0451 -0.8498 -0.1884
   51SOL    HW1  152   2.833   1.782   0.281 -0.0846 -1.9612  1.0711
   51SOL    HW2  153   2.964   1.837   0.379 -4.7737  0.3262 -1.3030
   52SOL     OW  154   0.776   2.003   0.493 -0.2384 -0.0908  0.0003
   52SOL    HW1  155   0.693   2.053   0.520  0.1900  0.1666  1.3802
   52SOL    HW2  156   0.814   1.947   0.570 -0.9205  3.7449 -1.1311
   53SOL     OW  157   0.171   0.419   1.608 -0.0692 -0.1740 -0.2310
   53SOL    HW1  158   0.248   0.471   1.651  1.6792  0.5213 -0.2900
   53SOL    HW2  159   0.103   0.472   1.551  1.2365 -0.6678 -2.8943
   54SOL     OW  160   1.816   0.472   3.055  0.2916 -0.1468  0.0497
   54SOL    HW1  161   1.848   0.439   3.147  0.0145  3.3800  0.5632
   54SOL    HW2  162   1.712   0.487   3.063  0.4992 -1.5819 -0.5004
   55SOL     OW  163   0.771   2.887   0.692  0.3939  0.5809 -0.1515
   55SOL    HW1  164   0.711   2.974   0.700 -3.4407 -0.7916 -1.6684
   55SOL    HW2  165   0.871   2.898   0.664  0.9626 -0.0100  0.3592
   56SOL     OW  166   0.499   1.603   0.018  0.1714 -0.2941 -0.4429
   56SOL    HW1  167   0.408   1.647  -0.006  2.4645 -2.2062  1.2366
   56SOL    HW2  168   0.521   1.518  -0.039  1.3982 -1.5724 -0.3018
   57SOL     OW  169   1.733   2.508   2.500  0.3695 -0.3798 -0.4828
   57SOL    HW1  170   1.767   2.416   2.468 -2.6057  3.0758 -1.2751
   57SOL    HW2  171   1.638   2.503   2.533 -2.2138 -2.4398 -2.7450
   58SOL     OW  172   0.648   0.269   1.031  0.4136 -0.7624 -0.3871
   58SOL    HW1  173   0.552   0.306   1.029 -1.3460 -0.8175  2.0383
   58SOL    HW2  174   0.662   0.178   1.069  0.6719  1.3557 -0.1842
   59SOL     OW  175   0.444   2.450   2.749  0.1279 -0.1335 -0.2508
   59SOL    HW1  176   0.494   2.363   2.713 -3.5150 -2.0166  2.2849
   59SOL    HW2  177   0.515   2.518   2.785  1.1500  2.3394 -0.2459
   60SOL     OW  178   2.286   2.037   2.197 -0.1550 -0.3276  0.0185
   60SOL    HW1  179   2.367   2.060   2.142  0.6063 -1.0500  0.4672
   60SOL    HW2  180   2.289   2.054   2.298 -0.1780 -1.1033  2.4254
   61SOL     OW  181   1.343   0.629   0.507 -0.2309 -0.2341 -0.2939
   61SOL    HW1  182   1.264   0.690   0.542 -1.3244  2.0262  0.1073
   61SOL    HW2  183   1.357   0.639   0.402  1.9024  1.3986 -0.8932
   62SOL     OW  184   2.770   1.800   2.907 -0.3585 -0.0442  0.4012
   62SOL    HW1  185   2.774   1.718   2.967 -0.1319 -1.9369 -0.1214
   62SOL    HW2  186   2.840   1.797   2.831 -1.6560  4.0969  2.3085
   63SOL     OW  187   0.599   0.909   0.180 -0.4131 -0.8249  0.8011
   63SOL    HW1  188   0.618   0.966   0.090 -1.3973  4.0584  0.0756
   63SOL    HW2  189   0.682   0.890   0.241  0.8735  2.2242  1.9219
   64SOL     OW  190   0.104   0.484   2.479 -0.1223 -0.0287 -0.1895
   64SOL    HW1  191   0.203   0.479   2.490 -0.8171  2.8101  3.0378
   64SOL    HW2  192   0.081   0.565   2.420  1.0367 -2.4704  1.3723
   65SOL     OW  193   0.160   1.487   0.559  0.0746  0.3333 -0.3463
   65SOL    HW1  194   0.178   1.547   0.639  1.6791  1.5610 -0.4221
   65SOL    HW2  195   0.226   1.496   0.480 -0.7966  2.0340 -1.4110
   66SOL     OW  196   2.563   0.403   0.602  0.1509  0.2231  0.2919
   66SOL    HW1  197   2.660   0.395   0.636  2.5564 -3.8318  2.0043
   66SOL    HW2  198   2.506   0.321   0.635 -1.7274 -0.8798 -1.0869
   67SOL     OW  199   0.541   2.534   1.367 -0.0318  0.2126  0.5426
   67SOL    HW1  200   0.577   2.557   1.459 -1.2755  0.3472 -1.4842
   67SOL    HW2  201   0.480   2.452   1.374  2.8521  0.0976 -3.0564
   68SOL     OW  202   1.016   1.094   2.459 -0.3006  0.0785  0.2595
   68SOL    HW1  203   1.073   1.007   2.442 -1.3504 -0.3207  1.5267
   68SOL    HW2  204   0.945   1.103   2.381  1.2177 -0.5745  0.3107
   69SOL     OW  205   0.736   2.729   2.174 -0.2338 -0.1812  0.3285
   69SOL    HW1  206   0.777   2.631   2.171  1.2667 -1.5330 -1.5990
   69SOL    HW2  207   0.635   2.734   2.167  1.6285 -3.0708  2.2811
   70SOL     OW  208   0.518   0.321   2.693 -0.1011 -0.5163 -0.2806
   70SOL    HW1  209   0.505   0.372   2.782  0.8842  2.5880 -0.4719
   70SOL    HW2  210   0.517   0.220   2.710 -1.9635 -1.7803  0.8994
   71SOL     OW  211   1.101   1.745   0.437  0.3056 -0.1841  0.7025
   71SOL    HW1  212   1.037   1.698   0.509  2.8919  0.6901  1.3019
   71SOL    HW2  213   1.053   1.752   0.347 -1.3126 -0.2420  0.6384
   72SOL     OW  214   1.837   0.203   2.156 -0.5089 -0.0317  0.4073
   72SOL    HW1  215   1.927   0.254   2.143  1.1181  2.7363  0.4669
   72SOL    HW2  216   1.841   0.100   2.148 -0.4837  2.3386 -0.5166
   73SOL     OW  217   2.817   2.170   2.421 -0.0494  0.5730  0.0907
   73SOL    HW1  218   2.819   2.084   2.371 -1.0416 -0.5111 -0.2976
   73SOL    HW2  219   2.859   2.165   2.522  2.5548  2.5334  3.1786
   74SOL     OW  220   2.664   2.912   2.126 -0.4286 -0.0286 -0.1127
   74SOL    HW1  221   2.619   2.903   2.221 -0.3147 -0.9951 -0.4830
   74SOL    HW2  222   2.762   2.933   2.133 -3.8395 -1.5690  0.6244
   75SOL     OW  223   0.905   0.772   1.107 -0.0699  0.3369  0.1883
   75SOL    HW1  224   0.825   0.802   1.045 -0.3445 -1.5931 -0.4484
   75SOL    HW2  225   0.908   0.818   1.203  2.8890  0.2238  0.2726
   76SOL     OW  226   1.696   1.195   2.506  0.1273 -0.7194 -0.1480
   76SOL    HW1  227   1.598   1.157   2.520 -2.8761 -0.4185 -0.0633
   76SOL    HW2  228   1.703   1.298   2.519 -4.4644 -1.8002  0.5219
   77SOL     OW  229   2.986   0.927   0.956 -0.0916 -0.0097 -0.3742
   77SOL    HW1  230   2.966   0.829   0.951 -5.0438  1.1023 -1.2468
   77SOL    HW2  231   3.017   0.961   1.049 -0.5474  0.9842  0.7007
   78SOL     OW  232   2.074   1.469   1.519 -0.8162  0.3812  0.4354
   78SOL    HW1  233   2.177   1.472   1.494  0.1975  1.6665  2.2446
   78SOL    HW2  234   2.020   1.516   1.445  0.4490  1.8826  0.5724
   79SOL     OW  235   0.610   1.368   0.877 -0.3565  0.0943  0.0487
   79SOL    HW1  236   0.509   1.381   0.900  1.1481 -1.1467  1.1559
   79SOL    HW2  237   0.620   1.321   0.784 -0.9355 -0.0072 -2.9143
   80SOL     OW  238   0.623   0.485   1.582  0.2724  0.7412  0.2511
   80SOL    HW1  239   0.690   0.553   1.543  1.6279  0.0238 -0.9953
   80SOL    HW2  240   0.662   0.387   1.591 -1.5284 -0.7795  0.2347
   81SOL     OW  241   1.036   1.399   2.630 -0.4695  0.1105 -0.1700
   81SOL    HW1  242   1.097   1.316   2.644  2.3214 -1.4462  0.2015
   81SOL    HW2  243   0.973   1.383   2.547 -1.2995 -0.1900  0.4819
   82SOL     OW  244   1.008   2.934   1.503 -0.2733  0.1322  0.2515
   82SOL    HW1  245   1.022   2.986   1.415  0.2737 -0.5861 -0.9299
   82SOL    HW2  246   0.914   2.893   1.511  0.0582  0.8117 -1.0337
   83SOL     OW  247   2.734   2.462   0.850 -0.0228  0.0346  0.2125
   83SOL    HW1  248   2.649   2.402   0.821 -1.6000 -3.2783 -3.4780
   83SOL    HW2  249   2.724   2.559   0.820  1.6172 -1.7189 -0.6502
   84SOL     OW  250   0.631   3.047   2.371  0.7225 -0.0811 -0.2974
   84SOL    HW1  251   0.544   3.010   2.416 -2.4374 -0.8388  0.8734
   84SOL    HW2  252   0.720   2.997   2.398 -0.7330 -0.7588 -0.7612
   85SOL     OW  253   0.269   1.574   1.492 -0.6224  0.5796 -0.1275
   85SOL    HW1  254   0.250   1.673   1.490  1.7891 -1.4989  1.5296
   85SOL    HW2  255   0.340   1.545   1.560 -2.1143  0.8909 -0.9037
   86SOL     OW  256   0.399   0.999   1.534  0.3425  0.3057  0.0177
   86SOL    HW1  257   0.377   0.960   1.439 -2.0380 -0.6027  0.6519
   86SOL    HW2  258   0.364   0.938   1.613 -1.7000  0.0071  0.8137
   87SOL     OW  259   1.586   0.668   0.208 -0.7134  0.2117  0.1368
   87SOL    HW1  260   1.672   0.733   0.193  0.0344  1.5342 -0.8158
   87SOL    HW2  261   1.573   0.607   0.126  0.5498  1.5997 -2.1569
   88SOL     OW  262   1.612   1.384   0.196  0.2813  0.0890  0.2695
   88SOL    HW1  263   1.635   1.283   0.209  0.2794 -0.8124 -2.1722
   88SOL    HW2  264   1.510   1.415   0.210 -1.2069  0.5230  0.5880
   89SOL     OW  265   0.007   0.433   0.580 -0.4539  0.2925  0.1733
   89SOL    HW1  266   0.068   0.357   0.546  1.3644  0.4887  2.6605
   89SOL    HW2  267  -0.087   0.400   0.605 -1.3479  1.0280 -0.5185
   90SOL     OW  268   0.877   1.606   0.057 -0.2514 -0.3442 -0.2664
   90SOL    HW1  269   0.801   1.559   0.106  2.3061 -0.6792  1.1029
   90SOL    HW2  270   0.863   1.606  -0.048 -1.9182 -0.0348 -0.4524
   91SOL     OW  271   1.223   1.456   1.798  0.1590  0.7592  0.6924
   91SOL    HW1  272   1.204   1.537   1.859 -1.7781  1.0452 -2.1120
   91SOL    HW2  273   1.324   1.455   1.780 -3.4921  1.4776 -1.6897
   92SOL     OW  274   0.002   0.976   1.192 -0.3945  0.0315 -0.1824
   92SOL    HW1  275   0.072   1.043   1.155 -0.7733  0.4544  0.4149
   92SOL    HW2  276   0.010   0.967   1.295 -1.5766  2.8455 -0.0603
   93SOL     OW  277   0.006   2.711   3.072  0.1576 -0.1245 -0.4635
   93SOL    HW1  278  -0.082   2.723   3.019 -1.0975 -1.0905 -0.7026
   93SOL    HW2  279   0.001   2.629   3.135  0.4559  0.2912  0.6052
   94SOL     OW  280   1.484   1.498   1.748 -0.1727 -0.0154 -0.5239
   94SOL    HW1  281   1.555   1.422   1.756  0.8023  1.5770 -1.8503
   94SOL    HW2  282   1.513   1.568   1.821  1.7561  1.3191  0.7713
   95SOL     OW  283   1.358   2.555   2.987 -0.5733  0.0608 -0.3988
   95SOL    HW1  284   1.278   2.571   3.052 -0.1370 -0.6564 -1.5240
   95SOL    HW2  285   1.371   2.454   2.965 -0.5074 -1.0674 -3.8240
   96SOL     OW  286   0.539   2.115   1.260  0.5105  0.2947 -0.2865
   96SOL    HW1  287   0.490   2.080   1.176  1.5925  0.1236  0.5428
   96SOL    HW2  288   0.560   2.040   1.324 -0.3316  2.1128 -0.4859
   97SOL     OW  289   0.408   1.620   2.459  0.4126 -0.6590  0.3975
   97SOL    HW1  290   0.349   1.694   2.419 -0.8225  1.7397  1.0733
   97SOL    HW2  291   0.396   1.610   2.563 -0.0404 -1.2461  0.6646
   98SOL     OW  292   1.995   1.599   1.233  0.6032  0.0484 -0.4542
   98SOL    HW1  293   1.912   1.572   1.294 -0.5640  1.2928  0.3985
   98SOL    HW2  294   1.997   1.545   1.147 -0.2919  0.9312 -0.8815
   99SOL     OW  295   2.438   2.058   1.389  0.2235 -0.4215  0.1033
   99SOL    HW1  296   2.461   2.042   1.488  1.0519 -0.3072  0.8140
   99SOL    HW2  297   2.439   1.971   1.331 -2.0757 -1.0800  0.8545
  100SOL     OW  298   2.345   0.304   2.109  0.6878  0.1585  0.2130
  100SOL    HW1  299   2.265   0.270   2.174 -0.4493 -0.4120 -0.1252
  100SOL    HW2  300   2.435   0.329   2.160  1.5945  0.1961  1.7194
  101SOL     OW  301   0.377   1.518   0.355  0.6742 -0.2909  0.8994
  101SOL    HW1  302   0.439   1.511   0.440  2.4942  0.4894  2.4359
  101SOL    HW2  303   0.401   1.600   0.297 -1.8320  0.9168  1.3190
  102SOL     OW  304   2.250   1.018   0.827  0.3028  0.0990  0.4290
  102SOL    HW1  305   2.210   0.922   0.814 -2.4236 -0.0902 -1.0581
  102SOL    HW2  306   2.288   1.060   0.746  1.3403 -0.7287  2.1159
  103SOL     OW  307   2.276   0.058   0.395  0.1949  0.3973  0.0646
  103SOL    HW1  308   2.278   0.157   0.391 -1.7478  0.0441 -0.1339
  103SOL    HW2  309   2.371   0.018   0.411 -0.7059 -1.2168 -0.0325
  104SOL     OW  310   0.094   1.749   2.191 -0.6404 -0.1980  0.7155
  104SOL    HW1  311   0.146   1.718   2.104 -0.7475 -0.8062 -3.6439
  104SOL    HW2  312  -0.005   1.765   2.164  0.3138  1.2329 -1.1402
  105SOL     OW  313   1.223   2.103   0.796 -0.1610 -0.3430  0.0404
  105SOL    HW1  314   1.129   2.109   0.756 -0.6505  0.4655  0.2934
  105SOL    HW2  315   1.264   2.009   0.787 -0.7376 -0.7660 -0.2985
  106SOL     OW  316   2.113   0.427   1.422 -0.3746  0.0458 -0.4159
  106SOL    HW1  317   2.088   0.326   1.415 -2.2845 -1.1188 -1.5475
  106SOL    HW2  318   2.085   0.472   1.514  0.7516  0.2517  1.0403
  107SOL     OW  319   1.814   3.005   1.186  1.3185 -0.0872  0.1437
  107SOL    HW1  320   1.828   3.102   1.226 -1.5081 -0.8361 -0.7714
  107SOL    HW2  321   1.730   2.957   1.230 -1.0786 -1.0684 -0.6118
  108SOL     OW  322   0.780   2.799   1.213 -0.4596  0.6235  0.3018
  108SOL    HW1  323   0.780   2.784   1.314  0.8002  0.4274  0.8358
  108SOL    HW2  324   0.870   2.840   1.186 -0.9074 -2.1979 -0.9316
  109SOL     OW  325   2.143   0.124   0.727 -0.0818 -0.1696  0.4098
  109SOL    HW1  326   2.047   0.089   0.710 -0.5230  0.2879  3.0688
  109SOL    HW2  327   2.168   0.117   0.827  1.0909 -2.0144  0.5724
  110SOL     OW  328   0.465   2.851   2.772 -0.1748 -0.4118  0.2613
  110SOL    HW1  329   0.445   2.910   2.693 -0.1479 -2.3613  1.5397
  110SOL    HW2  330   0.555   2.802   2.762 -0.7698  1.1829  1.4579
  111SOL     OW  331   1.310   0.578   2.334  0.2343  0.0538  0.0347
  111SOL    HW1  332   1.216   0.588   2.385 -1.5458  0.4962 -0.1853
  111SOL    HW2  333   1.350   0.483   2.348 -0.0750 -0.3691  0.6384
  112SOL     OW  334   1.734   0.556   1.441  0.1174  0.1035 -0.2766
  112SOL    HW1  335   1.740   0.558   1.338  1.9087 -1.2771  0.0414
  112SOL    HW2  336   1.714   0.467   1.489  1.4353  2.9341 -0.2141
  113SOL     OW  337   2.267   1.679   1.785  0.0610 -0.0079 -0.2200
  113SOL    HW1  338   2.318   1.603   1.739  1.9156  2.3675 -0.9878
  113SOL    HW2  339   2.297   1.688   1.885  1.9983  2.3357 -0.6706
  114SOL     OW  340   0.357   0.523   1.246  0.6065 -0.3648  0.1045
  114SOL    HW1  341   0.407   0.559   1.167 -0.8402  0.8864  1.9476
  114SOL    HW2  342   0.257   0.536   1.228  0.8862  0.7678  0.2352
  115SOL     OW  343   2.771   1.569   1.264 -0.3437  0.2136 -0.3083
  115SOL    HW1  344   2.759   1.463   1.264 -0.8302 -1.5074  1.3124
  115SOL    HW2  345   2.743   1.613   1.172 -1.9632 -1.7794  1.8879
  116SOL     OW  346   1.845   1.037   0.733 -0.2236  0.0553 -0.3242
  116SOL    HW1  347   1.770   0.985   0.684 -1.7533 -1.6909 -2.3137
  116SOL    HW2  348   1.831   1.139   0.742  0.6175  1.4029  0.2134
  117SOL     OW  349   1.205   0.381   0.569  0.3305 -0.3568 -0.2910
  117SOL    HW1  350   1.162   0.423   0.658  2.8728 -1.1124 -0.2556
  117SOL    HW2  351   1.252   0.441   0.501  1.3913 -0.2331 -3.1050
  118SOL     OW  352   1.123   1.109   1.108  0.3419  0.8086  0.3311
  118SOL    HW1  353   1.083   1.055   1.186  0.0799 -3.6809  3.2671
  118SOL    HW2  354   1.162   1.205   1.136  2.3634 -0.2618  1.2561
  119SOL     OW  355   1.805   1.623   2.140  0.3453  0.1720 -0.2169
  119SOL    HW1  356   1.791   1.727   2.150 -1.7493  1.4280 -0.8452
  119SOL    HW2  357   1.906   1.592   2.140 -3.2039  1.0017  2.3464
  120SOL     OW  358   2.953   2.879   0.127  0.1372 -0.0765 -0.4515
  120SOL    HW1  359   3.034   2.827   0.093  0.4807 -1.5213 -1.2066
  120SOL    HW2  360   2.856   2.836   0.112  0.2123  0.7398 -1.6733
  121SOL     OW  361   1.983   0.752   2.263 -0.1079  0.0252 -0.8034
  121SOL    HW1  362   2.027   0.797   2.183 -3.1144 -0.4355  0.0424
  121SOL    HW2  363   1.981   0.648   2.247 -0.3282 -1.6733 -0.6605
  122SOL     OW  364   2.587   2.662   1.221 -0.4528 -0.1526 -0.0931
  122SOL    HW1  365   2.661   2.591   1.192 -0.6733 -0.5532  1.4924
  122SOL    HW2  366   2.523   2.683   1.147  0.5013 -1.4479  2.6329
  123SOL     OW  367   1.743   0.085   1.728 -0.2876 -0.2297 -0.1844
  123SOL    HW1  368   1.772   0.001   1.670  0.6980  1.0749  1.6810
  123SOL    HW2  369   1.826   0.129   1.771 -0.5967  0.1717  2.2654
  124SOL     OW  370   0.112   0.468   1.095 -0.3322  0.5279  0.4857
  124SOL    HW1  371   0.069   0.543   1.152  0.1947  1.0676 -1.2919
  124SOL    HW2  372   0.106   0.485   0.989 -2.7414 -3.3451  3.5891
  125SOL     OW  373   0.846   1.854   0.710  0.0173 -0.4754 -0.0082
  125SOL    HW1  374   0.936   1.810   0.731  1.0662  0.0875  0.2512
  125SOL    HW2  375   0.814   1.919   0.784 -0.1303 -1.5752 -0.1336
  126SOL     OW  376   1.873   2.287   2.444 -0.4147 -0.0309  0.0112
  126SOL    HW1  377   1.919   2.255   2.356  1.5745 -0.2620  0.2341
  126SOL    HW2  378   1.810   2.216   2.482  0.9851 -0.0733  0.4946
  127SOL     OW  379   0.976   0.895   0.251  0.4925  0.1627 -0.0683
  127SOL    HW1  380   0.967   0.977   0.315  3.2295  1.5360  1.1043
  127SOL    HW2  381   0.943   0.809   0.299  0.0083  1.1124 -1.8119
  128SOL     OW  382   0.906   0.240   1.379  0.0646 -0.1430  0.4297
  128SOL    HW1  383   0.880   0.303   1.304 -1.9724 -1.8361 -0.5983
  128SOL    HW2  384   0.885   0.134   1.367  1.6035 -4.9422 -1.1437
  129SOL     OW  385   1.836   0.707   1.900 -0.1673 -0.8239 -0.3073
  129SOL    HW1  386   1.837   0.700   1.795 -1.1503  0.1090  2.8958
  129SOL    HW2  387   1.889   0.784   1.938 -0.9152 -0.4958  0.2551
  130SOL     OW  388   1.365   2.232   1.005 -0.0207 -0.2785  0.1126
  130SOL    HW1  389   1.305   2.210   0.925 -0.9124  3.6729 -1.5313
  130SOL    HW2  390   1.445   2.290   0.981 -0.9003 -1.2857  0.9621
  131SOL     OW  391   3.062   1.449   1.385  0.3887  0.1760  0.6811
  131SOL    HW1  392   2.979   1.398   1.354  0.1645 -0.5247  1.4029
  131SOL    HW2  393   3.141   1.383   1.386  1.4472 -0.8858  0.1935
  132SOL     OW  394   2.046   2.437   0.515  0.0711  0.3719 -0.2972
  132SOL    HW1  395   1.945   2.457   0.502  2.8113  0.8771  0.8780
  132SOL    HW2  396   2.063   2.364   0.587  0.5224 -0.8599  1.0179
  133SOL     OW  397   1.870   2.333   2.851 -0.4229 -0.3728 -0.1575
  133SOL    HW1  398   1.822   2.301   2.765  1.5554 -0.1974 -1.3174
  133SOL    HW2  399   1.968   2.355   2.827  2.1473 -0.9804  2.4469
  134SOL     OW  400   2.666   2.349   1.652 -0.1173  0.2540 -0.4262
  134SOL    HW1  401   2.606   2.330   1.735 -0.9087  0.2317  0.4489
  134SOL    HW2  402   2.714   2.440   1.659 -2.7576  1.2384  0.4914
  135SOL     OW  403   0.657   1.474   2.682 -0.7174 -0.2927 -0.0863
  135SOL    HW1  404   0.619   1.378   2.718 -1.6481  0.0860 -0.4432
  135SOL    HW2  405   0.681   1.470   2.582  3.1830 -1.4737  0.3389
  136SOL     OW  406   1.200   1.997   0.407 -0.6105  0.8485  0.1313
  136SOL    HW1  407   1.161   2.058   0.477 -0.1177 -0.6020  0.5442
  136SOL    HW2  408   1.179   1.899   0.421  0.8334 -0.0579  1.1441
  137SOL     OW  409   0.424   1.171   2.173  0.2972  0.4492  0.2419
  137SOL    HW1  410   0.323   1.176   2.211 -3.2112 -1.2900  2.7603
  137SOL    HW2  411   0.462   1.073   2.166  0.8829  0.0746 -0.5687
  138SOL     OW  412   2.453   1.530   0.241  0.5295 -0.2877 -0.2411
  138SOL    HW1  413   2.359   1.480   0.236  0.9461  1.0018 -0.6523
  138SOL    HW2  414   2.519   1.505   0.316 -0.4200 -3.9764 -3.0549
  139SOL     OW  415   1.859   2.597   1.279  0.1376 -0.3283  0.1823
  139SOL    HW1  416   1.756   2.612   1.275 -2.5533 -0.1557  1.8457
  139SOL    HW2  417   1.869   2.501   1.313  1.0857  0.6685 -0.9258
  140SOL     OW  418   3.025   2.980   2.540 -0.3555  0.0442 -0.0388
  140SOL    HW1  419   3.050   2.878   2.532  0.1257  0.4716 -1.2649
  140SOL    HW2  420   3.106   3.046   2.552  2.3008 -0.1407  0.2944
  141SOL     OW  421   1.323   1.675   1.625  0.1028  0.1176 -0.1836
  141SOL    HW1  422   1.220   1.676   1.638 -0.9202 -0.6809 -0.7270
  141SOL    HW2  423   1.368   1.591   1.671  0.4140 -1.7369 -1.5039
  142SOL     OW  424   1.568   0.581   2.266  0.1647 -0.0941 -0.1609
  142SOL    HW1  425   1.577   0.555   2.168  0.0180  1.0126  1.4032
  142SOL    HW2  426   1.475   0.623   2.282 -1.8397  0.0923 -2.4241
  143SOL     OW  427   2.725   0.894   0.525 -0.7834  0.1768  0.0226
  143SOL    HW1  428   2.786   0.923   0.444  1.4400 -2.1135 -0.8090
  143SOL    HW2  429   2.764   0.932   0.616  4.1193 -0.8404  1.0608
  144SOL     OW  430   2.933   1.153   1.456 -0.3487 -0.4254 -0.3067
  144SOL    HW1  431   2.883   1.168   1.545  1.7363  1.6996 -0.0217
  144SOL    HW2  432   2.993   1.070   1.446  0.7213  0.8535 -2.2136
  145SOL     OW  433   0.996   1.832   0.173 -0.2946 -0.3256  0.4995
  145SOL    HW1  434   1.053   1.874   0.099 -2.2039  0.1197 -1.0257
  145SOL    HW2  435   0.946   1.750   0.135  1.0183 -1.0759 -0.4109
  146SOL     OW  436   2.507   0.670   1.501  0.1987 -0.1398  0.0296
  146SOL    HW1  437   2.462   0.590   1.453 -1.3786  1.2127  0.7831
  146SOL    HW2  438   2.441   0.749   1.486 -0.8869  0.3086 -0.1383
  147SOL     OW  439   1.101   2.450   0.614 -0.2353 -0.2756  0.5989
  147SOL    HW1  440   1.078   2.530   0.546 -0.0801  2.1872 -2.9221
  147SOL    HW2  441   1.196   2.411   0.594  1.8955  4.3214 -2.5657
  148SOL     OW  442   1.645   1.469   3.055 -0.6628  0.7979 -0.0031
  148SOL    HW1  443   1.654   1.401   2.982 -0.9130 -0.2985  1.2608
  148SOL    HW2  444   1.635   1.423   3.147 -1.9895 -0.2565 -1.4087
  149SOL     OW  445   0.708   1.401   1.980 -0.6321 -0.3173  0.1396
  149SOL    HW1  446   0.612   1.396   2.017  0.6850 -2.2899  2.2797
  149SOL    HW2  447   0.716   1.356   1.886 -1.5716  1.6125  0.4479
  150SOL     OW  448   3.020   1.237   0.943 -0.1020 -0.2159  0.0163
  150SOL    HW1  449   3.107   1.245   1.003  0.4490 -0.2370  1.2934
  150SOL    HW2  450   3.021   1.150   0.887 -1.8245 -1.9374 -0.6602
  151SOL     OW  451   0.194   0.728   2.142 -0.4490  0.4266 -0.6670
  151SOL    HW1  452   0.179   0.819   2.094  0.9014  0.7986 -0.4413
  151SOL    HW2  453   0.229   0.657   2.075 -0.2860 -1.5397  1.3903
  152SOL     OW  454   1.430   1.768   1.283  0.0078  0.1465  0.2669
  152SOL    HW1  455   1.430   1.861   1.324  0.2870 -3.3987  0.9595
  152SOL    HW2  456   1.345   1.750   1.227 -0.2853  1.0711 -1.3726
  153SOL     OW  457   0.024   1.515   0.157  0.5389  0.1417  0.2563
  153SOL    HW1  458   0.034   1.414   0.179 -0.2259  0.6104  0.1947
  153SOL    HW2  459   0.043   1.575   0.239 -0.6383  2.0731 -1.3308
  154SOL     OW  460   2.387   1.872   2.774  0.5796 -0.2588  0.2517
  154SOL    HW1  461   2.393   1.772   2.790 -0.4546  1.2192  1.0092
  154SOL    HW2  462   2.461   1.906   2.712 -0.3561 -1.1703 -1.5032
  155SOL     OW  463   2.475   1.204   0.397  0.3767 -0.2416 -0.6588
  155SOL    HW1  464   2.558   1.212   0.333  1.5281  1.7510  0.5223
  155SOL    HW2  465   2.388   1.201   0.338 -0.3734  1.3964 -1.2484
  156SOL     OW  466   2.523   0.971   0.872 -0.1404  0.1921 -0.2076
  156SOL    HW1  467   2.416   0.965   0.870 -1.3340  1.5095 -1.0182
  156SOL    HW2  468   2.554   1.053   0.818  1.7164  0.5785 -1.3161
  157SOL     OW  469   1.292   2.926   3.024 -0.3755  0.1441  0.2605
  157SOL    HW1  470   1.364   2.904   2.946 -1.2567 -0.4043 -2.8691
  157SOL    HW2  471   1.290   3.030   3.041  1.3713 -1.3787  0.7595
  158SOL     OW  472   1.011   1.826   1.891 -0.1509  0.2806 -0.4546
  158SOL    HW1  473   1.038   1.926   1.868  0.5282  1.3548  2.0291
  158SOL    HW2  474   0.919   1.822   1.939 -1.3305 -1.0304  3.3330
  159SOL     OW  475   0.826   0.437   1.203  0.2868 -0.4676  0.4655
  159SOL    HW1  476   0.806   0.519   1.264  1.4703 -0.9748 -0.3418
  159SOL    HW2  477   0.745   0.413   1.146 -2.0971 -0.2682  0.2281
  160SOL     OW  478   1.403   2.309   1.575  0.2095  0.4769 -0.4596
  160SOL    HW1  479   1.380   2.308   1.675 -0.8743 -1.2219  0.4286
  160SOL    HW2  480   1.508   2.297   1.557  0.7776 -0.9706  0.9988
  161SOL     OW  481   0.093   2.947   0.300 -0.5239  0.1234  0.5859
  161SOL    HW1  482  -0.012   2.934   0.296  0.0072  0.5675 -0.1636
  161SOL    HW2  483   0.118   3.013   0.226 -3.7006  0.6263  2.9740
  162SOL     OW  484   2.528   1.899   0.480  0.7014 -0.3484  0.5570
  162SOL    HW1  485   2.540   1.844   0.395  3.2184 -0.9123 -1.6292
  162SOL    HW2  486   2.525   1.833   0.560  3.8850 -0.1057  0.9214
  163SOL     OW  487   1.900   2.838   0.720  0.0065  0.5238  0.4681
  163SOL    HW1  488   1.906   2.856   0.619  0.1002  2.2754  1.7420
  163SOL    HW2  489   1.962   2.761   0.751 -1.2131  0.7666 -2.4644
  164SOL     OW  490   3.062   0.254   1.215 -0.1573  0.5373  0.4292
  164SOL    HW1  491   3.116   0.340   1.187 -1.1501 -2.2094 -1.1441
  164SOL    HW2  492   3.108   0.195   1.292  0.6882  0.3333  0.1061
  165SOL     OW  493   0.969   1.454   0.745  0.4786  0.0207 -0.0475
  165SOL    HW1  494   0.894   1.475   0.807 -2.1843  3.1529 -1.9388
  165SOL    HW2  495   0.953   1.496   0.650 -1.5335 -1.4595 -0.0542
  166SOL     OW  496   1.494   1.078   1.745 -0.0452 -0.5525  0.5886
  166SOL    HW1  497   1.416   1.038   1.799  0.6403  0.2063 -0.3354
  166SOL    HW2  498   1.548   1.158   1.783  0.0348 -1.8696  0.2404
  167SOL     OW  499   0.721   1.935   1.453  0.0922  0.2731 -0.0299
  167SOL    HW1  500   0.703   1.995   1.533 -1.1389  1.0912 -1.9225
  167SOL    HW2  501   0.703   1.833   1.476 -3.2757  2.0356 -0.7706
  168SOL     OW  502   1.647   2.391   0.137  0.3881  0.1878 -0.0599
  168SOL    HW1  503   1.701   2.418   0.050 -0.7597 -0.2976 -1.2809
  168SOL    HW2  504   1.691   2.376   0.229  0.6519 -0.1881 -1.7548
  169SOL     OW  505   0.188   2.547   2.243  0.6583 -0.0407  0.6436
  169SOL    HW1  506   0.189   2.509   2.144 -0.5168 -1.9366  0.3793
  169SOL    HW2  507   0.239   2.498   2.315 -0.5070  1.6470  0.8367
  170SOL     OW  508   1.125   0.242   2.004  0.2206 -0.1091  0.3135
  170SOL    HW1  509   1.203   0.227   2.069  0.9369 -1.3525 -1.3859
  170SOL    HW2  510   1.149   0.190   1.918 -0.4432 -0.5205  2.7504
  171SOL     OW  511   0.196   0.773   2.415 -0.4340  0.1562  0.0053
  171SOL    HW1  512   0.110   0.816   2.457 -0.9713  1.1411  0.2779
  171SOL    HW2  513   0.188   0.774   2.307 -4.3092  0.6752 -0.6090
  172SOL     OW  514   0.913   1.024   2.912  0.4809 -0.4526 -0.0719
  172SOL    HW1  515   0.974   1.103   2.940 -1.0818  0.7327 -2.0138
  172SOL    HW2  516   0.889   1.028   2.811  0.4350 -1.7073 -0.8398
  173SOL     OW  517   0.645   2.688   0.133  0.6062 -0.0422  0.4200
  173SOL    HW1  518   0.650   2.785   0.123  2.0397 -0.8644  1.2162
  173SOL    HW2  519   0.551   2.650   0.127 -2.0620  1.0139  0.5762
  174SOL     OW  520   1.464   2.843   1.077  0.6513  0.0984 -0.5654
  174SOL    HW1  521   1.437   2.919   1.016 -1.5445 -0.1085  0.3884
  174SOL    HW2  522   1.456   2.746   1.034 -3.5177 -0.5861 -0.0069
  175SOL     OW  523   0.400   0.000   1.638  0.6061 -0.2357 -0.8762
  175SOL    HW1  524   0.448   0.043   1.717 -2.0649 -0.8030  0.1210
  175SOL    HW2  525   0.371   0.075   1.570 -0.1358  0.0254  0.9423
  176SOL     OW  526   2.613   0.397  -0.001  0.0794 -0.1519 -0.0672
  176SOL    HW1  527   2.590   0.487   0.045  1.3096  2.8844 -1.2457
  176SOL    HW2  528   2.558   0.324   0.047  3.0452  2.5314  2.3242
  177SOL     OW  529   0.356   0.306   1.011 -0.2624 -0.0388 -0.2755
  177SOL    HW1  530   0.317   0.213   1.002  0.5638  1.0229  1.6309
  177SOL    HW2  531   0.300   0.362   1.071  1.4553  0.2179 -3.0457
  178SOL     OW  532   3.083   2.706   2.591  0.4206  0.9224 -0.5487
  178SOL    HW1  533   3.020   2.634   2.633 -1.2885  1.3331  0.7460
  178SOL    HW2  534   3.173   2.711   2.643 -0.4387  0.0002 -1.5209
  179SOL     OW  535   3.100   1.627   1.155 -0.2207 -0.2269 -0.6538
  179SOL    HW1  536   3.038   1.708   1.177 -5.0731 -0.2499 -0.2044
  179SOL    HW2  537   3.090   1.564   1.235  3.0184  1.6464 -1.8587
  180SOL     OW  538   0.193   1.221   1.864 -0.6612  0.0345  0.1488
  180SOL    HW1  539   0.299   1.222   1.872  0.4253  0.2610 -0.9182
  180SOL    HW2  540   0.154   1.307   1.896 -0.6382 -0.5954  2.6546
  181SOL     OW  541   3.013   1.847   2.501  0.7315 -0.0486  0.2610
  181SOL    HW1  542   3.069   1.935   2.474 -1.4298  2.7334  0.7446
  181SOL    HW2  543   2.918   1.851   2.458 -0.4167 -1.4184  0.6124
  182SOL     OW  544   2.245   1.307   1.173 -0.0664 -0.0277 -0.4301
  182SOL    HW1  545   2.166   1.271   1.115 -0.0952  1.0877 -0.1653
  182SOL    HW2  546   2.260   1.412   1.166  1.5968  1.2877  1.3571
  183SOL     OW  547   1.486   2.224   2.572 -0.0550  0.1445  0.4845
  183SOL    HW1  548   1.390   2.180   2.572 -1.3587 -0.6890  1.2935
  183SOL    HW2  549   1.564   2.154   2.560 -4.2357  0.2647  1.9623
  184SOL     OW  550   2.048   0.840   0.778 -0.6942 -0.2057 -0.4187
  184SOL    HW1  551   1.999   0.930   0.779  1.3140  1.0802 -1.2949
  184SOL    HW2  552   2.018   0.778   0.853 -0.7432  1.3958 -0.0672
  185SOL     OW  553   1.611   2.779   2.065  0.6699 -0.2849 -0.0358
  185SOL    HW1  554   1.541   2.845   2.024 -0.3633 -2.4430 -4.6450
  185SOL    HW2  555   1.630   2.803   2.165  0.2635  1.6871 -0.5944
  186SOL     OW  556   0.107   2.191   1.648 -0.5387 -0.0329 -0.5930
  186SOL    HW1  557   0.077   2.236   1.736 -0.0322  0.0163 -0.9615
  186SOL    HW2  558   0.182   2.122   1.676  1.6395 -1.7904  0.6528
  187SOL     OW  559   1.302   0.769   1.667 -0.2387  0.2182  0.1731
  187SOL    HW1  560   1.385   0.769   1.601  0.5471 -0.3740 -1.9736
  187SOL    HW2  561   1.327   0.731   1.763 -1.6757 -1.1238  0.3265
  188SOL     OW  562   2.754   2.789   1.431  0.0907  0.3037 -0.2847
  188SOL    HW1  563   2.755   2.892   1.434  2.5266 -0.3653  1.1325
  188SOL    HW2  564   2.671   2.753   1.375 -1.1917 -0.0401 -0.8796
  189SOL     OW  565   0.937   1.211   1.402  0.4880 -0.3297  0.0725
  189SOL    HW1  566   1.008   1.250   1.471 -0.8255 -1.0701 -2.4001
  189SOL    HW2  567   0.848   1.261   1.395  1.7557 -1.6519  1.6053
  190SOL     OW  568   1.466   1.896   1.588  0.0185 -0.3679 -0.0105
  190SOL    HW1  569   1.419   1.803   1.584 -0.5728  0.1225  0.3318
  190SOL    HW2  570   1.439   1.960   1.666 -0.5212 -1.1147  2.7674
  191SOL     OW  571   0.968   0.743   1.563  0.0680 -0.7437  0.5732
  191SOL    HW1  572   1.066   0.703   1.561  1.4389  0.2039 -0.9304
  191SOL    HW2  573   0.972   0.845   1.588 -0.6648  1.5845  0.1889
  192SOL     OW  574   1.870   2.257   1.119  0.1236 -0.2790  0.2031
  192SOL    HW1  575   1.769   2.279   1.100  1.1988 -0.6379  0.3013
  192SOL    HW2  576   1.936   2.314   1.063  0.6993 -1.2952  0.8056
  193SOL     OW  577   0.583   0.584   0.461  0.1766 -0.4066  0.4932
  193SOL    HW1  578   0.520   0.499   0.476  0.1706  2.6407  0.6482
  193SOL    HW2  579   0.622   0.592   0.365  0.5589 -2.7685 -1.9979
  194SOL     OW  580   0.337   0.856   1.288 -0.2721  0.4164 -0.1853
  194SOL    HW1  581   0.320   0.754   1.283 -1.9464 -1.7675 -0.4538
  194SOL    HW2  582   0.337   0.906   1.197  1.9025  0.2006  0.5870
  195SOL     OW  583   1.014   2.889   0.544 -0.2656 -0.6034 -0.0123
  195SOL    HW1  584   0.980   2.801   0.514  1.2240  1.1537 -1.1511
  195SOL    HW2  585   1.113   2.893   0.566 -0.1163 -0.0383  2.2171
  196SOL     OW  586   0.220   1.340   1.371 -0.3025 -0.6464 -0.1751
  196SOL    HW1  587   0.244   1.433   1.414 -1.0907 -0.8078  0.0141
  196SOL    HW2  588   0.190   1.269   1.441 -1.3345 -0.2855 -0.7486
  197SOL     OW  589   0.827   2.040   0.233 -0.3267  0.3548  0.0178
  197SOL    HW1  590   0.821   2.039   0.338  0.5469  1.0866  0.3725
  197SOL    HW2  591   0.887   1.963   0.191  0.2499 -0.2756 -1.2973
  198SOL     OW  592   0.303   1.242   0.223 -0.2898 -0.0417  0.3765
  198SOL    HW1  593   0.202   1.233   0.199  1.4743 -0.3821 -1.1966
  198SOL    HW2  594   0.325   1.330   0.273 -1.4665  4.0302  2.0446
  199SOL     OW  595   2.229   0.381   2.546 -0.0388 -0.6366 -0.2602
  199SOL    HW1  596   2.162   0.325   2.608  1.0119  2.1575 -1.1615
  199SOL    HW2  597   2.326   0.376   2.579 -0.1697 -1.7905  0.1716
  200SOL     OW  598   0.026   2.949   0.746 -0.3038  0.0556  0.0897
  200SOL    HW1  599  -0.057   2.935   0.686  2.2801  0.1052  1.5611
  200SOL    HW2  600   0.011   3.017   0.822  0.8525 -1.4942  0.7055
  201SOL     OW  601   1.094   0.768   0.624 -0.9512 -0.4136 -0.3398
  201SOL    HW1  602   1.098   0.801   0.720  0.9672 -0.2665 -1.0548
  201SOL    HW2  603   1.020   0.706   0.607  0.9258  0.5856 -1.8468
  202SOL     OW  604   0.471   1.161   1.836 -0.7659 -0.3454  0.2781
  202SOL    HW1  605   0.535   1.113   1.770  0.3549 -2.2604  3.0405
  202SOL    HW2  606   0.494   1.132   1.936 -0.8911 -1.9953  2.8971
  203SOL     OW  607   0.658   0.206   1.552 -0.4463 -0.4051 -0.5810
  203SOL    HW1  608   0.738   0.185   1.489  1.2003 -0.3769  0.5013
  203SOL    HW2  609   0.687   0.202   1.655  1.9640  1.9842  0.3098
  204SOL     OW  610   2.058   1.862   2.932  0.1260 -0.3627 -0.0753
  204SOL    HW1  611   2.074   1.762   2.951  5.1095 -2.2448 -1.7589
  204SOL    HW2  612   2.090   1.884   2.834  0.4064 -1.1294 -0.6056
  205SOL     OW  613   1.824   1.871   3.062  0.3697 -0.6066 -0.0125
  205SOL    HW1  614   1.917   1.873   3.021  0.5723  1.3269  0.9649
  205SOL    HW2  615   1.778   1.966   3.057 -1.2883  1.2243 -2.8641
  206SOL     OW  616   2.498   2.791   0.322  0.1705 -0.0751 -0.1151
  206SOL    HW1  617   2.567   2.715   0.350  0.4787  0.2827  0.1926
  206SOL    HW2  618   2.532   2.853   0.246  0.4431  1.0800  2.5141
  207SOL     OW  619   0.637   1.799   2.965  0.1535 -0.0533  0.1736
  207SOL    HW1  620   0.715   1.746   2.919  2.1327  1.5270  1.0585
  207SOL    HW2  621   0.594   1.742   3.043  1.2235  1.1386  0.3059
  208SOL     OW  622   1.123   1.571   1.400 -0.2829  0.0734 -0.7542
  208SOL    HW1  623   1.155   1.619   1.312  1.0652  1.3297  0.1950
  208SOL    HW2  624   1.188   1.591   1.482  0.4326 -3.3701  0.3339
  209SOL     OW  625   0.243   0.962   3.079 -0.4070 -0.1466  0.2774
  209SOL    HW1  626   0.237   0.891   3.006 -2.2211  0.4055  0.1170
  209SOL    HW2  627   0.238   0.919   3.174 -2.7342 -2.6594 -1.0755
  210SOL     OW  628   1.792   0.541   1.183  0.0284 -0.0962 -0.0389
  210SOL    HW1  629   1.720   0.599   1.139  2.5110 -1.5111  1.3773
  210SOL    HW2  630   1.889   0.544   1.140  0.9166  0.1519 -0.0276
  211SOL     OW  631   2.160   1.023   1.565  0.3061 -0.2699  0.4924
  211SOL    HW1  632   2.209   0.968   1.637  0.0391  1.3118 -0.4879
  211SOL    HW2  633   2.212   1.105   1.522  0.2383 -0.2703 -0.4925
  212SOL     OW  634   0.015   0.964   1.474 -0.0548  0.0871  0.1687
  212SOL    HW1  635   0.059   1.040   1.530 -0.0827 -1.2645 -0.8959
  212SOL    HW2  636  -0.010   0.882   1.536 -0.3429 -1.4846 -2.4540
  213SOL     OW  637   2.839   0.285   0.376  0.5930 -1.1495 -0.3385
  213SOL    HW1  638   2.873   0.219   0.300  1.2598 -1.9918  1.9905
  213SOL    HW2  639   2.758   0.352   0.343  0.1692  0.1824  1.7801
  214SOL     OW  640   2.174   0.240   2.306 -0.3300  0.0599  0.0559
  214SOL    HW1  641   2.195   0.311   2.378  1.1617 -0.2345  0.3679
  214SOL    HW2  642   2.153   0.141   2.333  0.5833 -0.9606 -0.0244
  215SOL     OW  643   1.621   2.277   2.138 -0.1316 -0.1195  0.2523
  215SOL    HW1  644   1.716   2.310   2.105  1.0579  1.2654  0.7498
  215SOL    HW2  645   1.558   2.350   2.172  0.1710 -0.8375 -1.8895
  216SOL     OW  646   2.191   0.661   0.645 -0.0269  0.2063 -0.1246
  216SOL    HW1  647   2.156   0.566   0.611  0.3580 -1.1452  0.6819
  216SOL    HW2  648   2.119   0.725   0.679  2.0446  1.4132  1.3040
  217SOL     OW  649   0.765   2.794   2.438 -0.1187  0.1492 -0.2883
  217SOL    HW1  650   0.763   2.692   2.462  1.1691 -0.6248 -0.5409
  217SOL    HW2  651   0.779   2.802   2.334  1.2104  1.6486 -1.5163
  218SOL     OW  652   1.920   1.441   0.042  0.2253  0.0899 -0.6944
  218SOL    HW1  653   1.821   1.469   0.025 -0.9647 -0.1195  2.2693
  218SOL    HW2  654   1.922   1.336   0.071 -0.9471 -0.4689 -1.5828
  219SOL     OW  655   2.367   1.289   2.532  0.2025  0.6454 -0.2105
  219SOL    HW1  656   2.403   1.230   2.460 -0.5151  1.3381  0.5148
  219SOL    HW2  657   2.332   1.236   2.615  1.4258  0.4758  0.2940
  220SOL     OW  658   1.527   1.058   1.235  0.0214  0.1992 -0.0743
  220SOL    HW1  659   1.631   1.073   1.245  0.2794 -0.4027  1.5234
  220SOL    HW2  660   1.500   1.084   1.138  1.0330  0.2908  0.7071
  221SOL     OW  661   1.357   0.974   2.217 -0.0219  0.2273  0.0411
  221SOL    HW1  662   1.310   0.995   2.126 -1.5860  0.3817 -2.6318
  221SOL    HW2  663   1.459   0.954   2.207  0.2561 -2.1423  0.8947
  222SOL     OW  664   1.137   0.015   1.181 -0.7698  0.0117 -0.3845
  222SOL    HW1  665   1.219   0.029   1.242  1.2661  2.7308 -2.4964
  222SOL    HW2  666   1.156   0.069   1.091  0.8939 -2.1796 -0.4645
  223SOL     OW  667   2.731   0.888   2.015  0.3234  0.3160  0.2501
  223SOL    HW1  668   2.697   0.890   2.114 -0.7367  0.8025 -0.0294
  223SOL    HW2  669   2.793   0.965   1.994 -0.7647 -0.6160 -0.7458
  224SOL     OW  670   1.544   1.016   2.772 -0.5135  0.0849  0.4643
  224SOL    HW1  671   1.587   0.944   2.711 -0.0411 -1.9455 -0.7333
  224SOL    HW2  672   1.470   1.070   2.718 -0.4822 -1.6775  2.4212
  225SOL     OW  673   2.915   2.781   2.875  0.2344 -0.3658 -0.2541
  225SOL    HW1  674   2.903   2.690   2.823  2.4448 -2.0013  0.0353
  225SOL    HW2  675   3.001   2.828   2.836  0.0765  0.6173 -1.2202
  226SOL     OW  676   2.416   1.585   2.812  0.3594 -0.3756  0.6913
  226SOL    HW1  677   2.491   1.544   2.749  2.2062 -2.3993 -0.6582
  226SOL    HW2  678   2.358   1.519   2.859  0.5949  1.0590 -1.1914
  227SOL     OW  679   0.822   0.150   3.070  0.0434  0.2143  1.1144
  227SOL    HW1  680   0.828   0.060   3.122  2.8535 -0.5635 -3.3421
  227SOL    HW2  681   0.823   0.132   2.967  1.2964 -0.4693  2.1766
  228SOL     OW  682   2.400   0.614   2.860 -0.0027  0.8150 -0.3066
  228SOL    HW1  683   2.336   0.617   2.774 -3.9731 -1.3548 -1.4693
  228SOL    HW2  684   2.480   0.548   2.844 -1.5069  0.1533 -1.1130
  229SOL     OW  685   0.633   0.413   1.869  0.2356 -0.3524 -1.1647
  229SOL    HW1  686   0.616   0.315   1.856  0.1093 -0.0122  2.9969
  229SOL    HW2  687   0.649   0.456   1.780  1.5044  1.9938 -0.6751
  230SOL     OW  688   1.898   1.146   2.115 -1.1804  0.0916 -0.3438
  230SOL    HW1  689   1.974   1.215   2.075  3.0294  1.3481  0.7271
  230SOL    HW2  690   1.799   1.186   2.124 -1.7823  0.0463 -0.4800
  231SOL     OW  691   0.683   1.008   3.024  0.0098  0.3632  0.8030
  231SOL    HW1  692   0.780   1.023   2.983 -0.2674  0.1527 -2.2641
  231SOL    HW2  693   0.626   1.097   3.028 -1.0081  1.7246 -1.3225
  232SOL     OW  694   2.375   0.005   2.824 -0.6129 -0.0920  0.4233
  232SOL    HW1  695   2.432  -0.078   2.849 -2.3884  0.1566  0.2465
  232SOL    HW2  696   2.405   0.046   2.731  1.2993 -0.3231 -0.2743
  233SOL     OW  697   1.724   1.291   1.145 -0.2735 -0.1637 -0.0682
  233SOL    HW1  698   1.737   1.296   1.041 -0.5270  1.7670  0.5334
  233SOL    HW2  699   1.784   1.220   1.192 -0.7468  2.6088 -3.2835
  234SOL     OW  700   1.604   2.600   1.852 -0.1744 -0.1329 -0.6298
  234SOL    HW1  701   1.630   2.663   1.935 -0.3323 -2.5825  0.7561
  234SOL    HW2  702   1.536   2.528   1.876 -2.4406  1.7421  0.2972
  235SOL     OW  703   0.017   2.980   2.870 -0.5194  0.0353  0.0843
  235SOL    HW1  704   0.037   3.044   2.792 -1.7456 -0.8312  0.2310
  235SOL    HW2  705  -0.049   3.032   2.932 -0.6607 -2.8207 -0.6004
  236SOL     OW  706   2.910   0.730   0.074  0.7792 -0.5592 -0.4621
  236SOL    HW1  707   2.968   0.791   0.140  1.8779 -0.2888  0.0020
  236SOL    HW2  708   2.964   0.649   0.036  2.4006 -0.3872  1.8853
  237SOL     OW  709   1.514   1.717   1.027  0.5262 -0.0449 -0.0980
  237SOL    HW1  710   1.605   1.680   1.006  0.5805 -0.8854  2.6445
  237SOL    HW2  711   1.507   1.742   1.129 -0.9127  1.0547  0.8023
  238SOL     OW  712   1.758   1.288   0.876 -0.1887  0.1343 -0.2412
  238SOL    HW1  713   1.836   1.354   0.893 -2.6154 -3.2732  1.9952
  238SOL    HW2  714   1.686   1.328   0.814  2.5987  0.2119 -2.3088
  239SOL     OW  715   2.051   0.259   2.724  0.2418  0.5256 -0.9671
  239SOL    HW1  716   2.111   0.234   2.805 -0.3391  1.0128 -1.4671
  239SOL    HW2  717   1.994   0.339   2.750  0.0175 -2.9949  0.0104
  240SOL     OW  718   0.917   0.628   0.341 -1.0797  0.0631 -0.5254
  240SOL    HW1  719   0.948   0.535   0.306  0.9764 -3.2952  1.2260
  240SOL    HW2  720   0.913   0.628   0.446  0.9933 -2.8052  0.6895
  241SOL     OW  721   0.607   0.107   0.365 -0.2657  0.2458  0.5983
  241SOL    HW1  722   0.647   0.181   0.298 -2.0418 -1.9070 -0.5417
  241SOL    HW2  723   0.592   0.020   0.306  0.1809 -2.3601 -2.1332
  242SOL     OW  724   0.663   2.524   1.114 -0.1744 -0.1281 -0.1370
  242SOL    HW1  725   0.622   2.548   1.209 -0.5398 -1.4325  0.8129
  242SOL    HW2  726   0.742   2.590   1.085  0.6538  0.2096 -0.7696
  243SOL     OW  727   1.082   0.581   2.490  0.2150 -0.0360 -0.1273
  243SOL    HW1  728   1.006   0.640   2.459  0.2990 -0.5122  3.6797
  243SOL    HW2  729   1.067   0.543   2.587  0.8254  3.3354  1.9581
  244SOL     OW  730   2.787   1.900   2.320 -0.0251 -0.1065 -0.4538
  244SOL    HW1  731   2.845   1.839   2.256  1.3755 -3.6991 -2.2976
  244SOL    HW2  732   2.706   1.854   2.356 -0.5719 -0.4112 -1.1864
  245SOL     OW  733   2.382   0.667   2.218 -0.8597  0.2788 -0.0894
  245SOL    HW1  734   2.455   0.714   2.277  0.6174 -0.4424  1.6503
  245SOL    HW2  735   2.423   0.577   2.186 -0.5166  2.4412  0.9928
  246SOL     OW  736   0.211   2.907   1.693 -0.4681  0.0557  0.1635
  246SOL    HW1  737   0.144   2.871   1.623 -1.3101 -1.8196  0.0296
  246SOL    HW2  738   0.269   2.989   1.659  1.4573  1.4008  0.4535
  247SOL     OW  739   2.144   0.576   3.043  0.0603  0.4162  0.1468
  247SOL    HW1  740   2.213   0.581   2.962  1.2028 -0.9907 -3.3740
  247SOL    HW2  741   2.127   0.676   3.084  1.5770  2.8741 -1.0870
  248SOL     OW  742   2.149   1.840   1.583  0.4860  0.2202  0.3826
  248SOL    HW1  743   2.232   1.793   1.633  1.2124 -0.8765  1.0728
  248SOL    HW2  744   2.058   1.815   1.626 -0.5949 -1.0239  1.3464
  249SOL     OW  745   1.861   1.900   1.919 -0.6452  0.3354 -0.1036
  249SOL    HW1  746   1.862   1.843   1.834  1.6785 -0.1273  0.7681
  249SOL    HW2  747   1.928   1.979   1.912  0.8173  2.2637  0.5866
  250SOL     OW  748   1.130   0.708   1.941  0.1183 -0.0423  0.9784
  250SOL    HW1  749   1.175   0.617   1.961  0.2271  0.7077  0.6435
  250SOL    HW2  750   1.056   0.710   1.869  0.3808  0.4762  0.4559
  251SOL     OW  751   0.013   1.565   2.517  0.0263 -0.0379 -0.3710
  251SOL    HW1  752  -0.002   1.665   2.483  3.4212  2.2275 -0.5312
  251SOL    HW2  753  -0.080   1.519   2.531 -0.0940 -1.6974 -0.1989
  252SOL     OW  754   1.525   0.861   1.546 -0.7149 -0.4758 -0.3960
  252SOL    HW1  755   1.619   0.851   1.506  2.7462  0.4312  1.9513
  252SOL    HW2  756   1.520   0.932   1.626  0.6094  0.0907  2.1836
  253SOL     OW  757   0.879   1.532   0.494  0.8298 -0.1715  0.5111
  253SOL    HW1  758   0.927   1.443   0.452  1.1992 -2.2225  1.1713
  253SOL    HW2  759   0.787   1.542   0.459  1.4650  0.7323 -1.0628
  254SOL     OW  760   2.024   2.148   1.610 -0.0093  0.4416  0.2974
  254SOL    HW1  761   2.010   2.049   1.586 -0.4525 -0.3220 -0.9900
  254SOL    HW2  762   1.944   2.180   1.672 -3.2704  0.3298 -0.5576
  255SOL     OW  763   0.126   1.158   2.884  0.2805  0.0284 -0.6052
  255SOL    HW1  764   0.179   1.246   2.858 -0.2718 -1.2160 -0.9312
  255SOL    HW2  765   0.172   1.094   2.958  0.2878 -1.8436 -0.3217
  256SOL     OW  766   2.801   1.367   1.747  0.1030  0.0102  0.1847
  256SOL    HW1  767   2.718   1.428   1.748  0.0328  1.0467  0.4118
  256SOL    HW2  768   2.778   1.266   1.723  0.6588 -0.9207  0.9206
  257SOL     OW  769   0.813   0.212   1.796 -0.3871  0.0151  0.0575
  257SOL    HW1  770   0.864   0.295   1.754  0.5820 -2.5902  2.5142
  257SOL    HW2  771   0.880   0.136   1.822 -1.0536  0.6753 -1.1115
  258SOL     OW  772   2.926   1.283   0.464  0.2386 -0.4091 -0.6939
  258SOL    HW1  773   2.840   1.342   0.480  1.2347 -0.9897  2.0201
  258SOL    HW2  774   2.998   1.292   0.536 -2.4976 -0.3898  0.7387
  259SOL     OW  775   0.473   2.966   3.038  0.1077 -0.0466  0.2222
  259SOL    HW1  776   0.385   2.919   3.080 -1.1319  0.5250  0.2918
  259SOL    HW2  777   0.500   2.922   2.952 -0.8389  1.6136  2.4668
  260SOL     OW  778   2.757   0.846   2.766 -0.4483  0.1924  0.0808
  260SOL    HW1  779   2.668   0.795   2.756 -0.7556  0.9649  1.9292
  260SOL    HW2  780   2.794   0.858   2.865 -2.3289 -0.9792  5.3332
  261SOL     OW  781   2.748   1.307   1.295  0.2915  0.0719 -0.2039
  261SOL    HW1  782   2.666   1.282   1.232  1.5875 -2.4316 -0.5223
  261SOL    HW2  783   2.801   1.223   1.312 -1.0591  2.7626  2.0357
  262SOL     OW  784   1.426   2.983   2.029 -0.1883  0.0335 -0.5153
  262SOL    HW1  785   1.455   3.067   1.974 -2.2419 -0.5734 -2.6084
  262SOL    HW2  786   1.325   2.963   2.016 -2.7734 -0.1024 -0.5907
  263SOL     OW  787   0.871   0.703   2.342 -0.3322  0.5586 -0.0443
  263SOL    HW1  788   0.844   0.616   2.292  0.4783 -0.8033 -2.3412
  263SOL    HW2  789   0.888   0.774   2.267  0.1009 -0.8824 -4.5145
  264SOL     OW  790   2.193   0.841   0.326  0.1885  0.0287  0.8148
  264SOL    HW1  791   2.177   0.753   0.367  2.1586  1.5509 -1.1956
  264SOL    HW2  792   2.288   0.862   0.313 -1.4197  2.6312 -1.9134
  265SOL     OW  793   0.901   2.357   2.676  0.1961  0.9718 -0.2837
  265SOL    HW1  794   0.981   2.399   2.723  0.0649  1.0534  0.3972
  265SOL    HW2  795   0.888   2.256   2.708 -0.7799 -2.7374  1.0166
  266SOL     OW  796   1.337   1.696   0.005  0.2710 -0.5682 -0.3708
  266SOL    HW1  797   1.317   1.773   0.069  0.5377  0.2038 -0.1872
  266SOL    HW2  798   1.426   1.700  -0.043 -1.0010  0.9884 -0.3575
  267SOL     OW  799   0.958   3.034   2.360 -0.0912  0.4519 -0.0628
  267SOL    HW1  800   0.980   2.977   2.275  0.9284  0.3010  0.4637
  267SOL    HW2  801   0.900   3.118   2.336 -2.4802 -3.0634 -0.0691
  268SOL     OW  802   0.677   1.176   1.075 -0.2920  0.9743 -0.6312
  268SOL    HW1  803   0.681   1.231   1.159 -1.0437  2.5191 -1.9713
  268SOL    HW2  804   0.669   1.237   0.989 -0.4656  2.0537  1.2095
  269SOL     OW  805   2.381   2.521   1.552 -0.1166  0.1465  0.4152
  269SOL    HW1  806   2.465   2.469   1.575  0.6663  2.1103 -1.2268
  269SOL    HW2  807   2.334   2.554   1.636 -1.8848 -0.5691 -0.2556
  270SOL     OW  808   0.168   2.991   1.943  0.3987 -0.3205  0.6610
  270SOL    HW1  809   0.189   2.971   1.844  1.3012 -0.9781  0.1199
  270SOL    HW2  810   0.136   2.909   1.995 -2.5501  0.6559  0.0349
  271SOL     OW  811   0.409   1.368   1.169  0.3433  0.0840 -0.2341
  271SOL    HW1  812   0.363   1.360   1.079 -0.8835 -0.1113  0.0726
  271SOL    HW2  813   0.349   1.338   1.244  2.4843  0.3465  0.9360
  272SOL     OW  814   1.967   2.859   1.929  0.6701  0.1729 -0.1909
  272SOL    HW1  815   1.913   2.801   1.871  2.0629  0.4730 -0.3893
  272SOL    HW2  816   2.031   2.926   1.881  1.1779 -1.1759  1.7127
  273SOL     OW  817   1.458   1.442   2.770  0.0472 -0.3179  0.0180
  273SOL    HW1  818   1.366   1.483   2.792  1.6822 -0.0850  0.9407
  273SOL    HW2  819   1.496   1.386   2.847 -2.1149 -0.0912 -2.1461
  274SOL     OW  820   1.248   0.474   2.012 -0.5743  0.1608  0.1680
  274SOL    HW1  821   1.194   0.385   2.011 -1.2038 -1.5986 -2.9993
  274SOL    HW2  822   1.281   0.501   2.102  0.5373  0.2923 -1.0898
  275SOL     OW  823   0.599   2.099   1.871 -0.5956 -0.1943  0.5922
  275SOL    HW1  824   0.563   2.184   1.918  2.0665 -0.4163  0.5793
  275SOL    HW2  825   0.546   2.018   1.893  1.6249 -2.3810  0.7495
  276SOL     OW  826   2.168   0.886   2.786  0.0797 -0.4726 -0.5396
  276SOL    HW1  827   2.125   0.870   2.696  2.2788 -0.0486 -3.1878
  276SOL    HW2  828   2.117   0.835   2.862 -0.1526 -2.4171 -2.1886
  277SOL     OW  829   3.082   0.877   0.228 -0.2689  0.4671 -0.3594
  277SOL    HW1  830   3.181   0.902   0.211 -1.1489  1.9481  0.0439
  277SOL    HW2  831   3.076   0.832   0.321 -1.2123  0.6877 -0.1462
  278SOL     OW  832   0.232   0.286   0.014 -0.0568 -0.3042 -0.3052
  278SOL    HW1  833   0.322   0.242  -0.001  1.2821  3.7588  2.6101
  278SOL    HW2  834   0.241   0.389   0.007 -1.7610  2.2972 -2.6156
  279SOL     OW  835   0.164   0.080   0.884  0.3070 -0.3981 -0.1369
  279SOL    HW1  836   0.165   0.036   0.976 -0.1640 -3.8936 -2.7728
  279SOL    HW2  837   0.235   0.041   0.816 -0.3228  0.2187 -3.7267
  280SOL     OW  838   1.569   2.952   2.474  0.2015  0.0533 -1.0196
  280SOL    HW1  839   1.641   3.006   2.529 -1.7341  1.5897  2.5725
  280SOL    HW2  840   1.487   3.016   2.461 -0.4069 -0.6544 -1.3231
  281SOL     OW  841   0.561   0.931   2.219 -0.0451 -0.0576 -0.4662
  281SOL    HW1  842   0.561   0.844   2.166 -2.8881  3.1239 -2.0459
  281SOL    HW2  843   0.502   0.927   2.305 -0.9736 -1.6050 -2.3986
  282SOL     OW  844   1.781   2.501   0.529  0.5110 -0.6347  0.6310
  282SOL    HW1  845   1.742   2.420   0.477  0.1999 -0.2504 -0.8739
  282SOL    HW2  846   1.738   2.593   0.506 -1.4232 -1.2473 -2.3262
  283SOL     OW  847   1.128   0.919   0.856  0.0487 -0.0113  0.6018
  283SOL    HW1  848   1.143   0.874   0.951 -0.9755 -0.1994  1.2695
  283SOL    HW2  849   1.067   1.004   0.874 -0.6041  2.0567 -1.2049
  284SOL     OW  850   2.371   2.701   2.460 -0.0101  0.3376  0.4650
  284SOL    HW1  851   2.406   2.755   2.382 -0.1194  0.0883 -1.8626
  284SOL    HW2  852   2.434   2.721   2.547 -0.5221  4.9710  3.8277
  285SOL     OW  853   1.305   3.029   2.570 -0.1652  0.2238  0.2758
  285SOL    HW1  854   1.320   3.056   2.474  2.2993  0.2730  0.1952
  285SOL    HW2  855   1.205   3.049   2.605 -3.9653  0.2617  0.5811
  286SOL     OW  856   0.453   0.467   0.780 -0.0452  0.2607 -0.0416
  286SOL    HW1  857   0.431   0.405   0.860  1.5117  1.2698 -0.0184
  286SOL    HW2  858   0.453   0.422   0.688  2.2613  2.2156  1.1791
  287SOL     OW  859   0.125   1.281   2.535 -0.1340 -0.0635 -0.4819
  287SOL    HW1  860   0.040   1.237   2.570 -0.8268  0.5399 -3.2129
  287SOL    HW2  861   0.111   1.386   2.562 -1.6136  1.7783  3.7719
  288SOL     OW  862   1.588   2.677   1.586  0.3944 -0.7641  0.6504
  288SOL    HW1  863   1.588   2.647   1.688 -1.6038 -0.5399 -1.7666
  288SOL    HW2  864   1.591   2.603   1.511  0.7544 -4.1456 -2.4710
  289SOL     OW  865   0.632   2.720   0.852  0.3068 -0.4422  0.5789
  289SOL    HW1  866   0.687   2.790   0.795  0.6211  0.3201  0.5268
  289SOL    HW2  867   0.586   2.760   0.931  0.9983 -0.7961 -0.7282
  290SOL     OW  868   2.784   1.101   1.697 -0.2398  0.1190 -0.3024
  290SOL    HW1  869   2.698   1.039   1.688 -0.5558 -3.2358 -0.3596
  290SOL    HW2  870   2.857   1.062   1.760  0.5945  0.1911  0.1708
  291SOL     OW  871   1.992   0.081   0.066  0.3220 -0.2277 -0.1465
  291SOL    HW1  872   2.015   0.041   0.160 -0.6690 -4.6203  0.4138
  291SOL    HW2  873   2.040   0.171   0.050 -2.3938 -0.4601 -1.9144
  292SOL     OW  874   3.010   1.193   3.052 -0.1473 -0.1992 -0.7462
  292SOL    HW1  875   2.927   1.241   3.017  0.1890 -2.5143 -2.8319
  292SOL    HW2  876   3.089   1.201   2.989 -1.3509 -1.2598  0.4626
  293SOL     OW  877   0.570   2.138   0.157 -0.0677 -0.5662  0.3927
  293SOL    HW1  878   0.532   2.201   0.233 -0.8625  3.8766  1.8218
  293SOL    HW2  879   0.662   2.091   0.183 -0.1415  1.1878  0.1967
  294SOL     OW  880   1.801   2.215   1.766  0.6499  0.6646 -0.0759
  294SOL    HW1  881   1.800   2.284   1.839  1.8805 -0.3147 -0.5216
  294SOL    HW2  882   1.745   2.234   1.682  1.4666 -1.3817 -3.5726
  295SOL     OW  883   0.984   1.039   0.517 -0.1609  0.3602 -0.0295
  295SOL    HW1  884   1.076   0.989   0.546  1.2046  0.4665 -0.2413
  295SOL    HW2  885   0.917   1.050   0.596 -3.4338 -0.5722  1.6205
  296SOL     OW  886   1.254   2.121   2.531 -0.3166  0.1933 -0.2852
  296SOL    HW1  887   1.213   2.148   2.443 -0.7831  0.3747  0.4981
  296SOL    HW2  888   1.231   2.019   2.559  1.9817 -1.3530  2.3788
  297SOL     OW  889   1.441   0.624   1.360 -0.0917 -0.0339 -0.2218
  297SOL    HW1  890   1.414   0.526   1.347 -0.9207  1.3828  1.1377
  297SOL    HW2  891   1.539   0.638   1.377  0.6975  2.1922 -0.7551
  298SOL     OW  892   0.542   1.375   2.971  0.6640  0.0456 -0.7351
  298SOL    HW1  893   0.510   1.287   3.025 -0.9796 -1.0387  2.6181
  298SOL    HW2  894   0.589   1.351   2.886 -0.7553  2.7377  0.6994
  299SOL     OW  895   0.511   0.282   1.298 -0.6885  0.1883 -0.1382
  299SOL    HW1  896   0.506   0.387   1.281  0.5708  3.2754 -0.7260
  299SOL    HW2  897   0.564   0.261   1.383  0.9678  1.3548  0.2402
  300SOL     OW  898   1.217   1.838   2.795 -0.6460 -0.7554 -0.5326
  300SOL    HW1  899   1.199   1.735   2.803  0.6113 -0.9480  0.2209
  300SOL    HW2  900   1.311   1.851   2.747  2.2072  0.6627 -1.5068
  301SOL     OW  901   0.453   0.344   0.499 -0.1983  0.5797 -0.2012
  301SOL    HW1  902   0.356   0.304   0.495  2.0916  1.5576  1.5365
  301SOL    HW2  903   0.529   0.280   0.469 -2.3338 -0.9340  0.8478
  302SOL     OW  904   1.231   2.464   2.351  0.2045  0.7937  0.0433
  302SOL    HW1  905   1.135   2.498   2.381 -1.5622  3.2591  2.8022
  302SOL    HW2  906   1.245   2.363   2.352 -3.1765  3.6008  1.4175
  303SOL     OW  907   0.961   2.378   0.839 -0.6939  0.5502  0.5104
  303SOL    HW1  908   1.018   2.411   0.756  0.6974  1.1428  0.1534
  303SOL    HW2  909   0.967   2.448   0.919  0.4992  2.5430  0.4494
  304SOL     OW  910   0.105   2.019   0.637 -0.5249 -0.3850 -0.0062
  304SOL    HW1  911   0.150   1.966   0.559 -1.3119 -2.7668  1.3833
  304SOL    HW2  912   0.029   2.072   0.593 -2.5184 -2.2342  0.7560
  305SOL     OW  913   1.647   0.921   0.569  0.2843 -0.6156  0.1945
  305SOL    HW1  914   1.580   0.904   0.487 -2.6344 -1.1463 -0.2202
  305SOL    HW2  915   1.678   0.827   0.605 -1.7505 -0.7606 -0.7236
  306SOL     OW  916   0.439   1.868   1.916 -0.0441  0.2165 -0.0622
  306SOL    HW1  917   0.492   1.773   1.905 -2.6923 -2.5027  2.3517
  306SOL    HW2  918   0.423   1.900   2.017 -0.1738  0.5265  1.3212
  307SOL     OW  919   3.067   0.912   2.513  0.9162  0.1530 -0.0596
  307SOL    HW1  920   3.053   0.988   2.578 -2.0780 -0.6774 -1.1623
  307SOL    HW2  921   2.995   0.839   2.517  1.8000  0.3218 -0.7250
  308SOL     OW  922   1.562   2.658   2.808  0.0936  0.3448 -0.5698
  308SOL    HW1  923   1.535   2.611   2.723  3.2683 -2.7168 -0.4716
  308SOL    HW2  924   1.514   2.612   2.889  1.3969 -2.0840  0.5208
  309SOL     OW  925   1.235   0.130   1.772  0.2524  0.7943  0.8317
  309SOL    HW1  926   1.330   0.095   1.780 -0.8888 -0.3595  0.1613
  309SOL    HW2  927   1.206   0.142   1.673 -0.9214  1.6102  0.8143
  310SOL     OW  928   1.512   2.541   0.675 -0.0480 -0.2167  0.4927
  310SOL    HW1  929   1.485   2.566   0.773 -0.7548  1.3163  1.2423
  310SOL    HW2  930   1.556   2.617   0.618  0.3351  0.9198 -1.1496
  311SOL     OW  931   1.173   1.011   1.626  0.4501  0.2095 -0.1963
  311SOL    HW1  932   1.221   0.918   1.647  3.2017  0.6740  2.0999
  311SOL    HW2  933   1.235   1.073   1.565  1.3261  0.8740 -0.3480
  312SOL     OW  934   1.608   0.686   1.062  0.4296  0.3710  0.1970
  312SOL    HW1  935   1.608   0.780   1.024 -0.9798  2.6684  0.4852
  312SOL    HW2  936   1.515   0.641   1.062 -0.0857 -0.8521  0.2145
  313SOL     OW  937   1.539   1.374   0.723 -0.1979  0.2544  0.9187
  313SOL    HW1  938   1.467   1.423   0.777 -2.2198 -0.9217 -1.6309
  313SOL    HW2  939   1.502   1.287   0.672 -3.9785 -0.1513  0.0862
  314SOL     OW  940   2.934   0.038   3.013  0.3288  0.3971 -0.6972
  314SOL    HW1  941   2.931   0.058   3.111  1.0947 -0.7970 -2.0831
  314SOL    HW2  942   2.858  -0.029   2.982  0.6301 -1.2137 -0.0259
  315SOL     OW  943   1.240   0.213   2.793 -0.4246 -0.1745 -0.4132
  315SOL    HW1  944   1.191   0.135   2.751 -1.1600 -1.2090 -1.3870
  315SOL    HW2  945   1.288   0.183   2.885  1.0198  0.7331  1.6087
  316SOL     OW  946   1.714   2.039   0.844 -0.2359 -0.3107 -0.2718
  316SOL    HW1  947   1.674   2.020   0.937  1.5621 -0.2065 -1.8363
  316SOL    HW2  948   1.711   2.142   0.824  1.4519  0.1664  1.0744
  317SOL     OW  949   1.115   0.650   2.882  0.1376 -0.2958  0.1702
  317SOL    HW1  950   1.080   0.684   2.974  0.8630  1.5316  1.3672
  317SOL    HW2  951   1.051   0.586   2.833  2.2810  4.6474 -1.2424
  318SOL     OW  952   1.355   3.088   2.312 -0.0407  0.3390  0.9008
  318SOL    HW1  953   1.332   3.184   2.279  0.5207 -0.2974  0.0974
  318SOL    HW2  954   1.396   3.026   2.236 -1.4082  1.1792 -4.0954
  319SOL     OW  955   0.727   2.428   2.920 -0.4574 -0.2466 -0.2121
  319SOL    HW1  956   0.647   2.381   2.970 -0.7225  1.1482  0.3179
  319SOL    HW2  957   0.816   2.392   2.951 -1.0678  0.1755 -0.6594
  320SOL     OW  958   1.715   2.269   0.403 -0.2156  0.1304  0.3895
  320SOL    HW1  959   1.787   2.198   0.369  2.1960 -3.6869 -0.1595
  320SOL    HW2  960   1.631   2.224   0.445  0.2320  3.0390 -1.0369
  321SOL     OW  961   1.647   2.739   0.502 -0.4331  0.0975  0.1988
  321SOL    HW1  962   1.572   2.782   0.448 -1.0059  0.3227  1.5246
  321SOL    HW2  963   1.733   2.789   0.473 -1.0396  2.6533 -2.0480
  322SOL     OW  964   2.589   1.161   2.391 -0.0764  0.0938 -0.4822
  322SOL    HW1  965   2.681   1.199   2.427  1.1790 -0.1778 -0.0876
  322SOL    HW2  966   2.553   1.085   2.454 -0.7694 -2.7166 -2.0333
  323SOL     OW  967   1.171   2.637   0.867  0.5428  0.0370  0.3315
  323SOL    HW1  968   1.140   2.579   0.788 -0.1955  0.1327  0.4065
  323SOL    HW2  969   1.163   2.739   0.845  0.4588 -0.8672 -0.9938
  324SOL     OW  970   0.258   2.495   2.526  0.0992 -0.4745 -0.2902
  324SOL    HW1  971   0.293   2.500   2.620  0.7439  2.1058 -2.3446
  324SOL    HW2  972   0.164   2.528   2.510  1.9656  0.2006 -0.8366
  325SOL     OW  973   1.259   3.036   0.505  0.5297  0.6996 -0.1986
  325SOL    HW1  974   1.258   3.075   0.413 -0.9380 -1.6617 -0.4987
  325SOL    HW2  975   1.289   3.105   0.576  1.0539  1.4549 -3.1572
  326SOL     OW  976   2.451   0.775   3.073  0.8781  0.3596 -0.5243
  326SOL    HW1  977   2.406   0.713   3.001 -2.3808 -0.9471  1.8827
  326SOL    HW2  978   2.527   0.725   3.125 -1.4628  0.0563 -0.1299
  327SOL     OW  979   2.847   0.360   0.638  0.3719 -0.2049  0.0004
  327SOL    HW1  980   2.838   0.321   0.538 -0.7298 -0.3886 -2.0220
  327SOL    HW2  981   2.900   0.298   0.703  0.3413  1.5480  1.4040
  328SOL     OW  982   2.565   0.564   0.391  0.0834 -0.0438  0.0835
  328SOL    HW1  983   2.523   0.657   0.408  3.1123 -1.7144  0.6413
  328SOL    HW2  984   2.566   0.507   0.479  0.4167 -0.0620 -3.9259
  329SOL     OW  985   2.969   2.944   2.130  0.0920 -1.3019  0.0647
  329SOL    HW1  986   3.037   2.872   2.165  0.3001  1.5675 -0.6394
  329SOL    HW2  987   2.994   3.038   2.170  0.0885  0.5130 -4.7465
  330SOL     OW  988   0.581   0.147   1.892  0.1038 -0.3789 -0.1305
  330SOL    HW1  989   0.684   0.148   1.857  0.4250 -0.0355  0.9115
  330SOL    HW2  990   0.566   0.080   1.974 -0.7159 -1.2423  1.4793
  331SOL     OW  991   2.974   1.897   1.142  0.8704  0.1538  0.3793
  331SOL    HW1  992   3.024   1.973   1.091 -0.8479  0.9941  0.6489
  331SOL    HW2  993   2.895   1.943   1.190 -1.6053  0.6704 -1.8124
  332SOL     OW  994   0.428   1.158   3.093 -0.0918  0.1662 -0.4291
  332SOL    HW1  995   0.359   1.087   3.068  2.6275 -1.2040  0.9362
  332SOL    HW2  996   0.404   1.193   3.189 -2.4206  0.1627  1.7855
  333SOL     OW  997   2.892   1.058   0.339 -0.3466 -0.0255  0.2984
  333SOL    HW1  998   2.911   1.146   0.397 -0.6347  2.3226  0.8043
  333SOL    HW2  999   2.976   1.011   0.307 -0.3908  0.4161 -2.3641
  334SOL     OW 1000   1.678   1.255   1.840  0.0858  0.6122 -0.0055
  334SOL    HW1 1001   1.767   1.211   1.803  0.1185  0.6581  1.5921
  334SOL    HW2 1002   1.694   1.295   1.936  1.6363  0.4835 -0.2614
  335SOL     OW 1003   2.003   2.734   2.600  0.2664 -0.7298 -0.1675
  335SOL    HW1 1004   1.916   2.719   2.655 -2.1576  0.4432  1.0393
  335SOL    HW2 1005   2.070   2.804   2.640  1.9514  1.5164 -0.7991
  336SOL     OW 1006   0.275   0.171   2.776 -0.1315  0.4452  0.3314
  336SOL    HW1 1007   0.342   0.176   2.856  1.1910  0.9558 -0.3689
  336SOL    HW2 1008   0.194   0.236   2.791 -1.9145  2.1676 -0.1833
  337SOL     OW 1009   0.952   2.788   2.816 -0.8982  0.7954  0.1552
  337SOL    HW1 1010   0.946   2.735   2.904  0.4292  1.8644  0.1502
  337SOL    HW2 1011   1.048   2.780   2.779 -0.3468 -0.2953  0.5470
  338SOL     OW 1012   0.015   1.022   0.617 -0.4244  0.1712 -0.1234
  338SOL    HW1 1013  -0.084   0.998   0.640  0.6395  1.3844  0.1867
  338SOL    HW2 1014   0.021   1.124   0.628 -0.3268 -2.0827  0.4642
  339SOL     OW 1015   1.695   1.343   2.108 -0.7940  0.2126  0.5070
  339SOL    HW1 1016   1.592   1.369   2.116 -2.2992 -2.8440  1.5979
  339SOL    HW2 1017   1.756   1.415   2.149  1.1708 -0.2211 -0.3932
  340SOL     OW 1018   2.366   0.804   1.137 -0.2794  0.2617 -0.6368
  340SOL    HW1 1019   2.265   0.821   1.123  1.2471  0.3277 -2.8082
  340SOL    HW2 1020   2.395   0.714   1.088  1.1522 -3.1345  0.9594
  341SOL     OW 1021   1.928   2.093   0.335 -0.9906  0.0112 -0.0062
  341SOL    HW1 1022   1.950   2.158   0.257 -0.6640  2.1077  0.1723
  341SOL    HW2 1023   2.016   2.057   0.380 -2.7669  0.1028  1.4779
  342SOL     OW 1024   2.259   2.101   2.711 -0.3234  0.1497  0.0034
  342SOL    HW1 1025   2.306   2.014   2.746  0.2206  0.1800  0.1565
  342SOL    HW2 1026   2.155   2.100   2.708 -1.3767  2.4089 -0.0389
  343SOL     OW 1027   0.370   0.870   2.752 -0.1964  0.5048 -0.0585
  343SOL    HW1 1028   0.360   0.920   2.662 -0.4293 -0.3172 -5.2151
  343SOL    HW2 1029   0.457   0.818   2.763 -0.3118 -0.6476  0.1542
  344SOL     OW 1030   1.917   1.446   0.378 -0.6232  0.2745  0.3267
  344SOL    HW1 1031   1.910   1.361   0.322 -0.7839  1.3242 -0.7568
  344SOL    HW2 1032   1.825   1.466   0.422  0.3062  2.5713  0.7325
  345SOL     OW 1033   1.433   2.234   2.912 -0.1216 -0.3666  0.1988
  345SOL    HW1 1034   1.350   2.182   2.879  0.9544  2.0307  0.6189
  345SOL    HW2 1035   1.497   2.258   2.837 -0.3805  0.6521  2.7368
  346SOL     OW 1036   2.364   0.882   1.409 -0.1762  0.0409  0.0520
  346SOL    HW1 1037   2.341   0.984   1.415 -2.3861  0.5798  1.3366
  346SOL    HW2 1038   2.339   0.838   1.320  0.5500 -2.2665  1.4259
  347SOL     OW 1039   0.762   2.835   1.519  0.1135  0.0893  0.3109
  347SOL    HW1 1040   0.712   2.781   1.591  0.8191 -0.9834  1.2867
  347SOL    HW2 1041   0.704   2.907   1.473  0.1225 -0.9410 -0.3301
  348SOL     OW 1042   0.204   0.672   2.852  0.0491 -0.0031  0.4812
  348SOL    HW1 1043   0.105   0.680   2.841 -0.2579 -5.9246  1.4062
  348SOL    HW2 1044   0.260   0.738   2.794 -1.6985 -1.4308 -0.0883
  349SOL     OW 1045   1.879   0.456   2.798  0.2258  0.2135  0.1500
  349SOL    HW1 1046   1.868   0.547   2.750 -1.7555  1.7359  0.5416
  349SOL    HW2 1047   1.856   0.464   2.898 -0.5916  1.8917 -0.9157
  350SOL     OW 1048   1.653   0.405   0.347  0.0615  0.0518  0.5706
  350SOL    HW1 1049   1.702   0.405   0.440  1.4562 -1.6135 -0.8045
  350SOL    HW2 1050   1.633   0.501   0.307  1.8562 -2.2788 -1.0633
  351SOL     OW 1051   1.001   0.874   2.142  0.0523 -0.2556 -0.3411
  351SOL    HW1 1052   1.010   0.978   2.130  0.5766 -1.8400 -1.7375
  351SOL    HW2 1053   1.056   0.826   2.064 -1.5700 -1.0951 -3.9203
  352SOL     OW 1054   2.052   1.322   0.637  0.4417 -0.5129  0.0667
  352SOL    HW1 1055   2.052   1.394   0.563  1.5729 -2.2121  3.1496
  352SOL    HW2 1056   2.025   1.360   0.734 -4.7222  1.1166  0.7873
  353SOL     OW 1057   2.185   2.830   1.033 -0.5702 -0.5374 -0.2354
  353SOL    HW1 1058   2.214   2.790   1.123 -2.7161  0.4773 -0.9073
  353SOL    HW2 1059   2.085   2.817   1.012  0.1783  3.9294  3.0162
  354SOL     OW 1060   0.293   1.409   2.840  0.3518 -0.0733  0.5460
  354SOL    HW1 1061   0.271   1.498   2.788 -0.7965 -1.4318  2.9086
  354SOL    HW2 1062   0.393   1.407   2.871  1.0601 -1.0418  2.0809
  355SOL     OW 1063   0.566   1.511   0.573  1.1196 -0.4025  0.7676
  355SOL    HW1 1064   0.541   1.541   0.668 -1.5021 -0.4321 -0.8610
  355SOL    HW2 1065   0.604   1.413   0.568 -1.1528 -1.0037  0.2905
  356SOL     OW 1066   0.878   0.260   2.103  0.6419  0.4286  0.2135
  356SOL    HW1 1067   0.982   0.257   2.085  1.1463 -0.9629  0.1536
  356SOL    HW2 1068   0.824   0.291   2.018 -3.6703  2.0889 -1.8465
  357SOL     OW 1069   0.997   1.272   0.338  0.1308  0.1739 -0.6421
  357SOL    HW1 1070   0.994   1.229   0.245  0.7229  0.2355 -1.2542
  357SOL    HW2 1071   0.979   1.210   0.419 -1.7541 -0.0363  1.7142
  358SOL     OW 1072   1.653   1.474   0.471 -0.0608  0.6170  0.1908
  358SOL    HW1 1073   1.597   1.465   0.557 -0.5140 -1.7983  0.4325
  358SOL    HW2 1074   1.596   1.450   0.389 -1.1902 -0.8050 -1.1252
  359SOL     OW 1075   1.589   2.655   0.156  0.0741 -0.3439  0.5525
  359SOL    HW1 1076   1.617   2.561   0.140  0.8478  0.8429  0.1258
  359SOL    HW2 1077   1.486   2.672   0.139 -0.2802 -3.4301 -0.6619
  360SOL     OW 1078   0.861   0.560   0.599  0.1399  0.0226 -0.1201
  360SOL    HW1 1079   0.761   0.583   0.598 -0.0152  1.8407  1.6675
  360SOL    HW2 1080   0.880   0.464   0.626 -0.5226  0.8612 -1.7735
  361SOL     OW 1081   1.207   1.312   0.759  0.3924 -0.1408 -0.0268
  361SOL    HW1 1082   1.268   1.364   0.822  2.1088 -2.0233 -1.5781
  361SOL    HW2 1083   1.120   1.367   0.741 -0.7952  3.4928 -0.9954
  362SOL     OW 1084   1.358   1.856   0.780  0.7073 -0.1524 -0.4142
  362SOL    HW1 1085   1.374   1.801   0.868 -1.6711 -0.7432  0.1402
  362SOL    HW2 1086   1.445   1.878   0.726  0.6674 -0.6553  2.9676
  363SOL     OW 1087   1.230   1.285   2.024 -0.0827 -1.0273  0.5130
  363SOL    HW1 1088   1.295   1.344   2.083 -1.6358 -1.1216  0.0243
  363SOL    HW2 1089   1.194   1.334   1.940 -1.2152 -1.4696  1.7736
  364SOL     OW 1090   0.477   2.322   1.988  0.2666  0.1800  0.4119
  364SOL    HW1 1091   0.394   2.377   2.011  1.6508 -0.4525 -0.8448
  364SOL    HW2 1092   0.535   2.366   1.911  3.3658 -0.1035  3.3513
  365SOL     OW 1093   1.011   1.883   1.397  0.2506  0.1302 -0.1823
  365SOL    HW1 1094   0.917   1.929   1.400 -1.1751  0.0999 -1.1885
  365SOL    HW2 1095   1.005   1.796   1.344 -1.3304  0.3185  2.2520
  366SOL     OW 1096   2.755   2.077   0.439  0.1540 -0.3642  0.4472
  366SOL    HW1 1097   2.658   2.053   0.422  1.4609 -0.2769 -0.0410
  366SOL    HW2 1098   2.827   2.021   0.384  4.2830  0.3718  1.0199
  367SOL     OW 1099   0.942   1.129   0.083  0.5516  0.3806 -0.0547
  367SOL    HW1 1100   0.963   1.036   0.122  3.1337  1.6720 -0.7756
  367SOL    HW2 1101   1.006   1.162   0.007  0.3834  1.4945  0.6084
  368SOL     OW 1102   1.490   0.549   0.733  0.4267  0.1787  0.3170
  368SOL    HW1 1103   1.429   0.566   0.650 -0.7925  3.1903 -0.6717
  368SOL    HW2 1104   1.580   0.606   0.712  2.4166  0.8009 -0.2272
  369SOL     OW 1105   0.258   1.741   0.057  0.9840 -0.2779  0.0235
  369SOL    HW1 1106   0.319   1.807   0.114  3.3938  0.9477  1.2897
  369SOL    HW2 1107   0.170   1.715   0.103  0.9350  1.2278  0.5208
  370SOL     OW 1108   0.431   2.068   0.980 -0.4454 -0.2483 -0.7599
  370SOL    HW1 1109   0.440   2.172   0.955  1.7610  1.5955 -0.4982
  370SOL    HW2 1110   0.336   2.030   0.960  1.2687  1.1636  1.5365
  371SOL     OW 1111   2.905   2.161   2.675  0.3012  0.1177 -0.3958
  371SOL    HW1 1112   2.830   2.142   2.739  0.7019  1.1327 -0.1850
  371SOL    HW2 1113   2.995   2.197   2.714  3.3264  0.4086 -1.9659
  372SOL     OW 1114   1.127   1.981   1.129  0.1142  0.3793 -0.4058
  372SOL    HW1 1115   1.079   2.031   1.050 -1.4224 -1.3531  1.0660
  372SOL    HW2 1116   1.206   2.037   1.171  0.6795 -1.9895  0.0364
  373SOL     OW 1117   2.006   1.995   0.880  0.4431 -0.1099 -0.0601
  373SOL    HW1 1118   2.070   2.008   0.962  1.7268 -0.9068  0.7546
  373SOL    HW2 1119   1.906   2.025   0.894 -1.6792  1.1394 -1.1220
  374SOL     OW 1120   1.800   0.438   0.573  0.5329 -0.5097 -0.2072
  374SOL    HW1 1121   1.844   0.393   0.649 -1.9627  0.8007 -0.4368
  374SOL    HW2 1122   1.875   0.495   0.520 -1.0055 -1.0633  0.0430
  375SOL     OW 1123   2.442   2.200   1.151  0.3574 -0.0665 -0.3291
  375SOL    HW1 1124   2.514   2.174   1.080  0.1114 -0.8745 -0.6698
  375SOL    HW2 1125   2.452   2.157   1.244  2.5677  0.8911 -1.6339
  376SOL     OW 1126   3.069   0.556   1.467  0.2117 -0.2745  0.3851
  376SOL    HW1 1127   3.093   0.637   1.528 -0.2672 -0.4483 -0.9605
  376SOL    HW2 1128   2.969   0.534   1.462 -0.3804  0.1648  1.0475
  377SOL     OW 1129   2.228   2.846   0.358 -0.3525 -0.3829 -0.4786
  377SOL    HW1 1130   2.208   2.944   0.355  0.8732  0.6551  0.9981
  377SOL    HW2 1131   2.332   2.836   0.358 -0.1336  1.3308  1.3830
  378SOL     OW 1132   1.859   1.842   2.616  0.3832  0.3837 -0.3007
  378SOL    HW1 1133   1.892   1.780   2.687  3.8042  1.8850 -1.0063
  378SOL    HW2 1134   1.887   1.819   2.521 -0.8091  1.6974 -3.1650
  379SOL     OW 1135   0.811   0.142   2.800 -1.0676 -0.2337  0.4457
  379SOL    HW1 1136   0.726   0.086   2.781  1.8713  0.9990 -0.0152
  379SOL    HW2 1137   0.808   0.231   2.738 -1.1216  1.5621 -2.0488
  380SOL     OW 1138   1.502   1.157   0.575 -0.0535 -0.2953 -0.5110
  380SOL    HW1 1139   1.404   1.125   0.566  1.8618 -0.8964  0.1526
  380SOL    HW2 1140   1.562   1.079   0.582 -1.2691 -0.0606  3.0080
  381SOL     OW 1141   1.361   1.167   1.495 -0.1216  0.2509 -0.4966
  381SOL    HW1 1142   1.409   1.164   1.406  0.5338 -1.4587  0.4894
  381SOL    HW2 1143   1.425   1.151   1.573 -1.8622  0.5511 -1.9521
  382SOL     OW 1144   1.801   0.837   0.156  0.2042 -0.3865 -0.5552
  382SOL    HW1 1145   1.850   0.809   0.070 -1.7095  0.7499 -0.0155
  382SOL    HW2 1146   1.861   0.850   0.245 -0.5105 -0.5529  0.4098
  383SOL     OW 1147   2.630   1.016   1.462  0.3631 -0.7643 -0.1918
  383SOL    HW1 1148   2.550   0.984   1.396 -0.9695  0.6844 -2.0367
  383SOL    HW2 1149   2.717   1.011   1.409  0.0254  0.1665 -0.0204
  384SOL     OW 1150   0.899   2.314   0.132 -0.5939  0.3675  0.2524
  384SOL    HW1 1151   0.870   2.400   0.180 -1.0962  0.0779 -2.2510
  384SOL    HW2 1152   0.868   2.230   0.186 -0.1542 -0.3269  2.1516
  385SOL     OW 1153   3.018   2.007   1.718  0.4586 -0.0428 -0.4152
  385SOL    HW1 1154   3.087   2.073   1.675  1.4768  1.6888  1.8112
  385SOL    HW2 1155   3.052   1.907   1.743  0.5548 -0.2428 -0.2939
  386SOL     OW 1156   0.439   1.087   0.442  0.0381 -0.1577 -0.1799
  386SOL    HW1 1157   0.459   0.984   0.454  1.3416  1.4315  1.0042
  386SOL    HW2 1158   0.389   1.109   0.359 -1.4951 -1.5631  1.4282
  387SOL     OW 1159   0.937   0.396   1.632 -0.7581  0.3578 -0.4321
  387SOL    HW1 1160   1.013   0.462   1.630 -0.4130 -0.0319 -0.9884
  387SOL    HW2 1161   0.910   0.374   1.535 -1.2579  1.3197  0.4597
  388SOL     OW 1162   1.186   2.640   1.766 -0.2256  0.0762  0.1806
  388SOL    HW1 1163   1.231   2.635   1.673 -1.1806 -0.0565 -1.3759
  388SOL    HW2 1164   1.236   2.570   1.824 -0.1759  0.1592 -1.2094
  389SOL     OW 1165   0.186   3.046   1.131 -0.4880 -0.4405 -1.1281
  389SOL    HW1 1166   0.129   3.058   1.216  0.3565  0.7044 -0.4150
  389SOL    HW2 1167   0.188   2.944   1.106  2.9165 -0.9859 -1.0255
  390SOL     OW 1168   0.996   0.972   1.299 -0.6969  0.2898  0.0005
  390SOL    HW1 1169   1.085   0.933   1.335 -0.8953 -0.9406  2.2403
  390SOL    HW2 1170   0.968   1.068   1.333  1.8843 -0.0247  0.6067
  391SOL     OW 1171   2.085   1.191   0.989  0.2868 -0.0826  0.7447
  391SOL    HW1 1172   2.008   1.123   0.995 -0.3732 -0.6581 -3.8927
  391SOL    HW2 1173   2.165   1.154   0.931 -0.5856  0.0307  1.7987
  392SOL     OW 1174   0.901   2.646   3.076  0.1580 -0.0044 -0.3637
  392SOL    HW1 1175   0.824   2.639   3.143  0.9917  0.9902  1.7887
  392SOL    HW2 1176   0.989   2.678   3.120  1.7857  1.8024 -0.2310
  393SOL     OW 1177   0.411   0.459   2.012 -0.6825  0.2692 -0.1836
  393SOL    HW1 1178   0.345   0.395   1.964 -3.2867  1.1837 -2.3124
  393SOL    HW2 1179   0.501   0.449   1.959  0.0473  0.0449  0.5645
  394SOL     OW 1180   3.003   1.795   2.764 -0.6676  0.8300 -0.1462
  394SOL    HW1 1181   3.078   1.820   2.827 -2.0035 -1.3410 -0.0929
  394SOL    HW2 1182   3.017   1.826   2.663 -0.2508  2.1107 -2.0497
  395SOL     OW 1183   1.590   1.914   0.636  0.4035 -0.2665  0.2968
  395SOL    HW1 1184   1.635   1.850   0.565  2.2275  0.8584  1.0868
  395SOL    HW2 1185   1.649   1.943   0.721 -0.1800 -2.0357 -1.3049
  396SOL     OW 1186   2.765   1.963   1.303  0.2687  0.0213 -0.4300
  396SOL    HW1 1187   2.679   2.012   1.326  0.3867 -1.3127  0.7803
  396SOL    HW2 1188   2.766   1.874   1.360  0.0543  1.5925 -0.0167
  397SOL     OW 1189   1.020   2.166   0.579 -0.5068  0.2603 -0.8619
  397SOL    HW1 1190   0.937   2.110   0.570 -0.8951  0.0360  0.5720
  397SOL    HW2 1191   1.017   2.264   0.533  1.7474  1.2287 -3.2738
  398SOL     OW 1192   2.236   0.038   1.010 -0.4499  0.1331  0.4740
  398SOL    HW1 1193   2.217  -0.061   0.984 -1.4921 -2.6369  1.0601
  398SOL    HW2 1194   2.161   0.081   1.062  2.6740 -1.8047 -1.9160
  399SOL     OW 1195   2.892   2.539   2.764  0.3505  0.3337 -0.0564
  399SOL    HW1 1196   2.875   2.497   2.669 -0.0405  0.4047  1.4215
  399SOL    HW2 1197   2.843   2.488   2.843  1.2611 -5.4527  1.7218
  400SOL     OW 1198   0.758   1.577   1.284 -0.1667  0.2140  0.4927
  400SOL    HW1 1199   0.708   1.621   1.359  1.3507  2.3851 -0.6877
  400SOL    HW2 1200   0.769   1.645   1.203 -0.3881  1.8818 -0.0466
  401SOL     OW 1201   1.845   0.137   1.370  0.2423 -0.8417  0.2085
  401SOL    HW1 1202   1.899   0.175   1.447 -1.0440 -0.1328 -3.2123
  401SOL    HW2 1203   1.743   0.136   1.387 -0.5001  1.5902  1.7188
  402SOL     OW 1204   1.327   0.131   3.073 -0.2166 -0.9702 -0.2865
  402SOL    HW1 1205   1.412   0.110   3.015  0.3128  0.2319  0.2310
  402SOL    HW2 1206   1.324   0.228   3.110  1.0110  2.0509  0.4280
  403SOL     OW 1207   2.313   1.840   0.894 -0.1565 -0.0026  0.6049
  403SOL    HW1 1208   2.413   1.868   0.896  0.3276  1.3133 -2.5457
  403SOL    HW2 1209   2.257   1.901   0.960 -1.7393 -0.3610 -2.8383
  404SOL     OW 1210   0.203   2.479   2.851  0.0180  0.2872 -0.6280
  404SOL    HW1 1211   0.305   2.455   2.831  0.6205 -0.6727  1.6625
  404SOL    HW2 1212   0.185   2.581   2.837 -1.3013 -2.5490 -1.9885
  405SOL     OW 1213   0.174   2.450   0.566 -0.4100 -0.9588  0.3753
  405SOL    HW1 1214   0.154   2.432   0.465  1.8511 -0.3958 -2.2213
  405SOL    HW2 1215   0.243   2.526   0.584  0.6112 -0.9905 -2.5935
  406SOL     OW 1216   0.031   1.451   2.971 -0.5058 -0.0516  0.1404
  406SOL    HW1 1217   0.129   1.426   2.932  4.1856 -0.6298 -3.3993
  406SOL    HW2 1218   0.031   1.465   3.073  0.4300  2.0164 -0.1658
  407SOL     OW 1219   1.590   0.921   0.880 -0.0119 -0.2028  0.2583
  407SOL    HW1 1220   1.570   0.889   0.782 -0.8610 -1.7471 -0.7106
  407SOL    HW2 1221   1.538   1.004   0.913  2.3763 -0.9422  0.0576
  408SOL     OW 1222   1.613   2.351   0.982 -0.0908  0.6234 -0.7636
  408SOL    HW1 1223   1.683   2.330   0.915 -1.0232  3.2328  0.2842
  408SOL    HW2 1224   1.567   2.449   0.968 -2.4448  2.9158 -0.4585
  409SOL     OW 1225   0.583   0.879   0.762  0.0203  0.2248 -0.6444
  409SOL    HW1 1226   0.520   0.858   0.685 -1.7736 -0.3243  2.0457
  409SOL    HW2 1227   0.649   0.797   0.779  0.8248 -1.3595 -0.8578
  410SOL     OW 1228   1.266   2.011   1.415  0.5040  0.4360 -0.2940
  410SOL    HW1 1229   1.331   1.965   1.488  1.8698 -0.3226  0.4521
  410SOL    HW2 1230   1.175   1.960   1.402 -5.0391 -1.4573 -1.4853
  411SOL     OW 1231   2.472   1.895   3.062  0.4922  0.2622  0.2780
  411SOL    HW1 1232   2.398   1.929   3.000  1.5675 -1.3892 -0.8556
  411SOL    HW2 1233   2.563   1.897   3.016  0.5014 -0.1097 -0.2262
  412SOL     OW 1234   1.474   2.476   2.218  0.3683  0.1207 -0.5512
  412SOL    HW1 1235   1.526   2.566   2.228 -0.2032  1.1361  0.2275
  412SOL    HW2 1236   1.401   2.471   2.295  2.0112 -0.2380 -0.4559
  413SOL     OW 1237   0.012   0.257   2.924 -0.4030  0.2619  0.0206
  413SOL    HW1 1238  -0.064   0.186   2.944 -0.9465 -2.2208  2.5597
  413SOL    HW2 1239   0.074   0.266   3.007  0.2360  1.3063 -1.2369
  414SOL     OW 1240   1.792   1.468   1.358 -0.1491  0.2112 -0.0999
  414SOL    HW1 1241   1.714   1.508   1.418  0.6714  0.7150  1.6669
  414SOL    HW2 1242   1.759   1.411   1.279  3.5458  1.0797 -0.4369
  415SOL     OW 1243   0.297   2.211   0.696 -0.4447  0.2921  0.2276
  415SOL    HW1 1244   0.256   2.301   0.665  1.3793 -0.8422  1.7672
  415SOL    HW2 1245   0.222   2.138   0.699 -2.5967 -0.1279 -0.1543
  416SOL     OW 1246   0.344   1.066   1.066 -0.0460  0.1177  0.1638
  416SOL    HW1 1247   0.325   1.026   0.971  3.6642  0.1673  0.3202
  416SOL    HW2 1248   0.432   1.115   1.062  0.6521 -0.4393 -1.6474
  417SOL     OW 1249   2.100   2.337   1.879  0.1941 -0.0435  0.1133
  417SOL    HW1 1250   2.134   2.242   1.871 -0.3490  2.1294 -1.9594
  417SOL    HW2 1251   2.011   2.347   1.934  0.7507 -1.5350  0.2492
  418SOL     OW 1252   1.112   0.511   1.255  0.1899  0.0994 -0.4600
  418SOL    HW1 1253   1.013   0.489   1.258  0.7140  1.5578 -0.7750
  418SOL    HW2 1254   1.146   0.574   1.176  5.5320  1.0594 -0.9689
  419SOL     OW 1255   1.033   0.358   3.014 -0.3498  0.1709  0.1508
  419SOL    HW1 1256   1.042   0.387   2.909 -3.1549  1.2917 -2.4202
  419SOL    HW2 1257   0.952   0.288   3.022  0.1225 -1.8125  1.6027
  420SOL     OW 1258   0.165   2.228   0.355 -0.3040 -0.0824 -0.4257
  420SOL    HW1 1259   0.124   2.166   0.282 -1.8789 -0.2050  1.8129
  420SOL    HW2 1260   0.122   2.220   0.448 -0.6151  2.3424  0.3292
  421SOL     OW 1261   0.312   3.067   0.693 -0.3998 -0.3345  0.6353
  421SOL    HW1 1262   0.251   3.003   0.639  0.0677 -2.6672 -0.3808
  421SOL    HW2 1263   0.416   3.073   0.673 -0.2673 -0.2324  1.7485
  422SOL     OW 1264   0.965   2.548   1.057 -0.0783  0.1201 -0.7738
  422SOL    HW1 1265   1.030   2.598   0.997  1.5318 -0.8506 -0.8513
  422SOL    HW2 1266   0.973   2.581   1.153 -1.2317  0.0255  1.0808
  423SOL     OW 1267   0.104   0.683   1.273  0.3249  0.3166  0.2029
  423SOL    HW1 1268   0.042   0.641   1.346  0.0981 -0.5035  0.8222
  423SOL    HW2 1269   0.071   0.780   1.233 -1.1036 -0.4623 -4.4789
  424SOL     OW 1270   1.013   2.221   2.058  0.0330  0.2411 -0.1195
  424SOL    HW1 1271   1.025   2.312   2.010  0.8008  0.3248  0.5388
  424SOL    HW2 1272   0.971   2.228   2.152  1.4237 -1.7689 -0.3753
  425SOL     OW 1273   1.972   1.434   0.956  0.0364  0.6011 -0.4220
  425SOL    HW1 1274   2.018   1.339   0.972  2.1971  3.1305 -0.1644
  425SOL    HW2 1275   2.039   1.506   0.917  0.4022 -1.8650 -1.7669
  426SOL     OW 1276   1.493   1.529   1.421 -0.1861 -0.3205 -0.2234
  426SOL    HW1 1277   1.467   1.619   1.370  1.0143 -0.7634  0.5087
  426SOL    HW2 1278   1.462   1.537   1.520 -1.3115  2.2707  0.7400
  427SOL     OW 1279   1.881   2.376   2.031 -0.4174 -0.0662 -0.4770
  427SOL    HW1 1280   1.907   2.323   2.120  0.0309  2.4690  2.1614
  427SOL    HW2 1281   1.887   2.481   2.044  1.9758  0.0622 -1.3249
  428SOL     OW 1282   0.862   2.913   0.170 -0.0349  0.3102  0.2701
  428SOL    HW1 1283   0.913   2.987   0.218  0.4925 -0.0139 -0.8983
  428SOL    HW2 1284   0.929   2.845   0.132 -0.3671  2.0131  3.7567
  429SOL     OW 1285   1.300   0.096   0.265  0.2024  0.0875  0.3532
  429SOL    HW1 1286   1.388   0.134   0.302 -1.3455  0.1223 -1.0875
  429SOL    HW2 1287   1.297   0.106   0.160 -1.2717 -2.2259 -0.8603
  430SOL     OW 1288   2.708   1.481   0.377 -0.1414 -0.0167 -0.0008
  430SOL    HW1 1289   2.758   1.515   0.291  0.0902 -2.4691  0.2020
  430SOL    HW2 1290   2.720   1.544   0.461  2.7447 -0.8205  2.5741
  431SOL     OW 1291   2.136   1.631   0.854  0.6298 -0.0062 -0.4842
  431SOL    HW1 1292   2.202   1.708   0.880 -0.7920  0.2629 -1.1554
  431SOL    HW2 1293   2.064   1.664   0.785  0.8636  0.9133 -2.0557
  432SOL     OW 1294   2.881   2.231   1.271 -0.5205 -0.4667  0.0185
  432SOL    HW1 1295   2.837   2.148   1.303  0.6712  2.4449 -1.8268
  432SOL    HW2 1296   2.928   2.273   1.350 -0.7021  0.1250 -0.7925
  433SOL     OW 1297   1.893   0.367   0.839  0.8329 -0.3812 -0.0104
  433SOL    HW1 1298   1.829   0.337   0.917  0.7650 -0.3405  0.7995
  433SOL    HW2 1299   1.991   0.337   0.841  1.2320 -0.8138 -0.1506
  434SOL     OW 1300   1.579   0.262   0.759 -0.5438 -0.4780  0.5571
  434SOL    HW1 1301   1.556   0.362   0.747 -0.5822 -1.4647 -0.6631
  434SOL    HW2 1302   1.637   0.245   0.841  2.1572 -0.1444  3.5885
  435SOL     OW 1303   1.438   1.440   2.126  0.4324 -0.6410  0.1134
  435SOL    HW1 1304   1.399   1.476   2.216  4.5726  1.6136  2.1738
  435SOL    HW2 1305   1.477   1.523   2.076  0.2295 -3.7175  2.7435
  436SOL     OW 1306   1.660   2.725   2.352  0.4260  0.8217 -0.3330
  436SOL    HW1 1307   1.637   2.818   2.401 -1.1795 -0.3523 -1.4765
  436SOL    HW2 1308   1.683   2.647   2.419 -0.0939  0.2318  2.1598
  437SOL     OW 1309   1.105   2.913   0.885  0.0852 -0.0036  0.6003
  437SOL    HW1 1310   1.046   2.996   0.853 -0.1969 -0.1622  1.5648
  437SOL    HW2 1311   1.095   2.904   0.989  1.2480  1.5644  0.0767
  438SOL     OW 1312   1.053   2.601   1.311  0.0049 -0.1017 -0.3321
  438SOL    HW1 1313   1.148   2.628   1.350  1.4940 -3.4432  2.9538
  438SOL    HW2 1314   1.022   2.505   1.335  0.0733  1.7107 -0.0380
  439SOL     OW 1315   0.719   1.782   1.095 -0.0713 -0.8494 -0.0360
  439SOL    HW1 1316   0.734   1.883   1.103  0.5843  0.0030 -0.1359
  439SOL    HW2 1317   0.621   1.752   1.079 -0.8804 -0.0764 -0.1374
  440SOL     OW 1318   0.972   2.486   1.963 -0.1599  0.3541 -0.5076
  440SOL    HW1 1319   0.907   2.514   1.887 -0.7753 -0.1698 -0.6417
  440SOL    HW2 1320   1.064   2.527   1.957 -1.1400 -2.7090 -0.3860
  441SOL     OW 1321   0.404   2.807   1.355  0.0161 -0.1368  0.0958
  441SOL    HW1 1322   0.456   2.719   1.369  0.7750 -3.1398  0.4708
  441SOL    HW2 1323   0.333   2.796   1.284 -0.0062  2.5213  2.0917
  442SOL     OW 1324   2.264   0.651   2.621  0.4110  0.0567  0.2066
  442SOL    HW1 1325   2.269   0.560   2.566 -0.7160  1.3657 -0.0543
  442SOL    HW2 1326   2.177   0.704   2.598  0.3581  1.3884  1.8514
  443SOL     OW 1327   1.216   2.721   2.195 -0.3496 -0.2364  0.3619
  443SOL    HW1 1328   1.216   2.625   2.227  3.0857  3.4174 -2.3120
  443SOL    HW2 1329   1.206   2.786   2.275  2.2050  1.4175 -0.2274
  444SOL     OW 1330   1.137   1.312   1.558  0.5386 -0.8103  0.6752
  444SOL    HW1 1331   1.228   1.286   1.516 -0.3017 -0.5055 -0.5822
  444SOL    HW2 1332   1.161   1.356   1.648 -1.1354  2.7417  1.3200
  445SOL     OW 1333   3.097   2.377   1.857  0.0124  0.0145  0.4738
  445SOL    HW1 1334   3.075   2.462   1.804 -0.2973  0.1558 -0.2314
  445SOL    HW2 1335   3.026   2.357   1.935 -1.5873  0.7008  1.5799
  446SOL     OW 1336   0.246   1.887   2.396  0.4654  0.2971 -0.0722
  446SOL    HW1 1337   0.188   1.962   2.443 -1.2246  1.3798 -2.1187
  446SOL    HW2 1338   0.197   1.825   2.333  1.6767 -1.5030 -2.1430
  447SOL     OW 1339   1.245   1.663   1.973 -0.0194  0.2679 -0.3305
  447SOL    HW1 1340   1.161   1.720   1.954  0.9058  0.8630  0.9516
  447SOL    HW2 1341   1.318   1.705   2.029  0.2393 -0.7513 -2.7542
  448SOL     OW 1342   0.090   1.447   1.976  0.2498 -0.4082 -0.3368
  448SOL    HW1 1343   0.121   1.541   1.945 -0.3602 -1.5757  1.1053
  448SOL    HW2 1344   0.056   1.454   2.076  0.7406 -1.5252  1.7373
  449SOL     OW 1345   1.735   2.947   0.910  0.7069  0.5991 -0.1916
  449SOL    HW1 1346   1.769   2.948   1.012 -2.5596 -2.7428  0.1347
  449SOL    HW2 1347   1.799   2.888   0.851 -0.4436 -3.5882  1.4727
  450SOL     OW 1348   2.322   1.436   0.753  0.1837  0.0594  0.4155
  450SOL    HW1 1349   2.266   1.478   0.823 -1.3690 -2.0642 -1.2579
  450SOL    HW2 1350   2.332   1.493   0.668 -0.9694 -2.8125 -1.8920
  451SOL     OW 1351   1.306   3.034   1.431  0.4008 -0.6462  0.0167
  451SOL    HW1 1352   1.249   3.118   1.457 -1.7730  1.0441 -0.9248
  451SOL    HW2 1353   1.310   2.965   1.507 -0.3788  0.8796 -1.1162
  452SOL     OW 1354   2.650   2.298   2.212  0.1078 -0.4251 -0.3836
  452SOL    HW1 1355   2.636   2.400   2.205 -0.2157  0.6694  0.8014
  452SOL    HW2 1356   2.711   2.262   2.289 -0.9984  1.2902 -0.3050
  453SOL     OW 1357   2.454   2.677   3.088 -0.3648 -0.3673  0.8704
  453SOL    HW1 1358   2.380   2.723   3.147 -0.6463 -0.4617  0.2080
  453SOL    HW2 1359   2.420   2.599   3.036  3.4690  2.5427  1.1897
  454SOL     OW 1360   0.978   1.144   2.037  0.0364 -0.4076 -0.2545
  454SOL    HW1 1361   0.969   1.111   1.941  0.4579  0.4413 -0.6308
  454SOL    HW2 1362   1.045   1.221   2.054  0.2097 -1.3162 -0.2204
  455SOL     OW 1363   0.704   2.663   2.820  0.0570 -0.0609  0.3350
  455SOL    HW1 1364   0.781   2.724   2.848 -1.2549  1.7215  0.4077
  455SOL    HW2 1365   0.720   2.565   2.855  2.1473 -5.7402 -0.6395
  456SOL     OW 1366   0.445   1.884   0.213  0.0927  0.7697  0.5928
  456SOL    HW1 1367   0.532   1.834   0.238  0.6035  0.2006 -1.7347
  456SOL    HW2 1368   0.470   1.968   0.158  0.8760 -0.1538  2.4082
  457SOL     OW 1369   0.371   2.663   0.598 -0.7593 -0.6669  0.2189
  457SOL    HW1 1370   0.356   2.744   0.528 -2.3651  1.4088  0.5644
  457SOL    HW2 1371   0.472   2.653   0.620  0.0813 -1.7243  0.2606
  458SOL     OW 1372   2.924   3.090   1.226 -0.1965 -0.3596 -0.0464
  458SOL    HW1 1373   2.987   3.162   1.190  1.3859 -0.8654 -0.5101
  458SOL    HW2 1374   2.891   3.029   1.152  0.5502 -0.3560  1.7137
  459SOL     OW 1375   2.073   2.631   0.762  0.0094 -0.3431 -0.4997
  459SOL    HW1 1376   2.167   2.669   0.759  0.2433  1.5997 -0.8281
  459SOL    HW2 1377   2.056   2.561   0.692  0.2005  1.3602  1.2040
  460SOL     OW 1378   1.210   2.112   2.809  0.3514 -0.2013  0.1065
  460SOL    HW1 1379   1.179   2.145   2.713  1.2246  0.7752 -0.5485
  460SOL    HW2 1380   1.217   2.008   2.829  2.5470  0.4540  1.9153
  461SOL     OW 1381   0.545   2.184   2.651 -0.2707  0.3089 -0.2881
  461SOL    HW1 1382   0.506   2.101   2.600  0.4860  0.4461 -0.0910
  461SOL    HW2 1383   0.566   2.155   2.752  0.1679  1.4812  1.5447
  462SOL     OW 1384   0.960   1.106   1.751  0.0771  0.9880  0.8233
  462SOL    HW1 1385   1.046   1.094   1.694 -2.2740  2.3004  0.3022
  462SOL    HW2 1386   0.908   1.194   1.735  1.4235 -0.5481 -1.6712
  463SOL     OW 1387   0.451   0.819   0.500 -0.0126 -0.3588  0.1458
  463SOL    HW1 1388   0.489   0.726   0.494 -0.8750  0.7481  1.0368
  463SOL    HW2 1389   0.345   0.817   0.501 -0.4649  1.8277 -2.0202
  464SOL     OW 1390   0.621   2.294   2.235 -0.1173  0.7326 -0.0664
  464SOL    HW1 1391   0.569   2.365   2.290 -0.6765  1.7442 -1.5477
  464SOL    HW2 1392   0.559   2.268   2.158  0.4168 -0.0310  2.8914
  465SOL     OW 1393   0.217   0.951   0.817  0.7507  0.3329 -0.1062
  465SOL    HW1 1394   0.161   0.982   0.735 -3.6038 -0.8970 -1.6518
  465SOL    HW2 1395   0.228   0.853   0.825  1.6050  1.7139  1.3470
  466SOL     OW 1396   1.398   1.117   0.995 -0.1841  0.3591 -0.0942
  466SOL    HW1 1397   1.394   1.207   0.948  0.2950 -1.5683 -0.7018
  466SOL    HW2 1398   1.309   1.067   1.009  0.0090 -0.9226 -1.6074
  467SOL     OW 1399   0.574   0.419   2.453 -0.7642 -0.6210  0.2033
  467SOL    HW1 1400   0.519   0.503   2.436 -0.5928  1.6358 -0.8879
  467SOL    HW2 1401   0.558   0.372   2.543 -0.8260  0.6226  1.9180
  468SOL     OW 1402   0.445   2.256   1.615  0.5935  0.6505 -0.0036
  468SOL    HW1 1403   0.523   2.315   1.644  0.9035 -2.8311 -1.2543
  468SOL    HW2 1404   0.398   2.293   1.531 -0.3618  0.6716 -0.2710
  469SOL     OW 1405   1.454   1.347   1.218 -0.6430 -0.1298 -0.6624
  469SOL    HW1 1406   1.537   1.287   1.191 -1.4609  0.7820 -0.7747
  469SOL    HW2 1407   1.466   1.397   1.306  0.2280  0.6254 -1.0342
  470SOL     OW 1408   3.025   1.844   0.758 -0.5257 -0.0775 -0.4962
  470SOL    HW1 1409   3.100   1.905   0.717 -2.4193 -0.7828 -1.0599
  470SOL    HW2 1410   3.048   1.807   0.854  0.6863  1.4559  1.9564
  471SOL     OW 1411   2.622   1.286   2.135  0.7791 -0.6360 -0.1444
  471SOL    HW1 1412   2.602   1.215   2.206 -1.6247  0.4943  0.0439
  471SOL    HW2 1413   2.647   1.376   2.184  0.2158 -2.0001 -0.7154
  472SOL     OW 1414   1.145   2.449   0.050 -0.5565  0.5929  0.2837
  472SOL    HW1 1415   1.210   2.442   0.131  1.1193 -1.1994 -1.6086
  472SOL    HW2 1416   1.049   2.424   0.077  0.9877  1.3310  1.4614
  473SOL     OW 1417   1.089   1.532   1.022  0.4069  0.2410  0.0138
  473SOL    HW1 1418   0.992   1.523   0.982  0.9841  1.3788 -1.8413
  473SOL    HW2 1419   1.117   1.460   1.091 -0.1853 -2.2799 -0.1704
  474SOL     OW 1420   0.678   1.267   0.550  0.0554  0.3405  0.0474
  474SOL    HW1 1421   0.646   1.226   0.460 -0.5349  1.0861  0.6158
  474SOL    HW2 1422   0.744   1.208   0.601 -0.0574  2.1097 -1.4283
  475SOL     OW 1423   2.855   0.013   0.846  0.4585  0.0247  0.1386
  475SOL    HW1 1424   2.916   0.093   0.827 -1.2827 -3.5889  0.9320
  475SOL    HW2 1425   2.756   0.035   0.859  3.4544  0.7130 -1.2749
  476SOL     OW 1426   0.965   3.081   1.754 -0.1058  0.4021  0.1444
  476SOL    HW1 1427   1.059   3.075   1.802  1.7109  1.3418  0.3101
  476SOL    HW2 1428   0.961   3.025   1.666  0.7150  0.6027  0.3424
  477SOL     OW 1429   1.415   0.331   2.416 -0.1723 -0.0018  0.3542
  477SOL    HW1 1430   1.412   0.361   2.517  0.2394 -0.7452  0.6849
  477SOL    HW2 1431   1.491   0.268   2.392 -2.0630 -0.9159 -2.5774
  478SOL     OW 1432   2.218   1.815   0.151 -0.1226  0.2201 -0.4983
  478SOL    HW1 1433   2.176   1.737   0.212  2.1509 -0.6100  2.8425
  478SOL    HW2 1434   2.318   1.801   0.140 -1.3023  0.7904  2.9461
  479SOL     OW 1435   1.191   0.990   2.839  0.0740 -0.0431  0.4380
  479SOL    HW1 1436   1.244   0.944   2.762 -0.8628 -0.4885  0.3819
  479SOL    HW2 1437   1.095   0.945   2.855  0.4253 -1.0813  2.4271
  480SOL     OW 1438   2.656   2.342   0.356  0.1284 -0.0800  0.2666
  480SOL    HW1 1439   2.688   2.254   0.404  1.2617 -1.7798 -3.0061
  480SOL    HW2 1440   2.559   2.338   0.314  0.6065  0.8663 -0.8313
  481SOL     OW 1441   0.971   1.158   0.871 -0.3883 -0.5793  0.5377
  481SOL    HW1 1442   0.951   1.255   0.840  0.6526 -1.7533 -0.9279
  481SOL    HW2 1443   1.012   1.155   0.970  2.3237  0.7008 -1.2309
  482SOL     OW 1444   1.591   0.280   2.011  0.2242 -0.1571  0.6939
  482SOL    HW1 1445   1.589   0.380   1.997 -1.5559 -0.6544 -1.2594
  482SOL    HW2 1446   1.678   0.252   2.059 -1.2446  1.8642 -2.5340
  483SOL     OW 1447   0.105   2.297   1.219 -0.2141  0.3934  0.5123
  483SOL    HW1 1448   0.033   2.362   1.251 -0.6232  0.7886  0.5747
  483SOL    HW2 1449   0.167   2.323   1.138 -0.8562  1.0500 -0.9184
  484SOL     OW 1450   1.778   1.111   1.367 -0.0588 -0.3795 -0.1790
  484SOL    HW1 1451   1.830   1.022   1.387 -0.0027  1.1794 -1.2019
  484SOL    HW2 1452   1.760   1.170   1.452  0.5846 -0.8513  2.2154
  485SOL     OW 1453   0.738   0.913   1.759 -0.1819  0.4993 -0.3705
  485SOL    HW1 1454   0.722   0.884   1.659  1.5684  0.8944 -1.9860
  485SOL    HW2 1455   0.797   0.995   1.760 -2.5233  0.4366 -1.4865
  486SOL     OW 1456   0.801   1.873   2.445  0.6164  0.0856  0.0506
  486SOL    HW1 1457   0.866   1.833   2.514 -1.2287 -1.6292 -3.8109
  486SOL    HW2 1458   0.763   1.965   2.467 -0.4616 -0.4369  0.0060
  487SOL     OW 1459   1.787   1.653   0.957  0.0660 -0.1641  0.4474
  487SOL    HW1 1460   1.841   1.562   0.984  1.7952 -1.5441  2.0475
  487SOL    HW2 1461   1.828   1.713   0.885 -1.2619  2.1801  1.2175
  488SOL     OW 1462   2.987   0.857   2.244  0.5314  0.1113 -0.8065
  488SOL    HW1 1463   3.021   0.760   2.230 -1.8331 -0.9441  0.3597
  488SOL    HW2 1464   2.991   0.891   2.341 -0.1713 -2.5061 -1.1652
  489SOL     OW 1465   2.806   0.317   1.257 -0.0332 -0.7463 -0.1132
  489SOL    HW1 1466   2.817   0.323   1.360 -2.6581  0.3506 -1.2688
  489SOL    HW2 1467   2.889   0.279   1.204 -1.8356  0.6307  0.0255
  490SOL     OW 1468   1.465   2.950   2.789  0.8331  0.3749 -0.4013
  490SOL    HW1 1469   1.520   2.857   2.786  4.0152  1.0705  1.8781
  490SOL    HW2 1470   1.395   2.966   2.714  0.3266 -0.1386 -1.4478
  491SOL     OW 1471   1.704   1.442   2.618  0.5859 -0.0196 -0.2319
  491SOL    HW1 1472   1.622   1.422   2.680  1.1745 -0.6204 -1.6530
  491SOL    HW2 1473   1.780   1.493   2.666 -2.2194 -0.5456 -0.7203
  492SOL     OW 1474   0.579   2.125   0.642 -0.0406  0.4626  0.1611
  492SOL    HW1 1475   0.640   2.096   0.726 -0.2203 -0.5399  2.6645
  492SOL    HW2 1476   0.483   2.139   0.666  1.4058 -0.5031 -1.8524
  493SOL     OW 1477   0.430   1.397   2.031  0.5264  0.1317 -0.4136
  493SOL    HW1 1478   0.349   1.463   2.031 -0.5324  2.8055  1.8593
  493SOL    HW2 1479   0.411   1.310   2.079 -0.6015  2.1798 -1.1618
  494SOL     OW 1480   2.721   2.738   0.098  0.2675  0.5564  0.2734
  494SOL    HW1 1481   2.710   2.694   0.190 -2.0737 -0.8689  0.0118
  494SOL    HW2 1482   2.645   2.712   0.037 -0.5464 -0.1783  0.8111
  495SOL     OW 1483   2.568   2.703   2.623  0.4961 -0.5182  0.1297
  495SOL    HW1 1484   2.568   2.596   2.613 -2.2360  0.0703 -0.6472
  495SOL    HW2 1485   2.644   2.747   2.557  3.0034  0.3554 -2.3716
  496SOL     OW 1486   2.080   2.255   0.712 -0.2939 -0.2330  0.0622
  496SOL    HW1 1487   2.097   2.281   0.810  1.8020 -0.7904 -0.4030
  496SOL    HW2 1488   2.108   2.159   0.688 -2.8869  1.4737  0.5808
  497SOL     OW 1489   0.202   2.995   2.364 -0.1570  0.3546 -0.1001
  497SOL    HW1 1490   0.178   3.060   2.439  0.8969 -1.3719 -0.4412
  497SOL    HW2 1491   0.255   3.038   2.282 -0.6986 -0.0757 -0.0947
  498SOL     OW 1492   1.180   1.353   1.203 -0.2996 -0.0106 -0.6746
  498SOL    HW1 1493   1.285   1.357   1.226  0.2733 -0.5668  0.2657
  498SOL    HW2 1494   1.121   1.360   1.291 -0.9346  3.3214 -0.5820
  499SOL     OW 1495   0.632   1.743   0.366  0.2622  0.0673  0.0643
  499SOL    HW1 1496   0.685   1.661   0.334  0.7724 -0.4947 -1.2339
  499SOL    HW2 1497   0.698   1.820   0.399  0.2771  0.7454 -0.3049
  500SOL     OW 1498   1.417   2.876   1.632 -0.2130 -0.0075  0.1498
  500SOL    HW1 1499   1.342   2.840   1.699  2.3539  0.4810 -0.9197
  500SOL    HW2 1500   1.492   2.801   1.629  0.3894  0.7665 -1.6649
  501SOL     OW 1501   0.822   1.117   2.274  0.1141 -0.0948 -0.2737
  501SOL    HW1 1502   0.734   1.062   2.269 -1.6437 -0.7688  0.9680
  501SOL    HW2 1503   0.842   1.159   2.187 -1.2705 -2.3115  4.1787
  502SOL     OW 1504   2.546   0.926   1.714 -0.4115 -0.0924  0.2306
  502SOL    HW1 1505   2.553   0.948   1.610  2.3238  2.4126  1.0366
  502SOL    HW2 1506   2.543   0.824   1.736 -0.0086 -1.0694 -0.4052
  503SOL     OW 1507   1.333   0.155   0.662  0.1579  0.4057  0.5795
  503SOL    HW1 1508   1.287   0.237   0.613 -1.1045  0.9198  0.6930
  503SOL    HW2 1509   1.436   0.172   0.680  0.7237 -2.0932 -1.0195
  504SOL     OW 1510   3.018   2.336   1.486  0.4353  0.1575  0.2412
  504SOL    HW1 1511   2.961   2.396   1.546  1.9334 -0.6031 -2.6837
  504SOL    HW2 1512   3.090   2.283   1.532 -2.2657  1.0314  0.6209
  505SOL     OW 1513   2.327   1.160   1.407  0.3684  0.0039  0.0278
  505SOL    HW1 1514   2.274   1.198   1.320  2.2488 -0.7596  1.1611
  505SOL    HW2 1515   2.410   1.222   1.433  1.7073 -0.6830  1.1088
  506SOL     OW 1516   1.975   0.216   1.818 -0.3099 -0.2871 -0.6922
  506SOL    HW1 1517   2.076   0.196   1.841  1.2497  2.6722  3.2626
  506SOL    HW2 1518   1.954   0.314   1.842  0.6641  1.8065  0.7321
  507SOL     OW 1519   0.552   0.667   2.120 -0.2083  0.1081 -0.2955
  507SOL    HW1 1520   0.486   0.586   2.100  2.9291  2.7555 -1.2004
  507SOL    HW2 1521   0.644   0.640   2.158 -1.7566  1.1065  1.2711
  508SOL     OW 1522   0.279   1.639   0.735 -0.3710 -0.5489  0.0280
  508SOL    HW1 1523   0.346   1.697   0.683  1.5735  1.8178  2.3150
  508SOL    HW2 1524   0.243   1.679   0.822 -0.0352 -1.0743  0.1493
  509SOL     OW 1525   1.256   1.217   2.405  0.1989  0.3989 -0.1924
  509SOL    HW1 1526   1.287   1.183   2.318 -0.0094  2.5614  1.9848
  509SOL    HW2 1527   1.168   1.166   2.439 -3.3254 -0.9861  2.9488
  510SOL     OW 1528   1.293   2.123   2.215 -0.6170  0.2079 -0.5211
  510SOL    HW1 1529   1.301   2.165   2.120  0.7827 -0.3229  2.2803
  510SOL    HW2 1530   1.212   2.057   2.231  1.1601 -1.1665  1.4576
  511SOL     OW 1531   3.004   2.670   1.295  0.3644  0.3830  0.3457
  511SOL    HW1 1532   3.003   2.680   1.190 -4.2227  1.9879 -0.5352
  511SOL    HW2 1533   2.909   2.663   1.328 -2.8120  0.1543  2.0611
  512SOL     OW 1534   2.402   0.452   1.376 -0.4083 -0.3517  0.2554
  512SOL    HW1 1535   2.296   0.447   1.381 -1.6051 -0.5111 -2.4353
  512SOL    HW2 1536   2.448   0.398   1.297 -0.8552  0.9445 -5.8958
  513SOL     OW 1537   2.598   2.110   0.875  0.6368  0.2293 -0.1569
  513SOL    HW1 1538   2.575   2.199   0.835  2.0500 -3.0154 -1.0849
  513SOL    HW2 1539   2.674   2.065   0.821 -0.6541 -0.7157 -1.9177
  514SOL     OW 1540   0.655   2.761   0.464 -0.6180 -0.1042 -0.2948
  514SOL    HW1 1541   0.668   2.829   0.387 -1.2737  0.6365  1.7967
  514SOL    HW2 1542   0.699   2.786   0.553 -0.6258 -1.1101 -1.3539
  515SOL     OW 1543   1.947   1.292   2.354  0.2023 -0.2995 -0.1003
  515SOL    HW1 1544   1.938   1.222   2.279 -0.3821  0.1808 -1.3557
  515SOL    HW2 1545   1.895   1.262   2.439  1.8596  1.8871  3.7139
  516SOL     OW 1546   0.265   0.258   1.917  0.2486 -0.3389 -0.0326
  516SOL    HW1 1547   0.350   0.197   1.895 -1.9515 -1.0510  1.8941
  516SOL    HW2 1548   0.172   0.221   1.891 -1.4507 -1.5167  0.9139
  517SOL     OW 1549   0.484   0.018   1.173  0.5580 -0.7673  0.1544
  517SOL    HW1 1550   0.502   0.118   1.196 -2.8277  3.1870 -0.0193
  517SOL    HW2 1551   0.385   0.006   1.142 -0.2805  1.7811  0.9865
  518SOL     OW 1552   2.163   3.054   1.831  0.1196 -0.0964 -0.1469
  518SOL    HW1 1553   2.233   3.126   1.849 -0.1056  0.3731  1.7940
  518SOL    HW2 1554   2.178   3.011   1.735 -0.9737 -1.8757 -2.0022
  519SOL     OW 1555   2.357   2.142   2.451  0.5952  0.5156 -0.1561
  519SOL    HW1 1556   2.329   2.128   2.552 -2.4251  1.8042  1.5748
  519SOL    HW2 1557   2.371   2.242   2.430 -0.9067  0.5073  1.4940
  520SOL     OW 1558   1.839   2.691   1.758  0.0066  0.6744 -0.0902
  520SOL    HW1 1559   1.754   2.631   1.780  1.3018 -2.0303  0.3589
  520SOL    HW2 1560   1.908   2.635   1.701 -0.8164  3.2518 -0.4975
  521SOL     OW 1561   0.584   3.065   2.100  0.1467  0.1247 -0.0026
  521SOL    HW1 1562   0.482   3.047   2.120 -1.3519  0.1588 -0.7317
  521SOL    HW2 1563   0.645   3.059   2.182 -0.5695  0.3890 -0.1469
  522SOL     OW 1564   0.224   1.847   1.569  0.0639  0.1018 -1.1266
  522SOL    HW1 1565   0.267   1.922   1.626  0.7202 -2.3675  0.9915
  522SOL    HW2 1566   0.202   1.875   1.471  0.7758  1.4436  0.5186
  523SOL     OW 1567   2.182   2.956   1.560  0.4519 -0.3068 -0.1841
  523SOL    HW1 1568   2.261   2.892   1.574 -2.5276  3.1866 -1.0285
  523SOL    HW2 1569   2.113   2.925   1.491  3.3869  0.8068  0.3801
  524SOL     OW 1570   0.187   2.762   2.789  0.5006  0.6656 -0.1767
  524SOL    HW1 1571   0.113   2.813   2.844 -1.6781  0.1597 -1.4356
  524SOL    HW2 1572   0.277   2.816   2.779 -0.8003 -0.2789  2.1404
  525SOL     OW 1573   2.199   1.964   0.392  0.1737 -0.4945  0.1134
  525SOL    HW1 1574   2.232   1.915   0.477 -2.7153 -1.3638 -2.9829
  525SOL    HW2 1575   2.208   1.915   0.301  0.0029  0.4409 -1.8988
  526SOL     OW 1576   0.497   1.515   1.658  0.3118  0.5574 -0.3912
  526SOL    HW1 1577   0.541   1.555   1.739 -2.5744 -3.2692  2.5125
  526SOL    HW2 1578   0.508   1.411   1.658  0.4867 -1.9260 -1.4527
  527SOL     OW 1579   1.040   2.869   1.152 -0.6237 -0.4245  0.2500
  527SOL    HW1 1580   1.090   2.802   1.210 -1.1381 -0.6771 -2.7374
  527SOL    HW2 1581   1.076   2.965   1.174 -1.5190 -0.3686  0.1983
  528SOL     OW 1582   1.333   2.352   0.527 -0.1139  0.5095  0.6621
  528SOL    HW1 1583   1.344   2.248   0.538 -0.3750  0.5672  0.1707
  528SOL    HW2 1584   1.385   2.402   0.599  1.0893 -0.9083  0.2472
  529SOL     OW 1585   1.945   1.781   0.689  0.3368 -0.4149 -0.5201
  529SOL    HW1 1586   1.875   1.766   0.610 -2.3343  2.7647 -0.1385
  529SOL    HW2 1587   1.941   1.875   0.728  2.1036 -0.3920 -1.8558
  530SOL     OW 1588   0.391   2.597   0.209 -0.8009 -0.2556 -0.2973
  530SOL    HW1 1589   0.404   2.650   0.296 -0.5187 -0.0577 -0.0670
  530SOL    HW2 1590   0.433   2.505   0.216  0.3414  4.7285  1.9374
  531SOL     OW 1591   1.882   1.020   1.016 -0.2185  0.2271 -0.0361
  531SOL    HW1 1592   1.807   1.081   0.979  2.0748 -1.0033  1.9425
  531SOL    HW2 1593   1.860   0.921   0.991  1.3856 -0.1492  2.4386
  532SOL     OW 1594   0.374   1.146   0.691 -0.2260 -0.7931 -0.3021
  532SOL    HW1 1595   0.404   1.138   0.593 -1.4134  0.6269  1.4193
  532SOL    HW2 1596   0.345   1.059   0.733 -0.3630  3.2542  0.5489
  533SOL     OW 1597   1.748   0.012   2.574 -0.1111  0.6849  0.0766
  533SOL    HW1 1598   1.848  -0.007   2.573  0.3946 -0.9232  0.0688
  533SOL    HW2 1599   1.728   0.091   2.640 -0.5952  3.4374  1.2184
  534SOL     OW 1600   0.280   0.182   1.470  0.4332 -0.4630  0.8305
  534SOL    HW1 1601   0.357   0.209   1.403 -0.7471 -0.4370  1.6392
  534SOL    HW2 1602   0.234   0.268   1.506  1.6507 -0.9785 -2.4378
  535SOL     OW 1603   1.892   0.404   0.202 -0.0446  0.9452  0.0513
  535SOL    HW1 1604   1.950   0.469   0.261  1.4700 -2.6285  2.4051
  535SOL    HW2 1605   1.804   0.368   0.242  0.4878 -2.4981  0.7921
  536SOL     OW 1606   1.432   2.574   0.941 -0.3556  0.0260 -0.1362
  536SOL    HW1 1607   1.407   2.535   1.035  0.5907  0.9432  1.0964
  536SOL    HW2 1608   1.350   2.609   0.896  0.1810 -1.3063 -1.8120
  537SOL     OW 1609   0.808   0.155   2.339  0.0440 -0.2670  0.2420
  537SOL    HW1 1610   0.844   0.194   2.247  2.4018  1.3342  0.7234
  537SOL    HW2 1611   0.711   0.114   2.339 -0.8068 -0.9483 -0.9932
  538SOL     OW 1612   1.668   2.295   1.512 -0.0726  0.6777  0.8252
  538SOL    HW1 1613   1.646   2.205   1.466 -0.6314 -0.5615  2.8048
  538SOL    HW2 1614   1.763   2.317   1.472  1.0502 -1.5459 -1.2893
  539SOL     OW 1615   0.177   1.646   2.730 -0.3156 -0.5514  0.1673
  539SOL    HW1 1616   0.120   1.617   2.643  1.7802 -0.3903 -1.8870
  539SOL    HW2 1617   0.122   1.678   2.813  0.6169 -0.9055 -1.2508
  540SOL     OW 1618   2.712   1.707   1.987  0.0301  0.1943  0.1370
  540SOL    HW1 1619   2.641   1.637   2.009  1.5372  1.8071 -1.2927
  540SOL    HW2 1620   2.681   1.805   1.968  1.8170  0.3235  0.7630
  541SOL     OW 1621   0.490   2.301   3.026  0.6104 -0.6015 -0.5602
  541SOL    HW1 1622   0.515   2.267   3.126  0.2559  0.6769  1.7414
  541SOL    HW2 1623   0.399   2.350   3.029 -2.4088 -0.5010  2.4109
  542SOL     OW 1624   2.269   2.564   0.407  0.0378 -0.1573 -0.3947
  542SOL    HW1 1625   2.255   2.667   0.387  0.5336  1.5078  2.4628
  542SOL    HW2 1626   2.184   2.515   0.446 -0.2765  0.2570  0.0412
  543SOL     OW 1627   1.062   1.707   1.655  0.6843  0.3691 -0.2161
  543SOL    HW1 1628   1.032   1.723   1.754 -0.2684 -0.4851 -0.9159
  543SOL    HW2 1629   1.046   1.785   1.592  2.7382  1.5082  0.9067
  544SOL     OW 1630   0.973   0.402   0.213 -0.0659  0.1052  0.3027
  544SOL    HW1 1631   1.030   0.320   0.231  2.1443  0.0632 -0.0665
  544SOL    HW2 1632   0.967   0.416   0.111 -0.6668  2.5951 -2.3588
  545SOL     OW 1633   1.101   1.758   0.784  0.2571 -0.0332  1.3187
  545SOL    HW1 1634   1.191   1.809   0.776 -2.5934  1.5539 -0.7971
  545SOL    HW2 1635   1.079   1.722   0.877 -1.1251  1.4342 -0.5983
  546SOL     OW 1636   2.627   1.579   3.090  0.0828  0.3314  0.9548
  546SOL    HW1 1637   2.558   1.595   3.008 -1.2194 -1.3840 -1.2752
  546SOL    HW2 1638   2.574   1.540   3.169  1.3154  3.9374 -0.9879
  547SOL     OW 1639   0.551   0.027   2.651  0.5108 -0.2789  0.0184
  547SOL    HW1 1640   0.639  -0.028   2.662 -2.3277  3.4109 -0.7210
  547SOL    HW2 1641   0.495  -0.010   2.569 -0.5375 -0.5509  0.3418
  548SOL     OW 1642   2.054   0.843   3.041  0.6314  0.5208  0.4526
  548SOL    HW1 1643   1.956   0.817   3.010 -1.7829 -1.9145 -0.9625
  548SOL    HW2 1644   2.060   0.945   3.055 -0.3221 -0.2296  1.5842
  549SOL     OW 1645   0.674   0.550   0.200  0.8217 -0.6094  0.3124
  549SOL    HW1 1646   0.644   0.602   0.116  2.0794 -0.0768 -0.5152
  549SOL    HW2 1647   0.772   0.571   0.228 -0.8699 -1.7534 -3.8643
  550SOL     OW 1648   2.521   2.851   2.887 -0.2448  0.2440 -0.0022
  550SOL    HW1 1649   2.480   2.792   2.961  1.0361  2.9984  0.1466
  550SOL    HW2 1650   2.556   2.793   2.812 -0.0132 -0.7422  0.4380
  551SOL     OW 1651   0.278   0.854   0.222  0.0000  0.0469 -0.2136
  551SOL    HW1 1652   0.381   0.874   0.225 -0.4348  2.3971  2.2020
  551SOL    HW2 1653   0.247   0.828   0.321  0.7612  0.8552  2.7742
  552SOL     OW 1654   0.687   2.957   1.848 -0.2997  0.1180 -0.7491
  552SOL    HW1 1655   0.656   2.987   1.947  2.6620  1.4908  1.6952
  552SOL    HW2 1656   0.783   2.988   1.832 -0.9579  2.2162  0.1815
  553SOL     OW 1657   3.053   2.573   0.356 -0.3566  0.2532 -0.3992
  553SOL    HW1 1658   3.014   2.474   0.355 -0.9443 -0.9881  1.0807
  553SOL    HW2 1659   3.014   2.630   0.434 -0.5913 -1.3706  0.0238
  554SOL     OW 1660   2.155   0.357   0.562 -0.6511  0.1495  0.0843
  554SOL    HW1 1661   2.238   0.342   0.502  0.1062 -0.9760  0.8709
  554SOL    HW2 1662   2.118   0.276   0.614  0.3732 -0.4030  2.7521
  555SOL     OW 1663   0.419   2.926   2.498 -0.6138 -0.7782  0.0984
  555SOL    HW1 1664   0.323   2.946   2.462  0.8384 -0.8005 -0.1309
  555SOL    HW2 1665   0.462   2.839   2.465 -1.8489 -3.0728 -1.1222
  556SOL     OW 1666   0.794   2.390   1.567 -0.8358 -0.3759  0.2798
  556SOL    HW1 1667   0.852   2.465   1.614 -1.3769 -0.4306  0.6578
  556SOL    HW2 1668   0.846   2.359   1.482  0.6575  2.4873 -0.7822
  557SOL     OW 1669   0.089   2.071   0.156  0.0899  0.0440 -0.1151
  557SOL    HW1 1670   0.028   2.005   0.099  1.2007 -1.2205 -4.4401
  557SOL    HW2 1671   0.124   2.150   0.095 -0.0498 -0.0073 -0.2189
  558SOL     OW 1672   2.939   2.321   0.281 -0.0882 -0.4880 -0.1284
  558SOL    HW1 1673   2.837   2.334   0.304  0.1024  2.0036 -1.7043
  558SOL    HW2 1674   2.957   2.326   0.180  3.3547  0.6795  0.6248
  559SOL     OW 1675   0.362   2.304   1.347  0.1130 -0.2840  0.0651
  559SOL    HW1 1676   0.259   2.298   1.313 -0.7984 -0.1186 -0.9668
  559SOL    HW2 1677   0.417   2.230   1.301 -1.4413  1.1482  1.4536
  560SOL     OW 1678   2.087   1.127   3.080  0.5241 -0.0516  0.1753
  560SOL    HW1 1679   2.019   1.146   3.156  0.2684  0.1471 -0.0064
  560SOL    HW2 1680   2.158   1.201   3.076 -0.9977  0.5571  0.1414
  561SOL     OW 1681   3.010   1.881   0.024  0.3653 -0.0715 -0.3591
  561SOL    HW1 1682   2.980   1.854   0.119 -1.2274  0.0626  0.5839
  561SOL    HW2 1683   2.950   1.961  -0.010 -2.2542  1.4736 -1.8433
  562SOL     OW 1684   0.980   2.242   2.359  0.8815  0.7953  0.0542
  562SOL    HW1 1685   0.898   2.190   2.403 -0.6438  0.2447  1.9753
  562SOL    HW2 1686   0.995   2.336   2.386  2.1935 -0.9729 -0.0640
  563SOL     OW 1687   0.715   2.535   2.569  0.2299 -0.0271 -0.3192
  563SOL    HW1 1688   0.779   2.461   2.604 -1.8558  3.6210 -0.2330
  563SOL    HW2 1689   0.677   2.587   2.651  0.7797  1.6797 -0.2828
  564SOL     OW 1690   2.770   1.308   2.948 -0.1296 -0.0397  0.3124
  564SOL    HW1 1691   2.706   1.322   3.026  1.3441 -1.3025  1.5972
  564SOL    HW2 1692   2.785   1.397   2.893 -2.0929  1.3215 -0.9963
  565SOL     OW 1693   2.577   1.934   2.599 -0.1590 -0.5109  0.6541
  565SOL    HW1 1694   2.522   2.004   2.546  0.8357 -1.1289 -0.7342
  565SOL    HW2 1695   2.652   1.980   2.655 -0.1881  0.5398  1.0935
  566SOL     OW 1696   1.955   2.857   1.376 -0.9322  0.1182 -1.0639
  566SOL    HW1 1697   1.951   2.754   1.360 -0.4209 -1.0352 -0.5410
  566SOL    HW2 1698   1.916   2.915   1.305 -0.5377 -0.2996  2.1534
  567SOL     OW 1699   2.497   0.034   2.264  0.0980  0.1780  0.6180
  567SOL    HW1 1700   2.589   0.032   2.216  0.0365 -2.2435  5.7539
  567SOL    HW2 1701   2.425  -0.005   2.198  2.7679 -1.1198 -3.8516
  568SOL     OW 1702   1.556   1.777   0.278 -0.0534  0.5817  0.4898
  568SOL    HW1 1703   1.489   1.842   0.229 -0.2368  0.4925  0.5215
  568SOL    HW2 1704   1.656   1.796   0.260 -1.1279 -1.7445 -0.9490
  569SOL     OW 1705   0.277   0.688   0.792 -0.5775  0.6570 -0.6818
  569SOL    HW1 1706   0.343   0.608   0.765  0.8050 -0.7399 -2.5562
  569SOL    HW2 1707   0.185   0.646   0.828 -1.8986 -1.8651 -0.3241
  570SOL     OW 1708   0.614   0.803   2.842 -0.7379  0.1636  0.1462
  570SOL    HW1 1709   0.673   0.775   2.758  4.8158  2.0376  0.3912
  570SOL    HW2 1710   0.642   0.896   2.879 -0.2852 -0.4980 -0.2459
  571SOL     OW 1711   0.784   3.084   1.047  0.7392  0.5605 -0.1847
  571SOL    HW1 1712   0.862   3.091   0.976  0.6830 -1.1616 -0.9784
  571SOL    HW2 1713   0.733   2.996   1.053 -2.6129  2.0607  0.4968
  572SOL     OW 1714   1.585   2.620   1.246 -0.3094 -0.1321  0.4976
  572SOL    HW1 1715   1.502   2.569   1.221  0.0638 -0.2769  0.2297
  572SOL    HW2 1716   1.578   2.720   1.222 -0.2644  0.9687 -1.4594
  573SOL     OW 1717   2.884   0.456   2.026 -0.8628  0.4829  0.1736
  573SOL    HW1 1718   2.849   0.361   2.020  0.5328  1.2881  0.4614
  573SOL    HW2 1719   2.808   0.527   2.011 -2.7007  1.1833  0.8156
  574SOL     OW 1720   0.193   1.728   1.001 -0.3253 -0.1053  0.0748
  574SOL    HW1 1721   0.187   1.830   0.988 -0.8930 -1.4090 -0.3614
  574SOL    HW2 1722   0.109   1.687   1.048  0.2421 -0.4422 -0.1101
  575SOL     OW 1723   0.942   2.151   0.970 -0.3400  0.5110 -0.2702
  575SOL    HW1 1724   0.907   2.166   1.065 -2.6641 -0.4292 -0.5348
  575SOL    HW2 1725   0.949   2.241   0.916 -0.2625  1.5609  0.2776
  576SOL     OW 1726   2.886   2.982   1.672  0.6030  0.1260  0.5208
  576SOL    HW1 1727   2.791   2.974   1.627 -0.9063  0.7314 -0.7105
  576SOL    HW2 1728   2.912   3.085   1.688 -1.0559  2.2525  0.7171
  577SOL     OW 1729   2.514   1.233   0.038  0.0004 -0.1168  0.4440
  577SOL    HW1 1730   2.537   1.151  -0.023 -1.3158  1.3892 -0.6266
  577SOL    HW2 1731   2.579   1.241   0.118 -0.7500  2.0886  1.3960
  578SOL     OW 1732   1.330   2.746   2.504 -0.1926  0.0846 -0.5263
  578SOL    HW1 1733   1.234   2.783   2.511 -0.1068 -1.5037  2.5521
  578SOL    HW2 1734   1.399   2.821   2.515  0.8956 -0.3347  0.1332
  579SOL     OW 1735   0.083   2.503   0.132 -0.0508  0.2055  0.1904
  579SOL    HW1 1736   0.045   2.518   0.226 -0.7252 -1.0325 -1.1609
  579SOL    HW2 1737   0.182   2.475   0.132 -2.7141 -0.3267  1.6939
  580SOL     OW 1738   1.039   2.630   0.425 -0.7574 -0.1665 -0.0209
  580SOL    HW1 1739   1.123   2.644   0.358 -0.6327 -2.4025 -0.9988
  580SOL    HW2 1740   0.955   2.598   0.378 -1.1904 -2.7478  1.0811
  581SOL     OW 1741   1.282   2.577   1.516  0.1548 -0.5168  0.1622
  581SOL    HW1 1742   1.298   2.477   1.523  1.3579  2.4863  0.3197
  581SOL    HW2 1743   1.359   2.633   1.478 -0.8117 -0.9049 -1.3318
  582SOL     OW 1744   1.492   0.086   1.855 -0.0322 -0.1025  0.6639
  582SOL    HW1 1745   1.513   0.172   1.915 -2.7803 -0.8039  1.7388
  582SOL    HW2 1746   1.570   0.073   1.787  0.2762  0.4487 -0.0826
  583SOL     OW 1747   2.506   3.045   0.503 -0.0950  0.1135 -0.2138
  583SOL    HW1 1748   2.589   3.006   0.449  0.1639  2.6457  0.0233
  583SOL    HW2 1749   2.455   2.976   0.555  0.2700  3.1182  1.3040
  584SOL     OW 1750   1.629   0.930   2.097 -0.3289  0.2310 -0.3542
  584SOL    HW1 1751   1.695   0.981   2.038  0.9008 -5.4044 -0.0799
  584SOL    HW2 1752   1.682   0.889   2.176 -1.1455 -0.3305  1.5005
  585SOL     OW 1753   2.091   2.656   2.928 -0.2967  0.2014 -0.6951
  585SOL    HW1 1754   2.134   2.562   2.916  0.2224 -3.6847 -0.7548
  585SOL    HW2 1755   1.993   2.652   2.893  1.2236 -0.6815  2.0354
  586SOL     OW 1756   2.792   0.300   1.555  0.8182  0.6801 -0.3006
  586SOL    HW1 1757   2.796   0.389   1.606  1.9467 -3.2507 -0.0761
  586SOL    HW2 1758   2.702   0.250   1.562  1.2877  1.0811  1.8822
  587SOL     OW 1759   1.957   1.523   2.736  0.5486  0.0915 -0.2201
  587SOL    HW1 1760   2.018   1.460   2.673 -1.1011  1.0694 -0.9333
  587SOL    HW2 1761   2.010   1.554   2.819  0.7019 -0.4110 -1.7503
  588SOL     OW 1762   0.465   2.731   2.245 -0.1019 -0.2107 -0.3179
  588SOL    HW1 1763   0.369   2.724   2.208 -0.3683 -1.6555  2.1526
  588SOL    HW2 1764   0.490   2.652   2.303  0.5288  0.4332  0.2302
  589SOL     OW 1765   2.118   1.407   2.552  0.4182 -0.0312 -0.1639
  589SOL    HW1 1766   2.067   1.377   2.466  0.3656  0.1571 -0.3837
  589SOL    HW2 1767   2.217   1.369   2.549 -1.8038 -0.0632 -0.4291
  590SOL     OW 1768   2.333   1.657   2.044 -0.0595 -0.2044 -0.1323
  590SOL    HW1 1769   2.421   1.610   2.015  0.5767  0.3013  0.5531
  590SOL    HW2 1770   2.341   1.711   2.132  1.8911 -0.8946 -0.9498
  591SOL     OW 1771   1.330   2.406   0.257 -0.2022  0.3863 -0.0605
  591SOL    HW1 1772   1.369   2.320   0.210  0.8898  1.2683 -0.0255
  591SOL    HW2 1773   1.325   2.395   0.361 -0.7715  0.7651 -0.2593
  592SOL     OW 1774   1.789   2.315   0.772  0.3878  0.1287 -0.6792
  592SOL    HW1 1775   1.745   2.383   0.705  1.9120 -0.8264 -2.0040
  592SOL    HW2 1776   1.889   2.306   0.754  0.9024 -1.1582  0.6207
  593SOL     OW 1777   0.700   0.273   0.197  0.0628 -0.5020  1.2122
  593SOL    HW1 1778   0.744   0.234   0.113 -1.5653 -0.8300  2.3613
  593SOL    HW2 1779   0.710   0.373   0.200 -0.1116  0.2974  1.3692
  594SOL     OW 1780   0.935   1.857   2.710 -0.0755  0.7812 -0.2619
  594SOL    HW1 1781   1.036   1.860   2.732  1.9311  0.9867 -1.6885
  594SOL    HW2 1782   0.885   1.930   2.759  1.9993 -0.0438  0.2550
  595SOL     OW 1783   1.556   0.062   1.068  0.7177 -0.0860  0.9794
  595SOL    HW1 1784   1.636   0.023   1.020  0.0672 -0.7254  0.6522
  595SOL    HW2 1785   1.467   0.038   1.018 -0.4611  0.5835  0.3732
  596SOL     OW 1786   0.012   1.448   2.220  0.1027 -0.3207 -0.4900
  596SOL    HW1 1787  -0.045   1.361   2.221  1.9464 -1.7876  0.0791
  596SOL    HW2 1788   0.047   1.470   2.311 -0.2641 -1.5441  0.3846
  597SOL     OW 1789   2.026   2.545   1.620 -0.5228 -0.1456 -0.0990
  597SOL    HW1 1790   2.045   2.466   1.550  0.6829 -2.9299 -2.0575
  597SOL    HW2 1791   2.103   2.554   1.696  1.2555 -1.8003 -1.9002
  598SOL     OW 1792   2.516   2.980   1.314 -0.0125  0.0683 -0.2698
  598SOL    HW1 1793   2.610   3.011   1.355  0.4225 -0.5206  0.1814
  598SOL    HW2 1794   2.524   2.913   1.235 -1.0290 -1.3711 -1.0576
  599SOL     OW 1795   2.960   0.372   2.507 -0.1550 -0.3813  0.3546
  599SOL    HW1 1796   3.050   0.411   2.474  1.4890 -1.8928  0.7554
  599SOL    HW2 1797   2.882   0.426   2.471  0.4419 -2.2378 -0.6236
  600SOL     OW 1798   2.764   1.114   2.706  0.4739 -0.0591  0.3910
  600SOL    HW1 1799   2.750   1.015   2.731  0.0017 -1.5142  1.9017
  600SOL    HW2 1800   2.725   1.179   2.776 -0.8462  0.7684  2.0442
  601SOL     OW 1801   2.970   1.281   1.943  0.6190 -0.3686  0.5150
  601SOL    HW1 1802   2.896   1.297   1.869 -0.0291  0.2308 -1.3095
  601SOL    HW2 1803   3.052   1.353   1.943  0.5945  1.9081  2.1040
  602SOL     OW 1804   1.428   1.709   2.364 -0.0625 -0.1568  0.2208
  602SOL    HW1 1805   1.379   1.617   2.350  2.9281  1.0199 -0.4505
  602SOL    HW2 1806   1.526   1.694   2.400  1.1648  2.3949 -1.4958
  603SOL     OW 1807   0.583   1.216   2.761 -0.2291 -0.0262  0.3607
  603SOL    HW1 1808   0.499   1.179   2.709 -0.9928  1.5756 -1.3737
  603SOL    HW2 1809   0.673   1.170   2.733  2.0573 -1.5043 -1.2026
  604SOL     OW 1810   2.381   1.009   0.144  0.4474 -0.1241 -0.1817
  604SOL    HW1 1811   2.408   1.096   0.093 -1.7040  3.7032 -1.8741
  604SOL    HW2 1812   2.399   0.926   0.088 -2.7445  0.2761  0.7918
  605SOL     OW 1813   2.548   1.170   1.897 -0.3336  0.0653  0.6516
  605SOL    HW1 1814   2.551   1.064   1.896  1.1505  0.8317  0.4088
  605SOL    HW2 1815   2.567   1.205   1.990  1.7974 -2.5583 -2.1014
  606SOL     OW 1816   1.460   2.527   2.598 -0.2527  0.4514 -0.3678
  606SOL    HW1 1817   1.404   2.599   2.548  1.2255 -0.5039  0.6610
  606SOL    HW2 1818   1.429   2.430   2.575  2.4143 -2.4251 -0.0448
  607SOL     OW 1819   1.362   1.610   0.392 -0.5298  0.0598 -0.2779
  607SOL    HW1 1820   1.272   1.652   0.419 -1.7166 -1.1921 -0.1956
  607SOL    HW2 1821   1.432   1.679   0.351  0.7642 -1.5117 -0.2298
  608SOL     OW 1822   1.445   2.858   0.336 -0.2622  0.4606 -0.5447
  608SOL    HW1 1823   1.519   2.901   0.277  1.5287  0.0545 -0.2664
  608SOL    HW2 1824   1.408   2.927   0.405  0.3416  2.2983 -1.3454
  609SOL     OW 1825   1.337   1.394   0.247 -0.5519 -0.0779 -0.6665
  609SOL    HW1 1826   1.343   1.479   0.309  0.1916 -2.4783 -2.6187
  609SOL    HW2 1827   1.286   1.416   0.155 -1.1141 -2.5073 -2.8424
  610SOL     OW 1828   3.032   1.128   2.176  0.2644 -0.3320  0.3546
  610SOL    HW1 1829   3.026   1.024   2.162  0.4928  0.1958 -0.2179
  610SOL    HW2 1830   2.995   1.184   2.092 -3.9807  1.8073  2.6674
  611SOL     OW 1831   2.568   0.278   1.111 -0.4154  0.1621 -0.0395
  611SOL    HW1 1832   2.499   0.218   1.160 -1.4512  1.0877 -0.8330
  611SOL    HW2 1833   2.655   0.292   1.165  0.0271 -2.9111  1.0558
  612SOL     OW 1834   0.767   2.241   1.171 -0.2935  0.2358 -0.4933
  612SOL    HW1 1835   0.683   2.204   1.216 -2.0218  1.2676  0.9178
  612SOL    HW2 1836   0.760   2.340   1.149 -0.1211 -0.8159 -1.3210
  613SOL     OW 1837   0.806   1.374   2.446  0.6785 -0.3242  0.4319
  613SOL    HW1 1838   0.793   1.436   2.361 -1.3446 -0.6633  1.0912
  613SOL    HW2 1839   0.797   1.271   2.422  1.5049 -0.3025 -0.2115
  614SOL     OW 1840   1.594   1.639   1.979  0.3868  0.3891  0.3921
  614SOL    HW1 1841   1.545   1.726   2.010 -0.0387  1.3459 -1.3946
  614SOL    HW2 1842   1.684   1.630   2.032  1.7447  1.1025 -0.2275
  615SOL     OW 1843   0.758   1.308   1.707 -0.0087 -0.1264 -0.0078
  615SOL    HW1 1844   0.689   1.260   1.652  2.6828  0.5606  0.8748
  615SOL    HW2 1845   0.809   1.371   1.641  1.6022 -1.1614  1.2370
  616SOL     OW 1846   1.059   1.668   2.238 -0.3065 -0.0274 -0.8056
  616SOL    HW1 1847   0.974   1.619   2.265 -0.4663 -0.5733  1.4589
  616SOL    HW2 1848   1.046   1.770   2.244  0.1605  2.2858 -1.1551
  617SOL     OW 1849   2.947   1.579   1.609  0.0564  0.1459  0.0984
  617SOL    HW1 1850   2.939   1.490   1.669  0.9928 -0.9580  1.3277
  617SOL    HW2 1851   2.971   1.562   1.512  1.6151  1.5240  0.8142
  618SOL     OW 1852   1.881   1.983   1.384 -0.2537 -0.3251  0.0787
  618SOL    HW1 1853   1.935   1.994   1.301  0.3690 -0.6112  1.6085
  618SOL    HW2 1854   1.869   1.884   1.413 -0.1321  0.0933 -0.5163
  619SOL     OW 1855   1.784   0.437   2.370 -0.3120 -0.1329 -0.3046
  619SOL    HW1 1856   1.708   0.492   2.331  0.9167  2.4711 -1.5532
  619SOL    HW2 1857   1.752   0.355   2.422  1.3216 -0.7361  1.2608
  620SOL     OW 1858   2.309   2.910   0.645 -0.7993  0.2055 -0.4868
  620SOL    HW1 1859   2.239   2.986   0.669  2.1046  1.3266  0.0381
  620SOL    HW2 1860   2.316   2.837   0.714  0.1880  2.2842  1.6629
  621SOL     OW 1861   2.161   1.836   1.280  0.1865  0.3179  0.1517
  621SOL    HW1 1862   2.182   1.816   1.383 -0.6836  1.0457 -1.5546
  621SOL    HW2 1863   2.085   1.772   1.247 -1.5678 -0.6640 -0.3554
  622SOL     OW 1864   2.279   0.914   1.762 -0.5292  0.8247 -0.0861
  622SOL    HW1 1865   2.384   0.911   1.743  2.1441 -0.1966 -2.3419
  622SOL    HW2 1866   2.257   0.835   1.827  0.4408 -0.7783 -3.1028
  623SOL     OW 1867   1.334   0.826   2.632  0.0833 -0.0622  0.7054
  623SOL    HW1 1868   1.335   0.736   2.686 -2.0561 -0.7396  0.4715
  623SOL    HW2 1869   1.262   0.822   2.556 -0.5572 -1.0110 -0.1242
  624SOL     OW 1870   0.571   0.706   3.093  0.0780 -0.4117 -0.4508
  624SOL    HW1 1871   0.587   0.749   3.003  0.8624 -1.7972 -0.4060
  624SOL    HW2 1872   0.582   0.779   3.170  0.6291  0.8797 -0.3350
  625SOL     OW 1873   2.809   1.726   1.023 -0.2175 -0.3520 -1.2345
  625SOL    HW1 1874   2.718   1.763   0.991  1.1638 -0.3776  0.3775
  625SOL    HW2 1875   2.866   1.803   1.068 -0.2988  0.7450  1.0530
  626SOL     OW 1876   0.594   2.752   1.711  0.3818  0.6809  0.2672
  626SOL    HW1 1877   0.613   2.841   1.760 -0.1713 -0.3906  0.5194
  626SOL    HW2 1878   0.500   2.712   1.721  0.7329 -1.2794 -0.1051
  627SOL     OW 1879   0.763   0.945   1.486  0.4607  0.1389  0.7431
  627SOL    HW1 1880   0.720   0.895   1.407  3.9594 -1.4830  0.7585
  627SOL    HW2 1881   0.803   1.038   1.462 -0.3651  3.2089 -0.6693
  628SOL     OW 1882   2.440   0.140   0.684 -0.7298  0.3307  0.1257
  628SOL    HW1 1883   2.450   0.077   0.603 -0.2799 -0.7474  2.0934
  628SOL    HW2 1884   2.333   0.153   0.694 -1.7689 -2.2615  1.8449
  629SOL     OW 1885   1.982   0.927   1.972  0.1343 -0.0367 -0.2320
  629SOL    HW1 1886   2.033   0.958   1.892 -1.4417 -1.6125  0.0081
  629SOL    HW2 1887   1.967   1.005   2.039  1.0569 -1.5793 -0.1530
  630SOL     OW 1888   2.908   2.219   0.836 -0.4699 -0.4695 -0.0328
  630SOL    HW1 1889   2.836   2.293   0.845 -0.9113 -2.0692 -0.1685
  630SOL    HW2 1890   2.883   2.134   0.781 -1.2201  1.8758 -0.4511
  631SOL     OW 1891   3.011   0.158   2.120 -0.3161  0.6678  0.4400
  631SOL    HW1 1892   3.077   0.177   2.195 -1.3156  0.6052 -0.5454
  631SOL    HW2 1893   3.064   0.141   2.028  0.8781  0.2573 -1.6572
  632SOL     OW 1894   2.389   2.539   0.642 -0.5265  0.2691 -0.0011
  632SOL    HW1 1895   2.389   2.630   0.697 -2.7733 -0.9536  0.2430
  632SOL    HW2 1896   2.359   2.550   0.541  2.4574 -2.1883 -1.1518
  633SOL     OW 1897   1.409   1.207   2.639 -0.2431  0.6028 -1.1731
  633SOL    HW1 1898   1.431   1.299   2.682  1.4101 -0.4077  0.1652
  633SOL    HW2 1899   1.364   1.218   2.549  1.7066 -1.3854 -1.0390
  634SOL     OW 1900   0.723   2.032   0.863  0.4645 -0.2195  0.1794
  634SOL    HW1 1901   0.641   2.034   0.927  0.1181  2.8623 -0.1699
  634SOL    HW2 1902   0.811   2.064   0.906  0.9669  0.4540 -0.5152
  635SOL     OW 1903   2.982   2.359   0.003  0.2288  0.3381 -0.1839
  635SOL    HW1 1904   2.904   2.419  -0.032  0.2102  0.5021  0.9359
  635SOL    HW2 1905   3.060   2.412   0.043  0.1019 -2.8515 -0.4231
  636SOL     OW 1906   2.300   2.737   2.041 -0.5523 -0.1911  0.4853
  636SOL    HW1 1907   2.308   2.842   2.050 -2.5487 -1.1176  0.7449
  636SOL    HW2 1908   2.257   2.696   2.126  1.5191  1.2748  3.8221
  637SOL     OW 1909   2.665   0.633   1.974  0.2420 -0.0145  0.4052
  637SOL    HW1 1910   2.581   0.636   1.916  1.8790  0.4682  4.9635
  637SOL    HW2 1911   2.705   0.727   1.986 -0.2419  1.0445  1.9577
  638SOL     OW 1912   2.457   1.821   1.255 -0.1126 -0.0457 -0.0936
  638SOL    HW1 1913   2.354   1.821   1.240  2.0028 -1.3051 -2.5568
  638SOL    HW2 1914   2.485   1.763   1.339 -1.1622 -0.6932  0.0507
  639SOL     OW 1915   1.291   2.097   1.700  0.2622  0.9148  0.6574
  639SOL    HW1 1916   1.293   2.148   1.607 -0.9268  0.1114  0.5195
  639SOL    HW2 1917   1.197   2.101   1.745  0.8993  1.5611  1.1485
  640SOL     OW 1918   0.169   1.157   1.589  0.1202 -0.0660  0.3049
  640SOL    HW1 1919   0.158   1.200   1.686  0.1082  0.4250 -0.5921
  640SOL    HW2 1920   0.261   1.103   1.575  0.8781  1.4517  3.2222
  641SOL     OW 1921   2.034   0.173   1.561  0.6847 -0.4850  0.2841
  641SOL    HW1 1922   2.004   0.163   1.657 -0.1738 -2.3260 -1.4156
  641SOL    HW2 1923   2.133   0.147   1.545  1.5606  1.0136 -0.4513
  642SOL     OW 1924   2.007   3.084   0.349 -0.0500  0.4223 -0.2597
  642SOL    HW1 1925   2.094   3.129   0.382 -1.9288  1.6929  0.7277
  642SOL    HW2 1926   1.964   3.012   0.411  0.1675  1.8728  0.2327
  643SOL     OW 1927   2.956   1.835   2.082  0.3349  0.2367 -0.9191
  643SOL    HW1 1928   2.885   1.775   2.034 -1.4690  1.8514 -0.1159
  643SOL    HW2 1929   2.953   1.933   2.046 -1.3496  2.4618 -1.0180
  644SOL     OW 1930   2.210   2.370   1.177  0.2267  0.2462  0.3459
  644SOL    HW1 1931   2.305   2.335   1.157 -1.7449 -2.4366  0.2899
  644SOL    HW2 1932   2.182   2.349   1.272  0.2127  2.4638 -1.4430
  645SOL     OW 1933   0.616   0.828   1.285 -0.1468 -0.5723  0.1716
  645SOL    HW1 1934   0.516   0.855   1.303 -1.8692  1.7050  0.6471
  645SOL    HW2 1935   0.638   0.853   1.181 -1.1040 -1.9295 -2.6680
  646SOL     OW 1936   1.441   1.852   2.076 -0.1243  0.1413 -0.4512
  646SOL    HW1 1937   1.428   1.946   2.036  0.2221  0.4601 -1.2453
  646SOL    HW2 1938   1.408   1.842   2.176 -0.7368  0.0155 -0.0750
  647SOL     OW 1939   0.779   1.065   0.704  0.3147  0.6739 -0.1928
  647SOL    HW1 1940   0.836   1.093   0.787  1.0415  0.7621 -3.2505
  647SOL    HW2 1941   0.709   0.991   0.722  3.5279  3.4059 -1.3879
  648SOL     OW 1942   0.085   0.238   0.246  0.2399  0.2553 -0.5837
  648SOL    HW1 1943   0.148   0.189   0.179  0.3028 -1.6132  1.5353
  648SOL    HW2 1944   0.087   0.338   0.238 -0.7133 -3.1983 -0.7550
  649SOL     OW 1945   3.018   0.259   0.814  0.4042 -0.0898  0.3278
  649SOL    HW1 1946   3.106   0.205   0.833  1.2048 -2.5167  1.3634
  649SOL    HW2 1947   2.981   0.315   0.894 -2.2197  1.6614  0.6830
  650SOL     OW 1948   2.787   0.738   1.517  0.2707  0.4285 -0.4517
  650SOL    HW1 1949   2.684   0.718   1.512 -0.8074 -2.2522 -0.5331
  650SOL    HW2 1950   2.821   0.789   1.433  1.7462 -1.0073 -2.3283
  651SOL     OW 1951   0.883   1.514   1.566  0.9791 -0.0870  0.7986
  651SOL    HW1 1952   0.942   1.568   1.634 -0.9539 -0.4659 -1.8001
  651SOL    HW2 1953   0.931   1.493   1.476 -0.3187  2.1462 -1.8987
  652SOL     OW 1954   2.331   2.424   2.471  0.2387 -0.0262  0.7108
  652SOL    HW1 1955   2.232   2.403   2.490  0.4915 -1.2510 -1.8376
  652SOL    HW2 1956   2.348   2.525   2.455 -0.2734  1.0729  0.0182
  653SOL     OW 1957   2.690   1.239   0.240 -0.0398 -0.1646 -0.1768
  653SOL    HW1 1958   2.701   1.311   0.317 -0.3302  1.7164 -0.3938
  653SOL    HW2 1959   2.767   1.162   0.246  1.7739 -0.1415  0.0080
  654SOL     OW 1960   1.234   2.239   1.256  0.1715  0.0090  0.2685
  654SOL    HW1 1961   1.271   2.188   1.338  0.7692  0.2470 -0.8714
  654SOL    HW2 1962   1.292   2.223   1.172  0.6033  0.4894 -0.6192
  655SOL     OW 1963   0.176   0.941   1.942 -0.1212  0.2812  0.8249
  655SOL    HW1 1964   0.222   0.891   1.864  0.8520  2.0356  1.6339
  655SOL    HW2 1965   0.210   1.040   1.941  0.3742  1.4784  1.7987
  656SOL     OW 1966   2.577   2.435   2.619 -0.1516  0.0211  0.2272
  656SOL    HW1 1967   2.673   2.419   2.582 -0.3846  1.7173  0.4004
  656SOL    HW2 1968   2.508   2.400   2.550 -1.8335 -4.3813 -0.4991
  657SOL     OW 1969   3.003   0.993   1.897  0.0797  0.2710 -0.1794
  657SOL    HW1 1970   3.003   1.097   1.898  0.4425 -1.1156  0.3189
  657SOL    HW2 1971   3.097   0.946   1.914  0.6258 -3.3483 -0.7028
  658SOL     OW 1972   1.626   0.171   2.371 -0.2593  0.1002 -0.0437
  658SOL    HW1 1973   1.670   0.115   2.443 -0.2201  0.7043 -2.3114
  658SOL    HW2 1974   1.673   0.155   2.279  1.7976  1.3483  1.1217
  659SOL     OW 1975   1.397   0.630   2.834 -0.1159  0.1838  0.0136
  659SOL    HW1 1976   1.447   0.708   2.877 -1.7115 -0.2956  0.1073
  659SOL    HW2 1977   1.300   0.619   2.871 -1.5615  0.8594  1.9779
  660SOL     OW 1978   1.417   0.336   1.398  0.2048  0.0453 -0.3917
  660SOL    HW1 1979   1.454   0.385   1.481  1.0943  1.1346  2.6265
  660SOL    HW2 1980   1.477   0.257   1.370  0.3337  0.7035 -3.5822
  661SOL     OW 1981   2.393   1.188   0.651  0.9336  0.0263  0.4158
  661SOL    HW1 1982   2.416   1.193   0.545 -0.7917 -1.3249 -3.6099
  661SOL    HW2 1983   2.367   1.281   0.691 -0.4080 -1.2043 -1.8534
  662SOL     OW 1984   1.410   0.373   1.726  0.1104  0.2273  0.2344
  662SOL    HW1 1985   1.349   0.292   1.746 -1.2164  1.1617  2.8726
  662SOL    HW2 1986   1.389   0.454   1.785 -0.0328  0.5175 -1.3343
  663SOL     OW 1987   0.791   1.549   2.195  0.0045 -0.1585 -0.0078
  663SOL    HW1 1988   0.709   1.606   2.213 -0.2340 -0.7022 -3.2618
  663SOL    HW2 1989   0.774   1.490   2.113 -1.7804  3.6431  5.3647
  664SOL     OW 1990   1.619   2.046   1.390 -0.4288  0.0101  0.0852
  664SOL    HW1 1991   1.570   1.990   1.464 -1.2597  2.3390 -1.0899
  664SOL    HW2 1992   1.716   2.018   1.373 -1.7718 -2.5213 -1.4641
  665SOL     OW 1993   2.240   0.700   1.941  0.1269  0.0555 -0.1417
  665SOL    HW1 1994   2.151   0.648   1.928  1.4445 -2.2097 -1.2467
  665SOL    HW2 1995   2.274   0.705   2.034 -1.2216 -0.3402 -0.3906
  666SOL     OW 1996   0.443   2.306   0.334  0.2792 -0.4929  0.6144
  666SOL    HW1 1997   0.500   2.330   0.418 -0.2392  1.5888  0.8991
  666SOL    HW2 1998   0.346   2.281   0.353 -0.5111  1.7894 -1.0072
  667SOL     OW 1999   2.075   0.188   1.186 -0.3138  0.0289  0.7772
  667SOL    HW1 2000   2.053   0.280   1.143  0.4790  1.0251  1.1427
  667SOL    HW2 2001   2.010   0.151   1.257 -3.0969  0.3073 -1.5036
  668SOL     OW 2002   2.056   0.482   1.111 -0.1245 -0.0535 -0.0125
  668SOL    HW1 2003   2.126   0.513   1.041  0.9519  1.4383 -1.8218
  668SOL    HW2 2004   2.089   0.486   1.213  0.6373  0.7815  2.6276
  669SOL     OW 2005   3.092   2.110   1.030 -0.2056 -0.2448  0.7300
  669SOL    HW1 2006   3.046   2.160   0.946  1.5660  0.8361  2.4354
  669SOL    HW2 2007   3.118   2.182   1.106  2.3833  1.3081 -0.0622
  670SOL     OW 2008   2.861   2.349   2.022  0.3859  0.2225 -1.1095
  670SOL    HW1 2009   2.784   2.325   2.091  0.6297 -0.2760  1.7197
  670SOL    HW2 2010   2.867   2.453   2.000 -0.9616 -2.7277  0.6670
  671SOL     OW 2011   1.695   1.781   1.493 -0.1391 -0.4683  0.2349
  671SOL    HW1 2012   1.669   1.790   1.393  1.1767  0.8151  0.7482
  671SOL    HW2 2013   1.636   1.839   1.553  1.9999 -1.3140 -1.9493
  672SOL     OW 2014   0.430   0.631   2.372 -0.3751  0.1991  0.5636
  672SOL    HW1 2015   0.456   0.671   2.283  2.2386 -0.7391  1.5003
  672SOL    HW2 2016   0.342   0.673   2.412 -0.5020  0.7281  0.1759
  673SOL     OW 2017   0.122   1.228   1.122 -0.4193 -0.1944  0.0966
  673SOL    HW1 2018   0.128   1.282   1.213 -1.2195  1.1017 -0.2499
  673SOL    HW2 2019   0.209   1.182   1.093 -1.0665 -0.7244 -1.2813
  674SOL     OW 2020   1.712   2.972   0.258 -0.1854 -0.5444 -0.4260
  674SOL    HW1 2021   1.762   3.057   0.234  1.0359 -1.2332  0.1616
  674SOL    HW2 2022   1.766   2.890   0.227  1.6284 -1.3151 -1.4818
  675SOL     OW 2023   1.730   0.811   2.333  0.5361 -0.0758 -0.2552
  675SOL    HW1 2024   1.833   0.787   2.319  1.5913 -0.7225 -1.0657
  675SOL    HW2 2025   1.677   0.724   2.324  2.1930 -0.3875  2.5395
  676SOL     OW 2026   2.557   1.480   1.934 -0.5330 -0.1836  0.1779
  676SOL    HW1 2027   2.500   1.452   1.854  0.2408 -0.6899  0.4567
  676SOL    HW2 2028   2.575   1.407   2.012 -0.8462  0.8728  0.2601
  677SOL     OW 2029   1.869   0.658   0.905 -0.7151  0.1086 -0.0825
  677SOL    HW1 2030   1.779   0.650   0.963 -1.8128  1.4880  1.7326
  677SOL    HW2 2031   1.917   0.567   0.888 -0.2608 -2.9187 -0.0388
  678SOL     OW 2032   0.030   0.752   1.654 -0.3252 -0.2555  0.3752
  678SOL    HW1 2033   0.130   0.771   1.671  0.7712 -0.3241  1.7530
  678SOL    HW2 2034  -0.023   0.734   1.745  0.8632 -0.1321  0.2173
  679SOL     OW 2035   2.524   1.220   1.144  0.1840 -0.5586 -1.1511
  679SOL    HW1 2036   2.425   1.256   1.148  0.3854 -1.2645  2.5586
  679SOL    HW2 2037   2.541   1.120   1.133  0.2251  2.4962  0.7252
  680SOL     OW 2038   2.823   0.536   1.700  0.5667  0.8076  0.1288
  680SOL    HW1 2039   2.813   0.615   1.634 -1.0360 -1.1587  0.1038
  680SOL    HW2 2040   2.888   0.569   1.778  0.5472  0.5765  3.0146
  681SOL     OW 2041   3.004   0.158   1.619 -0.3473  0.1334 -0.0358
  681SOL    HW1 2042   3.049   0.109   1.537  2.3880 -1.2609  0.0508
  681SOL    HW2 2043   2.936   0.221   1.583 -1.2507  2.1084  0.2842
  682SOL     OW 2044   0.800   3.094   1.317  0.2094 -0.2690 -0.5331
  682SOL    HW1 2045   0.703   3.067   1.336  1.2400 -1.5665  0.7372
  682SOL    HW2 2046   0.806   3.097   1.215 -0.0129 -0.4181 -1.0557
  683SOL     OW 2047   1.348   0.238   2.154 -0.3512 -0.3220 -0.3775
  683SOL    HW1 2048   1.343   0.303   2.233  1.1410  0.8879 -1.4825
  683SOL    HW2 2049   1.441   0.222   2.115 -0.6400  1.0166  2.4394
  684SOL     OW 2050   1.479   2.098   0.464  0.5223  0.5746 -0.0619
  684SOL    HW1 2051   1.514   2.037   0.539 -0.6869 -2.0570 -1.3620
  684SOL    HW2 2052   1.392   2.057   0.425 -1.4276  1.2172 -0.4112
  685SOL     OW 2053   2.178   2.047   1.941 -0.3141 -0.1358  0.1329
  685SOL    HW1 2054   2.251   2.038   1.864 -1.6405  1.4541  3.3217
  685SOL    HW2 2055   2.215   2.027   2.034  1.4483 -0.6768 -0.2281
  686SOL     OW 2056   1.511   1.812   2.717  0.8181 -0.2495  0.0646
  686SOL    HW1 2057   1.537   1.757   2.801  1.0502 -0.5937 -1.8836
  686SOL    HW2 2058   1.561   1.784   2.633  0.2107 -1.0023  0.4651
  687SOL     OW 2059   1.305   2.478   1.971 -0.2149  0.2440  0.7623
  687SOL    HW1 2060   1.321   2.375   1.972 -1.7861 -2.5559 -0.2642
  687SOL    HW2 2061   1.360   2.527   2.038  0.9571 -0.6580 -0.1367
  688SOL     OW 2062   2.044   1.507   1.799  0.2450 -0.2422 -0.3946
  688SOL    HW1 2063   2.126   1.574   1.807 -0.1742  4.1930 -2.9720
  688SOL    HW2 2064   2.038   1.474   1.700  3.4653  0.7630 -2.5386
  689SOL     OW 2065   2.356   1.082   2.767  0.4059  0.1830  0.2889
  689SOL    HW1 2066   2.266   1.032   2.790  0.0779 -0.0498 -3.9860
  689SOL    HW2 2067   2.434   1.063   2.830  0.5960 -2.5223 -1.9871
  690SOL     OW 2068   2.225   2.784   0.079  0.3133  0.3731 -0.3740
  690SOL    HW1 2069   2.169   2.737   0.003  0.1515  0.7451 -0.7240
  690SOL    HW2 2070   2.184   2.760   0.172  0.8712 -1.9482  2.4904
  691SOL     OW 2071   2.595   0.444   2.190  0.4849  0.4216  0.3930
  691SOL    HW1 2072   2.666   0.377   2.174 -3.8710  3.2640 -0.8342
  691SOL    HW2 2073   2.603   0.512   2.115  0.6269  0.9239  0.3889
  692SOL     OW 2074   2.728   1.246   0.732 -0.2717  0.1167  0.4312
  692SOL    HW1 2075   2.635   1.252   0.685  2.3366 -0.9235 -0.0371
  692SOL    HW2 2076   2.752   1.325   0.791  0.6534  2.0176 -2.4306
  693SOL     OW 2077   2.872   2.935   0.624  0.4005 -0.3984 -0.4381
  693SOL    HW1 2078   2.848   3.006   0.698  2.2364 -0.2684  1.1255
  693SOL    HW2 2079   2.827   2.973   0.536 -1.7896  0.3577 -0.1115
  694SOL     OW 2080   2.367   2.178   0.086 -0.1429 -0.7658 -0.2383
  694SOL    HW1 2081   2.339   2.267   0.127 -1.6020 -1.9460 -0.5474
  694SOL    HW2 2082   2.290   2.128   0.041  0.9114 -0.6319  0.5445
  695SOL     OW 2083   0.560   3.004   1.442  0.0426 -0.0015  0.2239
  695SOL    HW1 2084   0.505   2.925   1.412 -1.8102  2.6384 -0.9103
  695SOL    HW2 2085   0.505   3.058   1.509  0.7503  2.7945 -3.9225
  696SOL     OW 2086   2.801   2.006   0.710 -0.1516 -1.1219  0.0023
  696SOL    HW1 2087   2.861   1.922   0.717  0.1773  0.0042 -0.2991
  696SOL    HW2 2088   2.767   2.018   0.612 -0.8782 -0.9986 -0.2563
  697SOL     OW 2089   1.619   2.017   1.840 -0.3069 -0.0741  0.1858
  697SOL    HW1 2090   1.668   1.927   1.872 -0.3094 -1.3227  0.6031
  697SOL    HW2 2091   1.685   2.095   1.824  0.4793  2.1514 -1.9287
  698SOL     OW 2092   2.922   0.437   2.780  0.4644 -0.3741 -0.2852
  698SOL    HW1 2093   2.907   0.431   2.674  0.9410  0.0755  0.4730
  698SOL    HW2 2094   2.985   0.366   2.823 -0.0140  2.2851 -0.9468
  699SOL     OW 2095   1.547   0.088   2.903  0.3824 -0.2244 -0.1597
  699SOL    HW1 2096   1.539  -0.002   2.849 -1.6717 -2.3627 -0.0742
  699SOL    HW2 2097   1.605   0.154   2.849 -2.5866 -2.9397 -1.4000
  700SOL     OW 2098   0.963   2.324   1.333 -0.4752 -0.0161  0.0453
  700SOL    HW1 2099   1.053   2.281   1.304  1.6615 -0.1133  1.6515
  700SOL    HW2 2100   0.883   2.288   1.274 -0.2925 -0.5404  0.4059
  701SOL     OW 2101   1.873   2.930   3.055  0.4124 -0.1389 -0.0894
  701SOL    HW1 2102   1.860   2.888   3.148  1.7691 -1.6553 -0.7040
  701SOL    HW2 2103   1.890   3.030   3.054 -3.5406  0.4092 -1.6452
  702SOL     OW 2104   2.060   1.324   2.002 -0.0020  0.5862 -0.0612
  702SOL    HW1 2105   2.139   1.265   1.965 -0.1044  0.5770 -1.9692
  702SOL    HW2 2106   2.025   1.395   1.936 -0.9428 -2.1992  1.8574
  703SOL     OW 2107   1.925   0.905   1.457 -0.0786 -0.0666 -0.1548
  703SOL    HW1 2108   1.910   0.809   1.492  0.1209  1.7773 -0.3714
  703SOL    HW2 2109   2.008   0.951   1.505 -0.8639 -1.9009  1.3917
  704SOL     OW 2110   0.317   2.036   1.729  0.0794 -0.1270  0.7439
  704SOL    HW1 2111   0.365   1.980   1.810  0.6783 -0.2017  0.2753
  704SOL    HW2 2112   0.366   2.121   1.695 -1.5399 -0.1098 -1.3852
  705SOL     OW 2113   2.535   1.519   0.905 -0.2443 -0.2368  0.4875
  705SOL    HW1 2114   2.474   1.462   0.843 -0.6997  0.0620 -2.2202
  705SOL    HW2 2115   2.628   1.475   0.920 -1.5757 -1.3427 -1.4497
  706SOL     OW 2116   0.625   1.645   1.874  0.9072  0.1918  0.1840
  706SOL    HW1 2117   0.665   1.560   1.916  1.8239  0.5903 -0.0637
  706SOL    HW2 2118   0.689   1.724   1.880  0.2375 -1.3003 -2.5362
  707SOL     OW 2119   2.270   1.184   1.843  0.1615  0.2651  0.0965
  707SOL    HW1 2120   2.374   1.202   1.855 -0.6460 -1.0086  3.8852
  707SOL    HW2 2121   2.247   1.085   1.829 -1.7375  1.0315 -1.7544
  708SOL     OW 2122   3.072   0.538   3.077  0.1292 -0.5142  0.2412
  708SOL    HW1 2123   3.090   0.617   3.013  0.0187  0.7972 -0.0551
  708SOL    HW2 2124   3.017   0.464   3.039  0.2181 -0.0887  0.2182
  709SOL     OW 2125   1.862   1.836   0.245 -0.0120  0.3122 -0.3109
  709SOL    HW1 2126   1.899   1.931   0.279 -0.3189  1.1906  0.3639
  709SOL    HW2 2127   1.845   1.836   0.140 -2.5919  4.4708  0.8346
  710SOL     OW 2128   1.690   1.651   2.411  0.8760 -0.1557  0.6006
  710SOL    HW1 2129   1.749   1.660   2.322 -0.1115  1.0491 -2.0584
  710SOL    HW2 2130   1.706   1.565   2.468  1.4308 -0.4877  0.6117
  711SOL     OW 2131   2.626   2.919   1.047  0.7587  0.7258 -0.0733
  711SOL    HW1 2132   2.598   3.010   1.012  1.6196  0.6775  1.1365
  711SOL    HW2 2133   2.729   2.910   1.054  0.1638 -0.6798 -2.9356
  712SOL     OW 2134   1.396   2.206   1.965 -0.3024 -0.0008 -0.1133
  712SOL    HW1 2135   1.495   2.207   2.003  0.0661 -0.6996  3.0294
  712SOL    HW2 2136   1.390   2.159   1.869  1.4032 -2.1209 -1.8027
  713SOL     OW 2137   2.855   1.466   2.540  0.5337  0.1610  0.1151
  713SOL    HW1 2138   2.878   1.366   2.515 -1.8065 -1.2357 -1.2220
  713SOL    HW2 2139   2.766   1.481   2.593  0.4268  2.0094  3.9793
  714SOL     OW 2140   2.713   0.523   2.467  0.6104  0.3297  0.1907
  714SOL    HW1 2141   2.638   0.511   2.540 -0.8872 -0.1524  0.1497
  714SOL    HW2 2142   2.675   0.509   2.371  0.5052  0.9918 -1.3638
  715SOL     OW 2143   1.590   2.038   1.132 -0.2758 -0.1718  0.2847
  715SOL    HW1 2144   1.516   2.097   1.090 -1.3189 -1.8483  2.7803
  715SOL    HW2 2145   1.600   2.059   1.236  2.0056 -0.0687  2.5362
  716SOL     OW 2146   1.169   0.167   1.499 -0.0310 -0.4019 -0.4604
  716SOL    HW1 2147   1.070   0.172   1.470 -2.0922  3.0442 -1.0231
  716SOL    HW2 2148   1.218   0.260   1.475 -2.0993  2.9855 -0.3799
  717SOL     OW 2149   1.170   0.545   1.537 -0.1420 -0.5952  0.8520
  717SOL    HW1 2150   1.258   0.586   1.569 -0.2714 -1.8942 -2.1746
  717SOL    HW2 2151   1.177   0.516   1.435  1.0559  3.9810  1.2143
  718SOL     OW 2152   0.669   0.890   1.029  0.3506  0.1143 -0.3827
  718SOL    HW1 2153   0.631   0.885   0.929 -1.1165 -2.1315 -1.7529
  718SOL    HW2 2154   0.699   0.987   1.049  0.0253 -0.3910 -0.3674
  719SOL     OW 2155   0.592   1.756   2.303 -0.7169  0.7779 -0.8229
  719SOL    HW1 2156   0.669   1.797   2.357 -0.7959  1.4067  1.4053
  719SOL    HW2 2157   0.531   1.702   2.361  1.6940  2.9342 -0.0012
  720SOL     OW 2158   2.178   1.135   0.301 -0.2689  0.6373  0.0193
  720SOL    HW1 2159   2.222   1.054   0.249  0.4221 -1.0645  0.3116
  720SOL    HW2 2160   2.156   1.109   0.405 -1.1988  0.8517  3.1558
  721SOL     OW 2161   2.284   3.015   2.105 -0.1980  0.0829  0.3302
  721SOL    HW1 2162   2.204   2.981   2.047 -1.0916 -1.4399  1.6718
  721SOL    HW2 2163   2.261   3.057   2.194  1.1259 -0.7679 -1.1680
  722SOL     OW 2164   2.354   1.609   0.529  0.2699  0.0488 -0.4925
  722SOL    HW1 2165   2.305   1.551   0.458 -1.3491 -0.5027 -0.7042
  722SOL    HW2 2166   2.286   1.682   0.560 -0.6251 -0.8303  1.9969
  723SOL     OW 2167   2.589   2.743   1.942 -0.2208  0.5052 -0.1565
  723SOL    HW1 2168   2.612   2.816   2.013  0.0343 -1.5897  0.2550
  723SOL    HW2 2169   2.491   2.716   1.942 -0.4744 -1.5112 -0.0429
  724SOL     OW 2170   0.507   2.477   2.403  0.2386 -0.4209  0.2297
  724SOL    HW1 2171   0.426   2.433   2.449  2.2969  0.2938  1.6530
  724SOL    HW2 2172   0.584   2.492   2.472 -1.0218  0.8833  0.6595
  725SOL     OW 2173   2.443   2.815   1.534  1.4258  0.5183  0.1008
  725SOL    HW1 2174   2.455   2.880   1.453 -1.5243  1.3673 -0.4414
  725SOL    HW2 2175   2.409   2.720   1.512 -3.7084 -1.1200  0.2425
  726SOL     OW 2176   2.538   2.325   0.734 -0.2298 -0.3692  0.3360
  726SOL    HW1 2177   2.486   2.417   0.709  0.9314  0.6364 -1.5921
  726SOL    HW2 2178   2.519   2.254   0.665 -1.1622  0.3540 -1.4341
  727SOL     OW 2179   0.110   3.082   0.076  0.4053  0.3542 -0.1018
  727SOL    HW1 2180   0.162   3.001   0.039  0.5590  2.3776 -1.3103
  727SOL    HW2 2181   0.065   3.148   0.004 -1.5243  0.5759 -2.2437
  728SOL     OW 2182   2.893   0.635   0.958 -0.4303  0.1900  0.1222
  728SOL    HW1 2183   2.806   0.667   0.915  2.9245 -0.9363  0.9768
  728SOL    HW2 2184   2.886   0.621   1.059  0.3579 -0.4462 -0.3014
  729SOL     OW 2185   3.038   2.517   0.763  0.3276 -0.0593  0.5101
  729SOL    HW1 2186   2.984   2.453   0.813  0.2345  2.4601 -2.9279
  729SOL    HW2 2187   3.139   2.497   0.759  3.1029  0.9447 -0.0699
  730SOL     OW 2188   2.644   0.727   0.873 -0.1579  0.4383 -0.1347
  730SOL    HW1 2189   2.594   0.818   0.878 -2.0192  0.3809  2.0903
  730SOL    HW2 2190   2.682   0.702   0.776  0.4288 -0.4872  2.4655
  731SOL     OW 2191   0.061   2.113   2.499  0.2766 -0.2969  0.9909
  731SOL    HW1 2192   0.067   2.156   2.592  3.6592 -1.0571  0.3521
  731SOL    HW2 2193  -0.019   2.144   2.444 -0.1926  0.9281  0.3532
  732SOL     OW 2194   1.177   2.853   1.958  0.0409 -0.2541 -0.3813
  732SOL    HW1 2195   1.184   2.806   2.049 -1.1612  1.3826 -0.3847
  732SOL    HW2 2196   1.189   2.790   1.879 -1.2618 -1.0051 -0.7250
  733SOL     OW 2197   3.053   0.591   2.209 -0.2146  0.1560 -0.0515
  733SOL    HW1 2198   3.145   0.630   2.170 -0.2605 -0.6409  1.9434
  733SOL    HW2 2199   3.007   0.532   2.144 -0.4394  0.9117 -0.3243
  734SOL     OW 2200   1.442   0.387   2.688  0.0516  0.0963 -0.0690
  734SOL    HW1 2201   1.444   0.482   2.731 -1.3639  0.1362 -1.1756
  734SOL    HW2 2202   1.366   0.324   2.726 -0.6971  0.0807 -2.1814
  735SOL     OW 2203   2.885   2.667   2.290 -0.0703  0.2732 -0.3933
  735SOL    HW1 2204   2.884   2.685   2.191  0.0328 -3.1401  1.8105
  735SOL    HW2 2205   2.985   2.671   2.322 -0.5493  1.6336 -0.9143
  736SOL     OW 2206   0.836   0.311   2.561 -0.1973 -0.4323  0.1199
  736SOL    HW1 2207   0.774   0.386   2.520 -1.0515  2.4394 -0.7262
  736SOL    HW2 2208   0.874   0.247   2.489  1.1628  1.6395 -4.3192
  737SOL     OW 2209   2.643   0.464   2.845  0.0736  0.2261  0.0164
  737SOL    HW1 2210   2.636   0.421   2.942  2.8177  0.4804  1.4202
  737SOL    HW2 2211   2.744   0.465   2.819 -1.1481 -1.6738 -2.8518
  738SOL     OW 2212   1.646   1.246   2.885 -0.2615  0.2889  0.0170
  738SOL    HW1 2213   1.748   1.234   2.868  2.2553 -1.1799 -1.2347
  738SOL    HW2 2214   1.593   1.174   2.831 -0.6318 -1.7237  0.3410
  739SOL     OW 2215   1.712   0.671   0.686 -0.2933 -0.5163 -0.1589
  739SOL    HW1 2216   1.782   0.678   0.764 -0.8084  1.2095 -0.2676
  739SOL    HW2 2217   1.722   0.585   0.632  0.7429  3.1837  1.0437
  740SOL     OW 2218   1.991   1.932   2.346  0.6373 -0.2773 -0.5528
  740SOL    HW1 2219   2.048   1.856   2.384 -1.5280  1.0742  1.5249
  740SOL    HW2 2220   1.911   1.907   2.278 -3.5121 -1.3997 -1.1138
  741SOL     OW 2221   2.565   0.111   2.558 -0.4262 -0.8657 -0.7236
  741SOL    HW1 2222   2.666   0.119   2.586  0.9535 -1.8054 -1.6709
  741SOL    HW2 2223   2.548   0.080   2.461  0.5617  1.9968  0.5750
  742SOL     OW 2224   2.205   1.393   0.195  0.4995  0.4276 -0.4472
  742SOL    HW1 2225   2.113   1.438   0.171  1.4278 -1.1884 -0.3596
  742SOL    HW2 2226   2.184   1.292   0.231  1.4426  0.5852 -0.2209
  743SOL     OW 2227   1.825   0.652   2.618  0.5226  0.5541  0.8125
  743SOL    HW1 2228   1.816   0.549   2.582 -0.9687 -3.9964  3.8724
  743SOL    HW2 2229   1.739   0.710   2.624  1.1909 -1.2938 -0.4110
  744SOL     OW 2230   2.621   2.076   0.170  0.0031  1.3860  0.2139
  744SOL    HW1 2231   2.536   2.120   0.131  2.1062 -2.0052  2.8418
  744SOL    HW2 2232   2.607   1.976   0.189 -2.9398  0.5029 -3.5402
  745SOL     OW 2233   2.141   2.654   2.230  0.4596 -0.0493  0.5151
  745SOL    HW1 2234   2.055   2.658   2.169  0.2475 -0.9002  0.6799
  745SOL    HW2 2235   2.129   2.652   2.335 -0.1557 -1.6827  1.6669
  746SOL     OW 2236   3.063   2.622   1.739 -0.6209 -0.5192  0.3367
  746SOL    HW1 2237   3.147   2.629   1.677  0.2988  2.7679 -0.2917
  746SOL    HW2 2238   3.037   2.713   1.787  0.0838  1.0318 -0.6588
  747SOL     OW 2239   0.033   1.750   1.732  0.9412 -0.0852 -0.2866
  747SOL    HW1 2240  -0.043   1.695   1.679 -4.9015  0.8550 -2.7297
  747SOL    HW2 2241   0.108   1.780   1.669 -0.4563 -1.7522 -1.7286
  748SOL     OW 2242   1.825   2.727   2.874 -0.3527  0.3511  0.1032
  748SOL    HW1 2243   1.831   2.809   2.939  1.9654 -2.5333 -0.9438
  748SOL    HW2 2244   1.729   2.716   2.839  1.6852  0.5285  0.1522
  749SOL     OW 2245   1.375   3.026   0.890  0.0369 -0.2358 -0.2424
  749SOL    HW1 2246   1.272   3.008   0.859 -4.3578 -0.7310 -0.3106
  749SOL    HW2 2247   1.438   2.993   0.816 -0.6267  0.2485  1.9899
  750SOL     OW 2248   2.287   0.200   1.859 -0.4764 -0.7254  0.4222
  750SOL    HW1 2249   2.305   0.265   1.780  2.3763 -0.2928  1.0056
  750SOL    HW2 2250   2.289   0.241   1.953 -1.8080 -0.8880 -2.6937
  751SOL     OW 2251   0.850   2.089   2.826  0.8736  0.4745 -0.3855
  751SOL    HW1 2252   0.917   2.105   2.907  0.2977  3.2446  0.4763
  751SOL    HW2 2253   0.751   2.088   2.856  1.7691  0.1306  0.2873
  752SOL     OW 2254   1.316   0.870   1.257  0.0724 -0.2150  0.5746
  752SOL    HW1 2255   1.388   0.944   1.260 -1.8895  1.4359 -0.3720
  752SOL    HW2 2256   1.348   0.782   1.294 -1.6766  0.0698  1.3138
  753SOL     OW 2257   0.917   2.615   1.663  0.1074 -0.5126 -0.2345
  753SOL    HW1 2258   1.011   2.646   1.691 -0.7896  1.9972  1.9745
  753SOL    HW2 2259   0.884   2.659   1.572 -0.8982  2.1473 -2.2217
  754SOL     OW 2260   1.118   1.228   2.993 -0.4811  0.2874  0.6183
  754SOL    HW1 2261   1.188   1.183   2.927 -0.6832  2.6214  0.0687
  754SOL    HW2 2262   1.148   1.321   3.029  0.4938 -1.4374 -2.2577
  755SOL     OW 2263   2.002   0.474   2.207 -0.1743  0.0904  0.3171
  755SOL    HW1 2264   2.079   0.411   2.234 -1.8200  0.3392 -0.1944
  755SOL    HW2 2265   1.920   0.459   2.275  0.2351 -2.7939  1.6814
  756SOL     OW 2266   2.553   1.019   2.960 -0.1084  0.4112 -0.0290
  756SOL    HW1 2267   2.657   1.007   2.972  0.9231 -2.8581  0.1581
  756SOL    HW2 2268   2.513   0.928   2.974 -0.0735 -1.2332 -0.8259
  757SOL     OW 2269   0.070   0.536   1.944 -0.5367  0.4597 -0.5819
  757SOL    HW1 2270   0.134   0.486   1.878 -1.7781 -3.3627 -1.0934
  757SOL    HW2 2271   0.000   0.470   1.991  3.2340  0.9126  2.3956
  758SOL     OW 2272   2.304   0.130   1.519  0.0414 -0.2480  0.2121
  758SOL    HW1 2273   2.285   0.028   1.541  1.6191  1.1711 -0.9918
  758SOL    HW2 2274   2.308   0.146   1.415 -0.4004 -1.4974 -0.0728
  759SOL     OW 2275   1.710   0.121   0.033 -0.1888  0.0205  0.0641
  759SOL    HW1 2276   1.653   0.094  -0.053  0.7800  1.7637 -1.0900
  759SOL    HW2 2277   1.814   0.118   0.023  1.5072  0.7147 -0.0009
  760SOL     OW 2278   2.704   2.070   2.820 -0.1424  0.3083 -0.0028
  760SOL    HW1 2279   2.736   1.977   2.851 -0.1506 -0.5188 -1.4778
  760SOL    HW2 2280   2.674   2.129   2.902  0.7895 -0.0639  0.8987
  761SOL     OW 2281   1.880   1.709   1.704  0.4359 -0.7507 -0.0731
  761SOL    HW1 2282   1.913   1.620   1.740  1.2497  2.0034 -0.4928
  761SOL    HW2 2283   1.813   1.714   1.628  0.3187 -1.1412  1.6644
  762SOL     OW 2284   0.518   2.350   0.959  0.0415  0.1256  0.1704
  762SOL    HW1 2285   0.545   2.381   0.867  0.7555  2.1787  2.6105
  762SOL    HW2 2286   0.574   2.400   1.034  1.5296 -0.2824  1.3761
  763SOL     OW 2287   2.082   1.594   2.979  0.0884 -0.1858 -0.0950
  763SOL    HW1 2288   2.166   1.543   3.004  0.2279  1.2320  0.2791
  763SOL    HW2 2289   2.009   1.561   3.043 -1.0416  0.8268  1.4459
  764SOL     OW 2290   0.682   0.637   0.818  0.4494 -0.5427  0.5354
  764SOL    HW1 2291   0.606   0.581   0.774  1.3532  1.2870 -0.8263
  764SOL    HW2 2292   0.770   0.587   0.835 -2.0679  0.2229 -1.9120
  765SOL     OW 2293   0.724   0.224   0.777 -0.4424  0.3153  0.4004
  765SOL    HW1 2294   0.800   0.271   0.720  3.9138  0.4683 -1.9879
  765SOL    HW2 2295   0.691   0.276   0.857 -2.6311 -2.2385 -0.5736
  766SOL     OW 2296   2.860   2.092   3.083 -0.3866  0.2160  0.5674
  766SOL    HW1 2297   2.785   2.084   3.155  3.1847 -1.4617  0.7354
  766SOL    HW2 2298   2.900   2.184   3.071  2.8830 -1.8077  0.0907
  767SOL     OW 2299   2.763   1.629   0.597 -0.2373 -0.3168 -0.0560
  767SOL    HW1 2300   2.679   1.672   0.641 -0.7784 -2.1482 -0.9388
  767SOL    HW2 2301   2.841   1.586   0.656  2.0333 -1.3976  2.6825
  768SOL     OW 2302   1.020   0.065   0.267  0.9764 -0.1048  0.3175
  768SOL    HW1 2303   0.976   0.078   0.365  1.0187  0.4937  0.1979
  768SOL    HW2 2304   1.116   0.028   0.263  1.7153  0.8606  0.6101
  769SOL     OW 2305   1.063   1.959   2.289 -0.1871 -0.4104 -0.1129
  769SOL    HW1 2306   0.968   1.963   2.329 -1.9616  1.3023 -0.9505
  769SOL    HW2 2307   1.138   1.923   2.353 -1.8688 -0.5832 -1.0678
  770SOL     OW 2308   0.177   1.163   2.286 -0.3695 -0.4984  0.3315
  770SOL    HW1 2309   0.170   1.201   2.380 -0.2068 -3.5503  0.9152
  770SOL    HW2 2310   0.085   1.160   2.232 -0.6258  1.2459 -0.7467
  771SOL     OW 2311   2.968   2.834   1.885 -0.4511 -0.1936  0.0608
  771SOL    HW1 2312   2.937   2.884   1.801  1.4790  1.5265  1.6400
  771SOL    HW2 2313   2.954   2.892   1.971 -0.0077  1.8823 -0.4639
  772SOL     OW 2314   2.196   0.190   2.930 -0.3650  0.6745 -0.0991
  772SOL    HW1 2315   2.280   0.125   2.923 -0.2723  2.7938  1.7868
  772SOL    HW2 2316   2.194   0.245   3.019  0.4697 -0.8865  2.5776
  773SOL     OW 2317   0.720   2.141   2.425 -0.2458  0.1808 -0.3363
  773SOL    HW1 2318   0.694   2.194   2.338 -0.2295 -0.4001 -1.0197
  773SOL    HW2 2319   0.678   2.173   2.520 -0.2811 -2.4425  0.0738
  774SOL     OW 2320   2.037   0.002   2.597  0.3196 -0.0260 -0.1210
  774SOL    HW1 2321   2.034   0.092   2.655  1.7698 -1.3116  0.6283
  774SOL    HW2 2322   2.074  -0.082   2.651 -0.2661 -3.4433  3.2132
  775SOL     OW 2323   2.540   2.901   2.371 -0.7142 -0.7424  0.5129
  775SOL    HW1 2324   2.501   2.997   2.347 -1.4777 -1.8875  2.4209
  775SOL    HW2 2325   2.617   2.906   2.441 -0.9469  2.0271 -2.3604
  776SOL     OW 2326   0.018   1.233   0.195 -0.1673  0.1114 -0.1377
  776SOL    HW1 2327  -0.034   1.207   0.109 -1.4280  2.1667 -0.0310
  776SOL    HW2 2328  -0.051   1.252   0.274 -2.2878  0.1727 -0.5622
  777SOL     OW 2329   0.338   2.838   0.394  1.0091  0.2949  0.7239
  777SOL    HW1 2330   0.249   2.880   0.367 -1.0727  0.5231 -0.1846
  777SOL    HW2 2331   0.415   2.881   0.342  1.8836 -0.3681  0.6749
  778SOL     OW 2332   1.364   1.940   0.182  0.1968 -0.6637  0.2631
  778SOL    HW1 2333   1.281   1.948   0.247  2.0744 -0.3963 -1.5814
  778SOL    HW2 2334   1.398   2.037   0.156 -2.4798  2.3359 -0.3800
  779SOL     OW 2335   0.181   0.860   0.486 -0.2374 -0.4023  0.1899
  779SOL    HW1 2336   0.125   0.772   0.472  0.3681  0.5986 -0.2911
  779SOL    HW2 2337   0.125   0.940   0.515  0.2530 -0.9549  0.1148
  780SOL     OW 2338   0.084   0.206   2.328  0.0638 -0.2775 -0.9257
  780SOL    HW1 2339   0.058   0.299   2.362  3.4191  1.0630 -1.8224
  780SOL    HW2 2340   0.175   0.205   2.280 -1.5382 -4.1821 -0.6145
  781SOL     OW 2341   0.655   1.690   1.530 -0.2191  0.6056 -0.2054
  781SOL    HW1 2342   0.747   1.644   1.542 -0.2241 -1.1776 -2.4223
  781SOL    HW2 2343   0.574   1.639   1.578 -2.8796  0.8141 -0.9306
  782SOL     OW 2344   2.595   0.077   0.927 -0.5491  0.0410 -0.6379
  782SOL    HW1 2345   2.523   0.073   0.855  1.5159  1.1798  2.0477
  782SOL    HW2 2346   2.584   0.146   1.004  1.0856  1.0420  1.6823
  783SOL     OW 2347   2.863   0.746   2.537 -0.4152  0.0030  0.3642
  783SOL    HW1 2348   2.796   0.781   2.611  0.7831 -2.8592 -1.3271
  783SOL    HW2 2349   2.834   0.653   2.498  1.0586 -0.0523  0.3776
  784SOL     OW 2350   1.451   2.217   0.094  0.5069 -0.1656 -0.0320
  784SOL    HW1 2351   1.534   2.269   0.133  0.4335  0.9915 -0.9078
  784SOL    HW2 2352   1.433   2.238  -0.004 -0.3769 -0.7936 -2.5094
  785SOL     OW 2353   2.125   0.330   0.071  0.1586 -0.6723 -0.2835
  785SOL    HW1 2354   2.047   0.342   0.132  1.7599 -2.0633 -2.5686
  785SOL    HW2 2355   2.135   0.416   0.009  2.2939 -1.8381  0.6558
  786SOL     OW 2356   2.013   2.180   2.243 -0.4371 -0.2099 -0.4631
  786SOL    HW1 2357   2.003   2.076   2.283 -0.3850 -4.7818 -0.7338
  786SOL    HW2 2358   2.109   2.188   2.201 -0.0318 -0.4764  1.6154
  787SOL     OW 2359   1.367   0.536   1.015  0.5647  0.2628  0.6823
  787SOL    HW1 2360   1.293   0.611   1.029 -2.6550  0.6663  0.4704
  787SOL    HW2 2361   1.403   0.536   0.914 -1.9653  0.5450 -0.1450
  788SOL     OW 2362   1.278   0.385   0.070 -0.6738  0.1362  0.0459
  788SOL    HW1 2363   1.193   0.370   0.013  3.2520  0.4129  0.5337
  788SOL    HW2 2364   1.290   0.474   0.122  0.5306 -0.7112 -0.1414
  789SOL     OW 2365   2.575   0.101   1.893 -0.0292  0.5027 -1.2008
  789SOL    HW1 2366   2.486   0.148   1.901 -1.5626 -2.7534  1.0292
  789SOL    HW2 2367   2.552   0.000   1.857 -0.5337 -2.2752  0.4272
  790SOL     OW 2368   2.685   2.777   0.803  0.0986  0.3930 -0.4236
  790SOL    HW1 2369   2.746   2.834   0.739 -0.9256 -2.3917 -2.0469
  790SOL    HW2 2370   2.651   2.837   0.879 -0.5748  0.3220  1.0970
  791SOL     OW 2371   1.937   1.200   0.205  0.1197 -0.3563  0.2451
  791SOL    HW1 2372   1.866   1.131   0.222  2.0347  0.4862  0.2058
  791SOL    HW2 2373   2.027   1.167   0.246  0.2368 -1.1707  3.4851
  792SOL     OW 2374   0.430   1.932   2.171  0.3992  0.9089 -0.1922
  792SOL    HW1 2375   0.514   1.890   2.213  0.2533  0.8558 -0.3476
  792SOL    HW2 2376   0.354   1.941   2.237 -2.1066 -0.6800 -0.9997
  793SOL     OW 2377   2.076   1.572   2.140  0.2464  0.1451  0.2489
  793SOL    HW1 2378   2.150   1.624   2.090 -3.6980  1.0806 -1.1209
  793SOL    HW2 2379   2.067   1.471   2.105 -1.0299  0.8621  1.3202
  794SOL     OW 2380   0.485   1.348   2.380 -0.6379 -0.6051  0.2818
  794SOL    HW1 2381   0.455   1.301   2.291 -0.3921  2.9096  0.1179
  794SOL    HW2 2382   0.467   1.450   2.385  0.7224 -1.3416 -0.4315
  795SOL     OW 2383   2.489   2.273   1.847 -0.4903  0.0954 -0.7974
  795SOL    HW1 2384   2.477   2.253   1.948 -0.4220  4.1115  0.0534
  795SOL    HW2 2385   2.426   2.213   1.790 -0.7806  0.4607  0.3431
  796SOL     OW 2386   3.038   1.130   2.688  0.0959 -0.2333  0.3887
  796SOL    HW1 2387   2.939   1.144   2.708  2.1812  1.0057  0.8128
  796SOL    HW2 2388   3.098   1.147   2.768 -2.6459 -1.0538 -2.2735
  797SOL     OW 2389   0.784   0.639   1.393 -0.1458 -0.2035  0.2313
  797SOL    HW1 2390   0.851   0.685   1.458 -1.2526  0.2906  1.0681
  797SOL    HW2 2391   0.721   0.709   1.353  0.9546 -0.4314  0.2035
  798SOL     OW 2392   1.321   0.291   1.117  0.1548  0.2167 -0.2076
  798SOL    HW1 2393   1.307   0.292   1.218 -0.1815 -0.0316 -5.6801
  798SOL    HW2 2394   1.337   0.389   1.077  1.7402  1.0617 -0.2992
  799SOL     OW 2395   1.906   2.741   1.042  0.3466 -0.3961  0.3130
  799SOL    HW1 2396   1.888   2.717   1.141 -1.0850  1.4781 -2.4963
  799SOL    HW2 2397   1.821   2.727   0.981 -2.0144  2.4838  0.2023
  800SOL     OW 2398   2.978   0.715   1.865 -0.5588  0.5739  0.1145
  800SOL    HW1 2399   2.955   0.810   1.905  1.2784  1.5851  2.4049
  800SOL    HW2 2400   3.045   0.658   1.920 -0.3318  0.7325  0.8604
  801SOL     OW 2401   1.938   2.223   0.080  0.0653  0.0912 -0.2051
  801SOL    HW1 2402   1.867   2.182   0.013  1.4174  1.0399  0.1513
  801SOL    HW2 2403   2.028   2.181   0.055 -0.3865 -3.1110 -0.1264
  802SOL     OW 2404   0.676   0.795   2.538 -0.0126 -0.0436 -0.2756
  802SOL    HW1 2405   0.741   0.761   2.461  2.0161 -1.8578  0.9081
  802SOL    HW2 2406   0.590   0.836   2.504  1.3759  0.2284 -0.5246
  803SOL     OW 2407   0.970   0.042   0.835  0.6464  0.0296  0.6671
  803SOL    HW1 2408   1.047   0.103   0.873 -0.4098 -1.2284 -0.8626
  803SOL    HW2 2409   0.921   0.091   0.757  1.1402 -1.2530 -0.2920
  804SOL     OW 2410   0.307   0.043   2.154  0.0117 -0.2959  0.4772
  804SOL    HW1 2411   0.331   0.142   2.174 -0.3930  0.3762  1.0735
  804SOL    HW2 2412   0.270   0.018   2.060 -0.0735 -1.5056  0.3935
  805SOL     OW 2413   2.356   0.336   0.385 -0.1235  0.0658  0.7731
  805SOL    HW1 2414   2.445   0.368   0.429 -0.6017 -2.3382  0.9214
  805SOL    HW2 2415   2.368   0.295   0.289  1.3890  0.4228  1.2023
  806SOL     OW 2416   0.644   2.441   1.780  0.2682  0.1436 -0.2227
  806SOL    HW1 2417   0.648   2.542   1.786 -1.0325 -1.0230  1.8154
  806SOL    HW2 2418   0.702   2.404   1.700  2.2545 -0.4363  0.8995
  807SOL     OW 2419   2.487   0.845   0.357 -0.3422 -0.2414 -0.2318
  807SOL    HW1 2420   2.552   0.891   0.430  2.6931  2.9881 -1.3911
  807SOL    HW2 2421   2.467   0.911   0.281  1.8044 -0.7083  0.2579
  808SOL     OW 2422   0.594   2.079   2.912 -0.3757  0.0424  0.5853
  808SOL    HW1 2423   0.545   2.160   2.952 -0.8970 -1.7404  1.3397
  808SOL    HW2 2424   0.594   1.998   2.975  3.4320  1.5497  0.8991
  809SOL     OW 2425   2.679   1.978   1.895 -0.6921 -0.5828 -0.6594
  809SOL    HW1 2426   2.774   2.012   1.923  1.4392 -3.7027  0.9363
  809SOL    HW2 2427   2.648   2.006   1.800 -2.7092  1.0849  0.2534
  810SOL     OW 2428   2.105   1.049   0.562  0.0348  0.6031  0.4560
  810SOL    HW1 2429   2.151   0.981   0.626  0.7944 -1.1508  1.3601
  810SOL    HW2 2430   2.084   1.134   0.615 -2.5974 -0.2174  1.4110
  811SOL     OW 2431   1.333   2.502   1.173 -0.0157  0.0813 -0.0238
  811SOL    HW1 2432   1.301   2.404   1.189  2.4287  0.5617 -0.4293
  811SOL    HW2 2433   1.265   2.572   1.204 -2.4345  0.0081  0.1397
  812SOL     OW 2434   1.408   0.750   1.959 -0.1032  0.4065 -0.2511
  812SOL    HW1 2435   1.476   0.811   2.009 -2.4279 -3.1903 -0.0329
  812SOL    HW2 2436   1.311   0.774   1.980  0.9569 -4.3269 -1.1136
  813SOL     OW 2437   1.703   2.048   2.494 -0.0306  0.6968  0.0317
  813SOL    HW1 2438   1.753   1.959   2.521  1.4083 -2.9690  2.1379
  813SOL    HW2 2439   1.660   2.039   2.399 -1.0406 -0.1688 -1.2678
  814SOL     OW 2440   2.903   1.550   2.822  0.2638 -0.3496 -0.0958
  814SOL    HW1 2441   2.971   1.503   2.884 -0.6592 -0.8239  0.2924
  814SOL    HW2 2442   2.948   1.630   2.775  0.4721 -4.0073 -0.6481
  815SOL     OW 2443   2.145   2.903   2.779  0.3202 -0.3411  0.0302
  815SOL    HW1 2444   2.146   2.832   2.855  1.4594  2.2702 -0.1956
  815SOL    HW2 2445   2.193   2.990   2.809  0.9876  1.1552  2.3442
  816SOL     OW 2446   1.645   0.331   1.598 -0.0367 -0.0747 -0.0431
  816SOL    HW1 2447   1.690   0.240   1.631  0.1317 -1.8368 -0.6399
  816SOL    HW2 2448   1.555   0.353   1.640 -0.0652 -0.8478 -1.7500
  817SOL     OW 2449   0.376   1.176   2.564  0.1535 -0.6564  0.2313
  817SOL    HW1 2450   0.277   1.210   2.553  0.2341  1.0002  0.5020
  817SOL    HW2 2451   0.435   1.247   2.509 -1.5947  1.6887 -0.7801
  818SOL     OW 2452   1.884   0.889   0.425  0.2808  0.3981 -0.6931
  818SOL    HW1 2453   1.955   0.956   0.466  0.4814 -0.7023  0.1495
  818SOL    HW2 2454   1.794   0.892   0.478 -1.6760  2.7193  2.3070
  819SOL     OW 2455   2.739   2.966   2.964  0.0006 -0.2104 -0.4258
  819SOL    HW1 2456   2.811   2.886   2.945  3.6692 -0.2905 -1.1260
  819SOL    HW2 2457   2.642   2.941   2.930 -0.9121  0.5338  1.7141
  820SOL     OW 2458   1.254   1.060   0.658 -0.3149 -0.2106 -0.6543
  820SOL    HW1 2459   1.228   1.162   0.685  1.7705  1.8405 -2.5913
  820SOL    HW2 2460   1.208   0.992   0.719 -1.6706 -0.1822 -0.0162
  821SOL     OW 2461   3.088   1.304   0.677  0.2832 -0.8244  0.4872
  821SOL    HW1 2462   3.074   1.303   0.784  2.4342 -0.5063 -0.4167
  821SOL    HW2 2463   3.168   1.361   0.640 -1.6450  0.9582  2.6362
  822SOL     OW 2464   2.558   1.708   2.415  0.1085  0.2536 -0.0927
  822SOL    HW1 2465   2.559   1.769   2.498 -0.1363  0.8130  0.9899
  822SOL    HW2 2466   2.479   1.727   2.349 -2.3105 -3.1055  0.4976
  823SOL     OW 2467   2.080   0.909   1.208 -0.6468  0.2437 -0.3407
  823SOL    HW1 2468   2.038   0.896   1.300  1.3804 -1.0522 -0.4179
  823SOL    HW2 2469   2.007   0.935   1.134 -0.0221 -2.9086 -1.1733
  824SOL     OW 2470   0.249   2.044   2.791  0.3778  0.0378  0.2248
  824SOL    HW1 2471   0.212   1.970   2.855  0.3666 -0.6870  2.3374
  824SOL    HW2 2472   0.334   2.017   2.733  1.1839 -0.4211 -0.2498
  825SOL     OW 2473   1.293   1.131   0.280 -0.1022  0.0962  0.2733
  825SOL    HW1 2474   1.310   1.232   0.259 -0.3625 -0.4326  2.2430
  825SOL    HW2 2475   1.229   1.122   0.355  0.8399 -1.4008 -1.8702
  826SOL     OW 2476   1.896   0.685   1.619 -0.4723 -0.6806 -0.4684
  826SOL    HW1 2477   1.984   0.639   1.653 -0.7757  0.4884  0.8218
  826SOL    HW2 2478   1.836   0.634   1.550 -1.1306 -0.9763 -1.1007
  827SOL     OW 2479   0.674   1.178   0.206 -0.2437  0.5209 -0.1061
  827SOL    HW1 2480   0.749   1.165   0.132  1.6019 -2.3568 -1.3286
  827SOL    HW2 2481   0.610   1.094   0.220 -0.3732 -2.2901 -1.5180
  828SOL     OW 2482   2.567   0.124   1.573  0.0373  0.5587  0.3237
  828SOL    HW1 2483   2.462   0.133   1.559  0.8486  0.2736  1.3193
  828SOL    HW2 2484   2.596   0.094   1.667  1.1116  2.2958  0.8235
  829SOL     OW 2485   2.760   2.497   3.031  0.2687 -0.0969 -0.5171
  829SOL    HW1 2486   2.670   2.457   3.002  0.2845  1.1782 -0.8136
  829SOL    HW2 2487   2.754   2.572   3.100 -0.2614 -4.5272  0.0763
  830SOL     OW 2488   2.826   0.940   3.039 -0.6868  0.6173  0.6374
  830SOL    HW1 2489   2.880   1.020   3.084  1.6646  1.8806  1.2245
  830SOL    HW2 2490   2.851   0.846   3.085 -2.0295 -1.8622  1.2451
  831SOL     OW 2491   0.008   0.653   0.397 -0.4114  0.5407  0.0601
  831SOL    HW1 2492  -0.007   0.587   0.478  0.4209 -1.6465  0.9913
  831SOL    HW2 2493   0.045   0.607   0.311  0.7086  0.7124  0.0138
  832SOL     OW 2494   1.806   0.749   2.989 -0.0060  0.0927 -0.0233
  832SOL    HW1 2495   1.711   0.782   3.007  2.0066 -0.3492  0.2364
  832SOL    HW2 2496   1.825   0.649   3.011  2.4476  0.0962 -2.4978
  833SOL     OW 2497   2.469   2.145   0.539 -0.5472  0.0175 -0.5409
  833SOL    HW1 2498   2.393   2.159   0.472  0.1741 -0.2944  0.7208
  833SOL    HW2 2499   2.495   2.042   0.548 -0.7933 -1.5363 -1.3655
  834SOL     OW 2500   0.209   0.215   0.492 -0.0418  0.2670 -0.6789
  834SOL    HW1 2501   0.210   0.124   0.536  1.8144 -3.8554 -3.1110
  834SOL    HW2 2502   0.156   0.208   0.402 -1.1062  0.2327  0.7032
  835SOL     OW 2503   2.325   1.575   1.090 -0.0675  0.0821 -0.4553
  835SOL    HW1 2504   2.281   1.668   1.085 -1.9968 -0.3068 -0.9926
  835SOL    HW2 2505   2.406   1.574   1.025 -4.3505  1.9393  0.6090
  836SOL     OW 2506   1.607   0.833   2.577  0.3274 -0.3225  0.4143
  836SOL    HW1 2507   1.507   0.832   2.591 -0.8775  2.3825  1.7422
  836SOL    HW2 2508   1.637   0.854   2.482  0.8151  1.8669 -0.3303
  837SOL     OW 2509   1.711   0.132   0.545  0.0660  0.0459 -0.2706
  837SOL    HW1 2510   1.644   0.187   0.609 -0.3476  1.4556  0.8364
  837SOL    HW2 2511   1.675   0.120   0.449 -0.9662 -0.3197 -0.5640
  838SOL     OW 2512   1.170   1.549   2.817  0.0754  0.3623  0.1197
  838SOL    HW1 2513   1.157   1.516   2.915  0.6066  0.1790 -0.5085
  838SOL    HW2 2514   1.100   1.502   2.753 -1.3309 -0.9392  0.7612
  839SOL     OW 2515   1.689   0.318   1.038  0.0905  0.0250  0.0725
  839SOL    HW1 2516   1.733   0.392   1.097  2.0328 -1.5851  0.1178
  839SOL    HW2 2517   1.608   0.264   1.081 -1.3457 -1.6131  0.4910
  840SOL     OW 2518   2.521   2.953   1.749  0.5650 -0.2224  0.5291
  840SOL    HW1 2519   2.483   2.897   1.672  2.6762 -0.9458 -2.8338
  840SOL    HW2 2520   2.565   2.896   1.822  0.9943 -1.8511 -2.8303
  841SOL     OW 2521   1.521   0.830   2.960 -0.5121 -0.0826  0.1835
  841SOL    HW1 2522   1.476   0.872   3.041  0.9195  2.1130  3.3243
  841SOL    HW2 2523   1.538   0.899   2.883  1.2669  1.3451 -1.4146
  842SOL     OW 2524   0.790   1.553   0.959  0.3600  0.2280  0.3557
  842SOL    HW1 2525   0.753   1.643   0.990 -1.8643 -0.7570 -2.8919
  842SOL    HW2 2526   0.711   1.484   0.955  0.6875  1.5791  1.5031
  843SOL     OW 2527   0.056   0.052   1.405  0.4078  0.2258  0.9848
  843SOL    HW1 2528   0.153   0.096   1.424  0.8632  2.1813  2.8474
  843SOL    HW2 2529   0.059  -0.049   1.425  1.9475  1.1975 -3.2653
  844SOL     OW 2530   0.811   2.548   0.298 -0.0968  0.3201  0.3309
  844SOL    HW1 2531   0.745   2.489   0.358  0.0752 -2.6142 -0.6321
  844SOL    HW2 2532   0.747   2.602   0.229 -3.3375  0.4493  0.6722
  845SOL     OW 2533   1.642   2.893   1.362 -0.2291 -0.2401  0.4108
  845SOL    HW1 2534   1.688   2.930   1.449 -1.0167  1.6030  0.3656
  845SOL    HW2 2535   1.538   2.894   1.367  0.5400  1.6933 -2.6470
  846SOL     OW 2536   1.545   2.910   0.698 -0.7455  0.7199  1.1219
  846SOL    HW1 2537   1.591   2.868   0.618 -3.7686 -0.7128  2.8861
  846SOL    HW2 2538   1.614   2.935   0.768 -0.8411  0.8192 -0.2107
  847SOL     OW 2539   2.057   1.659   0.306 -0.2657  0.1100 -0.0339
  847SOL    HW1 2540   2.011   1.568   0.336 -1.6721  0.7177 -0.6997
  847SOL    HW2 2541   1.984   1.720   0.275  0.5536 -2.9699  1.0709
  848SOL     OW 2542   2.449   0.862   2.581  0.4993 -0.2083  0.0497
  848SOL    HW1 2543   2.422   0.951   2.626 -0.4960 -2.3238 -0.0365
  848SOL    HW2 2544   2.387   0.780   2.605 -2.1173  1.8008  0.9730
  849SOL     OW 2545   2.592   0.807   2.343  0.3005 -0.1396 -0.2641
  849SOL    HW1 2546   2.685   0.768   2.356 -2.1093 -0.6051  0.8082
  849SOL    HW2 2547   2.540   0.813   2.435 -0.9333  0.9891 -0.6709
  850SOL     OW 2548   1.542   0.095   1.347 -0.4084  0.3553  0.0073
  850SOL    HW1 2549   1.544   0.095   1.246  0.7226 -3.0150  2.5901
  850SOL    HW2 2550   1.522   0.007   1.391  1.0616 -0.5043 -2.9336
  851SOL     OW 2551   0.453   1.804   0.597 -0.1564 -0.0573  0.0434
  851SOL    HW1 2552   0.498   1.882   0.643 -1.2323  0.5539  1.1906
  851SOL    HW2 2553   0.519   1.754   0.535  0.5030  0.9400 -0.2166
  852SOL     OW 2554   0.777   2.130   1.655 -0.3911  0.5942  0.0873
  852SOL    HW1 2555   0.764   2.218   1.605 -0.1356 -0.7335 -3.2760
  852SOL    HW2 2556   0.711   2.099   1.729  0.6284 -0.8271  0.1921
  853SOL     OW 2557   2.578   1.483   2.596  0.2569 -0.0067 -0.1479
  853SOL    HW1 2558   2.505   1.413   2.568 -0.7294  1.5458 -2.5761
  853SOL    HW2 2559   2.573   1.572   2.542 -0.2487  1.9180 -2.9232
  854SOL     OW 2560   2.382   1.408   1.719  0.3182  0.0106 -0.8093
  854SOL    HW1 2561   2.449   1.342   1.667  0.8678  1.0308  1.5355
  854SOL    HW2 2562   2.307   1.360   1.773  1.1175 -1.8998  1.2860
  855SOL     OW 2563   2.026   2.429   0.974  0.5590 -0.0466 -0.6088
  855SOL    HW1 2564   2.041   2.517   0.924 -1.3480  0.4876 -1.8365
  855SOL    HW2 2565   2.076   2.432   1.061  0.1644 -1.6696 -0.2678
  856SOL     OW 2566   1.359   1.494   0.919 -0.0312 -0.3871 -0.5779
  856SOL    HW1 2567   1.434   1.554   0.965  1.9891 -0.1271 -0.4072
  856SOL    HW2 2568   1.268   1.519   0.953  0.9532  2.4092 -1.6529
  857SOL     OW 2569   3.043   2.696   1.017 -0.0973  0.3570  0.4392
  857SOL    HW1 2570   3.023   2.627   0.937 -1.7799 -2.6710  0.1011
  857SOL    HW2 2571   3.124   2.664   1.069 -0.7023 -0.1030 -0.1240
  858SOL     OW 2572   2.334   2.029   1.697 -0.3221 -0.8907  0.1637
  858SOL    HW1 2573   2.258   2.004   1.627  0.6959  0.7539 -0.1214
  858SOL    HW2 2574   2.420   1.973   1.675  0.1447 -1.2542 -0.6667
  859SOL     OW 2575   2.485   0.547   1.014  0.2581  0.3225  0.1338
  859SOL    HW1 2576   2.556   0.605   0.968  2.1191 -0.6048  1.3794
  859SOL    HW2 2577   2.525   0.457   1.040  0.8516 -0.7820 -0.5645
  860SOL     OW 2578   1.952   2.822   0.421  0.2789  0.1205  0.0372
  860SOL    HW1 2579   1.899   2.785   0.340  2.1722 -1.7939 -3.9424
  860SOL    HW2 2580   2.058   2.835   0.399 -0.5797  3.7715 -2.0787
  861SOL     OW 2581   1.091   2.455   2.871  0.6928  0.5801 -0.3133
  861SOL    HW1 2582   1.139   2.542   2.846  3.0741 -2.3797 -1.0432
  861SOL    HW2 2583   1.095   2.437   2.973  0.6213  1.1496 -2.5769
  862SOL     OW 2584   2.828   2.581   1.609  0.4226  0.0325  0.1149
  862SOL    HW1 2585   2.921   2.605   1.649 -0.2181 -1.8568  0.7720
  862SOL    HW2 2586   2.774   2.656   1.559 -0.7073  0.4482  1.9688
  863SOL     OW 2587   1.841   2.726   0.175 -0.0942 -0.5639 -0.0307
  863SOL    HW1 2588   1.908   2.652   0.155 -0.4435  1.7715 -1.0511
  863SOL    HW2 2589   1.739   2.695   0.170  0.4708 -1.0602  0.7137
  864SOL     OW 2590   1.906   1.192   2.859 -0.0057 -0.0426 -0.4419
  864SOL    HW1 2591   1.916   1.156   2.761 -0.1425  1.4967 -0.3903
  864SOL    HW2 2592   1.968   1.143   2.928 -1.3166 -1.5443 -0.2229
  865SOL     OW 2593   2.214   1.807   0.626  0.1212 -0.0324 -0.1670
  865SOL    HW1 2594   2.246   1.845   0.718 -1.8068 -2.4826  1.1485
  865SOL    HW2 2595   2.117   1.771   0.636 -0.7889 -2.2934 -2.2435
  866SOL     OW 2596   2.878   2.905   1.024  0.2570 -0.3261 -0.0071
  866SOL    HW1 2597   2.890   2.993   0.964 -0.3151  1.0978 -0.0355
  866SOL    HW2 2598   2.950   2.828   1.011  4.3741  0.5811  1.2099
  867SOL     OW 2599   0.308   1.369   0.898 -0.1558 -0.1778  0.4428
  867SOL    HW1 2600   0.280   1.302   0.825  0.3608 -0.7856 -2.8937
  867SOL    HW2 2601   0.302   1.467   0.869  0.6855 -2.0921  3.2764
  868SOL     OW 2602   0.754   1.876   1.980 -1.2141 -0.5889 -0.3011
  868SOL    HW1 2603   0.706   1.858   2.070  1.1335 -1.4309 -1.5036
  868SOL    HW2 2604   0.718   1.961   1.928  0.4046  2.5657 -1.5458
  869SOL     OW 2605   2.568   1.925   1.623  0.0908  0.7460 -0.5960
  869SOL    HW1 2606   2.628   2.005   1.611  0.0107 -0.2675  0.0499
  869SOL    HW2 2607   2.625   1.842   1.648  1.5629 -0.0971  1.1553
  870SOL     OW 2608   2.213   2.628   1.249  0.1328 -0.2489  0.3675
  870SOL    HW1 2609   2.193   2.555   1.185 -2.8818 -0.9796 -1.7661
  870SOL    HW2 2610   2.245   2.596   1.342  0.7169  0.1973  0.5366
  871SOL     OW 2611   3.024   2.215   0.515  0.1997  0.2489  0.3777
  871SOL    HW1 2612   2.948   2.228   0.584 -2.3130 -2.6085 -0.6937
  871SOL    HW2 2613   3.005   2.250   0.419  0.8251 -0.7409  0.6647
  872SOL     OW 2614   2.105   0.536   1.691  0.0946 -0.3400 -0.0446
  872SOL    HW1 2615   2.056   0.493   1.774 -0.6717 -0.4231  1.0032
  872SOL    HW2 2616   2.198   0.491   1.679 -1.3484 -0.5819 -1.7116
  873SOL     OW 2617   1.727   2.114   3.055 -0.2846  0.0669 -0.7740
  873SOL    HW1 2618   1.650   2.153   3.112  2.2513  1.8964  1.0237
  873SOL    HW2 2619   1.722   2.145   2.955  1.8765  0.2561  0.3947
  874SOL     OW 2620   0.689   2.471   0.772  0.3165 -0.2619 -0.2548
  874SOL    HW1 2621   0.703   2.572   0.805  1.5501 -0.8124  0.9145
  874SOL    HW2 2622   0.773   2.415   0.763  0.3483 -0.2177  0.0979
  875SOL     OW 2623   2.343   1.485   1.400  0.0463  0.4821  0.2400
  875SOL    HW1 2624   2.417   1.542   1.450  1.3251  0.1905 -0.4080
  875SOL    HW2 2625   2.373   1.458   1.304  0.5467 -1.0511 -4.2310
  876SOL     OW 2626   0.071   2.245   2.751  0.2725 -0.3409 -0.1456
  876SOL    HW1 2627   0.127   2.166   2.776 -0.5668 -1.8164 -1.2720
  876SOL    HW2 2628   0.110   2.336   2.774 -1.5638 -1.5836  1.1348
  877SOL     OW 2629   2.905   2.666   0.580  0.1116 -0.0964  0.1882
  877SOL    HW1 2630   2.886   2.770   0.599 -0.1918  2.1739  2.1667
  877SOL    HW2 2631   2.955   2.615   0.658  0.3369  0.3589 -0.1370
  878SOL     OW 2632   2.768   1.482   2.256 -0.3114 -0.0018 -0.2684
  878SOL    HW1 2633   2.822   1.551   2.207  0.9380 -1.3286  1.3038
  878SOL    HW2 2634   2.777   1.488   2.360 -1.8514  1.7121 -1.6484
  879SOL     OW 2635   2.390   0.117   1.228 -0.4172 -0.2765 -0.1095
  879SOL    HW1 2636   2.431   0.032   1.278  0.6832  0.6720 -0.5818
  879SOL    HW2 2637   2.325   0.087   1.151 -1.1420 -1.1781  0.0862
  880SOL     OW 2638   0.766   0.487   2.217 -0.3823  0.3079 -0.1897
  880SOL    HW1 2639   0.692   0.452   2.283  2.9904  0.3583  1.7394
  880SOL    HW2 2640   0.810   0.408   2.164  1.3107  0.9783  1.3724
  881SOL     OW 2641   0.890   0.045   0.506 -0.4808  0.5195 -0.6087
  881SOL    HW1 2642   0.923  -0.050   0.529 -4.0878 -3.2007  1.4406
  881SOL    HW2 2643   0.789   0.046   0.501 -0.3664 -0.6801  0.3394
  882SOL     OW 2644   2.703   1.680   1.691  0.1783  0.1224  0.5668
  882SOL    HW1 2645   2.792   1.644   1.648 -0.0259  0.3099 -2.2746
  882SOL    HW2 2646   2.703   1.697   1.794 -0.9013 -2.9296 -2.0500
  883SOL     OW 2647   0.896   0.536   0.935 -0.0903  0.7720 -0.0629
  883SOL    HW1 2648   0.922   0.621   0.992  1.0707  1.3900 -0.7235
  883SOL    HW2 2649   0.901   0.450   0.990  0.8742  0.4877  1.6745
  884SOL     OW 2650   1.167   1.724   1.183  0.5986 -0.6057 -0.1035
  884SOL    HW1 2651   1.135   1.658   1.108 -1.2806  2.2734  1.1544
  884SOL    HW2 2652   1.143   1.828   1.162 -3.5811  2.4546 -1.5379
  885SOL     OW 2653   2.326   1.785   2.293 -0.1320  0.2836  0.0128
  885SOL    HW1 2654   2.239   1.756   2.341 -2.0821  1.4365  0.3250
  885SOL    HW2 2655   2.313   1.888   2.275 -1.3941  0.2590  2.8564
  886SOL     OW 2656   2.606   0.372   1.803 -0.0935  0.3479 -0.0257
  886SOL    HW1 2657   2.646   0.287   1.847 -0.8251  2.2119  1.4212
  886SOL    HW2 2658   2.671   0.450   1.786  2.2353  0.0138 -1.0547
  887SOL     OW 2659   0.112   1.974   1.352  0.0417  0.3160  0.1031
  887SOL    HW1 2660   0.050   1.916   1.291 -1.2824  0.5433  0.3991
  887SOL    HW2 2661   0.076   2.071   1.361  1.8892  0.6580  0.9676
  888SOL     OW 2662   0.571   1.209   1.541 -0.1266 -0.0776 -0.3736
  888SOL    HW1 2663   0.591   1.245   1.446  1.2450 -0.2681  0.0304
  888SOL    HW2 2664   0.514   1.125   1.542 -1.3651 -1.7399  0.2846
  889SOL     OW 2665   0.818   2.476   2.177 -0.7031 -0.2402 -0.3103
  889SOL    HW1 2666   0.741   2.408   2.201 -0.5240 -1.7995  2.3063
  889SOL    HW2 2667   0.885   2.428   2.110  2.6583 -3.0353 -2.0048
  890SOL     OW 2668   2.425   2.415   0.231 -0.0810 -0.0615 -0.0742
  890SOL    HW1 2669   2.475   2.480   0.168 -3.1820  3.0213 -0.4672
  890SOL    HW2 2670   2.380   2.463   0.311  0.8862  0.6960  0.4249
  891SOL     OW 2671   2.537   1.724   0.706  0.5882  0.0073  0.6652
  891SOL    HW1 2672   2.532   1.679   0.801 -0.5708  1.1628 -1.8658
  891SOL    HW2 2673   2.466   1.688   0.635  0.1390  1.6303  3.7852
  892SOL     OW 2674   0.353   0.306   2.249 -0.2215  0.2707  0.0961
  892SOL    HW1 2675   0.363   0.363   2.165 -1.4757  0.1188 -2.2456
  892SOL    HW2 2676   0.426   0.328   2.320  0.8115  1.9177 -2.3451
  893SOL     OW 2677   1.680   0.246   2.730  0.5628 -0.3496  0.4090
  893SOL    HW1 2678   1.742   0.323   2.763  1.4424 -0.5486 -0.3220
  893SOL    HW2 2679   1.585   0.279   2.703 -1.3188 -1.7061 -3.2225
  894SOL     OW 2680   2.130   2.033   0.024 -0.8398  0.2374 -0.2274
  894SOL    HW1 2681   2.083   1.984  -0.050 -1.0893 -0.1063  0.4678
  894SOL    HW2 2682   2.181   1.970   0.088 -0.6192  0.9523 -0.6107
  895SOL     OW 2683   2.828   1.434   0.950  0.0085 -0.6203 -0.1253
  895SOL    HW1 2684   2.890   1.357   0.977 -0.6713  1.8864  1.3971
  895SOL    HW2 2685   2.868   1.528   0.979  0.6203  1.7071  1.2263
  896SOL     OW 2686   1.746   1.804   1.189  0.8873 -0.1234 -0.0634
  896SOL    HW1 2687   1.773   1.751   1.105  0.8002  0.5316 -0.0242
  896SOL    HW2 2688   1.684   1.887   1.165  2.1007  0.5288  1.0457
  897SOL     OW 2689   0.316   0.544   3.059  0.3669 -0.2568  0.2165
  897SOL    HW1 2690   0.264   0.582   2.976  0.9499  0.1237 -0.2624
  897SOL    HW2 2691   0.409   0.583   3.054 -1.9426  0.4154 -0.5719
  898SOL     OW 2692   0.548   2.873   1.085  0.1230 -0.0791  0.2320
  898SOL    HW1 2693   0.528   2.974   1.107 -0.9235  1.0882  0.0056
  898SOL    HW2 2694   0.622   2.826   1.145  0.9935 -0.5685  2.8069
  899SOL     OW 2695   2.825   0.918   1.267  0.2565  0.5057  0.0127
  899SOL    HW1 2696   2.745   0.932   1.196 -2.1087 -1.4533  1.9150
  899SOL    HW2 2697   2.917   0.952   1.228  0.1870  0.7083  0.4718
  900SOL     OW 2698   0.989   2.535   2.410  0.2629 -0.2479  0.1025
  900SOL    HW1 2699   0.913   2.528   2.339  2.4065  2.1312 -1.1300
  900SOL    HW2 2700   0.952   2.572   2.504 -0.5453  3.2118  3.7757
  901SOL     OW 2701   1.901   2.344   1.366  0.5550  0.1730  0.0297
  901SOL    HW1 2702   1.885   2.311   1.268  0.6883  0.6771  0.1058
  901SOL    HW2 2703   1.998   2.336   1.398 -2.1087 -0.1383  0.9494
  902SOL     OW 2704   2.561   1.657   1.457  0.2253  0.0293  0.5804
  902SOL    HW1 2705   2.591   1.687   1.552 -0.7511  0.8380  0.1912
  902SOL    HW2 2706   2.641   1.639   1.393  1.7128  0.6747 -1.4435
  903SOL     OW 2707   0.248   2.464   1.976 -0.1205 -0.1386 -0.3496
  903SOL    HW1 2708   0.157   2.425   1.940 -1.3873 -0.2645  1.1720
  903SOL    HW2 2709   0.282   2.541   1.909  1.6001  1.4957 -0.1954
  904SOL     OW 2710   2.037   0.799   2.535 -0.0138  0.4328 -0.7660
  904SOL    HW1 2711   1.960   0.744   2.588 -0.5389 -0.7805  3.3574
  904SOL    HW2 2712   2.033   0.796   2.431 -0.4042 -1.4244 -0.2808
  905SOL     OW 2713   2.837   0.124   2.566  0.3144 -0.3897  0.0837
  905SOL    HW1 2714   2.905   0.043   2.565  0.7027  0.3214  0.7217
  905SOL    HW2 2715   2.876   0.216   2.528  2.8365  0.1113 -1.5943
  906SOL     OW 2716   0.213   1.682   1.925 -0.3840 -0.2357 -0.1930
  906SOL    HW1 2717   0.138   1.722   1.861  0.0286  2.7121 -1.4785
  906SOL    HW2 2718   0.286   1.758   1.938 -2.3381  3.5519 -0.3771
  907SOL     OW 2719   0.264   2.440   1.032 -0.0280  0.0464  0.0274
  907SOL    HW1 2720   0.348   2.385   1.006  1.0863  0.7429  1.4553
  907SOL    HW2 2721   0.276   2.543   1.022 -1.5895  1.5819 -0.1842
  908SOL     OW 2722   2.799   2.980   0.355 -0.3236  0.2756 -0.0583
  908SOL    HW1 2723   2.743   3.032   0.281 -2.2973  0.4519 -0.6415
  908SOL    HW2 2724   2.859   2.906   0.313 -3.0434 -0.9947  1.7374
  909SOL     OW 2725   0.820   1.049   2.651 -0.4615 -0.0974 -0.1885
  909SOL    HW1 2726   0.768   0.978   2.600 -2.1009  2.6085 -0.0938
  909SOL    HW2 2727   0.905   1.073   2.600 -1.6801 -1.8482 -0.2521
  910SOL     OW 2728   1.771   1.885   2.173 -0.2646 -0.7088 -0.0049
  910SOL    HW1 2729   1.798   1.888   2.070  0.3246 -1.8765 -3.1048
  910SOL    HW2 2730   1.686   1.936   2.198 -0.0965 -0.2222 -0.8746
  911SOL     OW 2731   1.811   2.947   1.594  0.2030 -0.1185  0.2015
  911SOL    HW1 2732   1.874   2.927   1.511  0.5791  0.0818 -0.8529
  911SOL    HW2 2733   1.804   2.864   1.655 -2.1209  0.7560 -1.6055
  912SOL     OW 2734   2.856   1.000   0.731  0.0794 -0.6742 -0.1404
  912SOL    HW1 2735   2.915   0.974   0.817  2.9023 -0.0065 -1.7385
  912SOL    HW2 2736   2.801   1.089   0.736  0.8522  0.7170 -3.5200
  913SOL     OW 2737   2.562   1.284   1.510  0.1486  0.3307 -0.4546
  913SOL    HW1 2738   2.590   1.183   1.518  0.3013 -0.0087 -0.7678
  913SOL    HW2 2739   2.633   1.340   1.458  1.2039 -2.6476  1.6893
  914SOL     OW 2740   2.793   0.606   1.202  0.3041  0.3947  0.1737
  914SOL    HW1 2741   2.776   0.514   1.240 -1.8333  1.0061  1.0797
  914SOL    HW2 2742   2.730   0.673   1.248  0.6929  1.9575  2.1037
  915SOL     OW 2743   1.181   0.712   1.078 -0.2572  0.2137  0.1685
  915SOL    HW1 2744   1.228   0.777   1.151 -0.3971  2.8683  3.1331
  915SOL    HW2 2745   1.077   0.715   1.082  0.9536  1.9920  3.2734
  916SOL     OW 2746   0.589   0.021   0.629  0.2072  0.2015 -0.9171
  916SOL    HW1 2747   0.626   0.095   0.696  0.6396 -0.4160 -0.8868
  916SOL    HW2 2748   0.570   0.062   0.538 -0.3726 -1.9001  2.2718
  917SOL     OW 2749   2.848   2.614   1.981  0.1070 -0.0515 -0.2500
  917SOL    HW1 2750   2.746   2.641   1.978 -0.4108 -2.5996 -1.8903
  917SOL    HW2 2751   2.909   2.688   1.935 -0.3749  4.2209  0.9525
  918SOL     OW 2752   1.010   2.114   3.040 -0.2065  0.1614  0.2972
  918SOL    HW1 2753   0.985   2.185   3.113  2.3865  3.1415  0.5887
  918SOL    HW2 2754   1.111   2.125   3.023  1.2570 -0.4599 -0.2404
  919SOL     OW 2755   0.859   1.628   2.870  0.1407  0.0644  0.9981
  919SOL    HW1 2756   0.904   1.696   2.803 -0.8345  1.0045  0.2726
  919SOL    HW2 2757   0.813   1.544   2.823 -0.8942  0.5772 -0.6107
  920SOL     OW 2758   1.219   1.856   2.489 -1.0207  0.7077 -0.2090
  920SOL    HW1 2759   1.295   1.808   2.441 -1.8749 -1.7690  1.4489
  920SOL    HW2 2760   1.210   1.820   2.584  1.6885  0.7995  0.7433
  921SOL     OW 2761   1.045   0.029   2.610  0.3375 -0.2379 -0.1483
  921SOL    HW1 2762   1.034   0.016   2.508 -0.1515 -1.7583  0.4610
  921SOL    HW2 2763   0.958   0.026   2.659 -1.5804  2.8060  0.4207
  922SOL     OW 2764   2.177   2.384   2.781 -0.8245  0.2742  0.1891
  922SOL    HW1 2765   2.235   2.298   2.769 -1.2745 -0.0323 -0.8647
  922SOL    HW2 2766   2.136   2.415   2.685  2.6397 -1.3453 -1.6287
  923SOL     OW 2767   1.265   2.660   0.284  0.2439 -0.1887 -0.4829
  923SOL    HW1 2768   1.343   2.730   0.313  0.9483 -1.1662 -0.6268
  923SOL    HW2 2769   1.302   2.562   0.267 -1.7901  0.6300 -1.4110
  924SOL     OW 2770   2.840   1.578   0.184  0.2710 -0.9784  0.0842
  924SOL    HW1 2771   2.794   1.574   0.089  1.2857  1.3636 -0.2833
  924SOL    HW2 2772   2.943   1.576   0.180 -0.2121  0.3396 -0.3508
  925SOL     OW 2773   0.017   2.870   1.499 -0.2750 -0.0552  0.4941
  925SOL    HW1 2774  -0.069   2.912   1.543 -1.9678  2.3952  1.8044
  925SOL    HW2 2775  -0.004   2.794   1.427  0.1790 -1.4783 -1.1670
  926SOL     OW 2776   1.299   2.793   1.278  0.3993  0.3008 -0.7002
  926SOL    HW1 2777   1.362   2.829   1.201  1.0537 -1.6145 -0.9669
  926SOL    HW2 2778   1.251   2.867   1.332 -0.6945 -1.7176  1.0522
  927SOL     OW 2779   0.321   2.677   1.778  0.1464  0.1666  0.0992
  927SOL    HW1 2780   0.307   2.620   1.690  2.1490 -1.4161 -1.5045
  927SOL    HW2 2781   0.291   2.776   1.765  1.7822  0.1096  0.3290
  928SOL     OW 2782   1.561   2.053   2.270 -0.3395 -0.3151  0.5941
  928SOL    HW1 2783   1.596   2.141   2.222 -2.0579  2.0276  2.2126
  928SOL    HW2 2784   1.463   2.059   2.286 -0.0547  0.8329 -2.0087
  929SOL     OW 2785   2.393   2.519   2.868  0.0440 -0.3545  0.0015
  929SOL    HW1 2786   2.311   2.474   2.819 -1.9598 -2.0722 -1.4574
  929SOL    HW2 2787   2.474   2.524   2.802  1.8704 -0.5472 -0.3945
  930SOL     OW 2788   2.194   2.010   1.087  0.4484 -0.3200  0.0841
  930SOL    HW1 2789   2.162   1.949   1.167 -2.1795  2.1148 -0.9288
  930SOL    HW2 2790   2.219   2.099   1.124  0.9272 -1.8035  1.2900
  931SOL     OW 2791   0.533   1.716   2.727  0.3366 -0.1098  0.5170
  931SOL    HW1 2792   0.562   1.753   2.822 -2.6861  0.8049  0.5329
  931SOL    HW2 2793   0.590   1.628   2.708  1.5416 -0.9225 -1.6661
  932SOL     OW 2794   0.488   0.144   3.023  0.1266  0.0769 -0.5316
  932SOL    HW1 2795   0.575   0.179   3.063 -3.8489  0.3050 -0.5421
  932SOL    HW2 2796   0.470   0.042   3.024  1.1211 -1.9930 -2.1403
  933SOL     OW 2797   0.997   0.802   0.002  0.3564 -0.0772 -0.7096
  933SOL    HW1 2798   0.993   0.817   0.108  0.0593 -0.3647 -1.3831
  933SOL    HW2 2799   0.916   0.846  -0.042  0.6063 -1.0834  1.3309
  934SOL     OW 2800   0.785   2.962   2.672 -0.1921  0.4335 -0.5363
  934SOL    HW1 2801   0.783   2.900   2.589  2.6007 -1.0503  1.1145
  934SOL    HW2 2802   0.835   2.918   2.754  0.3974 -1.1677  0.2522
  935SOL     OW 2803   0.036   0.562   0.836  0.3382  0.3310 -0.2638
  935SOL    HW1 2804   0.037   0.514   0.745  0.8121  0.6505 -3.5862
  935SOL    HW2 2805  -0.062   0.594   0.865 -2.8884  0.7930 -0.9853
  936SOL     OW 2806   1.124   2.762   0.078 -0.2084  0.0517  0.0033
  936SOL    HW1 2807   1.170   2.830   0.009  0.8633  1.0423  1.1213
  936SOL    HW2 2808   1.179   2.737   0.163  0.4259 -1.7167  0.7115
  937SOL     OW 2809   1.892   2.647   2.108  0.1551 -0.4914 -0.0806
  937SOL    HW1 2810   1.799   2.670   2.156  1.2928 -1.8165  1.2409
  937SOL    HW2 2811   1.928   2.709   2.033 -1.9593  0.5303 -1.1314
  938SOL     OW 2812   2.770   2.094   1.609 -0.1345  0.2861  0.1871
  938SOL    HW1 2813   2.747   2.193   1.624  0.9351 -0.3312 -1.9401
  938SOL    HW2 2814   2.864   2.065   1.643  0.7630 -1.7846 -0.2885
  939SOL     OW 2815   2.876   1.220   2.441  0.3963  0.2789 -0.3261
  939SOL    HW1 2816   2.920   1.175   2.358 -0.3104 -1.4079  2.0392
  939SOL    HW2 2817   2.878   1.156   2.524  2.3578  0.6159 -1.9927
  940SOL     OW 2818   1.037   0.411   2.745 -0.0670 -0.4382 -0.2279
  940SOL    HW1 2819   1.119   0.347   2.757 -1.8656 -0.1400 -2.5229
  940SOL    HW2 2820   0.958   0.371   2.694  1.7297  0.0311 -1.3725
  941SOL     OW 2821   0.065   2.784   2.267  0.2931  0.0759  0.0148
  941SOL    HW1 2822   0.125   2.695   2.274 -0.5006  1.8860  1.6104
  941SOL    HW2 2823   0.109   2.868   2.314  1.5409  1.3844  1.1871
  942SOL     OW 2824   0.144   0.057   2.562 -0.0273  0.1013 -0.7776
  942SOL    HW1 2825   0.200   0.098   2.638  2.0251 -1.0246  0.9378
  942SOL    HW2 2826   0.106   0.123   2.493  1.8122  3.0857  0.7933
  943SOL     OW 2827   2.093   1.649   2.398 -0.0802  0.4589 -0.0285
  943SOL    HW1 2828   2.085   1.617   2.303  2.1742  0.8337  0.2602
  943SOL    HW2 2829   2.107   1.577   2.472  2.1448  0.5143  2.5746
  944SOL     OW 2830   2.171   2.319   1.454 -0.2846 -0.2263 -0.0631
  944SOL    HW1 2831   2.252   2.378   1.476 -0.2250  0.5272  1.8856
  944SOL    HW2 2832   2.131   2.256   1.528  2.2655 -0.2332  3.2319
  945SOL     OW 2833   0.684   1.506   0.220 -0.0666  0.0612  0.5707
  945SOL    HW1 2834   0.617   1.556   0.157 -2.3465  0.0816  1.1447
  945SOL    HW2 2835   0.644   1.416   0.249 -0.3685 -1.2928 -1.1799
  946SOL     OW 2836   0.436   0.921   2.459  0.0760 -0.3813 -0.2685
  946SOL    HW1 2837   0.345   0.865   2.448 -2.1208 -0.8387 -3.2959
  946SOL    HW2 2838   0.418   1.021   2.487 -2.8743  0.6867  1.5903
  947SOL     OW 2839   1.538   0.536   3.080  0.0758  0.2844 -0.2015
  947SOL    HW1 2840   1.502   0.592   3.003  1.6363 -1.6177  4.0559
  947SOL    HW2 2841   1.482   0.455   3.107 -0.7482  0.5910 -0.8767
  948SOL     OW 2842   1.828   3.029   2.133 -0.1415  0.5882  0.2564
  948SOL    HW1 2843   1.847   2.978   2.048  1.9965  2.2338  4.2448
  948SOL    HW2 2844   1.887   2.998   2.213  1.9410  0.2020 -0.0513
  949SOL     OW 2845   0.608   2.467   0.486  0.1519 -0.2795  0.0093
  949SOL    HW1 2846   0.622   2.564   0.453 -1.4098 -0.3256  0.0099
  949SOL    HW2 2847   0.613   2.447   0.588 -3.3268 -1.7007 -0.8925
  950SOL     OW 2848   0.201   2.234   3.053 -0.3176 -0.4259  0.6572
  950SOL    HW1 2849   0.133   2.304   3.027 -0.0461 -1.2269  0.1622
  950SOL    HW2 2850   0.231   2.167   2.976  0.8432 -2.1445  1.3952
  951SOL     OW 2851   1.220   2.686   2.791  0.5489 -0.3063 -0.4732
  951SOL    HW1 2852   1.290   2.674   2.868  0.8942  2.1983  0.4232
  951SOL    HW2 2853   1.261   2.693   2.700  2.7636 -2.0815 -0.2766
  952SOL     OW 2854   0.010   1.681   0.385 -0.1377  0.5761 -0.0130
  952SOL    HW1 2855   0.084   1.742   0.404  0.4472 -0.4811 -2.5599
  952SOL    HW2 2856   0.018   1.602   0.447 -2.3973  5.1549 -1.1411
  953SOL     OW 2857   2.539   1.811   0.214  0.0602 -0.1248 -0.3620
  953SOL    HW1 2858   2.517   1.707   0.218  1.3356 -1.0041 -1.6652
  953SOL    HW2 2859   2.536   1.842   0.116 -1.0140 -4.7548  1.2146
  954SOL     OW 2860   2.229   0.534   0.906 -0.1546 -0.0695  0.6157
  954SOL    HW1 2861   2.239   0.575   0.809 -0.9460  1.0534 -1.3665
  954SOL    HW2 2862   2.320   0.528   0.959  1.1738  0.3355  0.1644
  955SOL     OW 2863   0.177   2.599   1.319 -0.0520 -0.2049 -0.2728
  955SOL    HW1 2864   0.078   2.631   1.336  0.8941  1.6059 -2.3867
  955SOL    HW2 2865   0.218   2.634   1.234  0.5931 -0.4177 -1.7501
  956SOL     OW 2866   2.845   2.449   2.520  0.0261 -0.4408  0.1880
  956SOL    HW1 2867   2.848   2.351   2.487 -1.3696  2.2202 -1.3576
  956SOL    HW2 2868   2.837   2.517   2.440 -1.7918 -0.3174 -1.2600
  957SOL     OW 2869   1.673   2.051   2.775 -0.3874  0.2221  0.3916
  957SOL    HW1 2870   1.600   1.987   2.803 -0.3415 -0.9742 -1.0162
  957SOL    HW2 2871   1.698   2.042   2.673 -1.6827  0.4583 -1.8102
  958SOL     OW 2872   2.548   2.293   3.006 -0.2215  0.2265 -0.1370
  958SOL    HW1 2873   2.480   2.337   2.942  1.2124  0.6046  1.2846
  958SOL    HW2 2874   2.511   2.259   3.097  2.6387  0.6319  0.2980
  959SOL     OW 2875   0.251   2.805   0.048 -0.2823 -0.0941  0.3400
  959SOL    HW1 2876   0.169   2.767  -0.001 -0.4982 -1.3639 -0.5796
  959SOL    HW2 2877   0.303   2.733   0.097 -2.0450 -0.2434 -0.3646
  960SOL     OW 2878   1.980   0.488   1.937  0.7556  0.2800  0.0181
  960SOL    HW1 2879   1.902   0.550   1.899 -1.2211  0.5916 -0.8966
  960SOL    HW2 2880   1.974   0.473   2.040  3.2732  0.9407 -0.2301
  961SOL     OW 2881   2.563   1.866   0.995 -0.3177 -0.1167 -0.0675
  961SOL    HW1 2882   2.581   1.970   0.978  1.6744 -0.9475 -0.1274
  961SOL    HW2 2883   2.518   1.851   1.087 -1.0102 -1.8236 -1.0179
  962SOL     OW 2884   1.320   0.927   0.034 -0.0648  0.1978 -0.0028
  962SOL    HW1 2885   1.265   0.947  -0.050 -0.4724  2.6535 -0.1575
  962SOL    HW2 2886   1.310   1.009   0.097  2.5331 -0.5388 -0.0393
  963SOL     OW 2887   2.221   2.571   1.807 -0.2041 -0.1024  1.1108
  963SOL    HW1 2888   2.177   2.482   1.840 -2.4223  1.0157 -0.7463
  963SOL    HW2 2889   2.233   2.638   1.883 -2.5803 -2.0639 -2.1898
  964SOL     OW 2890   2.357   0.391   1.666 -0.0278 -0.4210  0.1642
  964SOL    HW1 2891   2.442   0.399   1.729 -2.6998 -1.1829  0.5544
  964SOL    HW2 2892   2.374   0.345   1.573 -0.8570  0.3292 -1.6787
  965SOL     OW 2893   2.639   3.044   0.141  0.2996  0.6235  0.2479
  965SOL    HW1 2894   2.705   3.024   0.061 -0.4207  2.0120  0.2671
  965SOL    HW2 2895   2.545   3.065   0.099  0.0319  1.4302 -2.3773
  966SOL     OW 2896   2.612   2.573   2.211  0.5779  0.2019 -0.8135
  966SOL    HW1 2897   2.705   2.612   2.236 -1.0364  1.5587  1.5563
  966SOL    HW2 2898   2.538   2.642   2.198  0.6086  0.3096  0.3176
  967SOL     OW 2899   2.769   2.831   2.485  0.5552 -0.1228  0.2054
  967SOL    HW1 2900   2.816   2.766   2.419  0.4644  0.8164  0.2916
  967SOL    HW2 2901   2.839   2.887   2.540  0.9721  1.3757  0.7959
  968SOL     OW 2902   1.899   1.058   2.621 -0.2291 -0.1346  0.4959
  968SOL    HW1 2903   1.813   1.086   2.572  2.0930 -1.3767 -1.1486
  968SOL    HW2 2904   1.943   0.982   2.577  1.0314 -0.8912  0.4262
  969SOL     OW 2905   2.853   2.500   1.105  0.3957 -0.7019  0.4133
  969SOL    HW1 2906   2.812   2.473   1.012 -0.8346 -1.9635  1.3479
  969SOL    HW2 2907   2.867   2.419   1.167  0.6934 -2.5342  0.8104
  970SOL     OW 2908   1.019   2.089   1.799  0.0183 -0.2810  0.4469
  970SOL    HW1 2909   0.930   2.097   1.744 -0.2461 -0.1546  0.0202
  970SOL    HW2 2910   1.006   2.132   1.894 -1.1356 -0.2251  0.2020
  971SOL     OW 2911   2.929   2.083   1.967  0.0602  0.7430 -0.0000
  971SOL    HW1 2912   2.900   2.182   1.989 -1.1754 -0.0803 -5.7612
  971SOL    HW2 2913   2.967   2.072   1.866  0.3744  1.5734 -1.7665
  972SOL     OW 2914   1.978   2.480   0.247  0.1737 -0.0636 -0.1037
  972SOL    HW1 2915   1.965   2.410   0.174 -0.0407  3.5142  1.8759
  972SOL    HW2 2916   1.999   2.449   0.346 -0.4033 -0.8971  0.9347
  973SOL     OW 2917   1.271   1.046   1.894  0.3835 -0.4926  0.0626
  973SOL    HW1 2918   1.211   1.024   1.812  1.6462  3.2671 -1.2521
  973SOL    HW2 2919   1.262   1.146   1.923 -0.3223 -0.4197  2.6708
  974SOL     OW 2920   1.617   0.546   1.977  0.2563  0.0716  0.1354
  974SOL    HW1 2921   1.701   0.607   1.956  4.1895 -1.0962  1.4346
  974SOL    HW2 2922   1.531   0.608   1.976 -1.0338 -1.1082  1.9719
  975SOL     OW 2923   2.357   3.051   0.051  0.0150 -0.2470  0.4349
  975SOL    HW1 2924   2.294   2.979   0.094 -0.9391  1.4173 -0.6295
  975SOL    HW2 2925   2.327   3.060  -0.048 -1.0245 -0.6353  0.8060
  976SOL     OW 2926   1.906   2.858   2.347 -0.1750 -0.1687  0.7295
  976SOL    HW1 2927   1.812   2.808   2.332 -0.5405 -0.3876 -0.9550
  976SOL    HW2 2928   1.968   2.803   2.406  1.4164 -2.2540 -1.9305
  977SOL     OW 2929   0.469   0.662   1.027 -0.2689 -0.3201 -0.7907
  977SOL    HW1 2930   0.391   0.694   0.964 -3.8511  0.5429 -0.2799
  977SOL    HW2 2931   0.556   0.670   0.968  1.7517 -0.9326 -1.1282
   3.10000   3.10000   3.10000
