1000 SPC/Fw water molecules t=   0.72000 step= 720
 2931
    1SOL     OW    1   2.483   0.401   2.612  0.1975  0.5349 -0.1320
    1SOL    HW1    2   2.505   0.302   2.598  0.6056  0.6947  1.2951
    1SOL    HW2    3   2.518   0.432   2.701 -1.1071 -1.9705  0.8931
    2SOL     OW    4   2.747   3.031   1.410  0.5660 -0.2318 -0.0218
    2SOL    HW1    5   2.799   3.071   1.332 -0.3943  1.4997  1.1698
    2SOL    HW2    6   2.712   3.108   1.474 -1.4366  0.1741 -0.5710
    3SOL     OW    7   2.726   2.619   0.358  0.0593 -0.1493 -0.3491
    3SOL    HW1    8   2.709   2.516   0.371  0.9522 -0.6877 -2.1390
    3SOL    HW2    9   2.813   2.652   0.411  0.9429  1.1836  1.6579
    4SOL     OW   10   1.280   1.464   2.365  0.1983  0.8784 -0.0022
    4SOL    HW1   11   1.186   1.509   2.370 -2.3920  4.1152  0.1509
    4SOL    HW2   12   1.285   1.371   2.404 -0.9372  1.1764  0.5710
    5SOL     OW   13   1.173   1.522   3.082  0.0533  0.2754  0.2761
    5SOL    HW1   14   1.244   1.593   3.107 -1.2977 -1.8094  0.7781
    5SOL    HW2   15   1.076   1.557   3.100 -0.7450  2.3818 -0.9893
    6SOL     OW   16   0.086   1.886   2.945 -0.1205  0.1718  0.2042
    6SOL    HW1   17   0.002   1.903   3.006 -3.1675  1.2103  0.2998
    6SOL    HW2   18   0.157   1.813   2.981  1.5023 -0.1721  1.0698
    7SOL     OW   19   2.545   0.958   1.143  0.1038  0.1401  0.2655
    7SOL    HW1   20   2.474   0.888   1.165  1.4301  2.2304  3.0672
    7SOL    HW2   21   2.568   0.953   1.040  1.2742  0.8394 -0.3609
    8SOL     OW   22   0.389   0.576   1.534 -0.5316  0.2135 -0.2150
    8SOL    HW1   23   0.490   0.544   1.551 -0.0205  2.2609  0.8607
    8SOL    HW2   24   0.367   0.570   1.433 -0.6168 -0.5550 -1.3875
    9SOL     OW   25   1.174   0.893   2.351  0.3352 -0.2341  0.7778
    9SOL    HW1   26   1.255   0.934   2.298  1.0702  1.4229  0.1798
    9SOL    HW2   27   1.095   0.876   2.282 -0.1141 -1.6454  1.7831
   10SOL     OW   28   0.625   1.350   1.306  0.0281 -0.1585  0.0557
   10SOL    HW1   29   0.546   1.358   1.242 -0.4984 -3.1165  2.1515
   10SOL    HW2   30   0.690   1.437   1.312  2.4058  1.3107  1.3804
   11SOL     OW   31   2.378   2.736   0.873  0.1705 -0.3208 -0.0653
   11SOL    HW1   32   2.350   2.722   0.969  1.0561  0.3947 -2.0624
   11SOL    HW2   33   2.477   2.753   0.862 -0.9200  0.3192  3.1405
   12SOL     OW   34   1.472   0.884   0.364  0.1151  0.5143 -0.0540
   12SOL    HW1   35   1.378   0.927   0.341 -1.9936  0.8910 -0.0931
   12SOL    HW2   36   1.470   0.783   0.331 -0.9298 -1.5576 -0.5891
   13SOL     OW   37   2.482   0.677   1.801 -0.7709 -0.3252 -0.3494
   13SOL    HW1   38   2.404   0.668   1.867  1.0063 -0.8908  0.1082
   13SOL    HW2   39   2.463   0.645   1.704 -0.1170 -0.4315 -2.6544
   14SOL     OW   40   1.923   0.078   0.732 -0.7833 -0.4201  0.1592
   14SOL    HW1   41   1.877   0.117   0.646 -0.1655 -0.1514 -0.1051
   14SOL    HW2   42   1.865   0.011   0.787  0.4985  0.3986 -0.8731
   15SOL     OW   43   1.967   2.042   2.735  0.7420  0.8646 -0.1196
   15SOL    HW1   44   1.911   2.129   2.739 -0.9116  0.2814 -0.3484
   15SOL    HW2   45   1.914   1.953   2.716  0.4117 -0.8086 -0.6807
   16SOL     OW   46   1.599   1.701   2.962 -0.0651  0.1301 -0.9428
   16SOL    HW1   47   1.638   1.610   2.991 -1.2955 -1.1623  1.3896
   16SOL    HW2   48   1.636   1.772   3.028  1.0639  0.4168 -0.1842
   17SOL     OW   49   0.134   0.537   0.172  0.3647  0.1419  0.0899
   17SOL    HW1   50   0.223   0.547   0.114  2.4275  1.9335  0.7709
   17SOL    HW2   51   0.052   0.535   0.109  1.8302 -0.5300  2.0803
   18SOL     OW   52   0.924   2.982   2.090 -0.0487 -0.4672  0.1167
   18SOL    HW1   53   0.866   2.901   2.128 -3.0260 -0.3595 -2.6384
   18SOL    HW2   54   1.003   2.957   2.036 -1.0667 -0.9307 -0.9770
   19SOL     OW   55   0.510   0.822   1.893 -0.0874  0.2897 -0.2596
   19SOL    HW1   56   0.526   0.819   1.991  0.8571 -1.8319 -1.4866
   19SOL    HW2   57   0.602   0.830   1.851 -1.8569 -2.3961  1.1066
   20SOL     OW   58   0.218   2.748   0.818 -0.4379 -0.5145 -1.1157
   20SOL    HW1   59   0.155   2.825   0.790 -0.6193 -1.0193  0.1800
   20SOL    HW2   60   0.287   2.720   0.744  2.3332  0.4989  0.5226
   21SOL     OW   61   2.771   0.204   2.087 -0.0878  0.3171  0.1570
   21SOL    HW1   62   2.708   0.134   2.048 -0.1942  2.5297 -0.4726
   21SOL    HW2   63   2.853   0.162   2.132 -0.5860  0.4229 -0.7311
   22SOL     OW   64   2.373   0.215   0.063 -0.1037  0.2682  0.0823
   22SOL    HW1   65   2.383   0.109   0.058  0.2401 -0.8130 -2.7282
   22SOL    HW2   66   2.281   0.246   0.090 -0.5787  1.1988  1.3609
   23SOL     OW   67   2.759   0.655   0.631  0.3310 -0.1992 -0.0254
   23SOL    HW1   68   2.798   0.573   0.578 -2.5162  0.7900  2.5895
   23SOL    HW2   69   2.756   0.742   0.569  1.5010 -0.6600 -2.3852
   24SOL     OW   70   0.157   1.896   0.368  0.0769 -0.3321  0.5218
   24SOL    HW1   71   0.127   1.984   0.318 -4.8785  0.1115  0.4078
   24SOL    HW2   72   0.247   1.861   0.334 -1.1918 -1.1714  1.9384
   25SOL     OW   73   2.209   0.535   0.314  0.3733  0.4976  0.0168
   25SOL    HW1   74   2.203   0.625   0.270 -1.9940  1.4301  1.1789
   25SOL    HW2   75   2.296   0.485   0.287 -0.6528 -0.5260  3.4038
   26SOL     OW   76   2.536   2.104   2.104  0.0409 -0.1040 -0.0968
   26SOL    HW1   77   2.590   2.176   2.163  0.4799  0.2458  2.8339
   26SOL    HW2   78   2.598   2.031   2.074 -1.8264 -0.3011  1.3963
   27SOL     OW   79   0.599   2.982   0.193 -0.0936 -0.1787  0.4209
   27SOL    HW1   80   0.699   2.953   0.170  0.1522  0.2696  0.0602
   27SOL    HW2   81   0.544   2.977   0.105  0.6378  0.1629  0.1514
   28SOL     OW   82   1.594   0.161   0.313  0.3348 -0.4371  0.0269
   28SOL    HW1   83   1.597   0.155   0.208  0.5975 -1.2073 -0.6032
   28SOL    HW2   84   1.595   0.258   0.351  1.7980 -3.2756 -0.2024
   29SOL     OW   85   1.956   0.564   0.403 -0.7128  0.8142  0.3484
   29SOL    HW1   86   1.934   0.666   0.396  1.2705 -0.9054  0.3371
   29SOL    HW2   87   2.055   0.551   0.375  0.9478 -0.7620  1.7043
   30SOL     OW   88   0.213   2.005   0.899 -0.3514 -0.2240  0.0006
   30SOL    HW1   89   0.222   2.015   0.798 -1.5908 -0.9839  1.6320
   30SOL    HW2   90   0.124   2.040   0.938  4.3305 -0.7369 -1.1988
   31SOL     OW   91   2.106   3.075   2.323  0.2756 -0.2921  0.2209
   31SOL    HW1   92   2.108   3.086   2.428 -1.9447  0.0333  0.5320
   31SOL    HW2   93   2.065   2.987   2.284 -1.6473 -0.9583 -1.5470
   32SOL     OW   94   2.960   0.127   0.245  0.2218 -0.6325 -0.7412
   32SOL    HW1   95   2.927   0.063   0.316  0.4439  1.2591  1.3677
   32SOL    HW2   96   3.057   0.156   0.261 -3.3235 -0.1344  1.0578
   33SOL     OW   97   0.940   0.317   0.604  0.0458 -0.2784  0.2849
   33SOL    HW1   98   0.953   0.229   0.555 -0.6131 -0.1076 -1.1595
   33SOL    HW2   99   1.033   0.347   0.647  3.5467 -0.7093  1.3283
   34SOL     OW  100   0.312   2.820   1.090  0.3403 -0.4980  0.5056
   34SOL    HW1  101   0.264   2.798   1.000  0.7630 -1.1924  1.1378
   34SOL    HW2  102   0.410   2.847   1.072 -1.1561  1.1767 -1.9500
   35SOL     OW  103   0.008   0.191   1.843  0.5423 -0.7475  0.5616
   35SOL    HW1  104   0.046   0.096   1.870  0.5343 -3.3682 -0.0412
   35SOL    HW2  105  -0.057   0.189   1.761  0.3363  1.7257 -1.5859
   36SOL     OW  106   1.961   1.147   1.791 -0.3598  0.6615 -0.5986
   36SOL    HW1  107   2.018   1.105   1.716  2.2967  1.8780 -1.4381
   36SOL    HW2  108   2.017   1.195   1.856 -3.8412 -0.7286 -1.2808
   37SOL     OW  109   1.193   0.154   0.888  0.4033  0.1547  0.2916
   37SOL    HW1  110   1.204   0.168   0.990 -1.5124 -0.3491 -0.1279
   37SOL    HW2  111   1.261   0.086   0.848 -0.6719  1.8533  1.1424
   38SOL     OW  112   1.114   2.809   2.438 -0.4054  0.5900  0.5941
   38SOL    HW1  113   1.042   2.743   2.469 -1.2438 -1.9989  1.8140
   38SOL    HW2  114   1.079   2.901   2.407  0.6592 -2.1658  0.1663
   39SOL     OW  115   2.309   1.416   3.038  0.1711 -0.0185 -0.1431
   39SOL    HW1  116   2.361   1.325   3.031 -2.8356 -0.5509 -4.1490
   39SOL    HW2  117   2.302   1.451   3.135  2.0287 -0.2715 -1.4238
   40SOL     OW  118   2.082   2.493   2.563  0.3709 -0.2427 -0.2184
   40SOL    HW1  119   2.023   2.580   2.567 -0.8580  0.1573  1.9315
   40SOL    HW2  120   2.022   2.408   2.551 -1.7616  3.3869 -0.0649
   41SOL     OW  121   2.999   0.674   2.802  0.2018  0.6741  0.4533
   41SOL    HW1  122   2.930   0.754   2.798 -1.9713 -0.7688 -3.2937
   41SOL    HW2  123   2.958   0.576   2.780  0.7690  1.5204 -1.0948
   42SOL     OW  124   1.760   1.753   0.527 -0.3681 -0.1326  0.1528
   42SOL    HW1  125   1.749   1.651   0.524  1.6967 -1.4434  0.6478
   42SOL    HW2  126   1.785   1.791   0.431  0.0480  0.0551 -2.0506
   43SOL     OW  127   0.484   1.691   1.086 -0.0311  0.1871 -0.2214
   43SOL    HW1  128   0.471   1.610   1.144 -1.5413  1.1911  3.8072
   43SOL    HW2  129   0.393   1.724   1.050 -0.3025 -1.5468  0.0324
   44SOL     OW  130   1.841   2.483   3.059 -0.0124  0.3606 -0.0753
   44SOL    HW1  131   1.801   2.552   2.998  0.1885  1.6109  1.0515
   44SOL    HW2  132   1.876   2.514   3.149  3.2334 -2.2354  1.8517
   45SOL     OW  133   0.383   1.958   2.590  0.5104 -0.4947 -0.3688
   45SOL    HW1  134   0.308   1.940   2.518 -1.4388  3.4936  0.9951
   45SOL    HW2  135   0.455   1.879   2.593  0.5658  0.6815  0.1215
   46SOL     OW  136   1.255   0.683   0.222  0.2821  0.4160  0.0490
   46SOL    HW1  137   1.266   0.760   0.155 -2.4819 -3.3803 -0.6580
   46SOL    HW2  138   1.153   0.660   0.237  0.6650  0.6679  3.9037
   47SOL     OW  139   0.217   2.478   1.609  0.3608  0.1089 -0.4929
   47SOL    HW1  140   0.224   2.369   1.615 -2.3843 -2.3859 -2.9041
   47SOL    HW2  141   0.203   2.509   1.511  2.6192  1.5542 -0.9582
   48SOL     OW  142   2.603   0.621   0.121  0.2371  0.1625  0.2695
   48SOL    HW1  143   2.567   0.603   0.211  3.9205  1.3922 -0.5361
   48SOL    HW2  144   2.697   0.669   0.117  0.2016  1.2699 -2.4846
   49SOL     OW  145   0.337   0.769   1.700 -0.0558 -0.0375 -0.0515
   49SOL    HW1  146   0.402   0.795   1.777  0.5388  0.7748  0.3608
   49SOL    HW2  147   0.374   0.694   1.638 -1.4609 -0.3934 -2.4116
   50SOL     OW  148   1.671   1.108   0.279  0.3442 -0.8449 -0.2429
   50SOL    HW1  149   1.687   1.014   0.251  0.7360  0.2135  2.0366
   50SOL    HW2  150   1.607   1.114   0.356  2.7184 -1.0183 -1.0692
   51SOL     OW  151   2.896   1.867   0.349  0.0040  0.5397 -0.7662
   51SOL    HW1  152   2.861   1.828   0.258  0.1595  0.0906  2.0552
   51SOL    HW2  153   2.971   1.810   0.397  2.4148  0.8625  0.6832
   52SOL     OW  154   0.793   2.014   0.480 -0.3952  0.3171 -0.1111
   52SOL    HW1  155   0.704   2.059   0.506  2.2032 -1.0538  1.4402
   52SOL    HW2  156   0.816   1.931   0.535  2.3163  0.6629  0.7510
   53SOL     OW  157   0.171   0.425   1.592  0.8550 -0.2471  0.3038
   53SOL    HW1  158   0.239   0.494   1.620  2.5461 -0.7929 -5.9405
   53SOL    HW2  159   0.084   0.464   1.557  0.5980 -0.5409 -0.2391
   54SOL     OW  160   1.786   0.466   3.061 -0.2881  0.3961 -0.0071
   54SOL    HW1  161   1.829   0.408   3.136 -0.7637 -0.6919 -0.0395
   54SOL    HW2  162   1.684   0.461   3.066  0.3597 -1.4085  1.2789
   55SOL     OW  163   0.766   2.896   0.690  0.3773  0.7711 -0.1645
   55SOL    HW1  164   0.715   2.979   0.717  0.0653 -1.5055  0.5232
   55SOL    HW2  165   0.868   2.908   0.678  0.4737 -4.2200 -0.7537
   56SOL     OW  166   0.451   1.603   0.026  0.5113 -0.2328  0.1956
   56SOL    HW1  167   0.353   1.648   0.021 -2.1010  0.9716  1.0092
   56SOL    HW2  168   0.463   1.527  -0.045 -0.9096  1.2396  3.8498
   57SOL     OW  169   1.767   2.527   2.562 -0.8715 -0.0137 -0.2317
   57SOL    HW1  170   1.805   2.442   2.512 -0.7671 -2.0965  0.1434
   57SOL    HW2  171   1.680   2.517   2.617  0.8874  2.2545 -4.1710
   58SOL     OW  172   0.640   0.311   1.034 -0.1350 -0.0272 -0.1426
   58SOL    HW1  173   0.591   0.397   1.032 -0.8072 -2.9172  0.6485
   58SOL    HW2  174   0.590   0.226   1.066 -1.0170 -1.3553 -1.7345
   59SOL     OW  175   0.439   2.416   2.771  0.6386  0.2752 -0.6735
   59SOL    HW1  176   0.469   2.326   2.722  0.7251 -2.5609 -1.5815
   59SOL    HW2  177   0.521   2.448   2.831 -1.6561 -1.3701  1.2020
   60SOL     OW  178   2.288   2.048   2.194  0.0959  0.3566 -0.1159
   60SOL    HW1  179   2.383   2.067   2.158  2.1275 -1.9045 -1.7773
   60SOL    HW2  180   2.290   2.051   2.294 -1.1637 -0.1105  1.5315
   61SOL     OW  181   1.329   0.627   0.466  0.2101  0.2345  0.7846
   61SOL    HW1  182   1.251   0.683   0.509 -0.9299  2.7061  0.2630
   61SOL    HW2  183   1.317   0.620   0.362  1.1017  0.9587 -2.3631
   62SOL     OW  184   2.768   1.798   2.915  0.5038  0.0747 -0.2423
   62SOL    HW1  185   2.737   1.703   2.941  0.6238  3.1687  0.9845
   62SOL    HW2  186   2.835   1.799   2.838  1.3624  0.4790 -0.6769
   63SOL     OW  187   0.624   0.907   0.171  0.0679  0.3168  0.0841
   63SOL    HW1  188   0.657   0.977   0.103  0.3728  2.3888 -1.6593
   63SOL    HW2  189   0.695   0.861   0.233 -0.2660 -1.7002  3.2034
   64SOL     OW  190   0.143   0.529   2.483  0.2171 -0.5279 -0.5605
   64SOL    HW1  191   0.166   0.534   2.584 -1.4024  0.9373 -2.2064
   64SOL    HW2  192   0.153   0.623   2.448 -3.0396 -0.0065  1.1598
   65SOL     OW  193   0.199   1.486   0.550  0.0100  0.1408  0.5273
   65SOL    HW1  194   0.231   1.573   0.598  0.6034  2.2847 -1.8644
   65SOL    HW2  195   0.272   1.423   0.512  1.8415  2.0626 -2.6771
   66SOL     OW  196   2.543   0.385   0.572 -0.0742  0.2811  0.2529
   66SOL    HW1  197   2.608   0.448   0.620  1.5313 -1.2391 -1.8118
   66SOL    HW2  198   2.522   0.302   0.628  1.8902 -1.1522  2.1000
   67SOL     OW  199   0.531   2.537   1.363 -0.1275  0.3790 -0.0062
   67SOL    HW1  200   0.566   2.523   1.459  0.0453 -0.0276  0.7541
   67SOL    HW2  201   0.454   2.465   1.353 -0.7031  0.8221  2.0570
   68SOL     OW  202   1.002   1.114   2.441 -0.1871 -0.2605  0.3445
   68SOL    HW1  203   1.046   1.020   2.428 -1.7111 -1.4082 -0.9632
   68SOL    HW2  204   0.924   1.127   2.372  0.5762 -2.6155 -1.1928
   69SOL     OW  205   0.744   2.779   2.191  0.1942  0.1487 -0.6532
   69SOL    HW1  206   0.757   2.683   2.157 -3.4183 -0.3027  0.9331
   69SOL    HW2  207   0.643   2.812   2.207 -0.4864  4.0085 -2.5462
   70SOL     OW  208   0.560   0.323   2.697 -0.2156  0.5316 -0.6063
   70SOL    HW1  209   0.549   0.345   2.795 -2.5451  0.0364  0.4942
   70SOL    HW2  210   0.556   0.218   2.688  1.4490 -0.8387 -3.0169
   71SOL     OW  211   1.067   1.717   0.364  0.3049  0.3855  0.1742
   71SOL    HW1  212   1.006   1.637   0.389 -2.8932 -1.6214  0.9551
   71SOL    HW2  213   1.043   1.752   0.268  0.5045 -0.5753  0.3679
   72SOL     OW  214   1.809   0.180   2.126  0.3981 -0.1164 -0.0233
   72SOL    HW1  215   1.896   0.230   2.126 -2.3069 -0.6892  2.1680
   72SOL    HW2  216   1.817   0.076   2.120 -0.9334 -1.1669 -1.6161
   73SOL     OW  217   2.837   2.157   2.425 -0.1548  0.8659 -0.1891
   73SOL    HW1  218   2.788   2.063   2.395 -2.9617  0.5796 -0.2033
   73SOL    HW2  219   2.870   2.147   2.522  0.7971  1.1796  2.8530
   74SOL     OW  220   2.718   2.897   2.098  0.3788 -0.0291  0.1185
   74SOL    HW1  221   2.649   2.904   2.171  2.2585 -0.0196 -3.1040
   74SOL    HW2  222   2.810   2.938   2.125 -1.7079 -1.2427  0.0125
   75SOL     OW  223   0.909   0.754   1.092 -0.6708  0.2421  0.0704
   75SOL    HW1  224   0.840   0.802   1.032  1.3159 -2.8774  0.4644
   75SOL    HW2  225   0.951   0.818   1.165  0.7639 -1.7024 -0.7825
   76SOL     OW  226   1.675   1.256   2.517  0.6550 -0.7458 -0.4567
   76SOL    HW1  227   1.581   1.218   2.507  1.4352  1.2555 -0.9152
   76SOL    HW2  228   1.680   1.352   2.569 -1.3734  1.8171 -0.6629
   77SOL     OW  229   2.985   0.916   0.975  0.4931 -0.3047  0.1675
   77SOL    HW1  230   2.970   0.816   0.951  1.3744  0.4929 -1.2993
   77SOL    HW2  231   3.043   0.921   1.057 -1.6393  0.4939  0.8742
   78SOL     OW  232   2.093   1.403   1.534  0.1930  0.6616  0.4659
   78SOL    HW1  233   2.179   1.444   1.491  0.2309  0.9264 -1.4104
   78SOL    HW2  234   2.006   1.449   1.501  0.8726  2.2443  1.6024
   79SOL     OW  235   0.637   1.305   0.877 -0.4408  0.3672 -0.0318
   79SOL    HW1  236   0.536   1.329   0.870 -2.7192  0.6571  0.1597
   79SOL    HW2  237   0.680   1.298   0.784 -2.4036 -0.3669  1.1119
   80SOL     OW  238   0.631   0.488   1.572 -0.2821  0.3648 -0.4430
   80SOL    HW1  239   0.692   0.537   1.500 -2.4468 -0.0017 -2.4092
   80SOL    HW2  240   0.657   0.390   1.588 -0.8659 -0.8891  2.4870
   81SOL     OW  241   1.038   1.377   2.607  0.1683 -0.0308  0.4194
   81SOL    HW1  242   1.040   1.277   2.634  1.1317  0.2971  0.1630
   81SOL    HW2  243   0.970   1.389   2.528 -3.9842  1.3777 -0.8733
   82SOL     OW  244   0.987   2.939   1.485  0.8052  0.1441  0.1901
   82SOL    HW1  245   1.005   3.010   1.414 -0.9920 -0.9920  0.3656
   82SOL    HW2  246   0.895   2.893   1.482  1.1166  0.2935  0.6455
   83SOL     OW  247   2.749   2.500   0.854  0.3806 -0.3253 -0.3677
   83SOL    HW1  248   2.673   2.444   0.814  0.8325  0.2225 -1.1270
   83SOL    HW2  249   2.718   2.604   0.861 -1.6298  0.4756 -0.9314
   84SOL     OW  250   0.672   3.051   2.340 -0.5337  0.1464  0.1160
   84SOL    HW1  251   0.611   2.996   2.406 -0.2743  2.3317  1.6749
   84SOL    HW2  252   0.773   3.022   2.345  2.7437 -2.5799  1.8976
   85SOL     OW  253   0.316   1.581   1.506 -0.1636  0.2366  0.0330
   85SOL    HW1  254   0.265   1.672   1.509 -1.3433  1.1982 -0.6290
   85SOL    HW2  255   0.363   1.542   1.588  1.2720 -0.5362 -0.5966
   86SOL     OW  256   0.390   0.975   1.503 -0.0475  0.1081  0.0049
   86SOL    HW1  257   0.359   0.919   1.418  0.0631 -1.2985 -1.1347
   86SOL    HW2  258   0.388   0.922   1.592 -2.1121 -0.3238  0.5008
   87SOL     OW  259   1.597   0.665   0.202  0.5767 -0.1588  0.3566
   87SOL    HW1  260   1.661   0.744   0.221 -0.0650  1.1768 -0.8435
   87SOL    HW2  261   1.575   0.655   0.099  0.3675  2.1379  1.2929
   88SOL     OW  262   1.600   1.369   0.190  0.3320 -0.3860  0.0717
   88SOL    HW1  263   1.628   1.277   0.228  2.8548 -0.4734 -1.3703
   88SOL    HW2  264   1.500   1.391   0.207  0.3296  2.7627 -0.8273
   89SOL     OW  265   0.027   0.417   0.588  0.5135  0.1488 -0.0674
   89SOL    HW1  266   0.093   0.338   0.585  1.7249 -0.1118  0.3192
   89SOL    HW2  267  -0.071   0.385   0.615  0.3489 -0.1882  0.1233
   90SOL     OW  268   0.894   1.624   0.018 -0.1774  0.0121 -0.1028
   90SOL    HW1  269   0.823   1.590   0.088 -0.9426  0.8926 -0.5366
   90SOL    HW2  270   0.860   1.603  -0.078 -0.1540 -1.6111  0.6498
   91SOL     OW  271   1.230   1.453   1.764 -0.2176  0.0869 -0.1970
   91SOL    HW1  272   1.218   1.517   1.844 -0.5806 -1.2973 -2.4964
   91SOL    HW2  273   1.324   1.406   1.771 -1.0690 -0.4312  0.6453
   92SOL     OW  274   0.041   0.954   1.197  0.3805  0.8691 -0.2079
   92SOL    HW1  275   0.066   1.041   1.147 -1.7687  1.5797 -0.7538
   92SOL    HW2  276   0.034   0.967   1.302 -1.1157  0.6379 -0.5600
   93SOL     OW  277   0.033   2.746   3.095 -0.0059  0.1765  0.0805
   93SOL    HW1  278  -0.032   2.785   3.027 -1.0521 -2.9622 -1.5885
   93SOL    HW2  279   0.017   2.646   3.108 -1.7760 -0.2229 -0.0187
   94SOL     OW  280   1.519   1.430   1.754 -0.2744  0.4768 -0.0756
   94SOL    HW1  281   1.596   1.360   1.745  2.1748  0.0534  0.0680
   94SOL    HW2  282   1.552   1.512   1.805  0.5717 -2.0064  2.2567
   95SOL     OW  283   1.398   2.506   3.032 -0.3127  0.3973  0.0286
   95SOL    HW1  284   1.295   2.505   3.052 -2.2867  1.8607  0.8265
   95SOL    HW2  285   1.424   2.433   2.962 -0.9978  0.1374  1.4194
   96SOL     OW  286   0.548   2.088   1.325 -0.5255 -0.3393 -0.5786
   96SOL    HW1  287   0.513   2.046   1.240 -1.3861 -0.5719  1.9850
   96SOL    HW2  288   0.608   2.020   1.377 -0.7311  1.2310 -1.0059
   97SOL     OW  289   0.385   1.653   2.450 -0.1387  0.1308 -0.0096
   97SOL    HW1  290   0.293   1.700   2.456  1.2781  0.9216 -0.8506
   97SOL    HW2  291   0.426   1.640   2.543 -0.9556  0.4127  1.5987
   98SOL     OW  292   1.966   1.590   1.233  0.5046  0.3845 -0.0273
   98SOL    HW1  293   1.894   1.556   1.297 -1.4924  1.3293 -1.8259
   98SOL    HW2  294   1.969   1.535   1.144  1.8161  0.3148  0.6592
   99SOL     OW  295   2.453   2.110   1.397 -0.2790 -0.2846  0.3093
   99SOL    HW1  296   2.489   2.135   1.488  0.0417 -3.0066  0.3648
   99SOL    HW2  297   2.410   2.017   1.389  2.1276 -1.3799 -1.3153
  100SOL     OW  298   2.325   0.319   2.085  0.3959 -0.1643  0.3238
  100SOL    HW1  299   2.266   0.297   2.172 -1.9525 -1.8614  2.0655
  100SOL    HW2  300   2.375   0.410   2.094  1.8323 -0.7673 -0.3001
  101SOL     OW  301   0.344   1.517   0.272  0.1713 -0.6005  0.4561
  101SOL    HW1  302   0.396   1.534   0.361  0.9124 -2.1540  2.6106
  101SOL    HW2  303   0.354   1.594   0.203 -0.3694  2.8885  0.8837
  102SOL     OW  304   2.282   0.992   0.869 -0.0299  0.2616 -0.1225
  102SOL    HW1  305   2.223   0.920   0.834  0.2407  1.8487 -0.9968
  102SOL    HW2  306   2.301   1.073   0.804 -0.9374  1.3395  1.4754
  103SOL     OW  307   2.288   0.032   0.393 -0.0195  0.0372  0.2676
  103SOL    HW1  308   2.310   0.134   0.378  0.1320 -0.8982  1.6619
  103SOL    HW2  309   2.374  -0.011   0.423 -0.8593 -2.1662 -1.1975
  104SOL     OW  310   0.117   1.784   2.179  0.6800  0.0870  0.0730
  104SOL    HW1  311   0.150   1.765   2.084 -1.6129 -0.3492  0.5784
  104SOL    HW2  312   0.017   1.752   2.198 -1.4545 -0.6686 -2.7635
  105SOL     OW  313   1.266   2.122   0.788 -0.3242  0.0855  0.4308
  105SOL    HW1  314   1.194   2.141   0.717  0.5669  0.5799 -0.9694
  105SOL    HW2  315   1.290   2.021   0.794 -0.0983 -0.4604  0.2718
  106SOL     OW  316   2.156   0.464   1.423  0.1671 -0.8439  0.3019
  106SOL    HW1  317   2.120   0.369   1.443 -0.7865 -1.8555 -1.8941
  106SOL    HW2  318   2.142   0.527   1.506 -1.9933 -0.4145  2.1114
  107SOL     OW  319   1.740   3.039   1.155 -0.1476  0.6197 -0.2109
  107SOL    HW1  320   1.794   3.125   1.181  1.9389  1.3400  0.0396
  107SOL    HW2  321   1.696   2.992   1.240 -1.4965  3.5890 -0.6804
  108SOL     OW  322   0.805   2.786   1.194 -0.2509 -0.1336  0.1279
  108SOL    HW1  323   0.792   2.765   1.294 -0.7685 -0.0689 -0.4849
  108SOL    HW2  324   0.906   2.775   1.167  0.8992 -0.0860  1.5396
  109SOL     OW  325   2.225   0.112   0.740 -0.3758  0.5785 -0.6656
  109SOL    HW1  326   2.125   0.116   0.710 -1.7102  0.6235  1.6990
  109SOL    HW2  327   2.237   0.079   0.839  0.1997 -2.0462 -1.2768
  110SOL     OW  328   0.452   2.858   2.766  0.5240  0.1997  0.0839
  110SOL    HW1  329   0.443   2.881   2.664  1.6809 -1.9104  1.9046
  110SOL    HW2  330   0.531   2.794   2.781 -0.6809  1.2140  1.7189
  111SOL     OW  331   1.312   0.514   2.302 -0.1606  0.6530  0.3166
  111SOL    HW1  332   1.228   0.551   2.350 -1.0932  1.5802  1.4539
  111SOL    HW2  333   1.364   0.442   2.361 -1.3576 -0.6555  2.2010
  112SOL     OW  334   1.704   0.558   1.490  0.5534  0.3718  0.0310
  112SOL    HW1  335   1.717   0.531   1.393 -1.7950  2.4157  1.8663
  112SOL    HW2  336   1.699   0.478   1.555  0.7805  1.1712  1.5160
  113SOL     OW  337   2.246   1.671   1.770 -0.0091  0.2330 -0.2166
  113SOL    HW1  338   2.296   1.581   1.745  2.8489  2.1101 -0.0174
  113SOL    HW2  339   2.269   1.697   1.866 -0.2119  0.0840 -0.8701
  114SOL     OW  340   0.369   0.522   1.246 -0.2128  0.3999  0.0690
  114SOL    HW1  341   0.401   0.597   1.181 -1.6486  0.7228  2.5210
  114SOL    HW2  342   0.280   0.485   1.215 -0.7636  3.5265  1.4492
  115SOL     OW  343   2.805   1.598   1.295 -0.1883 -0.6333 -0.1622
  115SOL    HW1  344   2.819   1.494   1.294 -1.4844  0.2274 -0.9268
  115SOL    HW2  345   2.820   1.641   1.198  2.5770  0.6295 -2.1790
  116SOL     OW  346   1.843   1.054   0.704  0.1808  0.1090  0.5196
  116SOL    HW1  347   1.761   1.020   0.650 -0.5764  0.8971 -0.0714
  116SOL    HW2  348   1.812   1.121   0.776  2.3146  2.4512  0.9321
  117SOL     OW  349   1.186   0.421   0.665 -0.0881  0.4872 -1.0124
  117SOL    HW1  350   1.215   0.436   0.759  1.0624 -1.1271  0.3549
  117SOL    HW2  351   1.239   0.473   0.592 -0.9869 -2.9893 -2.3584
  118SOL     OW  352   1.127   1.136   1.083  0.0579 -0.6249  0.0788
  118SOL    HW1  353   1.101   1.059   1.147  0.1894  1.3225 -2.5879
  118SOL    HW2  354   1.164   1.219   1.139  0.2466  4.6734  0.2363
  119SOL     OW  355   1.822   1.621   2.150 -0.2369  0.4529  0.3535
  119SOL    HW1  356   1.811   1.721   2.177 -2.5557 -4.3560  2.2490
  119SOL    HW2  357   1.925   1.593   2.133  0.6035 -0.3468 -0.0791
  120SOL     OW  358   2.923   2.820   0.174  0.4432  0.3621 -0.7603
  120SOL    HW1  359   3.017   2.805   0.127  0.5081  0.8263  1.1413
  120SOL    HW2  360   2.847   2.766   0.131 -2.1240 -1.2542 -0.7302
  121SOL     OW  361   2.013   0.761   2.307 -0.2065 -0.1114  0.0102
  121SOL    HW1  362   2.070   0.815   2.236 -0.8149  0.7073 -3.5334
  121SOL    HW2  363   2.012   0.661   2.281 -0.9405  1.3459  0.2273
  122SOL     OW  364   2.630   2.700   1.219 -0.0139 -0.1678 -0.0590
  122SOL    HW1  365   2.672   2.611   1.186  0.1285  1.7651  0.4900
  122SOL    HW2  366   2.567   2.746   1.146  0.2613  0.1351 -0.5344
  123SOL     OW  367   1.770   0.078   1.688  0.2848  0.7037  0.5171
  123SOL    HW1  368   1.788  -0.023   1.661  1.1884 -0.6293  1.1715
  123SOL    HW2  369   1.844   0.115   1.753 -0.4814 -0.0364 -1.3034
  124SOL     OW  370   0.120   0.435   1.073 -0.0014  0.5990  0.2528
  124SOL    HW1  371   0.098   0.501   1.154  1.3282 -2.4439 -2.1840
  124SOL    HW2  372   0.112   0.478   0.977  0.0409 -0.4282 -1.1121
  125SOL     OW  373   0.839   1.853   0.695  0.3138 -0.1121  0.2224
  125SOL    HW1  374   0.910   1.793   0.734 -1.1187  1.6895  1.0876
  125SOL    HW2  375   0.781   1.902   0.764  0.4595  1.0568  0.4206
  126SOL     OW  376   1.890   2.292   2.479 -0.6176  0.0148 -0.2596
  126SOL    HW1  377   1.943   2.279   2.389  0.6851 -1.6967  1.3330
  126SOL    HW2  378   1.835   2.206   2.496  1.4963 -0.9125  1.3552
  127SOL     OW  379   0.882   0.876   0.286  0.3293  0.6848 -0.2823
  127SOL    HW1  380   0.924   0.934   0.362  2.2087 -0.8341 -1.9701
  127SOL    HW2  381   0.928   0.780   0.291 -0.5924 -0.8678  1.4534
  128SOL     OW  382   0.937   0.259   1.393 -0.3769  0.1202  0.7302
  128SOL    HW1  383   0.912   0.353   1.344 -1.3626  3.2204 -1.6805
  128SOL    HW2  384   0.888   0.179   1.351 -1.2068 -2.4447 -0.5871
  129SOL     OW  385   1.815   0.722   1.894 -0.0926 -0.0526  0.4318
  129SOL    HW1  386   1.820   0.721   1.791 -1.9881 -1.8660 -1.8032
  129SOL    HW2  387   1.877   0.791   1.940 -4.9754 -0.9999 -0.8930
  130SOL     OW  388   1.372   2.195   1.029 -0.4391  0.0096 -0.1154
  130SOL    HW1  389   1.340   2.154   0.940  1.1526  1.8539 -0.6969
  130SOL    HW2  390   1.438   2.275   1.021  1.0545  0.7464  1.3903
  131SOL     OW  391   3.035   1.416   1.357 -0.1716 -0.1682 -0.0281
  131SOL    HW1  392   2.985   1.327   1.360 -0.3970 -1.2419 -2.0903
  131SOL    HW2  393   3.131   1.403   1.329 -0.8422 -0.4685 -1.8613
  132SOL     OW  394   2.054   2.437   0.544  0.3010  0.0264 -0.7404
  132SOL    HW1  395   1.951   2.428   0.517 -2.1013  2.7335  1.8271
  132SOL    HW2  396   2.079   2.369   0.616 -1.2320  1.6002 -3.5151
  133SOL     OW  397   1.890   2.314   2.789  0.1742  0.3883  0.6835
  133SOL    HW1  398   1.912   2.345   2.884 -1.4779  1.5161  3.1425
  133SOL    HW2  399   1.866   2.396   2.730  1.7719  0.0383 -2.0971
  134SOL     OW  400   2.698   2.325   1.677 -0.2832  0.0763  0.0847
  134SOL    HW1  401   2.618   2.304   1.739  1.7704  0.7525  1.8737
  134SOL    HW2  402   2.732   2.422   1.682 -0.8043  0.7506  0.8474
  135SOL     OW  403   0.704   1.480   2.670 -0.1934 -0.2690 -0.8004
  135SOL    HW1  404   0.688   1.380   2.702  1.9153 -3.1480  1.5311
  135SOL    HW2  405   0.741   1.478   2.568 -1.4735 -2.5833  2.0106
  136SOL     OW  406   1.198   1.963   0.435  0.3146  0.2214 -0.4164
  136SOL    HW1  407   1.155   2.025   0.504  2.2478  0.1991  1.3917
  136SOL    HW2  408   1.152   1.874   0.414  1.0546  0.4784  1.5544
  137SOL     OW  409   0.430   1.140   2.142  0.2747 -0.2094  0.1251
  137SOL    HW1  410   0.335   1.159   2.178 -1.5334  0.2928 -2.0068
  137SOL    HW2  411   0.473   1.049   2.174  0.5232 -2.4492  2.0507
  138SOL     OW  412   2.439   1.504   0.272 -1.3354  0.2539 -0.1557
  138SOL    HW1  413   2.354   1.448   0.249 -1.0951  1.3627 -1.3334
  138SOL    HW2  414   2.513   1.460   0.333  1.6970  0.9704 -1.9019
  139SOL     OW  415   1.866   2.634   1.303  0.0135 -0.2813 -0.1636
  139SOL    HW1  416   1.773   2.638   1.266  1.2355 -1.2797 -2.1102
  139SOL    HW2  417   1.898   2.537   1.319  0.1685 -2.6181 -1.1470
  140SOL     OW  418   3.015   2.936   2.578 -0.2928  0.5574 -0.7796
  140SOL    HW1  419   3.071   2.848   2.602  0.7083 -1.1878  0.3841
  140SOL    HW2  420   3.071   3.026   2.584  0.1516  2.7893 -1.8397
  141SOL     OW  421   1.319   1.701   1.634  0.3354 -0.3698 -0.1400
  141SOL    HW1  422   1.221   1.733   1.654 -0.0813  0.2094  1.0111
  141SOL    HW2  423   1.345   1.631   1.705  0.0752  0.4847  2.7359
  142SOL     OW  424   1.571   0.579   2.232  0.0469 -0.1808  0.0899
  142SOL    HW1  425   1.580   0.578   2.127  0.5022  2.0765 -0.1702
  142SOL    HW2  426   1.479   0.553   2.266  1.4909  0.7203 -2.8210
  143SOL     OW  427   2.743   0.902   0.480  0.2282 -0.1390  0.1269
  143SOL    HW1  428   2.789   0.950   0.399 -0.1073  3.4674 -1.4332
  143SOL    HW2  429   2.771   0.933   0.576 -0.2712  1.3266  1.0062
  144SOL     OW  430   2.913   1.186   1.472 -0.1823  0.2670  0.5587
  144SOL    HW1  431   2.852   1.167   1.551 -0.2023 -0.6201 -1.6088
  144SOL    HW2  432   3.008   1.153   1.494 -1.7116  1.0836 -2.3120
  145SOL     OW  433   1.028   1.876   0.103  0.3624 -0.4152  0.9777
  145SOL    HW1  434   1.049   1.949   0.033  1.7507 -1.5533 -0.1509
  145SOL    HW2  435   0.997   1.788   0.062  0.8777  0.6978  0.6045
  146SOL     OW  436   2.480   0.673   1.502  0.3220 -0.0424  0.1938
  146SOL    HW1  437   2.466   0.595   1.433  0.5416  1.7993 -2.6357
  146SOL    HW2  438   2.455   0.765   1.470  2.4569 -3.3487  0.5729
  147SOL     OW  439   1.141   2.477   0.620 -0.4337  0.1935  0.5376
  147SOL    HW1  440   1.096   2.530   0.541  0.5011 -1.6822 -0.0087
  147SOL    HW2  441   1.225   2.413   0.592  0.8170  0.1379 -2.3623
  148SOL     OW  442   1.676   1.457   3.056  0.3866  0.0239 -0.5257
  148SOL    HW1  443   1.677   1.375   2.991 -1.5386 -1.5739  2.0691
  148SOL    HW2  444   1.637   1.440   3.152  0.0124  2.6074 -0.3362
  149SOL     OW  445   0.691   1.425   1.972 -0.1676  0.0759 -0.2936
  149SOL    HW1  446   0.594   1.422   2.009  0.8783 -0.0944 -2.4211
  149SOL    HW2  447   0.699   1.383   1.880  1.2595 -0.5167  0.6357
  150SOL     OW  448   3.041   1.269   0.966  0.1892 -0.4043 -0.3132
  150SOL    HW1  449   3.099   1.274   1.052  0.2983  0.6153  0.9264
  150SOL    HW2  450   3.006   1.173   0.953 -2.6206  0.5691  0.8601
  151SOL     OW  451   0.238   0.733   2.130  0.1669 -0.3745  0.0962
  151SOL    HW1  452   0.215   0.798   2.050 -0.9513  1.0786  2.0835
  151SOL    HW2  453   0.249   0.633   2.097 -1.1982 -0.5205 -0.1398
  152SOL     OW  454   1.397   1.759   1.280  0.3377 -0.1532 -0.0574
  152SOL    HW1  455   1.369   1.843   1.336 -0.1455  0.2368  0.8050
  152SOL    HW2  456   1.319   1.726   1.219  2.3647 -0.4103  1.7294
  153SOL     OW  457   3.076   1.523   0.167  0.5115 -0.1202 -0.2230
  153SOL    HW1  458   3.108   1.426   0.182 -0.7130 -0.9621  1.0875
  153SOL    HW2  459   3.098   1.577   0.254 -0.2096 -0.6405  0.0056
  154SOL     OW  460   2.371   1.866   2.737 -0.0088  0.3908  0.0153
  154SOL    HW1  461   2.357   1.766   2.752  1.0099  0.8868  0.5266
  154SOL    HW2  462   2.456   1.885   2.683 -0.2534  0.1828  2.6117
  155SOL     OW  463   2.428   1.223   0.388  0.1630 -0.2495  0.3044
  155SOL    HW1  464   2.509   1.198   0.322  1.4132  1.2521 -2.4508
  155SOL    HW2  465   2.335   1.200   0.345 -0.9610 -1.1251  1.7618
  156SOL     OW  466   2.562   0.965   0.870 -0.5304 -0.1375  0.0613
  156SOL    HW1  467   2.463   0.947   0.858 -2.4404 -1.2099 -0.1608
  156SOL    HW2  468   2.586   1.066   0.853 -0.1029  0.9926 -1.6304
  157SOL     OW  469   1.290   2.960   3.066  0.1991 -0.6159 -0.1476
  157SOL    HW1  470   1.356   2.943   2.985  0.1217  2.9687 -0.9081
  157SOL    HW2  471   1.271   3.065   3.075 -0.7531  1.4684 -1.8114
  158SOL     OW  472   1.035   1.849   1.926 -0.0057 -0.0268 -0.4552
  158SOL    HW1  473   1.061   1.946   1.900  2.7567  2.3979 -0.8497
  158SOL    HW2  474   0.959   1.843   1.996  0.3899 -0.1640 -0.4713
  159SOL     OW  475   0.815   0.430   1.219  0.1615  0.0785 -0.0344
  159SOL    HW1  476   0.782   0.517   1.265 -0.4860  2.6128 -2.3744
  159SOL    HW2  477   0.747   0.390   1.155  2.4153  0.8258  0.8238
  160SOL     OW  478   1.393   2.328   1.614  0.0160 -0.3920 -0.6478
  160SOL    HW1  479   1.407   2.342   1.718 -0.9587  0.5485 -0.6277
  160SOL    HW2  480   1.479   2.353   1.562  1.2815  3.4360  0.7289
  161SOL     OW  481   0.074   2.931   0.295 -0.0245 -0.0158  0.4695
  161SOL    HW1  482  -0.015   2.884   0.282  0.8340  1.6207 -1.9562
  161SOL    HW2  483   0.106   2.982   0.203 -2.0095  0.3686  0.3197
  162SOL     OW  484   2.512   1.912   0.467 -0.8761 -0.0157  0.0849
  162SOL    HW1  485   2.533   1.853   0.389 -1.5108  0.7770  0.6259
  162SOL    HW2  486   2.513   1.859   0.553 -0.2155 -4.3221 -0.6251
  163SOL     OW  487   1.901   2.776   0.740 -0.7023  1.1151 -0.4994
  163SOL    HW1  488   1.894   2.794   0.637 -1.3982 -0.6835  0.0452
  163SOL    HW2  489   1.975   2.710   0.767 -2.1023  1.1183  0.2478
  164SOL     OW  490   3.084   0.220   1.177  0.3762  0.1600 -0.1423
  164SOL    HW1  491   3.122   0.309   1.130 -2.0431  1.3455 -1.8890
  164SOL    HW2  492   3.145   0.173   1.248 -1.5648  1.2520  0.8419
  165SOL     OW  493   0.930   1.414   0.705  0.2441 -0.1298  0.6631
  165SOL    HW1  494   0.936   1.494   0.774  1.1102 -0.9428  1.3909
  165SOL    HW2  495   0.892   1.432   0.611 -1.2918  3.7670 -1.1086
  166SOL     OW  496   1.493   1.097   1.744  0.0625  0.3004 -0.1247
  166SOL    HW1  497   1.419   1.072   1.813 -0.9980  0.8232 -2.2195
  166SOL    HW2  498   1.574   1.147   1.782  2.0603 -5.3299 -1.1494
  167SOL     OW  499   0.718   1.933   1.440  0.1366  0.3592 -0.3128
  167SOL    HW1  500   0.751   1.990   1.522 -1.2595  0.1276 -1.0907
  167SOL    HW2  501   0.706   1.832   1.465 -0.8117 -1.0845  0.8891
  168SOL     OW  502   1.632   2.383   0.147 -0.1041 -0.2044  0.0350
  168SOL    HW1  503   1.696   2.420   0.080 -1.5935  1.1739  0.2321
  168SOL    HW2  504   1.673   2.330   0.227 -3.6207 -1.8195  2.5776
  169SOL     OW  505   0.152   2.562   2.225  0.0470 -0.0301  0.2453
  169SOL    HW1  506   0.175   2.514   2.138 -3.2473  3.0680 -1.0164
  169SOL    HW2  507   0.196   2.530   2.315  0.5520 -1.1339 -1.0881
  170SOL     OW  508   1.161   0.230   1.999 -0.0486 -0.0364  0.0178
  170SOL    HW1  509   1.224   0.229   2.080 -0.7974 -3.1867 -1.5942
  170SOL    HW2  510   1.189   0.163   1.924 -2.5337 -0.8431  0.0011
  171SOL     OW  511   0.205   0.798   2.415  0.0091 -0.3728  0.6838
  171SOL    HW1  512   0.125   0.851   2.464 -0.1516 -0.7112  1.8440
  171SOL    HW2  513   0.193   0.791   2.309 -3.7839  0.4404 -0.4926
  172SOL     OW  514   0.903   1.042   2.912 -0.3212  0.0519 -0.2226
  172SOL    HW1  515   0.992   1.091   2.933 -0.5662 -0.1296  1.0382
  172SOL    HW2  516   0.875   1.045   2.814  2.5467 -0.6787  0.8385
  173SOL     OW  517   0.644   2.660   0.085 -0.1608  0.1199  0.3045
  173SOL    HW1  518   0.632   2.728   0.009 -2.5771  1.0287  0.1654
  173SOL    HW2  519   0.557   2.630   0.119  2.7639  0.2856  2.1676
  174SOL     OW  520   1.421   2.825   1.089  0.5552  0.4240  0.4329
  174SOL    HW1  521   1.429   2.926   1.060  0.9180  0.9601 -0.6244
  174SOL    HW2  522   1.395   2.762   1.016  0.5005 -0.6235  1.8125
  175SOL     OW  523   0.379   0.075   1.687  0.3903 -0.3114  0.6170
  175SOL    HW1  524   0.456   0.124   1.738  0.1652 -0.1680 -1.5620
  175SOL    HW2  525   0.318   0.140   1.634  1.3675 -0.3934  0.5684
  176SOL     OW  526   2.573   0.383   3.085  0.3278 -0.0171  0.1114
  176SOL    HW1  527   2.556   0.472   3.136  1.1809  0.4650 -1.2808
  176SOL    HW2  528   2.491   0.318   3.108 -4.6432 -0.4117  3.5868
  177SOL     OW  529   0.358   0.312   0.992 -0.1083  0.3867  0.1534
  177SOL    HW1  530   0.399   0.246   1.057 -0.4442  1.2500 -1.9770
  177SOL    HW2  531   0.265   0.337   1.027  0.9841 -2.1157  0.4995
  178SOL     OW  532   3.088   2.653   2.645 -0.3388 -0.1651 -0.0965
  178SOL    HW1  533   3.009   2.595   2.677 -0.3059  1.4318 -0.9454
  178SOL    HW2  534   3.148   2.691   2.723 -1.6146 -0.1060  1.3187
  179SOL     OW  535   0.019   1.698   1.192  0.0004  0.0502 -0.4052
  179SOL    HW1  536  -0.051   1.771   1.199  0.2726 -0.9089  1.3152
  179SOL    HW2  537  -0.004   1.623   1.259 -0.2995 -1.8038  3.4348
  180SOL     OW  538   0.243   1.190   1.843 -0.0200  0.0901 -0.3688
  180SOL    HW1  539   0.344   1.182   1.843  1.6587 -0.9213 -0.4970
  180SOL    HW2  540   0.208   1.258   1.915  1.2175 -1.6129 -1.2536
  181SOL     OW  541   3.012   1.852   2.492  0.3702 -0.0879  0.0215
  181SOL    HW1  542   3.084   1.925   2.486  0.4102  1.2741  1.0351
  181SOL    HW2  543   2.916   1.888   2.462 -1.0399  4.2806 -2.1087
  182SOL     OW  544   2.243   1.306   1.151 -0.4874  0.1620 -0.2348
  182SOL    HW1  545   2.155   1.270   1.106 -1.2786 -0.1689 -1.1234
  182SOL    HW2  546   2.273   1.400   1.115  1.5390 -0.8073  0.9117
  183SOL     OW  547   1.514   2.225   2.547  0.0880  0.2987 -0.0383
  183SOL    HW1  548   1.435   2.163   2.578  2.1506  2.2222  1.0362
  183SOL    HW2  549   1.605   2.171   2.522  1.2908 -2.8990 -1.3068
  184SOL     OW  550   2.047   0.867   0.767 -0.3371 -0.2909  0.2702
  184SOL    HW1  551   1.970   0.934   0.748 -0.8686 -0.9968  0.1342
  184SOL    HW2  552   2.012   0.778   0.810  0.3231 -1.7846  0.3485
  185SOL     OW  553   1.564   2.769   2.102  0.7753 -0.3655  0.1626
  185SOL    HW1  554   1.518   2.859   2.076  0.1026 -1.2491 -0.2746
  185SOL    HW2  555   1.539   2.746   2.203  0.5487  0.3934  1.2659
  186SOL     OW  556   0.101   2.222   1.663  0.5558 -0.0174 -0.5527
  186SOL    HW1  557   0.092   2.275   1.752 -3.2279 -1.0702  2.4363
  186SOL    HW2  558   0.167   2.146   1.676 -2.4056 -0.3741  3.7534
  187SOL     OW  559   1.366   0.747   1.655 -0.8567  0.1213 -0.1883
  187SOL    HW1  560   1.453   0.776   1.601 -0.7626  2.7442 -1.3419
  187SOL    HW2  561   1.381   0.769   1.755  1.4614  1.3186  0.3949
  188SOL     OW  562   2.771   2.766   1.451 -0.3181  0.5248 -0.4069
  188SOL    HW1  563   2.774   2.870   1.427 -1.0925  1.6889 -1.0382
  188SOL    HW2  564   2.696   2.721   1.395  1.4388 -0.5073 -2.4821
  189SOL     OW  565   0.862   1.152   1.393  0.7079  0.9325  0.3128
  189SOL    HW1  566   0.946   1.184   1.450 -0.3560  1.1197  0.2034
  189SOL    HW2  567   0.803   1.228   1.346 -0.1998 -0.8121  0.0222
  190SOL     OW  568   1.490   1.887   1.566 -0.4604  0.2415 -0.0471
  190SOL    HW1  569   1.415   1.813   1.584 -0.0764 -2.2388  1.3626
  190SOL    HW2  570   1.503   1.955   1.642  0.6818  0.9003 -1.2847
  191SOL     OW  571   0.962   0.761   1.522  0.2781  0.1822  0.4907
  191SOL    HW1  572   1.021   0.676   1.508  2.2764 -0.5552  0.1616
  191SOL    HW2  573   1.023   0.844   1.539  1.8858  1.3482 -2.2248
  192SOL     OW  574   1.862   2.227   1.131 -0.0797  0.5841 -0.2675
  192SOL    HW1  575   1.767   2.206   1.098 -1.1006  0.4217  0.2790
  192SOL    HW2  576   1.923   2.269   1.056  0.3557  1.0432  0.2079
  193SOL     OW  577   0.532   0.577   0.462  0.5887 -0.2414 -0.2029
  193SOL    HW1  578   0.482   0.507   0.520  0.1919 -1.7884  2.8737
  193SOL    HW2  579   0.564   0.543   0.370  1.1280  0.8710  1.4528
  194SOL     OW  580   0.310   0.870   1.272  0.4132 -0.0842  0.0300
  194SOL    HW1  581   0.229   0.816   1.237 -0.3482  1.6850  2.1400
  194SOL    HW2  582   0.340   0.944   1.206 -0.6196  1.6837 -1.1982
  195SOL     OW  583   1.029   2.898   0.565 -0.0679 -0.3458  0.0597
  195SOL    HW1  584   1.002   2.809   0.522 -0.0474 -1.8476  0.3280
  195SOL    HW2  585   1.123   2.928   0.555 -1.3203  0.1380 -0.4040
  196SOL     OW  586   0.194   1.378   1.373 -0.3149 -0.5005  0.1457
  196SOL    HW1  587   0.242   1.461   1.415 -0.8373 -0.6057  0.4093
  196SOL    HW2  588   0.187   1.299   1.444 -1.0915 -0.9145 -0.0257
  197SOL     OW  589   0.827   2.048   0.214 -0.2253  0.5759  0.1735
  197SOL    HW1  590   0.814   2.023   0.316 -0.9092  0.6898  0.6238
  197SOL    HW2  591   0.895   1.986   0.165  1.3741  1.5269 -1.6381
  198SOL     OW  592   0.320   1.246   0.229  0.4507  0.4815 -0.0161
  198SOL    HW1  593   0.216   1.226   0.232 -3.7850  0.8349 -0.1511
  198SOL    HW2  594   0.338   1.347   0.232 -0.3951 -0.0503  1.1793
  199SOL     OW  595   2.182   0.356   2.559 -0.1288  0.2326  0.0084
  199SOL    HW1  596   2.116   0.313   2.625 -1.5310  0.1696  0.9917
  199SOL    HW2  597   2.283   0.348   2.589 -2.2032  1.0850 -0.1298
  200SOL     OW  598   0.053   2.924   0.730  0.3276 -0.5162  0.6246
  200SOL    HW1  599  -0.023   2.864   0.689 -0.1859 -0.8968  1.8554
  200SOL    HW2  600   0.017   3.005   0.786  0.3185 -0.6598 -1.6066
  201SOL     OW  601   1.109   0.738   0.629  0.3710  0.1166  0.0068
  201SOL    HW1  602   1.101   0.794   0.715  1.2251 -1.1494 -0.5551
  201SOL    HW2  603   1.022   0.684   0.619  0.6338  2.9645 -0.3788
  202SOL     OW  604   0.511   1.203   1.811 -0.1250 -0.0459  0.0447
  202SOL    HW1  605   0.520   1.209   1.703  1.4769 -3.3400 -2.9360
  202SOL    HW2  606   0.562   1.121   1.847 -1.5847 -0.1151 -1.2212
  203SOL     OW  607   0.696   0.203   1.559  0.3625 -0.0421  0.1400
  203SOL    HW1  608   0.746   0.176   1.469  2.7937 -1.0266 -0.6074
  203SOL    HW2  609   0.756   0.186   1.643  0.5488  0.4390  0.6363
  204SOL     OW  610   2.059   1.881   2.948  0.3150 -0.1086 -0.4854
  204SOL    HW1  611   2.050   1.776   2.943 -2.1913  0.7404 -2.0934
  204SOL    HW2  612   2.035   1.934   2.864 -0.7101 -2.5165 -2.8358
  205SOL     OW  613   1.807   1.878   3.099  0.1561 -0.0008  0.0545
  205SOL    HW1  614   1.887   1.864   3.034  1.1646  0.0811 -1.1150
  205SOL    HW2  615   1.760   1.968   3.094  0.2908 -1.2740 -1.4484
  206SOL     OW  616   2.516   2.785   0.339  0.4644  0.5737 -1.0023
  206SOL    HW1  617   2.576   2.702   0.364 -1.0827 -0.5073 -0.6313
  206SOL    HW2  618   2.558   2.849   0.264 -1.4201  1.8702 -0.1062
  207SOL     OW  619   0.597   1.786   2.958  0.5354  0.3087  0.0002
  207SOL    HW1  620   0.695   1.748   2.956 -1.3287 -1.4886 -0.1127
  207SOL    HW2  621   0.542   1.745   3.039  1.7553  1.8912  1.4181
  208SOL     OW  622   1.170   1.575   1.413 -0.6271  0.1111  0.0383
  208SOL    HW1  623   1.162   1.630   1.320  0.1049  0.2119 -0.0129
  208SOL    HW2  624   1.260   1.589   1.460 -0.4232  1.6025 -1.5974
  209SOL     OW  625   0.273   0.951   3.002 -0.1525 -0.3385  0.1919
  209SOL    HW1  626   0.306   0.921   2.907  1.5080 -1.8950  1.9403
  209SOL    HW2  627   0.224   0.882   3.060 -0.3923 -0.3286 -1.2233
  210SOL     OW  628   1.768   0.499   1.217  0.4384  0.4217 -0.1613
  210SOL    HW1  629   1.745   0.598   1.190 -2.5082 -0.4708 -1.9608
  210SOL    HW2  630   1.861   0.467   1.188 -0.3072  1.2195 -2.5925
  211SOL     OW  631   2.128   1.054   1.592  0.5318  0.3033 -0.2889
  211SOL    HW1  632   2.189   0.992   1.650  0.5651  2.0039  1.0538
  211SOL    HW2  633   2.174   1.110   1.521 -3.6087 -0.7369 -0.0636
  212SOL     OW  634   0.023   0.982   1.480  0.0717 -0.1694 -0.0192
  212SOL    HW1  635   0.108   1.037   1.509 -1.4110 -0.0426 -0.0547
  212SOL    HW2  636   0.015   0.901   1.543  2.9476 -0.5792 -0.9695
  213SOL     OW  637   2.773   0.376   0.345  0.1735 -0.3821 -0.0192
  213SOL    HW1  638   2.820   0.308   0.274  2.6814 -3.2388  1.6527
  213SOL    HW2  639   2.707   0.448   0.311  1.3432  1.1202  2.5750
  214SOL     OW  640   2.160   0.256   2.298  0.0396  0.2771  0.3637
  214SOL    HW1  641   2.158   0.283   2.398  2.2161  1.0596  0.2108
  214SOL    HW2  642   2.165   0.154   2.281  0.4656  0.0254 -1.9556
  215SOL     OW  643   1.620   2.309   2.077  0.1836 -0.4984  0.5904
  215SOL    HW1  644   1.719   2.323   2.052 -0.5646 -1.0887 -0.4310
  215SOL    HW2  645   1.571   2.393   2.124 -1.0019  0.7002 -1.3024
  216SOL     OW  646   2.213   0.625   0.640  0.0659 -0.0636 -0.5136
  216SOL    HW1  647   2.187   0.533   0.601 -1.0889 -2.3762  2.5274
  216SOL    HW2  648   2.157   0.706   0.600 -2.6596 -0.2023  1.7754
  217SOL     OW  649   0.734   2.767   2.475  0.1269  0.2959 -0.2229
  217SOL    HW1  650   0.755   2.670   2.508 -0.3689 -0.4406  1.4953
  217SOL    HW2  651   0.718   2.762   2.373  0.9576 -3.0098 -1.0841
  218SOL     OW  652   1.936   1.463   0.074  0.1489  0.1331 -0.3348
  218SOL    HW1  653   1.838   1.492   0.037 -1.6081 -1.3501  0.5615
  218SOL    HW2  654   1.931   1.370   0.123 -1.4004 -1.3556  2.0800
  219SOL     OW  655   2.354   1.278   2.556  0.6394 -0.4958 -0.2505
  219SOL    HW1  656   2.426   1.237   2.489 -0.8496 -3.4448  1.2310
  219SOL    HW2  657   2.350   1.229   2.644 -0.4556  1.6631 -1.3595
  220SOL     OW  658   1.518   1.024   1.294 -0.2558 -0.0687 -0.4499
  220SOL    HW1  659   1.600   1.063   1.341  1.4633  0.1009 -0.1126
  220SOL    HW2  660   1.508   1.078   1.206  3.9363  2.4837 -1.1446
  221SOL     OW  661   1.348   1.024   2.190  0.1005 -0.8725  0.1460
  221SOL    HW1  662   1.290   1.016   2.105 -0.6953 -4.4939  1.7098
  221SOL    HW2  663   1.449   1.022   2.162  1.9807 -1.1970 -0.7386
  222SOL     OW  664   1.195   0.036   1.202 -0.1624 -0.1025  0.5937
  222SOL    HW1  665   1.266  -0.024   1.249 -0.6129  0.6314  1.2525
  222SOL    HW2  666   1.226   0.134   1.193  1.3441 -0.4153  1.5648
  223SOL     OW  667   2.752   0.870   2.024 -0.6068  0.6169 -0.2884
  223SOL    HW1  668   2.768   0.870   2.124 -1.2503  0.7502 -0.6941
  223SOL    HW2  669   2.823   0.928   1.977 -0.4995  0.2954 -0.0072
  224SOL     OW  670   1.564   1.014   2.751  0.8779 -0.0010  0.6196
  224SOL    HW1  671   1.610   0.954   2.681 -0.6462 -0.0702 -0.2369
  224SOL    HW2  672   1.511   1.096   2.704 -0.7977  1.2305 -3.1256
  225SOL     OW  673   2.934   2.798   2.908 -0.0922  0.2197  0.2775
  225SOL    HW1  674   2.891   2.715   2.858  2.5324  0.9724 -2.6627
  225SOL    HW2  675   2.960   2.869   2.840 -2.9722  0.2537 -1.1519
  226SOL     OW  676   2.380   1.579   2.826 -0.1151 -0.1602 -0.2631
  226SOL    HW1  677   2.437   1.565   2.745  0.4742  2.1296  0.6834
  226SOL    HW2  678   2.335   1.492   2.865 -1.0778 -2.7895 -2.5853
  227SOL     OW  679   0.846   0.162   3.015 -0.0370 -0.1022  0.3546
  227SOL    HW1  680   0.802   0.093   3.079 -1.1311  1.0404 -1.8488
  227SOL    HW2  681   0.854   0.126   2.913 -4.4521  1.7323  1.9982
  228SOL     OW  682   2.380   0.598   2.858 -0.5289 -0.2853  0.3867
  228SOL    HW1  683   2.342   0.619   2.764  2.2258  0.4453  0.8619
  228SOL    HW2  684   2.472   0.545   2.855  0.9689 -2.2075 -0.1550
  229SOL     OW  685   0.623   0.472   1.903  0.5094 -0.4671 -0.4430
  229SOL    HW1  686   0.615   0.393   1.831  0.8038 -3.1462 -0.1876
  229SOL    HW2  687   0.668   0.553   1.851  0.5266  1.5457  1.5544
  230SOL     OW  688   1.932   1.173   2.142 -0.1635 -0.1718  0.4663
  230SOL    HW1  689   1.992   1.247   2.102  1.5065 -3.6174  0.1720
  230SOL    HW2  690   1.835   1.205   2.165 -2.7095 -4.1494 -0.2031
  231SOL     OW  691   0.652   0.997   2.963  0.6936  0.2026  0.4896
  231SOL    HW1  692   0.753   1.033   2.950  1.5019  2.6797  0.0586
  231SOL    HW2  693   0.590   1.068   3.008 -1.1298  0.8449 -0.3929
  232SOL     OW  694   2.430   0.028   2.791 -0.5052  0.1020  0.1921
  232SOL    HW1  695   2.450  -0.073   2.774 -0.4126 -0.0917 -0.3871
  232SOL    HW2  696   2.481   0.085   2.721 -0.0500 -1.6490  0.7293
  233SOL     OW  697   1.716   1.288   1.138  0.4498 -0.2405 -0.1769
  233SOL    HW1  698   1.739   1.277   1.037  1.8989  2.3410  3.9416
  233SOL    HW2  699   1.749   1.212   1.203  0.6052  0.5133 -0.1647
  234SOL     OW  700   1.595   2.585   1.871  0.3134  0.1771  0.5312
  234SOL    HW1  701   1.617   2.643   1.955 -0.8670 -0.1124  1.5826
  234SOL    HW2  702   1.506   2.526   1.877 -0.3421  1.6515 -0.4956
  235SOL     OW  703   0.059   3.007   2.846 -0.1214 -0.3080  0.5001
  235SOL    HW1  704   0.104   3.055   2.765 -0.2331  0.5981 -0.4276
  235SOL    HW2  705   0.001   3.077   2.894 -0.4959  1.3607 -1.6079
  236SOL     OW  706   2.887   0.760   0.092 -0.1166  0.0391  0.7254
  236SOL    HW1  707   2.934   0.809   0.173  2.9552 -1.3901  0.3592
  236SOL    HW2  708   2.946   0.682   0.050 -0.1039 -0.8896  0.5145
  237SOL     OW  709   1.489   1.705   0.981  0.0397  0.2388 -0.4245
  237SOL    HW1  710   1.592   1.694   0.956  0.8711 -0.9275  0.3801
  237SOL    HW2  711   1.480   1.740   1.074  2.3609 -2.3945 -0.1133
  238SOL     OW  712   1.776   1.265   0.870 -0.3393 -0.5248 -0.0112
  238SOL    HW1  713   1.875   1.298   0.866 -0.9139  1.5757 -0.5179
  238SOL    HW2  714   1.720   1.328   0.810 -0.4850 -2.6127  2.7356
  239SOL     OW  715   2.047   0.234   2.761  0.0994  0.0311 -0.3763
  239SOL    HW1  716   2.104   0.189   2.833 -0.4293  2.1114 -3.3982
  239SOL    HW2  717   1.999   0.317   2.797  2.4526 -1.8954 -0.1843
  240SOL     OW  718   0.987   0.634   0.319 -0.3192 -0.5803  0.1223
  240SOL    HW1  719   0.998   0.544   0.262  0.4487 -1.3162  0.8805
  240SOL    HW2  720   0.954   0.626   0.420 -1.7469 -1.8728  1.7406
  241SOL     OW  721   0.636   0.110   0.375 -0.2209  0.0461  0.8491
  241SOL    HW1  722   0.675   0.177   0.306  0.4949 -1.2153 -2.4417
  241SOL    HW2  723   0.618   0.020   0.332  1.9826  3.9766  1.6783
  242SOL     OW  724   0.680   2.476   1.115 -0.2494 -0.2757 -0.3213
  242SOL    HW1  725   0.625   2.512   1.201 -2.3803 -2.1031  1.4936
  242SOL    HW2  726   0.764   2.533   1.096  1.2639  0.6053  0.6336
  243SOL     OW  727   1.095   0.581   2.492 -0.4414 -0.4200  0.0227
  243SOL    HW1  728   0.996   0.617   2.470 -0.8649 -1.4133  1.1914
  243SOL    HW2  729   1.104   0.519   2.572 -1.1810  3.7435  1.3913
  244SOL     OW  730   2.769   1.888   2.348 -0.3893 -0.0671 -0.3345
  244SOL    HW1  731   2.832   1.860   2.275  1.5556  1.2343  1.0798
  244SOL    HW2  732   2.703   1.813   2.381  0.3813 -3.5484  0.2803
  245SOL     OW  733   2.440   0.646   2.184 -0.7020  0.0467 -0.4433
  245SOL    HW1  734   2.470   0.719   2.250 -1.7618 -4.1086  1.4492
  245SOL    HW2  735   2.496   0.561   2.193  2.4516 -0.3890  0.3905
  246SOL     OW  736   0.221   2.911   1.669  0.0274 -0.3284  0.0572
  246SOL    HW1  737   0.162   2.892   1.584 -1.1144 -1.9531 -1.3965
  246SOL    HW2  738   0.286   2.989   1.653  1.1926 -0.6662  0.3267
  247SOL     OW  739   2.155   0.567   3.034  0.4698  0.1612 -0.3032
  247SOL    HW1  740   2.220   0.545   2.952  2.2770 -0.4618 -1.9139
  247SOL    HW2  741   2.089   0.645   3.016  0.2674  3.5165 -3.0922
  248SOL     OW  742   2.110   1.798   1.576  0.1168  0.4847  0.2535
  248SOL    HW1  743   2.170   1.761   1.654  0.2578 -1.0943  2.5106
  248SOL    HW2  744   2.007   1.804   1.602 -0.8372 -0.1505 -2.3696
  249SOL     OW  745   1.959   1.905   1.938 -0.8330 -0.1610  0.2152
  249SOL    HW1  746   1.938   1.882   1.839 -0.9097 -0.8170 -1.5667
  249SOL    HW2  747   2.041   1.968   1.947  0.5903 -1.4687 -0.0929
  250SOL     OW  748   1.114   0.741   1.901  0.0719 -0.7302 -0.1903
  250SOL    HW1  749   1.181   0.676   1.941  0.5273  0.7146 -0.6596
  250SOL    HW2  750   1.060   0.705   1.823 -0.1176  0.4069 -0.0836
  251SOL     OW  751   3.085   1.578   2.540 -0.1916  0.0184 -0.1034
  251SOL    HW1  752   3.063   1.667   2.485  2.0877  1.5305 -1.4063
  251SOL    HW2  753   2.990   1.535   2.569 -2.1140  1.6035  2.7375
  252SOL     OW  754   1.577   0.894   1.554 -0.0430 -0.6659  0.3221
  252SOL    HW1  755   1.584   0.932   1.455  0.3010  1.8700 -0.2283
  252SOL    HW2  756   1.542   0.961   1.625 -0.5677  1.6526  0.4280
  253SOL     OW  757   0.863   1.510   0.438 -0.2205  0.1486  0.4961
  253SOL    HW1  758   0.901   1.415   0.419  0.3990 -1.3008  0.5533
  253SOL    HW2  759   0.762   1.518   0.395 -1.9549 -1.5689 -0.1163
  254SOL     OW  760   2.072   2.125   1.577 -0.6391 -0.0861 -0.0192
  254SOL    HW1  761   2.027   2.059   1.508 -4.3978  0.0469 -0.0698
  254SOL    HW2  762   2.005   2.158   1.648 -0.9604  0.1365  0.0180
  255SOL     OW  763   0.108   1.173   2.930  0.3413  0.0061 -0.3202
  255SOL    HW1  764   0.167   1.257   2.897 -1.7550  1.4551  0.0094
  255SOL    HW2  765   0.165   1.093   2.954 -0.1986 -0.4283 -2.8772
  256SOL     OW  766   2.757   1.374   1.737  0.1475  0.0946 -0.5136
  256SOL    HW1  767   2.694   1.433   1.798  1.0038  1.3036 -0.8640
  256SOL    HW2  768   2.745   1.271   1.754  1.0369 -1.1832  0.2178
  257SOL     OW  769   0.846   0.160   1.771 -0.3256  0.1711  0.1460
  257SOL    HW1  770   0.918   0.236   1.752 -0.7290 -0.0809  0.2816
  257SOL    HW2  771   0.887   0.061   1.777 -1.6134  1.5112 -2.2354
  258SOL     OW  772   2.911   1.297   0.438 -0.6033 -0.0318 -0.0540
  258SOL    HW1  773   2.854   1.368   0.391 -2.2723  0.1138 -1.4722
  258SOL    HW2  774   2.966   1.323   0.528  0.4835 -1.4985  0.1827
  259SOL     OW  775   0.480   2.959   3.032 -0.1470  0.5659 -0.2405
  259SOL    HW1  776   0.425   2.893   3.089  0.0125  0.4563  0.9623
  259SOL    HW2  777   0.476   2.929   2.929  0.3719  0.6664 -0.7035
  260SOL     OW  778   2.731   0.828   2.744  0.8342 -0.2539  0.1087
  260SOL    HW1  779   2.625   0.838   2.731 -2.3899  0.2583 -0.1211
  260SOL    HW2  780   2.782   0.898   2.805  1.8012  0.9987  0.7752
  261SOL     OW  781   2.740   1.332   1.313  0.5388 -0.3440 -0.1564
  261SOL    HW1  782   2.653   1.298   1.270  3.5019 -0.0776 -0.9507
  261SOL    HW2  783   2.796   1.252   1.353 -0.9396 -1.1033 -2.2181
  262SOL     OW  784   1.437   2.998   2.003 -0.3025  0.0293  0.5976
  262SOL    HW1  785   1.454   3.078   1.936 -1.5959  2.7923 -0.1566
  262SOL    HW2  786   1.350   2.944   1.987 -0.5525  0.5635  0.3435
  263SOL     OW  787   0.851   0.719   2.348  0.4487 -0.0236 -0.0411
  263SOL    HW1  788   0.840   0.617   2.324 -1.4948  1.2405 -1.2312
  263SOL    HW2  789   0.891   0.782   2.274  0.2104 -3.6419 -2.5615
  264SOL     OW  790   2.208   0.808   0.295 -0.1791  0.0974  0.1128
  264SOL    HW1  791   2.147   0.881   0.325  0.3788 -1.7297 -2.5901
  264SOL    HW2  792   2.305   0.810   0.327 -3.8269  1.7531 -3.3527
  265SOL     OW  793   0.900   2.275   2.666 -0.2314  0.3035  0.1544
  265SOL    HW1  794   0.966   2.327   2.729  0.3985  1.2211  1.4974
  265SOL    HW2  795   0.870   2.189   2.705  0.2403 -0.2024  0.4934
  266SOL     OW  796   1.327   1.735   0.008 -0.5424 -0.1081  0.7299
  266SOL    HW1  797   1.318   1.829   0.047 -0.4775  0.2930 -0.7344
  266SOL    HW2  798   1.416   1.708  -0.036  0.4771 -0.3577 -0.0287
  267SOL     OW  799   0.968   3.052   2.364 -0.1841 -0.2964 -0.2260
  267SOL    HW1  800   0.959   3.037   2.261  0.0262 -0.1315  1.1444
  267SOL    HW2  801   0.937   3.149   2.392 -0.6134  0.4388 -0.2950
  268SOL     OW  802   0.691   1.140   1.082  0.0543  0.3758  0.6744
  268SOL    HW1  803   0.701   1.184   1.177  0.5731 -1.9884 -0.7110
  268SOL    HW2  804   0.677   1.206   1.005  1.7513  1.3506  1.4929
  269SOL     OW  805   2.389   2.478   1.539 -0.1742  0.4648  0.2299
  269SOL    HW1  806   2.467   2.411   1.545  0.2339 -0.8076 -0.0699
  269SOL    HW2  807   2.363   2.509   1.633 -1.0193  1.3038 -1.1377
  270SOL     OW  808   0.133   3.050   1.904 -0.0206  0.3678  0.1535
  270SOL    HW1  809   0.208   3.014   1.845 -0.8383 -1.0236  0.3145
  270SOL    HW2  810   0.048   2.989   1.901 -0.8645  0.2695  2.8146
  271SOL     OW  811   0.410   1.399   1.149 -0.2249 -0.4598  0.0557
  271SOL    HW1  812   0.391   1.419   1.051  0.6405  1.2242  0.0317
  271SOL    HW2  813   0.328   1.416   1.206 -0.0099 -1.5816 -0.0945
  272SOL     OW  814   1.975   2.888   1.900 -0.2761 -0.4564  0.2306
  272SOL    HW1  815   1.938   2.826   1.827  0.5464  1.7109  1.9675
  272SOL    HW2  816   2.043   2.957   1.875 -3.8469  2.6037 -0.6456
  273SOL     OW  817   1.453   1.470   2.793 -0.1282  0.6456 -0.4799
  273SOL    HW1  818   1.361   1.507   2.823  1.7168 -2.5133 -0.4044
  273SOL    HW2  819   1.496   1.402   2.860 -0.7147 -0.0070 -1.0068
  274SOL     OW  820   1.262   0.510   1.994  0.3904 -0.2969  0.0215
  274SOL    HW1  821   1.203   0.429   1.989  2.1643  0.3741 -0.6039
  274SOL    HW2  822   1.286   0.524   2.098  0.7372  2.6511  0.6333
  275SOL     OW  823   0.638   2.072   1.870 -0.3674 -0.0122 -0.1507
  275SOL    HW1  824   0.590   2.157   1.898 -0.8183  1.1251  0.4147
  275SOL    HW2  825   0.565   1.999   1.882  0.3149  1.0283  0.5515
  276SOL     OW  826   2.146   0.923   2.800  0.1736 -0.2052 -0.1564
  276SOL    HW1  827   2.098   0.873   2.721 -1.8410 -0.1891  1.8752
  276SOL    HW2  828   2.097   0.914   2.888 -0.2804  2.3052  0.5097
  277SOL     OW  829  -0.005   0.856   0.274 -0.4037 -0.1315 -0.2011
  277SOL    HW1  830   0.077   0.889   0.221  0.7199 -0.4045 -0.9971
  277SOL    HW2  831   0.028   0.776   0.331  1.1570 -1.2774 -2.3645
  278SOL     OW  832   0.250   0.288   3.074 -0.2221  0.0137  0.3481
  278SOL    HW1  833   0.330   0.221   3.072  2.1897  0.3630  0.8341
  278SOL    HW2  834   0.274   0.386   3.070 -0.3132 -1.2132 -0.2082
  279SOL     OW  835   0.148   0.108   0.912  0.1604  0.1976 -0.0252
  279SOL    HW1  836   0.129   0.038   0.987 -0.7174  1.9579  1.9192
  279SOL    HW2  837   0.235   0.088   0.863 -0.1686  1.6116  1.2596
  280SOL     OW  838   1.564   2.906   2.530  0.0873 -0.3034 -0.3366
  280SOL    HW1  839   1.657   2.944   2.558 -0.8453  1.5417 -0.6602
  280SOL    HW2  840   1.488   2.981   2.536 -0.5369  1.5914 -1.8923
  281SOL     OW  841   0.615   0.930   2.263  0.0142 -0.0606 -0.0346
  281SOL    HW1  842   0.609   0.835   2.218 -2.4183  2.3813 -0.4153
  281SOL    HW2  843   0.566   0.941   2.353  0.2328  0.8604 -1.2313
  282SOL     OW  844   1.763   2.443   0.517  0.4573  0.8703  0.3998
  282SOL    HW1  845   1.720   2.357   0.471  0.1307 -1.7363  1.0077
  282SOL    HW2  846   1.717   2.538   0.508 -0.8459  1.4020 -1.2510
  283SOL     OW  847   1.135   0.914   0.846 -0.0083 -0.2870  0.0990
  283SOL    HW1  848   1.152   0.830   0.911 -0.1807 -2.0597  1.9930
  283SOL    HW2  849   1.097   0.995   0.900 -0.1677  1.8400  0.4446
  284SOL     OW  850   2.353   2.745   2.359 -0.1179 -0.8238  0.5829
  284SOL    HW1  851   2.433   2.816   2.352  0.9320 -0.6635  1.7134
  284SOL    HW2  852   2.309   2.750   2.448 -1.9579 -2.7605  1.6684
  285SOL     OW  853   1.336   3.053   2.546 -1.1880  0.1320 -0.1294
  285SOL    HW1  854   1.318   3.067   2.440  0.6354  2.0216 -1.1334
  285SOL    HW2  855   1.253   3.083   2.597 -3.5002 -0.5781  0.4311
  286SOL     OW  856   0.463   0.411   0.759 -0.2138 -0.3127 -0.1617
  286SOL    HW1  857   0.410   0.364   0.834  2.6456  1.6215 -0.6319
  286SOL    HW2  858   0.479   0.347   0.681  0.4900  2.0854  0.5034
  287SOL     OW  859   0.120   1.317   2.539  0.1491 -0.3582 -0.0119
  287SOL    HW1  860   0.069   1.241   2.589 -0.2623  1.0236  2.0775
  287SOL    HW2  861   0.081   1.406   2.555 -1.2001 -1.9577  1.0328
  288SOL     OW  862   1.563   2.675   1.577  0.4208  0.3747 -0.6392
  288SOL    HW1  863   1.545   2.637   1.671 -0.4739 -4.4152  2.6012
  288SOL    HW2  864   1.661   2.673   1.545 -1.7280  1.7099 -0.9227
  289SOL     OW  865   0.577   2.738   0.804 -0.5769 -0.2134  0.1457
  289SOL    HW1  866   0.647   2.784   0.747 -2.0640 -1.8479 -0.6758
  289SOL    HW2  867   0.576   2.776   0.903 -0.9228  1.5328 -0.6453
  290SOL     OW  868   2.825   1.091   1.711 -0.2844  0.5803 -0.3635
  290SOL    HW1  869   2.770   1.027   1.653  2.2793 -2.9596  0.0443
  290SOL    HW2  870   2.873   1.046   1.794  2.3151  0.7341  1.2606
  291SOL     OW  871   1.958   0.085   0.075  0.1680  0.0330  0.7354
  291SOL    HW1  872   1.990   0.044   0.168  0.7514 -0.1823 -0.6213
  291SOL    HW2  873   1.995   0.184   0.073 -0.4344  1.6205 -0.0928
  292SOL     OW  874   2.974   1.191   3.082 -0.1920 -0.4572 -0.2176
  292SOL    HW1  875   2.890   1.230   3.038  1.6860 -0.7938  2.0578
  292SOL    HW2  876   3.062   1.199   3.028 -0.6888 -2.9074  0.9605
  293SOL     OW  877   0.570   2.128   0.145  0.1544  0.5282 -0.4893
  293SOL    HW1  878   0.545   2.180   0.232  2.3971 -0.3434 -0.8696
  293SOL    HW2  879   0.673   2.095   0.147  3.4628 -2.9402  0.3976
  294SOL     OW  880   1.757   2.243   1.757  0.1986  0.0208 -0.1143
  294SOL    HW1  881   1.821   2.316   1.790  1.2469 -0.9132  0.0551
  294SOL    HW2  882   1.719   2.267   1.666  0.2911 -3.9893  2.0655
  295SOL     OW  883   1.011   1.031   0.521 -0.7666 -0.3442  0.1053
  295SOL    HW1  884   1.076   1.025   0.598  2.4706 -0.2163  1.2428
  295SOL    HW2  885   0.911   1.041   0.555 -1.4508 -1.5473  0.4039
  296SOL     OW  886   1.256   2.114   2.523 -0.4015 -0.2035  0.0100
  296SOL    HW1  887   1.274   2.131   2.419  0.9879  0.9564 -1.0229
  296SOL    HW2  888   1.256   2.017   2.548 -3.7966  0.3817  0.6646
  297SOL     OW  889   1.451   0.603   1.381 -0.4384  0.8644 -0.6392
  297SOL    HW1  890   1.423   0.505   1.387 -1.7525  0.4377  0.1339
  297SOL    HW2  891   1.540   0.610   1.435 -1.6125  2.6113 -2.1011
  298SOL     OW  892   0.484   1.386   2.964 -0.3327  0.4843  0.3043
  298SOL    HW1  893   0.456   1.303   3.019 -0.1657  2.4251  1.9863
  298SOL    HW2  894   0.548   1.350   2.884  3.0513  1.9965 -0.5165
  299SOL     OW  895   0.511   0.242   1.370 -0.0488 -0.1614 -0.6139
  299SOL    HW1  896   0.476   0.331   1.340  2.4830  0.4468  1.0325
  299SOL    HW2  897   0.576   0.248   1.453 -1.9264  2.0743  2.0572
  300SOL     OW  898   1.202   1.834   2.837 -0.3372  0.4015 -0.5547
  300SOL    HW1  899   1.201   1.736   2.875  1.3067 -2.9704  1.1318
  300SOL    HW2  900   1.282   1.887   2.871  0.4621  0.5227 -0.9861
  301SOL     OW  901   0.481   0.279   0.528  0.0258  0.6170 -0.0614
  301SOL    HW1  902   0.377   0.293   0.512 -1.0691  0.1080  2.1808
  301SOL    HW2  903   0.540   0.231   0.455  1.1926  1.5699  0.8976
  302SOL     OW  904   1.209   2.383   2.312 -0.3973 -0.0171  0.5262
  302SOL    HW1  905   1.130   2.413   2.371  1.5067 -2.2536 -0.2450
  302SOL    HW2  906   1.221   2.279   2.295  0.8223 -2.5982  0.0854
  303SOL     OW  907   0.966   2.334   0.828 -0.2412 -0.0883 -0.1715
  303SOL    HW1  908   1.040   2.353   0.755  2.2780  1.6014  0.9537
  303SOL    HW2  909   0.983   2.394   0.912  2.1854 -0.6828  0.1820
  304SOL     OW  910   0.146   2.035   0.636 -0.2008 -0.0064 -0.3829
  304SOL    HW1  911   0.154   1.960   0.566 -2.2444 -0.3424 -1.8328
  304SOL    HW2  912   0.068   2.097   0.608  0.2726 -0.3521 -0.8092
  305SOL     OW  913   1.642   0.927   0.574  0.1519  0.2362 -0.1527
  305SOL    HW1  914   1.586   0.895   0.491  0.1991 -3.2623  0.1495
  305SOL    HW2  915   1.688   0.849   0.629 -0.0194 -1.2137  1.6329
  306SOL     OW  916   0.441   1.880   1.933  0.1835  0.1360 -0.1856
  306SOL    HW1  917   0.508   1.804   1.896  2.4353 -1.9089  0.0977
  306SOL    HW2  918   0.442   1.880   2.042 -2.4088  0.0444  1.0551
  307SOL     OW  919   3.082   0.917   2.519  0.1200  0.1824 -0.2937
  307SOL    HW1  920   3.083   0.996   2.582 -0.7512 -1.3433 -1.0909
  307SOL    HW2  921   3.021   0.837   2.541  2.3625  1.4134  1.1659
  308SOL     OW  922   1.553   2.676   2.842  0.2677  0.1524 -0.1048
  308SOL    HW1  923   1.542   2.599   2.771  0.0827  0.5351  0.1237
  308SOL    HW2  924   1.515   2.650   2.930  0.5989  0.4083 -0.1378
  309SOL     OW  925   1.214   0.067   1.765 -0.1754  0.0724  0.0388
  309SOL    HW1  926   1.317   0.070   1.765 -0.2999 -0.1936 -0.5838
  309SOL    HW2  927   1.184   0.096   1.672  1.6541  1.4318  0.0877
  310SOL     OW  928   1.499   2.541   0.656 -0.5487 -0.6769 -0.3934
  310SOL    HW1  929   1.472   2.574   0.751  2.8648  0.3643  1.4702
  310SOL    HW2  930   1.564   2.604   0.609  1.9613 -1.6007 -1.5029
  311SOL     OW  931   1.159   0.946   1.586 -0.3086  0.1492  0.3132
  311SOL    HW1  932   1.223   0.860   1.587  2.0229 -1.3550 -1.6069
  311SOL    HW2  933   1.198   1.025   1.531  0.2483  1.3615  1.6820
  312SOL     OW  934   1.633   0.674   0.975 -0.5034  0.5113  0.2017
  312SOL    HW1  935   1.617   0.772   0.951 -0.5468  0.1836  1.1120
  312SOL    HW2  936   1.556   0.630   1.024 -0.0779 -0.4925  1.9297
  313SOL     OW  937   1.588   1.400   0.699  0.0968  0.2181  0.1984
  313SOL    HW1  938   1.506   1.455   0.738 -3.3680 -0.4079  0.3040
  313SOL    HW2  939   1.563   1.316   0.642 -1.5293  0.2262  1.7914
  314SOL     OW  940   2.964   0.032   3.034 -0.0451  0.4862 -0.2259
  314SOL    HW1  941   2.962   0.032   3.138  2.0148  0.7247 -0.7375
  314SOL    HW2  942   2.886  -0.021   2.994  0.1972  0.9531 -0.1023
  315SOL     OW  943   1.221   0.205   2.810  0.4849  0.3290  0.2308
  315SOL    HW1  944   1.177   0.131   2.747  0.5337  0.8273 -1.3024
  315SOL    HW2  945   1.223   0.177   2.907 -1.5339  0.5247  1.7968
  316SOL     OW  946   1.709   2.064   0.851  0.1584 -0.7280 -0.3104
  316SOL    HW1  947   1.656   2.052   0.942  0.0086  1.2210 -1.1745
  316SOL    HW2  948   1.717   2.164   0.823  2.3678 -1.4815  1.6572
  317SOL     OW  949   1.128   0.680   2.888  0.0564 -0.2534  0.1143
  317SOL    HW1  950   1.058   0.728   2.948  0.6112 -2.4033 -2.2011
  317SOL    HW2  951   1.080   0.600   2.836  1.2074 -0.8496 -2.3526
  318SOL     OW  952   1.330   3.066   2.269  0.2619 -0.0484  0.7679
  318SOL    HW1  953   1.336   3.167   2.230 -1.0226  1.5984 -2.0604
  318SOL    HW2  954   1.369   2.996   2.202  0.3364  0.8558 -0.2823
  319SOL     OW  955   0.679   2.464   2.940  0.8455 -0.0046 -0.2000
  319SOL    HW1  956   0.609   2.418   3.004  1.2739 -1.1965  0.5225
  319SOL    HW2  957   0.779   2.435   2.961  2.5477  1.5917 -0.4453
  320SOL     OW  958   1.705   2.206   0.375  0.2692  0.3367  0.2878
  320SOL    HW1  959   1.792   2.154   0.392 -1.4512  2.1845  1.3587
  320SOL    HW2  960   1.618   2.159   0.417 -4.0997 -1.1579 -0.3272
  321SOL     OW  961   1.676   2.703   0.478 -0.1324  1.0967 -0.0838
  321SOL    HW1  962   1.603   2.759   0.435  2.3718  0.8067 -4.4953
  321SOL    HW2  963   1.768   2.740   0.456 -0.5097  1.3146 -0.3066
  322SOL     OW  964   2.555   1.143   2.404  0.4026  0.7345  0.9168
  322SOL    HW1  965   2.645   1.166   2.451  0.8907 -0.7375  3.5187
  322SOL    HW2  966   2.551   1.043   2.381  0.6370 -0.0423 -1.4403
  323SOL     OW  967   1.137   2.631   0.835 -0.1168 -0.2505 -0.2295
  323SOL    HW1  968   1.136   2.578   0.745 -0.9195 -0.0107  0.2772
  323SOL    HW2  969   1.108   2.730   0.826 -0.4682 -1.1174 -0.5021
  324SOL     OW  970   0.247   2.535   2.532 -0.2423 -0.4073  0.2153
  324SOL    HW1  971   0.303   2.480   2.599 -0.4140  3.2353  0.3634
  324SOL    HW2  972   0.149   2.547   2.554  1.9176 -2.5564 -1.7743
  325SOL     OW  973   1.261   3.033   0.475  0.7454 -0.0851  0.0496
  325SOL    HW1  974   1.249   3.072   0.379 -0.2951 -0.7733  1.6683
  325SOL    HW2  975   1.299   3.102   0.543 -1.7870  0.3863  1.0461
  326SOL     OW  976   2.430   0.776   3.090 -0.2343  0.1354 -0.0885
  326SOL    HW1  977   2.386   0.726   3.011  0.1775  1.3806  0.1391
  326SOL    HW2  978   2.498   0.718   3.144 -0.7264 -0.0334  1.1327
  327SOL     OW  979   2.842   0.370   0.616 -0.3233  0.4575  0.6936
  327SOL    HW1  980   2.814   0.372   0.514  0.7173 -0.9877  0.5756
  327SOL    HW2  981   2.804   0.286   0.663 -0.6737 -1.2548  1.8712
  328SOL     OW  982   2.540   0.586   0.387  0.2609 -0.1198 -0.2155
  328SOL    HW1  983   2.492   0.667   0.436 -0.2349 -1.8215 -1.5931
  328SOL    HW2  984   2.550   0.511   0.461 -1.8003  2.0296  1.4970
  329SOL     OW  985   2.976   2.976   2.150 -0.0519 -0.3690  0.4009
  329SOL    HW1  986   3.045   2.914   2.203  0.1263  1.2729  0.2411
  329SOL    HW2  987   3.016   3.069   2.128 -1.4273 -0.1566  4.0104
  330SOL     OW  988   0.575   0.152   1.856 -0.1541  0.0013  0.2913
  330SOL    HW1  989   0.676   0.156   1.827 -0.1419  1.7281 -1.3036
  330SOL    HW2  990   0.556   0.094   1.941 -3.1417  1.4903  0.4837
  331SOL     OW  991   2.967   1.923   1.169  0.5827 -0.5272 -0.1985
  331SOL    HW1  992   2.981   1.998   1.098  0.8641 -0.2139 -1.1246
  331SOL    HW2  993   2.888   1.936   1.233  0.0703  1.2458 -3.3521
  332SOL     OW  994   0.448   1.140   0.020  0.2757  0.0993  0.2224
  332SOL    HW1  995   0.375   1.068  -0.005 -0.9874  0.2412  0.2576
  332SOL    HW2  996   0.421   1.193   0.105 -1.8796 -1.1344  0.7057
  333SOL     OW  997   2.901   1.064   0.290  0.2136 -0.0898  0.5520
  333SOL    HW1  998   2.924   1.134   0.361  0.9057 -0.8775  1.2304
  333SOL    HW2  999   2.979   0.993   0.278 -1.1706 -2.6136  0.6639
  334SOL     OW 1000   1.719   1.237   1.826  0.2686 -0.1188  0.0134
  334SOL    HW1 1001   1.812   1.196   1.796  0.9374 -1.7298  0.6782
  334SOL    HW2 1002   1.729   1.289   1.917  2.6438 -1.3689 -1.1699
  335SOL     OW 1003   1.955   2.778   2.602  0.2203  0.3232 -0.2488
  335SOL    HW1 1004   1.886   2.713   2.636  0.3019 -0.5546 -1.1403
  335SOL    HW2 1005   2.002   2.831   2.675  2.4675 -0.5677  0.7055
  336SOL     OW 1006   0.270   0.106   2.814  0.3362  0.5475 -0.5600
  336SOL    HW1 1007   0.330   0.093   2.897  1.3092  1.0645  2.5642
  336SOL    HW2 1008   0.202   0.182   2.831 -1.6223  0.1252 -1.3744
  337SOL     OW 1009   0.933   2.773   2.819 -0.1335 -0.0971  0.2248
  337SOL    HW1 1010   0.924   2.733   2.916 -0.1597 -0.7335  1.2297
  337SOL    HW2 1011   1.027   2.759   2.775 -0.7842 -2.3858  1.0907
  338SOL     OW 1012   0.023   1.042   0.649 -0.2318  0.3444 -0.2158
  338SOL    HW1 1013  -0.072   1.022   0.678  0.4823  0.8173 -1.0752
  338SOL    HW2 1014   0.027   1.145   0.630 -3.5886  1.1307  1.3342
  339SOL     OW 1015   1.708   1.351   2.086  0.0814  0.0226  0.0077
  339SOL    HW1 1016   1.606   1.364   2.101 -0.5452 -1.6126 -1.1662
  339SOL    HW2 1017   1.761   1.441   2.105  0.3481 -1.5914  1.7913
  340SOL     OW 1018   2.336   0.727   1.188 -0.1267  0.6251 -0.2632
  340SOL    HW1 1019   2.248   0.780   1.161 -1.5098  2.6603 -2.0441
  340SOL    HW2 1020   2.357   0.654   1.120 -0.5715  2.9003 -1.9778
  341SOL     OW 1021   1.942   2.082   0.341 -0.0700 -0.0420 -0.3404
  341SOL    HW1 1022   1.950   2.144   0.259  2.8262 -1.5793 -0.4959
  341SOL    HW2 1023   2.031   2.086   0.397  1.7317 -1.4243  0.2919
  342SOL     OW 1024   2.229   2.091   2.719  0.2160  0.1753 -0.0072
  342SOL    HW1 1025   2.272   1.998   2.738  1.5837 -0.5429  0.3428
  342SOL    HW2 1026   2.125   2.083   2.727  0.2382  0.4946 -0.1032
  343SOL     OW 1027   0.398   0.879   2.789 -0.6772  0.2634 -0.1292
  343SOL    HW1 1028   0.399   0.901   2.692 -0.5349  3.1670  2.7496
  343SOL    HW2 1029   0.490   0.864   2.830  1.5832 -0.1220  0.0261
  344SOL     OW 1030   1.957   1.393   0.381 -0.3095  0.1584  0.0575
  344SOL    HW1 1031   1.930   1.318   0.315 -1.3169 -0.3681  2.1276
  344SOL    HW2 1032   1.869   1.439   0.414 -0.9450  2.5999  0.3001
  345SOL     OW 1033   1.413   2.281   2.880  0.0505 -0.6423  0.2418
  345SOL    HW1 1034   1.329   2.230   2.847  1.7012 -0.4255  0.7982
  345SOL    HW2 1035   1.500   2.246   2.834 -0.0339  0.7063  2.0512
  346SOL     OW 1036   2.375   0.919   1.390  0.4627 -0.0229 -0.1696
  346SOL    HW1 1037   2.328   1.012   1.385  1.2811 -0.9279  3.0262
  346SOL    HW2 1038   2.331   0.852   1.322  0.8824 -0.1457 -0.0540
  347SOL     OW 1039   0.740   2.779   1.461  0.3580  0.1224  0.6076
  347SOL    HW1 1040   0.733   2.729   1.550  1.4041 -0.3119 -0.3403
  347SOL    HW2 1041   0.678   2.859   1.459  1.0758  0.9938 -0.5223
  348SOL     OW 1042   0.168   0.659   2.843  0.2349  0.3040 -0.0023
  348SOL    HW1 1043   0.071   0.691   2.817  3.5078 -0.7243  1.8564
  348SOL    HW2 1044   0.236   0.727   2.823  1.3353 -1.7735 -2.6971
  349SOL     OW 1045   1.842   0.434   2.779  0.5760  0.1533 -0.2565
  349SOL    HW1 1046   1.844   0.506   2.706 -1.5120 -1.3909  0.4657
  349SOL    HW2 1047   1.827   0.464   2.877 -1.7992  1.8974 -1.5399
  350SOL     OW 1048   1.597   0.421   0.369  0.8955  0.0577 -0.2450
  350SOL    HW1 1049   1.638   0.454   0.459  1.1906 -2.9825 -1.3453
  350SOL    HW2 1050   1.573   0.504   0.310  0.7542 -1.2811 -0.6436
  351SOL     OW 1051   0.986   0.859   2.143  0.1819  0.2378  0.9403
  351SOL    HW1 1052   0.951   0.951   2.108 -1.7063  1.7647 -2.2518
  351SOL    HW2 1053   1.018   0.802   2.062 -0.6187  1.6879 -0.4453
  352SOL     OW 1054   2.056   1.303   0.633 -0.0192  0.6265 -0.6024
  352SOL    HW1 1055   2.014   1.360   0.551  0.4029  1.8282 -4.2974
  352SOL    HW2 1056   2.152   1.330   0.658 -2.5198  0.7198 -0.3757
  353SOL     OW 1057   2.181   2.889   1.055  0.1152 -0.5384 -0.4664
  353SOL    HW1 1058   2.216   2.813   1.117  2.7995  0.6452  1.0206
  353SOL    HW2 1059   2.083   2.872   1.022 -1.6893 -0.7298  1.6934
  354SOL     OW 1060   0.256   1.395   2.837  0.5870  0.1535 -0.1198
  354SOL    HW1 1061   0.248   1.485   2.779 -0.9016  1.5058 -0.1347
  354SOL    HW2 1062   0.346   1.399   2.890 -1.7281  2.9765 -0.5843
  355SOL     OW 1063   0.488   1.497   0.499 -0.0833  0.4635  0.1475
  355SOL    HW1 1064   0.485   1.558   0.583 -0.5762  0.4254  0.7184
  355SOL    HW2 1065   0.543   1.410   0.511 -0.2074  0.5462 -1.3219
  356SOL     OW 1066   0.864   0.251   2.063 -1.0337 -0.3856 -0.5811
  356SOL    HW1 1067   0.966   0.241   2.043  2.2716 -0.3499  2.6928
  356SOL    HW2 1068   0.811   0.212   1.987 -0.2333  2.3384  0.2622
  357SOL     OW 1069   0.971   1.288   0.393 -0.0719  0.2955 -0.2034
  357SOL    HW1 1070   0.979   1.249   0.297 -1.3303  2.2644 -1.9286
  357SOL    HW2 1071   0.986   1.220   0.468 -1.7198  0.3898  0.7466
  358SOL     OW 1072   1.708   1.499   0.469  0.0249 -0.6960 -0.5496
  358SOL    HW1 1073   1.668   1.462   0.557  0.9690  1.0131  2.0231
  358SOL    HW2 1074   1.636   1.506   0.396 -0.9249 -0.9060  0.8640
  359SOL     OW 1075   1.590   2.728   0.106 -0.1866 -0.3754  0.5776
  359SOL    HW1 1076   1.554   2.628   0.101  1.1722 -1.0084 -1.5113
  359SOL    HW2 1077   1.519   2.798   0.113 -1.8100 -3.0868 -1.1234
  360SOL     OW 1078   0.887   0.586   0.582 -0.2494 -0.7215  0.0394
  360SOL    HW1 1079   0.790   0.607   0.601  2.5212 -1.6650  2.5413
  360SOL    HW2 1080   0.901   0.483   0.577 -1.1645 -0.0465 -0.3843
  361SOL     OW 1081   1.199   1.356   0.733  0.1491 -0.3072  0.4701
  361SOL    HW1 1082   1.223   1.385   0.831  1.1208  0.1813  3.4491
  361SOL    HW2 1083   1.107   1.393   0.707  0.3640 -1.1480  2.7658
  362SOL     OW 1084   1.344   1.867   0.808  0.1225  0.1556  0.2478
  362SOL    HW1 1085   1.372   1.805   0.885  0.0007  0.1955 -1.6555
  362SOL    HW2 1086   1.427   1.892   0.745 -0.1533 -0.1654 -1.9016
  363SOL     OW 1087   1.208   1.300   2.014 -0.2374 -0.2387 -0.3021
  363SOL    HW1 1088   1.286   1.314   2.081 -0.4948 -1.6363  1.5158
  363SOL    HW2 1089   1.182   1.387   1.960  0.4108  0.6040  1.6844
  364SOL     OW 1090   0.493   2.306   1.955 -0.1485  0.2032  0.1870
  364SOL    HW1 1091   0.399   2.358   1.959 -0.5471 -0.5304 -2.9049
  364SOL    HW2 1092   0.562   2.357   1.899 -0.8802 -2.3329 -0.2455
  365SOL     OW 1093   0.996   1.861   1.440 -0.2228  0.2704  0.1056
  365SOL    HW1 1094   0.902   1.880   1.405  0.9082  0.3607  1.8210
  365SOL    HW2 1095   1.024   1.761   1.432 -1.7441 -1.0812 -1.5182
  366SOL     OW 1096   2.746   2.072   0.460 -0.0661  0.0886 -0.7810
  366SOL    HW1 1097   2.644   2.059   0.436 -2.2236  1.7413 -0.2369
  366SOL    HW2 1098   2.804   2.010   0.403 -0.4747  2.3744 -0.7072
  367SOL     OW 1099   0.918   1.131   0.164 -0.1069 -0.2536 -0.9256
  367SOL    HW1 1100   0.887   1.036   0.199  1.5754  0.1404  0.9937
  367SOL    HW2 1101   0.963   1.136   0.071  1.0291 -1.6047 -0.1363
  368SOL     OW 1102   1.461   0.557   0.691 -0.5666 -0.7098  0.2927
  368SOL    HW1 1103   1.410   0.589   0.601  1.7532  1.1692 -1.1001
  368SOL    HW2 1104   1.528   0.627   0.724 -1.6240  1.0698 -0.9545
  369SOL     OW 1105   0.210   1.715   0.047  0.4416  0.1692  0.2025
  369SOL    HW1 1106   0.246   1.800   0.092 -0.9155  0.9052 -1.9627
  369SOL    HW2 1107   0.122   1.680   0.092 -1.3018 -0.6943  0.3377
  370SOL     OW 1108   0.454   2.076   1.033  0.5672  0.0950 -0.0607
  370SOL    HW1 1109   0.465   2.178   1.015  1.7221 -1.1258 -1.5651
  370SOL    HW2 1110   0.361   2.041   0.994 -1.6473  0.3323 -0.5236
  371SOL     OW 1111   2.894   2.181   2.681  0.4191 -0.0731 -0.4069
  371SOL    HW1 1112   2.846   2.126   2.756 -0.5550 -2.0986 -1.5650
  371SOL    HW2 1113   2.984   2.218   2.707  1.1830  0.8870 -0.9038
  372SOL     OW 1114   1.113   1.981   1.128  0.7338 -0.3121  0.6086
  372SOL    HW1 1115   1.019   2.011   1.080  0.4370 -0.1535 -1.3706
  372SOL    HW2 1116   1.168   2.067   1.153  1.4777  0.1031  1.1419
  373SOL     OW 1117   1.989   2.028   0.856 -0.3759 -0.4669  0.1211
  373SOL    HW1 1118   2.043   2.035   0.944  1.5950 -3.4954  0.4049
  373SOL    HW2 1119   1.888   2.037   0.870 -1.5933 -2.3192  1.2312
  374SOL     OW 1120   1.759   0.479   0.576  0.2682  0.1042  0.2768
  374SOL    HW1 1121   1.794   0.410   0.647 -0.1618 -1.4130 -3.0999
  374SOL    HW2 1122   1.816   0.477   0.496 -0.1630 -0.0353  1.3176
  375SOL     OW 1123   2.406   2.189   1.115  0.5619  0.6225  0.3898
  375SOL    HW1 1124   2.468   2.170   1.035 -0.5916 -1.2609  1.1433
  375SOL    HW2 1125   2.445   2.168   1.210  0.7947 -2.4045  1.1373
  376SOL     OW 1126   3.021   0.581   1.465  0.3031 -0.0524  0.3677
  376SOL    HW1 1127   3.090   0.640   1.520 -1.6516  0.2538  2.8119
  376SOL    HW2 1128   2.922   0.610   1.482  0.4113 -3.2444  1.8890
  377SOL     OW 1129   2.243   2.847   0.355 -0.3741 -0.7254  0.5316
  377SOL    HW1 1130   2.228   2.946   0.381  0.6945 -1.4555 -3.5853
  377SOL    HW2 1131   2.339   2.814   0.363 -0.3558  1.2011  1.0410
  378SOL     OW 1132   1.841   1.798   2.660  0.1891 -0.0846 -0.4020
  378SOL    HW1 1133   1.746   1.802   2.628  0.0712 -1.7104  1.0809
  378SOL    HW2 1134   1.862   1.710   2.702  1.9953  3.5176 -2.0077
  379SOL     OW 1135   0.866   0.121   2.750 -0.2574  0.1171  0.0862
  379SOL    HW1 1136   0.804   0.042   2.710 -3.7686 -1.6421 -2.3854
  379SOL    HW2 1137   0.866   0.204   2.686 -1.1480  0.0085  0.2382
  380SOL     OW 1138   1.517   1.175   0.564  0.0701 -0.7840  0.2342
  380SOL    HW1 1139   1.418   1.167   0.580 -0.1056 -1.5431 -2.0109
  380SOL    HW2 1140   1.565   1.084   0.571 -1.1140  2.5369 -1.8773
  381SOL     OW 1141   1.334   1.166   1.466 -0.2032  0.3627  0.2635
  381SOL    HW1 1142   1.377   1.171   1.370  0.5933  0.2420  2.0993
  381SOL    HW2 1143   1.404   1.162   1.540 -1.9395  1.8988 -0.0738
  382SOL     OW 1144   1.794   0.870   0.207 -0.4421  0.6601  0.3071
  382SOL    HW1 1145   1.853   0.847   0.121 -0.6554  1.5810 -1.3776
  382SOL    HW2 1146   1.840   0.853   0.301 -1.7076  0.6924  1.4853
  383SOL     OW 1147   2.642   1.039   1.476 -0.0349 -0.0572 -0.5284
  383SOL    HW1 1148   2.545   1.019   1.452  0.2460  0.0379 -1.1375
  383SOL    HW2 1149   2.707   0.997   1.401 -0.6991  0.3589 -2.2533
  384SOL     OW 1150   0.941   2.282   0.135  0.1790  0.0634 -0.0593
  384SOL    HW1 1151   0.885   2.366   0.169 -2.0604  0.6442  1.1076
  384SOL    HW2 1152   0.897   2.194   0.161  0.2147  1.8820  1.5918
  385SOL     OW 1153   3.001   2.029   1.750  0.2256  0.0304 -0.4683
  385SOL    HW1 1154   3.078   2.095   1.718 -0.0603  2.0230 -1.1417
  385SOL    HW2 1155   3.015   1.927   1.738 -3.9999 -2.2959  1.3967
  386SOL     OW 1156   0.458   1.139   0.449 -0.2308 -0.5042 -0.3132
  386SOL    HW1 1157   0.481   1.043   0.469 -3.0145 -1.2578 -0.8794
  386SOL    HW2 1158   0.412   1.158   0.356  3.2007  1.6012  0.4053
  387SOL     OW 1159   1.004   0.364   1.646  0.4273  0.4024 -0.8205
  387SOL    HW1 1160   1.063   0.444   1.622 -2.4389 -2.7151 -1.9651
  387SOL    HW2 1161   0.974   0.312   1.564 -2.7550  0.1950 -0.6335
  388SOL     OW 1162   1.208   2.651   1.769 -0.4683  0.5845 -0.2830
  388SOL    HW1 1163   1.235   2.629   1.671  0.8503 -0.7502  1.9071
  388SOL    HW2 1164   1.260   2.598   1.840  1.0957 -2.6243 -0.4963
  389SOL     OW 1165   0.202   3.061   1.134  0.1491  0.2425  0.6352
  389SOL    HW1 1166   0.138   3.053   1.219  0.8969  1.0299  1.7398
  389SOL    HW2 1167   0.251   2.970   1.120 -2.0844 -1.6293 -2.3018
  390SOL     OW 1168   1.053   0.949   1.264  0.1357  0.0880  0.8690
  390SOL    HW1 1169   1.143   0.910   1.296 -0.7347  0.4839  1.8691
  390SOL    HW2 1170   0.995   1.002   1.333 -0.7584  0.9540  2.6050
  391SOL     OW 1171   2.067   1.178   0.988  0.7349  0.2442 -0.2105
  391SOL    HW1 1172   1.984   1.121   1.019  2.5103  1.5828 -1.4327
  391SOL    HW2 1173   2.145   1.132   0.940  1.3810  0.0576 -2.0933
  392SOL     OW 1174   0.898   2.650   3.074 -0.5782 -0.0151  0.0591
  392SOL    HW1 1175   0.814   2.678   3.123 -0.9318  2.3411  1.4381
  392SOL    HW2 1176   0.984   2.676   3.126  0.6899  0.8765 -0.9893
  393SOL     OW 1177   0.416   0.479   2.077 -0.7834 -0.4713 -0.0915
  393SOL    HW1 1178   0.339   0.421   2.041 -0.6627  0.4707 -3.3378
  393SOL    HW2 1179   0.498   0.478   2.013 -0.6127 -3.8265 -1.3606
  394SOL     OW 1180   2.993   1.785   2.764  0.6784 -0.5683 -0.2921
  394SOL    HW1 1181   3.070   1.821   2.826  1.5926 -1.5455 -0.7721
  394SOL    HW2 1182   3.011   1.799   2.666 -2.2542 -0.7827  0.0192
  395SOL     OW 1183   1.570   1.928   0.676  0.4656 -0.0078 -0.2048
  395SOL    HW1 1184   1.631   1.856   0.629 -0.2950  0.7196 -1.8164
  395SOL    HW2 1185   1.616   1.993   0.748 -2.8414  2.3601  0.7603
  396SOL     OW 1186   2.771   1.976   1.341 -0.3642 -0.1186 -0.0756
  396SOL    HW1 1187   2.756   2.017   1.436 -1.3022 -0.7867 -0.5993
  396SOL    HW2 1188   2.686   1.935   1.304 -0.5391 -1.4716  2.2796
  397SOL     OW 1189   1.032   2.106   0.622  0.0128  0.3204  0.0631
  397SOL    HW1 1190   0.956   2.044   0.582  1.5225 -0.7064 -2.4252
  397SOL    HW2 1191   0.993   2.185   0.667  0.5638  1.8524 -1.1721
  398SOL     OW 1192   2.241   0.035   0.993  0.1737 -0.5507 -0.3650
  398SOL    HW1 1193   2.238  -0.062   1.019  0.8761  3.0840 -0.4398
  398SOL    HW2 1194   2.164   0.093   1.040 -0.8296  0.2349 -0.0005
  399SOL     OW 1195   2.856   2.560   2.769 -0.0298 -0.1854  0.9155
  399SOL    HW1 1196   2.811   2.509   2.690 -0.2828 -3.3797 -2.1428
  399SOL    HW2 1197   2.837   2.519   2.864  1.3149 -1.4745 -0.2442
  400SOL     OW 1198   0.752   1.573   1.272 -0.0725 -0.5339 -0.1630
  400SOL    HW1 1199   0.715   1.608   1.365 -0.1351 -0.6394 -1.1662
  400SOL    HW2 1200   0.752   1.639   1.195  3.0142  0.3526  2.5102
  401SOL     OW 1201   1.842   0.168   1.299 -0.5673 -0.1756  0.0636
  401SOL    HW1 1202   1.898   0.182   1.386  0.0943 -1.0755 -0.4059
  401SOL    HW2 1203   1.741   0.164   1.312  2.6894  1.6662  0.7754
  402SOL     OW 1204   1.335   0.153   3.085 -0.1813 -0.2496  0.1105
  402SOL    HW1 1205   1.412   0.141   3.014  1.9177 -1.1139 -1.7284
  402SOL    HW2 1206   1.308   0.252   3.106 -0.5054 -0.2591 -1.3411
  403SOL     OW 1207   2.302   1.850   0.910  0.2736  0.1111 -0.1971
  403SOL    HW1 1208   2.399   1.828   0.945 -2.7518 -0.8590  2.5153
  403SOL    HW2 1209   2.261   1.931   0.961  0.6071  1.7255 -1.4005
  404SOL     OW 1210   0.201   2.479   2.875  0.0184 -0.1719  0.3845
  404SOL    HW1 1211   0.299   2.448   2.845 -1.9902 -1.7840  1.4705
  404SOL    HW2 1212   0.190   2.585   2.865 -0.2118  0.2510  0.5965
  405SOL     OW 1213   0.202   2.524   0.597 -1.2324  0.3188  0.5149
  405SOL    HW1 1214   0.152   2.509   0.504 -1.7286 -1.9208  0.5322
  405SOL    HW2 1215   0.292   2.582   0.599  2.4460 -0.3010  0.5982
  406SOL     OW 1216   0.048   1.486   3.009  0.2972 -0.3660 -0.7720
  406SOL    HW1 1217   0.135   1.456   2.967 -0.5293 -2.5614 -2.4863
  406SOL    HW2 1218   0.052   1.491   3.115  1.0383  0.0475  3.9581
  407SOL     OW 1219   1.557   0.929   0.892  0.1930  0.0585 -0.2405
  407SOL    HW1 1220   1.528   0.925   0.794  0.7345 -1.8996  1.2411
  407SOL    HW2 1221   1.503   0.997   0.949  2.0410  1.0406  1.8232
  408SOL     OW 1222   1.590   2.376   1.010  0.3061 -1.0942  0.4080
  408SOL    HW1 1223   1.625   2.386   0.910 -1.4315 -0.9554 -1.8596
  408SOL    HW2 1224   1.640   2.433   1.072 -2.7741  0.1773 -1.5699
  409SOL     OW 1225   0.534   0.849   0.768 -0.1588  0.6561  0.2627
  409SOL    HW1 1226   0.502   0.875   0.670  0.9672  1.5029 -0.1405
  409SOL    HW2 1227   0.550   0.750   0.776 -2.7001  1.3409 -0.4315
  410SOL     OW 1228   1.249   2.010   1.411 -0.3516  0.0703 -0.6146
  410SOL    HW1 1229   1.261   2.018   1.512  2.8827  0.9587  2.9577
  410SOL    HW2 1230   1.153   1.966   1.388 -0.1162  0.2023 -3.8977
  411SOL     OW 1231   2.444   1.825   3.068  0.1327  0.9448 -0.0940
  411SOL    HW1 1232   2.379   1.876   3.010  1.1413 -0.5752 -0.3217
  411SOL    HW2 1233   2.521   1.786   3.013 -1.3610  2.3475  1.2927
  412SOL     OW 1234   1.478   2.488   2.227  0.6038  0.4346  0.2654
  412SOL    HW1 1235   1.541   2.537   2.292 -2.5742 -0.3133 -0.4348
  412SOL    HW2 1236   1.401   2.441   2.279  1.4456  1.1140  3.2347
  413SOL     OW 1237   0.011   0.267   2.958  0.2290 -0.4442 -0.1989
  413SOL    HW1 1238  -0.059   0.199   2.988  3.1827 -1.2789  2.3460
  413SOL    HW2 1239   0.092   0.280   3.025  2.8199 -1.8053  0.7416
  414SOL     OW 1240   1.774   1.461   1.388 -0.3634 -0.1479 -0.2081
  414SOL    HW1 1241   1.685   1.508   1.415 -0.2236  0.3854 -0.9810
  414SOL    HW2 1242   1.756   1.398   1.306  0.4097  0.9972  1.1635
  415SOL     OW 1243   0.348   2.270   0.636  0.0148 -0.9750  0.6803
  415SOL    HW1 1244   0.304   2.367   0.632 -2.2193 -0.1909  0.2194
  415SOL    HW2 1245   0.275   2.202   0.654  0.0130  1.6920  0.2826
  416SOL     OW 1246   0.341   1.031   1.062 -0.4092 -0.5813  0.0271
  416SOL    HW1 1247   0.284   1.017   0.979  1.5902  1.2806 -0.7474
  416SOL    HW2 1248   0.441   1.052   1.041 -3.4685  0.8467 -0.8108
  417SOL     OW 1249   2.117   2.356   1.876  0.0108 -0.6818 -0.1896
  417SOL    HW1 1250   2.143   2.256   1.884 -0.3970  1.5058  0.4035
  417SOL    HW2 1251   2.062   2.391   1.955 -0.6806 -0.8589 -2.1927
  418SOL     OW 1252   1.093   0.502   1.263 -0.3743 -0.1342 -0.0345
  418SOL    HW1 1253   0.992   0.493   1.237 -1.6714  1.8283  1.2396
  418SOL    HW2 1254   1.140   0.413   1.262 -0.9924  2.9412  1.3300
  419SOL     OW 1255   1.049   0.324   3.040  0.0954  0.2891  0.5422
  419SOL    HW1 1256   1.081   0.354   2.945  0.0309 -1.2594 -2.4246
  419SOL    HW2 1257   0.959   0.265   3.030 -2.1006 -1.9449 -1.5938
  420SOL     OW 1258   0.202   2.251   0.367 -0.1736  0.0132  0.5840
  420SOL    HW1 1259   0.207   2.203   0.276 -0.7655 -2.8175  1.0260
  420SOL    HW2 1260   0.108   2.278   0.399  0.1359 -0.3191 -0.8943
  421SOL     OW 1261   0.314   3.099   0.678 -0.1523  0.0195 -0.5435
  421SOL    HW1 1262   0.248   3.020   0.677 -1.3771  0.2413 -1.2316
  421SOL    HW2 1263   0.414   3.081   0.675  2.8366  0.8723  0.9262
  422SOL     OW 1264   0.988   2.536   1.040  0.1257  0.5631  0.3036
  422SOL    HW1 1265   1.035   2.586   0.961  0.2325 -0.0194 -1.3302
  422SOL    HW2 1266   1.030   2.571   1.126 -0.5821  0.1526  0.7316
  423SOL     OW 1267   0.072   0.662   1.228  0.5151 -0.0904  0.1757
  423SOL    HW1 1268   0.012   0.626   1.310 -2.2093 -2.0916 -0.5261
  423SOL    HW2 1269   0.050   0.758   1.205  3.6076  1.2160 -0.8484
  424SOL     OW 1270   0.994   2.212   2.060  0.3484 -0.2325 -0.4070
  424SOL    HW1 1271   0.981   2.311   2.030 -0.9569 -2.6371 -0.4295
  424SOL    HW2 1272   0.990   2.201   2.163  0.2957 -0.8264 -0.1509
  425SOL     OW 1273   1.964   1.444   1.009  0.0767 -0.2485 -0.1784
  425SOL    HW1 1274   1.996   1.344   1.015  0.8729  0.9676  0.9126
  425SOL    HW2 1275   2.031   1.518   0.967 -2.3752  2.0359  0.5092
  426SOL     OW 1276   1.522   1.569   1.443  0.2454  0.1853 -0.0448
  426SOL    HW1 1277   1.471   1.639   1.384 -0.4315  3.7211  2.8095
  426SOL    HW2 1278   1.511   1.592   1.542  0.2128  0.0588 -1.3936
  427SOL     OW 1279   1.929   2.388   2.088 -0.5163 -0.3170 -0.0137
  427SOL    HW1 1280   1.971   2.330   2.168 -2.0091 -1.6969  0.6188
  427SOL    HW2 1281   1.892   2.486   2.114 -0.6856  0.0746  2.3245
  428SOL     OW 1282   0.869   2.925   0.148  0.3269  0.3422  0.3227
  428SOL    HW1 1283   0.906   3.021   0.153  1.3301 -4.1086  0.7067
  428SOL    HW2 1284   0.931   2.863   0.093 -1.6674  1.1713 -1.7124
  429SOL     OW 1285   1.292   0.064   0.241  0.0050 -0.0559  0.2519
  429SOL    HW1 1286   1.386   0.100   0.275  0.6267  1.2225  1.0634
  429SOL    HW2 1287   1.283   0.078   0.141 -0.4917  2.1066  1.2551
  430SOL     OW 1288   2.734   1.519   0.365 -0.7047 -0.5915  0.4661
  430SOL    HW1 1289   2.743   1.602   0.299 -0.2488 -1.0825 -0.1858
  430SOL    HW2 1290   2.755   1.550   0.461  0.6689 -2.3109 -0.0641
  431SOL     OW 1291   2.118   1.640   0.884 -0.4070 -0.0212 -0.3534
  431SOL    HW1 1292   2.165   1.712   0.945  2.3858 -0.4343 -1.1178
  431SOL    HW2 1293   2.051   1.675   0.813 -1.9512  0.3202  1.6750
  432SOL     OW 1294   2.904   2.279   1.240 -0.2080  0.0763 -0.3045
  432SOL    HW1 1295   2.825   2.216   1.257 -2.2004 -0.9709  1.0354
  432SOL    HW2 1296   2.938   2.301   1.331 -0.1633 -0.9669 -2.5355
  433SOL     OW 1297   1.854   0.388   0.813 -0.1641  0.1520  0.1484
  433SOL    HW1 1298   1.782   0.360   0.883 -2.0370  2.2465  1.1652
  433SOL    HW2 1299   1.939   0.333   0.812 -0.3311  1.6778  0.4760
  434SOL     OW 1300   1.560   0.268   0.726  0.5352  0.1518  0.0161
  434SOL    HW1 1301   1.509   0.352   0.696 -0.2248  2.6720  0.1389
  434SOL    HW2 1302   1.586   0.274   0.825  0.1716 -0.6018 -2.8899
  435SOL     OW 1303   1.448   1.414   2.140 -0.0795  0.7303 -0.1782
  435SOL    HW1 1304   1.397   1.406   2.230 -1.0251  2.4064 -4.5066
  435SOL    HW2 1305   1.441   1.511   2.103 -0.1974  2.1536  1.3484
  436SOL     OW 1306   1.622   2.692   2.388  0.3598  0.0735 -0.8780
  436SOL    HW1 1307   1.588   2.782   2.436 -3.0122  2.0121 -0.3604
  436SOL    HW2 1308   1.689   2.639   2.448  0.3238  2.7861 -1.2277
  437SOL     OW 1309   1.103   2.912   0.858  0.1733  0.5361 -0.2271
  437SOL    HW1 1310   1.035   2.982   0.820 -0.7184 -0.2335 -0.8515
  437SOL    HW2 1311   1.080   2.897   0.961 -0.9944  0.0594 -0.0302
  438SOL     OW 1312   1.036   2.606   1.329  0.3654 -0.1161  0.5939
  438SOL    HW1 1313   1.076   2.638   1.420 -1.4180 -0.6307  1.0199
  438SOL    HW2 1314   0.994   2.504   1.326 -0.3630 -2.2280  0.7123
  439SOL     OW 1315   0.730   1.783   1.084 -0.1303  0.4361  0.3454
  439SOL    HW1 1316   0.736   1.883   1.102 -2.7122  0.4967  1.1440
  439SOL    HW2 1317   0.633   1.747   1.077 -0.9669 -1.0233  0.6353
  440SOL     OW 1318   1.020   2.468   1.963 -0.3565  0.2865 -0.3496
  440SOL    HW1 1319   0.998   2.503   1.868  0.3597  0.4212  1.0399
  440SOL    HW2 1320   1.120   2.480   1.990  0.1122  0.0779  1.5200
  441SOL     OW 1321   0.426   2.789   1.363 -0.3416 -0.5785 -0.7232
  441SOL    HW1 1322   0.487   2.710   1.373 -1.3542  1.7010  0.5344
  441SOL    HW2 1323   0.393   2.790   1.265  0.6752  1.7064 -3.8426
  442SOL     OW 1324   2.283   0.665   2.625  0.0910  0.0160  0.0150
  442SOL    HW1 1325   2.285   0.588   2.555  0.4845 -0.5950 -0.5408
  442SOL    HW2 1326   2.187   0.712   2.628 -0.9918 -1.6380 -0.6065
  443SOL     OW 1327   1.219   2.689   2.208 -0.2115  0.5556  0.1169
  443SOL    HW1 1328   1.270   2.606   2.252  2.0036 -0.7050 -1.3266
  443SOL    HW2 1329   1.200   2.762   2.279  0.1392 -3.2022 -0.8532
  444SOL     OW 1330   1.091   1.258   1.503  0.4040  0.8150  0.0460
  444SOL    HW1 1331   1.192   1.234   1.502  3.4714  0.1165 -0.2250
  444SOL    HW2 1332   1.079   1.325   1.580  1.9927 -0.8782  1.7246
  445SOL     OW 1333   3.075   2.408   1.877  0.5259 -0.2880 -0.3876
  445SOL    HW1 1334   3.073   2.492   1.812  2.0172  0.5681 -0.2509
  445SOL    HW2 1335   2.987   2.384   1.922 -0.6954  1.8011 -1.4077
  446SOL     OW 1336   0.195   1.901   2.407  0.0027 -0.1725  0.4713
  446SOL    HW1 1337   0.157   1.993   2.396  0.9537  2.6280 -0.9621
  446SOL    HW2 1338   0.166   1.839   2.328  0.1122 -0.8689  0.6774
  447SOL     OW 1339   1.237   1.657   1.948 -0.1903  0.0671  0.7722
  447SOL    HW1 1340   1.150   1.712   1.948  0.3581  0.3760 -1.5790
  447SOL    HW2 1341   1.309   1.693   2.014  0.4883 -0.6402 -0.8069
  448SOL     OW 1342   0.098   1.410   2.011 -0.4834  0.3572 -0.7688
  448SOL    HW1 1343   0.112   1.499   1.957  0.5232  2.9380  0.2574
  448SOL    HW2 1344   0.070   1.432   2.107 -0.2612 -0.7146 -1.8202
  449SOL     OW 1345   1.741   2.946   0.893 -0.2326 -0.6792  0.0562
  449SOL    HW1 1346   1.753   2.976   0.992 -1.1331 -0.8822  3.0273
  449SOL    HW2 1347   1.803   2.868   0.861 -0.7050  0.5959 -0.2350
  450SOL     OW 1348   2.297   1.470   0.759  0.1182 -0.2578  0.0699
  450SOL    HW1 1349   2.241   1.538   0.818  2.0709 -1.9055  2.0515
  450SOL    HW2 1350   2.284   1.493   0.663 -1.9803 -0.7488  2.0638
  451SOL     OW 1351   1.349   3.084   1.455 -0.8454 -0.3438 -0.8645
  451SOL    HW1 1352   1.268   3.145   1.463  2.6753  0.0974  3.5331
  451SOL    HW2 1353   1.355   3.012   1.534 -0.8947  0.6754  0.8805
  452SOL     OW 1354   2.665   2.288   2.260 -0.1641 -0.0219  0.0335
  452SOL    HW1 1355   2.621   2.381   2.279  1.3357 -0.7404  0.4218
  452SOL    HW2 1356   2.734   2.252   2.331  1.1636 -3.7439  1.5523
  453SOL     OW 1357   2.455   2.673   3.088 -0.3210  0.4669  0.3088
  453SOL    HW1 1358   2.371   2.718   3.123  0.7432  0.6850 -1.9016
  453SOL    HW2 1359   2.432   2.623   2.997  1.3950  1.8395 -0.7635
  454SOL     OW 1360   0.958   1.145   2.052  0.7804  0.7523 -0.3771
  454SOL    HW1 1361   0.952   1.150   1.949 -1.4586  1.4261  0.8755
  454SOL    HW2 1362   1.032   1.196   2.098  0.0649  0.1774  0.4136
  455SOL     OW 1363   0.657   2.670   2.803  0.2086 -0.2204  0.4459
  455SOL    HW1 1364   0.752   2.707   2.781  3.7460  0.6204 -3.7008
  455SOL    HW2 1365   0.672   2.595   2.871  0.9665 -1.0676 -0.7768
  456SOL     OW 1366   0.395   1.878   0.200  0.3974 -0.8113 -0.5573
  456SOL    HW1 1367   0.464   1.832   0.262  0.1433  1.7567 -1.5330
  456SOL    HW2 1368   0.432   1.970   0.172  2.8758 -2.0305 -0.6245
  457SOL     OW 1369   0.395   2.717   0.619 -0.2129 -0.2617  0.2262
  457SOL    HW1 1370   0.414   2.745   0.520  2.7001  1.2098 -1.3613
  457SOL    HW2 1371   0.474   2.749   0.685 -1.7313  0.1072  3.0305
  458SOL     OW 1372   2.861   0.041   1.165  0.9592 -0.1317  0.6885
  458SOL    HW1 1373   2.942   0.103   1.158 -1.6186  0.2090 -0.2174
  458SOL    HW2 1374   2.867  -0.033   1.093  2.4240 -1.1204 -0.1350
  459SOL     OW 1375   2.134   2.612   0.795 -0.4037  0.0921  0.1357
  459SOL    HW1 1376   2.229   2.634   0.816 -2.6973  1.1712 -1.9481
  459SOL    HW2 1377   2.119   2.587   0.696 -2.0415  0.4352  0.1205
  460SOL     OW 1378   1.195   2.134   2.814 -0.1352 -0.1818  0.1611
  460SOL    HW1 1379   1.189   2.171   2.719  0.6550  3.6113  2.5805
  460SOL    HW2 1380   1.193   2.031   2.824  1.3071  0.3053  0.9778
  461SOL     OW 1381   0.524   2.175   2.672  0.7674  0.7420 -0.1494
  461SOL    HW1 1382   0.453   2.105   2.633 -0.4071  1.4168 -0.7160
  461SOL    HW2 1383   0.560   2.149   2.766  0.7478  0.9383 -0.8172
  462SOL     OW 1384   0.958   1.097   1.796 -0.5414  0.0603 -0.5542
  462SOL    HW1 1385   0.996   1.025   1.731 -0.8364 -0.3948  0.7343
  462SOL    HW2 1386   0.892   1.169   1.759 -2.4118 -1.8786  0.6946
  463SOL     OW 1387   0.455   0.858   0.508  0.1718 -0.1371  0.2067
  463SOL    HW1 1388   0.490   0.764   0.475  0.7731  0.5113  0.2660
  463SOL    HW2 1389   0.353   0.857   0.508 -0.2695 -2.8192  0.6062
  464SOL     OW 1390   0.580   2.280   2.222  0.5326 -0.4664 -0.0537
  464SOL    HW1 1391   0.526   2.338   2.285 -0.0195 -3.9294 -1.1125
  464SOL    HW2 1392   0.538   2.278   2.129  0.5828  1.9282  0.3820
  465SOL     OW 1393   0.224   0.929   0.822 -0.5051  0.3631  0.5700
  465SOL    HW1 1394   0.148   0.957   0.767  1.8426 -0.6193  0.7144
  465SOL    HW2 1395   0.243   0.827   0.826  1.2144 -0.4372  0.3189
  466SOL     OW 1396   1.393   1.129   1.009 -0.1213 -0.5475 -0.6880
  466SOL    HW1 1397   1.427   1.217   0.969 -0.4988  0.4513  0.6060
  466SOL    HW2 1398   1.291   1.119   1.022  0.9193 -2.1641  1.2156
  467SOL     OW 1399   0.621   0.434   2.454 -0.0260  0.0158  0.1488
  467SOL    HW1 1400   0.561   0.513   2.430 -1.6857 -2.1216 -0.4139
  467SOL    HW2 1401   0.589   0.390   2.542  0.0891 -0.7155  2.9654
  468SOL     OW 1402   0.440   2.268   1.628 -0.0352  0.2629 -0.6796
  468SOL    HW1 1403   0.503   2.337   1.674  0.2401  1.5102 -0.8493
  468SOL    HW2 1404   0.419   2.302   1.534 -2.1275  2.0973  2.2291
  469SOL     OW 1405   1.483   1.348   1.270 -0.0433  0.0592 -0.3982
  469SOL    HW1 1406   1.573   1.336   1.221  1.3369  0.5405  0.4525
  469SOL    HW2 1407   1.490   1.429   1.335  0.3902 -2.5550 -1.3550
  470SOL     OW 1408   3.024   1.871   0.750  0.3858 -0.5305  0.6289
  470SOL    HW1 1409   3.112   1.904   0.700  4.0098  0.3744 -0.1073
  470SOL    HW2 1410   3.048   1.818   0.837 -0.7762 -1.1299 -0.6156
  471SOL     OW 1411   2.578   1.338   2.157 -0.1471 -0.3374 -0.1779
  471SOL    HW1 1412   2.553   1.259   2.222  0.8526 -0.1412 -1.2962
  471SOL    HW2 1413   2.663   1.387   2.188 -1.0647 -1.4397 -0.5513
  472SOL     OW 1414   1.164   2.383   0.032 -0.0978  0.2018  0.1282
  472SOL    HW1 1415   1.228   2.393   0.112 -1.7556  1.1471  0.5764
  472SOL    HW2 1416   1.073   2.343   0.067  2.3977 -3.4399 -0.8660
  473SOL     OW 1417   1.068   1.497   1.060  0.3560  0.5551 -0.0470
  473SOL    HW1 1418   0.970   1.513   1.035  0.1671  0.7719 -0.6654
  473SOL    HW2 1419   1.084   1.446   1.148  0.5172  3.2249 -0.9395
  474SOL     OW 1420   0.650   1.270   0.582  0.6402 -0.8187 -0.7189
  474SOL    HW1 1421   0.558   1.231   0.559  0.9013  0.9366 -1.4347
  474SOL    HW2 1422   0.722   1.197   0.593 -1.7123  0.1742 -1.1356
  475SOL     OW 1423   2.827   0.024   0.827  0.1497  0.4032 -0.3353
  475SOL    HW1 1424   2.891   0.106   0.823 -0.2094 -0.8686 -1.4805
  475SOL    HW2 1425   2.727   0.038   0.851  2.2034 -4.5471 -0.6401
  476SOL     OW 1426   0.978   3.010   1.763 -0.3709  0.9383 -0.1630
  476SOL    HW1 1427   1.061   3.070   1.778  0.5619 -1.1339 -0.1472
  476SOL    HW2 1428   0.975   2.972   1.666  1.2504 -1.5607 -1.0073
  477SOL     OW 1429   1.470   0.330   2.429 -0.1712  0.0834  0.2366
  477SOL    HW1 1430   1.448   0.353   2.527 -1.5950  2.2422  0.4785
  477SOL    HW2 1431   1.559   0.279   2.420 -2.0860 -0.5106  1.3674
  478SOL     OW 1432   2.232   1.814   0.190  0.2614 -0.1419 -0.2084
  478SOL    HW1 1433   2.182   1.728   0.220  2.0998  0.3145 -2.7396
  478SOL    HW2 1434   2.289   1.807   0.100  2.6109 -2.2689 -1.3041
  479SOL     OW 1435   1.243   0.973   2.819 -0.4080  0.4935 -0.3594
  479SOL    HW1 1436   1.313   0.963   2.738 -0.7021 -0.9714 -2.9201
  479SOL    HW2 1437   1.206   0.879   2.847 -1.7392  0.1826 -0.1922
  480SOL     OW 1438   2.645   2.365   0.369  0.7194 -0.1893 -0.2868
  480SOL    HW1 1439   2.630   2.300   0.450  1.5911  1.3911  2.1571
  480SOL    HW2 1440   2.554   2.390   0.319  0.1570  2.5337  0.3975
  481SOL     OW 1441   0.929   1.186   0.864  0.2428  0.0173 -0.2053
  481SOL    HW1 1442   0.939   1.272   0.803  0.1943 -0.6733  0.7060
  481SOL    HW2 1443   0.993   1.191   0.948  1.1907 -0.1593  0.0060
  482SOL     OW 1444   1.594   0.286   1.998  0.6513  0.1668  0.2649
  482SOL    HW1 1445   1.605   0.388   1.981  0.2731 -3.3955  1.1241
  482SOL    HW2 1446   1.679   0.253   2.045  1.8947  0.7360  0.4951
  483SOL     OW 1447   0.137   2.268   1.205 -0.5149 -0.2522 -0.1160
  483SOL    HW1 1448   0.085   2.304   1.288 -1.3417  0.6320  0.4379
  483SOL    HW2 1449   0.169   2.338   1.134  2.8568 -0.2568 -2.1569
  484SOL     OW 1450   1.765   1.127   1.367  0.3957 -0.0608  0.3373
  484SOL    HW1 1451   1.819   1.038   1.387  1.6448 -0.7304 -0.8420
  484SOL    HW2 1452   1.765   1.196   1.443 -1.5617 -1.2875 -1.2612
  485SOL     OW 1453   0.749   0.854   1.752  0.1091  0.3384  0.0798
  485SOL    HW1 1454   0.731   0.911   1.671  0.1897  0.6082  0.2735
  485SOL    HW2 1455   0.839   0.876   1.799 -1.0246  2.7045  0.8576
  486SOL     OW 1456   0.810   1.853   2.486 -0.1391  0.6664 -0.0449
  486SOL    HW1 1457   0.865   1.813   2.562  0.5199 -1.0909 -0.2339
  486SOL    HW2 1458   0.786   1.951   2.499 -1.2263 -2.8599 -1.1009
  487SOL     OW 1459   1.748   1.662   0.948  0.6149  0.3486 -0.3854
  487SOL    HW1 1460   1.779   1.572   0.981 -3.4204 -0.3398 -0.4209
  487SOL    HW2 1461   1.810   1.698   0.869  0.9574  0.4156 -1.5251
  488SOL     OW 1462   2.940   0.875   2.244  0.0821 -0.0258  0.1450
  488SOL    HW1 1463   2.951   0.774   2.219  0.8462  0.3026 -1.1237
  488SOL    HW2 1464   2.987   0.902   2.333  2.7326  0.6950 -0.9760
  489SOL     OW 1465   2.838   0.332   1.286 -0.4314 -0.2608  0.6934
  489SOL    HW1 1466   2.797   0.305   1.377 -1.1066  0.4671 -1.6042
  489SOL    HW2 1467   2.941   0.318   1.280 -0.9334 -0.1949  0.5339
  490SOL     OW 1468   1.412   2.937   2.806  0.3960 -0.4289 -0.5212
  490SOL    HW1 1469   1.494   2.874   2.814 -1.5851 -3.4905  1.8928
  490SOL    HW2 1470   1.385   2.955   2.705 -2.9325 -0.2991 -0.4172
  491SOL     OW 1471   1.662   1.512   2.644 -0.2644 -0.1358  0.1074
  491SOL    HW1 1472   1.585   1.519   2.711  2.4701 -4.3010 -0.9608
  491SOL    HW2 1473   1.757   1.506   2.690 -1.7362 -0.5149 -3.0346
  492SOL     OW 1474   0.559   2.067   0.617 -0.0325 -0.4162 -0.0445
  492SOL    HW1 1475   0.621   2.055   0.695 -0.0008  0.9557 -0.4237
  492SOL    HW2 1476   0.499   2.156   0.628 -0.3589  1.1432 -0.2412
  493SOL     OW 1477   0.438   1.403   2.055 -0.2288  0.4564 -0.3632
  493SOL    HW1 1478   0.350   1.449   2.065  1.8856 -2.2143  0.5066
  493SOL    HW2 1479   0.432   1.299   2.051 -0.3630 -0.2904 -0.3256
  494SOL     OW 1480   2.716   2.683   0.073 -0.1800  1.0385  0.3290
  494SOL    HW1 1481   2.722   2.654   0.171  1.1089 -0.5211  0.3971
  494SOL    HW2 1482   2.623   2.678   0.028  0.8618 -0.3165  1.0448
  495SOL     OW 1483   2.591   2.721   2.633  0.0507 -0.2224 -0.0525
  495SOL    HW1 1484   2.603   2.612   2.627  3.2785 -2.6569 -1.2239
  495SOL    HW2 1485   2.663   2.770   2.572  1.4341 -1.4948 -0.3483
  496SOL     OW 1486   2.066   2.274   0.766  0.5258  0.2422 -0.0084
  496SOL    HW1 1487   2.046   2.336   0.851 -1.1070 -1.2148 -0.3094
  496SOL    HW2 1488   2.063   2.172   0.785 -0.7106 -1.7828 -1.9356
  497SOL     OW 1489   0.191   2.993   2.337  0.1141 -0.0438 -0.3953
  497SOL    HW1 1490   0.152   3.053   2.416  1.4324 -0.6153  0.6011
  497SOL    HW2 1491   0.242   3.046   2.264  3.7325 -0.7494  1.6109
  498SOL     OW 1492   1.210   1.330   1.233 -0.2921  0.0626 -0.3668
  498SOL    HW1 1493   1.312   1.359   1.236  0.3222  0.9774  0.2972
  498SOL    HW2 1494   1.170   1.314   1.330  2.5644 -2.2865  2.1723
  499SOL     OW 1495   0.617   1.761   0.335 -0.1539 -0.2995  1.0676
  499SOL    HW1 1496   0.661   1.681   0.280 -0.0095 -1.7321 -1.1002
  499SOL    HW2 1497   0.688   1.821   0.374  2.7597  1.5904 -2.0677
  500SOL     OW 1498   1.374   2.888   1.658 -0.2544  0.5450 -0.8119
  500SOL    HW1 1499   1.345   2.877   1.753  3.0015  0.1202  1.1653
  500SOL    HW2 1500   1.461   2.831   1.646 -1.2168 -1.0684  2.3835
  501SOL     OW 1501   0.797   1.125   2.265 -0.1974 -0.4732 -0.0665
  501SOL    HW1 1502   0.733   1.051   2.266  2.7734  2.7822 -0.9636
  501SOL    HW2 1503   0.822   1.152   2.166 -1.1947  0.8345 -1.3533
  502SOL     OW 1504   2.582   0.935   1.730  0.1088 -0.0104 -0.1126
  502SOL    HW1 1505   2.576   0.949   1.626 -0.5580  1.3501 -1.6293
  502SOL    HW2 1506   2.568   0.834   1.762 -0.8397 -0.3215  1.2917
  503SOL     OW 1507   1.347   0.141   0.612 -0.0785 -0.3996  0.4348
  503SOL    HW1 1508   1.268   0.207   0.592 -2.3073 -1.1571 -0.2633
  503SOL    HW2 1509   1.435   0.193   0.640  1.7014  1.3522 -0.8806
  504SOL     OW 1510   2.998   2.334   1.492  0.3941  0.0038  0.5649
  504SOL    HW1 1511   2.920   2.395   1.520  1.5352 -0.1451  1.6179
  504SOL    HW2 1512   3.040   2.273   1.565 -0.3807 -1.5190 -1.7724
  505SOL     OW 1513   2.289   1.186   1.406  0.4577 -0.2487  0.0648
  505SOL    HW1 1514   2.248   1.245   1.325  0.3961  1.3484 -3.3543
  505SOL    HW2 1515   2.359   1.238   1.469  0.6285 -2.0707  0.3460
  506SOL     OW 1516   1.953   0.201   1.837  0.2136 -0.0437  0.0899
  506SOL    HW1 1517   2.037   0.142   1.842  1.1498  2.2758  3.4555
  506SOL    HW2 1518   1.955   0.296   1.881  0.7629 -1.3247  1.8216
  507SOL     OW 1519   0.601   0.688   2.134  0.4989 -0.5684  0.1247
  507SOL    HW1 1520   0.519   0.632   2.104 -0.8377  0.3439  1.3246
  507SOL    HW2 1521   0.683   0.630   2.167 -0.8463  4.1402 -0.4919
  508SOL     OW 1522   0.311   1.660   0.736 -0.3802 -0.6666 -0.0433
  508SOL    HW1 1523   0.384   1.713   0.684 -0.8610  0.9781  0.0233
  508SOL    HW2 1524   0.256   1.712   0.807 -2.5774 -0.9321  1.5483
  509SOL     OW 1525   1.298   1.174   2.412 -0.2506 -0.0355  0.0094
  509SOL    HW1 1526   1.335   1.112   2.331  2.8068 -0.7723 -2.9166
  509SOL    HW2 1527   1.199   1.176   2.405  1.9741 -0.2437  0.1731
  510SOL     OW 1528   1.277   2.121   2.223  0.2221 -0.0966 -0.0415
  510SOL    HW1 1529   1.285   2.166   2.128  1.6726 -0.3156  1.0429
  510SOL    HW2 1530   1.230   2.031   2.227  1.2686  4.1254  3.5476
  511SOL     OW 1531   3.005   2.672   1.293 -0.2296 -0.0388  0.4165
  511SOL    HW1 1532   3.039   2.649   1.200 -0.4828 -1.9801  0.5762
  511SOL    HW2 1533   2.903   2.647   1.313  1.0707 -1.9340 -3.5243
  512SOL     OW 1534   2.429   0.436   1.375  0.1744  0.0960  0.2147
  512SOL    HW1 1535   2.321   0.438   1.376 -3.2102 -1.6681  0.1287
  512SOL    HW2 1536   2.472   0.401   1.288 -2.9211  0.2781 -1.1282
  513SOL     OW 1537   2.587   2.106   0.918 -0.4170  0.0541 -0.6967
  513SOL    HW1 1538   2.547   2.194   0.876  0.4299  0.2590  1.7669
  513SOL    HW2 1539   2.667   2.076   0.866 -2.5462  2.3017  0.8291
  514SOL     OW 1540   0.677   2.771   0.460  0.1918 -0.1762  0.3021
  514SOL    HW1 1541   0.663   2.815   0.370  0.0951 -0.3776  0.0212
  514SOL    HW2 1542   0.702   2.833   0.540 -1.4024 -1.8474  1.2861
  515SOL     OW 1543   1.922   1.314   2.388 -0.0534 -0.4178 -0.0280
  515SOL    HW1 1544   1.941   1.241   2.314  2.6733  0.4436 -1.7456
  515SOL    HW2 1545   1.829   1.296   2.432 -0.3684  0.3317 -2.1268
  516SOL     OW 1546   0.286   0.288   1.886 -0.5271  0.0671  0.4827
  516SOL    HW1 1547   0.356   0.214   1.870  2.1135 -1.5540 -0.7405
  516SOL    HW2 1548   0.190   0.263   1.850 -0.2134  0.3462  1.4580
  517SOL     OW 1549   0.481   0.096   1.134 -0.1780 -1.0075  0.4822
  517SOL    HW1 1550   0.515   0.118   1.232 -1.9062 -1.6232  0.3174
  517SOL    HW2 1551   0.385   0.048   1.124 -2.9657 -0.3983  2.4095
  518SOL     OW 1552   2.150   3.078   1.835  0.1378 -0.3071 -0.0068
  518SOL    HW1 1553   2.206   3.169   1.837  1.8162  1.4865 -1.8118
  518SOL    HW2 1554   2.168   3.033   1.744  1.7631  0.8051 -2.0782
  519SOL     OW 1555   2.335   2.114   2.467  0.3590  0.3519 -0.3287
  519SOL    HW1 1556   2.290   2.104   2.562 -1.8410  0.2385  0.2464
  519SOL    HW2 1557   2.357   2.217   2.438 -1.2464  3.1099 -2.8872
  520SOL     OW 1558   1.841   2.699   1.736  0.2020  0.2583  0.0682
  520SOL    HW1 1559   1.762   2.654   1.776  2.9195  1.1435 -0.2986
  520SOL    HW2 1560   1.904   2.629   1.687 -2.2484 -1.6011 -1.1048
  521SOL     OW 1561   0.554   3.068   2.069 -0.1425 -0.0613  0.5438
  521SOL    HW1 1562   0.456   3.085   2.098 -0.4453  0.6545 -1.6572
  521SOL    HW2 1563   0.621   3.056   2.151  0.7965 -4.0115  1.8540
  522SOL     OW 1564   0.167   1.821   1.576  0.2396 -0.0127 -0.1340
  522SOL    HW1 1565   0.206   1.909   1.615 -0.7332 -3.5103  0.1206
  522SOL    HW2 1566   0.120   1.844   1.487  1.9279  0.4204  0.2257
  523SOL     OW 1567   2.181   2.979   1.588  0.0166  0.2335 -0.4539
  523SOL    HW1 1568   2.247   2.898   1.572 -0.9472 -0.0746  0.0993
  523SOL    HW2 1569   2.088   2.974   1.539  0.7907  2.8552  4.7733
  524SOL     OW 1570   0.189   2.765   2.825 -0.6483 -0.4964 -0.3986
  524SOL    HW1 1571   0.138   2.847   2.866  1.1815 -1.8784 -1.1527
  524SOL    HW2 1572   0.290   2.786   2.807  0.6238 -1.9830 -2.0897
  525SOL     OW 1573   2.231   2.012   0.407  0.1376 -0.8266  0.0433
  525SOL    HW1 1574   2.268   1.971   0.496  0.5523  0.4631  2.0959
  525SOL    HW2 1575   2.240   1.953   0.324  0.3617  2.1059  2.1653
  526SOL     OW 1576   0.475   1.474   1.737  0.3982 -0.1586 -0.7678
  526SOL    HW1 1577   0.503   1.558   1.788 -2.3886 -0.6188  1.5760
  526SOL    HW2 1578   0.490   1.389   1.786  0.1636  2.1541  1.1271
  527SOL     OW 1579   1.082   2.879   1.134 -0.5434 -0.2309 -0.4383
  527SOL    HW1 1580   1.140   2.830   1.207  0.2172 -0.2790  0.8923
  527SOL    HW2 1581   1.099   2.979   1.153  0.9319 -0.5451 -0.3063
  528SOL     OW 1582   1.362   2.344   0.526  0.3163 -0.0844  0.0220
  528SOL    HW1 1583   1.388   2.246   0.536  1.1390 -0.0991  0.3113
  528SOL    HW2 1584   1.426   2.408   0.583 -0.5879 -1.5206  0.4821
  529SOL     OW 1585   1.919   1.778   0.742  0.1892  0.0409 -0.0239
  529SOL    HW1 1586   1.870   1.762   0.653 -0.7033  0.0749  0.5426
  529SOL    HW2 1587   1.907   1.876   0.781 -1.2747  0.2668 -0.0874
  530SOL     OW 1588   0.414   2.587   0.177  0.3951  0.5925  0.9647
  530SOL    HW1 1589   0.425   2.650   0.258 -0.6517 -0.9519 -0.6736
  530SOL    HW2 1590   0.405   2.484   0.199 -0.8448 -1.1165  1.2519
  531SOL     OW 1591   1.867   0.988   1.073 -0.0356  0.1116 -0.6809
  531SOL    HW1 1592   1.832   0.914   1.003 -1.9067 -0.8243 -1.4005
  531SOL    HW2 1593   1.798   1.008   1.147  1.4674  1.6070 -0.8016
  532SOL     OW 1594   0.370   1.175   0.723  0.3840  0.1233 -0.1193
  532SOL    HW1 1595   0.374   1.182   0.620  0.7315  1.7981  1.9787
  532SOL    HW2 1596   0.360   1.075   0.748  0.3737  0.4613 -1.3663
  533SOL     OW 1597   1.739   0.016   2.585  0.0150  0.3592  0.0955
  533SOL    HW1 1598   1.842   0.010   2.601  2.2831  0.2849 -0.0554
  533SOL    HW2 1599   1.702   0.103   2.621 -1.2328  1.3298  0.2825
  534SOL     OW 1600   0.256   0.217   1.456 -0.6895  0.1149 -0.7004
  534SOL    HW1 1601   0.360   0.208   1.445 -1.6585 -0.7749  1.8179
  534SOL    HW2 1602   0.226   0.308   1.503  3.5277 -0.6021 -1.0341
  535SOL     OW 1603   1.897   0.376   0.229  0.2847  0.2178  0.1340
  535SOL    HW1 1604   1.941   0.444   0.286 -0.0945  0.9215 -0.3383
  535SOL    HW2 1605   1.821   0.325   0.272 -0.0531 -0.8457 -2.0477
  536SOL     OW 1606   1.397   2.585   0.926  1.0150 -0.4917 -0.0116
  536SOL    HW1 1607   1.403   2.502   0.980  2.5781  0.8601  0.4178
  536SOL    HW2 1608   1.297   2.613   0.913  1.5426 -1.3794 -0.0885
  537SOL     OW 1609   0.847   0.204   2.346 -0.5772 -0.4312  0.1962
  537SOL    HW1 1610   0.873   0.228   2.247  0.5697  2.5276  1.1033
  537SOL    HW2 1611   0.756   0.150   2.353  0.2758 -3.3811  1.1787
  538SOL     OW 1612   1.666   2.310   1.511 -0.1685 -0.0827  0.2962
  538SOL    HW1 1613   1.627   2.225   1.471  0.5610 -0.3598 -0.2636
  538SOL    HW2 1614   1.754   2.340   1.468 -1.3977 -2.5891 -2.9848
  539SOL     OW 1615   0.221   1.647   2.694 -0.2107  0.6130  0.4350
  539SOL    HW1 1616   0.122   1.640   2.652  1.4958 -1.1888  1.1279
  539SOL    HW2 1617   0.255   1.740   2.727  1.3530  0.3863  2.4546
  540SOL     OW 1618   2.735   1.698   1.974 -0.5116  0.5962  0.1868
  540SOL    HW1 1619   2.665   1.622   1.959  2.6500 -0.2631 -0.3406
  540SOL    HW2 1620   2.710   1.796   1.961  0.0684 -1.1846  1.6331
  541SOL     OW 1621   0.476   2.339   3.070  0.1624 -0.0336 -0.5826
  541SOL    HW1 1622   0.521   2.284   3.146 -4.5209 -2.9002  2.6235
  541SOL    HW2 1623   0.382   2.298   3.044  1.2428  1.4338  1.3125
  542SOL     OW 1624   2.247   2.591   0.424  0.1088  0.1162 -0.4913
  542SOL    HW1 1625   2.229   2.692   0.437 -0.5899 -0.0370  0.1972
  542SOL    HW2 1626   2.177   2.525   0.470 -0.2684 -2.2005 -1.0818
  543SOL     OW 1627   0.997   1.726   1.679  0.2492 -0.2560 -0.5440
  543SOL    HW1 1628   1.021   1.735   1.777 -1.0914  0.1637 -0.5900
  543SOL    HW2 1629   1.025   1.805   1.617  0.9609 -2.9508 -0.8964
  544SOL     OW 1630   0.972   0.381   0.209  0.6818  0.8667 -0.0395
  544SOL    HW1 1631   0.959   0.291   0.257 -4.5541  1.0413  1.0122
  544SOL    HW2 1632   0.990   0.364   0.110  0.8318 -2.8729 -1.2208
  545SOL     OW 1633   1.103   1.713   0.709 -0.2253  0.4892  0.6333
  545SOL    HW1 1634   1.196   1.735   0.751 -0.9130 -1.3620  0.2295
  545SOL    HW2 1635   1.109   1.704   0.605 -0.9344 -0.0708  0.8870
  546SOL     OW 1636   2.607   1.546   3.037  0.4547 -0.3758 -0.0872
  546SOL    HW1 1637   2.534   1.514   2.974  1.1277 -0.2947  2.1866
  546SOL    HW2 1638   2.569   1.544   3.137 -2.9486  1.4620  2.8867
  547SOL     OW 1639   0.574   0.051   2.713 -0.1171  0.6065 -0.4404
  547SOL    HW1 1640   0.647  -0.029   2.717  1.6075 -0.9247  1.0204
  547SOL    HW2 1641   0.478   0.007   2.727  2.3110 -1.4868 -3.8313
  548SOL     OW 1642   2.030   0.840   3.061 -0.1273  0.0023 -0.2420
  548SOL    HW1 1643   1.931   0.823   3.034  0.0463  0.5526 -2.2198
  548SOL    HW2 1644   2.052   0.944   3.080 -1.6943  2.9971 -0.2380
  549SOL     OW 1645   0.689   0.592   0.194 -0.4042 -0.0864  0.0696
  549SOL    HW1 1646   0.641   0.651   0.122  2.6976 -0.7172  0.3790
  549SOL    HW2 1647   0.750   0.643   0.259 -0.1826  2.9661 -0.0644
  550SOL     OW 1648   2.488   2.845   2.878  0.0904  0.0636 -0.5092
  550SOL    HW1 1649   2.473   2.776   2.951  1.8360  2.2370  0.8464
  550SOL    HW2 1650   2.549   2.799   2.807 -2.3197 -0.3153  1.4911
  551SOL     OW 1651   0.294   0.875   0.211 -0.0631 -0.6870 -0.1052
  551SOL    HW1 1652   0.386   0.921   0.194  0.7163  2.3535  2.9899
  551SOL    HW2 1653   0.277   0.858   0.310 -0.1991  2.4925 -0.8686
  552SOL     OW 1654   0.721   2.903   1.863 -0.4653 -0.0172  0.0275
  552SOL    HW1 1655   0.673   2.957   1.933  0.1440  0.8451 -2.6174
  552SOL    HW2 1656   0.811   2.951   1.830 -2.1595  2.8242  2.8779
  553SOL     OW 1657   0.021   2.516   0.394 -0.4392  0.3202 -0.2143
  553SOL    HW1 1658  -0.051   2.448   0.363 -1.4235  1.1546  1.4065
  553SOL    HW2 1659  -0.022   2.606   0.430 -2.8299  0.5950 -0.5493
  554SOL     OW 1660   2.185   0.354   0.577 -0.0957  0.4449  0.0403
  554SOL    HW1 1661   2.202   0.332   0.477 -1.4918  0.6406 -1.9309
  554SOL    HW2 1662   2.194   0.277   0.643 -0.8826  0.2023 -0.9957
  555SOL     OW 1663   0.433   2.901   2.498  0.1986  0.2201 -0.0909
  555SOL    HW1 1664   0.356   2.948   2.449 -2.4968  0.2979 -0.1829
  555SOL    HW2 1665   0.463   2.810   2.460 -0.6808  1.0326 -0.5191
  556SOL     OW 1666   0.858   2.399   1.588 -0.3383 -0.2322 -0.9806
  556SOL    HW1 1667   0.896   2.492   1.619  1.4331  0.6245  0.0014
  556SOL    HW2 1668   0.881   2.373   1.490  0.7537  1.0321 -0.9669
  557SOL     OW 1669   0.100   2.081   0.153 -0.1034 -0.0367  0.3501
  557SOL    HW1 1670   0.011   2.031   0.137  0.7443 -0.1211 -2.8567
  557SOL    HW2 1671   0.154   2.098   0.065  0.0067  1.7030 -1.7694
  558SOL     OW 1672   2.936   2.341   0.304 -0.4274  0.3340 -0.5906
  558SOL    HW1 1673   2.836   2.323   0.326 -0.5611 -0.1890 -0.1709
  558SOL    HW2 1674   2.956   2.310   0.206 -1.7371 -0.0901 -0.4803
  559SOL     OW 1675   0.381   2.300   1.343 -0.2465  0.1466  0.2492
  559SOL    HW1 1676   0.304   2.292   1.279  0.8402 -0.8314  0.1197
  559SOL    HW2 1677   0.444   2.212   1.340  0.4057  0.2708 -2.3874
  560SOL     OW 1678   2.078   1.103   3.079 -0.1957 -0.0140  0.1116
  560SOL    HW1 1679   2.003   1.136   3.142  2.6316 -0.8370  2.5104
  560SOL    HW2 1680   2.160   1.167   3.086  0.3202  1.0096 -1.4355
  561SOL     OW 1681   2.997   1.900   0.043  0.1389  0.1700  0.0996
  561SOL    HW1 1682   2.934   1.816   0.054 -3.1748 -0.3091 -1.7237
  561SOL    HW2 1683   2.953   1.975  -0.009 -1.8939  0.3331  1.3465
  562SOL     OW 1684   0.949   2.214   2.333 -0.1884  0.4875 -0.0843
  562SOL    HW1 1685   0.864   2.171   2.309  1.5242  0.2863  1.1794
  562SOL    HW2 1686   0.954   2.242   2.436  0.3229  1.0238  0.8512
  563SOL     OW 1687   0.720   2.488   2.581  0.4011  0.6308  0.1050
  563SOL    HW1 1688   0.745   2.383   2.579 -3.7122 -2.0478 -0.1424
  563SOL    HW2 1689   0.672   2.517   2.668  3.7504  0.0294 -0.0774
  564SOL     OW 1690   2.753   1.293   2.908  0.1597  0.0855  0.2775
  564SOL    HW1 1691   2.660   1.311   2.955 -1.3920  1.0102 -0.2332
  564SOL    HW2 1692   2.796   1.381   2.875  2.0924 -0.2668 -0.4864
  565SOL     OW 1693   2.549   1.990   2.571  0.4154 -0.4040 -0.2432
  565SOL    HW1 1694   2.466   2.041   2.531 -0.8007  0.6123  0.3582
  565SOL    HW2 1695   2.590   2.037   2.655  1.8331 -0.8949 -0.4718
  566SOL     OW 1696   1.995   2.851   1.404  0.6098 -0.3511  0.3142
  566SOL    HW1 1697   1.945   2.766   1.382  0.4839  2.5954 -0.1714
  566SOL    HW2 1698   2.072   2.873   1.338 -1.1853  3.4360 -0.9009
  567SOL     OW 1699   2.476   0.088   2.247 -0.3284 -0.1901 -0.9828
  567SOL    HW1 1700   2.550   0.158   2.261  1.8990 -0.0302 -2.1648
  567SOL    HW2 1701   2.458   0.078   2.145  0.6273  1.3076  1.0506
  568SOL     OW 1702   1.541   1.761   0.227  0.2832  0.1101 -0.0035
  568SOL    HW1 1703   1.470   1.837   0.217  0.6699 -1.6052  3.2700
  568SOL    HW2 1704   1.640   1.788   0.206  0.7104 -1.5090 -1.8948
  569SOL     OW 1705   0.292   0.638   0.871  0.5344  0.6555  0.1702
  569SOL    HW1 1706   0.374   0.580   0.840  2.6506  0.0157 -1.2210
  569SOL    HW2 1707   0.200   0.585   0.858 -0.6299 -3.1460 -3.4484
  570SOL     OW 1708   0.661   0.750   2.846 -0.3756 -0.1618  0.0018
  570SOL    HW1 1709   0.681   0.729   2.747 -0.8188  2.5196  0.4234
  570SOL    HW2 1710   0.691   0.847   2.879  0.4912  1.1786  0.0110
  571SOL     OW 1711   0.806   3.063   1.072 -0.5169  0.1096 -0.9483
  571SOL    HW1 1712   0.860   3.122   1.009 -0.6407  2.1684  0.7019
  571SOL    HW2 1713   0.836   2.963   1.073 -0.7966 -0.1790 -0.2634
  572SOL     OW 1714   1.602   2.618   1.208 -0.1097 -0.0470  0.6576
  572SOL    HW1 1715   1.529   2.549   1.232 -1.5302 -0.6143 -0.4990
  572SOL    HW2 1716   1.562   2.698   1.160  0.0490  0.3237 -0.8933
  573SOL     OW 1717   2.936   0.437   2.022 -0.0074 -0.0793 -0.2878
  573SOL    HW1 1718   2.904   0.345   2.054  0.0631 -1.2079  0.4100
  573SOL    HW2 1719   2.863   0.493   1.977  1.0560 -1.6218  0.0141
  574SOL     OW 1720   0.194   1.738   0.994 -0.0199 -0.7306  0.4579
  574SOL    HW1 1721   0.233   1.833   0.989 -1.0269 -0.2781 -1.2086
  574SOL    HW2 1722   0.128   1.730   1.076  0.7592  1.2846  2.0930
  575SOL     OW 1723   0.896   2.121   1.003  0.1582 -0.0102  0.1746
  575SOL    HW1 1724   0.838   2.170   1.073  1.6278  2.1680 -0.5320
  575SOL    HW2 1725   0.936   2.189   0.937  0.1219 -2.0873 -1.6367
  576SOL     OW 1726   2.921   2.968   1.648 -0.6159  0.1566  0.1783
  576SOL    HW1 1727   2.830   2.929   1.618 -1.4520  4.4715 -1.8876
  576SOL    HW2 1728   2.936   3.067   1.616 -2.1394  0.5713 -2.5028
  577SOL     OW 1729   2.538   1.227   3.093 -0.1542  0.4263  0.4073
  577SOL    HW1 1730   2.577   1.143   3.043  2.4078 -0.6535  0.3423
  577SOL    HW2 1731   2.582   1.233   3.190  0.4075  1.5145 -0.5376
  578SOL     OW 1732   1.331   2.707   2.562  0.0659  0.4671 -0.3891
  578SOL    HW1 1733   1.267   2.741   2.488  0.3924  1.9312 -1.0424
  578SOL    HW2 1734   1.408   2.773   2.566 -0.6461  0.8165 -0.0851
  579SOL     OW 1735   0.096   2.493   0.103  0.1138 -0.1176  0.2632
  579SOL    HW1 1736   0.085   2.494   0.207  0.3845  3.2554 -2.0064
  579SOL    HW2 1737   0.189   2.474   0.065 -0.3646 -1.2985 -0.1511
  580SOL     OW 1738   1.017   2.635   0.402 -0.1447  0.5550  0.4407
  580SOL    HW1 1739   1.110   2.636   0.359  0.9891  0.7858  0.0113
  580SOL    HW2 1740   0.941   2.582   0.350  0.7096 -0.3525  2.2309
  581SOL     OW 1741   1.270   2.582   1.518  0.4927 -0.0957 -0.2346
  581SOL    HW1 1742   1.315   2.488   1.520 -0.7696 -1.4778 -2.1526
  581SOL    HW2 1743   1.296   2.648   1.441 -0.6615 -0.5144  0.9057
  582SOL     OW 1744   1.506   0.087   1.820 -0.0804 -0.2065 -0.2638
  582SOL    HW1 1745   1.528   0.160   1.892  0.7024  0.0181  1.5948
  582SOL    HW2 1746   1.594   0.075   1.762 -0.8456 -0.7810 -0.5612
  583SOL     OW 1747   2.526   3.009   0.495  0.2399  0.3069 -0.2431
  583SOL    HW1 1748   2.538   2.927   0.434  0.2217  2.0278 -2.5514
  583SOL    HW2 1749   2.473   2.972   0.580  1.1012  0.7947 -1.8470
  584SOL     OW 1750   1.606   0.967   2.094 -0.0121 -0.4739  0.2888
  584SOL    HW1 1751   1.651   0.955   2.003 -0.5802 -1.9349 -0.6818
  584SOL    HW2 1752   1.657   0.916   2.169 -0.1013  0.7627 -2.1786
  585SOL     OW 1753   2.091   2.685   2.959  0.4281 -0.1059  0.1090
  585SOL    HW1 1754   2.125   2.603   2.911 -1.0432  1.7809  1.8368
  585SOL    HW2 1755   1.987   2.688   2.947 -1.4023 -1.2349 -0.8167
  586SOL     OW 1756   2.746   0.247   1.562  0.1814  0.4823 -0.2599
  586SOL    HW1 1757   2.765   0.335   1.615  0.8075  2.0017 -2.6078
  586SOL    HW2 1758   2.658   0.201   1.580  3.3020  0.5700 -0.8194
  587SOL     OW 1759   1.921   1.539   2.757 -0.4018 -0.3094  0.2030
  587SOL    HW1 1760   1.980   1.493   2.686 -1.1534  0.4808  0.3810
  587SOL    HW2 1761   1.967   1.533   2.853  0.8152 -0.0646 -1.2608
  588SOL     OW 1762   0.489   2.758   2.270 -0.0377 -0.1535  0.2253
  588SOL    HW1 1763   0.424   2.803   2.209 -0.1570 -1.6037  0.3739
  588SOL    HW2 1764   0.475   2.656   2.282  1.5312  1.2454 -1.1357
  589SOL     OW 1765   2.106   1.427   2.561 -0.1785 -0.3097 -0.0654
  589SOL    HW1 1766   2.029   1.391   2.499  1.6078  0.5848 -0.1612
  589SOL    HW2 1767   2.189   1.364   2.555 -0.1311 -1.8797 -2.4154
  590SOL     OW 1768   2.343   1.640   2.036  0.4769 -0.2295  0.0922
  590SOL    HW1 1769   2.412   1.581   1.986 -0.1003  1.0217 -0.9937
  590SOL    HW2 1770   2.383   1.704   2.107  0.9266  0.8714 -0.9635
  591SOL     OW 1771   1.324   2.391   0.265 -0.1195  0.2653 -0.1061
  591SOL    HW1 1772   1.399   2.336   0.220 -1.8721 -2.0496 -0.5627
  591SOL    HW2 1773   1.330   2.382   0.370  1.5730 -0.9373 -1.0244
  592SOL     OW 1774   1.757   2.319   0.755  0.2306 -0.2067 -0.2926
  592SOL    HW1 1775   1.737   2.364   0.666  0.2013 -0.0038 -0.2893
  592SOL    HW2 1776   1.854   2.347   0.782 -1.5700  1.5960  0.0957
  593SOL     OW 1777   0.669   0.297   0.116  0.4518  0.2753  0.1958
  593SOL    HW1 1778   0.729   0.276   0.039 -1.2984  1.8944 -1.0329
  593SOL    HW2 1779   0.711   0.376   0.169  0.6303 -1.6324 -1.4436
  594SOL     OW 1780   0.971   1.824   2.712  0.0678  0.1716  0.1610
  594SOL    HW1 1781   1.061   1.823   2.759 -0.3185  0.2631 -1.3812
  594SOL    HW2 1782   0.917   1.910   2.737  1.2152 -0.1656  0.4532
  595SOL     OW 1783   1.538   0.079   1.030  0.8472  0.1435  0.5161
  595SOL    HW1 1784   1.617   0.013   1.053  1.1986  2.2429  1.2375
  595SOL    HW2 1785   1.494   0.056   0.941  1.3272  1.0783  0.0111
  596SOL     OW 1786   3.064   1.484   2.251  0.1035 -0.1603  0.3949
  596SOL    HW1 1787   2.971   1.460   2.226  0.8657  0.3231  1.0447
  596SOL    HW2 1788   3.085   1.485   2.354 -1.9012 -1.9628 -0.1072
  597SOL     OW 1789   2.046   2.564   1.595 -0.1749 -0.5934 -0.3720
  597SOL    HW1 1790   2.087   2.475   1.553  1.9285 -0.0108 -0.1184
  597SOL    HW2 1791   2.105   2.608   1.673  1.3104  1.0370  2.3959
  598SOL     OW 1792   2.487   2.968   1.327  0.7746  0.1636 -0.2200
  598SOL    HW1 1793   2.575   2.982   1.384  2.4741  1.6000  0.7891
  598SOL    HW2 1794   2.509   2.925   1.233  0.2055 -0.9147 -0.4078
  599SOL     OW 1795   2.932   0.414   2.497  0.3165 -0.3605  0.0500
  599SOL    HW1 1796   3.001   0.486   2.477 -0.1204 -3.0610  0.3497
  599SOL    HW2 1797   2.844   0.438   2.447  0.0171  0.8395 -0.8881
  600SOL     OW 1798   2.786   1.131   2.698 -0.7367  0.4207 -0.9478
  600SOL    HW1 1799   2.700   1.083   2.675 -0.0759 -3.8824  2.2614
  600SOL    HW2 1800   2.776   1.190   2.782  0.2608 -1.1497  1.3137
  601SOL     OW 1801   2.978   1.262   1.916 -0.3227  0.5158 -0.0645
  601SOL    HW1 1802   2.897   1.285   1.852 -0.7939 -2.1701  0.3306
  601SOL    HW2 1803   3.052   1.336   1.923  2.0257  1.9685 -0.4707
  602SOL     OW 1804   1.421   1.695   2.347  0.1963 -0.0012 -0.6432
  602SOL    HW1 1805   1.356   1.609   2.352 -0.1220 -2.1708 -2.7925
  602SOL    HW2 1806   1.521   1.665   2.362 -2.7694  0.0604  1.0050
  603SOL     OW 1807   0.637   1.229   2.720  0.2732 -0.0563 -0.1220
  603SOL    HW1 1808   0.554   1.217   2.655 -2.4200  1.4902 -0.4852
  603SOL    HW2 1809   0.712   1.160   2.697 -2.9264 -2.8856  0.5575
  604SOL     OW 1810   2.416   1.013   0.153 -0.2981 -0.0634 -0.2800
  604SOL    HW1 1811   2.476   1.072   0.096 -3.9023  0.7375  1.4617
  604SOL    HW2 1812   2.397   0.922   0.099  1.2751 -2.3181  0.7026
  605SOL     OW 1813   2.560   1.165   1.886 -1.3865 -0.0083 -0.4459
  605SOL    HW1 1814   2.570   1.076   1.836  1.7619  1.7720  1.0100
  605SOL    HW2 1815   2.579   1.155   1.990 -0.7124 -1.4997 -1.5376
  606SOL     OW 1816   1.500   2.478   2.661 -0.5568 -0.2879 -0.5861
  606SOL    HW1 1817   1.438   2.557   2.633 -1.0576  2.9956 -1.7424
  606SOL    HW2 1818   1.467   2.391   2.617 -0.8997  1.4984 -0.7723
  607SOL     OW 1819   1.387   1.645   0.445 -0.2249  0.1274  0.1600
  607SOL    HW1 1820   1.312   1.712   0.473  0.9126 -0.8324 -1.2427
  607SOL    HW2 1821   1.453   1.690   0.380  0.6478 -1.1694  1.1071
  608SOL     OW 1822   1.455   2.861   0.388  0.4885  0.6934  0.0945
  608SOL    HW1 1823   1.531   2.924   0.355 -0.1390  2.8807  0.8482
  608SOL    HW2 1824   1.379   2.914   0.435 -0.2416  0.3626 -0.8897
  609SOL     OW 1825   1.318   1.406   0.264  0.0035 -0.2651 -0.4081
  609SOL    HW1 1826   1.308   1.457   0.361  2.2799  1.4358  2.2292
  609SOL    HW2 1827   1.259   1.453   0.193 -0.0533  0.7996  2.0828
  610SOL     OW 1828   3.008   1.144   2.217  0.0023 -0.0280 -0.2476
  610SOL    HW1 1829   2.975   1.041   2.213 -0.6884  0.0574  0.8391
  610SOL    HW2 1830   3.015   1.185   2.122  0.9539  0.2650 -0.4080
  611SOL     OW 1831   2.609   0.298   1.130 -0.0089 -0.0308 -0.4909
  611SOL    HW1 1832   2.559   0.236   1.197  1.1224 -0.1611  1.7782
  611SOL    HW2 1833   2.706   0.320   1.157 -0.6880 -0.1637  0.3309
  612SOL     OW 1834   0.776   2.232   1.209 -0.0773  0.2414 -0.9759
  612SOL    HW1 1835   0.701   2.184   1.258  0.1858  2.7005 -2.9281
  612SOL    HW2 1836   0.748   2.322   1.167  1.2121  0.9575 -0.7954
  613SOL     OW 1837   0.807   1.435   2.411 -0.4826 -0.1827  0.2931
  613SOL    HW1 1838   0.864   1.482   2.338 -1.9754  1.6503  0.5275
  613SOL    HW2 1839   0.713   1.404   2.378 -0.4732 -1.4632  0.6797
  614SOL     OW 1840   1.600   1.652   1.947 -0.4266  0.0312  0.1096
  614SOL    HW1 1841   1.542   1.728   1.990 -2.1908  0.5357  0.2416
  614SOL    HW2 1842   1.687   1.634   2.002 -1.5957  1.4244  1.9263
  615SOL     OW 1843   0.803   1.300   1.713 -0.1411  0.3532  0.3939
  615SOL    HW1 1844   0.713   1.278   1.668  1.2672 -1.2934 -1.2669
  615SOL    HW2 1845   0.852   1.355   1.645 -0.7885 -0.8700 -0.5316
  616SOL     OW 1846   1.060   1.625   2.329  0.1798  0.0622 -0.4868
  616SOL    HW1 1847   0.991   1.605   2.258 -0.0127  0.6555 -0.9414
  616SOL    HW2 1848   1.071   1.724   2.338  3.0868 -0.2432 -1.6638
  617SOL     OW 1849   2.949   1.552   1.594  0.0872  0.1275  0.1784
  617SOL    HW1 1850   2.884   1.485   1.637 -3.8114  0.8537 -1.1774
  617SOL    HW2 1851   2.982   1.518   1.498  1.7143  2.2642 -1.6862
  618SOL     OW 1852   1.937   2.006   1.359 -0.5167 -0.5044  0.8258
  618SOL    HW1 1853   1.903   2.052   1.272  0.4447 -0.9865  1.3201
  618SOL    HW2 1854   1.959   1.908   1.345  1.4610  1.9411  1.0852
  619SOL     OW 1855   1.765   0.437   2.354  0.2259 -0.2501  0.6405
  619SOL    HW1 1856   1.674   0.481   2.321  0.5072  0.0195 -0.4595
  619SOL    HW2 1857   1.742   0.333   2.358  1.8995 -1.2943 -0.1989
  620SOL     OW 1858   2.323   2.945   0.693 -0.4934 -0.4687 -0.7211
  620SOL    HW1 1859   2.282   3.032   0.718 -0.5046  0.2501 -0.1242
  620SOL    HW2 1860   2.330   2.877   0.772  3.2011  1.0185 -1.1947
  621SOL     OW 1861   2.148   1.779   1.313  0.2958 -0.0198 -0.7629
  621SOL    HW1 1862   2.164   1.779   1.418  2.0095  1.5168  1.8039
  621SOL    HW2 1863   2.074   1.708   1.286  2.7433 -1.0988  2.1648
  622SOL     OW 1864   2.264   0.892   1.774  0.1923  0.4146 -0.1811
  622SOL    HW1 1865   2.365   0.898   1.767 -0.8669  1.4998  0.7277
  622SOL    HW2 1866   2.235   0.824   1.847  2.3486 -1.1015  2.6368
  623SOL     OW 1867   1.319   0.816   2.593  0.1595  0.6013  0.1852
  623SOL    HW1 1868   1.327   0.729   2.647 -0.7413 -1.0471 -2.0561
  623SOL    HW2 1869   1.252   0.806   2.515  0.1494 -1.9860  0.8364
  624SOL     OW 1870   0.523   0.716   3.071  0.0434 -0.2209 -0.4214
  624SOL    HW1 1871   0.565   0.708   2.975 -0.4776  1.5625 -0.0648
  624SOL    HW2 1872   0.527   0.811   3.100  2.4773 -0.4907 -0.2742
  625SOL     OW 1873   2.807   1.700   1.032 -0.3743 -0.5778  0.2683
  625SOL    HW1 1874   2.706   1.736   1.032 -0.6905  1.4405  1.7502
  625SOL    HW2 1875   2.874   1.775   1.053 -0.6677 -3.1760  0.2579
  626SOL     OW 1876   0.590   2.728   1.738 -0.3690 -0.1108  0.0729
  626SOL    HW1 1877   0.644   2.789   1.801  0.9792 -0.2199 -0.5882
  626SOL    HW2 1878   0.491   2.725   1.760  0.0716  2.1333 -3.0330
  627SOL     OW 1879   0.710   0.986   1.516  0.4359  0.7633 -0.2634
  627SOL    HW1 1880   0.659   0.915   1.458  2.0245 -2.5091 -3.1599
  627SOL    HW2 1881   0.771   1.043   1.458 -1.2115 -0.0295  0.8281
  628SOL     OW 1882   2.489   0.117   0.686  0.0218  0.4135  0.6349
  628SOL    HW1 1883   2.516   0.047   0.611 -0.0258  0.1598 -0.5960
  628SOL    HW2 1884   2.389   0.130   0.682 -1.6778 -1.9196 -2.3952
  629SOL     OW 1885   1.998   0.919   2.002  0.2069  0.3458 -0.5415
  629SOL    HW1 1886   2.046   0.948   1.915 -0.4056  1.3960  0.4190
  629SOL    HW2 1887   1.964   1.002   2.051  1.2783 -0.3093  0.2503
  630SOL     OW 1888   2.920   2.308   0.813 -0.9175  0.0847  0.2785
  630SOL    HW1 1889   2.855   2.383   0.841  0.7779  1.0235 -0.9135
  630SOL    HW2 1890   2.876   2.218   0.782  0.9928  0.2630 -1.9926
  631SOL     OW 1891   3.047   0.178   2.138 -0.5094 -0.7903 -0.4110
  631SOL    HW1 1892   3.099   0.226   2.217  1.9735  0.4204 -0.9458
  631SOL    HW2 1893   3.071   0.216   2.048  1.6584 -1.6125 -0.3581
  632SOL     OW 1894   2.412   2.573   0.645 -0.4229  0.0545  0.0226
  632SOL    HW1 1895   2.384   2.652   0.712 -1.3754  1.6661 -0.4895
  632SOL    HW2 1896   2.392   2.596   0.541  1.3452 -1.4248  0.3830
  633SOL     OW 1897   1.404   1.212   2.656 -0.5806 -0.0606 -0.0136
  633SOL    HW1 1898   1.414   1.310   2.682  1.3227 -1.5650 -0.4001
  633SOL    HW2 1899   1.352   1.206   2.563  0.3092 -0.1278  1.3194
  634SOL     OW 1900   0.682   2.046   0.857  0.2685  0.5743  0.6621
  634SOL    HW1 1901   0.603   2.048   0.925  0.4043  1.1401  2.0927
  634SOL    HW2 1902   0.776   2.052   0.902  1.4511 -2.6363 -0.7043
  635SOL     OW 1903   2.979   2.340   0.031 -0.5309 -0.0724 -0.4813
  635SOL    HW1 1904   2.912   2.398  -0.017 -0.2719 -0.7094  0.7402
  635SOL    HW2 1905   3.071   2.388   0.043 -1.3275  0.6113  0.9264
  636SOL     OW 1906   2.323   2.751   1.981 -0.1025 -0.2991  0.7444
  636SOL    HW1 1907   2.293   2.847   2.004 -0.6570  0.7291  0.9713
  636SOL    HW2 1908   2.265   2.678   2.033  0.1448  1.7024  0.6747
  637SOL     OW 1909   2.696   0.605   1.975 -0.5404 -0.3555  0.0817
  637SOL    HW1 1910   2.629   0.590   1.897 -2.0184 -2.3941 -1.7502
  637SOL    HW2 1911   2.703   0.702   2.001 -3.0244 -3.8323  0.0024
  638SOL     OW 1912   2.423   1.818   1.280  0.3173 -0.1453 -0.6978
  638SOL    HW1 1913   2.320   1.791   1.270  0.3004 -0.1576 -0.3542
  638SOL    HW2 1914   2.470   1.752   1.345 -0.9566  2.9641  0.0935
  639SOL     OW 1915   1.301   2.080   1.716 -0.4131 -0.4488  0.2311
  639SOL    HW1 1916   1.324   2.161   1.653 -1.7376  0.0483 -1.0939
  639SOL    HW2 1917   1.199   2.081   1.750  0.4464 -1.8588 -0.5986
  640SOL     OW 1918   0.207   1.175   1.570 -0.3216 -0.3371  0.3211
  640SOL    HW1 1919   0.200   1.215   1.668 -1.6708  1.9883 -0.7333
  640SOL    HW2 1920   0.296   1.117   1.548  0.8515 -0.6103  1.8845
  641SOL     OW 1921   2.009   0.240   1.524  0.4647 -0.5837  0.8807
  641SOL    HW1 1922   1.979   0.268   1.619 -0.0269  2.7618 -0.3796
  641SOL    HW2 1923   2.104   0.206   1.520 -1.3116  1.0576  2.0391
  642SOL     OW 1924   2.016   3.079   0.327 -0.2147 -0.5403 -0.1735
  642SOL    HW1 1925   2.113   3.108   0.352 -1.2609  2.2185 -2.1609
  642SOL    HW2 1926   1.947   3.089   0.403 -0.6007  2.5744 -0.3181
  643SOL     OW 1927   2.933   1.792   2.143 -0.4926  0.2738  0.3366
  643SOL    HW1 1928   2.876   1.748   2.066  1.1904 -1.3457 -2.4349
  643SOL    HW2 1929   2.976   1.885   2.118  0.8654 -1.0793 -1.4591
  644SOL     OW 1930   2.196   2.385   1.189 -0.3416 -0.7117 -0.6533
  644SOL    HW1 1931   2.263   2.318   1.152 -1.3914 -1.0653  0.3241
  644SOL    HW2 1932   2.162   2.364   1.285  2.4001  1.7927  0.6978
  645SOL     OW 1933   0.617   0.837   1.287  0.1902 -0.5379  0.0461
  645SOL    HW1 1934   0.512   0.845   1.302 -1.6349  1.9668 -3.3843
  645SOL    HW2 1935   0.644   0.844   1.187 -0.1797 -1.0896 -2.2965
  646SOL     OW 1936   1.417   1.829   2.090  0.4047 -0.0633  0.6301
  646SOL    HW1 1937   1.414   1.931   2.071 -0.5891  0.3379  1.2627
  646SOL    HW2 1938   1.431   1.807   2.192  1.5187 -0.1136  0.7517
  647SOL     OW 1939   0.793   1.041   0.678  0.2386  0.4502  0.4599
  647SOL    HW1 1940   0.844   1.076   0.761 -0.2968 -0.9384 -3.7334
  647SOL    HW2 1941   0.738   0.956   0.701  0.3853  1.6365  1.9247
  648SOL     OW 1942   0.122   0.258   0.271 -0.6432 -0.0035 -0.0076
  648SOL    HW1 1943   0.146   0.196   0.197 -1.1906 -0.3672  3.5871
  648SOL    HW2 1944   0.116   0.360   0.240  0.7029 -0.6956 -0.4130
  649SOL     OW 1945   3.026   0.243   0.848 -0.0438 -0.0678 -0.2164
  649SOL    HW1 1946   3.110   0.195   0.881  1.2715 -1.1400 -1.4736
  649SOL    HW2 1947   3.041   0.344   0.846 -1.5987  0.4289 -1.0829
  650SOL     OW 1948   2.763   0.691   1.510  0.4260  1.0120 -0.0373
  650SOL    HW1 1949   2.661   0.686   1.517  0.0993  1.8196  0.2023
  650SOL    HW2 1950   2.792   0.772   1.448  2.7709  0.5694 -0.9767
  651SOL     OW 1951   0.916   1.499   1.537 -0.2744 -0.3690 -0.5760
  651SOL    HW1 1952   0.947   1.588   1.583 -0.0210 -0.0219  2.7952
  651SOL    HW2 1953   0.983   1.456   1.472 -1.3962 -2.1242  2.1940
  652SOL     OW 1954   2.367   2.386   2.410 -0.2687 -0.0503  0.1556
  652SOL    HW1 1955   2.274   2.426   2.427  0.6000 -0.2333  2.4806
  652SOL    HW2 1956   2.411   2.417   2.323 -0.9041  0.5751  1.0802
  653SOL     OW 1957   2.667   1.218   0.235  0.1702 -0.0040 -0.0674
  653SOL    HW1 1958   2.684   1.318   0.266  0.6735  1.0066  1.5892
  653SOL    HW2 1959   2.754   1.158   0.242  2.8046 -0.0786  2.1572
  654SOL     OW 1960   1.247   2.237   1.268 -0.6302 -0.3983 -0.7461
  654SOL    HW1 1961   1.264   2.153   1.332  1.2725 -2.2450 -0.1181
  654SOL    HW2 1962   1.300   2.236   1.179 -0.8321  0.5678 -0.0575
  655SOL     OW 1963   0.145   0.931   1.864  0.1608  0.0644  0.5497
  655SOL    HW1 1964   0.209   0.873   1.805  1.7392  0.1633 -1.2339
  655SOL    HW2 1965   0.164   1.032   1.852  1.2985 -0.9347 -0.3715
  656SOL     OW 1966   2.573   2.437   2.598 -0.1066  0.4090  0.2261
  656SOL    HW1 1967   2.668   2.413   2.564  2.0559  1.7247 -1.7398
  656SOL    HW2 1968   2.502   2.407   2.528  1.2820 -1.1898  0.8157
  657SOL     OW 1969   2.983   0.987   1.920  0.1418  0.0911 -0.3368
  657SOL    HW1 1970   2.980   1.093   1.935 -0.3817  0.2477  0.4370
  657SOL    HW2 1971   3.079   0.957   1.899 -2.6741 -2.4800 -0.2431
  658SOL     OW 1972   1.694   0.186   2.363 -0.3894  0.0631 -0.0049
  658SOL    HW1 1973   1.709   0.111   2.436 -1.0413 -1.0100 -0.3207
  658SOL    HW2 1974   1.717   0.157   2.268 -1.0208 -0.1775  1.0726
  659SOL     OW 1975   1.389   0.633   2.841 -0.2478 -0.3324  0.2291
  659SOL    HW1 1976   1.450   0.699   2.895  1.2795  2.6434 -0.2861
  659SOL    HW2 1977   1.290   0.641   2.863  1.3743 -0.6746 -0.2030
  660SOL     OW 1978   1.417   0.344   1.446 -0.1622 -0.3651 -0.1681
  660SOL    HW1 1979   1.409   0.358   1.546 -0.5607 -1.6255 -0.6637
  660SOL    HW2 1980   1.496   0.276   1.436 -2.3584 -3.4375  0.4873
  661SOL     OW 1981   2.327   1.204   0.660  0.2292 -0.1472 -0.3798
  661SOL    HW1 1982   2.376   1.203   0.568  1.1231 -1.7816  0.0942
  661SOL    HW2 1983   2.337   1.297   0.713 -0.2048  1.5047  1.5810
  662SOL     OW 1984   1.375   0.376   1.718  0.1315 -0.4349  0.1880
  662SOL    HW1 1985   1.296   0.345   1.776  0.3551  0.4259  0.4307
  662SOL    HW2 1986   1.406   0.473   1.730  0.7551  0.5269 -0.2855
  663SOL     OW 1987   0.857   1.550   2.166 -0.7664 -0.0160  1.1232
  663SOL    HW1 1988   0.797   1.615   2.212  3.4257 -3.3750 -2.6608
  663SOL    HW2 1989   0.808   1.480   2.104 -1.3048  1.1251  1.0648
  664SOL     OW 1990   1.608   2.060   1.367  0.0819 -0.4231 -0.1112
  664SOL    HW1 1991   1.552   1.986   1.413 -1.6907  0.3392  1.8760
  664SOL    HW2 1992   1.711   2.054   1.394 -1.5008 -1.3988 -0.2410
  665SOL     OW 1993   2.242   0.699   1.999 -0.0503 -0.4473  0.3658
  665SOL    HW1 1994   2.145   0.691   2.022  1.3190  1.2708  1.1687
  665SOL    HW2 1995   2.309   0.682   2.076 -0.2494 -0.1492 -0.7028
  666SOL     OW 1996   0.463   2.331   0.312 -0.8572  0.0867 -0.1373
  666SOL    HW1 1997   0.521   2.372   0.384 -2.0342  2.5924 -0.9584
  666SOL    HW2 1998   0.366   2.317   0.346 -0.7403 -1.4975 -2.1309
  667SOL     OW 1999   2.054   0.191   1.120  0.2960  0.1507  0.5210
  667SOL    HW1 2000   2.069   0.294   1.107 -0.4561  1.8965  0.9740
  667SOL    HW2 2001   1.970   0.165   1.175  1.9606 -0.7721  3.0739
  668SOL     OW 2002   2.063   0.464   1.128  0.1046 -0.1563 -0.6563
  668SOL    HW1 2003   2.115   0.512   1.045  2.5224 -0.3322 -2.7769
  668SOL    HW2 2004   2.098   0.489   1.220  0.0020  1.4076  0.7215
  669SOL     OW 2005   3.073   2.132   1.011 -0.1611  0.0475  0.3563
  669SOL    HW1 2006   3.005   2.180   0.942 -0.6378  3.5677 -0.3893
  669SOL    HW2 2007   3.112   2.200   1.082 -1.1143 -1.3693  0.9793
  670SOL     OW 2008   2.887   2.331   2.068 -0.3753 -0.0154 -0.1445
  670SOL    HW1 2009   2.814   2.279   2.121  2.7374 -1.1640 -2.2917
  670SOL    HW2 2010   2.875   2.439   2.071 -0.5370  2.2408  0.0132
  671SOL     OW 2011   1.734   1.780   1.449 -0.3297 -0.0093  0.0854
  671SOL    HW1 2012   1.739   1.779   1.345 -1.2095 -3.2406  1.9539
  671SOL    HW2 2013   1.642   1.811   1.483 -1.8371 -1.5428 -3.2490
  672SOL     OW 2014   0.433   0.601   2.375  0.0950 -0.1213 -0.4224
  672SOL    HW1 2015   0.497   0.633   2.299  0.4641 -0.3458  0.4886
  672SOL    HW2 2016   0.354   0.664   2.385  0.2624 -0.6376 -0.0038
  673SOL     OW 2017   0.144   1.211   1.152 -0.1753  0.0395 -0.1609
  673SOL    HW1 2018   0.163   1.281   1.227 -1.2818  1.6675 -0.2764
  673SOL    HW2 2019   0.231   1.157   1.130 -1.3220  0.3256  0.5132
  674SOL     OW 2020   1.677   3.013   0.314 -0.1342 -0.2611 -0.3897
  674SOL    HW1 2021   1.653   3.112   0.299  0.1277  0.4517 -1.8187
  674SOL    HW2 2022   1.728   2.975   0.236 -0.2232  0.5526  1.8009
  675SOL     OW 2023   1.737   0.808   2.286 -0.2981  0.2201  0.5833
  675SOL    HW1 2024   1.838   0.793   2.294  0.6871 -0.6418 -1.7878
  675SOL    HW2 2025   1.684   0.719   2.267  1.0421 -1.1706 -0.3410
  676SOL     OW 2026   2.548   1.496   1.930 -0.1173  0.0688 -0.0043
  676SOL    HW1 2027   2.468   1.467   1.864  3.3584  0.4434 -1.7963
  676SOL    HW2 2028   2.558   1.430   2.008  0.0385  0.3442  0.8295
  677SOL     OW 2029   1.887   0.672   0.930  0.2364 -0.2954 -0.2660
  677SOL    HW1 2030   1.790   0.666   0.969 -2.8110  0.6734  1.9731
  677SOL    HW2 2031   1.916   0.578   0.891  0.1070 -0.5675 -4.0511
  678SOL     OW 2032   0.067   0.731   1.631  0.1288  0.0501  0.0594
  678SOL    HW1 2033   0.164   0.764   1.647 -1.4948 -0.5289  1.7876
  678SOL    HW2 2034   0.014   0.708   1.720 -1.0076 -0.9803  0.6884
  679SOL     OW 2035   2.518   1.223   1.216 -0.5277 -0.2800 -0.3880
  679SOL    HW1 2036   2.424   1.259   1.218  1.6359  1.3237 -0.5291
  679SOL    HW2 2037   2.528   1.121   1.193  1.4842 -0.7675  0.6658
  680SOL     OW 2038   2.805   0.501   1.701 -0.1542  0.1586  0.0482
  680SOL    HW1 2039   2.787   0.572   1.620 -1.0387  2.2872 -1.9470
  680SOL    HW2 2040   2.894   0.528   1.743 -0.4591  0.1607 -0.1809
  681SOL     OW 2041   2.976   0.117   1.591  0.2464 -0.0455  0.1448
  681SOL    HW1 2042   3.037   0.121   1.508  2.6141  0.2666 -1.9487
  681SOL    HW2 2043   2.883   0.165   1.563 -2.6727 -1.6943 -0.7435
  682SOL     OW 2044   0.769   0.052   1.316  0.3954 -0.3069  0.1806
  682SOL    HW1 2045   0.682   0.017   1.356 -1.0952 -0.9057  1.1837
  682SOL    HW2 2046   0.777   0.010   1.221 -1.6826 -2.1098 -0.9786
  683SOL     OW 2047   1.365   0.225   2.180 -0.6491 -0.0651 -0.1233
  683SOL    HW1 2048   1.388   0.221   2.281  0.1893  1.8136  1.1096
  683SOL    HW2 2049   1.420   0.286   2.117  0.3289 -0.2322 -1.9394
  684SOL     OW 2050   1.491   2.076   0.462 -0.0992  0.6209 -0.1241
  684SOL    HW1 2051   1.523   2.036   0.556 -1.8576 -2.4685 -0.8971
  684SOL    HW2 2052   1.400   2.046   0.433  0.0463  0.9980  0.3849
  685SOL     OW 2053   2.162   2.072   1.924 -0.1830 -0.1747  0.0627
  685SOL    HW1 2054   2.214   2.087   1.834  2.5748 -0.9898 -1.3326
  685SOL    HW2 2055   2.222   2.030   2.002 -1.1247  0.7216 -1.6218
  686SOL     OW 2056   1.504   1.852   2.763  0.0236 -0.5366 -0.2677
  686SOL    HW1 2057   1.529   1.784   2.841 -3.2072 -1.0460  0.3971
  686SOL    HW2 2058   1.476   1.810   2.673  0.0955  0.4215  0.5990
  687SOL     OW 2059   1.345   2.473   1.947 -0.2431 -0.3016 -0.1786
  687SOL    HW1 2060   1.318   2.376   1.952 -2.6540  0.7013 -2.3324
  687SOL    HW2 2061   1.377   2.506   2.042 -0.8942 -0.3963  0.4524
  688SOL     OW 2062   2.009   1.501   1.775  0.0177 -0.2278 -0.1429
  688SOL    HW1 2063   2.028   1.599   1.790  2.7238 -0.9559 -0.8394
  688SOL    HW2 2064   2.043   1.452   1.687 -1.9849 -0.9450 -1.5334
  689SOL     OW 2065   2.383   1.075   2.782 -0.5846  0.0340 -0.7929
  689SOL    HW1 2066   2.289   1.032   2.769 -0.4135  2.9166 -0.1594
  689SOL    HW2 2067   2.429   1.032   2.865  1.0396  0.5478 -2.7781
  690SOL     OW 2068   2.234   2.805   0.072  0.0933 -0.7938  0.2027
  690SOL    HW1 2069   2.161   2.759   0.013 -3.2065 -3.7558 -1.4995
  690SOL    HW2 2070   2.202   2.815   0.171 -0.2713  0.2643 -0.1183
  691SOL     OW 2071   2.598   0.414   2.138 -0.8783  0.4445  0.0343
  691SOL    HW1 2072   2.656   0.331   2.115  2.0135  1.3210 -1.1575
  691SOL    HW2 2073   2.642   0.489   2.088 -1.3350 -0.8323  4.0793
  692SOL     OW 2074   2.702   1.272   0.747  0.1699  0.6244  0.3950
  692SOL    HW1 2075   2.715   1.329   0.664  3.4549 -1.3918 -1.2998
  692SOL    HW2 2076   2.744   1.319   0.831  1.7411 -2.1901 -1.0350
  693SOL     OW 2077   2.832   2.918   0.648  0.2351  0.0209 -0.0932
  693SOL    HW1 2078   2.825   2.998   0.713  0.3324  1.5272 -1.5449
  693SOL    HW2 2079   2.854   2.951   0.552  0.4424  2.9903  0.6337
  694SOL     OW 2080   2.417   2.207   0.088  0.2125 -0.2906  0.1417
  694SOL    HW1 2081   2.406   2.268   0.169 -0.2811 -1.7147 -1.5983
  694SOL    HW2 2082   2.328   2.167   0.055  1.5104 -3.4701  2.1278
  695SOL     OW 2083   0.548   3.001   1.478  0.0285  0.4186 -0.2517
  695SOL    HW1 2084   0.492   2.922   1.439  1.7349  0.6860  1.0461
  695SOL    HW2 2085   0.498   3.048   1.553 -0.1833  1.7803 -2.1471
  696SOL     OW 2086   2.831   2.079   0.721 -0.0788  0.1313  0.0007
  696SOL    HW1 2087   2.894   1.997   0.738 -0.6578 -0.2869 -0.5930
  696SOL    HW2 2088   2.789   2.071   0.627  0.2655 -1.0778  0.6622
  697SOL     OW 2089   1.590   1.996   1.855  0.1909  0.2645  0.0706
  697SOL    HW1 2090   1.602   1.896   1.852 -1.4580 -2.2684 -0.2141
  697SOL    HW2 2091   1.676   2.051   1.863  0.3495  0.9578  0.6446
  698SOL     OW 2092   2.932   0.398   2.774 -0.0587  0.3124  0.1234
  698SOL    HW1 2093   2.937   0.404   2.672 -3.1856  1.5083  0.9495
  698SOL    HW2 2094   2.994   0.327   2.823 -2.9914 -2.0912  2.0101
  699SOL     OW 2095   1.556   0.077   2.908 -0.2476  0.4103 -0.0461
  699SOL    HW1 2096   1.531  -0.017   2.875  0.5279  2.5183  0.7699
  699SOL    HW2 2097   1.606   0.130   2.830  0.6607  0.3218 -0.9061
  700SOL     OW 2098   0.999   2.329   1.338  0.6269  0.3511  0.3118
  700SOL    HW1 2099   1.086   2.286   1.298 -0.4755  0.2038 -0.5362
  700SOL    HW2 2100   0.915   2.281   1.298 -0.7768  0.7543 -2.5370
  701SOL     OW 2101   1.875   2.913   3.062 -0.4255 -0.1124 -0.0445
  701SOL    HW1 2102   1.837   2.855   3.136  0.3163 -0.3368 -2.5821
  701SOL    HW2 2103   1.943   2.984   3.095 -1.8023 -0.5524 -1.2510
  702SOL     OW 2104   2.094   1.312   1.964  0.5920 -0.5857  0.1766
  702SOL    HW1 2105   2.185   1.265   1.957 -1.1617 -0.4742 -0.2321
  702SOL    HW2 2106   2.068   1.376   1.883 -0.9130  1.9862  1.4641
  703SOL     OW 2107   1.930   0.909   1.435 -0.4018  0.1310 -0.1027
  703SOL    HW1 2108   1.893   0.842   1.507  0.3259 -0.3726 -1.2852
  703SOL    HW2 2109   2.006   0.971   1.469 -0.5892 -1.6190 -1.8464
  704SOL     OW 2110   0.301   2.035   1.711  0.3849 -0.0451  0.1877
  704SOL    HW1 2111   0.349   1.984   1.790 -0.0947 -0.0363  3.2946
  704SOL    HW2 2112   0.368   2.103   1.664 -1.1184 -0.5956  1.0228
  705SOL     OW 2113   2.526   1.556   0.893  0.1966  0.0170  0.6434
  705SOL    HW1 2114   2.462   1.495   0.844  3.8035  0.8872  1.1862
  705SOL    HW2 2115   2.625   1.522   0.899  1.3293  0.3208  0.1766
  706SOL     OW 2116   0.632   1.677   1.895 -0.7583 -0.8989 -0.0674
  706SOL    HW1 2117   0.660   1.589   1.937 -1.3284  1.7546  0.4353
  706SOL    HW2 2118   0.699   1.755   1.918 -0.8795 -0.7371 -1.8046
  707SOL     OW 2119   2.298   1.163   1.865  0.2337 -0.2706 -0.4653
  707SOL    HW1 2120   2.402   1.166   1.865 -0.1214  0.2922  2.4582
  707SOL    HW2 2121   2.263   1.070   1.832 -0.4500 -0.9904  2.8021
  708SOL     OW 2122   3.041   0.559   3.070  0.7859 -0.0705  0.3112
  708SOL    HW1 2123   3.033   0.628   2.996 -1.6706  0.0711  3.5957
  708SOL    HW2 2124   3.004   0.468   3.042  1.0465  0.5842 -0.5058
  709SOL     OW 2125   1.850   1.841   0.282  0.0428  0.1985 -0.4474
  709SOL    HW1 2126   1.896   1.931   0.316 -0.9554  0.5932 -2.6649
  709SOL    HW2 2127   1.845   1.837   0.175 -0.2438 -1.0195 -1.8071
  710SOL     OW 2128   1.668   1.616   2.389 -0.1122  0.0258  0.2812
  710SOL    HW1 2129   1.730   1.591   2.312  0.2212  1.6314 -0.1273
  710SOL    HW2 2130   1.678   1.551   2.471 -0.9897  0.3023  1.6041
  711SOL     OW 2131   2.560   2.914   1.053 -0.4820 -0.6384  0.3367
  711SOL    HW1 2132   2.547   3.010   1.016  0.6987 -2.6402  0.2110
  711SOL    HW2 2133   2.656   2.898   1.082 -1.2102  0.7464 -1.4147
  712SOL     OW 2134   1.389   2.198   1.955  0.1056  0.4649  0.0684
  712SOL    HW1 2135   1.492   2.196   1.973  3.3261  2.0092 -2.9371
  712SOL    HW2 2136   1.360   2.135   1.878 -1.4300 -2.4124  0.8520
  713SOL     OW 2137   2.826   1.438   2.524  0.4229  0.3433  0.1129
  713SOL    HW1 2138   2.833   1.337   2.501  1.8120 -0.3229 -0.3616
  713SOL    HW2 2139   2.738   1.466   2.569  0.4630  1.0136 -0.7470
  714SOL     OW 2140   2.675   0.473   2.402  0.2350  0.5577  0.6853
  714SOL    HW1 2141   2.602   0.455   2.473  0.3295 -0.0422  4.1304
  714SOL    HW2 2142   2.642   0.451   2.306 -1.6751  0.6581  1.0348
  715SOL     OW 2143   1.561   2.029   1.110  0.5839  0.4830 -0.1282
  715SOL    HW1 2144   1.474   2.086   1.085 -1.3224  1.7781 -0.3003
  715SOL    HW2 2145   1.582   2.041   1.210 -2.0619 -0.7082 -1.0762
  716SOL     OW 2146   1.168   0.171   1.493 -0.3906  0.5548  0.0110
  716SOL    HW1 2147   1.072   0.186   1.441  0.8028  2.6347 -2.6786
  716SOL    HW2 2148   1.238   0.248   1.479  0.3994  2.2333 -3.4107
  717SOL     OW 2149   1.170   0.566   1.536 -0.4690  0.1746 -0.2713
  717SOL    HW1 2150   1.256   0.624   1.568 -0.2024 -2.5974 -0.0664
  717SOL    HW2 2151   1.167   0.546   1.433  2.6225 -2.0313  1.3181
  718SOL     OW 2152   0.686   0.886   0.999 -0.2013 -0.2299  0.0983
  718SOL    HW1 2153   0.653   0.873   0.902 -1.1105  0.5742 -0.8829
  718SOL    HW2 2154   0.706   0.990   1.024  0.0892  0.4705  0.0383
  719SOL     OW 2155   0.635   1.691   2.341 -0.0660  0.0171 -0.4756
  719SOL    HW1 2156   0.695   1.762   2.375 -2.5069 -0.4568 -0.5234
  719SOL    HW2 2157   0.552   1.664   2.399 -1.7148 -0.3040  1.6449
  720SOL     OW 2158   2.173   1.124   0.291  0.1230  0.5683 -0.5765
  720SOL    HW1 2159   2.240   1.054   0.245  1.4081 -2.4783 -1.0405
  720SOL    HW2 2160   2.141   1.095   0.389 -0.3069  1.1287  2.4935
  721SOL     OW 2161   2.297   3.006   2.068 -0.0524 -0.0220  0.1446
  721SOL    HW1 2162   2.277   3.041   1.976 -0.6454 -2.5878  0.2857
  721SOL    HW2 2163   2.256   3.050   2.154  0.8952  2.0549  1.7078
  722SOL     OW 2164   2.283   1.590   0.499  0.7084  0.1372 -0.1208
  722SOL    HW1 2165   2.327   1.584   0.407 -0.9468 -1.8358 -0.0354
  722SOL    HW2 2166   2.189   1.627   0.491  1.2278  0.2995 -2.0866
  723SOL     OW 2167   2.601   2.739   1.909 -0.0254  0.1677  1.0052
  723SOL    HW1 2168   2.642   2.796   1.984 -0.5069  0.9247  0.7257
  723SOL    HW2 2169   2.502   2.718   1.929  0.7963 -0.0668  0.7905
  724SOL     OW 2170   0.498   2.492   2.396 -0.2084  0.1605 -0.4257
  724SOL    HW1 2171   0.412   2.498   2.454  1.5778  1.9171  2.2793
  724SOL    HW2 2172   0.587   2.509   2.448 -0.4644 -1.0304 -1.5408
  725SOL     OW 2173   2.340   2.770   1.491  0.1978  0.4580  0.7095
  725SOL    HW1 2174   2.389   2.819   1.418  0.5355  2.1566 -0.2922
  725SOL    HW2 2175   2.372   2.678   1.513 -0.0970  1.4082  0.4797
  726SOL     OW 2176   2.543   2.343   0.739  0.8524 -0.4819  0.5554
  726SOL    HW1 2177   2.488   2.427   0.715 -0.1305  2.3600  0.9402
  726SOL    HW2 2178   2.506   2.255   0.697  0.7243  1.9911 -0.3250
  727SOL     OW 2179   0.143   3.060   0.048 -0.5717  0.2607 -0.5251
  727SOL    HW1 2180   0.209   3.006  -0.014  1.6454  0.5967 -3.5161
  727SOL    HW2 2181   0.067   3.105  -0.002 -0.8631 -0.8598  0.1610
  728SOL     OW 2182   2.916   0.651   0.942 -0.3412 -0.2137  0.8156
  728SOL    HW1 2183   2.832   0.682   0.887  0.5582  1.8994  0.2961
  728SOL    HW2 2184   2.900   0.640   1.043  0.8700 -1.3796 -1.6265
  729SOL     OW 2185   3.072   2.538   0.712  0.4139 -0.7166  0.1223
  729SOL    HW1 2186   3.041   2.438   0.717  0.4709 -0.6424  0.8581
  729SOL    HW2 2187   3.169   2.538   0.691 -3.4268 -0.7901  0.0525
  730SOL     OW 2188   2.625   0.700   0.865  0.0223  0.2400  0.2103
  730SOL    HW1 2189   2.609   0.802   0.867  2.0856 -2.0687  0.1643
  730SOL    HW2 2190   2.675   0.673   0.774 -0.9921 -2.2522  0.9614
  731SOL     OW 2191   0.012   2.109   2.416  0.3366 -0.6158  0.4215
  731SOL    HW1 2192   0.012   2.147   2.511  0.7915 -2.4877  0.8563
  731SOL    HW2 2193  -0.080   2.099   2.371  1.7431 -1.3397 -1.1297
  732SOL     OW 2194   1.233   2.837   1.966 -0.2672  0.1933 -0.3171
  732SOL    HW1 2195   1.219   2.776   2.047  2.5881  1.3766  0.8933
  732SOL    HW2 2196   1.227   2.781   1.881  0.4479  0.3273 -0.3993
  733SOL     OW 2197   3.017   0.604   2.233  0.3758 -0.4604 -0.0403
  733SOL    HW1 2198   3.111   0.614   2.202  0.8451  0.6135 -1.6988
  733SOL    HW2 2199   2.971   0.528   2.177  1.8570 -1.2912  1.7602
  734SOL     OW 2200   1.412   0.387   2.696  0.3108  0.1307 -0.2426
  734SOL    HW1 2201   1.406   0.484   2.740 -0.8556  1.5803 -3.7410
  734SOL    HW2 2202   1.361   0.313   2.752 -1.6694 -0.1133 -0.0472
  735SOL     OW 2203   2.886   2.638   2.299  0.1563 -0.0536 -0.2856
  735SOL    HW1 2204   2.878   2.625   2.194  1.7892  3.4339 -0.6645
  735SOL    HW2 2205   2.983   2.665   2.321 -1.6356 -0.9889 -2.4769
  736SOL     OW 2206   0.866   0.360   2.569 -0.5382 -0.4333  0.4126
  736SOL    HW1 2207   0.785   0.414   2.535  1.7854  1.6657 -3.7448
  736SOL    HW2 2208   0.909   0.299   2.495 -0.4881 -0.7778 -1.8022
  737SOL     OW 2209   2.631   0.438   2.842 -0.2121  0.3406  0.1524
  737SOL    HW1 2210   2.609   0.401   2.938  1.9887 -2.4802 -1.4546
  737SOL    HW2 2211   2.718   0.394   2.805 -0.5953 -1.3665 -1.7630
  738SOL     OW 2212   1.667   1.241   2.897 -0.2826 -0.1632 -0.2744
  738SOL    HW1 2213   1.770   1.241   2.888  0.8202 -1.0852  0.4008
  738SOL    HW2 2214   1.623   1.152   2.871  0.1580 -2.7946  0.7743
  739SOL     OW 2215   1.752   0.712   0.698 -0.0769 -0.6469  0.2138
  739SOL    HW1 2216   1.807   0.698   0.785 -1.4902 -2.1424 -0.9628
  739SOL    HW2 2217   1.739   0.617   0.650  2.2634  1.9573 -1.1995
  740SOL     OW 2218   1.983   1.934   2.384 -0.4970 -0.3178  0.0680
  740SOL    HW1 2219   2.051   1.853   2.404  3.9584 -0.0267  1.1649
  740SOL    HW2 2220   1.906   1.907   2.322 -0.3449  1.5994 -1.8387
  741SOL     OW 2221   2.553   0.109   2.569 -0.2340 -0.8215  0.8579
  741SOL    HW1 2222   2.657   0.126   2.559 -0.9080 -0.8111  1.8534
  741SOL    HW2 2223   2.509   0.045   2.498 -1.1284 -0.6852 -1.4736
  742SOL     OW 2224   2.204   1.384   0.196  0.5168  0.0489  0.7808
  742SOL    HW1 2225   2.119   1.446   0.186 -0.7754 -0.4975  2.3132
  742SOL    HW2 2226   2.167   1.290   0.229 -3.3241  0.7989 -0.4273
  743SOL     OW 2227   1.788   0.623   2.586  0.3520  0.2369 -0.4980
  743SOL    HW1 2228   1.790   0.545   2.518 -0.4190 -1.4413 -0.0365
  743SOL    HW2 2229   1.713   0.702   2.562 -4.0985  4.3069 -0.2523
  744SOL     OW 2230   2.632   2.050   0.101 -0.6035  0.3605  0.4329
  744SOL    HW1 2231   2.542   2.096   0.072 -1.2205 -0.9190 -1.3605
  744SOL    HW2 2232   2.630   1.944   0.112  1.4449  3.3292 -2.7030
  745SOL     OW 2233   2.174   2.658   2.167 -0.1189  0.1667  0.5137
  745SOL    HW1 2234   2.083   2.673   2.211 -2.1046  1.5965  0.6030
  745SOL    HW2 2235   2.257   2.663   2.230  2.9581  1.3781 -0.9751
  746SOL     OW 2236   3.082   2.629   1.704  0.0318  0.0864  0.0820
  746SOL    HW1 2237   3.163   2.598   1.642  0.5226  1.0460  0.9581
  746SOL    HW2 2238   3.098   2.719   1.758  1.8835  1.1012 -0.5595
  747SOL     OW 2239   3.085   1.742   1.754  0.2154  0.0463  0.5606
  747SOL    HW1 2240   3.026   1.668   1.721  0.7111  1.7513  0.2382
  747SOL    HW2 2241   3.156   1.773   1.681  0.8863 -0.4128 -2.3811
  748SOL     OW 2242   1.827   2.720   2.896  0.1660  0.1313 -0.1167
  748SOL    HW1 2243   1.840   2.816   2.938 -3.1689  0.5959 -1.6273
  748SOL    HW2 2244   1.728   2.710   2.864  1.6593 -0.4832  1.0143
  749SOL     OW 2245   1.360   2.996   0.848  0.0523 -0.0668 -0.1287
  749SOL    HW1 2246   1.267   2.956   0.832  1.5142 -2.7881  3.3411
  749SOL    HW2 2247   1.434   2.950   0.780  2.9122 -0.2992 -4.3445
  750SOL     OW 2248   2.317   0.192   1.844 -0.3165  0.1135 -0.2054
  750SOL    HW1 2249   2.352   0.255   1.771 -2.4070 -3.6482 -0.5440
  750SOL    HW2 2250   2.324   0.224   1.944  0.8399  0.4069  0.3351
  751SOL     OW 2251   0.842   2.044   2.809  0.2896  0.5859 -0.5189
  751SOL    HW1 2252   0.899   2.095   2.880  2.5156  0.8832  0.7523
  751SOL    HW2 2253   0.738   2.039   2.828  0.1168  0.2697  2.7855
  752SOL     OW 2254   1.325   0.806   1.252 -0.0527  0.1663 -0.2145
  752SOL    HW1 2255   1.383   0.892   1.253 -0.6094  1.2980  0.9124
  752SOL    HW2 2256   1.381   0.731   1.296  0.3623  0.7015 -1.4140
  753SOL     OW 2257   0.936   2.629   1.722 -0.4061  0.0804 -1.0992
  753SOL    HW1 2258   1.039   2.649   1.736  2.4455 -1.3452  0.1879
  753SOL    HW2 2259   0.886   2.713   1.701  0.9842  0.7440  0.6485
  754SOL     OW 2260   1.149   1.190   2.996 -0.2979  0.1220 -0.4243
  754SOL    HW1 2261   1.191   1.148   2.907 -0.4497  3.4412 -0.8206
  754SOL    HW2 2262   1.180   1.290   3.019 -0.3367  0.0409  1.2675
  755SOL     OW 2263   2.000   0.485   2.232  0.4730 -0.5371 -0.3368
  755SOL    HW1 2264   2.062   0.401   2.252  0.1809 -1.8576  4.4707
  755SOL    HW2 2265   1.904   0.472   2.271  2.4595 -0.4950  0.1402
  756SOL     OW 2266   2.587   0.970   2.967 -0.5634  0.0248  0.2777
  756SOL    HW1 2267   2.687   0.979   2.988 -0.2002  0.6862  2.5715
  756SOL    HW2 2268   2.532   0.900   3.018  1.9414 -0.7324 -0.4870
  757SOL     OW 2269   0.104   0.484   1.982  0.6206  0.1650 -0.2574
  757SOL    HW1 2270   0.174   0.413   1.939 -1.1129  0.7250 -0.8227
  757SOL    HW2 2271   0.005   0.446   1.995 -1.3018 -2.4061 -1.9876
  758SOL     OW 2272   2.246   0.125   1.476  0.1801 -0.4915  0.0550
  758SOL    HW1 2273   2.233   0.026   1.505  0.6471  0.5439  0.3184
  758SOL    HW2 2274   2.300   0.135   1.386 -0.2747 -1.8748  0.7190
  759SOL     OW 2275   1.688   0.116   0.058  0.7269  0.0805  0.2385
  759SOL    HW1 2276   1.647   0.098  -0.034 -1.3845 -1.8870  0.0708
  759SOL    HW2 2277   1.794   0.121   0.058  0.5627 -0.8676  0.2967
  760SOL     OW 2278   2.629   2.060   2.816  0.4950 -0.3271 -0.0199
  760SOL    HW1 2279   2.693   1.995   2.866  1.1421  0.1577 -0.1338
  760SOL    HW2 2280   2.595   2.136   2.876 -0.1588  0.5079 -0.1882
  761SOL     OW 2281   1.871   1.766   1.696 -0.3798 -0.1034 -0.4010
  761SOL    HW1 2282   1.881   1.667   1.722  1.3894 -0.3804  0.5707
  761SOL    HW2 2283   1.808   1.789   1.622  1.7227  0.0771  0.5047
  762SOL     OW 2284   0.505   2.346   0.955  0.3556 -0.0514  0.0711
  762SOL    HW1 2285   0.544   2.324   0.858  0.6647 -0.1624 -0.8103
  762SOL    HW2 2286   0.564   2.409   1.012  0.4801 -0.6993 -0.5819
  763SOL     OW 2287   2.087   1.578   2.974 -0.2270  0.0385  0.1735
  763SOL    HW1 2288   2.165   1.515   2.964  0.4574 -0.5057  1.3463
  763SOL    HW2 2289   2.023   1.539   3.042 -0.1111  0.3539 -0.6223
  764SOL     OW 2290   0.657   0.593   0.797 -0.3137  0.1131  0.2020
  764SOL    HW1 2291   0.586   0.525   0.769  0.7303  1.7597  2.1268
  764SOL    HW2 2292   0.751   0.550   0.822  0.2794  0.0320  1.3329
  765SOL     OW 2293   0.736   0.234   0.792 -0.1403 -0.0895 -0.5306
  765SOL    HW1 2294   0.805   0.294   0.748  1.1431 -1.9871 -0.0186
  765SOL    HW2 2295   0.700   0.276   0.887 -2.0493 -0.0878  2.3815
  766SOL     OW 2296   2.860   2.105   3.053 -0.0554 -0.4294  0.9664
  766SOL    HW1 2297   2.772   2.097   3.107 -0.0752 -0.1254 -0.2622
  766SOL    HW2 2298   2.900   2.198   3.069 -0.8686 -2.7912 -1.4082
  767SOL     OW 2299   2.790   1.667   0.598 -0.0683 -0.3242  0.2507
  767SOL    HW1 2300   2.698   1.710   0.625 -2.8968  2.6019 -0.4395
  767SOL    HW2 2301   2.869   1.687   0.655  1.0534  0.1300 -1.6868
  768SOL     OW 2302   0.944   0.081   0.224 -0.0267 -0.6724  0.3182
  768SOL    HW1 2303   0.913   0.059   0.318 -1.3779 -2.8509  0.5324
  768SOL    HW2 2304   1.049   0.076   0.212 -0.0952 -2.2410 -2.6529
  769SOL     OW 2305   1.117   1.917   2.307 -0.4961  0.5009  0.0905
  769SOL    HW1 2306   1.025   1.965   2.312  1.6303  1.1328 -0.6919
  769SOL    HW2 2307   1.159   1.898   2.399  1.3674 -0.1764  0.2652
  770SOL     OW 2308   0.183   1.205   2.283 -0.1165  0.0132 -0.1427
  770SOL    HW1 2309   0.179   1.267   2.370 -1.0823  0.2119  0.5604
  770SOL    HW2 2310   0.090   1.179   2.248  0.7421 -3.1957 -0.3510
  771SOL     OW 2311   3.019   2.863   1.878 -0.3569 -0.3442 -0.5001
  771SOL    HW1 2312   2.969   2.907   1.795 -0.6584 -2.3843 -1.0458
  771SOL    HW2 2313   2.967   2.846   1.965  1.4976  2.1138 -0.6064
  772SOL     OW 2314   2.230   0.134   2.920  0.3962 -0.2911  0.5007
  772SOL    HW1 2315   2.311   0.108   2.858  2.3815  2.3882  1.2675
  772SOL    HW2 2316   2.259   0.190   3.002  0.4987 -2.4006 -1.3949
  773SOL     OW 2317   0.701   2.137   2.426  0.2349  0.2286  0.3855
  773SOL    HW1 2318   0.670   2.185   2.338  3.6814 -0.1464  1.6736
  773SOL    HW2 2319   0.627   2.131   2.496  2.6747 -1.6750  3.3092
  774SOL     OW 2320   2.063   3.093   2.590 -0.2400 -0.3870 -0.0366
  774SOL    HW1 2321   2.036   3.180   2.643  1.6586  3.6589  2.7566
  774SOL    HW2 2322   2.112   3.024   2.653  0.2505  2.1425  0.1837
  775SOL     OW 2323   2.540   2.929   2.308 -0.1271 -0.2523  0.7460
  775SOL    HW1 2324   2.504   3.024   2.283 -0.9840 -1.7447 -0.6397
  775SOL    HW2 2325   2.605   2.923   2.392 -0.9431  1.2707  0.6787
  776SOL     OW 2326   0.043   1.242   0.239  0.4983 -0.3767 -0.2165
  776SOL    HW1 2327  -0.021   1.215   0.159 -1.9558  0.2738  2.0467
  776SOL    HW2 2328  -0.007   1.263   0.324  1.1474  2.5680 -1.7949
  777SOL     OW 2329   0.369   2.813   0.357 -0.4241 -0.7589  0.2326
  777SOL    HW1 2330   0.271   2.837   0.353 -0.8223 -1.6840  0.6080
  777SOL    HW2 2331   0.420   2.887   0.312 -0.0945  0.6555 -1.6422
  778SOL     OW 2332   1.349   1.972   0.157  0.1658 -0.3737 -0.4625
  778SOL    HW1 2333   1.287   1.963   0.244  0.1978 -0.7531  2.6115
  778SOL    HW2 2334   1.378   2.070   0.135 -0.7373 -0.9067  2.2630
  779SOL     OW 2335   0.195   0.860   0.506 -0.2731 -0.1422 -0.3236
  779SOL    HW1 2336   0.159   0.765   0.486 -0.0317 -0.9398 -0.5072
  779SOL    HW2 2337   0.131   0.915   0.569  3.1806  0.1819 -1.3314
  780SOL     OW 2338   0.065   0.244   2.386 -0.6614 -0.3305  0.3131
  780SOL    HW1 2339   0.039   0.332   2.434  0.8460 -0.9387 -2.2391
  780SOL    HW2 2340   0.164   0.241   2.359 -0.6061 -2.1964 -0.1718
  781SOL     OW 2341   0.655   1.659   1.508 -0.2841  0.2239  0.3635
  781SOL    HW1 2342   0.733   1.599   1.544  0.7824  0.2929 -1.5902
  781SOL    HW2 2343   0.565   1.632   1.542  0.2169  0.2086  0.6308
  782SOL     OW 2344   2.571   0.072   0.945 -0.0296  0.1850 -0.0107
  782SOL    HW1 2345   2.518   0.107   0.862 -0.0116 -1.6902 -2.7037
  782SOL    HW2 2346   2.581   0.140   1.017  0.8804 -3.2858 -2.5934
  783SOL     OW 2347   2.807   0.702   2.502  0.4030  0.0263  0.4081
  783SOL    HW1 2348   2.774   0.727   2.602 -1.1977  0.1938 -0.9133
  783SOL    HW2 2349   2.754   0.622   2.460  2.3297  0.3677  2.5517
  784SOL     OW 2350   1.450   2.220   0.044 -0.2329 -0.2486 -0.2823
  784SOL    HW1 2351   1.525   2.284   0.081  3.6570 -0.1253  2.6560
  784SOL    HW2 2352   1.417   2.247  -0.050  2.0264  0.6674  2.0880
  785SOL     OW 2353   2.124   0.334   0.082  0.3572  0.0639  0.4881
  785SOL    HW1 2354   2.057   0.337   0.165  1.2902 -0.2987 -1.9804
  785SOL    HW2 2355   2.132   0.429   0.037  1.4070 -1.0940  0.4496
  786SOL     OW 2356   2.049   2.207   2.263 -0.2711  0.3764 -0.9690
  786SOL    HW1 2357   2.030   2.116   2.310  3.4017 -1.0122 -1.2289
  786SOL    HW2 2358   2.141   2.195   2.206  5.2170 -2.1841  0.0359
  787SOL     OW 2359   1.339   0.494   0.977  0.3023 -0.0126  0.1899
  787SOL    HW1 2360   1.288   0.584   1.000  0.1764 -1.0213 -1.0882
  787SOL    HW2 2361   1.388   0.500   0.883  2.1546  2.6783 -2.4191
  788SOL     OW 2362   1.263   0.430   0.086  0.1394  0.0948 -0.2905
  788SOL    HW1 2363   1.170   0.386   0.072  1.1474 -2.2525 -0.4286
  788SOL    HW2 2364   1.265   0.525   0.119  2.4411 -1.9661 -3.3702
  789SOL     OW 2365   2.540   0.088   1.950  0.3288 -0.0348  0.3415
  789SOL    HW1 2366   2.459   0.136   1.900  0.3867 -1.4376 -2.1590
  789SOL    HW2 2367   2.546  -0.004   1.920 -1.5675  1.6899 -2.0855
  790SOL     OW 2368   2.656   2.760   0.829  0.3806 -1.0312  0.1845
  790SOL    HW1 2369   2.711   2.805   0.753  1.9792 -0.9926 -1.6086
  790SOL    HW2 2370   2.672   2.815   0.918 -1.2250 -0.4223  0.2026
  791SOL     OW 2371   1.934   1.199   0.188  0.0741  0.1661  0.3693
  791SOL    HW1 2372   1.849   1.151   0.226 -0.4449  0.5306  1.0935
  791SOL    HW2 2373   2.016   1.159   0.230 -2.1436 -0.4779 -0.1756
  792SOL     OW 2374   0.450   1.820   2.183 -0.3152  0.8819 -0.0449
  792SOL    HW1 2375   0.499   1.762   2.252 -0.3505 -0.5447 -0.8909
  792SOL    HW2 2376   0.354   1.841   2.211  0.7368  1.3481 -1.3363
  793SOL     OW 2377   2.084   1.540   2.122 -0.1157 -0.2068 -0.3029
  793SOL    HW1 2378   2.180   1.570   2.086 -1.2477 -1.3153  0.5648
  793SOL    HW2 2379   2.062   1.445   2.088 -1.4018  1.9585 -0.3365
  794SOL     OW 2380   0.512   1.387   2.362 -0.1138 -0.3102  0.4305
  794SOL    HW1 2381   0.534   1.336   2.271 -0.6166 -0.6752 -0.1459
  794SOL    HW2 2382   0.465   1.483   2.350  0.6045 -0.3618 -0.6228
  795SOL     OW 2383   2.499   2.247   1.851  0.0260  0.0515  0.2072
  795SOL    HW1 2384   2.493   2.220   1.952  0.4059  0.0769  0.6871
  795SOL    HW2 2385   2.429   2.198   1.790 -0.2740  0.5643 -0.8729
  796SOL     OW 2386   3.061   1.132   2.703 -0.4482  0.2298  0.3476
  796SOL    HW1 2387   2.959   1.131   2.714  2.1521 -1.5305  0.0534
  796SOL    HW2 2388   3.119   1.141   2.790 -0.4727 -0.1641 -2.0459
  797SOL     OW 2389   0.762   0.640   1.407  0.1335 -0.2242 -0.1958
  797SOL    HW1 2390   0.838   0.696   1.452 -2.2168  1.1028 -1.7484
  797SOL    HW2 2391   0.695   0.703   1.360 -0.4464 -1.0634  0.6282
  798SOL     OW 2392   1.288   0.298   1.165  0.6077 -0.0273 -0.4561
  798SOL    HW1 2393   1.347   0.321   1.251 -0.3662  1.2590  1.9365
  798SOL    HW2 2394   1.307   0.364   1.086  0.8200 -2.6448  2.9632
  799SOL     OW 2395   1.963   2.735   1.035 -0.3834  0.1116 -0.6373
  799SOL    HW1 2396   1.929   2.713   1.135 -0.3257  1.6349  2.5212
  799SOL    HW2 2397   1.895   2.727   0.958 -0.5931 -0.8033  2.3287
  800SOL     OW 2398   3.022   0.655   1.842 -0.4041  0.5012 -0.0108
  800SOL    HW1 2399   2.953   0.722   1.882  0.1931  0.3314  1.2071
  800SOL    HW2 2400   3.097   0.620   1.911 -1.4739  0.5748  1.7892
  801SOL     OW 2401   1.974   2.246   0.087 -0.3001  0.0554  0.3583
  801SOL    HW1 2402   1.884   2.227   0.042  0.4193 -0.9909 -0.3374
  801SOL    HW2 2403   2.044   2.170   0.074 -2.2800  1.8071 -1.2146
  802SOL     OW 2404   0.707   0.831   2.548 -0.1651  0.1551  0.4872
  802SOL    HW1 2405   0.758   0.779   2.476  0.5109  0.2652  0.8607
  802SOL    HW2 2406   0.608   0.859   2.515  0.0374  1.9810 -0.2776
  803SOL     OW 2407   0.950   0.043   0.852 -0.5208 -0.7488 -0.2160
  803SOL    HW1 2408   1.050   0.082   0.864 -0.9522  0.0047  1.4727
  803SOL    HW2 2409   0.888   0.121   0.820  3.5872  1.1888  0.2100
  804SOL     OW 2410   0.285   0.050   2.136  0.3519 -0.1168  0.0247
  804SOL    HW1 2411   0.299   0.147   2.168  2.0962  0.9545 -0.2118
  804SOL    HW2 2412   0.218   0.031   2.058  0.6652 -0.2870 -0.9795
  805SOL     OW 2413   2.385   0.284   0.361 -0.0550  1.0008  0.0333
  805SOL    HW1 2414   2.429   0.336   0.442  2.6050  2.0562 -0.1053
  805SOL    HW2 2415   2.444   0.283   0.274 -0.9363  0.6729 -1.5438
  806SOL     OW 2416   0.618   2.440   1.729 -0.2800  0.3551  0.9640
  806SOL    HW1 2417   0.606   2.543   1.743 -1.7925 -0.0362 -0.3819
  806SOL    HW2 2418   0.715   2.417   1.702 -0.2560  1.0652  2.7067
  807SOL     OW 2419   2.476   0.871   0.389  0.1581 -0.8099  0.1617
  807SOL    HW1 2420   2.566   0.885   0.437  0.6765  1.7452 -2.8364
  807SOL    HW2 2421   2.460   0.932   0.304 -0.4999 -0.1468 -0.4629
  808SOL     OW 2422   0.548   2.058   2.919 -0.2468  0.2539 -0.2212
  808SOL    HW1 2423   0.541   2.096   3.016  0.2749  0.5670 -1.6106
  808SOL    HW2 2424   0.543   1.955   2.916  3.2542  1.5744  1.0725
  809SOL     OW 2425   2.699   1.961   1.927 -0.1837  0.3988 -0.5724
  809SOL    HW1 2426   2.787   2.018   1.925  0.1162 -0.8400  1.9316
  809SOL    HW2 2427   2.635   1.981   1.849 -1.2689  0.6668 -0.1053
  810SOL     OW 2428   2.085   1.050   0.535 -0.1336 -0.4485  0.2412
  810SOL    HW1 2429   2.152   1.020   0.607 -0.6779 -0.0014  0.3642
  810SOL    HW2 2430   2.033   1.134   0.575 -2.5962  0.4134 -0.0765
  811SOL     OW 2431   1.342   2.508   1.236 -0.0934  0.3209 -0.5644
  811SOL    HW1 2432   1.295   2.421   1.266  1.0244 -1.7528  1.3525
  811SOL    HW2 2433   1.289   2.594   1.261  1.2580 -0.5453 -0.0019
  812SOL     OW 2434   1.423   0.810   1.957  0.1703 -0.3333  0.6624
  812SOL    HW1 2435   1.495   0.862   2.014 -1.0869  0.3816 -0.9266
  812SOL    HW2 2436   1.344   0.883   1.944  0.1867 -1.7241  2.6328
  813SOL     OW 2437   1.725   2.052   2.503 -0.1915 -0.0399  0.2084
  813SOL    HW1 2438   1.807   1.995   2.523 -1.3178 -1.8037  0.5886
  813SOL    HW2 2439   1.679   2.020   2.417 -0.4255 -3.0411 -1.8640
  814SOL     OW 2440   2.920   1.539   2.846 -0.0580  0.1308  0.0257
  814SOL    HW1 2441   2.997   1.507   2.910  1.0841  1.5562 -1.7095
  814SOL    HW2 2442   2.943   1.633   2.805 -0.1627 -0.0415 -0.7378
  815SOL     OW 2443   2.150   2.933   2.783 -0.1585  0.0816 -0.5702
  815SOL    HW1 2444   2.090   2.886   2.854  0.2634 -0.3514  1.5409
  815SOL    HW2 2445   2.250   2.935   2.811 -3.2131  0.4506  2.5353
  816SOL     OW 2446   1.646   0.320   1.630  0.1721 -0.1499 -0.3579
  816SOL    HW1 2447   1.705   0.240   1.654  1.2345 -0.2479 -0.6264
  816SOL    HW2 2448   1.557   0.325   1.686 -0.3969  0.5359 -1.6046
  817SOL     OW 2449   0.407   1.229   2.560  0.0815 -0.2838  0.0196
  817SOL    HW1 2450   0.309   1.266   2.572 -0.8377 -0.8016 -2.5666
  817SOL    HW2 2451   0.466   1.290   2.498 -3.1903  0.2236  0.3248
  818SOL     OW 2452   1.915   0.836   0.453 -0.2553  0.1298 -0.4442
  818SOL    HW1 2453   1.978   0.913   0.488 -0.7106  2.8288  0.7414
  818SOL    HW2 2454   1.853   0.796   0.527  1.3212  2.3610 -0.0276
  819SOL     OW 2455   2.743   2.980   3.006 -0.2554  0.1930 -0.1968
  819SOL    HW1 2456   2.804   2.893   3.001  0.8607 -0.2850  0.6362
  819SOL    HW2 2457   2.649   2.964   2.956 -3.3607 -0.9341  1.3744
  820SOL     OW 2458   1.261   1.099   0.694  0.0378 -0.3199  0.2748
  820SOL    HW1 2459   1.224   1.198   0.706  0.8057  3.1256  1.6960
  820SOL    HW2 2460   1.205   1.028   0.755 -0.7474  1.4003  0.5096
  821SOL     OW 2461   3.075   1.323   0.671 -0.1176 -0.2695  0.4719
  821SOL    HW1 2462   3.062   1.330   0.774  1.0083 -0.3978  2.3658
  821SOL    HW2 2463   3.143   1.394   0.624  0.2169 -2.1249 -3.3401
  822SOL     OW 2464   2.565   1.735   2.459  0.7897 -0.2215 -0.2593
  822SOL    HW1 2465   2.567   1.818   2.524  2.0804 -0.1640  0.4879
  822SOL    HW2 2466   2.490   1.744   2.388 -1.5909 -1.0468 -0.7230
  823SOL     OW 2467   2.102   0.892   1.214  0.3318  0.3244  0.5735
  823SOL    HW1 2468   2.045   0.879   1.304 -2.7564 -2.2929 -2.0818
  823SOL    HW2 2469   2.040   0.928   1.139  1.6379 -0.2570 -1.0959
  824SOL     OW 2470   0.211   2.076   2.789  0.4032  0.1075 -0.0082
  824SOL    HW1 2471   0.151   2.015   2.854 -2.2816  0.5938  1.8703
  824SOL    HW2 2472   0.249   2.024   2.707  0.8980 -0.6440 -2.9987
  825SOL     OW 2473   1.292   1.082   0.253  0.2168  0.2647  0.1867
  825SOL    HW1 2474   1.343   1.171   0.247 -0.4216 -2.3465  0.2657
  825SOL    HW2 2475   1.192   1.098   0.281  0.7880  1.1267 -2.0307
  826SOL     OW 2476   1.890   0.701   1.623 -0.1624 -0.0692 -0.2494
  826SOL    HW1 2477   1.979   0.653   1.644 -1.2504 -0.1121  3.0940
  826SOL    HW2 2478   1.827   0.648   1.563 -0.1101  1.9515  0.1791
  827SOL     OW 2479   0.668   1.268   0.256  0.3959 -0.5092 -0.5573
  827SOL    HW1 2480   0.739   1.198   0.221  1.4457 -1.4979  0.7746
  827SOL    HW2 2481   0.617   1.237   0.342 -2.7868 -6.0124 -1.5483
  828SOL     OW 2482   2.520   0.086   1.596  0.4142  0.1813  0.3023
  828SOL    HW1 2483   2.427   0.120   1.564 -0.1516  0.6648 -0.9686
  828SOL    HW2 2484   2.522  -0.007   1.642 -0.7882 -0.3653 -1.9845
  829SOL     OW 2485   2.775   2.467   3.004 -0.4613  0.1085 -0.0117
  829SOL    HW1 2486   2.694   2.404   2.987  0.0374  1.1535 -0.0507
  829SOL    HW2 2487   2.762   2.536   3.080  0.5861  1.0167  0.5550
  830SOL     OW 2488   2.856   0.957   2.990  0.1433  0.6593 -0.4610
  830SOL    HW1 2489   2.912   1.042   3.019  0.0007  3.4304 -0.0087
  830SOL    HW2 2490   2.869   0.877   3.060  3.7332 -1.5167  2.0139
  831SOL     OW 2491   0.077   0.626   0.414 -0.8157 -0.3895 -0.4339
  831SOL    HW1 2492   0.063   0.555   0.489  0.2992  2.7025  3.8922
  831SOL    HW2 2493   0.117   0.586   0.323 -0.4501 -2.5689 -1.9707
  832SOL     OW 2494   1.777   0.744   3.006  0.2213 -0.1465 -0.3776
  832SOL    HW1 2495   1.675   0.769   2.993 -0.3292  0.7999  0.0327
  832SOL    HW2 2496   1.788   0.641   3.025 -0.0284  1.2117 -0.1343
  833SOL     OW 2497   2.437   2.176   0.541  0.6898 -0.1971  0.2065
  833SOL    HW1 2498   2.348   2.205   0.493 -1.3755 -0.8842 -0.9333
  833SOL    HW2 2499   2.469   2.083   0.507  0.5171 -1.1996 -1.3035
  834SOL     OW 2500   0.205   0.219   0.555 -0.3306  0.0420  0.0611
  834SOL    HW1 2501   0.235   0.128   0.594 -1.1274  3.6423  1.5634
  834SOL    HW2 2502   0.162   0.212   0.465  2.8404 -4.1399 -0.9109
  835SOL     OW 2503   2.394   1.544   1.121 -0.5951  0.0244 -0.1788
  835SOL    HW1 2504   2.371   1.636   1.159  1.1058 -1.1316 -3.4946
  835SOL    HW2 2505   2.460   1.560   1.042  0.2764  0.7410 -1.1384
  836SOL     OW 2506   1.593   0.820   2.544 -0.2582  0.2764  0.6801
  836SOL    HW1 2507   1.491   0.826   2.536 -0.6831 -1.7643 -1.2010
  836SOL    HW2 2508   1.638   0.853   2.460  1.2588 -1.4471  0.1757
  837SOL     OW 2509   1.707   0.119   0.553 -0.2200 -0.2619 -0.3185
  837SOL    HW1 2510   1.647   0.168   0.622 -1.8184  1.4886  0.6339
  837SOL    HW2 2511   1.654   0.091   0.465  0.6043  2.0363 -1.8079
  838SOL     OW 2512   1.181   1.556   2.806  0.7565  0.1542 -0.1351
  838SOL    HW1 2513   1.167   1.532   2.907 -0.2305 -0.9612 -0.2059
  838SOL    HW2 2514   1.118   1.502   2.743  1.6727 -1.6163  1.0739
  839SOL     OW 2515   1.666   0.322   0.999  0.3888 -0.5895  0.3596
  839SOL    HW1 2516   1.693   0.378   1.084 -1.5992  1.6255  2.3518
  839SOL    HW2 2517   1.624   0.229   1.023 -1.5781 -1.1724 -0.6020
  840SOL     OW 2518   2.511   2.945   1.757 -0.1340  0.8544 -0.4724
  840SOL    HW1 2519   2.415   2.945   1.790  0.9569  0.6599 -1.4644
  840SOL    HW2 2520   2.563   2.857   1.778  0.3007 -1.7946  0.9174
  841SOL     OW 2521   1.509   0.836   2.966  0.3376 -0.2026 -0.1652
  841SOL    HW1 2522   1.453   0.883   3.038  3.2961 -0.3274  1.3544
  841SOL    HW2 2523   1.512   0.892   2.883  0.3083 -0.3743 -1.7594
  842SOL     OW 2524   0.821   1.566   0.944 -0.1532 -0.0589  0.1198
  842SOL    HW1 2525   0.778   1.647   0.994 -0.5858 -2.5655  1.1620
  842SOL    HW2 2526   0.755   1.494   0.916 -0.4598  2.2883 -1.8729
  843SOL     OW 2527   0.061   0.051   1.404  0.8235  0.3909  0.2026
  843SOL    HW1 2528   0.146   0.094   1.447  0.0468 -2.1548  0.0844
  843SOL    HW2 2529   0.052  -0.052   1.433  0.0504 -1.9963  1.2849
  844SOL     OW 2530   0.821   2.497   0.263  0.4894  0.5422  0.3463
  844SOL    HW1 2531   0.756   2.479   0.345 -3.8130 -0.6787 -2.7867
  844SOL    HW2 2532   0.771   2.537   0.183 -0.9809 -1.8909  0.8677
  845SOL     OW 2533   1.618   2.908   1.376  0.0976 -0.5356  0.0531
  845SOL    HW1 2534   1.658   2.909   1.472  0.0727 -0.8224  0.2402
  845SOL    HW2 2535   1.536   2.841   1.368 -1.1310 -2.4967  0.0823
  846SOL     OW 2536   1.551   2.902   0.694  0.2990  0.1126  0.1537
  846SOL    HW1 2537   1.592   2.857   0.614  0.6147  1.9137  0.8500
  846SOL    HW2 2538   1.626   2.934   0.758 -0.7241 -0.4924 -2.5010
  847SOL     OW 2539   2.066   1.631   0.332  0.0815 -0.6569 -0.0688
  847SOL    HW1 2540   2.015   1.547   0.316 -0.0554  2.1958 -0.4485
  847SOL    HW2 2541   2.005   1.720   0.344  0.3812 -1.2478 -1.0954
  848SOL     OW 2542   2.446   0.878   2.572 -0.4807 -0.1990 -0.1449
  848SOL    HW1 2543   2.449   0.952   2.647  1.5552  0.9383  0.3669
  848SOL    HW2 2544   2.379   0.797   2.589  1.2433 -1.7818 -0.1005
  849SOL     OW 2545   2.603   0.842   2.362 -0.3191 -0.4798  0.1180
  849SOL    HW1 2546   2.700   0.822   2.398 -0.7528  0.1116  2.0899
  849SOL    HW2 2547   2.535   0.840   2.439  0.9833  0.5282 -0.1344
  850SOL     OW 2548   1.538   0.127   1.312  0.5307 -0.8631  0.4818
  850SOL    HW1 2549   1.521   0.122   1.207 -0.1030 -0.1544 -1.9909
  850SOL    HW2 2550   1.492   0.061   1.383  0.9402 -1.8701  2.0106
  851SOL     OW 2551   0.474   1.811   0.585  0.1847  0.7105  0.2480
  851SOL    HW1 2552   0.483   1.914   0.598  1.7103  0.8382 -2.2993
  851SOL    HW2 2553   0.552   1.776   0.528  0.1751 -1.8558 -0.1642
  852SOL     OW 2554   0.802   2.120   1.635  0.0115  0.0812  0.2449
  852SOL    HW1 2555   0.817   2.214   1.598  1.5635 -2.4755 -0.3602
  852SOL    HW2 2556   0.739   2.121   1.713 -0.2213 -2.4194 -1.7424
  853SOL     OW 2557   2.520   1.491   2.599  0.5469 -0.3366  0.3245
  853SOL    HW1 2558   2.455   1.409   2.585 -3.5138 -1.4521  0.6343
  853SOL    HW2 2559   2.505   1.572   2.532 -3.0703 -0.7038 -1.2997
  854SOL     OW 2560   2.373   1.411   1.728 -0.1529  0.1232  0.1849
  854SOL    HW1 2561   2.454   1.377   1.672  1.9271  0.4505  0.1102
  854SOL    HW2 2562   2.288   1.352   1.714  0.7899 -0.1759  1.2786
  855SOL     OW 2563   2.018   2.419   0.976  0.2670  0.0506 -0.1567
  855SOL    HW1 2564   2.036   2.512   0.940 -0.3999  1.1522 -1.4440
  855SOL    HW2 2565   2.058   2.425   1.073  1.2946  1.7078  2.0946
  856SOL     OW 2566   1.319   1.492   0.960  0.0000 -0.0318 -0.3190
  856SOL    HW1 2567   1.383   1.571   0.961  0.0516  1.2720 -0.8955
  856SOL    HW2 2568   1.223   1.512   1.000 -0.8073 -0.1394 -1.0297
  857SOL     OW 2569   3.077   2.695   0.940  0.4671 -0.2840  0.3664
  857SOL    HW1 2570   3.048   2.635   0.865  0.9315  1.9699 -1.0828
  857SOL    HW2 2571   3.179   2.725   0.926  3.3615 -0.5411 -0.2145
  858SOL     OW 2572   2.339   2.103   1.687  0.7135 -0.1987  0.1555
  858SOL    HW1 2573   2.257   2.073   1.631 -0.6841 -1.6820 -0.6503
  858SOL    HW2 2574   2.415   2.029   1.684 -0.9048 -0.7102 -1.0545
  859SOL     OW 2575   2.477   0.520   1.022 -0.0404  0.4685 -0.1792
  859SOL    HW1 2576   2.525   0.583   0.958  0.9299 -1.4563 -1.4746
  859SOL    HW2 2577   2.527   0.433   1.045 -1.0203  0.6023 -0.5140
  860SOL     OW 2578   1.969   2.792   0.426 -0.5784  0.0472  0.1712
  860SOL    HW1 2579   1.919   2.792   0.329  0.3554  1.2231 -0.8627
  860SOL    HW2 2580   2.065   2.827   0.424  2.3704  2.7472 -1.3829
  861SOL     OW 2581   1.007   2.426   2.885  0.3935 -0.0130  0.1018
  861SOL    HW1 2582   1.039   2.513   2.839 -0.5032 -1.1676  1.0242
  861SOL    HW2 2583   1.044   2.421   2.982 -2.2635  0.3080 -0.0749
  862SOL     OW 2584   2.849   2.559   1.617 -0.5871  0.3304 -0.3089
  862SOL    HW1 2585   2.939   2.594   1.658 -1.0090 -1.8162  1.4891
  862SOL    HW2 2586   2.802   2.634   1.561 -0.0103 -0.2456  0.7392
  863SOL     OW 2587   1.856   2.737   0.171  0.2345 -0.0252  0.3593
  863SOL    HW1 2588   1.901   2.647   0.204  0.0519  0.0633 -0.7960
  863SOL    HW2 2589   1.754   2.730   0.165  0.6035  0.8740  0.1410
  864SOL     OW 2590   1.931   1.205   2.843 -0.6079 -0.4846 -0.1554
  864SOL    HW1 2591   1.942   1.171   2.742 -0.4975 -0.7649 -1.4646
  864SOL    HW2 2592   1.979   1.141   2.909  0.9114  0.1490  1.4037
  865SOL     OW 2593   2.185   1.869   0.643  0.4185 -0.3517 -0.5827
  865SOL    HW1 2594   2.247   1.896   0.721  0.2803  0.0709  0.0658
  865SOL    HW2 2595   2.091   1.842   0.677  1.5425 -1.0116 -0.3752
  866SOL     OW 2596   2.872   2.903   0.996  0.0932  0.1478  0.6346
  866SOL    HW1 2597   2.866   2.965   0.915 -0.1680  1.0804 -0.8053
  866SOL    HW2 2598   2.942   2.825   0.988  1.7305 -0.4604  2.1450
  867SOL     OW 2599   0.369   1.433   0.880 -0.7254 -0.5054 -0.5775
  867SOL    HW1 2600   0.336   1.361   0.818  0.2444 -0.4851  4.0065
  867SOL    HW2 2601   0.348   1.529   0.843 -2.5457  2.3619 -2.1275
  868SOL     OW 2602   0.789   1.906   2.032  0.1242  0.2825 -0.6485
  868SOL    HW1 2603   0.723   1.899   2.114 -0.2988 -1.7016  2.2897
  868SOL    HW2 2604   0.762   1.986   1.971 -0.3829 -2.8974 -1.4128
  869SOL     OW 2605   2.538   1.913   1.663  0.2859 -0.0946  0.0052
  869SOL    HW1 2606   2.611   1.970   1.617  1.3444 -0.3322 -0.6805
  869SOL    HW2 2607   2.562   1.819   1.677  1.0426  2.0082 -0.9158
  870SOL     OW 2608   2.251   2.677   1.245 -0.5463 -0.6156  0.0486
  870SOL    HW1 2609   2.216   2.583   1.233 -0.5072  2.2127 -0.6044
  870SOL    HW2 2610   2.283   2.695   1.335 -0.1337  0.3458  0.4563
  871SOL     OW 2611   3.055   2.224   0.546 -0.0662 -0.7351 -0.3142
  871SOL    HW1 2612   3.004   2.206   0.631 -1.0522  1.0157 -0.9142
  871SOL    HW2 2613   3.000   2.267   0.471  3.1589  2.4554 -1.6707
  872SOL     OW 2614   2.113   0.534   1.706  0.4571 -0.0022 -0.1295
  872SOL    HW1 2615   2.061   0.516   1.794  0.1081  1.6494 -0.9657
  872SOL    HW2 2616   2.218   0.520   1.721  0.7671  0.0883  2.1914
  873SOL     OW 2617   1.702   2.118   3.061 -0.5836  0.3706 -0.1594
  873SOL    HW1 2618   1.613   2.147   3.111 -0.9595  0.3337 -1.0990
  873SOL    HW2 2619   1.681   2.108   2.956 -1.3649 -0.8692 -1.0411
  874SOL     OW 2620   0.678   2.451   0.749 -0.0585  0.3388  0.1826
  874SOL    HW1 2621   0.614   2.527   0.767  0.5141  1.0924  1.2392
  874SOL    HW2 2622   0.759   2.439   0.817  0.2519 -0.7066  0.0723
  875SOL     OW 2623   2.327   1.472   1.402  0.3749 -0.0100 -0.2168
  875SOL    HW1 2624   2.396   1.541   1.442  4.0556  3.3274  0.9149
  875SOL    HW2 2625   2.355   1.440   1.308  1.5231 -1.9106  1.9326
  876SOL     OW 2626   0.042   2.276   2.714  0.1080 -0.6440  0.5310
  876SOL    HW1 2627   0.118   2.211   2.737 -2.3388  0.1629 -0.2584
  876SOL    HW2 2628   0.058   2.362   2.768 -1.0351  0.2863  1.1066
  877SOL     OW 2629   2.928   2.687   0.543 -0.6134  0.2603  0.4508
  877SOL    HW1 2630   2.894   2.779   0.582  0.5070  2.2743  0.0192
  877SOL    HW2 2631   2.962   2.616   0.617 -2.6012 -1.6531  2.6477
  878SOL     OW 2632   2.794   1.502   2.229  0.4148 -0.3876  0.5272
  878SOL    HW1 2633   2.818   1.602   2.206 -1.6924 -1.3654  0.5718
  878SOL    HW2 2634   2.796   1.480   2.330  0.4156  1.1920  0.6126
  879SOL     OW 2635   2.428   0.125   1.230 -0.1047  0.3942  0.4937
  879SOL    HW1 2636   2.464   0.038   1.278 -1.2177 -1.6918  1.0928
  879SOL    HW2 2637   2.360   0.102   1.153  0.5863  1.4567 -0.0390
  880SOL     OW 2638   0.780   0.474   2.217 -0.4587 -0.2606  0.2012
  880SOL    HW1 2639   0.752   0.418   2.301  0.9642 -0.9053  1.6790
  880SOL    HW2 2640   0.784   0.416   2.129  1.1843  0.9718 -0.4851
  881SOL     OW 2641   0.893   0.046   0.489 -0.0016 -0.1419  0.4228
  881SOL    HW1 2642   0.943  -0.038   0.520 -1.4737  1.4732  0.3522
  881SOL    HW2 2643   0.791   0.034   0.476 -1.0937 -3.2060 -0.0840
  882SOL     OW 2644   2.704   1.675   1.673  0.4160 -0.3301  0.0374
  882SOL    HW1 2645   2.779   1.659   1.606 -2.8732  0.1632  0.4763
  882SOL    HW2 2646   2.732   1.706   1.768 -1.1989  0.5774  1.8484
  883SOL     OW 2647   0.889   0.508   0.914  0.3851 -0.2920  0.0611
  883SOL    HW1 2648   0.909   0.596   0.963  1.4057  1.1253 -0.8596
  883SOL    HW2 2649   0.872   0.430   0.979  0.3232  0.3854  0.5368
  884SOL     OW 2650   1.145   1.716   1.181  0.1695  0.4226 -0.0863
  884SOL    HW1 2651   1.090   1.653   1.111 -2.2362 -0.6865 -3.2333
  884SOL    HW2 2652   1.140   1.819   1.166 -1.3156 -0.9680  4.3238
  885SOL     OW 2653   2.334   1.777   2.310 -0.1414 -0.1087 -0.0101
  885SOL    HW1 2654   2.251   1.727   2.343  0.6792  2.4264 -1.8626
  885SOL    HW2 2655   2.324   1.878   2.299 -4.5119 -0.2677 -0.5436
  886SOL     OW 2656   2.586   0.332   1.794 -0.0106  0.0985 -0.4592
  886SOL    HW1 2657   2.604   0.237   1.829  0.4186 -0.0313  3.5963
  886SOL    HW2 2658   2.668   0.390   1.765 -0.2390  0.0701  3.2797
  887SOL     OW 2659   0.103   1.946   1.340  0.1907 -0.5313  0.1143
  887SOL    HW1 2660   0.020   1.943   1.276 -1.8770  1.7682  2.6552
  887SOL    HW2 2661   0.164   2.025   1.312 -0.3581  1.5981  0.3388
  888SOL     OW 2662   0.544   1.217   1.523  0.4348 -0.2888  0.2811
  888SOL    HW1 2663   0.587   1.256   1.438  0.6382 -0.5216 -1.6922
  888SOL    HW2 2664   0.512   1.123   1.504 -2.4349  2.8336 -0.3260
  889SOL     OW 2665   0.809   2.505   2.166  0.2894 -0.2332  0.4612
  889SOL    HW1 2666   0.736   2.433   2.157 -1.6700 -1.8924 -1.8687
  889SOL    HW2 2667   0.892   2.487   2.111  0.7897 -1.9777  0.6690
  890SOL     OW 2668   2.417   2.467   0.247 -0.1667 -0.3958  0.3408
  890SOL    HW1 2669   2.445   2.539   0.178 -2.4549 -2.1983 -1.6413
  890SOL    HW2 2670   2.345   2.499   0.318 -1.1393  1.8079 -0.8926
  891SOL     OW 2671   2.518   1.712   0.665  0.0134  0.2793  0.8575
  891SOL    HW1 2672   2.530   1.673   0.764  3.1151 -1.8485  0.0287
  891SOL    HW2 2673   2.425   1.692   0.616  1.7168 -0.1983 -2.3767
  892SOL     OW 2674   0.367   0.264   2.302 -0.0050  0.4691 -0.5718
  892SOL    HW1 2675   0.400   0.347   2.250  1.2844 -1.4432 -1.7309
  892SOL    HW2 2676   0.421   0.251   2.389  2.4424 -0.0006 -0.2188
  893SOL     OW 2677   1.649   0.242   2.703  0.5043  0.0365 -0.3125
  893SOL    HW1 2678   1.734   0.290   2.743  2.0353 -0.4848  2.4411
  893SOL    HW2 2679   1.571   0.314   2.703 -0.5181 -1.9329 -0.4959
  894SOL     OW 2680   2.175   2.040   0.033  0.0577 -0.1437 -0.1635
  894SOL    HW1 2681   2.134   2.002  -0.053 -0.5745  0.9313  1.0631
  894SOL    HW2 2682   2.200   1.968   0.099 -1.1518 -0.0039  0.2092
  895SOL     OW 2683   2.822   1.451   0.913 -0.8380  0.0424  0.1480
  895SOL    HW1 2684   2.908   1.387   0.923  1.1129 -0.9898 -2.0309
  895SOL    HW2 2685   2.834   1.545   0.947  1.7354 -0.9284 -0.6417
  896SOL     OW 2686   1.703   1.809   1.172 -0.2731  0.1366  0.9531
  896SOL    HW1 2687   1.741   1.743   1.097 -1.5027 -0.8300  1.1610
  896SOL    HW2 2688   1.644   1.885   1.132  0.4318  1.6266  0.9414
  897SOL     OW 2689   0.308   0.537   3.052 -0.1308 -0.3314  0.5316
  897SOL    HW1 2690   0.245   0.578   2.984  0.8779 -1.0737  1.3877
  897SOL    HW2 2691   0.398   0.591   3.068 -0.4866  0.8338 -0.7272
  898SOL     OW 2692   0.576   2.867   1.070 -0.3749 -0.0914  0.2318
  898SOL    HW1 2693   0.594   2.969   1.061 -1.5712  2.3715  0.3076
  898SOL    HW2 2694   0.654   2.815   1.116  2.2330 -1.3997  0.4696
  899SOL     OW 2695   2.830   0.895   1.337 -0.4695 -0.2592 -0.2490
  899SOL    HW1 2696   2.823   0.846   1.244 -0.9757 -0.4893 -2.2511
  899SOL    HW2 2697   2.906   0.970   1.336  0.6964 -0.1009  1.3973
  900SOL     OW 2698   0.980   2.521   2.454 -0.2450 -0.0389  0.0648
  900SOL    HW1 2699   0.900   2.517   2.381 -4.2143 -0.6450 -3.6297
  900SOL    HW2 2700   0.948   2.487   2.544  1.0677  3.1887  0.1768
  901SOL     OW 2701   1.902   2.374   1.359  0.3824 -0.5075 -0.1361
  901SOL    HW1 2702   1.889   2.317   1.273 -1.6591  0.5144  1.8622
  901SOL    HW2 2703   1.996   2.354   1.404  0.2727 -1.8624 -0.0320
  902SOL     OW 2704   2.550   1.645   1.447 -0.3142 -0.4470 -0.6835
  902SOL    HW1 2705   2.594   1.650   1.542  0.7129 -1.1221 -0.3022
  902SOL    HW2 2706   2.623   1.640   1.373 -2.1131  0.2991 -0.8883
  903SOL     OW 2707   0.236   2.461   1.959 -0.1651  0.2225 -0.2379
  903SOL    HW1 2708   0.134   2.441   1.933 -1.7929  1.6300 -1.8864
  903SOL    HW2 2709   0.271   2.541   1.900  1.0195  1.3070 -0.3984
  904SOL     OW 2710   1.999   0.793   2.594  0.2851 -0.1583 -0.0981
  904SOL    HW1 2711   1.930   0.723   2.619  1.1664  0.0510  0.8964
  904SOL    HW2 2712   2.018   0.793   2.491  2.2618  2.4301 -0.7275
  905SOL     OW 2713   2.853   0.134   2.556 -0.0139  0.4425  0.2399
  905SOL    HW1 2714   2.906   0.043   2.542  2.0278 -1.6451  0.1015
  905SOL    HW2 2715   2.899   0.219   2.514  3.0752 -0.2786  0.1163
  906SOL     OW 2716   0.199   1.711   1.925  0.7722 -0.1019  0.3391
  906SOL    HW1 2717   0.120   1.727   1.857  3.5607  1.6543  0.5003
  906SOL    HW2 2718   0.290   1.754   1.894 -1.5824 -0.7173 -3.0285
  907SOL     OW 2719   0.247   2.440   1.010  0.3032  0.2250  0.3350
  907SOL    HW1 2720   0.333   2.387   0.981 -0.2369 -1.4534 -0.8041
  907SOL    HW2 2721   0.224   2.519   0.949 -0.2252  1.0701  1.2860
  908SOL     OW 2722   2.817   3.022   0.381 -0.0355 -0.7334 -0.1727
  908SOL    HW1 2723   2.718   3.028   0.413  1.4805  1.7406  0.1928
  908SOL    HW2 2724   2.826   2.969   0.288  1.3285 -1.3357 -1.4996
  909SOL     OW 2725   0.827   1.054   2.650 -0.3342 -0.0552 -0.3594
  909SOL    HW1 2726   0.792   0.967   2.609  1.1249 -0.6188  1.9831
  909SOL    HW2 2727   0.905   1.091   2.593 -0.6123 -2.6801  0.4723
  910SOL     OW 2728   1.803   1.890   2.174 -0.0421  0.2628  0.1541
  910SOL    HW1 2729   1.864   1.891   2.091  2.0690 -2.5053 -0.9144
  910SOL    HW2 2730   1.721   1.955   2.167 -2.4156  1.8047 -2.4928
  911SOL     OW 2731   1.817   2.930   1.601 -0.1794  0.0325  0.4606
  911SOL    HW1 2732   1.888   2.905   1.530 -1.3909  0.5383  1.5198
  911SOL    HW2 2733   1.794   2.842   1.661 -0.8516 -0.1560  1.5305
  912SOL     OW 2734   2.859   1.008   0.737  0.2505  0.3836  0.4131
  912SOL    HW1 2735   2.874   1.004   0.838 -0.8799 -0.9849  0.3550
  912SOL    HW2 2736   2.774   1.064   0.710  1.5386 -0.9121 -3.6196
  913SOL     OW 2737   2.529   1.282   1.549  0.0305  0.1741  0.3162
  913SOL    HW1 2738   2.579   1.187   1.549 -2.1323  0.8720 -2.0024
  913SOL    HW2 2739   2.564   1.350   1.477  1.1417  0.4409 -0.1192
  914SOL     OW 2740   2.778   0.593   1.177  0.1666  0.3185  0.0455
  914SOL    HW1 2741   2.805   0.507   1.222 -0.3469 -0.6415 -1.4397
  914SOL    HW2 2742   2.681   0.600   1.163  1.1168 -2.4905 -0.2661
  915SOL     OW 2743   1.190   0.714   1.033 -0.0790  0.3897  0.2703
  915SOL    HW1 2744   1.246   0.749   1.116 -0.2561  1.3216  0.1801
  915SOL    HW2 2745   1.082   0.692   1.049 -3.4931  1.3560 -0.5062
  916SOL     OW 2746   0.603   0.024   0.636 -0.1846 -0.3564  0.2015
  916SOL    HW1 2747   0.652   0.101   0.684 -0.0667 -1.0964 -2.4657
  916SOL    HW2 2748   0.580   0.062   0.539  1.6114  1.4777 -0.2343
  917SOL     OW 2749   2.833   2.599   2.033 -0.1238  0.3560  0.1240
  917SOL    HW1 2750   2.741   2.630   1.996 -0.6731 -0.1716 -1.7206
  917SOL    HW2 2751   2.909   2.617   1.965 -0.5624  0.1521  1.7743
  918SOL     OW 2752   1.016   2.089   3.029 -0.1769  0.0083 -0.2866
  918SOL    HW1 2753   0.992   2.160   3.098  2.9046  1.4043 -0.2074
  918SOL    HW2 2754   1.102   2.113   2.979  1.5922  0.5688  2.0184
  919SOL     OW 2755   0.815   1.629   2.866  0.4835 -0.5944  0.3278
  919SOL    HW1 2756   0.886   1.689   2.817  0.1562  1.3096 -0.5535
  919SOL    HW2 2757   0.760   1.566   2.800 -0.3478 -2.5219  0.9085
  920SOL     OW 2758   1.253   1.811   2.531 -0.1076  0.5389 -0.4476
  920SOL    HW1 2759   1.328   1.761   2.477 -2.2630 -0.4600 -0.2111
  920SOL    HW2 2760   1.189   1.758   2.593  0.6225  0.6233 -0.7537
  921SOL     OW 2761   1.086   0.021   2.631 -0.4730  0.2047 -0.0788
  921SOL    HW1 2762   1.059  -0.018   2.540 -3.1192 -1.0428 -0.2657
  921SOL    HW2 2763   1.008   0.026   2.701  2.5370  0.4531  0.8907
  922SOL     OW 2764   2.231   2.373   2.794 -0.0839 -0.4530  0.2595
  922SOL    HW1 2765   2.261   2.269   2.792  0.3057  0.5009 -0.7562
  922SOL    HW2 2766   2.174   2.410   2.710 -1.5260  0.2307 -0.1322
  923SOL     OW 2767   1.277   2.673   0.275  0.3650 -0.2594  0.2803
  923SOL    HW1 2768   1.343   2.741   0.324 -0.1795  1.4551 -2.1202
  923SOL    HW2 2769   1.310   2.569   0.278  1.1380 -0.3134  1.8073
  924SOL     OW 2770   2.832   1.678   0.107 -0.2380 -0.3494  0.5231
  924SOL    HW1 2771   2.755   1.635   0.050 -1.2724 -1.3582  1.9603
  924SOL    HW2 2772   2.915   1.616   0.120 -2.0350 -1.4432  2.8324
  925SOL     OW 2773   0.007   2.885   1.463  0.0378  0.1461 -0.2713
  925SOL    HW1 2774  -0.066   2.910   1.536  0.7476  3.3604  1.0648
  925SOL    HW2 2775  -0.035   2.824   1.392  0.5648 -3.3568  1.2050
  926SOL     OW 2776   1.295   2.798   1.337 -0.5917 -0.0890 -0.1291
  926SOL    HW1 2777   1.342   2.827   1.247 -2.6718 -1.5582 -0.8681
  926SOL    HW2 2778   1.300   2.874   1.409  0.4818 -1.5906  0.7332
  927SOL     OW 2779   0.310   2.673   1.773  0.1993 -0.0723  0.5823
  927SOL    HW1 2780   0.282   2.589   1.714 -0.6866 -0.8859  2.4208
  927SOL    HW2 2781   0.283   2.764   1.723 -0.4060  0.6550 -0.4064
  928SOL     OW 2782   1.580   2.082   2.222 -0.3228 -0.3191  0.1141
  928SOL    HW1 2783   1.602   2.170   2.171  1.3783  1.7070  3.4270
  928SOL    HW2 2784   1.486   2.074   2.273  0.1237 -0.4231  0.8432
  929SOL     OW 2785   2.456   2.518   2.855 -0.7406  0.0157  0.0844
  929SOL    HW1 2786   2.365   2.467   2.854 -1.7991 -0.1527  0.8699
  929SOL    HW2 2787   2.496   2.519   2.761  0.4551 -1.0928 -1.5059
  930SOL     OW 2788   2.180   2.025   1.081 -0.0496  0.0476 -0.1434
  930SOL    HW1 2789   2.177   1.989   1.174  3.0912  2.8643 -1.2594
  930SOL    HW2 2790   2.254   2.100   1.075 -2.3594 -2.1251 -0.7843
  931SOL     OW 2791   0.530   1.697   2.680 -0.3472 -0.0825  0.0736
  931SOL    HW1 2792   0.549   1.721   2.782  1.8985 -0.7495  2.4304
  931SOL    HW2 2793   0.613   1.642   2.645  0.3778 -0.7737  2.1153
  932SOL     OW 2794   0.465   0.125   3.064 -0.0897 -0.3181 -0.3539
  932SOL    HW1 2795   0.542   0.176   3.110  1.4691  3.1466 -0.1553
  932SOL    HW2 2796   0.469   0.024   3.057 -0.5945  1.6826  0.1067
  933SOL     OW 2797   0.961   0.807   3.060  0.4431 -0.3017  0.6496
  933SOL    HW1 2798   0.945   0.825   3.159  0.7740  1.9116  0.2514
  933SOL    HW2 2799   0.938   0.891   3.000 -2.3820 -1.8864  0.7804
  934SOL     OW 2800   0.786   2.974   2.681  0.3124 -0.3952  0.4283
  934SOL    HW1 2801   0.775   2.929   2.585  0.7700 -0.1890 -0.7815
  934SOL    HW2 2802   0.840   2.918   2.749 -1.5226 -0.2648 -0.3895
  935SOL     OW 2803   0.046   0.516   0.835  0.1510 -0.0444 -0.4257
  935SOL    HW1 2804   0.048   0.488   0.732  0.2505 -0.0633 -0.8008
  935SOL    HW2 2805  -0.036   0.571   0.865 -2.5269  0.6055  0.7233
  936SOL     OW 2806   1.105   2.771   0.085  0.2464 -0.0625 -0.0716
  936SOL    HW1 2807   1.162   2.833   0.023  1.1194 -1.0040 -3.5872
  936SOL    HW2 2808   1.159   2.742   0.170 -0.9409 -2.0374 -2.0512
  937SOL     OW 2809   1.826   2.651   2.095 -0.0732  0.2923 -0.1338
  937SOL    HW1 2810   1.737   2.702   2.112 -3.2965  0.0191 -0.6857
  937SOL    HW2 2811   1.891   2.699   2.028  1.0380 -2.4946 -2.6042
  938SOL     OW 2812   2.755   2.076   1.589 -0.1700 -0.0716  0.1115
  938SOL    HW1 2813   2.730   2.169   1.629 -0.5714  1.1528 -1.2781
  938SOL    HW2 2814   2.847   2.051   1.625 -0.0288  2.2492 -0.8357
  939SOL     OW 2815   2.842   1.193   2.417  0.2484 -0.1297  0.2980
  939SOL    HW1 2816   2.904   1.181   2.332 -1.6184 -2.1535  2.1728
  939SOL    HW2 2817   2.863   1.117   2.486  2.0165 -0.3339 -1.3253
  940SOL     OW 2818   1.069   0.431   2.769 -0.3847 -0.4971 -0.4731
  940SOL    HW1 2819   1.139   0.352   2.777  1.2553  0.3743 -1.0546
  940SOL    HW2 2820   0.983   0.417   2.709 -0.0939  0.3919  0.8057
  941SOL     OW 2821   0.031   2.791   2.265 -0.2388  0.4086 -0.6729
  941SOL    HW1 2822   0.073   2.696   2.236  0.1795 -1.5029 -0.1251
  941SOL    HW2 2823   0.105   2.861   2.285 -2.8302 -1.2706  1.1131
  942SOL     OW 2824   0.105   0.039   2.578 -0.1736  0.1103  0.1424
  942SOL    HW1 2825   0.186   0.073   2.628  0.5311  0.1211 -0.1701
  942SOL    HW2 2826   0.069   0.101   2.504 -0.5223  0.0119 -1.8593
  943SOL     OW 2827   2.093   1.653   2.384 -0.0710 -0.3186  0.3013
  943SOL    HW1 2828   2.075   1.621   2.289 -0.4629  4.1614 -0.7126
  943SOL    HW2 2829   2.097   1.577   2.446  0.1580 -0.3092 -2.0874
  944SOL     OW 2830   2.161   2.351   1.462 -0.5018  0.0948 -0.1302
  944SOL    HW1 2831   2.258   2.399   1.480  2.4966 -0.6106 -0.8279
  944SOL    HW2 2832   2.142   2.256   1.505  0.4509 -3.9877 -1.0336
  945SOL     OW 2833   0.686   1.513   0.170  0.0056 -0.9945  0.2879
  945SOL    HW1 2834   0.604   1.540   0.119 -0.3287 -1.3647  1.6965
  945SOL    HW2 2835   0.680   1.416   0.211 -0.5508 -0.5451  0.0479
  946SOL     OW 2836   0.450   0.944   2.490  0.0562 -0.2262 -0.3816
  946SOL    HW1 2837   0.369   0.892   2.447 -4.0282  0.3836  2.2437
  946SOL    HW2 2838   0.428   1.046   2.509 -1.0183  0.6024  2.7038
  947SOL     OW 2839   1.509   0.495   3.042 -0.0174  0.1188  0.5436
  947SOL    HW1 2840   1.473   0.539   2.954  0.3986  0.4529 -2.4480
  947SOL    HW2 2841   1.440   0.461   3.108  3.6196  0.4233 -2.1284
  948SOL     OW 2842   1.828   3.000   2.126  0.0754  0.3352  0.2088
  948SOL    HW1 2843   1.875   2.964   2.037 -1.5578 -2.7677  0.2464
  948SOL    HW2 2844   1.859   2.958   2.213 -2.6641  1.0847 -1.0398
  949SOL     OW 2845   0.641   2.481   0.465  0.1751  0.5579  0.6898
  949SOL    HW1 2846   0.658   2.582   0.466 -3.7043 -1.2005  1.4504
  949SOL    HW2 2847   0.651   2.446   0.561 -1.5446 -2.5576 -0.7313
  950SOL     OW 2848   0.227   2.223   3.019 -0.3361  0.4326 -0.4608
  950SOL    HW1 2849   0.198   2.322   2.998 -0.5056 -1.1236 -0.2671
  950SOL    HW2 2850   0.238   2.171   2.931  2.4504 -0.0504  0.8969
  951SOL     OW 2851   1.216   2.663   2.804  0.8464  0.5474 -0.2269
  951SOL    HW1 2852   1.267   2.687   2.886  1.4095  1.8268 -2.4849
  951SOL    HW2 2853   1.270   2.671   2.716  0.5214 -1.0007 -0.5675
  952SOL     OW 2854   0.054   1.653   0.377 -0.0389  0.3870 -0.1474
  952SOL    HW1 2855   0.087   1.750   0.382  0.2671 -2.9905 -0.8398
  952SOL    HW2 2856   0.104   1.607   0.452  1.0233  1.5589  2.1270
  953SOL     OW 2857   2.543   1.772   0.209 -0.3314  0.3175  0.1590
  953SOL    HW1 2858   2.497   1.684   0.238 -1.1518  1.8673 -2.1829
  953SOL    HW2 2859   2.519   1.810   0.112  0.1626  1.6783  0.4273
  954SOL     OW 2860   2.215   0.531   0.918 -0.1918 -0.0246 -0.2753
  954SOL    HW1 2861   2.220   0.549   0.815 -2.5560 -0.0867 -1.7633
  954SOL    HW2 2862   2.311   0.525   0.963  1.6494 -0.3391  0.3277
  955SOL     OW 2863   0.148   2.585   1.372  0.3587  0.0451 -0.1248
  955SOL    HW1 2864   0.047   2.605   1.355 -1.0798  0.8144 -0.7353
  955SOL    HW2 2865   0.215   2.658   1.337 -1.2127 -0.3387 -0.6013
  956SOL     OW 2866   2.809   2.439   2.479  0.4519  0.0350 -0.1141
  956SOL    HW1 2867   2.857   2.343   2.480  1.9060 -0.4212 -2.7699
  956SOL    HW2 2868   2.844   2.501   2.403 -0.7096 -1.5278  1.6645
  957SOL     OW 2869   1.646   2.065   2.804  1.0688 -0.3804  0.3600
  957SOL    HW1 2870   1.586   1.977   2.789  0.7774 -0.1078 -2.0489
  957SOL    HW2 2871   1.708   2.090   2.730 -0.2320  0.2988 -0.7188
  958SOL     OW 2872   2.571   2.296   2.967  0.1094  0.3430  0.7790
  958SOL    HW1 2873   2.542   2.392   2.935  0.2352  0.3275 -3.6068
  958SOL    HW2 2874   2.520   2.262   3.051  0.9025 -0.1807 -1.0397
  959SOL     OW 2875   0.301   2.783   0.035 -1.1020  0.2907 -0.0318
  959SOL    HW1 2876   0.203   2.773   0.008 -1.0357  0.5783 -0.2377
  959SOL    HW2 2877   0.346   2.697   0.076 -0.3805  0.4324 -1.8725
  960SOL     OW 2878   1.945   0.477   1.942 -0.4060 -0.0458 -0.6086
  960SOL    HW1 2879   1.887   0.556   1.915 -0.6397 -1.0005 -0.7724
  960SOL    HW2 2880   1.973   0.485   2.045  0.9435 -0.4502  0.8505
  961SOL     OW 2881   2.554   1.851   1.049  0.1391 -0.1912 -0.1643
  961SOL    HW1 2882   2.566   1.946   1.009  0.4157 -0.1023 -1.4301
  961SOL    HW2 2883   2.511   1.859   1.147  0.0406  2.3428 -1.0550
  962SOL     OW 2884   1.311   0.924   0.032  0.0469 -0.0956  0.1390
  962SOL    HW1 2885   1.261   0.979  -0.039 -0.3108 -0.1538 -0.4121
  962SOL    HW2 2886   1.332   0.985   0.112  0.1784  2.0456  1.0219
  963SOL     OW 2887   2.292   2.549   1.785 -0.2310  0.5526 -0.0437
  963SOL    HW1 2888   2.231   2.477   1.825  3.7953  3.1063 -0.5068
  963SOL    HW2 2889   2.319   2.618   1.859 -0.1056 -0.9755 -0.0404
  964SOL     OW 2890   2.369   0.414   1.651 -0.0339  0.3332  0.1276
  964SOL    HW1 2891   2.454   0.419   1.714  1.3467  0.3170  0.7246
  964SOL    HW2 2892   2.390   0.376   1.555 -2.8561  0.8332  1.4789
  965SOL     OW 2893   2.594   2.983   0.147 -0.2212 -0.5410  0.2311
  965SOL    HW1 2894   2.686   3.002   0.100 -0.6228 -0.0778 -1.4560
  965SOL    HW2 2895   2.510   3.015   0.092  1.3174  1.0969  1.4972
  966SOL     OW 2896   2.565   2.542   2.313  0.4898  0.0966 -0.8405
  966SOL    HW1 2897   2.635   2.575   2.381 -0.8973  3.0479 -1.5447
  966SOL    HW2 2898   2.493   2.614   2.290  0.5443 -0.0964 -2.3771
  967SOL     OW 2899   2.780   2.824   2.486 -0.1545  0.0769  0.7238
  967SOL    HW1 2900   2.824   2.742   2.436  0.8765 -0.9081  2.6466
  967SOL    HW2 2901   2.855   2.888   2.522 -0.1717  0.0553  0.7625
  968SOL     OW 2902   1.935   1.067   2.607 -0.2508  0.0829  0.4926
  968SOL    HW1 2903   1.863   1.110   2.557  0.4178 -1.6322  0.5072
  968SOL    HW2 2904   1.928   0.966   2.600  0.3343  2.9965  0.5303
  969SOL     OW 2905   2.791   2.475   1.125  0.4429  0.1203  0.1623
  969SOL    HW1 2906   2.781   2.482   1.020  0.3828 -0.9202 -1.6333
  969SOL    HW2 2907   2.831   2.384   1.161  0.9597  1.2176 -0.8871
  970SOL     OW 2908   1.026   2.088   1.821 -0.0348 -0.1460  0.1116
  970SOL    HW1 2909   0.943   2.087   1.758 -1.7278 -1.3774  1.2938
  970SOL    HW2 2910   1.002   2.116   1.919 -0.9449  0.5377 -0.3760
  971SOL     OW 2911   2.977   2.049   2.036 -0.2400 -0.0084 -0.2294
  971SOL    HW1 2912   2.948   2.148   2.067 -0.0864  1.4681 -1.3355
  971SOL    HW2 2913   3.006   2.046   1.933 -2.2238  1.4832 -0.0409
  972SOL     OW 2914   1.969   2.499   0.239 -0.1004  0.1815 -0.0114
  972SOL    HW1 2915   1.985   2.401   0.203 -1.8355 -1.0087 -1.4811
  972SOL    HW2 2916   2.025   2.532   0.315 -2.3512 -0.0428 -1.3148
  973SOL     OW 2917   1.274   1.041   1.924  0.2904  0.5952  0.0856
  973SOL    HW1 2918   1.195   1.006   1.866 -0.4205 -1.5654  0.2416
  973SOL    HW2 2919   1.258   1.137   1.960 -1.2622 -1.1505 -0.0271
  974SOL     OW 2920   1.600   0.575   1.966  0.5393 -0.1613  0.6623
  974SOL    HW1 2921   1.679   0.638   1.938  2.6949 -1.2035 -0.7550
  974SOL    HW2 2922   1.512   0.630   1.949 -1.1476  2.5697 -1.5714
  975SOL     OW 2923   2.372   3.040   0.007  0.1885  0.8033  0.3827
  975SOL    HW1 2924   2.327   2.946   0.017  0.0297  0.0321  0.4246
  975SOL    HW2 2925   2.381   3.061  -0.093  0.4414 -2.1540  0.1817
  976SOL     OW 2926   1.893   2.844   2.332 -0.1140  0.6540  0.0715
  976SOL    HW1 2927   1.844   2.756   2.320  2.1472 -1.9247  1.5297
  976SOL    HW2 2928   1.954   2.844   2.420  2.3124  0.5095 -0.7600
  977SOL     OW 2929   0.486   0.693   1.064 -0.2400 -0.3388  0.0810
  977SOL    HW1 2930   0.399   0.720   1.008 -4.7019  1.0140 -1.0870
  977SOL    HW2 2931   0.571   0.726   1.011  2.4112 -0.0375 -1.3622
   3.10000   3.10000   3.10000
