1000 SPC/Fw water molecules t=   1.82000 step= 1820
 2931
    1SOL     OW    1   2.519   0.343   2.657 -0.2787 -0.5495  0.0448
    1SOL    HW1    2   2.512   0.239   2.668 -1.1838  0.6121  0.9296
    1SOL    HW2    3   2.588   0.389   2.714 -1.6580 -0.3300  0.8441
    2SOL     OW    4   2.718   2.873   1.366  0.3827 -1.0334 -0.5278
    2SOL    HW1    5   2.817   2.900   1.342  3.2287 -0.1487 -2.7680
    2SOL    HW2    6   2.686   2.923   1.452 -0.4611  3.0442 -1.0037
    3SOL     OW    7   2.732   2.440   0.411  0.1291 -0.0047  0.7100
    3SOL    HW1    8   2.631   2.421   0.393  2.3157 -0.7305 -2.4602
    3SOL    HW2    9   2.742   2.528   0.466  1.1266 -0.6056 -0.6291
    4SOL     OW   10   1.264   1.535   2.450 -0.5793  0.3683 -0.4272
    4SOL    HW1   11   1.223   1.551   2.356 -1.1023 -1.1157 -0.4366
    4SOL    HW2   12   1.206   1.496   2.526 -0.2909  1.9263  2.4800
    5SOL     OW   13   1.134   1.580   2.936  0.3309  0.4175 -0.9374
    5SOL    HW1   14   1.186   1.649   2.994 -0.1677 -1.6734 -1.9358
    5SOL    HW2   15   1.043   1.617   2.905  4.1811 -0.0239 -0.6722
    6SOL     OW   16   0.189   1.848   0.029 -0.9414  0.0660  0.3971
    6SOL    HW1   17   0.091   1.869   0.069 -2.1771 -2.1425  4.2125
    6SOL    HW2   18   0.240   1.775   0.086 -0.7678 -0.0917  2.7382
    7SOL     OW   19   2.522   0.919   1.058  0.2872 -0.6331 -0.7513
    7SOL    HW1   20   2.448   0.849   1.084  1.0785 -1.3367  1.9088
    7SOL    HW2   21   2.551   0.898   0.962  1.0544 -1.1770 -1.6763
    8SOL     OW   22   0.419   0.706   1.502  0.7025  0.6209 -0.1300
    8SOL    HW1   23   0.510   0.675   1.537 -0.0560  1.5008  0.8553
    8SOL    HW2   24   0.426   0.744   1.404 -0.5944  0.0563 -0.3195
    9SOL     OW   25   1.099   0.902   2.343 -0.6003  0.1020 -0.2211
    9SOL    HW1   26   1.169   0.914   2.272 -3.0687  3.2393  4.8850
    9SOL    HW2   27   1.053   0.809   2.347 -0.1959  0.4226  1.9184
   10SOL     OW   28   0.648   1.431   1.273 -0.7942  1.2702  0.1007
   10SOL    HW1   29   0.561   1.430   1.220 -2.0763  1.3150  1.4833
   10SOL    HW2   30   0.674   1.531   1.304  1.2090  2.2409  0.5992
   11SOL     OW   31   2.316   2.836   0.928  0.2228 -0.2470  0.6085
   11SOL    HW1   32   2.255   2.808   1.012  1.8780 -1.8952 -0.4496
   11SOL    HW2   33   2.411   2.854   0.955 -2.1705 -2.9075  0.4257
   12SOL     OW   34   1.479   0.843   0.485  0.1580 -0.0311  0.1716
   12SOL    HW1   35   1.380   0.871   0.485 -0.8409 -2.2166  1.1357
   12SOL    HW2   36   1.491   0.776   0.407 -2.9630 -1.3921 -1.7979
   13SOL     OW   37   2.444   0.748   1.800 -0.1342  0.3879  0.2228
   13SOL    HW1   38   2.392   0.688   1.873 -1.1797 -0.2299  1.4263
   13SOL    HW2   39   2.465   0.700   1.713 -2.2268  0.4149 -0.6034
   14SOL     OW   40   1.940   3.056   0.597 -0.0313 -0.1876  0.4161
   14SOL    HW1   41   1.849   3.100   0.577 -1.1439  1.5260 -0.4371
   14SOL    HW2   42   1.949   3.015   0.695  1.4180 -1.6031  1.6728
   15SOL     OW   43   1.909   2.133   2.675 -0.0771 -0.0964 -0.0906
   15SOL    HW1   44   1.841   2.133   2.754 -1.1820 -1.9036  2.7824
   15SOL    HW2   45   1.893   2.054   2.605 -0.1503 -1.5701 -1.9266
   16SOL     OW   46   1.549   1.779   3.034 -0.2799 -0.3345 -0.6605
   16SOL    HW1   47   1.542   1.696   3.099  1.6025 -0.2962 -1.8643
   16SOL    HW2   48   1.646   1.824   3.028 -0.2792  1.7249  1.8513
   17SOL     OW   49   0.100   0.466   0.174 -0.3778 -0.3094  0.2849
   17SOL    HW1   50   0.193   0.512   0.166 -2.2387  0.0387 -2.2866
   17SOL    HW2   51   0.042   0.485   0.087 -0.3087  2.3119  1.4675
   18SOL     OW   52   0.879   2.854   2.175 -0.3020 -0.5780  0.5039
   18SOL    HW1   53   0.870   2.769   2.228 -1.2317  0.0219  0.7553
   18SOL    HW2   54   0.955   2.845   2.106 -2.4525 -0.7232  0.1920
   19SOL     OW   55   0.519   0.958   1.918 -0.2858 -0.0635  0.4132
   19SOL    HW1   56   0.552   0.909   2.006 -0.4389 -0.7309  1.6649
   19SOL    HW2   57   0.593   1.013   1.866  1.0705 -0.9941 -0.2415
   20SOL     OW   58   0.248   2.786   0.724 -0.0416 -0.2795 -0.5341
   20SOL    HW1   59   0.144   2.788   0.744  1.4877 -1.3439 -0.9228
   20SOL    HW2   60   0.282   2.695   0.696 -1.0224 -2.2098 -0.6904
   21SOL     OW   61   2.782   0.286   2.008 -0.0314  0.1337 -0.5509
   21SOL    HW1   62   2.711   0.222   1.966 -0.5586 -0.1958 -0.2128
   21SOL    HW2   63   2.848   0.230   2.071 -1.4198 -0.1661  0.6609
   22SOL     OW   64   2.406   0.177   0.124  0.4129 -0.0279 -0.5600
   22SOL    HW1   65   2.445   0.108   0.058 -1.2610  3.7763  1.5447
   22SOL    HW2   66   2.318   0.228   0.095  0.8692 -1.0715  0.4998
   23SOL     OW   67   2.819   0.517   0.669 -0.3126 -0.5115 -0.0898
   23SOL    HW1   68   2.872   0.428   0.684  1.6469  0.6499 -0.3071
   23SOL    HW2   69   2.852   0.564   0.578  2.4005  0.7904  0.2599
   24SOL     OW   70   0.303   1.909   0.449 -0.4692  0.9780 -0.0981
   24SOL    HW1   71   0.267   1.975   0.380  0.1949 -2.2382 -2.5769
   24SOL    HW2   72   0.379   1.847   0.410 -0.5727  1.8711  2.2052
   25SOL     OW   73   2.299   0.603   0.237 -0.4049  0.1562  0.5729
   25SOL    HW1   74   2.283   0.607   0.133 -0.9392  1.6073  0.8693
   25SOL    HW2   75   2.337   0.511   0.271  0.2711 -0.3693 -0.6235
   26SOL     OW   76   2.445   2.155   2.091  0.0102 -0.2177  0.8794
   26SOL    HW1   77   2.527   2.212   2.119 -0.1148  0.2011  0.5032
   26SOL    HW2   78   2.467   2.087   2.010  1.0823  0.3043  1.0853
   27SOL     OW   79   0.642   3.014   0.128 -0.0149 -0.3676  0.4608
   27SOL    HW1   80   0.727   3.061   0.092  2.9878  3.5504 -0.6461
   27SOL    HW2   81   0.566   2.995   0.057 -0.6142 -2.5887 -0.2442
   28SOL     OW   82   1.573   0.171   0.337 -0.3877  0.3070  0.4466
   28SOL    HW1   83   1.583   0.150   0.237  0.8288  0.7075 -1.2473
   28SOL    HW2   84   1.621   0.261   0.363 -0.6523 -0.7190 -1.8736
   29SOL     OW   85   2.017   0.550   0.319  0.3293  0.4048 -0.0101
   29SOL    HW1   86   1.980   0.639   0.352  0.5495 -0.7378 -0.0093
   29SOL    HW2   87   2.116   0.550   0.283 -0.1142 -0.9875 -0.1667
   30SOL     OW   88   0.184   2.125   0.896  0.0499  0.6844 -0.5904
   30SOL    HW1   89   0.166   2.035   0.840 -0.5610 -2.1807  0.7618
   30SOL    HW2   90   0.095   2.164   0.938 -0.8842  3.3506 -1.2471
   31SOL     OW   91   2.091   0.095   2.397  0.2907  0.3132 -0.3559
   31SOL    HW1   92   2.045   0.064   2.485 -1.5899 -1.5959 -1.3172
   31SOL    HW2   93   2.040   0.071   2.311 -0.7926  2.4854  0.6654
   32SOL     OW   94   3.074   3.063   0.250 -0.2232  0.2444 -0.1110
   32SOL    HW1   95   3.041   2.965   0.273 -0.9690  0.4512 -0.7665
   32SOL    HW2   96   3.177   3.063   0.222  0.4135  1.4227 -1.5517
   33SOL     OW   97   0.862   0.281   0.632 -0.8291  0.6738 -0.2258
   33SOL    HW1   98   0.845   0.199   0.565 -1.2935 -1.2189  1.4438
   33SOL    HW2   99   0.966   0.314   0.630  2.7869  0.9544  1.3329
   34SOL     OW  100   0.320   2.660   1.038  0.1515 -0.1116  0.0388
   34SOL    HW1  101   0.297   2.692   0.943 -1.5787 -2.3422  0.4087
   34SOL    HW2  102   0.400   2.713   1.075  1.5720  0.6248  0.1539
   35SOL     OW  103   0.087   0.195   1.891  0.5399  0.8827 -0.1846
   35SOL    HW1  104   0.114   0.103   1.920  0.4523  1.7262 -3.0627
   35SOL    HW2  105   0.034   0.199   1.800  0.0554 -0.4992  0.4468
   36SOL     OW  106   1.880   1.213   1.501  0.2657 -0.3105 -0.2918
   36SOL    HW1  107   1.980   1.187   1.520  0.1128  1.2606 -1.5940
   36SOL    HW2  108   1.870   1.279   1.421 -2.3210  1.2485 -0.6215
   37SOL     OW  109   1.153   0.269   1.013  0.4215 -0.1699  0.2221
   37SOL    HW1  110   1.167   0.361   0.955 -0.6498  2.4957 -0.6023
   37SOL    HW2  111   1.221   0.197   0.982 -0.1784 -0.8591  0.5519
   38SOL     OW  112   1.138   2.807   2.454 -0.3796 -0.9141 -0.1417
   38SOL    HW1  113   1.047   2.780   2.501  0.0200 -0.0926 -1.1604
   38SOL    HW2  114   1.123   2.898   2.403 -1.2629 -0.2791 -2.2867
   39SOL     OW  115   2.465   1.396   2.986 -0.1113 -0.4758  0.0131
   39SOL    HW1  116   2.527   1.313   2.995 -1.9502 -0.2700  0.9961
   39SOL    HW2  117   2.379   1.390   3.046 -0.1584  3.2155  1.5813
   40SOL     OW  118   2.051   2.512   2.511  0.5938 -0.8333 -0.1505
   40SOL    HW1  119   2.016   2.607   2.546 -0.9453  0.8579  0.1973
   40SOL    HW2  120   1.983   2.462   2.452 -1.0725  2.8450  2.6036
   41SOL     OW  121   3.027   0.706   2.824 -0.1267  0.0097 -0.0836
   41SOL    HW1  122   3.002   0.793   2.871  1.1523 -1.3236 -1.5864
   41SOL    HW2  123   2.939   0.658   2.794 -0.4347 -0.1716  1.4263
   42SOL     OW  124   1.705   1.769   0.486 -0.2037  0.0909  0.1132
   42SOL    HW1  125   1.674   1.670   0.472 -1.1737  0.4166 -0.7783
   42SOL    HW2  126   1.753   1.808   0.403  1.2024  1.7902 -0.4134
   43SOL     OW  127   0.483   1.690   1.119 -0.6178  0.4535 -0.1645
   43SOL    HW1  128   0.450   1.587   1.106 -0.7943 -0.0986 -0.6828
   43SOL    HW2  129   0.426   1.728   1.198 -0.7000  2.2652  0.5493
   44SOL     OW  130   1.683   2.353   2.935  0.3077  0.2423  0.0517
   44SOL    HW1  131   1.604   2.407   2.970 -0.7264 -0.7628  1.7930
   44SOL    HW2  132   1.723   2.393   2.847  0.4978  2.1464  0.8728
   45SOL     OW  133   0.354   1.910   2.647 -0.3845  0.3935 -0.1757
   45SOL    HW1  134   0.305   1.909   2.557  2.2573  2.1244  1.0588
   45SOL    HW2  135   0.437   1.844   2.635  0.6291  3.9549 -1.5860
   46SOL     OW  136   1.334   0.720   0.236 -0.2145 -0.3244 -0.1111
   46SOL    HW1  137   1.329   0.817   0.186  2.2930  1.4807  0.8374
   46SOL    HW2  138   1.266   0.649   0.195  0.3383 -0.8150 -1.3444
   47SOL     OW  139   0.140   2.371   1.602  0.1001 -0.2369 -0.4528
   47SOL    HW1  140   0.099   2.284   1.636  2.0309 -0.7518 -0.1915
   47SOL    HW2  141   0.128   2.392   1.502 -1.3359 -0.3704 -0.6692
   48SOL     OW  142   2.632   0.740   0.142  0.0952 -0.4576 -0.0399
   48SOL    HW1  143   2.635   0.707   0.239  0.5740  0.2821  0.8980
   48SOL    HW2  144   2.724   0.746   0.098 -0.5885 -0.1806  1.3658
   49SOL     OW  145   0.328   0.847   1.740 -0.5407 -0.3209 -0.1970
   49SOL    HW1  146   0.399   0.896   1.804  2.4686 -1.2051 -0.9090
   49SOL    HW2  147   0.374   0.808   1.655 -3.3500  1.6755 -1.6516
   50SOL     OW  148   1.693   1.100   0.317  0.0884 -0.1248  0.2635
   50SOL    HW1  149   1.732   1.005   0.299 -3.0143 -0.7015  0.1684
   50SOL    HW2  150   1.629   1.098   0.398  0.1547  0.0900 -2.3362
   51SOL     OW  151   2.994   1.755   0.305  0.0013  0.3815 -0.0046
   51SOL    HW1  152   2.979   1.665   0.251  0.0350  0.7697 -2.2467
   51SOL    HW2  153   3.083   1.751   0.360  0.2229 -0.3538  0.1591
   52SOL     OW  154   0.778   2.155   0.581  0.3295  0.1704  0.0637
   52SOL    HW1  155   0.676   2.177   0.578 -0.0021 -2.2206 -0.8156
   52SOL    HW2  156   0.810   2.098   0.662  0.1113  2.1338 -0.1175
   53SOL     OW  157   0.294   0.456   1.445 -0.3879  0.2677  0.6259
   53SOL    HW1  158   0.337   0.550   1.463 -2.0006  1.2861 -0.0756
   53SOL    HW2  159   0.280   0.440   1.342  2.4846  0.9255 -0.5854
   54SOL     OW  160   1.729   0.416   0.004 -0.3408  0.0263  0.2460
   54SOL    HW1  161   1.809   0.378   0.058 -0.5028 -0.0858 -1.8900
   54SOL    HW2  162   1.639   0.426   0.057  0.2770  0.1758  1.4903
   55SOL     OW  163   0.788   2.950   0.620 -0.1668 -0.7608  0.1803
   55SOL    HW1  164   0.753   3.047   0.602  0.1839 -0.7367 -0.1383
   55SOL    HW2  165   0.892   2.937   0.620  0.2493  1.5259 -0.1252
   56SOL     OW  166   0.527   1.549   3.022 -0.2427  0.3937 -0.4697
   56SOL    HW1  167   0.460   1.592   3.081  3.3858  2.3920 -0.8626
   56SOL    HW2  168   0.514   1.446   3.007  1.3621  0.7454  1.2760
   57SOL     OW  169   1.695   2.469   2.350  0.6279 -0.2615  0.0664
   57SOL    HW1  170   1.781   2.412   2.374  1.2499  0.6832  1.0308
   57SOL    HW2  171   1.620   2.441   2.414  1.5159 -2.6660  0.7305
   58SOL     OW  172   0.622   0.201   1.094 -0.1027 -0.3803 -0.7221
   58SOL    HW1  173   0.530   0.169   1.127  1.5471  2.6312  0.1750
   58SOL    HW2  174   0.691   0.129   1.114 -0.3342  0.0541  0.7600
   59SOL     OW  175   0.463   2.377   2.557 -0.1270  0.1863 -0.2022
   59SOL    HW1  176   0.477   2.289   2.604 -1.1182  2.4793  0.8597
   59SOL    HW2  177   0.541   2.449   2.581  2.9795 -0.2022 -1.8827
   60SOL     OW  178   2.302   2.049   2.308  0.6431  0.2079  0.4890
   60SOL    HW1  179   2.347   2.100   2.226  0.0079 -1.5891  0.0657
   60SOL    HW2  180   2.331   2.086   2.400  0.7822 -2.5005 -0.3938
   61SOL     OW  181   1.207   0.640   0.482  0.1026 -0.2328  0.3324
   61SOL    HW1  182   1.107   0.656   0.489  0.9146  1.0663  0.5644
   61SOL    HW2  183   1.243   0.679   0.391  0.5562 -0.9875  1.7446
   62SOL     OW  184   2.801   1.680   2.704  0.1065 -0.3763 -0.2468
   62SOL    HW1  185   2.768   1.580   2.688 -0.0416 -0.4979  1.0646
   62SOL    HW2  186   2.848   1.693   2.796  2.2871  0.5076 -1.1374
   63SOL     OW  187   0.549   0.869   0.164  0.2613 -1.0364  0.0218
   63SOL    HW1  188   0.602   0.938   0.103  1.5503  1.2474 -0.6019
   63SOL    HW2  189   0.605   0.835   0.243 -1.6235 -0.6568  0.9029
   64SOL     OW  190   3.014   0.542   2.376  0.2621  0.2432  0.2560
   64SOL    HW1  191   2.937   0.572   2.445  0.4370 -0.4972 -1.1937
   64SOL    HW2  192   3.009   0.590   2.284 -0.4030 -3.4121  1.7878
   65SOL     OW  193   0.197   1.422   0.642 -0.7892 -0.0716 -0.3377
   65SOL    HW1  194   0.189   1.497   0.710 -1.5973  1.0753  0.3506
   65SOL    HW2  195   0.254   1.444   0.554  0.8995  1.4585 -2.0828
   66SOL     OW  196   2.593   0.325   0.512 -0.2369  0.0880 -0.7892
   66SOL    HW1  197   2.695   0.298   0.527  0.3919  0.3755  2.1810
   66SOL    HW2  198   2.529   0.254   0.562 -1.5459 -3.3377  2.9971
   67SOL     OW  199   0.583   2.496   1.508 -0.1745  0.2081  0.4298
   67SOL    HW1  200   0.667   2.462   1.554 -1.1101  0.8865  2.0750
   67SOL    HW2  201   0.511   2.417   1.496  0.5993 -1.0735 -0.7476
   68SOL     OW  202   0.912   1.044   2.505  0.2923 -0.4203 -0.4027
   68SOL    HW1  203   0.995   0.997   2.460  0.2540 -1.1810 -0.0969
   68SOL    HW2  204   0.845   1.078   2.431 -2.1184 -3.0814  0.9906
   69SOL     OW  205   0.779   2.593   2.356 -0.4666  0.1057 -0.4362
   69SOL    HW1  206   0.778   2.522   2.283 -0.1862  1.4290  2.5087
   69SOL    HW2  207   0.680   2.627   2.366 -0.7937 -2.0347  0.0834
   70SOL     OW  208   0.504   0.152   2.587  0.8185  0.2766 -0.3265
   70SOL    HW1  209   0.412   0.132   2.628  1.3727 -0.7575 -1.4354
   70SOL    HW2  210   0.564   0.066   2.583 -1.3901 -0.7760  0.9596
   71SOL     OW  211   1.064   1.755   0.294  0.2785 -0.0816  0.1630
   71SOL    HW1  212   0.981   1.777   0.358 -0.9260 -2.0406  1.6242
   71SOL    HW2  213   1.033   1.775   0.194 -0.6741 -0.4844 -1.4490
   72SOL     OW  214   1.861   0.252   2.147 -0.1203 -0.2982  0.5020
   72SOL    HW1  215   1.888   0.326   2.082 -2.6123 -1.1428 -2.8251
   72SOL    HW2  216   1.922   0.174   2.152 -0.3909 -1.1589 -0.6123
   73SOL     OW  217   2.741   2.202   2.483 -0.0621 -0.2431 -0.3611
   73SOL    HW1  218   2.745   2.109   2.429  3.8552 -0.1677 -0.0839
   73SOL    HW2  219   2.813   2.191   2.559 -0.3458  1.0212  1.0758
   74SOL     OW  220   2.695   2.965   2.148 -0.8042  0.2381 -0.1540
   74SOL    HW1  221   2.623   2.944   2.225 -0.9730 -1.2024  3.3526
   74SOL    HW2  222   2.791   2.988   2.188 -0.9769 -0.1422  1.2676
   75SOL     OW  223   0.929   0.786   1.170 -0.1611 -0.2091  0.1028
   75SOL    HW1  224   0.835   0.814   1.138  1.2097 -0.7189 -1.7888
   75SOL    HW2  225   0.970   0.838   1.249  1.8364 -0.9170  0.2749
   76SOL     OW  226   1.844   1.262   2.631 -0.2960  0.1292 -0.2736
   76SOL    HW1  227   1.744   1.274   2.637  1.6851  1.2746 -0.3047
   76SOL    HW2  228   1.889   1.349   2.662  0.5675 -1.2664  0.5087
   77SOL     OW  229   2.928   0.911   1.029  0.1659 -0.3614 -0.2191
   77SOL    HW1  230   2.896   0.813   1.042  1.3497 -0.9977  1.0680
   77SOL    HW2  231   2.998   0.937   1.100 -1.1293  0.8181 -0.1245
   78SOL     OW  232   1.947   1.433   1.340  0.4012  0.4581 -0.0788
   78SOL    HW1  233   2.030   1.435   1.280 -1.4282 -0.7561  1.3848
   78SOL    HW2  234   1.859   1.464   1.287 -0.4852  0.8278 -0.8332
   79SOL     OW  235   0.681   1.465   0.838 -0.9193  0.0637 -0.3638
   79SOL    HW1  236   0.582   1.453   0.826  0.9061  1.9830  3.8119
   79SOL    HW2  237   0.733   1.377   0.824 -2.8922 -0.9726 -1.2459
   80SOL     OW  238   0.683   0.481   1.603  0.3330  0.0566 -0.6458
   80SOL    HW1  239   0.689   0.515   1.505  0.6405  2.2952  1.1066
   80SOL    HW2  240   0.674   0.378   1.613 -1.5595 -1.1333  2.0225
   81SOL     OW  241   1.070   1.296   2.498 -0.4421  0.5971 -0.2971
   81SOL    HW1  242   1.004   1.231   2.542 -1.7280  0.0883 -0.1746
   81SOL    HW2  243   1.056   1.302   2.396  2.6939 -3.3720 -2.8129
   82SOL     OW  244   0.943   2.947   1.616  0.0672 -0.3046  0.0145
   82SOL    HW1  245   0.980   2.857   1.574 -0.4155  0.8475 -1.6607
   82SOL    HW2  246   0.939   3.018   1.544  2.5195 -0.7735  2.9305
   83SOL     OW  247   2.624   2.339   0.907 -0.5469 -0.0544  0.4664
   83SOL    HW1  248   2.542   2.295   0.851  0.8701  1.0923 -2.0445
   83SOL    HW2  249   2.628   2.441   0.895  0.8903  0.6437  2.7529
   84SOL     OW  250   0.759   3.075   2.321 -0.0951 -0.2849  0.5487
   84SOL    HW1  251   0.718   3.063   2.419 -2.9135  0.2010  0.9703
   84SOL    HW2  252   0.784   2.986   2.275 -0.7062  2.8006  2.3409
   85SOL     OW  253   0.307   1.696   1.348 -0.3571 -0.6683  0.0936
   85SOL    HW1  254   0.310   1.791   1.390 -0.0752  2.7333 -0.0869
   85SOL    HW2  255   0.347   1.629   1.417 -0.2811  0.0464  1.8020
   86SOL     OW  256   0.460   1.051   1.403  0.7848  0.1411 -0.0679
   86SOL    HW1  257   0.422   0.992   1.328 -1.7084  2.0835 -0.4508
   86SOL    HW2  258   0.556   1.018   1.437 -0.8771  1.9202  0.0462
   87SOL     OW  259   1.647   0.637   0.330 -0.4190  0.6419  0.8383
   87SOL    HW1  260   1.710   0.717   0.303  0.9090  2.0374  1.3428
   87SOL    HW2  261   1.586   0.601   0.254 -2.0529 -2.5554  0.2832
   88SOL     OW  262   1.566   1.323   0.244 -0.5110  0.0381  0.0581
   88SOL    HW1  263   1.624   1.237   0.243  1.2169 -2.2802  0.3160
   88SOL    HW2  264   1.459   1.298   0.234 -2.5489  1.0188 -2.4903
   89SOL     OW  265   3.089   0.379   0.696 -0.2390 -0.7145 -0.1918
   89SOL    HW1  266   3.194   0.387   0.695  1.0134  0.9246 -0.0751
   89SOL    HW2  267   3.064   0.287   0.653 -1.5280  1.1128 -1.6682
   90SOL     OW  268   0.753   1.545   0.117 -0.1383  0.5741 -0.1969
   90SOL    HW1  269   0.839   1.489   0.098  1.0209  0.0847  1.0852
   90SOL    HW2  270   0.677   1.536   0.045 -0.0985 -1.6109 -0.0656
   91SOL     OW  271   1.308   1.506   1.699 -0.1725  0.2018  0.0101
   91SOL    HW1  272   1.288   1.571   1.776  1.5771 -2.3112 -0.9273
   91SOL    HW2  273   1.403   1.467   1.693 -2.8006  1.9150 -2.1982
   92SOL     OW  274   0.056   0.997   1.188  0.6694 -0.5108 -0.3784
   92SOL    HW1  275   0.130   1.048   1.144 -0.5951 -1.1907  0.8480
   92SOL    HW2  276   0.063   1.001   1.288 -1.2994  0.5511 -1.7557
   93SOL     OW  277   3.040   2.644   0.061  0.0225 -0.0182 -0.3120
   93SOL    HW1  278   3.011   2.661  -0.037  1.6589  0.5787  1.7737
   93SOL    HW2  279   3.060   2.543   0.084 -1.3581  2.0502  0.5833
   94SOL     OW  280   1.524   1.360   1.671  0.1253  0.8646 -0.4620
   94SOL    HW1  281   1.551   1.259   1.681  0.1100  2.4062 -0.1758
   94SOL    HW2  282   1.570   1.409   1.594  0.4161  0.9948  0.5611
   95SOL     OW  283   1.365   2.468   2.937  0.1180  0.5686  0.1571
   95SOL    HW1  284   1.284   2.453   2.995  1.8021 -0.4608 -0.5808
   95SOL    HW2  285   1.393   2.376   2.894  2.4700 -1.0312  1.0103
   96SOL     OW  286   0.573   2.162   1.273  0.1382  0.0503 -0.6407
   96SOL    HW1  287   0.512   2.132   1.194 -0.3440  0.8121  0.1766
   96SOL    HW2  288   0.610   2.083   1.330  1.2531  0.3239  0.5378
   97SOL     OW  289   0.257   1.589   2.390  0.3668  0.4320  0.1426
   97SOL    HW1  290   0.224   1.687   2.375  0.7483 -2.3088  2.0777
   97SOL    HW2  291   0.237   1.570   2.489 -2.2273 -2.3081 -1.8478
   98SOL     OW  292   2.225   1.674   1.190  0.6540  0.3788  0.3663
   98SOL    HW1  293   2.190   1.571   1.189  0.3170 -2.6655  0.0930
   98SOL    HW2  294   2.319   1.692   1.142 -0.4229  1.2442 -0.8987
   99SOL     OW  295   2.630   2.064   1.304  0.5418  0.4069 -0.3429
   99SOL    HW1  296   2.671   2.096   1.390 -2.8950  0.4546 -2.1425
   99SOL    HW2  297   2.530   2.037   1.321  0.9776  0.6571 -0.9327
  100SOL     OW  298   2.329   0.357   2.119 -0.0137  0.4438 -0.3870
  100SOL    HW1  299   2.275   0.347   2.208 -0.9500 -0.8073 -1.4634
  100SOL    HW2  300   2.432   0.379   2.138  1.2205 -0.0250  0.4987
  101SOL     OW  301   0.344   1.515   0.429 -0.2424  0.6035 -0.4721
  101SOL    HW1  302   0.375   1.582   0.506 -0.6383  1.1520  2.8643
  101SOL    HW2  303   0.426   1.468   0.388 -0.9934 -0.3064 -4.3130
  102SOL     OW  304   2.278   1.065   0.883  0.6575 -0.2991  0.1976
  102SOL    HW1  305   2.246   0.963   0.886 -1.7005 -0.8728 -0.0130
  102SOL    HW2  306   2.354   1.081   0.820 -1.3615 -1.7155 -1.5811
  103SOL     OW  307   2.258   0.073   0.380 -0.1205 -0.4718 -0.1855
  103SOL    HW1  308   2.299   0.150   0.318  1.0270 -1.9365  3.2216
  103SOL    HW2  309   2.331   0.006   0.405 -0.4055  0.2510 -0.2939
  104SOL     OW  310   3.072   1.813   2.207  0.2976 -0.0009 -0.5797
  104SOL    HW1  311   3.128   1.787   2.125 -0.4898  2.2327  1.0676
  104SOL    HW2  312   2.966   1.834   2.190 -1.8740 -0.6544 -0.7672
  105SOL     OW  313   1.290   2.094   0.772 -0.1669 -0.0168  0.5696
  105SOL    HW1  314   1.276   2.157   0.689 -0.6980  0.1553  0.0861
  105SOL    HW2  315   1.347   2.008   0.756 -3.2842 -0.6194  0.5188
  106SOL     OW  316   2.126   0.409   1.438 -0.1388  0.1877  0.0116
  106SOL    HW1  317   2.055   0.339   1.425  1.5623  1.1294 -1.4277
  106SOL    HW2  318   2.126   0.437   1.538  1.0816 -1.4442 -0.2956
  107SOL     OW  319   1.918   2.922   1.162  0.1139  0.1359  0.0208
  107SOL    HW1  320   1.850   2.983   1.214 -3.0094  0.2509 -1.8082
  107SOL    HW2  321   1.871   2.845   1.105 -1.9938  0.9659 -0.2894
  108SOL     OW  322   0.869   2.789   1.093  0.1374 -0.2807 -0.5488
  108SOL    HW1  323   0.870   2.716   1.022  1.7383 -1.6987 -1.1650
  108SOL    HW2  324   0.956   2.800   1.148 -0.8923  0.0913  1.4685
  109SOL     OW  325   2.187   0.152   0.735  0.2619 -0.1894  0.1883
  109SOL    HW1  326   2.116   0.091   0.692  0.0030 -1.3889 -0.3206
  109SOL    HW2  327   2.162   0.188   0.830 -0.6916  0.4400  0.2688
  110SOL     OW  328   0.498   2.820   2.747  0.0111  0.1242 -0.3327
  110SOL    HW1  329   0.497   2.819   2.640 -0.4245  2.6478 -0.2295
  110SOL    HW2  330   0.560   2.747   2.791  0.2312 -2.4626 -0.0686
  111SOL     OW  331   1.329   0.610   2.320  0.1285  0.6547  0.5807
  111SOL    HW1  332   1.234   0.625   2.358  1.0542  0.3851  2.4107
  111SOL    HW2  333   1.391   0.541   2.373  1.0957  0.4535  1.0094
  112SOL     OW  334   1.739   0.520   1.533  0.3474  0.7575 -0.1683
  112SOL    HW1  335   1.705   0.534   1.437 -0.1954 -1.2171  0.1812
  112SOL    HW2  336   1.665   0.558   1.603 -1.3649  0.6209 -0.4476
  113SOL     OW  337   2.261   1.689   1.799 -0.3338 -0.1252 -0.1280
  113SOL    HW1  338   2.324   1.641   1.738 -1.3305  1.2092 -0.3111
  113SOL    HW2  339   2.285   1.692   1.901  0.0100  1.2099  0.3348
  114SOL     OW  340   0.275   0.398   1.158  0.6127  0.6593 -0.0866
  114SOL    HW1  341   0.174   0.411   1.161  1.8348  0.9256 -2.1020
  114SOL    HW2  342   0.324   0.453   1.083  0.1033 -0.7972  1.6489
  115SOL     OW  343   2.666   1.539   1.250  0.0731 -0.5628  0.2256
  115SOL    HW1  344   2.660   1.435   1.248  1.2051  0.6176 -0.1977
  115SOL    HW2  345   2.768   1.569   1.264  1.3734 -1.4882  0.6209
  116SOL     OW  346   1.908   0.918   0.690 -0.5317  0.4345 -0.8906
  116SOL    HW1  347   1.805   0.892   0.682 -0.4267 -1.1953  0.5050
  116SOL    HW2  348   1.926   1.022   0.673  1.9170 -0.4649 -1.0120
  117SOL     OW  349   1.136   0.360   0.576 -0.0406  0.6285 -0.1686
  117SOL    HW1  350   1.174   0.453   0.583 -0.9275 -2.2936  0.7792
  117SOL    HW2  351   1.110   0.336   0.478  0.1098 -3.8079  0.6524
  118SOL     OW  352   1.140   1.220   1.080 -0.1397  0.1099  0.2678
  118SOL    HW1  353   1.055   1.235   1.136  0.6427 -1.1049 -0.8923
  118SOL    HW2  354   1.192   1.311   1.056  0.1500  3.0593 -1.5732
  119SOL     OW  355   1.886   1.609   2.177  0.1593  0.4370 -0.0500
  119SOL    HW1  356   1.824   1.687   2.143 -1.7512 -2.4646  2.4022
  119SOL    HW2  357   1.959   1.575   2.108 -0.3252 -1.2026 -3.1772
  120SOL     OW  358   2.957   2.815   0.278 -0.0509 -0.1993  0.2101
  120SOL    HW1  359   2.977   2.759   0.190  0.4811 -0.3564  0.3789
  120SOL    HW2  360   2.856   2.827   0.304 -3.0628  2.1111  2.1220
  121SOL     OW  361   1.983   0.786   2.334  0.1325  0.1747 -0.0582
  121SOL    HW1  362   2.022   0.869   2.282  0.9726  0.4822  0.3753
  121SOL    HW2  363   1.991   0.697   2.284 -0.8962  1.4685  2.1754
  122SOL     OW  364   2.621   2.487   1.367 -0.5870  0.0487  0.3334
  122SOL    HW1  365   2.664   2.431   1.291 -2.7001  0.9164 -2.0106
  122SOL    HW2  366   2.619   2.437   1.463 -0.0459 -2.3809  1.7714
  123SOL     OW  367   1.646   0.186   1.646 -0.3922  0.6042 -0.2291
  123SOL    HW1  368   1.666   0.094   1.595  0.3380  0.2838 -1.2846
  123SOL    HW2  369   1.731   0.232   1.686  0.2736 -0.1043  0.5894
  124SOL     OW  370   3.048   0.398   1.160 -0.3266  0.1162 -0.3880
  124SOL    HW1  371   2.977   0.437   1.229 -3.2339 -2.3148 -0.7421
  124SOL    HW2  372   3.047   0.445   1.067 -0.4313  0.8209 -4.0798
  125SOL     OW  373   0.888   1.986   0.750  0.0283 -0.5907 -0.2091
  125SOL    HW1  374   0.972   1.930   0.771  0.4595 -0.3062  0.5647
  125SOL    HW2  375   0.812   1.987   0.822  2.4086  0.4232 -1.7993
  126SOL     OW  376   1.896   2.293   2.421 -0.2543  0.4550 -0.6625
  126SOL    HW1  377   1.977   2.260   2.365  2.1801  0.5699 -0.7899
  126SOL    HW2  378   1.898   2.249   2.517  2.2593 -0.5610 -0.2984
  127SOL     OW  379   0.914   0.961   0.173  0.2113 -0.2241 -0.2160
  127SOL    HW1  380   0.936   0.984   0.275  1.6505 -0.0365  0.8962
  127SOL    HW2  381   0.893   0.861   0.162  0.6369  0.9819  1.6309
  128SOL     OW  382   0.919   0.183   1.376 -0.6502 -0.0506  0.0689
  128SOL    HW1  383   0.879   0.264   1.326 -0.2923 -3.4444 -1.2477
  128SOL    HW2  384   0.861   0.103   1.354  1.0397  2.5583 -0.6963
  129SOL     OW  385   1.892   0.707   1.873 -0.0721 -0.4009  0.0262
  129SOL    HW1  386   1.923   0.724   1.774 -0.7189  0.9320  2.2905
  129SOL    HW2  387   1.920   0.787   1.933  1.0750  0.5818  1.5528
  130SOL     OW  388   1.392   2.159   1.020 -0.3073  0.1437 -0.0489
  130SOL    HW1  389   1.339   2.114   0.942  0.3230  0.4374 -1.9938
  130SOL    HW2  390   1.452   2.238   0.985  0.1707 -0.2963  0.0874
  131SOL     OW  391   3.033   1.392   1.444  0.4989 -0.4562 -0.1657
  131SOL    HW1  392   2.973   1.305   1.440  3.7125  1.8654  0.0123
  131SOL    HW2  393   3.132   1.377   1.443 -1.5714  0.6158  1.5523
  132SOL     OW  394   2.064   2.431   0.548  0.1820  0.2488  0.3074
  132SOL    HW1  395   1.963   2.463   0.559 -1.6161  0.0310 -0.5901
  132SOL    HW2  396   2.081   2.343   0.595 -1.5008  1.2494  0.5005
  133SOL     OW  397   1.772   2.494   2.710 -0.6315 -0.1779 -0.3598
  133SOL    HW1  398   1.695   2.458   2.650  2.1347 -1.1663  0.3010
  133SOL    HW2  399   1.752   2.586   2.743 -1.4027 -0.9277  0.4750
  134SOL     OW  400   2.610   2.417   1.648 -0.2936 -0.1632 -0.2327
  134SOL    HW1  401   2.555   2.382   1.732 -0.6326 -1.5035  1.9562
  134SOL    HW2  402   2.655   2.509   1.671  1.4747  0.3922  2.4929
  135SOL     OW  403   0.811   1.338   2.687 -0.0175  0.1065  0.3619
  135SOL    HW1  404   0.737   1.270   2.717  1.1269  0.4744  1.2125
  135SOL    HW2  405   0.811   1.361   2.582  1.3568  0.6017 -2.5440
  136SOL     OW  406   1.215   2.003   0.424 -0.1590 -0.0798  0.1298
  136SOL    HW1  407   1.145   2.071   0.457 -0.2142  0.7735  0.1036
  136SOL    HW2  408   1.185   1.906   0.430 -1.2098 -0.3760 -0.2492
  137SOL     OW  409   0.470   1.166   2.292 -0.0876  0.2288 -0.5436
  137SOL    HW1  410   0.367   1.166   2.297  1.6985  1.8381  0.1153
  137SOL    HW2  411   0.512   1.081   2.341 -1.5106 -0.0069 -1.3886
  138SOL     OW  412   2.429   1.482   0.279 -0.1618  0.3401 -0.1226
  138SOL    HW1  413   2.374   1.451   0.192 -1.8824 -2.1754  1.0069
  138SOL    HW2  414   2.497   1.413   0.314 -3.3604 -3.6267  0.7147
  139SOL     OW  415   1.900   2.650   1.558 -0.1261  0.0481  0.1316
  139SOL    HW1  416   1.803   2.672   1.535  1.5794 -2.2962 -1.9415
  139SOL    HW2  417   1.937   2.582   1.489  0.9766  1.0127 -1.4538
  140SOL     OW  418   3.016   2.971   2.622  0.5492  0.4172  0.7973
  140SOL    HW1  419   3.053   2.877   2.608  0.0956  0.4223 -2.4066
  140SOL    HW2  420   3.066   3.044   2.571  4.6698  2.5466  2.1265
  141SOL     OW  421   1.286   1.638   1.421 -0.6241  0.0010 -0.1356
  141SOL    HW1  422   1.199   1.683   1.392  2.5523  0.6697 -2.2449
  141SOL    HW2  423   1.278   1.602   1.517 -0.0123  0.4665  0.3931
  142SOL     OW  424   1.589   0.655   2.245 -0.3496 -0.6802  0.1402
  142SOL    HW1  425   1.566   0.691   2.148  0.5186  1.9060  2.0375
  142SOL    HW2  426   1.503   0.639   2.302  1.2050 -1.8102  1.2549
  143SOL     OW  427   2.789   0.776   0.555  0.5798  0.1464  0.6916
  143SOL    HW1  428   2.857   0.824   0.486  1.3743  1.4362 -0.9203
  143SOL    HW2  429   2.798   0.820   0.647  0.7681 -1.8305  0.4411
  144SOL     OW  430   2.913   1.126   1.432  0.0064 -0.6220  0.2357
  144SOL    HW1  431   2.890   1.143   1.529  0.7881  1.1166 -1.8889
  144SOL    HW2  432   2.997   1.065   1.420  0.7661 -0.2367 -1.8545
  145SOL     OW  433   0.939   1.787   0.061  0.7425  0.5974 -0.2028
  145SOL    HW1  434   0.960   1.821  -0.034 -0.6056  0.4759  1.0383
  145SOL    HW2  435   0.861   1.722   0.065  0.7898  0.1350  0.4270
  146SOL     OW  436   2.486   0.650   1.523  0.7575 -0.4156  0.5225
  146SOL    HW1  437   2.457   0.553   1.502 -0.2311 -1.4569 -5.1387
  146SOL    HW2  438   2.437   0.716   1.457  2.6028 -1.7174  2.3116
  147SOL     OW  439   1.114   2.523   0.542 -0.0845 -0.0261 -0.0080
  147SOL    HW1  440   1.080   2.578   0.461 -0.5253  0.4762  1.7812
  147SOL    HW2  441   1.202   2.471   0.518  1.0648 -0.1156  0.2100
  148SOL     OW  442   1.588   1.403   3.091 -0.5492  0.0032 -0.2166
  148SOL    HW1  443   1.621   1.311   3.048 -1.0413  0.3818 -1.2557
  148SOL    HW2  444   1.583   1.396   3.195 -3.0024  0.3143  1.5832
  149SOL     OW  445   0.695   1.494   1.984  0.5865 -0.2574  0.4247
  149SOL    HW1  446   0.602   1.460   2.012  1.7157 -0.6197  1.3061
  149SOL    HW2  447   0.719   1.472   1.881 -0.2242  1.0604  0.4967
  150SOL     OW  448   2.967   1.205   1.013 -0.3261 -0.2383  0.4898
  150SOL    HW1  449   3.052   1.249   1.053  0.8516  0.6526  0.1026
  150SOL    HW2  450   2.958   1.109   1.034  0.4140  2.6254 -3.1814
  151SOL     OW  451   0.154   0.842   2.097  0.5848 -0.6972 -0.1696
  151SOL    HW1  452   0.173   0.937   2.058 -1.2960  0.2981  0.8342
  151SOL    HW2  453   0.215   0.766   2.060 -0.7198 -3.2028 -0.8861
  152SOL     OW  454   1.444   1.873   1.103  0.2407  0.0749  0.4013
  152SOL    HW1  455   1.480   1.971   1.095  0.1564 -0.6772 -2.9971
  152SOL    HW2  456   1.336   1.872   1.087 -0.2372  2.3818 -1.3960
  153SOL     OW  457   0.060   1.494   0.259 -0.1969  0.5288  0.0429
  153SOL    HW1  458  -0.037   1.450   0.274 -0.6657 -1.4159  1.7594
  153SOL    HW2  459   0.075   1.561   0.337  1.3923 -1.5842  1.7766
  154SOL     OW  460   2.267   1.856   2.780 -0.2699 -0.0543  0.0022
  154SOL    HW1  461   2.295   1.756   2.796 -0.6686  0.0601  2.3237
  154SOL    HW2  462   2.335   1.909   2.725 -0.9541 -0.0473  2.4706
  155SOL     OW  463   2.610   1.302   0.380  0.6353  0.2771 -0.9770
  155SOL    HW1  464   2.629   1.319   0.482 -0.4413  2.8061 -0.8230
  155SOL    HW2  465   2.649   1.211   0.352  2.2572 -0.8175  0.2849
  156SOL     OW  466   2.479   0.807   0.770  0.2616  0.2042 -0.0049
  156SOL    HW1  467   2.377   0.796   0.790  0.6488 -1.0921  1.6148
  156SOL    HW2  468   2.502   0.853   0.675  2.4315  1.3075  1.5853
  157SOL     OW  469   1.226   3.087   3.023 -0.6404 -0.0852 -0.1151
  157SOL    HW1  470   1.295   3.034   2.959  1.7055  1.2479 -1.3358
  157SOL    HW2  471   1.281   3.161   3.069  1.9266  0.1575 -0.8530
  158SOL     OW  472   1.094   1.887   1.870 -0.3822  0.0123  0.0708
  158SOL    HW1  473   1.131   1.977   1.828  1.3004  3.0815 -1.2890
  158SOL    HW2  474   1.002   1.891   1.913 -0.4017  0.7299 -1.9532
  159SOL     OW  475   0.808   0.383   1.239  0.0138  0.2997  0.1010
  159SOL    HW1  476   0.767   0.473   1.277 -0.8697  0.6648 -3.9908
  159SOL    HW2  477   0.737   0.325   1.196  0.6865  2.4632  2.6399
  160SOL     OW  478   1.379   2.463   1.416 -0.1889  0.1471  0.2206
  160SOL    HW1  479   1.327   2.386   1.465 -1.1210  1.6225  2.1722
  160SOL    HW2  480   1.483   2.449   1.425  1.0545  0.2623  0.0099
  161SOL     OW  481   0.063   2.641   0.423 -0.1162  0.1104 -0.3301
  161SOL    HW1  482   0.021   2.550   0.400  2.6734  2.4271  0.7054
  161SOL    HW2  483  -0.000   2.722   0.400  0.9045 -0.6580  0.3370
  162SOL     OW  484   2.524   1.937   0.438  0.2103  0.3218  0.5668
  162SOL    HW1  485   2.591   1.945   0.362 -1.1644 -2.3878 -1.5934
  162SOL    HW2  486   2.481   1.847   0.440 -0.5128  1.3992 -0.8619
  163SOL     OW  487   1.950   2.733   0.794 -0.5254 -0.4481  0.6772
  163SOL    HW1  488   1.910   2.739   0.694  0.8738 -0.4566 -0.2089
  163SOL    HW2  489   2.017   2.651   0.807  1.6465 -1.3168 -1.5024
  164SOL     OW  490   3.044   0.143   1.240 -0.5587  0.0535  0.2617
  164SOL    HW1  491   3.047   0.234   1.191  0.8056  0.1653 -0.5702
  164SOL    HW2  492   3.128   0.125   1.301  1.7647  3.8517 -1.5158
  165SOL     OW  493   1.107   1.410   0.654  0.3571  0.0279  0.1110
  165SOL    HW1  494   1.063   1.473   0.729 -2.8038 -0.8745 -0.1412
  165SOL    HW2  495   1.062   1.406   0.561  1.9800  0.4243  0.3558
  166SOL     OW  496   1.559   0.989   1.819 -0.0033 -0.6995  0.2169
  166SOL    HW1  497   1.473   1.042   1.856 -0.7900 -0.7735 -2.3640
  166SOL    HW2  498   1.622   1.056   1.766 -0.4190  0.1890 -1.2794
  167SOL     OW  499   0.670   2.028   1.515  0.0005 -0.0878  0.2139
  167SOL    HW1  500   0.693   2.092   1.591  1.7402  0.5419 -0.6024
  167SOL    HW2  501   0.624   1.939   1.544 -2.8224  1.5625 -0.7235
  168SOL     OW  502   1.641   2.295   0.125  0.0442 -0.0465 -0.2417
  168SOL    HW1  503   1.721   2.273   0.063 -1.0037  0.5438 -1.4350
  168SOL    HW2  504   1.661   2.285   0.232  1.2466  1.6236  1.6962
  169SOL     OW  505   3.056   2.614   2.181 -0.1825 -0.2453 -0.1589
  169SOL    HW1  506   3.082   2.582   2.085  0.9488 -1.3162 -1.9146
  169SOL    HW2  507   3.099   2.555   2.255 -0.9742 -3.0989 -2.2513
  170SOL     OW  508   1.187   0.136   2.097  0.0034  0.1243 -0.0854
  170SOL    HW1  509   1.268   0.168   2.149 -0.1798 -0.0522  0.0251
  170SOL    HW2  510   1.189   0.149   1.992 -0.3950  1.2042  0.0867
  171SOL     OW  511   0.192   0.859   2.451  0.3795  0.1327  0.0930
  171SOL    HW1  512   0.101   0.870   2.506 -0.2708 -0.4146  0.2713
  171SOL    HW2  513   0.196   0.892   2.355  2.4994 -0.3627 -1.2179
  172SOL     OW  514   0.957   0.958   2.772  0.7380  0.5779  0.1162
  172SOL    HW1  515   0.892   1.011   2.832 -0.5482  1.2995 -1.2601
  172SOL    HW2  516   0.954   0.984   2.675 -1.5277  0.0274  1.2270
  173SOL     OW  517   0.361   2.565   3.052  0.3977 -0.5910 -0.3829
  173SOL    HW1  518   0.407   2.505   2.986 -1.0490  0.1130 -0.6690
  173SOL    HW2  519   0.358   2.533   3.148  0.2024  2.4502 -2.0439
  174SOL     OW  520   1.467   2.859   1.017 -0.2265 -0.4258 -0.4614
  174SOL    HW1  521   1.540   2.911   0.961 -0.3103  1.2292 -1.4700
  174SOL    HW2  522   1.449   2.763   0.983  0.5583 -0.1372  0.5313
  175SOL     OW  523   0.485   3.048   1.722 -0.4658  0.6392 -0.0563
  175SOL    HW1  524   0.542   3.048   1.809  0.6025  1.0302  1.5917
  175SOL    HW2  525   0.427   3.134   1.718 -2.3407  1.5481  1.6607
  176SOL     OW  526   2.539   0.482   0.002 -0.8869  0.3908  0.6634
  176SOL    HW1  527   2.568   0.569   0.055 -0.6298  0.3316  1.3735
  176SOL    HW2  528   2.536   0.403   0.070  2.4940  0.2124  1.5774
  177SOL     OW  529   0.377   0.169   0.802  0.2165 -0.4624 -0.0968
  177SOL    HW1  530   0.368   0.077   0.845 -1.7172  2.0336 -1.7386
  177SOL    HW2  531   0.473   0.196   0.807 -1.7489 -2.2793 -0.4611
  178SOL     OW  532   0.029   2.720   2.646  0.5139 -0.3651  0.1079
  178SOL    HW1  533   0.026   2.618   2.635  0.5101  0.6281 -1.8499
  178SOL    HW2  534   0.117   2.755   2.694  0.7038  1.6658 -0.3255
  179SOL     OW  535   2.964   1.608   1.241  0.1430  0.7462 -0.2360
  179SOL    HW1  536   3.053   1.622   1.184 -1.4976 -0.0270 -1.0597
  179SOL    HW2  537   2.989   1.557   1.329  0.8373 -1.4231 -1.0164
  180SOL     OW  538   0.273   1.411   1.746 -0.6782  0.0905  0.4691
  180SOL    HW1  539   0.342   1.358   1.802  1.1971  0.8955  0.4410
  180SOL    HW2  540   0.230   1.493   1.794  3.1022 -0.9659 -0.4981
  181SOL     OW  541   3.009   1.743   2.495  0.0529 -0.0741  0.2310
  181SOL    HW1  542   3.028   1.762   2.395 -0.9463  2.3156  2.7898
  181SOL    HW2  543   2.908   1.763   2.515 -0.9805  0.4481 -2.4646
  182SOL     OW  544   2.177   1.424   1.176  0.2921 -0.0963 -0.0746
  182SOL    HW1  545   2.206   1.328   1.202  1.8843  0.9241 -1.2480
  182SOL    HW2  546   2.197   1.447   1.073  3.0558  1.2053 -1.1745
  183SOL     OW  547   1.435   2.244   2.444 -0.4260 -0.1906  0.0765
  183SOL    HW1  548   1.350   2.189   2.467 -1.3213 -0.7680 -1.1331
  183SOL    HW2  549   1.516   2.176   2.432  1.6557 -1.6789  1.1504
  184SOL     OW  550   2.208   0.775   0.789  0.6393  0.0863  0.8714
  184SOL    HW1  551   2.121   0.805   0.748  0.0285 -0.6750  2.2370
  184SOL    HW2  552   2.233   0.678   0.780  0.6039  0.4791  3.1651
  185SOL     OW  553   1.579   2.726   2.001 -0.1159 -0.3651  0.1621
  185SOL    HW1  554   1.500   2.793   2.002  0.7337  1.0545 -1.5150
  185SOL    HW2  555   1.621   2.727   2.096 -0.7536  1.0053 -0.2165
  186SOL     OW  556   0.026   2.167   1.782  0.3463 -0.4634  0.5297
  186SOL    HW1  557   0.016   2.232   1.861 -1.6357  0.3087 -1.4869
  186SOL    HW2  558   0.114   2.118   1.771  0.5290 -1.0875 -1.7557
  187SOL     OW  559   1.316   0.664   1.642 -0.0813  0.2329  0.2576
  187SOL    HW1  560   1.409   0.710   1.634 -0.3452  1.4526 -1.9654
  187SOL    HW2  561   1.332   0.562   1.676  2.6575 -0.7966  2.0285
  188SOL     OW  562   2.700   2.665   1.579 -0.3820  0.1079 -0.0128
  188SOL    HW1  563   2.683   2.762   1.609  0.2033 -1.4663 -2.8614
  188SOL    HW2  564   2.680   2.650   1.474 -0.8581 -1.6238 -1.1488
  189SOL     OW  565   0.852   1.202   1.384  0.0153 -0.0799  0.3172
  189SOL    HW1  566   0.872   1.281   1.448 -1.0954 -0.5945  2.4729
  189SOL    HW2  567   0.836   1.233   1.286  0.0013 -0.6356 -0.3041
  190SOL     OW  568   1.445   1.863   1.520 -0.1049 -0.4250 -0.1698
  190SOL    HW1  569   1.384   1.780   1.490  0.9381 -1.3440 -1.0004
  190SOL    HW2  570   1.434   1.895   1.619 -0.5394 -1.0078 -1.3046
  191SOL     OW  571   0.874   0.781   1.505  0.4465 -0.1566  0.1169
  191SOL    HW1  572   0.909   0.694   1.556 -0.4716 -3.1856  0.7323
  191SOL    HW2  573   0.944   0.847   1.465 -1.5439 -1.5926 -2.6208
  192SOL     OW  574   1.833   2.444   1.124  0.0667 -0.2189 -0.2760
  192SOL    HW1  575   1.728   2.420   1.119 -1.2961 -1.7781  0.3035
  192SOL    HW2  576   1.881   2.387   1.048  0.6095  2.4830  1.9501
  193SOL     OW  577   0.502   0.499   0.383 -0.3891 -0.0623 -0.0385
  193SOL    HW1  578   0.437   0.413   0.393  0.1017 -0.9057 -0.2067
  193SOL    HW2  579   0.569   0.498   0.302  1.1894  0.8134  0.3378
  194SOL     OW  580   0.401   0.798   1.258  0.0599 -0.8610 -0.7598
  194SOL    HW1  581   0.300   0.773   1.265  2.1235  1.7439 -1.4141
  194SOL    HW2  582   0.448   0.766   1.173  1.8019 -0.5753 -0.9385
  195SOL     OW  583   1.059   2.912   0.517 -0.4846 -0.4482 -0.1183
  195SOL    HW1  584   1.019   2.829   0.466 -0.4719 -1.0827  0.4266
  195SOL    HW2  585   1.157   2.934   0.489 -0.2368 -1.9976 -1.4429
  196SOL     OW  586   0.222   1.375   1.320 -0.2094 -0.3317  0.7138
  196SOL    HW1  587   0.256   1.472   1.323  1.6885 -0.7595 -0.4134
  196SOL    HW2  588   0.274   1.313   1.383  0.0102  0.0517  0.1610
  197SOL     OW  589   0.783   1.960   0.235 -0.6153  0.4904  0.0041
  197SOL    HW1  590   0.813   1.924   0.327  1.1385  2.0866  0.5086
  197SOL    HW2  591   0.802   1.894   0.154  0.4248  0.8621  0.4039
  198SOL     OW  592   0.276   1.217   0.340  0.5327  0.1634 -0.6136
  198SOL    HW1  593   0.190   1.173   0.295 -0.5944 -1.1541  1.2839
  198SOL    HW2  594   0.255   1.314   0.376 -1.1574 -0.2070  1.1134
  199SOL     OW  595   2.227   0.404   2.636  0.7427  0.1958 -0.0108
  199SOL    HW1  596   2.166   0.356   2.709  0.5378 -1.1789  1.6999
  199SOL    HW2  597   2.330   0.389   2.654  4.1406 -2.0974 -0.9536
  200SOL     OW  598   3.080   2.879   0.799  0.2677  0.1693 -0.4093
  200SOL    HW1  599   3.133   2.966   0.800  0.2537 -0.8487 -1.6178
  200SOL    HW2  600   2.993   2.888   0.742 -2.1354  0.3794  0.4638
  201SOL     OW  601   0.934   0.680   0.529 -0.3986 -0.4644 -0.5079
  201SOL    HW1  602   0.924   0.758   0.600 -1.2894 -1.8461  1.6415
  201SOL    HW2  603   0.856   0.612   0.547  2.6748  0.9305  1.1631
  202SOL     OW  604   0.457   1.247   1.901  0.2543  0.5051  0.1734
  202SOL    HW1  605   0.544   1.198   1.871  0.3480 -2.6223 -0.5296
  202SOL    HW2  606   0.452   1.266   2.003  0.8025 -1.3266  0.6999
  203SOL     OW  607   0.659   0.164   1.549 -0.4525  0.1741  0.0841
  203SOL    HW1  608   0.692   0.116   1.462 -0.3413 -2.2207  0.6790
  203SOL    HW2  609   0.700   0.119   1.635  0.6325 -0.5899  1.6011
  204SOL     OW  610   2.082   1.847   2.971 -0.1822  0.2892  0.1243
  204SOL    HW1  611   2.043   1.751   2.977  1.4038 -0.7074  2.4732
  204SOL    HW2  612   2.151   1.846   2.897  0.8562  0.9032  0.5675
  205SOL     OW  613   1.807   1.873   3.033  0.0440  0.1690 -0.8100
  205SOL    HW1  614   1.904   1.870   2.992  0.4432  2.0592  0.6195
  205SOL    HW2  615   1.749   1.947   2.988  1.4827 -2.3273 -0.4905
  206SOL     OW  616   2.350   2.716   0.301 -0.0607  0.1295  0.3663
  206SOL    HW1  617   2.316   2.674   0.394 -2.7761  0.7695  0.1644
  206SOL    HW2  618   2.447   2.683   0.278  2.0354  1.9409 -0.1322
  207SOL     OW  619   0.721   1.733   2.911 -0.0739 -0.5471 -0.0516
  207SOL    HW1  620   0.785   1.683   2.845 -0.8383  1.3060 -1.3867
  207SOL    HW2  621   0.638   1.676   2.946 -2.4785  1.2721  1.5661
  208SOL     OW  622   1.016   1.563   1.219  0.4998  0.2078  0.2941
  208SOL    HW1  623   0.944   1.572   1.143 -2.2606  0.9840 -1.1446
  208SOL    HW2  624   0.973   1.585   1.311 -0.3562 -0.0614 -0.3483
  209SOL     OW  625   0.230   1.004   3.059  0.1025  0.8309 -0.0892
  209SOL    HW1  626   0.235   0.935   2.980 -0.3682 -1.1556  1.1788
  209SOL    HW2  627   0.214   0.952   3.144 -2.8708  0.8485  0.7181
  210SOL     OW  628   1.719   0.602   1.274  0.3149  0.4558 -0.1939
  210SOL    HW1  629   1.623   0.624   1.240  0.8285  0.7064  0.9984
  210SOL    HW2  630   1.782   0.683   1.269  1.5836  1.5639 -2.9279
  211SOL     OW  631   2.128   1.100   1.568 -0.9380  1.1577 -0.3268
  211SOL    HW1  632   2.176   1.059   1.650  2.2551 -0.3352 -0.1475
  211SOL    HW2  633   2.189   1.154   1.508  0.7115 -2.5965  1.6405
  212SOL     OW  634   0.086   0.989   1.457  0.7966 -0.0799 -0.7124
  212SOL    HW1  635   0.133   1.067   1.504 -0.3847  0.9981 -1.0983
  212SOL    HW2  636   0.091   0.898   1.506 -0.5972 -0.6578  0.8021
  213SOL     OW  637   2.805   0.034   0.333  0.4477  0.4053 -0.2265
  213SOL    HW1  638   2.910   0.008   0.332  0.7101  0.5321  0.2819
  213SOL    HW2  639   2.757  -0.017   0.253 -1.2863  0.5476  0.3039
  214SOL     OW  640   2.208   0.349   2.370  0.5273  0.4175  0.2402
  214SOL    HW1  641   2.225   0.394   2.464 -2.2486  0.8905 -0.6022
  214SOL    HW2  642   2.180   0.249   2.384 -0.1374 -3.0877 -2.7591
  215SOL     OW  643   1.694   2.290   2.075  0.0383  0.3275  0.0001
  215SOL    HW1  644   1.789   2.334   2.079 -1.5535  0.0464  0.4752
  215SOL    HW2  645   1.620   2.360   2.091  2.5159 -0.3492 -0.9798
  216SOL     OW  646   2.305   0.523   0.761 -0.1798  0.2429 -0.1562
  216SOL    HW1  647   2.256   0.465   0.698  1.9073  1.5276  0.2020
  216SOL    HW2  648   2.388   0.480   0.807  1.0893 -0.7123  1.2011
  217SOL     OW  649   0.919   2.720   2.578  0.3947 -0.5828  0.3946
  217SOL    HW1  650   0.934   2.658   2.659  1.6021 -1.6040 -1.2739
  217SOL    HW2  651   0.850   2.679   2.502 -4.5918  1.1595 -0.0206
  218SOL     OW  652   1.872   1.432   0.032  0.2938  0.1982 -0.1622
  218SOL    HW1  653   1.772   1.452   0.016 -2.0851 -1.1337  1.5503
  218SOL    HW2  654   1.892   1.329   0.038 -1.3750 -0.8664 -1.7772
  219SOL     OW  655   2.417   1.265   2.515 -0.3709  0.0812 -0.3746
  219SOL    HW1  656   2.435   1.219   2.423  1.4112 -1.3689  1.2229
  219SOL    HW2  657   2.469   1.214   2.590  1.6131  0.3716  1.1656
  220SOL     OW  658   1.459   1.032   1.365  0.0843  0.3497  0.4258
  220SOL    HW1  659   1.541   0.981   1.397  0.4459  1.9421  0.6466
  220SOL    HW2  660   1.454   1.033   1.263 -1.0045 -1.1410  0.6354
  221SOL     OW  661   1.304   0.953   2.168  0.0176 -0.2535  0.0932
  221SOL    HW1  662   1.307   0.992   2.068 -0.2711  1.0098 -2.9112
  221SOL    HW2  663   1.382   0.992   2.224 -1.5174  1.1026 -1.2022
  222SOL     OW  664   1.158   0.057   1.213  0.0547 -0.2999 -0.4205
  222SOL    HW1  665   1.161   0.086   1.312  1.0807 -1.0506  0.3612
  222SOL    HW2  666   1.138   0.136   1.148 -2.1590 -1.2019 -1.0829
  223SOL     OW  667   2.714   0.975   2.110  0.1003 -0.1763  0.0277
  223SOL    HW1  668   2.635   1.025   2.156 -0.8834 -0.1729  0.1522
  223SOL    HW2  669   2.802   0.984   2.160  0.8719  0.9186  0.2344
  224SOL     OW  670   1.497   0.989   2.863 -0.0712 -0.0864 -0.4911
  224SOL    HW1  671   1.488   0.936   2.771 -1.7368 -0.6415 -3.6082
  224SOL    HW2  672   1.554   1.075   2.858 -1.5920 -1.7478  2.9207
  225SOL     OW  673   2.949   2.686   2.892  0.3918  0.0964 -0.0260
  225SOL    HW1  674   2.857   2.658   2.845 -2.1205  0.3500  0.3772
  225SOL    HW2  675   3.012   2.717   2.817 -2.3131 -2.2644 -1.5168
  226SOL     OW  676   2.425   1.628   2.788 -0.0455  0.5210 -0.2707
  226SOL    HW1  677   2.494   1.587   2.718  1.1494  1.1914 -1.9117
  226SOL    HW2  678   2.426   1.577   2.881 -1.2154  0.3971  1.5786
  227SOL     OW  679   0.931   0.260   3.014  0.2186  0.8432 -0.1355
  227SOL    HW1  680   0.923   0.366   3.013  0.3601  2.7377 -1.4682
  227SOL    HW2  681   0.878   0.225   2.931  0.7935 -2.2836 -1.2470
  228SOL     OW  682   2.444   0.653   2.898 -0.1979 -0.0061  0.3232
  228SOL    HW1  683   2.450   0.655   2.798  0.4470 -0.9636  3.2709
  228SOL    HW2  684   2.510   0.588   2.945  0.0370  2.4936 -1.1622
  229SOL     OW  685   0.668   0.640   1.822  1.3115  0.6761 -0.1687
  229SOL    HW1  686   0.758   0.675   1.848 -1.7150 -0.8483  3.9088
  229SOL    HW2  687   0.674   0.572   1.740  0.8089 -1.0648 -0.5566
  230SOL     OW  688   1.872   1.234   1.913  0.4102  0.2742  0.0866
  230SOL    HW1  689   1.963   1.285   1.892 -0.2237 -1.1316 -0.5252
  230SOL    HW2  690   1.822   1.271   1.998 -1.2511 -0.4591  2.3276
  231SOL     OW  691   0.663   1.047   0.004  0.5045 -0.1000  0.2341
  231SOL    HW1  692   0.759   1.066   0.026  2.1908  1.2564  0.2656
  231SOL    HW2  693   0.592   1.120   0.026  0.4392 -2.0637 -0.7067
  232SOL     OW  694   2.415   2.955   2.800  0.1993 -0.1548  0.0215
  232SOL    HW1  695   2.481   2.879   2.830 -0.7152 -0.5528 -0.5797
  232SOL    HW2  696   2.453   3.007   2.717 -1.2452 -2.2712 -0.2326
  233SOL     OW  697   1.810   1.113   1.156 -0.2032  0.0400  0.5861
  233SOL    HW1  698   1.837   1.189   1.090 -0.6168  1.3139  2.2569
  233SOL    HW2  699   1.884   1.041   1.171 -1.6463 -1.9051  0.3169
  234SOL     OW  700   1.662   2.538   1.831 -0.4449 -0.1236 -0.2698
  234SOL    HW1  701   1.625   2.597   1.910 -0.0073  4.1758 -0.6731
  234SOL    HW2  702   1.618   2.450   1.824  2.0505 -1.1217  0.6051
  235SOL     OW  703   0.070   2.996   2.855 -0.1026 -0.0067  0.4187
  235SOL    HW1  704  -0.012   2.999   2.790  0.5673  2.4948 -0.9775
  235SOL    HW2  705   0.049   3.012   2.956 -2.7366 -1.3874  0.0839
  236SOL     OW  706   2.915   0.724   0.060  0.2182  0.3636  0.0017
  236SOL    HW1  707   2.984   0.758   0.129 -2.0263  1.0911 -1.5964
  236SOL    HW2  708   2.956   0.644   0.006  0.1220  0.1997  2.5122
  237SOL     OW  709   1.534   1.699   0.916  0.2519 -0.3506  0.1392
  237SOL    HW1  710   1.610   1.636   0.952 -2.7849 -0.5457  0.2646
  237SOL    HW2  711   1.508   1.770   0.986  0.1666  2.9846 -0.7142
  238SOL     OW  712   1.920   1.200   0.743 -0.1530 -0.3360 -0.3003
  238SOL    HW1  713   1.947   1.223   0.840 -0.9743  1.0901  0.7679
  238SOL    HW2  714   1.823   1.228   0.724  3.9020 -0.2651 -1.3757
  239SOL     OW  715   2.041   0.315   2.825  0.1201  0.6655  0.3191
  239SOL    HW1  716   2.041   0.261   2.914  1.3279 -1.8587  2.8973
  239SOL    HW2  717   1.958   0.378   2.812  0.5392 -1.0590 -1.1303
  240SOL     OW  718   0.952   0.688   0.258 -0.1745 -0.3895 -0.0846
  240SOL    HW1  719   1.043   0.645   0.230  0.1836  0.9326 -1.2044
  240SOL    HW2  720   0.950   0.692   0.363  2.3195  0.8564 -1.4109
  241SOL     OW  721   0.560   0.136   0.309 -0.4342  0.4914 -0.2030
  241SOL    HW1  722   0.641   0.197   0.282 -1.2089  0.9125 -2.5235
  241SOL    HW2  723   0.546   0.064   0.240 -1.7241  1.8141  2.3035
  242SOL     OW  724   0.604   2.602   1.231  0.2114 -0.6831  0.8526
  242SOL    HW1  725   0.592   2.590   1.331 -1.3958  1.6652  0.6056
  242SOL    HW2  726   0.656   2.688   1.212  2.9013  2.4686  0.7813
  243SOL     OW  727   1.060   0.609   2.396 -0.3445 -0.4331 -0.2971
  243SOL    HW1  728   0.952   0.615   2.382 -1.0306 -0.0610 -0.7683
  243SOL    HW2  729   1.088   0.545   2.473 -1.3641 -2.0840  1.2002
  244SOL     OW  730   2.756   1.944   2.383  0.4785 -0.0205  0.6282
  244SOL    HW1  731   2.796   1.914   2.290  0.6638  2.8606  1.5620
  244SOL    HW2  732   2.683   1.873   2.416  0.0756 -0.9964 -1.3240
  245SOL     OW  733   2.102   1.023   2.214  0.0750  0.2937  0.6783
  245SOL    HW1  734   2.201   1.028   2.232 -0.4336 -0.6069  0.3276
  245SOL    HW2  735   2.047   1.107   2.241  1.0069 -0.8443 -0.9548
  246SOL     OW  736   0.271   2.891   1.817  0.0220  0.5889 -0.0201
  246SOL    HW1  737   0.225   2.867   1.727 -1.1156 -1.5918  1.0998
  246SOL    HW2  738   0.364   2.939   1.795 -2.1833  0.5146 -2.3386
  247SOL     OW  739   2.246   0.592   3.068 -0.2080 -0.0479 -0.0286
  247SOL    HW1  740   2.323   0.619   3.004  0.9762  0.4647  0.0102
  247SOL    HW2  741   2.164   0.650   3.057 -0.3256 -3.5024 -0.5672
  248SOL     OW  742   2.143   1.874   1.631  0.1931  0.7211 -0.2671
  248SOL    HW1  743   2.209   1.830   1.702  0.1915  0.7731  1.2252
  248SOL    HW2  744   2.054   1.826   1.634  3.0546  0.3989 -0.9634
  249SOL     OW  745   1.904   1.906   1.860  0.1080 -0.0290  0.8195
  249SOL    HW1  746   1.912   1.827   1.792  0.4226 -0.9912  1.5905
  249SOL    HW2  747   1.989   1.915   1.919 -1.4551  1.5365  0.1853
  250SOL     OW  748   1.018   0.678   1.846  0.7172  0.3657 -0.2443
  250SOL    HW1  749   1.087   0.635   1.905 -1.1206  2.3851  0.7759
  250SOL    HW2  750   1.005   0.630   1.758 -0.5245 -0.1780 -0.3841
  251SOL     OW  751   3.043   1.507   2.614  0.6617 -0.1043 -0.0134
  251SOL    HW1  752   3.040   1.600   2.561  0.5932  3.2395  1.4279
  251SOL    HW2  753   2.963   1.441   2.594  0.3165 -0.8914 -0.2388
  252SOL     OW  754   1.545   0.821   1.595 -0.0059 -0.5319 -0.4298
  252SOL    HW1  755   1.625   0.856   1.538  1.5047 -0.9793  0.5256
  252SOL    HW2  756   1.537   0.882   1.679  1.5735 -0.1735 -0.0651
  253SOL     OW  757   0.937   1.477   0.453  0.0100 -0.3039  0.0517
  253SOL    HW1  758   0.943   1.499   0.352  1.2545  0.4315 -1.9225
  253SOL    HW2  759   0.882   1.545   0.502 -2.1499  0.9261 -0.9406
  254SOL     OW  760   2.017   2.173   1.654 -0.2651  0.1260 -0.4229
  254SOL    HW1  761   1.989   2.089   1.604  0.0107 -1.0166  1.3744
  254SOL    HW2  762   1.938   2.224   1.702 -1.3604  2.7907 -0.0761
  255SOL     OW  763   0.077   1.196   2.949 -0.2552  0.4101  0.4096
  255SOL    HW1  764   0.138   1.284   2.932  0.1151 -2.3623  0.3944
  255SOL    HW2  765   0.132   1.122   3.000  0.6216 -0.7290  1.7071
  256SOL     OW  766   2.751   1.423   1.765  0.3007 -0.0002  0.9805
  256SOL    HW1  767   2.650   1.449   1.749 -1.6465  0.6587  0.7745
  256SOL    HW2  768   2.765   1.326   1.748  0.4392  3.5688  0.9643
  257SOL     OW  769   0.809   0.226   1.861  0.3702 -0.6205 -0.3900
  257SOL    HW1  770   0.854   0.247   1.762 -0.5638 -0.3805 -2.4093
  257SOL    HW2  771   0.836   0.136   1.895 -0.9575 -0.7368  1.9940
  258SOL     OW  772   2.963   1.187   0.523 -0.1414  0.3659  0.2209
  258SOL    HW1  773   2.859   1.210   0.520 -3.2787 -1.0770  1.3237
  258SOL    HW2  774   3.012   1.207   0.613  0.8667  0.1047  2.8609
  259SOL     OW  775   0.468   2.934   3.017 -0.3919  0.1513  0.3149
  259SOL    HW1  776   0.377   2.905   3.055 -2.0270 -1.5723  0.2657
  259SOL    HW2  777   0.492   2.880   2.935 -1.9144  1.3836  2.7406
  260SOL     OW  778   2.720   0.741   2.783  0.0068 -0.5719  0.1156
  260SOL    HW1  779   2.625   0.773   2.746 -0.7008  1.2049  0.7581
  260SOL    HW2  780   2.708   0.655   2.841 -3.2804 -1.4120 -1.8952
  261SOL     OW  781   2.670   1.265   1.293 -0.0389  0.6053 -0.0039
  261SOL    HW1  782   2.592   1.211   1.245 -0.3513  1.6034 -0.4984
  261SOL    HW2  783   2.749   1.210   1.335  1.9087  0.5069 -0.1090
  262SOL     OW  784   1.393   2.954   2.040  0.0653 -0.3739 -0.5966
  262SOL    HW1  785   1.430   3.004   1.960  0.5705 -0.9770 -2.5553
  262SOL    HW2  786   1.294   2.925   2.034  1.3468 -0.3173  1.4745
  263SOL     OW  787   0.800   0.643   2.318  0.2490  0.6921 -0.2409
  263SOL    HW1  788   0.725   0.574   2.286 -3.5605  0.1213  1.6866
  263SOL    HW2  789   0.828   0.703   2.241 -1.6761  0.7268 -3.0850
  264SOL     OW  790   2.275   0.799   0.419 -0.6516  0.1562  0.1328
  264SOL    HW1  791   2.285   0.710   0.366  0.4919  0.0143  1.5838
  264SOL    HW2  792   2.361   0.818   0.474  0.1189 -1.5080 -0.3190
  265SOL     OW  793   0.867   2.348   2.632 -0.0783 -0.4367  0.4791
  265SOL    HW1  794   0.875   2.339   2.735 -1.4223  1.3212 -1.7076
  265SOL    HW2  795   0.816   2.266   2.585  0.2941 -2.4670 -2.3823
  266SOL     OW  796   1.285   1.802   3.036 -0.4598  0.0812 -0.3372
  266SOL    HW1  797   1.271   1.857   3.123 -1.7151  0.3925  2.5543
  266SOL    HW2  798   1.385   1.792   3.013  0.3655  1.0138 -0.5151
  267SOL     OW  799   1.042   3.065   2.320 -0.2817 -0.3373 -0.3905
  267SOL    HW1  800   0.954   3.037   2.275 -1.8616  0.0669 -3.2622
  267SOL    HW2  801   1.102   3.124   2.271  1.7634 -1.6598 -0.0299
  268SOL     OW  802   0.849   1.324   1.127 -0.0101 -0.2102  0.5722
  268SOL    HW1  803   0.770   1.369   1.178 -1.0739  1.3932  0.1896
  268SOL    HW2  804   0.879   1.376   1.047 -0.2551 -2.0602  1.7576
  269SOL     OW  805   2.331   2.535   1.586 -0.0003  0.1136 -0.1915
  269SOL    HW1  806   2.430   2.499   1.584  1.0583 -4.2199 -1.9766
  269SOL    HW2  807   2.301   2.564   1.683 -1.4444  0.1375  2.5807
  270SOL     OW  808   0.138   3.042   2.023 -0.1553  0.8034  0.4799
  270SOL    HW1  809   0.171   2.978   1.951  1.4927 -0.0428  2.1580
  270SOL    HW2  810   0.088   2.986   2.100  1.6599 -1.3235  0.2345
  271SOL     OW  811   0.417   1.442   1.099 -0.7154 -0.0397  0.1405
  271SOL    HW1  812   0.434   1.405   1.004  2.7342 -1.3824  1.4054
  271SOL    HW2  813   0.330   1.399   1.137  1.1069 -1.0285 -1.9836
  272SOL     OW  814   1.875   0.024   1.915 -0.1199  0.7065 -0.7967
  272SOL    HW1  815   1.812  -0.053   1.887  0.0413  0.5592  0.0091
  272SOL    HW2  816   1.857   0.104   1.851 -0.3637  0.6999 -0.1921
  273SOL     OW  817   1.436   1.452   2.882  0.0799 -0.3668  0.0344
  273SOL    HW1  818   1.337   1.481   2.890 -0.3099 -1.5878  1.3742
  273SOL    HW2  819   1.484   1.432   2.972 -1.3138 -0.5630 -0.4968
  274SOL     OW  820   1.187   0.604   2.061  0.1667 -0.0673  0.0633
  274SOL    HW1  821   1.111   0.553   2.110 -1.7825 -1.8252  1.1065
  274SOL    HW2  822   1.270   0.615   2.127  0.0999 -1.2012  1.5295
  275SOL     OW  823   0.644   2.101   1.964 -0.2389  0.3156  0.1954
  275SOL    HW1  824   0.566   2.038   1.935 -1.9064 -2.7201  2.9971
  275SOL    HW2  825   0.616   2.199   1.984 -0.4631 -0.2732 -1.4524
  276SOL     OW  826   2.239   0.953   2.847  0.5830 -0.2566  0.2691
  276SOL    HW1  827   2.161   0.991   2.784 -0.4764 -0.6078  0.6034
  276SOL    HW2  828   2.229   0.852   2.868  0.6561 -0.8512  3.1185
  277SOL     OW  829   0.008   0.779   0.253 -0.0360  0.0439  0.1899
  277SOL    HW1  830   0.094   0.833   0.230 -0.4347 -0.8853 -0.7100
  277SOL    HW2  831   0.025   0.699   0.317 -1.5092 -1.5973 -0.9797
  278SOL     OW  832   0.287   0.248   3.097  0.2509 -0.4092  0.8624
  278SOL    HW1  833   0.363   0.202   3.043 -2.4696 -1.8397  1.8928
  278SOL    HW2  834   0.295   0.353   3.091  0.6084  0.4410 -1.6047
  279SOL     OW  835   0.270   3.003   0.915  0.0068 -0.6675  0.4867
  279SOL    HW1  836   0.313   2.982   1.006  3.3539  1.5062  1.7769
  279SOL    HW2  837   0.284   2.923   0.847 -1.6438 -1.2689  1.0045
  280SOL     OW  838   1.571   2.892   2.442  0.2380 -0.1770 -0.0391
  280SOL    HW1  839   1.640   2.938   2.505 -1.8028 -1.5833 -2.0746
  280SOL    HW2  840   1.499   2.962   2.406 -3.3776 -1.9120 -1.4182
  281SOL     OW  841   0.551   0.929   2.372  0.4563  0.0613  0.7014
  281SOL    HW1  842   0.524   0.856   2.303 -0.1734 -1.8056 -2.7468
  281SOL    HW2  843   0.533   0.890   2.466 -0.9879 -2.0570  0.4219
  282SOL     OW  844   1.792   2.480   0.554  0.2941 -0.2819 -0.4198
  282SOL    HW1  845   1.751   2.402   0.496 -1.9201 -0.4129 -0.7380
  282SOL    HW2  846   1.729   2.568   0.553 -0.7075  0.5218 -0.5050
  283SOL     OW  847   1.180   0.955   0.811 -0.1377 -0.4056 -0.3446
  283SOL    HW1  848   1.190   0.899   0.899  1.5633 -0.4243  1.1690
  283SOL    HW2  849   1.136   1.048   0.831  1.7027  1.0552  0.8887
  284SOL     OW  850   2.262   2.820   2.455  0.1857  0.2748  0.1283
  284SOL    HW1  851   2.361   2.835   2.423  2.0477  1.7938  0.4615
  284SOL    HW2  852   2.252   2.828   2.560  0.9049 -0.0669  1.0905
  285SOL     OW  853   1.298   3.073   2.603  0.6623 -0.0122 -0.4286
  285SOL    HW1  854   1.345   3.083   2.507 -0.2845  0.5032 -1.2364
  285SOL    HW2  855   1.204   3.120   2.603 -1.0169 -1.8171 -1.8139
  286SOL     OW  856   0.263   0.351   0.655 -0.3305 -0.1420  0.2326
  286SOL    HW1  857   0.313   0.274   0.710  1.5504 -0.4252 -1.1776
  286SOL    HW2  858   0.279   0.328   0.560  2.0413 -0.3189  2.1853
  287SOL     OW  859   0.089   1.274   2.536  0.1106 -0.2679 -0.1587
  287SOL    HW1  860   0.032   1.212   2.604  0.7977 -1.7660 -0.0465
  287SOL    HW2  861   0.060   1.372   2.534  2.6005 -0.8242 -2.1433
  288SOL     OW  862   1.508   2.689   1.659 -0.0168 -0.4757  0.2959
  288SOL    HW1  863   1.562   2.637   1.729 -2.0415 -1.1561 -0.6622
  288SOL    HW2  864   1.557   2.693   1.565  1.8496 -1.7111 -1.6229
  289SOL     OW  865   0.638   2.783   0.817 -0.1549 -0.6103 -0.2617
  289SOL    HW1  866   0.717   2.833   0.768  1.7884  0.0949 -1.1281
  289SOL    HW2  867   0.573   2.842   0.879 -0.6127 -0.7388 -1.4261
  290SOL     OW  868   2.842   1.109   1.693 -0.0660 -0.1937 -0.0364
  290SOL    HW1  869   2.757   1.043   1.689 -0.8537 -0.6390 -3.0184
  290SOL    HW2  870   2.900   1.089   1.774 -0.1144 -0.3215  0.7825
  291SOL     OW  871   1.924   0.001   0.073 -0.3387 -0.2225 -0.3034
  291SOL    HW1  872   1.961   0.033   0.161  0.9885  0.8190 -2.4673
  291SOL    HW2  873   1.987   0.026  -0.004  0.2135  0.3916  1.6252
  292SOL     OW  874   2.982   1.288   0.017  0.1745  0.7003  0.3545
  292SOL    HW1  875   2.906   1.325  -0.034  1.4943 -2.6328 -1.0467
  292SOL    HW2  876   3.053   1.251  -0.049 -1.3838 -1.2210  0.5299
  293SOL     OW  877   0.536   2.068   0.287 -0.1401 -0.4971 -0.5068
  293SOL    HW1  878   0.510   2.152   0.340 -0.5247  1.1788  1.0558
  293SOL    HW2  879   0.637   2.063   0.269  1.0128 -0.3539  0.4491
  294SOL     OW  880   1.864   2.344   1.820 -0.3385  0.2710  0.3584
  294SOL    HW1  881   1.921   2.341   1.908  0.7329 -0.2590 -1.7231
  294SOL    HW2  882   1.799   2.426   1.815 -1.4412  0.0239  0.6684
  295SOL     OW  883   0.960   1.026   0.431 -0.0387 -0.4067  0.1678
  295SOL    HW1  884   1.045   1.068   0.466  2.5548 -1.7086 -0.4499
  295SOL    HW2  885   0.918   0.963   0.498  1.3573  0.0031  1.2953
  296SOL     OW  886   1.150   2.130   2.756  0.2475 -0.5173 -0.6291
  296SOL    HW1  887   1.091   2.217   2.772 -0.1604  1.4444  1.8548
  296SOL    HW2  888   1.164   2.116   2.654 -1.5984  1.3580 -1.3482
  297SOL     OW  889   1.281   0.576   1.237  0.2847  0.1084  0.6217
  297SOL    HW1  890   1.314   0.514   1.321  0.0630 -4.4182  0.2420
  297SOL    HW2  891   1.356   0.592   1.165  0.9952  1.2938  0.3835
  298SOL     OW  892   0.467   1.292   2.952 -0.1703  0.2103  0.8313
  298SOL    HW1  893   0.463   1.232   3.036 -0.2085  2.5070  0.6278
  298SOL    HW2  894   0.513   1.250   2.865  2.1533 -1.4754 -0.3669
  299SOL     OW  895   0.394   0.176   1.249  0.3319 -1.0895 -0.3707
  299SOL    HW1  896   0.345   0.253   1.192 -1.3807  1.4018 -1.2588
  299SOL    HW2  897   0.403   0.204   1.347 -0.3730 -0.1214  1.3560
  300SOL     OW  898   1.345   1.815   2.576 -0.5728 -0.3787 -0.0246
  300SOL    HW1  899   1.326   1.760   2.488 -1.9753 -1.4912  1.7950
  300SOL    HW2  900   1.417   1.778   2.642  0.7894 -0.1707  2.6677
  301SOL     OW  901   0.312   0.275   0.390 -0.4137 -0.3556  0.0356
  301SOL    HW1  902   0.211   0.271   0.361  0.9857  1.3011 -1.1600
  301SOL    HW2  903   0.373   0.210   0.331  0.3333  0.2826  0.6991
  302SOL     OW  904   1.245   2.387   2.296 -0.4130 -0.0139  0.1370
  302SOL    HW1  905   1.145   2.367   2.314  0.8639  1.0241  1.0167
  302SOL    HW2  906   1.311   2.319   2.343 -0.2049 -0.9218 -1.4856
  303SOL     OW  907   0.865   2.462   0.777 -0.7349  0.0470 -0.6524
  303SOL    HW1  908   0.921   2.448   0.691 -3.8537  2.2493 -0.7226
  303SOL    HW2  909   0.930   2.471   0.859 -0.1458 -2.6525 -0.7251
  304SOL     OW  910   0.134   1.933   0.724  0.1190 -0.0005 -0.0982
  304SOL    HW1  911   0.228   1.957   0.679  1.0953  2.0996 -1.9291
  304SOL    HW2  912   0.061   1.954   0.657 -0.5781 -1.9415  2.1200
  305SOL     OW  913   1.658   0.797   0.706 -0.0713 -0.0951 -0.2351
  305SOL    HW1  914   1.580   0.811   0.638 -1.5331 -3.2204 -1.2974
  305SOL    HW2  915   1.710   0.708   0.695  0.1960  0.8735  0.5956
  306SOL     OW  916   0.399   1.902   1.965  0.4964  0.6072 -0.3347
  306SOL    HW1  917   0.478   1.838   1.935 -1.8759 -1.5851  0.3680
  306SOL    HW2  918   0.406   1.931   2.067 -0.4796  2.0057  0.8120
  307SOL     OW  919   3.060   0.894   2.570 -0.4285  0.2024  0.5673
  307SOL    HW1  920   3.048   0.985   2.625  1.0531  0.5850  0.0690
  307SOL    HW2  921   3.044   0.811   2.632 -1.6111  0.7076  1.7505
  308SOL     OW  922   1.474   2.691   2.813  0.1467 -0.3777  0.1457
  308SOL    HW1  923   1.427   2.723   2.727  0.4801 -0.0623  0.1659
  308SOL    HW2  924   1.434   2.603   2.851  0.2380  1.7932 -0.9457
  309SOL     OW  925   1.171   0.177   1.824 -0.6893  0.2473  0.2984
  309SOL    HW1  926   1.240   0.107   1.790  0.2567  0.7820 -0.8038
  309SOL    HW2  927   1.099   0.197   1.751 -0.3851  0.0535 -0.8145
  310SOL     OW  928   1.452   2.540   0.646 -0.9508  0.7230  0.1793
  310SOL    HW1  929   1.421   2.574   0.740  1.7075  2.2287 -1.4914
  310SOL    HW2  930   1.507   2.611   0.595  1.4342  0.8719 -0.1714
  311SOL     OW  931   1.118   0.937   1.763  0.0134 -0.6314 -0.5793
  311SOL    HW1  932   1.068   0.854   1.799 -0.0496 -0.1368 -0.4522
  311SOL    HW2  933   1.155   0.921   1.664  0.5978  0.3021 -1.0056
  312SOL     OW  934   1.490   0.631   1.023 -0.3549 -0.2910 -0.0168
  312SOL    HW1  935   1.544   0.720   1.040  1.0204  1.4232  0.0629
  312SOL    HW2  936   1.423   0.645   0.946 -0.2372  0.0799 -1.6897
  313SOL     OW  937   1.657   1.287   0.722  0.0093  0.2434 -0.0509
  313SOL    HW1  938   1.603   1.298   0.811  0.2152  2.2835 -0.5725
  313SOL    HW2  939   1.604   1.225   0.657  2.7065  0.0861  0.6029
  314SOL     OW  940   3.004   3.095   3.077  0.2928  0.5901  0.1584
  314SOL    HW1  941   3.023   3.118   3.179  1.2960 -0.7632 -0.5473
  314SOL    HW2  942   2.908   3.064   3.060  1.0269  0.6030  1.0113
  315SOL     OW  943   1.201   0.201   2.804 -0.0154  0.5309 -0.0215
  315SOL    HW1  944   1.174   0.130   2.736 -1.2588 -0.2098  0.1316
  315SOL    HW2  945   1.169   0.171   2.900 -0.0628 -0.2707  1.4344
  316SOL     OW  946   1.760   2.058   0.864 -0.4504 -0.2032  0.1793
  316SOL    HW1  947   1.710   2.060   0.955 -1.2845  3.1109 -0.8815
  316SOL    HW2  948   1.783   2.155   0.825 -0.9427 -0.9038 -0.5899
  317SOL     OW  949   1.167   0.710   2.722  0.3084 -0.1251  0.1358
  317SOL    HW1  950   1.132   0.721   2.820 -0.3129  3.5609  0.1381
  317SOL    HW2  951   1.138   0.618   2.680 -0.6527 -0.3210  1.7710
  318SOL     OW  952   1.398   3.061   2.318  0.7360 -0.0127 -0.2141
  318SOL    HW1  953   1.417   3.161   2.294 -2.1567  0.3920 -1.7990
  318SOL    HW2  954   1.359   3.003   2.244 -0.2719  0.3118  3.5016
  319SOL     OW  955   0.612   2.381   3.030 -0.0565 -0.0568  0.2111
  319SOL    HW1  956   0.560   2.292   3.047 -0.1530  0.9743  0.4828
  319SOL    HW2  957   0.712   2.358   3.005 -0.9879  0.5962 -1.2548
  320SOL     OW  958   1.695   2.255   0.401  0.1828 -0.3399  0.4643
  320SOL    HW1  959   1.770   2.186   0.375 -1.0243  0.6139 -1.7757
  320SOL    HW2  960   1.608   2.211   0.441  1.4990 -1.3063 -1.1767
  321SOL     OW  961   1.608   2.702   0.505 -0.0309 -0.0070  0.3705
  321SOL    HW1  962   1.536   2.750   0.447 -0.0545  2.6090 -1.8512
  321SOL    HW2  963   1.700   2.753   0.500  0.0738 -1.0916 -3.1107
  322SOL     OW  964   2.546   1.059   2.327  0.0116  0.5960 -0.0570
  322SOL    HW1  965   2.608   1.036   2.407  1.2768 -1.4671  0.8605
  322SOL    HW2  966   2.477   0.978   2.312  2.5855 -1.6978  1.2420
  323SOL     OW  967   1.141   2.707   0.758  0.4303  0.3030 -0.3346
  323SOL    HW1  968   1.118   2.648   0.679 -2.0588  0.1013  0.2638
  323SOL    HW2  969   1.120   2.806   0.754  3.5545 -2.3982 -0.1308
  324SOL     OW  970   0.069   2.550   2.418  0.2000 -0.1903 -0.0160
  324SOL    HW1  971   0.007   2.512   2.492 -1.6386 -2.0533 -2.4127
  324SOL    HW2  972   0.074   2.654   2.423 -2.1419  0.0187 -1.9522
  325SOL     OW  973   1.298   3.028   0.437 -0.1313  0.0272 -0.7444
  325SOL    HW1  974   1.264   3.082   0.355  0.1162  0.6068  2.1724
  325SOL    HW2  975   1.314   3.081   0.523 -1.9435 -2.7200  0.0096
  326SOL     OW  976   2.434   0.906   0.023  0.1264 -0.2204 -0.3714
  326SOL    HW1  977   2.353   0.861  -0.020 -0.9490 -0.5620  2.1989
  326SOL    HW2  978   2.491   0.832   0.073  0.4185  0.5585 -2.3507
  327SOL     OW  979   2.831   0.190   0.567  0.0001 -0.6789 -0.0818
  327SOL    HW1  980   2.840   0.135   0.480 -0.2682  0.3235 -1.0744
  327SOL    HW2  981   2.865   0.136   0.650  0.4494 -1.1759  0.0750
  328SOL     OW  982   2.648   0.606   0.373  0.1649 -0.1337  0.0847
  328SOL    HW1  983   2.684   0.655   0.457 -0.1556 -0.2328 -1.2751
  328SOL    HW2  984   2.619   0.509   0.397 -0.7036  0.4685  2.3071
  329SOL     OW  985   2.936   3.042   2.250 -0.3306  0.6583  0.1775
  329SOL    HW1  986   3.010   2.969   2.249  0.0149  0.3299 -1.1081
  329SOL    HW2  987   2.968   3.137   2.219 -1.4541  0.5067  1.9459
  330SOL     OW  988   0.542   0.305   1.966 -0.2897  0.7105  0.7579
  330SOL    HW1  989   0.629   0.307   1.906  0.0578  2.2396  1.6582
  330SOL    HW2  990   0.541   0.216   2.026 -1.8764 -0.8806  1.1605
  331SOL     OW  991   0.025   1.926   1.109 -0.4615  0.0996  0.0471
  331SOL    HW1  992   0.016   2.012   1.048  0.1618  1.7314  2.4933
  331SOL    HW2  993  -0.047   1.911   1.183  1.9324 -0.4472  1.3691
  332SOL     OW  994   0.428   1.158   0.073  0.6178 -0.1890 -0.2204
  332SOL    HW1  995   0.343   1.114   0.026 -0.6325 -0.9901  0.0569
  332SOL    HW2  996   0.406   1.195   0.165  0.0756 -0.1789 -0.4372
  333SOL     OW  997   2.921   0.941   0.377 -0.3171  0.6656 -0.0551
  333SOL    HW1  998   2.979   1.017   0.413  2.5261  0.5916 -0.4844
  333SOL    HW2  999   2.978   0.875   0.314  2.9534 -3.5614 -3.1954
  334SOL     OW 1000   1.720   1.150   1.693 -0.2800  0.0914  0.2283
  334SOL    HW1 1001   1.783   1.168   1.614  0.2424 -1.3469  0.8751
  334SOL    HW2 1002   1.774   1.176   1.777  0.6684  1.1469  1.5159
  335SOL     OW 1003   1.938   2.756   2.590  0.1132 -0.1635  0.4092
  335SOL    HW1 1004   1.844   2.753   2.632 -1.4910 -0.7788  2.1137
  335SOL    HW2 1005   2.009   2.806   2.646  0.9408  0.5398 -2.2910
  336SOL     OW 1006   0.289   0.105   2.730  0.1591  0.2442 -0.0209
  336SOL    HW1 1007   0.363   0.140   2.792  1.0069  1.6150 -0.0168
  336SOL    HW2 1008   0.222   0.051   2.789 -1.2166 -1.3723 -0.2216
  337SOL     OW 1009   0.793   2.854   3.046 -0.6217  0.0845 -0.1087
  337SOL    HW1 1010   0.860   2.789   3.089 -1.2852 -1.9182  4.9710
  337SOL    HW2 1011   0.725   2.893   3.115  2.4692 -2.4156  0.8278
  338SOL     OW 1012   0.041   0.955   0.703  0.7297 -0.4602 -0.1636
  338SOL    HW1 1013  -0.053   0.920   0.713  2.1421 -0.8539  0.5520
  338SOL    HW2 1014   0.053   1.059   0.708  2.3804 -1.4253  2.2382
  339SOL     OW 1015   1.771   1.344   2.143  0.1180  0.4764 -0.1701
  339SOL    HW1 1016   1.676   1.331   2.099 -1.2446  0.0746  1.2276
  339SOL    HW2 1017   1.791   1.448   2.161 -1.5974  0.8080 -0.2199
  340SOL     OW 1018   2.256   0.769   1.097  0.1884 -0.3861 -0.2671
  340SOL    HW1 1019   2.171   0.819   1.128 -2.9263  0.2595  0.8842
  340SOL    HW2 1020   2.228   0.679   1.061 -0.5946  2.2826 -0.2190
  341SOL     OW 1021   1.872   2.050   0.332 -0.3585  0.2811 -0.6624
  341SOL    HW1 1022   1.895   2.125   0.261  1.2858  1.2547 -0.5571
  341SOL    HW2 1023   1.959   2.017   0.383 -1.2237 -0.9371 -0.2423
  342SOL     OW 1024   2.174   2.155   2.773 -0.2774 -0.3698 -0.2442
  342SOL    HW1 1025   2.207   2.069   2.814  0.0550  2.1582 -1.2916
  342SOL    HW2 1026   2.075   2.149   2.736  0.6051 -1.5031  0.1597
  343SOL     OW 1027   0.354   0.864   2.867  0.2741 -0.1620  0.4596
  343SOL    HW1 1028   0.342   0.925   2.783 -1.5434 -1.3436  2.2033
  343SOL    HW2 1029   0.448   0.830   2.885 -0.2191 -4.4767  0.9372
  344SOL     OW 1030   1.943   1.422   0.343 -0.2846 -0.0790  0.0866
  344SOL    HW1 1031   1.942   1.338   0.277  0.9416  0.5803 -1.9077
  344SOL    HW2 1032   1.846   1.448   0.366 -1.4762 -1.0472 -0.4463
  345SOL     OW 1033   1.400   2.189   2.850  0.2731  0.0089  0.5089
  345SOL    HW1 1034   1.303   2.155   2.822 -1.4776  0.4828  0.1295
  345SOL    HW2 1035   1.479   2.174   2.782  2.4600 -2.7461 -1.6239
  346SOL     OW 1036   2.298   0.816   1.377 -0.5863 -0.0240  0.2712
  346SOL    HW1 1037   2.213   0.773   1.419 -1.1570  2.8660 -0.4979
  346SOL    HW2 1038   2.303   0.792   1.275 -0.2152  1.0531  1.8311
  347SOL     OW 1039   0.705   2.796   1.707  0.1259 -0.4410  0.0775
  347SOL    HW1 1040   0.774   2.879   1.707  2.1675  1.9879  0.4751
  347SOL    HW2 1041   0.648   2.799   1.618  1.6468  1.6268  0.0953
  348SOL     OW 1042   0.191   0.610   2.837 -0.2298 -0.2254 -0.0443
  348SOL    HW1 1043   0.104   0.621   2.783  0.3591  0.6516 -0.2599
  348SOL    HW2 1044   0.241   0.701   2.856  0.2288  0.2515 -0.3020
  349SOL     OW 1045   1.763   0.424   2.826  0.3475 -0.1735 -0.0160
  349SOL    HW1 1046   1.740   0.514   2.778  0.1523  0.1533  0.9907
  349SOL    HW2 1047   1.749   0.432   2.927  0.2126 -0.0896 -0.7838
  350SOL     OW 1048   1.732   0.382   0.381  0.2399 -0.5444 -0.2759
  350SOL    HW1 1049   1.811   0.347   0.437  2.1535  1.4791 -0.2144
  350SOL    HW2 1050   1.717   0.484   0.372  3.2095 -1.2422  4.5626
  351SOL     OW 1051   0.843   0.794   2.082  0.3794 -0.3257 -0.0638
  351SOL    HW1 1052   0.849   0.898   2.069 -0.8783  2.2851 -2.3820
  351SOL    HW2 1053   0.903   0.737   2.017 -0.5766 -0.8488  1.2799
  352SOL     OW 1054   2.074   1.384   0.598  0.2572  1.0609 -0.1863
  352SOL    HW1 1055   2.049   1.417   0.502  1.5644  0.0377 -1.5397
  352SOL    HW2 1056   2.003   1.319   0.646  0.7980 -2.5128  0.6124
  353SOL     OW 1057   2.175   2.691   1.126  0.1208  0.0880  0.1828
  353SOL    HW1 1058   2.265   2.647   1.140  0.7539  0.2468 -1.5861
  353SOL    HW2 1059   2.129   2.734   1.206 -1.0523 -0.5352  0.8623
  354SOL     OW 1060   0.238   1.429   2.890 -0.3820 -0.0896 -0.0919
  354SOL    HW1 1061   0.229   1.463   2.792 -1.9112 -2.6187 -1.2148
  354SOL    HW2 1062   0.325   1.379   2.918  0.6444  2.9641 -1.3431
  355SOL     OW 1063   0.716   1.611   0.609  0.0730  0.0840  0.5269
  355SOL    HW1 1064   0.738   1.562   0.699  1.6021 -0.0580  0.1227
  355SOL    HW2 1065   0.677   1.552   0.533  0.4321 -3.1607  0.1505
  356SOL     OW 1066   0.993   0.348   2.095  0.2153  0.2570  0.0701
  356SOL    HW1 1067   1.065   0.273   2.107  0.0595 -0.7498  0.4576
  356SOL    HW2 1068   0.923   0.321   2.021 -3.9649  0.9539  0.5408
  357SOL     OW 1069   1.022   1.459   0.137  0.3547  0.6055 -0.2626
  357SOL    HW1 1070   1.055   1.412   0.049  1.3901  1.8830 -1.1431
  357SOL    HW2 1071   1.093   1.519   0.185  3.0358  0.5735 -1.0329
  358SOL     OW 1072   1.688   1.486   0.451  0.5794  0.5746  0.1638
  358SOL    HW1 1073   1.701   1.426   0.537 -1.1635  0.8952  0.4561
  358SOL    HW2 1074   1.646   1.435   0.371  0.1433  1.3532  0.6668
  359SOL     OW 1075   1.625   2.568   0.204  0.5070  0.2257 -0.2170
  359SOL    HW1 1076   1.621   2.468   0.176 -0.2725 -0.2497  0.1574
  359SOL    HW2 1077   1.533   2.612   0.204  0.6131 -0.4179 -0.0342
  360SOL     OW 1078   0.720   0.510   0.562  0.4869 -0.1523 -0.1070
  360SOL    HW1 1079   0.626   0.510   0.511 -2.0044  1.6793 -3.4896
  360SOL    HW2 1080   0.764   0.413   0.574  3.3840  0.6961  1.5895
  361SOL     OW 1081   1.371   1.309   0.623 -0.4283 -0.1913 -0.5668
  361SOL    HW1 1082   1.401   1.344   0.714  0.4335 -0.2135 -0.5905
  361SOL    HW2 1083   1.304   1.373   0.582  1.9636  0.4342  2.7893
  362SOL     OW 1084   1.394   1.819   0.723  0.5622  0.1168  0.1630
  362SOL    HW1 1085   1.440   1.768   0.803 -0.4825 -0.5703  1.8399
  362SOL    HW2 1086   1.461   1.856   0.651  0.0494  2.3775 -0.7896
  363SOL     OW 1087   1.258   1.340   1.930 -0.3124  0.2000 -0.3005
  363SOL    HW1 1088   1.306   1.401   2.001  0.5636  1.2536  1.0089
  363SOL    HW2 1089   1.271   1.376   1.833  1.0412 -1.6756 -0.7026
  364SOL     OW 1090   0.553   2.384   1.966 -0.0583 -0.1071  0.3999
  364SOL    HW1 1091   0.449   2.393   1.973 -0.0254  1.8959  1.4332
  364SOL    HW2 1092   0.596   2.473   1.936 -0.0035  1.3251 -1.1662
  365SOL     OW 1093   0.941   1.947   1.415 -0.2481 -0.0590 -0.1165
  365SOL    HW1 1094   0.850   1.985   1.453 -0.9110 -1.6361 -0.7109
  365SOL    HW2 1095   0.950   1.980   1.315  0.8270  0.4274  1.3381
  366SOL     OW 1096   2.741   1.873   0.254 -0.1420  0.1687 -0.0721
  366SOL    HW1 1097   2.673   1.804   0.212 -0.5101 -0.3263  0.3532
  366SOL    HW2 1098   2.824   1.826   0.306  0.9842 -1.1343  0.4339
  367SOL     OW 1099   0.953   1.086   3.031 -0.5537 -0.3838  0.2088
  367SOL    HW1 1100   0.977   1.023   3.110  1.7466  0.3228 -0.2325
  367SOL    HW2 1101   1.014   1.171   3.032  0.6628  1.1856  0.1903
  368SOL     OW 1102   1.439   0.506   0.479  0.7389 -0.9306 -0.0387
  368SOL    HW1 1103   1.359   0.574   0.470 -1.8429  1.1546  0.1288
  368SOL    HW2 1104   1.527   0.558   0.466 -0.2908  1.0960  0.2670
  369SOL     OW 1105   0.341   1.648   0.146 -0.6085 -0.4235  0.0798
  369SOL    HW1 1106   0.413   1.691   0.212 -0.3493 -1.3901 -0.3821
  369SOL    HW2 1107   0.268   1.595   0.197 -3.0839 -1.8371  0.4526
  370SOL     OW 1108   0.456   2.138   1.028 -0.0318 -0.0658  0.2526
  370SOL    HW1 1109   0.493   2.233   1.031  0.4746  1.2023 -0.0942
  370SOL    HW2 1110   0.355   2.140   1.005 -0.2014 -0.0691  0.2815
  371SOL     OW 1111   2.920   2.160   2.696 -0.2105 -0.1236 -0.3003
  371SOL    HW1 1112   2.994   2.088   2.724  0.7892 -0.3577 -0.8844
  371SOL    HW2 1113   2.928   2.253   2.746  0.0589 -0.9432 -2.3407
  372SOL     OW 1114   0.967   2.055   1.184  0.1192  0.3645 -0.4093
  372SOL    HW1 1115   0.882   2.079   1.134  0.4369  0.7178 -0.5165
  372SOL    HW2 1116   1.038   2.134   1.181  0.2361  0.6008  0.9206
  373SOL     OW 1117   1.914   1.891   1.033 -0.4994 -0.5144 -0.2626
  373SOL    HW1 1118   2.005   1.935   1.051  0.7821 -0.8988  3.1839
  373SOL    HW2 1119   1.840   1.946   0.981 -0.1968 -0.7444 -1.6679
  374SOL     OW 1120   1.929   0.312   0.566  0.0799 -0.8661 -0.1960
  374SOL    HW1 1121   1.904   0.271   0.661 -0.7351  0.7650  3.6393
  374SOL    HW2 1122   2.028   0.341   0.567 -1.8018 -1.7706  2.0850
  375SOL     OW 1123   2.432   2.169   1.116 -0.3863 -0.4142 -0.4030
  375SOL    HW1 1124   2.451   2.250   1.062  0.3656 -0.8922  0.8610
  375SOL    HW2 1125   2.500   2.156   1.191 -2.2858 -1.8551 -1.0130
  376SOL     OW 1126   3.060   0.622   1.435  0.0949 -0.3610  0.1480
  376SOL    HW1 1127   3.087   0.681   1.518  0.4072  2.6811  0.0899
  376SOL    HW2 1128   3.048   0.518   1.449 -2.2549 -0.6589 -2.2571
  377SOL     OW 1129   2.261   2.942   0.162  0.4027  0.0464  0.2128
  377SOL    HW1 1130   2.248   3.018   0.228 -3.9534 -1.9634  1.2476
  377SOL    HW2 1131   2.277   2.851   0.213 -1.0099  0.0649  1.1521
  378SOL     OW 1132   1.907   1.916   2.518 -0.0175 -0.1519 -0.3955
  378SOL    HW1 1133   2.002   1.873   2.499  1.3423 -0.2060  0.7253
  378SOL    HW2 1134   1.832   1.845   2.537 -1.2122 -0.6981 -1.1753
  379SOL     OW 1135   0.771   0.153   2.784  0.4542  0.3008 -1.0419
  379SOL    HW1 1136   0.811   0.058   2.773 -3.5523 -1.1931 -1.4971
  379SOL    HW2 1137   0.773   0.221   2.705 -2.1492 -2.2409  0.8471
  380SOL     OW 1138   1.557   1.095   0.550  0.0381 -0.4199 -0.0842
  380SOL    HW1 1139   1.478   1.158   0.539  1.5927 -0.0167  1.5911
  380SOL    HW2 1140   1.527   0.994   0.527 -1.1060 -0.7266 -2.4567
  381SOL     OW 1141   1.265   1.296   1.452  0.1874 -0.3555 -0.3799
  381SOL    HW1 1142   1.326   1.255   1.378 -0.3034  0.4516 -1.0237
  381SOL    HW2 1143   1.310   1.292   1.541 -1.6078  0.7713 -0.6236
  382SOL     OW 1144   1.806   0.859   0.287  0.0652  0.3887  0.3713
  382SOL    HW1 1145   1.810   0.834   0.186 -2.6356  2.0342  0.3545
  382SOL    HW2 1146   1.892   0.834   0.334 -0.3186  0.7149 -1.5692
  383SOL     OW 1147   2.508   1.012   1.487 -0.1517 -0.1983 -0.1699
  383SOL    HW1 1148   2.424   0.950   1.476 -0.4250 -2.8145  0.1944
  383SOL    HW2 1149   2.582   0.993   1.423 -0.8072  0.6835  1.0965
  384SOL     OW 1150   0.966   2.295   0.212  0.2332 -0.2955  0.2765
  384SOL    HW1 1151   0.874   2.344   0.241 -1.3988 -0.8028  1.0513
  384SOL    HW2 1152   1.023   2.275   0.296  0.3393 -0.3267 -0.0757
  385SOL     OW 1153   2.922   2.029   1.635 -0.1447  0.3669 -0.5551
  385SOL    HW1 1154   3.009   2.067   1.667 -1.4901 -0.0944  0.4649
  385SOL    HW2 1155   2.902   1.935   1.678 -3.0807  0.0512  0.6209
  386SOL     OW 1156   0.473   1.064   0.490  0.1994 -0.1986  0.2658
  386SOL    HW1 1157   0.476   0.962   0.459 -0.6382 -3.4988 -0.0003
  386SOL    HW2 1158   0.421   1.116   0.420 -2.2943  1.5953  3.1189
  387SOL     OW 1159   0.950   0.282   1.634 -0.3149 -0.5260  0.2147
  387SOL    HW1 1160   0.997   0.377   1.630  0.9152  0.5434 -0.0999
  387SOL    HW2 1161   0.940   0.233   1.543 -0.0645 -1.6557  0.6688
  388SOL     OW 1162   1.217   2.718   1.753  0.2876  0.0740  0.8188
  388SOL    HW1 1163   1.257   2.756   1.664 -1.6535  0.6307 -0.1576
  388SOL    HW2 1164   1.269   2.634   1.791  2.9068 -0.4479 -1.6283
  389SOL     OW 1165   0.154   2.915   1.326 -0.1932  0.2318  0.4087
  389SOL    HW1 1166   0.053   2.941   1.303 -1.3388  0.0171 -1.4640
  389SOL    HW2 1167   0.167   2.809   1.318  0.9650 -0.0102  2.5700
  390SOL     OW 1168   1.027   0.962   1.360  0.3278  0.2351 -0.1987
  390SOL    HW1 1169   1.114   0.950   1.420 -0.9419 -0.6389  0.6036
  390SOL    HW2 1170   0.997   1.063   1.356 -0.3751 -1.4227 -0.4027
  391SOL     OW 1171   2.151   1.147   1.116 -0.3130 -0.2669  0.2949
  391SOL    HW1 1172   2.066   1.102   1.157 -1.9019  1.7318  2.4568
  391SOL    HW2 1173   2.183   1.099   1.027  0.7604  0.3815 -0.8835
  392SOL     OW 1174   0.899   2.603   0.065  0.6081 -0.3182 -0.3396
  392SOL    HW1 1175   0.990   2.555   0.058 -1.2308  0.8498  0.6733
  392SOL    HW2 1176   0.824   2.541   0.103  0.7848 -2.0518  2.0551
  393SOL     OW 1177   0.304   0.661   1.958  0.2674  1.0612  0.3862
  393SOL    HW1 1178   0.281   0.557   1.963  0.2377 -1.4025  1.1522
  393SOL    HW2 1179   0.321   0.694   1.862 -0.2370 -1.9611 -0.0448
  394SOL     OW 1180   3.070   1.933   2.687  0.0122 -0.0577 -0.1904
  394SOL    HW1 1181   3.142   1.893   2.748 -0.3643 -0.6364 -1.5244
  394SOL    HW2 1182   3.048   1.860   2.610 -3.4900 -0.7924  0.6912
  395SOL     OW 1183   1.618   1.992   0.639 -0.2653  0.1450 -0.8049
  395SOL    HW1 1184   1.656   1.934   0.562 -1.1028  1.2191 -1.2815
  395SOL    HW2 1185   1.676   1.988   0.726  0.4787  1.1568  1.4677
  396SOL     OW 1186   2.906   1.863   1.294 -0.0353  0.0149  0.1164
  396SOL    HW1 1187   2.920   1.765   1.253 -0.5255 -2.0675  2.0277
  396SOL    HW2 1188   2.851   1.859   1.378 -0.1928  1.1428  1.9204
  397SOL     OW 1189   1.041   2.208   0.509  0.1224 -0.0958 -0.3928
  397SOL    HW1 1190   0.942   2.187   0.533 -0.8450  3.0872  0.9517
  397SOL    HW2 1191   1.071   2.301   0.548 -0.0332  0.3572  0.2315
  398SOL     OW 1192   2.159   3.039   1.156  0.8117 -0.3978  0.3702
  398SOL    HW1 1193   2.072   2.984   1.161 -0.5123  1.5611  1.3174
  398SOL    HW2 1194   2.145   3.131   1.108 -2.2491 -0.1208  0.8442
  399SOL     OW 1195   3.045   2.453   2.653  0.3030 -0.0236 -0.4716
  399SOL    HW1 1196   2.989   2.475   2.739 -1.3548  0.4958  0.2943
  399SOL    HW2 1197   3.096   2.365   2.662 -3.4622  0.6020  2.4124
  400SOL     OW 1198   0.654   1.707   1.350  0.0102  0.4430 -0.4700
  400SOL    HW1 1199   0.622   1.759   1.435  0.9352 -0.0877  2.2394
  400SOL    HW2 1200   0.620   1.749   1.263 -2.0444 -1.1785 -0.1347
  401SOL     OW 1201   1.858   0.290   1.147 -0.5207  0.3194  0.3739
  401SOL    HW1 1202   1.862   0.272   1.250  1.4969 -0.4815 -1.9307
  401SOL    HW2 1203   1.791   0.361   1.111 -0.4227  2.1456  0.2937
  402SOL     OW 1204   1.358   0.260   3.082 -0.0181 -0.1654 -0.0425
  402SOL    HW1 1205   1.433   0.223   3.020 -0.9789 -1.5201 -0.9240
  402SOL    HW2 1206   1.287   0.322   3.037 -2.4563  0.8143  1.4480
  403SOL     OW 1207   2.238   1.888   0.829 -0.2189  0.1920 -0.2789
  403SOL    HW1 1208   2.328   1.928   0.806  0.7517 -0.6335  2.3287
  403SOL    HW2 1209   2.220   1.916   0.924  1.1419 -0.4016 -2.8938
  404SOL     OW 1210   0.267   2.485   2.757  0.3962  0.0194  0.0725
  404SOL    HW1 1211   0.348   2.469   2.692  0.9488 -2.4281 -0.7976
  404SOL    HW2 1212   0.260   2.581   2.795 -0.3060  1.3690 -0.6450
  405SOL     OW 1213   0.140   2.374   0.737  0.1434 -0.1340 -0.2690
  405SOL    HW1 1214   0.112   2.320   0.658  0.3382  0.9998 -0.2197
  405SOL    HW2 1215   0.205   2.444   0.704  1.0699  2.5290  1.6811
  406SOL     OW 1216   0.046   1.537   3.084  0.2210 -0.0003 -0.3560
  406SOL    HW1 1217   0.136   1.528   3.033 -1.2766 -0.8618 -0.7086
  406SOL    HW2 1218   0.063   1.505   3.181 -1.1464 -0.7882 -0.5060
  407SOL     OW 1219   1.591   0.887   0.959  0.3857 -0.0746 -0.0177
  407SOL    HW1 1220   1.592   0.870   0.853 -0.4800 -1.0307 -0.0942
  407SOL    HW2 1221   1.502   0.932   0.987  0.5075  1.5666 -2.0717
  408SOL     OW 1222   1.565   2.371   0.964  0.6480 -0.0752  0.0465
  408SOL    HW1 1223   1.651   2.367   0.898  1.6302  0.2645  0.1196
  408SOL    HW2 1224   1.506   2.454   0.944 -0.4221  0.3140 -1.4786
  409SOL     OW 1225   0.619   0.832   0.732  0.0252  0.2622 -0.8114
  409SOL    HW1 1226   0.534   0.825   0.668 -3.2107  2.0805 -1.0635
  409SOL    HW2 1227   0.634   0.751   0.794  1.3045  0.9106  2.1115
  410SOL     OW 1228   1.228   2.017   1.398 -0.5676  0.5509  0.9573
  410SOL    HW1 1229   1.301   1.944   1.417  1.4835 -3.1858 -0.5696
  410SOL    HW2 1230   1.129   1.987   1.415 -0.6004  2.0639 -1.4990
  411SOL     OW 1231   2.513   1.849   3.009  0.1077 -0.5044 -0.0399
  411SOL    HW1 1232   2.571   1.934   3.024  0.1777  1.7777 -0.5875
  411SOL    HW2 1233   2.510   1.830   2.907 -1.8170  2.1978 -0.0348
  412SOL     OW 1234   1.491   2.465   2.155  0.4624 -0.3762 -0.1769
  412SOL    HW1 1235   1.571   2.471   2.219  0.7163  0.5317  0.4348
  412SOL    HW2 1236   1.407   2.420   2.198 -0.9113  0.4971 -0.3359
  413SOL     OW 1237   0.026   0.264   3.029  0.2480  0.2007  0.2835
  413SOL    HW1 1238  -0.036   0.190   3.065  1.1108  2.2450  0.9987
  413SOL    HW2 1239   0.128   0.253   3.059 -1.5717  0.9223 -0.2654
  414SOL     OW 1240   1.767   1.506   1.136 -0.5282 -0.1741 -0.1820
  414SOL    HW1 1241   1.718   1.598   1.158  0.4418  1.4696 -0.0853
  414SOL    HW2 1242   1.765   1.486   1.034 -1.8980  3.8307 -1.8478
  415SOL     OW 1243   0.348   2.145   0.666 -0.0114  0.1628 -0.0459
  415SOL    HW1 1244   0.292   2.160   0.751  1.2329 -0.6520  0.1070
  415SOL    HW2 1245   0.284   2.181   0.592 -1.4972  0.0687 -1.4632
  416SOL     OW 1246   0.363   1.096   1.071 -0.1278 -0.0353  0.3640
  416SOL    HW1 1247   0.339   1.016   1.012 -0.4357 -0.2167  0.8255
  416SOL    HW2 1248   0.456   1.132   1.053 -0.6627 -0.1916 -0.6383
  417SOL     OW 1249   2.369   2.416   2.114  0.2193  0.2916  0.2813
  417SOL    HW1 1250   2.366   2.312   2.120 -1.0693  2.1078  1.3197
  417SOL    HW2 1251   2.330   2.457   2.199  1.3179  1.8919 -3.2076
  418SOL     OW 1252   1.038   0.518   1.332  0.2251  0.3187 -0.4585
  418SOL    HW1 1253   0.961   0.490   1.270  1.0303 -0.5262 -1.1039
  418SOL    HW2 1254   1.128   0.538   1.291 -0.8988  1.0929  2.4393
  419SOL     OW 1255   0.892   0.540   2.970 -0.4566  0.2177  0.1223
  419SOL    HW1 1256   0.798   0.542   2.927 -0.8609 -4.3939 -2.2436
  419SOL    HW2 1257   0.923   0.635   3.010  0.3165  0.8173  0.4335
  420SOL     OW 1258   0.126   2.190   0.503  0.1138 -0.5723 -0.1659
  420SOL    HW1 1259   0.152   2.183   0.407  1.3881  5.3238  1.0209
  420SOL    HW2 1260   0.044   2.139   0.525  2.2747 -0.8373 -1.6059
  421SOL     OW 1261   0.309   2.978   0.535 -0.1951 -0.2210 -0.0383
  421SOL    HW1 1262   0.288   2.907   0.606 -0.3614 -1.4262 -0.6545
  421SOL    HW2 1263   0.406   3.017   0.539  1.3570 -0.0334 -1.1945
  422SOL     OW 1264   1.044   2.561   0.961 -0.3046 -0.1306 -0.1602
  422SOL    HW1 1265   1.070   2.646   0.910 -0.5105 -0.9250 -2.2342
  422SOL    HW2 1266   1.102   2.528   1.043 -1.2430  0.6558 -0.3747
  423SOL     OW 1267   0.143   0.735   1.263 -0.4807  0.1494 -0.0290
  423SOL    HW1 1268   0.070   0.693   1.321  1.7366 -1.2203  1.9501
  423SOL    HW2 1269   0.102   0.817   1.214 -1.2988 -0.3885  2.6814
  424SOL     OW 1270   1.158   2.216   2.050 -0.4606 -0.0168 -0.0141
  424SOL    HW1 1271   1.133   2.316   2.052 -1.0719 -1.2279  1.4125
  424SOL    HW2 1272   1.108   2.161   2.124 -1.4204  2.1218  0.3244
  425SOL     OW 1273   1.962   1.309   0.992 -0.6388  0.2156 -0.1322
  425SOL    HW1 1274   2.040   1.264   1.040 -3.2435 -0.9844  0.0316
  425SOL    HW2 1275   1.986   1.409   0.969 -3.5500  0.4985 -0.1611
  426SOL     OW 1276   1.432   1.592   1.198  0.0681 -0.3879 -0.1906
  426SOL    HW1 1277   1.458   1.689   1.174 -2.5629 -1.0632  1.6503
  426SOL    HW2 1278   1.395   1.579   1.295 -1.4164  1.2660  1.5224
  427SOL     OW 1279   1.957   2.386   2.099 -0.1615 -0.3193  0.3374
  427SOL    HW1 1280   2.023   2.322   2.149 -1.3109  0.5706 -2.2699
  427SOL    HW2 1281   1.977   2.489   2.123  1.2313  2.4816  0.4317
  428SOL     OW 1282   0.900   0.040   0.103 -0.2567  0.1985 -0.3348
  428SOL    HW1 1283   0.935   0.091   0.018 -0.0393  1.3048 -2.5037
  428SOL    HW2 1284   0.977  -0.025   0.134 -0.6417  1.5619 -0.2575
  429SOL     OW 1285   1.299   0.171   0.245 -0.2473 -0.0634 -0.1593
  429SOL    HW1 1286   1.393   0.165   0.294  1.9334  0.8545  2.9387
  429SOL    HW2 1287   1.308   0.195   0.146 -1.5178  1.4473 -0.0643
  430SOL     OW 1288   2.901   1.395   0.282 -0.4756 -0.6480 -0.1140
  430SOL    HW1 1289   2.865   1.452   0.193  2.7140  0.5597 -3.5879
  430SOL    HW2 1290   2.841   1.402   0.367  0.2475 -0.6166  1.3589
  431SOL     OW 1291   2.065   1.577   0.903  0.3008  0.0208 -0.2171
  431SOL    HW1 1292   2.087   1.647   0.975 -2.7317 -1.7179  2.4338
  431SOL    HW2 1293   1.996   1.614   0.832 -2.9285 -1.9813  1.8568
  432SOL     OW 1294   2.912   2.159   1.216 -0.4592 -0.1409 -0.0110
  432SOL    HW1 1295   2.865   2.066   1.227  1.4484 -0.8188  0.7238
  432SOL    HW2 1296   2.955   2.197   1.304  2.7260 -0.7138  1.1130
  433SOL     OW 1297   1.847   0.243   0.801 -0.4631  0.6362  0.3573
  433SOL    HW1 1298   1.758   0.267   0.851 -0.4650 -0.2789 -1.5279
  433SOL    HW2 1299   1.933   0.255   0.856  3.2746  1.7119 -1.2867
  434SOL     OW 1300   1.545   0.299   0.665 -0.2056 -0.1131 -0.1034
  434SOL    HW1 1301   1.507   0.373   0.606 -0.5722  0.0920 -1.1550
  434SOL    HW2 1302   1.628   0.319   0.719  1.9349 -1.0104  1.9396
  435SOL     OW 1303   1.492   1.412   2.110 -0.3534 -0.2622  0.7147
  435SOL    HW1 1304   1.496   1.457   2.202 -1.1537 -0.5911  1.1631
  435SOL    HW2 1305   1.514   1.484   2.037 -1.2190  1.2593 -0.1003
  436SOL     OW 1306   1.722   2.728   2.270  0.0955  0.1901  0.0959
  436SOL    HW1 1307   1.657   2.782   2.330  0.7256  0.5743  3.3336
  436SOL    HW2 1308   1.728   2.628   2.300  2.5786  3.2334  0.3586
  437SOL     OW 1309   1.118   2.963   0.921  0.3700  0.1718 -0.5951
  437SOL    HW1 1310   1.048   3.040   0.913 -1.7198 -0.6036  1.4356
  437SOL    HW2 1311   1.118   2.910   1.014  0.3496  1.0844  2.8099
  438SOL     OW 1312   1.020   2.696   1.496 -0.0193  0.2568  0.4333
  438SOL    HW1 1313   1.121   2.696   1.494 -1.8987  1.8451  1.7157
  438SOL    HW2 1314   0.990   2.606   1.458  1.3785  2.9379  0.9974
  439SOL     OW 1315   0.686   1.862   1.063  0.5326  0.8159  0.1985
  439SOL    HW1 1316   0.690   1.953   1.016 -0.7141  0.4818 -1.0375
  439SOL    HW2 1317   0.594   1.814   1.047 -0.3772 -0.0998  2.6226
  440SOL     OW 1318   1.044   2.499   1.968  0.1254  0.0727 -0.0174
  440SOL    HW1 1319   0.992   2.558   1.900 -0.8696 -1.8099  3.2337
  440SOL    HW2 1320   1.142   2.530   1.973 -0.4444  0.6249 -1.4458
  441SOL     OW 1321   0.376   2.691   1.513 -0.1838  0.3734 -0.6416
  441SOL    HW1 1322   0.449   2.620   1.546  3.3902  0.8533 -2.1310
  441SOL    HW2 1323   0.323   2.656   1.430 -1.0364  1.2552  0.7161
  442SOL     OW 1324   2.279   0.661   2.553 -0.3277 -0.5105 -0.2758
  442SOL    HW1 1325   2.265   0.570   2.596 -0.4296  2.0962  1.1935
  442SOL    HW2 1326   2.199   0.723   2.573  0.0537 -1.0774  1.0254
  443SOL     OW 1327   1.205   2.667   2.216 -0.1256 -0.1241  0.6535
  443SOL    HW1 1328   1.202   2.697   2.318 -1.7385 -0.0091  0.3667
  443SOL    HW2 1329   1.195   2.564   2.206  3.5228  0.8972  1.5246
  444SOL     OW 1330   1.003   1.369   1.551  0.3826 -0.5166 -0.0844
  444SOL    HW1 1331   1.093   1.338   1.510  0.2087 -1.2356 -2.3084
  444SOL    HW2 1332   0.960   1.457   1.510 -0.5739 -0.7005 -0.0602
  445SOL     OW 1333   3.080   2.375   1.986  0.2319  0.3349  0.4227
  445SOL    HW1 1334   3.069   2.459   1.919 -1.5040 -0.8982 -0.7378
  445SOL    HW2 1335   2.985   2.341   2.013  0.9249  0.1304 -0.9872
  446SOL     OW 1336   0.203   1.886   2.343  0.4394  0.7447  0.3907
  446SOL    HW1 1337   0.188   1.981   2.381 -0.0037 -0.9849  1.0470
  446SOL    HW2 1338   0.121   1.848   2.286  1.4420 -2.0503 -1.1533
  447SOL     OW 1339   1.219   1.640   1.941 -0.0113 -0.5843 -0.0850
  447SOL    HW1 1340   1.167   1.732   1.938 -0.9999  0.2833  2.0930
  447SOL    HW2 1341   1.315   1.638   1.981 -1.2405 -1.8232  2.0622
  448SOL     OW 1342   0.114   1.547   1.926  0.4285  0.3347 -0.8620
  448SOL    HW1 1343   0.128   1.653   1.921 -2.5044  2.4214 -0.2220
  448SOL    HW2 1344   0.133   1.506   2.019  0.8643  0.8574  2.2165
  449SOL     OW 1345   2.009   2.994   0.862 -0.0619 -0.5906  0.2271
  449SOL    HW1 1346   2.081   3.022   0.933  0.4322  2.1557 -0.7526
  449SOL    HW2 1347   1.997   2.892   0.867  1.9430  1.2950  2.9185
  450SOL     OW 1348   2.271   1.362   0.913 -0.2050 -0.5421  0.1140
  450SOL    HW1 1349   2.284   1.261   0.907  0.3675  2.0248  1.6048
  450SOL    HW2 1350   2.216   1.395   0.832  2.1423  0.0847  4.8083
  451SOL     OW 1351   1.413   0.026   1.443 -0.2218  0.2993  0.0274
  451SOL    HW1 1352   1.314   0.054   1.460  1.2675 -0.2768  0.8093
  451SOL    HW2 1353   1.452  -0.030   1.521  0.1066  0.0034 -0.2844
  452SOL     OW 1354   2.664   2.348   2.240 -0.3049  0.6211 -0.1088
  452SOL    HW1 1355   2.641   2.446   2.264  0.3359 -2.5618  1.4049
  452SOL    HW2 1356   2.692   2.294   2.321  2.1048 -0.9920 -0.3532
  453SOL     OW 1357   2.429   2.582   3.049  0.0212 -0.2818  0.3002
  453SOL    HW1 1358   2.366   2.664   3.060  1.2898  1.5836 -0.0139
  453SOL    HW2 1359   2.402   2.515   2.969  1.7390 -0.6743  0.6604
  454SOL     OW 1360   0.961   1.084   2.064  0.3543 -0.4751 -0.5811
  454SOL    HW1 1361   0.957   1.122   1.964  0.4380 -0.2691 -1.9789
  454SOL    HW2 1362   1.062   1.093   2.090  0.0531  2.8499 -2.8039
  455SOL     OW 1363   0.635   2.666   2.904 -0.4128 -0.7650 -0.0326
  455SOL    HW1 1364   0.699   2.733   2.948  0.0465  0.7612  1.0522
  455SOL    HW2 1365   0.598   2.594   2.971  0.1020  0.9183  0.3091
  456SOL     OW 1366   0.522   1.780   0.333 -0.1277 -0.2225  0.2705
  456SOL    HW1 1367   0.607   1.723   0.365  3.2296 -0.1359  0.8077
  456SOL    HW2 1368   0.541   1.881   0.320  0.3453 -0.8247  2.1023
  457SOL     OW 1369   0.354   2.544   0.649  0.5189  0.6941 -0.7326
  457SOL    HW1 1370   0.334   2.571   0.550 -2.3823  0.6606 -0.2101
  457SOL    HW2 1371   0.458   2.538   0.670  2.4087 -0.4915 -0.8789
  458SOL     OW 1372   2.991   2.980   1.242 -0.0732  0.1139 -0.7404
  458SOL    HW1 1373   3.001   3.084   1.230  1.6942  1.5074 -0.4909
  458SOL    HW2 1374   2.979   2.931   1.148  0.7853 -0.1558 -1.9263
  459SOL     OW 1375   2.161   2.558   0.899 -0.0780  0.8315 -0.2404
  459SOL    HW1 1376   2.129   2.619   0.980 -2.5185  0.1096  1.2755
  459SOL    HW2 1377   2.262   2.564   0.881  1.8920  1.3703 -2.4812
  460SOL     OW 1378   1.068   1.926   2.917 -0.1949 -0.0201 -0.1688
  460SOL    HW1 1379   1.100   2.007   2.858  1.8701 -1.3780  2.0071
  460SOL    HW2 1380   1.150   1.886   2.972  0.7698 -2.4606  1.2164
  461SOL     OW 1381   0.566   2.114   2.687  0.0646 -0.0867 -0.6847
  461SOL    HW1 1382   0.491   2.049   2.659 -0.1828 -0.8000 -1.1456
  461SOL    HW2 1383   0.609   2.086   2.778  0.0964 -0.2265 -1.2575
  462SOL     OW 1384   0.965   1.178   1.789  0.4505 -0.2119 -0.2869
  462SOL    HW1 1385   1.029   1.098   1.777 -0.0418  1.3537  0.8744
  462SOL    HW2 1386   0.958   1.243   1.704 -1.0232 -2.5916  1.9258
  463SOL     OW 1387   0.445   0.769   0.509  0.6679 -0.8405 -0.6164
  463SOL    HW1 1388   0.451   0.673   0.472 -2.7991  0.2509 -0.1290
  463SOL    HW2 1389   0.350   0.791   0.542 -0.1648  1.2637  0.0824
  464SOL     OW 1390   0.503   2.254   2.227 -0.0144  0.4142  0.0026
  464SOL    HW1 1391   0.431   2.299   2.285 -0.6389  0.8167 -0.8092
  464SOL    HW2 1392   0.524   2.316   2.147  1.2345 -0.1867  0.4462
  465SOL     OW 1393   0.306   0.912   0.883  0.0840  0.2558 -0.1869
  465SOL    HW1 1394   0.207   0.913   0.856  0.5597  1.7434 -2.3283
  465SOL    HW2 1395   0.327   0.828   0.940  1.9850 -1.5436  0.1251
  466SOL     OW 1396   1.395   1.074   1.095  0.1150  0.5365  0.9418
  466SOL    HW1 1397   1.469   1.149   1.106 -0.3644  1.7118  1.5938
  466SOL    HW2 1398   1.302   1.110   1.061  0.6219  0.0204 -0.4033
  467SOL     OW 1399   0.464   0.378   2.447 -0.0201  0.0848 -0.0948
  467SOL    HW1 1400   0.424   0.453   2.506 -1.6668 -1.2112 -0.5335
  467SOL    HW2 1401   0.485   0.290   2.509  2.7752 -1.3571 -1.1419
  468SOL     OW 1402   0.492   2.215   1.728  0.0619 -0.1480  0.2368
  468SOL    HW1 1403   0.532   2.287   1.791 -0.6101  1.5625  0.1827
  468SOL    HW2 1404   0.456   2.251   1.636  1.5251  0.5314 -0.5104
  469SOL     OW 1405   1.579   1.267   1.102  0.3159  0.1754  0.0380
  469SOL    HW1 1406   1.662   1.204   1.120 -2.7541 -1.9711 -0.4262
  469SOL    HW2 1407   1.603   1.363   1.120  1.2158 -1.4454  0.7118
  470SOL     OW 1408   3.022   1.630   0.738 -0.8826 -0.2878  0.3348
  470SOL    HW1 1409   3.118   1.631   0.781  1.4684 -1.6380 -3.3826
  470SOL    HW2 1410   2.946   1.685   0.794  0.0765  2.1613  0.9738
  471SOL     OW 1411   2.636   1.299   2.176 -0.7069 -0.3786  0.3009
  471SOL    HW1 1412   2.583   1.243   2.240 -1.3607  1.8327  1.1073
  471SOL    HW2 1413   2.679   1.380   2.224 -0.0275  1.7275  0.4658
  472SOL     OW 1414   1.131   2.463   0.001  0.2259  0.0463 -0.4681
  472SOL    HW1 1415   1.204   2.469   0.075  0.5552  0.4863 -2.2018
  472SOL    HW2 1416   1.084   2.369   0.011  1.5790 -1.9209 -1.5404
  473SOL     OW 1417   1.040   1.562   0.882  0.0080 -0.2937  0.2314
  473SOL    HW1 1418   0.951   1.608   0.921 -1.3005  1.0575 -1.2481
  473SOL    HW2 1419   1.114   1.551   0.954 -1.1874 -1.6335  0.1066
  474SOL     OW 1420   0.801   1.239   0.782  0.1099  0.5516 -0.1089
  474SOL    HW1 1421   0.770   1.229   0.684  0.9262 -1.2677  1.0981
  474SOL    HW2 1422   0.898   1.200   0.799 -2.4876  0.8786  0.6301
  475SOL     OW 1423   2.895   0.067   0.792 -0.1968 -0.4227  0.1923
  475SOL    HW1 1424   2.980   0.048   0.854  2.5960  0.7378  4.2586
  475SOL    HW2 1425   2.802   0.071   0.845 -0.3293 -0.8710  2.5017
  476SOL     OW 1426   0.913   3.055   1.886  0.8428  0.5850  0.9078
  476SOL    HW1 1427   0.989   3.029   1.952 -0.6264  1.2976  2.1168
  476SOL    HW2 1428   0.924   3.016   1.789  1.6402 -3.7293  2.6101
  477SOL     OW 1429   1.471   0.398   2.434  0.4424  0.4999  0.1516
  477SOL    HW1 1430   1.440   0.399   2.535  0.9756  1.9912  2.5020
  477SOL    HW2 1431   1.566   0.356   2.415  0.4005 -0.3870  0.4294
  478SOL     OW 1432   2.218   1.802   0.249 -1.0905  0.3182 -0.4891
  478SOL    HW1 1433   2.154   1.721   0.220 -3.1518  1.5553  0.7503
  478SOL    HW2 1434   2.317   1.776   0.257 -2.1400 -0.8108 -1.2157
  479SOL     OW 1435   1.183   1.129   2.856 -0.6120 -0.0536 -0.0406
  479SOL    HW1 1436   1.271   1.114   2.808  0.8514  1.7561 -0.5181
  479SOL    HW2 1437   1.113   1.061   2.832  2.3156  1.5506 -2.0000
  480SOL     OW 1438   2.481   2.345   0.369  0.2406 -0.2478  0.4996
  480SOL    HW1 1439   2.451   2.261   0.416 -0.8246  1.3470 -0.0416
  480SOL    HW2 1440   2.428   2.370   0.280  1.8509 -0.5965 -0.3759
  481SOL     OW 1441   1.068   1.192   0.833 -0.3958 -0.1468  0.6778
  481SOL    HW1 1442   1.114   1.271   0.783 -2.2703 -0.0160 -1.9993
  481SOL    HW2 1443   1.087   1.195   0.936 -0.7920 -1.7435 -0.2563
  482SOL     OW 1444   1.629   0.277   2.007  0.0004 -0.1661 -0.5680
  482SOL    HW1 1445   1.649   0.362   1.955  1.6820 -1.6463  0.4836
  482SOL    HW2 1446   1.713   0.247   2.062 -3.1749 -0.7957 -1.4137
  483SOL     OW 1447   0.137   2.327   1.318 -0.1868 -0.2299  0.2745
  483SOL    HW1 1448   0.036   2.358   1.333  1.1371  2.9481 -0.8772
  483SOL    HW2 1449   0.174   2.351   1.222 -0.8302  4.0507  0.0835
  484SOL     OW 1450   1.714   0.943   1.397 -0.5369 -0.2712  0.1802
  484SOL    HW1 1451   1.810   0.917   1.425  0.4393 -1.9145 -1.2136
  484SOL    HW2 1452   1.721   1.040   1.367  1.0026 -0.6284  0.4238
  485SOL     OW 1453   0.688   1.123   1.776 -0.2362  0.4264 -0.1014
  485SOL    HW1 1454   0.679   1.115   1.672 -0.4595  0.7239  1.2579
  485SOL    HW2 1455   0.785   1.140   1.805 -1.1718  1.0124  2.0719
  486SOL     OW 1456   0.899   1.915   2.421  0.0315 -0.1530  0.5026
  486SOL    HW1 1457   0.929   1.873   2.509  0.5615  0.8273 -1.2775
  486SOL    HW2 1458   0.837   1.998   2.438  2.2326 -0.8768 -0.3059
  487SOL     OW 1459   1.739   1.499   0.870  0.2081  0.3466 -0.6668
  487SOL    HW1 1460   1.729   1.425   0.797 -0.3395  2.7088  0.6189
  487SOL    HW2 1461   1.784   1.581   0.824 -0.2887 -2.3215 -0.7106
  488SOL     OW 1462   2.978   0.949   2.265  0.1964 -0.0592 -0.4838
  488SOL    HW1 1463   2.980   0.872   2.201 -0.0165 -1.1199 -0.1231
  488SOL    HW2 1464   3.038   0.934   2.351  1.7694 -2.2893 -2.9362
  489SOL     OW 1465   2.782   0.195   1.316 -0.1057  0.2847  0.4000
  489SOL    HW1 1466   2.757   0.197   1.416 -2.0040 -2.9441  2.5702
  489SOL    HW2 1467   2.877   0.153   1.293  0.6314  0.3992 -1.2677
  490SOL     OW 1468   1.410   2.976   2.831 -0.2607  0.4602  0.2860
  490SOL    HW1 1469   1.447   2.880   2.819 -1.6703  2.9448 -2.7247
  490SOL    HW2 1470   1.369   3.012   2.739  1.2246 -2.3413  1.0211
  491SOL     OW 1471   1.907   1.561   2.662 -0.1933 -0.1957  0.2681
  491SOL    HW1 1472   1.918   1.552   2.765 -1.6326 -0.9494  3.2885
  491SOL    HW2 1473   1.997   1.601   2.618  1.2652  2.6020 -0.3492
  492SOL     OW 1474   0.480   1.906   0.717  0.5001 -0.0339  0.3850
  492SOL    HW1 1475   0.559   1.939   0.768 -0.8517 -1.8982 -0.9905
  492SOL    HW2 1476   0.431   1.985   0.667  0.9600  0.5543  0.0786
  493SOL     OW 1477   0.469   1.404   2.165  0.3748 -0.3168  0.3291
  493SOL    HW1 1478   0.378   1.453   2.162 -0.5551 -1.0194  0.6378
  493SOL    HW2 1479   0.467   1.308   2.207  0.9483 -0.4068 -1.1668
  494SOL     OW 1480   2.607   2.633   0.170 -0.4843 -0.8810 -0.1082
  494SOL    HW1 1481   2.673   2.554   0.185  1.5744 -1.0854 -2.6472
  494SOL    HW2 1482   2.554   2.625   0.084  0.4168  0.6102  1.5073
  495SOL     OW 1483   2.745   2.682   2.682 -0.2927  0.0301  0.0990
  495SOL    HW1 1484   2.764   2.599   2.625  0.6800 -0.6458  0.6488
  495SOL    HW2 1485   2.752   2.769   2.620 -0.1721 -1.9235  1.3471
  496SOL     OW 1486   2.030   2.204   0.708  0.3097  0.6578  0.2031
  496SOL    HW1 1487   2.053   2.220   0.806 -1.1495 -0.5737  1.5052
  496SOL    HW2 1488   2.036   2.100   0.683 -0.1688 -5.1480 -2.3444
  497SOL     OW 1489   0.245   2.962   2.407  0.3080 -0.6350  0.0644
  497SOL    HW1 1490   0.193   3.033   2.460  0.1503 -0.2811 -3.0286
  497SOL    HW2 1491   0.292   3.005   2.325 -0.3580  2.4335  2.7783
  498SOL     OW 1492   1.231   1.500   1.058  0.6541 -0.1884 -0.0174
  498SOL    HW1 1493   1.323   1.536   1.101  2.7016  1.8738  3.8055
  498SOL    HW2 1494   1.149   1.508   1.125  2.3211 -1.8655  0.2070
  499SOL     OW 1495   0.868   1.840   0.474  0.4800  0.1835 -0.2954
  499SOL    HW1 1496   0.792   1.790   0.534 -1.2327  0.8374  1.1853
  499SOL    HW2 1497   0.925   1.901   0.535 -0.6533  0.0596  0.6252
  500SOL     OW 1498   1.456   2.957   1.654 -0.2571  0.0543  0.0451
  500SOL    HW1 1499   1.433   2.987   1.752  1.3132 -0.2348  0.3354
  500SOL    HW2 1500   1.487   2.859   1.655  0.7236 -1.2377  0.7957
  501SOL     OW 1501   0.784   1.118   2.269  0.2820  0.2688  0.9238
  501SOL    HW1 1502   0.697   1.060   2.270  0.6139 -0.1194  0.9112
  501SOL    HW2 1503   0.845   1.103   2.184  1.5274 -1.1842 -2.7160
  502SOL     OW 1504   2.614   0.975   1.734 -0.5523 -0.6222  0.2797
  502SOL    HW1 1505   2.560   0.979   1.644 -0.2038  1.4349  0.7946
  502SOL    HW2 1506   2.591   0.891   1.791  1.4738  1.9708  0.4978
  503SOL     OW 1507   1.309   0.157   0.641  0.0767 -0.0037 -0.2040
  503SOL    HW1 1508   1.231   0.224   0.622 -0.7918 -0.0897  2.0735
  503SOL    HW2 1509   1.398   0.211   0.649  0.3958  2.2778 -0.8130
  504SOL     OW 1510   2.967   2.324   1.440 -0.2898 -0.5004  0.4484
  504SOL    HW1 1511   2.945   2.422   1.468  2.7479  1.0432  0.4930
  504SOL    HW2 1512   2.886   2.260   1.466  1.1574  2.5105  2.2387
  505SOL     OW 1513   2.311   1.272   1.451 -0.2676  0.5312  0.6855
  505SOL    HW1 1514   2.303   1.376   1.455 -0.3919 -0.2898  2.5898
  505SOL    HW2 1515   2.405   1.245   1.494  2.5059 -0.5734  0.5265
  506SOL     OW 1516   1.873   0.257   1.783 -0.4460  0.5173  0.3192
  506SOL    HW1 1517   1.946   0.229   1.716  2.5488 -0.2132  1.0336
  506SOL    HW2 1518   1.910   0.325   1.858  0.3726  1.6221  0.6661
  507SOL     OW 1519   0.474   0.751   2.174 -0.0760  0.0365 -0.1950
  507SOL    HW1 1520   0.412   0.726   2.094  0.6560 -0.7338 -0.9964
  507SOL    HW2 1521   0.526   0.669   2.207 -1.8039  0.5251 -0.6164
  508SOL     OW 1522   0.189   1.633   0.838  0.2223 -0.3261  0.6102
  508SOL    HW1 1523   0.238   1.718   0.809  2.1748 -2.3826  0.9033
  508SOL    HW2 1524   0.167   1.626   0.941 -1.2242  0.8421  2.1442
  509SOL     OW 1525   1.339   1.192   2.585  0.2142  0.0892  0.2243
  509SOL    HW1 1526   1.263   1.258   2.553 -4.0246  1.9137  0.4336
  509SOL    HW2 1527   1.317   1.092   2.586  0.9337  1.2942 -1.8533
  510SOL     OW 1528   1.320   1.997   2.042  0.2516  0.4832 -0.2711
  510SOL    HW1 1529   1.250   2.071   2.049  1.3333  0.4786  1.8139
  510SOL    HW2 1530   1.308   1.925   2.123  2.2553 -2.0056  1.9524
  511SOL     OW 1531   3.048   2.629   1.292  0.1099  0.2265  0.5709
  511SOL    HW1 1532   2.991   2.586   1.213  0.9239 -0.1169  1.6952
  511SOL    HW2 1533   3.000   2.630   1.387 -0.9785  0.4214  1.9963
  512SOL     OW 1534   2.421   0.388   1.434 -0.0649 -0.4046  0.6349
  512SOL    HW1 1535   2.317   0.367   1.425 -1.7129  0.5971 -0.9911
  512SOL    HW2 1536   2.468   0.333   1.362 -0.8567 -0.8519  2.9251
  513SOL     OW 1537   2.496   1.975   0.816 -0.0632  0.4416  0.2572
  513SOL    HW1 1538   2.454   2.070   0.825  1.3350  0.3846  2.1779
  513SOL    HW2 1539   2.568   1.971   0.741 -1.0782  0.0067 -0.1637
  514SOL     OW 1540   0.684   2.795   0.421  0.1612  0.2580  0.0308
  514SOL    HW1 1541   0.646   2.855   0.343 -0.5524 -0.3531 -0.7590
  514SOL    HW2 1542   0.720   2.856   0.502  1.4191  1.3232 -1.5481
  515SOL     OW 1543   1.943   1.224   2.355  0.0912 -0.4647 -0.6027
  515SOL    HW1 1544   1.891   1.263   2.273 -1.8270  0.3993  0.8921
  515SOL    HW2 1545   1.880   1.204   2.429 -1.6661  3.1947 -3.1807
  516SOL     OW 1546   0.286   0.395   1.975  0.6440  0.1258  0.3283
  516SOL    HW1 1547   0.379   0.357   1.964 -0.7172 -0.7522  1.0499
  516SOL    HW2 1548   0.222   0.361   1.900 -0.1540  1.0953 -1.2081
  517SOL     OW 1549   0.386   3.024   1.201  0.4194  0.0701 -0.4266
  517SOL    HW1 1550   0.378   3.128   1.222 -1.9614 -2.7689  1.1539
  517SOL    HW2 1551   0.314   2.973   1.258  0.1650 -1.8893 -0.6441
  518SOL     OW 1552   2.126   0.187   1.622 -0.0301 -0.1513  0.2109
  518SOL    HW1 1553   2.149   0.201   1.723  0.5324 -0.0322  1.4781
  518SOL    HW2 1554   2.163   0.095   1.591 -1.8229  0.4823  1.6674
  519SOL     OW 1555   2.335   2.166   2.550 -0.1284  0.1909  0.9920
  519SOL    HW1 1556   2.273   2.163   2.632 -1.0121 -1.6765 -2.3243
  519SOL    HW2 1557   2.406   2.243   2.556 -0.4833  1.5815 -1.9164
  520SOL     OW 1558   1.764   2.874   1.831 -0.0588  0.1146  0.1947
  520SOL    HW1 1559   1.689   2.823   1.882 -2.3541  0.7823 -1.1933
  520SOL    HW2 1560   1.850   2.816   1.823  0.3430  1.9404 -1.4583
  521SOL     OW 1561   0.577   0.122   2.147  0.6768 -0.4099 -0.1538
  521SOL    HW1 1562   0.474   0.113   2.164 -0.5694  1.3072  0.3649
  521SOL    HW2 1563   0.633   0.081   2.226  1.1766 -3.5753 -1.7962
  522SOL     OW 1564   0.223   1.922   1.534 -0.2504 -0.4521 -0.0617
  522SOL    HW1 1565   0.255   1.980   1.615 -1.0132 -0.9280  0.0222
  522SOL    HW2 1566   0.206   1.983   1.450 -1.9429  1.5768  0.5979
  523SOL     OW 1567   2.248   3.032   1.591  0.4466  0.3989  0.3447
  523SOL    HW1 1568   2.267   2.949   1.528 -0.3851 -0.2173  0.5345
  523SOL    HW2 1569   2.204   3.000   1.678 -1.9871 -1.6508 -1.4101
  524SOL     OW 1570   0.248   2.797   2.795 -0.3043 -0.2074 -0.3384
  524SOL    HW1 1571   0.199   2.886   2.834  1.2394  1.2586  0.9374
  524SOL    HW2 1572   0.356   2.818   2.789  1.8448  1.2619 -0.3633
  525SOL     OW 1573   2.128   1.983   0.460 -0.3503 -0.3781  0.0767
  525SOL    HW1 1574   2.134   1.911   0.538  0.8605 -1.6951  2.6469
  525SOL    HW2 1575   2.160   1.947   0.369  1.3758  1.7210  1.3617
  526SOL     OW 1576   0.430   1.545   1.547 -0.6735  0.6101 -0.3966
  526SOL    HW1 1577   0.368   1.506   1.623 -0.1865  0.4824 -0.4273
  526SOL    HW2 1578   0.500   1.471   1.520 -3.2250 -1.6650 -0.1869
  527SOL     OW 1579   1.131   2.883   1.195  0.5375  0.2004  0.1457
  527SOL    HW1 1580   1.178   2.841   1.277 -1.9153 -0.5876 -1.1187
  527SOL    HW2 1581   1.136   2.987   1.202  2.0807  1.2495  2.7010
  528SOL     OW 1582   1.341   2.383   0.471  0.1370 -0.0231  0.4559
  528SOL    HW1 1583   1.382   2.286   0.457 -0.0606  0.0845 -1.8995
  528SOL    HW2 1584   1.399   2.434   0.544 -0.3282 -1.9366 -1.4272
  529SOL     OW 1585   1.867   1.719   0.742  0.5205  0.2924 -0.7786
  529SOL    HW1 1586   1.816   1.736   0.651  0.5284 -0.2049 -1.1448
  529SOL    HW2 1587   1.871   1.799   0.807 -1.1512  0.8450 -0.5035
  530SOL     OW 1588   0.364   2.432   0.239 -0.0575 -0.1529 -0.5465
  530SOL    HW1 1589   0.397   2.519   0.290 -1.1599  0.7651  0.1062
  530SOL    HW2 1590   0.419   2.345   0.261  0.7173  4.6272 -1.6217
  531SOL     OW 1591   1.881   0.812   0.949  0.1866 -0.2265 -0.4612
  531SOL    HW1 1592   1.902   0.847   0.860  0.1581 -3.0154 -0.0212
  531SOL    HW2 1593   1.786   0.844   0.975  0.2261 -0.4706  1.1163
  532SOL     OW 1594   0.445   1.097   0.760 -0.0840 -0.0442 -0.5336
  532SOL    HW1 1595   0.472   1.081   0.662  0.7256  1.1506 -0.9908
  532SOL    HW2 1596   0.407   1.018   0.811 -1.0166 -0.3444 -0.8510
  533SOL     OW 1597   1.720   3.090   2.561 -0.2080  0.4556  0.4210
  533SOL    HW1 1598   1.819   3.078   2.587 -0.5420  0.5909  2.0078
  533SOL    HW2 1599   1.676   3.168   2.611 -1.3958 -2.2530 -2.2733
  534SOL     OW 1600   0.386   0.193   1.553 -0.0957  0.0133 -0.3201
  534SOL    HW1 1601   0.488   0.183   1.557 -0.8710 -2.0058 -0.3389
  534SOL    HW2 1602   0.355   0.289   1.541 -0.6925 -0.7596 -0.3444
  535SOL     OW 1603   1.954   0.330   0.170  0.2422  0.0946 -0.0354
  535SOL    HW1 1604   1.974   0.414   0.228  1.7774 -0.7694  0.0475
  535SOL    HW2 1605   1.945   0.236   0.221  0.8550 -0.6727  1.3398
  536SOL     OW 1606   1.368   2.590   0.907  0.0263  0.0247  0.2616
  536SOL    HW1 1607   1.334   2.579   1.005 -0.3375  0.6623 -1.7474
  536SOL    HW2 1608   1.284   2.605   0.843 -0.3860 -1.9363  2.2713
  537SOL     OW 1609   0.867   0.270   2.355  0.4386  0.1077 -0.7581
  537SOL    HW1 1610   0.878   0.309   2.267 -0.1012 -2.0850  1.0991
  537SOL    HW2 1611   0.828   0.176   2.347  1.7972  1.1241 -0.4720
  538SOL     OW 1612   1.660   2.404   1.410 -0.1812 -0.0062  0.0870
  538SOL    HW1 1613   1.647   2.304   1.419  0.6311  0.5164  1.0486
  538SOL    HW2 1614   1.757   2.432   1.414 -1.3025  0.1957 -0.1301
  539SOL     OW 1615   0.204   1.608   2.662 -0.2019 -0.5290  0.2815
  539SOL    HW1 1616   0.108   1.571   2.655  0.6180  0.7404  0.6859
  539SOL    HW2 1617   0.203   1.695   2.722 -0.7638  0.3587  1.4389
  540SOL     OW 1618   2.663   1.737   1.929 -0.4325  0.1562 -0.2833
  540SOL    HW1 1619   2.612   1.658   1.970 -0.4262  0.0884  1.2216
  540SOL    HW2 1620   2.612   1.830   1.917 -0.1177  2.4301  4.3183
  541SOL     OW 1621   0.507   2.147   0.011 -0.6654  0.3538 -0.5541
  541SOL    HW1 1622   0.512   2.109   0.107  0.3592 -0.0416 -0.0884
  541SOL    HW2 1623   0.423   2.120  -0.042  0.6702 -0.9070 -1.4455
  542SOL     OW 1624   2.273   2.630   0.540 -0.0133 -0.4761 -0.2259
  542SOL    HW1 1625   2.223   2.710   0.580 -1.2827 -2.3570  1.3274
  542SOL    HW2 1626   2.214   2.546   0.544  0.4639 -1.2338 -1.2253
  543SOL     OW 1627   1.082   1.789   1.584  0.2038 -0.0088 -0.1591
  543SOL    HW1 1628   1.078   1.816   1.681  0.4966 -1.0089  0.7483
  543SOL    HW2 1629   1.020   1.852   1.521 -2.8261  2.0293  2.0851
  544SOL     OW 1630   1.151   0.544   0.134 -0.4185  0.5458 -0.6375
  544SOL    HW1 1631   1.098   0.458   0.171 -1.9448  1.4150  1.4207
  544SOL    HW2 1632   1.185   0.526   0.039  0.3947 -0.7855  0.7299
  545SOL     OW 1633   1.137   1.816   0.813 -0.2162 -0.6951  0.1894
  545SOL    HW1 1634   1.222   1.835   0.758  0.1288  2.4584  1.2259
  545SOL    HW2 1635   1.106   1.715   0.806  0.9423 -0.2558 -1.0995
  546SOL     OW 1636   2.670   1.598   2.984 -0.2294  0.3250  0.0331
  546SOL    HW1 1637   2.628   1.689   3.002  1.5223 -2.9794 -0.0185
  546SOL    HW2 1638   2.598   1.522   2.991  0.0946 -0.2417  0.0030
  547SOL     OW 1639   0.659   3.042   2.570 -0.3976 -0.2449 -0.3227
  547SOL    HW1 1640   0.705   3.037   2.667  0.7922 -0.9289  2.1777
  547SOL    HW2 1641   0.582   2.979   2.563 -1.0952 -0.2925 -2.3145
  548SOL     OW 1642   2.036   0.769   3.024 -0.3322  0.3995  0.2407
  548SOL    HW1 1643   1.938   0.738   3.025  1.4492 -1.2005  0.3193
  548SOL    HW2 1644   2.054   0.864   3.058 -0.1676  0.6041 -0.9643
  549SOL     OW 1645   0.689   0.569   0.182 -0.1336 -0.0806 -0.2227
  549SOL    HW1 1646   0.645   0.613   0.095 -1.3938  1.3627 -1.9274
  549SOL    HW2 1647   0.778   0.614   0.210 -1.7325 -1.9531  1.3243
  550SOL     OW 1648   2.579   2.759   2.884  0.0283  0.2368  0.0277
  550SOL    HW1 1649   2.541   2.682   2.940  0.5059  1.7921 -0.2656
  550SOL    HW2 1650   2.650   2.731   2.812 -0.0728  1.5462  0.0683
  551SOL     OW 1651   0.254   0.874   0.195 -0.0306 -0.4354 -0.1662
  551SOL    HW1 1652   0.332   0.812   0.173 -0.5913  2.2155  2.1696
  551SOL    HW2 1653   0.253   0.909   0.296 -0.9825  2.2779 -1.3086
  552SOL     OW 1654   0.627   3.046   1.952 -0.2375  0.1284 -0.1549
  552SOL    HW1 1655   0.600   3.117   2.027 -1.8213 -1.2256  0.9152
  552SOL    HW2 1656   0.727   3.027   1.949 -1.0889 -0.0662  0.3029
  553SOL     OW 1657   3.001   2.423   0.362 -0.0783  0.0273  0.2004
  553SOL    HW1 1658   3.030   2.323   0.378 -0.6469  2.5351  1.2398
  553SOL    HW2 1659   2.912   2.447   0.409  0.6835  0.7225  0.9991
  554SOL     OW 1660   2.204   0.360   0.543  0.5025 -0.3570  0.3834
  554SOL    HW1 1661   2.255   0.394   0.457  1.0084  2.4360 -0.1376
  554SOL    HW2 1662   2.233   0.265   0.565  2.0453 -0.6223 -2.9520
  555SOL     OW 1663   0.475   2.842   2.475  0.3936 -0.5866 -0.3791
  555SOL    HW1 1664   0.380   2.897   2.468 -1.6445  2.9598  0.1413
  555SOL    HW2 1665   0.474   2.772   2.398 -1.3366 -1.2163  0.9927
  556SOL     OW 1666   0.826   2.416   1.605  0.3786 -0.8072 -0.4306
  556SOL    HW1 1667   0.859   2.498   1.670 -1.8143 -0.7855  0.1139
  556SOL    HW2 1668   0.896   2.399   1.530  3.0790 -0.6469  0.9827
  557SOL     OW 1669   0.229   2.088   0.260 -0.9451  0.1715  0.5320
  557SOL    HW1 1670   0.136   2.050   0.227 -0.3782  2.0631 -0.2827
  557SOL    HW2 1671   0.285   2.080   0.173 -0.6023  1.8605 -2.0663
  558SOL     OW 1672   2.839   2.183   0.396  0.0166  0.2964  0.0030
  558SOL    HW1 1673   2.781   2.269   0.412 -1.2158  3.2093  4.3335
  558SOL    HW2 1674   2.812   2.116   0.317  1.7963 -2.0108 -1.8818
  559SOL     OW 1675   0.408   2.298   1.457  0.3987 -0.6011  0.0573
  559SOL    HW1 1676   0.313   2.309   1.418 -1.0252 -0.8070 -0.9778
  559SOL    HW2 1677   0.460   2.218   1.411 -3.3818 -1.1268  0.7251
  560SOL     OW 1678   2.135   1.016   0.021 -0.1424  0.1953 -0.2749
  560SOL    HW1 1679   2.191   1.050   0.097 -3.6983  0.5587  0.5047
  560SOL    HW2 1680   2.175   1.035  -0.071  0.5458  1.4911 -0.1100
  561SOL     OW 1681   3.098   1.971   0.185 -0.3523 -0.4347 -0.2239
  561SOL    HW1 1682   3.040   1.906   0.242  1.7797 -0.2791  2.1697
  561SOL    HW2 1683   3.063   1.975   0.086 -0.5674  3.2413 -0.7548
  562SOL     OW 1684   1.020   2.084   2.249 -0.4252  0.4266  0.2745
  562SOL    HW1 1685   1.005   2.178   2.297  1.8423  0.5968 -1.4415
  562SOL    HW2 1686   0.984   2.009   2.311 -0.8026  0.0969  1.8742
  563SOL     OW 1687   0.669   2.529   2.648 -0.3716 -0.0303 -0.1319
  563SOL    HW1 1688   0.758   2.498   2.606 -0.5643 -1.3421 -1.0514
  563SOL    HW2 1689   0.680   2.579   2.740 -1.3947  1.9031  0.1829
  564SOL     OW 1690   2.853   1.433   2.839  0.1555 -0.1094 -0.5196
  564SOL    HW1 1691   2.799   1.512   2.882  0.5181 -0.1464  4.9182
  564SOL    HW2 1692   2.939   1.467   2.788 -1.7166  0.3164 -0.3688
  565SOL     OW 1693   2.489   1.954   2.658 -0.2259 -0.2677  0.3117
  565SOL    HW1 1694   2.463   2.049   2.619  2.5862  1.5193 -1.7523
  565SOL    HW2 1695   2.582   1.952   2.711  2.8740 -0.7837  0.2931
  566SOL     OW 1696   1.917   2.899   1.455  0.3920 -0.0549  0.3273
  566SOL    HW1 1697   1.925   2.813   1.512  0.1353  1.1858  2.2020
  566SOL    HW2 1698   1.931   2.870   1.358 -2.5854 -1.3700  1.2924
  567SOL     OW 1699   2.349   0.032   2.304  0.3275 -0.1382  0.1449
  567SOL    HW1 1700   2.254   0.034   2.350 -1.2900  1.3757 -3.3312
  567SOL    HW2 1701   2.344   0.037   2.202  0.7672 -0.0550  1.8095
  568SOL     OW 1702   1.483   1.761   0.219 -0.5114  0.4469 -0.4643
  568SOL    HW1 1703   1.429   1.850   0.194 -0.9695  1.1564 -0.6835
  568SOL    HW2 1704   1.589   1.781   0.225  1.5538  1.8071  3.2731
  569SOL     OW 1705   0.261   0.551   0.855  0.2725 -0.6729 -0.4992
  569SOL    HW1 1706   0.279   0.487   0.771  0.3979 -0.1770 -3.1628
  569SOL    HW2 1707   0.160   0.549   0.874  1.3165 -2.3875 -0.2203
  570SOL     OW 1708   0.667   0.865   2.900  0.1006  0.2043  0.0847
  570SOL    HW1 1709   0.689   0.895   2.800  1.4344 -1.0824  0.3971
  570SOL    HW2 1710   0.660   0.943   2.966 -2.8869 -0.7949 -0.6176
  571SOL     OW 1711   0.802   3.058   1.073 -0.0851 -0.5108  0.1584
  571SOL    HW1 1712   0.847   3.109   0.992 -0.8915  1.9919  0.0936
  571SOL    HW2 1713   0.850   2.965   1.088  2.0360 -1.0055 -0.3997
  572SOL     OW 1714   1.672   2.732   1.438  0.5485  0.4129  0.2851
  572SOL    HW1 1715   1.656   2.712   1.337 -1.4021 -1.2204 -1.2872
  572SOL    HW2 1716   1.656   2.830   1.468 -0.5983 -1.7736 -0.9305
  573SOL     OW 1717   3.021   0.456   1.926  0.1257 -0.3358 -0.0096
  573SOL    HW1 1718   2.941   0.397   1.934 -1.0230  0.0972  0.6570
  573SOL    HW2 1719   3.088   0.423   1.852  0.3387 -1.7971 -1.2647
  574SOL     OW 1720   0.112   1.659   1.110  0.0813 -0.0965  0.4676
  574SOL    HW1 1721   0.173   1.666   1.193  1.7055  0.7413 -1.0206
  574SOL    HW2 1722   0.066   1.752   1.087 -0.7252  0.5377 -0.6471
  575SOL     OW 1723   0.826   2.267   0.996 -0.2124  0.5886  0.1718
  575SOL    HW1 1724   0.782   2.334   1.065  0.4460  1.5217 -2.4496
  575SOL    HW2 1725   0.877   2.314   0.917 -0.5295  1.8465 -2.4489
  576SOL     OW 1726   2.934   2.994   1.693  0.2819  0.3445 -0.6213
  576SOL    HW1 1727   2.837   2.994   1.662  0.8556 -0.5299 -0.6920
  576SOL    HW2 1728   2.978   3.094   1.696  0.0020  5.3785  3.1225
  577SOL     OW 1729   2.678   1.224   3.063  0.0190 -0.1312  0.6317
  577SOL    HW1 1730   2.614   1.144   3.039 -0.8786  1.6241 -0.2558
  577SOL    HW2 1731   2.712   1.208   3.156 -0.2526  0.5267 -1.4346
  578SOL     OW 1732   1.387   2.717   2.539 -0.1649  0.4336 -0.1603
  578SOL    HW1 1733   1.292   2.750   2.507 -2.4485 -1.3957 -0.3395
  578SOL    HW2 1734   1.461   2.778   2.500 -3.3609  1.6302  0.3191
  579SOL     OW 1735   0.086   2.410   0.165 -0.1187  0.3595 -0.7541
  579SOL    HW1 1736   0.016   2.435   0.235 -0.3711  1.6050  1.1770
  579SOL    HW2 1737   0.185   2.429   0.201  1.8461 -2.0694 -1.1519
  580SOL     OW 1738   0.950   2.686   0.389  0.1569  0.3464 -0.6885
  580SOL    HW1 1739   1.004   2.698   0.300  1.2673  1.7247  1.5089
  580SOL    HW2 1740   0.848   2.680   0.377  1.4335  2.8984 -2.7845
  581SOL     OW 1741   1.294   2.760   1.457  0.5583 -0.2182 -0.9655
  581SOL    HW1 1742   1.361   2.681   1.473  1.5679 -0.4102  1.1406
  581SOL    HW2 1743   1.340   2.834   1.392 -0.6043 -0.0668  0.0462
  582SOL     OW 1744   1.503   0.075   1.856 -0.2677  0.3868 -0.0096
  582SOL    HW1 1745   1.533   0.145   1.930 -0.3255  2.5225  1.0174
  582SOL    HW2 1746   1.531   0.110   1.761 -0.9852 -0.1381  0.2378
  583SOL     OW 1747   2.429   2.985   0.489  0.2442  0.4130 -0.1114
  583SOL    HW1 1748   2.483   2.905   0.455 -0.9266  1.2711 -1.0007
  583SOL    HW2 1749   2.349   2.948   0.545 -1.8386 -0.6567 -0.6060
  584SOL     OW 1750   1.548   1.084   2.253 -0.6020 -0.2616  0.0973
  584SOL    HW1 1751   1.551   1.186   2.251  1.1031  1.9265  1.1962
  584SOL    HW2 1752   1.632   1.028   2.283  1.8492 -1.3201 -1.5150
  585SOL     OW 1753   2.032   2.667   2.911  0.1382  0.2752  0.5102
  585SOL    HW1 1754   2.032   2.577   2.852 -1.5759  0.1344 -2.2009
  585SOL    HW2 1755   1.934   2.702   2.917 -3.3736  0.7727 -0.1613
  586SOL     OW 1756   2.919   0.389   1.568  0.3759  0.3769 -0.1951
  586SOL    HW1 1757   2.904   0.475   1.620  1.1285 -0.9450 -3.9684
  586SOL    HW2 1758   2.835   0.320   1.581 -1.3516 -0.9549 -0.2873
  587SOL     OW 1759   2.180   1.483   2.784  0.3702 -0.0827  0.0615
  587SOL    HW1 1760   2.192   1.426   2.695  2.0568 -1.0566 -2.7553
  587SOL    HW2 1761   2.265   1.541   2.804  0.0550  2.5229 -0.9935
  588SOL     OW 1762   0.461   2.645   2.284 -0.3182  0.3950  0.3164
  588SOL    HW1 1763   0.438   2.693   2.199  0.1964 -0.6059  3.2801
  588SOL    HW2 1764   0.407   2.554   2.289 -2.6410 -1.4692 -0.0025
  589SOL     OW 1765   2.167   1.394   2.514 -0.1435  0.1178 -0.0271
  589SOL    HW1 1766   2.101   1.357   2.437  0.1497  0.2509 -2.1586
  589SOL    HW2 1767   2.258   1.343   2.518 -0.4624 -0.3507 -0.5424
  590SOL     OW 1768   2.336   1.684   2.069  0.5154 -0.6116 -0.4579
  590SOL    HW1 1769   2.415   1.617   2.058  0.7723  0.5224  1.1351
  590SOL    HW2 1770   2.349   1.733   2.161 -0.5732  1.4473  0.1469
  591SOL     OW 1771   1.321   2.440   0.204 -0.5409 -0.3428  0.4755
  591SOL    HW1 1772   1.358   2.354   0.152 -2.0341  1.3522 -1.2656
  591SOL    HW2 1773   1.325   2.427   0.304 -1.3925 -2.6297  0.4562
  592SOL     OW 1774   1.790   2.366   0.823 -0.1067  0.0540  0.5828
  592SOL    HW1 1775   1.789   2.385   0.720 -2.1081  0.8987 -2.2925
  592SOL    HW2 1776   1.880   2.369   0.872  2.0508  0.1242 -0.5421
  593SOL     OW 1777   0.752   0.308   0.178  0.0607  0.0683 -0.1410
  593SOL    HW1 1778   0.791   0.296   0.083  1.4295  0.8600 -0.5831
  593SOL    HW2 1779   0.717   0.407   0.195  1.7949 -0.0676  0.7055
  594SOL     OW 1780   1.052   1.805   2.662 -0.6490  0.3624 -0.0522
  594SOL    HW1 1781   1.145   1.818   2.632 -1.1965  2.7449 -1.3151
  594SOL    HW2 1782   1.037   1.834   2.758  0.1801  1.2578 -1.3944
  595SOL     OW 1783   1.551   0.152   1.004  0.3038 -0.0508  0.2285
  595SOL    HW1 1784   1.620   0.077   0.991  1.5060 -0.7638  2.0960
  595SOL    HW2 1785   1.457   0.137   0.966  1.2200  1.1026 -1.3789
  596SOL     OW 1786   0.184   1.437   2.178  0.2633  0.0414 -0.3562
  596SOL    HW1 1787   0.109   1.364   2.192  1.8120  1.2615  0.2151
  596SOL    HW2 1788   0.191   1.506   2.260 -2.0834  2.3738  1.0119
  597SOL     OW 1789   1.995   2.686   1.832 -0.0121 -0.0488  0.0948
  597SOL    HW1 1790   1.949   2.661   1.742  2.2586  0.9299  0.1103
  597SOL    HW2 1791   2.080   2.633   1.849 -1.1072 -1.2538  2.6373
  598SOL     OW 1792   2.486   2.785   1.269 -0.0833 -0.6421 -0.4394
  598SOL    HW1 1793   2.591   2.785   1.278  0.5632 -2.4253  0.2748
  598SOL    HW2 1794   2.447   2.693   1.239 -1.2583 -0.5262 -1.8758
  599SOL     OW 1795   2.896   0.273   2.522 -0.4173  0.6688  0.3836
  599SOL    HW1 1796   2.985   0.301   2.469 -0.6762 -0.7602 -1.8465
  599SOL    HW2 1797   2.810   0.334   2.510  0.1098 -2.0599 -0.4817
  600SOL     OW 1798   2.756   1.190   2.755 -0.5867  0.6785  0.2732
  600SOL    HW1 1799   2.736   1.118   2.826 -0.4916 -0.7440  0.3720
  600SOL    HW2 1800   2.775   1.282   2.802  1.3501  0.3061 -2.2389
  601SOL     OW 1801   3.004   1.373   1.903 -0.1516 -0.2050 -0.3563
  601SOL    HW1 1802   2.927   1.422   1.859  1.8629  0.9931 -2.3235
  601SOL    HW2 1803   3.095   1.426   1.899 -1.1102  0.1598  0.3396
  602SOL     OW 1804   1.508   1.552   2.330 -0.3718  0.0092 -0.1449
  602SOL    HW1 1805   1.434   1.539   2.406  0.4264  0.0468  2.9141
  602SOL    HW2 1806   1.597   1.588   2.368 -2.3961  3.1416 -0.9402
  603SOL     OW 1807   0.570   1.177   2.731 -0.3415 -0.1783  0.3777
  603SOL    HW1 1808   0.513   1.216   2.651  2.5777  1.7443 -2.6760
  603SOL    HW2 1809   0.584   1.074   2.715 -1.5312  0.7692  0.1697
  604SOL     OW 1810   2.532   1.054   0.246 -0.2274 -0.3237  0.2948
  604SOL    HW1 1811   2.623   1.104   0.224  1.2747 -0.7392  3.2281
  604SOL    HW2 1812   2.496   0.992   0.167 -0.3514 -2.9705  0.7248
  605SOL     OW 1813   2.599   1.200   1.902 -0.1091  0.2738  0.1827
  605SOL    HW1 1814   2.622   1.106   1.866  1.3918 -0.0395 -0.6271
  605SOL    HW2 1815   2.641   1.215   1.995  0.3590  0.8958  1.4323
  606SOL     OW 1816   1.516   2.453   2.587  0.0405  0.0310  0.5402
  606SOL    HW1 1817   1.465   2.547   2.585  0.9752 -0.1760  1.3534
  606SOL    HW2 1818   1.473   2.375   2.533 -0.7779 -1.5632 -0.4767
  607SOL     OW 1819   1.292   1.583   0.299 -0.0805 -0.1676  0.2238
  607SOL    HW1 1820   1.215   1.648   0.324 -2.9255  0.2781 -1.7252
  607SOL    HW2 1821   1.374   1.646   0.278  0.0202  2.3936  0.0400
  608SOL     OW 1822   1.445   2.801   0.320  0.1087  0.5082 -0.2840
  608SOL    HW1 1823   1.513   2.844   0.253  1.7838  2.8634  0.0116
  608SOL    HW2 1824   1.381   2.868   0.368 -0.3704 -0.0889 -0.5175
  609SOL     OW 1825   1.295   1.288   0.185  0.0918 -0.0948  0.1285
  609SOL    HW1 1826   1.292   1.383   0.228  0.1936 -1.6550 -1.2650
  609SOL    HW2 1827   1.231   1.283   0.105  0.2985 -3.8687 -1.4062
  610SOL     OW 1828   3.074   1.249   2.161  0.1672  0.2314 -0.6785
  610SOL    HW1 1829   3.014   1.164   2.162  2.5510 -0.8866  2.8423
  610SOL    HW2 1830   3.068   1.307   2.076  1.5227 -2.4136  1.3145
  611SOL     OW 1831   2.543   0.194   1.170 -0.2075  0.6261 -0.4273
  611SOL    HW1 1832   2.485   0.112   1.199 -1.0527 -1.0796  0.0498
  611SOL    HW2 1833   2.641   0.190   1.205  0.9046  1.4595  1.8193
  612SOL     OW 1834   0.756   2.370   1.226 -0.0054  0.3871 -0.2297
  612SOL    HW1 1835   0.679   2.307   1.258 -0.3975  1.5428 -0.3733
  612SOL    HW2 1836   0.717   2.466   1.219 -3.2383 -1.2950  1.7897
  613SOL     OW 1837   0.773   1.373   2.379  0.0882 -0.2925 -0.1586
  613SOL    HW1 1838   0.822   1.446   2.322 -1.1955 -0.0093  0.1503
  613SOL    HW2 1839   0.770   1.277   2.337 -1.4816  0.2777  0.7291
  614SOL     OW 1840   1.504   1.664   1.951  0.2851  0.4232  0.0225
  614SOL    HW1 1841   1.486   1.731   1.868  2.0230  1.3196  0.1047
  614SOL    HW2 1842   1.600   1.678   1.985 -1.0377  0.0735 -3.2445
  615SOL     OW 1843   0.696   1.467   1.722  0.1535 -0.2803  0.3255
  615SOL    HW1 1844   0.654   1.380   1.685 -1.1163  2.6137  0.3053
  615SOL    HW2 1845   0.762   1.512   1.649  2.1577  0.0462 -1.5849
  616SOL     OW 1846   1.125   1.606   2.196  0.1356  0.2408  0.0549
  616SOL    HW1 1847   1.027   1.583   2.210  0.8756  1.5577  2.6002
  616SOL    HW2 1848   1.157   1.614   2.095 -1.9484 -0.8709 -0.9519
  617SOL     OW 1849   2.909   1.570   1.606 -0.3576  0.4234 -0.4443
  617SOL    HW1 1850   2.858   1.522   1.684 -3.4526 -0.9599 -0.2942
  617SOL    HW2 1851   2.951   1.505   1.537 -1.1865  0.8864 -0.8917
  618SOL     OW 1852   1.887   2.006   1.479 -0.0797  0.2265  0.3660
  618SOL    HW1 1853   1.970   2.000   1.422 -1.4310 -0.5691  0.9360
  618SOL    HW2 1854   1.873   1.920   1.542 -1.4838 -4.0900 -0.6533
  619SOL     OW 1855   1.790   0.513   2.393  0.2445  0.4191  0.4467
  619SOL    HW1 1856   1.717   0.563   2.336 -1.0719 -1.2784 -0.5143
  619SOL    HW2 1857   1.767   0.409   2.401 -0.7512 -2.3358 -0.9077
  620SOL     OW 1858   2.241   2.912   0.663  0.1332 -0.0157 -0.7981
  620SOL    HW1 1859   2.152   2.963   0.642  0.0369 -1.3901 -0.3652
  620SOL    HW2 1860   2.257   2.892   0.767  0.7824 -3.8820  0.6231
  621SOL     OW 1861   2.135   1.855   1.354  0.0187  0.0586  0.1770
  621SOL    HW1 1862   2.140   1.838   1.452 -0.5673 -1.0840 -0.9070
  621SOL    HW2 1863   2.159   1.779   1.289 -0.2219  2.2413  1.2223
  622SOL     OW 1864   2.259   0.963   1.829 -0.0317 -0.3012 -0.5893
  622SOL    HW1 1865   2.302   0.866   1.818  1.4899 -0.8622  1.4847
  622SOL    HW2 1866   2.165   0.970   1.880  1.4691 -0.6735 -2.6446
  623SOL     OW 1867   1.271   0.928   2.584 -0.1116 -0.5341 -0.0002
  623SOL    HW1 1868   1.227   0.856   2.647  3.3211 -0.0476  3.2046
  623SOL    HW2 1869   1.205   0.957   2.511 -0.5804  0.5105 -1.1167
  624SOL     OW 1870   0.549   0.695   3.064  0.4002 -0.2217  0.2303
  624SOL    HW1 1871   0.617   0.744   2.992  0.4598  0.1672 -2.2160
  624SOL    HW2 1872   0.526   0.759   3.151 -0.7609 -1.8169  2.2561
  625SOL     OW 1873   2.801   1.779   0.827  0.5259  0.2788 -0.0814
  625SOL    HW1 1874   2.761   1.813   0.915  1.8919 -0.2888 -1.4132
  625SOL    HW2 1875   2.747   1.705   0.779 -0.5819 -0.3374  2.7969
  626SOL     OW 1876   0.407   2.822   2.062  0.4389  0.5030 -0.4338
  626SOL    HW1 1877   0.437   2.916   2.092 -1.1291 -0.1032 -2.8442
  626SOL    HW2 1878   0.328   2.823   1.995  1.4759 -0.0360  0.6179
  627SOL     OW 1879   0.711   1.021   1.527 -0.9252 -0.0753  0.3074
  627SOL    HW1 1880   0.766   0.927   1.544  0.4531 -1.8225  0.5802
  627SOL    HW2 1881   0.773   1.089   1.479 -0.6958 -1.3146  2.4041
  628SOL     OW 1882   2.457   0.109   0.651  0.0511 -0.4175 -0.2286
  628SOL    HW1 1883   2.492   0.022   0.612  2.4583  1.7792  1.0770
  628SOL    HW2 1884   2.356   0.104   0.678 -1.3646  1.7789 -1.5605
  629SOL     OW 1885   1.993   0.960   1.944  0.1625 -0.4233  0.0203
  629SOL    HW1 1886   2.019   0.971   2.045 -1.0521  2.3236  0.0376
  629SOL    HW2 1887   1.945   1.041   1.907  0.3069  0.3009 -1.8057
  630SOL     OW 1888   2.850   2.225   0.757  0.4909  0.6517  0.0141
  630SOL    HW1 1889   2.774   2.275   0.804 -0.4395 -0.3269  0.2211
  630SOL    HW2 1890   2.815   2.132   0.713  0.6828 -4.3982 -0.6068
  631SOL     OW 1891   3.020   0.186   2.133  0.8927  0.4514  0.4695
  631SOL    HW1 1892   3.042   0.246   2.211  0.8364  1.0112 -0.3186
  631SOL    HW2 1893   3.081   0.202   2.052 -0.0276 -0.1889  1.6649
  632SOL     OW 1894   2.413   2.515   0.759  0.0889 -0.7913 -0.5929
  632SOL    HW1 1895   2.479   2.594   0.781 -2.2009  1.6505  0.3629
  632SOL    HW2 1896   2.367   2.539   0.674  1.7097  0.7452  0.2101
  633SOL     OW 1897   1.584   1.249   2.709 -0.9688 -0.2440  0.4672
  633SOL    HW1 1898   1.558   1.325   2.774 -1.4290 -1.1245  0.2178
  633SOL    HW2 1899   1.509   1.221   2.641  1.0539  1.2599 -2.0605
  634SOL     OW 1900   0.679   2.069   0.908  0.5293 -0.6609 -0.4305
  634SOL    HW1 1901   0.578   2.088   0.936  1.6723  0.6724 -0.0902
  634SOL    HW2 1902   0.742   2.135   0.950 -0.4850 -2.5480 -0.0690
  635SOL     OW 1903   0.030   2.231   3.042 -0.4512  0.2384 -0.2569
  635SOL    HW1 1904  -0.065   2.252   3.011 -1.4823 -2.1539  0.8454
  635SOL    HW2 1905   0.060   2.299   3.115  0.5266  3.5168  0.2798
  636SOL     OW 1906   2.342   2.841   1.999  0.3022 -0.0596 -0.5079
  636SOL    HW1 1907   2.321   2.939   2.014  1.7271 -0.9975 -2.0648
  636SOL    HW2 1908   2.299   2.786   2.076  0.0847 -1.3294  1.3131
  637SOL     OW 1909   2.570   0.741   2.110 -0.4473  0.3610  0.3411
  637SOL    HW1 1910   2.534   0.716   2.016  1.7399 -1.5498  0.4203
  637SOL    HW2 1911   2.616   0.836   2.109 -1.6534 -1.5278  2.5901
  638SOL     OW 1912   2.421   1.935   1.398  0.1935  0.2884 -0.4356
  638SOL    HW1 1913   2.317   1.919   1.385 -1.6836  2.8975  0.1346
  638SOL    HW2 1914   2.473   1.853   1.426  1.0695 -1.3822 -1.0829
  639SOL     OW 1915   1.287   2.233   1.574 -0.2625 -0.2165 -0.5326
  639SOL    HW1 1916   1.287   2.153   1.507  0.0815  0.3317 -0.3870
  639SOL    HW2 1917   1.228   2.214   1.658  2.1377 -1.5041  2.8511
  640SOL     OW 1918   0.255   1.180   1.556 -0.4149 -0.5737 -0.6192
  640SOL    HW1 1919   0.274   1.233   1.643 -2.5435 -0.6517 -0.7202
  640SOL    HW2 1920   0.333   1.122   1.520  2.8834 -0.8584  1.2148
  641SOL     OW 1921   1.878   0.275   1.416 -0.2228  0.3675 -0.2340
  641SOL    HW1 1922   1.814   0.349   1.456  1.6019 -0.9829  0.7177
  641SOL    HW2 1923   1.884   0.196   1.473  0.6201  2.3063  0.0218
  642SOL     OW 1924   2.003   0.121   0.342  0.0679 -0.0842  0.4590
  642SOL    HW1 1925   2.102   0.090   0.354 -2.0414 -0.1799 -0.0923
  642SOL    HW2 1926   1.956   0.150   0.431 -2.5726  3.0377  1.1086
  643SOL     OW 1927   2.816   1.871   2.137  0.9439  0.1121  0.1240
  643SOL    HW1 1928   2.783   1.793   2.076 -0.5214 -0.2925 -0.2088
  643SOL    HW2 1929   2.818   1.958   2.075  1.8382  0.5170 -1.2434
  644SOL     OW 1930   2.218   2.295   1.222  0.5227  0.3390 -0.7916
  644SOL    HW1 1931   2.289   2.227   1.186  0.2419 -0.2875 -1.2938
  644SOL    HW2 1932   2.194   2.271   1.325 -0.2561  1.1660  0.5805
  645SOL     OW 1933   0.666   0.839   1.092 -0.1987  0.4734  0.3340
  645SOL    HW1 1934   0.633   0.762   1.034  1.4001  1.6009 -1.6056
  645SOL    HW2 1935   0.657   0.932   1.053 -0.5716 -0.8682 -2.4623
  646SOL     OW 1936   1.449   1.896   1.812 -0.3770 -0.2626  0.0110
  646SOL    HW1 1937   1.540   1.955   1.807  0.4799  0.3315 -0.1231
  646SOL    HW2 1938   1.388   1.942   1.886  0.7056  2.4198 -0.3436
  647SOL     OW 1939   0.882   0.894   0.681 -0.3388 -0.5341 -0.4012
  647SOL    HW1 1940   0.931   0.934   0.766 -0.3957  1.2045  1.5555
  647SOL    HW2 1941   0.778   0.907   0.692  0.2994  0.2322  0.3969
  648SOL     OW 1942   0.034   0.219   0.323 -0.4777 -0.2597 -0.2808
  648SOL    HW1 1943  -0.018   0.128   0.298  0.7526 -0.3223 -1.2871
  648SOL    HW2 1944   0.029   0.287   0.249 -1.1396 -0.9638  3.3166
  649SOL     OW 1945   0.004   0.039   0.957  0.4834  0.5137  0.4939
  649SOL    HW1 1946   0.096  -0.006   0.932  1.2438 -3.3400 -0.2080
  649SOL    HW2 1947   0.002   0.090   1.045 -0.8611 -0.9816  1.5121
  650SOL     OW 1948   2.740   0.718   1.462 -0.2705  0.0495  0.0671
  650SOL    HW1 1949   2.644   0.698   1.496 -1.7585 -0.0491 -1.5328
  650SOL    HW2 1950   2.751   0.781   1.381 -1.6456 -0.8221 -2.0698
  651SOL     OW 1951   0.878   1.604   1.484 -0.3205 -0.1189 -0.5174
  651SOL    HW1 1952   0.956   1.657   1.534  0.5622  0.9696  2.2057
  651SOL    HW2 1953   0.818   1.665   1.421  1.4783 -4.4395 -1.9512
  652SOL     OW 1954   2.277   2.516   2.357 -0.5221 -0.3346  0.3966
  652SOL    HW1 1955   2.203   2.503   2.426 -3.0260  0.2755 -2.6945
  652SOL    HW2 1956   2.259   2.600   2.290 -2.0821  2.7942 -1.4792
  653SOL     OW 1957   2.782   1.148   0.205  0.2381 -0.4094 -0.5625
  653SOL    HW1 1958   2.838   1.231   0.182  0.6778  2.5649 -1.2741
  653SOL    HW2 1959   2.832   1.075   0.263 -1.1749  0.4206  0.5096
  654SOL     OW 1960   1.193   2.226   1.233  0.1353 -0.0156 -0.4846
  654SOL    HW1 1961   1.224   2.152   1.300  1.1034 -0.5631 -0.5452
  654SOL    HW2 1962   1.241   2.205   1.144  2.5050 -1.5916  0.9112
  655SOL     OW 1963   0.232   1.054   1.920 -0.3731 -0.0377 -0.0512
  655SOL    HW1 1964   0.232   0.979   1.856  2.4105 -1.1160 -1.1151
  655SOL    HW2 1965   0.322   1.104   1.918 -0.6855 -1.2054  1.9684
  656SOL     OW 1966   2.487   2.407   2.588 -0.4733  0.1431  0.0527
  656SOL    HW1 1967   2.583   2.447   2.556 -0.0647 -0.6138  2.0455
  656SOL    HW2 1968   2.412   2.426   2.515 -0.2683 -1.5539 -1.3997
  657SOL     OW 1969   3.044   1.100   1.876  0.1439 -0.2309  0.0092
  657SOL    HW1 1970   3.030   1.205   1.886  0.9936  0.0024 -2.0913
  657SOL    HW2 1971   3.145   1.078   1.874 -0.8883 -0.1469  0.5001
  658SOL     OW 1972   1.707   0.270   2.379  0.4150  0.2796 -0.0683
  658SOL    HW1 1973   1.700   0.180   2.432 -0.6229 -3.9223  1.5892
  658SOL    HW2 1974   1.746   0.248   2.281 -0.6711 -3.0742  1.0431
  659SOL     OW 1975   1.405   0.623   2.826 -0.2090  0.1752 -0.0188
  659SOL    HW1 1976   1.491   0.678   2.822  0.1369 -0.9249 -1.6076
  659SOL    HW2 1977   1.331   0.672   2.769  0.9992  0.8285 -1.7752
  660SOL     OW 1978   1.362   0.414   1.420 -0.1319 -0.4343  0.6075
  660SOL    HW1 1979   1.421   0.421   1.510 -0.5255 -1.1054  2.2188
  660SOL    HW2 1980   1.403   0.354   1.348  0.4382 -1.1039 -0.0229
  661SOL     OW 1981   2.439   1.117   0.671 -0.0607  0.1463 -0.4282
  661SOL    HW1 1982   2.474   1.035   0.615  0.9955  1.3147 -0.5172
  661SOL    HW2 1983   2.405   1.196   0.609 -3.6744 -0.1622  1.1900
  662SOL     OW 1984   1.275   0.452   1.846  0.3345 -0.3678 -0.1433
  662SOL    HW1 1985   1.220   0.376   1.878  0.8394  0.3812 -0.1481
  662SOL    HW2 1986   1.273   0.515   1.927  2.2650 -1.4038  1.3821
  663SOL     OW 1987   0.855   1.568   2.207 -0.7833  0.0513 -0.3845
  663SOL    HW1 1988   0.802   1.650   2.233  0.5682  1.8425 -0.2049
  663SOL    HW2 1989   0.812   1.523   2.121 -2.8828 -3.7789 -3.3612
  664SOL     OW 1990   1.649   2.064   1.388 -0.3681  0.1216  0.4084
  664SOL    HW1 1991   1.573   2.004   1.431 -1.9456  0.0579 -0.4154
  664SOL    HW2 1992   1.744   2.035   1.418 -1.6093 -1.2998  0.9458
  665SOL     OW 1993   2.286   0.615   1.981 -0.4130 -0.4922  0.0998
  665SOL    HW1 1994   2.304   0.529   2.041 -1.8237  0.6987 -0.3491
  665SOL    HW2 1995   2.195   0.659   2.015 -0.7910 -0.2649 -1.9912
  666SOL     OW 1996   0.497   2.288   0.469  0.7815  0.0844  0.1546
  666SOL    HW1 1997   0.527   2.391   0.461 -1.3480  1.6672 -0.7374
  666SOL    HW2 1998   0.464   2.261   0.561  1.9782 -2.4429 -0.7863
  667SOL     OW 1999   2.085   0.219   1.003  0.3910  0.4575 -0.6076
  667SOL    HW1 2000   2.151   0.289   1.032 -0.9306 -0.2880 -1.7740
  667SOL    HW2 2001   1.997   0.233   1.060 -0.5180 -0.1303  2.5798
  668SOL     OW 2002   2.062   0.638   1.283  0.5286 -0.4581 -0.1037
  668SOL    HW1 2003   2.102   0.571   1.217  0.2753 -1.5622  1.7654
  668SOL    HW2 2004   2.058   0.597   1.380  1.4138 -0.6883  2.0467
  669SOL     OW 2005   3.044   2.185   0.969  0.6870  0.8779 -0.0569
  669SOL    HW1 2006   2.972   2.182   0.888 -2.4517  1.3245  0.6486
  669SOL    HW2 2007   2.999   2.201   1.063 -0.0743  2.6652 -1.6400
  670SOL     OW 2008   2.793   2.351   2.016  0.5019  0.2703  0.3088
  670SOL    HW1 2009   2.744   2.344   2.108 -2.0880  0.2316 -0.6741
  670SOL    HW2 2010   2.769   2.444   1.965 -1.6895  0.2652 -2.5279
  671SOL     OW 2011   1.693   1.746   1.462 -0.0857  0.3909 -0.6239
  671SOL    HW1 2012   1.700   1.748   1.363 -1.7301  2.0220  1.1406
  671SOL    HW2 2013   1.594   1.760   1.486 -2.0298  0.6900 -1.0581
  672SOL     OW 2014   0.397   0.684   2.451 -0.4581 -0.0171 -0.4304
  672SOL    HW1 2015   0.418   0.675   2.352  0.9355 -1.2440 -2.0130
  672SOL    HW2 2016   0.318   0.755   2.462  1.6031  3.1237  1.0752
  673SOL     OW 2017   0.133   1.249   1.075 -0.4126 -0.1511  0.3217
  673SOL    HW1 2018   0.149   1.295   1.167 -0.8463  0.6538  1.6963
  673SOL    HW2 2019   0.223   1.204   1.036  1.2519  2.1565 -1.3489
  674SOL     OW 2020   1.604   2.919   0.149  0.3068  0.5802  0.0601
  674SOL    HW1 2021   1.584   3.017   0.116 -1.2171  1.1192 -0.9726
  674SOL    HW2 2022   1.681   2.874   0.096 -2.3986 -0.0571  0.9334
  675SOL     OW 2023   1.734   0.873   2.333  0.0510 -0.0354  0.4868
  675SOL    HW1 2024   1.830   0.834   2.346 -1.2645 -0.6968 -4.1874
  675SOL    HW2 2025   1.681   0.802   2.283 -0.4640  0.9261 -1.0306
  676SOL     OW 2026   2.534   1.519   2.019  0.1597 -0.6231 -0.4396
  676SOL    HW1 2027   2.527   1.487   1.920 -0.3287  1.8362 -1.6922
  676SOL    HW2 2028   2.600   1.459   2.076  0.0110 -1.6189  1.7110
  677SOL     OW 2029   1.946   0.557   0.925 -0.3347  0.1071  0.5430
  677SOL    HW1 2030   1.917   0.658   0.940  1.6732 -0.3357 -0.5349
  677SOL    HW2 2031   1.892   0.486   0.970  3.1058  0.6893  0.1925
  678SOL     OW 2032   0.079   0.750   1.663 -0.1930 -0.5875  0.4459
  678SOL    HW1 2033   0.173   0.790   1.686  0.6676 -0.7162  1.2573
  678SOL    HW2 2034   0.000   0.790   1.722 -0.1350  1.4925  1.0624
  679SOL     OW 2035   2.452   1.165   1.142  0.4749 -0.1081  0.1529
  679SOL    HW1 2036   2.351   1.184   1.128  0.5232  0.2251 -0.9524
  679SOL    HW2 2037   2.475   1.063   1.128 -1.7771  1.3302  0.1675
  680SOL     OW 2038   2.862   0.649   1.692 -0.3015 -0.1938 -0.0433
  680SOL    HW1 2039   2.799   0.673   1.609  1.6888  1.5000  0.5293
  680SOL    HW2 2040   2.887   0.728   1.755  2.2113 -0.8781 -1.8750
  681SOL     OW 2041   3.055   0.157   1.643 -0.0209  0.1281 -0.4902
  681SOL    HW1 2042   3.128   0.129   1.572  0.7519  0.8639 -2.2724
  681SOL    HW2 2043   3.008   0.246   1.621 -1.4361 -1.0032  1.2304
  682SOL     OW 2044   0.720   3.083   1.343  0.0328 -0.3641  0.2370
  682SOL    HW1 2045   0.642   3.024   1.378  2.1953  3.6557  2.1845
  682SOL    HW2 2046   0.740   3.066   1.242  1.1732 -0.0321  1.2675
  683SOL     OW 2047   1.423   0.223   2.230 -0.0682 -0.5057  0.3262
  683SOL    HW1 2048   1.430   0.301   2.299  1.2830 -1.7840  1.3017
  683SOL    HW2 2049   1.497   0.231   2.153 -0.4522  0.3616 -0.9487
  684SOL     OW 2050   1.440   2.138   0.485  0.8297  0.0922  0.4695
  684SOL    HW1 2051   1.509   2.085   0.543  0.6096  1.4079  1.2091
  684SOL    HW2 2052   1.360   2.078   0.456  1.1307  0.1042 -0.1338
  685SOL     OW 2053   2.136   1.910   1.996 -0.5814 -0.0534  0.2675
  685SOL    HW1 2054   2.180   1.999   1.969 -1.1140 -0.2149  1.5012
  685SOL    HW2 2055   2.200   1.849   2.047 -0.2028  1.0027  1.1146
  686SOL     OW 2056   1.529   1.714   2.758 -0.4973  0.1694 -0.5059
  686SOL    HW1 2057   1.524   1.613   2.754 -2.1429 -1.6633  0.4677
  686SOL    HW2 2058   1.530   1.752   2.852  3.1079  0.6108 -2.5513
  687SOL     OW 2059   1.338   2.496   1.910 -0.6351  0.1609  0.2694
  687SOL    HW1 2060   1.377   2.447   1.824 -0.7928 -2.2010 -1.0718
  687SOL    HW2 2061   1.386   2.481   2.000 -0.0100  1.2688  1.3364
  688SOL     OW 2062   2.049   1.525   1.579 -0.9226  0.3061  0.1951
  688SOL    HW1 2063   2.147   1.555   1.560 -0.5645 -0.5862 -1.1583
  688SOL    HW2 2064   2.004   1.488   1.492  0.8003 -0.0256 -3.0020
  689SOL     OW 2065   2.480   1.069   2.731  0.5070  0.2580  0.6734
  689SOL    HW1 2066   2.384   1.068   2.770 -0.9511 -1.3600  2.2452
  689SOL    HW2 2067   2.539   1.030   2.806 -0.2531 -0.6103 -0.4988
  690SOL     OW 2068   2.247   2.786   3.024 -0.0868  0.2657 -0.0722
  690SOL    HW1 2069   2.167   2.745   2.976  0.6929  0.6099 -3.1725
  690SOL    HW2 2070   2.233   2.822   3.120  0.5608  0.2200 -1.2340
  691SOL     OW 2071   2.602   0.448   2.137  0.1367  0.0469 -0.5997
  691SOL    HW1 2072   2.670   0.392   2.080 -0.3143  0.1765 -0.8986
  691SOL    HW2 2073   2.631   0.549   2.140  0.3948 -0.3827 -0.5017
  692SOL     OW 2074   2.724   1.240   0.653  0.3956 -0.3514  0.2198
  692SOL    HW1 2075   2.627   1.215   0.683 -0.4465 -1.2062 -0.0792
  692SOL    HW2 2076   2.770   1.298   0.721 -0.6342 -2.0239 -2.1172
  693SOL     OW 2077   2.812   2.957   0.633 -0.0129 -0.2847  0.2827
  693SOL    HW1 2078   2.836   3.047   0.677  0.2968 -1.2180 -2.4464
  693SOL    HW2 2079   2.759   2.972   0.543  1.0423  0.1783  0.6354
  694SOL     OW 2080   2.408   2.162   0.060 -0.0383  0.3387  0.1912
  694SOL    HW1 2081   2.382   2.256   0.090 -1.1814 -1.2470 -1.1752
  694SOL    HW2 2082   2.324   2.093   0.041 -2.3728  1.6513 -4.9332
  695SOL     OW 2083   0.541   2.895   1.475 -0.2922  0.0973 -0.0404
  695SOL    HW1 2084   0.472   2.820   1.477  0.5033  0.8613 -1.7317
  695SOL    HW2 2085   0.532   2.957   1.561  1.1863 -2.5942 -0.3931
  696SOL     OW 2086   2.731   1.987   0.657 -0.1400  0.1745 -0.1219
  696SOL    HW1 2087   2.762   1.906   0.717 -2.2672  1.6171  2.5107
  696SOL    HW2 2088   2.712   1.952   0.559  0.8076 -2.0065  0.1386
  697SOL     OW 2089   1.682   2.038   1.738  0.5710  0.2711  0.5102
  697SOL    HW1 2090   1.759   2.019   1.803 -0.9080  2.0717 -0.1742
  697SOL    HW2 2091   1.716   2.086   1.655  1.2880 -1.4256 -0.3737
  698SOL     OW 2092   2.937   0.338   2.802  0.4983 -0.1001 -0.2254
  698SOL    HW1 2093   2.913   0.304   2.705 -1.5816  1.3993 -2.2056
  698SOL    HW2 2094   3.021   0.307   2.846  1.4515 -1.3488 -0.4390
  699SOL     OW 2095   1.536   0.128   2.931  0.1940 -0.4859 -0.1083
  699SOL    HW1 2096   1.490   0.041   2.901  0.1017  2.6985 -2.0008
  699SOL    HW2 2097   1.579   0.182   2.852  2.4500 -0.2806  1.0918
  700SOL     OW 2098   1.005   2.429   1.363 -0.5162  0.4074 -0.4479
  700SOL    HW1 2099   1.092   2.377   1.336  1.0897  0.0653 -0.8126
  700SOL    HW2 2100   0.926   2.416   1.300  2.7401 -1.2948 -0.2641
  701SOL     OW 2101   1.818   2.859   0.013 -0.2394  0.6038 -0.5112
  701SOL    HW1 2102   1.843   2.771   0.067  0.2432  0.8906 -0.5750
  701SOL    HW2 2103   1.849   2.946   0.061 -0.8608  0.6802  0.2505
  702SOL     OW 2104   2.092   1.353   1.815  0.1087 -0.0034 -0.5095
  702SOL    HW1 2105   2.181   1.294   1.813  0.5568 -2.4780  0.0699
  702SOL    HW2 2106   2.061   1.394   1.728 -0.2676  0.9226  2.1622
  703SOL     OW 2107   1.964   0.901   1.481 -0.2243  0.6222 -0.0649
  703SOL    HW1 2108   1.959   0.820   1.549  1.1429 -0.5258 -1.3743
  703SOL    HW2 2109   2.032   0.976   1.505  0.2083  0.4908 -1.2474
  704SOL     OW 2110   0.281   2.068   1.794  0.0350 -0.1992  0.0976
  704SOL    HW1 2111   0.329   1.994   1.856 -2.4287 -3.6345 -2.3041
  704SOL    HW2 2112   0.344   2.148   1.779 -0.1000  1.1566 -0.6708
  705SOL     OW 2113   2.548   1.421   0.861  0.1356  0.0291  0.1667
  705SOL    HW1 2114   2.473   1.396   0.927  1.1109 -0.1020  0.9788
  705SOL    HW2 2115   2.642   1.397   0.896 -1.9876 -0.5659  2.5328
  706SOL     OW 2116   0.642   1.758   1.887 -0.1649  0.3272 -0.1208
  706SOL    HW1 2117   0.637   1.658   1.897 -1.2773  2.3192 -3.4653
  706SOL    HW2 2118   0.729   1.800   1.927 -1.1250  2.0222 -1.3838
  707SOL     OW 2119   2.340   1.217   1.830  0.1657 -0.2372 -1.3133
  707SOL    HW1 2120   2.434   1.232   1.870  1.6007  0.4880 -0.9375
  707SOL    HW2 2121   2.318   1.117   1.833  2.8418 -0.7861 -4.0540
  708SOL     OW 2122   3.041   0.519   3.035  0.0597 -0.4202  0.2421
  708SOL    HW1 2123   3.078   0.572   2.954 -2.3102 -2.3952  4.3135
  708SOL    HW2 2124   3.070   0.419   3.037 -0.3777  2.8817  2.5615
  709SOL     OW 2125   1.758   1.832   0.208 -0.0428 -0.1574  0.4813
  709SOL    HW1 2126   1.795   1.923   0.251  1.0783 -1.7073  0.0839
  709SOL    HW2 2127   1.793   1.825   0.111  1.6636 -0.2594 -0.7789
  710SOL     OW 2128   1.766   1.672   2.454 -0.4913  0.3895  0.3514
  710SOL    HW1 2129   1.810   1.632   2.372 -0.6995  0.0026 -1.2211
  710SOL    HW2 2130   1.792   1.612   2.533  4.2520 -0.7411 -2.6804
  711SOL     OW 2131   2.622   2.917   0.970 -0.2042  0.7706  0.1710
  711SOL    HW1 2132   2.603   3.012   0.938 -1.8761 -1.7888 -2.1047
  711SOL    HW2 2133   2.719   2.902   0.999  0.5289  3.6720 -1.1482
  712SOL     OW 2134   1.500   2.296   1.742  0.4944  0.6480  0.0919
  712SOL    HW1 2135   1.559   2.214   1.748 -1.1131 -0.6282  0.7284
  712SOL    HW2 2136   1.414   2.276   1.686  0.2253 -1.4351 -1.2613
  713SOL     OW 2137   2.847   1.321   2.515 -0.4511 -0.5438  0.3165
  713SOL    HW1 2138   2.893   1.255   2.448 -1.8916  1.8455 -0.7009
  713SOL    HW2 2139   2.798   1.276   2.590  0.9824 -1.1163 -1.1346
  714SOL     OW 2140   2.670   0.439   2.455  0.1145  0.2585  0.2284
  714SOL    HW1 2141   2.599   0.400   2.522  2.5901 -1.4431  0.6497
  714SOL    HW2 2142   2.647   0.417   2.356  0.7444 -1.3864  1.5357
  715SOL     OW 2143   1.659   2.074   1.116  0.0255 -0.7609  0.0338
  715SOL    HW1 2144   1.598   2.148   1.083  1.5065 -1.7683 -2.6063
  715SOL    HW2 2145   1.677   2.092   1.220  1.5650  0.5109 -0.4999
  716SOL     OW 2146   1.182   0.209   1.445 -0.1398 -0.0378  0.1868
  716SOL    HW1 2147   1.090   0.229   1.393  1.6142  0.1681 -1.3996
  716SOL    HW2 2148   1.250   0.289   1.443  0.6900 -1.3356  2.6775
  717SOL     OW 2149   1.047   0.566   1.595 -0.2621 -0.7972 -0.0936
  717SOL    HW1 2150   1.142   0.587   1.629 -0.4834 -1.7141  4.9410
  717SOL    HW2 2151   1.046   0.548   1.492  1.2975  0.1661 -0.1974
  718SOL     OW 2152   0.659   1.107   1.003 -0.2161 -0.0126  0.2042
  718SOL    HW1 2153   0.653   1.146   0.904 -0.1268  1.3084 -1.4723
  718SOL    HW2 2154   0.742   1.142   1.054 -0.1751  0.5971  2.7316
  719SOL     OW 2155   0.680   1.816   2.250  0.1496 -0.5061  0.1533
  719SOL    HW1 2156   0.750   1.850   2.320 -1.8717 -0.0566  0.9507
  719SOL    HW2 2157   0.587   1.859   2.263 -2.3890  4.6671  1.2676
  720SOL     OW 2158   2.275   1.153   0.220  0.0558  0.2387 -0.1351
  720SOL    HW1 2159   2.366   1.104   0.219  0.5884  2.9912 -0.7868
  720SOL    HW2 2160   2.232   1.151   0.315 -1.3394  2.5035 -2.1937
  721SOL     OW 2161   2.239   0.009   2.003 -0.0172 -0.3039  0.1960
  721SOL    HW1 2162   2.229   0.092   1.941 -0.0982 -2.0128  0.3406
  721SOL    HW2 2163   2.156  -0.013   2.062  0.2132  0.8971  0.5294
  722SOL     OW 2164   2.405   1.664   0.483  0.5270  0.8531  0.2074
  722SOL    HW1 2165   2.423   1.599   0.402  1.4529 -0.0267 -1.0625
  722SOL    HW2 2166   2.305   1.672   0.511 -0.7340 -2.2267  1.4344
  723SOL     OW 2167   2.616   2.855   1.899  0.1974  0.1210 -0.0379
  723SOL    HW1 2168   2.668   2.861   1.991 -0.0608 -1.3304  1.4256
  723SOL    HW2 2169   2.515   2.836   1.907  2.6293  3.7415 -0.5847
  724SOL     OW 2170   0.297   2.411   2.359  0.4045 -0.2540 -0.3016
  724SOL    HW1 2171   0.212   2.461   2.384  1.2928 -1.4656  2.2677
  724SOL    HW2 2172   0.355   2.405   2.448  0.0646  0.3287 -0.5214
  725SOL     OW 2173   2.301   2.788   1.471  0.5715  0.0345 -0.2761
  725SOL    HW1 2174   2.366   2.786   1.397 -1.2567 -1.1858 -2.1190
  725SOL    HW2 2175   2.302   2.696   1.516 -0.3903 -0.0286  0.9841
  726SOL     OW 2176   2.401   2.241   0.805  0.0300 -0.3542 -0.2589
  726SOL    HW1 2177   2.389   2.340   0.771 -0.0210 -0.8579 -4.4070
  726SOL    HW2 2178   2.378   2.178   0.724 -0.6055 -1.1107  2.6333
  727SOL     OW 2179   0.244   3.088   0.156  0.1480  0.5583 -0.3310
  727SOL    HW1 2180   0.269   2.993   0.119 -1.1879  0.1248  1.8528
  727SOL    HW2 2181   0.270   3.166   0.090 -1.1324 -0.1041 -1.7077
  728SOL     OW 2182   2.828   0.648   1.075 -0.2972  0.3353  0.6771
  728SOL    HW1 2183   2.758   0.629   1.003  0.4200  2.4561 -0.4621
  728SOL    HW2 2184   2.823   0.587   1.160  0.1569 -0.6809 -0.7105
  729SOL     OW 2185   2.971   2.471   0.727  0.2092 -0.0939 -0.0129
  729SOL    HW1 2186   2.932   2.378   0.723 -1.2759 -1.2972 -2.7931
  729SOL    HW2 2187   3.073   2.470   0.745  0.8902 -2.6399 -0.8617
  730SOL     OW 2188   2.622   0.565   0.859  0.1541  0.0278 -0.7879
  730SOL    HW1 2189   2.565   0.641   0.822  1.3518 -0.2964 -1.4553
  730SOL    HW2 2190   2.687   0.515   0.797 -1.3740  1.0064  1.5841
  731SOL     OW 2191   0.120   2.130   2.471  0.5787 -0.1550  0.1880
  731SOL    HW1 2192   0.114   2.135   2.571  1.4110 -0.0324 -0.9707
  731SOL    HW2 2193   0.048   2.185   2.417  2.8829 -0.1795  1.0475
  732SOL     OW 2194   1.152   2.843   2.025  0.0515  0.2837  0.1576
  732SOL    HW1 2195   1.189   2.783   2.104 -0.2622  1.9767  1.9140
  732SOL    HW2 2196   1.169   2.800   1.929  2.7238 -2.7991  1.0406
  733SOL     OW 2197   3.034   0.690   2.120 -0.1219  0.0446  0.5316
  733SOL    HW1 2198   3.123   0.748   2.136  0.7826  0.6481 -0.9539
  733SOL    HW2 2199   3.053   0.617   2.047 -1.3734 -1.9188  1.5351
  734SOL     OW 2200   1.381   0.377   2.692 -0.1777 -0.0202 -0.1960
  734SOL    HW1 2201   1.386   0.472   2.728  0.8375 -2.5215 -0.1663
  734SOL    HW2 2202   1.306   0.312   2.734 -2.4425 -2.2889 -1.1514
  735SOL     OW 2203   2.807   2.631   2.291  0.0832 -0.1858  0.0677
  735SOL    HW1 2204   2.721   2.636   2.231 -1.0869  1.9446 -0.6384
  735SOL    HW2 2205   2.892   2.624   2.237 -0.6473 -0.5665 -1.6348
  736SOL     OW 2206   0.801   0.381   2.586  0.0959 -0.0918  0.3579
  736SOL    HW1 2207   0.736   0.461   2.575 -0.7530 -0.8228 -2.6759
  736SOL    HW2 2208   0.831   0.338   2.496  1.7272 -0.4566 -2.2093
  737SOL     OW 2209   2.686   0.468   2.864 -0.5098 -0.1127  0.6498
  737SOL    HW1 2210   2.641   0.451   2.958 -2.2970 -2.3345  1.2567
  737SOL    HW2 2211   2.784   0.429   2.861  2.5305  1.3192 -1.2264
  738SOL     OW 2212   1.651   1.151   3.034  0.7206 -0.3210  0.9337
  738SOL    HW1 2213   1.748   1.134   3.008  0.1479 -1.7910  1.7444
  738SOL    HW2 2214   1.583   1.074   3.023  1.4065  0.5248 -1.8948
  739SOL     OW 2215   1.786   0.537   0.683  0.6095 -0.3833  0.4921
  739SOL    HW1 2216   1.842   0.570   0.762  0.1288 -0.7372 -2.7968
  739SOL    HW2 2217   1.832   0.464   0.625 -0.4996 -1.5380  0.1694
  740SOL     OW 2218   1.900   2.036   2.140  0.0667  0.4361 -0.2172
  740SOL    HW1 2219   1.976   1.991   2.086 -0.0840  0.4107 -0.5527
  740SOL    HW2 2220   1.807   2.034   2.093  1.7763  0.2881  0.6471
  741SOL     OW 2221   2.506   0.069   2.591  0.2506 -0.9150  0.4287
  741SOL    HW1 2222   2.603   0.040   2.571 -0.3853  2.9122  0.6794
  741SOL    HW2 2223   2.466   0.122   2.510 -0.4134  1.4980  1.5939
  742SOL     OW 2224   2.248   1.398   0.060  0.2837 -0.1170  0.5850
  742SOL    HW1 2225   2.156   1.447   0.075  1.1729 -0.2466  2.0933
  742SOL    HW2 2226   2.251   1.308   0.120  2.2147  0.4129  0.9601
  743SOL     OW 2227   1.745   0.646   2.645  0.2728  0.0221 -0.2382
  743SOL    HW1 2228   1.753   0.620   2.544 -0.2050  0.8251 -0.4703
  743SOL    HW2 2229   1.673   0.721   2.655 -1.1944  0.8804  2.0354
  744SOL     OW 2230   2.668   2.081   0.065  0.6718  0.1766  0.6821
  744SOL    HW1 2231   2.572   2.125   0.060 -0.7322 -0.4860  1.4772
  744SOL    HW2 2232   2.688   2.011   0.138 -1.0655 -2.1249  1.2637
  745SOL     OW 2233   2.195   2.727   2.204 -0.0105  0.2589 -0.0550
  745SOL    HW1 2234   2.100   2.707   2.161 -0.7064  2.0738 -1.8848
  745SOL    HW2 2235   2.190   2.778   2.289 -0.2108  1.3282 -0.9252
  746SOL     OW 2236   3.069   2.603   1.826  0.0560  0.3219 -0.2224
  746SOL    HW1 2237   3.170   2.588   1.798  0.9335 -1.3170 -2.6171
  746SOL    HW2 2238   3.045   2.705   1.848 -0.6001  1.2255 -1.7552
  747SOL     OW 2239   0.025   1.791   1.684  0.1892 -0.2524 -0.5537
  747SOL    HW1 2240  -0.039   1.718   1.644 -0.0247  1.2829 -0.6609
  747SOL    HW2 2241   0.080   1.843   1.611 -0.6550  2.4386  0.8934
  748SOL     OW 2242   1.734   2.742   2.869  0.1473 -0.5807 -0.3188
  748SOL    HW1 2243   1.761   2.803   2.951  2.2046  2.6909  0.9312
  748SOL    HW2 2244   1.629   2.735   2.848 -0.6201 -1.5198  0.3837
  749SOL     OW 2245   1.298   0.064   0.900  0.1343 -0.3046  0.0595
  749SOL    HW1 2246   1.252  -0.026   0.917 -0.8112  1.6561 -0.6169
  749SOL    HW2 2247   1.306   0.084   0.797 -0.0355 -1.1790 -1.0717
  750SOL     OW 2248   2.267   0.248   1.872  0.0515 -0.3560  0.6180
  750SOL    HW1 2249   2.316   0.289   1.793 -3.0474  1.7152 -0.1084
  750SOL    HW2 2250   2.289   0.293   1.962 -0.0748 -0.5660 -2.9223
  751SOL     OW 2251   0.849   2.254   2.902  0.1324  0.2549  0.0408
  751SOL    HW1 2252   0.930   2.227   2.961  1.1264  0.3105 -0.7076
  751SOL    HW2 2253   0.780   2.173   2.893 -0.1179  0.4950  3.0456
  752SOL     OW 2254   1.261   0.930   1.523  0.2343 -0.5568 -0.4773
  752SOL    HW1 2255   1.321   0.986   1.460  1.1496 -1.4375 -0.9431
  752SOL    HW2 2256   1.311   0.843   1.547  0.6300 -0.7151  0.8214
  753SOL     OW 2257   0.927   2.612   1.764 -0.2761  0.1288 -0.2444
  753SOL    HW1 2258   0.985   2.665   1.699 -1.3520 -1.0124 -1.1984
  753SOL    HW2 2259   0.849   2.669   1.802  0.1755 -1.1499  2.5075
  754SOL     OW 2260   1.139   1.323   3.024 -0.1642  0.0400  0.5403
  754SOL    HW1 2261   1.161   1.246   2.953 -0.8251  1.1411 -0.1780
  754SOL    HW2 2262   1.152   1.417   2.985 -0.8639  0.8097  1.4939
  755SOL     OW 2263   2.019   0.526   2.230  0.1841 -0.0626  0.7600
  755SOL    HW1 2264   2.082   0.461   2.275 -1.0902 -1.1814 -0.4974
  755SOL    HW2 2265   1.923   0.517   2.275 -1.3352  1.2415  0.3437
  756SOL     OW 2266   2.636   0.961   2.931 -0.1427 -0.0691 -0.6515
  756SOL    HW1 2267   2.708   0.896   2.889  1.8405 -0.4567  0.2753
  756SOL    HW2 2268   2.570   0.912   2.995 -1.7282 -0.2520  1.6419
  757SOL     OW 2269   0.154   0.481   1.718  0.3740 -0.5828 -0.1737
  757SOL    HW1 2270   0.122   0.580   1.698  2.8694  1.4906  2.8278
  757SOL    HW2 2271   0.210   0.446   1.646 -1.4451  1.2359  0.5378
  758SOL     OW 2272   2.501   0.062   1.517  0.3361  0.5051 -0.0134
  758SOL    HW1 2273   2.416   0.087   1.566  1.0410 -1.7867 -1.3363
  758SOL    HW2 2274   2.475   0.016   1.427 -0.0111  1.1087 -0.8062
  759SOL     OW 2275   1.666   0.088   0.078  0.0932 -0.2614 -0.0119
  759SOL    HW1 2276   1.635   0.120  -0.014  0.1106  3.7142  2.3244
  759SOL    HW2 2277   1.761   0.049   0.088  1.0141 -0.4772  0.4286
  760SOL     OW 2278   2.742   1.935   2.771 -0.2736  0.6220 -0.3452
  760SOL    HW1 2279   2.781   1.845   2.734 -2.3785 -3.1911  0.2061
  760SOL    HW2 2280   2.798   2.023   2.759 -0.7967 -0.1440 -2.0890
  761SOL     OW 2281   1.900   1.752   1.620  0.0352 -1.0554  0.3273
  761SOL    HW1 2282   1.949   1.662   1.612 -2.6982  0.9019 -1.1015
  761SOL    HW2 2283   1.809   1.749   1.566  1.1940  0.3811 -1.9844
  762SOL     OW 2284   0.517   2.395   0.993 -0.1700 -0.3732 -0.0010
  762SOL    HW1 2285   0.524   2.420   0.889 -0.1387  0.1059 -1.8102
  762SOL    HW2 2286   0.514   2.476   1.055  0.5550 -0.7018 -1.1530
  763SOL     OW 2287   2.018   1.584   2.967 -0.4728 -0.4316  0.0650
  763SOL    HW1 2288   2.086   1.542   2.900 -1.1920  1.6974  2.2885
  763SOL    HW2 2289   1.947   1.517   3.003 -0.3182  2.3391  0.3574
  764SOL     OW 2290   0.691   0.594   0.845 -0.0649 -0.1141 -0.3186
  764SOL    HW1 2291   0.695   0.539   0.756 -0.3923 -2.0921  0.0416
  764SOL    HW2 2292   0.782   0.581   0.895  0.0138 -0.0264 -0.2675
  765SOL     OW 2293   0.642   0.226   0.797 -0.4711  0.3108  0.1277
  765SOL    HW1 2294   0.719   0.274   0.751 -1.4816 -0.1224 -0.4566
  765SOL    HW2 2295   0.651   0.234   0.902 -0.2351 -0.0938 -0.8353
  766SOL     OW 2296   3.024   1.980   3.028  0.2162 -0.6092 -0.6900
  766SOL    HW1 2297   2.928   1.990   2.986  2.4841 -0.3577 -1.3545
  766SOL    HW2 2298   3.075   2.069   3.048  0.9481 -1.2503  3.7222
  767SOL     OW 2299   2.773   1.569   0.484 -0.7703  0.0082 -0.2370
  767SOL    HW1 2300   2.680   1.585   0.529 -0.6411  0.5600  1.2975
  767SOL    HW2 2301   2.853   1.608   0.541 -1.3326  0.9561 -1.5623
  768SOL     OW 2302   1.049   0.305   0.270  0.2089 -0.4034  0.0862
  768SOL    HW1 2303   0.956   0.262   0.259 -1.3224  0.1716 -0.8649
  768SOL    HW2 2304   1.132   0.239   0.247  1.6283 -2.2753  0.9567
  769SOL     OW 2305   1.297   1.839   2.250  1.0183 -0.2860 -0.0244
  769SOL    HW1 2306   1.381   1.787   2.287 -1.0426 -0.7063 -0.5623
  769SOL    HW2 2307   1.220   1.776   2.227  0.6555 -2.6150 -0.1804
  770SOL     OW 2308   0.179   1.102   2.306  0.2353  0.2767 -0.4648
  770SOL    HW1 2309   0.161   1.159   2.390  1.2993  1.6104  2.3845
  770SOL    HW2 2310   0.123   1.126   2.224  1.6692  0.9913  1.1302
  771SOL     OW 2311   2.963   2.838   1.910  0.0628  0.0071 -0.4274
  771SOL    HW1 2312   2.967   2.890   1.820 -1.8105 -2.7566  2.0724
  771SOL    HW2 2313   2.928   2.891   1.995  0.2766  0.4490  0.8638
  772SOL     OW 2314   2.125   0.068   3.006  0.2142 -0.0454  0.0835
  772SOL    HW1 2315   2.191  -0.010   3.007 -0.0645  1.8035  0.8095
  772SOL    HW2 2316   2.173   0.156   3.037  0.8169 -0.7683 -0.6232
  773SOL     OW 2317   0.732   2.139   2.477  0.0788  0.1498  0.2499
  773SOL    HW1 2318   0.693   2.195   2.400 -3.2093 -3.9348  1.6385
  773SOL    HW2 2319   0.662   2.135   2.557  0.3455  0.9360  0.3058
  774SOL     OW 2320   1.980   0.021   2.670 -0.6267 -0.1976 -0.1151
  774SOL    HW1 2321   1.971   0.111   2.725 -1.2067 -1.3804  1.0354
  774SOL    HW2 2322   2.054  -0.034   2.712  1.4097  0.2972  1.5235
  775SOL     OW 2323   2.512   2.905   2.362 -0.2818  0.1685 -0.7146
  775SOL    HW1 2324   2.476   2.998   2.332 -0.5922  0.9301 -1.9467
  775SOL    HW2 2325   2.595   2.903   2.428 -0.0201  1.5932  2.0788
  776SOL     OW 2326   3.103   1.150   0.259  0.0260 -0.3694 -0.3908
  776SOL    HW1 2327   3.073   1.199   0.173 -1.8040 -1.1220 -0.1709
  776SOL    HW2 2328   3.077   1.201   0.349 -0.3015 -1.9906  1.9355
  777SOL     OW 2329   0.331   2.705   0.403 -0.1305  0.4161  0.2695
  777SOL    HW1 2330   0.230   2.669   0.409 -0.3326 -2.2135 -1.5760
  777SOL    HW2 2331   0.329   2.805   0.431 -0.2244  0.3102 -0.2816
  778SOL     OW 2332   1.336   1.985   0.165 -0.0841  0.3580  0.2581
  778SOL    HW1 2333   1.291   1.999   0.259 -1.3916 -0.6076  0.0129
  778SOL    HW2 2334   1.366   2.072   0.114  0.2716 -1.6123  0.8059
  779SOL     OW 2335   0.162   0.811   0.503 -0.2973 -0.3936 -0.3254
  779SOL    HW1 2336   0.106   0.728   0.479  0.1112 -0.4599 -1.0479
  779SOL    HW2 2337   0.129   0.868   0.581 -0.7653 -3.0783 -0.9926
  780SOL     OW 2338   0.035   0.315   2.362  0.0080  0.1046 -0.1580
  780SOL    HW1 2339  -0.019   0.410   2.359 -0.8507  1.6097 -0.5011
  780SOL    HW2 2340   0.123   0.315   2.306 -0.7882  0.8665 -0.4823
  781SOL     OW 2341   0.552   1.782   1.606 -0.1086  0.0248 -0.0690
  781SOL    HW1 2342   0.570   1.787   1.711  0.1160 -0.0305  1.3817
  781SOL    HW2 2343   0.510   1.691   1.577  3.0135  1.6984 -2.1979
  782SOL     OW 2344   2.646   0.088   0.891 -0.2508 -0.7095  0.1924
  782SOL    HW1 2345   2.587   0.106   0.809 -1.5779 -2.0573  1.4341
  782SOL    HW2 2346   2.605   0.133   0.970 -0.1806 -1.2790 -0.3307
  783SOL     OW 2347   2.817   0.642   2.546  0.3226 -0.3420  0.3583
  783SOL    HW1 2348   2.797   0.692   2.634  0.3471 -3.1518 -0.8473
  783SOL    HW2 2349   2.751   0.563   2.517 -1.4269 -0.0817 -0.1287
  784SOL     OW 2350   1.407   2.206   0.039  0.8573  0.2207 -0.5826
  784SOL    HW1 2351   1.506   2.227   0.069  4.0093  0.5497 -3.0929
  784SOL    HW2 2352   1.395   2.212  -0.065  0.5500  2.4897  2.1174
  785SOL     OW 2353   2.183   0.317   0.024 -0.1145  0.2073 -0.1545
  785SOL    HW1 2354   2.098   0.318   0.079  1.8973 -0.1363  0.8300
  785SOL    HW2 2355   2.218   0.405  -0.013 -0.7115 -0.0314  0.5802
  786SOL     OW 2356   2.077   2.194   2.234  0.0529 -0.2324 -0.0016
  786SOL    HW1 2357   1.997   2.136   2.201  0.4801  1.1655  2.1796
  786SOL    HW2 2358   2.152   2.134   2.268 -2.2820  2.1284 -1.4701
  787SOL     OW 2359   1.377   0.631   0.738 -0.9939 -0.1357 -0.1237
  787SOL    HW1 2360   1.301   0.689   0.692 -0.1313  2.7891 -4.1564
  787SOL    HW2 2361   1.433   0.586   0.670 -0.9442 -0.8245 -3.0910
  788SOL     OW 2362   1.228   0.476   2.970  0.2545  0.1658  0.4167
  788SOL    HW1 2363   1.152   0.539   2.940 -2.2368 -0.4545 -1.3432
  788SOL    HW2 2364   1.322   0.511   2.927  1.5572 -0.5664 -1.4440
  789SOL     OW 2365   2.639   0.062   1.877  0.0174  0.2289  0.5844
  789SOL    HW1 2366   2.551   0.110   1.856 -0.7591  2.5346  1.5161
  789SOL    HW2 2367   2.619  -0.033   1.922 -1.4214  1.6388 -0.9458
  790SOL     OW 2368   2.628   2.671   0.837  0.6858 -0.0287 -0.0966
  790SOL    HW1 2369   2.682   2.681   0.753  2.8674 -0.1602  2.5257
  790SOL    HW2 2370   2.606   2.766   0.875  1.7273 -2.5853  0.2821
  791SOL     OW 2371   1.933   1.181   0.209 -0.5796 -0.3302  0.5010
  791SOL    HW1 2372   1.842   1.143   0.227  1.3632 -0.5080 -2.5643
  791SOL    HW2 2373   2.008   1.109   0.221  2.3899 -1.2894 -0.6080
  792SOL     OW 2374   0.458   1.962   2.241 -0.5751 -0.2141  0.7370
  792SOL    HW1 2375   0.492   2.061   2.231 -0.1063 -0.6294  0.4142
  792SOL    HW2 2376   0.378   1.953   2.306  2.9625 -0.2271  0.4175
  793SOL     OW 2377   2.092   1.521   2.037 -0.2731  0.6922 -0.3060
  793SOL    HW1 2378   2.175   1.573   2.070  2.4138  1.7098 -0.2542
  793SOL    HW2 2379   2.102   1.450   1.954  0.6410 -2.7044 -0.7671
  794SOL     OW 2380   0.567   1.544   2.474  0.5602 -0.0747 -0.0216
  794SOL    HW1 2381   0.623   1.492   2.409 -0.3255 -0.1180 -0.7295
  794SOL    HW2 2382   0.493   1.594   2.421 -1.0337 -1.9466  0.5001
  795SOL     OW 2383   2.450   2.339   1.854 -0.5669  0.7416  0.2351
  795SOL    HW1 2384   2.417   2.375   1.944 -1.4043  0.0973 -2.4429
  795SOL    HW2 2385   2.380   2.271   1.817 -1.5247 -3.6121  1.7142
  796SOL     OW 2386   3.028   1.128   2.721  0.5956  0.4664  0.0306
  796SOL    HW1 2387   2.933   1.159   2.746  1.2415  0.5206  1.1056
  796SOL    HW2 2388   3.094   1.135   2.800 -1.2034  0.2633 -1.3930
  797SOL     OW 2389   0.680   0.605   1.338  0.4139 -1.0464 -0.0136
  797SOL    HW1 2390   0.752   0.675   1.366  0.6920  0.0940 -0.5438
  797SOL    HW2 2391   0.602   0.648   1.277 -0.0413  4.2158 -1.1996
  798SOL     OW 2392   1.210   0.515   0.907  0.6664  0.3150  0.2227
  798SOL    HW1 2393   1.209   0.550   1.002 -1.1180 -0.1783  0.2862
  798SOL    HW2 2394   1.276   0.562   0.840  1.9371  1.4368 -2.2764
  799SOL     OW 2395   1.794   2.710   1.034 -0.1196  0.1980  0.5083
  799SOL    HW1 2396   1.825   2.623   1.080  1.6437 -1.2190 -2.5861
  799SOL    HW2 2397   1.794   2.713   0.931 -2.2359 -0.0732 -0.9476
  800SOL     OW 2398   2.995   0.828   1.862 -0.1881  0.4593 -0.1441
  800SOL    HW1 2399   3.019   0.932   1.863  0.2656  1.7415 -1.2494
  800SOL    HW2 2400   2.988   0.785   1.958 -2.5753 -1.0490  1.3590
  801SOL     OW 2401   1.967   2.227   0.103  0.4082  0.4850  0.2918
  801SOL    HW1 2402   1.935   2.242   0.007  0.5073  1.8703  0.2855
  801SOL    HW2 2403   2.047   2.159   0.102  0.9708  1.3203 -1.3203
  802SOL     OW 2404   0.655   0.659   2.541  1.0007  0.1811 -0.1750
  802SOL    HW1 2405   0.722   0.668   2.459  0.7417 -0.2701 -0.5938
  802SOL    HW2 2406   0.553   0.660   2.510 -0.0735  1.7415  0.4054
  803SOL     OW 2407   0.956   0.116   0.889  0.0847  0.1448 -0.1608
  803SOL    HW1 2408   1.013   0.177   0.945  0.2914 -0.5345  0.0204
  803SOL    HW2 2409   0.929   0.159   0.803 -0.0111 -2.5926  0.0446
  804SOL     OW 2410   0.326   0.032   2.181  0.0421 -0.3432 -0.4463
  804SOL    HW1 2411   0.292   0.124   2.221  0.0554  1.3556  0.0698
  804SOL    HW2 2412   0.256  -0.006   2.110 -1.2714 -3.1415 -0.8891
  805SOL     OW 2413   2.393   0.366   0.331  0.0767 -0.5888  0.7163
  805SOL    HW1 2414   2.469   0.353   0.407  0.7361 -0.1177 -2.1273
  805SOL    HW2 2415   2.417   0.299   0.252  1.8842  2.4689 -0.4995
  806SOL     OW 2416   0.621   2.660   1.942  0.5469  0.2799  0.8788
  806SOL    HW1 2417   0.572   2.726   2.008  0.2079  2.4100  1.1389
  806SOL    HW2 2418   0.632   2.701   1.847 -2.7971 -3.1491  0.8407
  807SOL     OW 2419   2.525   0.909   0.501  0.5144 -0.3025  0.3649
  807SOL    HW1 2420   2.611   0.853   0.517  0.4831  2.4559 -0.2592
  807SOL    HW2 2421   2.519   0.957   0.411  0.1478  1.6965  0.0905
  808SOL     OW 2422   0.699   2.026   2.928  0.1552 -0.1622 -0.2090
  808SOL    HW1 2423   0.665   2.050   3.020  1.2943 -0.3814 -1.8563
  808SOL    HW2 2424   0.717   1.927   2.917 -1.4066  0.9112 -3.8532
  809SOL     OW 2425   2.563   2.003   1.911 -0.6620 -0.0440 -0.2368
  809SOL    HW1 2426   2.651   2.061   1.931  1.1653  0.1489 -3.1086
  809SOL    HW2 2427   2.546   1.991   1.808  2.5219 -0.1152  0.0693
  810SOL     OW 2428   2.186   1.167   0.475  0.0087  0.6231  0.0564
  810SOL    HW1 2429   2.180   1.097   0.553  0.7915  0.5614  1.3868
  810SOL    HW2 2430   2.158   1.268   0.501 -0.6933  0.1896 -1.1468
  811SOL     OW 2431   1.245   2.512   1.140  0.0217  0.2343  0.1807
  811SOL    HW1 2432   1.286   2.413   1.137 -0.0984  1.1579  0.9415
  811SOL    HW2 2433   1.237   2.543   1.244 -1.5330 -1.1144  0.3029
  812SOL     OW 2434   1.456   0.748   1.992 -0.2663  0.2865  0.1218
  812SOL    HW1 2435   1.382   0.804   2.048 -3.5398  0.6210 -1.0222
  812SOL    HW2 2436   1.502   0.802   1.913 -0.2958  0.5281  0.9114
  813SOL     OW 2437   1.651   2.051   2.398 -0.8309  0.0305 -0.0794
  813SOL    HW1 2438   1.745   2.011   2.409 -1.2997  1.3948 -1.0079
  813SOL    HW2 2439   1.626   2.052   2.298 -1.1935 -1.1375  2.8919
  814SOL     OW 2440   3.010   1.707   2.905 -0.8688  0.2430 -0.1937
  814SOL    HW1 2441   3.055   1.632   2.964  2.1805 -0.5226 -0.3135
  814SOL    HW2 2442   3.048   1.803   2.922 -0.7550 -0.7533  0.2639
  815SOL     OW 2443   2.171   2.857   2.711 -0.1752  0.3076 -0.1859
  815SOL    HW1 2444   2.128   2.813   2.792  0.8420  1.4197  1.4355
  815SOL    HW2 2445   2.268   2.888   2.733  1.1987  0.6213 -1.5872
  816SOL     OW 2446   1.476   0.409   1.674  0.3484  0.0729  0.2058
  816SOL    HW1 2447   1.528   0.324   1.649 -3.1595 -0.1328 -1.0562
  816SOL    HW2 2448   1.414   0.402   1.761 -1.2852 -1.9222 -0.8065
  817SOL     OW 2449   0.365   1.262   2.556  0.0482 -0.4558 -0.1789
  817SOL    HW1 2450   0.264   1.270   2.554  1.0611 -2.5527  0.7860
  817SOL    HW2 2451   0.404   1.346   2.513 -1.6277  0.4904 -0.7089
  818SOL     OW 2452   2.006   0.801   0.452  0.2027 -0.8122 -0.1729
  818SOL    HW1 2453   2.104   0.825   0.450 -0.8087 -0.6008  2.2789
  818SOL    HW2 2454   1.956   0.830   0.537 -2.8744  1.0025 -1.8465
  819SOL     OW 2455   2.786   2.910   2.992 -0.0458 -0.1107  0.8604
  819SOL    HW1 2456   2.856   2.832   2.986 -0.8063 -1.6310 -0.4520
  819SOL    HW2 2457   2.701   2.879   2.931  1.5592 -0.8695 -0.3895
  820SOL     OW 2458   1.215   1.081   0.562 -0.3523  0.6875  0.3984
  820SOL    HW1 2459   1.247   1.171   0.588  3.5921 -1.2337  0.1579
  820SOL    HW2 2460   1.207   1.029   0.646 -0.6684  1.8445  0.1517
  821SOL     OW 2461   0.017   1.238   0.734 -0.2351 -0.2594  0.1495
  821SOL    HW1 2462  -0.022   1.267   0.828  1.6409  2.9813  2.4181
  821SOL    HW2 2463   0.086   1.308   0.702 -1.9423 -1.0866  0.5719
  822SOL     OW 2464   2.558   1.770   2.463  0.3747  0.3335 -0.2763
  822SOL    HW1 2465   2.541   1.810   2.557  1.1770 -1.5079  1.2583
  822SOL    HW2 2466   2.480   1.782   2.395  0.2867  1.7324  0.6932
  823SOL     OW 2467   1.986   0.926   1.190  0.0987 -0.3082  0.3844
  823SOL    HW1 2468   2.000   0.884   1.280  1.4576  1.5550  0.3352
  823SOL    HW2 2469   1.947   0.861   1.118 -0.4304 -2.5224 -0.6049
  824SOL     OW 2470   0.193   1.830   2.841  1.0103  0.0084  0.2615
  824SOL    HW1 2471   0.212   1.816   2.944 -0.8517 -0.7820  0.0294
  824SOL    HW2 2472   0.266   1.886   2.791 -0.0572 -1.7242  0.6344
  825SOL     OW 2473   1.272   1.037   0.289 -0.1996 -0.3175 -0.2183
  825SOL    HW1 2474   1.291   1.134   0.262 -0.8557  1.0630 -1.7380
  825SOL    HW2 2475   1.266   1.026   0.393 -0.6557 -1.4537 -0.9817
  826SOL     OW 2476   1.973   0.658   1.596 -0.1246  0.1535 -0.0286
  826SOL    HW1 2477   2.054   0.600   1.624  1.3902  1.4406  0.7419
  826SOL    HW2 2478   1.888   0.616   1.555 -1.0337 -0.3012 -0.4766
  827SOL     OW 2479   0.730   1.197   0.511 -0.0787  0.3986  0.3253
  827SOL    HW1 2480   0.815   1.157   0.471 -0.0009  1.5395 -1.6613
  827SOL    HW2 2481   0.651   1.133   0.520  2.1243  0.4855  0.6555
  828SOL     OW 2482   2.716   0.189   1.616 -0.1583 -0.7264  0.4847
  828SOL    HW1 2483   2.643   0.137   1.560 -0.5251  1.3409  0.2662
  828SOL    HW2 2484   2.723   0.149   1.713  0.2557 -3.1622  1.5110
  829SOL     OW 2485   2.891   2.366   2.882  0.1088 -0.0083 -0.4175
  829SOL    HW1 2486   2.803   2.329   2.923  0.9885 -1.8463  0.9460
  829SOL    HW2 2487   2.912   2.458   2.925 -2.6707 -2.2126  3.3473
  830SOL     OW 2488   2.955   0.926   2.966  0.6178  0.0261 -0.3066
  830SOL    HW1 2489   2.999   1.018   2.988 -0.9283  1.4734 -0.0481
  830SOL    HW2 2490   2.932   0.871   3.052  0.2192  3.4077  1.5111
  831SOL     OW 2491   0.021   0.579   0.464 -0.4826  0.6180 -0.2693
  831SOL    HW1 2492   0.013   0.531   0.556 -0.7747  0.8883  0.0238
  831SOL    HW2 2493   0.037   0.507   0.391 -1.8054 -0.8119  0.5184
  832SOL     OW 2494   1.776   0.728   0.034 -0.0110  0.2385 -0.1826
  832SOL    HW1 2495   1.688   0.776  -0.001  2.7225 -0.2084 -0.8623
  832SOL    HW2 2496   1.781   0.624   0.034  0.1650 -0.8372  1.9239
  833SOL     OW 2497   2.347   2.122   0.563  0.4717  0.2590 -0.3549
  833SOL    HW1 2498   2.257   2.072   0.550  1.5787 -0.8313  0.4851
  833SOL    HW2 2499   2.428   2.066   0.522 -0.9955 -2.4726 -1.0321
  834SOL     OW 2500   0.084   0.068   0.571 -0.4630  0.1791  0.3238
  834SOL    HW1 2501   0.154  -0.007   0.573 -0.4031 -0.1771  0.1941
  834SOL    HW2 2502   0.096   0.132   0.486  0.0372  0.3460 -1.9259
  835SOL     OW 2503   2.489   1.692   1.122  0.1000  0.0625 -0.3756
  835SOL    HW1 2504   2.556   1.624   1.173  3.9679  1.0113 -3.5098
  835SOL    HW2 2505   2.541   1.764   1.072 -1.2345  0.2526  0.3053
  836SOL     OW 2506   1.540   0.846   2.610  0.3300  0.5682 -0.1255
  836SOL    HW1 2507   1.448   0.880   2.573  1.2485  0.7109 -1.1976
  836SOL    HW2 2508   1.621   0.874   2.554 -2.1903 -1.6029  2.3899
  837SOL     OW 2509   1.694   0.075   0.555 -0.8348 -0.1567  0.5371
  837SOL    HW1 2510   1.636   0.135   0.621 -0.3747  1.8828 -0.4768
  837SOL    HW2 2511   1.659   0.087   0.456  2.4192 -1.0050 -0.8496
  838SOL     OW 2512   1.160   1.455   2.694  0.6071 -0.3255  0.2474
  838SOL    HW1 2513   1.106   1.487   2.777 -1.3823 -2.2693  0.3238
  838SOL    HW2 2514   1.101   1.393   2.637 -0.5695 -1.1131  2.6352
  839SOL     OW 2515   1.657   0.405   0.953  0.8194  0.0559 -0.2813
  839SOL    HW1 2516   1.599   0.492   0.966 -2.1921 -2.3897  1.0885
  839SOL    HW2 2517   1.596   0.323   0.985 -1.7055 -2.9664  1.2461
  840SOL     OW 2518   2.673   2.953   1.629 -0.1360 -0.1171  0.3703
  840SOL    HW1 2519   2.593   3.006   1.591  1.4314  1.6688 -0.2450
  840SOL    HW2 2520   2.665   2.943   1.733 -2.3956  0.9974 -1.0118
  841SOL     OW 2521   1.554   0.838   3.074  0.3355 -0.3072  0.2690
  841SOL    HW1 2522   1.472   0.843   3.140 -3.6526  0.5954  2.1608
  841SOL    HW2 2523   1.540   0.881   2.977 -1.5564  0.1649 -2.6545
  842SOL     OW 2524   0.823   1.622   1.013 -0.2274 -0.0600 -0.1173
  842SOL    HW1 2525   0.774   1.715   1.030 -0.2840 -1.1791  1.3372
  842SOL    HW2 2526   0.766   1.557   0.953 -1.9022 -1.1046 -1.1710
  843SOL     OW 2527   0.157   0.084   1.430 -0.7348  0.3722  0.1801
  843SOL    HW1 2528   0.229   0.126   1.490 -2.3546 -0.3537 -1.5949
  843SOL    HW2 2529   0.176  -0.018   1.411 -0.1941 -1.0658  3.1326
  844SOL     OW 2530   0.706   2.442   0.208 -0.1812  0.1580  0.0345
  844SOL    HW1 2531   0.652   2.451   0.296  1.1832 -0.1843  0.9019
  844SOL    HW2 2532   0.647   2.410   0.129  0.1125 -1.2516  0.5111
  845SOL     OW 2533   1.762   3.095   1.274  0.0130  0.0189  0.3877
  845SOL    HW1 2534   1.731   3.085   1.372 -0.1356 -0.4506 -0.0948
  845SOL    HW2 2535   1.720   3.178   1.222 -1.1773 -0.8479 -0.4749
  846SOL     OW 2536   1.677   3.009   0.895  0.3792 -0.2520 -0.1000
  846SOL    HW1 2537   1.713   3.089   0.842  1.3089 -1.8522 -1.6531
  846SOL    HW2 2538   1.748   2.945   0.915 -0.9184  0.5080 -0.5035
  847SOL     OW 2539   2.074   1.592   0.155  0.2685 -0.3792  0.7237
  847SOL    HW1 2540   2.030   1.543   0.232  1.3838  2.8029 -0.4764
  847SOL    HW2 2541   2.003   1.613   0.080 -2.0173  1.5602  0.7072
  848SOL     OW 2542   2.487   0.795   2.646 -0.6999  0.0477 -0.3920
  848SOL    HW1 2543   2.490   0.896   2.616  2.8122  2.5223  3.0909
  848SOL    HW2 2544   2.401   0.743   2.611 -0.0520 -1.7006  1.4175
  849SOL     OW 2545   2.377   0.848   2.286 -0.5384 -0.2459 -0.0929
  849SOL    HW1 2546   2.441   0.780   2.234  2.4440 -1.6631 -0.9495
  849SOL    HW2 2547   2.314   0.805   2.351  0.6837 -1.3043 -2.1856
  850SOL     OW 2548   1.501   0.249   1.258 -0.0128  0.4391 -0.1972
  850SOL    HW1 2549   1.530   0.221   1.160  1.0071 -2.6834  0.8526
  850SOL    HW2 2550   1.465   0.166   1.309 -0.2718  1.3178  0.5307
  851SOL     OW 2551   0.445   1.665   0.608 -0.0949 -0.0105 -0.1138
  851SOL    HW1 2552   0.425   1.766   0.629  0.3790  2.2190  0.2086
  851SOL    HW2 2553   0.548   1.653   0.586  2.0588 -1.3892 -0.4622
  852SOL     OW 2554   0.841   2.183   1.782  0.5365 -0.1550  0.2200
  852SOL    HW1 2555   0.840   2.279   1.756  0.0254 -0.0805  2.2446
  852SOL    HW2 2556   0.759   2.156   1.848 -2.6678 -0.0173  1.3445
  853SOL     OW 2557   2.542   1.508   2.587 -0.4751 -0.1955  0.9490
  853SOL    HW1 2558   2.488   1.416   2.564 -0.1447 -1.5744 -0.5735
  853SOL    HW2 2559   2.538   1.579   2.507 -2.1766  1.3959 -1.8698
  854SOL     OW 2560   2.463   1.450   1.741 -0.3924  0.0021 -0.4033
  854SOL    HW1 2561   2.501   1.411   1.650 -0.5423  2.2308 -1.6556
  854SOL    HW2 2562   2.394   1.381   1.786 -1.6108  0.4968  1.4008
  855SOL     OW 2563   2.041   2.330   0.961 -0.3907  0.2554 -0.4747
  855SOL    HW1 2564   2.089   2.414   0.918  0.0166  1.8854 -0.9616
  855SOL    HW2 2565   2.098   2.282   1.036  3.5877 -0.7532  1.1925
  856SOL     OW 2566   1.419   1.449   0.834 -0.2240 -0.0476 -0.5136
  856SOL    HW1 2567   1.484   1.525   0.804 -1.5922  0.5592 -1.0025
  856SOL    HW2 2568   1.359   1.470   0.914  0.0491  2.3314  0.4703
  857SOL     OW 2569   2.923   2.515   1.071 -0.0288 -0.1366 -0.5459
  857SOL    HW1 2570   2.825   2.486   1.087  1.5635  0.2630 -0.5343
  857SOL    HW2 2571   2.985   2.435   1.043 -1.4706 -1.0728  1.1574
  858SOL     OW 2572   2.268   2.136   1.777  0.5028 -0.1513 -0.2652
  858SOL    HW1 2573   2.166   2.145   1.743  0.6850 -0.1583  1.7490
  858SOL    HW2 2574   2.334   2.083   1.717  2.7425  0.6242  2.1019
  859SOL     OW 2575   2.448   0.413   1.012 -0.2994  0.0471  0.7106
  859SOL    HW1 2576   2.528   0.456   0.965 -0.9817  4.1982  2.3092
  859SOL    HW2 2577   2.484   0.334   1.073 -1.3917  0.3925  2.9439
  860SOL     OW 2578   1.869   2.789   0.535 -0.5713 -0.2895  0.1741
  860SOL    HW1 2579   1.873   2.764   0.433  0.1403 -1.4803  0.9185
  860SOL    HW2 2580   1.900   2.887   0.550 -2.0103 -1.3637  1.8906
  861SOL     OW 2581   0.990   2.570   2.801 -0.4019  0.2756 -0.2162
  861SOL    HW1 2582   1.083   2.621   2.784 -0.7650  0.9960  1.8103
  861SOL    HW2 2583   0.969   2.546   2.901 -0.1370 -0.7595  1.0684
  862SOL     OW 2584   2.965   2.599   1.542  0.2196 -0.8600 -0.4690
  862SOL    HW1 2585   3.021   2.585   1.629  0.6154 -3.6759 -0.6147
  862SOL    HW2 2586   2.863   2.628   1.561  1.2134  1.1953  1.1061
  863SOL     OW 2587   1.867   2.657   0.237  0.4601 -0.7583 -0.5351
  863SOL    HW1 2588   1.947   2.594   0.238 -0.6846  1.2766 -2.6684
  863SOL    HW2 2589   1.769   2.618   0.212  1.2381 -2.3850  1.5580
  864SOL     OW 2590   1.921   1.120   2.978 -0.1407 -0.3009  0.7321
  864SOL    HW1 2591   1.951   1.104   2.876  1.9483 -1.1250 -0.4095
  864SOL    HW2 2592   1.991   1.096   3.051 -0.3032 -1.4620  0.0557
  865SOL     OW 2593   2.153   1.694   0.589  0.3029 -0.1012  0.0370
  865SOL    HW1 2594   2.189   1.749   0.671  2.9305  0.9077 -1.5179
  865SOL    HW2 2595   2.113   1.606   0.625  2.7709  0.1753 -3.0160
  866SOL     OW 2596   2.896   2.826   1.017  0.5596 -0.3019  0.6726
  866SOL    HW1 2597   2.973   2.858   0.956  0.9393 -1.1083 -1.4110
  866SOL    HW2 2598   2.898   2.726   1.025  0.7003  1.6965  0.2751
  867SOL     OW 2599   0.420   1.369   0.829 -0.1391  0.2462 -0.0669
  867SOL    HW1 2600   0.434   1.268   0.795  0.4632 -0.2011  0.1334
  867SOL    HW2 2601   0.347   1.418   0.779  2.2007 -1.0432  0.7580
  868SOL     OW 2602   0.841   1.882   2.009  0.1578  0.2312 -0.0362
  868SOL    HW1 2603   0.797   1.842   2.096 -0.7832 -4.4987  1.4676
  868SOL    HW2 2604   0.801   1.973   1.991 -0.1356  1.2245  0.6835
  869SOL     OW 2605   2.537   1.980   1.651  0.1466 -0.5877 -0.3511
  869SOL    HW1 2606   2.632   1.941   1.639  0.9486  0.9443  0.0698
  869SOL    HW2 2607   2.494   1.974   1.560  1.7680 -2.6898  0.5336
  870SOL     OW 2608   2.392   2.535   1.228 -0.1939  0.3770  0.8708
  870SOL    HW1 2609   2.331   2.450   1.224  0.0315 -1.6308 -0.2618
  870SOL    HW2 2610   2.482   2.514   1.267 -0.2807 -1.2787 -1.2686
  871SOL     OW 2611   3.032   1.993   0.530 -0.8481 -0.1792 -0.0516
  871SOL    HW1 2612   2.954   2.055   0.498  0.5174  1.1572 -0.9471
  871SOL    HW2 2613   3.020   1.896   0.504  0.3176  1.6425  2.4166
  872SOL     OW 2614   2.187   0.510   1.698  0.1644  0.6432  0.0441
  872SOL    HW1 2615   2.139   0.469   1.777 -0.6618 -0.3755  0.7665
  872SOL    HW2 2616   2.290   0.487   1.703  3.2389 -2.6735 -0.5658
  873SOL     OW 2617   1.722   2.075   2.859 -0.9047  0.1611  0.2721
  873SOL    HW1 2618   1.675   2.164   2.898  0.7662  1.9215  1.9164
  873SOL    HW2 2619   1.672   2.029   2.776  1.5098 -0.3713 -2.6111
  874SOL     OW 2620   0.608   2.523   0.747  0.1628 -0.0439  0.3295
  874SOL    HW1 2621   0.596   2.626   0.779 -2.3308  1.2567  1.1927
  874SOL    HW2 2622   0.703   2.482   0.753  0.5376  1.1239 -0.8818
  875SOL     OW 2623   2.334   1.559   1.460  0.5258 -0.4318 -0.2996
  875SOL    HW1 2624   2.430   1.596   1.464 -0.9015  1.2292  0.9342
  875SOL    HW2 2625   2.293   1.582   1.366 -0.9478  1.0047 -2.5701
  876SOL     OW 2626   0.133   2.230   2.741  0.4960  0.2028  0.4936
  876SOL    HW1 2627   0.136   2.153   2.809  1.0126  0.8722 -1.6896
  876SOL    HW2 2628   0.177   2.319   2.775 -1.9601 -2.2593 -2.7049
  877SOL     OW 2629   2.787   2.661   0.609  0.3137  0.5736  0.0482
  877SOL    HW1 2630   2.813   2.760   0.635  0.5739 -0.3559 -0.2220
  877SOL    HW2 2631   2.835   2.579   0.661 -0.5949 -0.1816 -0.2871
  878SOL     OW 2632   2.748   1.518   2.283 -0.0198 -0.2499  0.6641
  878SOL    HW1 2633   2.725   1.620   2.296  0.5507  1.6539 -0.4938
  878SOL    HW2 2634   2.824   1.476   2.344  0.5615 -1.0728  0.8904
  879SOL     OW 2635   2.431   3.055   1.263  0.2287 -0.2481  0.2946
  879SOL    HW1 2636   2.471   2.960   1.261 -0.4128 -2.7860 -0.6798
  879SOL    HW2 2637   2.329   3.046   1.249  1.3206 -0.8372 -0.9718
  880SOL     OW 2638   0.580   0.506   2.230 -0.3156 -0.2795 -0.0203
  880SOL    HW1 2639   0.543   0.458   2.318  3.8919  3.3524  0.0197
  880SOL    HW2 2640   0.577   0.443   2.147  2.4870 -0.1332  0.2540
  881SOL     OW 2641   0.853   0.079   0.454  0.0051 -0.0254  0.6547
  881SOL    HW1 2642   0.939   0.026   0.436  0.1878  0.6819  1.3723
  881SOL    HW2 2643   0.792   0.084   0.370  0.5767  0.6763 -1.4700
  882SOL     OW 2644   2.763   1.788   1.685 -0.3554 -0.1996 -0.2197
  882SOL    HW1 2645   2.826   1.709   1.646  0.2894 -1.9713 -0.6455
  882SOL    HW2 2646   2.722   1.772   1.777 -1.9425 -0.6629 -0.4113
  883SOL     OW 2647   0.926   0.599   0.976  0.1433 -0.2384  0.4334
  883SOL    HW1 2648   0.919   0.666   1.056  0.5123  2.4760 -2.5453
  883SOL    HW2 2649   1.023   0.599   0.940  0.5169  0.9723 -1.3871
  884SOL     OW 2650   1.185   1.904   1.069 -0.4742  0.6179 -0.0471
  884SOL    HW1 2651   1.174   1.865   0.970  1.8677  0.7319 -0.1006
  884SOL    HW2 2652   1.096   1.943   1.102  0.8045 -0.1484 -0.8205
  885SOL     OW 2653   2.327   1.782   2.321 -0.0537  0.8817 -0.3626
  885SOL    HW1 2654   2.274   1.734   2.390  1.4107 -1.8872 -1.8717
  885SOL    HW2 2655   2.310   1.885   2.314 -0.8084  1.9041  1.2925
  886SOL     OW 2656   2.693   0.459   1.806 -0.0500 -0.1298  0.3549
  886SOL    HW1 2657   2.740   0.396   1.877  0.3071  0.5351 -1.9247
  886SOL    HW2 2658   2.748   0.538   1.778 -2.9216 -3.4452 -1.3234
  887SOL     OW 2659   0.188   2.081   1.316  0.3029  0.2716  0.0317
  887SOL    HW1 2660   0.151   2.015   1.244 -0.8105  1.2121 -0.8472
  887SOL    HW2 2661   0.169   2.182   1.295  0.4487 -1.7947 -1.8897
  888SOL     OW 2662   0.585   1.302   1.514  0.2982 -0.4407 -0.6567
  888SOL    HW1 2663   0.607   1.357   1.428 -1.5779 -0.6421  0.3234
  888SOL    HW2 2664   0.584   1.197   1.500 -0.2875 -2.9054  1.4428
  889SOL     OW 2665   0.841   2.414   2.136 -0.0127 -0.3748 -0.5541
  889SOL    HW1 2666   0.762   2.387   2.074 -3.3089  0.4933  1.5312
  889SOL    HW2 2667   0.928   2.443   2.082  0.0894 -0.9779  1.1446
  890SOL     OW 2668   2.341   2.431   0.146  0.0821  0.5230  0.4354
  890SOL    HW1 2669   2.366   2.487   0.059 -2.7103  1.2585 -0.4885
  890SOL    HW2 2670   2.245   2.440   0.177  1.8290 -1.1760  1.2942
  891SOL     OW 2671   2.581   1.635   0.712 -0.2628  0.3608  0.2785
  891SOL    HW1 2672   2.571   1.553   0.774 -0.2028  1.0011 -0.3725
  891SOL    HW2 2673   2.501   1.651   0.649  0.1314  2.4662  0.7361
  892SOL     OW 2674   0.297   0.296   2.234  0.9513 -0.0324 -0.0332
  892SOL    HW1 2675   0.286   0.350   2.149 -2.3854  0.5491 -1.1615
  892SOL    HW2 2676   0.365   0.324   2.306  0.1709 -2.1213  1.0446
  893SOL     OW 2677   1.617   0.242   2.689  0.0761 -0.1447 -0.2482
  893SOL    HW1 2678   1.698   0.302   2.708 -2.4535  2.4864  0.0986
  893SOL    HW2 2679   1.526   0.298   2.679  0.2665  2.2080 -1.3377
  894SOL     OW 2680   2.176   2.000   0.077  0.1843  0.3940  0.2759
  894SOL    HW1 2681   2.125   1.947   0.006 -0.4321  0.1869 -1.6637
  894SOL    HW2 2682   2.200   1.936   0.155  2.9289  0.1484 -1.0396
  895SOL     OW 2683   2.856   1.415   0.821 -0.5630 -0.0795 -0.0672
  895SOL    HW1 2684   2.897   1.354   0.899 -1.3020  0.6847  0.7024
  895SOL    HW2 2685   2.923   1.489   0.788  1.9874  1.0623 -0.4322
  896SOL     OW 2686   1.695   1.783   1.193 -0.7430  0.8548 -0.1870
  896SOL    HW1 2687   1.775   1.818   1.133  0.7738  0.1660 -0.7210
  896SOL    HW2 2688   1.616   1.848   1.201  0.2472  1.3431  0.6991
  897SOL     OW 2689   0.331   0.513   3.049 -0.1519  0.2554 -0.2450
  897SOL    HW1 2690   0.272   0.530   2.967  0.2011  1.0232  0.1151
  897SOL    HW2 2691   0.422   0.568   3.048  1.7462 -0.5014 -0.8420
  898SOL     OW 2692   0.540   2.902   1.033 -0.0593  0.6325 -0.4566
  898SOL    HW1 2693   0.484   2.958   1.101  0.2367  1.8819 -0.9583
  898SOL    HW2 2694   0.639   2.928   1.041  0.0517  1.2548  0.5920
  899SOL     OW 2695   2.724   0.930   1.285  0.1938 -0.1200 -0.0684
  899SOL    HW1 2696   2.666   0.904   1.198  1.8050 -3.5094 -0.3937
  899SOL    HW2 2697   2.787   1.009   1.281 -1.8599 -0.9968  0.6397
  900SOL     OW 2698   0.967   2.323   2.367  0.4024  0.1287  0.2806
  900SOL    HW1 2699   0.910   2.353   2.286  1.7164 -4.5565  0.5582
  900SOL    HW2 2700   0.934   2.358   2.459  1.8023  1.2671  0.3039
  901SOL     OW 2701   1.994   2.486   1.366  0.7596 -0.3223 -0.3766
  901SOL    HW1 2702   1.960   2.481   1.268  0.1021  0.1418 -1.2714
  901SOL    HW2 2703   2.065   2.417   1.393 -3.1847  0.1628  1.0953
  902SOL     OW 2704   2.581   1.691   1.476  0.1439  0.1973  0.7090
  902SOL    HW1 2705   2.640   1.716   1.554 -0.5952  0.8046 -1.5977
  902SOL    HW2 2706   2.634   1.645   1.403 -2.8485 -0.3459 -0.1656
  903SOL     OW 2707   0.287   2.419   2.008 -0.3771  0.3543 -0.0109
  903SOL    HW1 2708   0.205   2.371   2.041  3.2712  1.3656  1.2343
  903SOL    HW2 2709   0.271   2.475   1.918 -0.6350  0.0870  0.0691
  904SOL     OW 2710   2.020   0.778   2.601  0.2921 -0.1963 -0.1148
  904SOL    HW1 2711   1.942   0.719   2.642 -3.5764 -4.1680 -0.0948
  904SOL    HW2 2712   2.013   0.790   2.499 -0.3949  0.5503 -0.0515
  905SOL     OW 2713   2.789   0.024   2.535 -0.3875  0.3434 -0.4576
  905SOL    HW1 2714   2.859  -0.046   2.577  2.2684 -3.4789  0.0085
  905SOL    HW2 2715   2.826   0.122   2.530  1.0240 -0.0836 -0.5303
  906SOL     OW 2716   0.132   1.823   1.949  0.2683  0.4895 -0.4259
  906SOL    HW1 2717   0.091   1.825   1.853 -1.3671  0.5205  1.4965
  906SOL    HW2 2718   0.231   1.862   1.954 -1.0537  2.0380  2.2242
  907SOL     OW 2719   0.199   2.400   1.050 -0.2777 -0.5877 -0.1077
  907SOL    HW1 2720   0.240   2.495   1.023  0.2571 -0.2165 -1.3524
  907SOL    HW2 2721   0.195   2.338   0.968 -1.6068 -0.8611  2.1158
  908SOL     OW 2722   2.695   2.857   0.384  0.2701 -0.6859  0.1491
  908SOL    HW1 2723   2.652   2.865   0.292  3.3689  0.3640  0.2471
  908SOL    HW2 2724   2.681   2.762   0.423 -0.9969 -0.4751 -0.8105
  909SOL     OW 2725   0.708   0.910   2.631 -0.5725 -0.7742 -0.3951
  909SOL    HW1 2726   0.670   0.813   2.625  2.8580  0.8309 -1.9475
  909SOL    HW2 2727   0.787   0.934   2.569  1.5192 -1.0772  2.2604
  910SOL     OW 2728   1.729   1.788   2.050  0.5283 -0.1483  1.0448
  910SOL    HW1 2729   1.798   1.825   1.979 -1.2574  2.5446 -0.1145
  910SOL    HW2 2730   1.676   1.866   2.098  0.1459  0.3993  0.4760
  911SOL     OW 2731   1.744   3.043   1.584  0.0795 -0.0125  0.0294
  911SOL    HW1 2732   1.832   3.005   1.537  2.5299  1.7804 -2.3866
  911SOL    HW2 2733   1.705   2.976   1.660  0.2360 -0.6877  1.1623
  912SOL     OW 2734   2.852   0.942   0.766 -0.0031  0.1735  0.0963
  912SOL    HW1 2735   2.861   0.931   0.871  0.3752 -0.2148  0.5691
  912SOL    HW2 2736   2.852   1.041   0.736  0.2399 -0.0137  1.8794
  913SOL     OW 2737   2.572   1.281   1.575 -0.2781  0.2541 -0.0933
  913SOL    HW1 2738   2.566   1.189   1.616 -1.0263 -0.0727 -2.6425
  913SOL    HW2 2739   2.625   1.273   1.484  0.9037 -0.0277 -0.1068
  914SOL     OW 2740   2.833   0.493   1.285 -0.4298 -0.2871  0.3650
  914SOL    HW1 2741   2.772   0.414   1.311 -1.1594  1.8322  2.2766
  914SOL    HW2 2742   2.838   0.566   1.361 -0.4325 -2.4906 -1.1843
  915SOL     OW 2743   1.200   0.817   1.043 -0.3045  0.0703 -0.2393
  915SOL    HW1 2744   1.279   0.826   1.113 -1.6761 -0.3903  0.2566
  915SOL    HW2 2745   1.110   0.798   1.085  1.0914  0.4767 -1.4531
  916SOL     OW 2746   0.583   0.034   0.602  0.7254 -0.1916  0.0494
  916SOL    HW1 2747   0.613   0.109   0.669  0.2309  0.8586  0.2593
  916SOL    HW2 2748   0.551   0.074   0.511  0.7117 -1.1495 -1.1926
  917SOL     OW 2749   2.735   2.584   1.886 -0.4175  0.3766 -0.1178
  917SOL    HW1 2750   2.644   2.619   1.895  4.0252 -0.5967  1.7978
  917SOL    HW2 2751   2.807   2.649   1.851  1.0311 -0.0617 -2.2176
  918SOL     OW 2752   1.044   2.177   3.093  0.8183 -0.1166  0.0737
  918SOL    HW1 2753   0.996   2.209   3.185  0.8109  0.5640  1.5530
  918SOL    HW2 2754   1.091   2.084   3.095  0.4608 -0.1721  0.4856
  919SOL     OW 2755   0.912   1.571   2.770 -0.3482 -0.6777  0.0286
  919SOL    HW1 2756   0.955   1.628   2.699 -2.8751 -0.4122 -1.1776
  919SOL    HW2 2757   0.868   1.485   2.732 -0.1845 -0.3725 -1.4761
  920SOL     OW 2758   1.225   2.066   2.470  0.0685 -0.7095 -0.2314
  920SOL    HW1 2759   1.141   2.058   2.411 -0.1660 -1.2965  0.1993
  920SOL    HW2 2760   1.280   1.978   2.487 -1.8690  0.3365 -1.5404
  921SOL     OW 2761   1.056   0.084   2.559 -0.5193 -0.1361 -0.3560
  921SOL    HW1 2762   1.025   0.009   2.490 -0.1568  1.2233  1.9374
  921SOL    HW2 2763   1.004   0.173   2.544  0.0681  2.2142 -0.6083
  922SOL     OW 2764   2.086   2.421   2.779  0.5361  0.2524  0.2294
  922SOL    HW1 2765   2.104   2.317   2.793 -0.1125 -0.4461 -1.0431
  922SOL    HW2 2766   2.058   2.443   2.681  0.4224 -1.9320 -1.7806
  923SOL     OW 2767   1.185   2.724   0.214  0.6058  0.0894  0.3546
  923SOL    HW1 2768   1.272   2.708   0.266 -1.4323 -0.0971  0.0587
  923SOL    HW2 2769   1.188   2.686   0.115  0.2469 -1.2486  0.0085
  924SOL     OW 2770   2.862   1.576   0.080  0.5225  0.0590 -0.3705
  924SOL    HW1 2771   2.787   1.575   0.007  0.6432 -2.1927  0.8230
  924SOL    HW2 2772   2.951   1.604   0.037  1.0401  1.4480 -1.1114
  925SOL     OW 2773   0.081   2.893   1.609 -0.0086  0.2537  0.2078
  925SOL    HW1 2774  -0.015   2.926   1.621 -0.9643  1.0580  1.4897
  925SOL    HW2 2775   0.111   2.880   1.509 -0.3280 -3.3534 -2.0604
  926SOL     OW 2776   1.426   2.900   1.277 -0.8240 -0.3145 -0.1984
  926SOL    HW1 2777   1.450   2.885   1.177 -1.2599  2.6845  0.0554
  926SOL    HW2 2778   1.435   2.997   1.313  0.5131  1.1282  0.2758
  927SOL     OW 2779   0.247   2.551   1.763 -0.2002  0.5402 -0.2729
  927SOL    HW1 2780   0.207   2.478   1.698  1.2209  0.3070  0.8189
  927SOL    HW2 2781   0.280   2.631   1.707 -2.7431  0.0128  1.7709
  928SOL     OW 2782   1.591   2.032   2.107  0.5386 -0.0256  0.5994
  928SOL    HW1 2783   1.618   2.132   2.107 -1.8080  0.1457 -1.4193
  928SOL    HW2 2784   1.491   2.021   2.070 -0.3258  2.3164  0.6628
  929SOL     OW 2785   2.376   2.427   2.826  0.4304 -0.2384  0.0024
  929SOL    HW1 2786   2.275   2.452   2.817  0.9135  0.3124 -0.3395
  929SOL    HW2 2787   2.424   2.421   2.735 -1.0987 -0.2259  1.3731
  930SOL     OW 2788   2.202   1.973   1.112 -0.2066  0.1298 -0.0467
  930SOL    HW1 2789   2.178   1.930   1.205  1.1576  1.1588  0.6143
  930SOL    HW2 2790   2.303   2.005   1.102  1.1864 -0.2394  1.1618
  931SOL     OW 2791   0.572   1.754   2.673 -0.0698 -0.2076  0.3704
  931SOL    HW1 2792   0.613   1.735   2.767  0.1945  2.7112  0.8067
  931SOL    HW2 2793   0.555   1.661   2.622  0.0145  1.6501  0.6347
  932SOL     OW 2794   0.497   0.101   2.901  0.2940  0.1175  0.4663
  932SOL    HW1 2795   0.593   0.122   2.864  0.0050  0.5911 -0.6594
  932SOL    HW2 2796   0.493   0.010   2.952 -2.6618 -0.6328  0.4477
  933SOL     OW 2797   1.082   0.803   2.965  0.0342 -0.3874  0.2181
  933SOL    HW1 2798   1.135   0.839   3.044 -1.9924 -1.6098  1.0436
  933SOL    HW2 2799   1.038   0.873   2.905  2.5134 -2.1753 -1.3954
  934SOL     OW 2800   0.866   2.965   2.774  0.6289  0.3842  0.5560
  934SOL    HW1 2801   0.881   2.899   2.702  0.8371  2.6381  0.7948
  934SOL    HW2 2802   0.853   2.932   2.874 -1.3547 -3.0518  1.9696
  935SOL     OW 2803   3.076   0.533   0.920 -0.6107 -0.3810  0.5124
  935SOL    HW1 2804   3.064   0.493   0.825  0.2375 -2.2474 -1.3747
  935SOL    HW2 2805   2.988   0.586   0.948 -3.5711  1.1574  1.1107
  936SOL     OW 2806   1.104   2.994   0.157  0.4550  0.3704  0.3387
  936SOL    HW1 2807   1.148   3.016   0.066  1.5602 -0.5630 -1.0614
  936SOL    HW2 2808   1.133   2.897   0.186 -0.2030  1.5384 -0.2013
  937SOL     OW 2809   1.946   2.673   2.103 -0.1576  1.0145  0.2349
  937SOL    HW1 2810   1.853   2.688   2.153  0.2976 -0.2914 -3.1632
  937SOL    HW2 2811   1.943   2.693   2.001 -0.7391 -0.7206  1.3081
  938SOL     OW 2812   2.736   2.185   1.511 -0.3845  0.4316  0.0483
  938SOL    HW1 2813   2.694   2.270   1.554  2.4686  1.1529  0.5816
  938SOL    HW2 2814   2.773   2.118   1.582  1.3730 -0.7766  0.3807
  939SOL     OW 2815   2.727   0.995   2.512  0.3568 -0.9477 -0.0088
  939SOL    HW1 2816   2.805   0.936   2.488 -1.3736  1.9698  0.5969
  939SOL    HW2 2817   2.736   1.045   2.604  0.6829  2.3505 -0.4855
  940SOL     OW 2818   1.064   0.469   2.658 -0.1628 -0.3718  0.1278
  940SOL    HW1 2819   1.101   0.422   2.740 -3.4908  2.2435 -2.2404
  940SOL    HW2 2820   0.974   0.425   2.629  3.7458 -1.1045  1.0554
  941SOL     OW 2821   0.055   2.858   2.221  0.7296 -0.5660 -0.0478
  941SOL    HW1 2822   0.029   2.759   2.196 -1.9231  0.6595 -0.9002
  941SOL    HW2 2823   0.122   2.873   2.297 -1.1232 -0.4549 -0.5977
  942SOL     OW 2824   0.099   0.085   2.523  0.1186  0.0972 -0.2418
  942SOL    HW1 2825   0.174   0.100   2.590 -1.6736  2.2161 -0.6298
  942SOL    HW2 2826   0.066   0.169   2.470 -0.1520  0.6322  0.1994
  943SOL     OW 2827   2.099   1.648   2.469  0.1257 -0.0761 -0.4458
  943SOL    HW1 2828   2.150   1.561   2.494  3.7823  2.5949  1.7639
  943SOL    HW2 2829   2.028   1.628   2.400 -0.1338  1.9274  3.0691
  944SOL     OW 2830   2.194   2.316   1.491 -0.1159 -0.6497 -0.1925
  944SOL    HW1 2831   2.237   2.409   1.533 -1.5056 -1.0237  0.5383
  944SOL    HW2 2832   2.142   2.263   1.561 -0.2055 -1.7507 -2.0283
  945SOL     OW 2833   0.639   1.463   0.370  0.3001 -0.7321 -0.3374
  945SOL    HW1 2834   0.673   1.501   0.278 -1.2139  0.2031 -0.7881
  945SOL    HW2 2835   0.689   1.375   0.388  2.5594 -1.5061 -2.9150
  946SOL     OW 2836   0.323   1.001   2.637 -0.5553 -0.2847 -0.3451
  946SOL    HW1 2837   0.273   0.955   2.558  1.2428 -0.4386  1.4879
  946SOL    HW2 2838   0.344   1.099   2.622  0.9561  0.0274  1.0122
  947SOL     OW 2839   1.505   0.428   0.161  0.8332 -0.5022  0.1931
  947SOL    HW1 2840   1.540   0.389   0.247  0.9098 -0.9335 -0.6967
  947SOL    HW2 2841   1.449   0.359   0.101  0.8190 -0.2126  0.6410
  948SOL     OW 2842   1.991   3.101   2.152  0.5452 -0.2481 -1.0115
  948SOL    HW1 2843   1.957   3.106   2.049  0.7901 -0.6144 -1.8263
  948SOL    HW2 2844   1.961   3.015   2.202  0.9305 -0.4667  2.4949
  949SOL     OW 2845   0.588   2.533   0.453  0.3843  0.0796 -0.0553
  949SOL    HW1 2846   0.623   2.627   0.418  1.5815 -0.5408  0.4177
  949SOL    HW2 2847   0.594   2.520   0.557  3.0184 -1.6485  0.1481
  950SOL     OW 2848   0.265   2.088   3.013 -0.5026  0.6913  0.1270
  950SOL    HW1 2849   0.195   2.163   3.008 -0.1208  1.5460 -1.3273
  950SOL    HW2 2850   0.225   1.995   3.032  0.5156  0.1167 -1.8359
  951SOL     OW 2851   1.168   2.806   2.782  0.4581  0.3035  0.1636
  951SOL    HW1 2852   1.184   2.895   2.729  1.6226  0.9067  0.8400
  951SOL    HW2 2853   1.216   2.808   2.873 -2.9029  1.2216 -1.2249
  952SOL     OW 2854   0.102   1.721   0.457 -0.1524 -0.1866  0.1413
  952SOL    HW1 2855   0.171   1.804   0.440 -0.0533 -0.2883  0.3484
  952SOL    HW2 2856   0.108   1.664   0.541  0.5631 -2.0534 -0.9438
  953SOL     OW 2857   2.497   1.743   0.193 -0.4517 -0.3779 -0.4274
  953SOL    HW1 2858   2.475   1.642   0.218 -0.2601 -3.4051  2.8469
  953SOL    HW2 2859   2.480   1.779   0.095 -0.8179 -0.8040 -1.1724
  954SOL     OW 2860   2.182   0.474   1.062  0.8629 -0.4740 -0.0791
  954SOL    HW1 2861   2.105   0.491   0.995 -1.5197 -0.6094 -1.6638
  954SOL    HW2 2862   2.277   0.466   1.016 -0.3479 -1.2170  1.7636
  955SOL     OW 2863   0.211   2.650   1.282 -0.4113 -0.0106 -0.1122
  955SOL    HW1 2864   0.106   2.626   1.290 -1.1206  0.7528  0.7982
  955SOL    HW2 2865   0.244   2.660   1.183 -1.1666  0.5865  1.8049
  956SOL     OW 2866   2.725   2.476   2.509 -0.2497 -0.4900 -0.5689
  956SOL    HW1 2867   2.745   2.374   2.497  0.7438  1.1430  0.2018
  956SOL    HW2 2868   2.749   2.536   2.428  3.3406  0.9156 -1.2757
  957SOL     OW 2869   1.538   2.000   2.651  0.1846 -0.3705 -0.0254
  957SOL    HW1 2870   1.452   1.947   2.651  3.4438 -0.9722  1.3065
  957SOL    HW2 2871   1.580   2.000   2.561  0.5788  3.1719  0.6265
  958SOL     OW 2872   2.667   2.315   3.009  0.1714 -0.0693 -0.3112
  958SOL    HW1 2873   2.565   2.303   2.981 -1.7870  0.0589  0.3167
  958SOL    HW2 2874   2.703   2.242   3.071 -1.8083 -0.0932  1.3153
  959SOL     OW 2875   0.230   2.806   0.031  0.1484 -0.1789 -0.1158
  959SOL    HW1 2876   0.131   2.785   0.056  1.3604  0.4712  1.7972
  959SOL    HW2 2877   0.274   2.729  -0.024 -3.2085 -0.1486  0.7770
  960SOL     OW 2878   1.965   0.453   1.956 -0.3373 -0.5932  0.2709
  960SOL    HW1 2879   1.898   0.515   1.913 -0.8677  0.0190  0.2487
  960SOL    HW2 2880   2.001   0.488   2.049 -0.7643  0.7678  1.1472
  961SOL     OW 2881   2.658   1.887   1.030  0.4198  1.2130  0.0278
  961SOL    HW1 2882   2.603   1.936   0.957 -0.2271  0.1710 -1.2994
  961SOL    HW2 2883   2.679   1.953   1.105  1.0217  0.6662 -1.2177
  962SOL     OW 2884   1.283   0.921   0.033  0.0773  0.7483 -0.1503
  962SOL    HW1 2885   1.303   0.975  -0.055  0.3920  1.6412 -1.9053
  962SOL    HW2 2886   1.267   0.975   0.124 -0.8677 -0.5064 -0.0025
  963SOL     OW 2887   2.256   2.606   1.886 -0.8386 -0.4152  0.6829
  963SOL    HW1 2888   2.302   2.525   1.928 -2.2555  0.2683  1.5469
  963SOL    HW2 2889   2.281   2.698   1.921 -2.2065 -1.5017  0.1913
  964SOL     OW 2890   2.456   0.392   1.698 -0.0235  0.1210  0.1613
  964SOL    HW1 2891   2.559   0.399   1.718 -0.7951 -0.7184 -1.9152
  964SOL    HW2 2892   2.433   0.377   1.598  1.0253  2.8975  0.6116
  965SOL     OW 2893   2.679   3.004   0.122  0.8700 -0.3428 -0.1863
  965SOL    HW1 2894   2.727   2.952   0.050  0.8357  0.1908  2.5610
  965SOL    HW2 2895   2.606   3.061   0.073 -4.1940 -0.7366  1.1780
  966SOL     OW 2896   2.548   2.638   2.161 -0.4100  0.0194  0.0881
  966SOL    HW1 2897   2.488   2.577   2.105 -1.1260  0.8661  1.7491
  966SOL    HW2 2898   2.494   2.692   2.231 -1.1678 -1.1034  2.0718
  967SOL     OW 2899   2.766   2.856   2.476 -0.5361 -0.0244  0.0075
  967SOL    HW1 2900   2.803   2.793   2.403 -0.9758  1.6307 -0.2517
  967SOL    HW2 2901   2.794   2.957   2.458 -0.2053  2.3948  1.1149
  968SOL     OW 2902   2.022   1.025   2.723 -0.2838  0.4968  0.2676
  968SOL    HW1 2903   1.991   1.105   2.668 -0.4128 -0.7080 -1.6933
  968SOL    HW2 2904   1.998   0.933   2.677 -2.2257  0.2296 -3.5357
  969SOL     OW 2905   2.709   2.339   1.156  0.0176  0.2230  0.0374
  969SOL    HW1 2906   2.665   2.329   1.060  0.7219 -2.1381 -1.5721
  969SOL    HW2 2907   2.772   2.257   1.178  0.5133  1.1225  2.1860
  970SOL     OW 2908   1.119   2.161   1.789  0.0369 -1.2412 -0.1086
  970SOL    HW1 2909   1.014   2.160   1.772 -0.8547  1.1269  0.1535
  970SOL    HW2 2910   1.142   2.201   1.885 -2.1761 -0.3440  2.1274
  971SOL     OW 2911   2.824   2.099   1.939 -0.1903  0.0525 -0.1489
  971SOL    HW1 2912   2.808   2.204   1.955 -0.9923  1.6817  2.5137
  971SOL    HW2 2913   2.917   2.090   1.892  1.6604  0.0897  0.0048
  972SOL     OW 2914   2.050   2.448   0.271 -0.2391  0.5829 -0.3088
  972SOL    HW1 2915   2.008   2.363   0.223 -0.8405 -0.9995 -1.3740
  972SOL    HW2 2916   2.064   2.444   0.372  1.8639 -1.8501 -0.2947
  973SOL     OW 2917   1.318   1.069   1.904  0.4005  0.0619 -0.6604
  973SOL    HW1 2918   1.246   1.018   1.840 -1.3706  1.7222  0.0481
  973SOL    HW2 2919   1.291   1.167   1.920  2.8103 -2.3963 -1.3543
  974SOL     OW 2920   1.664   0.543   1.902 -0.1817  0.3524  0.3938
  974SOL    HW1 2921   1.733   0.620   1.882  3.0510 -0.8546  0.3162
  974SOL    HW2 2922   1.573   0.589   1.903 -0.3882  0.7885  0.1614
  975SOL     OW 2923   2.422   3.046   3.066  0.5636 -0.5679 -0.6660
  975SOL    HW1 2924   2.358   3.005   3.138  1.5747  2.7865 -0.6882
  975SOL    HW2 2925   2.410   3.014   2.967 -1.5916  2.5163 -3.6328
  976SOL     OW 2926   1.933   2.896   2.315  0.3961 -0.2414  0.3866
  976SOL    HW1 2927   1.857   2.830   2.289  0.9961 -0.5108  0.9796
  976SOL    HW2 2928   1.966   2.875   2.409 -3.2328  2.3008 -3.3720
  977SOL     OW 2929   0.484   0.635   1.027  0.0278 -0.3658  0.4763
  977SOL    HW1 2930   0.389   0.628   0.999  2.5475  0.1310 -0.4610
  977SOL    HW2 2931   0.555   0.587   0.964  0.7812  1.0063 -2.0526
   3.10000   3.10000   3.10000
