1000 SPC/Fw water molecules t=   0.92000 step= 920
 2931
    1SOL     OW    1   2.503   0.337   2.660  0.2571 -0.6437  0.0222
    1SOL    HW1    2   2.550   0.247   2.632  2.8192 -0.4301  1.6761
    1SOL    HW2    3   2.565   0.387   2.727  2.4606  0.3750 -1.5721
    2SOL     OW    4   2.712   3.050   1.442 -0.7014  0.0687 -0.2193
    2SOL    HW1    5   2.801   3.066   1.386  0.4265  0.7838 -0.1573
    2SOL    HW2    6   2.687   3.137   1.493  2.0010 -2.4887  1.7782
    3SOL     OW    7   2.681   2.608   0.407 -0.0773  0.1475  0.9802
    3SOL    HW1    8   2.659   2.509   0.391  2.2219  1.1504 -0.6549
    3SOL    HW2    9   2.759   2.616   0.474 -1.9466 -0.5037 -1.2334
    4SOL     OW   10   1.244   1.539   2.303 -0.0805  0.0523 -0.0229
    4SOL    HW1   11   1.155   1.595   2.272  1.8161  1.3265  0.6162
    4SOL    HW2   12   1.225   1.447   2.348  2.6090 -0.6787 -0.1700
    5SOL     OW   13   1.156   1.495   3.093  0.3462  0.1260 -0.7970
    5SOL    HW1   14   1.228   1.569   3.091 -0.4985 -0.5613 -0.6100
    5SOL    HW2   15   1.058   1.530   3.114 -0.8863  0.5068  0.4332
    6SOL     OW   16   0.140   1.801   2.948  0.3045 -0.4935  0.3519
    6SOL    HW1   17   0.051   1.811   3.007 -1.4694 -2.6260  0.4768
    6SOL    HW2   18   0.224   1.760   2.992 -2.7718 -0.7991 -1.4615
    7SOL     OW   19   2.616   0.925   1.104 -0.0649 -0.1744 -0.2175
    7SOL    HW1   20   2.526   0.876   1.096  1.1889  0.8338  0.5346
    7SOL    HW2   21   2.661   0.933   1.010 -0.6797 -0.9547  2.5471
    8SOL     OW   22   0.370   0.626   1.574  0.3211  0.7473  0.3921
    8SOL    HW1   23   0.461   0.578   1.583 -2.9510 -1.7227  0.2795
    8SOL    HW2   24   0.364   0.668   1.477 -1.0208 -1.2966 -0.6960
    9SOL     OW   25   1.185   0.884   2.419  0.4574  0.2636 -0.0250
    9SOL    HW1   26   1.218   0.928   2.329 -1.6991 -0.7982  2.0385
    9SOL    HW2   27   1.162   0.784   2.399 -0.1681  1.9103 -0.0911
   10SOL     OW   28   0.663   1.352   1.284  0.3055 -0.0464 -0.2628
   10SOL    HW1   29   0.573   1.370   1.240  0.5667  0.2849 -4.1715
   10SOL    HW2   30   0.717   1.440   1.307 -0.8979  2.1288 -2.1221
   11SOL     OW   31   2.336   2.740   0.849 -0.3805  0.1817 -0.4311
   11SOL    HW1   32   2.262   2.770   0.920  1.1457  3.0080  2.9808
   11SOL    HW2   33   2.420   2.798   0.852  0.3711 -0.2026 -0.3643
   12SOL     OW   34   1.489   0.902   0.348  0.1109 -0.0824 -0.3938
   12SOL    HW1   35   1.405   0.960   0.320 -0.4370 -0.3341  0.1328
   12SOL    HW2   36   1.487   0.814   0.292 -2.1545 -1.1131  0.5786
   13SOL     OW   37   2.499   0.691   1.788 -0.2443  0.3330 -0.2142
   13SOL    HW1   38   2.418   0.670   1.846  0.2735  1.2439  0.6261
   13SOL    HW2   39   2.498   0.635   1.701 -0.0455  0.6988  0.4069
   14SOL     OW   40   1.879   0.080   0.710  0.2579  0.8444 -0.7913
   14SOL    HW1   41   1.806   0.105   0.636 -1.3151 -0.4241 -1.0168
   14SOL    HW2   42   1.852   0.002   0.773 -0.0382  1.4960  2.1344
   15SOL     OW   43   1.984   2.074   2.726  0.4339  0.2690 -0.2385
   15SOL    HW1   44   1.923   2.143   2.774 -1.0250  0.4171  0.8178
   15SOL    HW2   45   1.939   2.020   2.646  1.1773  0.0402 -0.3762
   16SOL     OW   46   1.594   1.737   2.978  0.2380 -0.4799  0.4181
   16SOL    HW1   47   1.626   1.636   2.975  4.3606 -1.3679 -0.7312
   16SOL    HW2   48   1.669   1.797   3.021 -0.7218  2.7115 -2.8125
   17SOL     OW   49   0.118   0.510   0.207  0.0428  0.0608  0.2823
   17SOL    HW1   50   0.219   0.534   0.202 -0.4995 -0.9688  0.0654
   17SOL    HW2   51   0.079   0.510   0.112 -2.1228  1.0179 -0.8025
   18SOL     OW   52   0.945   2.891   2.142  0.1394 -0.1703  0.4119
   18SOL    HW1   53   0.848   2.858   2.162  2.6832  1.1664  0.4003
   18SOL    HW2   54   0.984   2.867   2.045  1.0143  1.0086 -3.0672
   19SOL     OW   55   0.519   0.824   1.889  0.0365 -0.0997 -0.1848
   19SOL    HW1   56   0.536   0.775   1.985 -0.9802 -0.9816  3.8490
   19SOL    HW2   57   0.613   0.851   1.848  0.0793  0.2484  0.4170
   20SOL     OW   58   0.177   2.712   0.827  0.2052 -0.5734 -0.4163
   20SOL    HW1   59   0.093   2.772   0.818 -0.4435 -1.3801 -1.4187
   20SOL    HW2   60   0.232   2.701   0.741  0.2827  1.1808  0.6031
   21SOL     OW   61   2.693   0.243   2.081 -0.9068  0.5328 -0.6825
   21SOL    HW1   62   2.639   0.181   2.016 -2.5392  0.6498  0.1940
   21SOL    HW2   63   2.768   0.191   2.137  1.5812 -1.4731  0.0611
   22SOL     OW   64   2.381   0.236   0.160 -0.1769  0.2176  0.3336
   22SOL    HW1   65   2.384   0.135   0.142  1.3810  3.3316 -1.1396
   22SOL    HW2   66   2.288   0.277   0.139 -0.8687  0.9355  0.6257
   23SOL     OW   67   2.789   0.642   0.649  0.1260 -0.5865 -0.1704
   23SOL    HW1   68   2.832   0.556   0.619  1.8950 -2.2247 -2.8878
   23SOL    HW2   69   2.741   0.695   0.574  0.0326  0.6493 -1.0984
   24SOL     OW   70   0.207   1.918   0.367  0.3336  0.4838  0.3727
   24SOL    HW1   71   0.168   1.979   0.295  2.1045 -0.4732  1.1188
   24SOL    HW2   72   0.308   1.904   0.349  2.4682 -3.0260  0.8903
   25SOL     OW   73   2.200   0.590   0.243  0.3398  0.5558 -0.4410
   25SOL    HW1   74   2.213   0.580   0.141 -0.1383  4.6796 -1.2562
   25SOL    HW2   75   2.274   0.552   0.296 -1.2047  0.0732  0.4397
   26SOL     OW   76   2.512   2.097   2.073 -0.0842  0.4939 -0.1215
   26SOL    HW1   77   2.577   2.178   2.100  0.0920  1.6209  1.1571
   26SOL    HW2   78   2.551   2.041   1.996 -0.1280 -3.7212  0.0771
   27SOL     OW   79   0.603   2.957   0.199  0.3559 -0.2185 -0.2726
   27SOL    HW1   80   0.708   2.959   0.188  0.1728 -0.4525  2.4767
   27SOL    HW2   81   0.561   2.991   0.111  1.8951  0.8111 -1.0289
   28SOL     OW   82   1.589   0.177   0.279  0.4575  0.3592  0.5700
   28SOL    HW1   83   1.627   0.152   0.183 -0.2897 -1.4839 -0.4679
   28SOL    HW2   84   1.606   0.274   0.304  0.6948  0.4143 -0.2604
   29SOL     OW   85   1.968   0.640   0.409  0.4883  0.5139 -0.2788
   29SOL    HW1   86   1.945   0.739   0.399 -1.2411 -1.0745 -0.3109
   29SOL    HW2   87   2.069   0.628   0.385  0.6250 -0.1644 -2.4632
   30SOL     OW   88   0.163   1.972   0.884 -0.2660 -0.0733  0.1171
   30SOL    HW1   89   0.130   1.956   0.782 -0.2657 -0.5458 -1.9456
   30SOL    HW2   90   0.098   2.025   0.946 -1.4369  1.1073 -0.0868
   31SOL     OW   91   2.096   3.087   2.355  0.4876  0.3322  0.4410
   31SOL    HW1   92   2.111   3.108   2.456 -1.7114  1.9261  1.5162
   31SOL    HW2   93   2.049   2.992   2.340 -1.6603  1.2394 -1.3050
   32SOL     OW   94   2.968   0.049   0.179  0.0532 -0.5565  0.6934
   32SOL    HW1   95   2.993  -0.057   0.177  2.6035 -2.6884  1.2501
   32SOL    HW2   96   3.055   0.104   0.193  1.2377 -0.3185 -0.6645
   33SOL     OW   97   0.940   0.300   0.591  0.1408 -0.0016 -0.4072
   33SOL    HW1   98   0.911   0.212   0.537 -1.9423  0.3607  0.8429
   33SOL    HW2   99   1.041   0.326   0.572  0.4008 -3.5837 -2.0189
   34SOL     OW  100   0.274   2.749   1.091  0.5402 -0.2914  0.5495
   34SOL    HW1  101   0.254   2.676   1.014  0.2751  1.9598 -1.2587
   34SOL    HW2  102   0.379   2.752   1.105  3.3591 -0.8803 -2.3037
   35SOL     OW  103   0.026   0.070   1.901 -0.1561 -0.2077  0.4324
   35SOL    HW1  104   0.047  -0.033   1.902 -0.8111  0.7048 -0.7106
   35SOL    HW2  105  -0.029   0.107   1.818  1.0833  0.8384  2.5377
   36SOL     OW  106   1.912   1.191   1.723  0.0525  0.3505 -0.5146
   36SOL    HW1  107   1.963   1.147   1.645 -1.4128  3.9010  0.9653
   36SOL    HW2  108   1.938   1.289   1.740  2.8302  1.1572 -2.0743
   37SOL     OW  109   1.178   0.189   0.953 -0.2824  0.6273  0.7242
   37SOL    HW1  110   1.228   0.254   1.017  0.5882  0.2298  0.9411
   37SOL    HW2  111   1.245   0.145   0.891 -1.2542  1.0786  1.0368
   38SOL     OW  112   1.070   2.817   2.495  0.6721  0.3246  0.1277
   38SOL    HW1  113   1.043   2.717   2.470 -0.0374 -1.3809  1.7991
   38SOL    HW2  114   1.017   2.887   2.445 -0.1964 -1.5350  0.9757
   39SOL     OW  115   2.327   1.406   3.033  0.3717  0.4130  0.3766
   39SOL    HW1  116   2.406   1.339   3.054 -0.5889 -2.3936  0.7296
   39SOL    HW2  117   2.269   1.420   3.120 -3.2879 -0.8119  1.2585
   40SOL     OW  118   2.040   2.427   2.537 -0.3522 -0.3895  0.4143
   40SOL    HW1  119   2.043   2.527   2.509  0.6026 -1.2386  0.1127
   40SOL    HW2  120   1.977   2.368   2.482  2.1668  0.6617 -1.8459
   41SOL     OW  121   3.039   0.693   2.842  0.1032 -0.4485 -0.0366
   41SOL    HW1  122   2.953   0.751   2.851  0.8791 -0.1308  2.2417
   41SOL    HW2  123   3.043   0.615   2.778 -1.0959  0.1478  0.5779
   42SOL     OW  124   1.791   1.741   0.485 -0.0027 -0.3105 -0.1473
   42SOL    HW1  125   1.717   1.666   0.485  1.3767  1.8457 -0.2614
   42SOL    HW2  126   1.826   1.753   0.390 -2.5917  1.7705  2.1807
   43SOL     OW  127   0.455   1.648   1.142  0.0957  0.6237  0.0067
   43SOL    HW1  128   0.442   1.541   1.143  0.3687 -0.9774  2.4795
   43SOL    HW2  129   0.383   1.696   1.092  1.3054 -2.7972 -2.0731
   44SOL     OW  130   1.761   2.502   3.012 -0.4088 -0.2387 -0.1266
   44SOL    HW1  131   1.775   2.597   2.977 -1.0541  1.1452  1.4729
   44SOL    HW2  132   1.794   2.424   2.949 -2.4338 -2.7403 -0.2685
   45SOL     OW  133   0.404   1.938   2.600 -0.3442 -0.4058  0.3240
   45SOL    HW1  134   0.364   1.911   2.509  1.1151  1.2009 -1.9675
   45SOL    HW2  135   0.475   1.876   2.637 -1.4557  2.4340  0.9525
   46SOL     OW  136   1.245   0.677   0.187 -0.3651 -0.2829 -0.2041
   46SOL    HW1  137   1.300   0.762   0.157  1.4853  2.1770  0.3916
   46SOL    HW2  138   1.149   0.700   0.225  0.4349  0.2904 -1.4210
   47SOL     OW  139   0.222   2.516   1.553 -0.1880 -0.1382  0.1804
   47SOL    HW1  140   0.148   2.449   1.565 -0.4373  1.4102 -3.3843
   47SOL    HW2  141   0.254   2.521   1.453 -0.1824  1.2436 -1.8145
   48SOL     OW  142   2.652   0.643   0.126  0.3921  0.0552 -0.4116
   48SOL    HW1  143   2.607   0.644   0.221  1.1580 -0.0752  2.5440
   48SOL    HW2  144   2.747   0.687   0.122 -2.9522  0.5058 -2.2593
   49SOL     OW  145   0.290   0.805   1.761 -0.0729 -0.3045  0.2634
   49SOL    HW1  146   0.386   0.823   1.806  1.3786 -2.2788 -1.4800
   49SOL    HW2  147   0.294   0.726   1.694 -2.4128  1.2453 -1.7969
   50SOL     OW  148   1.677   1.139   0.345  0.3256 -0.0093  0.2608
   50SOL    HW1  149   1.668   1.039   0.316 -1.9766 -0.5439  1.4375
   50SOL    HW2  150   1.605   1.172   0.414 -1.7581 -2.0206 -1.0890
   51SOL     OW  151   2.861   1.797   0.271 -0.1187 -0.5380 -0.4256
   51SOL    HW1  152   2.823   1.715   0.226 -0.9913 -2.3105 -0.5953
   51SOL    HW2  153   2.964   1.792   0.303  1.1402 -1.0664  0.6827
   52SOL     OW  154   0.769   2.016   0.513  0.2803  0.4684 -0.0023
   52SOL    HW1  155   0.689   2.066   0.558 -2.5288 -3.6955  0.9089
   52SOL    HW2  156   0.816   1.940   0.577 -0.2332 -1.4974  2.1199
   53SOL     OW  157   0.193   0.428   1.581 -0.1951  0.3878 -0.0806
   53SOL    HW1  158   0.256   0.511   1.573  2.1880 -1.5714 -0.3867
   53SOL    HW2  159   0.100   0.442   1.536 -0.9452 -0.2914  2.8559
   54SOL     OW  160   1.795   0.498   3.074 -0.0269  0.5169  0.1006
   54SOL    HW1  161   1.829   0.522   3.169 -0.7955 -0.0351 -0.1014
   54SOL    HW2  162   1.689   0.497   3.082 -3.5128 -0.7735  2.9320
   55SOL     OW  163   0.745   2.875   0.680 -0.4265 -0.8226  0.0061
   55SOL    HW1  164   0.693   2.962   0.690 -1.2859 -2.2470  3.0715
   55SOL    HW2  165   0.842   2.889   0.652 -1.4837 -1.9383 -4.0577
   56SOL     OW  166   0.566   1.582   0.026  0.5038 -0.2658 -0.2147
   56SOL    HW1  167   0.470   1.626   0.038 -0.4911 -0.2667  1.0469
   56SOL    HW2  168   0.567   1.508  -0.043  0.1941 -1.6105  0.2012
   57SOL     OW  169   1.727   2.518   2.451  0.6879 -0.2173 -0.7567
   57SOL    HW1  170   1.775   2.419   2.442 -0.9102 -1.7204  1.1477
   57SOL    HW2  171   1.652   2.525   2.517  2.5266  0.2032 -0.0268
   58SOL     OW  172   0.668   0.261   1.062  0.2259  0.6794  0.4200
   58SOL    HW1  173   0.561   0.262   1.060 -1.6621  2.6692  0.8574
   58SOL    HW2  174   0.709   0.161   1.063  0.3856  0.6534 -2.4946
   59SOL     OW  175   0.457   2.429   2.716 -0.4311 -0.4294  0.0470
   59SOL    HW1  176   0.482   2.330   2.682  0.0520  0.5358 -0.0229
   59SOL    HW2  177   0.532   2.450   2.782  1.9742 -1.7739 -2.2351
   60SOL     OW  178   2.290   2.054   2.229  0.2283  0.0847  0.1489
   60SOL    HW1  179   2.363   2.079   2.150 -0.3982 -0.0702 -1.5401
   60SOL    HW2  180   2.313   2.093   2.327  0.1290 -1.0281  2.9585
   61SOL     OW  181   1.313   0.656   0.508  0.0856  0.3663  0.1548
   61SOL    HW1  182   1.220   0.689   0.531  1.3502 -0.8831 -0.2903
   61SOL    HW2  183   1.322   0.639   0.407 -0.6802 -0.7316  0.4658
   62SOL     OW  184   2.756   1.819   2.927  0.3189 -0.2293 -0.1715
   62SOL    HW1  185   2.712   1.741   2.879 -1.8152 -1.3379  1.0228
   62SOL    HW2  186   2.847   1.847   2.874  0.4250  1.4126 -1.0261
   63SOL     OW  187   0.558   0.851   0.202  0.0644 -0.6370 -0.1695
   63SOL    HW1  188   0.580   0.917   0.128 -2.2682 -0.3277  1.2900
   63SOL    HW2  189   0.620   0.854   0.282 -2.0499 -1.9871 -1.4635
   64SOL     OW  190   0.088   0.472   2.458 -0.5182 -0.0706 -0.1868
   64SOL    HW1  191   0.156   0.543   2.485  1.9745  0.1737 -3.4953
   64SOL    HW2  192   0.026   0.502   2.372 -2.0415  1.7966 -1.8720
   65SOL     OW  193   0.145   1.525   0.535  0.0125  0.3005  0.6165
   65SOL    HW1  194   0.197   1.563   0.620 -0.6049 -0.2538  0.8155
   65SOL    HW2  195   0.209   1.507   0.451 -0.6096  1.7123 -1.9970
   66SOL     OW  196   2.561   0.358   0.616 -0.1569 -0.2877 -0.3214
   66SOL    HW1  197   2.648   0.373   0.663 -3.7332 -1.2632 -0.2898
   66SOL    HW2  198   2.500   0.292   0.668  1.0873  2.1638  1.2387
   67SOL     OW  199   0.539   2.535   1.398  0.4930 -0.6315  0.5561
   67SOL    HW1  200   0.622   2.500   1.455 -0.6226  0.7741  2.1353
   67SOL    HW2  201   0.472   2.452   1.386  1.1554 -2.3479 -0.8069
   68SOL     OW  202   0.999   1.072   2.473 -0.6356 -0.0294  0.1311
   68SOL    HW1  203   1.061   0.991   2.453 -0.7474 -0.9494 -0.5219
   68SOL    HW2  204   0.921   1.081   2.404 -2.1945 -0.4429 -0.6592
   69SOL     OW  205   0.725   2.736   2.159 -0.9224 -0.4835 -0.1672
   69SOL    HW1  206   0.765   2.639   2.145 -1.7092 -2.1679 -0.4312
   69SOL    HW2  207   0.617   2.737   2.172  0.0454  2.1349 -2.8731
   70SOL     OW  208   0.538   0.284   2.677 -0.1946  0.0210 -0.7906
   70SOL    HW1  209   0.458   0.328   2.729 -0.7144 -1.7917 -1.1235
   70SOL    HW2  210   0.531   0.180   2.681 -0.8198  2.0595  0.1911
   71SOL     OW  211   1.115   1.761   0.468 -0.2890  0.6573 -0.1312
   71SOL    HW1  212   1.072   1.670   0.510  0.0751 -2.2823  0.5845
   71SOL    HW2  213   1.059   1.788   0.387 -2.0738 -2.4335  0.0217
   72SOL     OW  214   1.827   0.210   2.167  0.3414 -0.1751 -0.2344
   72SOL    HW1  215   1.914   0.256   2.181  2.1857  0.9983 -0.1768
   72SOL    HW2  216   1.837   0.112   2.132 -1.5072  0.7051 -1.2147
   73SOL     OW  217   2.803   2.164   2.402 -0.0065 -1.0587 -0.3901
   73SOL    HW1  218   2.794   2.075   2.353  1.3630  4.3247  0.6368
   73SOL    HW2  219   2.855   2.154   2.493 -0.3670  0.2771  1.6706
   74SOL     OW  220   2.668   2.890   2.130  0.2556 -0.7692 -0.7508
   74SOL    HW1  221   2.622   2.900   2.222 -1.5778  1.2030  1.9343
   74SOL    HW2  222   2.746   2.957   2.113  0.2346 -1.5416  0.4199
   75SOL     OW  223   0.891   0.811   1.095 -0.4624  0.5630 -0.2464
   75SOL    HW1  224   0.822   0.869   1.043  2.2944  2.7110 -2.0940
   75SOL    HW2  225   0.917   0.846   1.187  2.4223  0.0955  0.4052
   76SOL     OW  226   1.693   1.165   2.507  0.6547  0.5381  0.1744
   76SOL    HW1  227   1.592   1.166   2.523  0.6146 -0.2669 -0.6588
   76SOL    HW2  228   1.745   1.253   2.515 -0.2759 -2.4256 -0.2865
   77SOL     OW  229   2.958   0.916   0.955 -0.1183  0.4081  0.2211
   77SOL    HW1  230   2.965   0.815   0.929 -2.7957  1.3350  0.7037
   77SOL    HW2  231   2.999   0.935   1.050  2.4563  3.7199 -1.3900
   78SOL     OW  232   2.038   1.486   1.487 -0.4358 -0.0056 -0.1225
   78SOL    HW1  233   2.139   1.480   1.457 -0.2736 -1.8842 -0.5835
   78SOL    HW2  234   1.975   1.516   1.410  0.8016 -0.8847 -0.5593
   79SOL     OW  235   0.595   1.381   0.827  0.5344 -0.1930  0.0216
   79SOL    HW1  236   0.504   1.389   0.876  1.7718 -1.1364 -0.3220
   79SOL    HW2  237   0.582   1.355   0.731 -0.5079  3.3117 -2.1209
   80SOL     OW  238   0.611   0.505   1.593 -0.3972  0.1718 -0.4615
   80SOL    HW1  239   0.641   0.566   1.516  0.4731 -1.2017  0.5223
   80SOL    HW2  240   0.663   0.413   1.587 -1.4238 -1.4940 -0.4528
   81SOL     OW  241   1.038   1.391   2.647  0.1329 -0.3111  0.0573
   81SOL    HW1  242   1.084   1.302   2.635 -3.9007 -1.6794 -1.5580
   81SOL    HW2  243   0.973   1.405   2.568  1.3260 -1.1510  0.8118
   82SOL     OW  244   1.004   2.972   1.519 -0.1337  0.2014 -0.5398
   82SOL    HW1  245   0.963   3.023   1.438 -2.8496  1.6713  0.8569
   82SOL    HW2  246   0.968   2.874   1.527 -0.1038  0.5251 -0.3224
   83SOL     OW  247   2.728   2.442   0.861 -0.4954 -0.3120 -0.3779
   83SOL    HW1  248   2.660   2.392   0.806 -0.9498 -1.0300  1.0737
   83SOL    HW2  249   2.736   2.543   0.833  0.2279 -2.6383  1.1832
   84SOL     OW  250   0.655   3.027   2.354  0.0656  0.2798  0.4425
   84SOL    HW1  251   0.595   3.064   2.423 -1.2238 -0.6091 -0.4699
   84SOL    HW2  252   0.702   2.936   2.379  0.7272 -0.5793 -3.9496
   85SOL     OW  253   0.265   1.556   1.484  0.0994  0.1585 -0.2530
   85SOL    HW1  254   0.243   1.649   1.440 -0.3117  2.5706  0.7400
   85SOL    HW2  255   0.344   1.556   1.558 -0.5280  1.4160  2.8999
   86SOL     OW  256   0.397   0.991   1.534  0.5916 -0.3696  0.0817
   86SOL    HW1  257   0.378   0.957   1.437 -0.9311  0.8155  1.6673
   86SOL    HW2  258   0.370   0.930   1.612  0.1335  0.5558  0.7343
   87SOL     OW  259   1.565   0.654   0.212 -0.3858 -0.6935 -0.0620
   87SOL    HW1  260   1.620   0.737   0.191 -0.3683 -0.8558 -0.7100
   87SOL    HW2  261   1.521   0.611   0.131  1.4638 -0.2376  2.9707
   88SOL     OW  262   1.568   1.388   0.237 -0.3164  0.1969  0.3103
   88SOL    HW1  263   1.611   1.296   0.257  0.3667  1.9420 -1.1254
   88SOL    HW2  264   1.468   1.384   0.209 -0.6650  0.5045 -0.7590
   89SOL     OW  265   3.098   0.461   0.582 -0.4342 -0.0629 -0.3460
   89SOL    HW1  266   3.172   0.404   0.533  1.6352 -0.3820  4.0225
   89SOL    HW2  267   3.010   0.404   0.599 -0.6032  0.9776 -1.3114
   90SOL     OW  268   0.912   1.571   0.065  0.1421 -0.4447  0.4904
   90SOL    HW1  269   0.871   1.497   0.124  0.1925  0.9444  0.0443
   90SOL    HW2  270   0.842   1.607  -0.003 -0.6006 -0.7969 -1.1469
   91SOL     OW  271   1.223   1.436   1.840  0.5234 -0.1227  0.7995
   91SOL    HW1  272   1.210   1.541   1.849 -0.1427  2.4621 -1.6920
   91SOL    HW2  273   1.327   1.417   1.825  1.3145 -1.4393 -1.2364
   92SOL     OW  274   3.085   0.965   1.223 -0.2288 -0.4828  0.4744
   92SOL    HW1  275   3.119   1.059   1.192 -0.7254 -0.4942 -0.0756
   92SOL    HW2  276   3.102   0.952   1.325  0.6345  0.9411 -0.5358
   93SOL     OW  277   0.033   2.711   3.045  0.2850  0.2200  0.0897
   93SOL    HW1  278  -0.048   2.724   2.978  0.9604 -1.3110 -1.1980
   93SOL    HW2  279   0.050   2.611   3.068  0.7475  0.0958 -1.7096
   94SOL     OW  280   1.516   1.489   1.746 -0.6395  0.0345 -0.6851
   94SOL    HW1  281   1.568   1.398   1.744  0.6725  0.7549  2.0637
   94SOL    HW2  282   1.542   1.542   1.830 -0.1368 -1.7018  0.1511
   95SOL     OW  283   1.381   2.527   2.978  0.7815 -0.2781  0.0815
   95SOL    HW1  284   1.283   2.546   3.000  2.4603 -0.8593 -0.3126
   95SOL    HW2  285   1.398   2.428   2.967  1.0440 -0.9535 -3.4299
   96SOL     OW  286   0.551   2.108   1.238  0.0790  0.4325  0.0439
   96SOL    HW1  287   0.524   2.055   1.149 -0.9097 -0.7375 -1.9480
   96SOL    HW2  288   0.617   2.054   1.301 -0.9951 -2.7750 -0.1829
   97SOL     OW  289   0.440   1.610   2.480  0.4127  0.3928  0.5019
   97SOL    HW1  290   0.346   1.573   2.485  1.3170  1.3641 -3.6370
   97SOL    HW2  291   0.475   1.658   2.566 -0.7176 -0.2228  0.9203
   98SOL     OW  292   2.026   1.597   1.203 -0.1489 -0.3335 -0.0917
   98SOL    HW1  293   1.923   1.586   1.206 -0.0003  1.0923 -3.2898
   98SOL    HW2  294   2.068   1.528   1.140  0.0663  1.6992  1.7323
   99SOL     OW  295   2.491   2.051   1.339  0.7540 -0.1832 -1.0727
   99SOL    HW1  296   2.508   2.073   1.439 -0.8333  2.2867 -1.0969
   99SOL    HW2  297   2.474   1.949   1.325  1.0624 -0.1168  0.3903
  100SOL     OW  298   2.387   0.307   2.115  0.1424 -0.0584  0.4591
  100SOL    HW1  299   2.301   0.313   2.169 -1.0545 -0.6885 -0.0765
  100SOL    HW2  300   2.459   0.372   2.136  0.6681  0.6200 -1.5030
  101SOL     OW  301   0.397   1.481   0.433 -0.1406 -0.4819  0.3809
  101SOL    HW1  302   0.456   1.480   0.516 -2.3971  1.1347  0.8668
  101SOL    HW2  303   0.436   1.541   0.358  1.6349 -4.1967  1.0391
  102SOL     OW  304   2.251   1.029   0.857  0.1090  0.3036 -0.2586
  102SOL    HW1  305   2.180   0.954   0.830 -3.0870 -0.3991  0.5485
  102SOL    HW2  306   2.282   1.086   0.777 -0.4596 -1.5945  2.3408
  103SOL     OW  307   2.257   0.073   0.405 -0.0596  0.4454  0.1448
  103SOL    HW1  308   2.280   0.174   0.408 -2.5108 -1.4093 -0.6315
  103SOL    HW2  309   2.348   0.019   0.411  1.3993 -0.2418  0.9468
  104SOL     OW  310   0.069   1.761   2.203 -0.1875  0.1766 -0.2334
  104SOL    HW1  311   0.115   1.729   2.119 -1.9851  0.0735 -1.4586
  104SOL    HW2  312  -0.023   1.805   2.182  2.8160  0.5986 -0.6584
  105SOL     OW  313   1.233   2.088   0.791  0.7580 -0.2141 -0.1090
  105SOL    HW1  314   1.186   2.128   0.708 -0.5445 -0.7690  1.5314
  105SOL    HW2  315   1.283   1.998   0.769 -1.4924 -0.6135 -2.7128
  106SOL     OW  316   2.090   0.425   1.401 -0.3028 -0.4660  0.0500
  106SOL    HW1  317   2.073   0.324   1.395 -1.0048  0.8852 -1.2926
  106SOL    HW2  318   2.078   0.461   1.498  3.3642  0.4658 -0.6506
  107SOL     OW  319   1.817   3.003   1.171 -0.0935 -0.9219  0.6912
  107SOL    HW1  320   1.821   3.087   1.233 -0.7639 -0.6669  0.5336
  107SOL    HW2  321   1.746   2.938   1.198 -0.5717 -1.0959  0.0465
  108SOL     OW  322   0.755   2.771   1.264 -0.0744 -0.7393  0.1313
  108SOL    HW1  323   0.768   2.741   1.363 -0.6914 -1.9873  0.8994
  108SOL    HW2  324   0.847   2.809   1.225  1.5651 -0.7284  1.5709
  109SOL     OW  325   2.129   0.100   0.800 -0.0098 -0.0690  0.2324
  109SOL    HW1  326   2.032   0.094   0.759 -0.3042 -0.2975  2.1820
  109SOL    HW2  327   2.137   0.062   0.896  0.0123  0.5635  0.2207
  110SOL     OW  328   0.453   2.831   2.796 -0.7762  0.4734 -0.2090
  110SOL    HW1  329   0.427   2.823   2.694  0.2444  0.7799 -1.9286
  110SOL    HW2  330   0.548   2.782   2.813  3.0823 -0.1590  0.2951
  111SOL     OW  331   1.316   0.545   2.315  0.0240 -0.6863 -0.1290
  111SOL    HW1  332   1.214   0.561   2.329 -1.4982 -1.2724 -1.3085
  111SOL    HW2  333   1.348   0.460   2.364 -0.4374  1.1951 -0.4624
  112SOL     OW  334   1.672   0.524   1.442 -0.8914 -0.3169 -0.0119
  112SOL    HW1  335   1.730   0.504   1.358  0.2159 -0.4605 -0.5777
  112SOL    HW2  336   1.663   0.448   1.519  2.0942 -0.1917  3.0282
  113SOL     OW  337   2.306   1.665   1.760  0.3183 -0.0246  0.1602
  113SOL    HW1  338   2.361   1.588   1.716  0.2328  2.5885 -1.3915
  113SOL    HW2  339   2.332   1.680   1.860 -0.1385  1.1121 -0.0258
  114SOL     OW  340   0.407   0.550   1.254  0.4458  0.2134  0.2277
  114SOL    HW1  341   0.431   0.607   1.165 -1.9813  1.4603  0.3862
  114SOL    HW2  342   0.306   0.557   1.282 -2.1458  1.0707 -0.3242
  115SOL     OW  343   2.731   1.599   1.226 -0.1195  0.3016 -0.9554
  115SOL    HW1  344   2.738   1.500   1.235  0.8598  0.5784 -1.9395
  115SOL    HW2  345   2.754   1.630   1.127  1.2792  0.4260 -0.7700
  116SOL     OW  346   1.803   1.061   0.678 -0.5255  0.3057 -0.3729
  116SOL    HW1  347   1.735   0.998   0.631  3.3641 -0.6555 -1.2987
  116SOL    HW2  348   1.768   1.131   0.747  0.6157  1.3596 -2.9457
  117SOL     OW  349   1.224   0.366   0.560 -0.2900 -0.3559  0.4692
  117SOL    HW1  350   1.245   0.444   0.630 -0.4419  1.0300  1.3370
  117SOL    HW2  351   1.261   0.388   0.470 -1.8575 -3.0270 -2.1942
  118SOL     OW  352   1.160   1.102   1.117  0.5926 -0.4621  0.5434
  118SOL    HW1  353   1.137   1.026   1.176 -0.2674  0.5668 -4.0767
  118SOL    HW2  354   1.131   1.199   1.152  0.9371 -0.4904 -2.6118
  119SOL     OW  355   1.817   1.599   2.172  0.1161  0.3612  0.3903
  119SOL    HW1  356   1.800   1.696   2.149 -0.7450  0.6801  2.3630
  119SOL    HW2  357   1.912   1.565   2.141  0.8432 -0.5741 -1.7947
  120SOL     OW  358   2.955   2.886   0.113  0.0788 -0.0316  0.0833
  120SOL    HW1  359   3.023   2.846   0.048 -0.6761  2.6058 -0.7383
  120SOL    HW2  360   2.870   2.826   0.139 -0.8937 -0.8157  2.5154
  121SOL     OW  361   2.005   0.750   2.200  0.0909 -0.0357  0.2085
  121SOL    HW1  362   1.968   0.804   2.116  0.7733 -0.5417 -0.0318
  121SOL    HW2  363   1.990   0.649   2.190  0.0163 -0.5233 -1.1432
  122SOL     OW  364   2.589   2.642   1.266 -0.2814 -0.3104  0.7319
  122SOL    HW1  365   2.626   2.558   1.215  1.2943 -3.2799  0.2566
  122SOL    HW2  366   2.485   2.638   1.270  0.3528  0.1457 -1.3860
  123SOL     OW  367   1.734   0.079   1.695  0.3185  0.5105 -0.2696
  123SOL    HW1  368   1.749  -0.017   1.648 -2.2531 -1.9069  0.1600
  123SOL    HW2  369   1.819   0.108   1.739 -0.3381 -2.9904 -1.8543
  124SOL     OW  370   0.082   0.478   1.096 -0.1403 -0.1777  0.1282
  124SOL    HW1  371   0.105   0.552   1.158 -0.0619  0.7398 -0.2717
  124SOL    HW2  372   0.064   0.507   0.993 -0.9292  0.0047 -3.5747
  125SOL     OW  373   0.865   1.825   0.690  0.1007  0.3712 -0.1155
  125SOL    HW1  374   0.958   1.808   0.734 -0.6475  0.2946  2.0731
  125SOL    HW2  375   0.794   1.863   0.760 -1.6246 -0.8041  0.7956
  126SOL     OW  376   1.858   2.268   2.403  0.0418  0.2889 -1.0064
  126SOL    HW1  377   1.908   2.233   2.319 -1.1829  1.5450 -2.7009
  126SOL    HW2  378   1.804   2.192   2.454 -0.2443  1.3255  0.2801
  127SOL     OW  379   1.025   0.896   0.262  0.3116  0.2846 -0.4752
  127SOL    HW1  380   1.027   0.950   0.350  0.6843 -0.5354 -0.1019
  127SOL    HW2  381   0.986   0.798   0.282  2.9063 -0.3845 -1.4287
  128SOL     OW  382   0.929   0.216   1.400  0.4708  0.2959 -0.6959
  128SOL    HW1  383   0.916   0.293   1.326  0.9799 -2.1248  2.3478
  128SOL    HW2  384   0.907   0.116   1.370  2.6846 -2.3181  0.1592
  129SOL     OW  385   1.836   0.685   1.883  0.1591 -0.5185  0.3302
  129SOL    HW1  386   1.836   0.674   1.774 -0.8117  0.0484 -3.0652
  129SOL    HW2  387   1.872   0.778   1.914 -0.6543 -1.0356  1.6281
  130SOL     OW  388   1.379   2.183   1.013  0.5822 -0.4111 -0.0960
  130SOL    HW1  389   1.319   2.140   0.938 -0.8895  1.1140 -0.5670
  130SOL    HW2  390   1.456   2.247   0.976 -0.5033 -1.2226 -2.9954
  131SOL     OW  391   3.044   1.453   1.406 -0.8476 -0.0459 -0.3380
  131SOL    HW1  392   3.000   1.358   1.402  1.4983 -2.1245  1.0193
  131SOL    HW2  393   3.148   1.451   1.407 -0.0144 -1.9159 -0.2917
  132SOL     OW  394   2.060   2.434   0.526 -0.1519 -0.2210  0.2005
  132SOL    HW1  395   1.955   2.460   0.514 -0.7403  0.9158 -0.2405
  132SOL    HW2  396   2.075   2.362   0.596 -1.4481 -2.3020 -0.8455
  133SOL     OW  397   1.862   2.327   2.815 -0.2985 -0.0303 -0.4725
  133SOL    HW1  398   1.788   2.369   2.753  0.2900 -1.2757 -2.4841
  133SOL    HW2  399   1.954   2.375   2.808 -1.6833  3.1576 -5.0394
  134SOL     OW  400   2.654   2.356   1.600 -0.0679 -0.3355 -0.5109
  134SOL    HW1  401   2.578   2.345   1.670 -1.5603  1.9054 -1.5565
  134SOL    HW2  402   2.714   2.442   1.611 -0.6990 -0.5132 -0.0851
  135SOL     OW  403   0.649   1.460   2.643  0.4031  0.1494 -0.6450
  135SOL    HW1  404   0.620   1.366   2.679 -2.7939 -0.0258  0.4474
  135SOL    HW2  405   0.716   1.456   2.571  0.8954 -1.6188  3.4546
  136SOL     OW  406   1.218   2.027   0.418  0.5804 -0.0427  0.1257
  136SOL    HW1  407   1.143   2.104   0.426  1.3716  0.1878  0.5833
  136SOL    HW2  408   1.196   1.940   0.473  0.3092 -0.4955 -0.4406
  137SOL     OW  409   0.404   1.194   2.147 -0.2327 -0.0719  0.0058
  137SOL    HW1  410   0.317   1.167   2.190  1.4628  3.2696  0.3710
  137SOL    HW2  411   0.490   1.151   2.189  0.2007  2.1433 -1.6673
  138SOL     OW  412   2.493   1.494   0.229  0.2210 -0.5830  0.4497
  138SOL    HW1  413   2.389   1.482   0.217 -1.9969 -0.7748  0.7925
  138SOL    HW2  414   2.547   1.424   0.286  1.9028  0.1677 -0.9742
  139SOL     OW  415   1.836   2.600   1.305  0.2146 -0.1383  0.4100
  139SOL    HW1  416   1.731   2.599   1.289 -0.4618 -0.6974 -0.0690
  139SOL    HW2  417   1.864   2.501   1.336 -1.0188 -0.4679  2.0606
  140SOL     OW  418   3.045   3.007   2.550  0.6116  0.4169 -0.0016
  140SOL    HW1  419   3.083   2.910   2.536 -0.6320  1.3091  0.5158
  140SOL    HW2  420   3.108   3.087   2.530  0.2422 -0.3562  1.3796
  141SOL     OW  421   1.343   1.657   1.599  0.0062 -0.1709  0.2741
  141SOL    HW1  422   1.251   1.687   1.639  1.6169  0.7042  0.7632
  141SOL    HW2  423   1.400   1.598   1.664  0.6094  2.2012  1.9766
  142SOL     OW  424   1.576   0.609   2.258 -0.3104  0.5901  0.3144
  142SOL    HW1  425   1.587   0.599   2.151 -3.0236 -2.2270 -0.5085
  142SOL    HW2  426   1.482   0.575   2.288 -1.1428 -1.8474  0.1218
  143SOL     OW  427   2.691   0.893   0.497  0.0028 -0.2301  0.4498
  143SOL    HW1  428   2.739   0.921   0.410 -2.3628  0.3322  1.8441
  143SOL    HW2  429   2.730   0.938   0.578 -1.6882 -1.1555 -2.0499
  144SOL     OW  430   2.909   1.171   1.461  0.2222  0.3937  0.3025
  144SOL    HW1  431   2.868   1.139   1.554 -5.0933  1.1924  0.5791
  144SOL    HW2  432   2.978   1.104   1.425  2.2817 -0.0125 -0.5083
  145SOL     OW  433   0.971   1.821   0.200 -0.0519  0.4191  0.6612
  145SOL    HW1  434   1.050   1.864   0.150 -0.7787  0.2203 -0.3561
  145SOL    HW2  435   0.930   1.737   0.153  2.5776  0.2698 -0.3067
  146SOL     OW  436   2.521   0.642   1.493  0.1738 -0.6248  0.2706
  146SOL    HW1  437   2.466   0.565   1.444  0.1074 -0.1149 -3.5054
  146SOL    HW2  438   2.468   0.732   1.471 -2.4127 -0.4699 -3.8151
  147SOL     OW  439   1.110   2.489   0.637  0.5527  0.1213 -0.7514
  147SOL    HW1  440   1.061   2.529   0.559  1.8614 -3.5098 -0.6584
  147SOL    HW2  441   1.192   2.433   0.609 -3.5538  1.8038 -2.1268
  148SOL     OW  442   1.618   1.469   3.067 -0.0557  0.1132  0.6222
  148SOL    HW1  443   1.627   1.374   3.020  0.0034  0.0234  2.1642
  148SOL    HW2  444   1.611   1.470   3.173  0.0849 -2.6085  1.9158
  149SOL     OW  445   0.707   1.386   1.984 -0.1458  0.3502  0.0558
  149SOL    HW1  446   0.607   1.368   2.001 -0.2490 -1.9605  0.7786
  149SOL    HW2  447   0.740   1.344   1.894  2.6152 -1.5111 -0.3124
  150SOL     OW  448   3.009   1.219   0.945 -0.0631 -0.1365 -0.0008
  150SOL    HW1  449   3.090   1.215   1.006 -1.0452  3.2783 -2.1015
  150SOL    HW2  450   2.997   1.129   0.898  2.0095  0.6293  1.5079
  151SOL     OW  451   0.152   0.714   2.105 -0.2278 -0.9692 -0.5548
  151SOL    HW1  452   0.149   0.814   2.075 -3.9455 -1.5156 -1.2971
  151SOL    HW2  453   0.197   0.657   2.033 -0.1958 -0.1433  0.4465
  152SOL     OW  454   1.454   1.775   1.292  0.6171  0.4140 -0.3798
  152SOL    HW1  455   1.504   1.862   1.255  0.8999 -0.6207 -0.1471
  152SOL    HW2  456   1.354   1.775   1.270  0.1125  0.5522 -1.0650
  153SOL     OW  457   0.066   1.548   0.150  0.5039  0.3949 -0.0505
  153SOL    HW1  458   0.089   1.448   0.166  1.3014  0.3151 -2.4137
  153SOL    HW2  459   0.048   1.596   0.242 -0.7771  0.8252  1.1088
  154SOL     OW  460   2.385   1.824   2.824 -0.0621 -0.2540  0.1789
  154SOL    HW1  461   2.410   1.721   2.847  1.0372 -1.1460  2.3075
  154SOL    HW2  462   2.434   1.858   2.738  0.6824  0.0046 -0.7288
  155SOL     OW  463   2.465   1.193   0.390  0.1618  0.0290  0.6043
  155SOL    HW1  464   2.508   1.152   0.306 -2.5005 -2.1190  1.4880
  155SOL    HW2  465   2.368   1.225   0.369  1.8607  0.8695 -2.5646
  156SOL     OW  466   2.551   0.981   0.831  0.3195 -0.6687 -0.0523
  156SOL    HW1  467   2.486   1.018   0.905  0.2294  1.5881 -0.7242
  156SOL    HW2  468   2.554   1.047   0.753 -0.5309 -2.2496  0.9565
  157SOL     OW  469   1.258   2.936   3.012 -0.5543 -0.0479 -0.3676
  157SOL    HW1  470   1.340   2.894   2.970  2.1537 -0.4040 -1.2868
  157SOL    HW2  471   1.277   3.033   3.041 -0.9512 -0.6739 -0.7923
  158SOL     OW  472   0.977   1.837   1.913 -0.6718  0.6149  0.2129
  158SOL    HW1  473   0.990   1.937   1.889 -0.5446 -0.0718  1.7105
  158SOL    HW2  474   0.887   1.822   1.956  1.6612 -0.7862 -1.4103
  159SOL     OW  475   0.856   0.393   1.219  0.7358 -0.8177  0.0763
  159SOL    HW1  476   0.814   0.477   1.276 -0.0338  0.8121  0.5754
  159SOL    HW2  477   0.787   0.351   1.153 -0.1063  1.7642 -1.1481
  160SOL     OW  478   1.415   2.362   1.575 -0.0778  0.4547  0.5283
  160SOL    HW1  479   1.370   2.295   1.635 -1.2052  1.2511 -2.4377
  160SOL    HW2  480   1.516   2.348   1.560  0.4085 -3.6879 -0.8844
  161SOL     OW  481   0.074   2.950   0.370  0.4112 -0.0423  0.7227
  161SOL    HW1  482  -0.005   2.880   0.357 -3.0690 -0.5114  0.8684
  161SOL    HW2  483   0.074   3.039   0.320  1.0790 -0.1040  1.7003
  162SOL     OW  484   2.585   1.881   0.481 -0.2165 -0.0921 -0.3082
  162SOL    HW1  485   2.562   1.828   0.393  1.6086  1.3269  0.9923
  162SOL    HW2  486   2.597   1.813   0.563 -2.7967 -0.4454 -1.5370
  163SOL     OW  487   1.918   2.825   0.717  0.0226 -0.2494 -0.2154
  163SOL    HW1  488   1.908   2.834   0.614  0.6538  0.2889 -0.3766
  163SOL    HW2  489   1.983   2.745   0.747  1.8796 -1.5851  0.8138
  164SOL     OW  490   3.056   0.243   1.242 -0.3600 -0.5281  0.3914
  164SOL    HW1  491   3.092   0.326   1.198 -2.1620 -0.4908 -1.5289
  164SOL    HW2  492   3.111   0.211   1.320  2.1712  0.7283  0.9896
  165SOL     OW  493   0.978   1.404   0.740 -0.5381 -0.9482 -0.3819
  165SOL    HW1  494   0.936   1.469   0.806  1.1586 -2.1303 -2.8684
  165SOL    HW2  495   0.970   1.437   0.636 -2.6374  1.8616  0.1689
  166SOL     OW  496   1.534   1.059   1.740  0.3194  0.5337  0.0933
  166SOL    HW1  497   1.463   1.027   1.812 -1.0183 -1.6311  0.5127
  166SOL    HW2  498   1.606   1.129   1.774  2.0238  1.1210  0.2285
  167SOL     OW  499   0.727   2.005   1.419  0.3619  0.3214  0.0301
  167SOL    HW1  500   0.758   2.058   1.501 -0.7037  1.6702  0.1379
  167SOL    HW2  501   0.675   1.918   1.447 -2.8382 -0.0245  0.9158
  168SOL     OW  502   1.668   2.357   0.156 -0.2915 -0.0597 -0.0775
  168SOL    HW1  503   1.743   2.420   0.111  1.9904  2.0238 -4.1476
  168SOL    HW2  504   1.685   2.319   0.255 -1.7179 -0.3866  2.3247
  169SOL     OW  505   0.220   2.562   2.247 -0.0769 -0.0857 -0.5321
  169SOL    HW1  506   0.246   2.523   2.154  2.7257  1.2419 -3.2058
  169SOL    HW2  507   0.232   2.498   2.329 -2.8515  0.1976  1.1912
  170SOL     OW  508   1.130   0.205   2.043 -0.4548 -0.1351  0.5017
  170SOL    HW1  509   1.207   0.205   2.114  3.1775  0.7434 -0.1481
  170SOL    HW2  510   1.164   0.165   1.950  2.3606 -1.0150 -1.5291
  171SOL     OW  511   0.186   0.778   2.370 -0.0981 -0.1804 -0.1129
  171SOL    HW1  512   0.107   0.830   2.406  1.0407  0.3926 -2.5622
  171SOL    HW2  513   0.178   0.771   2.268 -1.3824  2.4785 -0.1866
  172SOL     OW  514   0.941   1.009   2.867  0.4340  0.5198 -0.6356
  172SOL    HW1  515   0.977   1.100   2.904  0.2580 -0.0139  0.1765
  172SOL    HW2  516   0.885   1.017   2.780 -1.6882  1.5389  0.8694
  173SOL     OW  517   0.671   2.685   0.126 -0.0969 -0.1313 -0.3369
  173SOL    HW1  518   0.626   2.778   0.153  1.0185 -4.0734  2.1854
  173SOL    HW2  519   0.615   2.631   0.054  1.1416  0.5030 -1.2575
  174SOL     OW  520   1.507   2.827   1.046  0.0740  0.4280  0.1032
  174SOL    HW1  521   1.488   2.912   0.993  4.2230 -0.9127  1.4348
  174SOL    HW2  522   1.469   2.734   1.004  0.8519 -2.3834 -1.5687
  175SOL     OW  523   0.438   3.077   1.667  0.6952 -0.6069  0.4724
  175SOL    HW1  524   0.494   3.116   1.744 -0.5120  1.9594 -1.0355
  175SOL    HW2  525   0.400   3.157   1.608 -2.1402  0.3675 -0.3655
  176SOL     OW  526   2.606   0.386   0.004 -0.2999 -0.0891 -0.1688
  176SOL    HW1  527   2.595   0.473   0.060 -1.2999 -0.8614  2.0312
  176SOL    HW2  528   2.578   0.302   0.064  0.3447 -0.0099 -0.0686
  177SOL     OW  529   0.335   0.310   0.946 -0.1209  0.0216 -0.9184
  177SOL    HW1  530   0.259   0.235   0.943 -1.4230 -1.4883  0.0377
  177SOL    HW2  531   0.337   0.366   1.036 -1.6730  1.0819 -0.5682
  178SOL     OW  532   0.022   2.748   2.582  0.3344 -0.2089 -0.3421
  178SOL    HW1  533  -0.040   2.671   2.610 -2.2994  1.3651  1.0118
  178SOL    HW2  534   0.097   2.760   2.654 -0.8783 -0.9674 -0.1565
  179SOL     OW  535   3.063   1.574   1.132 -0.0840 -0.8114 -0.4074
  179SOL    HW1  536   3.026   1.671   1.137 -0.7802  2.3280  4.3829
  179SOL    HW2  537   3.032   1.517   1.216 -0.0831  0.2937  0.4193
  180SOL     OW  538   0.180   1.213   1.858 -0.2404  0.6999  0.0353
  180SOL    HW1  539   0.285   1.195   1.853  1.3010  0.8297 -4.0190
  180SOL    HW2  540   0.159   1.315   1.877  0.5331 -1.6269 -2.8901
  181SOL     OW  541   3.039   1.841   2.483 -0.5341 -0.3070 -0.0520
  181SOL    HW1  542   3.099   1.925   2.501 -0.3838  0.0146 -1.6456
  181SOL    HW2  543   2.965   1.862   2.418  0.9942  0.7319  1.3025
  182SOL     OW  544   2.310   1.303   1.170  0.6172 -0.7752 -0.3088
  182SOL    HW1  545   2.230   1.247   1.138  1.5976  0.5418  0.9120
  182SOL    HW2  546   2.305   1.396   1.135  0.7641 -0.6682  1.6921
  183SOL     OW  547   1.461   2.249   2.599 -0.8334 -0.2370 -0.0401
  183SOL    HW1  548   1.362   2.235   2.603 -0.5983 -1.1693 -0.1793
  183SOL    HW2  549   1.525   2.164   2.606 -0.8094  0.3068  0.8441
  184SOL     OW  550   1.986   0.860   0.747 -0.3194  0.3131 -0.2617
  184SOL    HW1  551   1.907   0.923   0.709 -1.0250 -0.5124 -3.2021
  184SOL    HW2  552   1.950   0.779   0.806  0.0067 -0.3862 -2.0411
  185SOL     OW  553   1.632   2.773   2.030 -0.0864  0.5021 -0.9394
  185SOL    HW1  554   1.549   2.833   2.030  0.4667  0.6533 -0.4526
  185SOL    HW2  555   1.665   2.759   2.129 -0.1710 -1.1158 -2.4802
  186SOL     OW  556   0.107   2.240   1.662  0.0076  0.6042 -0.0445
  186SOL    HW1  557   0.090   2.294   1.755  3.0564 -1.4106  1.2603
  186SOL    HW2  558   0.186   2.174   1.679  2.1135  1.2634  0.0059
  187SOL     OW  559   1.295   0.725   1.678  0.5148 -0.9935 -0.3163
  187SOL    HW1  560   1.360   0.753   1.605 -2.7246 -3.3009 -0.3634
  187SOL    HW2  561   1.341   0.730   1.770 -0.0525  1.4170 -0.5013
  188SOL     OW  562   2.765   2.756   1.420  0.1085 -0.2032  0.0667
  188SOL    HW1  563   2.725   2.848   1.446  1.5669 -1.7994 -0.2867
  188SOL    HW2  564   2.708   2.717   1.343  1.0284  0.4485 -1.5364
  189SOL     OW  565   0.944   1.205   1.433  0.0547 -0.2159  0.0639
  189SOL    HW1  566   1.016   1.239   1.504  2.9880 -0.1621  2.9403
  189SOL    HW2  567   0.891   1.279   1.387 -1.6573  1.0750  1.4116
  190SOL     OW  568   1.460   1.916   1.609 -0.2518 -0.0213  0.4701
  190SOL    HW1  569   1.407   1.823   1.614 -2.0763  2.9425  2.0637
  190SOL    HW2  570   1.528   1.942   1.685  1.7013  0.0008 -0.4430
  191SOL     OW  571   0.952   0.721   1.579 -0.3893 -0.0912 -0.3956
  191SOL    HW1  572   1.023   0.646   1.590 -0.5124  0.6477  1.0434
  191SOL    HW2  573   0.928   0.764   1.667  1.1051 -1.0980  0.4636
  192SOL     OW  574   1.862   2.252   1.102 -0.2364  0.4010 -0.1756
  192SOL    HW1  575   1.779   2.305   1.068 -1.0435  0.6869 -1.7803
  192SOL    HW2  576   1.944   2.267   1.042  1.7460  0.5771  0.3085
  193SOL     OW  577   0.592   0.582   0.463 -0.1346 -0.0023 -0.4870
  193SOL    HW1  578   0.532   0.514   0.519 -1.4756  0.2845  1.3073
  193SOL    HW2  579   0.612   0.559   0.367 -1.8978  1.7613  0.1837
  194SOL     OW  580   0.324   0.912   1.283 -0.0924  0.2970 -0.3385
  194SOL    HW1  581   0.251   0.841   1.269 -0.6637  0.7186  2.1377
  194SOL    HW2  582   0.347   0.969   1.195  1.4859 -1.8725 -0.1526
  195SOL     OW  583   1.002   2.913   0.539  0.1101  0.6917 -0.2869
  195SOL    HW1  584   1.028   2.821   0.493  0.6433  3.0344 -0.3452
  195SOL    HW2  585   1.085   2.954   0.592 -1.1117  3.1407  1.3228
  196SOL     OW  586   0.219   1.328   1.379  0.0966 -0.2959 -0.4127
  196SOL    HW1  587   0.246   1.414   1.435  3.8405  0.0339 -0.0106
  196SOL    HW2  588   0.197   1.247   1.440  0.6379  0.4917  0.0812
  197SOL     OW  589   0.820   2.078   0.253  0.4506 -0.3666  0.5669
  197SOL    HW1  590   0.783   2.057   0.347 -0.1272  1.8781  0.6895
  197SOL    HW2  591   0.874   2.001   0.212  1.1312 -0.4988  0.0001
  198SOL     OW  592   0.292   1.263   0.260 -0.2257  0.2433  0.5937
  198SOL    HW1  593   0.185   1.260   0.260  2.1340  0.7960  0.8306
  198SOL    HW2  594   0.333   1.326   0.329  0.3812  0.5541 -1.4107
  199SOL     OW  595   2.282   0.364   2.510  0.3357  0.0884 -0.5674
  199SOL    HW1  596   2.206   0.329   2.576 -1.6008 -1.9247  1.7482
  199SOL    HW2  597   2.375   0.355   2.549 -0.2869 -2.4597 -2.4753
  200SOL     OW  598   0.025   2.922   0.751 -0.5894  0.5268 -0.5681
  200SOL    HW1  599  -0.070   2.925   0.705 -2.4264  3.0864 -0.5785
  200SOL    HW2  600   0.090   2.975   0.693  2.1099 -0.1614 -1.5265
  201SOL     OW  601   1.094   0.745   0.601  0.2679  0.1028  0.2582
  201SOL    HW1  602   1.108   0.782   0.699  3.5035  4.5161  0.1226
  201SOL    HW2  603   0.996   0.704   0.591 -0.9243  2.0173 -1.7248
  202SOL     OW  604   0.426   1.098   1.891  0.2297 -0.6413  0.4520
  202SOL    HW1  605   0.493   1.032   1.857 -1.9338 -0.2835  3.2868
  202SOL    HW2  606   0.424   1.113   1.990 -1.6760  0.2569 -0.2758
  203SOL     OW  607   0.655   0.214   1.518 -0.1432  0.0468 -0.3620
  203SOL    HW1  608   0.729   0.176   1.459 -0.1214  2.7126  0.8428
  203SOL    HW2  609   0.662   0.191   1.617  0.3370  0.5511 -0.2394
  204SOL     OW  610   2.078   1.815   2.881 -0.1059 -0.7947 -0.3813
  204SOL    HW1  611   2.092   1.719   2.913  1.0954  1.1558  0.8582
  204SOL    HW2  612   2.170   1.861   2.855  2.8534 -1.3962  1.2945
  205SOL     OW  613   1.830   1.876   3.038  0.1074  0.3100 -0.5433
  205SOL    HW1  614   1.906   1.835   2.979 -0.8183  3.6554  0.0435
  205SOL    HW2  615   1.833   1.981   3.039  1.4741  0.4843  0.1678
  206SOL     OW  616   2.499   2.814   0.327 -0.1008  0.5300 -0.0627
  206SOL    HW1  617   2.556   2.758   0.391  0.5924 -0.7574  0.8159
  206SOL    HW2  618   2.556   2.875   0.268  0.1335 -0.7368 -0.5308
  207SOL     OW  619   0.659   1.816   3.009  0.5998  0.3386 -0.0698
  207SOL    HW1  620   0.738   1.764   2.969  0.6368  0.3532  0.1714
  207SOL    HW2  621   0.621   1.762   3.087 -0.3157  1.0230  0.9845
  208SOL     OW  622   1.092   1.565   1.380 -0.2593  0.5282  0.2498
  208SOL    HW1  623   1.083   1.640   1.313 -1.2958 -0.5438  2.1938
  208SOL    HW2  624   1.136   1.600   1.467  1.6621  0.2834  0.3941
  209SOL     OW  625   0.214   0.928   3.040  0.1447 -0.2214 -0.3145
  209SOL    HW1  626   0.200   0.863   2.959  1.9626  0.3606 -0.1943
  209SOL    HW2  627   0.241   0.882   3.129  0.1332 -0.5374 -1.8501
  210SOL     OW  628   1.789   0.486   1.189 -0.5314 -0.3557  0.2854
  210SOL    HW1  629   1.744   0.582   1.170 -0.1498 -0.1560 -1.2936
  210SOL    HW2  630   1.891   0.486   1.173  2.1184 -2.4796  0.3906
  211SOL     OW  631   2.122   1.081   1.562 -0.2451  0.6445  0.5800
  211SOL    HW1  632   2.153   1.025   1.645 -0.9943 -0.8141 -1.6428
  211SOL    HW2  633   2.196   1.127   1.503  0.3564  3.4969  0.6460
  212SOL     OW  634   0.034   0.959   1.484 -0.1303  0.0226  0.3344
  212SOL    HW1  635   0.093   1.040   1.513 -0.8345  0.2687 -1.0795
  212SOL    HW2  636   0.026   0.895   1.566  1.7008 -0.5668  1.0667
  213SOL     OW  637   2.828   0.245   0.378 -0.1353 -0.5274 -0.1655
  213SOL    HW1  638   2.853   0.186   0.304  0.3084  1.7439 -0.3766
  213SOL    HW2  639   2.755   0.307   0.339 -2.3956 -1.4400 -2.6416
  214SOL     OW  640   2.158   0.241   2.286  0.2710 -0.3769 -0.1419
  214SOL    HW1  641   2.206   0.254   2.380  3.2885  2.7155 -1.0069
  214SOL    HW2  642   2.120   0.145   2.268  0.3450 -0.9152 -2.0867
  215SOL     OW  643   1.617   2.259   2.122 -0.5654  0.1982 -0.1301
  215SOL    HW1  644   1.715   2.252   2.085  0.6657 -1.7933  0.2714
  215SOL    HW2  645   1.586   2.356   2.144  1.3169 -2.1521  2.1273
  216SOL     OW  646   2.197   0.621   0.670 -0.5105 -0.3829  0.7376
  216SOL    HW1  647   2.155   0.529   0.643  0.1181 -1.4728 -2.4712
  216SOL    HW2  648   2.126   0.692   0.660  2.3009 -0.1543 -0.5367
  217SOL     OW  649   0.758   2.775   2.432 -0.0694 -0.2258 -0.1604
  217SOL    HW1  650   0.754   2.686   2.487 -0.8062 -1.7128 -2.7100
  217SOL    HW2  651   0.786   2.751   2.336  0.3437 -0.5251  0.0890
  218SOL     OW  652   1.904   1.426   0.021 -0.2950 -0.1995 -0.5370
  218SOL    HW1  653   1.808   1.442   0.002 -0.6904  1.5161  3.5323
  218SOL    HW2  654   1.917   1.353   0.093 -0.6088 -0.5029  2.8696
  219SOL     OW  655   2.414   1.279   2.544  0.4893 -0.4916 -0.3081
  219SOL    HW1  656   2.459   1.249   2.455 -0.3403  1.9373  0.2945
  219SOL    HW2  657   2.412   1.198   2.614 -1.4429 -3.1685 -1.0118
  220SOL     OW  658   1.495   1.051   1.258 -0.0825  0.0053 -0.4000
  220SOL    HW1  659   1.595   1.076   1.278  1.3144  0.1286 -0.4532
  220SOL    HW2  660   1.487   1.039   1.154  1.1476  0.5077 -0.6472
  221SOL     OW  661   1.339   1.003   2.200 -0.6771  0.0697 -0.1448
  221SOL    HW1  662   1.299   1.018   2.108 -2.1485  0.1454  0.5144
  221SOL    HW2  663   1.435   0.966   2.194 -0.9792  2.5411  1.3496
  222SOL     OW  664   1.101   0.008   1.166 -0.2556  0.0421 -0.0001
  222SOL    HW1  665   1.151   0.043   1.244  0.2735  1.5794 -1.5511
  222SOL    HW2  666   1.121   0.057   1.078  0.9210  0.1574 -0.3202
  223SOL     OW  667   2.747   0.928   2.052  0.0697  0.5016  0.5129
  223SOL    HW1  668   2.706   0.991   2.125 -1.2265  0.5051  1.4886
  223SOL    HW2  669   2.851   0.930   2.054 -1.1555 -0.2922  1.9218
  224SOL     OW  670   1.520   1.044   2.780  0.1072  0.1946  0.0222
  224SOL    HW1  671   1.574   0.978   2.724 -1.7957 -0.4594 -0.4788
  224SOL    HW2  672   1.460   1.107   2.714 -0.9595  1.8499 -1.8019
  225SOL     OW  673   2.928   2.767   2.871 -0.1705 -0.0898  0.0668
  225SOL    HW1  674   2.893   2.690   2.814  0.9088  1.4376  1.0567
  225SOL    HW2  675   3.003   2.819   2.816  1.3095 -2.2085 -2.6651
  226SOL     OW  676   2.489   1.570   2.871  0.3176  0.2106  0.2551
  226SOL    HW1  677   2.526   1.557   2.772  2.9509  1.6563 -0.5568
  226SOL    HW2  678   2.431   1.490   2.906  5.0310  0.5572 -0.2798
  227SOL     OW  679   0.854   0.146   0.023  0.5083 -0.2435  0.5986
  227SOL    HW1  680   0.893   0.094   0.103  0.8700 -1.7051 -0.8862
  227SOL    HW2  681   0.833   0.099  -0.065 -2.7567 -0.0687  0.4999
  228SOL     OW  682   2.399   0.631   2.854  0.5748 -0.4115 -0.2092
  228SOL    HW1  683   2.362   0.646   2.762  0.0787 -0.3580  1.0581
  228SOL    HW2  684   2.487   0.576   2.856 -2.0056 -0.0694 -1.4398
  229SOL     OW  685   0.584   0.462   1.868 -0.1894  0.1481  0.1236
  229SOL    HW1  686   0.594   0.357   1.871 -2.4303  2.4548  3.6994
  229SOL    HW2  687   0.587   0.492   1.766 -0.7161  2.2702  1.8106
  230SOL     OW  688   1.890   1.135   2.069  0.3793  0.4987 -0.3016
  230SOL    HW1  689   1.969   1.193   2.045 -0.0418  0.5397 -3.1304
  230SOL    HW2  690   1.808   1.189   2.099 -0.0384 -2.2866 -1.9299
  231SOL     OW  691   0.644   1.023   3.089 -0.7808  0.1604  0.6452
  231SOL    HW1  692   0.727   1.079   3.100  0.9352 -4.0534  2.5971
  231SOL    HW2  693   0.555   1.076   3.094  0.5703  2.0787  1.2325
  232SOL     OW  694   2.352   3.089   2.881 -0.0246  0.1502  0.5790
  232SOL    HW1  695   2.398   2.995   2.877 -0.2673  0.4313  1.9675
  232SOL    HW2  696   2.371   3.146   2.799  1.2054  0.2046  0.2675
  233SOL     OW  697   1.705   1.292   1.152 -0.0536 -0.1880  0.0956
  233SOL    HW1  698   1.712   1.273   1.051 -1.1480 -0.4821 -2.8965
  233SOL    HW2  699   1.757   1.223   1.212  3.2494 -0.7260 -0.5948
  234SOL     OW  700   1.564   2.556   1.867 -0.1882 -0.7075  0.3550
  234SOL    HW1  701   1.590   2.640   1.925 -3.0651  0.8196 -0.6619
  234SOL    HW2  702   1.501   2.491   1.909  0.6783  1.1631 -0.2827
  235SOL     OW  703   0.006   2.997   2.824  0.1477  0.4211 -0.8024
  235SOL    HW1  704  -0.011   3.013   2.722 -3.4817  0.7757 -1.0021
  235SOL    HW2  705  -0.052   3.073   2.874 -3.7901 -0.1810  0.2167
  236SOL     OW  706   2.898   0.727   0.078 -0.2991  0.3470  0.2647
  236SOL    HW1  707   2.936   0.811   0.122  0.5678  0.2792  0.0752
  236SOL    HW2  708   2.964   0.645   0.071 -2.2338 -0.4436  1.0037
  237SOL     OW  709   1.518   1.683   1.001  0.2576 -0.0689 -0.2108
  237SOL    HW1  710   1.620   1.675   0.986 -2.7692 -1.7992  1.5932
  237SOL    HW2  711   1.494   1.709   1.101  0.8834 -0.5873  1.9124
  238SOL     OW  712   1.781   1.273   0.847  0.5632 -0.1371  0.2035
  238SOL    HW1  713   1.857   1.346   0.866  1.0073  3.2423  0.4341
  238SOL    HW2  714   1.698   1.312   0.799  0.3424 -1.4496 -2.7167
  239SOL     OW  715   2.059   0.267   2.665  0.1899  0.0661 -0.9187
  239SOL    HW1  716   2.101   0.249   2.759 -0.0611  0.4525  0.7896
  239SOL    HW2  717   1.980   0.337   2.676  1.7268  2.6680 -0.5676
  240SOL     OW  718   0.910   0.654   0.308  0.3019 -0.3455 -0.3873
  240SOL    HW1  719   0.953   0.570   0.269 -2.4338 -0.7270  3.4667
  240SOL    HW2  720   0.890   0.646   0.410  2.3440 -1.5969  0.1796
  241SOL     OW  721   0.549   0.062   0.371 -0.4564 -0.7542  0.3590
  241SOL    HW1  722   0.600   0.141   0.324  1.1385 -1.6417 -0.6828
  241SOL    HW2  723   0.556  -0.015   0.312 -0.0087  1.1256  0.0898
  242SOL     OW  724   0.664   2.536   1.142 -0.2875  0.6044 -0.0160
  242SOL    HW1  725   0.603   2.567   1.217  1.1200  0.0225  2.2510
  242SOL    HW2  726   0.733   2.609   1.125  0.0499  1.2302  0.6910
  243SOL     OW  727   1.079   0.598   2.498 -0.1901  0.6237 -0.4305
  243SOL    HW1  728   0.989   0.641   2.475  1.6674 -1.4782  2.9112
  243SOL    HW2  729   1.087   0.540   2.585  0.4717 -1.2444 -0.2128
  244SOL     OW  730   2.823   1.888   2.301  0.3615  0.0058  0.6540
  244SOL    HW1  731   2.864   1.864   2.207  0.3654  4.2301  0.1883
  244SOL    HW2  732   2.724   1.858   2.313  4.2642  1.0666 -2.6430
  245SOL     OW  733   2.330   0.696   2.190 -0.4066  0.3096 -0.0922
  245SOL    HW1  734   2.424   0.706   2.228  1.0486  0.8709  3.1417
  245SOL    HW2  735   2.258   0.759   2.234  0.6331  4.3490 -1.8216
  246SOL     OW  736   0.215   2.908   1.718  0.1124 -0.0475  0.3824
  246SOL    HW1  737   0.131   2.940   1.667  1.7147 -2.4510  1.7566
  246SOL    HW2  738   0.302   2.961   1.691  1.9249 -0.0279  4.6037
  247SOL     OW  739   2.207   0.584   3.063  1.0586 -0.1620  0.3660
  247SOL    HW1  740   2.264   0.576   2.983 -3.0916  2.4837 -0.6493
  247SOL    HW2  741   2.165   0.676   3.066 -0.2555 -2.5531  0.1812
  248SOL     OW  742   2.132   1.827   1.589 -0.2800 -0.4980  0.1632
  248SOL    HW1  743   2.217   1.773   1.613 -0.1106  0.8495  0.5495
  248SOL    HW2  744   2.048   1.796   1.632  0.5168  0.6651 -1.6459
  249SOL     OW  745   1.857   1.924   1.904 -0.2631  0.8524  0.2583
  249SOL    HW1  746   1.869   1.844   1.835  0.5952  0.1657  3.0198
  249SOL    HW2  747   1.942   1.981   1.904  0.4468 -0.8579 -0.6312
  250SOL     OW  748   1.135   0.728   1.939  0.1502 -0.0723 -0.6767
  250SOL    HW1  749   1.148   0.630   1.979  0.0816 -0.5168 -0.6492
  250SOL    HW2  750   1.154   0.734   1.837 -0.0647  0.3487 -1.4244
  251SOL     OW  751   0.046   1.588   2.470  0.4880  0.0306 -0.4017
  251SOL    HW1  752   0.019   1.683   2.440  1.2188 -0.7097  1.1241
  251SOL    HW2  753  -0.042   1.536   2.493  4.5597  0.7810 -1.0015
  252SOL     OW  754   1.526   0.853   1.559  0.3201 -0.1713  0.1931
  252SOL    HW1  755   1.594   0.835   1.489 -4.0553 -0.0218  1.6023
  252SOL    HW2  756   1.541   0.933   1.625  0.2461 -2.3036 -0.7074
  253SOL     OW  757   0.951   1.515   0.487  0.3747  1.2028  0.2380
  253SOL    HW1  758   0.978   1.428   0.431 -2.5422 -1.9372 -1.3802
  253SOL    HW2  759   0.874   1.560   0.447  2.4542  1.8153  3.9897
  254SOL     OW  760   2.031   2.138   1.607  0.2106  0.0658  0.0846
  254SOL    HW1  761   1.974   2.080   1.541 -1.1669  1.7715  1.0458
  254SOL    HW2  762   1.970   2.161   1.687 -0.3991 -0.7978  0.5377
  255SOL     OW  763   0.148   1.146   2.873 -0.3962 -0.2825  0.2056
  255SOL    HW1  764   0.208   1.229   2.880  0.8874 -0.1101 -0.0589
  255SOL    HW2  765   0.172   1.065   2.929 -1.8860 -3.3047 -0.2344
  256SOL     OW  766   2.802   1.371   1.775 -0.5509 -0.4375  0.3792
  256SOL    HW1  767   2.732   1.434   1.737  1.5661 -0.3440 -0.0864
  256SOL    HW2  768   2.781   1.273   1.746  0.0223  1.7360 -0.8822
  257SOL     OW  769   0.791   0.207   1.763 -0.8952 -0.1447 -0.1027
  257SOL    HW1  770   0.820   0.287   1.703  0.2240  0.6036 -1.3501
  257SOL    HW2  771   0.868   0.150   1.793  0.3946  2.0967 -0.4896
  258SOL     OW  772   2.970   1.288   0.438  0.6052 -0.3329  0.0229
  258SOL    HW1  773   2.875   1.331   0.461  0.3775  0.3711  0.0285
  258SOL    HW2  774   3.045   1.296   0.506 -1.8788  2.2352 -2.8416
  259SOL     OW  775   0.460   2.953   3.063  0.5353  0.1599 -0.6546
  259SOL    HW1  776   0.379   2.907   3.109 -2.5580 -0.2973  1.6918
  259SOL    HW2  777   0.469   2.925   2.964 -1.5719  1.3336  0.8540
  260SOL     OW  778   2.703   0.837   2.809 -0.3109 -0.3848  0.4073
  260SOL    HW1  779   2.622   0.776   2.783  3.1428  1.8737 -2.2059
  260SOL    HW2  780   2.716   0.853   2.910  0.4372 -0.1659 -1.2184
  261SOL     OW  781   2.749   1.332   1.246 -0.1227  0.5066 -0.5266
  261SOL    HW1  782   2.682   1.306   1.169 -1.7380 -0.7629 -3.4192
  261SOL    HW2  783   2.798   1.250   1.282 -0.7832 -0.7127 -3.3263
  262SOL     OW  784   1.407   2.968   2.032  0.4862 -0.1374  0.5558
  262SOL    HW1  785   1.433   3.060   1.991 -0.7465 -1.7152 -0.4125
  262SOL    HW2  786   1.318   2.931   1.994  0.4145  1.9418 -0.2288
  263SOL     OW  787   0.846   0.735   2.341 -0.3713 -0.5347  0.8967
  263SOL    HW1  788   0.787   0.662   2.297  1.6157  0.0768 -1.0512
  263SOL    HW2  789   0.896   0.787   2.264 -1.7181 -3.7829 -1.6854
  264SOL     OW  790   2.200   0.840   0.384 -0.0808 -0.3995  0.2424
  264SOL    HW1  791   2.219   0.752   0.322 -2.3595 -1.5237  2.7473
  264SOL    HW2  792   2.282   0.852   0.449 -1.4311  3.1760  0.4408
  265SOL     OW  793   0.923   2.387   2.647 -0.0781 -0.0679 -0.6342
  265SOL    HW1  794   0.991   2.435   2.709 -4.2335  0.8581 -2.7771
  265SOL    HW2  795   0.907   2.295   2.687 -0.3507  1.5421  1.9982
  266SOL     OW  796   1.344   1.686   0.000 -0.4125  0.4167  0.5785
  266SOL    HW1  797   1.333   1.767   0.067 -2.4177  0.2784  0.6733
  266SOL    HW2  798   1.431   1.690  -0.064 -2.4269  1.0538 -1.1054
  267SOL     OW  799   0.987   3.045   2.367  0.1670  0.7383 -0.2683
  267SOL    HW1  800   0.976   2.993   2.278 -0.7035  1.8579 -2.2170
  267SOL    HW2  801   0.914   3.121   2.377  0.2332  2.4433  0.6158
  268SOL     OW  802   0.634   1.192   1.059 -1.0284  0.3805  0.3511
  268SOL    HW1  803   0.650   1.227   1.153 -0.4037  2.5854 -3.5835
  268SOL    HW2  804   0.648   1.263   0.981  2.1104  1.2834 -0.6003
  269SOL     OW  805   2.349   2.525   1.595 -0.1848 -0.0905  0.5554
  269SOL    HW1  806   2.426   2.468   1.641 -0.5703 -0.3853 -0.3285
  269SOL    HW2  807   2.290   2.564   1.674 -0.1478 -2.9674  2.3453
  270SOL     OW  808   0.185   2.952   1.994  0.0864 -0.7844  0.1512
  270SOL    HW1  809   0.178   2.930   1.891  1.6620 -0.6314  0.8775
  270SOL    HW2  810   0.216   2.869   2.050  1.4431  0.9712  0.2176
  271SOL     OW  811   0.404   1.372   1.179 -0.5770 -0.4455  0.5880
  271SOL    HW1  812   0.359   1.334   1.090  0.9826 -1.0380 -0.4297
  271SOL    HW2  813   0.339   1.367   1.263 -0.3476  0.6083 -0.5264
  272SOL     OW  814   1.986   2.878   1.971 -0.2574 -0.1186  0.1996
  272SOL    HW1  815   1.930   2.838   1.892 -2.0866  1.0303  2.2460
  272SOL    HW2  816   2.071   2.939   1.939  4.5766  2.2615 -1.1403
  273SOL     OW  817   1.466   1.436   2.747 -0.0010  0.2659 -0.6497
  273SOL    HW1  818   1.382   1.494   2.765 -1.3462  1.0675  2.1514
  273SOL    HW2  819   1.507   1.390   2.832  1.3245 -0.1608 -0.5346
  274SOL     OW  820   1.228   0.470   2.040 -0.2438  0.0872  0.8589
  274SOL    HW1  821   1.182   0.376   2.040  0.3847 -1.1634 -1.5579
  274SOL    HW2  822   1.243   0.501   2.136  1.0250 -0.9626 -2.3324
  275SOL     OW  823   0.594   2.091   1.898 -0.4010  0.3405  0.3575
  275SOL    HW1  824   0.551   2.189   1.908 -0.4494  0.1548  1.2971
  275SOL    HW2  825   0.522   2.025   1.925  4.2706 -1.4245 -0.9062
  276SOL     OW  826   2.191   0.917   2.748  0.2187  0.7510 -0.0207
  276SOL    HW1  827   2.143   0.920   2.659  1.0296  0.1595  1.4742
  276SOL    HW2  828   2.129   0.871   2.822  0.1947  0.2796 -0.2495
  277SOL     OW  829   3.073   0.899   0.227  0.0910 -0.2047  0.1844
  277SOL    HW1  830   3.172   0.911   0.193  0.7327 -0.0617  1.4091
  277SOL    HW2  831   3.067   0.832   0.310  0.9208 -2.3295 -1.3722
  278SOL     OW  832   0.237   0.287   3.054  0.3339  0.2012  0.4137
  278SOL    HW1  833   0.321   0.224   3.061 -0.9468  1.8682 -1.7797
  278SOL    HW2  834   0.261   0.387   3.072  3.0034 -0.5570  0.7579
  279SOL     OW  835   0.183   0.091   0.867  1.0792 -0.1902 -0.2344
  279SOL    HW1  836   0.166   0.029   0.951  0.2145  2.7605  0.2501
  279SOL    HW2  837   0.228   0.037   0.791  2.5734 -1.9673  1.0666
  280SOL     OW  838   1.574   2.954   2.422  0.5263 -0.6549 -0.0960
  280SOL    HW1  839   1.635   3.004   2.488  0.1214 -0.0399 -1.8736
  280SOL    HW2  840   1.509   3.021   2.376  2.2601  1.7132  0.7890
  281SOL     OW  841   0.573   0.975   2.220  0.3159  0.4324  0.5448
  281SOL    HW1  842   0.586   0.906   2.144 -2.0404  0.9916  0.7267
  281SOL    HW2  843   0.515   0.944   2.303 -0.0855  0.2038  0.8019
  282SOL     OW  844   1.787   2.493   0.533 -0.2541  0.0387 -0.1531
  282SOL    HW1  845   1.752   2.406   0.486 -1.0748  2.5101 -1.0613
  282SOL    HW2  846   1.714   2.558   0.565  0.4349  0.2901 -1.1617
  283SOL     OW  847   1.135   0.885   0.828  0.2136 -0.4753 -1.2352
  283SOL    HW1  848   1.160   0.817   0.906  0.0606  1.0562  0.6558
  283SOL    HW2  849   1.055   0.939   0.867 -0.6009 -2.3509  0.6388
  284SOL     OW  850   2.292   2.722   2.517 -0.3901  1.0289  0.6069
  284SOL    HW1  851   2.382   2.753   2.488 -4.2698 -1.1508  3.3144
  284SOL    HW2  852   2.289   2.693   2.617 -0.6111  3.4262  2.1592
  285SOL     OW  853   1.307   3.044   2.605  0.0606  0.1741 -0.4920
  285SOL    HW1  854   1.318   3.083   2.509  0.9417 -0.2186  3.9408
  285SOL    HW2  855   1.208   3.017   2.628 -1.0513  0.2398  1.8573
  286SOL     OW  856   0.441   0.456   0.749 -0.3869  0.0242 -0.0804
  286SOL    HW1  857   0.398   0.390   0.820 -0.0731 -2.2373  1.3676
  286SOL    HW2  858   0.444   0.410   0.655 -0.1981  0.1404 -0.2195
  287SOL     OW  859   0.097   1.298   2.518  0.0301 -0.1839 -0.5836
  287SOL    HW1  860   0.030   1.249   2.579  1.6515  2.6335  3.2621
  287SOL    HW2  861   0.092   1.402   2.537 -2.3217  4.3484  2.3491
  288SOL     OW  862   1.581   2.633   1.576 -0.2861  0.0328  0.0943
  288SOL    HW1  863   1.560   2.581   1.666 -1.4027  4.8048  0.6300
  288SOL    HW2  864   1.636   2.591   1.505 -1.6556 -2.4742 -2.2940
  289SOL     OW  865   0.668   2.702   0.874  0.2099 -0.4288 -0.2296
  289SOL    HW1  866   0.714   2.762   0.802 -0.5020  2.0329 -0.8483
  289SOL    HW2  867   0.612   2.758   0.945  0.8913 -1.9771 -0.5936
  290SOL     OW  868   2.807   1.082   1.711  0.6923 -0.1238  0.6402
  290SOL    HW1  869   2.714   1.047   1.741 -0.8805  2.0533 -1.8591
  290SOL    HW2  870   2.888   1.045   1.762 -1.2719 -0.3976 -0.6925
  291SOL     OW  871   1.968   0.047   0.040  0.0666  0.3022 -0.2950
  291SOL    HW1  872   1.990   0.028   0.138 -1.3798  1.5365 -2.5409
  291SOL    HW2  873   2.025   0.131   0.016 -0.7066 -2.5254 -2.2768
  292SOL     OW  874   2.989   1.146   3.005  0.4694 -0.0098 -0.0938
  292SOL    HW1  875   2.925   1.228   2.979  0.3699  0.3653 -1.6445
  292SOL    HW2  876   3.083   1.148   2.955 -0.2418 -0.5467 -1.4811
  293SOL     OW  877   0.573   2.146   0.186 -0.0356 -0.1085  1.3097
  293SOL    HW1  878   0.526   2.184   0.266  0.5772 -2.3627 -1.0300
  293SOL    HW2  879   0.673   2.114   0.201  0.7648  0.6693 -1.5170
  294SOL     OW  880   1.811   2.265   1.783  0.2073  0.4216  0.6317
  294SOL    HW1  881   1.829   2.299   1.882  0.9330 -2.8147 -0.9137
  294SOL    HW2  882   1.770   2.341   1.725 -0.6999 -0.6870  0.1469
  295SOL     OW  883   0.995   1.073   0.469 -0.3077  0.2538  0.0311
  295SOL    HW1  884   1.080   1.084   0.533 -0.2462 -1.6866 -1.3494
  295SOL    HW2  885   0.911   1.067   0.519  2.0180  1.5492 -2.1919
  296SOL     OW  886   1.201   2.155   2.543 -0.0440 -0.1703  0.7255
  296SOL    HW1  887   1.151   2.186   2.461  2.9315  1.9500  4.2083
  296SOL    HW2  888   1.242   2.061   2.524  1.9033 -0.6974  0.2804
  297SOL     OW  889   1.435   0.617   1.348  0.2268 -0.1133 -0.0461
  297SOL    HW1  890   1.374   0.532   1.325 -0.0753  1.4387  0.0252
  297SOL    HW2  891   1.527   0.585   1.385  0.7837 -0.0721  0.0782
  298SOL     OW  892   0.555   1.342   2.956 -0.2927 -0.6834  0.0274
  298SOL    HW1  893   0.522   1.283   3.034  0.2107 -1.3239  1.7965
  298SOL    HW2  894   0.561   1.282   2.867 -1.4262  2.8699  2.3144
  299SOL     OW  895   0.479   0.267   1.308  0.3209 -0.1258 -0.0123
  299SOL    HW1  896   0.465   0.364   1.276  0.8533 -1.5185 -2.3758
  299SOL    HW2  897   0.546   0.259   1.385 -1.3589  2.9857 -4.5077
  300SOL     OW  898   1.239   1.804   2.739  0.3311 -0.3243  0.0333
  300SOL    HW1  899   1.225   1.707   2.773  2.4676  2.1660 -0.1425
  300SOL    HW2  900   1.339   1.814   2.720  0.5448 -0.7847  1.0202
  301SOL     OW  901   0.433   0.333   0.513  0.2307 -0.7168 -0.2405
  301SOL    HW1  902   0.331   0.311   0.522 -1.6070  0.9986 -0.1899
  301SOL    HW2  903   0.498   0.254   0.502  0.2685 -2.1088  0.0685
  302SOL     OW  904   1.272   2.474   2.342 -0.0322 -0.3293  0.0242
  302SOL    HW1  905   1.195   2.519   2.389 -0.9067  0.8952 -0.4339
  302SOL    HW2  906   1.262   2.368   2.339  0.1219  0.5293 -1.0199
  303SOL     OW  907   0.931   2.394   0.834  0.1232 -0.0957 -0.1804
  303SOL    HW1  908   1.008   2.424   0.771 -0.1829  1.9933  1.8795
  303SOL    HW2  909   0.925   2.461   0.914  1.3775 -0.2622  1.0079
  304SOL     OW  910   0.086   1.973   0.596 -0.0144 -0.6554  0.0375
  304SOL    HW1  911   0.138   1.957   0.504 -1.2943  0.1842 -1.4177
  304SOL    HW2  912   0.028   2.060   0.583 -0.6378 -1.6110 -1.0134
  305SOL     OW  913   1.630   0.888   0.573 -0.2786 -0.3940  0.2766
  305SOL    HW1  914   1.572   0.878   0.489 -1.5432 -1.4840  1.5321
  305SOL    HW2  915   1.659   0.792   0.606 -1.2067  0.0556  0.6610
  306SOL     OW  916   0.419   1.843   1.918 -0.0324  0.1702  0.4983
  306SOL    HW1  917   0.465   1.750   1.911 -2.1773 -1.1767 -1.7944
  306SOL    HW2  918   0.414   1.892   2.007 -0.0497 -1.3382 -2.5450
  307SOL     OW  919   3.068   0.905   2.489 -0.4527 -0.4223 -0.7420
  307SOL    HW1  920   3.096   0.973   2.565  1.5151  0.2022 -1.1230
  307SOL    HW2  921   2.981   0.848   2.513 -0.9886  0.1165  0.3676
  308SOL     OW  922   1.553   2.681   2.790 -0.4687 -0.3139 -0.1907
  308SOL    HW1  923   1.541   2.651   2.692  1.1306 -1.7655  2.8975
  308SOL    HW2  924   1.510   2.607   2.854 -1.9491 -0.7286 -1.2978
  309SOL     OW  925   1.255   0.175   1.748  0.5685  0.3485 -0.7337
  309SOL    HW1  926   1.340   0.126   1.784 -0.6408  0.6273 -0.0227
  309SOL    HW2  927   1.230   0.152   1.648  0.2715 -0.2707 -1.4659
  310SOL     OW  928   1.514   2.567   0.686  0.1845  0.8736  0.3526
  310SOL    HW1  929   1.489   2.596   0.784 -0.8972  0.0050 -0.2208
  310SOL    HW2  930   1.555   2.640   0.624  0.8780  0.1937 -0.8374
  311SOL     OW  931   1.189   0.995   1.636 -0.0909 -0.4652  0.4653
  311SOL    HW1  932   1.185   0.895   1.628 -0.7652  1.5252  0.2377
  311SOL    HW2  933   1.229   1.041   1.553  0.1410 -0.5656  0.5620
  312SOL     OW  934   1.645   0.726   1.086  0.1357  0.3640  0.5101
  312SOL    HW1  935   1.618   0.809   1.029  1.7622 -0.8753  1.9570
  312SOL    HW2  936   1.566   0.655   1.088 -0.1753  1.9656  1.1916
  313SOL     OW  937   1.543   1.369   0.727  0.1450  0.0007 -0.3103
  313SOL    HW1  938   1.468   1.421   0.772  2.5487 -2.8849 -1.5282
  313SOL    HW2  939   1.514   1.287   0.669 -2.4575 -1.5955  1.4820
  314SOL     OW  940   2.950   0.059   3.014  0.0786 -0.1233 -0.7883
  314SOL    HW1  941   2.941   0.062   3.119 -0.6249 -1.0928 -1.8608
  314SOL    HW2  942   2.894  -0.018   2.970 -1.1825 -0.1633  0.9216
  315SOL     OW  943   1.221   0.198   2.754 -0.1629 -0.1351 -0.2398
  315SOL    HW1  944   1.151   0.137   2.715  1.1111  2.6788  3.1277
  315SOL    HW2  945   1.267   0.146   2.832  1.1849 -1.8050 -1.7121
  316SOL     OW  946   1.743   2.050   0.864  0.3387 -0.3642  0.4270
  316SOL    HW1  947   1.694   2.026   0.954  0.3913  0.8464  0.0458
  316SOL    HW2  948   1.742   2.150   0.843  1.3734  1.3429 -0.7217
  317SOL     OW  949   1.130   0.624   2.882 -0.1543 -0.4965 -0.3519
  317SOL    HW1  950   1.076   0.666   2.956 -0.5417 -0.8713 -0.0100
  317SOL    HW2  951   1.065   0.585   2.808  2.2674 -1.5792 -0.0438
  318SOL     OW  952   1.354   3.081   2.306 -0.4602 -0.3943 -0.6640
  318SOL    HW1  953   1.344   3.172   2.254  2.0234 -0.7131 -0.1099
  318SOL    HW2  954   1.353   2.995   2.249  0.6485 -1.3306  0.4475
  319SOL     OW  955   0.670   2.398   2.925 -0.5663  0.5197  0.1269
  319SOL    HW1  956   0.591   2.343   2.972 -1.0031 -1.2021 -1.7363
  319SOL    HW2  957   0.761   2.351   2.942 -2.7309 -1.0391 -0.6393
  320SOL     OW  958   1.690   2.268   0.414 -0.1285 -0.2928  0.4014
  320SOL    HW1  959   1.769   2.206   0.408  1.3934  1.0478  0.5589
  320SOL    HW2  960   1.599   2.220   0.446  0.3948  0.3028 -0.0089
  321SOL     OW  961   1.612   2.744   0.519 -0.2087 -0.0409  0.4374
  321SOL    HW1  962   1.539   2.775   0.451  1.3808  0.6581 -0.9564
  321SOL    HW2  963   1.703   2.793   0.507  0.7969  0.8552 -4.3595
  322SOL     OW  964   2.592   1.134   2.374  0.2884 -0.5438  0.2433
  322SOL    HW1  965   2.692   1.146   2.383 -0.8313 -0.2070 -0.5701
  322SOL    HW2  966   2.568   1.034   2.377  2.2386 -1.3061 -2.3987
  323SOL     OW  967   1.181   2.645   0.830  0.8595 -0.0505 -0.0667
  323SOL    HW1  968   1.147   2.593   0.745  0.4421  0.2995 -0.1175
  323SOL    HW2  969   1.150   2.747   0.835 -1.6910  1.8573 -1.6003
  324SOL     OW  970   0.261   2.461   2.538  0.1286 -0.2942  0.0790
  324SOL    HW1  971   0.327   2.451   2.623  1.6106 -1.0842  1.0818
  324SOL    HW2  972   0.199   2.547   2.545 -1.9647 -0.1117 -1.6560
  325SOL     OW  973   1.295   3.062   0.493  0.1247 -0.1152 -0.1268
  325SOL    HW1  974   1.269   3.118   0.408  0.3670  2.5466  0.7081
  325SOL    HW2  975   1.331   3.123   0.575  1.3917 -1.1861  1.3771
  326SOL     OW  976   2.473   0.799   3.066  0.1229  0.3218  0.4948
  326SOL    HW1  977   2.421   0.737   3.001 -3.3334 -0.2501  1.5447
  326SOL    HW2  978   2.528   0.747   3.141  2.4366 -0.7910  0.9466
  327SOL     OW  979   2.847   0.342   0.661  0.3670 -0.5516  0.5876
  327SOL    HW1  980   2.836   0.293   0.573 -1.3793  2.6267  1.4235
  327SOL    HW2  981   2.898   0.286   0.733 -0.6265  2.5188 -0.4528
  328SOL     OW  982   2.582   0.584   0.406  0.3719 -0.0490  0.3154
  328SOL    HW1  983   2.519   0.665   0.393 -0.3589  1.2154 -1.5946
  328SOL    HW2  984   2.564   0.540   0.499 -0.5402 -0.1055  2.7588
  329SOL     OW  985   2.951   2.950   2.145 -0.3961  0.5326  0.3255
  329SOL    HW1  986   3.024   2.887   2.182  0.2195  1.5234  1.6458
  329SOL    HW2  987   2.968   3.048   2.177  1.0702  4.6938 -3.7090
  330SOL     OW  988   0.536   0.149   1.858 -0.2541  0.4053 -0.3666
  330SOL    HW1  989   0.628   0.169   1.818  0.4521 -0.2224  0.0683
  330SOL    HW2  990   0.546   0.085   1.935  0.4532 -0.1557 -2.5657
  331SOL     OW  991   2.998   1.910   1.169 -0.1509  0.0350 -0.0462
  331SOL    HW1  992   3.029   1.989   1.108 -1.9053  1.3983  0.3855
  331SOL    HW2  993   2.906   1.930   1.213  1.3947  2.2212 -1.0295
  332SOL     OW  994   0.400   1.169   0.019 -0.5917 -0.1978  0.4293
  332SOL    HW1  995   0.315   1.108   0.005  1.5621 -0.0111  4.7036
  332SOL    HW2  996   0.398   1.220   0.108 -0.6339  0.5089 -0.1391
  333SOL     OW  997   2.850   1.025   0.313  0.5117  0.0014 -0.6989
  333SOL    HW1  998   2.884   1.091   0.386 -0.7839  0.4350 -0.6421
  333SOL    HW2  999   2.926   0.962   0.280 -1.9905  2.0504 -1.7974
  334SOL     OW 1000   1.669   1.287   1.836  0.1438 -0.4797  0.0369
  334SOL    HW1 1001   1.756   1.242   1.806  1.1250 -0.9119  1.3846
  334SOL    HW2 1002   1.661   1.310   1.935 -0.5563 -2.6059  0.2010
  335SOL     OW 1003   1.990   2.730   2.610 -0.1489  0.1029  0.4676
  335SOL    HW1 1004   1.908   2.737   2.673 -1.6227 -0.1510 -3.2345
  335SOL    HW2 1005   2.067   2.791   2.640 -0.8495  0.7725 -3.3939
  336SOL     OW 1006   0.235   0.167   2.791 -0.2585 -0.5488 -0.7080
  336SOL    HW1 1007   0.290   0.133   2.873 -0.7965  0.1592 -1.2940
  336SOL    HW2 1008   0.167   0.236   2.822 -1.7269 -2.9821 -1.4048
  337SOL     OW 1009   0.912   2.847   2.840 -0.3388  0.7111 -0.2364
  337SOL    HW1 1010   0.906   2.786   2.929  0.8094  1.8325  1.8081
  337SOL    HW2 1011   1.010   2.869   2.814  0.5165  0.1433  0.2710
  338SOL     OW 1012   0.015   1.012   0.608  0.2039 -0.1268  0.2693
  338SOL    HW1 1013  -0.081   0.973   0.622 -2.7549  0.2811 -1.2418
  338SOL    HW2 1014   0.012   1.115   0.624 -1.0433  1.2917  1.0168
  339SOL     OW 1015   1.695   1.358   2.126 -0.4313  0.2915 -0.0541
  339SOL    HW1 1016   1.602   1.355   2.169  1.2895  0.7837  0.3492
  339SOL    HW2 1017   1.740   1.444   2.157  0.3329 -3.1793 -2.0952
  340SOL     OW 1018   2.344   0.791   1.118 -0.0973 -0.0589 -0.0693
  340SOL    HW1 1019   2.245   0.803   1.087  1.6210 -0.4902 -0.9741
  340SOL    HW2 1020   2.373   0.691   1.108 -2.6092 -2.4645 -0.3478
  341SOL     OW 1021   1.915   2.107   0.331  0.4619  0.0507 -0.0898
  341SOL    HW1 1022   1.918   2.137   0.234 -0.5188 -1.8417  1.4369
  341SOL    HW2 1023   2.009   2.065   0.359 -0.8013 -0.5926 -0.5835
  342SOL     OW 1024   2.259   2.127   2.721 -0.5155 -0.0159  0.4521
  342SOL    HW1 1025   2.324   2.073   2.784  2.4444  1.9815  1.4239
  342SOL    HW2 1026   2.159   2.093   2.719 -1.6050  1.1256 -0.8764
  343SOL     OW 1027   0.334   0.872   2.728  0.3394 -0.4802 -0.0158
  343SOL    HW1 1028   0.332   0.909   2.634 -0.5656 -0.1724  1.5049
  343SOL    HW2 1029   0.427   0.837   2.760 -2.2511  2.3983 -2.0215
  344SOL     OW 1030   1.901   1.421   0.407  0.0152 -0.1780  0.2358
  344SOL    HW1 1031   1.903   1.331   0.357  0.6773  0.4753  1.1057
  344SOL    HW2 1032   1.804   1.438   0.445 -0.2866  0.1157 -0.1256
  345SOL     OW 1033   1.431   2.245   2.916 -0.1925  0.3617  0.0045
  345SOL    HW1 1034   1.347   2.192   2.877 -1.3593 -2.6459  0.4070
  345SOL    HW2 1035   1.511   2.240   2.848 -0.2842  0.5281 -0.2149
  346SOL     OW 1036   2.379   0.866   1.364  0.0547  0.2274 -0.8149
  346SOL    HW1 1037   2.334   0.956   1.380  0.3411  0.0759  2.2023
  346SOL    HW2 1038   2.361   0.835   1.266  1.0482  1.4518  0.1674
  347SOL     OW 1039   0.752   2.786   1.546 -0.4093 -0.8658  0.6984
  347SOL    HW1 1040   0.725   2.771   1.645  2.5237 -1.2473  0.1885
  347SOL    HW2 1041   0.715   2.875   1.501  1.6824  1.2511  0.5385
  348SOL     OW 1042   0.223   0.685   2.886 -0.5231  0.1686  0.6864
  348SOL    HW1 1043   0.120   0.685   2.879  0.2475 -0.8389  2.6613
  348SOL    HW2 1044   0.265   0.744   2.803  1.6611  2.8963 -0.1288
  349SOL     OW 1045   1.888   0.451   2.800 -0.0964  0.3423  0.1599
  349SOL    HW1 1046   1.911   0.542   2.756  2.0796  1.7727  1.4993
  349SOL    HW2 1047   1.882   0.453   2.904  0.0999  2.4748 -0.6937
  350SOL     OW 1048   1.645   0.425   0.365  0.1361  0.9155  0.3960
  350SOL    HW1 1049   1.710   0.436   0.443  1.3752  0.8871  0.5010
  350SOL    HW2 1050   1.631   0.515   0.311 -0.5898  1.3911 -0.6371
  351SOL     OW 1051   0.992   0.862   2.151  0.1666 -0.4615  0.1477
  351SOL    HW1 1052   0.979   0.949   2.095  1.1263 -1.6410 -0.2425
  351SOL    HW2 1053   1.068   0.810   2.108  1.9231  0.6941 -0.2831
  352SOL     OW 1054   2.024   1.313   0.669 -0.5500  0.3253  0.4912
  352SOL    HW1 1055   2.007   1.407   0.624 -0.4963 -2.0929 -2.4494
  352SOL    HW2 1056   1.944   1.252   0.685 -2.4155 -3.8392 -0.6299
  353SOL     OW 1057   2.161   2.805   1.060 -0.1772  0.0544  0.4374
  353SOL    HW1 1058   2.217   2.780   1.148  1.1196 -0.3341  0.1438
  353SOL    HW2 1059   2.060   2.771   1.050 -1.2431 -2.6476  1.4255
  354SOL     OW 1060   0.278   1.388   2.900  0.0784 -0.1794  0.4650
  354SOL    HW1 1061   0.258   1.459   2.826  1.3545 -0.4060  1.8363
  354SOL    HW2 1062   0.380   1.384   2.914 -0.4796 -2.0223 -0.3077
  355SOL     OW 1063   0.625   1.540   0.601  0.7518  0.4382 -0.1600
  355SOL    HW1 1064   0.643   1.540   0.702  0.4674 -0.1331 -1.1295
  355SOL    HW2 1065   0.666   1.456   0.555  2.5067  0.2947 -2.2695
  356SOL     OW 1066   0.856   0.311   2.082 -0.3240  0.3007 -0.4683
  356SOL    HW1 1067   0.946   0.266   2.061 -2.9498  1.8527 -0.0589
  356SOL    HW2 1068   0.816   0.349   2.000  0.2962  1.9009  1.7282
  357SOL     OW 1069   0.996   1.308   0.343  0.6195 -0.2745 -0.1835
  357SOL    HW1 1070   1.014   1.283   0.244 -0.1417  1.4095  0.1863
  357SOL    HW2 1071   0.997   1.225   0.403 -0.2638  1.5468 -1.4509
  358SOL     OW 1072   1.642   1.499   0.500  0.4556  0.5084  0.2462
  358SOL    HW1 1073   1.606   1.436   0.578 -0.2392 -0.6340 -2.0960
  358SOL    HW2 1074   1.600   1.478   0.408  0.2928 -1.0957  1.9464
  359SOL     OW 1075   1.570   2.639   0.190  0.2938 -0.2913  0.0861
  359SOL    HW1 1076   1.575   2.538   0.179  0.9016  1.6808  1.5126
  359SOL    HW2 1077   1.472   2.681   0.175 -2.0447  0.6078  1.8658
  360SOL     OW 1078   0.868   0.565   0.586 -0.3406 -0.0156 -0.2980
  360SOL    HW1 1079   0.769   0.587   0.610 -2.4503 -0.1664 -0.7704
  360SOL    HW2 1080   0.893   0.461   0.605 -0.2667 -1.7040 -1.1933
  361SOL     OW 1081   1.224   1.308   0.731  0.5657  0.1334 -0.1116
  361SOL    HW1 1082   1.276   1.369   0.800  1.0273 -1.5736 -0.7751
  361SOL    HW2 1083   1.124   1.338   0.723  0.9050 -2.0657 -0.3218
  362SOL     OW 1084   1.388   1.840   0.804  0.2718  0.1022  0.6079
  362SOL    HW1 1085   1.407   1.757   0.863 -0.3509 -1.8266  0.4872
  362SOL    HW2 1086   1.449   1.849   0.720 -0.8909  0.7161 -0.9031
  363SOL     OW 1087   1.212   1.247   2.057 -0.0220 -0.2703 -0.1789
  363SOL    HW1 1088   1.276   1.323   2.089  0.4558  1.4855  1.5576
  363SOL    HW2 1089   1.179   1.264   1.960 -0.4990 -0.9204 -1.9590
  364SOL     OW 1090   0.495   2.346   1.977 -0.2968  0.0392  0.2057
  364SOL    HW1 1091   0.392   2.363   1.982  0.0437  0.1330  0.3172
  364SOL    HW2 1092   0.540   2.418   1.916  0.7743  1.4272 -2.1528
  365SOL     OW 1093   1.012   1.888   1.421  0.0993  0.3251 -0.1837
  365SOL    HW1 1094   0.915   1.897   1.457 -1.8583 -0.3282 -1.6624
  365SOL    HW2 1095   1.017   1.892   1.317 -1.9497  1.9711  1.3039
  366SOL     OW 1096   2.796   2.038   0.444  0.4695 -0.4785 -0.4914
  366SOL    HW1 1097   2.710   1.978   0.447 -0.3910  3.8157  1.9170
  366SOL    HW2 1098   2.847   2.017   0.358  1.0153  1.3902 -3.7828
  367SOL     OW 1099   0.937   1.127   0.127 -0.5291 -0.4183 -0.0097
  367SOL    HW1 1100   0.958   1.041   0.184 -0.0427  1.8265  1.9368
  367SOL    HW2 1101   0.996   1.134   0.041  1.0453 -1.3493 -0.5429
  368SOL     OW 1102   1.439   0.532   0.732 -0.5521 -0.0267 -0.6796
  368SOL    HW1 1103   1.410   0.586   0.648  3.0069  0.8797  0.1534
  368SOL    HW2 1104   1.542   0.554   0.738  1.3117  0.8691 -4.0982
  369SOL     OW 1105   0.329   1.723   0.076  0.0443 -0.4748 -0.0003
  369SOL    HW1 1106   0.367   1.808   0.119  1.1156 -0.7430 -1.1897
  369SOL    HW2 1107   0.245   1.685   0.121  0.2370  1.1849 -1.9506
  370SOL     OW 1108   0.466   2.086   0.972 -0.3357  0.1725  0.3168
  370SOL    HW1 1109   0.467   2.184   0.948 -0.8986  0.6664 -1.0423
  370SOL    HW2 1110   0.380   2.041   0.934  0.7140 -1.8217  0.4065
  371SOL     OW 1111   2.937   2.182   2.661 -0.3156  0.0116  0.1557
  371SOL    HW1 1112   2.860   2.144   2.720  0.2845  0.9288 -3.2688
  371SOL    HW2 1113   3.032   2.180   2.708  1.9860  0.3326 -0.6186
  372SOL     OW 1114   1.130   2.005   1.088  0.1637  0.5107  0.0002
  372SOL    HW1 1115   1.053   2.055   1.040  0.5108  1.9254  1.5556
  372SOL    HW2 1116   1.182   2.076   1.141  1.9474  0.0506 -1.1904
  373SOL     OW 1117   2.011   1.997   0.851 -0.2684 -0.2552 -0.0097
  373SOL    HW1 1118   2.058   2.005   0.942  0.9965 -1.5925 -1.9424
  373SOL    HW2 1119   1.915   2.034   0.850  0.0001 -1.5961 -1.7061
  374SOL     OW 1120   1.835   0.408   0.585  0.1118 -0.8711 -0.0089
  374SOL    HW1 1121   1.856   0.372   0.678 -0.7066  2.2475 -1.3174
  374SOL    HW2 1122   1.932   0.406   0.536  3.4384 -1.1609 -1.4321
  375SOL     OW 1123   2.436   2.182   1.115 -0.0842 -0.3242 -0.5033
  375SOL    HW1 1124   2.491   2.148   1.033  1.5729 -1.1813 -1.0608
  375SOL    HW2 1125   2.471   2.151   1.210 -1.8253 -0.0687  0.5920
  376SOL     OW 1126   3.077   0.555   1.475 -0.0871  0.0505 -0.3412
  376SOL    HW1 1127   3.073   0.631   1.549 -1.4691  2.9146 -2.9875
  376SOL    HW2 1128   3.002   0.485   1.482 -0.1524 -0.0598  0.6464
  377SOL     OW 1129   2.234   2.856   0.324 -0.2808  0.4363 -0.0455
  377SOL    HW1 1130   2.212   2.925   0.395  0.7996 -1.1141 -1.7800
  377SOL    HW2 1131   2.340   2.834   0.322  0.1515  1.5709  3.3387
  378SOL     OW 1132   1.875   1.859   2.588 -0.3971 -0.6955  0.0248
  378SOL    HW1 1133   1.941   1.805   2.651  0.0814  2.8520 -2.0205
  378SOL    HW2 1134   1.828   1.794   2.520 -2.4531  1.4842  1.3028
  379SOL     OW 1135   0.755   0.158   2.844 -0.1556  0.0642  1.2221
  379SOL    HW1 1136   0.677   0.094   2.827  2.0738 -0.3499 -1.0917
  379SOL    HW2 1137   0.765   0.225   2.769 -0.8758 -0.2237 -2.2054
  380SOL     OW 1138   1.496   1.136   0.553 -0.2807  0.3095  0.6197
  380SOL    HW1 1139   1.389   1.116   0.552 -1.2650 -2.5365 -0.6227
  380SOL    HW2 1140   1.555   1.050   0.561 -0.2631  0.9000 -2.1916
  381SOL     OW 1141   1.392   1.171   1.482 -0.1675  0.4020  0.9195
  381SOL    HW1 1142   1.414   1.118   1.396 -1.3413 -1.7824  1.4706
  381SOL    HW2 1143   1.455   1.150   1.565  0.9581 -0.9455  1.6743
  382SOL     OW 1144   1.782   0.825   0.168 -0.0494  0.1590  0.1555
  382SOL    HW1 1145   1.829   0.824   0.079 -1.6626 -1.1104  0.0919
  382SOL    HW2 1146   1.834   0.879   0.237  0.8962  1.5642  0.7297
  383SOL     OW 1147   2.603   0.986   1.442 -0.2177  0.3952  0.0316
  383SOL    HW1 1148   2.528   0.923   1.402 -0.6477 -2.7573 -0.0324
  383SOL    HW2 1149   2.689   0.969   1.387 -3.8448 -1.9954  0.7259
  384SOL     OW 1150   0.888   2.313   0.123  0.3105 -0.4756 -0.3882
  384SOL    HW1 1151   0.839   2.385   0.180  1.7729 -1.0910 -0.3945
  384SOL    HW2 1152   0.900   2.229   0.182  0.7971 -0.2747 -0.8025
  385SOL     OW 1153   3.036   2.003   1.686  0.5912  0.6271 -0.6484
  385SOL    HW1 1154   3.094   2.081   1.657 -1.6219  0.1804 -1.5285
  385SOL    HW2 1155   3.080   1.905   1.682 -1.3679 -1.8243 -0.6499
  386SOL     OW 1156   0.478   1.105   0.415  0.2180  0.4956 -0.3023
  386SOL    HW1 1157   0.461   1.003   0.444 -0.5999 -1.9587  1.1181
  386SOL    HW2 1158   0.404   1.136   0.350  3.7025 -0.9908 -1.9030
  387SOL     OW 1159   0.915   0.387   1.606  0.2439 -0.3310  0.4526
  387SOL    HW1 1160   1.013   0.420   1.611 -1.2397  1.4362 -1.2344
  387SOL    HW2 1161   0.909   0.308   1.533  2.4046 -1.6937 -0.8350
  388SOL     OW 1162   1.192   2.606   1.757  0.1284 -0.3547 -0.1494
  388SOL    HW1 1163   1.231   2.579   1.661  1.8606 -4.1886  0.1388
  388SOL    HW2 1164   1.247   2.547   1.829 -0.7463  0.2184  1.5946
  389SOL     OW 1165   0.162   3.016   1.089 -0.3292 -0.0565 -0.4145
  389SOL    HW1 1166   0.074   3.016   1.140  0.9890 -0.0081 -0.7036
  389SOL    HW2 1167   0.186   2.916   1.064 -0.9330 -1.9717  2.3988
  390SOL     OW 1168   1.012   0.945   1.318  0.5986 -0.1557  0.8771
  390SOL    HW1 1169   1.011   0.884   1.401  1.1643 -0.5728 -1.6847
  390SOL    HW2 1170   0.986   1.046   1.333 -1.9529 -1.1641  0.3635
  391SOL     OW 1171   2.085   1.197   1.011 -0.3189  0.1150  0.3587
  391SOL    HW1 1172   2.002   1.156   1.052  2.6422  0.2070  1.8857
  391SOL    HW2 1173   2.136   1.132   0.944 -0.4561 -3.2105  0.7907
  392SOL     OW 1174   0.883   2.666   3.042 -0.4962  0.2864 -0.0125
  392SOL    HW1 1175   0.799   2.666   3.110 -0.0033 -1.0222  1.2672
  392SOL    HW2 1176   0.974   2.668   3.093 -2.5834 -1.3730  0.5228
  393SOL     OW 1177   0.356   0.488   1.986 -1.4600  0.1459 -0.0430
  393SOL    HW1 1178   0.305   0.409   1.945  0.9054  0.1613  0.4884
  393SOL    HW2 1179   0.453   0.488   1.936 -0.4603  1.3923  0.8521
  394SOL     OW 1180   2.956   1.856   2.785  0.6540  0.3550 -0.1068
  394SOL    HW1 1181   3.042   1.823   2.833 -0.6031  1.2845 -1.7351
  394SOL    HW2 1182   2.965   1.863   2.682 -0.6352  0.5123 -1.6549
  395SOL     OW 1183   1.616   1.902   0.620 -0.3005  0.7410  0.1790
  395SOL    HW1 1184   1.665   1.843   0.552 -1.2338  2.4412 -0.6084
  395SOL    HW2 1185   1.666   1.971   0.679  0.1849  1.3449  0.3091
  396SOL     OW 1186   2.748   1.967   1.313 -0.0636 -0.2215  0.2553
  396SOL    HW1 1187   2.649   1.972   1.291 -1.1655  1.3077  1.4398
  396SOL    HW2 1188   2.771   1.977   1.416 -0.4318  1.9140  3.7597
  397SOL     OW 1189   0.983   2.188   0.518 -0.5561 -0.0559 -0.4122
  397SOL    HW1 1190   0.895   2.140   0.519  1.3007  1.3994  1.8431
  397SOL    HW2 1191   0.975   2.285   0.559  1.7372  3.8648 -1.9877
  398SOL     OW 1192   2.142   0.005   1.058 -1.0871 -0.6950  0.7337
  398SOL    HW1 1193   2.135  -0.086   1.103 -0.1086 -2.8643  3.2940
  398SOL    HW2 1194   2.084   0.085   1.105 -0.7829 -1.0249  2.1607
  399SOL     OW 1195   2.945   2.511   2.726  0.4215 -0.1098 -1.0456
  399SOL    HW1 1196   2.881   2.496   2.646  0.9589 -0.0181  1.9148
  399SOL    HW2 1197   2.947   2.439   2.796  2.7251 -1.1412 -1.2115
  400SOL     OW 1198   0.784   1.594   1.313  0.4986 -0.1595  0.2548
  400SOL    HW1 1199   0.747   1.650   1.390  1.0431 -0.8785 -2.5267
  400SOL    HW2 1200   0.788   1.645   1.222  0.6547  2.8586 -0.5242
  401SOL     OW 1201   1.835   0.098   1.371 -0.2231  0.1363  0.1464
  401SOL    HW1 1202   1.920   0.102   1.435 -0.9208 -2.7468  0.9862
  401SOL    HW2 1203   1.746   0.136   1.409 -1.3750  1.3704  1.8219
  402SOL     OW 1204   1.328   0.108   3.050  0.2250  0.7209 -0.2110
  402SOL    HW1 1205   1.421   0.093   3.001 -2.1192  1.0281 -0.7435
  402SOL    HW2 1206   1.306   0.203   3.072  0.6165 -0.7806 -1.9157
  403SOL     OW 1207   2.308   1.823   0.897  0.6649  0.0228 -0.1091
  403SOL    HW1 1208   2.405   1.831   0.923 -0.9891 -2.4406  3.0650
  403SOL    HW2 1209   2.254   1.895   0.950 -2.4970  0.2263 -2.4240
  404SOL     OW 1210   0.176   2.491   2.808 -0.1236  0.2269 -0.2603
  404SOL    HW1 1211   0.275   2.479   2.792  1.2124  0.9169  2.5156
  404SOL    HW2 1212   0.158   2.594   2.807  1.3805  1.3058  0.3029
  405SOL     OW 1213   0.149   2.418   0.600 -0.6155  0.0966  0.4690
  405SOL    HW1 1214   0.178   2.366   0.518  0.9274  2.4876  1.1939
  405SOL    HW2 1215   0.199   2.508   0.621 -1.6820 -3.2475  2.5043
  406SOL     OW 1216   0.037   1.474   2.998  0.2264  0.2479  0.8134
  406SOL    HW1 1217   0.123   1.438   2.962 -0.7470  0.9519  0.6397
  406SOL    HW2 1218   0.049   1.528   3.088 -2.4547  0.1940 -3.5533
  407SOL     OW 1219   1.563   0.929   0.906 -0.0185  0.1612  0.1444
  407SOL    HW1 1220   1.595   0.923   0.808  0.2272 -3.5791 -2.4194
  407SOL    HW2 1221   1.478   0.990   0.921  1.2494  2.1358 -0.0382
  408SOL     OW 1222   1.616   2.369   0.926  0.2831 -0.9727  0.1196
  408SOL    HW1 1223   1.682   2.342   0.849 -2.8668 -0.0390  1.9723
  408SOL    HW2 1224   1.544   2.441   0.901 -3.5440  1.3990 -0.3823
  409SOL     OW 1225   0.623   0.877   0.727  0.5975 -0.2402 -0.3438
  409SOL    HW1 1226   0.539   0.868   0.666  3.0022  2.0757  1.2904
  409SOL    HW2 1227   0.647   0.784   0.768 -1.6642 -1.2655  1.9983
  410SOL     OW 1228   1.268   2.011   1.420 -0.2751 -0.1828  0.2462
  410SOL    HW1 1229   1.339   1.958   1.480 -3.3513  1.7793  1.4373
  410SOL    HW2 1230   1.180   1.969   1.420  2.9771  3.6439  0.3186
  411SOL     OW 1231   2.517   1.875   3.074 -0.5897 -0.3139  1.0670
  411SOL    HW1 1232   2.452   1.872   2.992 -0.8592 -0.2972  0.9733
  411SOL    HW2 1233   2.617   1.865   3.044  0.0339 -0.8498 -0.4091
  412SOL     OW 1234   1.497   2.547   2.185  0.3630  0.2845 -0.5929
  412SOL    HW1 1235   1.569   2.619   2.204 -0.8427  2.6580 -1.3349
  412SOL    HW2 1236   1.427   2.532   2.260  0.7847 -1.1544  1.6413
  413SOL     OW 1237   3.099   0.262   2.932 -0.4234 -0.3962 -0.1558
  413SOL    HW1 1238   3.041   0.180   2.960 -2.0300  1.1132  1.0469
  413SOL    HW2 1239   3.175   0.280   3.005  0.1655 -0.2815 -1.2506
  414SOL     OW 1240   1.787   1.485   1.321  0.4329 -0.3375 -1.1038
  414SOL    HW1 1241   1.715   1.532   1.376  0.7399  1.9379 -1.6675
  414SOL    HW2 1242   1.741   1.431   1.249  2.5200  0.3680  0.8148
  415SOL     OW 1243   0.301   2.192   0.712  0.3649 -0.6603  0.3469
  415SOL    HW1 1244   0.279   2.294   0.692  0.3891  0.2193 -0.6308
  415SOL    HW2 1245   0.217   2.144   0.742 -1.2452  0.2697  2.3695
  416SOL     OW 1246   0.360   1.061   1.061  0.0401  0.2932 -0.0992
  416SOL    HW1 1247   0.310   1.011   0.981  3.3059 -3.8283 -1.3332
  416SOL    HW2 1248   0.454   1.091   1.039  0.6520 -1.9868  0.1793
  417SOL     OW 1249   2.123   2.309   1.901  0.5658 -0.2531  0.1824
  417SOL    HW1 1250   2.146   2.209   1.923 -0.9951  0.2292  1.9402
  417SOL    HW2 1251   2.027   2.319   1.860 -0.8563  1.7747 -0.2005
  418SOL     OW 1252   1.137   0.496   1.298 -0.2381 -0.2894  0.7080
  418SOL    HW1 1253   1.058   0.438   1.280  2.0852  1.8341  1.2193
  418SOL    HW2 1254   1.152   0.561   1.221  2.1898  0.8170  0.7470
  419SOL     OW 1255   0.995   0.366   3.032 -0.0978  0.0806 -0.1321
  419SOL    HW1 1256   0.986   0.386   2.933 -2.9998  0.3747 -0.2677
  419SOL    HW2 1257   0.938   0.285   3.052  0.9440 -0.1034 -3.0465
  420SOL     OW 1258   0.149   2.265   0.368 -0.3578  0.3497  0.3162
  420SOL    HW1 1259   0.132   2.196   0.290  1.7139  0.0693  0.0662
  420SOL    HW2 1260   0.066   2.270   0.433 -1.0245 -1.1145  0.3900
  421SOL     OW 1261   0.331   3.025   0.693  0.0719 -0.5273  0.6411
  421SOL    HW1 1262   0.342   2.925   0.708 -1.8285 -1.3992 -2.3137
  421SOL    HW2 1263   0.422   3.079   0.690 -0.0542  1.8905 -0.9255
  422SOL     OW 1264   0.986   2.598   1.034  0.0716 -0.1044  0.0884
  422SOL    HW1 1265   1.063   2.626   0.967 -1.9474 -1.3331 -0.1151
  422SOL    HW2 1266   1.014   2.601   1.135  0.9758  1.7396 -1.7742
  423SOL     OW 1267   0.099   0.712   1.275 -0.1676  0.0168  0.1484
  423SOL    HW1 1268   0.048   0.648   1.331  3.5746  0.8432 -1.1916
  423SOL    HW2 1269   0.049   0.802   1.267 -2.4705  0.3855 -0.3579
  424SOL     OW 1270   1.018   2.246   2.059  0.0956  0.6602  0.5092
  424SOL    HW1 1271   1.023   2.337   2.010 -1.0593  1.5060  0.1829
  424SOL    HW2 1272   1.009   2.260   2.162 -1.6649  0.3625  0.4985
  425SOL     OW 1273   1.985   1.425   0.953 -0.0559 -0.6773  0.2437
  425SOL    HW1 1274   2.034   1.343   0.992 -0.8180  0.1303  1.7347
  425SOL    HW2 1275   2.046   1.485   0.901  1.4945 -1.7445  3.6956
  426SOL     OW 1276   1.511   1.521   1.396  0.6907 -0.1770 -0.2804
  426SOL    HW1 1277   1.490   1.616   1.358 -0.8401  1.5081  0.6857
  426SOL    HW2 1278   1.460   1.503   1.480 -1.7303  0.2502 -1.1597
  427SOL     OW 1279   1.866   2.349   2.040 -0.2037  0.1413  0.5596
  427SOL    HW1 1280   1.927   2.280   2.086 -1.2907 -0.2864 -1.1756
  427SOL    HW2 1281   1.870   2.444   2.078  2.4679 -1.4380  0.1947
  428SOL     OW 1282   0.877   2.961   0.195 -0.4930 -0.0585 -0.5340
  428SOL    HW1 1283   0.939   3.030   0.240  1.0214 -1.8040  1.7388
  428SOL    HW2 1284   0.930   2.874   0.164  0.0060 -1.8713  2.1022
  429SOL     OW 1285   1.322   0.083   0.236  0.1388 -0.2677 -0.3913
  429SOL    HW1 1286   1.423   0.095   0.262  0.4286  0.7283 -2.8693
  429SOL    HW2 1287   1.315   0.077   0.131 -2.6188  0.3328 -1.6339
  430SOL     OW 1288   2.723   1.451   0.388  1.0101 -0.0664 -0.1515
  430SOL    HW1 1289   2.770   1.497   0.305 -1.4515  0.8406 -0.7454
  430SOL    HW2 1290   2.740   1.498   0.479 -0.5163 -2.5571  2.3147
  431SOL     OW 1291   2.156   1.610   0.816  0.5038 -0.5921 -0.1038
  431SOL    HW1 1292   2.222   1.686   0.842  0.0235 -1.2853  0.1319
  431SOL    HW2 1293   2.075   1.646   0.763  2.0274 -0.7617 -0.9520
  432SOL     OW 1294   2.859   2.209   1.281 -0.1439 -0.4699  0.0905
  432SOL    HW1 1295   2.809   2.113   1.291 -1.5160 -1.5452  1.2703
  432SOL    HW2 1296   2.918   2.227   1.367  1.8800 -0.2072  1.2301
  433SOL     OW 1297   1.923   0.366   0.853 -0.0294  0.0930  0.4120
  433SOL    HW1 1298   1.847   0.322   0.911 -1.2624  0.1142  0.2059
  433SOL    HW2 1299   2.020   0.349   0.886 -0.2819  2.7382 -0.0095
  434SOL     OW 1300   1.549   0.280   0.798 -0.5432  0.7429 -0.2277
  434SOL    HW1 1301   1.485   0.367   0.780 -0.2519 -0.6923  0.2656
  434SOL    HW2 1302   1.628   0.298   0.859 -3.6010 -1.0533 -0.3370
  435SOL     OW 1303   1.410   1.423   2.125 -0.2899  0.0380 -0.3635
  435SOL    HW1 1304   1.351   1.468   2.195  0.3748  2.0402  1.4702
  435SOL    HW2 1305   1.446   1.499   2.057  1.6164  3.9565  1.3645
  436SOL     OW 1306   1.678   2.727   2.289  0.0740  0.0248 -0.4376
  436SOL    HW1 1307   1.624   2.796   2.346  0.7975  1.1891 -1.9202
  436SOL    HW2 1308   1.707   2.643   2.338  0.4116  2.7695  0.9863
  437SOL     OW 1309   1.095   2.898   0.920 -0.5727  0.2997  0.1620
  437SOL    HW1 1310   1.042   2.971   0.873 -2.0861 -0.0078 -0.2948
  437SOL    HW2 1311   1.049   2.863   1.003 -3.1191  1.4056 -1.8168
  438SOL     OW 1312   1.068   2.576   1.317 -0.1981 -0.1760 -0.0591
  438SOL    HW1 1313   1.127   2.596   1.400 -1.0129  3.7625  0.8163
  438SOL    HW2 1314   1.002   2.495   1.322  0.9710  1.2567  1.2035
  439SOL     OW 1315   0.717   1.758   1.078 -0.6285 -0.3540 -0.3717
  439SOL    HW1 1316   0.713   1.838   1.011  0.9155  1.1084  1.2094
  439SOL    HW2 1317   0.624   1.722   1.111  1.0610 -1.7886 -1.5995
  440SOL     OW 1318   0.968   2.483   1.918  0.2808  0.1256  0.0868
  440SOL    HW1 1319   0.928   2.495   1.820 -2.0855 -2.8378 -1.1556
  440SOL    HW2 1320   1.065   2.523   1.919 -1.1139 -1.2031 -2.3627
  441SOL     OW 1321   0.403   2.781   1.378 -0.4003  0.0428  0.2684
  441SOL    HW1 1322   0.450   2.689   1.368  0.0305 -0.5811 -1.9896
  441SOL    HW2 1323   0.300   2.769   1.394  1.9592  0.5173 -0.1854
  442SOL     OW 1324   2.278   0.638   2.551  0.3333  0.0968 -1.0781
  442SOL    HW1 1325   2.297   0.540   2.519 -0.3962 -0.8709  0.3592
  442SOL    HW2 1326   2.192   0.675   2.514  0.7770  0.6256  0.2950
  443SOL     OW 1327   1.215   2.731   2.190 -0.0259 -0.2027 -0.1576
  443SOL    HW1 1328   1.253   2.654   2.251  3.0344  1.7883 -1.2699
  443SOL    HW2 1329   1.157   2.791   2.252 -3.2568  0.3892  1.4788
  444SOL     OW 1330   1.148   1.300   1.601  0.0242  0.2040 -0.1596
  444SOL    HW1 1331   1.245   1.283   1.561  0.2843 -1.3267  1.1579
  444SOL    HW2 1332   1.160   1.346   1.693 -0.3579 -3.9285  0.7898
  445SOL     OW 1333   0.014   2.374   1.864 -0.1674  0.3960  0.1964
  445SOL    HW1 1334   0.003   2.469   1.818  1.8605 -2.2123  0.8977
  445SOL    HW2 1335  -0.072   2.341   1.915 -1.6538 -0.2434  0.3983
  446SOL     OW 1336   0.249   1.906   2.365  0.2548 -0.1382 -0.3982
  446SOL    HW1 1337   0.199   1.968   2.441 -0.9581  1.6760  1.0282
  446SOL    HW2 1338   0.188   1.834   2.324  3.9027  3.0377 -3.9330
  447SOL     OW 1339   1.225   1.715   1.930 -0.2386  0.1381 -0.6552
  447SOL    HW1 1340   1.124   1.747   1.920 -1.9370 -0.7825 -1.5379
  447SOL    HW2 1341   1.294   1.785   1.969  0.5166  0.5980 -1.0124
  448SOL     OW 1342   0.118   1.445   1.987  0.0937 -0.2256  0.7564
  448SOL    HW1 1343   0.160   1.541   1.963 -0.1314  0.2957  1.7456
  448SOL    HW2 1344   0.071   1.452   2.081 -1.2544  0.4632  0.9717
  449SOL     OW 1345   1.777   2.984   0.899  0.9545 -0.2699 -1.0806
  449SOL    HW1 1346   1.806   2.984   0.999  3.1103  1.0625 -0.8868
  449SOL    HW2 1347   1.822   2.913   0.841 -1.1373 -0.7778 -0.7799
  450SOL     OW 1348   2.360   1.424   0.719  0.5398  0.0606 -0.2395
  450SOL    HW1 1349   2.268   1.458   0.754  1.9957 -1.0447  0.4997
  450SOL    HW2 1350   2.377   1.464   0.620  1.8166 -0.2792 -2.3993
  451SOL     OW 1351   1.337   3.027   1.433  0.3365  0.2199  0.0647
  451SOL    HW1 1352   1.265   3.102   1.436 -0.6119 -0.5929  1.3506
  451SOL    HW2 1353   1.332   2.962   1.516  2.5217  0.8146  0.0633
  452SOL     OW 1354   2.690   2.295   2.180  0.3789 -0.0795 -0.1949
  452SOL    HW1 1355   2.657   2.393   2.180 -0.7543 -0.7059  0.0095
  452SOL    HW2 1356   2.718   2.257   2.278 -1.4291 -0.5289  1.0397
  453SOL     OW 1357   2.475   2.637   0.006  0.4189 -0.4487 -0.4014
  453SOL    HW1 1358   2.379   2.679   0.025 -3.6996  1.5748 -1.1682
  453SOL    HW2 1359   2.470   2.562  -0.070  2.0736 -0.6048  0.0883
  454SOL     OW 1360   0.984   1.121   2.076 -0.2679  0.6503  0.3467
  454SOL    HW1 1361   0.939   1.131   1.983  1.1779  0.0788 -0.9053
  454SOL    HW2 1362   1.077   1.170   2.086  1.2564  1.1101  2.3859
  455SOL     OW 1363   0.681   2.679   2.836  0.5761 -0.1489  1.2412
  455SOL    HW1 1364   0.771   2.733   2.827 -2.1064 -2.4840  0.6848
  455SOL    HW2 1365   0.691   2.601   2.899 -3.3888  3.1585  2.1865
  456SOL     OW 1366   0.453   1.899   0.257 -0.3837 -0.0853  0.5765
  456SOL    HW1 1367   0.529   1.839   0.298  3.1467  2.0088  0.7858
  456SOL    HW2 1368   0.495   1.983   0.208 -0.3406 -0.3501 -0.4648
  457SOL     OW 1369   0.333   2.632   0.603  0.1547  0.2198 -0.0189
  457SOL    HW1 1370   0.319   2.708   0.531 -0.9029 -0.1522 -1.3001
  457SOL    HW2 1371   0.426   2.593   0.591 -0.7709  2.6559 -3.8440
  458SOL     OW 1372   2.907   3.092   1.258 -0.2766  0.1030  0.7171
  458SOL    HW1 1373   2.986   3.159   1.265  1.1011  0.2004 -0.1271
  458SOL    HW2 1374   2.923   3.022   1.178 -0.0038  1.5422 -0.4218
  459SOL     OW 1375   2.099   2.619   0.737  0.4185 -0.3020  0.0568
  459SOL    HW1 1376   2.201   2.617   0.761  1.9744  0.1324  2.0677
  459SOL    HW2 1377   2.078   2.553   0.655  1.3019 -0.1927  0.2567
  460SOL     OW 1378   1.218   2.082   2.824 -0.0718 -0.4091  0.0864
  460SOL    HW1 1379   1.164   2.115   2.744  0.1601  2.4722 -1.4136
  460SOL    HW2 1380   1.238   1.982   2.823  2.9183 -0.2948 -1.3867
  461SOL     OW 1381   0.542   2.176   2.658  0.1491 -0.6139 -0.3988
  461SOL    HW1 1382   0.486   2.102   2.614 -0.3353 -0.3575  4.4770
  461SOL    HW2 1383   0.596   2.132   2.733  1.3216 -0.7733 -0.4210
  462SOL     OW 1384   0.964   1.154   1.793  0.0863  0.0792  0.4601
  462SOL    HW1 1385   1.041   1.113   1.736 -1.4096 -0.8299 -0.3521
  462SOL    HW2 1386   0.918   1.243   1.763  2.2243  2.1812 -1.6984
  463SOL     OW 1387   0.453   0.822   0.512  0.4392  0.3382 -0.1036
  463SOL    HW1 1388   0.514   0.738   0.506 -1.1682  1.5532  0.4115
  463SOL    HW2 1389   0.355   0.791   0.541 -2.3189 -0.2931  0.7575
  464SOL     OW 1390   0.597   2.285   2.245  0.1207 -0.1836  0.2240
  464SOL    HW1 1391   0.553   2.363   2.298 -2.2368  1.7703 -0.9532
  464SOL    HW2 1392   0.562   2.288   2.143 -1.0672  0.4033 -1.0698
  465SOL     OW 1393   0.232   0.962   0.836  0.1740 -0.1950 -0.0890
  465SOL    HW1 1394   0.139   0.970   0.787 -3.1037 -0.9253  1.2759
  465SOL    HW2 1395   0.271   0.862   0.838  0.3508  3.4719  0.7487
  466SOL     OW 1396   1.406   1.131   0.973 -0.3116  0.4880  0.2884
  466SOL    HW1 1397   1.414   1.236   0.984  2.0772  0.9706 -0.6413
  466SOL    HW2 1398   1.312   1.094   1.008 -1.7391 -0.4196  1.2146
  467SOL     OW 1399   0.527   0.385   2.417 -0.0129 -0.5383  0.3997
  467SOL    HW1 1400   0.484   0.481   2.438 -1.7278 -0.8948 -1.6345
  467SOL    HW2 1401   0.537   0.321   2.505  0.3958 -2.2637 -0.0246
  468SOL     OW 1402   0.466   2.271   1.643  0.2541  0.1445  0.4822
  468SOL    HW1 1403   0.539   2.331   1.694 -0.8162 -0.5587  1.6279
  468SOL    HW2 1404   0.456   2.302   1.545  0.6391  0.5784 -0.0863
  469SOL     OW 1405   1.439   1.367   1.179 -0.0987  0.3816 -0.5173
  469SOL    HW1 1406   1.536   1.323   1.186  2.3790  0.0601  0.9440
  469SOL    HW2 1407   1.429   1.450   1.235 -3.4868 -2.3149 -1.4495
  470SOL     OW 1408   3.002   1.785   0.743 -0.0221 -0.8420 -0.3851
  470SOL    HW1 1409   3.074   1.851   0.708  1.0089 -1.3923  1.5373
  470SOL    HW2 1410   3.024   1.691   0.715  0.8381 -1.9107 -1.3634
  471SOL     OW 1411   2.682   1.254   2.124  0.3910 -0.1297 -0.2285
  471SOL    HW1 1412   2.621   1.226   2.198  0.6237  1.7748 -0.8063
  471SOL    HW2 1413   2.743   1.336   2.153  3.3893 -0.1097  1.6032
  472SOL     OW 1414   1.118   2.455   0.053  0.0844 -0.1408 -0.3383
  472SOL    HW1 1415   1.196   2.418   0.111  0.8634 -1.0606  1.3444
  472SOL    HW2 1416   1.027   2.422   0.092 -0.1883  0.2133  0.4510
  473SOL     OW 1417   1.105   1.551   0.999  0.1420  0.1351  0.4222
  473SOL    HW1 1418   0.999   1.541   0.985 -2.3704 -0.4220 -0.0065
  473SOL    HW2 1419   1.148   1.473   1.054  1.3119  2.2602 -1.9549
  474SOL     OW 1420   0.648   1.265   0.525 -0.4958  0.1986  0.0174
  474SOL    HW1 1421   0.564   1.224   0.478 -0.9570 -0.8765  0.2225
  474SOL    HW2 1422   0.707   1.191   0.569  1.6510  0.2616  0.4279
  475SOL     OW 1423   2.860   0.033   0.809 -0.6471  0.1450 -0.4519
  475SOL    HW1 1424   2.935   0.103   0.837  0.7248  3.1053 -2.4457
  475SOL    HW2 1425   2.762   0.057   0.840 -2.9901  3.3447  0.4855
  476SOL     OW 1426   0.987   3.078   1.773  0.1785 -0.1966  0.7882
  476SOL    HW1 1427   1.040   3.033   1.847 -0.8146 -0.4868  1.6269
  476SOL    HW2 1428   1.002   3.035   1.679  0.3083  0.2238  1.4434
  477SOL     OW 1429   1.412   0.316   2.447 -0.0580  0.2008  1.1337
  477SOL    HW1 1430   1.405   0.336   2.552 -1.3173  1.7814  4.2731
  477SOL    HW2 1431   1.502   0.268   2.421 -0.0989  1.3215 -2.2020
  478SOL     OW 1432   2.235   1.832   0.160  0.2962  0.2031 -0.0297
  478SOL    HW1 1433   2.194   1.759   0.219 -0.2905 -1.7374 -0.2276
  478SOL    HW2 1434   2.328   1.813   0.124 -0.8944  0.6069  3.6277
  479SOL     OW 1435   1.250   0.990   2.894  0.4668  0.4537  0.3352
  479SOL    HW1 1436   1.307   0.971   2.815 -1.4637  2.5241  0.0038
  479SOL    HW2 1437   1.155   0.951   2.884 -0.4529 -2.6736  0.6384
  480SOL     OW 1438   2.670   2.337   0.360 -0.4262  0.1056  0.1920
  480SOL    HW1 1439   2.661   2.274   0.441  0.0571  0.7632  1.8390
  480SOL    HW2 1440   2.595   2.327   0.288 -1.9733  3.2677  0.9142
  481SOL     OW 1441   0.969   1.147   0.911 -0.0186  0.0629  0.0158
  481SOL    HW1 1442   0.951   1.241   0.873  0.5528  0.5139  0.1990
  481SOL    HW2 1443   1.049   1.143   0.976  2.0021 -0.3428 -1.1599
  482SOL     OW 1444   1.577   0.301   2.046 -0.2868  0.8074 -0.4250
  482SOL    HW1 1445   1.592   0.401   2.028  1.0079  0.8651  1.8809
  482SOL    HW2 1446   1.669   0.254   2.085  2.4264 -2.3178  0.2144
  483SOL     OW 1447   0.105   2.314   1.265  0.4430  0.2334  0.5284
  483SOL    HW1 1448   0.033   2.315   1.343 -0.7658 -4.9954 -1.4459
  483SOL    HW2 1449   0.135   2.410   1.235 -1.2029 -0.0384  0.5916
  484SOL     OW 1450   1.765   1.104   1.342  0.0052 -0.1744 -0.1300
  484SOL    HW1 1451   1.806   1.011   1.355 -0.0101  0.2748 -0.9908
  484SOL    HW2 1452   1.780   1.169   1.417 -0.4765 -0.0236  0.3821
  485SOL     OW 1453   0.726   0.994   1.787 -0.1292  1.3017  0.4108
  485SOL    HW1 1454   0.733   0.972   1.684  4.1262  0.1799 -1.5967
  485SOL    HW2 1455   0.805   1.054   1.815  0.6286 -2.4300  0.5749
  486SOL     OW 1456   0.815   1.893   2.427  0.1949  0.4849 -0.0104
  486SOL    HW1 1457   0.834   1.876   2.530 -0.5679 -1.0008  0.5548
  486SOL    HW2 1458   0.788   1.991   2.416  0.4988  0.1379 -2.6403
  487SOL     OW 1459   1.799   1.650   0.968  0.2474  0.3841 -0.4120
  487SOL    HW1 1460   1.857   1.565   0.984 -1.4756 -3.5249  0.4867
  487SOL    HW2 1461   1.833   1.714   0.898 -1.3921  0.7936  2.3236
  488SOL     OW 1462   3.008   0.871   2.213 -0.0494  0.1607  0.2648
  488SOL    HW1 1463   3.053   0.781   2.191  0.8299  0.3887 -0.7632
  488SOL    HW2 1464   2.974   0.879   2.311 -1.0723 -1.0680 -0.0335
  489SOL     OW 1465   2.773   0.297   1.274  0.0311  0.2480  0.1928
  489SOL    HW1 1466   2.762   0.324   1.371 -0.3558  2.2858  0.7526
  489SOL    HW2 1467   2.871   0.268   1.258  1.2900 -1.0726 -1.3435
  490SOL     OW 1468   1.511   2.948   2.760  0.4034  0.4275  0.0580
  490SOL    HW1 1469   1.524   2.845   2.752  0.8028 -0.2497  0.0824
  490SOL    HW2 1470   1.441   2.988   2.697  0.8255  0.5683  3.5902
  491SOL     OW 1471   1.742   1.430   2.612  0.1920 -0.5318  0.1571
  491SOL    HW1 1472   1.657   1.439   2.673 -2.3718  0.6255  1.0643
  491SOL    HW2 1473   1.829   1.465   2.656  1.0704 -0.4878  0.0093
  492SOL     OW 1474   0.552   2.134   0.663 -0.2274 -0.1322  0.0023
  492SOL    HW1 1475   0.582   2.087   0.751 -1.3080 -3.0241  1.9865
  492SOL    HW2 1476   0.450   2.162   0.663  1.6971 -1.9781 -1.1458
  493SOL     OW 1477   0.415   1.437   2.023 -0.0188  0.1263  0.0882
  493SOL    HW1 1478   0.349   1.446   1.946 -1.7475  0.3864 -1.4164
  493SOL    HW2 1479   0.405   1.345   2.077 -0.7392  0.7054 -1.5274
  494SOL     OW 1480   2.714   2.717   0.145  0.2436 -0.2447  0.1756
  494SOL    HW1 1481   2.711   2.681   0.244 -0.9822 -3.2171 -0.8392
  494SOL    HW2 1482   2.628   2.698   0.091 -0.7134 -0.2664  3.4463
  495SOL     OW 1483   2.655   2.727   2.715  1.2695 -0.0502  0.6856
  495SOL    HW1 1484   2.626   2.631   2.695  1.7514  2.4845  0.7049
  495SOL    HW2 1485   2.718   2.756   2.644 -1.0448 -0.8830 -0.2140
  496SOL     OW 1486   2.075   2.228   0.723  0.1684 -0.2387 -0.5732
  496SOL    HW1 1487   2.095   2.297   0.800  1.7381  2.2605 -0.6851
  496SOL    HW2 1488   2.081   2.125   0.753 -1.1662 -0.6228  1.3141
  497SOL     OW 1489   0.199   2.990   2.385  0.0529 -0.1011  0.6103
  497SOL    HW1 1490   0.169   3.068   2.450  0.1191  0.0823  1.4066
  497SOL    HW2 1491   0.277   3.015   2.321  3.0766 -1.3801 -1.3371
  498SOL     OW 1492   1.165   1.363   1.175  0.2923 -0.6151 -0.0020
  498SOL    HW1 1493   1.267   1.347   1.180  0.3704  2.0753  0.1013
  498SOL    HW2 1494   1.137   1.420   1.256 -0.9126 -1.2997 -0.0326
  499SOL     OW 1495   0.652   1.748   0.368  0.0727 -0.2455 -0.0246
  499SOL    HW1 1496   0.682   1.653   0.346 -0.5935  1.4249  0.8465
  499SOL    HW2 1497   0.727   1.802   0.420  2.0078 -1.1602  1.7396
  500SOL     OW 1498   1.414   2.849   1.634 -0.0093 -0.7269 -0.0365
  500SOL    HW1 1499   1.460   2.883   1.726  2.6007 -0.3538  1.4475
  500SOL    HW2 1500   1.490   2.792   1.594  2.6690  0.0885 -0.9523
  501SOL     OW 1501   0.802   1.103   2.282 -0.0568  0.1076  0.6921
  501SOL    HW1 1502   0.715   1.055   2.252 -3.0404 -0.4121 -1.3303
  501SOL    HW2 1503   0.864   1.123   2.195 -0.0137  1.1808  1.7233
  502SOL     OW 1504   2.567   0.949   1.717  0.1349  0.4320  0.0917
  502SOL    HW1 1505   2.573   0.969   1.613 -1.6502  0.7957 -0.0127
  502SOL    HW2 1506   2.546   0.853   1.738  4.2408  2.5482  0.5668
  503SOL     OW 1507   1.336   0.136   0.700  0.2253 -0.3664 -0.0323
  503SOL    HW1 1508   1.291   0.210   0.648  1.1959 -1.0595 -1.3424
  503SOL    HW2 1509   1.429   0.170   0.736  0.1406 -1.1328 -0.1247
  504SOL     OW 1510   3.025   2.345   1.452 -0.2064  0.0438 -0.1489
  504SOL    HW1 1511   2.970   2.437   1.456 -0.5568  2.4882 -0.9135
  504SOL    HW2 1512   3.074   2.313   1.542 -0.4576 -1.3606  2.9290
  505SOL     OW 1513   2.325   1.189   1.415 -0.2843  0.1422  0.2966
  505SOL    HW1 1514   2.310   1.237   1.325 -0.4658 -1.0930 -1.2072
  505SOL    HW2 1515   2.412   1.215   1.450 -1.2553  0.6220 -0.9957
  506SOL     OW 1516   1.963   0.214   1.826  0.0150 -0.3752 -0.0145
  506SOL    HW1 1517   1.977   0.144   1.899 -1.8651  1.9572  0.0525
  506SOL    HW2 1518   1.968   0.310   1.854 -1.3184 -2.7909 -0.6360
  507SOL     OW 1519   0.539   0.655   2.145 -0.4074  0.4507  0.3222
  507SOL    HW1 1520   0.454   0.618   2.093 -3.6609 -0.6769 -2.3439
  507SOL    HW2 1521   0.609   0.587   2.169  1.0643 -0.8893 -1.0323
  508SOL     OW 1522   0.289   1.605   0.746  0.2111 -0.4134 -0.3523
  508SOL    HW1 1523   0.358   1.658   0.686  0.6493 -0.2667  1.5980
  508SOL    HW2 1524   0.278   1.641   0.847  0.2125 -1.8696  1.1972
  509SOL     OW 1525   1.206   1.237   2.360 -0.5239 -0.0110 -0.6757
  509SOL    HW1 1526   1.227   1.197   2.266 -1.1434  4.6895  3.9869
  509SOL    HW2 1527   1.133   1.179   2.407 -2.2235 -0.2452 -1.3318
  510SOL     OW 1528   1.253   2.105   2.207  0.0672 -0.2436  0.1451
  510SOL    HW1 1529   1.261   2.158   2.119  0.3289  0.6583  0.3940
  510SOL    HW2 1530   1.167   2.050   2.210 -1.1512 -4.1882  0.6029
  511SOL     OW 1531   3.019   2.702   1.334 -0.3625 -0.0592 -0.2205
  511SOL    HW1 1532   3.016   2.711   1.229 -0.3324  1.0216  2.0346
  511SOL    HW2 1533   2.928   2.712   1.374  2.8739  1.5329 -2.1589
  512SOL     OW 1534   2.368   0.436   1.370 -0.1237 -0.0868  0.1725
  512SOL    HW1 1535   2.266   0.444   1.393  3.7401  1.2623  0.8315
  512SOL    HW2 1536   2.396   0.376   1.292  1.5245  0.1846  0.7707
  513SOL     OW 1537   2.619   2.096   0.897 -0.6648  0.2148  0.6497
  513SOL    HW1 1538   2.577   2.180   0.846  0.7750 -0.0120 -2.1452
  513SOL    HW2 1539   2.664   2.028   0.834  0.1050 -0.4766 -1.2200
  514SOL     OW 1540   0.616   2.738   0.476  0.3915 -0.0036  0.4621
  514SOL    HW1 1541   0.661   2.793   0.398 -0.7174  2.8303 -1.0756
  514SOL    HW2 1542   0.643   2.771   0.571 -1.7954  1.8483  0.2646
  515SOL     OW 1543   1.953   1.261   2.371  0.1410 -0.5530  0.0731
  515SOL    HW1 1544   2.004   1.217   2.294 -4.1120 -0.3879  2.0970
  515SOL    HW2 1545   1.857   1.221   2.372  2.1075  1.0607 -0.7095
  516SOL     OW 1546   0.268   0.227   1.923 -0.1944  0.0163 -0.0346
  516SOL    HW1 1547   0.365   0.190   1.896  1.8064  0.7913  1.9721
  516SOL    HW2 1548   0.186   0.166   1.913  1.1153 -0.0172  0.1259
  517SOL     OW 1549   0.444   0.028   1.148 -1.1319  0.1011 -0.7824
  517SOL    HW1 1550   0.462   0.108   1.205 -1.3385 -3.4484 -0.3499
  517SOL    HW2 1551   0.347  -0.006   1.146  0.9456  0.3971  2.9341
  518SOL     OW 1552   2.171   3.036   1.802  0.3551  0.5613 -0.2105
  518SOL    HW1 1553   2.217   3.125   1.814 -0.5504 -3.1095 -1.0134
  518SOL    HW2 1554   2.191   2.998   1.708 -0.4618 -2.0795  0.4115
  519SOL     OW 1555   2.388   2.152   2.469  0.4309 -0.4223  0.4687
  519SOL    HW1 1556   2.315   2.130   2.539 -0.2228 -1.0896  0.6885
  519SOL    HW2 1557   2.392   2.255   2.452 -1.2818 -1.7520  0.3109
  520SOL     OW 1558   1.862   2.731   1.763  0.0824  0.1788  0.7670
  520SOL    HW1 1559   1.777   2.673   1.769 -2.1391 -0.2261 -1.6320
  520SOL    HW2 1560   1.936   2.683   1.706 -0.6468 -0.8539 -0.7744
  521SOL     OW 1561   0.563   3.051   2.078 -0.1764 -0.2825 -0.5934
  521SOL    HW1 1562   0.467   3.091   2.096 -0.0925  1.5094 -2.1373
  521SOL    HW2 1563   0.601   3.008   2.164  0.4898  1.4818 -2.4134
  522SOL     OW 1564   0.245   1.861   1.494  0.2154  0.2790 -0.6836
  522SOL    HW1 1565   0.284   1.918   1.571 -1.2538  2.2134 -0.2894
  522SOL    HW2 1566   0.210   1.920   1.412 -1.7945 -0.2332 -3.1172
  523SOL     OW 1567   2.229   2.940   1.546 -0.1577 -0.2324  0.0195
  523SOL    HW1 1568   2.328   2.900   1.552  2.9929 -0.5666 -0.3819
  523SOL    HW2 1569   2.162   2.891   1.482 -0.8547 -3.0868 -2.0401
  524SOL     OW 1570   0.188   2.783   2.786  0.0824 -0.1325  0.8603
  524SOL    HW1 1571   0.140   2.864   2.824  0.6994  2.9595 -0.4117
  524SOL    HW2 1572   0.292   2.789   2.798  2.0164  0.3085 -2.4456
  525SOL     OW 1573   2.150   2.002   0.383 -0.6193  1.2439 -0.1601
  525SOL    HW1 1574   2.199   1.953   0.466 -1.6368  0.4201  1.7183
  525SOL    HW2 1575   2.186   1.976   0.291 -1.6810 -0.7979 -1.2149
  526SOL     OW 1576   0.471   1.498   1.646  0.0581 -0.1468  0.3575
  526SOL    HW1 1577   0.532   1.539   1.719  0.7524 -2.9014 -2.7653
  526SOL    HW2 1578   0.497   1.400   1.620  2.9089 -0.2910 -0.9481
  527SOL     OW 1579   1.020   2.854   1.190 -0.0794  0.2533  0.8630
  527SOL    HW1 1580   1.103   2.808   1.238  0.4580  0.7547  0.6209
  527SOL    HW2 1581   1.040   2.958   1.186  1.3225  1.5097  2.3025
  528SOL     OW 1582   1.357   2.362   0.547 -0.2501 -0.0181 -0.0327
  528SOL    HW1 1583   1.402   2.265   0.553  2.3461 -1.4378 -1.0568
  528SOL    HW2 1584   1.419   2.438   0.586  1.0599 -0.3609 -4.0360
  529SOL     OW 1585   1.962   1.762   0.702  0.1658  0.4265  0.8395
  529SOL    HW1 1586   1.915   1.753   0.608 -0.1183  1.1441  0.7640
  529SOL    HW2 1587   1.951   1.854   0.748 -2.1534 -0.6124 -3.0623
  530SOL     OW 1588   0.340   2.611   0.234 -0.6167  0.3623  0.5528
  530SOL    HW1 1589   0.376   2.676   0.305  1.3083  0.5447  2.2066
  530SOL    HW2 1590   0.367   2.508   0.240  1.6839  0.2847 -0.0531
  531SOL     OW 1591   1.840   1.019   1.031 -0.4322  0.1747 -0.0142
  531SOL    HW1 1592   1.814   1.056   0.936 -0.3023 -1.3505 -1.0139
  531SOL    HW2 1593   1.764   0.952   1.056 -3.4418  1.0489 -0.0004
  532SOL     OW 1594   0.379   1.199   0.694  0.1805  0.3523 -0.3923
  532SOL    HW1 1595   0.403   1.193   0.593  3.1404  0.4263 -3.1206
  532SOL    HW2 1596   0.341   1.105   0.724  0.2789 -0.8656  1.6488
  533SOL     OW 1597   1.768   0.048   2.557  0.4967 -0.2972 -0.1786
  533SOL    HW1 1598   1.866   0.011   2.563 -1.3909  2.9836  1.4370
  533SOL    HW2 1599   1.754   0.127   2.626  0.1962 -1.1151 -0.1046
  534SOL     OW 1600   0.326   0.182   1.535 -0.3505 -0.8656  1.1814
  534SOL    HW1 1601   0.362   0.196   1.439  3.5847  1.0964  0.5864
  534SOL    HW2 1602   0.292   0.269   1.578  1.2273  0.1905  0.8721
  535SOL     OW 1603   1.924   0.429   0.238 -0.0319 -0.0020  0.2699
  535SOL    HW1 1604   1.945   0.514   0.302  2.0949  0.8411  1.0670
  535SOL    HW2 1605   1.840   0.374   0.263 -0.3455 -1.9067  0.0329
  536SOL     OW 1606   1.408   2.578   0.952 -0.8390 -0.0454  0.1822
  536SOL    HW1 1607   1.383   2.535   1.046  0.7312 -1.7966  0.1575
  536SOL    HW2 1608   1.322   2.600   0.896  1.9262 -0.2441  0.4736
  537SOL     OW 1609   0.814   0.173   2.332  0.0598 -0.0299 -0.4256
  537SOL    HW1 1610   0.870   0.227   2.264  1.2237  0.4394  2.5897
  537SOL    HW2 1611   0.738   0.121   2.289  0.7504 -0.4326 -0.6617
  538SOL     OW 1612   1.698   2.321   1.531 -0.0333  0.8274 -0.0121
  538SOL    HW1 1613   1.679   2.220   1.503  0.6195 -0.4637 -0.8093
  538SOL    HW2 1614   1.773   2.353   1.465  2.2849 -2.3904 -2.4240
  539SOL     OW 1615   0.188   1.575   2.722  0.0835 -0.4913 -0.4424
  539SOL    HW1 1616   0.154   1.595   2.630  0.0843  0.5118 -1.6417
  539SOL    HW2 1617   0.138   1.630   2.792  0.5295 -1.0411  0.7384
  540SOL     OW 1618   2.729   1.712   1.986  0.0744 -0.2253 -0.1725
  540SOL    HW1 1619   2.699   1.626   2.036  1.6985 -2.1170 -0.5036
  540SOL    HW2 1620   2.656   1.785   1.989 -2.0948  0.7188  1.6538
  541SOL     OW 1621   0.464   2.290   3.073 -0.8382  0.3638 -0.2407
  541SOL    HW1 1622   0.497   2.247   3.161 -3.3532 -1.1073 -1.0558
  541SOL    HW2 1623   0.368   2.272   3.060  2.4832  0.8838  1.2793
  542SOL     OW 1624   2.261   2.582   0.381  0.1593  0.0475  0.1231
  542SOL    HW1 1625   2.265   2.686   0.385 -0.4237  0.3741 -1.6117
  542SOL    HW2 1626   2.188   2.539   0.441  0.1688 -0.7215 -1.2441
  543SOL     OW 1627   1.084   1.764   1.649  0.4584  0.1580 -0.0073
  543SOL    HW1 1628   1.046   1.797   1.743  0.9048 -1.8699  1.6011
  543SOL    HW2 1629   1.053   1.820   1.568 -0.6554  1.3036  0.8093
  544SOL     OW 1630   1.015   0.418   0.214  0.0771  0.6213  0.4384
  544SOL    HW1 1631   0.993   0.322   0.248  1.1080  2.6612 -1.4146
  544SOL    HW2 1632   0.992   0.429   0.112  1.1762 -2.8887  2.3646
  545SOL     OW 1633   1.096   1.780   0.849  0.0425  0.5533 -0.1320
  545SOL    HW1 1634   1.182   1.825   0.812 -0.0120  1.1177 -2.7646
  545SOL    HW2 1635   1.123   1.697   0.904  0.0065  1.4233  2.0623
  546SOL     OW 1636   2.636   1.560   3.088  0.8078 -0.8954  0.1469
  546SOL    HW1 1637   2.580   1.600   3.011 -3.3809 -3.7698 -4.4068
  546SOL    HW2 1638   2.569   1.540   3.165 -1.1916  0.0423 -1.4838
  547SOL     OW 1639   0.560   0.017   2.675 -0.1199 -0.3222  0.5295
  547SOL    HW1 1640   0.647  -0.038   2.654  1.7591 -0.7848 -1.8792
  547SOL    HW2 1641   0.483  -0.047   2.691 -2.5062 -3.2961 -1.3181
  548SOL     OW 1642   2.086   0.843   3.032  0.4511 -0.2651 -0.5609
  548SOL    HW1 1643   1.985   0.835   3.011  1.6698 -0.5469 -3.3013
  548SOL    HW2 1644   2.113   0.946   3.039 -2.1724 -0.9425 -1.2584
  549SOL     OW 1645   0.678   0.521   0.192 -0.1953 -0.4730  0.4941
  549SOL    HW1 1646   0.643   0.559   0.104  2.1893  3.2514  0.1517
  549SOL    HW2 1647   0.776   0.557   0.222  0.5629 -0.4780  0.8213
  550SOL     OW 1648   2.472   2.844   2.872 -0.2908 -0.1530  0.3770
  550SOL    HW1 1649   2.462   2.768   2.947  0.7112 -1.5851  0.4343
  550SOL    HW2 1650   2.531   2.812   2.792 -1.4967  0.4981  0.6758
  551SOL     OW 1651   0.286   0.894   0.226 -0.3446  0.9455 -0.3786
  551SOL    HW1 1652   0.387   0.870   0.221 -3.0063 -4.7384 -0.9332
  551SOL    HW2 1653   0.251   0.877   0.319  1.4232 -0.6783  0.0886
  552SOL     OW 1654   0.719   2.988   1.837  0.4404 -0.1365 -0.1338
  552SOL    HW1 1655   0.697   3.002   1.936  2.1939 -0.4295  1.7916
  552SOL    HW2 1656   0.804   3.026   1.804 -2.9341  0.6149  0.9957
  553SOL     OW 1657   3.012   2.557   0.336 -0.3624 -0.2057 -0.3462
  553SOL    HW1 1658   2.970   2.464   0.327 -0.0210 -0.7746  1.7097
  553SOL    HW2 1659   2.987   2.606   0.423  3.8817 -1.7322 -1.0581
  554SOL     OW 1660   2.112   0.374   0.599  0.4367 -0.0643  0.2451
  554SOL    HW1 1661   2.206   0.347   0.561 -0.0270  1.2825 -0.6647
  554SOL    HW2 1662   2.053   0.297   0.635  0.0429  1.7333  0.2032
  555SOL     OW 1663   0.413   2.823   2.512  0.1423 -1.0428  0.4041
  555SOL    HW1 1664   0.329   2.883   2.481 -0.4726 -0.1144  0.7639
  555SOL    HW2 1665   0.474   2.791   2.438 -0.9396 -3.0230  1.9495
  556SOL     OW 1666   0.781   2.403   1.530 -0.3287  0.1767 -0.3767
  556SOL    HW1 1667   0.845   2.474   1.576  3.8710 -1.0089 -1.9674
  556SOL    HW2 1668   0.833   2.352   1.457 -0.7070  0.3419 -0.7780
  557SOL     OW 1669   0.105   2.039   0.166  0.1927  0.1777 -0.1361
  557SOL    HW1 1670   0.029   2.002   0.109  0.2370  2.1775 -0.1251
  557SOL    HW2 1671   0.173   2.094   0.111 -1.8047 -0.3176 -2.3573
  558SOL     OW 1672   2.932   2.304   0.288  0.1988 -0.2066 -0.0197
  558SOL    HW1 1673   2.828   2.303   0.295 -0.0345 -3.6237  3.4617
  558SOL    HW2 1674   2.972   2.293   0.195 -0.9711 -0.5487 -0.2809
  559SOL     OW 1675   0.390   2.312   1.358  0.6420  0.0113  0.3147
  559SOL    HW1 1676   0.292   2.290   1.331 -2.2275 -1.3298 -1.0595
  559SOL    HW2 1677   0.449   2.237   1.318 -0.3569  0.3164 -1.9788
  560SOL     OW 1678   2.098   1.136   3.073 -0.1477  0.0502  0.0155
  560SOL    HW1 1679   2.011   1.171   3.119 -1.2602  3.1581 -1.7933
  560SOL    HW2 1680   2.181   1.192   3.099 -0.6197  3.0924 -0.7396
  561SOL     OW 1681   3.009   1.877   0.014 -0.5010  0.4060 -0.0964
  561SOL    HW1 1682   2.940   1.818   0.061  0.7010  2.7183 -1.4169
  561SOL    HW2 1683   2.970   1.970  -0.003  1.1383 -1.9318 -1.6423
  562SOL     OW 1684   1.043   2.279   2.352  0.1962  0.1235 -0.8844
  562SOL    HW1 1685   0.987   2.215   2.418 -3.0775 -2.4890  1.3897
  562SOL    HW2 1686   1.023   2.382   2.367  2.3555 -1.8315 -4.5002
  563SOL     OW 1687   0.719   2.567   2.590 -0.1359 -0.2853  0.3536
  563SOL    HW1 1688   0.789   2.486   2.606  1.1441 -1.9375  0.2643
  563SOL    HW2 1689   0.688   2.606   2.682 -1.5785 -1.4257  2.8627
  564SOL     OW 1690   2.751   1.317   2.959 -0.5712 -0.1997  0.5196
  564SOL    HW1 1691   2.666   1.349   3.005  1.7589  1.1967 -0.0292
  564SOL    HW2 1692   2.795   1.397   2.906 -1.8053 -0.2535 -2.9627
  565SOL     OW 1693   2.577   1.957   2.609 -0.5421  0.7217  0.0734
  565SOL    HW1 1694   2.524   2.026   2.549 -0.2168  1.0395  0.0599
  565SOL    HW2 1695   2.643   2.007   2.671  0.9745  0.4773 -1.0108
  566SOL     OW 1696   1.986   2.826   1.392  1.1274  0.0195  0.2431
  566SOL    HW1 1697   1.923   2.741   1.382  0.0278 -3.2057  1.5358
  566SOL    HW2 1698   1.958   2.903   1.326  1.8286 -0.8043  1.0873
  567SOL     OW 1699   2.500   0.078   2.263 -0.2700  0.5963 -0.0870
  567SOL    HW1 1700   2.492   0.148   2.188 -0.1056 -0.8132 -0.1125
  567SOL    HW2 1701   2.421   0.072   2.326 -2.5828  0.5801  0.0368
  568SOL     OW 1702   1.544   1.789   0.312 -0.5796  0.0527  0.0675
  568SOL    HW1 1703   1.480   1.847   0.257 -0.0139  0.7975 -0.6120
  568SOL    HW2 1704   1.642   1.817   0.309 -0.9257 -1.0133 -0.8513
  569SOL     OW 1705   0.278   0.682   0.771 -0.0112 -0.2425  0.2667
  569SOL    HW1 1706   0.343   0.615   0.726 -0.1148 -1.4497 -0.2202
  569SOL    HW2 1707   0.183   0.641   0.778  2.7485 -2.6575 -0.2317
  570SOL     OW 1708   0.603   0.840   2.851 -0.1488  0.4528  0.3474
  570SOL    HW1 1709   0.684   0.818   2.794  0.7733  1.0592  0.7669
  570SOL    HW2 1710   0.611   0.905   2.930 -1.6601 -0.8723 -1.0884
  571SOL     OW 1711   0.779   3.104   1.023 -0.1765 -0.6840  0.0684
  571SOL    HW1 1712   0.848   3.108   0.941 -0.8635  0.3489 -3.8766
  571SOL    HW2 1713   0.748   3.008   1.042 -1.6353  0.3183 -0.4383
  572SOL     OW 1714   1.578   2.609   1.277 -0.1660 -0.1795  0.5632
  572SOL    HW1 1715   1.478   2.580   1.252  1.6262  3.3785 -1.8203
  572SOL    HW2 1716   1.579   2.707   1.317 -0.0606  2.2955 -3.1298
  573SOL     OW 1717   2.878   0.463   2.058  0.2631 -0.3813  0.0871
  573SOL    HW1 1718   2.861   0.360   2.072 -0.3651  1.9889  1.1786
  573SOL    HW2 1719   2.794   0.509   2.016 -0.5870  0.0588 -1.0574
  574SOL     OW 1720   0.206   1.700   1.020 -0.1192  0.1206  0.5627
  574SOL    HW1 1721   0.194   1.801   0.991 -1.6067  2.2076  1.2111
  574SOL    HW2 1722   0.119   1.656   1.057 -1.1319 -2.4112 -0.3312
  575SOL     OW 1723   0.930   2.163   0.978 -0.4210 -0.1184 -0.4023
  575SOL    HW1 1724   0.852   2.200   1.040 -0.0974  0.4329 -0.5755
  575SOL    HW2 1725   0.957   2.227   0.900 -1.3116  0.2190 -0.3347
  576SOL     OW 1726   2.890   3.004   1.690 -0.9129  0.0277  0.5484
  576SOL    HW1 1727   2.791   2.976   1.696 -0.1185 -0.7222 -1.9630
  576SOL    HW2 1728   2.905   3.104   1.668 -0.5809 -0.1999  0.6333
  577SOL     OW 1729   2.512   1.248   0.028  0.3897  0.2893  0.2424
  577SOL    HW1 1730   2.514   1.167  -0.042 -0.6938  0.2558 -0.1881
  577SOL    HW2 1731   2.592   1.239   0.093 -1.9285  3.5893  0.0522
  578SOL     OW 1732   1.333   2.767   2.472  0.1553  0.3097 -0.4436
  578SOL    HW1 1733   1.240   2.819   2.480 -0.4843  0.4818  0.4241
  578SOL    HW2 1734   1.413   2.835   2.474 -0.2370  0.9526  0.9362
  579SOL     OW 1735   0.082   2.506   0.126  0.0211  0.0989 -0.1942
  579SOL    HW1 1736   0.007   2.512   0.200 -0.9963  2.5494  0.4121
  579SOL    HW2 1737   0.175   2.548   0.158  1.4298 -0.0227  1.4338
  580SOL     OW 1738   1.025   2.637   0.426 -0.0273  0.1053 -0.2423
  580SOL    HW1 1739   1.123   2.649   0.383  1.8566  1.0185 -1.8703
  580SOL    HW2 1740   0.966   2.573   0.372  1.1258  2.6279  3.6680
  581SOL     OW 1741   1.260   2.594   1.503 -0.0831  0.6314 -0.5284
  581SOL    HW1 1742   1.333   2.514   1.496  0.7296  0.3529  0.9021
  581SOL    HW2 1743   1.299   2.690   1.519 -1.3578  3.0588  0.9869
  582SOL     OW 1744   1.500   0.090   1.862 -0.1156  0.1268 -0.0101
  582SOL    HW1 1745   1.522   0.159   1.938  3.1656  1.7420 -0.7982
  582SOL    HW2 1746   1.579   0.082   1.798 -2.1748 -1.6722 -1.0921
  583SOL     OW 1747   2.505   3.076   0.508 -0.5151  0.2452  0.5887
  583SOL    HW1 1748   2.587   3.038   0.453  1.8810  0.9600 -0.8671
  583SOL    HW2 1749   2.448   2.996   0.537  1.1332  0.0761 -1.5621
  584SOL     OW 1750   1.581   0.907   2.093 -0.4778 -0.3377 -0.2356
  584SOL    HW1 1751   1.666   0.926   2.031  1.3338  3.0254  1.7881
  584SOL    HW2 1752   1.611   0.894   2.191  0.7634 -2.4753  0.7615
  585SOL     OW 1753   2.099   2.661   2.895  0.4593 -0.0237 -0.0899
  585SOL    HW1 1754   2.099   2.563   2.876  0.1124 -0.4040 -0.9380
  585SOL    HW2 1755   2.001   2.700   2.890 -0.2680 -1.9001  0.2386
  586SOL     OW 1756   2.810   0.376   1.536  0.4504  0.6796 -0.1263
  586SOL    HW1 1757   2.813   0.469   1.593 -1.4953  2.2061  2.1892
  586SOL    HW2 1758   2.740   0.305   1.566  0.0845 -1.0128  0.9185
  587SOL     OW 1759   1.973   1.555   2.703  0.1840  0.3561 -0.2018
  587SOL    HW1 1760   2.039   1.506   2.641  2.7118  0.0525 -1.1210
  587SOL    HW2 1761   2.015   1.554   2.795 -0.3291 -1.1152 -0.6055
  588SOL     OW 1762   0.471   2.698   2.254  0.6007  0.4292 -0.0791
  588SOL    HW1 1763   0.371   2.669   2.231 -0.1768  1.7648 -2.3401
  588SOL    HW2 1764   0.521   2.627   2.313 -1.1226 -1.4676 -1.2989
  589SOL     OW 1765   2.137   1.428   2.510  0.0789 -0.1545 -0.0358
  589SOL    HW1 1766   2.069   1.370   2.461  1.4359 -0.8715  0.3107
  589SOL    HW2 1767   2.222   1.371   2.535  0.6977 -1.7708  1.8383
  590SOL     OW 1768   2.335   1.662   2.050 -0.1998  0.1835 -0.3038
  590SOL    HW1 1769   2.415   1.600   2.027  2.2579  3.6074  1.1737
  590SOL    HW2 1770   2.337   1.709   2.143 -0.0759  0.1047 -1.7849
  591SOL     OW 1771   1.325   2.374   0.267 -0.1859 -0.1617  0.2719
  591SOL    HW1 1772   1.390   2.305   0.226  1.1720  0.2887 -0.0681
  591SOL    HW2 1773   1.325   2.370   0.369 -1.3361 -0.3958 -0.1787
  592SOL     OW 1774   1.797   2.289   0.749  0.0862 -0.1937 -0.2817
  592SOL    HW1 1775   1.791   2.373   0.683  0.7851 -1.1787 -3.3949
  592SOL    HW2 1776   1.895   2.255   0.757  0.1398 -0.3275  1.1058
  593SOL     OW 1777   0.710   0.247   0.241  0.1553 -0.1595  0.1375
  593SOL    HW1 1778   0.739   0.211   0.145 -1.2896 -0.8016 -1.1368
  593SOL    HW2 1779   0.694   0.350   0.236  1.1244 -0.2066  0.1588
  594SOL     OW 1780   0.951   1.877   2.698  0.0460  0.0922 -0.0291
  594SOL    HW1 1781   1.052   1.862   2.723  0.8239 -0.4031  0.7517
  594SOL    HW2 1782   0.916   1.976   2.717  1.1184 -0.8356  0.9458
  595SOL     OW 1783   1.580   0.054   1.084 -0.5162  0.5316 -0.1829
  595SOL    HW1 1784   1.665   0.019   1.038 -3.4802  1.3519 -1.9004
  595SOL    HW2 1785   1.492   0.020   1.038 -1.4089 -1.5886  1.1909
  596SOL     OW 1786   0.005   1.414   2.250  0.2661  0.5068  0.1265
  596SOL    HW1 1787  -0.024   1.316   2.280 -2.0742  0.9202  0.1090
  596SOL    HW2 1788   0.044   1.475   2.324 -2.2641 -2.9688  0.7946
  597SOL     OW 1789   1.999   2.540   1.623  0.1966 -0.0890  0.5770
  597SOL    HW1 1790   1.976   2.472   1.558 -1.7102  2.3920  0.0700
  597SOL    HW2 1791   2.082   2.532   1.677 -0.1575  1.1362 -2.1748
  598SOL     OW 1792   2.513   2.959   1.269  0.3724 -0.1164 -0.1676
  598SOL    HW1 1793   2.596   2.977   1.330 -0.2153 -0.1395  0.8421
  598SOL    HW2 1794   2.534   2.952   1.169 -0.8089 -0.2078  0.2904
  599SOL     OW 1795   2.952   0.331   2.500 -0.3794 -0.3246 -0.3111
  599SOL    HW1 1796   3.045   0.381   2.500  0.1052 -1.4003 -1.2360
  599SOL    HW2 1797   2.880   0.390   2.451  0.9695 -0.1424  3.1168
  600SOL     OW 1798   2.802   1.135   2.768  0.5744 -0.0924  0.4771
  600SOL    HW1 1799   2.764   1.039   2.775 -1.1423  3.5002  1.1360
  600SOL    HW2 1800   2.756   1.204   2.832  0.9437 -0.8182 -1.0010
  601SOL     OW 1801   2.980   1.283   1.966 -0.3304  0.7414  0.1922
  601SOL    HW1 1802   2.907   1.315   1.903  2.8851 -1.9131 -0.8549
  601SOL    HW2 1803   3.059   1.348   1.982  1.2769 -0.7069  3.0990
  602SOL     OW 1804   1.431   1.749   2.380  0.3411  0.3228  0.2634
  602SOL    HW1 1805   1.379   1.660   2.351 -1.2271 -0.2105 -2.9773
  602SOL    HW2 1806   1.530   1.740   2.360  1.1686  0.5959 -1.8936
  603SOL     OW 1807   0.594   1.199   2.738  0.0098  0.3083 -0.1923
  603SOL    HW1 1808   0.512   1.163   2.688  2.4952 -1.0057  1.5810
  603SOL    HW2 1809   0.679   1.145   2.721 -0.2704  1.8669  1.3822
  604SOL     OW 1810   2.385   1.004   0.153  0.0094  0.0081 -0.1943
  604SOL    HW1 1811   2.434   1.091   0.128  1.7118 -0.5587  1.8248
  604SOL    HW2 1812   2.401   0.929   0.080 -1.4927  2.0182  1.6829
  605SOL     OW 1813   2.523   1.150   1.929  0.1640 -0.0223  0.4408
  605SOL    HW1 1814   2.521   1.045   1.912  2.2517 -4.6052 -0.1542
  605SOL    HW2 1815   2.611   1.177   1.976  0.4836  1.7450  0.4451
  606SOL     OW 1816   1.486   2.523   2.585 -0.1021  0.5951  0.3196
  606SOL    HW1 1817   1.410   2.578   2.534  1.7036 -0.2678 -0.3985
  606SOL    HW2 1818   1.455   2.424   2.585  1.7465  0.2513 -2.3704
  607SOL     OW 1819   1.340   1.597   0.346  0.1203 -0.3135 -0.5049
  607SOL    HW1 1820   1.279   1.653   0.402 -0.8720 -1.3611 -4.3675
  607SOL    HW2 1821   1.434   1.641   0.339  0.5605 -0.5467 -0.2651
  608SOL     OW 1822   1.430   2.897   0.322 -0.2476 -0.1205  0.1585
  608SOL    HW1 1823   1.521   2.937   0.293 -2.3549  0.8447  0.6267
  608SOL    HW2 1824   1.382   2.951   0.397  0.0480  0.4860  0.2016
  609SOL     OW 1825   1.317   1.373   0.181 -0.4792 -0.5729  0.1698
  609SOL    HW1 1826   1.320   1.452   0.247  4.2254 -1.1218 -1.9824
  609SOL    HW2 1827   1.256   1.403   0.107 -1.8974  0.6625 -0.2402
  610SOL     OW 1828   3.012   1.153   2.207  0.0952  0.2165 -0.3576
  610SOL    HW1 1829   3.006   1.051   2.203 -1.0896  1.2789  0.3566
  610SOL    HW2 1830   2.986   1.200   2.120  1.9062  1.1020 -0.4914
  611SOL     OW 1831   2.536   0.296   1.115 -0.3838 -0.1649  0.1582
  611SOL    HW1 1832   2.478   0.210   1.136  1.1216  0.0651  1.9607
  611SOL    HW2 1833   2.627   0.295   1.164  0.5708  1.0230 -2.8815
  612SOL     OW 1834   0.756   2.276   1.152  0.0104 -0.0742  0.6020
  612SOL    HW1 1835   0.677   2.217   1.187 -0.3511  0.2737 -0.0146
  612SOL    HW2 1836   0.733   2.382   1.147 -0.4406  0.0674  1.6886
  613SOL     OW 1837   0.828   1.367   2.430 -0.2650  0.2049 -0.4518
  613SOL    HW1 1838   0.792   1.436   2.364  0.1243  0.6816 -0.4359
  613SOL    HW2 1839   0.809   1.269   2.402  2.1616 -1.3027 -3.0489
  614SOL     OW 1840   1.561   1.624   1.965 -0.4618 -0.2724  0.2529
  614SOL    HW1 1841   1.534   1.703   2.026 -0.2695 -2.2357  0.2580
  614SOL    HW2 1842   1.644   1.577   2.006 -1.0100  0.6639  2.0908
  615SOL     OW 1843   0.761   1.335   1.713  0.0588  0.5077  0.5537
  615SOL    HW1 1844   0.676   1.296   1.661 -0.6805 -0.1054  0.2277
  615SOL    HW2 1845   0.800   1.414   1.656 -0.1488  3.9052 -1.5227
  616SOL     OW 1846   1.018   1.647   2.192 -0.8154 -0.3089 -0.7282
  616SOL    HW1 1847   0.917   1.622   2.213  0.3254 -0.1912 -1.3589
  616SOL    HW2 1848   1.028   1.745   2.159 -2.4276 -1.0786  0.7082
  617SOL     OW 1849   2.942   1.569   1.633 -0.0167 -0.2467  0.2440
  617SOL    HW1 1850   2.898   1.495   1.694 -3.3399 -0.3457  0.5610
  617SOL    HW2 1851   2.959   1.539   1.535  0.4315  3.1096  3.0657
  618SOL     OW 1852   1.889   1.993   1.442  0.0892  0.4750  0.7004
  618SOL    HW1 1853   1.940   2.029   1.361 -2.5029 -0.9866  0.2561
  618SOL    HW2 1854   1.878   1.886   1.446 -1.2936 -0.3802  0.4917
  619SOL     OW 1855   1.763   0.443   2.394 -0.2037  0.4201  0.6197
  619SOL    HW1 1856   1.689   0.489   2.337  2.7519 -0.8103  0.2487
  619SOL    HW2 1857   1.723   0.367   2.451  2.9202  1.1402  1.0149
  620SOL     OW 1858   2.261   2.961   0.625 -0.5308  0.2882 -0.0461
  620SOL    HW1 1859   2.235   3.061   0.661  0.1644  4.2966  0.5172
  620SOL    HW2 1860   2.235   2.886   0.689  0.7614  1.7487  0.4538
  621SOL     OW 1861   2.166   1.830   1.314  0.5255  0.0875 -0.1502
  621SOL    HW1 1862   2.152   1.858   1.415  0.9066 -0.2425  0.5278
  621SOL    HW2 1863   2.112   1.748   1.296 -0.4245  0.9458  1.4396
  622SOL     OW 1864   2.257   0.942   1.811 -0.4384  0.1340  0.3925
  622SOL    HW1 1865   2.355   0.966   1.799  0.7247 -2.2158 -0.3588
  622SOL    HW2 1866   2.252   0.858   1.875 -0.6986  0.9615  0.4828
  623SOL     OW 1867   1.320   0.835   2.645  0.2077  0.3186 -0.0282
  623SOL    HW1 1868   1.293   0.738   2.667  0.2626 -0.7209 -2.9336
  623SOL    HW2 1869   1.280   0.873   2.557 -0.4603  1.1458  0.6587
  624SOL     OW 1870   0.586   0.669   3.087  0.4945  0.2990 -0.4672
  624SOL    HW1 1871   0.578   0.696   2.987 -1.3926 -0.7071  1.8035
  624SOL    HW2 1872   0.559   0.749   3.151 -0.4860  2.0256  0.3134
  625SOL     OW 1873   2.810   1.696   0.968  0.3626 -0.0920  0.0011
  625SOL    HW1 1874   2.721   1.749   0.958  2.6024  1.1594  0.9571
  625SOL    HW2 1875   2.878   1.714   0.894 -1.1654 -2.2029 -3.3214
  626SOL     OW 1876   0.600   2.726   1.766  0.0653  0.7811  0.4284
  626SOL    HW1 1877   0.633   2.815   1.816  1.5971 -0.3416  2.9478
  626SOL    HW2 1878   0.496   2.715   1.766 -0.7313  0.0952  0.5028
  627SOL     OW 1879   0.782   0.993   1.503 -0.7231  0.7647  0.1189
  627SOL    HW1 1880   0.742   0.962   1.412  3.2544 -2.0701  2.4192
  627SOL    HW2 1881   0.845   1.074   1.499 -0.6017  0.5939  3.4556
  628SOL     OW 1882   2.392   0.167   0.709 -0.1651  0.0060  0.2490
  628SOL    HW1 1883   2.423   0.113   0.627 -1.4249  0.9064 -0.0784
  628SOL    HW2 1884   2.285   0.154   0.713 -4.0148 -1.1611 -2.3025
  629SOL     OW 1885   1.954   0.898   1.980 -0.0349 -0.6443 -0.1808
  629SOL    HW1 1886   2.046   0.900   1.929 -0.7519 -0.6947 -0.6883
  629SOL    HW2 1887   1.928   0.999   2.009  0.8628  0.8049  2.0666
  630SOL     OW 1888   2.909   2.229   0.840  0.4882  0.7440  0.3215
  630SOL    HW1 1889   2.847   2.312   0.859  0.2632  0.7335 -0.5296
  630SOL    HW2 1890   2.866   2.132   0.847 -0.1229  0.1949 -2.0027
  631SOL     OW 1891   2.976   0.157   2.118 -0.3228 -0.2727  0.1082
  631SOL    HW1 1892   3.043   0.184   2.193 -0.8807  1.4000 -1.9478
  631SOL    HW2 1893   3.028   0.121   2.036  1.6949 -0.9653 -1.3170
  632SOL     OW 1894   2.369   2.530   0.651 -0.1844  0.2085  0.1460
  632SOL    HW1 1895   2.412   2.609   0.699  3.7675 -0.7965 -0.3905
  632SOL    HW2 1896   2.351   2.553   0.556 -0.8167  0.1006  1.7385
  633SOL     OW 1897   1.425   1.214   2.581 -0.1852 -0.2637 -0.7157
  633SOL    HW1 1898   1.426   1.309   2.624  1.7231  0.5803  1.8445
  633SOL    HW2 1899   1.368   1.217   2.494  1.7244  0.2089 -0.4970
  634SOL     OW 1900   0.704   2.002   0.873  0.4871 -0.9174 -0.1534
  634SOL    HW1 1901   0.619   2.043   0.919  0.3056  0.2334 -0.7993
  634SOL    HW2 1902   0.795   2.047   0.902  0.6502 -2.0659 -1.1497
  635SOL     OW 1903   3.010   2.335   3.095  0.3771 -0.1372  0.2470
  635SOL    HW1 1904   2.934   2.389   3.047 -0.6250  1.7238 -1.5381
  635SOL    HW2 1905   3.086   2.401   3.127  2.0628 -1.5051 -0.3444
  636SOL     OW 1906   2.295   2.727   2.063 -0.7003 -0.4122  0.5052
  636SOL    HW1 1907   2.311   2.831   2.083 -1.4917  1.1235  3.1745
  636SOL    HW2 1908   2.262   2.676   2.142 -1.4042  1.0878 -1.3786
  637SOL     OW 1909   2.639   0.673   2.025 -0.2824  0.5543  0.8497
  637SOL    HW1 1910   2.606   0.659   1.923  1.8529  0.9743 -0.8060
  637SOL    HW2 1911   2.680   0.767   2.042  0.0671  1.6793  1.7644
  638SOL     OW 1912   2.435   1.784   1.248 -0.4611 -0.2348  0.1101
  638SOL    HW1 1913   2.331   1.778   1.264 -0.8813 -1.7321  0.5561
  638SOL    HW2 1914   2.489   1.731   1.317  0.9969 -0.3673  0.6765
  639SOL     OW 1915   1.275   2.160   1.729  0.1558  0.5751 -0.0571
  639SOL    HW1 1916   1.326   2.078   1.687  0.2388  0.1875 -0.6672
  639SOL    HW2 1917   1.176   2.140   1.753  1.3844  0.2644  1.0894
  640SOL     OW 1918   0.185   1.152   1.581 -0.1037  0.0087 -0.0748
  640SOL    HW1 1919   0.150   1.179   1.675  1.4870  3.1109  0.2307
  640SOL    HW2 1920   0.281   1.117   1.571 -0.7560  0.2569 -2.3531
  641SOL     OW 1921   2.045   0.175   1.536 -0.1836  0.3104 -0.0393
  641SOL    HW1 1922   2.016   0.197   1.635 -1.6395  1.5918 -2.5083
  641SOL    HW2 1923   2.146   0.149   1.529  1.8062  0.7276 -1.2034
  642SOL     OW 1924   2.009   0.050   0.323 -0.1178  0.6323  0.1333
  642SOL    HW1 1925   2.102   0.056   0.377  1.1403  0.1943  0.7753
  642SOL    HW2 1926   1.921   0.073   0.376 -0.8504  1.6174 -1.3267
  643SOL     OW 1927   2.958   1.849   2.066  0.0758 -0.1896  0.3259
  643SOL    HW1 1928   2.888   1.780   2.025 -0.7601  0.3053  1.2271
  643SOL    HW2 1929   2.948   1.943   2.026  1.7689 -3.1611 -1.6267
  644SOL     OW 1930   2.232   2.357   1.190  0.1550  0.5460  0.2497
  644SOL    HW1 1931   2.300   2.276   1.176  2.0958 -2.2728  0.0993
  644SOL    HW2 1932   2.209   2.366   1.296 -2.7236  0.1576  0.6857
  645SOL     OW 1933   0.615   0.795   1.279  0.3579  0.0833 -0.1480
  645SOL    HW1 1934   0.523   0.834   1.281  1.9118 -0.1065  0.2723
  645SOL    HW2 1935   0.652   0.795   1.182 -3.6615 -0.4006 -2.6907
  646SOL     OW 1936   1.443   1.870   2.049  0.5458  0.4707 -0.4157
  646SOL    HW1 1937   1.486   1.922   1.973 -0.8946  0.4508 -0.0291
  646SOL    HW2 1938   1.444   1.921   2.137 -0.7436  0.9212 -0.0619
  647SOL     OW 1939   0.799   1.080   0.704  0.1748 -0.1949 -0.2208
  647SOL    HW1 1940   0.862   1.093   0.783  1.6177  3.7725  1.3706
  647SOL    HW2 1941   0.735   0.997   0.721 -0.0139 -3.0241  0.0235
  648SOL     OW 1942   0.075   0.224   0.212  0.0688 -0.2199 -0.1886
  648SOL    HW1 1943   0.124   0.177   0.130  0.6155 -2.9602 -3.5151
  648SOL    HW2 1944   0.080   0.328   0.201 -0.0410  0.0078  0.2590
  649SOL     OW 1945   3.030   0.240   0.876 -0.2526  0.7464  0.6338
  649SOL    HW1 1946   3.122   0.194   0.869 -2.2387 -0.1735 -2.1316
  649SOL    HW2 1947   3.030   0.320   0.938 -0.7930 -1.6731  2.0658
  650SOL     OW 1948   2.787   0.715   1.472 -0.3620 -0.4367 -0.3885
  650SOL    HW1 1949   2.684   0.705   1.483  1.2670 -0.4785 -0.2710
  650SOL    HW2 1950   2.812   0.801   1.420  0.5013 -1.8645 -0.3310
  651SOL     OW 1951   0.910   1.531   1.599  0.0910  0.2515  0.3890
  651SOL    HW1 1952   0.971   1.601   1.650  0.3896  2.4713  0.6169
  651SOL    HW2 1953   0.945   1.509   1.507 -2.3131 -0.0555 -1.5745
  652SOL     OW 1954   2.309   2.418   2.495 -0.1462 -0.1203  0.0657
  652SOL    HW1 1955   2.206   2.386   2.498 -0.4135  0.4047 -0.9594
  652SOL    HW2 1956   2.319   2.521   2.481  3.8340 -0.7156  1.7349
  653SOL     OW 1957   2.706   1.234   0.194 -0.3783 -0.1001 -0.5443
  653SOL    HW1 1958   2.740   1.313   0.248 -1.0794  1.6266 -4.0732
  653SOL    HW2 1959   2.751   1.146   0.226  1.7024  1.1293  0.8074
  654SOL     OW 1960   1.229   2.249   1.257 -0.4867 -0.4027  0.1371
  654SOL    HW1 1961   1.263   2.169   1.320  0.2361 -0.5086 -0.3243
  654SOL    HW2 1962   1.288   2.259   1.170 -0.2176  0.0051 -0.9400
  655SOL     OW 1963   0.154   0.956   1.974 -0.5617 -0.2923 -0.1835
  655SOL    HW1 1964   0.235   0.910   1.925  0.8741  1.9416 -0.4919
  655SOL    HW2 1965   0.159   1.058   1.954  1.0462 -0.2342 -0.9815
  656SOL     OW 1966   2.567   2.430   2.654  0.2916  0.4270 -0.0978
  656SOL    HW1 1967   2.661   2.407   2.608 -1.8391 -1.8301 -2.0398
  656SOL    HW2 1968   2.492   2.390   2.598  1.1414 -0.1812  0.6301
  657SOL     OW 1969   3.004   1.007   1.893  0.1436  0.1441  0.2242
  657SOL    HW1 1970   2.988   1.108   1.917 -1.7749 -0.6520 -0.4868
  657SOL    HW2 1971   3.097   0.971   1.921  1.0933 -2.1897  0.9475
  658SOL     OW 1972   1.635   0.192   2.386  0.1882  0.2459  0.4642
  658SOL    HW1 1973   1.678   0.126   2.459  1.4133 -0.9731  0.0279
  658SOL    HW2 1974   1.695   0.201   2.299  1.3777 -2.0138 -1.7912
  659SOL     OW 1975   1.412   0.615   2.842  0.9053 -0.5217  0.3468
  659SOL    HW1 1976   1.466   0.703   2.872 -0.9079 -1.1272  1.5937
  659SOL    HW2 1977   1.309   0.627   2.850 -0.2629  1.7848  0.6607
  660SOL     OW 1978   1.398   0.344   1.402 -0.6641 -0.3703  0.5633
  660SOL    HW1 1979   1.401   0.418   1.470 -1.2895 -0.8923  1.8492
  660SOL    HW2 1980   1.483   0.281   1.404 -2.7349 -0.3847 -2.5645
  661SOL     OW 1981   2.469   1.191   0.664  0.7054  0.3218 -0.3979
  661SOL    HW1 1982   2.486   1.190   0.564 -0.6015  2.1327 -1.1314
  661SOL    HW2 1983   2.430   1.283   0.699  1.0109 -0.0834 -0.1132
  662SOL     OW 1984   1.415   0.411   1.744  0.1142  0.5436  0.2191
  662SOL    HW1 1985   1.344   0.333   1.745 -0.7625  1.0261  0.5194
  662SOL    HW2 1986   1.433   0.455   1.837  1.6227 -1.6939  0.5960
  663SOL     OW 1987   0.771   1.548   2.229 -0.1372 -0.0379  0.3520
  663SOL    HW1 1988   0.706   1.623   2.234 -2.2285  0.0277 -1.7131
  663SOL    HW2 1989   0.762   1.468   2.161 -2.7288 -1.6193  0.6804
  664SOL     OW 1990   1.623   2.084   1.439  1.0334  0.2116  0.0454
  664SOL    HW1 1991   1.559   2.024   1.499 -1.5500  0.1745  1.5881
  664SOL    HW2 1992   1.721   2.054   1.442  1.1039 -0.5117 -0.1503
  665SOL     OW 1993   2.262   0.674   1.933  0.3005 -0.1857 -0.2938
  665SOL    HW1 1994   2.190   0.595   1.918  2.1401 -3.7782 -2.1997
  665SOL    HW2 1995   2.294   0.684   2.034 -1.1411  1.2611 -1.3756
  666SOL     OW 1996   0.434   2.303   0.362 -0.5101  0.2240 -0.0035
  666SOL    HW1 1997   0.475   2.375   0.430  0.5196  1.1158  0.7797
  666SOL    HW2 1998   0.331   2.285   0.371  1.1630  0.6537  0.3971
  667SOL     OW 1999   2.034   0.199   1.193 -0.7322  0.1153 -0.3739
  667SOL    HW1 2000   2.048   0.300   1.161  2.0181  0.9408  0.8773
  667SOL    HW2 2001   1.944   0.172   1.243 -0.9181  1.0969  1.4400
  668SOL     OW 2002   2.065   0.466   1.131  0.2766 -0.1943 -0.1045
  668SOL    HW1 2003   2.139   0.498   1.067 -4.6249 -1.0069  1.8793
  668SOL    HW2 2004   2.087   0.488   1.230 -1.2074  3.3912 -1.2439
  669SOL     OW 2005   0.008   2.157   1.038  0.1176  0.3663 -0.6389
  669SOL    HW1 2006  -0.074   2.194   0.989 -0.3898  2.0563 -0.4505
  669SOL    HW2 2007   0.051   2.216   1.104 -0.0855 -0.2112  0.6994
  670SOL     OW 2008   2.858   2.348   1.979  0.3745 -0.0655 -0.5239
  670SOL    HW1 2009   2.807   2.308   2.057 -2.7215  0.3041 -1.6875
  670SOL    HW2 2010   2.842   2.451   1.968 -0.1140 -0.3728 -1.6419
  671SOL     OW 2011   1.734   1.705   1.485  0.6002 -0.3518  0.0248
  671SOL    HW1 2012   1.764   1.735   1.390  1.1147  1.9531 -1.9270
  671SOL    HW2 2013   1.628   1.698   1.494 -0.2822 -2.1170  0.0053
  672SOL     OW 2014   0.416   0.627   2.392  0.1887 -0.0212 -0.1858
  672SOL    HW1 2015   0.468   0.632   2.304  0.2733 -0.6585  1.2079
  672SOL    HW2 2016   0.331   0.690   2.390 -0.8304  1.4748 -0.7611
  673SOL     OW 2017   0.129   1.190   1.150  0.4840 -0.4030  0.0536
  673SOL    HW1 2018   0.160   1.243   1.235 -1.0539 -1.0477  3.0918
  673SOL    HW2 2019   0.208   1.159   1.093 -1.4823 -0.3731  1.0372
  674SOL     OW 2020   1.686   2.932   0.237 -0.6190  0.4294 -0.0841
  674SOL    HW1 2021   1.688   3.017   0.180  0.0962 -2.6908 -0.4290
  674SOL    HW2 2022   1.722   2.845   0.192  1.9532  1.1915 -1.1392
  675SOL     OW 2023   1.737   0.811   2.337 -0.0731  0.4367  0.4232
  675SOL    HW1 2024   1.829   0.810   2.288  3.8255 -1.7781  1.5201
  675SOL    HW2 2025   1.685   0.722   2.317  2.2791  0.3431 -1.3633
  676SOL     OW 2026   2.515   1.470   1.960 -0.3845 -0.5712 -0.0058
  676SOL    HW1 2027   2.500   1.460   1.860  2.3405  1.6164  0.7275
  676SOL    HW2 2028   2.570   1.394   2.008  2.4792 -1.1055  3.2196
  677SOL     OW 2029   1.864   0.655   0.899  0.9334 -0.0500 -0.2250
  677SOL    HW1 2030   1.842   0.701   0.988  3.7591 -1.6409 -1.0642
  677SOL    HW2 2031   1.879   0.556   0.905  0.0162  1.9745 -2.1887
  678SOL     OW 2032   0.035   0.758   1.672 -0.0418  0.1399  0.3827
  678SOL    HW1 2033   0.126   0.778   1.713 -1.1363 -1.6342  0.7220
  678SOL    HW2 2034  -0.038   0.735   1.744 -0.4870  2.4007  1.4421
  679SOL     OW 2035   2.565   1.194   1.099  0.8613  0.2075  0.1787
  679SOL    HW1 2036   2.476   1.240   1.134 -2.8553  2.6349 -0.2745
  679SOL    HW2 2037   2.576   1.090   1.117 -0.7639 -1.6158 -3.2802
  680SOL     OW 2038   2.839   0.585   1.699 -0.1529  0.7164 -0.0297
  680SOL    HW1 2039   2.810   0.643   1.615 -1.4128 -0.7707  1.1628
  680SOL    HW2 2040   2.862   0.650   1.776 -0.1928  0.5810  1.4088
  681SOL     OW 2041   3.010   0.164   1.639 -0.1684  0.9158 -0.0617
  681SOL    HW1 2042   3.096   0.151   1.573  2.3822  1.1491  3.1326
  681SOL    HW2 2043   2.952   0.243   1.607  1.7499 -3.8679  0.3119
  682SOL     OW 2044   0.827   3.097   1.303  0.2727  0.0999  0.0602
  682SOL    HW1 2045   0.725   3.063   1.328 -2.1098 -1.6547 -2.8557
  682SOL    HW2 2046   0.835   3.108   1.198  0.2560 -3.4715 -0.3158
  683SOL     OW 2047   1.351   0.234   2.191 -0.7749 -0.1875  0.3020
  683SOL    HW1 2048   1.355   0.254   2.295  3.9689 -1.4071  1.1216
  683SOL    HW2 2049   1.430   0.278   2.130 -0.6812 -1.8183 -1.1238
  684SOL     OW 2050   1.459   2.117   0.483 -0.3492 -0.3904  0.7392
  684SOL    HW1 2051   1.513   2.038   0.523 -2.3452 -0.7150 -0.4230
  684SOL    HW2 2052   1.367   2.086   0.441 -2.0454 -0.2388  1.9261
  685SOL     OW 2053   2.126   2.039   1.955 -0.6140 -0.2775  0.3146
  685SOL    HW1 2054   2.202   2.004   1.890  2.0242 -2.7333 -0.2256
  685SOL    HW2 2055   2.135   2.016   2.052 -1.0319  1.0034  0.5650
  686SOL     OW 2056   1.533   1.809   2.704 -0.6483 -0.2241 -0.1918
  686SOL    HW1 2057   1.551   1.770   2.802  1.5484 -0.2005  0.3599
  686SOL    HW2 2058   1.583   1.759   2.627  3.0054  2.5099 -0.5738
  687SOL     OW 2059   1.288   2.478   1.979  0.0303  0.2109 -0.1521
  687SOL    HW1 2060   1.334   2.383   1.986 -2.6510 -1.0714 -0.5484
  687SOL    HW2 2061   1.340   2.549   2.035 -2.3434 -3.6805  0.8967
  688SOL     OW 2062   2.082   1.498   1.770 -0.1031  0.1717 -1.0222
  688SOL    HW1 2063   2.167   1.556   1.775  0.6557  0.1551 -2.7253
  688SOL    HW2 2064   2.047   1.488   1.676  1.7490  2.3806  1.2061
  689SOL     OW 2065   2.400   1.080   2.719  0.7735  0.0292 -0.4879
  689SOL    HW1 2066   2.312   1.026   2.747 -1.2063 -3.0942 -1.4490
  689SOL    HW2 2067   2.456   1.114   2.800  0.8735  1.2064 -0.3485
  690SOL     OW 2068   2.223   2.813   0.030  0.2121 -0.0684 -0.7326
  690SOL    HW1 2069   2.135   2.806  -0.024 -0.1092  2.6660  0.9182
  690SOL    HW2 2070   2.201   2.815   0.129 -2.2713  0.8250 -1.9227
  691SOL     OW 2071   2.609   0.460   2.211 -0.3679 -0.2904 -0.1719
  691SOL    HW1 2072   2.645   0.375   2.152  0.1349 -0.6532 -2.0070
  691SOL    HW2 2073   2.597   0.546   2.153  0.1506  2.7651 -3.1586
  692SOL     OW 2074   2.718   1.226   0.749 -0.0823  0.1882 -0.1506
  692SOL    HW1 2075   2.611   1.224   0.734 -2.2169 -0.1600  0.2960
  692SOL    HW2 2076   2.745   1.304   0.810  0.0067 -1.7988  1.6594
  693SOL     OW 2077   2.875   2.939   0.624 -0.1613 -0.6305  0.0179
  693SOL    HW1 2078   2.864   3.022   0.689  0.0166  1.5404  0.2919
  693SOL    HW2 2079   2.820   2.967   0.539 -0.6492  2.7284  2.0445
  694SOL     OW 2080   2.362   2.173   0.083  0.1315  0.3822  0.0123
  694SOL    HW1 2081   2.364   2.273   0.111 -0.7691  1.1288 -0.0287
  694SOL    HW2 2082   2.275   2.140   0.033 -2.7292  0.4270  0.6741
  695SOL     OW 2083   0.584   2.997   1.421 -0.1673 -0.2750  0.1821
  695SOL    HW1 2084   0.510   2.926   1.395  0.2003 -1.3369 -0.1588
  695SOL    HW2 2085   0.553   3.052   1.508 -1.7077  1.3791  1.6239
  696SOL     OW 2086   2.767   1.948   0.725  0.2155 -0.3639  0.5674
  696SOL    HW1 2087   2.857   1.895   0.722 -0.3348  0.3473 -0.1962
  696SOL    HW2 2088   2.753   2.006   0.641 -1.3779 -0.5771  0.3403
  697SOL     OW 2089   1.594   2.029   1.826  0.2126  0.1322 -0.3097
  697SOL    HW1 2090   1.674   1.974   1.865 -1.4606 -0.8100  1.8471
  697SOL    HW2 2091   1.630   2.116   1.795  0.2160 -2.8338  1.7550
  698SOL     OW 2092   2.940   0.433   2.783  0.0206  0.0265  0.1882
  698SOL    HW1 2093   2.926   0.418   2.680 -2.0632  3.2181 -3.8837
  698SOL    HW2 2094   3.012   0.379   2.831  2.2445 -0.1465 -2.0596
  699SOL     OW 2095   1.569   0.077   2.919  0.1255  0.1186 -0.0962
  699SOL    HW1 2096   1.561  -0.020   2.884  2.9293 -1.1040 -1.1828
  699SOL    HW2 2097   1.614   0.138   2.843  1.1913 -0.3207 -0.7845
  700SOL     OW 2098   0.958   2.315   1.329  0.2009 -0.5589 -0.5596
  700SOL    HW1 2099   1.058   2.307   1.307 -0.6031  2.3404  0.2557
  700SOL    HW2 2100   0.899   2.273   1.253 -0.1826 -1.1237 -0.8884
  701SOL     OW 2101   1.905   2.888   3.063  0.2397 -0.9491  0.2090
  701SOL    HW1 2102   1.923   2.829   3.146  1.2107 -2.0269 -0.2071
  701SOL    HW2 2103   1.913   2.986   3.091  1.6993 -2.1167 -1.8663
  702SOL     OW 2104   2.064   1.328   2.003 -0.2805 -0.2290  0.3580
  702SOL    HW1 2105   2.143   1.269   1.971  0.8509 -1.3529  0.4628
  702SOL    HW2 2106   2.047   1.410   1.939  0.7676  1.2822  3.2453
  703SOL     OW 2107   1.930   0.884   1.437 -0.3585 -0.0543 -0.4950
  703SOL    HW1 2108   1.907   0.797   1.486  2.7057 -0.2797 -0.7706
  703SOL    HW2 2109   2.007   0.938   1.476 -0.4001  1.5820 -0.1306
  704SOL     OW 2110   0.309   2.058   1.711  0.0360  0.1988 -0.9035
  704SOL    HW1 2111   0.341   1.984   1.777 -0.7134 -0.8597  2.3792
  704SOL    HW2 2112   0.378   2.127   1.680 -2.5493  0.8841 -0.1947
  705SOL     OW 2113   2.527   1.504   0.961 -0.3333 -0.2674  0.3511
  705SOL    HW1 2114   2.484   1.456   0.882  0.0493 -1.4845  1.5734
  705SOL    HW2 2115   2.623   1.468   0.985  0.2836  0.1359  1.2351
  706SOL     OW 2116   0.640   1.622   1.843 -0.3964  0.1572 -0.7321
  706SOL    HW1 2117   0.670   1.543   1.906  1.8154 -0.2563 -0.9813
  706SOL    HW2 2118   0.676   1.716   1.880  1.9418  0.2557  0.6141
  707SOL     OW 2119   2.266   1.205   1.876 -0.0443  0.0049  0.1427
  707SOL    HW1 2120   2.370   1.196   1.891  1.3280  1.0200  1.0107
  707SOL    HW2 2121   2.226   1.125   1.830  0.9099  1.8272  1.5837
  708SOL     OW 2122   3.087   0.511   3.073 -0.6678  0.8111 -0.8332
  708SOL    HW1 2123   3.078   0.600   3.018  3.7040  1.8226 -0.3782
  708SOL    HW2 2124   3.047   0.429   3.021  0.5029  0.9531  2.6570
  709SOL     OW 2125   1.828   1.843   0.241 -0.0939 -0.1367 -0.2342
  709SOL    HW1 2126   1.843   1.934   0.287 -1.3652  0.4704  1.4912
  709SOL    HW2 2127   1.819   1.843   0.138 -2.0992  1.1378  0.4805
  710SOL     OW 2128   1.758   1.657   2.434  0.3169  0.1819  0.2479
  710SOL    HW1 2129   1.767   1.611   2.344 -0.3047  1.0162 -1.0818
  710SOL    HW2 2130   1.758   1.595   2.513  2.7324  2.6762 -0.8651
  711SOL     OW 2131   2.627   2.971   1.011  0.5228  0.1746 -1.0163
  711SOL    HW1 2132   2.606   3.052   0.945  0.1990 -0.2715 -2.2794
  711SOL    HW2 2133   2.725   2.976   1.050 -0.7024  1.8716  1.9074
  712SOL     OW 2134   1.379   2.212   1.991 -0.4581  0.2305  0.1649
  712SOL    HW1 2135   1.477   2.190   1.999 -1.7252  1.2902 -0.9203
  712SOL    HW2 2136   1.343   2.193   1.899 -0.1551  0.2851  1.0132
  713SOL     OW 2137   2.896   1.473   2.536  0.3135 -0.5776  0.1472
  713SOL    HW1 2138   2.883   1.374   2.506 -0.5305  1.7212 -3.0287
  713SOL    HW2 2139   2.875   1.492   2.635 -0.1028 -0.8744 -0.5438
  714SOL     OW 2140   2.725   0.506   2.458  0.1397 -0.1660  0.2849
  714SOL    HW1 2141   2.654   0.505   2.531  1.8814 -0.8778  1.0169
  714SOL    HW2 2142   2.688   0.490   2.364 -0.8674  0.1558  1.9892
  715SOL     OW 2143   1.573   2.021   1.106 -0.0130 -0.2106  0.0371
  715SOL    HW1 2144   1.476   2.058   1.088 -0.0828 -1.6037  1.5347
  715SOL    HW2 2145   1.613   2.068   1.185  0.3362  1.7433 -0.8434
  716SOL     OW 2146   1.201   0.165   1.468  0.9034 -0.2797 -0.3167
  716SOL    HW1 2147   1.106   0.177   1.436  5.6861  0.7682 -0.3719
  716SOL    HW2 2148   1.265   0.245   1.448 -1.2661 -0.2437  1.7084
  717SOL     OW 2149   1.162   0.505   1.566 -0.2718  0.1070  0.4368
  717SOL    HW1 2150   1.246   0.533   1.614  0.8118 -2.1294 -1.7954
  717SOL    HW2 2151   1.162   0.498   1.461  1.4447 -1.5143 -0.3299
  718SOL     OW 2152   0.692   0.947   0.993 -0.0229  0.2775 -0.4556
  718SOL    HW1 2153   0.646   0.917   0.906  0.8013  0.4134 -0.1359
  718SOL    HW2 2154   0.668   1.048   1.009  0.9646 -1.6567 -2.1403
  719SOL     OW 2155   0.616   1.788   2.278  0.2473  0.1602 -0.3164
  719SOL    HW1 2156   0.697   1.822   2.334  0.0249 -1.3513  1.6833
  719SOL    HW2 2157   0.545   1.725   2.326  3.4982 -0.5748 -1.1930
  720SOL     OW 2158   2.192   1.162   0.310 -0.2267 -0.3804 -0.5002
  720SOL    HW1 2159   2.225   1.084   0.257  2.5970  2.8668  2.5789
  720SOL    HW2 2160   2.165   1.132   0.403  0.7170  0.6785 -2.7353
  721SOL     OW 2161   2.263   3.009   2.125 -0.1726  0.0004  0.3164
  721SOL    HW1 2162   2.241   3.059   2.035  0.0620 -1.1177 -3.3872
  721SOL    HW2 2163   2.207   3.041   2.207 -2.0834 -2.5205  0.2323
  722SOL     OW 2164   2.375   1.572   0.500  0.2375 -0.0447 -0.1781
  722SOL    HW1 2165   2.440   1.556   0.421 -0.4594 -1.6139 -2.2849
  722SOL    HW2 2166   2.339   1.670   0.502  5.2141  0.6266 -2.9907
  723SOL     OW 2167   2.552   2.724   1.953 -0.0930 -0.0741  0.5767
  723SOL    HW1 2168   2.605   2.791   2.018  4.7125 -1.2635  0.7835
  723SOL    HW2 2169   2.458   2.707   1.991  1.7197 -0.2995  2.7706
  724SOL     OW 2170   0.526   2.491   2.425  0.6642 -0.5632  0.3842
  724SOL    HW1 2171   0.424   2.499   2.449 -1.1648  1.9553 -1.2401
  724SOL    HW2 2172   0.586   2.521   2.505 -0.8124  4.1594  2.0362
  725SOL     OW 2173   2.471   2.840   1.517  0.2630 -0.0912 -0.4982
  725SOL    HW1 2174   2.467   2.888   1.422  0.0202 -0.0558  0.8038
  725SOL    HW2 2175   2.452   2.739   1.515 -1.3705  0.7098  3.3982
  726SOL     OW 2176   2.517   2.286   0.714  0.1180 -0.9534 -0.2307
  726SOL    HW1 2177   2.455   2.372   0.708 -1.7521  0.0874 -0.3287
  726SOL    HW2 2178   2.489   2.213   0.647  0.7291  2.5718  3.4105
  727SOL     OW 2179   0.152   3.094   0.047  0.4494 -0.4645 -0.0921
  727SOL    HW1 2180   0.204   3.003   0.050 -1.4812  0.0012  2.0021
  727SOL    HW2 2181   0.078   3.109  -0.024 -0.6959  1.3441 -1.6703
  728SOL     OW 2182   2.891   0.653   0.971 -0.6479 -0.2380  0.3002
  728SOL    HW1 2183   2.794   0.673   0.930 -0.9293 -1.8988 -0.8920
  728SOL    HW2 2184   2.882   0.635   1.075  0.6411  0.2819  2.7581
  729SOL     OW 2185   3.052   2.483   0.774 -0.3877 -1.1612 -0.1554
  729SOL    HW1 2186   3.005   2.409   0.831 -0.6781  2.6009 -2.4796
  729SOL    HW2 2187   3.121   2.439   0.710  1.7595  1.5178 -2.1844
  730SOL     OW 2188   2.621   0.725   0.847 -0.2740 -0.0840 -0.2211
  730SOL    HW1 2189   2.591   0.819   0.829 -1.4234 -1.7146  1.8104
  730SOL    HW2 2190   2.685   0.691   0.772  1.6067 -1.2836 -0.4728
  731SOL     OW 2191   0.102   2.077   2.508  0.1902  0.7436  0.0826
  731SOL    HW1 2192   0.119   2.137   2.593  0.3260 -1.2091  0.2134
  731SOL    HW2 2193   0.096   2.138   2.428  2.5825  0.2768  0.7507
  732SOL     OW 2194   1.165   2.816   1.948 -0.6226 -0.3573 -0.0938
  732SOL    HW1 2195   1.191   2.781   2.047  0.5865 -0.1935  0.7558
  732SOL    HW2 2196   1.188   2.746   1.872 -1.5943 -0.1645 -0.6988
  733SOL     OW 2197   3.054   0.588   2.235  0.2755 -0.2910  0.7030
  733SOL    HW1 2198   3.132   0.627   2.169  3.7489  1.7814 -0.6046
  733SOL    HW2 2199   2.993   0.524   2.184  1.5918  0.9323  1.2218
  734SOL     OW 2200   1.423   0.379   2.709 -0.0859 -0.3328  0.4374
  734SOL    HW1 2201   1.410   0.467   2.763 -0.5573  0.0801 -0.3624
  734SOL    HW2 2202   1.345   0.310   2.722 -0.4636 -1.4610 -0.7198
  735SOL     OW 2203   2.899   2.656   2.277  0.0309 -0.3281  0.2303
  735SOL    HW1 2204   2.854   2.662   2.183  0.3668  0.0951  0.6501
  735SOL    HW2 2205   3.002   2.682   2.275  2.6746  0.0833 -2.3301
  736SOL     OW 2206   0.802   0.309   2.603 -0.1615 -0.1371  0.3709
  736SOL    HW1 2207   0.712   0.358   2.608  0.7383 -2.4366  3.7902
  736SOL    HW2 2208   0.807   0.234   2.536 -0.3015  5.4276  1.3882
  737SOL     OW 2209   2.685   0.495   2.863  0.1003  0.3568  0.5123
  737SOL    HW1 2210   2.668   0.442   2.951  1.6800 -0.0985  0.9199
  737SOL    HW2 2211   2.787   0.492   2.843  0.6903  2.0597  2.5719
  738SOL     OW 2212   1.645   1.259   2.891  0.3396 -0.3570  0.0513
  738SOL    HW1 2213   1.746   1.248   2.874 -2.2817 -0.6768  0.6781
  738SOL    HW2 2214   1.591   1.175   2.856  0.7686  0.7470 -1.7007
  739SOL     OW 2215   1.738   0.649   0.654 -0.5079  0.2227 -0.1052
  739SOL    HW1 2216   1.783   0.662   0.746  0.3076  1.0111  0.8213
  739SOL    HW2 2217   1.787   0.574   0.595  0.3417 -0.2586 -2.7452
  740SOL     OW 2218   1.984   1.912   2.274  0.1346  0.1559 -0.5297
  740SOL    HW1 2219   2.041   1.838   2.324  0.2993  1.9418 -2.3384
  740SOL    HW2 2220   1.885   1.887   2.250 -0.6160  1.2658 -4.0502
  741SOL     OW 2221   2.563   0.046   2.565 -0.0050 -0.0555  0.7425
  741SOL    HW1 2222   2.663   0.036   2.586  0.1120  0.6158 -0.1547
  741SOL    HW2 2223   2.538   0.065   2.465 -1.3242 -2.5845  0.9639
  742SOL     OW 2224   2.222   1.434   0.216  0.3942  0.7672  0.3253
  742SOL    HW1 2225   2.140   1.493   0.215 -1.1054 -0.8019  0.0747
  742SOL    HW2 2226   2.199   1.347   0.264 -1.4121 -0.9212  0.2600
  743SOL     OW 2227   1.850   0.675   2.634  0.1352 -0.0551 -0.2345
  743SOL    HW1 2228   1.822   0.583   2.594  0.9632 -3.3819 -0.1913
  743SOL    HW2 2229   1.777   0.745   2.656  3.7291 -0.2947 -2.1057
  744SOL     OW 2230   2.619   2.122   0.164 -0.1628  0.3630 -0.2004
  744SOL    HW1 2231   2.529   2.098   0.114  0.5479  0.3245  0.8421
  744SOL    HW2 2232   2.626   2.117   0.263 -0.1003 -4.3349  0.0048
  745SOL     OW 2233   2.155   2.619   2.295  0.1408 -0.1829  0.1584
  745SOL    HW1 2234   2.053   2.616   2.273  0.1751 -0.4860 -0.8747
  745SOL    HW2 2235   2.186   2.645   2.392  2.8431 -1.3485  0.6450
  746SOL     OW 2236   3.090   2.614   1.738  0.5857  0.0899 -0.4967
  746SOL    HW1 2237   3.167   2.644   1.678 -0.4402  0.4102  0.6054
  746SOL    HW2 2238   3.038   2.686   1.794  0.6938 -1.5743 -0.2430
  747SOL     OW 2239   0.052   1.757   1.680  0.1189  0.0703 -0.5255
  747SOL    HW1 2240  -0.013   1.679   1.664  1.8039 -0.3291 -2.1394
  747SOL    HW2 2241   0.120   1.771   1.602 -1.2635 -0.7314  4.3921
  748SOL     OW 2242   1.839   2.737   2.839  0.0774  0.2499 -0.6495
  748SOL    HW1 2243   1.824   2.816   2.906  1.0343  1.9665  1.0120
  748SOL    HW2 2244   1.745   2.725   2.797  0.1368 -0.1667 -2.3185
  749SOL     OW 2245   1.337   3.052   0.952  0.5780  0.0315  0.5416
  749SOL    HW1 2246   1.259   2.992   0.966 -1.5841  1.3377 -0.0302
  749SOL    HW2 2247   1.381   3.029   0.860 -1.8742  0.6513  2.3333
  750SOL     OW 2248   2.284   0.179   1.903  0.4872 -0.0308  0.1539
  750SOL    HW1 2249   2.262   0.243   1.824 -0.4225  1.6340  0.3426
  750SOL    HW2 2250   2.319   0.228   1.994 -0.8144 -0.6279  1.5313
  751SOL     OW 2251   0.881   2.157   2.802  0.4328  0.4296 -0.1744
  751SOL    HW1 2252   0.940   2.146   2.886  0.0074  0.7526  0.3861
  751SOL    HW2 2253   0.780   2.130   2.819  0.4864 -0.1663 -0.2092
  752SOL     OW 2254   1.318   0.855   1.324 -0.0962 -0.2007  0.7800
  752SOL    HW1 2255   1.385   0.933   1.301 -0.8118  1.9990  1.5720
  752SOL    HW2 2256   1.370   0.765   1.351 -3.9360 -2.4650  0.9538
  753SOL     OW 2257   0.925   2.607   1.656  0.2099 -0.0641  0.4082
  753SOL    HW1 2258   1.019   2.621   1.693 -2.7268 -1.3366 -0.2603
  753SOL    HW2 2259   0.894   2.679   1.590  0.2243  0.4163  0.7938
  754SOL     OW 2260   1.090   1.225   2.985 -0.4652 -0.5093 -0.0309
  754SOL    HW1 2261   1.159   1.151   2.970  1.2171 -0.7404 -1.3031
  754SOL    HW2 2262   1.120   1.318   3.014 -0.5730 -1.4007 -0.2839
  755SOL     OW 2263   2.002   0.461   2.238 -0.1695  0.2710 -0.0466
  755SOL    HW1 2264   2.071   0.392   2.275 -0.5240  1.6353  3.6501
  755SOL    HW2 2265   1.913   0.464   2.290 -1.6949 -1.7743 -0.6787
  756SOL     OW 2266   2.553   1.049   2.954 -0.4805  0.0020 -0.7357
  756SOL    HW1 2267   2.652   1.056   2.992  0.9080 -1.0759  1.2196
  756SOL    HW2 2268   2.515   0.956   2.977  3.8800  0.1789  0.0312
  757SOL     OW 2269   0.040   0.528   1.890  0.0538 -0.3877 -0.5935
  757SOL    HW1 2270   0.117   0.503   1.833  0.5291 -1.1808  0.1396
  757SOL    HW2 2271  -0.047   0.471   1.888 -2.6085  2.9786 -2.3090
  758SOL     OW 2272   2.352   0.085   1.491  0.8238  0.1850  0.0951
  758SOL    HW1 2273   2.325  -0.011   1.516  1.0146 -1.5900 -0.1201
  758SOL    HW2 2274   2.360   0.095   1.392 -0.1054 -1.0415  0.8942
  759SOL     OW 2275   1.713   0.111   0.056  0.3021 -0.4149  0.1795
  759SOL    HW1 2276   1.665   0.120  -0.038 -0.7348 -2.8762  0.3108
  759SOL    HW2 2277   1.812   0.085   0.050 -1.3283 -0.2771 -0.2895
  760SOL     OW 2278   2.691   2.091   2.823  0.0557  0.6547 -0.1246
  760SOL    HW1 2279   2.730   2.011   2.873 -0.6604  0.7950 -1.1163
  760SOL    HW2 2280   2.662   2.170   2.887  0.1214  1.5723  1.6948
  761SOL     OW 2281   1.893   1.750   1.704  0.2212  0.4642 -0.2798
  761SOL    HW1 2282   1.931   1.651   1.717 -0.0425 -0.9767  1.6175
  761SOL    HW2 2283   1.820   1.754   1.626 -2.5718  1.8831 -2.4073
  762SOL     OW 2284   0.500   2.359   0.959 -0.3204  0.5657  0.0257
  762SOL    HW1 2285   0.538   2.382   0.864 -0.1358 -4.4645  2.9705
  762SOL    HW2 2286   0.563   2.388   1.038 -0.0435  0.5444 -0.0160
  763SOL     OW 2287   2.105   1.559   2.958 -0.4032 -0.5668 -0.6064
  763SOL    HW1 2288   2.196   1.500   2.967  0.0083  0.0680 -0.8383
  763SOL    HW2 2289   2.032   1.520   3.026  3.7400 -0.1925  2.4408
  764SOL     OW 2290   0.664   0.625   0.820  0.2614  0.1128  0.0916
  764SOL    HW1 2291   0.610   0.541   0.789 -1.1482 -1.1713 -0.1089
  764SOL    HW2 2292   0.760   0.613   0.861  0.0240 -1.8975 -0.2437
  765SOL     OW 2293   0.708   0.250   0.743  0.3417  0.5981  0.3694
  765SOL    HW1 2294   0.798   0.284   0.713 -0.0982  0.3138 -0.7198
  765SOL    HW2 2295   0.701   0.247   0.845 -2.1223  1.4738 -4.2333
  766SOL     OW 2296   2.853   2.112   0.025  0.5831 -0.6643  0.1386
  766SOL    HW1 2297   2.756   2.113   0.071 -2.5668 -2.4545 -0.0662
  766SOL    HW2 2298   2.902   2.200   0.037  1.3105 -0.1251 -1.8258
  767SOL     OW 2299   2.800   1.593   0.626  0.2733  0.0088  0.0174
  767SOL    HW1 2300   2.714   1.585   0.684  0.5231 -4.8809 -2.3004
  767SOL    HW2 2301   2.869   1.668   0.646  3.9075  0.1714  1.5234
  768SOL     OW 2302   1.029   0.077   0.267  0.3202  1.5268 -0.3566
  768SOL    HW1 2303   0.979   0.077   0.361 -0.3476 -1.0751  1.1103
  768SOL    HW2 2304   1.117   0.124   0.255 -0.1633 -0.1892 -0.6865
  769SOL     OW 2305   1.037   1.922   2.252 -0.6577 -0.2674 -0.2843
  769SOL    HW1 2306   0.951   1.920   2.304 -2.9576 -0.0624 -1.9687
  769SOL    HW2 2307   1.111   1.863   2.301  0.7216 -2.6984 -1.8506
  770SOL     OW 2308   0.191   1.111   2.309  0.1262 -0.1134  0.1318
  770SOL    HW1 2309   0.178   1.181   2.382  1.1040 -1.4751 -2.2532
  770SOL    HW2 2310   0.121   1.117   2.231 -2.0220 -2.3736  0.7719
  771SOL     OW 2311   2.979   2.834   1.875  0.3129 -0.1078  0.0306
  771SOL    HW1 2312   2.949   2.898   1.795  0.2339  1.0485  2.4832
  771SOL    HW2 2313   2.985   2.885   1.965  2.1460  1.8693 -0.8500
  772SOL     OW 2314   2.198   0.221   2.890  0.5462  0.0142  0.0394
  772SOL    HW1 2315   2.265   0.143   2.890  0.4653 -0.3967  1.3892
  772SOL    HW2 2316   2.176   0.260   2.978 -1.5132 -1.3080 -1.2814
  773SOL     OW 2317   0.730   2.148   2.436  0.1923  0.2657  0.3990
  773SOL    HW1 2318   0.691   2.180   2.349  3.4984  0.5627 -0.1646
  773SOL    HW2 2319   0.673   2.168   2.520 -1.5216 -0.2810  1.2992
  774SOL     OW 2320   2.043   3.095   2.630 -0.2199 -0.1520 -0.0138
  774SOL    HW1 2321   2.041   3.198   2.655 -0.2051 -0.6909  0.6859
  774SOL    HW2 2322   2.092   3.034   2.689 -1.0605 -0.1817 -2.7144
  775SOL     OW 2323   2.523   2.855   2.384  0.4510 -0.3550  0.2943
  775SOL    HW1 2324   2.473   2.942   2.360 -2.6395 -0.1839  0.9167
  775SOL    HW2 2325   2.604   2.857   2.448 -0.8443  1.3373  2.7115
  776SOL     OW 2326   3.096   1.284   0.205  0.1676  0.8529  0.0584
  776SOL    HW1 2327   3.036   1.265   0.126 -0.2557  0.3816  1.8478
  776SOL    HW2 2328   3.051   1.271   0.298 -1.1952 -0.8732  2.0194
  777SOL     OW 2329   0.338   2.856   0.417 -1.0457 -0.1823 -0.1735
  777SOL    HW1 2330   0.247   2.901   0.398  2.0751 -0.0344  0.2787
  777SOL    HW2 2331   0.419   2.912   0.378 -1.7197 -0.6415  1.6048
  778SOL     OW 2332   1.336   1.956   0.181 -0.2908  0.1132 -0.0388
  778SOL    HW1 2333   1.294   1.964   0.277 -2.0065  1.5219 -0.6770
  778SOL    HW2 2334   1.387   2.037   0.150  1.4933  0.2079  1.5576
  779SOL     OW 2335   0.183   0.845   0.490  0.3516  0.0146 -0.2800
  779SOL    HW1 2336   0.127   0.759   0.465 -0.6357 -1.3311  1.2177
  779SOL    HW2 2337   0.126   0.918   0.538  1.6665  0.2563 -1.2558
  780SOL     OW 2338   0.125   0.204   2.282  0.3573 -0.2568 -0.3495
  780SOL    HW1 2339   0.194   0.284   2.272 -0.4683  2.3503 -2.0679
  780SOL    HW2 2340   0.158   0.119   2.228  1.3485 -1.7210 -0.2484
  781SOL     OW 2341   0.661   1.732   1.549  0.1191  0.6907  0.7609
  781SOL    HW1 2342   0.688   1.717   1.645  1.0513  1.0166  0.0393
  781SOL    HW2 2343   0.576   1.679   1.523 -0.8430  0.8265 -2.7764
  782SOL     OW 2344   2.597   0.119   0.883  0.5098  0.7315 -0.2362
  782SOL    HW1 2345   2.506   0.111   0.826  0.3431 -0.1134 -0.7641
  782SOL    HW2 2346   2.593   0.183   0.964  0.4547  2.2609  1.3027
  783SOL     OW 2347   2.860   0.762   2.580 -0.1158  0.1029  0.6555
  783SOL    HW1 2348   2.809   0.820   2.652 -1.1031  2.0826  0.9848
  783SOL    HW2 2349   2.806   0.683   2.547 -1.5812 -1.9909  1.0088
  784SOL     OW 2350   1.471   2.176   0.095 -0.1577 -0.5037 -0.1598
  784SOL    HW1 2351   1.534   2.259   0.113  0.3549 -2.1722  1.3438
  784SOL    HW2 2352   1.436   2.176  -0.000  1.9515  0.9925  2.1443
  785SOL     OW 2353   2.131   0.350   0.068 -0.1625  0.5867 -0.1831
  785SOL    HW1 2354   2.052   0.388   0.128  1.6269  0.0705  0.0507
  785SOL    HW2 2355   2.166   0.432   0.009  0.8539  1.7869 -1.6011
  786SOL     OW 2356   1.994   2.164   2.183  0.0968 -0.1511 -0.5540
  786SOL    HW1 2357   1.994   2.068   2.213 -0.9409 -0.9750 -4.0717
  786SOL    HW2 2358   2.090   2.191   2.167 -1.7871 -2.4317  3.2518
  787SOL     OW 2359   1.408   0.596   1.008 -0.2005  0.5616 -0.0487
  787SOL    HW1 2360   1.357   0.679   1.032  2.3361  0.0474 -0.6013
  787SOL    HW2 2361   1.426   0.586   0.906 -1.4185  1.1501  0.8518
  788SOL     OW 2362   1.269   0.414   0.033  0.0741  0.1995 -0.7846
  788SOL    HW1 2363   1.177   0.400  -0.016 -1.6415  0.5042 -1.6323
  788SOL    HW2 2364   1.280   0.507   0.080  2.1750  1.9692  3.1161
  789SOL     OW 2365   2.552   0.116   1.858 -0.1913  0.6986  0.4085
  789SOL    HW1 2366   2.455   0.123   1.883  2.5009 -2.8588 -0.2799
  789SOL    HW2 2367   2.577   0.017   1.831  1.1899 -2.5212 -0.7678
  790SOL     OW 2368   2.658   2.768   0.797 -0.2609 -0.2642  0.4453
  790SOL    HW1 2369   2.702   2.833   0.724 -1.3442  0.3144 -0.5660
  790SOL    HW2 2370   2.627   2.827   0.873 -0.7778  0.4230 -2.0687
  791SOL     OW 2371   1.911   1.219   0.206 -0.0924  0.7312 -0.2642
  791SOL    HW1 2372   1.818   1.190   0.249  1.4372 -0.1728  1.6242
  791SOL    HW2 2373   1.992   1.157   0.231 -0.4748 -1.4935  1.4468
  792SOL     OW 2374   0.442   2.007   2.149  0.0982 -0.0167 -0.3629
  792SOL    HW1 2375   0.526   1.962   2.199  0.6063  2.3711  0.5716
  792SOL    HW2 2376   0.356   1.990   2.204  0.2127 -0.6567 -2.4040
  793SOL     OW 2377   2.107   1.564   2.154  0.0947 -0.1679  0.3283
  793SOL    HW1 2378   2.185   1.613   2.108 -0.0173  0.7187  0.8651
  793SOL    HW2 2379   2.118   1.461   2.138  0.7038 -4.2474 -0.3343
  794SOL     OW 2380   0.452   1.336   2.419 -0.2239 -0.2738  0.0607
  794SOL    HW1 2381   0.447   1.325   2.315  0.0133  0.9859  0.1512
  794SOL    HW2 2382   0.476   1.430   2.456  0.3020 -0.7911  0.9174
  795SOL     OW 2383   2.427   2.291   1.769 -0.6812  0.2539 -1.0914
  795SOL    HW1 2384   2.380   2.304   1.861 -0.8270 -0.5368 -0.3469
  795SOL    HW2 2385   2.425   2.188   1.748 -1.3494 -0.1655  0.1928
  796SOL     OW 2386   3.060   1.121   2.678  0.1872  0.2250 -0.4442
  796SOL    HW1 2387   2.963   1.113   2.722 -2.0658  0.2751  3.0860
  796SOL    HW2 2388   3.139   1.130   2.749  2.1896 -1.8943  0.8129
  797SOL     OW 2389   0.797   0.611   1.382  0.1120 -0.0999 -0.7524
  797SOL    HW1 2390   0.852   0.636   1.469 -0.3228 -0.3461  0.9672
  797SOL    HW2 2391   0.742   0.694   1.345  0.4729  1.9680  1.1540
  798SOL     OW 2392   1.357   0.335   1.122  0.2555  0.6995 -0.0736
  798SOL    HW1 2393   1.376   0.335   1.228 -0.0224  0.6986  1.3005
  798SOL    HW2 2394   1.387   0.417   1.074  2.4967  1.9207 -1.8159
  799SOL     OW 2395   1.905   2.693   1.040 -0.0719 -0.7103 -0.1734
  799SOL    HW1 2396   1.866   2.630   1.114 -0.0613  0.8921  1.0817
  799SOL    HW2 2397   1.845   2.722   0.963 -2.1120 -0.2962 -2.3635
  800SOL     OW 2398   2.951   0.744   1.895  0.0482  0.0405  0.0838
  800SOL    HW1 2399   2.944   0.847   1.897 -0.1873 -1.2072 -1.0518
  800SOL    HW2 2400   3.023   0.703   1.953 -1.7222  0.7162 -2.5811
  801SOL     OW 2401   1.936   2.244   0.098  0.1069 -0.4102 -0.2117
  801SOL    HW1 2402   1.838   2.219   0.059 -1.4141 -0.4704 -4.7881
  801SOL    HW2 2403   2.006   2.196   0.039 -0.2018 -0.1843 -1.4928
  802SOL     OW 2404   0.693   0.804   2.538 -0.8664 -0.3604  0.1606
  802SOL    HW1 2405   0.751   0.780   2.453  0.0775  0.4392 -0.8293
  802SOL    HW2 2406   0.599   0.834   2.511  1.5436  1.4563  2.4384
  803SOL     OW 2407   0.970   0.028   0.802  0.1130 -0.2021 -0.5636
  803SOL    HW1 2408   1.057   0.070   0.837 -0.1186  0.8722  0.6730
  803SOL    HW2 2409   0.932   0.090   0.729  1.3744  1.2264 -1.9755
  804SOL     OW 2410   0.322   0.048   2.147 -0.1909  0.1365 -0.3270
  804SOL    HW1 2411   0.327   0.152   2.138 -0.4991  0.4023  2.0862
  804SOL    HW2 2412   0.261   0.004   2.076  0.5784 -1.5281  0.3850
  805SOL     OW 2413   2.358   0.338   0.428 -0.3923  0.0240  0.2366
  805SOL    HW1 2414   2.443   0.365   0.488  0.3739 -0.1054  1.1520
  805SOL    HW2 2415   2.379   0.300   0.332  0.2388 -0.6040 -0.5927
  806SOL     OW 2416   0.637   2.465   1.792  0.3920 -0.4032 -0.4722
  806SOL    HW1 2417   0.624   2.562   1.756 -0.8997 -0.2628  2.8353
  806SOL    HW2 2418   0.736   2.442   1.791  1.5701  0.7733  1.0141
  807SOL     OW 2419   2.475   0.826   0.351 -0.8247 -0.4466 -0.1682
  807SOL    HW1 2420   2.549   0.857   0.415 -0.9430 -0.2780 -0.2629
  807SOL    HW2 2421   2.447   0.897   0.281  0.7597 -0.0378  2.6064
  808SOL     OW 2422   0.640   2.058   2.880  0.5839  0.0811 -0.4220
  808SOL    HW1 2423   0.556   2.115   2.909  1.2197 -0.2056 -0.9404
  808SOL    HW2 2424   0.634   1.958   2.916 -0.8743  0.0762  1.4748
  809SOL     OW 2425   2.637   1.962   1.876 -0.0014 -0.0050 -0.1377
  809SOL    HW1 2426   2.731   1.996   1.900 -1.3443 -1.9714  2.2286
  809SOL    HW2 2427   2.643   1.902   1.794 -0.7277  2.7578  0.2416
  810SOL     OW 2428   2.113   1.067   0.567  0.2511  0.3630  0.2446
  810SOL    HW1 2429   2.115   0.991   0.640  0.4270  1.9562  2.4103
  810SOL    HW2 2430   2.091   1.158   0.613 -1.6065 -2.8160 -0.1533
  811SOL     OW 2431   1.333   2.514   1.221  0.3211  0.1086  0.1975
  811SOL    HW1 2432   1.298   2.421   1.262 -0.0075 -0.4277  0.9288
  811SOL    HW2 2433   1.279   2.593   1.256  0.3912  0.4325  0.4454
  812SOL     OW 2434   1.404   0.745   1.924 -0.2859  0.0945 -0.2530
  812SOL    HW1 2435   1.455   0.832   1.959  2.4529  0.4670  1.5283
  812SOL    HW2 2436   1.303   0.763   1.946 -2.3481  0.8099  2.4693
  813SOL     OW 2437   1.682   2.066   2.525 -0.7431 -0.6851 -0.2160
  813SOL    HW1 2438   1.752   1.993   2.544 -1.0643  1.1800 -0.7450
  813SOL    HW2 2439   1.628   2.048   2.438 -0.5390 -0.5291  2.3767
  814SOL     OW 2440   2.908   1.497   2.833  0.4421  0.2864 -0.2612
  814SOL    HW1 2441   2.998   1.483   2.887  0.6114  1.9418  1.2315
  814SOL    HW2 2442   2.889   1.600   2.814 -0.0941  0.8393 -0.4179
  815SOL     OW 2443   2.176   2.895   2.772  0.0571 -0.3045 -0.1021
  815SOL    HW1 2444   2.161   2.808   2.831  1.7659  1.2932  0.9111
  815SOL    HW2 2445   2.223   2.969   2.823  0.1033 -1.0159  0.7855
  816SOL     OW 2446   1.638   0.320   1.612 -0.5486 -0.0820  0.5953
  816SOL    HW1 2447   1.668   0.221   1.625  1.5470 -2.1958  0.1224
  816SOL    HW2 2448   1.555   0.351   1.667 -0.6744  0.6502 -1.6032
  817SOL     OW 2449   0.356   1.151   2.591 -0.8134  0.0405  0.3631
  817SOL    HW1 2450   0.298   1.191   2.663 -0.0654  0.8551 -0.4981
  817SOL    HW2 2451   0.377   1.222   2.517 -2.4038  3.7493  2.0020
  818SOL     OW 2452   1.954   0.919   0.372  1.2279  0.4359 -0.5898
  818SOL    HW1 2453   2.057   0.886   0.374 -0.5995 -1.4198  0.9130
  818SOL    HW2 2454   1.932   0.987   0.440  1.3684 -0.8608 -0.7748
  819SOL     OW 2455   2.747   2.985   2.960 -0.5183  0.2120 -0.0355
  819SOL    HW1 2456   2.793   2.901   2.936  0.5321  1.9217  1.1511
  819SOL    HW2 2457   2.649   2.979   2.940  1.4870  0.1566  1.2920
  820SOL     OW 2458   1.216   1.073   0.607 -0.1100  0.1272 -0.0503
  820SOL    HW1 2459   1.237   1.166   0.655  1.3498  1.1707 -0.2258
  820SOL    HW2 2460   1.227   0.994   0.668  0.7864  0.6679 -3.9199
  821SOL     OW 2461   0.027   1.279   0.685  0.4707  0.0743 -0.3248
  821SOL    HW1 2462  -0.007   1.274   0.784 -0.5041 -0.2249  0.3206
  821SOL    HW2 2463   0.067   1.363   0.644 -2.5572 -1.0177 -0.8268
  822SOL     OW 2464   2.584   1.738   2.421  0.3887  0.6550 -0.2144
  822SOL    HW1 2465   2.596   1.812   2.494  1.4954 -2.8384  0.7780
  822SOL    HW2 2466   2.497   1.754   2.363 -0.3240  1.3343 -0.0295
  823SOL     OW 2467   2.055   0.892   1.182  0.0072 -0.5267  0.0175
  823SOL    HW1 2468   2.004   0.886   1.268  0.1411 -2.3407 -2.4064
  823SOL    HW2 2469   1.996   0.935   1.109 -0.3509  1.0429 -2.0620
  824SOL     OW 2470   0.277   2.024   2.851  0.1724 -0.4013  0.5750
  824SOL    HW1 2471   0.209   1.949   2.873  0.4865  0.8037  1.9517
  824SOL    HW2 2472   0.342   2.003   2.772  0.7088  1.1547  0.7320
  825SOL     OW 2473   1.291   1.086   0.280 -0.2445 -0.0841  0.2238
  825SOL    HW1 2474   1.281   1.192   0.266 -0.5703  2.8984  0.7782
  825SOL    HW2 2475   1.259   1.056   0.374  0.0459 -0.5132 -1.1444
  826SOL     OW 2476   1.888   0.663   1.606  0.1633 -0.6298 -0.8323
  826SOL    HW1 2477   1.979   0.612   1.600  2.1318  1.4614 -1.1313
  826SOL    HW2 2478   1.807   0.622   1.559 -1.9984 -1.2441  1.1898
  827SOL     OW 2479   0.687   1.250   0.203  0.7109  0.0346  0.1781
  827SOL    HW1 2480   0.776   1.211   0.173 -3.0442 -0.2255  0.7521
  827SOL    HW2 2481   0.640   1.210   0.283 -0.6009  3.6089 -1.8250
  828SOL     OW 2482   2.618   0.189   1.571  0.2103  0.0369 -0.6461
  828SOL    HW1 2483   2.532   0.189   1.510 -0.4288 -0.5685 -3.3326
  828SOL    HW2 2484   2.600   0.194   1.672  2.0699  2.3167 -1.2006
  829SOL     OW 2485   2.790   2.470   2.991  0.7852 -0.3006 -0.6431
  829SOL    HW1 2486   2.711   2.408   2.966 -1.4899  0.2153 -1.2256
  829SOL    HW2 2487   2.762   2.560   3.040  0.8588 -2.1346  1.3852
  830SOL     OW 2488   2.796   0.961   3.071 -0.1745 -0.7925  0.2241
  830SOL    HW1 2489   2.870   1.031   3.058 -3.0241 -0.4830  0.7113
  830SOL    HW2 2490   2.823   0.880   3.124 -1.4972  0.4272 -1.4572
  831SOL     OW 2491   3.072   0.668   0.386 -0.0878 -0.2315 -0.8708
  831SOL    HW1 2492   3.053   0.612   0.470 -1.0767  2.6644  1.4012
  831SOL    HW2 2493   3.122   0.617   0.311 -0.9407  0.0709  0.7754
  832SOL     OW 2494   1.830   0.762   2.978 -0.1185  0.3281  0.4665
  832SOL    HW1 2495   1.731   0.793   2.984  1.3052  1.2726 -1.8977
  832SOL    HW2 2496   1.831   0.661   3.000 -0.4634 -0.9084 -0.6728
  833SOL     OW 2497   2.409   2.123   0.497 -0.3702 -0.7972 -0.5554
  833SOL    HW1 2498   2.311   2.106   0.464 -0.2110  1.1413  0.4750
  833SOL    HW2 2499   2.466   2.038   0.516 -1.1086 -3.3414  1.4045
  834SOL     OW 2500   0.183   0.224   0.481 -0.8490  0.3620  0.2032
  834SOL    HW1 2501   0.116   0.170   0.529 -0.4400 -1.0142 -2.4041
  834SOL    HW2 2502   0.163   0.228   0.377 -1.2365 -3.2473 -0.9696
  835SOL     OW 2503   2.293   1.561   1.083 -0.4008 -0.4882  0.1110
  835SOL    HW1 2504   2.231   1.636   1.054  1.4583  3.3636  0.8905
  835SOL    HW2 2505   2.392   1.565   1.040  1.0009  2.3828  0.4191
  836SOL     OW 2506   1.604   0.845   2.606 -0.6514  0.4678  0.2071
  836SOL    HW1 2507   1.501   0.818   2.616  1.0648  1.3131  1.3076
  836SOL    HW2 2508   1.636   0.853   2.504  0.1860  0.1020  1.1632
  837SOL     OW 2509   1.679   0.118   0.525 -0.5431 -0.3011 -0.1887
  837SOL    HW1 2510   1.614   0.156   0.596 -0.2027 -0.7632  1.0376
  837SOL    HW2 2511   1.641   0.123   0.432 -0.7604 -0.5510  2.1398
  838SOL     OW 2512   1.184   1.530   2.819  0.7692 -0.1432  0.1255
  838SOL    HW1 2513   1.147   1.521   2.916 -0.3530 -0.7456 -0.1921
  838SOL    HW2 2514   1.133   1.470   2.753 -0.5880 -0.7771  1.5960
  839SOL     OW 2515   1.727   0.279   1.013  0.8447 -0.7961  0.0772
  839SOL    HW1 2516   1.749   0.352   1.085  0.6873  1.3772 -2.4497
  839SOL    HW2 2517   1.667   0.202   1.044 -0.0965 -0.9430 -1.0473
  840SOL     OW 2518   2.626   2.952   1.742  1.1331 -0.2094 -0.7063
  840SOL    HW1 2519   2.580   2.929   1.651  3.1114 -1.2965  0.9278
  840SOL    HW2 2520   2.594   2.889   1.823  1.3944  0.7172 -0.8991
  841SOL     OW 2521   1.519   0.826   2.986  0.2466  0.5002 -0.0758
  841SOL    HW1 2522   1.458   0.852   3.066  0.1193 -0.2447 -3.0635
  841SOL    HW2 2523   1.531   0.907   2.918  1.9373 -1.3301 -0.3930
  842SOL     OW 2524   0.837   1.539   0.946  0.1034 -0.1877  0.1339
  842SOL    HW1 2525   0.806   1.639   0.953 -2.7323  0.5497 -2.3424
  842SOL    HW2 2526   0.755   1.472   0.936 -2.8691 -0.5728 -3.4061
  843SOL     OW 2527   0.090   0.067   1.446  0.2437  0.2487 -0.0882
  843SOL    HW1 2528   0.180   0.091   1.491  2.0091 -0.7258  0.0251
  843SOL    HW2 2529   0.076  -0.036   1.440  0.3396  1.9461  2.6771
  844SOL     OW 2530   0.792   2.494   0.309  0.3039 -0.3265 -0.1454
  844SOL    HW1 2531   0.730   2.446   0.377 -2.7485  1.7824  0.6212
  844SOL    HW2 2532   0.729   2.565   0.265 -0.8650  0.1480 -0.4765
  845SOL     OW 2533   1.616   2.903   1.362 -0.1228  0.0034 -0.0639
  845SOL    HW1 2534   1.661   2.912   1.453 -0.1249 -0.8998 -0.0139
  845SOL    HW2 2535   1.526   2.953   1.356  0.8064  1.0913  0.6756
  846SOL     OW 2536   1.544   2.935   0.759 -0.1692  0.3466  0.7092
  846SOL    HW1 2537   1.567   2.904   0.660 -0.8898 -1.3166 -0.2165
  846SOL    HW2 2538   1.627   2.920   0.823  1.6719  0.7277  1.7122
  847SOL     OW 2539   2.045   1.645   0.291  0.0688 -0.4153 -0.4255
  847SOL    HW1 2540   2.004   1.577   0.360 -1.4209 -2.1704  1.5608
  847SOL    HW2 2541   1.981   1.717   0.257 -1.4754 -2.7332  1.6729
  848SOL     OW 2542   2.487   0.845   2.601  0.1964 -0.4658  0.5216
  848SOL    HW1 2543   2.471   0.930   2.661  1.4830 -2.6346 -1.0774
  848SOL    HW2 2544   2.408   0.782   2.576 -0.9202  2.4254 -2.1096
  849SOL     OW 2545   2.587   0.829   2.342 -0.2953  0.3564 -0.3664
  849SOL    HW1 2546   2.662   0.759   2.335 -0.7184  1.5685  1.1906
  849SOL    HW2 2547   2.555   0.839   2.442  0.8700  2.6912  1.3864
  850SOL     OW 2548   1.532   0.104   1.357  0.5143 -0.1877  0.2821
  850SOL    HW1 2549   1.564   0.090   1.255 -2.0749 -1.1950 -0.2385
  850SOL    HW2 2550   1.453   0.048   1.393 -0.8942  0.6567 -2.6152
  851SOL     OW 2551   0.444   1.800   0.613 -0.1316 -0.3750  0.1481
  851SOL    HW1 2552   0.460   1.896   0.582  0.4396 -0.9790  1.0107
  851SOL    HW2 2553   0.524   1.737   0.585  1.3235  0.4368  0.3859
  852SOL     OW 2554   0.765   2.131   1.689  0.3682  0.2460  0.0853
  852SOL    HW1 2555   0.756   2.231   1.668  1.5986  1.3057 -0.2706
  852SOL    HW2 2556   0.695   2.093   1.761 -1.6056 -4.4171  1.3991
  853SOL     OW 2557   2.545   1.529   2.609 -0.5801  0.8756  0.7117
  853SOL    HW1 2558   2.489   1.454   2.560  2.4812  0.8689  1.1590
  853SOL    HW2 2559   2.582   1.602   2.549 -1.2552 -2.4239  1.0215
  854SOL     OW 2560   2.420   1.440   1.693  0.0616  0.2163  0.0342
  854SOL    HW1 2561   2.458   1.414   1.597  3.6132 -0.4267  1.2969
  854SOL    HW2 2562   2.346   1.382   1.731  0.3742 -1.1400 -0.6126
  855SOL     OW 2563   2.079   2.385   0.942  0.5557 -0.4436  0.4541
  855SOL    HW1 2564   2.056   2.486   0.915  2.2013 -0.6817  2.3602
  855SOL    HW2 2565   2.156   2.386   1.016  0.5196 -1.5492 -0.8722
  856SOL     OW 2566   1.348   1.512   0.889 -0.2335 -0.3972 -0.9450
  856SOL    HW1 2567   1.423   1.560   0.950  2.0876  1.2847  0.8991
  856SOL    HW2 2568   1.252   1.530   0.926  1.4707 -1.7819 -1.6936
  857SOL     OW 2569   3.089   2.659   1.026  0.4501 -0.0044  0.2043
  857SOL    HW1 2570   3.042   2.567   1.012 -0.7526 -1.8322  1.6686
  857SOL    HW2 2571   3.179   2.664   0.976 -1.7723 -3.6441  0.7489
  858SOL     OW 2572   2.319   2.011   1.756 -0.1084  0.2162  0.6792
  858SOL    HW1 2573   2.276   2.009   1.662  0.9291 -0.3178 -1.1997
  858SOL    HW2 2574   2.394   1.945   1.760 -0.6851 -0.6156  0.4532
  859SOL     OW 2575   2.486   0.565   1.042 -0.2070  0.5226  0.0497
  859SOL    HW1 2576   2.553   0.612   0.975  1.5432 -2.9266  1.0788
  859SOL    HW2 2577   2.514   0.468   1.073  0.3279  0.7244 -0.3425
  860SOL     OW 2578   1.949   2.813   0.444 -0.3211  0.0133  0.3284
  860SOL    HW1 2579   1.894   2.798   0.365  1.1448 -1.6229  3.5212
  860SOL    HW2 2580   2.046   2.849   0.429 -0.0111  1.0103  0.8733
  861SOL     OW 2581   1.100   2.485   2.828  0.0393  0.5279 -0.2879
  861SOL    HW1 2582   1.151   2.574   2.800  2.6684  1.7005 -0.3464
  861SOL    HW2 2583   1.105   2.464   2.932 -1.7369  0.6795  2.3132
  862SOL     OW 2584   2.830   2.569   1.602  0.5412 -0.4347  0.1397
  862SOL    HW1 2585   2.908   2.581   1.668  0.5250 -0.2044  0.1013
  862SOL    HW2 2586   2.803   2.651   1.542 -5.2177  1.9277  1.1516
  863SOL     OW 2587   1.845   2.709   0.166 -0.4301 -0.2026 -0.0719
  863SOL    HW1 2588   1.914   2.632   0.179 -0.4739  0.4034  0.8536
  863SOL    HW2 2589   1.745   2.674   0.155 -1.9306 -1.3331 -2.6066
  864SOL     OW 2590   1.904   1.194   2.866 -0.1573 -0.0989  0.0612
  864SOL    HW1 2591   1.900   1.115   2.798  0.7328 -1.9217  0.7537
  864SOL    HW2 2592   1.995   1.200   2.913  0.7071  2.2242  1.2792
  865SOL     OW 2593   2.242   1.847   0.598  0.5476  0.4371 -0.4994
  865SOL    HW1 2594   2.271   1.858   0.698 -1.6954 -0.4293  1.5860
  865SOL    HW2 2595   2.151   1.800   0.592 -0.2616  1.0247  0.5065
  866SOL     OW 2596   2.941   2.928   1.021  0.6440  0.0400 -0.0056
  866SOL    HW1 2597   2.944   2.995   0.941  0.1097  1.3055 -0.6896
  866SOL    HW2 2598   2.999   2.844   1.012 -1.1959  1.8078  1.4196
  867SOL     OW 2599   0.323   1.348   0.906 -0.0058  0.7633  0.3030
  867SOL    HW1 2600   0.332   1.281   0.828 -1.6987 -1.4561  0.6984
  867SOL    HW2 2601   0.288   1.443   0.872 -1.1505 -0.7056  0.4627
  868SOL     OW 2602   0.730   1.863   2.012 -0.0731 -0.4607  0.8920
  868SOL    HW1 2603   0.702   1.847   2.113 -1.7189 -1.3174 -0.2903
  868SOL    HW2 2604   0.709   1.957   1.982  3.8501  1.0512  1.6519
  869SOL     OW 2605   2.575   1.948   1.598 -0.0316  0.3024 -0.2280
  869SOL    HW1 2606   2.654   2.022   1.608  0.6253 -0.8818 -2.0141
  869SOL    HW2 2607   2.612   1.851   1.594  0.1391 -0.7372  1.3744
  870SOL     OW 2608   2.263   2.662   1.269  0.5712 -0.0704  0.1524
  870SOL    HW1 2609   2.261   2.577   1.213  3.8515  2.0704  0.7290
  870SOL    HW2 2610   2.180   2.665   1.336  1.3943  1.5518  0.2743
  871SOL     OW 2611   3.031   2.203   0.545 -0.0731  0.0376  0.3086
  871SOL    HW1 2612   3.005   2.230   0.641  1.3849 -1.3822  1.8831
  871SOL    HW2 2613   2.948   2.188   0.481 -0.7779 -0.3278  0.2143
  872SOL     OW 2614   2.112   0.486   1.662 -0.3827 -0.2191 -0.0647
  872SOL    HW1 2615   2.072   0.494   1.756  1.2796  0.7999  0.5947
  872SOL    HW2 2616   2.213   0.461   1.674 -1.6047  0.9368  0.7122
  873SOL     OW 2617   1.717   2.131   3.051  0.2594 -0.2196  0.7645
  873SOL    HW1 2618   1.643   2.140   3.121 -0.0044 -0.0864  1.3782
  873SOL    HW2 2619   1.673   2.122   2.956  0.3850 -0.5211 -0.1852
  874SOL     OW 2620   0.655   2.450   0.761 -0.4209  0.3668  0.7300
  874SOL    HW1 2621   0.636   2.548   0.800 -0.2217  3.1957  2.2439
  874SOL    HW2 2622   0.735   2.402   0.802 -4.0268 -0.3162  1.7879
  875SOL     OW 2623   2.328   1.542   1.421 -0.3133  0.9414  0.0899
  875SOL    HW1 2624   2.414   1.593   1.451 -2.9734  0.8175 -0.5999
  875SOL    HW2 2625   2.318   1.535   1.324  0.7311 -1.0052  1.4271
  876SOL     OW 2626   0.097   2.227   2.767  0.1493 -0.4642 -0.0711
  876SOL    HW1 2627   0.159   2.175   2.835 -0.7035 -0.1597 -0.4133
  876SOL    HW2 2628   0.109   2.336   2.774 -0.2771  3.0039 -2.4375
  877SOL     OW 2629   2.912   2.659   0.582 -0.1976 -0.0283  0.2164
  877SOL    HW1 2630   2.893   2.755   0.607 -0.3033 -1.0792 -0.3497
  877SOL    HW2 2631   2.965   2.604   0.655  0.7324  0.4809 -0.7662
  878SOL     OW 2632   2.776   1.501   2.225  0.3892  0.1584 -0.4019
  878SOL    HW1 2633   2.878   1.491   2.237  0.3999  0.8356 -1.5172
  878SOL    HW2 2634   2.726   1.545   2.307 -0.4345  1.3971  0.7350
  879SOL     OW 2635   2.369   0.099   1.215 -0.1538 -0.0854 -0.9913
  879SOL    HW1 2636   2.416   0.009   1.237 -2.1856 -1.0822 -0.6276
  879SOL    HW2 2637   2.292   0.084   1.150  1.3106  1.1056 -2.1393
  880SOL     OW 2638   0.729   0.490   2.267  0.0833 -0.1752  0.6057
  880SOL    HW1 2639   0.667   0.431   2.330 -2.2863 -0.9848  0.7494
  880SOL    HW2 2640   0.783   0.430   2.204 -0.2422 -0.5382  0.7823
  881SOL     OW 2641   0.851   0.055   0.477  0.1018  0.0808 -0.0997
  881SOL    HW1 2642   0.889  -0.034   0.510 -4.8828 -0.6914 -0.1466
  881SOL    HW2 2643   0.766   0.048   0.422  2.3732 -1.3659  3.5992
  882SOL     OW 2644   2.714   1.700   1.706  0.1448  0.0642 -0.1476
  882SOL    HW1 2645   2.802   1.673   1.661  2.2044  2.3863 -2.3464
  882SOL    HW2 2646   2.723   1.699   1.812 -0.7186  1.5710  1.5032
  883SOL     OW 2647   0.918   0.566   0.980 -0.1944  0.0449  0.4862
  883SOL    HW1 2648   0.917   0.663   1.016 -0.0216 -1.1701  0.8953
  883SOL    HW2 2649   0.957   0.499   1.044 -1.3435  0.9875  0.0529
  884SOL     OW 2650   1.197   1.762   1.151 -0.1091 -0.0046 -0.3792
  884SOL    HW1 2651   1.159   1.684   1.092  0.5925  2.4117  1.7950
  884SOL    HW2 2652   1.160   1.852   1.128 -1.8212 -2.8608  0.0271
  885SOL     OW 2653   2.340   1.777   2.296  0.8918  0.1480  0.1869
  885SOL    HW1 2654   2.257   1.758   2.353 -0.9854 -0.0894 -0.3064
  885SOL    HW2 2655   2.333   1.882   2.270 -2.0647  3.2542  0.8677
  886SOL     OW 2656   2.611   0.411   1.789  0.4278  0.5694  0.0576
  886SOL    HW1 2657   2.661   0.332   1.837 -0.8270  0.8238  1.0496
  886SOL    HW2 2658   2.667   0.496   1.776  0.2571 -0.4385 -1.2451
  887SOL     OW 2659   0.088   2.033   1.325 -0.0199  0.6738 -0.2105
  887SOL    HW1 2660   0.041   1.975   1.256  0.5276  1.3061 -1.5988
  887SOL    HW2 2661   0.076   2.133   1.302 -0.5308  1.5922  0.9134
  888SOL     OW 2662   0.576   1.237   1.543 -0.2208  0.3085  0.0153
  888SOL    HW1 2663   0.600   1.273   1.445 -1.2781  0.9163 -1.1828
  888SOL    HW2 2664   0.557   1.135   1.545 -0.1981  1.9154  2.8091
  889SOL     OW 2665   0.833   2.478   2.171  0.0213  0.2111 -0.3074
  889SOL    HW1 2666   0.769   2.397   2.188  0.5862  1.8422 -2.5964
  889SOL    HW2 2667   0.865   2.472   2.074 -2.2984 -1.8500  0.1103
  890SOL     OW 2668   2.421   2.417   0.196  0.0772 -0.2004 -0.4555
  890SOL    HW1 2669   2.454   2.501   0.146 -2.3106 -1.5544 -2.1417
  890SOL    HW2 2670   2.353   2.437   0.272  1.4096  1.0112 -1.0808
  891SOL     OW 2671   2.548   1.705   0.728 -0.1050 -0.2182 -0.2780
  891SOL    HW1 2672   2.561   1.742   0.824  1.8163  0.1724  1.5351
  891SOL    HW2 2673   2.478   1.627   0.711 -1.0890 -3.8541  0.2696
  892SOL     OW 2674   0.369   0.325   2.209  0.1125  0.0244 -1.0277
  892SOL    HW1 2675   0.352   0.406   2.146  1.1852 -0.0071  0.2129
  892SOL    HW2 2676   0.429   0.350   2.296 -0.8305  0.3336  0.7760
  893SOL     OW 2677   1.679   0.272   2.755 -1.0289  0.2176  0.1468
  893SOL    HW1 2678   1.758   0.340   2.773 -0.4519 -1.9622  0.5101
  893SOL    HW2 2679   1.592   0.320   2.728 -0.8306 -0.2466  1.4473
  894SOL     OW 2680   2.117   2.025   0.007 -0.1588  0.0320 -0.5769
  894SOL    HW1 2681   2.093   1.992  -0.088  1.0278  0.0216  0.7551
  894SOL    HW2 2682   2.166   1.949   0.069  2.5932  1.2107  2.7649
  895SOL     OW 2683   2.781   1.427   0.918 -0.3724 -0.1920 -0.0998
  895SOL    HW1 2684   2.833   1.342   0.950 -0.2254  2.9659 -1.9618
  895SOL    HW2 2685   2.822   1.515   0.955  1.2747  0.6677  1.0118
  896SOL     OW 2686   1.777   1.813   1.222 -0.3044 -0.1536  0.2197
  896SOL    HW1 2687   1.818   1.764   1.144  0.7510  0.2781  1.9616
  896SOL    HW2 2688   1.725   1.897   1.188  2.3007  1.8221 -0.8985
  897SOL     OW 2689   0.342   0.516   0.008 -0.4084 -0.4762  0.6516
  897SOL    HW1 2690   0.308   0.568  -0.078 -0.8146  3.4450 -1.5751
  897SOL    HW2 2691   0.440   0.548   0.028 -0.5156  2.5607 -0.3172
  898SOL     OW 2692   0.551   2.869   1.079 -0.1005  0.2655  0.2795
  898SOL    HW1 2693   0.508   2.961   1.105  1.1782  0.0519 -2.7404
  898SOL    HW2 2694   0.604   2.820   1.157  1.8435  0.0461  0.6150
  899SOL     OW 2695   2.819   0.914   1.282 -0.4071 -0.0681 -0.0134
  899SOL    HW1 2696   2.754   0.919   1.201 -0.5346  0.6894  1.1528
  899SOL    HW2 2697   2.912   0.947   1.249  0.0491 -3.4822 -0.4438
  900SOL     OW 2698   0.960   2.531   2.421  0.4504  0.6189 -0.0601
  900SOL    HW1 2699   0.913   2.513   2.330  4.2410 -1.7875  1.0714
  900SOL    HW2 2700   0.920   2.479   2.499 -1.6398 -0.7207 -0.0952
  901SOL     OW 2701   1.918   2.340   1.362 -0.0622 -0.0931 -0.5141
  901SOL    HW1 2702   1.916   2.301   1.266  0.0917 -0.0391 -2.9428
  901SOL    HW2 2703   2.006   2.316   1.417  1.6721  1.3773 -0.6755
  902SOL     OW 2704   2.579   1.649   1.463  0.0694  0.0864  0.2348
  902SOL    HW1 2705   2.618   1.670   1.559 -0.9289  0.0150 -0.2308
  902SOL    HW2 2706   2.651   1.620   1.397 -2.4222 -0.9441  1.9265
  903SOL     OW 2707   0.263   2.472   1.972  0.2012  0.1820  0.2330
  903SOL    HW1 2708   0.179   2.432   1.927  2.9671  1.8352  1.0393
  903SOL    HW2 2709   0.291   2.554   1.915  0.1628 -0.3659  0.5576
  904SOL     OW 2710   2.041   0.816   2.491  0.1385 -0.3886 -0.8668
  904SOL    HW1 2711   1.969   0.763   2.545 -0.3559 -0.4236  0.5885
  904SOL    HW2 2712   2.030   0.814   2.387  1.6775  2.8606  0.5012
  905SOL     OW 2713   2.821   0.084   2.556 -0.2935 -0.1980 -0.1266
  905SOL    HW1 2714   2.902   0.019   2.553 -1.6626 -0.0070  0.8876
  905SOL    HW2 2715   2.839   0.183   2.537 -0.6309 -0.4173  1.2867
  906SOL     OW 2716   0.181   1.711   1.936 -1.0363  0.2153  0.2129
  906SOL    HW1 2717   0.128   1.730   1.852  2.8467  1.6405 -0.7124
  906SOL    HW2 2718   0.260   1.776   1.937  0.4177 -1.0083 -2.7090
  907SOL     OW 2719   0.246   2.465   1.019  0.0282 -0.1179 -0.3919
  907SOL    HW1 2720   0.345   2.432   1.003 -0.7896 -0.5002 -1.2750
  907SOL    HW2 2721   0.177   2.391   1.036 -2.7438  2.3101  2.0122
  908SOL     OW 2722   2.738   2.981   0.370 -0.4545  0.0366  0.0096
  908SOL    HW1 2723   2.706   3.038   0.292 -2.9151 -1.0231 -0.4892
  908SOL    HW2 2724   2.831   2.941   0.349 -1.5600  0.1962 -0.0491
  909SOL     OW 2725   0.784   1.027   2.647  0.8666 -0.2419 -0.0303
  909SOL    HW1 2726   0.742   0.935   2.609  1.7351 -1.3443 -1.7359
  909SOL    HW2 2727   0.861   1.064   2.583 -0.6060  2.5264 -1.5596
  910SOL     OW 2728   1.732   1.881   2.171 -0.8909  0.0062 -0.3014
  910SOL    HW1 2729   1.763   1.913   2.076  0.0379 -1.9401  0.1154
  910SOL    HW2 2730   1.655   1.940   2.215  0.3022 -2.9561 -0.4583
  911SOL     OW 2731   1.808   2.941   1.571 -0.2205  0.1321 -0.4026
  911SOL    HW1 2732   1.883   2.903   1.509 -1.2958 -2.3773 -2.4302
  911SOL    HW2 2733   1.797   2.881   1.653  1.0493  2.4573 -0.6918
  912SOL     OW 2734   2.842   1.003   0.696  0.1682 -0.2756 -0.1288
  912SOL    HW1 2735   2.871   0.939   0.772  1.0406 -1.9227  0.5885
  912SOL    HW2 2736   2.792   1.088   0.726 -2.4968 -0.5034 -3.7367
  913SOL     OW 2737   2.594   1.256   1.489  0.2122 -0.7055 -0.4370
  913SOL    HW1 2738   2.592   1.154   1.478  2.8723 -0.4603  0.6712
  913SOL    HW2 2739   2.668   1.304   1.434  0.2988  0.6022  0.3081
  914SOL     OW 2740   2.832   0.605   1.229  0.8933 -0.8092 -0.2578
  914SOL    HW1 2741   2.789   0.513   1.217 -0.3272  0.1680  2.7940
  914SOL    HW2 2742   2.816   0.645   1.324 -1.5791 -2.0328  0.2346
  915SOL     OW 2743   1.198   0.774   1.094  0.4673  0.1430  0.1866
  915SOL    HW1 2744   1.237   0.820   1.178 -3.2489  2.9260 -0.9721
  915SOL    HW2 2745   1.095   0.772   1.097  4.3873  0.1088 -1.1255
  916SOL     OW 2746   0.580   0.004   0.674 -0.6528 -0.0798  0.1314
  916SOL    HW1 2747   0.637   0.087   0.701  0.2988  1.2784  0.1057
  916SOL    HW2 2748   0.558   0.010   0.574 -0.7518 -1.5069  0.1320
  917SOL     OW 2749   2.810   2.626   1.973 -0.2920  0.3339 -0.3855
  917SOL    HW1 2750   2.710   2.642   1.951  0.2152  2.6017 -0.5224
  917SOL    HW2 2751   2.868   2.704   1.947  0.1948 -0.0941  2.1438
  918SOL     OW 2752   1.031   2.163   3.051 -0.1891  0.4413 -0.5982
  918SOL    HW1 2753   0.994   2.236   3.114  3.1013  2.4129 -0.0432
  918SOL    HW2 2754   1.124   2.131   3.078 -0.0082  1.7158  3.4408
  919SOL     OW 2755   0.843   1.655   2.876 -0.2254  0.4400 -0.6099
  919SOL    HW1 2756   0.887   1.734   2.829 -1.3266  1.4431  2.8295
  919SOL    HW2 2757   0.849   1.564   2.830  1.1259  0.0398 -0.8057
  920SOL     OW 2758   1.198   1.853   2.445  0.1177  0.4957 -1.2664
  920SOL    HW1 2759   1.292   1.836   2.403  0.0176  0.1799  1.0981
  920SOL    HW2 2760   1.196   1.817   2.543  2.8369  0.3786 -1.3155
  921SOL     OW 2761   1.032   0.029   2.633 -0.4190 -0.1326  0.6401
  921SOL    HW1 2762   1.044   0.008   2.528  0.7198  2.0077  0.3475
  921SOL    HW2 2763   0.949  -0.015   2.670  0.6927  1.6177 -3.1064
  922SOL     OW 2764   2.128   2.397   2.782  0.1288  0.1785  0.2373
  922SOL    HW1 2765   2.156   2.301   2.786 -0.8244  1.6645 -0.6272
  922SOL    HW2 2766   2.090   2.425   2.690  2.6135 -0.2115 -0.0956
  923SOL     OW 2767   1.261   2.689   0.275 -0.3448  0.1959  0.2375
  923SOL    HW1 2768   1.315   2.775   0.279  0.3319  0.5181 -0.0869
  923SOL    HW2 2769   1.317   2.606   0.282 -0.4866 -0.0980 -0.5151
  924SOL     OW 2770   2.854   1.532   0.153 -0.0712 -0.3082  0.0034
  924SOL    HW1 2771   2.771   1.515   0.094 -1.5174 -0.4009  0.6341
  924SOL    HW2 2772   2.944   1.514   0.106 -1.3398 -1.1167 -0.3317
  925SOL     OW 2773   3.096   2.903   1.532  0.2291  0.6435  0.7378
  925SOL    HW1 2774   3.013   2.939   1.578  1.1317 -1.6203 -1.1660
  925SOL    HW2 2775   3.079   2.815   1.475  4.3780  4.2623 -4.4856
  926SOL     OW 2776   1.305   2.803   1.249  0.0364  0.3665 -0.2843
  926SOL    HW1 2777   1.378   2.819   1.177  0.7017 -0.6565 -0.7315
  926SOL    HW2 2778   1.292   2.889   1.301  0.1464 -0.8897 -0.7798
  927SOL     OW 2779   0.320   2.655   1.751 -0.3896  0.1879 -0.2981
  927SOL    HW1 2780   0.310   2.602   1.664  1.1200 -1.2727  0.8933
  927SOL    HW2 2781   0.273   2.749   1.745  0.7271 -1.3584 -1.7821
  928SOL     OW 2782   1.525   2.058   2.282 -0.2536  0.1175 -0.1053
  928SOL    HW1 2783   1.573   2.142   2.236 -1.3108  2.0944 -0.6790
  928SOL    HW2 2784   1.422   2.060   2.275  2.6411  2.9345  0.3730
  929SOL     OW 2785   2.411   2.488   2.860 -0.4143  0.3339  0.1836
  929SOL    HW1 2786   2.319   2.498   2.818 -0.6360 -1.6741  0.5825
  929SOL    HW2 2787   2.476   2.450   2.787 -3.4950  1.0576 -0.8780
  930SOL     OW 2788   2.216   2.022   1.075 -0.0818 -0.2024 -0.3105
  930SOL    HW1 2789   2.186   1.972   1.165 -1.7670  0.1678  2.2044
  930SOL    HW2 2790   2.294   2.087   1.092 -1.6252 -0.7151  1.4079
  931SOL     OW 2791   0.549   1.718   2.730  0.0900 -0.0999 -0.2782
  931SOL    HW1 2792   0.522   1.720   2.830  0.5492 -0.4290 -2.9094
  931SOL    HW2 2793   0.593   1.626   2.715 -0.4917  2.7280 -0.2431
  932SOL     OW 2794   0.450   0.141   2.967 -0.2713 -0.4758 -0.5660
  932SOL    HW1 2795   0.548   0.186   2.957 -0.1076  0.6229 -2.4071
  932SOL    HW2 2796   0.454   0.041   2.996 -2.5957 -2.2970  3.1181
  933SOL     OW 2797   0.998   0.822   3.054 -0.0251  0.2053 -0.0685
  933SOL    HW1 2798   0.969   0.840   3.152 -1.2420  1.4359  1.6710
  933SOL    HW2 2799   0.960   0.892   2.987 -0.8419 -0.3147  0.7665
  934SOL     OW 2800   0.787   2.968   2.636  0.1741 -0.2911 -0.0355
  934SOL    HW1 2801   0.774   2.907   2.553  0.5987  2.0540  1.7306
  934SOL    HW2 2802   0.822   2.922   2.722 -1.4482 -1.2809 -0.9611
  935SOL     OW 2803   0.028   0.571   0.845  0.1758  0.1271  0.2227
  935SOL    HW1 2804   0.008   0.537   0.751  3.4975 -0.6826  5.1797
  935SOL    HW2 2805  -0.059   0.601   0.895 -1.7040 -1.9121 -1.7207
  936SOL     OW 2806   1.081   2.818   0.086 -0.5898  0.4462  0.3125
  936SOL    HW1 2807   1.136   2.877   0.016 -1.8563  1.1675 -1.0922
  936SOL    HW2 2808   1.134   2.760   0.151 -1.9444  3.0129 -0.1339
  937SOL     OW 2809   1.913   2.618   2.094  0.5790 -0.5822 -0.3581
  937SOL    HW1 2810   1.858   2.685   2.031 -3.1880  0.7630  0.1724
  937SOL    HW2 2811   2.010   2.645   2.105  0.9420  0.0866  2.4359
  938SOL     OW 2812   2.789   2.110   1.607 -0.1955 -0.3342 -0.2932
  938SOL    HW1 2813   2.750   2.209   1.608 -0.7760 -0.9688 -0.8826
  938SOL    HW2 2814   2.890   2.108   1.636  2.0683  0.1621 -0.6761
  939SOL     OW 2815   2.858   1.207   2.441 -0.8814  0.1352  0.7978
  939SOL    HW1 2816   2.920   1.176   2.366 -0.4416 -1.4110  2.3220
  939SOL    HW2 2817   2.864   1.166   2.535 -3.3553 -1.0035  1.0186
  940SOL     OW 2818   1.033   0.402   2.723 -0.0300  0.5139 -0.0410
  940SOL    HW1 2819   1.119   0.337   2.729  0.7960 -1.7906  1.0848
  940SOL    HW2 2820   0.947   0.361   2.673 -1.7612 -1.0330  2.7868
  941SOL     OW 2821   0.049   2.765   2.250 -0.0679 -0.0805 -0.3759
  941SOL    HW1 2822   0.108   2.679   2.243 -0.6993 -1.0032  2.7487
  941SOL    HW2 2823   0.088   2.836   2.306 -1.6235 -1.7073 -0.7577
  942SOL     OW 2824   0.124   0.104   2.558 -0.3939  0.4970 -0.0684
  942SOL    HW1 2825   0.171   0.123   2.652  0.1765 -0.5604 -1.6492
  942SOL    HW2 2826   0.114   0.190   2.494 -1.9145 -0.9252 -0.2509
  943SOL     OW 2827   2.084   1.673   2.415 -0.2510  0.2158 -0.6250
  943SOL    HW1 2828   2.077   1.641   2.313  0.4526  3.2865 -0.8213
  943SOL    HW2 2829   2.102   1.589   2.478  1.2435 -0.5010  1.1308
  944SOL     OW 2830   2.187   2.343   1.478  0.1717  0.2881  0.3097
  944SOL    HW1 2831   2.262   2.411   1.512 -0.2189 -0.2854 -1.6661
  944SOL    HW2 2832   2.162   2.261   1.541  1.9907  0.8826 -0.8352
  945SOL     OW 2833   0.671   1.507   0.255  0.4197  0.6372  0.9029
  945SOL    HW1 2834   0.632   1.542   0.162  0.8223 -1.5755 -0.5081
  945SOL    HW2 2835   0.676   1.401   0.257  1.1525  2.6758  0.7687
  946SOL     OW 2836   0.409   0.928   2.427  0.1190  0.3222 -0.5071
  946SOL    HW1 2837   0.324   0.870   2.417  0.9936  1.7492 -0.5858
  946SOL    HW2 2838   0.391   1.014   2.479  0.0889 -2.6544 -2.7155
  947SOL     OW 2839   1.510   0.493   3.077 -0.2831 -0.6199 -0.0664
  947SOL    HW1 2840   1.483   0.542   2.983 -0.3441  0.7564  0.1724
  947SOL    HW2 2841   1.436   0.433   3.118 -3.0566 -2.4887  0.7943
  948SOL     OW 2842   1.872   3.032   2.150  0.6594 -0.0974  0.0934
  948SOL    HW1 2843   1.926   2.981   2.076 -0.0271 -0.0963  1.8695
  948SOL    HW2 2844   1.883   3.003   2.249  1.9445 -1.3049  1.5701
  949SOL     OW 2845   0.589   2.473   0.500 -0.8907 -0.2756  0.0701
  949SOL    HW1 2846   0.585   2.580   0.492 -2.5910  0.6281 -2.7117
  949SOL    HW2 2847   0.604   2.426   0.594 -2.1132 -0.6070  0.8382
  950SOL     OW 2848   0.216   2.209   3.039  0.0002 -0.4476 -0.3582
  950SOL    HW1 2849   0.115   2.222   3.041  1.8491  0.5990 -0.5536
  950SOL    HW2 2850   0.251   2.130   2.977  1.6053 -1.7064  0.7184
  951SOL     OW 2851   1.258   2.693   2.730  0.1565 -0.0770 -0.2645
  951SOL    HW1 2852   1.343   2.729   2.782 -1.3266  2.5443  0.9432
  951SOL    HW2 2853   1.245   2.732   2.637  0.7954 -0.4804  2.0998
  952SOL     OW 2854   0.011   1.693   0.378 -0.3877 -0.1763 -0.4057
  952SOL    HW1 2855   0.082   1.770   0.392  0.9311  0.9699  1.7826
  952SOL    HW2 2856   0.033   1.609   0.451  2.1772 -4.0380  0.5802
  953SOL     OW 2857   2.534   1.782   0.239 -0.2148 -0.1041  0.7956
  953SOL    HW1 2858   2.521   1.682   0.239  1.0855 -1.4092 -1.3760
  953SOL    HW2 2859   2.552   1.829   0.148 -0.5817 -0.1863  1.6495
  954SOL     OW 2860   2.241   0.557   0.933  0.0440  0.4236  0.4412
  954SOL    HW1 2861   2.225   0.603   0.842  0.9523 -2.8257 -1.1710
  954SOL    HW2 2862   2.343   0.553   0.960 -0.8146 -0.8045  1.5629
  955SOL     OW 2863   0.154   2.593   1.288 -0.0616 -0.1018 -0.2869
  955SOL    HW1 2864   0.060   2.630   1.326  0.3791  1.5999 -0.7308
  955SOL    HW2 2865   0.197   2.651   1.217  2.1087 -0.2036  3.0759
  956SOL     OW 2866   2.807   2.457   2.477 -0.6533  0.1923 -0.3346
  956SOL    HW1 2867   2.843   2.364   2.446  0.0683  2.1142 -0.2522
  956SOL    HW2 2868   2.790   2.526   2.404  0.0755  0.8689 -3.0794
  957SOL     OW 2869   1.613   2.060   2.792 -0.7699  0.0609  0.2166
  957SOL    HW1 2870   1.568   1.968   2.808 -0.5724  1.9073  0.5170
  957SOL    HW2 2871   1.664   2.064   2.700  0.0523 -0.6713  2.2306
  958SOL     OW 2872   2.575   2.291   2.999  0.8090 -0.8178  0.3137
  958SOL    HW1 2873   2.494   2.355   2.992 -0.2906 -0.9052 -0.2734
  958SOL    HW2 2874   2.588   2.257   3.095  1.6622 -2.9143  0.7213
  959SOL     OW 2875   0.248   2.822   0.059 -0.2110  0.1261  0.3008
  959SOL    HW1 2876   0.154   2.800   0.018 -1.2621 -0.3874  3.6254
  959SOL    HW2 2877   0.279   2.752   0.131 -0.2092  0.8518 -0.9980
  960SOL     OW 2878   2.044   0.494   1.950 -0.0034  0.0662  0.4034
  960SOL    HW1 2879   1.947   0.524   1.939 -0.3836  2.4720  0.1643
  960SOL    HW2 2880   2.061   0.445   2.038  0.6537 -2.1868 -3.4078
  961SOL     OW 2881   2.563   1.824   1.003 -0.1720 -0.8237  0.0604
  961SOL    HW1 2882   2.582   1.927   0.992 -2.0196  0.3125 -0.4884
  961SOL    HW2 2883   2.532   1.812   1.099  0.0761  0.4655 -1.7914
  962SOL     OW 2884   1.312   0.949   0.053  0.1008 -0.9726  0.5722
  962SOL    HW1 2885   1.297   0.999  -0.036  3.9037  1.5487  0.3512
  962SOL    HW2 2886   1.308   1.017   0.135  1.4799  2.6807  0.2878
  963SOL     OW 2887   2.222   2.571   1.828 -0.1272 -0.0178 -0.0504
  963SOL    HW1 2888   2.188   2.480   1.862 -1.8809 -2.1975  0.6171
  963SOL    HW2 2889   2.250   2.634   1.910 -0.6810  2.1828  0.5478
  964SOL     OW 2890   2.365   0.360   1.682  0.1004 -0.6363 -0.0072
  964SOL    HW1 2891   2.459   0.375   1.725  0.7506 -0.9432  1.2494
  964SOL    HW2 2892   2.372   0.327   1.587  0.0885  0.2431 -0.9867
  965SOL     OW 2893   2.629   3.075   0.128  0.4225  0.0214  0.1588
  965SOL    HW1 2894   2.692   3.067   0.046 -1.9345 -0.5069 -0.4286
  965SOL    HW2 2895   2.533   3.066   0.101  1.9478 -1.2433 -0.9830
  966SOL     OW 2896   2.611   2.558   2.196 -0.9290 -0.3731  0.1547
  966SOL    HW1 2897   2.630   2.631   2.269 -1.2870 -1.5449  1.9976
  966SOL    HW2 2898   2.606   2.591   2.098  2.3737 -0.9356 -0.3398
  967SOL     OW 2899   2.806   2.812   2.499 -0.1534 -0.3525 -0.1727
  967SOL    HW1 2900   2.843   2.746   2.428 -1.0146 -1.3181  2.4008
  967SOL    HW2 2901   2.880   2.874   2.534  0.5598 -2.2943  0.2308
  968SOL     OW 2902   1.898   1.022   2.625 -0.0093  0.0142  0.1524
  968SOL    HW1 2903   1.808   1.063   2.576 -1.7949 -1.2202 -0.6543
  968SOL    HW2 2904   1.949   0.952   2.571 -3.4919 -0.4919  0.5831
  969SOL     OW 2905   2.837   2.443   1.115 -0.4317  0.2344 -0.4812
  969SOL    HW1 2906   2.773   2.444   1.033  0.1998 -1.5241  0.1930
  969SOL    HW2 2907   2.841   2.354   1.166  0.2255  0.6449 -1.0916
  970SOL     OW 2908   1.021   2.102   1.817 -0.2517 -0.1197 -0.4449
  970SOL    HW1 2909   0.930   2.140   1.786 -1.1842  1.6689  1.7845
  970SOL    HW2 2910   1.042   2.135   1.912 -0.5178 -0.7618 -0.5466
  971SOL     OW 2911   2.899   2.081   1.910 -1.0812 -0.1460 -0.5725
  971SOL    HW1 2912   2.871   2.179   1.922  0.7113 -3.8659  0.0526
  971SOL    HW2 2913   2.951   2.053   1.827  0.0386  2.4593  0.8680
  972SOL     OW 2914   1.989   2.480   0.216  0.4137  0.2170 -0.2675
  972SOL    HW1 2915   1.993   2.390   0.160 -1.0654 -1.6971 -0.2498
  972SOL    HW2 2916   2.025   2.477   0.312  1.6070  2.4870  3.7590
  973SOL     OW 2917   1.285   1.010   1.906  0.2768  0.0683 -0.1656
  973SOL    HW1 2918   1.259   0.987   1.807  2.1516  0.3020  0.0923
  973SOL    HW2 2919   1.251   1.101   1.936 -1.7968  0.3554 -3.2208
  974SOL     OW 2920   1.600   0.567   1.975  0.1343  0.0771 -0.7125
  974SOL    HW1 2921   1.679   0.606   1.922 -1.7728  0.6820  0.6619
  974SOL    HW2 2922   1.519   0.627   1.950 -0.8942 -3.4940 -0.3226
  975SOL     OW 2923   2.372   3.056   0.054 -0.0440  0.5898 -0.3448
  975SOL    HW1 2924   2.305   2.992   0.101  0.0519 -1.5857 -1.3526
  975SOL    HW2 2925   2.356   3.068  -0.047 -1.2883 -1.7977 -1.3484
  976SOL     OW 2926   1.916   2.859   2.376 -0.0995 -0.1807  0.0093
  976SOL    HW1 2927   1.838   2.809   2.328 -1.4248 -0.1696 -0.0399
  976SOL    HW2 2928   1.939   2.813   2.465 -0.5280  1.4842 -2.4747
  977SOL     OW 2929   0.416   0.649   1.010 -0.4504  0.2413  0.0787
  977SOL    HW1 2930   0.346   0.650   0.933  1.9743 -0.2621  0.2675
  977SOL    HW2 2931   0.509   0.647   0.960 -2.4307 -0.4333 -1.6503
   3.10000   3.10000   3.10000
