1000 SPC/Fw water molecules t=   1.71000 step= 1710
 2931
    1SOL     OW    1   2.481   0.382   2.662  0.1888 -0.0883  0.1799
    1SOL    HW1    2   2.472   0.286   2.626 -1.6279 -0.4772  1.9061
    1SOL    HW2    3   2.558   0.399   2.732 -1.2480 -0.0166  0.4506
    2SOL     OW    4   2.714   2.955   1.383  0.3220 -0.6125 -0.1505
    2SOL    HW1    5   2.804   2.957   1.325  2.1105 -0.5193 -0.9503
    2SOL    HW2    6   2.718   3.018   1.464  0.8444  2.2800  1.2862
    3SOL     OW    7   2.710   2.493   0.366  0.0415 -0.3531 -0.1368
    3SOL    HW1    8   2.619   2.443   0.374  0.2848  0.6161 -0.7234
    3SOL    HW2    9   2.722   2.553   0.451 -2.0197  0.2973  0.0766
    4SOL     OW   10   1.320   1.573   2.447 -0.3710 -0.6543  0.2936
    4SOL    HW1   11   1.251   1.552   2.373 -1.9703  0.2803 -0.2953
    4SOL    HW2   12   1.316   1.513   2.530  1.3870 -0.5844 -0.3863
    5SOL     OW   13   1.119   1.557   3.021  0.1937  0.9676 -0.2670
    5SOL    HW1   14   1.171   1.637   3.062 -1.1193  1.1349 -2.9765
    5SOL    HW2   15   1.050   1.593   2.951 -0.1787  0.3980  0.3809
    6SOL     OW   16   0.258   1.810   3.088 -0.2617  0.5667  0.1842
    6SOL    HW1   17   0.162   1.802   3.129  0.7040 -4.1858  0.8329
    6SOL    HW2   18   0.323   1.731   3.122 -0.7894 -1.6029 -0.3544
    7SOL     OW   19   2.505   0.914   1.066  0.3757  0.0235  0.9620
    7SOL    HW1   20   2.417   0.862   1.083 -1.6495 -1.0799  0.1642
    7SOL    HW2   21   2.545   0.885   0.973  0.0941  0.4094  0.2440
    8SOL     OW   22   0.414   0.650   1.551 -0.3562  0.0762 -0.0554
    8SOL    HW1   23   0.483   0.580   1.587  0.0434  1.2008  0.3298
    8SOL    HW2   24   0.452   0.696   1.465 -1.1839  1.3710  0.2371
    9SOL     OW   25   1.125   0.897   2.338 -0.2574  0.0403  0.1844
    9SOL    HW1   26   1.210   0.904   2.275 -1.3113 -0.6592  3.5047
    9SOL    HW2   27   1.111   0.799   2.355  1.1718  3.7268  2.0306
   10SOL     OW   28   0.699   1.407   1.253 -1.1619 -0.2132 -0.0828
   10SOL    HW1   29   0.606   1.414   1.200 -1.8218 -1.6364  0.2993
   10SOL    HW2   30   0.708   1.484   1.316  0.2161  2.4393 -0.9411
   11SOL     OW   31   2.344   2.877   0.937 -0.0486 -0.2708  0.4699
   11SOL    HW1   32   2.289   2.822   1.004  1.5100 -0.1504  1.4290
   11SOL    HW2   33   2.440   2.910   0.977 -0.5090  0.1331 -1.0694
   12SOL     OW   34   1.519   0.851   0.457 -0.3059 -0.2746  0.1715
   12SOL    HW1   35   1.424   0.859   0.494 -0.5680 -2.9056 -0.7100
   12SOL    HW2   36   1.525   0.793   0.373 -1.5537 -0.2115  1.3788
   13SOL     OW   37   2.462   0.728   1.808  0.0573  0.0471 -0.6876
   13SOL    HW1   38   2.403   0.676   1.873  0.9035  1.8835  1.3175
   13SOL    HW2   39   2.473   0.683   1.715  0.0008  0.8857  0.6782
   14SOL     OW   40   1.974   0.009   0.591  0.2977 -0.6234 -0.5602
   14SOL    HW1   41   1.884   0.067   0.587  0.7301 -0.8507 -0.2789
   14SOL    HW2   42   1.976  -0.036   0.683  2.6098 -1.8046  1.4175
   15SOL     OW   43   1.921   2.107   2.673  0.1732  0.8474  0.2891
   15SOL    HW1   44   1.853   2.096   2.752 -1.1750 -0.9998 -0.7978
   15SOL    HW2   45   1.907   2.035   2.598  2.5468 -0.1762 -3.4942
   16SOL     OW   46   1.587   1.748   3.039 -0.3050  0.3815  0.8078
   16SOL    HW1   47   1.608   1.647   3.065  1.4397 -0.9309  1.3733
   16SOL    HW2   48   1.673   1.812   3.044 -2.1168  2.4358  1.1026
   17SOL     OW   49   0.118   0.474   0.169  0.0262  0.2908 -0.0473
   17SOL    HW1   50   0.206   0.478   0.112 -0.8863  0.1927  0.1173
   17SOL    HW2   51   0.035   0.481   0.106  3.5356 -2.2785 -0.8068
   18SOL     OW   52   0.915   2.913   2.139 -0.1302 -0.3654  0.4137
   18SOL    HW1   53   0.895   2.821   2.182 -0.9294  0.6303 -3.1287
   18SOL    HW2   54   0.987   2.897   2.068 -1.4765  0.7585  0.2972
   19SOL     OW   55   0.563   0.897   1.913 -0.2423  0.3916 -0.1641
   19SOL    HW1   56   0.604   0.875   2.005 -0.0639 -1.7801  0.3372
   19SOL    HW2   57   0.616   0.971   1.860 -0.1612  1.1610 -1.0027
   20SOL     OW   58   0.215   2.805   0.796  0.4815 -0.3302 -0.0529
   20SOL    HW1   59   0.112   2.817   0.808 -1.6097  0.8468  0.3201
   20SOL    HW2   60   0.249   2.722   0.739 -0.2068  1.3852  2.0434
   21SOL     OW   61   2.729   0.295   2.026 -0.0701 -0.3061 -1.1163
   21SOL    HW1   62   2.703   0.213   1.963  1.5907 -2.0473 -0.6376
   21SOL    HW2   63   2.819   0.276   2.073 -0.6973 -0.4442  0.8638
   22SOL     OW   64   2.358   0.197   0.130  0.1121 -0.2142 -0.0246
   22SOL    HW1   65   2.373   0.110   0.073 -0.8893 -1.2676  1.4100
   22SOL    HW2   66   2.293   0.267   0.096  1.9670  0.1987  3.8360
   23SOL     OW   67   2.816   0.538   0.686 -0.0717  0.0562  0.2374
   23SOL    HW1   68   2.867   0.449   0.659  0.5903 -1.8727  0.6971
   23SOL    HW2   69   2.810   0.600   0.603  3.2411 -2.1481 -2.9026
   24SOL     OW   70   0.303   1.894   0.466 -0.2051 -0.1412  0.7054
   24SOL    HW1   71   0.302   1.977   0.396  0.3013 -1.6806 -0.2420
   24SOL    HW2   72   0.396   1.857   0.494  0.1166  0.0447  0.9526
   25SOL     OW   73   2.284   0.601   0.211  0.1399  0.1707  0.4236
   25SOL    HW1   74   2.254   0.617   0.115  0.7899  1.5187  0.1497
   25SOL    HW2   75   2.339   0.514   0.230 -0.0156  0.7603  0.0042
   26SOL     OW   76   2.468   2.138   2.117  0.4874  0.6159  0.2016
   26SOL    HW1   77   2.540   2.187   2.176 -1.7950  0.2676  2.0678
   26SOL    HW2   78   2.508   2.072   2.044  1.6424  1.7127 -0.8014
   27SOL     OW   79   0.615   3.014   0.136  0.3552  0.6619 -0.0996
   27SOL    HW1   80   0.713   3.044   0.124  1.4611 -0.5217 -2.7154
   27SOL    HW2   81   0.574   2.974   0.050 -1.5820  0.3169 -3.0425
   28SOL     OW   82   1.566   0.143   0.302 -0.1981  0.0856  0.2303
   28SOL    HW1   83   1.612   0.110   0.217 -1.3637  1.4695  1.8930
   28SOL    HW2   84   1.588   0.245   0.330 -1.1355  2.0178  1.2797
   29SOL     OW   85   2.029   0.570   0.292 -0.2238 -0.5843  0.2598
   29SOL    HW1   86   1.997   0.641   0.363  0.2662 -1.0523  1.4440
   29SOL    HW2   87   2.120   0.588   0.249 -0.0207 -0.7645  1.3562
   30SOL     OW   88   0.177   2.067   0.909 -0.2240  0.0821  0.6801
   30SOL    HW1   89   0.166   2.011   0.820 -1.9915 -0.7284 -0.6454
   30SOL    HW2   90   0.082   2.093   0.951 -0.8380  0.9915  0.9894
   31SOL     OW   91   2.119   0.074   2.415 -0.2687  0.5574  0.2798
   31SOL    HW1   92   2.090   0.050   2.512 -2.1724  1.1014  0.2237
   31SOL    HW2   93   2.060   0.035   2.336  1.4219 -1.1048 -0.9424
   32SOL     OW   94   3.058   3.081   0.241  0.3278  0.1727  0.1711
   32SOL    HW1   95   3.034   2.979   0.264  0.9769 -1.6882 -1.7829
   32SOL    HW2   96   3.164   3.090   0.231 -0.8708  0.0922  1.0687
   33SOL     OW   97   0.915   0.193   0.647 -0.1238  0.5301  0.1675
   33SOL    HW1   98   0.899   0.158   0.545 -2.4648 -0.1201 -2.6901
   33SOL    HW2   99   1.005   0.242   0.655 -0.7028  0.0789  1.5390
   34SOL     OW  100   0.356   2.699   1.008 -0.5086 -0.2283 -0.2304
   34SOL    HW1  101   0.308   2.750   0.933  2.2019  0.7519 -2.0313
   34SOL    HW2  102   0.423   2.763   1.050 -1.2211 -0.9619 -0.9405
   35SOL     OW  103   0.050   0.129   1.903  0.0155  0.0221  0.2900
   35SOL    HW1  104   0.088   0.035   1.933 -0.3578 -0.5973  0.2444
   35SOL    HW2  105   0.044   0.150   1.802  0.0263  1.7096  0.0229
   36SOL     OW  106   1.932   1.170   1.505 -0.5077  0.8532 -0.3699
   36SOL    HW1  107   2.010   1.106   1.524 -0.0146 -0.1636  2.9860
   36SOL    HW2  108   1.959   1.248   1.442 -0.4932  0.4202  0.1891
   37SOL     OW  109   1.118   0.257   1.010 -0.1653 -0.0939  0.5752
   37SOL    HW1  110   1.137   0.358   1.004  1.9411  2.0012 -1.2527
   37SOL    HW2  111   1.172   0.206   0.932  1.4767 -0.5011 -0.4739
   38SOL     OW  112   1.154   2.834   2.435  0.5913  0.3860  0.4525
   38SOL    HW1  113   1.078   2.789   2.497 -1.7093  1.4476  3.0196
   38SOL    HW2  114   1.146   2.935   2.438 -2.8371 -0.9527 -0.1297
   39SOL     OW  115   2.480   1.427   3.011 -0.2743 -0.4595 -0.0783
   39SOL    HW1  116   2.560   1.358   3.006  1.4636  0.3745  0.8226
   39SOL    HW2  117   2.400   1.385   3.062  1.3062  0.2908  0.0997
   40SOL     OW  118   2.054   2.526   2.516  0.0562 -0.2442 -0.1442
   40SOL    HW1  119   2.035   2.625   2.543 -3.3525 -2.1057 -0.5934
   40SOL    HW2  120   1.974   2.475   2.463 -0.0518 -1.5087 -1.2013
   41SOL     OW  121   3.044   0.724   2.770 -0.5707 -0.2631  0.0942
   41SOL    HW1  122   3.043   0.805   2.837  0.0266 -1.1278  0.6591
   41SOL    HW2  123   2.951   0.687   2.776  0.6795 -0.5571  1.5973
   42SOL     OW  124   1.762   1.728   0.520 -0.5361 -0.0439 -0.4526
   42SOL    HW1  125   1.729   1.630   0.504 -1.2596 -1.1080  0.7266
   42SOL    HW2  126   1.765   1.783   0.434 -0.9533  0.4683  1.5119
   43SOL     OW  127   0.460   1.673   1.122 -0.0828  0.2372 -0.0103
   43SOL    HW1  128   0.432   1.572   1.118 -2.0834 -1.9910  1.1831
   43SOL    HW2  129   0.411   1.720   1.204 -1.5229 -1.9191  1.5464
   44SOL     OW  130   1.671   2.329   2.924  0.2673 -0.2354 -0.4314
   44SOL    HW1  131   1.590   2.376   2.966 -0.5438 -0.9390 -2.3566
   44SOL    HW2  132   1.702   2.387   2.844 -0.7201 -0.9307 -1.6190
   45SOL     OW  133   0.371   1.906   2.624 -0.1842  0.1744  0.8999
   45SOL    HW1  134   0.321   1.924   2.538  2.5411 -0.4477  0.6514
   45SOL    HW2  135   0.462   1.863   2.604 -2.6738  1.5240  0.5833
   46SOL     OW  136   1.316   0.731   0.249  0.7228 -0.1721 -0.0564
   46SOL    HW1  137   1.322   0.815   0.186  1.3343  0.0737 -1.2721
   46SOL    HW2  138   1.257   0.650   0.205  1.2337 -1.6010  1.9492
   47SOL     OW  139   0.118   2.409   1.597  0.0787 -0.5942  0.2573
   47SOL    HW1  140   0.084   2.339   1.660 -1.7703 -0.0674  0.1780
   47SOL    HW2  141   0.123   2.388   1.496  1.3461  0.1149 -0.8200
   48SOL     OW  142   2.632   0.688   0.123  0.1331  0.7619  0.3258
   48SOL    HW1  143   2.618   0.659   0.220 -2.0635  3.5239 -0.4821
   48SOL    HW2  144   2.730   0.704   0.096  0.5699 -0.0127  0.4802
   49SOL     OW  145   0.343   0.833   1.745 -0.3538  0.0950 -0.8197
   49SOL    HW1  146   0.410   0.866   1.818 -1.2408 -1.1201  1.3476
   49SOL    HW2  147   0.390   0.772   1.672  1.3460  0.0189 -0.1089
   50SOL     OW  148   1.731   1.091   0.311 -0.4293 -0.1643  0.1688
   50SOL    HW1  149   1.759   0.995   0.283 -0.2955  1.8811 -0.2505
   50SOL    HW2  150   1.681   1.097   0.402  0.9664 -0.0352  0.6638
   51SOL     OW  151   2.956   1.751   0.335  0.0832 -0.2401 -0.4803
   51SOL    HW1  152   2.870   1.712   0.378  0.6336 -0.4881  0.7496
   51SOL    HW2  153   3.039   1.688   0.357 -0.2701 -1.5158  0.4396
   52SOL     OW  154   0.775   2.165   0.554 -0.0772 -0.2223  0.3679
   52SOL    HW1  155   0.673   2.168   0.561  0.7523 -2.2732 -0.3694
   52SOL    HW2  156   0.824   2.111   0.630  0.7042 -0.3876  0.2011
   53SOL     OW  157   0.298   0.427   1.439  0.5536  0.0403 -0.2086
   53SOL    HW1  158   0.332   0.513   1.488  0.7683  1.1890 -1.0466
   53SOL    HW2  159   0.306   0.434   1.336 -2.3722  2.6450  0.6131
   54SOL     OW  160   1.721   0.428   0.006  0.4811  0.4425  0.2320
   54SOL    HW1  161   1.801   0.380   0.053  2.0739 -0.7836 -1.4143
   54SOL    HW2  162   1.634   0.436   0.061  0.7935 -0.8935 -0.7403
   55SOL     OW  163   0.769   2.954   0.618  0.6633 -0.3336  0.1127
   55SOL    HW1  164   0.711   3.043   0.614 -0.2011 -0.1170  1.3131
   55SOL    HW2  165   0.875   2.964   0.624  1.4180  0.1528  3.7842
   56SOL     OW  166   0.575   1.529   3.046 -0.4100  0.2180  0.2655
   56SOL    HW1  167   0.505   1.550   3.120  1.9220  1.1489 -0.8832
   56SOL    HW2  168   0.552   1.447   2.991 -0.2025  2.0088  0.6307
   57SOL     OW  169   1.688   2.461   2.328 -0.2984 -0.4287  0.2128
   57SOL    HW1  170   1.770   2.402   2.349  1.1998  0.8622 -0.1478
   57SOL    HW2  171   1.632   2.482   2.414  1.1586 -1.4421  1.0541
   58SOL     OW  172   0.647   0.213   1.082  0.1362 -0.1379  0.5598
   58SOL    HW1  173   0.564   0.221   1.143 -1.6877 -1.5793 -0.9402
   58SOL    HW2  174   0.667   0.110   1.074 -2.7706  0.7811 -0.8559
   59SOL     OW  175   0.449   2.370   2.646  0.1500 -0.2076 -0.2140
   59SOL    HW1  176   0.484   2.270   2.669  0.1448 -1.1101  0.3594
   59SOL    HW2  177   0.523   2.442   2.652  0.6983 -0.3265 -3.8469
   60SOL     OW  178   2.310   2.028   2.303  0.3295 -0.6243 -0.1653
   60SOL    HW1  179   2.365   2.056   2.220 -0.2280 -0.5831 -0.1413
   60SOL    HW2  180   2.332   2.094   2.383 -1.2817 -0.8447 -1.6341
   61SOL     OW  181   1.193   0.643   0.492  0.0049  0.2371 -0.2400
   61SOL    HW1  182   1.093   0.654   0.517  1.6562  1.5142 -3.0651
   61SOL    HW2  183   1.211   0.698   0.408 -0.8715 -0.2423 -1.8602
   62SOL     OW  184   2.807   1.721   2.683  0.0623 -0.3377  0.2070
   62SOL    HW1  185   2.730   1.654   2.661 -0.0353 -2.4449 -2.5053
   62SOL    HW2  186   2.869   1.687   2.764 -1.1353 -0.2071  2.3546
   63SOL     OW  187   0.544   0.907   0.202 -0.1096 -0.3917 -0.3261
   63SOL    HW1  188   0.568   0.969   0.123 -1.1043 -0.9563 -0.3219
   63SOL    HW2  189   0.555   0.959   0.294  0.8584 -0.5970  1.7823
   64SOL     OW  190   2.999   0.540   2.339  0.2356  0.2376 -0.0260
   64SOL    HW1  191   2.931   0.584   2.405  1.3031 -2.4341 -1.3575
   64SOL    HW2  192   3.014   0.593   2.246  0.3183 -2.5627  0.2680
   65SOL     OW  193   0.240   1.448   0.697 -0.2627  0.0038 -0.4176
   65SOL    HW1  194   0.214   1.539   0.742  1.2217  0.4525  0.8984
   65SOL    HW2  195   0.263   1.457   0.599  0.4158 -0.3030 -1.1402
   66SOL     OW  196   2.572   0.342   0.554 -0.4254  0.3368 -0.6360
   66SOL    HW1  197   2.679   0.336   0.560  3.2057 -1.7866 -0.6955
   66SOL    HW2  198   2.523   0.269   0.612  0.0100 -1.2386 -2.5989
   67SOL     OW  199   0.598   2.532   1.435 -0.1047 -0.0010 -0.6146
   67SOL    HW1  200   0.694   2.527   1.481 -0.6543  0.6963 -0.9381
   67SOL    HW2  201   0.543   2.447   1.448 -0.4267  0.4221  1.1626
   68SOL     OW  202   0.910   0.996   2.442  0.4892  0.9090 -0.0781
   68SOL    HW1  203   1.000   0.969   2.396  0.3271  1.1496  1.9494
   68SOL    HW2  204   0.841   1.031   2.370 -2.4932 -0.5733  0.4481
   69SOL     OW  205   0.790   2.638   2.366  0.4815 -0.6442  0.3587
   69SOL    HW1  206   0.821   2.567   2.294 -1.1749 -1.4764 -0.0223
   69SOL    HW2  207   0.691   2.658   2.344  2.5404  0.9181 -2.2480
   70SOL     OW  208   0.465   0.161   2.561  0.2596  0.0049  0.0850
   70SOL    HW1  209   0.390   0.140   2.633  3.0149 -0.6854  1.3414
   70SOL    HW2  210   0.540   0.088   2.552 -1.2075  1.0609  0.6409
   71SOL     OW  211   1.054   1.752   0.312  0.8762  0.3056  0.0341
   71SOL    HW1  212   1.002   1.711   0.392 -2.8778  0.0154  2.0677
   71SOL    HW2  213   1.001   1.733   0.224 -0.2689 -0.6759 -0.3055
   72SOL     OW  214   1.856   0.269   2.158  0.6691  0.0828 -0.2118
   72SOL    HW1  215   1.922   0.343   2.167 -1.4846 -0.7269 -2.6483
   72SOL    HW2  216   1.901   0.178   2.150 -0.3802  0.8157  0.1210
   73SOL     OW  217   2.760   2.195   2.483 -0.2899 -0.1200  0.0243
   73SOL    HW1  218   2.734   2.104   2.441  2.8438 -0.5414  0.2366
   73SOL    HW2  219   2.789   2.185   2.582 -1.1789 -2.6735 -1.3729
   74SOL     OW  220   2.706   2.925   2.109  0.1366  0.2938 -0.4269
   74SOL    HW1  221   2.636   2.902   2.181  1.0053 -0.0610  0.5655
   74SOL    HW2  222   2.798   2.971   2.149  0.2613  0.2873  2.4930
   75SOL     OW  223   0.955   0.815   1.159 -0.0449  0.2369  0.0699
   75SOL    HW1  224   0.854   0.801   1.165  1.3933 -2.9041 -1.2484
   75SOL    HW2  225   0.989   0.862   1.241 -0.2105  0.1220 -2.4394
   76SOL     OW  226   1.859   1.289   2.619  0.4311  0.1445  0.9256
   76SOL    HW1  227   1.763   1.259   2.637  2.4811 -0.5793 -2.6558
   76SOL    HW2  228   1.859   1.391   2.620 -1.7998 -1.8343 -1.9710
   77SOL     OW  229   2.903   0.945   1.054  0.0357 -0.6477  0.0619
   77SOL    HW1  230   2.904   0.850   1.013  0.2077 -0.0599  0.7423
   77SOL    HW2  231   2.981   0.967   1.116  1.1032 -1.0698  0.0173
   78SOL     OW  232   1.985   1.435   1.352 -0.3276  0.4482  0.4135
   78SOL    HW1  233   2.073   1.415   1.294 -1.1099 -0.1077 -1.0280
   78SOL    HW2  234   1.899   1.435   1.296  0.6070 -0.8567  0.9757
   79SOL     OW  235   0.710   1.444   0.822 -0.2601 -0.0807 -0.1054
   79SOL    HW1  236   0.607   1.448   0.840  0.2427  1.2948  1.7841
   79SOL    HW2  237   0.744   1.369   0.762 -2.5604  3.7938  0.0979
   80SOL     OW  238   0.614   0.451   1.568  1.2360 -0.5845  0.0913
   80SOL    HW1  239   0.655   0.527   1.507 -1.0421  2.1393  2.2172
   80SOL    HW2  240   0.639   0.356   1.532 -0.2525  1.7335  0.0455
   81SOL     OW  241   1.083   1.262   2.524  0.1484  0.3064 -0.1847
   81SOL    HW1  242   1.067   1.162   2.522  0.2190 -0.2913 -1.9132
   81SOL    HW2  243   1.005   1.313   2.484 -0.5714 -1.2362  0.1513
   82SOL     OW  244   0.905   2.950   1.531  0.2824 -0.0662  1.1882
   82SOL    HW1  245   0.926   2.858   1.486  4.6777  1.8060  1.6228
   82SOL    HW2  246   0.857   3.014   1.460 -0.4236 -1.5388 -0.5317
   83SOL     OW  247   2.641   2.390   0.855  0.1894  0.4820  0.3027
   83SOL    HW1  248   2.554   2.358   0.815  0.1511  0.6142 -2.8147
   83SOL    HW2  249   2.637   2.497   0.868 -1.4976 -0.8614 -0.0929
   84SOL     OW  250   0.782   3.094   2.279 -0.1072 -0.3989  0.2284
   84SOL    HW1  251   0.718   3.068   2.357 -0.7356 -0.4546 -2.0565
   84SOL    HW2  252   0.828   3.011   2.226  1.7625 -0.5636 -0.4702
   85SOL     OW  253   0.302   1.719   1.361  0.5845  0.1303  0.1162
   85SOL    HW1  254   0.254   1.773   1.433  1.4601 -1.1042  0.1299
   85SOL    HW2  255   0.354   1.642   1.405  2.1936 -0.9226  1.1848
   86SOL     OW  256   0.440   1.045   1.479  0.6935 -0.1163 -0.3813
   86SOL    HW1  257   0.409   0.963   1.423  0.4568  2.9312  0.2560
   86SOL    HW2  258   0.544   1.038   1.496  1.8591  1.1375 -1.5753
   87SOL     OW  259   1.605   0.648   0.297  0.1389 -0.5973 -0.3888
   87SOL    HW1  260   1.687   0.709   0.284  2.3717 -1.3859  1.0074
   87SOL    HW2  261   1.570   0.613   0.203 -3.3364 -0.2681  1.0234
   88SOL     OW  262   1.572   1.324   0.253 -0.2345 -0.0593 -0.4174
   88SOL    HW1  263   1.610   1.226   0.269 -1.4072 -1.2875  3.6481
   88SOL    HW2  264   1.467   1.321   0.241 -4.2841  0.4839  0.6073
   89SOL     OW  265   0.011   0.398   0.666 -0.2416 -0.0828  0.6008
   89SOL    HW1  266   0.111   0.372   0.682 -0.3618  0.2164  2.2036
   89SOL    HW2  267  -0.043   0.313   0.636 -0.0322 -2.7694 -1.6521
   90SOL     OW  268   0.750   1.536   0.159 -0.3870 -0.3394  0.1201
   90SOL    HW1  269   0.842   1.487   0.141 -0.2739 -0.1975 -0.0118
   90SOL    HW2  270   0.685   1.529   0.077 -1.6802  0.5170 -0.1123
   91SOL     OW  271   1.303   1.506   1.725  0.3992  0.2459 -0.6381
   91SOL    HW1  272   1.231   1.556   1.783 -0.4992 -1.8384 -3.8305
   91SOL    HW2  273   1.349   1.422   1.766 -0.1888  1.0691 -1.7825
   92SOL     OW  274   0.013   0.999   1.222  0.0717  0.2249  0.1484
   92SOL    HW1  275   0.040   1.090   1.186 -0.4294 -1.5029  0.0694
   92SOL    HW2  276   0.002   1.000   1.322  1.3648 -0.3790 -2.7831
   93SOL     OW  277   3.069   2.637   0.065 -0.6375 -0.3246 -0.0973
   93SOL    HW1  278   3.007   2.625  -0.022 -0.3101  0.0614  1.1053
   93SOL    HW2  279   3.125   2.549   0.090  0.5224  1.6356 -1.4851
   94SOL     OW  280   1.494   1.301   1.675  0.0342  0.4554 -0.0010
   94SOL    HW1  281   1.566   1.232   1.651  0.0864 -0.3903  0.1799
   94SOL    HW2  282   1.526   1.400   1.682 -1.6782 -0.2595  0.3495
   95SOL     OW  283   1.348   2.474   2.915  0.4238  0.1463 -0.1938
   95SOL    HW1  284   1.263   2.485   2.976  0.2598  0.1203 -0.7220
   95SOL    HW2  285   1.367   2.378   2.891 -0.5055 -0.0484  3.3725
   96SOL     OW  286   0.571   2.173   1.314 -0.2879 -0.1128 -0.3855
   96SOL    HW1  287   0.537   2.160   1.216 -0.1533 -0.7141 -1.6814
   96SOL    HW2  288   0.614   2.086   1.351 -1.6307  0.6825 -0.1780
   97SOL     OW  289   0.245   1.614   2.403 -0.2499 -0.1770 -0.5502
   97SOL    HW1  290   0.267   1.709   2.377  1.1372 -0.2994  0.2136
   97SOL    HW2  291   0.236   1.611   2.506  0.2917  3.8582 -2.5786
   98SOL     OW  292   2.162   1.665   1.207  0.1431 -0.0492 -0.0603
   98SOL    HW1  293   2.110   1.580   1.183 -1.3864  0.9707 -1.1133
   98SOL    HW2  294   2.267   1.658   1.185  2.0808  4.2599 -1.5408
   99SOL     OW  295   2.610   2.029   1.290 -0.2386 -0.2368  0.5235
   99SOL    HW1  296   2.681   2.086   1.345 -2.0832  0.5175 -0.7814
   99SOL    HW2  297   2.536   1.982   1.344 -0.0157  0.3618  0.6939
  100SOL     OW  298   2.327   0.367   2.123  0.4076 -0.2089 -0.4456
  100SOL    HW1  299   2.262   0.378   2.207 -0.4568  1.4432 -0.8704
  100SOL    HW2  300   2.426   0.393   2.145 -0.2300 -1.9238  0.8770
  101SOL     OW  301   0.364   1.470   0.451 -0.3428 -0.7279 -1.0971
  101SOL    HW1  302   0.387   1.565   0.490 -0.1746  0.2383  2.2399
  101SOL    HW2  303   0.460   1.438   0.412  1.7157 -3.0484  0.1093
  102SOL     OW  304   2.243   1.065   0.822  0.0881  0.0523  0.1935
  102SOL    HW1  305   2.225   0.968   0.816 -0.8369  1.3691  1.8276
  102SOL    HW2  306   2.317   1.095   0.753  2.2164 -1.8747  2.3214
  103SOL     OW  307   2.266   0.084   0.381  0.0786  0.0974  0.1081
  103SOL    HW1  308   2.309   0.153   0.316  2.3243 -1.1426 -0.1817
  103SOL    HW2  309   2.335   0.022   0.434 -2.6632 -1.3816 -2.0195
  104SOL     OW  310   3.054   1.785   2.199 -0.2066  0.3598 -0.8038
  104SOL    HW1  311   3.111   1.788   2.109  1.6581 -1.2738  1.1450
  104SOL    HW2  312   2.957   1.805   2.187  0.1634 -0.9338  1.3605
  105SOL     OW  313   1.343   2.094   0.774 -0.5184  0.1904 -0.1144
  105SOL    HW1  314   1.333   2.158   0.693 -1.0259  1.0578  1.1975
  105SOL    HW2  315   1.343   1.990   0.752  0.3398 -1.7337 -0.2082
  106SOL     OW  316   2.140   0.412   1.416  0.2679  0.1779 -0.1485
  106SOL    HW1  317   2.048   0.364   1.399 -0.8500  0.3688  0.9155
  106SOL    HW2  318   2.153   0.406   1.519  1.4959 -2.2420  1.3364
  107SOL     OW  319   1.918   2.909   1.156  0.9919  0.3070 -0.3068
  107SOL    HW1  320   1.843   2.976   1.194  0.0157 -2.2548  0.6036
  107SOL    HW2  321   1.883   2.818   1.114  1.4278 -2.0980 -0.8827
  108SOL     OW  322   0.840   2.820   1.143  0.3075  0.0102 -0.5591
  108SOL    HW1  323   0.838   2.718   1.135 -1.1319  0.1573 -0.1970
  108SOL    HW2  324   0.926   2.855   1.185  1.9405 -1.0613 -1.0439
  109SOL     OW  325   2.163   0.161   0.712 -0.0736 -0.0651  0.2444
  109SOL    HW1  326   2.084   0.121   0.657  1.0667 -2.7409 -0.8886
  109SOL    HW2  327   2.144   0.176   0.812 -0.4103  0.0963  1.2218
  110SOL     OW  328   0.498   2.813   2.750  0.3205  0.5457  0.2662
  110SOL    HW1  329   0.494   2.830   2.645 -1.6376  0.9004 -1.8134
  110SOL    HW2  330   0.574   2.745   2.771 -1.2321  2.0084 -0.5122
  111SOL     OW  331   1.328   0.565   2.271  0.2277  0.2851  0.0389
  111SOL    HW1  332   1.238   0.599   2.321  0.7938  3.7355  0.2720
  111SOL    HW2  333   1.359   0.470   2.295  0.4457 -0.1360  0.0233
  112SOL     OW  334   1.728   0.453   1.532  0.3746  0.1741  0.4169
  112SOL    HW1  335   1.693   0.498   1.439 -1.4981  0.6923  1.1871
  112SOL    HW2  336   1.650   0.416   1.586 -1.5346 -0.0550 -1.1319
  113SOL     OW  337   2.357   1.678   1.791 -0.6650 -0.5995  0.2648
  113SOL    HW1  338   2.400   1.588   1.761 -1.0615  1.6811 -1.9695
  113SOL    HW2  339   2.348   1.686   1.891 -0.7023 -0.0721 -1.1798
  114SOL     OW  340   0.286   0.403   1.158 -0.8024 -0.5557 -0.1822
  114SOL    HW1  341   0.179   0.424   1.151 -0.0136  1.2459  0.7211
  114SOL    HW2  342   0.342   0.443   1.081  0.2679  1.9310  0.1039
  115SOL     OW  343   2.693   1.527   1.267 -0.1787 -0.5889 -0.0944
  115SOL    HW1  344   2.692   1.421   1.285  2.8038 -0.9495  2.1163
  115SOL    HW2  345   2.782   1.561   1.229 -1.7742 -2.2076 -1.6037
  116SOL     OW  346   1.924   0.900   0.755  0.3631  0.7520 -0.3432
  116SOL    HW1  347   1.819   0.892   0.732 -0.2608 -0.1149 -1.7549
  116SOL    HW2  348   1.950   1.002   0.760  1.2061  2.2508  0.8127
  117SOL     OW  349   1.138   0.365   0.547 -0.4513  0.0269 -0.8647
  117SOL    HW1  350   1.187   0.460   0.554  1.9719 -2.5961  0.9862
  117SOL    HW2  351   1.095   0.349   0.456  1.6560 -0.5202  2.3958
  118SOL     OW  352   1.154   1.219   1.077  0.3081 -0.0159  0.1908
  118SOL    HW1  353   1.062   1.188   1.120 -2.3253 -0.3434  1.5975
  118SOL    HW2  354   1.171   1.322   1.087 -0.8281  0.0072 -1.4383
  119SOL     OW  355   1.860   1.573   2.201  0.9221 -0.1135  0.0402
  119SOL    HW1  356   1.807   1.624   2.126 -1.2065  1.3826 -0.2998
  119SOL    HW2  357   1.957   1.547   2.171  0.6059  1.1492  2.5510
  120SOL     OW  358   2.976   2.803   0.279  0.0600 -0.5183  0.3675
  120SOL    HW1  359   2.997   2.758   0.187  1.2543  0.5042 -1.0995
  120SOL    HW2  360   2.878   2.790   0.306  2.0427  0.9462  0.6942
  121SOL     OW  361   2.014   0.777   2.326  0.2904 -0.0930 -0.2335
  121SOL    HW1  362   2.049   0.859   2.277 -1.2359 -1.2113  1.5845
  121SOL    HW2  363   2.023   0.688   2.269 -1.3911  0.2080 -0.7448
  122SOL     OW  364   2.628   2.505   1.338  0.2408 -0.2073  0.9009
  122SOL    HW1  365   2.703   2.457   1.276  1.3673  0.3570 -2.0887
  122SOL    HW2  366   2.623   2.461   1.431  1.1555  0.6417  2.9340
  123SOL     OW  367   1.655   0.159   1.697 -0.1356  0.8250 -0.2836
  123SOL    HW1  368   1.666   0.067   1.642 -1.0978  0.8797 -1.9643
  123SOL    HW2  369   1.745   0.195   1.742  0.3435 -0.5266 -1.0396
  124SOL     OW  370   3.041   0.414   1.151 -0.0795  0.2892  0.3663
  124SOL    HW1  371   2.971   0.451   1.216 -1.2051  0.7282  2.1721
  124SOL    HW2  372   3.041   0.466   1.062  1.0138  1.0402  0.2032
  125SOL     OW  373   0.870   1.993   0.732  0.5899 -0.2142 -0.0799
  125SOL    HW1  374   0.959   1.939   0.731 -1.7604  1.9987 -0.7523
  125SOL    HW2  375   0.810   1.982   0.815 -1.0882 -0.4575  0.5476
  126SOL     OW  376   1.883   2.317   2.447  0.0268 -0.0765 -0.2242
  126SOL    HW1  377   1.952   2.268   2.387  0.4557  1.1800  2.9928
  126SOL    HW2  378   1.873   2.282   2.545  0.5431 -1.4019  1.2057
  127SOL     OW  379   0.896   0.975   0.180  0.0502  0.0617 -0.3586
  127SOL    HW1  380   0.876   1.031   0.264 -1.6403 -0.0823 -1.4863
  127SOL    HW2  381   0.910   0.871   0.201 -0.5904 -1.6725  0.2492
  128SOL     OW  382   0.932   0.203   1.423 -0.5396 -0.3922 -0.8265
  128SOL    HW1  383   0.904   0.258   1.341  1.8073 -4.5094  1.5831
  128SOL    HW2  384   0.893   0.108   1.418  2.1286  1.5325 -0.8298
  129SOL     OW  385   1.871   0.719   1.846  0.1821  0.4458  0.3789
  129SOL    HW1  386   1.895   0.741   1.747  2.4823  1.0589 -2.1555
  129SOL    HW2  387   1.896   0.797   1.910  2.3224 -0.5971 -2.3165
  130SOL     OW  388   1.360   2.209   1.014  0.0842 -1.2373 -0.0576
  130SOL    HW1  389   1.331   2.163   0.924  3.5300  1.1311 -0.6755
  130SOL    HW2  390   1.405   2.302   0.995  1.0158 -0.9069  1.3681
  131SOL     OW  391   3.052   1.401   1.409 -0.5136 -0.4788  0.1448
  131SOL    HW1  392   2.976   1.332   1.419 -1.2448  0.9938 -0.1288
  131SOL    HW2  393   3.150   1.369   1.376 -0.7181  1.1513  1.8632
  132SOL     OW  394   2.057   2.427   0.559 -0.4845 -0.0911 -0.1238
  132SOL    HW1  395   1.959   2.457   0.556  0.3049  0.1971 -1.9541
  132SOL    HW2  396   2.071   2.346   0.625 -1.1113  0.1670  2.3335
  133SOL     OW  397   1.754   2.518   2.757  0.3189  0.1230 -0.1957
  133SOL    HW1  398   1.685   2.512   2.681 -3.0010  1.8634  2.9006
  133SOL    HW2  399   1.760   2.616   2.793  0.7832 -2.1911 -1.4938
  134SOL     OW  400   2.636   2.398   1.604 -0.6058 -0.0947 -0.2565
  134SOL    HW1  401   2.575   2.349   1.676 -0.0360  1.3080  4.0092
  134SOL    HW2  402   2.668   2.491   1.640 -0.1181  0.6169  0.9587
  135SOL     OW  403   0.822   1.398   2.670 -0.2501 -1.0454 -0.1606
  135SOL    HW1  404   0.736   1.342   2.703 -2.8064 -0.2346  1.0161
  135SOL    HW2  405   0.816   1.417   2.568  2.4321 -0.2776  0.4375
  136SOL     OW  406   1.162   2.002   0.401  0.0468 -0.4977 -0.2798
  136SOL    HW1  407   1.100   2.078   0.427  0.2768 -0.8483  1.2260
  136SOL    HW2  408   1.109   1.914   0.386 -0.2906 -0.5251  0.7926
  137SOL     OW  409   0.412   1.221   2.318 -0.0940 -0.0203 -0.4950
  137SOL    HW1  410   0.305   1.226   2.316  0.0482 -0.7894  0.5210
  137SOL    HW2  411   0.448   1.125   2.327  0.8824 -0.7574 -3.3875
  138SOL     OW  412   2.453   1.491   0.238  0.0292 -0.1810  0.3362
  138SOL    HW1  413   2.396   1.442   0.166 -0.5653  0.2139 -2.3433
  138SOL    HW2  414   2.490   1.432   0.319  1.2954 -1.3699  0.6204
  139SOL     OW  415   1.864   2.656   1.578  0.0905 -0.4013 -0.1322
  139SOL    HW1  416   1.790   2.711   1.527 -0.1439 -1.6741 -1.5775
  139SOL    HW2  417   1.869   2.559   1.552  0.6384  2.6946 -0.9607
  140SOL     OW  418   2.993   2.963   2.562  0.1033  0.3199 -0.0611
  140SOL    HW1  419   3.027   2.867   2.578  2.4133 -1.1949  1.3334
  140SOL    HW2  420   3.063   3.041   2.561 -0.4048  0.7801  4.5233
  141SOL     OW  421   1.322   1.650   1.479  0.0854  0.3038  0.0472
  141SOL    HW1  422   1.218   1.658   1.480 -1.8259 -2.4724 -0.4612
  141SOL    HW2  423   1.345   1.578   1.550  0.7601  2.4153  0.8069
  142SOL     OW  424   1.581   0.681   2.216 -0.1741 -0.4381 -0.3556
  142SOL    HW1  425   1.587   0.705   2.113  2.2053  1.5626  0.3108
  142SOL    HW2  426   1.484   0.643   2.238  0.7872  0.7516 -0.7249
  143SOL     OW  427   2.745   0.802   0.546 -0.0201 -0.2224 -0.0696
  143SOL    HW1  428   2.806   0.838   0.470  0.3946  1.1375 -0.4349
  143SOL    HW2  429   2.777   0.840   0.643  0.5685  1.3906 -0.2419
  144SOL     OW  430   2.890   1.153   1.425  0.4038  0.0321  0.0860
  144SOL    HW1  431   2.828   1.131   1.507 -0.9286 -0.2581 -1.6011
  144SOL    HW2  432   2.986   1.130   1.456 -1.7201 -0.9300  0.1369
  145SOL     OW  433   0.892   1.759   0.081 -0.0385 -0.1390 -1.0791
  145SOL    HW1  434   0.866   1.795  -0.012 -0.4624  1.3295 -0.7210
  145SOL    HW2  435   0.827   1.683   0.114  1.4081  0.7696 -2.6651
  146SOL     OW  436   2.470   0.643   1.515  0.2713 -0.3446  0.2062
  146SOL    HW1  437   2.450   0.558   1.459  0.0361  3.0754  1.0035
  146SOL    HW2  438   2.409   0.724   1.489 -0.3909  0.9795  0.1507
  147SOL     OW  439   1.070   2.474   0.569  0.2206  0.4651  0.1821
  147SOL    HW1  440   1.001   2.534   0.520 -0.1044  0.4923 -0.4973
  147SOL    HW2  441   1.159   2.478   0.518 -0.5580 -2.0707 -0.4846
  148SOL     OW  442   1.586   1.446   3.095  0.1077 -0.1194 -0.3188
  148SOL    HW1  443   1.602   1.357   3.039  0.8413  0.6951 -2.7712
  148SOL    HW2  444   1.567   1.421   3.196  1.1523  1.2399  0.1444
  149SOL     OW  445   0.674   1.497   1.999  0.0742  0.0463  0.4819
  149SOL    HW1  446   0.574   1.471   2.024  1.4621  0.6577  3.3923
  149SOL    HW2  447   0.704   1.473   1.903  0.8144 -0.6938 -0.1385
  150SOL     OW  448   3.023   1.198   0.943 -0.0524  0.5009  0.5628
  150SOL    HW1  449   3.093   1.226   1.009 -2.0103  0.6133 -1.6562
  150SOL    HW2  450   2.963   1.119   0.981 -0.5063  0.8880  0.6428
  151SOL     OW  451   0.132   0.883   2.095  0.3819 -0.4883 -0.4173
  151SOL    HW1  452   0.159   0.970   2.049  0.3943  0.5036  1.0556
  151SOL    HW2  453   0.186   0.804   2.050 -1.0720 -0.4716  1.3130
  152SOL     OW  454   1.478   1.875   1.113 -0.1505 -0.2093  0.1079
  152SOL    HW1  455   1.498   1.981   1.118  0.2239  1.4439  0.6179
  152SOL    HW2  456   1.376   1.847   1.110 -1.1464  0.8458  0.9950
  153SOL     OW  457   0.120   1.491   0.268 -0.3947 -0.1376  0.1231
  153SOL    HW1  458   0.105   1.392   0.290 -2.9547 -0.5375  0.7175
  153SOL    HW2  459   0.088   1.552   0.348  0.7502 -0.1306  2.6124
  154SOL     OW  460   2.335   1.836   2.782 -0.7086  0.0149 -0.4999
  154SOL    HW1  461   2.332   1.735   2.772 -1.9798  1.5378  1.4314
  154SOL    HW2  462   2.399   1.884   2.711 -1.8573  0.8678 -0.0388
  155SOL     OW  463   2.503   1.313   0.442  1.0547 -0.3600  0.0514
  155SOL    HW1  464   2.592   1.284   0.483  1.5107  0.6860  3.0110
  155SOL    HW2  465   2.452   1.233   0.400  0.8212 -1.5611  1.0705
  156SOL     OW  466   2.460   0.788   0.770  0.1174 -0.4446 -0.0254
  156SOL    HW1  467   2.356   0.766   0.776  1.4666 -2.9652  2.7200
  156SOL    HW2  468   2.481   0.871   0.714  1.3617  0.6582 -0.1634
  157SOL     OW  469   1.271   3.093   3.061 -0.4921 -0.0158  0.0102
  157SOL    HW1  470   1.339   3.030   3.023  1.1660  3.7141 -0.5093
  157SOL    HW2  471   1.304   3.191   3.073  1.4348 -1.4774 -2.1243
  158SOL     OW  472   1.074   1.913   1.848  0.0163 -0.2619  0.2568
  158SOL    HW1  473   1.094   2.000   1.802 -2.0759 -1.2433 -0.3940
  158SOL    HW2  474   0.976   1.908   1.888 -3.6261 -5.0769 -1.0412
  159SOL     OW  475   0.773   0.414   1.257  0.3595 -0.4683 -0.5579
  159SOL    HW1  476   0.719   0.497   1.281  0.8777 -1.4237  0.2204
  159SOL    HW2  477   0.749   0.367   1.165 -0.0019  0.4423  0.3056
  160SOL     OW  478   1.421   2.478   1.428 -0.3449 -0.0040 -0.4612
  160SOL    HW1  479   1.381   2.421   1.505 -1.2322 -0.6147  0.0877
  160SOL    HW2  480   1.507   2.431   1.392  0.1878  1.1972 -1.3760
  161SOL     OW  481   0.028   2.639   0.430  0.2765  0.7052 -0.3483
  161SOL    HW1  482  -0.014   2.540   0.427  2.4003  1.4552 -0.3705
  161SOL    HW2  483  -0.019   2.707   0.367  2.0185 -0.2344  1.5017
  162SOL     OW  484   2.524   1.904   0.484  0.2785  0.7625 -0.3070
  162SOL    HW1  485   2.554   1.925   0.387 -0.7942 -0.9914  0.3772
  162SOL    HW2  486   2.458   1.822   0.504  1.6243  0.7416 -0.8510
  163SOL     OW  487   1.984   2.732   0.759 -0.0348  0.0481 -0.0029
  163SOL    HW1  488   1.970   2.754   0.654 -0.3261 -1.4879 -1.7263
  163SOL    HW2  489   2.048   2.652   0.782  1.7782  0.0943 -0.7192
  164SOL     OW  490  -0.001   0.126   1.232 -0.0744 -0.2441  0.1058
  164SOL    HW1  491  -0.005   0.224   1.187  1.5574  1.6658  0.8267
  164SOL    HW2  492   0.066   0.111   1.314 -1.2644 -1.7299  0.8417
  165SOL     OW  493   1.107   1.439   0.609  0.1391 -0.3504  0.4320
  165SOL    HW1  494   1.077   1.487   0.695  0.1212  0.2737  0.2141
  165SOL    HW2  495   1.076   1.487   0.520  0.3120 -4.6000 -4.0274
  166SOL     OW  496   1.518   0.995   1.843  0.3469 -0.7218  0.3609
  166SOL    HW1  497   1.421   1.034   1.860 -0.0693 -0.6492  0.2086
  166SOL    HW2  498   1.585   1.069   1.813 -2.3358  1.0855  0.3399
  167SOL     OW  499   0.666   2.006   1.533 -0.1792 -0.1655 -0.0987
  167SOL    HW1  500   0.664   2.084   1.600  2.3074 -2.0422  0.2828
  167SOL    HW2  501   0.613   1.926   1.566  2.1249  0.3405 -1.0690
  168SOL     OW  502   1.616   2.290   0.134 -0.1347 -0.0822 -0.2500
  168SOL    HW1  503   1.686   2.286   0.055  0.2275 -1.3259 -2.2509
  168SOL    HW2  504   1.658   2.285   0.230 -1.9619  0.2408  1.2647
  169SOL     OW  505   3.080   2.595   2.174 -0.6482  0.6700  0.3301
  169SOL    HW1  506   3.080   2.523   2.102  1.1358  0.8478  1.9827
  169SOL    HW2  507   3.129   2.565   2.263  1.1846 -0.6313  0.6096
  170SOL     OW  508   1.156   0.126   2.080  0.5954 -0.0313  0.8049
  170SOL    HW1  509   1.241   0.146   2.137 -0.2443 -1.1700 -0.2125
  170SOL    HW2  510   1.172   0.143   1.981 -1.3149  1.0886 -0.1037
  171SOL     OW  511   0.178   0.864   2.425  0.3409  0.2136 -0.0589
  171SOL    HW1  512   0.081   0.852   2.449  1.7860 -1.9189  0.6830
  171SOL    HW2  513   0.192   0.928   2.343  2.3410 -1.9966  0.5224
  172SOL     OW  514   0.994   0.979   2.820 -0.3884 -0.2056 -0.3925
  172SOL    HW1  515   0.949   1.029   2.898 -1.2801 -2.2545 -0.3685
  172SOL    HW2  516   0.960   0.994   2.721 -1.2349  1.2749  0.0042
  173SOL     OW  517   0.361   2.583   0.031 -0.5883 -0.7098  0.0457
  173SOL    HW1  518   0.396   2.533  -0.048  0.3719  1.6140  3.9462
  173SOL    HW2  519   0.374   2.538   0.121  0.1298  4.3484 -1.5992
  174SOL     OW  520   1.469   2.874   1.037  0.2146  0.2032 -0.4399
  174SOL    HW1  521   1.559   2.901   0.997 -0.2606  0.0961  1.1956
  174SOL    HW2  522   1.421   2.797   0.985  0.7244 -1.2701 -1.6102
  175SOL     OW  523   0.490   3.036   1.724  0.4095 -0.4268  0.1616
  175SOL    HW1  524   0.529   3.032   1.819  0.4717  1.8016  0.9106
  175SOL    HW2  525   0.449   3.127   1.705  0.4164 -0.0924 -0.1834
  176SOL     OW  526   2.624   0.467   3.073 -0.4768 -0.0969 -0.3226
  176SOL    HW1  527   2.590   0.548   3.127 -0.5235 -0.8089  1.6004
  176SOL    HW2  528   2.671   0.401   3.138 -2.2572  0.0107  2.0016
  177SOL     OW  529   0.382   0.245   0.846 -0.4975 -0.4747 -0.7854
  177SOL    HW1  530   0.345   0.152   0.859  0.3693 -1.6812  0.4728
  177SOL    HW2  531   0.485   0.231   0.846 -1.2717 -1.9639  1.0353
  178SOL     OW  532   3.093   2.726   2.676 -0.0317 -0.4741  0.0728
  178SOL    HW1  533   3.098   2.620   2.675 -0.4046  0.2908 -2.3482
  178SOL    HW2  534   3.186   2.759   2.711  1.0294 -1.4046 -2.8460
  179SOL     OW  535   2.970   1.605   1.217 -0.3852 -0.4570  0.8187
  179SOL    HW1  536   3.022   1.582   1.128  1.7443 -1.4398 -0.0089
  179SOL    HW2  537   3.011   1.550   1.296  0.1019 -0.2665 -1.5367
  180SOL     OW  538   0.273   1.420   1.743  0.6142 -0.0523  0.1656
  180SOL    HW1  539   0.341   1.353   1.785 -0.3435  1.0354 -2.3304
  180SOL    HW2  540   0.208   1.462   1.816 -2.6334 -2.2468  1.8206
  181SOL     OW  541   2.993   1.778   2.478  0.4702 -0.5376 -0.2546
  181SOL    HW1  542   2.980   1.778   2.374 -3.4831 -2.1164  0.9215
  181SOL    HW2  543   2.902   1.781   2.526  2.8002 -1.4585 -0.6598
  182SOL     OW  544   2.222   1.375   1.186 -0.5835  0.2329 -0.1358
  182SOL    HW1  545   2.201   1.269   1.176 -1.4175 -1.8628  2.7867
  182SOL    HW2  546   2.312   1.405   1.150 -1.8648 -1.0898 -0.5668
  183SOL     OW  547   1.457   2.229   2.414  0.2302  0.0488  0.1603
  183SOL    HW1  548   1.379   2.169   2.448 -0.5500 -2.0709 -1.2758
  183SOL    HW2  549   1.539   2.172   2.390  1.0863 -0.7497  1.8805
  184SOL     OW  550   2.177   0.792   0.732 -0.1038 -0.3178 -0.3453
  184SOL    HW1  551   2.084   0.834   0.730  1.8230  2.2134  3.0866
  184SOL    HW2  552   2.183   0.697   0.761  0.0023  1.5150  0.3546
  185SOL     OW  553   1.585   2.785   2.001  0.2007 -0.2928  0.0132
  185SOL    HW1  554   1.502   2.848   2.004 -0.4688 -2.1453  1.5595
  185SOL    HW2  555   1.611   2.760   2.097  0.2247 -0.2633  0.3065
  186SOL     OW  556   0.055   2.197   1.780 -0.3215 -0.2245 -0.0408
  186SOL    HW1  557   0.041   2.242   1.870 -3.5203 -0.7438 -0.6420
  186SOL    HW2  558   0.139   2.140   1.788 -3.0781  1.1177  0.4045
  187SOL     OW  559   1.319   0.703   1.640 -0.2564  0.2052 -0.1866
  187SOL    HW1  560   1.406   0.761   1.614  2.7239 -0.5544 -2.6572
  187SOL    HW2  561   1.336   0.604   1.627  0.2567  0.2456 -1.3126
  188SOL     OW  562   2.691   2.680   1.580 -0.2915  0.4170  0.2498
  188SOL    HW1  563   2.700   2.769   1.641 -0.2033  1.2897  1.2314
  188SOL    HW2  564   2.691   2.701   1.479  0.1213  0.9960  1.2527
  189SOL     OW  565   0.932   1.214   1.340 -0.5078 -0.0605  0.2264
  189SOL    HW1  566   0.951   1.268   1.427  0.5205 -2.4383  0.4762
  189SOL    HW2  567   0.876   1.270   1.276 -0.6354 -0.1966  1.4140
  190SOL     OW  568   1.452   1.888   1.519 -0.2904 -0.5938  0.3420
  190SOL    HW1  569   1.402   1.795   1.511 -0.8586 -1.5259  1.5192
  190SOL    HW2  570   1.444   1.923   1.621 -0.2090  0.2564  1.4790
  191SOL     OW  571   0.853   0.784   1.502  0.3663 -0.3413  0.0727
  191SOL    HW1  572   0.894   0.724   1.572 -3.7231 -0.0834 -2.3688
  191SOL    HW2  573   0.928   0.848   1.458 -0.7231 -0.6132 -0.6105
  192SOL     OW  574   1.826   2.439   1.112  0.2157  0.5968  0.4893
  192SOL    HW1  575   1.721   2.421   1.106 -0.5587 -1.0296  1.9133
  192SOL    HW2  576   1.874   2.341   1.106  0.5522 -5.8634 -0.0795
  193SOL     OW  577   0.532   0.561   0.413 -0.4259 -0.7340 -0.6279
  193SOL    HW1  578   0.461   0.482   0.400 -1.8396 -1.9415  1.7877
  193SOL    HW2  579   0.596   0.574   0.328 -0.5768 -1.6855  0.1181
  194SOL     OW  580   0.390   0.828   1.284  0.2658  0.1427 -0.7189
  194SOL    HW1  581   0.297   0.785   1.277 -0.5883  1.3594  3.0370
  194SOL    HW2  582   0.432   0.841   1.191 -3.4663  0.5163  1.2797
  195SOL     OW  583   1.041   2.945   0.527  0.0755 -0.0692  0.2712
  195SOL    HW1  584   1.014   2.853   0.484  2.0946 -0.1459 -0.6746
  195SOL    HW2  585   1.138   2.976   0.504 -0.3367 -0.3973  1.2339
  196SOL     OW  586   0.236   1.410   1.309 -0.2727 -0.0641 -0.1324
  196SOL    HW1  587   0.295   1.485   1.342 -0.6468 -0.2319 -4.1468
  196SOL    HW2  588   0.244   1.327   1.372  3.6107  1.0009  0.1060
  197SOL     OW  589   0.827   1.943   0.273 -0.9668 -0.5928 -0.2126
  197SOL    HW1  590   0.861   1.913   0.369  0.6469  1.2223 -1.1094
  197SOL    HW2  591   0.870   1.889   0.197  0.4980 -0.2730 -0.7959
  198SOL     OW  592   0.268   1.205   0.345  0.0638 -0.0169 -0.2076
  198SOL    HW1  593   0.170   1.202   0.302 -0.5953  1.3762  1.2742
  198SOL    HW2  594   0.289   1.292   0.402  0.7635 -0.3761  1.4381
  199SOL     OW  595   2.228   0.427   2.610  0.0263 -0.2501  0.4855
  199SOL    HW1  596   2.167   0.400   2.689 -0.9025 -3.2173  2.2302
  199SOL    HW2  597   2.330   0.409   2.627  0.8252  0.9847  2.1815
  200SOL     OW  598   3.051   2.886   0.797  0.7442  0.0347 -0.0002
  200SOL    HW1  599   3.063   2.979   0.847  1.8282  1.6197 -0.4356
  200SOL    HW2  600   2.986   2.893   0.717 -1.8183 -0.8627  2.7251
  201SOL     OW  601   0.909   0.699   0.532  0.0800 -0.0175  0.6897
  201SOL    HW1  602   0.882   0.776   0.596  0.7350 -2.5088 -1.3614
  201SOL    HW2  603   0.856   0.609   0.548  1.1048 -0.4078  1.7897
  202SOL     OW  604   0.458   1.231   1.894 -0.6309  0.6167  0.6148
  202SOL    HW1  605   0.542   1.207   1.840 -0.9508  2.2778  0.1806
  202SOL    HW2  606   0.478   1.275   1.987  0.6454  0.3078  3.1098
  203SOL     OW  607   0.681   0.181   1.566 -0.4552  0.0846 -0.2289
  203SOL    HW1  608   0.666   0.108   1.492 -0.5295 -1.7936 -0.6863
  203SOL    HW2  609   0.779   0.204   1.576 -0.0914 -2.9082 -0.4780
  204SOL     OW  610   2.090   1.826   2.936 -0.3520  0.1331  0.4302
  204SOL    HW1  611   2.064   1.728   2.926  0.1937 -0.2247 -1.2644
  204SOL    HW2  612   2.169   1.846   2.876 -1.2213  0.9048 -2.4920
  205SOL     OW  613   1.835   1.902   3.045 -0.0460 -0.0592 -0.5680
  205SOL    HW1  614   1.933   1.871   3.025 -1.4199 -0.0136  0.6471
  205SOL    HW2  615   1.792   1.967   2.970 -1.6819 -1.0845 -0.8363
  206SOL     OW  616   2.364   2.699   0.282  0.1878  0.0648 -0.5897
  206SOL    HW1  617   2.352   2.650   0.375 -0.1057 -1.7508  2.0382
  206SOL    HW2  618   2.467   2.708   0.258  1.4332  1.3122  1.6779
  207SOL     OW  619   0.689   1.749   2.941  0.1805  0.0780  0.0111
  207SOL    HW1  620   0.769   1.706   2.889  1.9263  0.3781  0.0711
  207SOL    HW2  621   0.624   1.673   2.970  1.3734  1.2811  2.6151
  208SOL     OW  622   0.991   1.557   1.261  0.0159  0.2087 -0.8376
  208SOL    HW1  623   0.919   1.581   1.190 -1.1441 -0.2122  1.1042
  208SOL    HW2  624   0.959   1.560   1.362  1.2342  1.6563  0.3023
  209SOL     OW  625   0.233   0.984   3.052 -0.3299  0.3549  0.1605
  209SOL    HW1  626   0.277   0.920   2.988 -2.1103 -1.3605  1.6533
  209SOL    HW2  627   0.165   0.944   3.120  0.7682 -0.6206 -0.9862
  210SOL     OW  628   1.668   0.564   1.300  0.2750  0.2988 -0.2457
  210SOL    HW1  629   1.589   0.605   1.250 -1.7153  0.3446  0.0785
  210SOL    HW2  630   1.759   0.599   1.264 -1.9101  0.6346 -1.4442
  211SOL     OW  631   2.200   1.027   1.573  0.2229  0.0191  0.5956
  211SOL    HW1  632   2.212   1.026   1.676 -2.7518  2.3830 -1.4260
  211SOL    HW2  633   2.232   1.114   1.517 -4.5061  3.3483 -1.8530
  212SOL     OW  634   0.037   1.040   1.496  0.1456  0.0107  0.0196
  212SOL    HW1  635   0.110   1.112   1.497  1.8857 -0.6328 -1.1980
  212SOL    HW2  636   0.061   0.962   1.559 -1.2698 -1.3957 -0.5687
  213SOL     OW  637   2.832   0.042   0.375 -0.1465 -0.2344  0.1439
  213SOL    HW1  638   2.926   0.031   0.326  1.6959 -1.5347  0.2494
  213SOL    HW2  639   2.757  -0.007   0.316 -1.1533 -0.7636 -2.4297
  214SOL     OW  640   2.159   0.343   2.352 -0.3043 -0.4348 -0.2149
  214SOL    HW1  641   2.186   0.388   2.445  1.4792 -0.0914  3.3124
  214SOL    HW2  642   2.134   0.243   2.373 -1.3508  1.4640 -2.1885
  215SOL     OW  643   1.663   2.265   2.082  0.4645  0.2443  0.0630
  215SOL    HW1  644   1.757   2.302   2.063 -2.3763  1.4018  2.6209
  215SOL    HW2  645   1.593   2.341   2.081  2.1744  0.2293  0.6047
  216SOL     OW  646   2.256   0.515   0.763  0.8357 -0.2842  0.5146
  216SOL    HW1  647   2.241   0.471   0.668  0.0249 -1.1066 -0.7389
  216SOL    HW2  648   2.327   0.475   0.818  2.0445  2.6858 -2.1556
  217SOL     OW  649   0.938   2.748   2.565 -0.6545  0.2968  0.1149
  217SOL    HW1  650   0.955   2.661   2.628 -0.8678 -1.9439  1.7331
  217SOL    HW2  651   0.866   2.727   2.494  0.3925 -0.5152 -1.1890
  218SOL     OW  652   1.879   1.409   0.024  0.3084 -0.1216  0.0607
  218SOL    HW1  653   1.780   1.411  -0.011 -0.3234 -1.0084  1.0084
  218SOL    HW2  654   1.903   1.327   0.084 -0.0234 -2.9416 -2.1172
  219SOL     OW  655   2.441   1.272   2.502 -0.0295 -0.4875 -0.2461
  219SOL    HW1  656   2.465   1.212   2.419 -3.0612 -2.5431 -0.7553
  219SOL    HW2  657   2.438   1.213   2.588  1.1333 -0.4912 -1.6164
  220SOL     OW  658   1.399   1.016   1.330  0.7098  0.1079 -0.1057
  220SOL    HW1  659   1.490   0.970   1.336 -0.8203 -1.5185 -0.5748
  220SOL    HW2  660   1.387   1.058   1.238  1.0777  1.2302  0.8923
  221SOL     OW  661   1.348   0.929   2.198 -0.4592  0.1831 -0.3298
  221SOL    HW1  662   1.342   0.946   2.099  1.3250 -0.4126  1.4917
  221SOL    HW2  663   1.422   0.991   2.245  1.4866  2.1793  1.2178
  222SOL     OW  664   1.161   0.056   1.207 -0.3744 -0.5071 -0.1934
  222SOL    HW1  665   1.209   0.081   1.295 -0.2673 -1.8323 -1.0430
  222SOL    HW2  666   1.143   0.143   1.152  2.8040  0.8250 -0.9960
  223SOL     OW  667   2.729   0.947   2.134  0.0732  0.7051 -0.0666
  223SOL    HW1  668   2.723   1.046   2.113  0.8164  0.8322  1.6455
  223SOL    HW2  669   2.814   0.924   2.188 -1.5061 -1.5972 -0.1314
  224SOL     OW  670   1.512   0.988   2.820 -0.3763 -0.0811  0.2280
  224SOL    HW1  671   1.521   0.918   2.743 -4.3332 -0.9340  4.7139
  224SOL    HW2  672   1.534   1.087   2.790  1.2330  2.0534 -1.1511
  225SOL     OW  673   2.958   2.679   2.918 -0.1249 -0.2524 -0.4070
  225SOL    HW1  674   2.890   2.668   2.846  1.4665 -1.3478  1.4179
  225SOL    HW2  675   3.042   2.722   2.873 -2.3114  1.7627 -2.6688
  226SOL     OW  676   2.421   1.575   2.776 -0.2702  0.3208  0.5001
  226SOL    HW1  677   2.493   1.554   2.701 -0.4401  2.4685 -1.4544
  226SOL    HW2  678   2.436   1.511   2.859  0.9659  1.5107  1.3392
  227SOL     OW  679   0.894   0.262   3.058  0.4796 -0.3979 -0.1830
  227SOL    HW1  680   0.943   0.347   3.023  4.1793 -0.6505 -2.6457
  227SOL    HW2  681   0.836   0.218   2.981 -0.4700 -2.7598 -2.1138
  228SOL     OW  682   2.433   0.662   2.863  0.0369  0.0261  0.1185
  228SOL    HW1  683   2.441   0.738   2.790 -0.6568 -0.9652  0.6079
  228SOL    HW2  684   2.520   0.623   2.903 -1.0366 -0.7568  1.5988
  229SOL     OW  685   0.553   0.608   1.831  1.1042  0.6218  0.1903
  229SOL    HW1  686   0.616   0.622   1.916  2.4167  1.4142  0.8562
  229SOL    HW2  687   0.590   0.536   1.769 -0.8241  1.1596  0.3275
  230SOL     OW  688   1.883   1.229   1.941  0.2865  0.0431 -0.2438
  230SOL    HW1  689   1.957   1.299   1.912  0.3541  3.0154 -1.9607
  230SOL    HW2  690   1.824   1.262   2.023 -0.7832 -1.7378 -0.7100
  231SOL     OW  691   0.626   1.092   3.070  0.7557 -0.2224 -0.0388
  231SOL    HW1  692   0.724   1.129   3.068 -1.9426  0.2028 -2.0221
  231SOL    HW2  693   0.553   1.150   3.107 -0.1671  0.1827  1.3042
  232SOL     OW  694   2.402   3.004   2.801  0.2795 -0.7006  0.1623
  232SOL    HW1  695   2.461   2.920   2.820  1.1305 -0.1280 -1.5377
  232SOL    HW2  696   2.459   3.082   2.763  1.2050  0.5070  0.0316
  233SOL     OW  697   1.801   1.169   1.095  0.5953 -0.0584  0.3618
  233SOL    HW1  698   1.881   1.216   1.048 -1.4329 -0.9977 -1.9023
  233SOL    HW2  699   1.824   1.080   1.139 -2.5651  0.2405 -0.4103
  234SOL     OW  700   1.644   2.509   1.830  0.4004 -0.4090 -0.1314
  234SOL    HW1  701   1.603   2.558   1.908  0.8591  0.1258 -0.7331
  234SOL    HW2  702   1.574   2.431   1.805  0.9413 -0.6172 -2.3660
  235SOL     OW  703   0.017   2.992   2.839  0.4468  0.7612  0.4689
  235SOL    HW1  704  -0.044   2.977   2.755 -0.1798  0.3227  1.2889
  235SOL    HW2  705  -0.036   3.024   2.925  0.5028 -0.0724  1.7591
  236SOL     OW  706   2.910   0.696   0.073 -0.3444  0.1639 -0.0512
  236SOL    HW1  707   2.971   0.722   0.154 -0.7708 -0.5549 -1.7198
  236SOL    HW2  708   2.956   0.632   0.009 -1.5276  3.0749  0.9362
  237SOL     OW  709   1.526   1.686   0.885  0.5883  0.2982  0.2341
  237SOL    HW1  710   1.624   1.654   0.875  3.3960  0.4087 -0.0885
  237SOL    HW2  711   1.526   1.775   0.942  0.0869  0.0721 -2.1852
  238SOL     OW  712   1.888   1.180   0.758  0.4205 -0.7124  0.1502
  238SOL    HW1  713   1.945   1.208   0.836 -2.0892  0.6216 -4.0603
  238SOL    HW2  714   1.787   1.204   0.768  0.1487  0.0944 -1.6350
  239SOL     OW  715   1.990   0.244   2.782 -0.1369  0.4036  0.3847
  239SOL    HW1  716   2.031   0.219   2.875  0.9560 -0.0232 -2.2919
  239SOL    HW2  717   1.907   0.310   2.791 -4.2666  0.1988 -0.2867
  240SOL     OW  718   0.945   0.697   0.238 -0.0735 -0.1304 -0.0772
  240SOL    HW1  719   1.024   0.651   0.194 -0.8579  1.0176  3.3403
  240SOL    HW2  720   0.958   0.697   0.341  1.4887  1.4194 -1.5147
  241SOL     OW  721   0.580   0.110   0.317  0.3111 -0.4311  0.2856
  241SOL    HW1  722   0.634   0.193   0.285  1.5100 -4.1168  0.2517
  241SOL    HW2  723   0.575   0.037   0.240 -0.5630 -0.5711 -0.1403
  242SOL     OW  724   0.604   2.596   1.185 -0.6262  0.7807 -0.0473
  242SOL    HW1  725   0.598   2.589   1.288  1.1031  2.9883  2.3397
  242SOL    HW2  726   0.574   2.682   1.149 -1.3925 -0.9709  1.4807
  243SOL     OW  727   1.078   0.635   2.409  0.3393 -0.3218  0.3849
  243SOL    HW1  728   0.980   0.651   2.378 -3.3555  4.0754 -0.5090
  243SOL    HW2  729   1.087   0.569   2.492 -1.2168  0.5801  0.5821
  244SOL     OW  730   2.692   1.966   2.367  0.3367  0.1329  0.4862
  244SOL    HW1  731   2.742   1.939   2.275  0.0745  0.5230  0.6747
  244SOL    HW2  732   2.628   1.889   2.399  1.4193 -0.8992 -1.1778
  245SOL     OW  733   2.099   1.019   2.222 -0.3184 -0.2323 -0.2122
  245SOL    HW1  734   2.203   1.017   2.232 -1.2887 -0.1530 -0.4737
  245SOL    HW2  735   2.054   1.102   2.265  0.0072 -0.1140 -1.6733
  246SOL     OW  736   0.303   2.841   1.792 -0.4904  0.2164  0.2537
  246SOL    HW1  737   0.218   2.820   1.731  0.5636  1.0715 -0.3772
  246SOL    HW2  738   0.377   2.880   1.734  0.0274 -0.6047 -2.3139
  247SOL     OW  739   2.239   0.570   3.020  0.0884 -0.3588  0.4528
  247SOL    HW1  740   2.298   0.587   2.940  0.3326 -0.0581  2.4426
  247SOL    HW2  741   2.167   0.646   3.025 -1.1181  0.5843 -0.9230
  248SOL     OW  742   2.204   1.818   1.610 -0.0642  0.5262  0.3013
  248SOL    HW1  743   2.261   1.774   1.679 -0.7367 -1.7167  0.1074
  248SOL    HW2  744   2.101   1.804   1.629  0.1364  1.0925  2.3223
  249SOL     OW  745   1.901   1.922   1.822 -0.0913 -0.1089  0.7967
  249SOL    HW1  746   1.919   1.851   1.750  1.0268  2.5479  0.4163
  249SOL    HW2  747   1.989   1.945   1.876 -0.4789  1.0241  0.2747
  250SOL     OW  748   0.945   0.716   1.873  0.2709 -0.7010  0.1498
  250SOL    HW1  749   1.011   0.666   1.936 -1.0017 -1.8327  0.7186
  250SOL    HW2  750   0.939   0.665   1.787  1.7441  3.0914  2.3619
  251SOL     OW  751   3.035   1.521   2.590  0.4027  0.5053  0.9045
  251SOL    HW1  752   3.031   1.622   2.567  1.5859  0.1209  2.8827
  251SOL    HW2  753   2.960   1.470   2.541  1.7475 -0.7211 -0.1473
  252SOL     OW  754   1.561   0.838   1.588 -0.5537 -0.3954  0.4210
  252SOL    HW1  755   1.625   0.861   1.511 -0.1270  0.3898  0.8579
  252SOL    HW2  756   1.581   0.898   1.671 -0.0492  0.5442 -0.9044
  253SOL     OW  757   0.946   1.505   0.407  0.3666 -0.3574  0.2581
  253SOL    HW1  758   0.933   1.447   0.327 -2.7051  0.6225  0.0213
  253SOL    HW2  759   0.870   1.509   0.473  0.7765 -0.8030 -0.7648
  254SOL     OW  760   2.052   2.176   1.644 -0.6106  0.0823  0.2383
  254SOL    HW1  761   2.001   2.095   1.603  0.0065 -0.2830 -1.1403
  254SOL    HW2  762   1.988   2.246   1.678 -0.1347 -0.9883 -0.4365
  255SOL     OW  763   0.109   1.187   2.919 -0.5775 -0.3521 -0.0713
  255SOL    HW1  764   0.149   1.283   2.897  2.5535  2.0538 -1.7788
  255SOL    HW2  765   0.182   1.118   2.948 -0.7447  3.0499 -0.1838
  256SOL     OW  766   2.804   1.413   1.762 -0.4288 -0.0720 -0.0890
  256SOL    HW1  767   2.720   1.465   1.742  0.6870 -3.5271  1.9802
  256SOL    HW2  768   2.793   1.311   1.731 -0.1391 -1.8273  0.1764
  257SOL     OW  769   0.866   0.243   1.872 -0.7713  0.1995 -0.2851
  257SOL    HW1  770   0.917   0.284   1.792  3.1940 -0.4694 -1.1688
  257SOL    HW2  771   0.851   0.135   1.854 -1.8139  0.5475  1.2796
  258SOL     OW  772   2.961   1.171   0.516 -0.0939 -0.2968 -0.3307
  258SOL    HW1  773   2.884   1.182   0.582 -1.7709  3.6917  0.2002
  258SOL    HW2  774   3.054   1.192   0.560  2.2698  2.2744 -1.6305
  259SOL     OW  775   0.479   2.940   3.010  0.3671  0.1367 -0.3271
  259SOL    HW1  776   0.396   2.889   3.040  2.0224  3.8958 -0.6908
  259SOL    HW2  777   0.517   2.922   2.913  0.0618 -0.1848 -1.6700
  260SOL     OW  778   2.748   0.753   2.771  0.0762 -0.3666  0.6537
  260SOL    HW1  779   2.673   0.822   2.746  3.0478  2.2749  0.6795
  260SOL    HW2  780   2.713   0.652   2.764 -1.4275  0.1880  1.1377
  261SOL     OW  781   2.687   1.264   1.316 -0.6466 -0.3293 -0.3951
  261SOL    HW1  782   2.626   1.254   1.230 -1.2077  3.1491 -0.2029
  261SOL    HW2  783   2.762   1.192   1.323 -1.2301  0.8083 -0.1115
  262SOL     OW  784   1.376   2.972   2.060  0.5771  0.4699  0.1056
  262SOL    HW1  785   1.421   3.056   2.023  1.8433 -2.3894  2.1779
  262SOL    HW2  786   1.289   2.952   2.008  0.1347  0.5811 -0.7246
  263SOL     OW  787   0.814   0.631   2.299 -0.1398 -0.3510  0.1474
  263SOL    HW1  788   0.773   0.548   2.261  1.5713 -0.6271  0.3368
  263SOL    HW2  789   0.823   0.709   2.228  2.2878 -1.2671 -0.5854
  264SOL     OW  790   2.275   0.812   0.410 -0.2539 -0.3492  0.1886
  264SOL    HW1  791   2.277   0.728   0.346  0.9959 -1.2427  0.9848
  264SOL    HW2  792   2.365   0.857   0.436  0.2393 -0.2612  0.0733
  265SOL     OW  793   0.911   2.387   2.609 -0.8908 -0.9010  0.1256
  265SOL    HW1  794   0.974   2.448   2.673  3.5517  0.1649 -0.8597
  265SOL    HW2  795   0.839   2.337   2.660  0.8812  1.3129 -0.7197
  266SOL     OW  796   1.287   1.792   3.055 -0.4754  0.2907  0.0290
  266SOL    HW1  797   1.265   1.837   3.143 -2.0546 -0.8540 -0.0421
  266SOL    HW2  798   1.383   1.755   3.051  1.6007  1.0313  0.7433
  267SOL     OW  799   1.089   0.013   2.330  0.1679 -0.5532  0.0462
  267SOL    HW1  800   1.020  -0.057   2.328  1.8937  0.9507 -2.7185
  267SOL    HW2  801   1.108   0.067   2.245 -0.2110 -0.6659  0.1716
  268SOL     OW  802   0.861   1.279   1.061  0.2738  0.4089  0.2275
  268SOL    HW1  803   0.790   1.323   1.117 -0.7914 -1.2305 -2.3543
  268SOL    HW2  804   0.932   1.347   1.023 -0.0667  2.5583  0.2923
  269SOL     OW  805   2.376   2.545   1.588 -0.1179 -0.1042  0.2546
  269SOL    HW1  806   2.471   2.525   1.549  1.5031 -1.1729  0.1306
  269SOL    HW2  807   2.380   2.580   1.687 -3.2059  3.9407  1.4512
  270SOL     OW  808   0.154   2.988   1.983 -0.4059  0.0551  0.1543
  270SOL    HW1  809   0.229   2.933   1.930 -0.4769 -0.6564  2.1320
  270SOL    HW2  810   0.107   2.936   2.057  0.8045  1.0334  1.3990
  271SOL     OW  811   0.459   1.380   1.115  0.1305 -0.0440 -0.6332
  271SOL    HW1  812   0.457   1.360   1.013 -1.6666  0.8442  2.2378
  271SOL    HW2  813   0.382   1.335   1.166 -0.0935  0.9596  0.4038
  272SOL     OW  814   1.880   3.088   1.932 -0.3118 -0.3805  0.2866
  272SOL    HW1  815   1.860   3.006   1.870 -0.7173  0.1146  0.3890
  272SOL    HW2  816   1.868   3.176   1.877 -0.6263 -0.7147 -2.3186
  273SOL     OW  817   1.470   1.463   2.838  0.0980 -0.2018  0.6000
  273SOL    HW1  818   1.369   1.464   2.819  0.9933 -0.8575  0.9142
  273SOL    HW2  819   1.497   1.477   2.938 -0.9780  0.2803  1.1791
  274SOL     OW  820   1.114   0.553   2.060  0.5514  1.2589 -0.1739
  274SOL    HW1  821   1.065   0.465   2.094 -1.2828  2.2116  2.6825
  274SOL    HW2  822   1.198   0.576   2.117  3.3242 -0.8243  2.6930
  275SOL     OW  823   0.655   2.103   1.926  0.4535 -0.3986  0.2713
  275SOL    HW1  824   0.632   2.193   1.975  0.6491 -0.3106  0.6537
  275SOL    HW2  825   0.571   2.047   1.901 -1.6705 -2.4749  2.4987
  276SOL     OW  826   2.229   0.939   2.861  0.9539  0.2451  0.5349
  276SOL    HW1  827   2.142   0.956   2.806 -1.8132  2.4747  0.1491
  276SOL    HW2  828   2.266   0.842   2.850 -0.9614 -1.7996  1.0875
  277SOL     OW  829  -0.002   0.746   0.265  0.1262 -0.1255 -0.2139
  277SOL    HW1  830   0.092   0.784   0.232  0.4382  1.3483  0.6566
  277SOL    HW2  831   0.012   0.676   0.342 -0.8045 -0.5592 -0.7333
  278SOL     OW  832   0.268   0.225   3.024  0.9691 -0.1660 -0.1638
  278SOL    HW1  833   0.355   0.171   2.997  0.1375 -2.1106 -1.0685
  278SOL    HW2  834   0.289   0.325   3.040  1.4651 -2.4702  0.0751
  279SOL     OW  835   0.278   3.070   0.913 -0.2906  0.0019 -0.6198
  279SOL    HW1  836   0.316   3.048   1.009 -1.4545 -1.7704 -0.6234
  279SOL    HW2  837   0.280   2.986   0.853 -0.8449 -3.1592 -0.9954
  280SOL     OW  838   1.587   2.910   2.423 -0.6612 -0.2820 -0.2174
  280SOL    HW1  839   1.675   2.961   2.455  0.0366  1.9405  1.3625
  280SOL    HW2  840   1.525   2.976   2.375 -0.4066 -4.7123 -0.3110
  281SOL     OW  841   0.560   0.940   2.321  0.6256  0.0934  0.5064
  281SOL    HW1  842   0.552   0.855   2.264  1.2091 -2.2463  3.0269
  281SOL    HW2  843   0.574   0.920   2.420 -1.5797  0.1964  2.5877
  282SOL     OW  844   1.787   2.463   0.549  0.0952  0.0060  0.2408
  282SOL    HW1  845   1.750   2.371   0.505 -2.4782  0.5604  2.4828
  282SOL    HW2  846   1.737   2.551   0.516 -1.2237  1.2007 -2.5849
  283SOL     OW  847   1.162   0.921   0.774  0.6319  0.1674  0.8427
  283SOL    HW1  848   1.180   0.874   0.866 -0.1318 -0.2285  2.7044
  283SOL    HW2  849   1.154   1.026   0.784  0.9156  2.3454  0.1067
  284SOL     OW  850   2.241   2.816   2.461 -0.2771  0.2305 -0.1645
  284SOL    HW1  851   2.335   2.857   2.437  0.7600 -0.1185  2.4808
  284SOL    HW2  852   2.222   2.819   2.564  1.5250  0.1338  2.7250
  285SOL     OW  853   1.318   3.042   2.624 -0.0186 -0.1931  0.1176
  285SOL    HW1  854   1.345   3.029   2.525 -2.8180 -0.0855 -1.0765
  285SOL    HW2  855   1.274   3.137   2.640 -1.2929 -0.3808 -1.1813
  286SOL     OW  856   0.298   0.410   0.661 -0.1953 -1.0466 -0.0884
  286SOL    HW1  857   0.339   0.357   0.736  0.4647  0.0396 -0.9374
  286SOL    HW2  858   0.346   0.404   0.567  1.2683 -1.5409  2.5893
  287SOL     OW  859   0.088   1.288   2.559 -0.3512 -1.0717 -0.5550
  287SOL    HW1  860   0.049   1.202   2.595  1.9061 -0.9001 -1.8847
  287SOL    HW2  861   0.022   1.370   2.574  1.8974  1.6611 -0.5683
  288SOL     OW  862   1.532   2.716   1.679 -0.1248 -0.6230 -0.1565
  288SOL    HW1  863   1.580   2.647   1.744  1.0295 -1.8417  0.8699
  288SOL    HW2  864   1.555   2.700   1.581  0.1646  1.6726 -0.9397
  289SOL     OW  865   0.644   2.791   0.796  0.3795  0.3946 -0.3308
  289SOL    HW1  866   0.710   2.856   0.747  0.5233 -0.1633 -0.6006
  289SOL    HW2  867   0.601   2.823   0.886 -3.6569 -2.0887  2.2353
  290SOL     OW  868   2.833   1.149   1.705  0.3643  0.2651 -0.4738
  290SOL    HW1  869   2.763   1.078   1.720 -0.7222  1.6389  4.1655
  290SOL    HW2  870   2.919   1.115   1.753  0.5338  0.3094 -1.3154
  291SOL     OW  871   1.929   3.071   0.051 -0.5294  0.4100  0.8458
  291SOL    HW1  872   1.935   3.116   0.143 -0.7491  0.8236 -0.3125
  291SOL    HW2  873   1.995   3.098  -0.025  1.4938  0.8014  2.1223
  292SOL     OW  874   2.985   1.196   3.071 -0.2706  0.9165  0.3517
  292SOL    HW1  875   2.936   1.287   3.055  1.7598 -0.1640  1.2691
  292SOL    HW2  876   3.070   1.189   3.017 -2.3508  2.5893  2.1261
  293SOL     OW  877   0.580   2.074   0.290 -0.0294  0.1117  0.2835
  293SOL    HW1  878   0.540   2.144   0.351  0.3818 -0.5481  1.8811
  293SOL    HW2  879   0.681   2.054   0.305  0.7974 -0.0563  1.9608
  294SOL     OW  880   1.874   2.349   1.775 -0.0434  0.1876  0.8263
  294SOL    HW1  881   1.916   2.333   1.872  0.4514 -0.8271  1.9919
  294SOL    HW2  882   1.791   2.413   1.782  0.4627  0.2870  0.1238
  295SOL     OW  883   0.939   1.065   0.463  0.3453 -0.2874  0.0279
  295SOL    HW1  884   1.031   1.101   0.453 -2.1905  0.0938  2.8757
  295SOL    HW2  885   0.924   1.005   0.547  0.9251 -3.3213 -0.0595
  296SOL     OW  886   1.099   2.166   2.756  0.1711 -0.0703  0.1838
  296SOL    HW1  887   1.033   2.236   2.722  1.1397 -0.0344 -0.6009
  296SOL    HW2  888   1.147   2.123   2.671  2.6642  2.1688 -0.8621
  297SOL     OW  889   1.273   0.540   1.178  0.0433  0.4153  0.1793
  297SOL    HW1  890   1.320   0.495   1.262  0.0581 -2.9648  1.0735
  297SOL    HW2  891   1.348   0.593   1.124  0.4122  0.2989 -2.8184
  298SOL     OW  892   0.471   1.313   2.930  0.1094 -0.6244 -0.3612
  298SOL    HW1  893   0.423   1.270   3.013  0.9312 -2.4673  2.0059
  298SOL    HW2  894   0.531   1.252   2.875 -0.1672  1.1982 -2.2750
  299SOL     OW  895   0.439   0.189   1.253 -0.1596  0.4969  0.3165
  299SOL    HW1  896   0.360   0.241   1.215 -2.6589 -1.5618  0.9268
  299SOL    HW2  897   0.432   0.177   1.356 -1.3088 -0.2092  1.0066
  300SOL     OW  898   1.367   1.817   2.583  0.2743 -0.2686  0.1952
  300SOL    HW1  899   1.351   1.743   2.513 -0.1281 -0.2663 -4.6273
  300SOL    HW2  900   1.431   1.786   2.658  2.1741  0.3468 -0.4959
  301SOL     OW  901   0.390   0.308   0.384 -1.0102 -0.4224 -0.4656
  301SOL    HW1  902   0.292   0.280   0.360 -0.3091  0.6593  0.9111
  301SOL    HW2  903   0.460   0.233   0.365 -1.6194 -1.2935  1.5985
  302SOL     OW  904   1.249   2.413   2.307 -0.5669 -0.4806 -0.0290
  302SOL    HW1  905   1.151   2.390   2.337  0.6393 -3.0258 -2.3300
  302SOL    HW2  906   1.322   2.356   2.354  0.5471  1.0091  1.2876
  303SOL     OW  907   0.924   2.436   0.803 -0.4369 -0.1726 -0.3487
  303SOL    HW1  908   1.003   2.435   0.736  1.5128 -0.4942 -0.0230
  303SOL    HW2  909   0.949   2.496   0.883  0.0597  1.7471 -3.3154
  304SOL     OW  910   0.151   1.918   0.677  0.4961 -0.7593  0.0519
  304SOL    HW1  911   0.215   1.924   0.600 -0.5912 -0.4266  0.4886
  304SOL    HW2  912   0.061   1.968   0.647 -0.0617  1.1592 -0.9240
  305SOL     OW  913   1.661   0.856   0.696  0.2216 -0.5892 -0.0772
  305SOL    HW1  914   1.630   0.892   0.606 -1.5296 -0.2415  1.7861
  305SOL    HW2  915   1.700   0.758   0.694  2.5839 -1.0949  2.9942
  306SOL     OW  916   0.364   1.833   1.957  0.3331 -0.1156  0.2650
  306SOL    HW1  917   0.449   1.787   1.917 -0.4818  0.3489 -2.5342
  306SOL    HW2  918   0.391   1.881   2.047  2.3146  1.0040 -2.3996
  307SOL     OW  919   3.009   0.880   2.530  0.0030 -0.2038  0.5911
  307SOL    HW1  920   3.059   0.926   2.610 -0.1181  0.0010  0.8676
  307SOL    HW2  921   2.978   0.781   2.553  0.5185 -0.0733  3.0037
  308SOL     OW  922   1.447   2.708   2.824 -0.3422  0.0729 -0.1231
  308SOL    HW1  923   1.447   2.721   2.723  2.2610 -0.7096  3.0274
  308SOL    HW2  924   1.429   2.609   2.852  0.2629  0.0200  0.1996
  309SOL     OW  925   1.222   0.176   1.808 -0.2661 -0.0158  0.2052
  309SOL    HW1  926   1.289   0.096   1.810  0.3707 -1.0735 -0.5371
  309SOL    HW2  927   1.185   0.193   1.713 -1.6523  0.5628  0.0621
  310SOL     OW  928   1.491   2.483   0.663  0.3207 -0.0383 -0.0491
  310SOL    HW1  929   1.464   2.492   0.763  0.1758 -0.6609  1.4096
  310SOL    HW2  930   1.559   2.553   0.635 -2.1186 -1.6590  2.1269
  311SOL     OW  931   1.062   0.958   1.773  0.7533  0.0170  0.3704
  311SOL    HW1  932   1.029   0.863   1.801  0.1626 -0.5764 -0.7311
  311SOL    HW2  933   1.138   0.949   1.703  0.9318 -0.5098 -1.2537
  312SOL     OW  934   1.521   0.619   1.041 -0.2006  0.2120 -0.2736
  312SOL    HW1  935   1.537   0.719   1.039 -1.5705 -0.0851 -0.8571
  312SOL    HW2  936   1.493   0.587   0.946  0.9857  1.1309 -1.7363
  313SOL     OW  937   1.627   1.269   0.783  0.2314  0.4477 -0.2716
  313SOL    HW1  938   1.543   1.312   0.830  0.7671 -3.5568  1.2385
  313SOL    HW2  939   1.595   1.187   0.730 -0.6893  1.6081 -0.7965
  314SOL     OW  940   2.996   3.068   3.084  0.0309 -0.5057 -0.9106
  314SOL    HW1  941   3.023   3.074   3.183 -0.5004  0.7359 -1.9865
  314SOL    HW2  942   2.908   3.013   3.067 -0.1733  1.5835 -1.0237
  315SOL     OW  943   1.194   0.211   2.814  0.0416  0.2386 -0.0609
  315SOL    HW1  944   1.132   0.179   2.734  0.1554 -3.5163 -0.4326
  315SOL    HW2  945   1.189   0.146   2.892  2.2290 -1.0109 -0.7438
  316SOL     OW  946   1.789   2.080   0.886  0.2925  0.1208 -0.1067
  316SOL    HW1  947   1.739   2.074   0.983  0.6002 -0.7271 -0.2393
  316SOL    HW2  948   1.787   2.176   0.843 -1.6390  1.8600 -2.7930
  317SOL     OW  949   1.166   0.711   2.741 -0.0106  0.2514 -0.7985
  317SOL    HW1  950   1.099   0.729   2.817  1.8081  0.0485  1.1113
  317SOL    HW2  951   1.143   0.618   2.698 -1.4324 -0.8798  0.7123
  318SOL     OW  952   1.393   3.069   2.341 -0.6803 -0.1106 -0.1167
  318SOL    HW1  953   1.422   3.166   2.351  1.5052 -1.4470  1.0983
  318SOL    HW2  954   1.344   3.039   2.255 -1.0471 -0.3302 -0.7109
  319SOL     OW  955   0.637   2.387   3.030 -0.0801  0.1405 -0.1393
  319SOL    HW1  956   0.616   2.302   3.093 -2.7654 -0.5431 -1.6389
  319SOL    HW2  957   0.681   2.352   2.942 -0.1119  0.2711 -0.7628
  320SOL     OW  958   1.691   2.245   0.420  0.1426  0.4918  0.1943
  320SOL    HW1  959   1.758   2.168   0.390 -2.0351 -0.4915 -0.7523
  320SOL    HW2  960   1.592   2.216   0.449 -0.1877  3.4544  2.2643
  321SOL     OW  961   1.650   2.710   0.539 -0.1013 -0.5244 -0.3067
  321SOL    HW1  962   1.596   2.728   0.451 -0.7739  0.9164  0.8691
  321SOL    HW2  963   1.718   2.785   0.562 -0.4316  2.5046 -2.0860
  322SOL     OW  964   2.558   1.120   2.312 -0.2110 -0.2302  0.4766
  322SOL    HW1  965   2.619   1.074   2.385 -1.3763 -0.2598 -1.1911
  322SOL    HW2  966   2.499   1.056   2.256 -1.3641 -2.9246 -0.2838
  323SOL     OW  967   1.147   2.701   0.769  0.1420 -0.1941 -0.0799
  323SOL    HW1  968   1.112   2.632   0.704  3.8857  0.9566  1.8662
  323SOL    HW2  969   1.100   2.791   0.781 -1.7823  0.5782 -3.0803
  324SOL     OW  970   0.090   2.566   2.425 -0.6855  0.1448  0.4828
  324SOL    HW1  971   0.053   2.501   2.498 -1.5399  0.6253  1.3371
  324SOL    HW2  972   0.057   2.661   2.443 -2.4086 -0.4237 -2.6841
  325SOL     OW  973   1.309   3.042   0.452  0.3004  0.0024  0.2186
  325SOL    HW1  974   1.287   3.063   0.353  2.1625 -1.4642 -1.1007
  325SOL    HW2  975   1.354   3.116   0.511  0.8038 -1.5691  0.7454
  326SOL     OW  976   2.459   0.870   0.016 -0.5382  0.4788 -0.1978
  326SOL    HW1  977   2.361   0.880   0.053  0.8155 -1.7383  2.3208
  326SOL    HW2  978   2.507   0.786   0.054  0.8150  1.1711  0.9895
  327SOL     OW  979   2.863   0.278   0.531 -0.3460 -0.3362 -0.4395
  327SOL    HW1  980   2.863   0.226   0.439 -0.9218 -0.2510  0.8658
  327SOL    HW2  981   2.853   0.207   0.608  1.6111 -0.9346 -0.3821
  328SOL     OW  982   2.613   0.584   0.361  0.5155 -0.1606 -0.2029
  328SOL    HW1  983   2.619   0.638   0.451 -0.6494 -0.2318  0.3860
  328SOL    HW2  984   2.540   0.510   0.367  1.3960 -0.4016  0.9491
  329SOL     OW  985   2.914   3.035   2.241  0.1882  0.3303  0.0917
  329SOL    HW1  986   3.008   2.994   2.250 -1.3707  0.9028  0.3241
  329SOL    HW2  987   2.913   3.136   2.258 -0.6602  0.8062 -0.6740
  330SOL     OW  988   0.530   0.257   1.897 -0.0645  0.7778  0.1642
  330SOL    HW1  989   0.624   0.255   1.847  2.1204  0.3052 -1.0626
  330SOL    HW2  990   0.539   0.220   1.995 -0.6837  0.9943  1.3168
  331SOL     OW  991   0.006   1.888   1.109  0.0266  0.8709  0.0870
  331SOL    HW1  992  -0.013   1.948   1.026  2.8145 -0.8610 -2.0456
  331SOL    HW2  993  -0.074   1.877   1.175  0.7827  1.1824  2.1405
  332SOL     OW  994   0.366   1.185   0.079 -0.1931  0.0191  0.7609
  332SOL    HW1  995   0.320   1.112   0.023 -0.7238 -0.6500  1.7168
  332SOL    HW2  996   0.320   1.200   0.173  0.7197 -1.7822  1.6719
  333SOL     OW  997   2.915   0.933   0.358 -0.3313 -0.3551 -0.0587
  333SOL    HW1  998   2.967   1.014   0.408  4.5706  1.8900  3.2863
  333SOL    HW2  999   2.977   0.862   0.317  0.6498 -1.8986  3.9488
  334SOL     OW 1000   1.725   1.121   1.704 -0.0709  0.0098 -0.0866
  334SOL    HW1 1001   1.797   1.131   1.632 -0.2843  0.8890 -1.3633
  334SOL    HW2 1002   1.763   1.145   1.795  2.1508  1.1246 -2.3927
  335SOL     OW 1003   1.932   2.809   2.596  0.0123 -0.2360 -0.4602
  335SOL    HW1 1004   1.865   2.774   2.665  1.0659  0.1963 -2.0970
  335SOL    HW2 1005   2.022   2.838   2.640  0.7627  0.1086 -1.0641
  336SOL     OW 1006   0.252   0.070   2.757 -0.1195  0.2452  0.2832
  336SOL    HW1 1007   0.331   0.103   2.816  0.3933  1.1934  1.2451
  336SOL    HW2 1008   0.181   0.025   2.816 -0.9635 -2.0414  1.3148
  337SOL     OW 1009   0.880   2.864   3.024 -1.4319 -0.2831  0.0321
  337SOL    HW1 1010   0.878   2.779   3.092 -0.8015  0.7412 -1.0567
  337SOL    HW2 1011   0.925   2.952   3.059  3.5711  2.2566  1.5858
  338SOL     OW 1012   0.020   0.964   0.720 -0.0850  0.4004 -0.5004
  338SOL    HW1 1013  -0.077   0.938   0.747  0.6573 -0.7503 -2.8009
  338SOL    HW2 1014   0.035   1.065   0.717  0.4157 -0.7926  0.5756
  339SOL     OW 1015   1.769   1.315   2.177 -0.0937 -0.0929 -0.3905
  339SOL    HW1 1016   1.669   1.336   2.143 -0.2818  2.8508  0.1595
  339SOL    HW2 1017   1.815   1.404   2.213 -0.2847  1.7834 -0.4667
  340SOL     OW 1018   2.248   0.813   1.070  0.1014 -0.2341  0.2692
  340SOL    HW1 1019   2.155   0.836   1.100  1.7195 -2.2861 -1.1739
  340SOL    HW2 1020   2.248   0.712   1.042  0.6583 -3.6182  3.0622
  341SOL     OW 1021   1.905   2.089   0.365 -0.3836 -0.5131 -0.7986
  341SOL    HW1 1022   1.927   2.129   0.268 -1.8163  1.7154  0.5490
  341SOL    HW2 1023   1.986   2.033   0.406  1.1868 -1.1696 -2.0126
  342SOL     OW 1024   2.189   2.142   2.747 -0.2673  0.3544  0.7647
  342SOL    HW1 1025   2.264   2.099   2.808  0.1173  0.1233 -1.1571
  342SOL    HW2 1026   2.101   2.088   2.736  1.5335  2.0202 -0.7624
  343SOL     OW 1027   0.378   0.876   2.818  0.3069 -0.6820  0.6474
  343SOL    HW1 1028   0.373   0.933   2.732 -2.5964 -0.5717  0.5618
  343SOL    HW2 1029   0.477   0.869   2.847 -1.3245  0.8190 -1.0554
  344SOL     OW 1030   1.947   1.462   0.362  0.3737 -0.2825 -0.0880
  344SOL    HW1 1031   1.956   1.372   0.314 -0.7634 -2.2199  2.1366
  344SOL    HW2 1032   1.852   1.470   0.406  1.2281  0.3687  0.8838
  345SOL     OW 1033   1.360   2.192   2.853  0.7661 -0.2846 -0.1478
  345SOL    HW1 1034   1.262   2.181   2.817 -3.8592  1.5259 -0.6142
  345SOL    HW2 1035   1.433   2.142   2.799  2.0861  1.4469  0.0514
  346SOL     OW 1036   2.293   0.848   1.390  0.5400 -0.0942 -0.3250
  346SOL    HW1 1037   2.216   0.906   1.433 -0.8765 -0.1005 -1.7161
  346SOL    HW2 1038   2.284   0.847   1.284  0.7687 -0.2765 -1.0197
  347SOL     OW 1039   0.740   2.792   1.684  0.1668  0.3702  0.5822
  347SOL    HW1 1040   0.813   2.857   1.647 -1.2877  0.2531  0.6073
  347SOL    HW2 1041   0.655   2.795   1.622 -0.9161  0.8359 -3.2340
  348SOL     OW 1042   0.205   0.650   2.866  0.5300 -0.0113 -0.5583
  348SOL    HW1 1043   0.110   0.675   2.829 -0.3899 -0.2781 -2.7448
  348SOL    HW2 1044   0.282   0.697   2.818  1.9921 -1.8045 -0.4083
  349SOL     OW 1045   1.790   0.418   2.821  0.0088 -0.1599 -0.1391
  349SOL    HW1 1046   1.784   0.496   2.755 -0.9742 -0.5356  1.2770
  349SOL    HW2 1047   1.759   0.446   2.916  0.6436 -0.5205 -1.8360
  350SOL     OW 1048   1.682   0.384   0.378  0.3820  0.0556  0.2737
  350SOL    HW1 1049   1.773   0.374   0.431 -0.0928 -3.1178  3.7360
  350SOL    HW2 1050   1.634   0.478   0.375 -3.6778  2.0248 -1.2445
  351SOL     OW 1051   0.853   0.831   2.111  0.1380 -0.4275 -0.3676
  351SOL    HW1 1052   0.897   0.926   2.110 -0.0578 -1.0358  0.7787
  351SOL    HW2 1053   0.853   0.787   2.018 -3.8907 -1.1475 -3.3447
  352SOL     OW 1054   2.071   1.343   0.599 -0.3517  0.4633 -0.0796
  352SOL    HW1 1055   2.024   1.385   0.514 -0.5667  0.9809 -1.1807
  352SOL    HW2 1056   2.003   1.317   0.672  3.1010 -0.6653  1.1659
  353SOL     OW 1057   2.198   2.713   1.114 -0.6215  0.3011  0.1365
  353SOL    HW1 1058   2.267   2.638   1.131  0.4680  0.8554 -2.0868
  353SOL    HW2 1059   2.169   2.768   1.194 -0.6184 -0.2665  0.3624
  354SOL     OW 1060   0.221   1.442   2.897 -0.1183  0.5349  0.2097
  354SOL    HW1 1061   0.189   1.502   2.819 -0.4120 -0.5666  0.1633
  354SOL    HW2 1062   0.323   1.418   2.898 -0.0298  0.8625  2.2133
  355SOL     OW 1063   0.722   1.586   0.600  0.2948  0.5746  0.3276
  355SOL    HW1 1064   0.726   1.552   0.701  2.3925 -0.6294  2.5648
  355SOL    HW2 1065   0.681   1.518   0.530 -1.1829  0.3180 -1.7187
  356SOL     OW 1066   0.967   0.334   2.120  0.5806  0.2859 -0.3914
  356SOL    HW1 1067   1.039   0.257   2.109  1.2983 -3.4190  0.5607
  356SOL    HW2 1068   0.903   0.327   2.038 -1.0388 -0.4279  0.0996
  357SOL     OW 1069   0.984   1.394   0.165 -0.4401  0.6760  0.3592
  357SOL    HW1 1070   1.032   1.322   0.105  2.1696  1.0477 -0.6733
  357SOL    HW2 1071   1.051   1.464   0.204  1.6966  0.6584 -0.6139
  358SOL     OW 1072   1.681   1.468   0.491 -0.0236  0.0900 -0.3293
  358SOL    HW1 1073   1.648   1.408   0.569 -0.1797  2.1795  0.7387
  358SOL    HW2 1074   1.630   1.444   0.399  0.1742 -1.3333 -0.7039
  359SOL     OW 1075   1.616   2.580   0.213 -0.0687 -0.2117  0.0190
  359SOL    HW1 1076   1.615   2.496   0.152  0.4083 -0.3748  2.0316
  359SOL    HW2 1077   1.521   2.601   0.249 -0.7339 -1.8100 -0.4370
  360SOL     OW 1078   0.732   0.484   0.596 -0.6087  0.5951 -0.0236
  360SOL    HW1 1079   0.643   0.489   0.539  0.4699  1.5682  2.0648
  360SOL    HW2 1080   0.767   0.384   0.606  2.6106 -0.4389  2.2150
  361SOL     OW 1081   1.352   1.316   0.628 -0.2076  0.3926 -0.0996
  361SOL    HW1 1082   1.394   1.350   0.715 -0.5888 -1.3040 -2.5087
  361SOL    HW2 1083   1.265   1.367   0.597 -0.0543  2.2604 -0.9589
  362SOL     OW 1084   1.370   1.837   0.681  0.0323 -0.4518  0.0638
  362SOL    HW1 1085   1.405   1.765   0.747 -1.5776  0.4709  1.8307
  362SOL    HW2 1086   1.443   1.867   0.614 -1.1978  0.3231 -0.4269
  363SOL     OW 1087   1.294   1.355   1.991  0.0299 -0.0649 -0.8673
  363SOL    HW1 1088   1.388   1.373   2.030 -1.5881  0.3338  2.9171
  363SOL    HW2 1089   1.229   1.433   2.008 -2.4594 -1.2049  0.3694
  364SOL     OW 1090   0.558   2.370   1.963 -0.1230  0.0701 -0.2976
  364SOL    HW1 1091   0.457   2.343   1.963 -1.1066  2.0259  1.4902
  364SOL    HW2 1092   0.583   2.455   1.911  1.1201 -0.3941 -1.0872
  365SOL     OW 1093   0.927   1.976   1.436 -0.1146 -0.1252  0.5682
  365SOL    HW1 1094   0.830   1.997   1.466 -0.2750 -0.2820 -1.6231
  365SOL    HW2 1095   0.943   2.012   1.338 -2.4709  0.6628  0.0836
  366SOL     OW 1096   2.742   1.926   0.242  0.3776  0.7135  0.4205
  366SOL    HW1 1097   2.688   1.835   0.212 -1.1722 -1.6540 -0.9418
  366SOL    HW2 1098   2.844   1.906   0.259  1.5999 -0.2100  2.2246
  367SOL     OW 1099   0.928   1.120   3.047  0.8637 -0.2421 -0.7872
  367SOL    HW1 1100   0.903   1.060   3.132  0.0113 -2.0570 -0.0782
  367SOL    HW2 1101   1.010   1.179   3.064  0.1018 -0.2179  3.0346
  368SOL     OW 1102   1.454   0.551   0.514  0.0708 -0.3739 -0.1502
  368SOL    HW1 1103   1.354   0.566   0.527 -0.0575  1.7522 -0.9598
  368SOL    HW2 1104   1.497   0.608   0.436 -0.3646  1.3847 -2.9428
  369SOL     OW 1105   0.397   1.603   0.143 -0.6383  0.5474 -0.3550
  369SOL    HW1 1106   0.442   1.658   0.220  0.9663  2.5667  0.0147
  369SOL    HW2 1107   0.335   1.529   0.181  1.2993  1.8501 -0.8975
  370SOL     OW 1108   0.442   2.192   1.082 -0.0630 -0.4532 -0.3406
  370SOL    HW1 1109   0.485   2.283   1.053 -0.1837 -1.8725 -0.4057
  370SOL    HW2 1110   0.349   2.182   1.041 -0.7943  0.5730 -0.8025
  371SOL     OW 1111   2.902   2.197   2.740  0.1998 -0.7170 -0.5729
  371SOL    HW1 1112   2.989   2.136   2.724 -0.7329 -0.7570 -0.0467
  371SOL    HW2 1113   2.923   2.290   2.789  0.7534  1.3504 -1.4605
  372SOL     OW 1114   1.000   2.047   1.166 -0.2589  0.2852 -0.1598
  372SOL    HW1 1115   0.939   2.059   1.079  1.2972  0.9815 -1.4472
  372SOL    HW2 1116   1.057   2.131   1.177 -0.4337 -0.1665 -0.6830
  373SOL     OW 1117   1.946   1.917   1.042 -0.2307 -0.0865  0.2574
  373SOL    HW1 1118   2.047   1.941   1.047 -0.3628 -3.9838  1.2587
  373SOL    HW2 1119   1.889   1.991   1.001 -1.4116  0.2930  1.5035
  374SOL     OW 1120   1.913   0.397   0.560 -0.1872 -0.0491 -0.3724
  374SOL    HW1 1121   1.897   0.346   0.645  1.9380  1.1787 -3.1147
  374SOL    HW2 1122   2.016   0.408   0.537  2.5413 -1.5107  1.7071
  375SOL     OW 1123   2.425   2.186   1.134  0.0770  0.1136  0.4081
  375SOL    HW1 1124   2.455   2.222   1.042 -2.1557 -1.0734  1.5451
  375SOL    HW2 1125   2.489   2.119   1.171 -1.5438 -0.1002 -2.2490
  376SOL     OW 1126   3.102   0.629   1.442 -0.6983  0.0399  0.4932
  376SOL    HW1 1127   3.098   0.685   1.529  1.0852 -0.1424 -2.9561
  376SOL    HW2 1128   3.048   0.542   1.451  2.6480 -0.7200 -1.7125
  377SOL     OW 1129   2.206   2.926   0.192  0.6304  0.3680 -0.2995
  377SOL    HW1 1130   2.210   3.002   0.265 -2.0143 -2.4951  1.9642
  377SOL    HW2 1131   2.256   2.839   0.218  0.8155  1.1071 -1.1242
  378SOL     OW 1132   1.893   1.893   2.502 -0.1403  0.0183  0.4144
  378SOL    HW1 1133   1.994   1.873   2.483  1.8102  1.1445  1.2488
  378SOL    HW2 1134   1.833   1.807   2.510 -2.2353 -0.9927  1.8483
  379SOL     OW 1135   0.745   0.153   2.812  0.1952 -0.3143  0.2650
  379SOL    HW1 1136   0.799   0.067   2.797 -3.2131 -0.4804  2.1436
  379SOL    HW2 1137   0.748   0.233   2.748 -2.5772  1.7864  0.3158
  380SOL     OW 1138   1.534   1.131   0.512  0.1298 -0.3966  0.2456
  380SOL    HW1 1139   1.451   1.195   0.523 -0.1992 -1.3409  0.6185
  380SOL    HW2 1140   1.509   1.043   0.474 -1.7859 -0.0737  2.7646
  381SOL     OW 1141   1.254   1.304   1.515 -0.0549  0.1669 -0.2963
  381SOL    HW1 1142   1.318   1.246   1.463 -0.9840  1.0094 -0.6126
  381SOL    HW2 1143   1.302   1.344   1.601 -1.0807  1.9739 -0.8069
  382SOL     OW 1144   1.836   0.837   0.251 -0.2974 -0.0134 -0.3079
  382SOL    HW1 1145   1.859   0.803   0.158  0.8866 -2.3901  0.7779
  382SOL    HW2 1146   1.920   0.831   0.313 -1.2054  2.4917  1.3306
  383SOL     OW 1147   2.521   0.972   1.468 -0.8286 -0.2057 -0.2913
  383SOL    HW1 1148   2.439   0.919   1.458 -0.1378  1.6785  2.1983
  383SOL    HW2 1149   2.582   0.979   1.384 -1.8647  0.0103 -0.6101
  384SOL     OW 1150   0.945   2.286   0.249  0.2987  0.1460  0.0004
  384SOL    HW1 1151   0.867   2.355   0.261 -1.7338 -0.8459 -2.0961
  384SOL    HW2 1152   0.986   2.254   0.344 -0.3749  2.7474  2.6214
  385SOL     OW 1153   2.956   2.033   1.677 -0.4042 -0.2132  0.4765
  385SOL    HW1 1154   3.025   2.105   1.709 -0.0345 -0.6210  1.7695
  385SOL    HW2 1155   2.994   1.943   1.705  0.5609 -0.4309 -2.6443
  386SOL     OW 1156   0.474   1.063   0.458  0.1566  0.0848  0.2414
  386SOL    HW1 1157   0.451   0.972   0.495 -3.6660 -0.8731 -2.5542
  386SOL    HW2 1158   0.386   1.112   0.418 -2.9203  1.7714  0.1030
  387SOL     OW 1159   0.991   0.356   1.654 -0.5996 -0.3979 -0.0249
  387SOL    HW1 1160   1.012   0.459   1.649 -0.5794  1.0825  2.2434
  387SOL    HW2 1161   0.982   0.312   1.559  0.5028 -1.0853 -0.4021
  388SOL     OW 1162   1.214   2.699   1.740 -0.6216  0.3348  0.1394
  388SOL    HW1 1163   1.252   2.755   1.658  2.8684 -0.1951  0.7145
  388SOL    HW2 1164   1.286   2.638   1.785 -0.8018 -0.1722  0.5536
  389SOL     OW 1165   0.136   2.910   1.335 -0.4523 -0.0860 -0.1538
  389SOL    HW1 1166   0.032   2.899   1.319 -0.8802 -0.7020 -1.3214
  389SOL    HW2 1167   0.186   2.821   1.304  0.3924 -1.1159 -1.6360
  390SOL     OW 1168   1.019   0.946   1.388 -0.1467  0.4710  0.2424
  390SOL    HW1 1169   1.105   0.951   1.450 -0.1029  0.6333 -0.3797
  390SOL    HW2 1170   0.993   1.045   1.356  1.2248  1.0211 -2.7493
  391SOL     OW 1171   2.198   1.117   1.128 -0.0591  0.1847  0.5625
  391SOL    HW1 1172   2.143   1.031   1.159 -0.5490 -0.8810 -0.3228
  391SOL    HW2 1173   2.244   1.094   1.037 -1.4145  0.6308 -2.9781
  392SOL     OW 1174   0.883   2.639   0.083 -0.2372 -0.1084 -0.0465
  392SOL    HW1 1175   0.973   2.585   0.076  1.4882 -0.7886  0.4136
  392SOL    HW2 1176   0.808   2.587   0.130  1.8450 -1.0672 -2.9065
  393SOL     OW 1177   0.272   0.673   1.989 -0.1207  0.4166  0.1227
  393SOL    HW1 1178   0.243   0.574   1.994  1.9403  0.6185 -0.3474
  393SOL    HW2 1179   0.336   0.696   1.908  2.0818  1.0943 -1.2982
  394SOL     OW 1180   3.042   1.952   2.680  0.1684 -0.1381 -0.1327
  394SOL    HW1 1181   3.140   1.951   2.723  0.0442  0.2942 -0.8814
  394SOL    HW2 1182   3.038   1.900   2.593  2.5644  1.2722 -0.9375
  395SOL     OW 1183   1.609   1.949   0.616 -0.0591  0.2724  0.6961
  395SOL    HW1 1184   1.672   1.873   0.582  0.7126 -0.9159  1.4681
  395SOL    HW2 1185   1.651   1.995   0.698 -0.4398  3.5420 -1.4493
  396SOL     OW 1186   2.890   1.851   1.280  1.0662  0.9749 -0.6791
  396SOL    HW1 1187   2.928   1.757   1.265  0.3276 -0.0020 -0.2050
  396SOL    HW2 1188   2.785   1.853   1.273  1.4406 -0.9597  1.7115
  397SOL     OW 1189   1.027   2.221   0.490  0.5047 -0.3711 -0.1457
  397SOL    HW1 1190   0.922   2.206   0.504  0.4919  2.9673 -1.3329
  397SOL    HW2 1191   1.064   2.308   0.531  0.1320  0.0713  0.2124
  398SOL     OW 1192   2.142   3.056   1.117  0.1426 -0.0898  0.5665
  398SOL    HW1 1193   2.052   3.000   1.129  1.8396 -1.5908 -1.2261
  398SOL    HW2 1194   2.131   3.156   1.094 -2.1176  0.0054 -0.9852
  399SOL     OW 1195   3.038   2.456   2.645  0.3694  0.2344  0.5263
  399SOL    HW1 1196   2.940   2.476   2.626  3.3853 -0.1737  0.1647
  399SOL    HW2 1197   3.061   2.354   2.651 -0.0646 -1.5163 -0.1724
  400SOL     OW 1198   0.680   1.661   1.369 -0.2127  0.2313  0.2649
  400SOL    HW1 1199   0.643   1.699   1.460  0.1059  1.8071 -1.6137
  400SOL    HW2 1200   0.646   1.722   1.290 -0.2825 -1.6903 -2.9124
  401SOL     OW 1201   1.835   0.268   1.157 -0.3884  0.5718 -0.3917
  401SOL    HW1 1202   1.855   0.250   1.258  0.6580 -1.8875  0.0898
  401SOL    HW2 1203   1.752   0.322   1.134  1.0708  0.2346 -2.4986
  402SOL     OW 1204   1.343   0.248   3.079 -0.1992  0.3229 -0.1939
  402SOL    HW1 1205   1.420   0.210   3.018 -0.1753  1.3008  0.2575
  402SOL    HW2 1206   1.287   0.318   3.025 -2.6520  0.4484  1.5646
  403SOL     OW 1207   2.229   1.825   0.858 -0.4778  0.3525 -0.9905
  403SOL    HW1 1208   2.325   1.846   0.842 -4.5787  0.3082  2.1992
  403SOL    HW2 1209   2.195   1.888   0.930 -0.4363  0.1286 -2.4950
  404SOL     OW 1210   0.235   2.473   2.747  0.6483  0.0290 -0.1201
  404SOL    HW1 1211   0.324   2.447   2.703 -0.8218  0.6724 -1.9885
  404SOL    HW2 1212   0.239   2.570   2.784  0.1014 -2.2106  3.8339
  405SOL     OW 1213   0.089   2.395   0.756 -0.0581 -0.5533 -0.0639
  405SOL    HW1 1214   0.077   2.338   0.673 -0.1833 -2.0951 -0.0586
  405SOL    HW2 1215   0.170   2.453   0.737  2.0008 -1.8783 -0.1324
  406SOL     OW 1216   0.067   1.543   3.094 -0.0816 -0.2373 -0.1814
  406SOL    HW1 1217   0.125   1.477   3.040 -0.8090 -3.3636  1.1769
  406SOL    HW2 1218   0.083   1.526   3.197  0.4983 -1.6796  0.4563
  407SOL     OW 1219   1.583   0.898   0.964  0.6511 -0.2012  0.3761
  407SOL    HW1 1220   1.610   0.908   0.864 -2.6711  0.7548 -1.7296
  407SOL    HW2 1221   1.498   0.960   0.988  1.8207  1.3952  0.7152
  408SOL     OW 1222   1.542   2.412   0.960 -0.6377 -0.0464 -0.0158
  408SOL    HW1 1223   1.619   2.384   0.896  0.2442  0.5656 -3.2701
  408SOL    HW2 1224   1.511   2.513   0.950 -1.5214 -1.0146 -0.0939
  409SOL     OW 1225   0.650   0.845   0.756 -0.8673  0.1734 -0.1102
  409SOL    HW1 1226   0.576   0.829   0.687 -1.3575  1.3324 -1.3883
  409SOL    HW2 1227   0.634   0.783   0.840  0.5322 -0.2174  1.2667
  410SOL     OW 1228   1.264   2.025   1.392  0.0224 -0.3305  0.0229
  410SOL    HW1 1229   1.335   1.977   1.451  0.4946  1.3675 -2.1120
  410SOL    HW2 1230   1.198   1.954   1.358 -1.6540 -1.1914 -2.3117
  411SOL     OW 1231   2.515   1.829   2.998  0.8063  0.0308  0.8864
  411SOL    HW1 1232   2.550   1.924   3.015 -0.9775 -0.1906  0.5546
  411SOL    HW2 1233   2.459   1.823   2.909 -0.2974  2.1634  0.8147
  412SOL     OW 1234   1.474   2.459   2.141 -0.0192  0.1353  0.0866
  412SOL    HW1 1235   1.552   2.452   2.209  0.2272  2.8230  0.3446
  412SOL    HW2 1236   1.387   2.430   2.188 -0.9342  0.0091 -0.2024
  413SOL     OW 1237  -0.003   0.212   2.969 -0.3118  0.2472  0.3531
  413SOL    HW1 1238  -0.036   0.124   3.017  1.1889  1.6598 -0.0587
  413SOL    HW2 1239   0.101   0.224   2.974 -1.2149  1.9622  1.6611
  414SOL     OW 1240   1.755   1.482   1.182 -0.0976 -0.3416 -0.7312
  414SOL    HW1 1241   1.765   1.583   1.208  2.4385  1.4490 -0.4574
  414SOL    HW2 1242   1.757   1.462   1.078  1.8217  1.1100 -0.1087
  415SOL     OW 1243   0.305   2.194   0.707  0.2667 -0.4764 -0.7958
  415SOL    HW1 1244   0.253   2.160   0.791 -3.0497  0.2281  2.3398
  415SOL    HW2 1245   0.237   2.213   0.636 -2.5292  1.2131  0.6777
  416SOL     OW 1246   0.371   1.087   1.060  0.4789  0.6094  0.1200
  416SOL    HW1 1247   0.301   1.024   1.017  1.3385  0.9369  1.3088
  416SOL    HW2 1248   0.470   1.071   1.036  0.6179  3.2262  1.0252
  417SOL     OW 1249   2.345   2.454   2.084  0.4969 -0.1375  0.9851
  417SOL    HW1 1250   2.346   2.351   2.076 -1.7379  1.7666 -0.2817
  417SOL    HW2 1251   2.260   2.477   2.142 -0.1797 -0.9026 -0.7319
  418SOL     OW 1252   1.037   0.483   1.345 -0.8830  0.0769 -0.1444
  418SOL    HW1 1253   0.944   0.454   1.323 -0.0224 -1.5472  1.6613
  418SOL    HW2 1254   1.098   0.525   1.272  1.8080 -1.5481 -0.3807
  419SOL     OW 1255   0.940   0.527   2.974 -0.2073  0.7820  0.0820
  419SOL    HW1 1256   0.839   0.507   2.944  0.6165  0.5058 -0.8381
  419SOL    HW2 1257   0.958   0.630   2.985  4.5679 -0.1050  1.5774
  420SOL     OW 1258   0.124   2.215   0.500 -0.0039  0.1723  0.0896
  420SOL    HW1 1259   0.190   2.209   0.422  0.2836  0.8721  1.6490
  420SOL    HW2 1260   0.046   2.156   0.473  1.9961  2.1254 -0.5753
  421SOL     OW 1261   0.332   2.955   0.563  0.1324  0.8447 -0.3240
  421SOL    HW1 1262   0.305   2.912   0.653  0.9898  0.7064 -0.3601
  421SOL    HW2 1263   0.407   3.026   0.574  0.2669  2.1972 -1.9090
  422SOL     OW 1264   1.017   2.617   1.037  0.4942 -0.3112 -0.2996
  422SOL    HW1 1265   1.067   2.676   0.970 -3.4230 -1.2747  0.3524
  422SOL    HW2 1266   1.067   2.590   1.121  1.4932 -1.7231  0.2199
  423SOL     OW 1267   0.128   0.744   1.227  0.3805 -0.2683  0.2956
  423SOL    HW1 1268   0.084   0.698   1.308 -0.4548 -1.1052 -1.7270
  423SOL    HW2 1269   0.080   0.832   1.209 -1.9408 -0.6326  0.2802
  424SOL     OW 1270   1.186   2.227   2.035 -0.1649  0.3263  0.4606
  424SOL    HW1 1271   1.179   2.331   2.040  0.5323 -0.3123 -1.4002
  424SOL    HW2 1272   1.153   2.172   2.117  0.0797  0.3256 -0.7091
  425SOL     OW 1273   2.011   1.311   0.969 -0.2207  0.3327  0.0490
  425SOL    HW1 1274   2.101   1.314   1.027  0.8702 -2.3881  0.5363
  425SOL    HW2 1275   1.993   1.408   0.933 -0.1517  0.1513  0.9923
  426SOL     OW 1276   1.424   1.609   1.222 -0.2300 -0.3356 -0.3972
  426SOL    HW1 1277   1.465   1.694   1.172  1.5557  2.8189 -2.6716
  426SOL    HW2 1278   1.378   1.623   1.315  1.6021 -1.1116 -0.8416
  427SOL     OW 1279   1.938   2.340   2.072  0.1744  0.0886 -0.1206
  427SOL    HW1 1280   1.965   2.270   2.146  2.1149  0.1163  1.6591
  427SOL    HW2 1281   1.954   2.435   2.103  0.6049 -2.7786 -1.3632
  428SOL     OW 1282   0.874   0.018   0.111  0.3315  0.0506  0.3394
  428SOL    HW1 1283   0.905   0.108   0.068  4.4995 -0.7345  0.0020
  428SOL    HW2 1284   0.960  -0.043   0.130  2.6037 -0.6070 -1.1131
  429SOL     OW 1285   1.295   0.167   0.256  0.6697 -0.0658  0.1356
  429SOL    HW1 1286   1.393   0.151   0.285  1.4875  1.0363  0.4787
  429SOL    HW2 1287   1.290   0.190   0.152 -0.8759  1.4248 -1.4358
  430SOL     OW 1288   2.907   1.411   0.308 -0.1832  0.8240  0.2027
  430SOL    HW1 1289   2.909   1.472   0.223  1.1768 -2.8009 -1.6889
  430SOL    HW2 1290   2.894   1.469   0.399  1.1641 -2.6070 -1.2071
  431SOL     OW 1291   2.062   1.579   0.931 -0.1212 -0.4611  0.0460
  431SOL    HW1 1292   2.113   1.640   0.999  0.3346  0.4250 -0.7861
  431SOL    HW2 1293   1.989   1.633   0.879  0.5430 -0.9899 -1.6411
  432SOL     OW 1294   2.932   2.143   1.224 -0.4100 -0.0332  0.3363
  432SOL    HW1 1295   2.923   2.051   1.272 -1.2818 -0.7857  1.4919
  432SOL    HW2 1296   2.951   2.225   1.284  0.5592 -0.8855 -0.7405
  433SOL     OW 1297   1.852   0.185   0.813  0.4255 -0.2478  0.6980
  433SOL    HW1 1298   1.769   0.208   0.867 -1.4413  3.2897 -0.3017
  433SOL    HW2 1299   1.908   0.105   0.847 -1.6534  1.5297 -1.9339
  434SOL     OW 1300   1.557   0.325   0.660 -0.4776 -0.0045 -0.1366
  434SOL    HW1 1301   1.531   0.369   0.573 -1.2697 -0.1197 -1.0268
  434SOL    HW2 1302   1.609   0.388   0.719 -1.5506 -2.9009  0.5892
  435SOL     OW 1303   1.544   1.426   2.066 -0.5996 -0.4376  0.3928
  435SOL    HW1 1304   1.568   1.479   2.154  1.4882  0.5841 -0.5684
  435SOL    HW2 1305   1.519   1.494   1.995  0.0538  0.6042  0.4055
  436SOL     OW 1306   1.701   2.724   2.259 -0.1354  0.6285  0.2360
  436SOL    HW1 1307   1.652   2.779   2.329  0.8090 -1.8365 -1.3087
  436SOL    HW2 1308   1.685   2.620   2.264 -0.0167 -1.4653 -2.3040
  437SOL     OW 1309   1.083   2.958   0.907  0.2261  0.4020  0.0273
  437SOL    HW1 1310   1.009   3.037   0.908 -0.6603  1.0689  1.7613
  437SOL    HW2 1311   1.112   2.922   1.000  0.0261  0.9175  1.4017
  438SOL     OW 1312   0.995   2.669   1.437 -0.0482  0.1162  0.4322
  438SOL    HW1 1313   1.092   2.693   1.467 -1.4878  1.1318  1.1319
  438SOL    HW2 1314   1.001   2.568   1.422  3.1509 -0.8393  0.8826
  439SOL     OW 1315   0.678   1.844   1.069  0.3948  0.5100 -0.0977
  439SOL    HW1 1316   0.659   1.934   1.019 -1.0978 -1.0818 -0.9835
  439SOL    HW2 1317   0.591   1.797   1.101  1.1181  0.7075  0.7748
  440SOL     OW 1318   1.093   2.475   1.972  0.6207 -0.1220  0.4401
  440SOL    HW1 1319   1.032   2.529   1.906  1.2422 -2.9036 -1.2826
  440SOL    HW2 1320   1.194   2.492   1.952 -1.4968  0.7614  0.7866
  441SOL     OW 1321   0.393   2.676   1.558 -0.3079 -0.4123  0.0829
  441SOL    HW1 1322   0.476   2.625   1.528 -1.9327 -1.9087  0.9369
  441SOL    HW2 1323   0.314   2.658   1.489 -2.0796 -0.6884  0.4385
  442SOL     OW 1324   2.263   0.700   2.547 -0.1721 -0.2448  0.2015
  442SOL    HW1 1325   2.285   0.601   2.576  0.9548  1.1551  0.3229
  442SOL    HW2 1326   2.164   0.728   2.563  1.2805 -1.9317  1.2571
  443SOL     OW 1327   1.199   2.698   2.204  0.4759 -0.6508 -0.0323
  443SOL    HW1 1328   1.190   2.762   2.286 -0.2778 -1.9264 -0.0773
  443SOL    HW2 1329   1.182   2.597   2.234 -2.3857 -0.6968 -0.8451
  444SOL     OW 1330   1.003   1.336   1.575  0.0124  0.5966 -0.6227
  444SOL    HW1 1331   1.102   1.314   1.548 -1.0348  0.1891  0.1333
  444SOL    HW2 1332   0.978   1.436   1.562  0.5019  1.1745 -0.1455
  445SOL     OW 1333   3.065   2.383   1.974 -0.2103 -0.2855 -0.1568
  445SOL    HW1 1334   3.073   2.474   1.917  0.4753 -1.2425 -2.6170
  445SOL    HW2 1335   2.968   2.343   1.985  0.1142 -1.9431 -2.0552
  446SOL     OW 1336   0.207   1.911   2.349 -0.5379 -0.4946  0.3913
  446SOL    HW1 1337   0.163   1.990   2.404  2.0368 -0.4230  0.0258
  446SOL    HW2 1338   0.131   1.865   2.298  0.8067  3.8489 -2.0122
  447SOL     OW 1339   1.195   1.654   1.950  0.7080 -0.1800 -0.0570
  447SOL    HW1 1340   1.155   1.748   1.940 -2.0749 -0.6644  0.1381
  447SOL    HW2 1341   1.298   1.653   1.934 -0.0874 -1.0434  0.8810
  448SOL     OW 1342   0.112   1.487   1.954  0.1853  0.6290 -0.0401
  448SOL    HW1 1343   0.112   1.587   1.930  0.7513  2.9036 -0.4051
  448SOL    HW2 1344   0.119   1.467   2.057 -1.2861 -0.6047 -0.1926
  449SOL     OW 1345   1.992   3.023   0.859  0.1780  0.3915 -0.1431
  449SOL    HW1 1346   2.064   3.029   0.928 -0.6961 -2.6938 -1.2613
  449SOL    HW2 1347   1.975   2.920   0.844 -0.7786 -0.2538  1.4195
  450SOL     OW 1348   2.280   1.371   0.885  0.1616 -0.0448  0.2898
  450SOL    HW1 1349   2.229   1.286   0.848 -1.0084  1.8635  0.9619
  450SOL    HW2 1350   2.209   1.448   0.879 -1.0050  0.6560 -1.6642
  451SOL     OW 1351   1.426   0.022   1.448 -0.1787 -0.1921  0.0409
  451SOL    HW1 1352   1.358   0.098   1.468 -0.4029 -0.2122 -1.3390
  451SOL    HW2 1353   1.460  -0.027   1.533 -0.6046  1.1733 -0.8197
  452SOL     OW 1354   2.643   2.292   2.253 -0.4362 -0.5088 -0.1564
  452SOL    HW1 1355   2.610   2.387   2.267  0.8064  1.2337 -2.0931
  452SOL    HW2 1356   2.686   2.254   2.339 -1.6786  2.9380 -2.1210
  453SOL     OW 1357   2.438   2.593   3.045 -0.0672 -0.0275 -0.0483
  453SOL    HW1 1358   2.366   2.661   3.078  1.1594 -1.4601  1.9979
  453SOL    HW2 1359   2.403   2.545   2.959  0.4825  0.5243 -1.3428
  454SOL     OW 1360   0.959   1.081   2.076  0.0139 -0.0328 -0.1361
  454SOL    HW1 1361   0.963   1.134   1.987  4.0447 -1.8411 -0.1525
  454SOL    HW2 1362   1.053   1.071   2.114  1.3790  2.8389  0.1160
  455SOL     OW 1363   0.707   2.628   2.913 -0.2451  0.5489  0.0297
  455SOL    HW1 1364   0.768   2.703   2.952 -0.8207 -2.1212  0.2119
  455SOL    HW2 1365   0.688   2.549   2.979 -0.0122 -2.2270  0.6724
  456SOL     OW 1366   0.563   1.794   0.291  0.2413  0.0609  0.2777
  456SOL    HW1 1367   0.659   1.783   0.258 -1.0027  1.1061  1.0991
  456SOL    HW2 1368   0.534   1.899   0.293  0.4747  2.6570 -2.9485
  457SOL     OW 1369   0.336   2.575   0.678  0.1242 -0.6923 -0.5845
  457SOL    HW1 1370   0.327   2.616   0.579 -0.9313 -1.6414 -3.3008
  457SOL    HW2 1371   0.433   2.547   0.699  0.4218 -0.0885  2.9044
  458SOL     OW 1372   2.965   2.936   1.249  0.1008  0.0323  0.9115
  458SOL    HW1 1373   3.045   2.999   1.221  0.9109  1.3668  0.2142
  458SOL    HW2 1374   2.944   2.860   1.179  1.6720 -3.7792  0.8846
  459SOL     OW 1375   2.093   2.538   0.920  0.6850 -0.1901 -0.2128
  459SOL    HW1 1376   2.109   2.592   1.006  1.5596  1.0825  1.4560
  459SOL    HW2 1377   2.186   2.515   0.874  0.1433  0.2791 -3.0340
  460SOL     OW 1378   1.066   1.916   2.906 -0.0734 -0.3758  0.7122
  460SOL    HW1 1379   1.081   2.014   2.865  0.7933  0.7236 -1.9965
  460SOL    HW2 1380   1.147   1.881   2.961  1.5293  0.8802  0.2632
  461SOL     OW 1381   0.521   2.114   2.703  0.2440 -0.0200  0.3559
  461SOL    HW1 1382   0.446   2.044   2.691  0.1432  0.5286 -0.7612
  461SOL    HW2 1383   0.589   2.079   2.770  1.9119 -1.6295 -2.0037
  462SOL     OW 1384   0.957   1.213   1.823  0.0966 -0.2687 -0.4749
  462SOL    HW1 1385   0.985   1.111   1.798 -1.3694  1.9304 -0.2510
  462SOL    HW2 1386   0.977   1.280   1.746  2.1898  2.7607  0.9831
  463SOL     OW 1387   0.450   0.807   0.551  0.0207  0.7072 -0.0142
  463SOL    HW1 1388   0.471   0.712   0.507  0.8046 -1.9513  0.3152
  463SOL    HW2 1389   0.347   0.825   0.556  0.4444 -2.3303 -2.3667
  464SOL     OW 1390   0.497   2.254   2.214 -0.3732 -0.0212  0.1991
  464SOL    HW1 1391   0.432   2.302   2.279  0.2227  0.4165 -0.9462
  464SOL    HW2 1392   0.512   2.315   2.133  1.1827  0.8140  0.2809
  465SOL     OW 1393   0.235   0.875   0.880  0.6072 -0.4447  0.3489
  465SOL    HW1 1394   0.161   0.904   0.811  0.3437  1.9988 -1.8355
  465SOL    HW2 1395   0.230   0.769   0.886  1.6436 -1.9192 -0.2151
  466SOL     OW 1396   1.376   1.074   1.042  0.1127 -0.2686 -0.0686
  466SOL    HW1 1397   1.445   1.151   1.064  1.0382 -2.1598  0.4208
  466SOL    HW2 1398   1.281   1.111   1.017 -1.2442  0.3846 -1.1050
  467SOL     OW 1399   0.440   0.392   2.405 -0.1914  0.1509  0.4662
  467SOL    HW1 1400   0.411   0.486   2.449  3.5907  2.0994  1.4481
  467SOL    HW2 1401   0.457   0.319   2.480 -0.9133  0.1647  1.4454
  468SOL     OW 1402   0.497   2.247   1.692  0.1526 -0.0367  0.2222
  468SOL    HW1 1403   0.526   2.312   1.767  3.9686  0.6191 -0.5603
  468SOL    HW2 1404   0.451   2.289   1.607  0.2017  0.9313 -0.6459
  469SOL     OW 1405   1.548   1.268   1.100 -0.0465 -0.6455 -0.2377
  469SOL    HW1 1406   1.640   1.220   1.101  0.2716  1.0105  0.0379
  469SOL    HW2 1407   1.551   1.337   1.181 -0.9241 -1.1522 -0.5237
  470SOL     OW 1408   3.042   1.650   0.725 -0.4151 -0.0407 -0.4851
  470SOL    HW1 1409   3.137   1.666   0.777  0.6629 -1.0382 -3.2852
  470SOL    HW2 1410   2.962   1.691   0.779 -1.0607 -2.0807 -0.4229
  471SOL     OW 1411   2.686   1.299   2.146 -0.2857  0.1490 -0.0855
  471SOL    HW1 1412   2.658   1.244   2.229 -0.2271 -0.4758  0.1722
  471SOL    HW2 1413   2.728   1.388   2.169  1.0892 -0.7992  1.7105
  472SOL     OW 1414   1.104   2.469   0.014  0.3253  0.0400  0.5695
  472SOL    HW1 1415   1.181   2.457   0.085  0.3914 -1.5816  0.3343
  472SOL    HW2 1416   1.073   2.378  -0.022  0.4434  0.6150  2.6460
  473SOL     OW 1417   1.063   1.588   0.854 -0.4905  0.1660 -0.7001
  473SOL    HW1 1418   0.970   1.597   0.900  0.3982  0.6042 -0.1618
  473SOL    HW2 1419   1.133   1.552   0.929 -0.3682  0.3942  1.1336
  474SOL     OW 1420   0.804   1.213   0.734 -0.0276 -0.0315  0.6101
  474SOL    HW1 1421   0.749   1.206   0.647  0.0726  0.7014  2.6791
  474SOL    HW2 1422   0.852   1.125   0.763  1.9934  0.9412 -0.0569
  475SOL     OW 1423   2.869   0.093   0.747  0.3898 -0.3811  0.3012
  475SOL    HW1 1424   2.955   0.090   0.807  0.5765  2.2231  1.4816
  475SOL    HW2 1425   2.778   0.112   0.803 -1.7059  1.5707  4.2630
  476SOL     OW 1426   0.872   3.068   1.827 -0.0983 -0.5921  0.2533
  476SOL    HW1 1427   0.950   3.043   1.888  0.7729 -1.4117 -1.0142
  476SOL    HW2 1428   0.881   3.033   1.730 -0.8962  0.3771  0.6798
  477SOL     OW 1429   1.443   0.342   2.421 -0.0468  0.7961  0.1750
  477SOL    HW1 1430   1.421   0.378   2.515 -0.2537  0.8192 -0.0172
  477SOL    HW2 1431   1.538   0.296   2.414  0.8560 -1.7879 -0.0646
  478SOL     OW 1432   2.288   1.819   0.241 -0.8961 -0.0753  0.4393
  478SOL    HW1 1433   2.219   1.741   0.221  1.1859 -1.1078  1.3732
  478SOL    HW2 1434   2.387   1.787   0.213  0.9741 -0.7971  3.2722
  479SOL     OW 1435   1.244   1.100   2.864 -0.3159 -0.3527 -1.4010
  479SOL    HW1 1436   1.319   1.042   2.828 -2.4987  1.0453  2.1752
  479SOL    HW2 1437   1.151   1.074   2.829 -0.0082 -0.0100 -1.6344
  480SOL     OW 1438   2.455   2.342   0.378  0.0178 -0.0886 -0.3212
  480SOL    HW1 1439   2.447   2.254   0.435  1.6552  1.1711  0.4735
  480SOL    HW2 1440   2.402   2.342   0.292 -0.1047  0.9169  0.4212
  481SOL     OW 1441   1.112   1.182   0.811 -0.6035  0.4360  0.1005
  481SOL    HW1 1442   1.103   1.279   0.775  0.5674  0.9130  2.1389
  481SOL    HW2 1443   1.116   1.188   0.917 -0.5951 -0.1717  0.7489
  482SOL     OW 1444   1.618   0.301   2.027  0.1757  0.2743 -0.1926
  482SOL    HW1 1445   1.616   0.392   1.971  1.9560 -1.6340  0.5941
  482SOL    HW2 1446   1.709   0.285   2.069 -1.4248  0.6132  2.4389
  483SOL     OW 1447   0.143   2.353   1.312 -0.0612 -0.0052  0.2178
  483SOL    HW1 1448   0.041   2.378   1.324 -1.3806  2.2634  0.4501
  483SOL    HW2 1449   0.181   2.369   1.213 -0.3513  0.4430  0.1799
  484SOL     OW 1450   1.724   0.981   1.377 -0.0375 -0.2585 -0.0413
  484SOL    HW1 1451   1.817   0.944   1.394 -0.2756  0.0993  1.9977
  484SOL    HW2 1452   1.725   1.082   1.386  0.2696  0.5232 -1.2778
  485SOL     OW 1453   0.694   1.116   1.772  0.2333 -0.1296  0.0315
  485SOL    HW1 1454   0.706   1.080   1.677 -1.0555  0.2186 -0.5668
  485SOL    HW2 1455   0.780   1.168   1.802 -2.3850 -1.3567 -1.6109
  486SOL     OW 1456   0.894   1.913   2.452 -0.4824 -0.2449 -0.4168
  486SOL    HW1 1457   0.966   1.897   2.528 -1.9752 -1.0441 -0.5916
  486SOL    HW2 1458   0.817   1.974   2.489  2.4648  0.8385 -0.9492
  487SOL     OW 1459   1.746   1.498   0.899 -0.2711  0.2594  0.0469
  487SOL    HW1 1460   1.691   1.423   0.856  2.0295  2.0573 -2.2142
  487SOL    HW2 1461   1.781   1.556   0.823  0.5496 -3.6582  0.6775
  488SOL     OW 1462   2.955   0.973   2.289 -0.3014  0.3418  0.0410
  488SOL    HW1 1463   2.993   0.893   2.229 -0.6339  0.4173  0.5162
  488SOL    HW2 1464   2.958   0.956   2.390 -1.0884 -0.2049  0.7614
  489SOL     OW 1465   2.806   0.220   1.308  0.1211 -0.6131  0.1089
  489SOL    HW1 1466   2.765   0.186   1.398 -0.4662  2.6690  0.1426
  489SOL    HW2 1467   2.896   0.178   1.287  2.1824  0.3904 -0.1001
  490SOL     OW 1468   1.419   2.963   2.861  0.1998  0.0714 -0.5155
  490SOL    HW1 1469   1.422   2.860   2.879  0.0453  3.4989  0.1107
  490SOL    HW2 1470   1.390   2.993   2.764  1.0990 -1.4071  1.6379
  491SOL     OW 1471   1.905   1.557   2.677  0.4240 -0.1922 -0.0917
  491SOL    HW1 1472   1.833   1.616   2.726 -3.2349 -2.0005 -2.1672
  491SOL    HW2 1473   1.972   1.517   2.743  3.8273 -1.3819 -1.6195
  492SOL     OW 1474   0.470   1.954   0.741  0.2335 -0.1770 -0.0340
  492SOL    HW1 1475   0.539   1.994   0.813 -0.1688 -2.0864  1.2069
  492SOL    HW2 1476   0.424   2.030   0.689  2.0965  0.6916  0.4481
  493SOL     OW 1477   0.425   1.394   2.118  0.2079 -0.5206  0.1253
  493SOL    HW1 1478   0.328   1.426   2.117  1.5025  0.7656  0.6590
  493SOL    HW2 1479   0.443   1.320   2.190 -1.5308 -0.6988 -0.2361
  494SOL     OW 1480   2.633   2.659   0.161 -0.2339  0.0857  0.8031
  494SOL    HW1 1481   2.676   2.598   0.231  0.4587  1.9814 -0.9056
  494SOL    HW2 1482   2.612   2.607   0.073  0.7109  0.6769 -0.1418
  495SOL     OW 1483   2.766   2.692   2.688  0.3486  0.1891  0.2090
  495SOL    HW1 1484   2.780   2.600   2.638  1.6633  2.3964  0.4286
  495SOL    HW2 1485   2.771   2.770   2.618  1.3027  1.3065 -2.1125
  496SOL     OW 1486   2.077   2.186   0.722 -0.7383 -0.3547 -0.4646
  496SOL    HW1 1487   2.077   2.210   0.824 -0.3768 -0.1769  4.5588
  496SOL    HW2 1488   2.020   2.108   0.707  0.0207  1.4694 -2.6880
  497SOL     OW 1489   0.241   2.966   2.421  0.0414  0.1221  0.0066
  497SOL    HW1 1490   0.189   3.007   2.504 -0.5356 -2.1161 -1.5819
  497SOL    HW2 1491   0.259   3.032   2.340 -0.9278  0.8742  1.0112
  498SOL     OW 1492   1.202   1.487   1.108  0.6737  0.4108 -0.3226
  498SOL    HW1 1493   1.299   1.512   1.137  0.4734  0.2724 -3.9428
  498SOL    HW2 1494   1.126   1.525   1.174 -2.2895 -1.1704  3.9483
  499SOL     OW 1495   0.858   1.840   0.522 -0.1789  0.5824 -0.5815
  499SOL    HW1 1496   0.808   1.752   0.552 -0.4650  0.0830  0.4135
  499SOL    HW2 1497   0.848   1.919   0.594  0.2969  0.3108  1.7635
  500SOL     OW 1498   1.427   2.989   1.688  0.5726  0.1965 -1.2553
  500SOL    HW1 1499   1.457   3.025   1.781  0.4974  0.2017  0.6466
  500SOL    HW2 1500   1.454   2.889   1.672 -0.7899  0.1261  1.4577
  501SOL     OW 1501   0.729   1.139   2.283  0.1494 -0.1296  0.4918
  501SOL    HW1 1502   0.647   1.072   2.297 -2.2747 -3.3626  0.0361
  501SOL    HW2 1503   0.773   1.128   2.190  0.4221  0.7090  0.7431
  502SOL     OW 1504   2.617   0.968   1.720 -0.1324 -0.4033 -0.0235
  502SOL    HW1 1505   2.577   0.974   1.621  0.9695  0.7259  1.1288
  502SOL    HW2 1506   2.591   0.870   1.758 -2.5509  0.0974  0.7534
  503SOL     OW 1507   1.340   0.172   0.622  0.0106 -0.6222  0.2434
  503SOL    HW1 1508   1.261   0.235   0.598 -0.4338  0.3457  2.2052
  503SOL    HW2 1509   1.424   0.221   0.657  0.8695  2.2645 -1.2125
  504SOL     OW 1510   2.965   2.385   1.405  0.3619  0.0673 -0.1539
  504SOL    HW1 1511   3.002   2.455   1.479 -2.9802 -1.0012 -0.6311
  504SOL    HW2 1512   2.894   2.320   1.447  0.9337 -3.4800  1.5311
  505SOL     OW 1513   2.312   1.239   1.432  0.3217 -0.1577 -0.1851
  505SOL    HW1 1514   2.279   1.324   1.378 -1.6644  3.6482 -0.0515
  505SOL    HW2 1515   2.389   1.267   1.495  1.1149 -0.8290 -0.6956
  506SOL     OW 1516   1.902   0.235   1.798  0.1122 -0.2643 -0.6741
  506SOL    HW1 1517   1.999   0.225   1.756  0.5128  0.7803 -1.1952
  506SOL    HW2 1518   1.882   0.332   1.824  2.3639  1.6299 -2.2831
  507SOL     OW 1519   0.487   0.693   2.175 -0.6000  0.9480 -0.5119
  507SOL    HW1 1520   0.411   0.699   2.104 -1.3556 -0.0887  0.0322
  507SOL    HW2 1521   0.534   0.598   2.181 -0.5643  2.1609 -0.3219
  508SOL     OW 1522   0.166   1.669   0.841 -0.3140  0.0768 -0.5808
  508SOL    HW1 1523   0.185   1.755   0.785 -1.0017  0.5798 -1.3059
  508SOL    HW2 1524   0.150   1.682   0.940  2.0618  0.3466 -1.3729
  509SOL     OW 1525   1.361   1.188   2.574 -0.4474  0.0421  0.5529
  509SOL    HW1 1526   1.276   1.235   2.552  1.1270 -0.8426 -3.9415
  509SOL    HW2 1527   1.352   1.082   2.590 -0.5061 -4.4409  0.0532
  510SOL     OW 1528   1.327   1.993   2.021 -0.2226  0.0398 -0.1373
  510SOL    HW1 1529   1.282   2.090   2.004  0.3406  1.4072  0.5198
  510SOL    HW2 1530   1.290   1.960   2.108 -0.9526  0.6879 -0.4233
  511SOL     OW 1531   3.093   2.635   1.304 -0.5543 -0.0477 -0.0278
  511SOL    HW1 1532   3.035   2.612   1.220  0.0205  0.6986 -2.3979
  511SOL    HW2 1533   3.038   2.646   1.393 -0.0763 -1.7702 -1.2435
  512SOL     OW 1534   2.409   0.428   1.367  0.0014 -0.0224  0.6137
  512SOL    HW1 1535   2.309   0.413   1.380  0.2390  0.5771 -0.8940
  512SOL    HW2 1536   2.444   0.377   1.283 -1.9744 -4.1339 -0.5654
  513SOL     OW 1537   2.497   1.998   0.832  0.1916 -0.5569 -0.3280
  513SOL    HW1 1538   2.444   2.083   0.806  0.5398 -0.1874 -1.5416
  513SOL    HW2 1539   2.579   1.991   0.770  1.3605  0.7392  1.0359
  514SOL     OW 1540   0.670   2.802   0.404 -0.1385 -0.1054  0.1037
  514SOL    HW1 1541   0.637   2.864   0.325  0.1170  2.6904  1.3968
  514SOL    HW2 1542   0.695   2.860   0.490  3.2293 -0.6734  0.9784
  515SOL     OW 1543   1.972   1.221   2.355 -0.1015  0.4268  0.5696
  515SOL    HW1 1544   1.931   1.251   2.265 -0.4045 -0.6463  0.9056
  515SOL    HW2 1545   1.925   1.239   2.449 -0.1935 -0.4235 -0.1948
  516SOL     OW 1546   0.271   0.313   1.970  0.0381  0.5267  0.1091
  516SOL    HW1 1547   0.361   0.291   1.919  1.5493 -1.1718  1.7022
  516SOL    HW2 1548   0.198   0.249   1.946  0.6162  0.8446  0.7064
  517SOL     OW 1549   0.356   3.048   1.164  0.0836 -0.4681  0.8187
  517SOL    HW1 1550   0.400   3.141   1.192 -1.5017  1.5552  2.1691
  517SOL    HW2 1551   0.300   3.007   1.241  2.4537 -0.1998 -0.6420
  518SOL     OW 1552   2.143   0.169   1.653 -0.4119  0.1373 -0.2446
  518SOL    HW1 1553   2.190   0.215   1.729  0.8323 -2.0931 -3.0943
  518SOL    HW2 1554   2.182   0.073   1.641  0.9697 -1.0331 -0.0891
  519SOL     OW 1555   2.353   2.162   2.525 -0.2667  0.0354 -0.2885
  519SOL    HW1 1556   2.284   2.157   2.605  2.3426 -0.6203  0.5860
  519SOL    HW2 1557   2.398   2.256   2.530 -0.0179 -2.1004 -1.3445
  520SOL     OW 1558   1.772   2.863   1.801  0.0831 -0.4652  0.4140
  520SOL    HW1 1559   1.696   2.822   1.863 -0.1128  3.0234  1.7302
  520SOL    HW2 1560   1.839   2.787   1.775  0.7562 -1.5542  2.0623
  521SOL     OW 1561   0.572   0.146   2.154  0.1368 -0.1433  0.7935
  521SOL    HW1 1562   0.476   0.117   2.184 -0.6372 -0.7723 -0.8354
  521SOL    HW2 1563   0.648   0.103   2.213  0.4976  1.2643  1.6032
  522SOL     OW 1564   0.219   1.896   1.561  0.5191  0.1993  0.1487
  522SOL    HW1 1565   0.259   1.959   1.635 -0.0473  1.5388  0.3811
  522SOL    HW2 1566   0.209   1.942   1.467  1.2412 -1.9446  0.4907
  523SOL     OW 1567   2.215   2.998   1.616  0.4282  1.0752 -0.3106
  523SOL    HW1 1568   2.264   2.919   1.571  0.0129 -0.3623 -0.2363
  523SOL    HW2 1569   2.110   2.991   1.600 -0.0108  0.3904  1.2595
  524SOL     OW 1570   0.242   2.747   2.822 -0.5004  0.0290 -0.2350
  524SOL    HW1 1571   0.209   2.818   2.893  1.4334  2.3913 -1.6797
  524SOL    HW2 1572   0.341   2.772   2.790 -2.1117  2.9400  0.9456
  525SOL     OW 1573   2.131   1.929   0.470  0.1589 -0.3341  0.2411
  525SOL    HW1 1574   2.131   1.863   0.547 -0.1716  1.5091 -1.5888
  525SOL    HW2 1575   2.182   1.895   0.385  0.9880  1.7093 -1.1113
  526SOL     OW 1576   0.419   1.541   1.550  0.2846  0.9390 -0.5146
  526SOL    HW1 1577   0.350   1.509   1.624  1.2147  2.0006  0.1265
  526SOL    HW2 1578   0.508   1.485   1.556 -0.2033  1.0732  1.9557
  527SOL     OW 1579   1.107   2.889   1.199  0.0079  0.4217 -0.1272
  527SOL    HW1 1580   1.148   2.851   1.286  1.7836  2.2494  2.3013
  527SOL    HW2 1581   1.129   2.991   1.190 -1.4153 -1.2986  0.2051
  528SOL     OW 1582   1.349   2.398   0.452 -0.2903 -0.1283 -0.4842
  528SOL    HW1 1583   1.372   2.299   0.437  0.2229  0.8861  0.4601
  528SOL    HW2 1584   1.401   2.434   0.539  1.1350  0.5483 -0.4404
  529SOL     OW 1585   1.822   1.734   0.786 -0.0279 -0.3147 -0.2437
  529SOL    HW1 1586   1.803   1.746   0.686 -2.7188  2.1946 -0.4027
  529SOL    HW2 1587   1.856   1.822   0.834 -0.4281 -0.5285  0.7699
  530SOL     OW 1588   0.341   2.457   0.277  0.5393  0.4351 -1.0115
  530SOL    HW1 1589   0.354   2.559   0.311 -0.4169 -0.3898 -3.0360
  530SOL    HW2 1590   0.309   2.392   0.355 -3.2326 -1.2991  1.4693
  531SOL     OW 1591   1.854   0.823   1.008  0.1246  0.3107 -0.2167
  531SOL    HW1 1592   1.879   0.845   0.908 -0.4556  1.3296 -1.2759
  531SOL    HW2 1593   1.756   0.841   1.014 -1.2453 -0.2702 -1.2590
  532SOL     OW 1594   0.491   1.090   0.753  0.0956 -0.1817  0.2906
  532SOL    HW1 1595   0.497   1.105   0.653 -0.9581 -0.6386  0.1565
  532SOL    HW2 1596   0.444   1.003   0.780 -1.5938  2.0315  1.6512
  533SOL     OW 1597   1.767   0.034   2.552 -0.2278 -0.3031  0.3161
  533SOL    HW1 1598   1.858   0.012   2.595 -3.6619 -0.0961  1.1403
  533SOL    HW2 1599   1.712   0.092   2.620 -0.2219 -0.3993 -1.1143
  534SOL     OW 1600   0.398   0.179   1.559  0.3290  0.7149  0.0669
  534SOL    HW1 1601   0.493   0.193   1.595 -0.6642  0.8732  0.5319
  534SOL    HW2 1602   0.362   0.273   1.536  0.5257 -0.4504 -0.4873
  535SOL     OW 1603   1.939   0.344   0.178  0.2402  0.0019 -0.5421
  535SOL    HW1 1604   1.961   0.432   0.232  0.0208  2.7955 -2.5411
  535SOL    HW2 1605   1.953   0.258   0.230 -0.3519 -1.7472 -0.6989
  536SOL     OW 1606   1.368   2.611   0.914 -0.1968 -0.1348 -0.7974
  536SOL    HW1 1607   1.321   2.557   0.994  0.6646  0.4421 -2.9026
  536SOL    HW2 1608   1.296   2.654   0.854 -0.5915 -1.5146  2.4955
  537SOL     OW 1609   0.841   0.259   2.366 -0.0489 -0.7012 -0.3580
  537SOL    HW1 1610   0.882   0.305   2.282 -1.1176 -0.8987  1.8630
  537SOL    HW2 1611   0.825   0.164   2.346  3.3462  1.8006 -0.5620
  538SOL     OW 1612   1.657   2.361   1.382  0.1986  0.4710  0.4425
  538SOL    HW1 1613   1.634   2.261   1.380 -0.5752  2.4780 -1.2363
  538SOL    HW2 1614   1.758   2.375   1.393 -1.1988 -0.6252  0.3072
  539SOL     OW 1615   0.179   1.605   2.696  0.0700  0.1476 -0.2866
  539SOL    HW1 1616   0.096   1.564   2.646 -0.7656  1.0027 -1.0781
  539SOL    HW2 1617   0.163   1.699   2.735 -1.6671 -1.7010 -0.2494
  540SOL     OW 1618   2.665   1.710   1.911  0.0913  0.1481  0.2152
  540SOL    HW1 1619   2.613   1.632   1.954  1.2621 -2.7593 -1.8485
  540SOL    HW2 1620   2.629   1.803   1.929  0.3039  0.5167  2.2139
  541SOL     OW 1621   0.550   2.157   0.025 -0.3819 -0.5185  0.0603
  541SOL    HW1 1622   0.548   2.124   0.122 -0.7981 -2.0009  0.4304
  541SOL    HW2 1623   0.456   2.151  -0.023 -0.6009  0.7354 -0.7789
  542SOL     OW 1624   2.242   2.656   0.533  0.1848  0.5937  0.9410
  542SOL    HW1 1625   2.204   2.730   0.593  2.2539 -0.6534  2.6794
  542SOL    HW2 1626   2.179   2.577   0.520  0.1890  2.6368  0.1893
  543SOL     OW 1627   1.092   1.796   1.590  0.3276 -0.5829  0.6286
  543SOL    HW1 1628   1.109   1.816   1.693 -1.5546 -1.4420  0.9671
  543SOL    HW2 1629   1.047   1.873   1.538  1.0975  1.6758  1.3276
  544SOL     OW 1630   1.171   0.522   0.163  0.4533  0.1822 -0.4430
  544SOL    HW1 1631   1.122   0.432   0.184  1.8985  0.0784  1.9642
  544SOL    HW2 1632   1.200   0.524   0.060  1.3753 -1.6289  0.8954
  545SOL     OW 1633   1.114   1.852   0.774  0.0869 -0.0609  0.1497
  545SOL    HW1 1634   1.205   1.870   0.726 -0.7743  0.4868  1.3549
  545SOL    HW2 1635   1.099   1.750   0.785 -0.1753 -0.3214  0.2652
  546SOL     OW 1636   2.679   1.604   2.980 -0.2356  0.3309  0.4379
  546SOL    HW1 1637   2.628   1.695   2.992 -4.4319 -0.8837  0.2218
  546SOL    HW2 1638   2.611   1.533   3.005  2.8506  1.4278 -0.7247
  547SOL     OW 1639   0.661   3.041   2.515  0.1393  0.4197  0.3175
  547SOL    HW1 1640   0.709   3.015   2.600  1.4355 -3.5201  1.8303
  547SOL    HW2 1641   0.590   2.963   2.491 -0.3570  0.2612 -0.5967
  548SOL     OW 1642   2.062   0.762   3.042 -0.5146  0.0517 -0.3388
  548SOL    HW1 1643   1.964   0.729   3.055 -0.3786 -1.0749  1.1438
  548SOL    HW2 1644   2.067   0.863   3.052  0.7565 -1.0906  0.8072
  549SOL     OW 1645   0.697   0.561   0.197 -0.3491  0.5896 -0.7385
  549SOL    HW1 1646   0.658   0.568   0.101  1.7290  0.0210  0.2973
  549SOL    HW2 1647   0.772   0.636   0.204  0.4816  1.2515 -0.7515
  550SOL     OW 1648   2.567   2.798   2.855  0.0296 -0.5890  0.3171
  550SOL    HW1 1649   2.514   2.728   2.910  1.6749  0.6271  0.7263
  550SOL    HW2 1650   2.640   2.752   2.799  0.5620  2.0533  3.6176
  551SOL     OW 1651   0.240   0.875   0.261  0.5222 -0.1291 -0.2567
  551SOL    HW1 1652   0.343   0.898   0.247  1.5811 -0.6173 -2.9397
  551SOL    HW2 1653   0.211   0.852   0.358  1.2355  2.7665 -0.3051
  552SOL     OW 1654   0.603   3.037   1.976  0.6629  0.0567 -0.3410
  552SOL    HW1 1655   0.593   3.116   2.040 -0.5069  0.1873 -0.8237
  552SOL    HW2 1656   0.701   3.027   1.936  0.4674  0.1552 -0.2849
  553SOL     OW 1657   2.989   2.394   0.381  0.1317 -0.1445 -0.0278
  553SOL    HW1 1658   3.001   2.296   0.401  1.1805 -1.0801 -0.6483
  553SOL    HW2 1659   2.892   2.429   0.354  1.5718  0.3099  1.5630
  554SOL     OW 1660   2.210   0.372   0.525 -0.1231 -0.2578  0.1715
  554SOL    HW1 1661   2.282   0.372   0.455 -1.5814 -1.0183  1.0312
  554SOL    HW2 1662   2.202   0.281   0.573  1.1037 -0.8254 -0.0322
  555SOL     OW 1663   0.479   2.854   2.469  0.0201  0.4345  0.3801
  555SOL    HW1 1664   0.394   2.904   2.444 -0.4296  0.3178 -0.6786
  555SOL    HW2 1665   0.479   2.758   2.419 -3.3728 -1.2274 -1.7039
  556SOL     OW 1666   0.818   2.455   1.603  0.2034 -0.7464 -0.0744
  556SOL    HW1 1667   0.837   2.501   1.693  2.4229 -0.1407  1.4936
  556SOL    HW2 1668   0.906   2.447   1.545 -0.9011  1.7684 -0.4633
  557SOL     OW 1669   0.258   2.091   0.287  0.6408  0.1731 -0.3400
  557SOL    HW1 1670   0.198   2.038   0.225  0.5593  0.6294 -3.3262
  557SOL    HW2 1671   0.310   2.159   0.237 -1.7911 -0.6398 -0.8912
  558SOL     OW 1672   2.837   2.127   0.403 -0.3275 -0.3251 -0.3354
  558SOL    HW1 1673   2.774   2.211   0.409  2.6195 -0.3735  0.5236
  558SOL    HW2 1674   2.793   2.057   0.340  2.1302 -3.1390  3.0392
  559SOL     OW 1675   0.398   2.327   1.444 -0.3925 -0.4543  0.3435
  559SOL    HW1 1676   0.320   2.368   1.383  1.4823 -1.3644  1.9042
  559SOL    HW2 1677   0.443   2.240   1.404 -0.0796 -1.2383 -2.0093
  560SOL     OW 1678   2.128   1.028   3.097  0.4712 -0.6426  0.1310
  560SOL    HW1 1679   2.192   1.065   3.167 -1.2927  0.1323 -2.1058
  560SOL    HW2 1680   2.177   1.010   3.011 -1.6441 -0.7560  0.1468
  561SOL     OW 1681   0.029   1.935   0.188 -0.3467  0.5271  0.6344
  561SOL    HW1 1682  -0.027   1.857   0.234  0.7685 -1.7108 -0.9553
  561SOL    HW2 1683  -0.035   1.980   0.115  0.2439  2.3624  1.5404
  562SOL     OW 1684   1.091   2.081   2.263 -0.4323 -0.2735 -0.7373
  562SOL    HW1 1685   1.037   2.159   2.302 -0.5325  1.9052  0.7508
  562SOL    HW2 1686   1.052   1.991   2.297 -2.2005  2.9586 -0.0306
  563SOL     OW 1687   0.660   2.533   2.663  0.1036  0.2958  0.3175
  563SOL    HW1 1688   0.737   2.522   2.593  0.2810 -0.4602  0.4907
  563SOL    HW2 1689   0.697   2.570   2.755 -1.6002 -0.0223  2.1099
  564SOL     OW 1690   2.853   1.401   2.880 -0.2829  0.0767 -0.1294
  564SOL    HW1 1691   2.786   1.463   2.932  0.7468  0.2199 -1.8466
  564SOL    HW2 1692   2.923   1.461   2.833  2.7330  1.7770  0.6069
  565SOL     OW 1693   2.529   1.967   2.638  0.0116  0.0018 -0.1634
  565SOL    HW1 1694   2.491   2.051   2.589 -0.7500  2.8657  1.4496
  565SOL    HW2 1695   2.613   1.984   2.699  0.9049  1.5113  0.9138
  566SOL     OW 1696   1.967   2.893   1.445 -0.5353 -0.1417 -0.1791
  566SOL    HW1 1697   1.961   2.792   1.459 -0.1129  1.1595 -0.1790
  566SOL    HW2 1698   1.965   2.911   1.342 -3.9713  0.9907 -0.8420
  567SOL     OW 1699   2.381   0.023   2.329 -0.5844  0.0744  0.0413
  567SOL    HW1 1700   2.281   0.031   2.363  0.4831  2.0521 -0.2082
  567SOL    HW2 1701   2.391   0.024   2.224 -1.8280  0.6164 -0.6446
  568SOL     OW 1702   1.501   1.717   0.257  0.0968  0.0467 -0.7152
  568SOL    HW1 1703   1.438   1.804   0.249 -0.6019  1.8263 -1.3063
  568SOL    HW2 1704   1.603   1.743   0.262  1.0531  0.0342  1.2344
  569SOL     OW 1705   0.256   0.589   0.897 -0.0874 -0.2741  0.1054
  569SOL    HW1 1706   0.274   0.532   0.815 -3.1565  0.2256  1.7839
  569SOL    HW2 1707   0.152   0.587   0.920 -3.0050  1.7683 -1.4052
  570SOL     OW 1708   0.633   0.864   2.909 -0.0694 -0.1006 -0.0267
  570SOL    HW1 1709   0.672   0.873   2.815  0.1290 -1.6145  0.7029
  570SOL    HW2 1710   0.661   0.945   2.971  0.7454 -2.6984  0.0838
  571SOL     OW 1711   0.759   3.068   1.067  0.1633 -0.0230 -0.1254
  571SOL    HW1 1712   0.832   3.112   1.007  0.5032  1.4642 -1.5843
  571SOL    HW2 1713   0.793   2.973   1.100  1.1437 -1.0311  2.7525
  572SOL     OW 1714   1.651   2.701   1.424  0.5688  0.2840  0.2367
  572SOL    HW1 1715   1.657   2.600   1.394 -3.8948  0.9344  0.0899
  572SOL    HW2 1716   1.580   2.760   1.374  0.1703  3.9186 -1.3240
  573SOL     OW 1717   3.054   0.489   1.930 -0.3464 -0.0798 -0.5714
  573SOL    HW1 1718   3.062   0.388   1.918 -0.9955  0.8537 -1.8562
  573SOL    HW2 1719   3.090   0.534   1.848  2.1677  0.7290  1.1635
  574SOL     OW 1720   0.141   1.663   1.106 -0.2677  0.1830 -0.3614
  574SOL    HW1 1721   0.136   1.627   1.203 -1.1230 -1.4272  0.1194
  574SOL    HW2 1722   0.103   1.762   1.100 -1.2922 -0.0655  0.2722
  575SOL     OW 1723   0.878   2.237   0.992  0.4161  0.1787 -0.1068
  575SOL    HW1 1724   0.842   2.272   1.084 -1.4836  0.9209  1.8665
  575SOL    HW2 1725   0.892   2.311   0.920 -1.1846 -0.1689  0.6686
  576SOL     OW 1726   2.943   2.999   1.720 -0.0575  0.0010 -0.3574
  576SOL    HW1 1727   2.840   2.991   1.699 -2.4868  0.0294 -0.9299
  576SOL    HW2 1728   2.982   3.084   1.684 -0.5287 -0.2203 -0.1098
  577SOL     OW 1729   2.672   1.226   3.081 -0.3309  0.3821 -0.8210
  577SOL    HW1 1730   2.700   1.142   3.032 -0.0348 -0.2081 -0.8199
  577SOL    HW2 1731   2.749   1.247   3.149  2.8812  0.2440 -3.2175
  578SOL     OW 1732   1.398   2.738   2.541 -0.2800 -0.5720 -0.2060
  578SOL    HW1 1733   1.312   2.753   2.489  1.5914  1.5757  0.3436
  578SOL    HW2 1734   1.474   2.803   2.506 -0.2841 -0.1704  0.5795
  579SOL     OW 1735   0.087   2.413   0.166  0.2507 -0.3189 -0.1560
  579SOL    HW1 1736   0.031   2.420   0.253 -0.1791  1.9265 -1.0517
  579SOL    HW2 1737   0.188   2.437   0.180  2.7720 -2.2073 -0.6666
  580SOL     OW 1738   0.948   2.683   0.408 -0.3154 -0.3258 -0.1570
  580SOL    HW1 1739   0.995   2.657   0.319 -1.6928 -0.7685  0.0740
  580SOL    HW2 1740   0.856   2.736   0.401 -0.0072 -0.5509  2.2798
  581SOL     OW 1741   1.289   2.714   1.458 -0.1626  0.5017  0.6019
  581SOL    HW1 1742   1.320   2.612   1.451 -3.7951 -0.0192 -0.2831
  581SOL    HW2 1743   1.362   2.778   1.415  2.9548  0.5283  0.2398
  582SOL     OW 1744   1.511   0.063   1.906 -0.1650 -0.6553 -0.2871
  582SOL    HW1 1745   1.539   0.124   1.985 -0.6280  0.6852 -2.1141
  582SOL    HW2 1746   1.562   0.097   1.817  0.6282  0.5846 -3.6142
  583SOL     OW 1747   2.443   3.023   0.519 -0.3386 -0.8272 -0.8320
  583SOL    HW1 1748   2.527   2.981   0.478  1.5663  0.6294 -0.6609
  583SOL    HW2 1749   2.394   2.954   0.575  3.1554 -1.4856 -2.2517
  584SOL     OW 1750   1.582   1.107   2.251 -0.6117 -0.2823 -0.5564
  584SOL    HW1 1751   1.622   1.203   2.265 -0.4006  1.3567  1.6033
  584SOL    HW2 1752   1.629   1.028   2.296 -0.5485 -2.6930  2.9048
  585SOL     OW 1753   2.023   2.666   2.884 -0.0983  0.2358  0.1215
  585SOL    HW1 1754   2.031   2.565   2.857 -1.5045 -2.7962  0.9209
  585SOL    HW2 1755   1.923   2.702   2.893 -1.6708 -1.4938  0.3323
  586SOL     OW 1756   2.948   0.386   1.608 -0.4178  0.3408 -0.0478
  586SOL    HW1 1757   2.946   0.486   1.654  0.6999  1.2379 -1.8515
  586SOL    HW2 1758   2.860   0.360   1.564  0.3166  0.4007  2.2344
  587SOL     OW 1759   2.159   1.462   2.755  0.3633  0.1439  0.5909
  587SOL    HW1 1760   2.155   1.401   2.671  0.7049  0.3664 -0.7602
  587SOL    HW2 1761   2.258   1.496   2.773  2.1878  1.3087  0.4089
  588SOL     OW 1762   0.508   2.636   2.302 -0.6516 -0.7125 -0.1946
  588SOL    HW1 1763   0.496   2.672   2.203 -1.5218 -0.9400 -0.6940
  588SOL    HW2 1764   0.446   2.562   2.319  1.8403 -0.4731 -1.7423
  589SOL     OW 1765   2.179   1.350   2.498 -0.3163  0.4069  0.3717
  589SOL    HW1 1766   2.113   1.292   2.447 -0.2812 -1.4336 -0.1110
  589SOL    HW2 1767   2.283   1.333   2.473  2.0388  1.0099  0.4796
  590SOL     OW 1768   2.300   1.696   2.087 -0.4642  0.1486 -0.2176
  590SOL    HW1 1769   2.388   1.636   2.080  1.5459  0.0388  3.2146
  590SOL    HW2 1770   2.275   1.720   2.183 -0.5552 -0.7630 -0.3154
  591SOL     OW 1771   1.333   2.448   0.170  0.0691  0.4714  0.2134
  591SOL    HW1 1772   1.356   2.365   0.117  1.1043 -0.6601  0.2695
  591SOL    HW2 1773   1.332   2.426   0.273  2.9893  1.1544 -2.5804
  592SOL     OW 1774   1.777   2.353   0.811  0.2004 -0.2787  0.0860
  592SOL    HW1 1775   1.758   2.379   0.713 -0.9089 -0.0955  0.3726
  592SOL    HW2 1776   1.864   2.391   0.849  1.8738 -1.2333  1.0492
  593SOL     OW 1777   0.749   0.301   0.218 -0.3264 -0.1811 -0.3472
  593SOL    HW1 1778   0.793   0.264   0.130 -2.2487 -1.1567  0.0500
  593SOL    HW2 1779   0.738   0.405   0.221  3.8788  1.2035 -0.3077
  594SOL     OW 1780   1.091   1.796   2.665  0.3989 -0.3300 -0.1478
  594SOL    HW1 1781   1.187   1.785   2.637 -1.2944  1.1252  0.6947
  594SOL    HW2 1782   1.075   1.858   2.742  0.0010 -0.3283 -1.0567
  595SOL     OW 1783   1.527   0.144   0.996  0.3494  0.2533  0.0406
  595SOL    HW1 1784   1.582   0.061   0.975  0.6208  0.9263  2.2443
  595SOL    HW2 1785   1.433   0.137   0.954 -0.9363  2.4574 -0.1693
  596SOL     OW 1786   0.158   1.401   2.214  0.7839 -0.4766 -0.2908
  596SOL    HW1 1787   0.081   1.333   2.242 -1.8049 -1.1961  0.9248
  596SOL    HW2 1788   0.185   1.468   2.290 -1.3690 -0.1745 -1.2666
  597SOL     OW 1789   2.015   2.693   1.829 -0.4465  0.1434  0.1349
  597SOL    HW1 1790   1.968   2.671   1.743 -0.7968  1.5112 -0.1983
  597SOL    HW2 1791   2.118   2.691   1.823 -3.3990  0.0172  0.8840
  598SOL     OW 1792   2.479   2.846   1.296 -0.2038 -0.4314  0.0779
  598SOL    HW1 1793   2.556   2.912   1.328  2.9361 -0.0055  0.8201
  598SOL    HW2 1794   2.518   2.752   1.279 -1.1175 -1.6299 -2.2746
  599SOL     OW 1795   2.876   0.271   2.529  0.1966  0.3290 -0.1013
  599SOL    HW1 1796   2.966   0.283   2.477  0.1509 -1.4221  2.3387
  599SOL    HW2 1797   2.791   0.321   2.487 -1.4548 -1.1895  1.9448
  600SOL     OW 1798   2.781   1.158   2.771 -0.4892 -0.2317 -0.1331
  600SOL    HW1 1799   2.744   1.083   2.833  0.1783 -0.0436 -0.6728
  600SOL    HW2 1800   2.798   1.247   2.829 -2.5025  2.1748  0.8433
  601SOL     OW 1801   2.962   1.347   1.976 -0.3285  0.5964 -0.8500
  601SOL    HW1 1802   2.899   1.395   1.905  0.7172 -1.8013 -1.1315
  601SOL    HW2 1803   3.051   1.392   1.997  1.4995 -0.5275 -3.0504
  602SOL     OW 1804   1.559   1.542   2.299 -0.0389 -0.0439  0.0461
  602SOL    HW1 1805   1.466   1.536   2.345 -0.3879 -1.3033  0.6056
  602SOL    HW2 1806   1.633   1.587   2.362 -0.5334  0.6202  2.7466
  603SOL     OW 1807   0.599   1.205   2.693  0.2804 -0.3993  0.0103
  603SOL    HW1 1808   0.514   1.248   2.649 -0.9309 -1.7336  0.3543
  603SOL    HW2 1809   0.607   1.106   2.660 -0.7408 -2.1581 -0.3417
  604SOL     OW 1810   2.537   1.076   0.228  0.0804 -0.4298  0.4373
  604SOL    HW1 1811   2.633   1.119   0.247  0.5718  1.3103  1.3977
  604SOL    HW2 1812   2.550   0.990   0.170 -0.9272  0.4848 -0.0621
  605SOL     OW 1813   2.578   1.193   1.904  0.0961  0.4177 -0.2326
  605SOL    HW1 1814   2.608   1.106   1.857  1.4317 -0.2752 -1.4446
  605SOL    HW2 1815   2.647   1.227   1.973  1.1499 -0.6992  2.0886
  606SOL     OW 1816   1.538   2.468   2.587  0.1309  0.1420  0.2827
  606SOL    HW1 1817   1.473   2.543   2.558 -0.7704  1.1781 -2.6063
  606SOL    HW2 1818   1.510   2.373   2.555  4.0924  0.1151  1.5947
  607SOL     OW 1819   1.255   1.591   0.263  0.2380 -0.1136  0.1755
  607SOL    HW1 1820   1.190   1.670   0.285  1.4556  0.0717  2.8081
  607SOL    HW2 1821   1.352   1.615   0.286 -0.1274  1.0722  2.4276
  608SOL     OW 1822   1.373   2.806   0.341  0.2850 -0.4608 -0.1993
  608SOL    HW1 1823   1.433   2.828   0.261 -1.3879 -0.4477 -1.3531
  608SOL    HW2 1824   1.355   2.885   0.408  0.3418  0.4416  1.1164
  609SOL     OW 1825   1.304   1.328   0.179 -0.1487 -1.0190 -0.1328
  609SOL    HW1 1826   1.285   1.430   0.207  0.6403  0.4426  1.6175
  609SOL    HW2 1827   1.257   1.309   0.087  0.9282  0.8174  3.0292
  610SOL     OW 1828   3.027   1.217   2.209  0.0800 -0.0168 -0.5473
  610SOL    HW1 1829   2.985   1.128   2.240  2.8598  2.2739 -2.3003
  610SOL    HW2 1830   2.986   1.259   2.122  2.8371  1.6920  0.8699
  611SOL     OW 1831   2.561   0.191   1.144  0.0810 -0.1665 -0.3223
  611SOL    HW1 1832   2.500   0.128   1.200 -2.3016 -0.5465 -0.0805
  611SOL    HW2 1833   2.656   0.202   1.187  2.1110 -0.1421  0.2857
  612SOL     OW 1834   0.763   2.357   1.243  0.1105  0.2429  0.6366
  612SOL    HW1 1835   0.694   2.287   1.276  2.2396  1.8154 -0.0436
  612SOL    HW2 1836   0.720   2.438   1.194 -1.8059 -1.6501  1.3617
  613SOL     OW 1837   0.776   1.385   2.375 -0.0404 -0.2125  0.0032
  613SOL    HW1 1838   0.796   1.454   2.296 -2.2446  1.8711  1.0309
  613SOL    HW2 1839   0.759   1.286   2.336 -1.0547  0.2127 -0.1887
  614SOL     OW 1840   1.508   1.649   1.894 -0.0385  0.4117  0.6933
  614SOL    HW1 1841   1.465   1.732   1.846  1.1503 -0.1659  0.8703
  614SOL    HW2 1842   1.605   1.673   1.937 -1.3957  1.5673  1.4955
  615SOL     OW 1843   0.720   1.471   1.719 -0.2196  0.5357 -0.2460
  615SOL    HW1 1844   0.707   1.389   1.649  0.0883 -3.4147 -0.5914
  615SOL    HW2 1845   0.794   1.535   1.690 -1.0740 -2.0066 -1.8950
  616SOL     OW 1846   1.134   1.566   2.197  0.5128  0.5008 -0.3784
  616SOL    HW1 1847   1.035   1.532   2.197  0.0696  0.5716  1.4715
  616SOL    HW2 1848   1.160   1.616   2.111  0.3399  2.3992 -0.3322
  617SOL     OW 1849   2.998   1.578   1.644 -0.5257  0.2799  0.0678
  617SOL    HW1 1850   2.935   1.517   1.699 -2.7685  1.3905 -0.1552
  617SOL    HW2 1851   3.022   1.541   1.550  0.0891  0.8202 -0.7733
  618SOL     OW 1852   1.905   1.997   1.465  0.3898  0.4806 -0.2529
  618SOL    HW1 1853   1.983   1.982   1.396  1.1526 -1.3934 -2.0368
  618SOL    HW2 1854   1.886   1.914   1.519 -0.5686  1.1925 -0.6232
  619SOL     OW 1855   1.779   0.539   2.359  0.3314  0.2075  0.3223
  619SOL    HW1 1856   1.715   0.610   2.309  0.0855 -0.3652 -1.7647
  619SOL    HW2 1857   1.737   0.445   2.354 -1.8407  1.5995 -1.8075
  620SOL     OW 1858   2.234   2.904   0.670 -0.6046 -0.1013 -0.1018
  620SOL    HW1 1859   2.154   2.969   0.662 -3.6033  0.7259 -0.5814
  620SOL    HW2 1860   2.259   2.881   0.769 -1.0792 -2.3928 -0.4462
  621SOL     OW 1861   2.163   1.898   1.350 -0.5017 -0.4523  0.2815
  621SOL    HW1 1862   2.186   1.875   1.445  0.2898  1.3549 -1.4808
  621SOL    HW2 1863   2.148   1.820   1.284  1.2911 -0.6025 -0.4739
  622SOL     OW 1864   2.226   1.005   1.851  0.2534 -0.5477 -0.0039
  622SOL    HW1 1865   2.309   0.939   1.850  1.4565  1.3070 -1.5178
  622SOL    HW2 1866   2.137   0.970   1.897 -3.3990 -1.6205 -0.2473
  623SOL     OW 1867   1.292   0.921   2.567 -0.1668  0.7831 -0.1540
  623SOL    HW1 1868   1.250   0.840   2.617 -1.7256 -0.2908  1.9990
  623SOL    HW2 1869   1.231   0.934   2.485 -0.5995 -1.3669 -0.3284
  624SOL     OW 1870   0.545   0.694   0.012  0.0585  0.1095 -0.4719
  624SOL    HW1 1871   0.541   0.755  -0.079  1.1006 -3.9648 -3.8436
  624SOL    HW2 1872   0.547   0.752   0.103  2.7606 -0.0825  2.2311
  625SOL     OW 1873   2.781   1.740   0.796 -0.1495 -0.1343 -0.1911
  625SOL    HW1 1874   2.742   1.784   0.883  2.5557  0.2377  1.8917
  625SOL    HW2 1875   2.729   1.661   0.753 -0.0050 -0.4372  1.1914
  626SOL     OW 1876   0.405   2.781   2.050 -0.6904  0.5989  0.6618
  626SOL    HW1 1877   0.444   2.868   2.092 -1.3000  0.8475 -1.4046
  626SOL    HW2 1878   0.366   2.792   1.952  1.1725 -2.4069  0.5305
  627SOL     OW 1879   0.730   1.026   1.498 -1.1034 -0.0905 -0.1153
  627SOL    HW1 1880   0.774   0.932   1.491  1.3455  1.4367 -0.1078
  627SOL    HW2 1881   0.771   1.099   1.427  1.3070  1.0071 -0.0054
  628SOL     OW 1882   2.439   0.145   0.694  0.3193 -0.0980 -0.1612
  628SOL    HW1 1883   2.446   0.057   0.630  0.7144 -0.3220 -2.8374
  628SOL    HW2 1884   2.337   0.161   0.714  1.4131 -0.0566  0.8046
  629SOL     OW 1885   1.975   0.958   1.957 -0.0317  0.3285 -0.4690
  629SOL    HW1 1886   2.006   0.968   2.053  0.3147  0.5544 -0.4492
  629SOL    HW2 1887   1.927   1.042   1.917 -1.6248 -1.1941  1.4298
  630SOL     OW 1888   2.834   2.202   0.752  0.5504 -0.1662  0.1719
  630SOL    HW1 1889   2.751   2.253   0.798 -0.1884  0.4497  2.6321
  630SOL    HW2 1890   2.804   2.120   0.699 -3.2224  0.4000 -0.7118
  631SOL     OW 1891   2.989   0.204   2.141  0.6951 -0.6330  0.0819
  631SOL    HW1 1892   3.041   0.251   2.217  0.4685 -5.8456 -0.4870
  631SOL    HW2 1893   3.042   0.176   2.061 -0.5240 -0.7827  1.5198
  632SOL     OW 1894   2.367   2.517   0.765  0.7628  0.2631  0.1892
  632SOL    HW1 1895   2.423   2.595   0.798 -0.7474  0.3014 -0.1373
  632SOL    HW2 1896   2.328   2.524   0.666  2.4942  1.5811 -0.3866
  633SOL     OW 1897   1.593   1.282   2.689 -0.1938  0.2751  0.5452
  633SOL    HW1 1898   1.564   1.347   2.765 -1.0444 -1.1144  0.6801
  633SOL    HW2 1899   1.516   1.267   2.622  0.9041 -3.4707 -0.1143
  634SOL     OW 1900   0.642   2.086   0.913 -0.2428 -0.2473 -0.6380
  634SOL    HW1 1901   0.566   2.122   0.969  1.6477  0.9512  0.0824
  634SOL    HW2 1902   0.731   2.146   0.908 -0.9115 -2.0205 -4.3019
  635SOL     OW 1903   0.068   2.243   3.025  0.4543 -0.1046  0.4845
  635SOL    HW1 1904  -0.003   2.311   2.993 -1.7040  1.7317  2.6160
  635SOL    HW2 1905   0.102   2.272   3.116  2.4801 -2.2546  0.8927
  636SOL     OW 1906   2.324   2.881   2.029  0.5200 -0.4839 -0.6362
  636SOL    HW1 1907   2.274   2.974   2.027 -1.0242  0.6050  2.2863
  636SOL    HW2 1908   2.266   2.813   2.074  1.1254 -0.0165 -2.3709
  637SOL     OW 1909   2.603   0.718   2.068 -0.6912 -0.2483 -0.0386
  637SOL    HW1 1910   2.556   0.750   1.978  0.9559  1.1637  0.1071
  637SOL    HW2 1911   2.668   0.795   2.104  0.1493  0.2456  1.1294
  638SOL     OW 1912   2.437   1.903   1.424 -0.6433 -0.1921  0.3845
  638SOL    HW1 1913   2.339   1.899   1.404 -2.8845  1.4376 -1.2932
  638SOL    HW2 1914   2.473   1.805   1.443  0.8415 -0.8295  0.5725
  639SOL     OW 1915   1.293   2.243   1.550 -0.3891 -0.3379  0.2318
  639SOL    HW1 1916   1.282   2.150   1.502  0.6723 -2.2346  0.8162
  639SOL    HW2 1917   1.229   2.247   1.633 -0.1713  0.3293 -1.3091
  640SOL     OW 1918   0.225   1.230   1.510  0.2525 -0.8676  0.4292
  640SOL    HW1 1919   0.218   1.290   1.593  2.0835  0.1085  2.8733
  640SOL    HW2 1920   0.304   1.163   1.505 -2.1950 -2.8520 -0.0715
  641SOL     OW 1921   1.899   0.255   1.421 -0.9414  0.1877  0.1354
  641SOL    HW1 1922   1.842   0.316   1.479  0.7124 -2.1963  0.6064
  641SOL    HW2 1923   1.933   0.168   1.473  0.8035  2.6121 -0.4404
  642SOL     OW 1924   2.014   0.102   0.327 -0.0557  0.0512  0.5991
  642SOL    HW1 1925   2.117   0.110   0.343  0.9797 -1.2041 -0.8731
  642SOL    HW2 1926   1.964   0.086   0.415  0.4202  0.2257 -2.2086
  643SOL     OW 1927   2.807   1.891   2.137 -0.0311  0.1168  0.2954
  643SOL    HW1 1928   2.767   1.797   2.111  0.1190 -0.8476 -0.8414
  643SOL    HW2 1929   2.834   1.946   2.051 -1.6745 -0.4105 -2.0223
  644SOL     OW 1930   2.181   2.265   1.231  0.5005  0.0209 -0.4282
  644SOL    HW1 1931   2.275   2.215   1.233  1.1557  1.6606  1.7090
  644SOL    HW2 1932   2.159   2.310   1.326 -0.2575  1.4162  1.0179
  645SOL     OW 1933   0.694   0.843   1.126 -0.2239 -0.1704 -1.0217
  645SOL    HW1 1934   0.657   0.762   1.073  0.2148 -3.5531  1.7016
  645SOL    HW2 1935   0.687   0.940   1.084 -0.0658  1.6636 -1.6824
  646SOL     OW 1936   1.446   1.909   1.785 -0.0280 -0.9626  0.1860
  646SOL    HW1 1937   1.525   1.972   1.761 -1.8010  0.6175  0.7473
  646SOL    HW2 1938   1.390   1.943   1.870  2.2825  0.1525 -0.4073
  647SOL     OW 1939   0.896   0.924   0.699  0.1600  0.5610 -0.3786
  647SOL    HW1 1940   0.986   0.893   0.740 -1.9282 -0.3208  0.7927
  647SOL    HW2 1941   0.810   0.884   0.748  0.4416 -2.7555  1.4080
  648SOL     OW 1942   0.118   0.248   0.326 -0.8058 -0.0079 -0.1601
  648SOL    HW1 1943   0.032   0.207   0.295  0.5775  1.7716  0.9142
  648SOL    HW2 1944   0.145   0.326   0.256 -2.3787 -1.3662  0.4926
  649SOL     OW 1945  -0.003   0.016   0.956  0.6345 -0.2856 -0.1741
  649SOL    HW1 1946   0.096   0.022   0.936 -0.6725  0.7451  0.2839
  649SOL    HW2 1947  -0.026   0.046   1.054 -4.1763 -0.7194 -0.2725
  650SOL     OW 1948   2.722   0.724   1.444  0.2635 -0.2220  0.0864
  650SOL    HW1 1949   2.632   0.682   1.474 -0.8640  0.6882  1.4168
  650SOL    HW2 1950   2.725   0.791   1.366  1.9381 -0.3848 -1.5793
  651SOL     OW 1951   0.918   1.588   1.528 -0.0448  0.3796 -0.3533
  651SOL    HW1 1952   0.994   1.662   1.543 -0.9678 -1.3396  1.0783
  651SOL    HW2 1953   0.828   1.635   1.493 -2.3146  1.0330 -1.5547
  652SOL     OW 1954   2.278   2.515   2.385  0.8525 -0.2926 -0.6325
  652SOL    HW1 1955   2.184   2.504   2.439 -1.1745  0.6319  0.9951
  652SOL    HW2 1956   2.304   2.608   2.364  1.1102 -0.8863  2.7843
  653SOL     OW 1957   2.783   1.170   0.264  0.5550  0.1846 -0.2943
  653SOL    HW1 1958   2.801   1.262   0.309 -1.0910 -2.3750 -0.1041
  653SOL    HW2 1959   2.845   1.095   0.296  0.9500 -2.7050  0.0688
  654SOL     OW 1960   1.199   2.220   1.221 -0.7551 -0.2567  0.0422
  654SOL    HW1 1961   1.209   2.147   1.293 -0.6636  1.0853 -1.1587
  654SOL    HW2 1962   1.252   2.199   1.132  2.5514 -1.7255  2.9265
  655SOL     OW 1963   0.247   1.070   1.883 -0.3295  0.0653  0.5944
  655SOL    HW1 1964   0.276   0.991   1.825 -1.4610  3.1192  2.4217
  655SOL    HW2 1965   0.315   1.143   1.895  0.1447  0.2306  0.9410
  656SOL     OW 1966   2.482   2.423   2.577 -0.6165 -0.2161 -0.3135
  656SOL    HW1 1967   2.560   2.493   2.590  0.1334  1.9850  0.8872
  656SOL    HW2 1968   2.411   2.457   2.503 -0.8716 -0.2545  0.1977
  657SOL     OW 1969   3.055   1.103   1.874  0.3017 -0.3777  0.4028
  657SOL    HW1 1970   3.016   1.195   1.902  0.1913  0.2843 -1.6681
  657SOL    HW2 1971   3.158   1.103   1.857  0.0900 -0.9623 -0.0017
  658SOL     OW 1972   1.687   0.231   2.371 -0.2333 -0.0975  0.2051
  658SOL    HW1 1973   1.729   0.164   2.440  1.7217  1.1006 -4.0967
  658SOL    HW2 1974   1.749   0.252   2.290  3.9585  1.2100 -0.4719
  659SOL     OW 1975   1.404   0.620   2.847  0.0957  0.4248 -0.2739
  659SOL    HW1 1976   1.449   0.691   2.910  0.3756  1.3168 -1.3756
  659SOL    HW2 1977   1.338   0.663   2.780  1.4171  0.3655 -0.2113
  660SOL     OW 1978   1.399   0.430   1.371 -0.8362  0.5822 -0.3085
  660SOL    HW1 1979   1.425   0.439   1.469  2.5651  0.4959 -0.5119
  660SOL    HW2 1980   1.440   0.341   1.329 -1.1235  2.0080 -2.7483
  661SOL     OW 1981   2.467   1.130   0.665  0.1294  0.0949  0.0525
  661SOL    HW1 1982   2.481   1.058   0.588  1.1556 -1.2957  1.0072
  661SOL    HW2 1983   2.407   1.209   0.634 -2.5850 -1.5633 -2.4886
  662SOL     OW 1984   1.281   0.449   1.822 -0.0903  0.0039  0.1019
  662SOL    HW1 1985   1.250   0.351   1.816 -1.5053 -0.7831 -1.0376
  662SOL    HW2 1986   1.215   0.495   1.880 -1.3205 -1.4712  1.8097
  663SOL     OW 1987   0.843   1.557   2.192 -0.4196  0.0241  0.4208
  663SOL    HW1 1988   0.818   1.657   2.214 -0.4155  2.0697  3.1283
  663SOL    HW2 1989   0.789   1.532   2.110 -0.3127  0.7822 -0.4183
  664SOL     OW 1990   1.660   2.085   1.392 -0.1172 -0.4464 -0.1606
  664SOL    HW1 1991   1.579   2.024   1.413  0.1650  0.5933 -0.5093
  664SOL    HW2 1992   1.753   2.040   1.418  0.0035 -1.6949  0.1808
  665SOL     OW 1993   2.313   0.605   1.993  0.3642  0.2669  0.0645
  665SOL    HW1 1994   2.315   0.503   2.030 -1.7389 -1.7488  1.4062
  665SOL    HW2 1995   2.249   0.658   2.056 -1.7269 -0.7974  0.8111
  666SOL     OW 1996   0.476   2.266   0.472 -0.6113 -0.0998 -0.4769
  666SOL    HW1 1997   0.520   2.360   0.467  0.4232 -0.1356 -0.6965
  666SOL    HW2 1998   0.423   2.250   0.564 -0.7507  0.3892  0.3987
  667SOL     OW 1999   2.091   0.229   0.998 -0.0139 -0.7643 -0.0446
  667SOL    HW1 2000   2.142   0.292   1.067 -0.0047  0.3663  3.0067
  667SOL    HW2 2001   1.992   0.247   1.004  0.4257 -1.8909  2.2911
  668SOL     OW 2002   2.004   0.617   1.268  0.6310  1.0244  0.2468
  668SOL    HW1 2003   2.070   0.638   1.190  3.6192  1.1109  0.2149
  668SOL    HW2 2004   2.040   0.548   1.332 -2.1431  1.1816  0.0633
  669SOL     OW 2005   3.010   2.090   0.953  0.5317  0.4110 -0.0816
  669SOL    HW1 2006   2.954   2.136   0.873 -2.4034  1.9514  2.7592
  669SOL    HW2 2007   2.965   2.099   1.053  1.6132 -1.2307  0.6747
  670SOL     OW 2008   2.778   2.325   2.011  0.3520 -0.0338 -0.0417
  670SOL    HW1 2009   2.723   2.311   2.102 -0.9292  0.4119  0.4827
  670SOL    HW2 2010   2.767   2.420   1.975  0.9890  0.4324 -0.1641
  671SOL     OW 2011   1.658   1.695   1.470 -0.6795  0.5351  0.3980
  671SOL    HW1 2012   1.676   1.713   1.371  0.9958 -0.1563  0.4616
  671SOL    HW2 2013   1.607   1.764   1.517  0.3894 -0.2767 -3.0185
  672SOL     OW 2014   0.391   0.658   2.436 -0.3122 -0.4084  0.1418
  672SOL    HW1 2015   0.421   0.682   2.337  0.3509  1.0914  2.0115
  672SOL    HW2 2016   0.304   0.707   2.454 -1.4009  1.2630  0.2785
  673SOL     OW 2017   0.147   1.238   1.096 -0.5657  0.3630 -1.0675
  673SOL    HW1 2018   0.175   1.328   1.142  1.9485  0.2399  0.9792
  673SOL    HW2 2019   0.231   1.178   1.072  1.8740 -2.0453 -2.3443
  674SOL     OW 2020   1.548   2.892   0.149  0.4291  0.3269 -0.2255
  674SOL    HW1 2021   1.573   2.991   0.133  0.2328 -0.5613  3.1703
  674SOL    HW2 2022   1.630   2.828   0.125  2.3621 -0.5008  0.4205
  675SOL     OW 2023   1.720   0.884   2.375 -0.3073  0.3878 -0.2229
  675SOL    HW1 2024   1.817   0.856   2.365 -0.7822  0.2154  0.6097
  675SOL    HW2 2025   1.659   0.816   2.329  2.9011  1.3039 -0.3891
  676SOL     OW 2026   2.501   1.518   2.039  0.2070  0.0322 -0.2674
  676SOL    HW1 2027   2.483   1.475   1.942  0.6206 -0.1359 -1.6228
  676SOL    HW2 2028   2.540   1.447   2.102  0.9552  2.3667  1.0540
  677SOL     OW 2029   1.882   0.559   0.916  0.6274  0.0239 -0.4263
  677SOL    HW1 2030   1.886   0.632   0.985  0.6816 -3.4417 -0.9169
  677SOL    HW2 2031   1.818   0.479   0.941  2.5017 -0.6826 -2.9678
  678SOL     OW 2032   0.089   0.817   1.656  0.1593 -0.4691 -0.1190
  678SOL    HW1 2033   0.193   0.817   1.683  0.3118 -1.6240  1.1677
  678SOL    HW2 2034   0.023   0.816   1.739 -0.9650 -0.9147  1.3806
  679SOL     OW 2035   2.470   1.197   1.151 -0.5470  0.2741  0.3540
  679SOL    HW1 2036   2.407   1.185   1.235 -1.3110  0.4040 -1.3327
  679SOL    HW2 2037   2.454   1.123   1.077 -0.8184  0.3628  0.0737
  680SOL     OW 2038   2.874   0.647   1.692  0.4194 -0.1375  0.1944
  680SOL    HW1 2039   2.808   0.689   1.625 -1.4703 -0.8899  2.4478
  680SOL    HW2 2040   2.939   0.717   1.737 -2.1446 -1.5050  1.5368
  681SOL     OW 2041   3.071   0.143   1.638  0.5029  0.0168 -0.0443
  681SOL    HW1 2042   3.140   0.116   1.567  0.8546 -2.3178  0.9002
  681SOL    HW2 2043   3.022   0.236   1.618 -1.4496 -0.7603 -1.7601
  682SOL     OW 2044   0.727   3.084   1.370 -0.2929  0.1288 -0.6780
  682SOL    HW1 2045   0.645   3.018   1.383 -0.6529  3.0609 -1.6775
  682SOL    HW2 2046   0.749   3.091   1.266 -0.3472 -1.7538  1.3137
  683SOL     OW 2047   1.392   0.241   2.177  0.0879 -0.3248 -0.0760
  683SOL    HW1 2048   1.407   0.281   2.275 -0.9442  0.7139  0.8945
  683SOL    HW2 2049   1.465   0.271   2.108  1.5182  1.5766  0.8800
  684SOL     OW 2050   1.449   2.123   0.470  0.3815  0.3110  0.2992
  684SOL    HW1 2051   1.511   2.062   0.528  0.7728  0.7325  0.5311
  684SOL    HW2 2052   1.363   2.074   0.441  1.6090  0.0477 -0.5810
  685SOL     OW 2053   2.133   1.949   1.952  0.8674 -0.1733 -0.1886
  685SOL    HW1 2054   2.200   2.014   1.910  0.1440 -0.0317  1.0143
  685SOL    HW2 2055   2.174   1.868   2.000  0.4210  2.0795  0.4433
  686SOL     OW 2056   1.529   1.734   2.773 -0.3954 -0.5748 -0.4937
  686SOL    HW1 2057   1.502   1.637   2.770  2.1049  1.8399 -0.3961
  686SOL    HW2 2058   1.566   1.761   2.865 -0.2171  0.6672 -0.1709
  687SOL     OW 2059   1.346   2.510   1.901 -0.2951 -0.3391 -0.0646
  687SOL    HW1 2060   1.357   2.426   1.844  0.0359 -0.3963 -3.3095
  687SOL    HW2 2061   1.412   2.509   1.983  0.3912 -2.0634  1.4202
  688SOL     OW 2062   2.072   1.507   1.593 -0.5054  0.2963 -0.2335
  688SOL    HW1 2063   2.168   1.541   1.582  0.9480 -2.3170 -0.8509
  688SOL    HW2 2064   2.030   1.466   1.507  0.8564  0.6013  1.8586
  689SOL     OW 2065   2.432   1.072   2.695 -0.1990 -0.4653 -0.1844
  689SOL    HW1 2066   2.348   1.029   2.730  1.8879  0.0780  1.2147
  689SOL    HW2 2067   2.504   1.067   2.768  0.6852 -0.6369  0.5452
  690SOL     OW 2068   2.218   2.761   3.069 -0.0694  0.1792 -0.3642
  690SOL    HW1 2069   2.147   2.717   3.008  1.7972  2.6977 -0.5718
  690SOL    HW2 2070   2.179   2.801   3.152  3.3466 -0.2433  1.0135
  691SOL     OW 2071   2.584   0.466   2.169 -0.3249 -0.2273  0.0537
  691SOL    HW1 2072   2.643   0.395   2.117  1.4978  0.2371  2.2227
  691SOL    HW2 2073   2.609   0.561   2.133  2.1782 -1.5887  1.4737
  692SOL     OW 2074   2.740   1.233   0.674 -0.2443  0.8207 -0.1887
  692SOL    HW1 2075   2.639   1.235   0.682  2.0391  0.9639  0.9852
  692SOL    HW2 2076   2.781   1.308   0.738 -0.1058 -0.9806  1.2194
  693SOL     OW 2077   2.850   2.922   0.605 -0.4174 -0.1172  0.2885
  693SOL    HW1 2078   2.863   3.017   0.649 -0.4452 -1.0106 -1.9376
  693SOL    HW2 2079   2.789   2.933   0.523  0.4099  0.0801  1.9001
  694SOL     OW 2080   2.380   2.117   0.078 -0.1578  0.4252 -0.1372
  694SOL    HW1 2081   2.351   2.222   0.067  0.3901  1.7305  1.0051
  694SOL    HW2 2082   2.301   2.052   0.072  0.6691 -3.0042  1.1641
  695SOL     OW 2083   0.553   2.904   1.475  0.0586 -0.2187 -0.0465
  695SOL    HW1 2084   0.487   2.826   1.447  1.6559  2.1248 -0.7752
  695SOL    HW2 2085   0.526   2.943   1.567 -1.5149 -0.2887 -1.0819
  696SOL     OW 2086   2.731   1.964   0.647  0.0819  0.3062 -0.4622
  696SOL    HW1 2087   2.753   1.864   0.681 -0.2867 -2.7871 -2.2359
  696SOL    HW2 2088   2.644   1.963   0.587 -0.7960  0.6711 -2.0408
  697SOL     OW 2089   1.672   2.068   1.724 -0.1272 -0.3913 -0.3579
  697SOL    HW1 2090   1.751   2.019   1.768  0.1572 -0.1864 -1.4166
  697SOL    HW2 2091   1.703   2.097   1.631  0.5737 -1.1796  1.2221
  698SOL     OW 2092   2.916   0.314   2.784  0.2726 -0.1488 -0.0473
  698SOL    HW1 2093   2.908   0.318   2.685 -0.0615  0.3545 -0.2878
  698SOL    HW2 2094   2.992   0.253   2.820 -0.9883 -1.0499  2.0305
  699SOL     OW 2095   1.526   0.115   2.929 -0.0686 -0.4104  0.0767
  699SOL    HW1 2096   1.504   0.017   2.906  2.7263 -0.2195  1.3310
  699SOL    HW2 2097   1.582   0.159   2.853 -3.5306 -1.2325 -1.7409
  700SOL     OW 2098   0.987   2.370   1.408  0.0600  0.3944 -0.0334
  700SOL    HW1 2099   1.056   2.303   1.381 -1.2811  2.3209 -0.6692
  700SOL    HW2 2100   0.902   2.378   1.345 -1.5020  0.5847 -0.0589
  701SOL     OW 2101   1.867   2.811   0.022 -0.1178 -0.2715 -0.1484
  701SOL    HW1 2102   1.899   2.756   0.104  0.2070  1.3014  1.8590
  701SOL    HW2 2103   1.900   2.912   0.022 -0.1059 -1.3328 -1.7074
  702SOL     OW 2104   2.080   1.377   1.843  0.0910 -0.4963 -0.9005
  702SOL    HW1 2105   2.172   1.335   1.849 -2.4728 -0.5808  1.8236
  702SOL    HW2 2106   2.068   1.436   1.754 -1.8856 -0.6294 -1.0881
  703SOL     OW 2107   2.002   0.858   1.467  0.0162  0.4444  0.0627
  703SOL    HW1 2108   1.979   0.763   1.501 -2.1698 -0.7028  0.3336
  703SOL    HW2 2109   2.074   0.906   1.526 -0.0559  1.7907 -1.2384
  704SOL     OW 2110   0.294   2.060   1.785 -0.7512  0.2503 -0.0826
  704SOL    HW1 2111   0.293   1.976   1.848 -3.5100  0.0717  2.2347
  704SOL    HW2 2112   0.395   2.096   1.772 -0.5077 -0.0583 -0.5567
  705SOL     OW 2113   2.539   1.417   0.839 -0.3241 -0.2201  0.4808
  705SOL    HW1 2114   2.439   1.396   0.862  3.1693 -2.3156  0.6349
  705SOL    HW2 2115   2.605   1.379   0.906  0.0988 -0.9239 -0.8087
  706SOL     OW 2116   0.642   1.764   1.904 -0.4214 -0.1738 -0.3826
  706SOL    HW1 2117   0.655   1.680   1.970 -1.4663  1.8344 -1.9251
  706SOL    HW2 2118   0.716   1.831   1.923 -0.5912 -1.7601 -2.7079
  707SOL     OW 2119   2.319   1.249   1.947  0.3256  0.1526 -0.2794
  707SOL    HW1 2120   2.418   1.233   1.933  0.6468  0.1648 -0.9080
  707SOL    HW2 2121   2.266   1.159   1.942  0.6505  0.4420 -0.2515
  708SOL     OW 2122   3.062   0.517   3.041 -0.2473  0.5436 -0.3285
  708SOL    HW1 2123   3.133   0.578   2.993 -0.5945 -1.0238  1.8485
  708SOL    HW2 2124   3.022   0.438   2.982  2.1935  1.8864  3.2900
  709SOL     OW 2125   1.765   1.864   0.263 -0.3310 -0.0972 -0.9313
  709SOL    HW1 2126   1.831   1.935   0.301  0.5665  1.6374  0.9941
  709SOL    HW2 2127   1.751   1.874   0.159  3.3371  1.2819  1.0861
  710SOL     OW 2128   1.770   1.667   2.447  0.2938  0.2771 -0.4716
  710SOL    HW1 2129   1.823   1.624   2.374 -1.7785  0.3655  2.2965
  710SOL    HW2 2130   1.785   1.625   2.538  0.1461 -0.7990 -1.2781
  711SOL     OW 2131   2.609   2.932   0.964 -0.1547 -0.6371 -0.1132
  711SOL    HW1 2132   2.632   3.028   0.944 -0.3360 -0.8343  1.9514
  711SOL    HW2 2133   2.686   2.876   0.998 -2.6302  0.6326  0.7047
  712SOL     OW 2134   1.489   2.287   1.782  0.4199  0.5505  0.1646
  712SOL    HW1 2135   1.566   2.223   1.814 -0.6789 -0.5740 -0.7056
  712SOL    HW2 2136   1.436   2.255   1.701  0.3624 -0.2194  0.8996
  713SOL     OW 2137   2.836   1.361   2.471 -0.1257 -0.2948 -0.0708
  713SOL    HW1 2138   2.812   1.262   2.467  1.0223  1.1237 -0.2976
  713SOL    HW2 2139   2.779   1.418   2.543  1.8340 -1.2596  0.1362
  714SOL     OW 2140   2.691   0.441   2.452  0.7297 -0.3646 -0.4298
  714SOL    HW1 2141   2.622   0.431   2.529  0.8897 -0.5287 -1.5317
  714SOL    HW2 2142   2.645   0.425   2.359  0.4887  2.7474  0.2629
  715SOL     OW 2143   1.639   2.136   1.109  0.3382  0.1367 -0.2061
  715SOL    HW1 2144   1.555   2.189   1.074 -0.1530 -1.1931 -0.3877
  715SOL    HW2 2145   1.645   2.148   1.211 -0.7639  2.0335 -0.5818
  716SOL     OW 2146   1.226   0.214   1.458  0.1523 -0.0570  0.0269
  716SOL    HW1 2147   1.123   0.207   1.472  0.0544 -1.7472  0.1845
  716SOL    HW2 2148   1.256   0.313   1.433 -1.5925  0.5575 -2.6276
  717SOL     OW 2149   1.046   0.611   1.588 -0.1547  0.1798 -0.3211
  717SOL    HW1 2150   1.144   0.640   1.611  0.1615  0.6769  1.3982
  717SOL    HW2 2151   1.039   0.580   1.489  1.4255 -1.6302 -2.1163
  718SOL     OW 2152   0.657   1.081   0.997 -0.2423 -0.2929  0.4793
  718SOL    HW1 2153   0.606   1.077   0.908 -0.6964  1.3241 -1.4491
  718SOL    HW2 2154   0.717   1.165   1.005  1.8690  0.5451  1.6332
  719SOL     OW 2155   0.739   1.824   2.235 -0.3661 -0.5842 -0.4673
  719SOL    HW1 2156   0.803   1.854   2.317  1.5770  2.2694  3.0408
  719SOL    HW2 2157   0.648   1.873   2.222  0.4799 -2.5049  0.3653
  720SOL     OW 2158   2.260   1.138   0.218  0.1496 -0.0007 -0.3111
  720SOL    HW1 2159   2.363   1.144   0.198 -0.5280  0.2545  1.5370
  720SOL    HW2 2160   2.244   1.134   0.323 -0.3631 -0.7437 -0.8887
  721SOL     OW 2161   2.228   0.025   2.028  0.4229 -0.2373 -0.8708
  721SOL    HW1 2162   2.273   0.097   1.968  0.4112  0.1375  0.7196
  721SOL    HW2 2163   2.129   0.006   2.010  0.9157  0.6181  0.5043
  722SOL     OW 2164   2.365   1.657   0.499  0.0459 -0.3715 -0.0385
  722SOL    HW1 2165   2.363   1.591   0.423  1.4521 -2.7332  0.5730
  722SOL    HW2 2166   2.275   1.674   0.546  0.0234 -0.4876  0.5675
  723SOL     OW 2167   2.564   2.847   1.897  0.0287  0.2476  0.3637
  723SOL    HW1 2168   2.632   2.869   1.970 -0.0851  0.4911 -3.7927
  723SOL    HW2 2169   2.464   2.873   1.922 -1.4753 -0.0076  0.4306
  724SOL     OW 2170   0.348   2.423   2.384 -0.6228  0.1838 -1.2229
  724SOL    HW1 2171   0.255   2.469   2.389  0.1023 -1.2039  1.3294
  724SOL    HW2 2172   0.383   2.404   2.476 -2.6503  0.2281 -0.5237
  725SOL     OW 2173   2.262   2.773   1.461 -0.0213  0.3920  0.4096
  725SOL    HW1 2174   2.328   2.801   1.385 -1.8618  0.9908 -1.6806
  725SOL    HW2 2175   2.303   2.689   1.498  0.4657 -1.6086 -1.4454
  726SOL     OW 2176   2.387   2.241   0.801  0.1039  0.3379  0.2562
  726SOL    HW1 2177   2.380   2.343   0.809 -0.5971 -1.7729 -2.1637
  726SOL    HW2 2178   2.322   2.203   0.726 -0.6352  0.0789  0.0885
  727SOL     OW 2179   0.235   3.065   0.162  0.0785 -0.5384  0.1411
  727SOL    HW1 2180   0.247   2.971   0.113 -0.9380  0.0725 -0.5668
  727SOL    HW2 2181   0.282   3.139   0.107 -0.4020 -0.7404 -0.1084
  728SOL     OW 2182   2.848   0.685   1.024  0.6501 -0.6260 -0.7253
  728SOL    HW1 2183   2.759   0.671   0.971  0.6510 -3.0541  0.7209
  728SOL    HW2 2184   2.844   0.661   1.124  2.3705  0.3999 -0.4726
  729SOL     OW 2185   2.921   2.466   0.750  0.6431  0.0815 -0.4068
  729SOL    HW1 2186   2.872   2.375   0.746  1.9048  0.2605  0.5218
  729SOL    HW2 2187   3.022   2.457   0.756  2.3248  1.5174 -0.1037
  730SOL     OW 2188   2.613   0.593   0.874  0.0448  0.5288 -0.3673
  730SOL    HW1 2189   2.557   0.662   0.825  2.6032  2.5292  4.1261
  730SOL    HW2 2190   2.684   0.542   0.824 -1.2511 -2.4549  0.5683
  731SOL     OW 2191   0.068   2.113   2.455  0.3541 -0.1351 -0.1431
  731SOL    HW1 2192   0.110   2.160   2.541 -0.9644 -2.0877 -2.0535
  731SOL    HW2 2193  -0.030   2.109   2.446  0.7963 -0.6860 -2.0802
  732SOL     OW 2194   1.115   2.827   1.974 -0.1735  0.0247 -0.1024
  732SOL    HW1 2195   1.141   2.770   2.060 -0.9291 -1.8823 -1.3818
  732SOL    HW2 2196   1.158   2.791   1.885 -0.8288 -0.0376 -1.3929
  733SOL     OW 2197   3.035   0.710   2.107 -0.1256 -0.5088  0.3405
  733SOL    HW1 2198   3.119   0.774   2.110  2.0126 -2.2796 -0.0747
  733SOL    HW2 2199   3.057   0.612   2.072 -0.7328 -0.6533 -1.4594
  734SOL     OW 2200   1.397   0.360   2.705 -0.3595  0.1723  0.2697
  734SOL    HW1 2201   1.430   0.447   2.758 -1.2075  0.9808 -0.5928
  734SOL    HW2 2202   1.325   0.309   2.759 -1.4317 -0.9339 -1.2783
  735SOL     OW 2203   2.816   2.605   2.273 -0.0200  0.6159  0.1675
  735SOL    HW1 2204   2.739   2.626   2.212 -1.6970 -0.2977  1.7314
  735SOL    HW2 2205   2.910   2.605   2.226 -0.0869 -0.7673 -2.5914
  736SOL     OW 2206   0.783   0.388   2.650  0.2000  0.3896 -0.3010
  736SOL    HW1 2207   0.730   0.477   2.640 -2.5694  2.4203 -2.3234
  736SOL    HW2 2208   0.818   0.347   2.564 -0.0759  1.1703  0.5881
  737SOL     OW 2209   2.712   0.478   2.816 -0.0841  0.8050  0.0614
  737SOL    HW1 2210   2.691   0.475   2.922 -0.0941  1.0997  2.4353
  737SOL    HW2 2211   2.799   0.421   2.798  2.7223 -0.1831  1.4368
  738SOL     OW 2212   1.653   1.189   3.017  0.0733 -0.6344 -0.4253
  738SOL    HW1 2213   1.756   1.192   2.988 -0.9621 -0.8075 -2.6430
  738SOL    HW2 2214   1.602   1.101   3.009 -0.9524 -0.0901  3.0445
  739SOL     OW 2215   1.746   0.597   0.686  0.2132 -0.8738 -0.3194
  739SOL    HW1 2216   1.798   0.600   0.777 -0.1926  0.0332 -0.1963
  739SOL    HW2 2217   1.794   0.550   0.608 -0.5195 -0.1875  1.2426
  740SOL     OW 2218   1.908   1.993   2.148 -0.2009  0.6113  0.1669
  740SOL    HW1 2219   1.987   1.987   2.079  0.5985  1.0615  2.2306
  740SOL    HW2 2220   1.821   1.949   2.118 -1.4435  1.4501 -1.2911
  741SOL     OW 2221   2.499   0.132   2.547  0.3069 -0.7193 -0.2471
  741SOL    HW1 2222   2.598   0.092   2.549  0.2160 -0.7505 -0.2066
  741SOL    HW2 2223   2.444   0.093   2.469  1.3786  0.2540  1.1778
  742SOL     OW 2224   2.262   1.370   0.063  0.1437  0.2383 -1.1412
  742SOL    HW1 2225   2.202   1.454   0.035 -2.5803  1.5930 -0.2189
  742SOL    HW2 2226   2.207   1.308   0.127  0.2407  1.2782  2.8203
  743SOL     OW 2227   1.751   0.637   2.635 -0.1547  0.1377  0.9240
  743SOL    HW1 2228   1.777   0.584   2.549  1.1121  0.5012 -2.3360
  743SOL    HW2 2229   1.670   0.699   2.613  0.9511  1.5101 -1.4957
  744SOL     OW 2230   2.647   2.067   0.010  0.5354 -0.9339  0.1441
  744SOL    HW1 2231   2.552   2.106   0.029 -1.6800  1.1859 -0.7951
  744SOL    HW2 2232   2.697   2.028   0.094  1.4364 -0.7093  0.2003
  745SOL     OW 2233   2.199   2.710   2.199  0.2978 -0.5866 -0.0331
  745SOL    HW1 2234   2.106   2.683   2.171 -0.5145  2.9893 -1.2075
  745SOL    HW2 2235   2.203   2.748   2.297  0.9380  0.3294  0.3941
  746SOL     OW 2236   0.005   2.614   1.848 -0.0813  0.1071  0.1693
  746SOL    HW1 2237   0.108   2.606   1.830 -0.8755 -3.3197  0.7232
  746SOL    HW2 2238  -0.026   2.712   1.873 -0.3957  0.5995 -1.0959
  747SOL     OW 2239   0.019   1.817   1.726 -0.1174 -0.1774 -0.2635
  747SOL    HW1 2240  -0.024   1.725   1.705 -0.9793  0.2276 -1.1486
  747SOL    HW2 2241   0.096   1.841   1.657 -0.0054 -1.5056  0.7356
  748SOL     OW 2242   1.761   2.753   2.884  0.1020 -0.2068 -0.3209
  748SOL    HW1 2243   1.781   2.778   2.984  2.6901 -1.1159  0.5117
  748SOL    HW2 2244   1.664   2.776   2.857 -3.2433 -1.0785 -1.6322
  749SOL     OW 2245   1.282   0.060   0.878  0.2605 -0.1976  0.2283
  749SOL    HW1 2246   1.212  -0.016   0.898 -0.0640 -0.2861  0.9498
  749SOL    HW2 2247   1.299   0.072   0.777 -3.1550 -1.7531  0.9892
  750SOL     OW 2248   2.310   0.238   1.885 -0.9437  0.5067 -0.2164
  750SOL    HW1 2249   2.361   0.293   1.817 -1.4908 -3.5042  2.3932
  750SOL    HW2 2250   2.293   0.286   1.975  0.0984  0.1430  0.9166
  751SOL     OW 2251   0.826   2.238   2.863 -0.0565  0.3120  0.3321
  751SOL    HW1 2252   0.912   2.232   2.927  1.2049  1.5270 -1.3822
  751SOL    HW2 2253   0.764   2.155   2.874  2.1270 -2.2363  1.1824
  752SOL     OW 2254   1.238   0.940   1.538  0.1517 -0.0464  0.2413
  752SOL    HW1 2255   1.306   0.968   1.467 -0.0530 -0.3343  1.2435
  752SOL    HW2 2256   1.260   0.845   1.574 -0.6541 -1.1442 -1.5628
  753SOL     OW 2257   0.930   2.625   1.800  0.1361  0.8812 -0.6811
  753SOL    HW1 2258   1.026   2.657   1.767 -1.6831  0.8831 -1.1894
  753SOL    HW2 2259   0.863   2.700   1.771 -0.7326  0.3727  0.4172
  754SOL     OW 2260   1.157   1.286   3.059  0.0163  0.5007  0.1505
  754SOL    HW1 2261   1.190   1.231   2.979 -0.1336 -0.3316 -1.1932
  754SOL    HW2 2262   1.129   1.384   3.032 -1.1594 -0.9499  1.3813
  755SOL     OW 2263   2.024   0.536   2.209  0.2787 -0.2134  0.2910
  755SOL    HW1 2264   2.077   0.470   2.275  0.4400 -1.5451 -0.1963
  755SOL    HW2 2265   1.925   0.536   2.238  0.1566 -2.4712 -0.8498
  756SOL     OW 2266   2.635   0.977   2.922  0.0631  0.3113  0.1375
  756SOL    HW1 2267   2.716   0.918   2.901  1.4395 -1.1489 -0.3695
  756SOL    HW2 2268   2.565   0.927   2.982 -0.5907  0.3097  0.0607
  757SOL     OW 2269   0.091   0.526   1.694  0.0663 -0.5694  0.5603
  757SOL    HW1 2270   0.125   0.623   1.690 -2.6928 -0.9448 -0.2621
  757SOL    HW2 2271   0.111   0.477   1.601 -1.5973 -0.6187 -0.1855
  758SOL     OW 2272   2.449   0.003   1.514  0.7878  0.3208 -0.0479
  758SOL    HW1 2273   2.367  -0.042   1.561 -0.2367  1.9316 -0.5083
  758SOL    HW2 2274   2.434   0.011   1.414  0.1728 -1.1219  2.2214
  759SOL     OW 2275   1.663   0.049   0.054  0.2577  0.7986 -0.4266
  759SOL    HW1 2276   1.625   0.081  -0.036 -2.0534  0.6619 -0.4914
  759SOL    HW2 2277   1.757   0.014   0.040 -1.0329 -0.8635 -0.2549
  760SOL     OW 2278   2.733   1.993   2.817  0.0790 -0.8130 -0.2079
  760SOL    HW1 2279   2.765   1.897   2.799 -1.6262  1.3421 -1.2794
  760SOL    HW2 2280   2.801   2.070   2.800 -2.2112  2.5353  1.4648
  761SOL     OW 2281   1.909   1.718   1.597  0.0902 -0.1968 -0.1157
  761SOL    HW1 2282   1.970   1.631   1.613 -0.6798 -2.6487  0.4473
  761SOL    HW2 2283   1.824   1.695   1.544  0.4201  1.0786  1.9309
  762SOL     OW 2284   0.534   2.421   0.986 -0.0790  0.0306  0.4594
  762SOL    HW1 2285   0.571   2.448   0.894 -2.5048  3.5018  0.5555
  762SOL    HW2 2286   0.548   2.500   1.059  1.3902  1.0275  3.3442
  763SOL     OW 2287   2.009   1.578   2.947 -0.4654  0.0325  0.3826
  763SOL    HW1 2288   2.063   1.518   2.876  0.5284 -0.3458  2.1895
  763SOL    HW2 2289   1.940   1.518   2.998  0.6290 -0.2310 -2.0739
  764SOL     OW 2290   0.668   0.548   0.866  0.0341  0.4654 -0.1717
  764SOL    HW1 2291   0.682   0.524   0.766  0.4568  0.3242 -0.4435
  764SOL    HW2 2292   0.760   0.564   0.918  2.4088  1.7901 -3.0362
  765SOL     OW 2293   0.658   0.199   0.805  0.3934 -0.0386  0.1308
  765SOL    HW1 2294   0.760   0.195   0.781  0.0115  1.7771  0.6306
  765SOL    HW2 2295   0.646   0.228   0.904 -0.3512  0.6374 -0.0620
  766SOL     OW 2296   2.953   2.022   3.048  0.5319 -0.0959 -0.3833
  766SOL    HW1 2297   2.852   2.026   3.023 -0.9933 -3.2119 -1.2065
  766SOL    HW2 2298   3.013   2.095   3.001  0.4792 -1.6220 -0.9016
  767SOL     OW 2299   2.854   1.576   0.509 -0.0583 -0.1670  0.7614
  767SOL    HW1 2300   2.754   1.572   0.546  1.1147  4.0085  1.0512
  767SOL    HW2 2301   2.928   1.591   0.583  1.1991 -0.0761  0.9311
  768SOL     OW 2302   1.052   0.286   0.295 -0.3761  0.5786  0.5963
  768SOL    HW1 2303   0.968   0.223   0.323 -3.6807 -0.1340 -1.9065
  768SOL    HW2 2304   1.142   0.235   0.295  1.0400 -1.6237  0.8494
  769SOL     OW 2305   1.240   1.826   2.313 -0.1948  0.2297 -0.2179
  769SOL    HW1 2306   1.329   1.789   2.345  1.7807 -2.1006 -1.9774
  769SOL    HW2 2307   1.172   1.749   2.283  4.0237  0.2607 -0.8077
  770SOL     OW 2308   0.148   1.144   2.346  0.5995  0.1943  0.0585
  770SOL    HW1 2309   0.143   1.202   2.427  1.2682 -1.7068 -1.2902
  770SOL    HW2 2310   0.060   1.127   2.299 -1.4593 -1.7661  0.5571
  771SOL     OW 2311   2.956   2.814   1.939  0.0485 -0.2098  0.3394
  771SOL    HW1 2312   2.969   2.896   1.869  0.6381  1.2116 -1.4381
  771SOL    HW2 2313   2.897   2.831   2.019  3.0308 -3.5358 -0.9457
  772SOL     OW 2314   2.122   0.108   2.991  0.0691 -0.0129  0.0127
  772SOL    HW1 2315   2.205   0.046   3.010  1.7818  0.2477  0.5248
  772SOL    HW2 2316   2.130   0.197   3.047 -0.8903  0.1125  0.2059
  773SOL     OW 2317   0.688   2.119   2.484  0.8386  0.4613 -0.0725
  773SOL    HW1 2318   0.650   2.177   2.405 -0.1673 -1.3511 -0.7959
  773SOL    HW2 2319   0.612   2.102   2.552  0.0513 -0.5561 -3.2994
  774SOL     OW 2320   2.021   3.095   2.670 -0.1554  0.9051  0.3453
  774SOL    HW1 2321   2.014   3.190   2.709  2.5939  2.7756  1.3667
  774SOL    HW2 2322   2.079   3.032   2.731  0.7054  3.5308  0.4406
  775SOL     OW 2323   2.490   2.879   2.380  0.2792  0.1236  0.2293
  775SOL    HW1 2324   2.442   2.959   2.332 -0.5279  0.4453 -1.5203
  775SOL    HW2 2325   2.584   2.898   2.419  1.5579  0.3534  2.0615
  776SOL     OW 2326   0.012   1.210   0.247 -0.2362 -0.0737  0.2477
  776SOL    HW1 2327  -0.037   1.221   0.153  1.3278 -1.9877 -0.6859
  776SOL    HW2 2328  -0.059   1.221   0.322  0.1297 -2.1519  1.6255
  777SOL     OW 2329   0.296   2.675   0.436  0.4462 -0.6751 -0.5896
  777SOL    HW1 2330   0.194   2.652   0.428  0.6016 -1.2129 -1.0289
  777SOL    HW2 2331   0.304   2.780   0.436 -0.2828  0.8424 -1.1292
  778SOL     OW 2332   1.323   1.938   0.187 -0.2296 -0.1085 -0.1001
  778SOL    HW1 2333   1.254   1.955   0.264 -0.5357 -2.0371 -0.8885
  778SOL    HW2 2334   1.369   2.027   0.152  0.8967 -0.0585 -0.0220
  779SOL     OW 2335   0.173   0.826   0.539 -0.5759  0.4322  0.0069
  779SOL    HW1 2336   0.151   0.727   0.515  1.8128 -0.5120  2.0759
  779SOL    HW2 2337   0.105   0.876   0.601 -0.8086  1.4648  2.1898
  780SOL     OW 2338   0.005   0.310   2.359 -0.1004 -0.1628  0.1076
  780SOL    HW1 2339  -0.041   0.405   2.351 -1.7172 -0.5354 -1.9169
  780SOL    HW2 2340   0.106   0.308   2.323  1.1062 -0.0814 -1.0519
  781SOL     OW 2341   0.586   1.764   1.612 -0.3786  0.1277  0.3047
  781SOL    HW1 2342   0.616   1.742   1.709  3.2038  1.3820 -2.7105
  781SOL    HW2 2343   0.483   1.741   1.595 -2.8442  1.2334  2.1957
  782SOL     OW 2344   2.644   0.137   0.886 -0.3078  0.4345  0.2643
  782SOL    HW1 2345   2.565   0.115   0.826  0.5471 -2.5534  3.3012
  782SOL    HW2 2346   2.611   0.161   0.979 -0.8071  0.0906 -1.0790
  783SOL     OW 2347   2.808   0.668   2.505 -0.1189 -0.1284  0.4125
  783SOL    HW1 2348   2.779   0.715   2.596  0.4434  3.2287  1.2153
  783SOL    HW2 2349   2.765   0.579   2.477  1.1958  0.5895 -0.6307
  784SOL     OW 2350   1.384   2.199   0.027  0.2035  0.5666  0.2529
  784SOL    HW1 2351   1.479   2.212   0.068 -2.8427  1.6061 -0.8513
  784SOL    HW2 2352   1.379   2.164  -0.075 -0.1793 -1.4425 -1.5153
  785SOL     OW 2353   2.155   0.336   0.011  0.4045 -0.3571  0.0312
  785SOL    HW1 2354   2.067   0.348   0.066 -0.8423  0.9387  0.5269
  785SOL    HW2 2355   2.199   0.417  -0.030  2.1083 -0.2151 -0.7796
  786SOL     OW 2356   2.041   2.184   2.277 -0.2585  0.1397 -0.9524
  786SOL    HW1 2357   1.969   2.119   2.251  2.7604  2.0068  1.8839
  786SOL    HW2 2358   2.132   2.133   2.283 -1.7099  2.1980 -2.9179
  787SOL     OW 2359   1.418   0.616   0.776 -0.4022  0.2059  0.2216
  787SOL    HW1 2360   1.460   0.706   0.771  2.4473 -2.2513 -3.2088
  787SOL    HW2 2361   1.423   0.560   0.686 -0.5960  0.6536 -0.5253
  788SOL     OW 2362   1.212   0.468   2.986 -0.0800 -0.2830 -0.2686
  788SOL    HW1 2363   1.109   0.496   2.995  0.1324  2.6678  1.2800
  788SOL    HW2 2364   1.256   0.519   2.909  0.2128 -0.1932 -4.2227
  789SOL     OW 2365   2.670   0.083   1.878 -0.1554  0.0914  0.0334
  789SOL    HW1 2366   2.569   0.117   1.869 -0.2235 -1.6079 -1.6308
  789SOL    HW2 2367   2.672  -0.019   1.891  0.0975 -1.8634  0.3954
  790SOL     OW 2368   2.617   2.652   0.819  0.1331 -0.3719  0.0975
  790SOL    HW1 2369   2.694   2.676   0.751 -1.3953  1.2690  2.0652
  790SOL    HW2 2370   2.594   2.734   0.872 -2.9008 -0.4887 -0.9900
  791SOL     OW 2371   1.956   1.206   0.201 -0.0939  0.1177 -0.6072
  791SOL    HW1 2372   1.873   1.150   0.236 -1.4055 -1.6085 -1.6958
  791SOL    HW2 2373   2.038   1.149   0.211 -1.5969  3.0871 -0.1752
  792SOL     OW 2374   0.437   1.971   2.202  0.3613  0.3431  0.2923
  792SOL    HW1 2375   0.457   2.074   2.201  1.6914 -1.5359  0.4101
  792SOL    HW2 2376   0.362   1.943   2.273 -0.0375 -0.0549  1.0526
  793SOL     OW 2377   2.095   1.496   2.099 -0.0394  0.2883 -0.3914
  793SOL    HW1 2378   2.196   1.529   2.093  2.7375  0.1834  2.6050
  793SOL    HW2 2379   2.069   1.447   2.016 -4.2164 -0.9214 -1.8059
  794SOL     OW 2380   0.537   1.523   2.452  0.7035  0.1278 -0.0090
  794SOL    HW1 2381   0.603   1.465   2.398 -2.3685 -0.2580 -1.2610
  794SOL    HW2 2382   0.467   1.555   2.388 -0.3005  1.7679  2.1392
  795SOL     OW 2383   2.487   2.292   1.804 -0.5184 -0.1998 -0.0064
  795SOL    HW1 2384   2.488   2.344   1.893 -0.9114  0.7086  2.1100
  795SOL    HW2 2385   2.418   2.217   1.802 -0.2068  3.4124  1.0326
  796SOL     OW 2386   3.050   1.095   2.704  0.2017  0.3996 -0.1346
  796SOL    HW1 2387   2.955   1.111   2.740  3.0654 -1.0444 -1.1000
  796SOL    HW2 2388   3.126   1.122   2.772 -1.4901  0.0242 -0.0622
  797SOL     OW 2389   0.661   0.642   1.364  0.3305 -0.2554  0.1827
  797SOL    HW1 2390   0.734   0.696   1.419 -1.4443  1.8534 -0.1727
  797SOL    HW2 2391   0.612   0.700   1.292  1.4530  2.0929  2.2865
  798SOL     OW 2392   1.187   0.519   0.912  0.0854 -0.0849  0.2716
  798SOL    HW1 2393   1.219   0.539   1.012  0.6216  1.9178  2.2627
  798SOL    HW2 2394   1.264   0.535   0.847 -1.1293  2.6152  0.3134
  799SOL     OW 2395   1.829   2.698   0.984 -0.5453  0.0971  0.1229
  799SOL    HW1 2396   1.830   2.597   1.020  0.3533 -1.9951 -0.6334
  799SOL    HW2 2397   1.888   2.722   0.902  1.9356  2.3703  2.6518
  800SOL     OW 2398   3.013   0.843   1.856  0.3253 -0.1532 -0.0047
  800SOL    HW1 2399   3.035   0.947   1.862 -0.5167  1.1623 -1.1903
  800SOL    HW2 2400   3.007   0.801   1.954  0.8846 -2.1498 -0.1218
  801SOL     OW 2401   1.956   2.167   0.105 -0.0463 -0.3426  0.2895
  801SOL    HW1 2402   1.898   2.156   0.019  0.6653  0.9927 -0.7267
  801SOL    HW2 2403   2.021   2.086   0.115  0.6550 -1.0678 -2.5732
  802SOL     OW 2404   0.675   0.641   2.573 -0.2595  0.1860  0.5232
  802SOL    HW1 2405   0.728   0.645   2.481  0.5323  0.0032 -0.1209
  802SOL    HW2 2406   0.570   0.650   2.563 -1.0451  0.4484  2.0478
  803SOL     OW 2407   0.936   0.080   0.890  0.3148  0.3917 -0.0166
  803SOL    HW1 2408   0.961   0.156   0.953 -0.4310 -1.1871 -1.7806
  803SOL    HW2 2409   0.927   0.120   0.794 -0.7709  0.3876  0.2788
  804SOL     OW 2410   0.281   0.055   2.177  0.0847 -0.0249  0.2790
  804SOL    HW1 2411   0.254   0.156   2.190  2.4905  3.0683  0.3367
  804SOL    HW2 2412   0.217   0.005   2.110 -2.1226 -0.5956 -0.4949
  805SOL     OW 2413   2.411   0.391   0.331  0.1580 -0.2290  0.0371
  805SOL    HW1 2414   2.479   0.355   0.409  2.8485 -0.2913 -1.6935
  805SOL    HW2 2415   2.415   0.331   0.245 -0.5293  0.9772  2.6908
  806SOL     OW 2416   0.571   2.634   1.861  0.1448  0.0708  0.6392
  806SOL    HW1 2417   0.516   2.687   1.931 -0.4095 -0.7493 -1.2789
  806SOL    HW2 2418   0.620   2.699   1.792  0.2697  1.4987 -1.4225
  807SOL     OW 2419   2.513   0.952   0.470  0.0791 -0.0767 -0.4093
  807SOL    HW1 2420   2.595   0.891   0.484  0.4606 -1.0743  2.3087
  807SOL    HW2 2421   2.505   1.002   0.380  0.5011 -0.7362  2.2043
  808SOL     OW 2422   0.673   2.021   2.914  0.0962 -0.0370  0.4710
  808SOL    HW1 2423   0.635   2.056   3.004  0.5743 -1.7878  1.1691
  808SOL    HW2 2424   0.674   1.918   2.923 -0.1324  1.8429 -0.7902
  809SOL     OW 2425   2.578   1.975   1.918 -0.1922  0.0739  0.0753
  809SOL    HW1 2426   2.676   2.006   1.946  0.8878 -0.6133  1.5801
  809SOL    HW2 2427   2.548   1.994   1.815 -0.2811 -1.1246 -2.1631
  810SOL     OW 2428   2.193   1.108   0.502 -0.3452 -0.0871 -0.1063
  810SOL    HW1 2429   2.135   1.025   0.531  0.7405 -1.0613  0.7022
  810SOL    HW2 2430   2.166   1.202   0.543  1.4190  2.7838  0.7963
  811SOL     OW 2431   1.288   2.482   1.149 -0.2092 -0.0043 -0.2100
  811SOL    HW1 2432   1.292   2.375   1.157 -0.4743 -1.5273  4.3662
  811SOL    HW2 2433   1.317   2.526   1.240  0.9842 -0.3872  1.3674
  812SOL     OW 2434   1.500   0.742   1.977  0.4296  0.2061  0.1027
  812SOL    HW1 2435   1.413   0.706   1.933 -0.6339 -1.5996  2.0965
  812SOL    HW2 2436   1.521   0.846   1.953  1.3361  2.6753  1.8009
  813SOL     OW 2437   1.682   2.060   2.390  0.2855 -0.4843 -0.0725
  813SOL    HW1 2438   1.759   1.999   2.426  0.5210  1.6168 -1.3141
  813SOL    HW2 2439   1.684   2.054   2.287  2.1173  0.4126 -0.2786
  814SOL     OW 2440   2.979   1.668   2.899  0.5134  0.0403  0.0015
  814SOL    HW1 2441   3.043   1.635   2.976 -0.6459 -1.0748  0.5970
  814SOL    HW2 2442   3.003   1.760   2.856  1.2162  3.6480  1.4336
  815SOL     OW 2443   2.171   2.855   2.725 -0.3343 -0.4346 -0.0021
  815SOL    HW1 2444   2.121   2.787   2.789  0.0128 -1.3492  0.2374
  815SOL    HW2 2445   2.257   2.893   2.766 -0.7754 -1.2280 -0.9785
  816SOL     OW 2446   1.488   0.392   1.639  0.0750  0.1843  0.4902
  816SOL    HW1 2447   1.532   0.295   1.661 -0.2043 -1.1231 -1.3102
  816SOL    HW2 2448   1.445   0.440   1.721 -0.6424  1.7315 -0.3044
  817SOL     OW 2449   0.357   1.306   2.604 -0.3006 -0.0317 -0.3967
  817SOL    HW1 2450   0.260   1.333   2.584  0.7717  1.8263  0.3297
  817SOL    HW2 2451   0.416   1.361   2.543  0.3231 -3.1419  0.0064
  818SOL     OW 2452   2.013   0.860   0.459  0.2671 -0.2425  0.0938
  818SOL    HW1 2453   2.109   0.826   0.453 -0.6405  0.6582 -1.4023
  818SOL    HW2 2454   1.974   0.863   0.552  2.3359 -2.3821 -0.9718
  819SOL     OW 2455   2.798   2.912   2.983  0.0876  0.2880 -0.6576
  819SOL    HW1 2456   2.863   2.834   2.957 -3.5079 -0.3425 -0.2541
  819SOL    HW2 2457   2.712   2.905   2.927  1.1932 -3.1355 -1.5242
  820SOL     OW 2458   1.244   1.030   0.533 -0.3614 -0.0558  0.4484
  820SOL    HW1 2459   1.238   1.121   0.576 -2.9391 -1.6060 -0.7667
  820SOL    HW2 2460   1.217   0.966   0.604 -0.2694  1.0351 -1.7380
  821SOL     OW 2461   0.045   1.239   0.705 -0.5506 -0.2071  0.6471
  821SOL    HW1 2462   0.019   1.223   0.803  3.7368  3.3405 -0.6538
  821SOL    HW2 2463   0.129   1.304   0.688  1.2369  1.5025 -1.0656
  822SOL     OW 2464   2.533   1.750   2.467 -0.0193  0.2725 -0.0070
  822SOL    HW1 2465   2.540   1.811   2.554  1.2129  0.9083 -0.0972
  822SOL    HW2 2466   2.438   1.752   2.424  1.0625  1.8480 -2.4584
  823SOL     OW 2467   2.028   0.899   1.195 -0.0365  0.0052 -0.8063
  823SOL    HW1 2468   2.015   0.871   1.297  3.0354 -2.1522  0.9151
  823SOL    HW2 2469   1.947   0.878   1.141 -1.3569  0.3578 -0.1181
  824SOL     OW 2470   0.190   1.857   2.821  0.0685 -0.4966  0.3612
  824SOL    HW1 2471   0.213   1.821   2.916  0.6166  0.1554 -0.5659
  824SOL    HW2 2472   0.281   1.878   2.770 -0.6678 -2.4592  0.7042
  825SOL     OW 2473   1.299   1.075   0.273 -0.0451  0.4135 -0.4394
  825SOL    HW1 2474   1.282   1.174   0.249 -1.4781 -0.5291  1.7933
  825SOL    HW2 2475   1.284   1.061   0.375  1.0004 -0.5797  2.6059
  826SOL     OW 2476   1.947   0.607   1.591  0.0261 -0.0227  0.3962
  826SOL    HW1 2477   2.030   0.548   1.605  1.7411  0.8372  0.3007
  826SOL    HW2 2478   1.859   0.555   1.578 -0.5978  0.9323  0.1521
  827SOL     OW 2479   0.705   1.210   0.476 -0.3796  1.1628 -0.0690
  827SOL    HW1 2480   0.790   1.156   0.463 -2.0405  2.5005 -2.0346
  827SOL    HW2 2481   0.619   1.151   0.484 -1.8296  0.2923 -0.8693
  828SOL     OW 2482   2.665   0.195   1.556  0.8700  0.6412  0.4189
  828SOL    HW1 2483   2.577   0.141   1.533 -2.2274  0.1501 -0.5441
  828SOL    HW2 2484   2.681   0.199   1.659  0.7477 -0.5716 -0.2208
  829SOL     OW 2485   2.920   2.389   2.952 -0.5305  0.5552 -0.7142
  829SOL    HW1 2486   2.825   2.367   2.996  0.6173  1.1400 -1.8879
  829SOL    HW2 2487   2.949   2.489   2.944 -0.0443  1.2355 -0.3337
  830SOL     OW 2488   2.926   0.920   2.998  0.0506 -0.3170 -0.2471
  830SOL    HW1 2489   2.955   1.009   3.041  0.3719 -0.9567  1.8285
  830SOL    HW2 2490   2.905   0.842   3.063  0.4489  0.0504 -0.4988
  831SOL     OW 2491   0.090   0.576   0.434 -0.5152  0.0641  0.1204
  831SOL    HW1 2492   0.060   0.509   0.507 -3.1440 -0.1545 -0.7141
  831SOL    HW2 2493   0.114   0.524   0.346 -0.7130 -2.3058  0.8575
  832SOL     OW 2494   1.791   0.710   3.091  0.3139 -0.6910  0.8154
  832SOL    HW1 2495   1.703   0.767   3.072  0.3096  3.0054 -0.4299
  832SOL    HW2 2496   1.778   0.608   3.091  1.3223  1.0277 -0.7631
  833SOL     OW 2497   2.356   2.122   0.548 -0.1349  0.0198  0.6482
  833SOL    HW1 2498   2.250   2.119   0.544 -0.5459 -1.1565 -0.8846
  833SOL    HW2 2499   2.402   2.031   0.528 -0.7859  0.7341 -0.5029
  834SOL     OW 2500   0.118   0.055   0.557 -0.3815 -0.0391  0.2161
  834SOL    HW1 2501   0.189  -0.024   0.543  1.3326 -0.6517 -1.6075
  834SOL    HW2 2502   0.142   0.140   0.507 -0.3592  1.6233  1.4473
  835SOL     OW 2503   2.459   1.648   1.168  0.2779  0.4974 -0.1607
  835SOL    HW1 2504   2.526   1.578   1.207 -0.2247 -0.3572 -0.5622
  835SOL    HW2 2505   2.492   1.699   1.080 -0.3066  0.8266  0.4257
  836SOL     OW 2506   1.549   0.823   2.558 -0.2830  0.0935  0.3311
  836SOL    HW1 2507   1.446   0.849   2.554  1.5640 -0.4282  3.1208
  836SOL    HW2 2508   1.604   0.870   2.480 -1.7691  2.2125 -1.1156
  837SOL     OW 2509   1.724   0.101   0.535 -0.0533 -0.6092  0.0609
  837SOL    HW1 2510   1.676   0.149   0.613 -0.8597  2.8506 -0.0538
  837SOL    HW2 2511   1.659   0.095   0.450  0.9772  0.8213 -3.2098
  838SOL     OW 2512   1.192   1.478   2.693 -0.4941  0.4378 -0.3843
  838SOL    HW1 2513   1.144   1.569   2.695 -5.5649 -3.4316  0.4361
  838SOL    HW2 2514   1.142   1.405   2.640 -0.3956 -0.1647  2.2081
  839SOL     OW 2515   1.669   0.380   0.965  0.0112  0.1332 -0.3063
  839SOL    HW1 2516   1.633   0.450   1.034 -3.9006 -0.8396  2.6258
  839SOL    HW2 2517   1.621   0.290   0.966  1.8019  0.7911  4.1466
  840SOL     OW 2518   2.640   2.955   1.665 -0.1601 -0.3147 -0.0179
  840SOL    HW1 2519   2.556   3.008   1.633  1.0479 -1.1168  1.6999
  840SOL    HW2 2520   2.621   2.888   1.744  0.2430  0.9708  0.4362
  841SOL     OW 2521   1.553   0.834   3.043 -0.0227 -0.1681  0.8262
  841SOL    HW1 2522   1.468   0.813   3.097 -1.4289  1.5201  1.4060
  841SOL    HW2 2523   1.550   0.920   2.981 -1.1941  4.3160 -2.1374
  842SOL     OW 2524   0.839   1.610   1.005  0.3008 -0.2861  0.1624
  842SOL    HW1 2525   0.772   1.691   1.024 -1.9976  2.8615  1.0693
  842SOL    HW2 2526   0.795   1.536   0.946  1.3761 -0.6888  2.2802
  843SOL     OW 2527   0.158   0.063   1.470 -0.0306  0.3506 -0.3970
  843SOL    HW1 2528   0.249   0.098   1.514  1.1348 -0.7501 -0.2407
  843SOL    HW2 2529   0.149  -0.040   1.452 -1.1734  1.6411  0.4111
  844SOL     OW 2530   0.697   2.470   0.202  0.2149 -0.4555  0.0153
  844SOL    HW1 2531   0.636   2.476   0.286 -1.2603  1.2481 -0.7539
  844SOL    HW2 2532   0.641   2.453   0.116  1.0737 -0.0101 -0.9825
  845SOL     OW 2533   1.747  -0.001   1.248 -0.3345  0.5682  0.4540
  845SOL    HW1 2534   1.722   0.005   1.352 -2.5387  1.1251  2.0791
  845SOL    HW2 2535   1.767   0.090   1.204  4.1690  0.3182  0.4644
  846SOL     OW 2536   1.694   3.046   0.915 -0.4435 -0.0541 -0.4655
  846SOL    HW1 2537   1.690   2.986   0.836  1.0958  0.8534  2.3086
  846SOL    HW2 2538   1.779   3.029   0.970 -2.1764 -0.3135  0.0790
  847SOL     OW 2539   2.111   1.639   0.169 -0.0755  0.0347 -0.7371
  847SOL    HW1 2540   2.064   1.579   0.243 -1.9326  0.8616  0.3815
  847SOL    HW2 2541   2.055   1.641   0.085  0.3975  0.0549  3.3497
  848SOL     OW 2542   2.504   0.807   2.632  0.4796 -0.2635  0.2297
  848SOL    HW1 2543   2.479   0.911   2.623 -0.9157 -0.1756  2.0548
  848SOL    HW2 2544   2.420   0.756   2.591 -1.4653 -0.1123 -0.0781
  849SOL     OW 2545   2.370   0.826   2.297  0.3167  0.1686  0.0313
  849SOL    HW1 2546   2.449   0.798   2.242 -1.9851  0.1088  0.2021
  849SOL    HW2 2547   2.355   0.777   2.389 -0.6684 -0.8685  1.8928
  850SOL     OW 2548   1.525   0.224   1.262 -0.2934 -0.0885  0.2214
  850SOL    HW1 2549   1.525   0.195   1.163  1.0580 -0.4814 -0.3281
  850SOL    HW2 2550   1.518   0.143   1.328 -0.7185 -0.3851 -0.7233
  851SOL     OW 2551   0.446   1.662   0.632 -0.2938 -0.2256 -0.0440
  851SOL    HW1 2552   0.439   1.742   0.699 -1.2586  1.6753 -0.2957
  851SOL    HW2 2553   0.543   1.630   0.616  2.8658  1.1729  0.9828
  852SOL     OW 2554   0.832   2.189   1.723  0.4666  0.1774  0.5105
  852SOL    HW1 2555   0.818   2.290   1.684 -0.5754  0.0543  0.7047
  852SOL    HW2 2556   0.760   2.155   1.785 -0.8000  1.2542 -1.3136
  853SOL     OW 2557   2.631   1.487   2.585 -0.0407  0.2533 -0.0518
  853SOL    HW1 2558   2.589   1.390   2.574 -1.8108 -2.5990 -3.0654
  853SOL    HW2 2559   2.598   1.554   2.507 -1.3264 -0.3056 -1.2258
  854SOL     OW 2560   2.459   1.413   1.769  0.1377  0.3653  0.0846
  854SOL    HW1 2561   2.507   1.361   1.687  1.9018  2.8894 -1.8274
  854SOL    HW2 2562   2.384   1.355   1.811 -0.2950  0.8861  0.2100
  855SOL     OW 2563   2.029   2.275   1.014  0.3352  0.0543 -0.0892
  855SOL    HW1 2564   2.043   2.378   0.993 -1.7813  3.8116 -0.8581
  855SOL    HW2 2565   2.079   2.243   1.102  0.9050  0.5671 -0.7484
  856SOL     OW 2566   1.416   1.415   0.876  0.1143  0.3942 -0.0131
  856SOL    HW1 2567   1.445   1.515   0.883  0.8338  2.5925  1.2213
  856SOL    HW2 2568   1.415   1.359   0.965  1.7223  0.7489  0.8504
  857SOL     OW 2569   2.885   2.544   1.038  0.2004 -0.0426  0.7287
  857SOL    HW1 2570   2.818   2.481   1.091 -2.2923  1.0869 -1.1779
  857SOL    HW2 2571   2.923   2.505   0.949  1.0433  1.1081  1.8895
  858SOL     OW 2572   2.296   2.103   1.791 -0.1132  0.2390  0.2468
  858SOL    HW1 2573   2.216   2.129   1.729 -0.7924  3.3719  2.3703
  858SOL    HW2 2574   2.367   2.038   1.749 -0.3086  0.8139  3.4413
  859SOL     OW 2575   2.413   0.371   0.963  0.2162 -0.3272 -0.0138
  859SOL    HW1 2576   2.501   0.426   0.934  1.5000 -0.4748 -0.0556
  859SOL    HW2 2577   2.446   0.295   1.027  2.6713 -2.6411  2.4767
  860SOL     OW 2578   1.943   2.836   0.515 -0.3749 -0.3198 -0.0830
  860SOL    HW1 2579   1.930   2.777   0.430 -1.1788  1.5424  1.1271
  860SOL    HW2 2580   1.970   2.936   0.488 -1.3210 -0.4769  0.4388
  861SOL     OW 2581   1.003   2.534   2.805 -0.4099  0.2361  0.2398
  861SOL    HW1 2582   1.054   2.628   2.800  2.1489  0.4105 -0.1446
  861SOL    HW2 2583   0.970   2.505   2.900  1.6087 -0.7353  0.3578
  862SOL     OW 2584   2.986   2.615   1.560  0.1539  0.3068  0.1303
  862SOL    HW1 2585   3.043   2.588   1.643  0.3822  0.8718 -0.2515
  862SOL    HW2 2586   2.883   2.622   1.576 -0.6233 -1.0782 -0.4882
  863SOL     OW 2587   1.853   2.664   0.279 -0.4065  0.4938  0.0730
  863SOL    HW1 2588   1.925   2.585   0.284  0.2588 -0.0588  1.0211
  863SOL    HW2 2589   1.753   2.637   0.263 -0.5048  4.5268 -2.7581
  864SOL     OW 2590   1.918   1.133   2.942 -0.1686  0.0703 -0.3673
  864SOL    HW1 2591   1.963   1.116   2.850  3.0693  0.2639 -0.5241
  864SOL    HW2 2592   1.981   1.116   3.027 -0.1057  1.3483  2.0841
  865SOL     OW 2593   2.117   1.728   0.634  0.4770  1.0001 -0.2074
  865SOL    HW1 2594   2.146   1.742   0.736  0.1172  0.4489  0.5917
  865SOL    HW2 2595   2.070   1.633   0.621  1.1940 -2.9133 -2.3589
  866SOL     OW 2596   2.891   2.805   1.034 -0.0538 -0.3666 -0.4950
  866SOL    HW1 2597   2.945   2.823   0.952 -0.5835 -1.9868  1.7546
  866SOL    HW2 2598   2.865   2.704   1.041 -0.5638 -0.7067 -0.8623
  867SOL     OW 2599   0.462   1.352   0.839  0.1442  0.4577  0.0792
  867SOL    HW1 2600   0.475   1.253   0.816 -1.2030  0.8265  4.0590
  867SOL    HW2 2601   0.384   1.400   0.782 -1.5752  0.4998 -0.7115
  868SOL     OW 2602   0.849   1.917   1.992  0.3535 -0.1622  0.2897
  868SOL    HW1 2603   0.875   1.892   2.086 -1.1330 -0.5419  1.8096
  868SOL    HW2 2604   0.799   2.009   1.993  0.0223  1.4055 -2.0305
  869SOL     OW 2605   2.514   2.018   1.658  0.1738 -0.4270 -0.2615
  869SOL    HW1 2606   2.546   2.107   1.628  1.1817 -2.7134 -1.3723
  869SOL    HW2 2607   2.479   1.966   1.577  1.1077  0.0224 -0.0984
  870SOL     OW 2608   2.398   2.519   1.183 -0.1932 -0.4390  0.0588
  870SOL    HW1 2609   2.347   2.432   1.172  2.6823 -0.8243  1.6786
  870SOL    HW2 2610   2.486   2.513   1.239  0.9280  0.1882 -0.7131
  871SOL     OW 2611   3.049   1.995   0.514 -0.4300  0.0625  0.0747
  871SOL    HW1 2612   2.978   2.053   0.466  4.3173 -0.1168 -0.8877
  871SOL    HW2 2613   3.040   1.894   0.488  0.9117 -0.6374 -0.1751
  872SOL     OW 2614   2.169   0.469   1.701 -0.1302  0.0130  0.5686
  872SOL    HW1 2615   2.124   0.456   1.793 -0.9693  1.4568  2.5886
  872SOL    HW2 2616   2.270   0.463   1.704  0.5116 -0.0772  1.9092
  873SOL     OW 2617   1.726   2.068   2.866 -0.1628  0.2427 -0.0725
  873SOL    HW1 2618   1.714   2.168   2.903  2.5541 -0.2264  1.6482
  873SOL    HW2 2619   1.664   2.056   2.782  2.3910 -2.0150  0.6213
  874SOL     OW 2620   0.655   2.516   0.746 -0.2703  0.6381 -0.1156
  874SOL    HW1 2621   0.642   2.615   0.738 -1.6956  0.0487 -1.7150
  874SOL    HW2 2622   0.756   2.485   0.758 -1.8395 -4.0628  1.5000
  875SOL     OW 2623   2.314   1.575   1.427 -0.1709  0.4171  0.1867
  875SOL    HW1 2624   2.415   1.601   1.438  1.8160  2.0465 -1.2795
  875SOL    HW2 2625   2.273   1.637   1.358 -0.3057  0.2466  1.2937
  876SOL     OW 2626   0.153   2.218   2.709 -0.1914  0.5538  0.6769
  876SOL    HW1 2627   0.206   2.145   2.765 -1.5754  0.8312 -2.1443
  876SOL    HW2 2628   0.184   2.316   2.734 -0.3204 -1.3598  0.4404
  877SOL     OW 2629   2.778   2.663   0.587 -0.0198  0.1767  0.4943
  877SOL    HW1 2630   2.808   2.764   0.602 -3.0445  0.0477 -2.3496
  877SOL    HW2 2631   2.851   2.594   0.612 -0.1312 -1.9936  0.1848
  878SOL     OW 2632   2.762   1.525   2.275 -0.2214 -0.1512  0.2316
  878SOL    HW1 2633   2.742   1.617   2.319 -0.3966  2.9529 -0.5218
  878SOL    HW2 2634   2.809   1.455   2.339  4.7957 -0.5386  0.6197
  879SOL     OW 2635   2.392   3.101   1.248 -0.4555 -0.4462  0.0898
  879SOL    HW1 2636   2.445   3.013   1.244 -2.6603 -1.0926 -1.4484
  879SOL    HW2 2637   2.297   3.090   1.206 -0.8715 -0.2326 -0.2172
  880SOL     OW 2638   0.616   0.444   2.194 -0.6795  0.6228  0.1971
  880SOL    HW1 2639   0.548   0.424   2.275 -0.3968  0.1395 -1.2920
  880SOL    HW2 2640   0.647   0.348   2.157  0.2095  2.0421  2.1008
  881SOL     OW 2641   0.889   0.087   0.405 -0.4913  0.4144 -0.3069
  881SOL    HW1 2642   0.951   0.012   0.441 -1.2961 -0.5679 -0.5200
  881SOL    HW2 2643   0.817   0.051   0.340 -1.2242  1.9707  1.9289
  882SOL     OW 2644   2.745   1.743   1.640 -0.0812  0.6919  0.0753
  882SOL    HW1 2645   2.838   1.704   1.647  2.2897  0.6840 -2.7386
  882SOL    HW2 2646   2.689   1.742   1.732 -0.2412  0.2465  1.2208
  883SOL     OW 2647   0.913   0.615   0.960 -0.0163 -0.5238 -0.3220
  883SOL    HW1 2648   0.931   0.691   1.027  1.1770 -0.9054  3.0955
  883SOL    HW2 2649   1.000   0.564   0.941  0.6067  1.0478  0.7624
  884SOL     OW 2650   1.168   1.844   1.080 -0.3219  0.1613  0.1680
  884SOL    HW1 2651   1.162   1.842   0.975 -0.5302  1.0620  0.2919
  884SOL    HW2 2652   1.081   1.894   1.116 -0.0397  0.1018 -0.5021
  885SOL     OW 2653   2.287   1.765   2.350  0.2706  0.5933  0.2308
  885SOL    HW1 2654   2.204   1.722   2.392  2.1962 -1.0911  0.0052
  885SOL    HW2 2655   2.279   1.863   2.338 -1.4216  0.1006 -2.4780
  886SOL     OW 2656   2.679   0.456   1.810  0.4876 -0.1691  0.4788
  886SOL    HW1 2657   2.708   0.410   1.896 -0.4186  0.6883 -1.7410
  886SOL    HW2 2658   2.733   0.544   1.785 -1.0666 -1.3736 -0.0204
  887SOL     OW 2659   0.187   2.014   1.311 -0.3617  0.0550 -0.5510
  887SOL    HW1 2660   0.142   1.966   1.230  1.6912  2.1205 -1.2749
  887SOL    HW2 2661   0.196   2.119   1.301  1.0201  1.2769  0.4964
  888SOL     OW 2662   0.594   1.306   1.490 -0.2329 -0.7398  0.2984
  888SOL    HW1 2663   0.640   1.324   1.398  1.8665  2.9402  1.6227
  888SOL    HW2 2664   0.515   1.242   1.487  3.2076  0.5179  0.3482
  889SOL     OW 2665   0.852   2.475   2.121 -0.4642 -0.5144 -0.3016
  889SOL    HW1 2666   0.786   2.445   2.046 -0.7387  1.5850  2.7393
  889SOL    HW2 2667   0.941   2.507   2.079 -0.4635 -0.5029  1.8775
  890SOL     OW 2668   2.300   2.391   0.114 -0.2007  0.2358  0.0917
  890SOL    HW1 2669   2.332   2.453   0.039 -1.1722 -0.1474  1.4238
  890SOL    HW2 2670   2.220   2.429   0.174 -0.7438 -0.0942  0.0766
  891SOL     OW 2671   2.615   1.571   0.634  0.1221  1.1242  0.1005
  891SOL    HW1 2672   2.598   1.498   0.704  1.1165  0.6857 -2.3818
  891SOL    HW2 2673   2.526   1.614   0.608  0.2066  1.6213  1.1518
  892SOL     OW 2674   0.243   0.310   2.235  0.7187  0.0609 -0.1392
  892SOL    HW1 2675   0.268   0.322   2.134 -0.9263 -0.1988  1.9786
  892SOL    HW2 2676   0.326   0.343   2.287  0.9411 -0.7304  1.3967
  893SOL     OW 2677   1.636   0.224   2.714  0.1014 -0.5113 -0.1360
  893SOL    HW1 2678   1.704   0.300   2.749 -0.2482  1.2617 -1.1883
  893SOL    HW2 2679   1.540   0.255   2.689 -0.1124 -0.5560 -0.5394
  894SOL     OW 2680   2.146   1.968   0.075  0.0538  0.6777  0.6304
  894SOL    HW1 2681   2.144   1.906  -0.009  0.8491  3.0805 -1.4271
  894SOL    HW2 2682   2.202   1.917   0.149  2.6507 -2.1816 -0.4555
  895SOL     OW 2683   2.883   1.425   0.824 -0.3346 -0.2246  0.0995
  895SOL    HW1 2684   2.947   1.347   0.849 -0.5250 -3.1369 -0.6991
  895SOL    HW2 2685   2.927   1.503   0.772  0.6119 -2.0411 -1.4970
  896SOL     OW 2686   1.766   1.776   1.197  0.0231  0.0736 -0.4469
  896SOL    HW1 2687   1.847   1.822   1.151  1.8321 -1.4868  0.6054
  896SOL    HW2 2688   1.674   1.801   1.152  0.0484  1.8545 -1.9193
  897SOL     OW 2689   0.307   0.503   3.075 -0.0404  0.2894  0.0295
  897SOL    HW1 2690   0.263   0.553   2.994 -0.9327  1.1880  1.7926
  897SOL    HW2 2691   0.377   0.559   3.126  1.1116 -1.6389 -0.0479
  898SOL     OW 2692   0.559   2.854   1.117  0.2619 -0.0977 -0.4157
  898SOL    HW1 2693   0.501   2.931   1.155  2.6285  1.0213 -0.9280
  898SOL    HW2 2694   0.661   2.872   1.115  0.4151 -0.2038 -0.2949
  899SOL     OW 2695   2.702   0.939   1.244 -0.2535  0.3504  0.2026
  899SOL    HW1 2696   2.616   0.937   1.187 -1.1651 -1.2408  1.8812
  899SOL    HW2 2697   2.791   0.933   1.186  1.9750  0.4961  2.0857
  900SOL     OW 2698   0.985   2.332   2.337 -0.0413 -0.3349  0.4789
  900SOL    HW1 2699   0.929   2.369   2.257  0.7710 -1.5048  0.8694
  900SOL    HW2 2700   0.931   2.336   2.425  2.3890  0.3168 -2.2893
  901SOL     OW 2701   1.916   2.457   1.388  0.6240  0.6351 -0.5234
  901SOL    HW1 2702   1.905   2.466   1.286 -0.5424  0.4050  2.0870
  901SOL    HW2 2703   2.011   2.430   1.417  0.7087  2.3162  1.0576
  902SOL     OW 2704   2.574   1.668   1.461  0.3250  0.8539  0.3030
  902SOL    HW1 2705   2.651   1.699   1.526  1.3088  0.3686  0.7177
  902SOL    HW2 2706   2.617   1.600   1.398  0.2340  2.4591  1.4013
  903SOL     OW 2707   0.275   2.358   1.979  0.3446  0.5975  0.4380
  903SOL    HW1 2708   0.183   2.320   2.019 -0.0208 -0.5753 -0.9564
  903SOL    HW2 2709   0.260   2.427   1.904  1.9832 -1.5236  1.3163
  904SOL     OW 2710   1.983   0.787   2.586  0.5049 -0.2607  0.4219
  904SOL    HW1 2711   1.894   0.757   2.626 -0.2064  0.8797 -0.8670
  904SOL    HW2 2712   1.997   0.774   2.481  1.5951 -0.9339 -3.5260
  905SOL     OW 2713   2.755   0.050   2.614  0.2306  0.0462 -0.7137
  905SOL    HW1 2714   2.816  -0.030   2.616 -0.8037 -0.6985 -0.0981
  905SOL    HW2 2715   2.807   0.140   2.582  1.2487  1.0979 -2.8716
  906SOL     OW 2716   0.108   1.782   1.981  0.0489  0.4911  0.2082
  906SOL    HW1 2717   0.062   1.802   1.886  0.0820  1.4771  2.8712
  906SOL    HW2 2718   0.210   1.799   1.975 -1.8236  0.2662  0.9217
  907SOL     OW 2719   0.194   2.447   1.044  0.1252 -0.3053  0.0645
  907SOL    HW1 2720   0.237   2.534   1.006  0.8266 -0.5681 -0.7057
  907SOL    HW2 2721   0.143   2.392   0.968  0.6521 -2.3596 -1.5697
  908SOL     OW 2722   2.626   2.856   0.402  0.1224 -0.0741 -0.4826
  908SOL    HW1 2723   2.628   2.856   0.297 -0.7799  0.2271 -1.6256
  908SOL    HW2 2724   2.653   2.760   0.432  1.9392 -0.3443 -0.4929
  909SOL     OW 2725   0.692   0.906   2.602 -0.3634  0.3346 -0.0425
  909SOL    HW1 2726   0.693   0.800   2.602 -2.6448 -0.4949  0.4685
  909SOL    HW2 2727   0.764   0.960   2.547 -0.7655 -0.1558  1.3895
  910SOL     OW 2728   1.734   1.778   2.014 -0.8015  0.4886 -0.4512
  910SOL    HW1 2729   1.808   1.796   1.942 -0.8375 -0.1665 -0.4068
  910SOL    HW2 2730   1.682   1.862   2.050 -0.2632  0.2084 -0.1020
  911SOL     OW 2731   1.738   3.024   1.579 -0.1370 -0.0723 -0.0261
  911SOL    HW1 2732   1.820   2.987   1.521  0.1190  2.1172 -2.3212
  911SOL    HW2 2733   1.721   2.961   1.662 -1.8597 -0.8334  0.8401
  912SOL     OW 2734   2.812   0.951   0.769  0.3420 -0.6878 -0.3690
  912SOL    HW1 2735   2.827   0.945   0.870  0.4917 -0.2602 -0.4523
  912SOL    HW2 2736   2.804   1.048   0.733  1.2127 -0.8280 -0.5886
  913SOL     OW 2737   2.545   1.293   1.563  0.4903  0.1567  0.1137
  913SOL    HW1 2738   2.575   1.197   1.598 -0.4912 -1.1770 -1.7010
  913SOL    HW2 2739   2.600   1.321   1.482  1.4365 -0.5654  0.7542
  914SOL     OW 2740   2.818   0.525   1.269  0.6587 -0.4305  0.4124
  914SOL    HW1 2741   2.765   0.435   1.294  0.3575  0.9345 -1.5661
  914SOL    HW2 2742   2.785   0.606   1.332 -1.7759 -1.7652  1.3550
  915SOL     OW 2743   1.191   0.854   1.035 -0.3320 -0.2229  0.2798
  915SOL    HW1 2744   1.265   0.910   1.079  0.2818 -1.4231  1.4815
  915SOL    HW2 2745   1.102   0.841   1.094 -0.0344 -2.5775 -0.3107
  916SOL     OW 2746   0.537   0.063   0.594 -0.3853  0.0234 -0.5394
  916SOL    HW1 2747   0.581   0.129   0.664  2.4232 -0.4258 -0.1944
  916SOL    HW2 2748   0.560   0.090   0.495 -0.5755 -1.7325 -1.8022
  917SOL     OW 2749   2.768   2.602   1.893 -0.0849  0.2428 -0.2340
  917SOL    HW1 2750   2.671   2.631   1.922 -1.1509  0.1310  0.1192
  917SOL    HW2 2751   2.846   2.664   1.914 -2.9612 -2.9954 -0.7788
  918SOL     OW 2752   0.991   2.202   0.002  0.3388 -0.2392  0.0204
  918SOL    HW1 2753   0.939   2.231   0.090 -0.3310 -0.2184  0.4782
  918SOL    HW2 2754   1.077   2.148   0.022  0.9672 -1.6191 -1.7536
  919SOL     OW 2755   0.909   1.610   2.794 -0.1598 -0.1342 -0.3629
  919SOL    HW1 2756   0.961   1.688   2.753 -1.2337 -0.4653  0.8048
  919SOL    HW2 2757   0.881   1.528   2.736  2.4528  0.1133 -0.2566
  920SOL     OW 2758   1.231   2.063   2.509 -0.4784  0.8153 -0.0621
  920SOL    HW1 2759   1.188   2.087   2.414  0.0476 -0.4387  0.5099
  920SOL    HW2 2760   1.274   1.966   2.519 -0.1294 -1.7426  0.7861
  921SOL     OW 2761   1.042   0.142   2.588 -0.0636 -0.0107  0.1158
  921SOL    HW1 2762   1.074   0.118   2.490  2.0081 -0.6193 -2.5196
  921SOL    HW2 2763   0.946   0.103   2.604  2.0859 -1.5817 -0.4298
  922SOL     OW 2764   2.086   2.412   2.774 -0.0128  0.2757  0.1892
  922SOL    HW1 2765   2.111   2.311   2.762  0.6080 -0.2218 -1.0303
  922SOL    HW2 2766   2.072   2.468   2.683 -2.4051 -2.2076 -0.8547
  923SOL     OW 2767   1.152   2.681   0.211  0.5422 -0.3914 -0.5203
  923SOL    HW1 2768   1.233   2.722   0.270  0.3587  1.7957 -1.2920
  923SOL    HW2 2769   1.184   2.640   0.123 -0.8111  1.4319 -0.3807
  924SOL     OW 2770   2.858   1.565   0.093 -0.1630  0.1403 -0.4290
  924SOL    HW1 2771   2.799   1.596   0.012 -0.7484  3.0249  1.1629
  924SOL    HW2 2772   2.924   1.639   0.119 -1.4434 -0.9177  0.0211
  925SOL     OW 2773   0.093   2.866   1.628  0.5688  0.4098 -0.6419
  925SOL    HW1 2774   0.006   2.913   1.659 -1.1631  0.1938 -0.8909
  925SOL    HW2 2775   0.105   2.875   1.528  0.3894 -3.5030 -1.1021
  926SOL     OW 2776   1.451   2.887   1.309  0.1667  0.5688  0.1218
  926SOL    HW1 2777   1.455   2.875   1.203  0.6107 -1.5026 -1.1246
  926SOL    HW2 2778   1.459   2.984   1.347  0.7518  0.0143 -0.6069
  927SOL     OW 2779   0.252   2.542   1.775 -0.2358  0.4830 -0.0530
  927SOL    HW1 2780   0.204   2.493   1.695  0.7273 -0.7768  1.4874
  927SOL    HW2 2781   0.327   2.605   1.735 -0.7822  0.5407 -3.5643
  928SOL     OW 2782   1.602   2.006   2.096 -0.0266  0.4003 -0.2724
  928SOL    HW1 2783   1.647   2.102   2.104 -1.2317 -1.4160  1.4979
  928SOL    HW2 2784   1.508   2.002   2.054 -0.5963  0.2801 -0.8300
  929SOL     OW 2785   2.356   2.451   2.821 -0.6191 -0.5456 -0.2716
  929SOL    HW1 2786   2.256   2.440   2.815  1.7404  0.7505  0.4480
  929SOL    HW2 2787   2.409   2.440   2.728 -1.6553 -2.0693  1.1082
  930SOL     OW 2788   2.202   2.001   1.084  0.2237 -0.3867 -0.2686
  930SOL    HW1 2789   2.194   1.972   1.184 -1.0336 -0.3226  2.4772
  930SOL    HW2 2790   2.264   2.083   1.069 -0.7392  2.2268  0.3078
  931SOL     OW 2791   0.583   1.740   2.640  0.1957  0.3521  0.0349
  931SOL    HW1 2792   0.620   1.704   2.733 -1.1479 -0.5135  2.4337
  931SOL    HW2 2793   0.577   1.653   2.578  0.6960 -4.8707  1.6617
  932SOL     OW 2794   0.498   0.111   2.908 -0.2212 -0.2148 -0.1045
  932SOL    HW1 2795   0.587   0.133   2.855  0.4056 -2.7724 -3.3218
  932SOL    HW2 2796   0.509   0.018   2.953  1.1050  0.9629  2.9470
  933SOL     OW 2797   1.069   0.772   3.015  0.0105 -0.1272 -0.3546
  933SOL    HW1 2798   1.130   0.819   3.083 -2.7020 -0.6818 -0.7950
  933SOL    HW2 2799   1.033   0.844   2.950 -1.0984 -2.4181  0.7179
  934SOL     OW 2800   0.813   2.932   2.758  0.6564 -0.4632  0.3492
  934SOL    HW1 2801   0.888   2.895   2.694  1.8607  1.0157 -2.8631
  934SOL    HW2 2802   0.818   2.900   2.854 -0.5664 -1.7529 -0.5419
  935SOL     OW 2803   3.086   0.543   0.904  0.1269  0.6385  0.6861
  935SOL    HW1 2804   3.091   0.493   0.810  0.5466 -0.1937 -1.7797
  935SOL    HW2 2805   2.996   0.593   0.912 -2.4305  2.7858  0.9803
  936SOL     OW 2806   1.098   2.972   0.126 -0.3167  1.1514 -0.0697
  936SOL    HW1 2807   1.157   3.010   0.051 -0.7847 -2.1271  1.7789
  936SOL    HW2 2808   1.127   2.875   0.153  0.7192  0.1471  0.4341
  937SOL     OW 2809   1.945   2.632   2.082  0.3604  0.5065  0.3177
  937SOL    HW1 2810   1.852   2.669   2.115 -2.9923 -1.0812 -1.5451
  937SOL    HW2 2811   1.965   2.663   1.981 -0.8393 -0.3819  1.2793
  938SOL     OW 2812   2.777   2.177   1.510 -0.3020  0.0393  0.5264
  938SOL    HW1 2813   2.721   2.254   1.550 -0.6708 -0.1840  2.3485
  938SOL    HW2 2814   2.848   2.136   1.571  0.6635 -0.3019 -2.0618
  939SOL     OW 2815   2.730   1.058   2.519 -0.2725 -0.4899  0.4010
  939SOL    HW1 2816   2.806   0.986   2.501 -0.3387 -1.9134 -1.9338
  939SOL    HW2 2817   2.738   1.107   2.610  0.8189 -2.6700 -0.4183
  940SOL     OW 2818   1.067   0.456   2.622 -0.0776  0.0218  0.2276
  940SOL    HW1 2819   1.128   0.381   2.670 -1.6018 -0.9484 -0.9501
  940SOL    HW2 2820   0.964   0.439   2.637  2.9872  2.5233  1.6983
  941SOL     OW 2821   0.073   2.853   2.211  0.3096  0.3294  0.0445
  941SOL    HW1 2822   0.037   2.758   2.194 -0.5553  1.5726  0.0848
  941SOL    HW2 2823   0.149   2.859   2.281 -2.1048  1.6472 -0.9580
  942SOL     OW 2824   0.065   0.068   2.560  0.3171 -0.3523 -0.2842
  942SOL    HW1 2825   0.129   0.083   2.643  1.5130  2.1135  0.6751
  942SOL    HW2 2826   0.053   0.145   2.495 -1.5232 -1.9491 -2.3606
  943SOL     OW 2827   2.060   1.600   2.430  0.2917  0.4772 -0.1094
  943SOL    HW1 2828   2.084   1.508   2.384  2.0612  1.4650  1.1105
  943SOL    HW2 2829   2.039   1.579   2.532 -3.3108 -0.0799  1.1649
  944SOL     OW 2830   2.160   2.372   1.483  0.1062 -0.7950  0.5775
  944SOL    HW1 2831   2.233   2.439   1.518  3.3101 -2.2606  1.2419
  944SOL    HW2 2832   2.127   2.304   1.562  1.2393  0.0568 -0.6311
  945SOL     OW 2833   0.623   1.434   0.390  0.4582 -0.5954 -0.0458
  945SOL    HW1 2834   0.669   1.452   0.298  1.4734  0.0427 -0.9565
  945SOL    HW2 2835   0.649   1.340   0.431  1.3823 -0.8377 -1.8983
  946SOL     OW 2836   0.354   1.018   2.584 -0.3462  0.6311  0.2728
  946SOL    HW1 2837   0.282   0.958   2.541  0.0515 -1.9264  0.3926
  946SOL    HW2 2838   0.332   1.117   2.570 -1.1311 -2.1978  0.6346
  947SOL     OW 2839   1.471   0.455   0.123  0.0282  0.3375  0.6191
  947SOL    HW1 2840   1.400   0.471   0.202  0.8072  0.2890  0.6933
  947SOL    HW2 2841   1.448   0.372   0.068 -0.8897 -0.0079  0.1835
  948SOL     OW 2842   1.957   0.009   2.190  0.1837  0.2554  0.4125
  948SOL    HW1 2843   1.912  -0.001   2.095 -0.6407 -3.2070 -3.3350
  948SOL    HW2 2844   1.940  -0.081   2.241  0.0998  1.8026  0.4154
  949SOL     OW 2845   0.603   2.508   0.470 -0.2781  0.2765  0.0914
  949SOL    HW1 2846   0.614   2.610   0.444 -2.7878  0.9564 -1.8768
  949SOL    HW2 2847   0.626   2.487   0.570 -1.0718 -0.7305 -0.2086
  950SOL     OW 2848   0.310   2.114   3.016 -0.1343 -0.2028  0.0025
  950SOL    HW1 2849   0.221   2.164   3.029 -0.2825 -0.0483  0.1607
  950SOL    HW2 2850   0.293   2.011   3.017 -0.4145 -0.1273 -3.3870
  951SOL     OW 2851   1.160   2.776   2.764 -0.4104  0.1456 -0.1966
  951SOL    HW1 2852   1.201   2.837   2.690 -0.3611  1.3365  3.5562
  951SOL    HW2 2853   1.234   2.757   2.839  0.1844  0.6930  0.7714
  952SOL     OW 2854   0.077   1.668   0.481  0.3985  0.6959 -0.0936
  952SOL    HW1 2855   0.156   1.728   0.471 -1.7448  1.9436 -0.4940
  952SOL    HW2 2856   0.047   1.646   0.579 -2.2942 -2.9283 -2.9068
  953SOL     OW 2857   2.556   1.728   0.167 -0.9308 -0.1551 -0.2846
  953SOL    HW1 2858   2.523   1.632   0.192  2.3915  0.3044  0.4549
  953SOL    HW2 2859   2.524   1.757   0.071 -1.8182  1.1427 -2.3149
  954SOL     OW 2860   2.179   0.558   1.036 -0.5863  0.1475  0.4556
  954SOL    HW1 2861   2.106   0.559   0.964  2.1617 -0.1762  2.5902
  954SOL    HW2 2862   2.255   0.490   1.010  2.6936 -1.1252  0.8853
  955SOL     OW 2863   0.270   2.657   1.307 -0.6970 -0.1904 -0.1355
  955SOL    HW1 2864   0.177   2.620   1.276  0.6604  0.6507  1.0774
  955SOL    HW2 2865   0.347   2.651   1.235  0.9182 -0.2876  1.5018
  956SOL     OW 2866   2.793   2.469   2.525 -0.4701  0.3469 -0.2792
  956SOL    HW1 2867   2.795   2.367   2.497 -2.4533 -2.2601  0.0207
  956SOL    HW2 2868   2.817   2.530   2.449 -0.8206 -1.2692  1.7977
  957SOL     OW 2869   1.553   2.080   2.662  0.0108  0.0450  0.0036
  957SOL    HW1 2870   1.481   2.010   2.650  0.6624 -0.9460  2.0040
  957SOL    HW2 2871   1.600   2.092   2.569 -1.8370 -0.8743  2.8972
  958SOL     OW 2872   2.663   2.331   3.010 -0.0938  0.1087 -0.1436
  958SOL    HW1 2873   2.578   2.386   3.011 -1.3076 -2.1078  2.6579
  958SOL    HW2 2874   2.655   2.228   3.041 -0.5728 -1.2928  1.8138
  959SOL     OW 2875   0.253   2.825   0.010 -0.1578  0.2296  0.4182
  959SOL    HW1 2876   0.153   2.811   0.032  0.6428 -1.0903  0.4670
  959SOL    HW2 2877   0.305   2.733   0.007 -0.8757  1.0794 -0.7608
  960SOL     OW 2878   2.020   0.509   1.935 -0.1303 -0.5886 -0.4544
  960SOL    HW1 2879   1.960   0.577   1.881  0.2643  1.4166  1.1078
  960SOL    HW2 2880   2.026   0.522   2.037  1.7685  0.1265  1.4651
  961SOL     OW 2881   2.616   1.866   1.039  0.4851  0.0646 -0.2308
  961SOL    HW1 2882   2.566   1.922   0.970  0.0169 -0.6609 -0.0047
  961SOL    HW2 2883   2.588   1.896   1.132 -1.1015  3.0189 -0.8907
  962SOL     OW 2884   1.247   0.942   0.044  0.3749 -0.2540  0.3060
  962SOL    HW1 2885   1.261   1.000  -0.039 -1.0156 -3.0106 -0.2249
  962SOL    HW2 2886   1.273   0.992   0.135  0.1844 -1.5516  2.9296
  963SOL     OW 2887   2.311   2.650   1.882  0.3409  0.0852 -0.1972
  963SOL    HW1 2888   2.320   2.567   1.940 -0.5263  0.2685 -1.4466
  963SOL    HW2 2889   2.345   2.738   1.923 -1.0345  1.5438 -0.5805
  964SOL     OW 2890   2.447   0.389   1.679  0.3007  0.3395  0.0833
  964SOL    HW1 2891   2.517   0.456   1.719  0.8045  0.0064 -1.0245
  964SOL    HW2 2892   2.471   0.348   1.584  1.5430 -2.5774  0.1479
  965SOL     OW 2893   2.643   3.013   0.115 -0.1754  0.2143  0.2314
  965SOL    HW1 2894   2.694   2.956   0.036  4.3949  0.4671 -3.4890
  965SOL    HW2 2895   2.562   3.054   0.067 -0.2667 -0.8195  0.9754
  966SOL     OW 2896   2.554   2.592   2.154  0.0026  0.3986 -0.0751
  966SOL    HW1 2897   2.474   2.536   2.115  0.8747 -0.4449 -1.1945
  966SOL    HW2 2898   2.521   2.676   2.202 -1.2490  0.5118 -3.0130
  967SOL     OW 2899   2.773   2.841   2.454  0.4169  0.0853  0.3301
  967SOL    HW1 2900   2.804   2.764   2.386  2.0852 -0.5649 -1.1166
  967SOL    HW2 2901   2.844   2.916   2.460 -2.0896  0.2975 -0.4224
  968SOL     OW 2902   2.021   1.029   2.697 -0.8260  0.3768  0.2836
  968SOL    HW1 2903   1.994   1.127   2.656 -2.0299  1.4953 -0.4695
  968SOL    HW2 2904   1.989   0.943   2.644 -0.2346  0.5992 -1.6752
  969SOL     OW 2905   2.741   2.332   1.152 -0.0798 -0.1376 -0.0390
  969SOL    HW1 2906   2.717   2.357   1.054 -0.7926 -1.2134  0.5202
  969SOL    HW2 2907   2.776   2.234   1.162 -0.8119 -1.2706  0.6974
  970SOL     OW 2908   1.119   2.228   1.755 -0.0524 -0.0502  0.2594
  970SOL    HW1 2909   1.017   2.220   1.724 -2.0137  0.1135 -0.1908
  970SOL    HW2 2910   1.131   2.249   1.859 -3.0188 -2.3849  1.7274
  971SOL     OW 2911   2.851   2.066   1.934  0.5720 -0.2860 -0.3589
  971SOL    HW1 2912   2.841   2.169   1.961  0.7835  2.6148 -0.6838
  971SOL    HW2 2913   2.874   2.057   1.831 -2.2613  0.3447 -3.1633
  972SOL     OW 2914   2.054   2.408   0.244  0.5153  0.4526 -0.1082
  972SOL    HW1 2915   2.006   2.329   0.207  0.0551  0.3585  0.1418
  972SOL    HW2 2916   2.073   2.405   0.347  3.4333  0.0765  0.6578
  973SOL     OW 2917   1.265   1.071   1.956  0.1928  0.0412 -0.2314
  973SOL    HW1 2918   1.198   1.033   1.887  2.7499 -1.1992 -0.3808
  973SOL    HW2 2919   1.258   1.179   1.978 -0.8977 -1.0604 -1.4870
  974SOL     OW 2920   1.653   0.537   1.897 -0.4266 -0.4237  0.0788
  974SOL    HW1 2921   1.746   0.579   1.891  0.7503  1.7418  0.5365
  974SOL    HW2 2922   1.588   0.617   1.923 -3.0549  0.2436  1.7097
  975SOL     OW 2923   2.375   3.053   3.064  0.3458  0.1829 -0.1215
  975SOL    HW1 2924   2.338   2.980   3.126  2.4008 -0.6533  0.0574
  975SOL    HW2 2925   2.374   3.029   2.966  2.9403  2.3705  3.2677
  976SOL     OW 2926   1.912   2.882   2.321 -0.0313 -0.0490 -0.4162
  976SOL    HW1 2927   1.834   2.826   2.285  1.0126  3.7859  2.7619
  976SOL    HW2 2928   1.925   2.867   2.427  0.5703 -0.3464  1.2103
  977SOL     OW 2929   0.496   0.680   1.016 -0.1002 -0.2738 -0.2260
  977SOL    HW1 2930   0.394   0.673   0.988 -0.8996  1.5266 -0.8951
  977SOL    HW2 2931   0.556   0.616   0.966  1.5450  0.0200 -0.7983
   3.10000   3.10000   3.10000
