1000 SPC/Fw water molecules t=   0.29000 step= 290
 2931
    1SOL     OW    1   2.550   0.306   2.539 -0.4211  0.0052  0.2739
    1SOL    HW1    2   2.556   0.205   2.527  0.5647 -1.9847  0.5196
    1SOL    HW2    3   2.587   0.338   2.632  4.0967 -0.6168 -0.5215
    2SOL     OW    4   2.725   3.014   1.390  0.3231  0.4091 -0.4852
    2SOL    HW1    5   2.814   3.059   1.346  0.6177  2.3724 -1.5246
    2SOL    HW2    6   2.673   3.072   1.459 -1.4215 -1.8067  1.7641
    3SOL     OW    7   2.701   2.587   0.432 -0.4289 -0.0651  0.1354
    3SOL    HW1    8   2.695   2.483   0.426 -3.4215  0.2801 -2.2934
    3SOL    HW2    9   2.770   2.624   0.497 -0.2025  1.0739  0.1176
    4SOL     OW   10   1.334   1.495   2.393 -0.0200  0.1691 -0.0860
    4SOL    HW1   11   1.239   1.530   2.401  1.2543  0.7301 -0.5400
    4SOL    HW2   12   1.336   1.391   2.390 -1.8939 -1.7301 -0.4578
    5SOL     OW   13   1.225   1.489   3.021 -0.1260  0.0742 -0.1259
    5SOL    HW1   14   1.280   1.562   3.069 -1.1040  0.9133 -0.7443
    5SOL    HW2   15   1.136   1.527   2.993  1.7610  0.0401 -0.2438
    6SOL     OW   16   0.027   1.822   2.928 -0.4415 -0.4122 -0.1051
    6SOL    HW1   17   0.014   1.866   3.020  0.0778 -0.1528 -2.4311
    6SOL    HW2   18   0.005   1.718   2.928 -2.3151  0.2992 -4.1366
    7SOL     OW   19   2.584   0.842   1.154 -0.4687  1.1205 -0.1527
    7SOL    HW1   20   2.493   0.803   1.197  0.1103  1.0741  0.8798
    7SOL    HW2   21   2.586   0.837   1.051 -0.3044  1.3742  0.6514
    8SOL     OW   22   0.459   0.665   1.573 -0.2167 -0.5661 -0.1326
    8SOL    HW1   23   0.539   0.602   1.589 -0.6142  0.1567 -0.6678
    8SOL    HW2   24   0.382   0.624   1.518  0.7045 -0.2297  2.7474
    9SOL     OW   25   1.192   0.973   2.277  0.3057  0.1457  0.0269
    9SOL    HW1   26   1.229   1.060   2.230 -2.8178 -0.0216  0.9297
    9SOL    HW2   27   1.143   0.905   2.214 -2.1829 -4.0393 -0.6491
   10SOL     OW   28   0.701   1.321   1.243  1.0720 -0.2450 -0.2078
   10SOL    HW1   29   0.596   1.341   1.221 -0.5741 -1.0134  0.1549
   10SOL    HW2   30   0.752   1.407   1.258  1.7357 -5.1052  0.0814
   11SOL     OW   31   2.351   2.598   0.942 -0.0686  0.3867  0.2347
   11SOL    HW1   32   2.335   2.597   1.042 -1.4453  1.4009 -0.2015
   11SOL    HW2   33   2.436   2.540   0.913  1.8038 -0.0839 -2.5286
   12SOL     OW   34   1.456   0.891   0.434 -0.1499 -0.2428 -0.4079
   12SOL    HW1   35   1.393   0.914   0.355 -0.4549  0.0720 -1.3193
   12SOL    HW2   36   1.446   0.795   0.473 -2.4973  0.9972  1.8035
   13SOL     OW   37   2.524   0.644   1.830 -0.0242 -0.2205 -0.1410
   13SOL    HW1   38   2.425   0.654   1.860 -1.2590 -0.6749  0.6189
   13SOL    HW2   39   2.553   0.547   1.803  1.1551 -0.3404  0.9721
   14SOL     OW   40   1.919   3.090   0.598  0.6703  0.0567  0.5768
   14SOL    HW1   41   1.844   3.147   0.552  1.9595 -0.2351  3.9035
   14SOL    HW2   42   1.885   3.059   0.692  0.3914  1.6910  0.1000
   15SOL     OW   43   1.965   2.033   2.867  0.0245 -0.6041 -0.1081
   15SOL    HW1   44   1.898   2.109   2.901  0.7449  0.7982 -2.0653
   15SOL    HW2   45   1.926   1.977   2.789 -0.8304  1.5984 -0.6032
   16SOL     OW   46   1.628   1.693   0.035  0.5688  0.3200 -0.5117
   16SOL    HW1   47   1.638   1.589   0.030  2.7988  0.3208 -2.0736
   16SOL    HW2   48   1.711   1.743   0.071 -0.6100  1.2677  2.4483
   17SOL     OW   49   0.137   0.421   0.162  0.0729 -0.3005  0.2022
   17SOL    HW1   50   0.200   0.454   0.086 -0.5655  2.4729  0.6244
   17SOL    HW2   51   0.038   0.427   0.135  1.0696  2.0587 -1.1380
   18SOL     OW   52   1.027   2.916   2.205 -0.9262  0.1280  0.4794
   18SOL    HW1   53   0.942   2.875   2.171 -1.1016  0.2514 -0.3823
   18SOL    HW2   54   1.116   2.863   2.179 -2.1383  0.1239  0.0520
   19SOL     OW   55   0.478   0.943   1.947 -0.0762 -0.2590  0.4201
   19SOL    HW1   56   0.440   0.973   2.038 -1.0199 -3.1811  1.2317
   19SOL    HW2   57   0.564   0.892   1.962 -0.7392 -1.8298 -0.7815
   20SOL     OW   58   0.226   2.787   0.884 -0.1775 -0.4929 -0.0570
   20SOL    HW1   59   0.135   2.816   0.843  0.0751 -0.4168  1.8123
   20SOL    HW2   60   0.291   2.757   0.811 -1.1881 -0.1095  0.7253
   21SOL     OW   61   2.783   0.172   2.140 -0.4785  0.1691  0.1123
   21SOL    HW1   62   2.746   0.101   2.077  1.7361 -0.8638 -1.9493
   21SOL    HW2   63   2.808   0.137   2.231 -0.0869  0.5254 -0.4904
   22SOL     OW   64   2.323   0.188   3.079  0.1963  0.0855 -0.2880
   22SOL    HW1   65   2.327   0.083   3.071  0.2635 -3.9897  0.1266
   22SOL    HW2   66   2.227   0.227   3.098  0.2169  1.3201 -1.1052
   23SOL     OW   67   2.773   0.656   0.673  0.3212  0.7378 -0.6992
   23SOL    HW1   68   2.759   0.567   0.623 -0.1927 -1.9195  2.0405
   23SOL    HW2   69   2.783   0.736   0.607  1.9992 -0.0818  1.2409
   24SOL     OW   70   0.194   1.908   0.464  0.3088  0.2627 -0.2961
   24SOL    HW1   71   0.089   1.905   0.441  0.2944 -2.4056 -1.7928
   24SOL    HW2   72   0.243   1.911   0.367  1.5275  0.7511  0.2164
   25SOL     OW   73   2.257   0.492   0.185  0.1824 -0.5580 -0.2539
   25SOL    HW1   74   2.311   0.419   0.234 -2.9096 -0.2094  0.9759
   25SOL    HW2   75   2.262   0.498   0.087 -2.1008  2.0977  0.9415
   26SOL     OW   76   2.520   2.182   2.106 -0.3871  0.1895  0.0754
   26SOL    HW1   77   2.601   2.211   2.161 -0.2926  1.1292  0.9811
   26SOL    HW2   78   2.539   2.119   2.023 -0.1133 -0.1514 -0.2884
   27SOL     OW   79   0.682   2.965   0.091  0.5016 -0.2778 -0.0919
   27SOL    HW1   80   0.778   3.000   0.074  1.2282  1.6982  0.0604
   27SOL    HW2   81   0.621   2.979   0.008 -1.8616 -1.0809  1.7907
   28SOL     OW   82   1.564   0.176   0.258  0.3792 -0.3686  0.7332
   28SOL    HW1   83   1.616   0.136   0.178  0.0969 -2.2931  0.6298
   28SOL    HW2   84   1.609   0.268   0.293  1.5255 -2.2491  0.7482
   29SOL     OW   85   2.025   0.613   0.265  0.0022 -1.1019  0.2934
   29SOL    HW1   86   2.030   0.693   0.335 -0.2432  2.1501  1.8042
   29SOL    HW2   87   2.119   0.582   0.233 -0.7176  1.0449  1.4154
   30SOL     OW   88   0.158   2.056   0.946 -1.1928 -0.1172  0.3220
   30SOL    HW1   89   0.143   2.044   0.847  3.1976 -1.4002  0.9268
   30SOL    HW2   90   0.090   2.115   0.997 -0.0786  0.4328  1.0479
   31SOL     OW   91   2.106   0.032   2.295  0.5576 -0.4303 -0.4631
   31SOL    HW1   92   2.079   0.036   2.395  1.1908  0.7417 -0.2651
   31SOL    HW2   93   2.042  -0.029   2.239  1.8811 -0.2519 -1.7452
   32SOL     OW   94   2.910   0.134   0.131 -0.5256  0.3862 -0.3943
   32SOL    HW1   95   2.861   0.064   0.189  1.3369 -0.7531 -1.4681
   32SOL    HW2   96   2.990   0.174   0.179  1.4238 -0.2254  1.6345
   33SOL     OW   97   0.962   0.336   0.445  0.2895  0.3914  0.3406
   33SOL    HW1   98   0.918   0.235   0.442  0.1066 -2.3936  0.5074
   33SOL    HW2   99   1.029   0.341   0.521 -0.1937 -2.0002  0.4820
   34SOL     OW  100   0.421   2.887   1.059  0.1113 -0.1252  0.3255
   34SOL    HW1  101   0.351   2.857   0.987  2.6075  0.5434 -2.0718
   34SOL    HW2  102   0.518   2.863   1.033 -0.9921 -2.2385  0.0231
   35SOL     OW  103   0.038   0.030   1.833  0.0694  0.3869  0.5379
   35SOL    HW1  104   0.043  -0.069   1.863  0.2267 -0.6330  1.5334
   35SOL    HW2  105  -0.026   0.049   1.748 -3.5566  0.4055 -0.9541
   36SOL     OW  106   1.936   1.165   1.820 -0.0386 -0.2758 -0.4698
   36SOL    HW1  107   2.002   1.112   1.756  1.0950 -0.6582 -1.6693
   36SOL    HW2  108   1.980   1.238   1.883  5.0331  0.5934  0.9150
   37SOL     OW  109   1.155   0.266   0.948  0.4399 -0.3728 -0.4183
   37SOL    HW1  110   1.197   0.348   0.992  0.1431 -0.9547 -2.2093
   37SOL    HW2  111   1.208   0.177   0.960 -0.9940 -1.1177  0.7003
   38SOL     OW  112   1.118   2.678   2.395 -0.2733 -0.7356  0.0403
   38SOL    HW1  113   1.088   2.589   2.443  1.5468  1.2706 -0.0026
   38SOL    HW2  114   1.044   2.732   2.349 -0.8115  1.7492 -0.9719
   39SOL     OW  115   2.333   1.429   3.018  0.0116 -0.3573 -0.3153
   39SOL    HW1  116   2.411   1.367   3.011 -0.4747  0.9413 -1.3617
   39SOL    HW2  117   2.293   1.432   3.112 -0.0652 -2.8161  0.8995
   40SOL     OW  118   2.093   2.553   2.536  0.7436  0.1626 -0.7559
   40SOL    HW1  119   2.060   2.644   2.570 -3.0133  0.0801  0.5395
   40SOL    HW2  120   2.033   2.495   2.478  0.5815 -0.9891 -1.8814
   41SOL     OW  121   2.924   0.715   2.735 -0.2113  0.1095 -0.2980
   41SOL    HW1  122   2.840   0.733   2.791  1.0192  1.6608 -2.2659
   41SOL    HW2  123   2.923   0.622   2.696 -2.0282  2.4921  2.1404
   42SOL     OW  124   1.796   1.741   0.606 -0.0301 -0.0243  0.2222
   42SOL    HW1  125   1.751   1.661   0.560 -0.2078 -1.0780  0.5506
   42SOL    HW2  126   1.835   1.808   0.542 -1.8950 -0.8088  2.3836
   43SOL     OW  127   0.477   1.713   1.235 -0.9700  0.1166  0.9325
   43SOL    HW1  128   0.434   1.703   1.333 -1.8823  1.0930  1.3467
   43SOL    HW2  129   0.406   1.702   1.162  0.1412 -1.6496  0.5361
   44SOL     OW  130   1.745   2.525   0.024  0.5989  0.9343 -0.0178
   44SOL    HW1  131   1.760   2.564  -0.069  0.2705 -0.9345 -0.6705
   44SOL    HW2  132   1.824   2.529   0.091 -0.1710  0.9406 -3.3929
   45SOL     OW  133   0.346   1.950   2.561 -0.9629  0.2470  0.6058
   45SOL    HW1  134   0.275   1.947   2.484 -1.2017 -0.6158  0.0092
   45SOL    HW2  135   0.416   1.871   2.558  1.0498  0.5311  1.2480
   46SOL     OW  136   1.159   0.635   0.186 -0.3035 -0.0273  0.6909
   46SOL    HW1  137   1.213   0.709   0.135 -1.0408 -0.3563  0.3679
   46SOL    HW2  138   1.070   0.666   0.230  2.1180  3.6476  1.4593
   47SOL     OW  139   0.254   2.438   1.608  0.0424 -0.0365 -0.0731
   47SOL    HW1  140   0.328   2.370   1.600  0.3736  0.2588  0.7144
   47SOL    HW2  141   0.195   2.447   1.517  0.8307 -0.4557 -0.4064
   48SOL     OW  142   2.566   0.577   0.166  0.1197  0.2310 -0.0400
   48SOL    HW1  143   2.517   0.587   0.266 -1.6688 -0.0080  3.9999
   48SOL    HW2  144   2.664   0.612   0.157  1.5772 -2.0779 -1.2782
   49SOL     OW  145   0.348   0.848   1.733 -0.3231 -0.5558  0.2075
   49SOL    HW1  146   0.398   0.886   1.818  0.2237 -0.0550  2.1555
   49SOL    HW2  147   0.405   0.772   1.688 -0.9517 -1.2225  2.8905
   50SOL     OW  148   1.716   1.092   0.356 -0.4066 -0.2666  0.3997
   50SOL    HW1  149   1.704   0.991   0.343 -0.5471 -0.0842  0.6721
   50SOL    HW2  150   1.667   1.126   0.434  0.9948  0.0198 -0.3784
   51SOL     OW  151   3.029   1.897   0.371 -0.2328 -0.0528 -0.2602
   51SOL    HW1  152   3.030   1.936   0.274 -2.4288  0.6182 -1.4334
   51SOL    HW2  153   3.034   1.793   0.369  1.1322  0.0527  0.9026
   52SOL     OW  154   0.785   2.002   0.501 -0.8457  0.2458  0.6753
   52SOL    HW1  155   0.690   2.043   0.531 -2.3871  0.1593  0.0749
   52SOL    HW2  156   0.811   1.924   0.564 -0.8713  0.4516 -0.2004
   53SOL     OW  157   3.095   0.366   1.539  1.1368  0.2344 -0.1746
   53SOL    HW1  158   3.010   0.380   1.588  1.8372 -0.4546  1.1286
   53SOL    HW2  159   3.119   0.455   1.492 -0.2097 -0.3728  1.0210
   54SOL     OW  160   1.734   0.447   3.034  0.4222 -0.0312  0.2884
   54SOL    HW1  161   1.788   0.414   3.119  1.2166 -3.1121  3.3951
   54SOL    HW2  162   1.636   0.474   3.054 -0.3063  0.1837  0.2762
   55SOL     OW  163   0.712   2.946   0.619  0.0917  0.3792 -0.3709
   55SOL    HW1  164   0.671   3.042   0.634 -2.0851  0.5815  2.7534
   55SOL    HW2  165   0.804   2.946   0.574 -0.8413 -2.7615  0.8971
   56SOL     OW  166   0.469   1.547   3.046 -0.5935  0.2701 -0.6446
   56SOL    HW1  167   0.408   1.613   3.094  1.7944 -2.7597 -0.5820
   56SOL    HW2  168   0.418   1.464   3.012 -0.0637 -2.5175 -1.2913
   57SOL     OW  169   1.794   2.393   2.667 -0.0632  0.5257 -0.3152
   57SOL    HW1  170   1.846   2.339   2.596  1.6883 -1.2623  1.4648
   57SOL    HW2  171   1.717   2.451   2.633  0.2561 -0.5559  1.1467
   58SOL     OW  172   0.609   0.460   1.112  0.2927 -0.2662  0.4982
   58SOL    HW1  173   0.553   0.552   1.100  1.6285  0.1304 -2.4330
   58SOL    HW2  174   0.569   0.368   1.145  3.8134  0.8023 -0.3459
   59SOL     OW  175   0.477   2.406   2.676 -0.4817 -0.2412  0.3228
   59SOL    HW1  176   0.472   2.301   2.686  2.5516 -1.6377 -0.6664
   59SOL    HW2  177   0.534   2.443   2.751  0.2663  2.0738 -0.0860
   60SOL     OW  178   2.313   2.149   2.286 -0.2138 -0.3146 -0.0458
   60SOL    HW1  179   2.386   2.155   2.212  0.3721  0.8356 -0.4547
   60SOL    HW2  180   2.338   2.185   2.379  0.8988 -0.5193 -1.6978
   61SOL     OW  181   1.411   0.609   0.474 -0.0734  0.9115  0.1231
   61SOL    HW1  182   1.309   0.628   0.499 -1.6871  0.0277  0.3430
   61SOL    HW2  183   1.417   0.588   0.372  1.4646 -1.2877 -1.8322
   62SOL     OW  184   2.646   1.877   3.093 -0.3118 -0.2765 -0.2299
   62SOL    HW1  185   2.667   1.775   3.101 -0.5900 -1.1888  0.1500
   62SOL    HW2  186   2.645   1.900   2.991 -0.5701  0.3061  1.6438
   63SOL     OW  187   0.518   0.829   0.165 -0.5810  0.4122 -0.0163
   63SOL    HW1  188   0.481   0.920   0.130 -1.5506 -0.7081 -0.5355
   63SOL    HW2  189   0.605   0.834   0.222  0.7842  0.5303 -1.0429
   64SOL     OW  190   0.100   0.470   2.521  0.2094 -0.0456 -0.2153
   64SOL    HW1  191   0.178   0.511   2.569 -2.1041 -3.4782 -3.1921
   64SOL    HW2  192   0.060   0.516   2.436 -1.3079  0.0080  1.5104
   65SOL     OW  193   0.198   1.449   0.662  0.8028  0.2489  0.1257
   65SOL    HW1  194   0.196   1.527   0.737 -3.2410  1.9479 -0.7320
   65SOL    HW2  195   0.290   1.446   0.617  0.1598  0.7613  0.6340
   66SOL     OW  196   2.507   0.414   0.688  0.8023  0.1374 -0.9033
   66SOL    HW1  197   2.438   0.482   0.710  1.4533 -0.0101 -0.9378
   66SOL    HW2  198   2.467   0.315   0.691  0.7167  2.6905 -0.3317
   67SOL     OW  199   0.509   2.503   1.346  0.0401 -0.1324  0.0956
   67SOL    HW1  200   0.595   2.499   1.409 -1.3293 -2.1633  1.6620
   67SOL    HW2  201   0.473   2.407   1.324  1.4086 -0.0783 -1.5430
   68SOL     OW  202   0.996   1.101   2.457  0.1431  0.0112  0.8748
   68SOL    HW1  203   1.067   1.035   2.412 -0.2727  0.6509 -1.4373
   68SOL    HW2  204   0.927   1.144   2.387 -0.6117 -1.5431  0.5890
   69SOL     OW  205   0.760   2.694   2.143  0.4779  0.1815 -0.3949
   69SOL    HW1  206   0.810   2.608   2.190 -0.2932 -1.4082  1.5976
   69SOL    HW2  207   0.659   2.687   2.153 -1.1578  2.8623 -2.0850
   70SOL     OW  208   0.623   0.262   2.725  0.6096  0.5429  0.1300
   70SOL    HW1  209   0.583   0.284   2.816 -1.3153 -0.9078  0.6341
   70SOL    HW2  210   0.584   0.173   2.685 -0.4929 -0.3746 -0.2410
   71SOL     OW  211   1.100   1.784   0.336  0.6035  0.1818  0.2842
   71SOL    HW1  212   1.062   1.692   0.369 -0.1401  2.4846 -1.7563
   71SOL    HW2  213   1.093   1.797   0.234  1.0448 -2.4640 -0.4252
   72SOL     OW  214   1.803   0.127   2.106  0.3096  0.0070  0.5705
   72SOL    HW1  215   1.877   0.141   2.037 -0.0413 -0.0150 -0.1251
   72SOL    HW2  216   1.801   0.034   2.143 -1.4036  2.1670 -0.6804
   73SOL     OW  217   2.793   2.193   2.508 -0.7376 -0.1272 -0.3059
   73SOL    HW1  218   2.773   2.095   2.481  2.4683 -3.9166  2.6675
   73SOL    HW2  219   2.829   2.199   2.610  2.4685 -1.9486 -1.0287
   74SOL     OW  220   2.737   2.993   2.048  0.0516 -0.4860  0.0918
   74SOL    HW1  221   2.650   2.986   2.107  0.6834  2.8546 -0.8658
   74SOL    HW2  222   2.824   3.007   2.103 -0.1212  0.9574  0.1076
   75SOL     OW  223   0.910   0.763   1.016 -0.2668 -0.4547  0.4148
   75SOL    HW1  224   0.824   0.810   0.970  0.7815 -0.5530  0.8139
   75SOL    HW2  225   0.935   0.803   1.106  0.8059 -0.0169 -1.6171
   76SOL     OW  226   1.738   1.244   2.573  0.0340  0.0454  0.3554
   76SOL    HW1  227   1.652   1.185   2.581 -1.4927 -0.0287  0.6462
   76SOL    HW2  228   1.739   1.321   2.635 -1.6850  0.4228 -2.0583
   77SOL     OW  229   2.951   0.988   0.974 -0.7887  0.4375 -0.8174
   77SOL    HW1  230   2.909   0.897   0.987 -1.7825 -0.0397 -0.7523
   77SOL    HW2  231   3.034   0.999   1.036 -0.9914 -4.6023  1.1282
   78SOL     OW  232   1.974   1.410   1.510 -0.6615 -0.2631  0.4356
   78SOL    HW1  233   2.071   1.421   1.465  0.3612  0.1664 -1.0613
   78SOL    HW2  234   1.900   1.368   1.444 -4.3424  1.0015 -0.0585
   79SOL     OW  235   0.607   1.332   0.829 -0.0535  0.6002 -0.1520
   79SOL    HW1  236   0.518   1.370   0.867  0.6103 -0.7296 -1.5626
   79SOL    HW2  237   0.593   1.267   0.754  1.4759  1.2571 -0.7326
   80SOL     OW  238   0.672   0.504   1.588 -0.0409 -0.3517 -0.1038
   80SOL    HW1  239   0.722   0.560   1.519 -4.2617 -0.9535 -2.4550
   80SOL    HW2  240   0.697   0.404   1.583  0.1633  1.4674 -0.8855
   81SOL     OW  241   1.036   1.391   2.639 -0.7153 -0.2821 -0.0944
   81SOL    HW1  242   1.038   1.294   2.668 -2.6402 -3.2866 -1.9219
   81SOL    HW2  243   0.977   1.401   2.553 -2.3678  0.6878  0.2267
   82SOL     OW  244   0.945   2.997   1.531  0.5612 -0.1071  0.4630
   82SOL    HW1  245   1.019   2.935   1.567  2.3218 -3.1619 -1.2076
   82SOL    HW2  246   0.861   2.947   1.501 -1.2640  0.5704 -0.8981
   83SOL     OW  247   2.749   2.489   0.791 -0.2544  0.2809  0.2336
   83SOL    HW1  248   2.664   2.453   0.739  0.2029  1.7445 -0.4978
   83SOL    HW2  249   2.790   2.565   0.735  0.2477  1.0520 -0.3941
   84SOL     OW  250   0.723   0.019   2.417  0.0136  0.4861 -0.0063
   84SOL    HW1  251   0.637  -0.010   2.462  1.1209  0.0854 -0.8076
   84SOL    HW2  252   0.801  -0.049   2.440  0.3430  1.3847 -1.5307
   85SOL     OW  253   0.390   1.686   1.512  0.2712  0.5436 -0.0725
   85SOL    HW1  254   0.328   1.772   1.494 -0.7637 -0.7527 -0.3801
   85SOL    HW2  255   0.386   1.657   1.614  0.6242 -2.2266 -0.1774
   86SOL     OW  256   0.349   0.989   1.476  0.2369 -0.1542 -0.1384
   86SOL    HW1  257   0.338   0.946   1.382  0.2803  1.2064 -0.7241
   86SOL    HW2  258   0.354   0.922   1.557  1.0820 -0.7707 -0.2590
   87SOL     OW  259   1.558   0.604   0.226 -0.7854 -0.0114  0.7779
   87SOL    HW1  260   1.602   0.696   0.255  1.3733 -0.4754 -3.3022
   87SOL    HW2  261   1.508   0.614   0.137  0.0100  1.2530  0.0835
   88SOL     OW  262   1.580   1.253   0.201 -0.2514 -0.0007  0.5744
   88SOL    HW1  263   1.638   1.179   0.244 -1.7015  2.8437  1.3001
   88SOL    HW2  264   1.484   1.250   0.241 -1.2370 -0.7750 -2.8810
   89SOL     OW  265   3.019   0.446   0.574  0.8365 -0.1630 -0.0937
   89SOL    HW1  266   3.082   0.362   0.594  1.0573  1.9019 -0.3724
   89SOL    HW2  267   2.918   0.428   0.593 -0.1339  1.8471  1.2439
   90SOL     OW  268   0.968   1.662   3.031 -0.5382 -0.1645 -0.3841
   90SOL    HW1  269   0.887   1.650   3.090  1.1362  2.4041  1.7766
   90SOL    HW2  270   0.946   1.684   2.931  0.5262  0.2644 -1.4418
   91SOL     OW  271   1.292   1.491   1.771  0.3684 -0.1948  0.4381
   91SOL    HW1  272   1.325   1.577   1.822  1.0645  0.2199 -2.6046
   91SOL    HW2  273   1.370   1.441   1.724  0.4749 -1.0007 -0.7750
   92SOL     OW  274   0.047   1.050   1.186 -1.1370  0.1722  0.5416
   92SOL    HW1  275   0.131   1.062   1.123  0.2137  2.0193 -0.1062
   92SOL    HW2  276   0.065   1.026   1.287  0.9058  1.4273  0.6364
   93SOL     OW  277   0.020   2.815   0.067 -0.6804 -0.9662  0.0317
   93SOL    HW1  278  -0.027   2.829  -0.024  1.6812  3.2176 -1.1305
   93SOL    HW2  279   0.064   2.725   0.084 -0.3078 -0.5482 -2.4631
   94SOL     OW  280   1.512   1.346   1.677 -0.4859  0.1325 -0.0519
   94SOL    HW1  281   1.516   1.250   1.712  2.0445  0.3395 -1.0208
   94SOL    HW2  282   1.584   1.404   1.726 -0.3715  1.5781  1.7754
   95SOL     OW  283   1.332   2.471   2.915 -0.3109  0.1738  0.1732
   95SOL    HW1  284   1.270   2.471   2.999 -1.9540  0.1580  0.9796
   95SOL    HW2  285   1.343   2.379   2.869 -1.8249 -2.6480 -1.2126
   96SOL     OW  286   0.510   2.017   1.202  0.5309 -0.0623  0.2312
   96SOL    HW1  287   0.471   2.059   1.114  0.7351  0.9292 -0.7394
   96SOL    HW2  288   0.464   1.925   1.216  0.1448 -1.3533  1.1663
   97SOL     OW  289   0.379   1.446   2.508  0.4735  0.5884  0.6589
   97SOL    HW1  290   0.278   1.435   2.536 -1.9442 -0.5307 -2.7919
   97SOL    HW2  291   0.421   1.518   2.572  0.6266  2.2305  0.8421
   98SOL     OW  292   2.012   1.667   1.310 -0.2016 -0.0593  0.4591
   98SOL    HW1  293   2.054   1.575   1.280 -1.8848  0.3245 -3.0496
   98SOL    HW2  294   1.955   1.653   1.390  0.7624 -2.8194 -1.2976
   99SOL     OW  295   2.486   2.140   1.331  0.3567  0.2423  0.2251
   99SOL    HW1  296   2.453   2.188   1.418  3.1467 -0.4072  2.7934
   99SOL    HW2  297   2.486   2.035   1.343 -1.8423 -0.7311  1.1322
  100SOL     OW  298   2.303   0.364   2.031  0.6470  0.0364 -0.2673
  100SOL    HW1  299   2.244   0.337   2.115  0.1111  1.0858 -1.6063
  100SOL    HW2  300   2.400   0.402   2.059  4.4268  1.0721 -1.7003
  101SOL     OW  301   0.405   1.477   0.296 -0.6431  0.4346  0.1826
  101SOL    HW1  302   0.455   1.493   0.385  0.0035 -1.1325  0.0422
  101SOL    HW2  303   0.363   1.562   0.255 -1.1164  1.3847 -0.9170
  102SOL     OW  304   2.306   1.080   0.801  0.2062  0.3617  0.3647
  102SOL    HW1  305   2.246   1.011   0.746 -0.6143 -0.1135  2.5873
  102SOL    HW2  306   2.364   1.142   0.741 -1.6826  0.8874 -3.3492
  103SOL     OW  307   2.294   0.055   0.420  0.3932 -0.6016 -0.2109
  103SOL    HW1  308   2.347   0.135   0.373  2.8543  2.5083 -0.7780
  103SOL    HW2  309   2.351   0.018   0.501  0.3160  0.0211  0.1317
  104SOL     OW  310   0.079   1.874   2.109 -0.3543 -0.2281 -0.4707
  104SOL    HW1  311   0.097   1.824   2.015 -1.3299  1.4040  0.6947
  104SOL    HW2  312  -0.018   1.903   2.131 -0.8235 -0.1021 -2.1676
  105SOL     OW  313   1.143   1.952   0.839  0.9335  0.3645 -0.5185
  105SOL    HW1  314   1.093   2.017   0.776 -0.0017 -0.9187 -0.3606
  105SOL    HW2  315   1.192   1.876   0.790  1.9508  0.8012  1.8195
  106SOL     OW  316   2.081   0.423   1.367  0.1906  0.0504  0.1912
  106SOL    HW1  317   2.017   0.351   1.402 -1.8712  2.6808 -2.4420
  106SOL    HW2  318   2.050   0.511   1.410  1.8332  0.2550 -0.7271
  107SOL     OW  319   1.820   3.032   1.071 -0.1314  0.9227 -0.0908
  107SOL    HW1  320   1.854   3.096   1.145 -0.6585 -1.6858  0.6027
  107SOL    HW2  321   1.779   2.947   1.120  0.5272 -0.3249  1.0362
  108SOL     OW  322   0.759   2.642   1.308 -0.0125  0.0879  0.0897
  108SOL    HW1  323   0.725   2.730   1.362 -1.6191  1.8834  0.1762
  108SOL    HW2  324   0.853   2.612   1.344  2.8817  2.0827 -1.9467
  109SOL     OW  325   2.128   0.103   0.758  0.8415  0.1727  0.6381
  109SOL    HW1  326   2.042   0.067   0.710  0.6551  0.1474 -0.6519
  109SOL    HW2  327   2.150   0.050   0.845 -3.2441 -0.3250  0.7822
  110SOL     OW  328   0.474   2.814   2.729 -0.3075  0.0411  0.8529
  110SOL    HW1  329   0.495   2.842   2.630  0.1363  0.2304  0.2744
  110SOL    HW2  330   0.545   2.744   2.765  0.1635  2.5895 -0.8334
  111SOL     OW  331   1.302   0.517   2.279  0.6494  0.0065 -0.0428
  111SOL    HW1  332   1.221   0.553   2.328  2.5754 -2.1927 -1.9442
  111SOL    HW2  333   1.340   0.439   2.331 -1.3785  0.1951  0.4025
  112SOL     OW  334   1.738   0.499   1.400  0.3481  0.4112 -0.1844
  112SOL    HW1  335   1.716   0.524   1.297 -0.4831  0.6559 -1.8424
  112SOL    HW2  336   1.688   0.417   1.438  1.1303 -0.1258 -0.0988
  113SOL     OW  337   2.324   1.641   1.706  0.4427 -0.3832 -0.2400
  113SOL    HW1  338   2.373   1.557   1.677  0.0656  0.0349  1.6205
  113SOL    HW2  339   2.331   1.665   1.810 -0.9112 -1.7726 -0.4254
  114SOL     OW  340   0.314   0.563   1.302 -0.3880 -0.2588  0.1791
  114SOL    HW1  341   0.339   0.661   1.281  0.5583  0.3647  1.0376
  114SOL    HW2  342   0.255   0.513   1.231 -1.7236 -0.3327  1.1099
  115SOL     OW  343   2.607   1.568   1.204  0.1897  0.4908 -0.2875
  115SOL    HW1  344   2.660   1.486   1.248  0.6497  1.0159  2.3477
  115SOL    HW2  345   2.662   1.611   1.127  1.0964  1.5295 -0.8188
  116SOL     OW  346   1.818   1.083   0.751 -0.0231 -0.4921  0.2174
  116SOL    HW1  347   1.755   1.020   0.695 -0.9533  0.1733 -1.2476
  116SOL    HW2  348   1.768   1.176   0.769 -4.2819 -0.4791  2.9092
  117SOL     OW  349   1.129   0.365   0.664 -0.3966 -0.2563  0.2943
  117SOL    HW1  350   1.123   0.338   0.767  0.7892  0.5771  0.6689
  117SOL    HW2  351   1.200   0.436   0.645 -1.3007  0.3635  0.9880
  118SOL     OW  352   1.093   1.097   1.139  0.1964 -0.0810  0.6151
  118SOL    HW1  353   1.063   1.010   1.189  1.4578 -2.0286  0.1636
  118SOL    HW2  354   1.094   1.180   1.193  0.2189 -0.6811 -2.7989
  119SOL     OW  355   1.834   1.626   2.050  0.2847 -0.4652  0.3882
  119SOL    HW1  356   1.804   1.706   2.111  0.2688  1.8979  3.5605
  119SOL    HW2  357   1.928   1.600   2.075 -2.2737  1.2824  0.2334
  120SOL     OW  358   2.985   2.802   0.319  0.7187  0.6542 -0.6577
  120SOL    HW1  359   3.033   2.815   0.230 -0.3657 -0.5425 -1.0346
  120SOL    HW2  360   3.008   2.704   0.354 -0.4989  0.8190 -0.7593
  121SOL     OW  361   2.008   0.712   2.178  0.3392 -0.3712 -0.1610
  121SOL    HW1  362   2.042   0.744   2.088 -4.5961  0.8334  0.5961
  121SOL    HW2  363   1.985   0.609   2.180 -1.4124 -2.3724 -1.2231
  122SOL     OW  364   2.746   2.568   1.372 -0.2595  0.5768  0.3920
  122SOL    HW1  365   2.751   2.565   1.264 -1.4322  1.8565 -2.7293
  122SOL    HW2  366   2.753   2.475   1.412  0.2289  2.9164 -2.1812
  123SOL     OW  367   1.720   0.040   1.695  0.0144  0.2776  0.3320
  123SOL    HW1  368   1.729  -0.008   1.604  1.8063  4.4089  1.2035
  123SOL    HW2  369   1.814   0.063   1.736 -0.1544  0.6159  2.8329
  124SOL     OW  370   0.139   0.495   1.085 -0.5359 -0.1847  0.2813
  124SOL    HW1  371   0.111   0.579   1.138 -2.7703  2.1566 -0.5029
  124SOL    HW2  372   0.114   0.483   0.987  1.4513 -0.0542  1.7591
  125SOL     OW  373   0.879   1.770   0.675 -0.4546  0.1749  0.0070
  125SOL    HW1  374   0.979   1.743   0.662  0.9882  1.7137 -1.6461
  125SOL    HW2  375   0.843   1.754   0.768  0.9703  0.3327 -2.1924
  126SOL     OW  376   1.908   2.384   2.395 -0.1848  0.4099  0.1779
  126SOL    HW1  377   1.952   2.309   2.340  0.0196  0.6130  0.4992
  126SOL    HW2  378   1.807   2.376   2.406  0.2222 -0.6673  1.8431
  127SOL     OW  379   0.811   0.972   0.182 -0.8864 -0.0405  0.4393
  127SOL    HW1  380   0.843   1.021   0.268 -1.4220  1.1105 -1.0264
  127SOL    HW2  381   0.829   0.868   0.183  3.1239 -0.5727 -1.1612
  128SOL     OW  382   0.969   0.169   1.479 -0.3273  0.2562 -0.3460
  128SOL    HW1  383   0.889   0.213   1.430 -1.4071  0.2255 -0.9676
  128SOL    HW2  384   0.984   0.068   1.452 -1.9496 -1.1642 -2.4063
  129SOL     OW  385   1.853   0.679   1.875  0.1965 -0.1265 -0.4874
  129SOL    HW1  386   1.872   0.675   1.775  0.8286 -1.3438  4.2908
  129SOL    HW2  387   1.873   0.777   1.911 -0.3644 -1.5544  1.7843
  130SOL     OW  388   1.336   2.086   1.025  0.1894  0.6435  0.2679
  130SOL    HW1  389   1.278   2.022   0.963 -2.3499  1.0964 -1.7062
  130SOL    HW2  390   1.362   2.177   0.985 -1.0983  0.2955  1.6695
  131SOL     OW  391   0.003   1.517   1.394 -0.0824 -0.1928 -0.0094
  131SOL    HW1  392  -0.056   1.432   1.377  0.1437 -0.3051 -1.1087
  131SOL    HW2  393   0.106   1.493   1.381  0.1141 -2.1914 -0.8759
  132SOL     OW  394   1.938   2.459   0.515  0.0039 -0.6884 -0.1572
  132SOL    HW1  395   1.840   2.435   0.535  1.1276 -0.2846  0.4158
  132SOL    HW2  396   2.012   2.412   0.567 -1.3057 -0.3826 -0.8556
  133SOL     OW  397   1.821   2.267   2.922  0.2998 -0.2154  0.5557
  133SOL    HW1  398   1.899   2.322   2.965  0.4540  1.8791 -0.9562
  133SOL    HW2  399   1.807   2.295   2.826  0.7174 -0.5640  0.3643
  134SOL     OW  400   2.693   2.357   1.598  0.3999  0.3300 -0.1537
  134SOL    HW1  401   2.620   2.348   1.673  1.3631 -0.9063 -0.5854
  134SOL    HW2  402   2.770   2.424   1.618  2.4932 -3.1438  4.4043
  135SOL     OW  403   0.727   1.551   2.581 -0.0418 -0.2539  0.7320
  135SOL    HW1  404   0.697   1.466   2.626  3.2414  2.6791 -2.2999
  135SOL    HW2  405   0.792   1.513   2.508  1.9752 -1.0234 -0.5446
  136SOL     OW  406   1.195   2.030   0.484  0.0138 -0.5336 -0.1793
  136SOL    HW1  407   1.121   2.068   0.542  2.2885  1.0480  0.2019
  136SOL    HW2  408   1.170   1.948   0.425 -0.5736 -0.0635 -0.9552
  137SOL     OW  409   0.391   1.066   2.194  0.1674 -0.4165 -0.4175
  137SOL    HW1  410   0.296   1.093   2.227  1.3793 -0.0724 -0.3580
  137SOL    HW2  411   0.447   1.025   2.266 -1.4799  0.0799  0.2024
  138SOL     OW  412   2.447   1.484   0.231  0.2310  0.0963 -0.5691
  138SOL    HW1  413   2.350   1.472   0.206  0.7421 -0.0935  0.7854
  138SOL    HW2  414   2.477   1.414   0.299 -0.5924  0.1070 -1.0284
  139SOL     OW  415   1.785   2.603   1.212  0.5307  0.1035 -0.2387
  139SOL    HW1  416   1.683   2.569   1.198 -1.4773  0.2515 -0.7083
  139SOL    HW2  417   1.843   2.544   1.273  2.1647 -1.4993 -3.2552
  140SOL     OW  418   2.981   2.981   2.493 -0.1621 -0.3530 -0.2954
  140SOL    HW1  419   3.041   2.891   2.497  2.7039 -1.9569 -2.8509
  140SOL    HW2  420   3.022   3.063   2.542  0.5571 -0.1784 -2.1701
  141SOL     OW  421   1.208   1.630   1.551  0.0516  0.3800 -0.3063
  141SOL    HW1  422   1.188   1.720   1.592  0.6286 -1.7386 -1.8801
  141SOL    HW2  423   1.249   1.565   1.617  2.7045  1.8411 -4.0578
  142SOL     OW  424   1.572   0.630   2.269  0.1092  0.0977  0.4018
  142SOL    HW1  425   1.592   0.634   2.167 -1.6081 -1.4742  0.3254
  142SOL    HW2  426   1.470   0.602   2.274  1.7163  0.1168 -0.2401
  143SOL     OW  427   2.740   0.881   0.501 -0.8034  0.8159  0.3618
  143SOL    HW1  428   2.750   0.908   0.399  0.9542 -0.8473  1.1207
  143SOL    HW2  429   2.797   0.932   0.573 -0.5540 -0.5031  1.0451
  144SOL     OW  430   2.977   1.268   1.369  0.9027  0.1807 -0.1098
  144SOL    HW1  431   2.961   1.239   1.469 -2.2478  2.2207  0.4567
  144SOL    HW2  432   3.010   1.193   1.304  1.9897  1.1662 -1.3381
  145SOL     OW  433   1.077   1.884   0.065 -0.3627 -0.3135 -0.3054
  145SOL    HW1  434   1.073   1.974   0.013  2.2044 -1.0884 -2.0085
  145SOL    HW2  435   1.052   1.801   0.003  0.8837 -0.8541 -0.5109
  146SOL     OW  436   2.540   0.638   1.484 -0.2311 -0.0362  0.6973
  146SOL    HW1  437   2.477   0.564   1.458  2.7435 -1.5300 -1.8635
  146SOL    HW2  438   2.496   0.729   1.504 -1.6857  0.7217 -0.5669
  147SOL     OW  439   1.033   2.525   0.599 -0.0085  0.1981 -0.2906
  147SOL    HW1  440   1.013   2.593   0.522  2.3275 -2.7865 -0.0572
  147SOL    HW2  441   1.123   2.478   0.586 -1.6435 -1.6798 -0.3779
  148SOL     OW  442   1.646   1.422  -0.001  0.6370  0.1776 -0.0277
  148SOL    HW1  443   1.696   1.354  -0.067 -0.0031  0.8005 -3.4274
  148SOL    HW2  444   1.595   1.373   0.080  0.0721  0.6007 -1.9817
  149SOL     OW  445   0.660   1.402   1.976  0.2931  0.2807 -0.3164
  149SOL    HW1  446   0.567   1.390   2.018  0.4936 -0.2644  0.6712
  149SOL    HW2  447   0.686   1.323   1.915 -1.0013 -1.7480  0.0772
  150SOL     OW  448   2.978   1.265   0.948 -0.3568 -0.0889  0.3475
  150SOL    HW1  449   3.061   1.315   0.991 -1.1142  1.8142 -2.1207
  150SOL    HW2  450   2.982   1.162   0.962  1.7008 -1.6791 -0.2291
  151SOL     OW  451   0.194   0.765   2.133  0.6422  0.1418  0.5053
  151SOL    HW1  452   0.147   0.854   2.101 -1.2347 -0.0866  1.2727
  151SOL    HW2  453   0.238   0.708   2.052 -1.7212  0.5276  0.5623
  152SOL     OW  454   1.415   1.751   1.266 -0.4667 -0.2150 -0.0067
  152SOL    HW1  455   1.390   1.773   1.362  2.1369 -0.5247 -1.4107
  152SOL    HW2  456   1.350   1.792   1.200  1.5504  1.3348 -0.7671
  153SOL     OW  457   0.045   1.534   0.168 -0.4655  0.2001 -0.4160
  153SOL    HW1  458   0.039   1.430   0.156 -0.5746  1.7069 -2.4651
  153SOL    HW2  459   0.059   1.568   0.268 -0.1455  1.6919  2.5246
  154SOL     OW  460   2.419   1.882   2.830 -0.3904 -0.5926 -0.2936
  154SOL    HW1  461   2.432   1.784   2.853 -1.2589 -0.2970 -0.1916
  154SOL    HW2  462   2.444   1.904   2.734  0.0472  0.8787 -0.7910
  155SOL     OW  463   2.499   1.260   0.366 -0.3798  0.4957 -0.6047
  155SOL    HW1  464   2.593   1.246   0.317 -1.7238 -1.0472 -0.5287
  155SOL    HW2  465   2.442   1.171   0.376 -0.9215 -0.7242 -0.5339
  156SOL     OW  466   2.540   0.934   0.870  0.5072 -0.4740 -0.0368
  156SOL    HW1  467   2.446   0.987   0.868 -2.0492  1.4130 -1.0077
  156SOL    HW2  468   2.619   0.986   0.831  0.5534  0.2258  1.8956
  157SOL     OW  469   1.260   3.015   3.013 -0.5782 -0.4007 -0.7031
  157SOL    HW1  470   1.329   2.965   2.956 -2.2046 -0.5577 -0.4559
  157SOL    HW2  471   1.271   3.115   3.023 -2.3276  0.7397  3.4469
  158SOL     OW  472   1.052   1.884   2.031 -0.1400 -0.4999 -0.2674
  158SOL    HW1  473   1.093   1.836   2.117 -1.2277  0.0545  1.8127
  158SOL    HW2  474   0.956   1.922   2.044 -0.6882  1.7469  0.2680
  159SOL     OW  475   0.850   0.383   1.299  0.1000  0.2977 -0.2976
  159SOL    HW1  476   0.830   0.479   1.334 -0.1477  1.7065 -0.3278
  159SOL    HW2  477   0.781   0.345   1.231 -1.1536 -1.2981 -1.3077
  160SOL     OW  478   1.456   2.456   1.651  0.0407  0.9234 -0.0285
  160SOL    HW1  479   1.459   2.551   1.609  0.9354 -2.7042 -1.7399
  160SOL    HW2  480   1.542   2.405   1.616  1.2897  0.6730 -2.5689
  161SOL     OW  481   0.134   2.925   0.323 -0.1074 -0.3954 -0.1023
  161SOL    HW1  482   0.044   2.876   0.346 -0.5690  2.4995 -0.1453
  161SOL    HW2  483   0.119   2.988   0.252 -1.7692 -3.4985  2.5259
  162SOL     OW  484   2.586   1.905   0.505  0.3908  0.2563 -0.3637
  162SOL    HW1  485   2.561   1.835   0.429 -0.1812 -0.3267 -1.2535
  162SOL    HW2  486   2.585   1.869   0.605  1.1123 -1.2995 -1.2212
  163SOL     OW  487   1.962   2.696   0.742  0.0042 -0.7253 -0.6423
  163SOL    HW1  488   1.926   2.731   0.650  1.8623 -0.6647 -0.0530
  163SOL    HW2  489   2.017   2.608   0.734 -0.8507  2.0018 -0.2133
  164SOL     OW  490   3.038   0.294   1.215 -0.2351  0.4702 -0.3838
  164SOL    HW1  491   3.090   0.374   1.175 -2.2706 -0.0303  1.6272
  164SOL    HW2  492   3.094   0.247   1.286  0.7271  0.9283 -2.1935
  165SOL     OW  493   0.985   1.477   0.669 -0.2872  0.3038  0.2408
  165SOL    HW1  494   0.900   1.494   0.721  1.5397  1.8206 -0.6646
  165SOL    HW2  495   0.983   1.489   0.565 -1.9496 -2.1294 -0.3690
  166SOL     OW  496   1.418   1.060   1.757 -0.1639  0.2009  0.0289
  166SOL    HW1  497   1.336   1.014   1.791  3.6040  3.1025 -0.7035
  166SOL    HW2  498   1.496   1.074   1.825 -0.4262 -1.5867 -1.0731
  167SOL     OW  499   0.882   1.930   1.538 -0.6045  0.3320  0.0079
  167SOL    HW1  500   0.874   1.989   1.622 -1.1801  0.8320  0.4266
  167SOL    HW2  501   0.804   1.864   1.524  0.4569  1.2653 -0.5487
  168SOL     OW  502   1.537   2.386   0.141  0.2318 -0.2192 -0.0354
  168SOL    HW1  503   1.598   2.420   0.064  0.6550  1.0582 -0.3847
  168SOL    HW2  504   1.592   2.333   0.211  0.7034 -0.8921  1.9582
  169SOL     OW  505   0.177   2.569   2.201  0.1519  0.1067  0.0705
  169SOL    HW1  506   0.257   2.527   2.152 -1.4240 -0.2798 -0.2944
  169SOL    HW2  507   0.155   2.527   2.291  0.2282  1.8523  0.8263
  170SOL     OW  508   1.268   0.275   1.899  0.2445 -0.1331  0.0658
  170SOL    HW1  509   1.296   0.248   1.999 -1.7443 -1.2217 -0.0841
  170SOL    HW2  510   1.233   0.195   1.846 -1.2098 -1.1070  2.0044
  171SOL     OW  511   0.266   0.791   2.425 -0.2952 -0.2492 -0.0433
  171SOL    HW1  512   0.169   0.795   2.456  2.1302 -0.1804 -1.3814
  171SOL    HW2  513   0.281   0.761   2.324 -0.7455  1.2535  2.3119
  172SOL     OW  514   0.891   1.139   2.938 -0.0369  0.3441  0.0211
  172SOL    HW1  515   0.989   1.158   2.965 -0.1558  1.0566 -0.0475
  172SOL    HW2  516   0.887   1.111   2.843  1.2817  1.1914  0.2089
  173SOL     OW  517   0.669   2.691   0.173 -0.1417 -0.1313  0.1790
  173SOL    HW1  518   0.675   2.787   0.135 -0.2230  0.4814 -1.6204
  173SOL    HW2  519   0.578   2.649   0.146 -0.8958 -1.1554 -0.8946
  174SOL     OW  520   1.375   2.758   1.052  0.7967  0.0535  0.2949
  174SOL    HW1  521   1.369   2.850   1.005  1.4958  2.1724 -0.5958
  174SOL    HW2  522   1.310   2.685   1.008 -0.6421 -0.6258  1.3646
  175SOL     OW  523   0.392   0.006   1.677  0.0929  0.4611 -0.3287
  175SOL    HW1  524   0.446   0.057   1.751  0.0329  1.0118 -0.6780
  175SOL    HW2  525   0.319   0.061   1.630  1.0650 -2.6550 -1.2182
  176SOL     OW  526   2.529   0.381   3.062 -0.8988 -0.0177  0.5371
  176SOL    HW1  527   2.510   0.458   3.128 -1.6676 -0.8333 -1.5501
  176SOL    HW2  528   2.458   0.313   3.043  0.5816  4.4401  0.2805
  177SOL     OW  529   0.388   0.397   0.917  0.1429 -0.4606  0.3049
  177SOL    HW1  530   0.462   0.415   0.985 -0.6629  1.5223  1.4494
  177SOL    HW2  531   0.291   0.406   0.945 -0.1804 -0.0649  0.5520
  178SOL     OW  532   0.022   2.732   2.591  0.3330 -0.1601  0.0788
  178SOL    HW1  533  -0.063   2.699   2.644 -1.4747 -0.4294 -1.0041
  178SOL    HW2  534   0.100   2.750   2.656  1.5111 -2.3439 -0.6242
  179SOL     OW  535   0.024   1.701   1.147  0.3996 -0.0865 -0.0446
  179SOL    HW1  536  -0.055   1.770   1.149 -2.4523  1.7350 -0.9302
  179SOL    HW2  537  -0.000   1.628   1.216  0.3530  2.4617  0.1625
  180SOL     OW  538   0.204   1.270   1.828  0.7573  0.3854 -0.0732
  180SOL    HW1  539   0.306   1.281   1.816 -0.8886  1.4196  0.0162
  180SOL    HW2  540   0.156   1.331   1.894 -0.7599  1.7038  3.8230
  181SOL     OW  541   3.010   1.831   2.539 -0.1561 -0.0279  0.5200
  181SOL    HW1  542   3.091   1.854   2.471  1.4555  4.1425 -4.1090
  181SOL    HW2  543   2.932   1.894   2.532  4.0582 -1.1772 -1.2380
  182SOL     OW  544   2.334   1.202   1.203  0.1252 -0.2925 -0.0166
  182SOL    HW1  545   2.262   1.172   1.130 -1.1096 -1.9672 -1.1144
  182SOL    HW2  546   2.354   1.303   1.194  0.5554  1.6704  0.6021
  183SOL     OW  547   1.482   2.279   2.550  0.1924  0.4233  0.3046
  183SOL    HW1  548   1.402   2.209   2.539 -0.1165 -0.5062 -0.3472
  183SOL    HW2  549   1.568   2.221   2.564 -2.9622 -2.6118  0.8499
  184SOL     OW  550   2.058   0.934   0.749 -0.0863 -0.2518  0.2576
  184SOL    HW1  551   1.964   0.984   0.765  0.9471  0.3454  0.5695
  184SOL    HW2  552   2.074   0.849   0.805 -2.2056  0.8778  1.7246
  185SOL     OW  553   1.649   2.721   2.100 -0.2325 -0.7058  0.2644
  185SOL    HW1  554   1.610   2.815   2.072  2.5223  1.6220 -0.7670
  185SOL    HW2  555   1.647   2.702   2.203 -3.0218 -2.1259 -2.3674
  186SOL     OW  556   0.123   2.229   1.753  0.4631  0.0747 -0.0799
  186SOL    HW1  557   0.149   2.326   1.730  2.1978 -1.8106  1.8124
  186SOL    HW2  558   0.199   2.160   1.746  0.3721 -2.2836  0.8307
  187SOL     OW  559   1.432   0.674   1.687 -0.0764  0.3934 -0.2903
  187SOL    HW1  560   1.474   0.745   1.623 -1.9940 -0.0240 -0.8342
  187SOL    HW2  561   1.429   0.710   1.789  0.5836  1.2324 -0.0929
  188SOL     OW  562   2.744   2.772   1.544  0.2239 -0.4773  0.2389
  188SOL    HW1  563   2.712   2.864   1.511  4.0370  1.4035  1.9098
  188SOL    HW2  564   2.729   2.701   1.472  0.0950  1.6486  0.2170
  189SOL     OW  565   0.794   1.024   1.445  0.7386 -0.0436 -0.6745
  189SOL    HW1  566   0.888   1.066   1.443  1.2996 -1.8918 -2.1641
  189SOL    HW2  567   0.778   0.954   1.373  1.8143  0.7939  2.2430
  190SOL     OW  568   1.490   1.686   1.602  0.3702 -0.2957 -0.4450
  190SOL    HW1  569   1.391   1.672   1.577  0.2612  0.8440 -0.3103
  190SOL    HW2  570   1.507   1.760   1.672  1.1237  0.4652  2.4972
  191SOL     OW  571   0.988   0.794   1.549  0.0762  0.1792 -0.3143
  191SOL    HW1  572   1.038   0.707   1.585 -0.3828 -0.3028  1.1061
  191SOL    HW2  573   1.065   0.866   1.532  2.1245  0.7652  3.5673
  192SOL     OW  574   1.841   2.302   1.204  0.1863  0.6791  0.0687
  192SOL    HW1  575   1.751   2.274   1.156 -3.1221  1.2933  0.8071
  192SOL    HW2  576   1.920   2.323   1.143  0.5815 -2.5721 -1.0852
  193SOL     OW  577   0.525   0.569   0.356 -0.1818  0.0739  0.3409
  193SOL    HW1  578   0.533   0.489   0.424 -0.9346 -1.7891  2.1907
  193SOL    HW2  579   0.539   0.542   0.260  2.2995  0.9931  1.7130
  194SOL     OW  580   0.293   0.847   1.255  0.2399 -0.3499 -0.0826
  194SOL    HW1  581   0.207   0.792   1.248  1.6684 -2.1430 -0.6702
  194SOL    HW2  582   0.291   0.932   1.197  0.9525 -2.1991  0.4111
  195SOL     OW  583   0.943   2.931   0.466 -0.0797 -0.5718 -0.4417
  195SOL    HW1  584   0.955   2.845   0.411  2.6983 -2.7557 -1.4919
  195SOL    HW2  585   1.037   2.970   0.493  1.5821  0.4615  2.5252
  196SOL     OW  586   0.265   1.420   1.406 -0.1556  0.0930  0.4105
  196SOL    HW1  587   0.323   1.499   1.444 -0.3523  1.4257  1.5384
  196SOL    HW2  588   0.238   1.347   1.478 -0.9137 -0.7858 -2.0390
  197SOL     OW  589   0.867   2.008   0.253  0.0665  0.3688  0.3864
  197SOL    HW1  590   0.825   2.008   0.351 -0.6234  2.0364  1.4354
  197SOL    HW2  591   0.938   1.935   0.241 -1.4061 -0.9115  0.4272
  198SOL     OW  592   0.290   1.237   0.251 -0.3392  0.6385  0.3446
  198SOL    HW1  593   0.193   1.245   0.216 -0.4401  1.1079  2.8313
  198SOL    HW2  594   0.333   1.332   0.284  1.5718  3.0050 -1.3888
  199SOL     OW  595   2.246   0.375   2.527  0.0948 -0.5736  0.6424
  199SOL    HW1  596   2.183   0.317   2.583  1.0382  1.0476 -0.6556
  199SOL    HW2  597   2.342   0.361   2.552  0.7764  3.3521  2.4366
  200SOL     OW  598   3.095   2.901   0.759 -0.0029  0.8108 -0.5723
  200SOL    HW1  599   3.005   2.935   0.726 -1.5524 -1.3372  0.5869
  200SOL    HW2  600   3.168   2.970   0.786 -2.3801  0.6278  1.7165
  201SOL     OW  601   1.168   0.703   0.536  0.0148  0.0991  0.1984
  201SOL    HW1  602   1.154   0.800   0.563  1.3195 -1.4737 -0.8528
  201SOL    HW2  603   1.075   0.654   0.520  0.9611  1.0669  0.7832
  202SOL     OW  604   0.460   1.265   1.711 -0.1438 -0.1981  0.0905
  202SOL    HW1  605   0.510   1.253   1.619 -3.2631  3.3658  1.2945
  202SOL    HW2  606   0.503   1.216   1.792  2.7442  0.2509  0.9799
  203SOL     OW  607   0.675   0.228   1.517  0.3658  0.6225  0.5818
  203SOL    HW1  608   0.678   0.155   1.440 -0.7490 -1.7515  1.9095
  203SOL    HW2  609   0.705   0.179   1.607  1.3151 -1.6930  1.1857
  204SOL     OW  610   2.099   1.836   3.027 -0.2031 -0.6559 -0.2661
  204SOL    HW1  611   2.095   1.730   3.028  1.3501 -0.4511  1.4482
  204SOL    HW2  612   2.039   1.895   2.958 -0.5922  0.6931 -0.5943
  205SOL     OW  613   1.855   1.876   0.098  0.1970  0.3675 -0.4513
  205SOL    HW1  614   1.935   1.872   0.036 -4.3914  0.2327  0.5587
  205SOL    HW2  615   1.804   1.968   0.093 -1.1787 -0.3636 -2.6528
  206SOL     OW  616   2.567   2.814   0.391  0.7559  0.1788 -0.6547
  206SOL    HW1  617   2.620   2.724   0.403 -0.1378  1.4824 -1.3783
  206SOL    HW2  618   2.587   2.858   0.301  2.0092 -0.7654  0.8035
  207SOL     OW  619   0.619   1.739   2.865  0.3650 -0.2751  0.4718
  207SOL    HW1  620   0.709   1.711   2.829  0.4158  0.1731 -0.5143
  207SOL    HW2  621   0.587   1.678   2.942  4.0118  2.3364  2.0007
  208SOL     OW  622   0.999   1.488   1.433  0.7663  0.3432  0.2311
  208SOL    HW1  623   0.927   1.529   1.367 -0.3020 -0.0509  2.3303
  208SOL    HW2  624   1.081   1.555   1.453  1.2371  0.1260  1.0967
  209SOL     OW  625   0.204   0.939   3.051  0.3883  0.2996  0.2370
  209SOL    HW1  626   0.261   0.914   2.969 -2.5629 -0.7930 -2.8414
  209SOL    HW2  627   0.211   0.868   3.131  2.4407  0.1694  0.1788
  210SOL     OW  628   1.706   0.504   1.134 -0.0361 -0.2687 -0.3777
  210SOL    HW1  629   1.663   0.585   1.091  0.5643  1.9204 -0.6525
  210SOL    HW2  630   1.809   0.493   1.112 -0.9562 -1.2686  0.5264
  211SOL     OW  631   2.134   1.041   1.680  0.9313  0.1568  0.4743
  211SOL    HW1  632   2.205   0.990   1.731 -2.3474 -0.3055  0.0588
  211SOL    HW2  633   2.164   1.100   1.596  0.2030  3.4379 -1.1863
  212SOL     OW  634   0.028   0.984   1.461  0.2989 -0.6905  0.4652
  212SOL    HW1  635   0.095   1.057   1.489  1.2652 -1.1502 -0.2869
  212SOL    HW2  636   0.037   0.908   1.528  0.5760  0.2746 -2.5434
  213SOL     OW  637   2.727   0.351   0.265  0.3628  0.2091  0.2788
  213SOL    HW1  638   2.775   0.284   0.207 -0.2828  0.7881  1.7343
  213SOL    HW2  639   2.690   0.426   0.202  0.0887  2.9462 -2.4049
  214SOL     OW  640   2.196   0.291   2.290 -0.0431 -0.0860  0.0108
  214SOL    HW1  641   2.230   0.338   2.375  0.0793 -0.6829  0.0220
  214SOL    HW2  642   2.146   0.202   2.315 -0.3460  1.6480 -1.4533
  215SOL     OW  643   1.657   2.282   2.059  0.4094 -0.0068  0.2843
  215SOL    HW1  644   1.757   2.305   2.045 -1.8591 -1.2372  0.0952
  215SOL    HW2  645   1.610   2.354   2.112 -1.5467 -4.2616  0.8316
  216SOL     OW  646   2.230   0.526   0.653 -0.2824 -0.2424  0.0533
  216SOL    HW1  647   2.187   0.437   0.608  1.5642 -1.4430 -0.0851
  216SOL    HW2  648   2.252   0.601   0.591 -1.7497 -0.5402  1.8361
  217SOL     OW  649   0.776   2.801   2.396  0.2336  0.1572 -1.0220
  217SOL    HW1  650   0.764   2.710   2.438 -1.1048  3.4273 -2.0033
  217SOL    HW2  651   0.746   2.797   2.298  1.3735  1.4038  1.8059
  218SOL     OW  652   1.918   1.446   0.083 -0.5401 -0.3710  0.3257
  218SOL    HW1  653   1.817   1.432   0.055 -0.3105  2.0385 -1.3735
  218SOL    HW2  654   1.943   1.360   0.141 -0.3496 -0.6080  1.5383
  219SOL     OW  655   2.387   1.338   2.551 -0.0090 -0.2798 -0.3654
  219SOL    HW1  656   2.366   1.273   2.479  3.9895  3.1638  0.0037
  219SOL    HW2  657   2.397   1.289   2.646  0.1290 -1.5441  1.3866
  220SOL     OW  658   1.459   1.035   1.270  0.5740 -0.5782  0.4009
  220SOL    HW1  659   1.564   1.037   1.285  1.8052  1.8367 -2.8516
  220SOL    HW2  660   1.420   1.083   1.183 -1.6393  0.4465  0.2565
  221SOL     OW  661   1.291   1.203   2.159  0.2057  0.5495  0.4554
  221SOL    HW1  662   1.235   1.261   2.090 -0.0635  1.6332 -0.7999
  221SOL    HW2  663   1.387   1.184   2.127  0.3261  0.9510 -0.0947
  222SOL     OW  664   1.258   0.070   1.135 -0.8957 -0.0030  0.0829
  222SOL    HW1  665   1.354   0.087   1.107 -0.4063 -2.5378 -0.9044
  222SOL    HW2  666   1.221   0.128   1.210 -0.0204  0.2698  2.6155
  223SOL     OW  667   2.897   0.839   1.985 -0.0688 -0.4231  0.7260
  223SOL    HW1  668   2.910   0.854   2.086  0.1896 -0.0440  0.4810
  223SOL    HW2  669   2.900   0.926   1.929  0.3066  0.3743  2.3464
  224SOL     OW  670   1.551   0.985   2.783 -0.4290 -0.0264  0.0632
  224SOL    HW1  671   1.559   0.927   2.695 -0.0018  2.9976  1.4315
  224SOL    HW2  672   1.523   1.086   2.762  2.7065  3.5911 -1.4525
  225SOL     OW  673   3.002   2.809   2.923  1.7214  0.0744 -0.2232
  225SOL    HW1  674   2.970   2.726   2.863 -1.3660 -0.8207 -0.0136
  225SOL    HW2  675   3.064   2.880   2.875  0.7469  1.6574  2.5554
  226SOL     OW  676   2.455   1.627   2.871  0.3587 -0.2012 -0.1585
  226SOL    HW1  677   2.498   1.581   2.789 -0.0872  1.0402 -0.3155
  226SOL    HW2  678   2.412   1.554   2.927 -1.6963 -0.0329 -2.7010
  227SOL     OW  679   0.834   0.111   2.982  0.8366 -0.4615 -0.2318
  227SOL    HW1  680   0.875   0.044   3.055  0.6527  0.5465  1.7413
  227SOL    HW2  681   0.877   0.096   2.888  0.4761 -0.8205  0.2692
  228SOL     OW  682   2.365   0.580   2.800  0.0136  0.0046  0.1998
  228SOL    HW1  683   2.328   0.612   2.705 -0.0474  1.4811 -0.2510
  228SOL    HW2  684   2.444   0.515   2.796 -0.6301  2.1380  1.2010
  229SOL     OW  685   0.576   0.501   1.867 -0.1781  0.1587 -0.0174
  229SOL    HW1  686   0.610   0.512   1.772  1.7144  0.1574  0.6861
  229SOL    HW2  687   0.640   0.550   1.922 -2.4516 -0.7962  0.5361
  230SOL     OW  688   1.909   1.244   2.128 -0.3192 -0.0639  0.1053
  230SOL    HW1  689   1.983   1.280   2.059  1.7907 -1.5300 -3.2495
  230SOL    HW2  690   1.816   1.291   2.129 -0.5933 -0.0648  2.6964
  231SOL     OW  691   0.650   1.026   2.985 -0.0787 -0.0294  0.8331
  231SOL    HW1  692   0.734   1.089   2.984 -2.9749 -0.2670  0.5708
  231SOL    HW2  693   0.581   1.047   3.063 -1.8566 -3.7760  0.6548
  232SOL     OW  694   2.523   0.037   2.750 -0.3360 -0.1701  0.0754
  232SOL    HW1  695   2.578  -0.032   2.801 -0.7297 -1.2756 -0.4826
  232SOL    HW2  696   2.520   0.012   2.649  2.5183  0.4808 -0.4234
  233SOL     OW  697   1.709   1.273   1.047 -0.5808 -0.2030 -0.0009
  233SOL    HW1  698   1.730   1.300   0.948  0.3741  0.5105 -0.8711
  233SOL    HW2  699   1.748   1.179   1.064  1.0839  2.0085 -1.4953
  234SOL     OW  700   1.637   2.625   1.839  0.5185 -0.2673 -0.1513
  234SOL    HW1  701   1.645   2.636   1.941  1.5652  0.5341 -0.9607
  234SOL    HW2  702   1.582   2.547   1.807 -1.1366  1.3166  0.1877
  235SOL     OW  703   0.086   3.013   2.872  0.8365 -0.5635  0.4694
  235SOL    HW1  704   0.154   3.074   2.822 -0.2985  0.2080  1.8113
  235SOL    HW2  705   0.009   3.061   2.920  0.1678  1.2273  0.7220
  236SOL     OW  706   2.802   0.685   0.076  0.0715 -0.3160  0.7190
  236SOL    HW1  707   2.879   0.750   0.114  1.6206  0.5656 -0.6765
  236SOL    HW2  708   2.845   0.605   0.023  1.5949 -0.5985  0.1675
  237SOL     OW  709   1.494   1.603   1.034  0.2837 -0.2565  0.1432
  237SOL    HW1  710   1.595   1.613   1.040 -0.5001 -0.3046 -0.7659
  237SOL    HW2  711   1.440   1.656   1.108 -0.1620 -0.0269  1.6365
  238SOL     OW  712   1.757   1.349   0.772  0.4988 -0.1509  0.6402
  238SOL    HW1  713   1.843   1.363   0.718 -2.2786 -0.7371  0.2690
  238SOL    HW2  714   1.682   1.393   0.713  0.1730 -0.0456  1.9516
  239SOL     OW  715   2.100   0.238   2.725  0.2303 -0.0754  0.0352
  239SOL    HW1  716   2.193   0.250   2.765 -1.9402 -0.7972  0.1525
  239SOL    HW2  717   2.027   0.305   2.755 -0.2819 -0.1957 -1.4475
  240SOL     OW  718   0.858   0.693   0.241  0.1939 -0.4954  0.9437
  240SOL    HW1  719   0.846   0.609   0.180  0.5344 -0.3298 -2.0540
  240SOL    HW2  720   0.864   0.659   0.336 -0.7386  2.3138 -1.6951
  241SOL     OW  721   0.553   0.035   0.332 -0.1491  0.4498  0.0376
  241SOL    HW1  722   0.574  -0.003   0.238 -0.3956  2.0356  2.5575
  241SOL    HW2  723   0.494  -0.035   0.384 -0.9963 -5.9132  0.5253
  242SOL     OW  724   0.692   2.407   1.135 -0.1818  0.3073  0.1308
  242SOL    HW1  725   0.668   2.467   1.212  1.8189 -0.3537 -0.9238
  242SOL    HW2  726   0.789   2.426   1.100  0.1651  0.4033  1.8582
  243SOL     OW  727   1.089   0.617   2.411  0.2252 -0.2758  0.2616
  243SOL    HW1  728   1.021   0.691   2.377  2.6585 -0.8945 -1.7479
  243SOL    HW2  729   1.041   0.528   2.442 -1.1782  1.0193 -1.3774
  244SOL     OW  730   2.769   1.938   2.446  0.4939 -0.1217  0.4740
  244SOL    HW1  731   2.789   1.934   2.342  0.2537  1.3994  0.7360
  244SOL    HW2  732   2.707   1.866   2.475  0.6420  1.8919 -0.3795
  245SOL     OW  733   2.462   0.748   2.122  0.1687 -0.0863  0.0138
  245SOL    HW1  734   2.478   0.829   2.183  0.7834  1.3669  1.0640
  245SOL    HW2  735   2.533   0.672   2.142  1.2472  0.3486 -1.3044
  246SOL     OW  736   0.217   2.874   1.715 -0.3400  0.1442 -0.4596
  246SOL    HW1  737   0.155   2.851   1.635  0.6656 -1.2704  0.9552
  246SOL    HW2  738   0.279   2.957   1.700  0.8960  1.7198  0.4730
  247SOL     OW  739   2.176   0.549   3.009 -0.3314  0.0526  0.3722
  247SOL    HW1  740   2.224   0.558   2.917  0.4604  1.5147  0.3311
  247SOL    HW2  741   2.105   0.628   3.020  0.2838  1.7604 -0.6689
  248SOL     OW  742   2.183   1.866   1.653 -0.3233 -0.6348  0.1019
  248SOL    HW1  743   2.258   1.792   1.647 -0.2437 -1.8884 -1.7661
  248SOL    HW2  744   2.091   1.826   1.682 -1.7610  0.3058  1.2049
  249SOL     OW  745   1.964   1.935   1.951 -0.4895  0.3957  0.4587
  249SOL    HW1  746   1.971   1.859   1.879 -0.4703 -0.9923 -0.3628
  249SOL    HW2  747   2.047   2.000   1.951  0.5188  0.1441 -2.2440
  250SOL     OW  748   1.013   0.652   1.864  0.1222  0.2132 -0.3274
  250SOL    HW1  749   1.066   0.616   1.947  1.2029  0.8677 -0.4614
  250SOL    HW2  750   1.042   0.599   1.782 -0.6753  0.1826 -1.4316
  251SOL     OW  751   3.022   1.556   2.580 -0.1071 -0.0286 -0.1151
  251SOL    HW1  752   3.005   1.657   2.560 -2.3140  1.0369 -1.1191
  251SOL    HW2  753   2.931   1.509   2.590 -0.3838 -0.2960  0.8596
  252SOL     OW  754   1.535   0.887   1.541 -0.2334  0.6220 -0.2540
  252SOL    HW1  755   1.595   0.947   1.482 -4.0015 -0.0914 -3.5171
  252SOL    HW2  756   1.484   0.952   1.611  0.3005  0.1811  0.1444
  253SOL     OW  757   0.992   1.514   0.390 -0.6507  0.8776  0.0295
  253SOL    HW1  758   1.051   1.459   0.321  1.2889 -3.3781 -0.0773
  253SOL    HW2  759   0.891   1.525   0.368  2.0527  2.0348  4.6287
  254SOL     OW  760   1.996   2.152   1.607  0.1673  0.2850 -0.1538
  254SOL    HW1  761   1.953   2.097   1.529 -0.8522 -0.2155  0.8023
  254SOL    HW2  762   1.932   2.168   1.686 -1.2528 -0.1341  1.9218
  255SOL     OW  763   0.094   1.151   2.903  0.7862 -0.2110  0.4578
  255SOL    HW1  764   0.165   1.220   2.889  0.0693  3.7837  2.1823
  255SOL    HW2  765   0.123   1.061   2.948 -0.1346 -1.7073 -2.8772
  256SOL     OW  766   2.808   1.351   1.851  0.2119  0.1990 -0.0563
  256SOL    HW1  767   2.752   1.420   1.799 -1.8076 -0.2787  0.6108
  256SOL    HW2  768   2.752   1.275   1.886  0.9788 -0.0462 -2.1723
  257SOL     OW  769   0.881   0.239   1.911  0.5940 -0.4698 -0.0203
  257SOL    HW1  770   0.894   0.277   1.813  1.0514 -0.2421  1.5227
  257SOL    HW2  771   0.902   0.137   1.915 -0.5460 -0.1041 -1.0201
  258SOL     OW  772   2.947   1.269   0.419  0.0956  0.1380 -0.1147
  258SOL    HW1  773   2.905   1.359   0.391  0.6106 -2.2576  0.3094
  258SOL    HW2  774   3.003   1.279   0.502  0.5074 -0.2258 -1.7005
  259SOL     OW  775   0.449   2.896   2.991 -0.8986 -0.6523 -0.2790
  259SOL    HW1  776   0.391   2.837   3.056  1.2916 -0.1597 -0.1697
  259SOL    HW2  777   0.459   2.853   2.897 -0.0101  1.7829  0.1192
  260SOL     OW  778   2.645   0.736   2.766  0.1245  0.6901  0.4504
  260SOL    HW1  779   2.568   0.765   2.703 -0.1299 -0.2097 -0.2534
  260SOL    HW2  780   2.625   0.644   2.809  1.0704  0.4132 -1.7752
  261SOL     OW  781   2.711   1.348   1.306 -0.3406 -0.1279  0.0836
  261SOL    HW1  782   2.686   1.259   1.259  0.4891 -1.4546  1.7692
  261SOL    HW2  783   2.810   1.357   1.321 -0.5337  0.9207  1.6714
  262SOL     OW  784   1.485   2.927   2.050 -0.3338  0.0998 -0.3665
  262SOL    HW1  785   1.484   3.014   1.994 -0.7804 -2.5859  0.2166
  262SOL    HW2  786   1.410   2.860   2.018  0.1450 -2.1703  1.9881
  263SOL     OW  787   0.897   0.790   2.322 -0.4145 -0.0159 -0.6555
  263SOL    HW1  788   0.838   0.706   2.313  0.8090  0.7331 -1.6077
  263SOL    HW2  789   0.895   0.847   2.233 -0.4034 -2.5066 -0.6054
  264SOL     OW  790   2.272   0.762   0.511 -0.3754 -0.3945 -0.3286
  264SOL    HW1  791   2.176   0.786   0.494  0.0627  0.9948 -0.7921
  264SOL    HW2  792   2.342   0.838   0.503 -1.8375  0.7279  3.1683
  265SOL     OW  793   0.865   2.333   2.689  0.2414 -0.0095 -0.2510
  265SOL    HW1  794   0.918   2.399   2.746 -0.8121  0.6876  0.1974
  265SOL    HW2  795   0.818   2.255   2.746  0.7095 -2.9331 -0.5668
  266SOL     OW  796   1.338   1.721   0.041 -0.3081 -0.3036  0.1576
  266SOL    HW1  797   1.304   1.810   0.083  2.8549 -0.1250 -0.3417
  266SOL    HW2  798   1.441   1.705   0.058 -1.2287  1.5032  1.2421
  267SOL     OW  799   1.062   0.032   2.360  0.3169 -0.3065  0.7528
  267SOL    HW1  800   1.057  -0.050   2.294 -1.0079 -0.2903 -2.6139
  267SOL    HW2  801   0.982   0.097   2.341  0.2249 -0.0803  1.1739
  268SOL     OW  802   0.630   1.145   1.029  0.3494  0.5128  0.2018
  268SOL    HW1  803   0.667   1.201   1.106  0.1476  2.7520 -0.8175
  268SOL    HW2  804   0.642   1.194   0.939  2.7056 -2.4754  1.3325
  269SOL     OW  805   2.451   2.557   1.591 -0.3050 -0.7954  0.6276
  269SOL    HW1  806   2.537   2.514   1.559  0.0259  0.2333 -0.8172
  269SOL    HW2  807   2.427   2.539   1.689  1.4065  0.1279  2.9856
  270SOL     OW  808   0.233   2.885   2.020 -0.2260  1.2260 -0.4664
  270SOL    HW1  809   0.255   2.893   1.920 -0.1196 -0.0592 -1.0011
  270SOL    HW2  810   0.147   2.830   2.041 -0.4073  0.9648 -1.8141
  271SOL     OW  811   0.456   1.396   1.186 -0.3540  0.0251  0.2291
  271SOL    HW1  812   0.409   1.371   1.096  2.8151  1.9730 -0.2545
  271SOL    HW2  813   0.389   1.414   1.259  0.9387  1.5536 -0.0535
  272SOL     OW  814   1.927   2.873   1.905 -0.6200  0.4515 -0.0548
  272SOL    HW1  815   1.888   2.846   1.817  0.3853 -1.0786 -0.8370
  272SOL    HW2  816   2.014   2.929   1.896 -1.5288 -0.0547 -0.8883
  273SOL     OW  817   1.442   1.451   2.864  0.7297  0.0122 -0.0527
  273SOL    HW1  818   1.531   1.464   2.914  0.9135 -0.9383 -1.3051
  273SOL    HW2  819   1.359   1.456   2.930  0.5369 -2.7885 -0.8055
  274SOL     OW  820   1.176   0.522   2.039 -0.0516  0.0523 -0.2164
  274SOL    HW1  821   1.199   0.443   1.972 -0.8784  0.0376  0.6485
  274SOL    HW2  822   1.236   0.517   2.125  2.9402  1.1423  2.1107
  275SOL     OW  823   0.624   2.063   1.961 -0.0634  0.3423  1.0962
  275SOL    HW1  824   0.620   2.167   1.969 -0.2068 -2.8537  0.2580
  275SOL    HW2  825   0.528   2.023   1.951  0.2309 -0.7405 -1.2672
  276SOL     OW  826   2.161   0.994   2.810  0.1076  0.2564 -0.0563
  276SOL    HW1  827   2.084   1.016   2.753  1.9180 -0.3881  0.4255
  276SOL    HW2  828   2.136   0.941   2.898 -1.1839 -2.9886  0.6297
  277SOL     OW  829   3.035   0.831   0.197  0.4756  0.3276 -0.2656
  277SOL    HW1  830   3.091   0.865   0.118 -2.4986 -1.4956  1.0802
  277SOL    HW2  831   3.054   0.737   0.238 -1.6008  1.5400 -1.8622
  278SOL     OW  832   0.189   0.270   2.965 -0.3448 -0.2534  0.3830
  278SOL    HW1  833   0.231   0.218   3.047  1.8657  0.2709  2.1205
  278SOL    HW2  834   0.215   0.375   2.970 -0.4634 -3.0074  3.5952
  279SOL     OW  835   0.152   3.085   0.869 -0.1527  0.3466 -0.4783
  279SOL    HW1  836   0.181   3.081   0.970 -0.4692 -0.5744 -1.1195
  279SOL    HW2  837   0.235   3.112   0.813  1.7795 -0.2726 -0.1817
  280SOL     OW  838   1.675   2.947   2.520  0.6480  0.2354  0.1333
  280SOL    HW1  839   1.745   3.015   2.556 -3.4698 -1.3377 -0.0284
  280SOL    HW2  840   1.577   2.972   2.538  3.0377 -1.8688 -1.1733
  281SOL     OW  841   0.624   0.946   2.364 -0.6009  0.4311 -0.1879
  281SOL    HW1  842   0.614   0.862   2.306 -0.7184 -0.5247  1.0482
  281SOL    HW2  843   0.608   0.923   2.460 -0.5118  2.0707 -1.8788
  282SOL     OW  844   1.668   2.445   0.543  0.5632 -0.4050 -0.7791
  282SOL    HW1  845   1.643   2.364   0.479  3.0639 -0.2218 -0.5495
  282SOL    HW2  846   1.644   2.540   0.511  1.9682  0.1928 -0.3886
  283SOL     OW  847   1.163   0.971   0.709  0.3224  0.2103  0.8383
  283SOL    HW1  848   1.210   0.898   0.760 -2.2072 -1.3121 -0.7480
  283SOL    HW2  849   1.104   1.034   0.770 -0.4166  1.0534  0.7242
  284SOL     OW  850   2.295   2.794   2.401  0.4254 -0.1667 -0.3426
  284SOL    HW1  851   2.389   2.818   2.380 -1.9196 -2.9352 -0.7540
  284SOL    HW2  852   2.228   2.874   2.408  1.8345  1.0404  2.3753
  285SOL     OW  853   1.390   3.022   2.558 -0.4167 -0.8192 -0.3076
  285SOL    HW1  854   1.393   3.033   2.455 -1.5564  0.4255 -1.1270
  285SOL    HW2  855   1.314   3.084   2.599 -0.1798 -1.1329 -0.0189
  286SOL     OW  856   0.453   0.472   0.657  0.8488 -0.2304  0.4243
  286SOL    HW1  857   0.441   0.436   0.756  0.4198 -2.2669  0.5836
  286SOL    HW2  858   0.425   0.400   0.587 -1.4586 -0.7132  0.6123
  287SOL     OW  859   0.081   1.336   2.498  0.4219 -0.0145 -0.4814
  287SOL    HW1  860   0.034   1.256   2.546 -0.4652  0.4071 -1.0439
  287SOL    HW2  861   0.030   1.429   2.514  0.5235  1.3431  0.8686
  288SOL     OW  862   1.583   2.631   1.474 -0.0043  0.2259 -0.2898
  288SOL    HW1  863   1.692   2.620   1.490  2.5551 -0.5995  1.5361
  288SOL    HW2  864   1.565   2.628   1.373  0.2145 -1.3969 -0.1764
  289SOL     OW  865   0.689   2.728   0.782 -0.0518  0.7833 -0.5333
  289SOL    HW1  866   0.695   2.816   0.728 -1.0205 -0.7844  0.2843
  289SOL    HW2  867   0.728   2.745   0.877  2.2545  0.2714  0.1772
  290SOL     OW  868   2.938   1.241   1.621 -0.5607 -0.4134 -0.7473
  290SOL    HW1  869   2.846   1.262   1.657 -1.5684  1.5854  1.7017
  290SOL    HW2  870   2.982   1.165   1.678 -0.0685  1.9720  3.0750
  291SOL     OW  871   1.966   0.027   0.052 -0.4146 -0.2661 -0.2804
  291SOL    HW1  872   1.961   0.036   0.157  1.0482 -2.1858  0.1781
  291SOL    HW2  873   1.995   0.119   0.010 -0.3578 -0.6922 -0.7783
  292SOL     OW  874   2.949   1.199   3.043 -0.1179  0.0106 -0.0088
  292SOL    HW1  875   2.869   1.219   2.981 -0.9648  0.6688  1.0304
  292SOL    HW2  876   3.029   1.166   2.986 -1.2928 -0.4326  0.6452
  293SOL     OW  877   0.579   2.083   0.129  0.7002 -0.0971 -0.2091
  293SOL    HW1  878   0.528   2.135   0.209  0.0431  0.8114  0.8640
  293SOL    HW2  879   0.676   2.061   0.161  1.1408 -0.7997 -2.0881
  294SOL     OW  880   1.685   2.153   1.811 -0.0530  0.0022 -0.9852
  294SOL    HW1  881   1.655   2.200   1.899  0.5269 -1.8239 -0.5576
  294SOL    HW2  882   1.684   2.223   1.732 -1.7650 -1.7292 -0.0976
  295SOL     OW  883   0.947   1.079   0.410  0.3568 -1.3135 -0.3883
  295SOL    HW1  884   1.044   1.047   0.422  0.8619 -0.8610  0.2102
  295SOL    HW2  885   0.911   1.123   0.490  1.2466 -1.6015 -1.5244
  296SOL     OW  886   1.286   2.055   2.508  0.2232 -0.3524 -0.6511
  296SOL    HW1  887   1.289   2.074   2.411 -0.7206 -0.7702  4.0910
  296SOL    HW2  888   1.322   1.965   2.538  0.5071 -0.1408 -2.9557
  297SOL     OW  889   1.508   0.690   1.358 -0.5794 -0.4115 -0.1479
  297SOL    HW1  890   1.576   0.621   1.396  0.6548 -1.6555 -3.0641
  297SOL    HW2  891   1.508   0.777   1.415 -0.8653 -1.5760  0.1402
  298SOL     OW  892   0.499   1.240   2.848 -0.7845 -0.1642  0.4553
  298SOL    HW1  893   0.552   1.175   2.909 -2.0024 -1.4211 -0.3682
  298SOL    HW2  894   0.552   1.254   2.761 -1.2306  0.0840  1.4089
  299SOL     OW  895   0.390   0.329   1.431  0.0630 -0.3142  0.1492
  299SOL    HW1  896   0.354   0.412   1.380  3.4864  1.6790 -0.5965
  299SOL    HW2  897   0.490   0.321   1.414 -0.6027  1.1672 -0.5728
  300SOL     OW  898   1.226   1.795   2.869  0.3230  0.2362  0.0887
  300SOL    HW1  899   1.200   1.726   2.797 -0.2234  1.4163  0.0845
  300SOL    HW2  900   1.258   1.755   2.961  1.8575 -2.6110  1.1792
  301SOL     OW  901   0.442   0.279   0.448 -0.3091 -0.0131 -0.5523
  301SOL    HW1  902   0.341   0.266   0.467 -1.4797  0.7676  0.4812
  301SOL    HW2  903   0.467   0.236   0.362 -0.2953 -1.1708 -0.3567
  302SOL     OW  904   1.230   2.281   2.317 -0.0088 -0.7799 -0.1299
  302SOL    HW1  905   1.162   2.313   2.388  1.0221  2.3577  2.0711
  302SOL    HW2  906   1.207   2.193   2.267  1.3892  1.2863  3.8686
  303SOL     OW  907   0.921   2.348   0.795 -0.1572 -0.3808 -0.2849
  303SOL    HW1  908   0.972   2.401   0.722  0.4333 -1.6806  1.4628
  303SOL    HW2  909   0.921   2.391   0.890 -0.5936 -2.9872  0.3044
  304SOL     OW  910   0.131   2.069   0.651  0.5871  0.6956  0.0229
  304SOL    HW1  911   0.170   2.000   0.585 -1.8620  1.0552  0.1141
  304SOL    HW2  912   0.055   2.134   0.612 -1.4209  2.3291 -2.5184
  305SOL     OW  913   1.627   0.887   0.676 -0.1982  0.1473 -0.2931
  305SOL    HW1  914   1.563   0.888   0.589  0.6463  2.3759 -4.0459
  305SOL    HW2  915   1.693   0.809   0.690  2.4222  1.8348  0.5152
  306SOL     OW  916   0.439   1.870   1.900 -0.4662 -0.2091 -0.4656
  306SOL    HW1  917   0.524   1.820   1.860 -0.1298  3.4492 -0.1591
  306SOL    HW2  918   0.422   1.824   1.993  0.4634  0.0585  1.2956
  307SOL     OW  919   0.021   0.827   2.557 -0.0474 -0.3625  0.3275
  307SOL    HW1  920   0.029   0.930   2.559 -1.0145 -1.8913  1.1247
  307SOL    HW2  921  -0.045   0.785   2.623  0.2842  3.1483  1.3646
  308SOL     OW  922   1.579   2.639   2.845 -0.0065 -0.4419  0.5074
  308SOL    HW1  923   1.546   2.626   2.751  0.9375  1.4628  0.1253
  308SOL    HW2  924   1.527   2.574   2.913 -0.8899 -3.4062  0.7264
  309SOL     OW  925   1.232   0.026   1.770  0.4017  0.3874  0.0236
  309SOL    HW1  926   1.314   0.009   1.824 -4.6293 -0.8415 -0.3808
  309SOL    HW2  927   1.248   0.047   1.670  0.1244 -1.8402 -0.3688
  310SOL     OW  928   1.336   2.652   0.714  0.2298 -0.3480 -0.0499
  310SOL    HW1  929   1.254   2.712   0.694  0.3901  0.6565  0.1382
  310SOL    HW2  930   1.420   2.714   0.712  2.7965 -2.8118  0.2506
  311SOL     OW  931   1.216   0.937   1.473  0.1031 -0.9161  0.8882
  311SOL    HW1  932   1.292   0.885   1.432 -1.7612 -0.0463 -1.3893
  311SOL    HW2  933   1.248   1.040   1.482  0.2689  3.0362  0.9686
  312SOL     OW  934   1.602   0.687   0.968  0.2898 -0.1851 -0.6615
  312SOL    HW1  935   1.586   0.787   0.983 -1.1811 -1.7299 -2.0899
  312SOL    HW2  936   1.520   0.640   0.930  1.8010 -1.0648 -0.3989
  313SOL     OW  937   1.577   1.443   0.609 -0.0608  0.0022  0.6163
  313SOL    HW1  938   1.499   1.509   0.614  0.1691 -0.7937 -0.8048
  313SOL    HW2  939   1.547   1.347   0.590  1.7093 -1.3990  0.1470
  314SOL     OW  940   2.960   0.015   2.980 -0.5970 -0.4904  0.3815
  314SOL    HW1  941   2.953   0.048   3.078  1.1344 -2.5774 -0.7501
  314SOL    HW2  942   2.884  -0.058   2.966  1.2280 -2.4683 -0.2013
  315SOL     OW  943   1.251   0.231   2.782  0.2395 -0.0707  0.0224
  315SOL    HW1  944   1.211   0.169   2.710 -3.6176  2.1245  0.5299
  315SOL    HW2  945   1.284   0.185   2.871 -0.6931 -0.9016  0.3360
  316SOL     OW  946   1.678   2.079   0.892  0.4217 -0.2269 -0.1057
  316SOL    HW1  947   1.626   2.092   0.978 -1.1237 -0.2141  0.6613
  316SOL    HW2  948   1.691   2.168   0.840 -2.0255 -2.4454  1.9448
  317SOL     OW  949   1.150   0.700   2.852 -0.7471 -0.1376  0.3878
  317SOL    HW1  950   1.083   0.730   2.927  0.6735 -1.3597 -0.3785
  317SOL    HW2  951   1.131   0.608   2.809 -0.9060 -0.5850  1.4606
  318SOL     OW  952   1.433   3.070   2.272  0.1825  0.4743  0.0631
  318SOL    HW1  953   1.400   3.156   2.222  3.2125 -2.3887  2.7767
  318SOL    HW2  954   1.471   3.004   2.199  1.7900  0.0456  3.3385
  319SOL     OW  955   0.637   2.391   2.941  0.1132  0.0270  0.1565
  319SOL    HW1  956   0.574   2.363   3.017  1.4088  0.3692 -1.8442
  319SOL    HW2  957   0.700   2.317   2.912 -0.9635  3.0877 -2.5602
  320SOL     OW  958   1.627   2.241   0.373  0.0177 -0.6488  0.2794
  320SOL    HW1  959   1.724   2.198   0.392  1.1821 -3.0603  1.7367
  320SOL    HW2  960   1.548   2.201   0.432  0.0162 -0.6760 -0.8518
  321SOL     OW  961   1.579   2.707   0.528  0.0117 -0.1795  0.1323
  321SOL    HW1  962   1.518   2.793   0.513  1.3763  2.3804 -3.2300
  321SOL    HW2  963   1.678   2.731   0.538  0.2416 -1.9453  1.0234
  322SOL     OW  964   2.630   1.126   2.270 -0.0694  0.4951  0.5648
  322SOL    HW1  965   2.682   1.169   2.350 -0.3484  2.4019  2.6224
  322SOL    HW2  966   2.619   1.029   2.295  0.0806  1.0735 -0.5283
  323SOL     OW  967   0.995   2.709   0.833 -0.6288 -0.2552 -0.6487
  323SOL    HW1  968   1.017   2.658   0.745 -0.2165  2.0660  0.2847
  323SOL    HW2  969   0.997   2.809   0.822  0.6445 -0.1374 -0.4424
  324SOL     OW  970   0.113   2.474   2.445  0.1318 -0.1612  0.3457
  324SOL    HW1  971   0.097   2.390   2.501  0.3517 -1.8158  0.4506
  324SOL    HW2  972   0.113   2.561   2.500 -0.6699  0.8543 -0.4385
  325SOL     OW  973   1.193   3.089   0.467  0.1396  0.2944 -0.1637
  325SOL    HW1  974   1.232   3.110   0.369  0.5950  0.3903  0.9575
  325SOL    HW2  975   1.242   3.148   0.540  1.1135  0.0904 -1.8545
  326SOL     OW  976   2.394   0.751   0.001  0.0371  0.0476 -0.1036
  326SOL    HW1  977   2.337   0.694  -0.066  2.0949 -0.0247 -0.8701
  326SOL    HW2  978   2.462   0.688   0.053  2.7038  0.3251 -0.6316
  327SOL     OW  979   2.736   0.410   0.539 -0.0869 -0.7128 -0.0181
  327SOL    HW1  980   2.723   0.392   0.438 -0.0802  2.5939 -0.9226
  327SOL    HW2  981   2.643   0.415   0.588  1.5695 -0.1943  0.8632
  328SOL     OW  982   2.480   0.573   0.438  0.1209 -0.8272  0.0918
  328SOL    HW1  983   2.410   0.651   0.450 -0.5522  0.4009  2.3305
  328SOL    HW2  984   2.470   0.499   0.511 -0.8601  0.9297  3.5873
  329SOL     OW  985   2.995   3.013   2.156 -0.1626  0.7346 -0.2111
  329SOL    HW1  986   3.039   2.952   2.226 -0.4196  0.5469  1.0090
  329SOL    HW2  987   3.044   3.107   2.139  1.7990  0.2330 -0.4747
  330SOL     OW  988   0.524   0.162   1.890 -0.3301 -0.0611  0.6639
  330SOL    HW1  989   0.542   0.260   1.868 -0.8205 -0.6589 -0.6449
  330SOL    HW2  990   0.599   0.115   1.944 -0.1983 -2.9445 -0.0950
  331SOL     OW  991   2.948   1.905   1.124  0.0269 -0.2494  0.4150
  331SOL    HW1  992   2.995   1.990   1.090  0.0083 -1.3330 -0.7282
  331SOL    HW2  993   2.879   1.931   1.200  0.5098  2.6763 -2.1786
  332SOL     OW  994   0.416   1.059   0.053  0.4318  0.0872 -0.0590
  332SOL    HW1  995   0.321   1.026   0.014 -0.4902  1.0284 -0.1743
  332SOL    HW2  996   0.402   1.145   0.108  1.9665 -0.4862 -3.3844
  333SOL     OW  997   2.832   1.020   0.281  0.0550 -0.5449  0.3102
  333SOL    HW1  998   2.855   1.074   0.366 -2.2318  0.5164  1.2428
  333SOL    HW2  999   2.911   0.964   0.248  1.6993  1.0693  0.8342
  334SOL     OW 1000   1.659   1.158   1.903 -0.0433 -0.0436  0.3931
  334SOL    HW1 1001   1.757   1.140   1.872 -2.1900 -2.6403 -2.4568
  334SOL    HW2 1002   1.660   1.245   1.965  1.4476  3.3618  0.4688
  335SOL     OW 1003   1.977   2.785   2.610  0.2253 -0.1664 -0.1744
  335SOL    HW1 1004   1.940   2.741   2.694 -0.6315 -0.3915  1.2119
  335SOL    HW2 1005   2.045   2.853   2.642  0.1654  0.3912  1.6605
  336SOL     OW 1006   0.245   0.096   2.740  0.4044  0.2802 -0.0665
  336SOL    HW1 1007   0.344   0.082   2.712 -2.0302 -1.6919 -1.5462
  336SOL    HW2 1008   0.242   0.157   2.824 -0.4794  0.3056 -0.0587
  337SOL     OW 1009   0.915   2.809   2.832 -0.3796 -0.5669  0.0133
  337SOL    HW1 1010   0.887   2.756   2.918  0.8039 -0.6625 -0.0020
  337SOL    HW2 1011   1.020   2.802   2.811  1.0895 -0.3436  1.9602
  338SOL     OW 1012   3.103   1.023   0.610  0.0196 -0.1964  0.0708
  338SOL    HW1 1013   3.004   1.007   0.639 -2.6371 -0.5800 -2.3754
  338SOL    HW2 1014   3.116   1.124   0.614  0.4003 -0.3297  0.0762
  339SOL     OW 1015   1.674   1.385   2.071  0.0295  0.4770 -0.1377
  339SOL    HW1 1016   1.577   1.413   2.085  1.3259 -1.1367  1.1980
  339SOL    HW2 1017   1.729   1.467   2.053  0.0355  0.1049 -1.6605
  340SOL     OW 1018   2.310   0.781   1.176 -0.5381  0.6042 -0.2142
  340SOL    HW1 1019   2.217   0.824   1.191 -0.6302  1.8031  1.5521
  340SOL    HW2 1020   2.308   0.693   1.122 -0.3973 -0.5199  0.1658
  341SOL     OW 1021   1.885   2.159   0.395  0.4663 -0.0089 -1.0671
  341SOL    HW1 1022   1.883   2.180   0.292  1.2161  0.5722 -0.7739
  341SOL    HW2 1023   1.977   2.166   0.435 -2.3748  0.7883 -4.0835
  342SOL     OW 1024   2.203   2.109   2.743  0.4964 -0.8498 -0.1160
  342SOL    HW1 1025   2.278   2.060   2.796  0.2315 -0.0012 -3.4427
  342SOL    HW2 1026   2.107   2.077   2.768 -2.5280  2.3525  2.0644
  343SOL     OW 1027   0.350   0.864   2.827  0.4120 -0.3258 -0.6495
  343SOL    HW1 1028   0.324   0.911   2.738  0.4121  0.0994 -4.4645
  343SOL    HW2 1029   0.442   0.820   2.827 -1.8487 -2.6522 -2.0999
  344SOL     OW 1030   1.928   1.483   0.362 -0.5178 -0.3442  0.0515
  344SOL    HW1 1031   1.906   1.491   0.259 -3.1629 -4.8554 -1.6645
  344SOL    HW2 1032   1.843   1.505   0.417  0.3078  0.4471 -0.2978
  345SOL     OW 1033   1.388   2.203   2.835 -0.2789  0.3801  0.1616
  345SOL    HW1 1034   1.306   2.154   2.795  0.0730  0.1890  1.8105
  345SOL    HW2 1035   1.477   2.157   2.808 -0.3483  0.0970  0.8548
  346SOL     OW 1036   2.383   0.876   1.434 -0.8638 -0.6986  0.1760
  346SOL    HW1 1037   2.346   0.965   1.472 -1.4459 -1.2356 -1.1093
  346SOL    HW2 1038   2.337   0.852   1.346  1.5944  0.5355 -1.3476
  347SOL     OW 1039   0.698   2.826   1.485  0.7431 -0.1969 -0.3658
  347SOL    HW1 1040   0.696   2.755   1.562  3.2149 -2.1051 -0.8082
  347SOL    HW2 1041   0.608   2.883   1.474 -1.1689 -1.2022 -0.7237
  348SOL     OW 1042   0.103   0.714   2.861  0.2018 -0.0200  0.3135
  348SOL    HW1 1043   0.017   0.745   2.819  2.8579 -1.0240 -1.7507
  348SOL    HW2 1044   0.174   0.790   2.856  0.2278 -1.8229 -0.3898
  349SOL     OW 1045   1.904   0.413   2.814 -0.1905  0.5667  0.0602
  349SOL    HW1 1046   1.883   0.480   2.735  1.7971  0.4099 -1.7932
  349SOL    HW2 1047   1.846   0.421   2.900  0.1561 -1.9059 -0.0727
  350SOL     OW 1048   1.684   0.406   0.364  1.0461  0.1467 -0.5792
  350SOL    HW1 1049   1.742   0.422   0.452  1.0036  1.0044  1.9299
  350SOL    HW2 1050   1.652   0.499   0.329 -2.2110  2.3390  0.7995
  351SOL     OW 1051   0.891   0.917   2.083  0.6049  0.5197  0.1498
  351SOL    HW1 1052   0.933   1.007   2.049 -0.8458 -0.2923 -0.0790
  351SOL    HW2 1053   0.841   0.872   2.002  1.3007  1.7586 -3.5035
  352SOL     OW 1054   1.992   1.366   0.604 -0.0573 -0.6403 -0.0826
  352SOL    HW1 1055   1.964   1.393   0.506 -1.7064 -1.6083  0.1696
  352SOL    HW2 1056   2.096   1.392   0.627  0.1990  1.1876  1.2321
  353SOL     OW 1057   2.134   2.859   1.125  0.1694  0.6495  0.0797
  353SOL    HW1 1058   2.208   2.809   1.176  1.4803  2.2025 -1.9667
  353SOL    HW2 1059   2.069   2.794   1.077  0.6004 -1.2703 -0.5916
  354SOL     OW 1060   0.280   1.385   2.866 -0.0698  0.0371 -0.5878
  354SOL    HW1 1061   0.262   1.453   2.796  0.8699 -1.3706  0.9837
  354SOL    HW2 1062   0.370   1.332   2.851  1.0098 -0.7351 -2.0553
  355SOL     OW 1063   0.449   1.499   0.559  0.1211 -0.0176 -0.2786
  355SOL    HW1 1064   0.495   1.582   0.608 -0.9266  1.8881 -1.7696
  355SOL    HW2 1065   0.500   1.406   0.573  2.1345 -1.0033  0.9798
  356SOL     OW 1066   0.883   0.424   2.105  0.3405 -0.0337  0.4047
  356SOL    HW1 1067   0.981   0.451   2.114 -1.9494 -1.9973 -0.5330
  356SOL    HW2 1068   0.869   0.365   2.019 -2.9851 -4.5447  3.3408
  357SOL     OW 1069   1.048   1.301   0.219  0.4840 -0.3320  0.3767
  357SOL    HW1 1070   0.980   1.310   0.143  3.0019 -3.0361  3.4876
  357SOL    HW2 1071   1.023   1.228   0.285 -0.5873  1.5911 -1.3188
  358SOL     OW 1072   1.656   1.615   0.375  0.2353 -0.6387  0.3103
  358SOL    HW1 1073   1.611   1.535   0.428  0.5095  1.2120  2.9223
  358SOL    HW2 1074   1.583   1.690   0.355 -0.0319 -0.5418  0.1210
  359SOL     OW 1075   1.552   2.708   0.187  0.5522 -0.2988 -0.4917
  359SOL    HW1 1076   1.587   2.659   0.105 -1.4330  0.3095  1.1876
  359SOL    HW2 1077   1.447   2.701   0.203 -2.6778  2.5510  3.2271
  360SOL     OW 1078   0.883   0.584   0.482 -0.0391  0.2740 -0.3099
  360SOL    HW1 1079   0.808   0.597   0.558 -0.0037  0.0821 -0.7924
  360SOL    HW2 1080   0.896   0.487   0.451  3.6885  1.0696  1.6664
  361SOL     OW 1081   1.247   1.397   0.675  0.2407 -0.2693  0.0542
  361SOL    HW1 1082   1.298   1.398   0.768 -1.6215 -1.9719 -1.5404
  361SOL    HW2 1083   1.157   1.453   0.680  1.0836  1.4581 -0.4308
  362SOL     OW 1084   1.399   1.766   0.797  0.2506  0.0821 -0.4114
  362SOL    HW1 1085   1.433   1.715   0.880 -0.0548 -0.5818  0.1083
  362SOL    HW2 1086   1.460   1.836   0.759  0.7613  0.2092  0.7202
  363SOL     OW 1087   1.141   1.370   1.996  0.2125 -0.3481  0.1345
  363SOL    HW1 1088   1.160   1.435   2.077 -0.0767  1.4848  0.0678
  363SOL    HW2 1089   1.175   1.410   1.908  0.8573  0.6367 -0.6708
  364SOL     OW 1090   0.582   2.352   1.957 -0.2995 -0.5997  0.5051
  364SOL    HW1 1091   0.492   2.402   1.977  1.3296  2.8017  1.1989
  364SOL    HW2 1092   0.620   2.367   1.859  3.4795  0.5620  2.5345
  365SOL     OW 1093   1.097   1.902   1.371  0.1042  0.4956 -0.3313
  365SOL    HW1 1094   0.999   1.907   1.409  1.7757  0.0084  0.7828
  365SOL    HW2 1095   1.101   1.853   1.280 -0.8008  0.1009  1.3456
  366SOL     OW 1096   2.811   2.061   0.488  0.0079  0.0143 -0.1289
  366SOL    HW1 1097   2.718   2.019   0.484  1.4002 -0.8624 -0.9942
  366SOL    HW2 1098   2.884   2.004   0.433  1.7853  0.5545 -1.2497
  367SOL     OW 1099   0.789   1.247   0.095  0.2726 -0.2692 -0.3988
  367SOL    HW1 1100   0.770   1.154   0.128  2.2802 -0.9450 -3.3753
  367SOL    HW2 1101   0.835   1.258   0.005 -0.5914 -1.0803  0.1587
  368SOL     OW 1102   1.566   0.517   0.673  0.0984  0.0826  0.3528
  368SOL    HW1 1103   1.520   0.560   0.589  1.3489  0.9220 -1.2883
  368SOL    HW2 1104   1.657   0.563   0.694 -1.2624  0.4457  1.5615
  369SOL     OW 1105   0.292   1.698   0.096 -0.1720 -0.2765 -0.0435
  369SOL    HW1 1106   0.294   1.796   0.128  2.2073  3.3108  0.9369
  369SOL    HW2 1107   0.199   1.661   0.124 -0.9078  4.6754  1.6186
  370SOL     OW 1108   0.433   2.128   0.971 -0.6743 -0.2165 -0.2203
  370SOL    HW1 1109   0.466   2.227   0.952 -1.1263 -0.4474 -0.6764
  370SOL    HW2 1110   0.340   2.108   0.933 -0.5210  0.6071 -0.1980
  371SOL     OW 1111   2.900   2.211   2.755  0.0446 -0.3210 -0.0706
  371SOL    HW1 1112   2.899   2.213   2.855 -0.8168  1.5865  1.2080
  371SOL    HW2 1113   2.990   2.248   2.713 -0.2094 -0.7138 -0.6797
  372SOL     OW 1114   0.914   1.870   0.964 -0.1939  0.2436 -0.2606
  372SOL    HW1 1115   0.881   1.965   0.992  0.2997 -1.3059  1.8448
  372SOL    HW2 1116   0.975   1.875   0.878  1.0391  0.3969 -0.1394
  373SOL     OW 1117   1.976   2.025   0.924  0.1709  0.1379 -0.4919
  373SOL    HW1 1118   2.034   2.035   1.009 -0.7842 -2.7469  1.0161
  373SOL    HW2 1119   1.880   2.056   0.938  0.5620  0.3352  0.8175
  374SOL     OW 1120   1.881   0.418   0.570  1.0589  0.3872 -0.7811
  374SOL    HW1 1121   1.847   0.374   0.652  2.0197 -2.3657 -3.1166
  374SOL    HW2 1122   1.972   0.377   0.532 -0.5596 -2.2459 -1.3988
  375SOL     OW 1123   2.441   2.249   1.092 -0.4081 -0.8514  0.2894
  375SOL    HW1 1124   2.485   2.210   1.007 -1.7345 -1.1126 -1.8851
  375SOL    HW2 1125   2.470   2.203   1.178 -0.4618  0.5895  0.2951
  376SOL     OW 1126   3.053   0.611   1.445 -0.5942 -0.6777 -0.1234
  376SOL    HW1 1127   3.112   0.657   1.517  1.0221 -0.4552  0.6263
  376SOL    HW2 1128   2.954   0.648   1.440  1.0974  1.2678  0.8111
  377SOL     OW 1129   2.240   2.883   0.363 -0.0940  0.3214  0.3727
  377SOL    HW1 1130   2.220   2.979   0.384  1.8998 -0.5930 -0.9428
  377SOL    HW2 1131   2.338   2.860   0.339 -1.4985 -0.6111 -0.6236
  378SOL     OW 1132   1.886   1.878   2.652 -0.2184  0.0461 -0.2028
  378SOL    HW1 1133   1.906   1.778   2.671 -2.7043 -0.0725 -0.6467
  378SOL    HW2 1134   1.871   1.910   2.556  1.2250  3.7624  0.7481
  379SOL     OW 1135   0.876   0.102   2.703 -0.0731 -0.1259  0.2375
  379SOL    HW1 1136   0.822   0.014   2.694  2.4461  1.6835 -0.7171
  379SOL    HW2 1137   0.817   0.185   2.678 -0.3269  0.1283  0.5818
  380SOL     OW 1138   1.540   1.159   0.573 -0.1750 -0.6752  0.3792
  380SOL    HW1 1139   1.487   1.129   0.487  0.4110  1.1527 -0.0700
  380SOL    HW2 1140   1.520   1.108   0.656  1.3270  0.5497 -1.7537
  381SOL     OW 1141   1.276   1.208   1.499  0.2034  0.3661 -0.0396
  381SOL    HW1 1142   1.314   1.246   1.414  1.8531 -1.1067  0.4054
  381SOL    HW2 1143   1.330   1.232   1.585  2.2708 -0.0239  1.4022
  382SOL     OW 1144   1.736   0.821   0.291 -0.3628  0.3741 -0.0586
  382SOL    HW1 1145   1.762   0.814   0.190 -0.3758 -1.5655  0.4120
  382SOL    HW2 1146   1.815   0.802   0.349 -1.4057  2.8532 -2.3543
  383SOL     OW 1147   2.625   1.016   1.516  0.0798  0.4464  0.2932
  383SOL    HW1 1148   2.549   0.944   1.496 -1.6515 -0.4543 -3.1160
  383SOL    HW2 1149   2.717   0.994   1.476 -2.3661  2.5161  2.0086
  384SOL     OW 1150   0.986   2.268   0.162 -1.0189  0.0947  0.1985
  384SOL    HW1 1151   0.918   2.325   0.213 -0.3902 -2.2145  1.9735
  384SOL    HW2 1152   0.954   2.165   0.144  0.0944  0.1521 -2.3683
  385SOL     OW 1153   3.025   2.025   1.700 -0.4312 -0.6369  0.2513
  385SOL    HW1 1154   3.072   2.117   1.724  0.8023  0.9652 -0.7974
  385SOL    HW2 1155   3.101   1.949   1.713  4.3104 -2.8776  3.7494
  386SOL     OW 1156   0.445   1.109   0.442 -0.2436  0.3281  0.6287
  386SOL    HW1 1157   0.414   1.009   0.430  1.5110  1.8348  0.7444
  386SOL    HW2 1158   0.397   1.173   0.373  0.3197  1.7133 -1.5614
  387SOL     OW 1159   0.962   0.349   1.688 -0.0421 -0.4726  0.0538
  387SOL    HW1 1160   1.029   0.427   1.679  1.8378  1.2316  0.3907
  387SOL    HW2 1161   0.973   0.278   1.618 -0.4477  4.5861  0.4366
  388SOL     OW 1162   1.219   2.583   1.768 -0.3548  0.3266  0.3667
  388SOL    HW1 1163   1.238   2.589   1.662  2.7941  2.7346 -1.6229
  388SOL    HW2 1164   1.272   2.505   1.819  0.3470  0.2870  1.4524
  389SOL     OW 1165   0.240   3.090   1.127  0.2520 -0.6298  0.3364
  389SOL    HW1 1166   0.211   3.087   1.228 -1.5637  0.0339  1.3763
  389SOL    HW2 1167   0.320   3.025   1.098 -1.7631 -0.1228 -0.3575
  390SOL     OW 1168   1.001   0.830   1.271 -0.6725  0.3414  0.2304
  390SOL    HW1 1169   1.100   0.811   1.239  1.4138 -0.5825  1.4782
  390SOL    HW2 1170   0.984   0.819   1.371  1.7919  0.1173 -2.1425
  391SOL     OW 1171   2.145   1.165   1.012 -0.2323 -0.4186 -0.0636
  391SOL    HW1 1172   2.070   1.105   1.039  0.6935 -0.2149 -1.3548
  391SOL    HW2 1173   2.183   1.148   0.918  0.3240 -0.0186  0.6666
  392SOL     OW 1174   0.890   2.676   3.090 -0.4164  0.4174 -0.1512
  392SOL    HW1 1175   0.816   2.686   3.163 -2.2242  2.7323  1.0578
  392SOL    HW2 1176   0.982   2.721   3.113  0.8206  1.5495 -0.4706
  393SOL     OW 1177   0.331   0.589   1.978 -0.1200  0.2123 -0.4481
  393SOL    HW1 1178   0.255   0.524   1.958  0.1724 -1.3494  1.3902
  393SOL    HW2 1179   0.418   0.575   1.923 -0.0453 -0.0220 -0.3540
  394SOL     OW 1180   2.816   1.781   2.773 -0.2064  0.3565  0.3460
  394SOL    HW1 1181   2.874   1.804   2.694 -0.0661 -2.5769  2.5133
  394SOL    HW2 1182   2.757   1.860   2.806  0.5502 -0.8517 -0.5115
  395SOL     OW 1183   1.605   1.942   0.661 -0.2690 -0.0708  0.2580
  395SOL    HW1 1184   1.651   1.854   0.637 -1.4011 -0.2773 -1.1570
  395SOL    HW2 1185   1.649   2.002   0.731  1.0014 -0.4329 -2.3876
  396SOL     OW 1186   2.748   2.045   1.301 -0.4318  0.3292 -0.3049
  396SOL    HW1 1187   2.778   2.056   1.400 -1.1958  1.7230 -0.0352
  396SOL    HW2 1188   2.642   2.048   1.293 -0.9770  0.3887 -1.1664
  397SOL     OW 1189   1.002   2.129   0.656  0.1808 -0.1469  0.0107
  397SOL    HW1 1190   0.920   2.093   0.606 -3.4980  0.8519  2.9051
  397SOL    HW2 1191   0.983   2.219   0.712  1.8302  0.2588  0.5381
  398SOL     OW 1192   2.172   0.023   1.105  0.2727 -0.1009  0.2028
  398SOL    HW1 1193   2.154  -0.083   1.101 -2.2613  2.4769  0.7093
  398SOL    HW2 1194   2.088   0.079   1.096  0.2088  2.1922  1.0657
  399SOL     OW 1195   2.897   2.603   2.780  0.7156 -0.3636 -0.0405
  399SOL    HW1 1196   2.869   2.551   2.699  2.8260  2.0161  1.7258
  399SOL    HW2 1197   2.862   2.567   2.872 -0.9524  0.3465 -0.1949
  400SOL     OW 1198   0.810   1.595   1.273  0.2382  0.3975  0.1166
  400SOL    HW1 1199   0.759   1.647   1.346 -0.9291  0.7116 -1.4304
  400SOL    HW2 1200   0.790   1.626   1.176 -1.3376 -1.5618  0.6267
  401SOL     OW 1201   1.852   0.091   1.298  0.2734  0.1247 -0.5646
  401SOL    HW1 1202   1.890   0.113   1.390 -2.1153 -0.9460 -0.5146
  401SOL    HW2 1203   1.748   0.091   1.294 -0.9123  2.3298 -0.8040
  402SOL     OW 1204   1.322   0.187   3.046 -0.6641 -0.5476 -0.0448
  402SOL    HW1 1205   1.419   0.182   3.084  1.2522  1.0701  1.0763
  402SOL    HW2 1206   1.267   0.263   3.080 -0.0979  2.5433  1.6467
  403SOL     OW 1207   2.250   1.782   1.002  0.0549 -0.0847 -0.3053
  403SOL    HW1 1208   2.343   1.742   1.005  0.9700 -2.1037 -0.4868
  403SOL    HW2 1209   2.247   1.880   1.035  2.9052 -0.7356 -3.2063
  404SOL     OW 1210   0.191   2.451   2.770 -0.1480  0.2447  0.5005
  404SOL    HW1 1211   0.276   2.453   2.711  1.8635  0.4881  0.9133
  404SOL    HW2 1212   0.191   2.535   2.823  0.9842 -1.7327  1.4387
  405SOL     OW 1213   0.245   2.477   0.581  0.4081 -0.0387  0.2827
  405SOL    HW1 1214   0.215   2.440   0.487 -0.0602  0.1778  0.4871
  405SOL    HW2 1215   0.284   2.576   0.578 -1.6335  2.3263  0.4883
  406SOL     OW 1216   0.022   1.532   2.982  0.4104 -0.6481  0.1575
  406SOL    HW1 1217   0.097   1.480   2.933 -0.8758  0.3939  0.5160
  406SOL    HW2 1218   0.035   1.539   3.084 -1.1645  0.3837  0.9577
  407SOL     OW 1219   1.548   0.953   0.961 -0.2471  0.1479 -0.1186
  407SOL    HW1 1220   1.570   0.964   0.859 -0.8914  1.4259 -0.3738
  407SOL    HW2 1221   1.458   1.000   0.991  0.1040 -0.6443  0.8170
  408SOL     OW 1222   1.464   2.353   0.926 -0.1483 -0.3419  0.3255
  408SOL    HW1 1223   1.521   2.324   0.844 -0.4837 -3.1921  1.7333
  408SOL    HW2 1224   1.527   2.414   0.989  1.4156  0.1909  0.5225
  409SOL     OW 1225   0.610   0.876   0.688  0.1582  0.3350 -0.1475
  409SOL    HW1 1226   0.531   0.897   0.622 -2.2846 -0.2324 -1.5366
  409SOL    HW2 1227   0.649   0.781   0.669  2.0222 -0.9334  0.6239
  410SOL     OW 1228   1.311   1.997   1.494 -0.2192 -0.1418  0.0024
  410SOL    HW1 1229   1.287   2.077   1.556 -1.2952 -2.1420 -1.7798
  410SOL    HW2 1230   1.226   1.963   1.451 -1.9926  1.1968  0.4606
  411SOL     OW 1231   2.357   1.855   0.039  0.5476 -0.0574 -0.0338
  411SOL    HW1 1232   2.260   1.859  -0.007 -0.9030 -1.1167 -1.6763
  411SOL    HW2 1233   2.429   1.883  -0.027 -1.8693 -0.9182 -1.3157
  412SOL     OW 1234   1.519   2.424   2.279 -0.5953  0.1755 -0.2987
  412SOL    HW1 1235   1.458   2.502   2.294 -1.7676 -1.8624  1.0825
  412SOL    HW2 1236   1.491   2.350   2.344  1.6641  0.1703 -1.9981
  413SOL     OW 1237   3.018   0.280   2.874  0.1370 -0.0535 -0.0114
  413SOL    HW1 1238   2.959   0.196   2.888 -1.2196 -1.7180 -1.5490
  413SOL    HW2 1239   3.119   0.260   2.890 -0.5264  0.0609 -1.0167
  414SOL     OW 1240   1.765   1.323   1.336 -0.0310  0.9797  0.2769
  414SOL    HW1 1241   1.697   1.395   1.352  1.7431 -3.8995  0.9817
  414SOL    HW2 1242   1.798   1.319   1.236 -1.2131  1.1989 -0.8654
  415SOL     OW 1243   0.339   2.252   0.693  1.1901 -0.7095 -0.6290
  415SOL    HW1 1244   0.313   2.345   0.655 -1.5648 -4.2087 -0.1127
  415SOL    HW2 1245   0.257   2.188   0.673 -0.0685  0.4907 -1.7993
  416SOL     OW 1246   0.336   1.036   1.047  0.4116  0.3038  0.0683
  416SOL    HW1 1247   0.295   0.998   0.956  0.4431  0.3987 -1.4864
  416SOL    HW2 1248   0.436   1.054   1.047  0.4710  2.2714 -2.6329
  417SOL     OW 1249   2.170   2.322   1.857 -0.5959 -0.0050 -0.2441
  417SOL    HW1 1250   2.207   2.234   1.896 -0.4778  1.9516 -0.6511
  417SOL    HW2 1251   2.081   2.357   1.896  2.8020  0.6296  0.6413
  418SOL     OW 1252   1.118   0.433   1.383 -0.4590 -0.5318  0.2575
  418SOL    HW1 1253   1.030   0.402   1.348  0.6139 -0.9094  0.8160
  418SOL    HW2 1254   1.186   0.437   1.304  3.5919 -2.3299 -1.8934
  419SOL     OW 1255   0.985   0.359   3.001  0.0649  0.0794  0.3775
  419SOL    HW1 1256   0.990   0.388   2.902 -0.2895 -1.0896  0.5845
  419SOL    HW2 1257   0.938   0.268   3.011 -0.4740  0.9685 -0.7568
  420SOL     OW 1258   0.199   2.294   0.361  0.2053  0.1663 -0.2353
  420SOL    HW1 1259   0.191   2.245   0.266 -0.0686  1.2679  2.8505
  420SOL    HW2 1260   0.129   2.263   0.431  0.2198 -1.2749 -0.7869
  421SOL     OW 1261   0.341   0.054   0.682  0.2085 -0.3990 -0.2488
  421SOL    HW1 1262   0.306   0.009   0.596  0.1563  0.0771 -1.1590
  421SOL    HW2 1263   0.443   0.078   0.682  1.0418  0.7187 -0.3938
  422SOL     OW 1264   0.940   2.513   1.036 -0.0711  0.0180  0.1133
  422SOL    HW1 1265   0.955   2.599   0.984  1.8789 -0.1350  0.9023
  422SOL    HW2 1266   0.938   2.538   1.137 -1.6151 -0.3716 -1.5201
  423SOL     OW 1267   0.047   0.706   1.212 -0.3839 -0.5361  0.6126
  423SOL    HW1 1268   0.023   0.668   1.302 -1.2371  0.3172  0.1290
  423SOL    HW2 1269  -0.034   0.703   1.144 -2.2675  1.9533 -1.3445
  424SOL     OW 1270   0.987   2.147   2.220 -0.1361  0.2545  0.3996
  424SOL    HW1 1271   0.954   2.210   2.145  2.3482  2.8376  0.6004
  424SOL    HW2 1272   0.950   2.171   2.312  1.2137 -0.4244 -0.6430
  425SOL     OW 1273   2.026   1.437   1.078  0.4207 -0.4132 -0.0948
  425SOL    HW1 1274   2.048   1.335   1.069 -3.0760 -4.2180  1.9088
  425SOL    HW2 1275   2.064   1.490   1.001  2.4436  0.7946  1.8796
  426SOL     OW 1276   1.573   1.511   1.397  0.0234 -0.8233 -0.5520
  426SOL    HW1 1277   1.531   1.602   1.366  1.3853 -1.5459 -0.3448
  426SOL    HW2 1278   1.549   1.489   1.494  0.0472 -1.7292 -2.6518
  427SOL     OW 1279   1.934   2.347   2.041  0.1168 -0.0653 -0.2539
  427SOL    HW1 1280   1.986   2.274   2.089 -0.2867  1.8532  0.8613
  427SOL    HW2 1281   1.956   2.446   2.068 -1.2842  1.3255  2.1643
  428SOL     OW 1282   0.940   3.063   0.095 -0.0257 -0.1382  0.0604
  428SOL    HW1 1283   0.967   3.133   0.168 -0.9948 -0.6577  1.0602
  428SOL    HW2 1284   1.008   2.989   0.085 -1.9278  3.3913 -0.3758
  429SOL     OW 1285   1.310   0.023   0.215  0.1459 -0.3770  0.0334
  429SOL    HW1 1286   1.395   0.079   0.239  0.0068 -1.1070  0.9256
  429SOL    HW2 1287   1.323  -0.054   0.141  0.5748 -1.3214 -3.2200
  430SOL     OW 1288   2.808   1.483   0.362  0.5698 -0.0249  0.1210
  430SOL    HW1 1289   2.837   1.553   0.299 -3.1473  0.6423  1.9557
  430SOL    HW2 1290   2.793   1.521   0.460  1.3332  1.7471  1.1252
  431SOL     OW 1291   2.104   1.596   0.871  0.2977 -0.1939 -0.1320
  431SOL    HW1 1292   2.165   1.668   0.916  0.8491  2.0934 -2.5320
  431SOL    HW2 1293   2.009   1.633   0.858  0.4903 -0.8107 -1.7340
  432SOL     OW 1294   2.890   2.331   1.240  0.2456 -0.5324  0.1065
  432SOL    HW1 1295   2.868   2.231   1.220  1.1194 -0.0610 -3.9526
  432SOL    HW2 1296   2.936   2.335   1.338  0.2979 -1.2184  2.3800
  433SOL     OW 1297   1.849   0.280   0.805 -0.3637  0.3690 -0.3053
  433SOL    HW1 1298   1.758   0.278   0.859 -0.4799 -1.8813  0.1451
  433SOL    HW2 1299   1.935   0.254   0.862  1.7490 -1.0275  1.5199
  434SOL     OW 1300   1.539   0.250   0.722 -0.2397  0.4615  0.0085
  434SOL    HW1 1301   1.526   0.340   0.670  2.6922 -1.7757  3.1701
  434SOL    HW2 1302   1.571   0.273   0.818  0.1240 -0.0012  2.1370
  435SOL     OW 1303   1.417   1.490   2.116 -0.4485  0.5541  0.4444
  435SOL    HW1 1304   1.409   1.509   2.222  0.9087  0.9809  1.7004
  435SOL    HW2 1305   1.412   1.580   2.060  0.0481 -0.1271 -0.2006
  436SOL     OW 1306   1.634   2.699   2.377 -0.4651  0.5847 -0.1265
  436SOL    HW1 1307   1.637   2.794   2.418  0.4647 -1.3611  0.3061
  436SOL    HW2 1308   1.613   2.630   2.453 -1.0004  1.4525  1.7198
  437SOL     OW 1309   1.016   2.978   0.827  0.8466 -0.3253 -0.4205
  437SOL    HW1 1310   1.002   3.082   0.815 -0.3656  0.8366 -0.6892
  437SOL    HW2 1311   1.064   2.959   0.917 -1.6237 -0.2206 -0.1203
  438SOL     OW 1312   1.005   2.519   1.334 -0.1230  0.1341 -0.1797
  438SOL    HW1 1313   1.086   2.554   1.386 -2.8865 -2.0860 -0.5296
  438SOL    HW2 1314   0.993   2.418   1.331  0.9747  1.8818  1.2085
  439SOL     OW 1315   0.701   1.707   1.037 -0.1236 -0.4087 -0.3298
  439SOL    HW1 1316   0.746   1.796   1.003  2.5139  0.9302 -1.4066
  439SOL    HW2 1317   0.632   1.725   1.113 -1.6361  0.0882 -1.1237
  440SOL     OW 1318   1.007   2.358   1.984  0.9535  0.3962  0.5035
  440SOL    HW1 1319   0.955   2.417   1.915  2.1709  0.2648 -0.4303
  440SOL    HW2 1320   1.110   2.383   1.985 -0.4716  0.1016  1.7220
  441SOL     OW 1321   0.369   2.763   1.294 -0.3901 -0.1376  0.2044
  441SOL    HW1 1322   0.429   2.683   1.328  2.9264  0.2170  0.6466
  441SOL    HW2 1323   0.398   2.802   1.198 -2.0676 -0.4785 -2.8290
  442SOL     OW 1324   2.242   0.658   2.563 -0.1986 -0.0443  0.0617
  442SOL    HW1 1325   2.240   0.553   2.563  0.6551 -0.9621 -2.7337
  442SOL    HW2 1326   2.157   0.694   2.515  0.0886 -2.3707  1.1601
  443SOL     OW 1327   1.243   2.540   2.200  0.0059  0.6603 -0.1296
  443SOL    HW1 1328   1.239   2.442   2.237  1.3228  0.3840 -1.5668
  443SOL    HW2 1329   1.214   2.610   2.274 -0.1271  1.3717  3.2271
  444SOL     OW 1330   0.996   1.192   1.477  0.1392  0.0375 -0.1826
  444SOL    HW1 1331   1.088   1.176   1.513 -1.4079 -1.3747 -0.2353
  444SOL    HW2 1332   0.985   1.291   1.458  0.5773  0.2659  0.2778
  445SOL     OW 1333   0.185   2.249   2.122  0.1294  0.4689  0.0641
  445SOL    HW1 1334   0.090   2.263   2.092  3.1641  0.0329 -0.1653
  445SOL    HW2 1335   0.189   2.178   2.194  0.3725 -3.0263 -1.7539
  446SOL     OW 1336   0.108   1.945   2.369  0.4166  0.3273 -0.0965
  446SOL    HW1 1337   0.052   2.028   2.398  0.7110 -2.0461  2.1196
  446SOL    HW2 1338   0.105   1.929   2.268 -1.2410 -3.7768  0.5065
  447SOL     OW 1339   1.295   1.723   1.904 -0.2284  0.5335  0.4230
  447SOL    HW1 1340   1.199   1.763   1.903 -1.2247 -1.4164 -1.0495
  447SOL    HW2 1341   1.357   1.783   1.959 -0.0861  0.4231 -0.1645
  448SOL     OW 1342   0.178   1.469   2.030  0.3103 -0.1084 -0.1364
  448SOL    HW1 1343   0.159   1.544   1.965 -1.0174  0.7864 -1.2653
  448SOL    HW2 1344   0.103   1.472   2.105  1.1863 -0.0045  1.0591
  449SOL     OW 1345   1.814   2.934   0.810 -0.2106  0.0968 -0.4353
  449SOL    HW1 1346   1.821   2.973   0.904  1.2810 -1.3237 -2.5428
  449SOL    HW2 1347   1.861   2.843   0.791  0.5503 -2.4770 -1.2374
  450SOL     OW 1348   2.247   1.459   0.664  0.5913  0.0565 -0.0896
  450SOL    HW1 1349   2.224   1.498   0.756 -0.2198  1.1460 -0.5459
  450SOL    HW2 1350   2.289   1.530   0.602  1.8536  0.3730 -0.1033
  451SOL     OW 1351   1.404   2.996   1.475 -0.0467  0.5395 -0.2953
  451SOL    HW1 1352   1.352   3.086   1.487  0.5100 -0.1335 -2.8842
  451SOL    HW2 1353   1.454   2.956   1.552 -0.1590 -0.6979 -0.6547
  452SOL     OW 1354   2.708   2.313   2.263 -0.0122  0.2700 -0.2189
  452SOL    HW1 1355   2.626   2.375   2.269  1.2423  0.6763 -0.9540
  452SOL    HW2 1356   2.740   2.273   2.354 -2.2086  1.6423 -1.0439
  453SOL     OW 1357   2.457   2.669   3.077  0.6603  0.1105  0.0503
  453SOL    HW1 1358   2.362   2.709   3.115 -3.1843  1.4736  0.8954
  453SOL    HW2 1359   2.446   2.579   3.025 -2.2191 -1.1471 -2.3626
  454SOL     OW 1360   0.937   1.177   2.026 -0.1467 -0.3280 -0.1023
  454SOL    HW1 1361   0.878   1.173   1.942  0.1633 -0.4846 -0.3215
  454SOL    HW2 1362   1.012   1.250   2.025  1.1566 -1.4228  1.0924
  455SOL     OW 1363   0.669   2.611   2.789 -0.8265  0.1556 -0.1395
  455SOL    HW1 1364   0.768   2.654   2.795 -1.8725  2.7895 -0.9820
  455SOL    HW2 1365   0.650   2.524   2.846 -2.1292  1.3904  1.4082
  456SOL     OW 1366   0.324   1.929   0.238  0.7071  0.0567  0.0750
  456SOL    HW1 1367   0.426   1.929   0.262  0.1478  1.8670  3.0671
  456SOL    HW2 1368   0.295   2.010   0.181  1.7133 -0.2206 -0.8465
  457SOL     OW 1369   0.393   2.739   0.685  0.3325  0.9249 -0.5043
  457SOL    HW1 1370   0.407   2.807   0.607  1.1665 -2.2864  0.2796
  457SOL    HW2 1371   0.481   2.684   0.701 -0.4338 -1.8504  1.7832
  458SOL     OW 1372   2.940   0.040   1.262 -0.1832 -0.0648  0.1436
  458SOL    HW1 1373   2.970   0.138   1.247 -0.6906 -0.7849 -1.0210
  458SOL    HW2 1374   2.955  -0.013   1.171 -1.1306 -0.2672  1.3999
  459SOL     OW 1375   2.160   2.482   0.749  0.6378 -0.3064  0.5630
  459SOL    HW1 1376   2.207   2.492   0.840  1.1999 -0.1924 -1.5622
  459SOL    HW2 1377   2.210   2.515   0.665 -1.9480  0.0957 -0.7934
  460SOL     OW 1378   1.153   2.050   2.767  0.1699  0.4280 -0.1446
  460SOL    HW1 1379   1.179   2.039   2.668 -0.8125 -2.0890  0.3664
  460SOL    HW2 1380   1.159   1.957   2.816 -1.4841  0.0069  0.8319
  461SOL     OW 1381   0.469   2.133   2.713  0.0035  0.1537  0.2706
  461SOL    HW1 1382   0.415   2.070   2.652 -2.0047 -2.3428 -1.1044
  461SOL    HW2 1383   0.501   2.095   2.800  1.5153  0.5723  0.6902
  462SOL     OW 1384   0.952   1.015   1.753  0.2369 -0.2909  0.0941
  462SOL    HW1 1385   0.944   0.942   1.681  0.1978 -0.9525 -0.5638
  462SOL    HW2 1386   0.891   1.095   1.730 -0.3652  1.4798 -0.2020
  463SOL     OW 1387   0.447   0.807   0.458 -0.0181  0.3957 -0.0622
  463SOL    HW1 1388   0.495   0.717   0.423  1.5229 -2.6193 -0.4183
  463SOL    HW2 1389   0.349   0.796   0.494 -0.4027 -0.5696 -0.3121
  464SOL     OW 1390   0.593   2.345   2.248 -0.3397 -0.2543 -0.5753
  464SOL    HW1 1391   0.533   2.396   2.313  1.6124  1.2523 -2.6774
  464SOL    HW2 1392   0.582   2.367   2.149 -0.7818 -2.9293 -0.0430
  465SOL     OW 1393   0.233   0.926   0.787  0.2096 -0.3371  0.1899
  465SOL    HW1 1394   0.142   0.933   0.739  0.0206 -1.0677 -1.6649
  465SOL    HW2 1395   0.254   0.823   0.797  0.1075 -1.6657  1.7219
  466SOL     OW 1396   1.344   1.151   1.017  0.5423 -0.4159  0.1800
  466SOL    HW1 1397   1.356   1.242   0.963  1.1410 -1.8826 -3.2280
  466SOL    HW2 1398   1.252   1.141   1.065  0.3731  1.1646 -1.0334
  467SOL     OW 1399   0.624   0.426   2.516  0.0102 -0.8377 -0.6755
  467SOL    HW1 1400   0.551   0.494   2.552 -0.1096  0.7257 -0.2441
  467SOL    HW2 1401   0.641   0.355   2.590  0.8341  0.7238  0.9788
  468SOL     OW 1402   0.449   2.258   1.591 -0.3144 -0.1990 -0.2292
  468SOL    HW1 1403   0.533   2.308   1.627  0.4530 -2.4880  0.3404
  468SOL    HW2 1404   0.444   2.250   1.488 -0.8634  3.7729 -0.5160
  469SOL     OW 1405   1.416   1.361   1.215 -0.0689  0.5308  0.2098
  469SOL    HW1 1406   1.488   1.322   1.149 -2.0420  0.8743  2.3047
  469SOL    HW2 1407   1.464   1.415   1.286 -1.4315 -1.5917  2.2472
  470SOL     OW 1408   3.016   1.808   0.779  0.3367  0.0951 -0.3312
  470SOL    HW1 1409   3.065   1.886   0.730  0.1806 -2.2074 -2.7263
  470SOL    HW2 1410   3.048   1.798   0.873 -1.1502 -0.5412  0.3846
  471SOL     OW 1411   2.616   1.380   2.194 -0.5917 -0.1495  0.1011
  471SOL    HW1 1412   2.613   1.280   2.225 -0.4885 -0.0014  0.1265
  471SOL    HW2 1413   2.709   1.426   2.218  0.7781  1.8396 -0.4074
  472SOL     OW 1414   1.147   2.493   0.070 -0.0402  0.2977  0.7456
  472SOL    HW1 1415   1.218   2.517   0.143  0.1100 -0.5646  0.6727
  472SOL    HW2 1416   1.075   2.428   0.104 -1.1364  1.3287 -0.7051
  473SOL     OW 1417   1.078   1.536   1.011 -0.3945  0.2571  0.1209
  473SOL    HW1 1418   0.998   1.524   0.948  0.4055 -0.3108  0.7596
  473SOL    HW2 1419   1.070   1.475   1.095 -0.5342 -1.7506 -0.9305
  474SOL     OW 1420   0.644   1.284   0.522 -0.0497  0.0659  0.0304
  474SOL    HW1 1421   0.570   1.219   0.483  0.2994  0.2295  0.6698
  474SOL    HW2 1422   0.725   1.242   0.571 -1.0408 -1.2443  0.8842
  475SOL     OW 1423   2.825   0.061   0.806  0.1809  0.6224 -0.2549
  475SOL    HW1 1424   2.888   0.145   0.796  0.8993 -0.3328  0.4278
  475SOL    HW2 1425   2.726   0.089   0.802  0.4848 -1.5858  3.2311
  476SOL     OW 1426   0.965   3.076   1.806 -0.0410 -0.0959 -0.1751
  476SOL    HW1 1427   1.066   3.094   1.795 -0.3997  0.3320  0.6027
  476SOL    HW2 1428   0.924   3.042   1.719  0.3764  2.6096 -0.0071
  477SOL     OW 1429   1.423   0.331   2.418 -0.3770  0.1715 -0.3546
  477SOL    HW1 1430   1.430   0.356   2.518  1.5803 -0.9629 -1.4379
  477SOL    HW2 1431   1.508   0.278   2.389  0.1172  0.0614 -0.2074
  478SOL     OW 1432   2.225   1.898   0.277  0.6616  0.1785 -0.4155
  478SOL    HW1 1433   2.202   1.814   0.337 -2.8379 -2.3475  1.3481
  478SOL    HW2 1434   2.263   1.877   0.185 -1.3908  1.7000  1.8922
  479SOL     OW 1435   1.286   0.946   2.900 -0.7512  0.3799 -0.1573
  479SOL    HW1 1436   1.351   0.978   2.823 -0.7005  1.3570 -0.6057
  479SOL    HW2 1437   1.226   0.865   2.874 -1.3886  2.0015  0.3696
  480SOL     OW 1438   2.661   2.307   0.386 -0.0599  0.2726  0.0297
  480SOL    HW1 1439   2.707   2.228   0.434 -3.4641 -1.4524 -1.5990
  480SOL    HW2 1440   2.558   2.291   0.392 -1.0672 -2.3764 -0.9486
  481SOL     OW 1441   1.012   1.152   0.875  0.5465 -0.1689  0.1714
  481SOL    HW1 1442   1.016   1.254   0.866 -0.7767  0.9552 -0.5422
  481SOL    HW2 1443   1.053   1.116   0.966  3.6051  1.0093 -2.3399
  482SOL     OW 1444   1.603   0.287   2.000 -0.7782  0.1944 -0.6497
  482SOL    HW1 1445   1.618   0.390   1.990 -0.7181  1.2164 -0.1101
  482SOL    HW2 1446   1.686   0.233   2.041 -1.4008  0.2669  0.2357
  483SOL     OW 1447   0.210   2.338   1.193  0.6089 -0.3190 -0.2007
  483SOL    HW1 1448   0.160   2.398   1.260 -1.1577 -2.1978  2.4979
  483SOL    HW2 1449   0.223   2.389   1.102  0.8118 -3.2472 -0.0325
  484SOL     OW 1450   1.707   1.049   1.392 -0.1862 -0.3060 -0.8234
  484SOL    HW1 1451   1.772   1.002   1.455 -1.5038 -1.0548 -1.7643
  484SOL    HW2 1452   1.724   1.152   1.387  0.6701  0.8785 -0.6894
  485SOL     OW 1453   0.761   0.769   1.889 -0.3579 -0.3979 -0.9722
  485SOL    HW1 1454   0.719   0.791   1.794 -1.8734  1.2642 -2.4250
  485SOL    HW2 1455   0.843   0.709   1.883 -0.5927 -2.4525 -2.4436
  486SOL     OW 1456   0.872   1.869   2.428 -0.7535 -0.2328 -0.1287
  486SOL    HW1 1457   0.869   1.877   2.534  1.2938  0.9352 -2.4983
  486SOL    HW2 1458   0.864   1.961   2.383 -0.3359  1.6528  0.0850
  487SOL     OW 1459   1.765   1.607   1.064 -0.1044  0.5541 -0.4032
  487SOL    HW1 1460   1.795   1.509   1.078  1.2374  0.7548 -1.3682
  487SOL    HW2 1461   1.812   1.648   0.983  0.4799 -1.6203 -1.1602
  488SOL     OW 1462   2.928   0.802   2.269  0.2097 -0.0239  0.1608
  488SOL    HW1 1463   2.997   0.728   2.250  1.5854 -0.2255  0.0287
  488SOL    HW2 1464   2.880   0.779   2.360  1.2611  0.6167 -0.3202
  489SOL     OW 1465   2.781   0.343   1.288  0.1834 -0.1099 -0.0054
  489SOL    HW1 1466   2.782   0.331   1.390 -1.2554  0.1344  0.3850
  489SOL    HW2 1467   2.868   0.312   1.240  0.4505 -1.3456 -1.4330
  490SOL     OW 1468   1.452   2.942   2.800 -0.4001 -0.4753 -0.1922
  490SOL    HW1 1469   1.505   2.854   2.812 -1.5100  0.0480  1.0661
  490SOL    HW2 1470   1.422   2.957   2.702  0.6850  1.5461  1.0338
  491SOL     OW 1471   1.770   1.473   2.733 -0.6182  0.1981 -0.0184
  491SOL    HW1 1472   1.737   1.437   2.826  1.0262  2.4912  1.5223
  491SOL    HW2 1473   1.850   1.541   2.746 -0.5999 -1.4066 -0.3437
  492SOL     OW 1474   0.560   2.103   0.622 -0.1063  0.0567  0.8380
  492SOL    HW1 1475   0.613   2.094   0.713 -3.2789  1.2351 -2.6673
  492SOL    HW2 1476   0.482   2.170   0.628 -0.9891  0.0083  0.4406
  493SOL     OW 1477   0.424   1.337   2.084  0.2157  0.5005 -0.1964
  493SOL    HW1 1478   0.331   1.386   2.085 -1.8217 -0.8741  0.0211
  493SOL    HW2 1479   0.414   1.234   2.086 -0.7774 -0.8358 -0.0773
  494SOL     OW 1480   2.721   2.653   0.107 -0.0616 -0.0247  0.0497
  494SOL    HW1 1481   2.744   2.630   0.207 -1.5067  1.2477  0.1760
  494SOL    HW2 1482   2.618   2.661   0.089  0.1942  0.0506  2.3280
  495SOL     OW 1483   2.544   2.821   2.645 -0.0414  0.0797  0.1033
  495SOL    HW1 1484   2.569   2.718   2.649 -1.2724 -3.0241 -4.9191
  495SOL    HW2 1485   2.615   2.872   2.582  0.2070  0.3438 -0.5164
  496SOL     OW 1486   1.936   2.272   0.845 -0.0204 -0.6260  0.0194
  496SOL    HW1 1487   2.014   2.333   0.867  0.2919  0.3216 -0.5974
  496SOL    HW2 1488   1.965   2.169   0.841  0.6935 -1.3991  3.2952
  497SOL     OW 1489   0.218   3.017   2.351  0.0768  0.0858  0.2794
  497SOL    HW1 1490   0.152   3.084   2.407 -2.0688  0.8678  1.8511
  497SOL    HW2 1491   0.252   3.059   2.258  1.1791 -0.0410 -0.9816
  498SOL     OW 1492   1.140   1.362   1.210 -0.2113  0.5029  0.3503
  498SOL    HW1 1493   1.242   1.364   1.195  0.7118  1.2565  2.4907
  498SOL    HW2 1494   1.113   1.424   1.285  2.2642 -1.7526  0.4329
  499SOL     OW 1495   0.593   1.840   0.338  0.0905 -0.1763 -0.2470
  499SOL    HW1 1496   0.643   1.782   0.272 -1.3468  0.6239  0.1807
  499SOL    HW2 1497   0.659   1.902   0.392 -1.5462  1.1592  1.5029
  500SOL     OW 1498   1.543   2.846   1.666  0.1027  0.4906  0.6390
  500SOL    HW1 1499   1.555   2.829   1.770  0.6841  0.1517  3.9467
  500SOL    HW2 1500   1.564   2.758   1.613 -0.0383  0.2279 -0.1590
  501SOL     OW 1501   0.822   1.175   2.278 -0.0707  0.1787  0.3019
  501SOL    HW1 1502   0.738   1.114   2.272 -1.4833  0.6110  0.0636
  501SOL    HW2 1503   0.873   1.164   2.194  1.6149  0.5344  2.1933
  502SOL     OW 1504   2.600   0.909   1.790  0.0972  0.0847 -0.6448
  502SOL    HW1 1505   2.611   0.935   1.696  0.3175 -1.1063  1.4656
  502SOL    HW2 1506   2.599   0.804   1.803  1.5192  2.5360 -1.0611
  503SOL     OW 1507   1.303   0.111   0.688  0.2441  0.4281 -0.0858
  503SOL    HW1 1508   1.227   0.180   0.697  0.2047  0.4923  1.1346
  503SOL    HW2 1509   1.400   0.147   0.714  2.4673 -1.3941 -1.5006
  504SOL     OW 1510   3.009   2.329   1.468  0.5168 -0.2713 -0.0037
  504SOL    HW1 1511   3.002   2.394   1.552 -0.2825  0.1026  4.0978
  504SOL    HW2 1512   3.101   2.292   1.451 -1.7613 -1.3027 -0.7947
  505SOL     OW 1513   2.292   1.159   1.491 -0.1433  0.6189 -0.7196
  505SOL    HW1 1514   2.288   1.190   1.390  0.3665 -1.2114 -0.5725
  505SOL    HW2 1515   2.369   1.197   1.553 -0.0256  0.0169  2.0691
  506SOL     OW 1516   1.936   0.175   1.836 -0.3084  0.3082 -0.6383
  506SOL    HW1 1517   2.031   0.136   1.826 -1.6302  1.3617 -1.1271
  506SOL    HW2 1518   1.935   0.268   1.876  1.8489  1.5347 -1.5020
  507SOL     OW 1519   0.494   0.712   2.216 -0.3512 -0.3438 -0.2865
  507SOL    HW1 1520   0.443   0.669   2.135  3.6078 -2.3332  0.7963
  507SOL    HW2 1521   0.576   0.654   2.247  2.1210  2.5809  2.5286
  508SOL     OW 1522   0.276   1.685   0.808  0.1621  0.2991 -0.2121
  508SOL    HW1 1523   0.336   1.737   0.738  3.5376  0.4001 -0.7297
  508SOL    HW2 1524   0.262   1.736   0.903 -0.4814 -0.6058 -0.6370
  509SOL     OW 1525   1.313   1.207   2.458  0.0398 -0.1783 -0.0842
  509SOL    HW1 1526   1.323   1.162   2.363 -1.1119 -0.9059 -1.0189
  509SOL    HW2 1527   1.213   1.192   2.492 -1.6014  1.8018 -0.9740
  510SOL     OW 1528   1.303   2.035   2.228  0.1822  0.0920  0.1690
  510SOL    HW1 1529   1.329   2.070   2.135  2.4549 -3.4384  1.3609
  510SOL    HW2 1530   1.211   1.982   2.230 -2.8599  1.2990 -0.0538
  511SOL     OW 1531   2.993   2.736   1.289  0.1423  0.7897 -0.3455
  511SOL    HW1 1532   3.045   2.741   1.196 -0.8735  0.4846 -0.6256
  511SOL    HW2 1533   2.895   2.713   1.270  0.6116  1.0956 -1.4766
  512SOL     OW 1534   2.346   0.450   1.404  0.0631  0.0692 -0.1002
  512SOL    HW1 1535   2.243   0.438   1.380  0.2416 -0.2481 -1.9653
  512SOL    HW2 1536   2.404   0.405   1.328 -1.9155 -1.8779 -0.9826
  513SOL     OW 1537   2.563   2.088   0.840  0.2822  0.1112  0.3115
  513SOL    HW1 1538   2.545   2.186   0.807  1.2524  1.1114 -0.2683
  513SOL    HW2 1539   2.651   2.049   0.794  2.5669  2.4280  2.3562
  514SOL     OW 1540   0.627   2.709   0.440  0.0794 -0.2520 -0.1874
  514SOL    HW1 1541   0.671   2.708   0.342 -0.0572 -2.3564 -0.9390
  514SOL    HW2 1542   0.654   2.790   0.499  0.0882  1.0690 -3.1824
  515SOL     OW 1543   1.941   1.342   2.403  0.1088 -0.3842 -0.1235
  515SOL    HW1 1544   1.939   1.311   2.304 -1.0243  1.9756 -0.2859
  515SOL    HW2 1545   1.861   1.304   2.463 -0.2042  1.7968  2.6069
  516SOL     OW 1546   0.258   0.193   1.933 -0.1884  1.2448 -0.9954
  516SOL    HW1 1547   0.357   0.190   1.902 -2.2599 -0.7938  0.7833
  516SOL    HW2 1548   0.194   0.150   1.867 -0.8018  0.2476 -0.1962
  517SOL     OW 1549   0.477   0.193   1.173 -0.2815  0.3153  0.0162
  517SOL    HW1 1550   0.533   0.131   1.240  1.8326 -1.8487  1.9792
  517SOL    HW2 1551   0.385   0.148   1.144 -0.7259 -1.9602 -2.4737
  518SOL     OW 1552   2.182   3.008   1.858 -0.1193  0.3677 -0.1092
  518SOL    HW1 1553   2.216   3.109   1.872  0.7185  0.2889 -0.1986
  518SOL    HW2 1554   2.213   2.966   1.766  0.2511 -2.0106 -1.5470
  519SOL     OW 1555   2.359   2.231   2.555 -0.4037  0.4644  0.4417
  519SOL    HW1 1556   2.285   2.185   2.612 -1.0820 -0.0309 -2.3147
  519SOL    HW2 1557   2.347   2.333   2.542  4.1147 -0.2448  1.4009
  520SOL     OW 1558   1.838   2.721   1.660  0.0732  0.1481  0.6349
  520SOL    HW1 1559   1.761   2.674   1.720  1.8324 -1.0422  0.0277
  520SOL    HW2 1560   1.922   2.665   1.650 -1.5064 -0.9656 -0.8299
  521SOL     OW 1561   0.617   0.071   2.149 -0.7648 -0.0504 -0.2074
  521SOL    HW1 1562   0.518   0.030   2.153 -3.3896 -2.2725 -2.8868
  521SOL    HW2 1563   0.670   0.059   2.235 -1.1084  2.1540  0.1310
  522SOL     OW 1564   0.235   1.903   1.462  0.6788 -0.3694 -0.1192
  522SOL    HW1 1565   0.265   1.967   1.538 -0.1505  1.8458 -0.4437
  522SOL    HW2 1566   0.199   1.956   1.380 -0.5780  0.7218  2.1914
  523SOL     OW 1567   2.169   2.930   1.567 -0.4087  0.1697 -0.0267
  523SOL    HW1 1568   2.266   2.891   1.550 -3.2910  2.8835  0.2033
  523SOL    HW2 1569   2.098   2.911   1.494 -0.4247  0.9757 -2.5242
  524SOL     OW 1570   0.193   2.760   2.797  0.2300 -0.0704 -0.4017
  524SOL    HW1 1571   0.154   2.851   2.833  0.2466  1.3664  1.7987
  524SOL    HW2 1572   0.284   2.770   2.758 -1.6491  2.3643  3.8360
  525SOL     OW 1573   2.174   2.055   0.493 -0.9722 -0.0582 -0.1094
  525SOL    HW1 1574   2.169   2.004   0.581  0.2867  0.5018  0.0656
  525SOL    HW2 1575   2.192   1.990   0.408  0.9186  0.5562 -0.2792
  526SOL     OW 1576   0.433   1.542   1.731 -0.2622  0.5240 -0.2168
  526SOL    HW1 1577   0.522   1.594   1.740 -2.2065 -0.2902  0.0014
  526SOL    HW2 1578   0.439   1.437   1.718  3.8683 -2.5956 -0.4934
  527SOL     OW 1579   1.078   2.937   1.176 -0.4835  0.0956  0.3621
  527SOL    HW1 1580   1.130   2.876   1.244 -1.2081  1.1958  2.0521
  527SOL    HW2 1581   1.140   3.023   1.158  2.8529  1.7460 -1.1102
  528SOL     OW 1582   1.292   2.421   0.577  0.4432 -0.1834 -0.8332
  528SOL    HW1 1583   1.357   2.339   0.583 -0.7519  2.1117 -0.2152
  528SOL    HW2 1584   1.325   2.503   0.627 -1.1314  0.6978  2.2986
  529SOL     OW 1585   1.895   1.767   0.865 -0.1114  0.2947  0.1070
  529SOL    HW1 1586   1.846   1.753   0.770 -0.3825  0.3534  0.3578
  529SOL    HW2 1587   1.914   1.869   0.890 -0.3547  1.8890 -1.0564
  530SOL     OW 1588   0.409   2.485   0.179 -0.1626  0.7915 -0.6775
  530SOL    HW1 1589   0.443   2.459   0.274  2.7403  0.1307  0.3872
  530SOL    HW2 1590   0.410   2.407   0.111  0.5143  1.7193  1.0431
  531SOL     OW 1591   1.828   0.989   1.039 -0.1324 -0.2118  0.1005
  531SOL    HW1 1592   1.828   0.999   0.935  0.6806  0.2060 -1.0126
  531SOL    HW2 1593   1.738   0.949   1.077 -0.0371 -0.8289  2.0859
  532SOL     OW 1594   0.403   1.174   0.706  0.0707 -0.3529 -0.4567
  532SOL    HW1 1595   0.413   1.146   0.604  0.0982  0.7432  0.6514
  532SOL    HW2 1596   0.339   1.104   0.750  0.3801 -0.1873  2.1906
  533SOL     OW 1597   1.838   0.080   2.578 -0.0155 -0.4741 -0.3957
  533SOL    HW1 1598   1.938   0.065   2.591 -0.8275 -1.9227  0.6609
  533SOL    HW2 1599   1.791   0.154   2.640  1.2594 -0.2013 -0.9287
  534SOL     OW 1600   0.195   0.201   1.570  0.0767  0.1143  0.1062
  534SOL    HW1 1601   0.273   0.244   1.518 -0.6050  1.0564 -1.7727
  534SOL    HW2 1602   0.113   0.259   1.571 -0.9497 -0.2343  0.1631
  535SOL     OW 1603   1.874   0.412   0.172 -0.3038  0.3529  1.0778
  535SOL    HW1 1604   1.920   0.506   0.165  3.2496  2.9553 -1.7513
  535SOL    HW2 1605   1.814   0.393   0.255  1.9564 -2.1063 -0.2723
  536SOL     OW 1606   1.224   2.528   1.017 -0.0246  0.4259  0.3631
  536SOL    HW1 1607   1.277   2.493   0.932  2.6570 -3.5464  0.5566
  536SOL    HW2 1608   1.122   2.525   1.007  1.7900  1.6948 -1.7695
  537SOL     OW 1609   0.876   0.218   2.327 -0.5709 -0.9020  0.4204
  537SOL    HW1 1610   0.872   0.248   2.229 -0.1404  4.9309  2.9183
  537SOL    HW2 1611   0.807   0.144   2.354  1.4543 -0.4712 -0.0492
  538SOL     OW 1612   1.704   2.311   1.566  0.2210  0.3978 -0.1572
  538SOL    HW1 1613   1.634   2.247   1.518 -2.9043  0.6901 -2.2075
  538SOL    HW2 1614   1.782   2.351   1.509 -0.7704 -0.6381 -0.7355
  539SOL     OW 1615   0.167   1.594   2.707  0.1172  0.6471 -0.1602
  539SOL    HW1 1616   0.073   1.589   2.666  0.1016  2.1024  2.7975
  539SOL    HW2 1617   0.178   1.691   2.732  0.7548 -2.4467 -0.5620
  540SOL     OW 1618   2.689   1.731   2.110  0.3114 -0.4520 -0.5417
  540SOL    HW1 1619   2.649   1.642   2.070 -1.3725 -1.2627 -3.1997
  540SOL    HW2 1620   2.648   1.820   2.075  1.2007  3.7275 -0.3417
  541SOL     OW 1621   0.442   2.257   3.100  0.2654  0.3745 -0.0533
  541SOL    HW1 1622   0.504   2.180   3.133 -0.8404  0.7558 -3.9661
  541SOL    HW2 1623   0.362   2.222   3.048  2.1393 -1.5300 -0.2389
  542SOL     OW 1624   2.200   2.624   0.438  0.2150  0.4291 -0.0761
  542SOL    HW1 1625   2.207   2.726   0.409  0.5170  0.1004 -0.8576
  542SOL    HW2 1626   2.114   2.597   0.479  2.1288  1.0087  0.1096
  543SOL     OW 1627   1.047   1.803   1.748  0.0493 -0.1824 -0.0633
  543SOL    HW1 1628   1.000   1.828   1.842 -1.3479  0.8774  0.8546
  543SOL    HW2 1629   1.024   1.865   1.673 -0.8566  0.6361  1.1929
  544SOL     OW 1630   0.841   0.420   0.145 -0.3915  0.1970  0.0981
  544SOL    HW1 1631   0.874   0.352   0.213 -0.9247  0.3364 -0.5069
  544SOL    HW2 1632   0.900   0.410   0.060  0.1653  0.3570  1.9105
  545SOL     OW 1633   1.160   1.751   0.620  0.4865 -0.5800 -0.2683
  545SOL    HW1 1634   1.249   1.744   0.675 -0.6238 -1.4499  0.8540
  545SOL    HW2 1635   1.176   1.762   0.518  2.4403 -1.5831 -0.6479
  546SOL     OW 1636   2.681   1.584   0.042  0.2120 -0.2097  0.0177
  546SOL    HW1 1637   2.721   1.542  -0.043 -0.4370 -1.3532 -1.1244
  546SOL    HW2 1638   2.594   1.545   0.076  3.1705  3.7828 -1.7871
  547SOL     OW 1639   0.511   0.009   2.748  0.4644 -0.0043  0.4001
  547SOL    HW1 1640   0.507  -0.100   2.738 -0.5183  0.1095  1.0548
  547SOL    HW2 1641   0.536   0.028   2.847  0.2674 -2.7397  0.2129
  548SOL     OW 1642   2.075   0.820   3.073  0.0330  0.6784 -0.5833
  548SOL    HW1 1643   1.996   0.753   3.102  0.3089  0.3860 -0.3404
  548SOL    HW2 1644   2.053   0.921   3.084  1.9279  1.6240 -0.8951
  549SOL     OW 1645   0.576   0.421   0.089  0.3865 -0.3682  0.4721
  549SOL    HW1 1646   0.536   0.494   0.030  0.8751  1.6087  4.2275
  549SOL    HW2 1647   0.677   0.420   0.111  0.1603  0.8670  0.7200
  550SOL     OW 1648   2.542   2.852   2.910 -0.3439  0.5401  0.3941
  550SOL    HW1 1649   2.498   2.781   2.974  0.9030 -1.6307 -0.5429
  550SOL    HW2 1650   2.541   2.838   2.808  1.9348  1.4300 -2.0946
  551SOL     OW 1651   0.235   0.776   0.173  0.4594  0.2000 -0.3993
  551SOL    HW1 1652   0.338   0.769   0.175 -0.2862 -0.1095  0.1421
  551SOL    HW2 1653   0.187   0.776   0.269 -1.8360 -0.1119 -0.7007
  552SOL     OW 1654   0.827   2.802   1.894  0.1299  0.2886 -0.2224
  552SOL    HW1 1655   0.805   2.743   1.985 -0.1834 -0.7941  0.3098
  552SOL    HW2 1656   0.860   2.900   1.919 -0.2875  1.0710  2.5972
  553SOL     OW 1657   3.090   2.556   0.422  0.0554  0.1253  0.2186
  553SOL    HW1 1658   3.058   2.459   0.406 -1.2477  1.5110  1.7726
  553SOL    HW2 1659   3.036   2.609   0.492  2.7587 -0.1017  2.1042
  554SOL     OW 1660   2.140   0.296   0.541 -0.4389 -0.0866  0.7263
  554SOL    HW1 1661   2.180   0.255   0.457 -5.3157  0.2565  2.1786
  554SOL    HW2 1662   2.131   0.226   0.617  1.8474  0.2852  3.2257
  555SOL     OW 1663   0.470   2.938   2.459  0.1519  0.3936 -0.4795
  555SOL    HW1 1664   0.387   2.993   2.436  0.3507  1.2607 -1.0207
  555SOL    HW2 1665   0.483   2.860   2.393 -3.2853  0.1453  1.7120
  556SOL     OW 1666   0.883   2.285   1.615  0.2889 -0.1854  0.3875
  556SOL    HW1 1667   0.933   2.369   1.648  0.0363 -2.6709  1.8232
  556SOL    HW2 1668   0.922   2.249   1.524  0.1005 -1.0363 -0.5538
  557SOL     OW 1669   0.144   2.135   0.138  0.2629  0.0890  0.2533
  557SOL    HW1 1670   0.083   2.049   0.142 -1.0565  0.7215 -2.4840
  557SOL    HW2 1671   0.172   2.157   0.041 -0.5431 -1.0956  2.5787
  558SOL     OW 1672   2.937   2.339   0.278  0.7944 -0.1220 -0.2951
  558SOL    HW1 1673   2.834   2.315   0.296 -1.8387  0.6244 -1.4988
  558SOL    HW2 1674   2.964   2.322   0.180 -0.3794 -0.5615 -0.0364
  559SOL     OW 1675   0.430   2.251   1.312  0.4010 -0.6213  1.1580
  559SOL    HW1 1676   0.350   2.288   1.249  1.6815  1.1037 -1.5843
  559SOL    HW2 1677   0.465   2.160   1.278  0.5665 -0.2153  0.0273
  560SOL     OW 1678   2.023   1.082   3.087  0.3133 -0.1882  0.2113
  560SOL    HW1 1679   2.027   1.155   3.012  1.3044 -0.0903 -1.2547
  560SOL    HW2 1680   1.986   1.116   3.177  2.7308 -1.9595  1.8931
  561SOL     OW 1681   3.048   1.925   0.099  0.0005 -0.7026 -0.4139
  561SOL    HW1 1682   2.999   1.836   0.128 -0.7790  0.4219 -0.2998
  561SOL    HW2 1683   2.989   1.999   0.047 -1.4252  2.6764  1.3796
  562SOL     OW 1684   0.837   2.182   2.468  0.4533 -0.4299 -0.6306
  562SOL    HW1 1685   0.735   2.153   2.452 -1.6717  0.8502  1.6106
  562SOL    HW2 1686   0.845   2.237   2.553 -1.1377  0.3375  2.2640
  563SOL     OW 1687   0.735   2.552   2.540  0.0546 -0.8005  0.3422
  563SOL    HW1 1688   0.785   2.466   2.564 -2.3588 -1.6913  0.6691
  563SOL    HW2 1689   0.678   2.589   2.618 -0.6003  4.3357  0.4563
  564SOL     OW 1690   2.776   1.275   2.857 -0.4772  0.1368 -0.3894
  564SOL    HW1 1691   2.683   1.255   2.897 -0.0077 -0.2042 -0.1148
  564SOL    HW2 1692   2.810   1.371   2.881  1.5727 -0.3004 -1.4377
  565SOL     OW 1693   2.510   2.010   2.589 -0.0633 -0.3245  0.7421
  565SOL    HW1 1694   2.459   2.095   2.560  0.8953 -2.5729 -1.1170
  565SOL    HW2 1695   2.611   2.030   2.610  0.1326 -0.7043  0.2618
  566SOL     OW 1696   1.987   2.837   1.372 -0.1882  0.4183 -0.2268
  566SOL    HW1 1697   2.005   2.746   1.416 -0.7717  1.7706 -1.7207
  566SOL    HW2 1698   2.026   2.848   1.279  0.6791  1.0342 -0.1823
  567SOL     OW 1699   2.465   0.146   2.255 -0.2084  0.1214  0.3371
  567SOL    HW1 1700   2.506   0.119   2.162  1.5156 -1.4641  0.6813
  567SOL    HW2 1701   2.379   0.201   2.251 -0.1665 -1.4007  0.3523
  568SOL     OW 1702   1.430   1.807   0.423  0.8241  0.1476  0.3151
  568SOL    HW1 1703   1.403   1.874   0.353 -0.1542  1.1631  0.7500
  568SOL    HW2 1704   1.470   1.856   0.506 -1.6915 -1.3823 -2.4276
  569SOL     OW 1705   0.281   0.667   0.796  0.2090  0.1765  0.1428
  569SOL    HW1 1706   0.363   0.603   0.755  4.3767 -0.6213 -1.3110
  569SOL    HW2 1707   0.189   0.613   0.814 -0.3082 -2.0341 -2.5234
  570SOL     OW 1708   0.610   0.774   2.847 -0.4482 -0.3299  0.3016
  570SOL    HW1 1709   0.661   0.773   2.754  2.8695  3.1215 -1.5560
  570SOL    HW2 1710   0.653   0.848   2.911 -1.6120 -0.3737  1.5942
  571SOL     OW 1711   0.836   3.059   1.118 -0.5339 -0.2156  0.0992
  571SOL    HW1 1712   0.846   3.128   1.042  2.7979  0.3795  0.5784
  571SOL    HW2 1713   0.923   3.005   1.132 -0.2389 -0.9582 -2.2267
  572SOL     OW 1714   1.531   2.560   1.169  0.0665  0.6251 -0.5150
  572SOL    HW1 1715   1.460   2.522   1.241 -0.2154 -0.8005  0.7701
  572SOL    HW2 1716   1.496   2.644   1.114  1.7000  0.4223 -1.0971
  573SOL     OW 1717   2.943   0.413   2.106 -0.1694 -0.3513 -0.3223
  573SOL    HW1 1718   2.905   0.317   2.123  1.0417  0.7121  3.8004
  573SOL    HW2 1719   2.873   0.473   2.057 -0.1217  2.6275 -3.3520
  574SOL     OW 1720   0.249   1.804   1.043  0.2850 -0.1902  0.5154
  574SOL    HW1 1721   0.228   1.899   0.999 -1.6922 -2.4539 -0.9059
  574SOL    HW2 1722   0.162   1.761   1.088 -0.7382  0.2078 -0.2631
  575SOL     OW 1723   0.891   2.135   1.015 -0.3075 -0.5393  0.0370
  575SOL    HW1 1724   0.851   2.174   1.103 -1.5856 -2.0376 -1.1359
  575SOL    HW2 1725   0.980   2.182   0.991 -1.6049  2.5480 -0.3497
  576SOL     OW 1726   2.933   2.905   1.699 -0.3534  0.4577  0.2917
  576SOL    HW1 1727   2.844   2.860   1.663 -1.7394 -0.6076 -0.6907
  576SOL    HW2 1728   2.934   3.009   1.697  1.9635 -0.3589  1.1179
  577SOL     OW 1729   2.555   1.269   3.056 -0.2497  0.6772  0.2693
  577SOL    HW1 1730   2.527   1.170   3.038  1.8524  0.7128  0.2119
  577SOL    HW2 1731   2.602   1.288   3.152  1.0216  0.6833 -2.2232
  578SOL     OW 1732   1.341   2.718   2.570 -0.5242 -0.4300 -0.2858
  578SOL    HW1 1733   1.261   2.708   2.512 -0.6642  1.5343  0.1969
  578SOL    HW2 1734   1.388   2.810   2.552  0.3556  0.3261 -0.3726
  579SOL     OW 1735   0.135   2.544   0.179 -0.0621 -0.2771  0.3340
  579SOL    HW1 1736   0.103   2.558   0.277  1.1801  0.6791  2.0567
  579SOL    HW2 1737   0.215   2.479   0.173 -0.8439  0.2226  1.4675
  580SOL     OW 1738   1.016   2.662   0.351  0.0482 -0.4157  0.1831
  580SOL    HW1 1739   1.090   2.691   0.284 -0.1378 -0.9693 -0.3241
  580SOL    HW2 1740   0.954   2.592   0.312  1.8549  0.2168  1.2258
  581SOL     OW 1741   1.216   2.603   1.482 -0.8206  0.5759 -0.4904
  581SOL    HW1 1742   1.249   2.517   1.435  2.2068  0.3950  2.4450
  581SOL    HW2 1743   1.238   2.692   1.435  0.4140 -2.4969 -1.4799
  582SOL     OW 1744   1.488   0.044   1.875 -0.2546 -0.0222 -0.4335
  582SOL    HW1 1745   1.477   0.129   1.923 -0.3361 -1.4894  0.6032
  582SOL    HW2 1746   1.573   0.041   1.819 -0.0774 -0.3464  0.9404
  583SOL     OW 1747   2.435   2.994   0.603  0.2080 -0.0882  0.1026
  583SOL    HW1 1748   2.501   2.955   0.534 -3.0138 -1.4880 -1.5933
  583SOL    HW2 1749   2.378   2.918   0.642 -0.9247 -0.9546  0.1758
  584SOL     OW 1750   1.536   0.964   2.108  0.6034  0.6127  0.1469
  584SOL    HW1 1751   1.593   1.021   2.041 -0.3840 -0.6488  0.8310
  584SOL    HW2 1752   1.587   0.933   2.194 -1.4531 -0.5073  0.1311
  585SOL     OW 1753   2.135   2.641   2.923 -0.7259  0.3719  0.0295
  585SOL    HW1 1754   2.143   2.548   2.881  0.0154  0.3230 -0.3044
  585SOL    HW2 1755   2.047   2.684   2.901  1.0748 -1.9440  2.4004
  586SOL     OW 1756   2.782   0.227   1.586 -0.5839 -0.3559  0.0355
  586SOL    HW1 1757   2.802   0.289   1.661 -0.0380 -0.0047 -0.2689
  586SOL    HW2 1758   2.685   0.184   1.582 -2.1232 -2.6143 -1.0285
  587SOL     OW 1759   2.007   1.615   2.732  0.1298  0.2389  0.1762
  587SOL    HW1 1760   2.070   1.556   2.668  0.2682 -0.8233 -1.1316
  587SOL    HW2 1761   2.038   1.638   2.824  1.4494 -0.8200 -1.9415
  588SOL     OW 1762   0.490   2.721   2.219 -0.4284  0.4089  0.0622
  588SOL    HW1 1763   0.423   2.736   2.137 -2.9540 -2.4060  0.3480
  588SOL    HW2 1764   0.466   2.637   2.274 -0.0141  1.7580  0.7003
  589SOL     OW 1765   2.147   1.476   2.535 -0.0089  0.7857 -0.0179
  589SOL    HW1 1766   2.077   1.427   2.478  0.0710 -1.0922  0.4007
  589SOL    HW2 1767   2.239   1.434   2.540 -1.7257  2.1170 -1.0061
  590SOL     OW 1768   2.340   1.713   1.986 -0.5598 -0.1138  0.1848
  590SOL    HW1 1769   2.403   1.637   2.003 -1.7238  1.2222 -2.3814
  590SOL    HW2 1770   2.340   1.787   2.059  0.0308 -1.7687  0.0876
  591SOL     OW 1771   1.331   2.484   0.325 -0.2507 -0.4071 -0.0283
  591SOL    HW1 1772   1.420   2.453   0.281  0.2364 -0.2032  1.7214
  591SOL    HW2 1773   1.325   2.442   0.419 -0.2792  0.8803 -0.5871
  592SOL     OW 1774   1.690   2.335   0.782  0.4272  0.6988  0.0631
  592SOL    HW1 1775   1.670   2.389   0.690 -0.8275 -3.1426  1.5184
  592SOL    HW2 1776   1.791   2.319   0.806  1.5512  0.3058 -1.3764
  593SOL     OW 1777   0.556   0.189   3.037  0.5145 -0.0095  0.4078
  593SOL    HW1 1778   0.657   0.175   3.020 -1.9643 -3.5377 -0.1951
  593SOL    HW2 1779   0.543   0.260   3.106  2.7108 -1.8392  0.4468
  594SOL     OW 1780   0.895   1.948   2.692  0.4963  0.5067 -0.3495
  594SOL    HW1 1781   0.973   2.007   2.730 -1.6243  1.8910  1.1059
  594SOL    HW2 1782   0.805   1.992   2.714 -0.9136 -0.9432  1.0559
  595SOL     OW 1783   1.555   0.042   1.067  0.2173  0.1902 -0.4229
  595SOL    HW1 1784   1.648  -0.006   1.076 -0.1686 -0.3032  4.1699
  595SOL    HW2 1785   1.504   0.014   0.980 -0.0824 -1.7608  2.0064
  596SOL     OW 1786   3.083   1.457   2.217  0.0765 -0.7516  0.2702
  596SOL    HW1 1787   2.988   1.509   2.224 -1.8816  1.0979  3.7110
  596SOL    HW2 1788   3.117   1.410   2.299 -4.4107 -0.5683 -0.9329
  597SOL     OW 1789   2.110   2.619   1.621  0.0701 -0.0767  0.2660
  597SOL    HW1 1790   2.123   2.527   1.581 -0.4236 -0.9722 -3.3982
  597SOL    HW2 1791   2.183   2.630   1.690  0.7503 -0.4792 -2.2581
  598SOL     OW 1792   2.545   2.897   1.200 -0.4626 -0.1027  0.0310
  598SOL    HW1 1793   2.616   2.942   1.266  0.4215 -2.4565  2.5376
  598SOL    HW2 1794   2.582   2.893   1.102 -2.2457 -0.9521 -0.0693
  599SOL     OW 1795   2.925   0.341   2.411 -0.4806 -0.4338  0.5746
  599SOL    HW1 1796   3.003   0.330   2.349 -1.6246  0.6372  0.4013
  599SOL    HW2 1797   2.858   0.416   2.389  0.4918  0.4541  2.4207
  600SOL     OW 1798   2.837   1.037   2.720  0.1265 -0.1120 -0.6401
  600SOL    HW1 1799   2.801   0.957   2.779  0.4207 -0.9171 -0.3095
  600SOL    HW2 1800   2.823   1.127   2.772  0.9454  1.9028  0.9086
  601SOL     OW 1801   2.955   1.246   2.050  0.8124  0.3552 -0.0520
  601SOL    HW1 1802   2.924   1.288   1.958  0.9451 -0.5864 -0.8684
  601SOL    HW2 1803   3.009   1.313   2.104 -1.4197 -0.4819 -2.4945
  602SOL     OW 1804   1.544   1.695   2.368  0.0742  0.5845  0.1809
  602SOL    HW1 1805   1.484   1.609   2.384  0.9134 -0.5868  1.9081
  602SOL    HW2 1806   1.652   1.674   2.380  2.8035  0.5109  0.7292
  603SOL     OW 1807   0.670   1.262   2.627 -0.0815  0.0874  0.4025
  603SOL    HW1 1808   0.602   1.250   2.550  0.2169 -0.1852 -1.0015
  603SOL    HW2 1809   0.724   1.174   2.642  1.0417 -4.7706  0.3881
  604SOL     OW 1810   2.405   0.957   0.193  0.2517 -0.2164  0.3293
  604SOL    HW1 1811   2.471   1.019   0.142  1.7014  2.2957 -0.7927
  604SOL    HW2 1812   2.364   0.883   0.131 -0.7343 -0.8053  1.6904
  605SOL     OW 1813   2.659   1.125   1.956  0.6384  0.2806 -0.2460
  605SOL    HW1 1814   2.644   1.042   1.893 -0.3201  1.3268 -0.1513
  605SOL    HW2 1815   2.660   1.099   2.056  0.3651  2.0392 -2.1015
  606SOL     OW 1816   1.534   2.538   2.576  0.2860  0.2867  0.1611
  606SOL    HW1 1817   1.458   2.605   2.562  1.3321 -1.6162  0.5014
  606SOL    HW2 1818   1.519   2.434   2.553  1.3333 -2.2305  1.7286
  607SOL     OW 1819   1.344   1.536   0.450 -0.1245  0.3662 -0.1463
  607SOL    HW1 1820   1.303   1.504   0.536 -0.8479 -0.4521 -1.0300
  607SOL    HW2 1821   1.359   1.637   0.435 -0.2554 -1.2722 -1.0239
  608SOL     OW 1822   1.411   2.919   0.432 -0.3391  0.1340  0.2811
  608SOL    HW1 1823   1.494   2.947   0.381  0.3519 -0.8564  2.9655
  608SOL    HW2 1824   1.350   2.996   0.456 -0.2008  0.3664  0.1841
  609SOL     OW 1825   1.325   1.351   0.268 -0.4828  0.2144  0.2836
  609SOL    HW1 1826   1.333   1.421   0.342  1.2115 -0.9745 -1.2409
  609SOL    HW2 1827   1.228   1.337   0.228 -1.5310  1.3403 -0.8311
  610SOL     OW 1828   2.974   1.053   2.282 -0.7442 -0.3361  0.6463
  610SOL    HW1 1829   2.949   0.952   2.271 -1.9315  0.5837  0.1471
  610SOL    HW2 1830   2.980   1.111   2.196 -0.6907 -2.0354  2.0275
  611SOL     OW 1831   2.502   0.316   1.227  0.2421 -0.1610 -0.6459
  611SOL    HW1 1832   2.476   0.217   1.212 -0.6348 -0.3186  0.6031
  611SOL    HW2 1833   2.605   0.330   1.239 -0.6995  0.8109 -0.3800
  612SOL     OW 1834   0.753   2.170   1.231  0.0214  0.6183 -0.2413
  612SOL    HW1 1835   0.684   2.093   1.223 -0.4409  2.3102 -0.6775
  612SOL    HW2 1836   0.709   2.263   1.213 -0.8193  3.0382  1.3474
  613SOL     OW 1837   0.882   1.427   2.398 -0.1098 -0.1325 -0.3733
  613SOL    HW1 1838   0.971   1.455   2.352  2.0520  0.8435 -1.7931
  613SOL    HW2 1839   0.822   1.367   2.341 -2.0717  0.9877  1.5237
  614SOL     OW 1840   1.674   1.565   1.822  0.0986  0.4936  0.2664
  614SOL    HW1 1841   1.617   1.649   1.803  0.0159  1.9577  0.6532
  614SOL    HW2 1842   1.720   1.570   1.915 -0.2624 -0.4755 -0.6361
  615SOL     OW 1843   0.763   1.242   1.750  0.0797 -0.2302  0.0123
  615SOL    HW1 1844   0.699   1.211   1.674 -4.4083 -1.4671 -3.0897
  615SOL    HW2 1845   0.803   1.336   1.728  0.3511  1.0120 -0.9559
  616SOL     OW 1846   1.068   1.554   2.212  0.6823  0.1325  0.0921
  616SOL    HW1 1847   0.985   1.545   2.149 -0.5132 -0.5262 -0.6168
  616SOL    HW2 1848   1.086   1.656   2.235 -0.9246  3.6946  0.3432
  617SOL     OW 1849   2.964   1.523   1.626  0.4096  0.2385  0.0554
  617SOL    HW1 1850   2.962   1.422   1.660  2.6959 -0.0696  3.7858
  617SOL    HW2 1851   3.018   1.536   1.537 -0.5589 -0.3744 -1.8752
  618SOL     OW 1852   1.858   2.077   1.378 -0.0169  0.3936 -0.3799
  618SOL    HW1 1853   1.857   2.166   1.330  0.7819  0.7467 -0.1244
  618SOL    HW2 1854   1.842   2.002   1.306  0.3524  0.8717 -0.3100
  619SOL     OW 1855   1.756   0.467   2.382 -0.2997 -0.1121 -0.5482
  619SOL    HW1 1856   1.690   0.529   2.335  2.2868 -3.7793  0.7307
  619SOL    HW2 1857   1.704   0.379   2.402 -1.2486  1.9938  1.5037
  620SOL     OW 1858   2.265   2.839   0.780  0.3170  0.2931  0.3051
  620SOL    HW1 1859   2.170   2.799   0.756 -0.7060 -0.5259 -0.1755
  620SOL    HW2 1860   2.322   2.776   0.836  0.0866  1.1847 -1.4853
  621SOL     OW 1861   2.166   1.891   1.370 -0.1955 -0.3891  0.0594
  621SOL    HW1 1862   2.149   1.918   1.469 -0.8603 -1.0987  0.1940
  621SOL    HW2 1863   2.104   1.812   1.342 -0.1980 -1.5382 -0.3723
  622SOL     OW 1864   2.324   0.954   1.883 -0.3065 -0.6397 -0.0359
  622SOL    HW1 1865   2.428   0.933   1.889  2.3331 -0.7403  0.6623
  622SOL    HW2 1866   2.272   0.868   1.915  1.4768  1.1458  1.5584
  623SOL     OW 1867   1.280   0.827   2.506  0.7479 -0.2049 -0.9947
  623SOL    HW1 1868   1.228   0.739   2.531 -0.2434  0.3338  2.6588
  623SOL    HW2 1869   1.253   0.884   2.426 -2.5426 -0.0857  1.2544
  624SOL     OW 1870   0.481   0.655   3.056  0.4583  0.1534  0.2636
  624SOL    HW1 1871   0.547   0.688   2.983 -2.5669  1.3243  0.3640
  624SOL    HW2 1872   0.478   0.723   3.135  1.5383 -1.8768 -0.4142
  625SOL     OW 1873   2.773   1.707   1.031  0.2615 -0.1389  0.5919
  625SOL    HW1 1874   2.689   1.770   1.015  0.5853 -0.3991 -1.6084
  625SOL    HW2 1875   2.858   1.758   1.066  0.5443 -1.3711  1.3791
  626SOL     OW 1876   0.654   2.672   1.743  0.0253 -0.0646 -0.0612
  626SOL    HW1 1877   0.706   2.722   1.817 -0.4982  0.5492 -0.9029
  626SOL    HW2 1878   0.552   2.691   1.754  1.9572 -2.3450  1.8982
  627SOL     OW 1879   0.666   0.838   1.629 -0.3169  0.2081 -0.3883
  627SOL    HW1 1880   0.578   0.794   1.597  0.6425  0.2126  0.3276
  627SOL    HW2 1881   0.704   0.912   1.562  2.6757  1.9107 -2.6187
  628SOL     OW 1882   2.405   0.147   0.709  0.2127  0.4009  0.0796
  628SOL    HW1 1883   2.437   0.052   0.673  2.0022 -1.3234 -0.0337
  628SOL    HW2 1884   2.300   0.151   0.720  0.3870  2.1833 -1.4251
  629SOL     OW 1885   1.910   0.938   1.975 -0.0362  0.0416 -0.0220
  629SOL    HW1 1886   1.911   1.027   1.916  1.0110  0.6515  0.7151
  629SOL    HW2 1887   1.925   0.949   2.078 -1.5041 -0.4113 -1.1768
  630SOL     OW 1888   2.898   2.245   0.797 -0.0368  0.5610 -0.4134
  630SOL    HW1 1889   2.831   2.325   0.800 -0.3451 -0.6535 -2.2133
  630SOL    HW2 1890   2.845   2.158   0.786 -0.2816  0.2683 -0.0662
  631SOL     OW 1891   0.025   0.140   2.102  0.1610 -0.1294  0.9457
  631SOL    HW1 1892   0.086   0.202   2.158  0.0832 -1.2506  0.7127
  631SOL    HW2 1893   0.062   0.125   2.004  2.6903  0.6491 -1.4168
  632SOL     OW 1894   2.442   2.559   0.595  0.2670 -0.5056 -0.2929
  632SOL    HW1 1895   2.491   2.630   0.653  0.3252  0.0352 -4.1320
  632SOL    HW2 1896   2.421   2.595   0.499 -0.2381  0.9605 -2.0191
  633SOL     OW 1897   1.460   1.218   2.691 -0.2612 -0.8557  0.3268
  633SOL    HW1 1898   1.450   1.311   2.735 -1.7987 -1.6477 -0.8838
  633SOL    HW2 1899   1.407   1.225   2.599 -0.5129 -1.4360 -2.6362
  634SOL     OW 1900   0.672   2.067   0.853  0.1255 -0.1854  0.2053
  634SOL    HW1 1901   0.582   2.082   0.906 -1.5419 -0.2323  0.4082
  634SOL    HW2 1902   0.762   2.098   0.900  1.7347  0.8891 -0.0817
  635SOL     OW 1903   3.066   2.379   3.096 -0.0985  0.2704  0.0399
  635SOL    HW1 1904   2.981   2.429   3.065 -2.3804 -1.3589 -0.6166
  635SOL    HW2 1905   3.127   2.432   3.161  0.9267  2.1817 -1.2994
  636SOL     OW 1906   2.387   2.730   2.044  0.0363  1.2052  0.0088
  636SOL    HW1 1907   2.353   2.830   2.022  0.3580  1.4417 -0.2357
  636SOL    HW2 1908   2.338   2.700   2.133 -0.9511  1.1755  2.1710
  637SOL     OW 1909   2.734   0.633   2.005  0.6920  0.2137  0.2816
  637SOL    HW1 1910   2.656   0.647   1.935  1.5500  0.1266 -0.7257
  637SOL    HW2 1911   2.814   0.708   2.001  2.8388  1.6862 -0.9380
  638SOL     OW 1912   2.451   1.875   1.306 -0.5305  0.0046 -0.1494
  638SOL    HW1 1913   2.347   1.871   1.313 -0.5183 -0.0256 -0.2197
  638SOL    HW2 1914   2.499   1.797   1.358 -0.4835 -0.6773 -1.2622
  639SOL     OW 1915   1.300   2.218   1.655  0.3348  0.0237  0.3649
  639SOL    HW1 1916   1.358   2.307   1.657  1.7332 -2.1192 -1.3755
  639SOL    HW2 1917   1.248   2.200   1.743  0.7355  1.1364  0.7403
  640SOL     OW 1918   0.195   1.205   1.556 -0.2101 -0.1994 -0.2121
  640SOL    HW1 1919   0.167   1.221   1.655 -0.6668  3.1380  0.2369
  640SOL    HW2 1920   0.279   1.148   1.537 -0.2256  1.2898  0.3067
  641SOL     OW 1921   1.958   0.221   1.511 -0.4761  0.1074 -0.1871
  641SOL    HW1 1922   1.911   0.255   1.597  1.9737 -1.7745 -0.6096
  641SOL    HW2 1923   2.055   0.181   1.530  1.8725  1.1647 -0.4764
  642SOL     OW 1924   2.034   0.045   0.336 -0.4554  0.4991  0.4936
  642SOL    HW1 1925   2.138   0.043   0.337 -1.4040 -1.2331  2.1207
  642SOL    HW2 1926   1.993   0.017   0.426  2.1795  0.8271  0.1813
  643SOL     OW 1927   2.898   1.930   2.164  0.0378 -0.8854  0.6770
  643SOL    HW1 1928   2.857   1.836   2.153 -1.1166 -1.2798  1.1537
  643SOL    HW2 1929   2.887   1.990   2.079 -0.5585 -0.1868  0.3129
  644SOL     OW 1930   2.279   2.421   1.237  0.0867 -0.5298  0.3498
  644SOL    HW1 1931   2.340   2.357   1.175 -0.0192  3.0950 -1.4359
  644SOL    HW2 1932   2.276   2.390   1.338  0.8430  0.9080  1.3239
  645SOL     OW 1933   0.667   0.835   1.259 -0.4044 -0.2592 -0.0180
  645SOL    HW1 1934   0.570   0.809   1.286  2.1420 -1.8223  0.0262
  645SOL    HW2 1935   0.679   0.869   1.159 -0.0171  0.1734  0.5825
  646SOL     OW 1936   1.501   1.827   2.044 -0.2880  0.2370  0.0236
  646SOL    HW1 1937   1.577   1.824   1.972 -0.1734  1.3023 -1.2169
  646SOL    HW2 1938   1.532   1.823   2.141 -2.0859 -0.4891  0.4014
  647SOL     OW 1939   0.817   1.125   0.677  0.5129  0.0968  0.7598
  647SOL    HW1 1940   0.896   1.146   0.740 -0.8480  0.4781  0.6722
  647SOL    HW2 1941   0.766   1.041   0.702  1.1384  0.1021 -1.2320
  648SOL     OW 1942   0.188   0.223   0.342  0.0394  0.2749 -0.3163
  648SOL    HW1 1943   0.157   0.139   0.283 -0.9153 -2.2241 -0.2421
  648SOL    HW2 1944   0.172   0.316   0.298 -1.8320  1.2990 -1.0183
  649SOL     OW 1945   2.998   0.266   0.813  0.0866 -0.2337 -1.2708
  649SOL    HW1 1946   3.091   0.268   0.771  0.2273 -0.2080 -0.0823
  649SOL    HW2 1947   2.970   0.358   0.848  1.2134  0.3833  0.0187
  650SOL     OW 1948   2.792   0.674   1.503 -0.3223 -0.6345 -0.2136
  650SOL    HW1 1949   2.683   0.653   1.498 -0.7079 -0.6829 -0.2814
  650SOL    HW2 1950   2.802   0.776   1.524 -2.1641 -0.2829  1.6456
  651SOL     OW 1951   0.867   1.537   1.675 -0.1556  0.1639 -0.0272
  651SOL    HW1 1952   0.913   1.570   1.761 -0.0401 -0.2713 -1.2665
  651SOL    HW2 1953   0.926   1.545   1.589  0.1380 -0.1585 -0.6405
  652SOL     OW 1954   2.374   2.477   2.473  0.0814 -0.1262  0.0295
  652SOL    HW1 1955   2.276   2.512   2.482  0.3008  3.0491  0.7773
  652SOL    HW2 1956   2.420   2.489   2.380  1.8431  0.3249  1.7944
  653SOL     OW 1957   2.715   1.268   0.177  0.6263 -0.0552  0.0621
  653SOL    HW1 1958   2.749   1.354   0.225 -0.1434  0.3011 -0.2641
  653SOL    HW2 1959   2.774   1.184   0.188 -0.3766  1.5278  1.3640
  654SOL     OW 1960   1.265   2.164   1.270  0.5169 -0.4490 -0.0740
  654SOL    HW1 1961   1.269   2.096   1.346 -2.3904  1.3512 -0.0869
  654SOL    HW2 1962   1.287   2.128   1.173 -0.8276  2.2247  1.5125
  655SOL     OW 1963   0.169   0.981   1.926  0.1248 -0.2875 -0.4571
  655SOL    HW1 1964   0.249   0.929   1.892 -0.9149 -2.9889  2.4074
  655SOL    HW2 1965   0.170   1.080   1.901 -1.2018  0.2969 -0.5722
  656SOL     OW 1966   2.589   2.554   2.634 -0.4974 -0.0889 -0.3122
  656SOL    HW1 1967   2.684   2.561   2.593 -1.0906  1.1241  0.8489
  656SOL    HW2 1968   2.516   2.518   2.574 -0.8985 -1.0995  0.2348
  657SOL     OW 1969   3.002   1.057   1.843 -0.1040  0.3255 -0.7928
  657SOL    HW1 1970   2.986   1.121   1.923  1.8807  2.5480 -1.1915
  657SOL    HW2 1971   3.101   1.019   1.845 -1.4135  0.7958  0.4659
  658SOL     OW 1972   1.660   0.192   2.352  0.5560  0.2789 -0.4236
  658SOL    HW1 1973   1.699   0.137   2.426 -1.6367 -0.6892 -0.2178
  658SOL    HW2 1974   1.704   0.164   2.259  1.9301  1.5323 -1.5828
  659SOL     OW 1975   1.414   0.625   2.786  0.5495 -0.4474 -0.8361
  659SOL    HW1 1976   1.464   0.690   2.722 -1.7843 -0.5274 -2.0301
  659SOL    HW2 1977   1.321   0.656   2.820 -2.8154 -1.0739 -1.7019
  660SOL     OW 1978   1.467   0.320   1.418 -0.4009  1.0227  0.0886
  660SOL    HW1 1979   1.459   0.344   1.519  0.5343 -3.6619  0.9257
  660SOL    HW2 1980   1.523   0.234   1.402  0.2410 -1.6928  2.5400
  661SOL     OW 1981   2.433   1.263   0.626 -0.4323  0.3370 -0.4485
  661SOL    HW1 1982   2.466   1.261   0.521  1.9427  0.8881  0.5843
  661SOL    HW2 1983   2.349   1.319   0.641 -0.1577 -1.9078  2.0115
  662SOL     OW 1984   1.462   0.400   1.671  0.3398  0.1827 -0.6649
  662SOL    HW1 1985   1.429   0.354   1.756 -3.5294 -2.1614  0.2284
  662SOL    HW2 1986   1.439   0.502   1.679  0.3831 -0.3913 -1.6953
  663SOL     OW 1987   0.889   1.593   1.977  0.4380 -0.1514  1.3946
  663SOL    HW1 1988   0.844   1.687   1.998 -3.2557  0.7110 -1.8731
  663SOL    HW2 1989   0.829   1.511   2.005  2.5491 -0.0335 -1.3599
  664SOL     OW 1990   1.571   2.106   1.441 -0.0388  0.2327 -0.1123
  664SOL    HW1 1991   1.478   2.071   1.475 -0.8519  0.1503 -0.5170
  664SOL    HW2 1992   1.648   2.045   1.458 -1.0562  1.3594  3.9065
  665SOL     OW 1993   2.247   0.699   1.963 -0.2524  0.3919 -0.3604
  665SOL    HW1 1994   2.205   0.604   1.990 -0.1507 -0.5363 -1.1528
  665SOL    HW2 1995   2.323   0.723   2.030 -0.9788 -1.3912  1.1321
  666SOL     OW 1996   0.476   2.226   0.333  0.3310 -0.1293  0.0270
  666SOL    HW1 1997   0.535   2.287   0.396 -1.0367  0.2332  0.3492
  666SOL    HW2 1998   0.376   2.248   0.351 -1.1431 -3.1197 -0.6887
  667SOL     OW 1999   1.949   0.202   1.064 -0.2546 -0.2150  0.5187
  667SOL    HW1 2000   1.959   0.305   1.071 -3.3555  1.1807  0.7234
  667SOL    HW2 2001   1.903   0.156   1.145  0.6881 -1.9882  0.0238
  668SOL     OW 2002   1.980   0.503   1.096  0.6659 -0.4402  0.7837
  668SOL    HW1 2003   2.052   0.528   1.026 -2.4022  0.9925 -1.2595
  668SOL    HW2 2004   2.006   0.505   1.200 -1.7986  0.6939 -0.1954
  669SOL     OW 2005   3.029   2.163   1.049 -0.0275  0.3113 -0.0361
  669SOL    HW1 2006   2.975   2.199   0.965 -0.1018  0.3640  0.5520
  669SOL    HW2 2007   3.037   2.239   1.122 -0.5492  1.0036  3.0894
  670SOL     OW 2008   2.917   2.302   2.084 -0.1174 -0.2398 -0.1549
  670SOL    HW1 2009   2.843   2.307   2.155  1.6130 -2.3131 -0.5616
  670SOL    HW2 2010   2.939   2.397   2.059 -0.1833 -1.4087 -1.1473
  671SOL     OW 2011   1.809   1.751   1.506  0.2570  0.5119  0.4092
  671SOL    HW1 2012   1.754   1.812   1.441  0.2650 -0.5336  1.1225
  671SOL    HW2 2013   1.772   1.654   1.524 -0.0485  0.0726 -1.9647
  672SOL     OW 2014   0.460   0.648   2.577  0.2369  0.3943 -0.2152
  672SOL    HW1 2015   0.410   0.709   2.516  1.7360 -2.7924  1.2414
  672SOL    HW2 2016   0.428   0.654   2.677 -0.2651 -0.3309  1.0577
  673SOL     OW 2017   0.102   1.362   1.064 -0.3872 -0.4496  0.4416
  673SOL    HW1 2018   0.123   1.405   1.158 -1.9629 -0.9129  0.2679
  673SOL    HW2 2019   0.181   1.371   0.996 -0.3736 -0.6405 -0.9374
  674SOL     OW 2020   1.631   2.970   0.277  0.2899 -0.1134  0.1651
  674SOL    HW1 2021   1.634   3.019   0.185  1.4566 -0.9726  1.0027
  674SOL    HW2 2022   1.625   2.871   0.260  1.9729  0.4862  0.4496
  675SOL     OW 2023   1.695   0.844   2.345  0.2612 -0.2172  0.0946
  675SOL    HW1 2024   1.798   0.846   2.328 -0.4942 -1.1100  0.2146
  675SOL    HW2 2025   1.655   0.751   2.318 -0.4922 -2.2766  0.3973
  676SOL     OW 2026   2.558   1.528   1.979  0.1984 -0.1512 -0.2887
  676SOL    HW1 2027   2.542   1.460   1.900 -0.2483 -2.9957 -2.1644
  676SOL    HW2 2028   2.563   1.474   2.071 -0.0092 -1.4773 -2.5460
  677SOL     OW 2029   1.869   0.692   0.892 -0.2273  0.0217  0.4763
  677SOL    HW1 2030   1.767   0.701   0.921 -0.5014  3.4939  3.0393
  677SOL    HW2 2031   1.935   0.651   0.959 -0.0100 -3.7356 -1.7258
  678SOL     OW 2032   0.090   0.760   1.633  0.6234  0.2577  0.0571
  678SOL    HW1 2033   0.184   0.780   1.672  0.9329 -3.4536  0.8541
  678SOL    HW2 2034   0.027   0.716   1.700  1.3439  0.9560 -1.3800
  679SOL     OW 2035   2.596   1.134   1.172  0.6598 -0.0192 -0.3022
  679SOL    HW1 2036   2.495   1.168   1.177  0.4943  1.7784 -0.9359
  679SOL    HW2 2037   2.599   1.032   1.171 -1.2342  0.3737  0.4798
  680SOL     OW 2038   2.868   0.464   1.696 -0.2620  0.2277 -0.0155
  680SOL    HW1 2039   2.848   0.545   1.635  0.4039 -0.7139  0.2064
  680SOL    HW2 2040   2.948   0.487   1.761  2.6079 -2.3847  0.4350
  681SOL     OW 2041   3.001   0.058   1.602 -0.0439  0.5244  0.2954
  681SOL    HW1 2042   3.063   0.067   1.519  1.1122 -0.7728 -0.3875
  681SOL    HW2 2043   2.925   0.124   1.590  1.7027  3.6679  2.6680
  682SOL     OW 2044   0.654   0.056   1.325  0.4178 -0.0667  0.3526
  682SOL    HW1 2045   0.576  -0.010   1.359  0.3980 -1.0850 -2.9155
  682SOL    HW2 2046   0.716   0.006   1.258  1.7316  1.1487 -0.1758
  683SOL     OW 2047   1.384   0.210   2.136 -0.3280 -0.1144  0.4883
  683SOL    HW1 2048   1.370   0.256   2.226  3.2356 -2.4234  1.2737
  683SOL    HW2 2049   1.474   0.240   2.086 -0.3198 -2.9641  0.6465
  684SOL     OW 2050   1.443   2.147   0.563  0.4794 -0.3272 -0.4655
  684SOL    HW1 2051   1.501   2.082   0.617 -0.3353 -2.1501  0.6857
  684SOL    HW2 2052   1.348   2.109   0.538  0.5068 -0.0914 -0.1179
  685SOL     OW 2053   2.247   2.076   1.963 -0.0645 -0.6802 -0.3828
  685SOL    HW1 2054   2.299   2.075   1.873 -3.0800  2.9005 -0.9081
  685SOL    HW2 2055   2.299   2.036   2.043  0.4817 -1.2648  0.8819
  686SOL     OW 2056   1.504   1.865   2.913 -0.5959 -0.6748 -0.4783
  686SOL    HW1 2057   1.528   1.816   3.003 -1.9997  2.0800  0.4428
  686SOL    HW2 2058   1.405   1.846   2.882 -2.0707 -1.0022  0.1571
  687SOL     OW 2059   1.313   2.412   1.973 -0.6383  0.2807  0.4028
  687SOL    HW1 2060   1.360   2.321   1.970 -1.3255 -1.3380  0.6948
  687SOL    HW2 2061   1.318   2.460   2.064 -1.2684  0.8766 -2.0724
  688SOL     OW 2062   2.076   1.506   1.741 -0.0675 -0.1528  0.6036
  688SOL    HW1 2063   2.166   1.550   1.708  0.2949  0.6040 -0.3032
  688SOL    HW2 2064   2.028   1.458   1.662 -0.9033 -2.0217  0.5584
  689SOL     OW 2065   2.404   1.143   2.749  0.0719 -0.1135 -0.1738
  689SOL    HW1 2066   2.309   1.101   2.754 -1.5842 -0.4703  0.4372
  689SOL    HW2 2067   2.464   1.087   2.812 -0.4152 -0.5730  0.5802
  690SOL     OW 2068   2.222   2.794   0.047  0.0532  0.4084 -0.1805
  690SOL    HW1 2069   2.165   2.744  -0.030 -0.7686 -0.0973 -1.0287
  690SOL    HW2 2070   2.156   2.830   0.115  4.4571  0.0068  0.8919
  691SOL     OW 2071   2.573   0.440   2.106 -0.1672 -0.4109 -0.1491
  691SOL    HW1 2072   2.602   0.342   2.084 -1.2572  0.4844 -0.3161
  691SOL    HW2 2073   2.639   0.511   2.065 -0.2634  0.7283  0.9285
  692SOL     OW 2074   2.640   1.202   0.774  0.1935 -0.3804  0.4734
  692SOL    HW1 2075   2.563   1.236   0.709  0.5237 -0.9162  1.8043
  692SOL    HW2 2076   2.686   1.280   0.826  0.1625 -0.5134  0.1862
  693SOL     OW 2077   2.832   2.952   0.639  0.1208  0.1495 -0.2484
  693SOL    HW1 2078   2.796   3.013   0.712  0.6950 -0.8620 -1.8576
  693SOL    HW2 2079   2.830   2.987   0.542 -0.7348 -1.6187  0.3188
  694SOL     OW 2080   2.418   2.198   0.163  0.4302 -0.1328 -0.1605
  694SOL    HW1 2081   2.411   2.297   0.176 -0.9212 -1.5408  1.0673
  694SOL    HW2 2082   2.333   2.161   0.124  2.0036  1.0770  3.0716
  695SOL     OW 2083   0.478   2.965   1.439 -0.8126 -0.4851 -0.3291
  695SOL    HW1 2084   0.418   2.901   1.377 -0.8412 -1.3281  0.8891
  695SOL    HW2 2085   0.429   3.006   1.524 -0.5569  2.2171 -1.4053
  696SOL     OW 2086   2.793   1.973   0.749  0.5457  0.1602  0.4316
  696SOL    HW1 2087   2.839   1.885   0.772 -0.8484 -1.5505 -1.4796
  696SOL    HW2 2088   2.819   2.015   0.657 -0.9187  1.1039  1.8613
  697SOL     OW 2089   1.670   1.864   1.828  0.0781  0.1255  0.2119
  697SOL    HW1 2090   1.767   1.824   1.826 -0.2130 -0.4692  1.5185
  697SOL    HW2 2091   1.669   1.968   1.827 -0.4519  2.5884 -0.3462
  698SOL     OW 2092   2.877   0.432   2.705 -0.1622 -0.1930  0.6346
  698SOL    HW1 2093   2.922   0.420   2.612  0.9610 -2.1845  2.5005
  698SOL    HW2 2094   2.936   0.386   2.776 -2.2191  1.2748 -0.7836
  699SOL     OW 2095   1.569   0.072   2.926 -0.0639  0.0554 -0.1715
  699SOL    HW1 2096   1.508   0.010   2.871  1.5843 -1.5405  0.6708
  699SOL    HW2 2097   1.620   0.139   2.866  1.4058 -3.3554  0.8364
  700SOL     OW 2098   0.989   2.251   1.372 -0.2709 -0.0183 -0.0986
  700SOL    HW1 2099   1.080   2.198   1.363  1.1808 -1.5821 -3.0290
  700SOL    HW2 2100   0.916   2.193   1.324  2.2294 -2.4405  0.7280
  701SOL     OW 2101   1.902   2.866   0.048  0.0069  0.6552  0.1966
  701SOL    HW1 2102   1.873   2.816   0.129 -1.6788 -2.1808 -2.1892
  701SOL    HW2 2103   1.939   2.959   0.067  1.0338  2.5734 -0.9968
  702SOL     OW 2104   2.089   1.358   1.957 -0.0765  0.2598 -0.1302
  702SOL    HW1 2105   2.178   1.307   1.983 -1.4610  0.3072 -0.2986
  702SOL    HW2 2106   2.098   1.407   1.865 -1.0378  0.6199  1.4273
  703SOL     OW 2107   1.915   0.912   1.528 -0.1145 -0.0558 -0.1614
  703SOL    HW1 2108   1.914   0.807   1.526 -2.5601  0.7017  0.8101
  703SOL    HW2 2109   1.968   0.952   1.604  0.8914 -0.5234 -2.3677
  704SOL     OW 2110   0.333   2.039   1.694  0.0587 -0.7085  0.1297
  704SOL    HW1 2111   0.371   1.989   1.775 -0.4615  1.6121 -0.3256
  704SOL    HW2 2112   0.388   2.126   1.663 -0.4377  0.8893 -1.2340
  705SOL     OW 2113   2.441   1.472   0.909  0.3604  0.5272 -0.3886
  705SOL    HW1 2114   2.416   1.430   0.816 -0.4585 -2.0986 -1.0443
  705SOL    HW2 2115   2.536   1.442   0.936 -0.2946  0.3854  1.3682
  706SOL     OW 2116   0.646   1.696   1.791  0.2912 -0.0207  0.4917
  706SOL    HW1 2117   0.724   1.709   1.714  1.6443  0.4899 -0.9879
  706SOL    HW2 2118   0.682   1.644   1.872  1.2909  2.3662 -0.4407
  707SOL     OW 2119   2.328   1.214   1.975  0.3006  0.1169 -0.4324
  707SOL    HW1 2120   2.431   1.227   1.983  1.0211  1.3614 -0.5094
  707SOL    HW2 2121   2.300   1.116   1.956 -0.0318  1.1987  1.5588
  708SOL     OW 2122   3.026   0.479   3.076 -0.2359  0.3069 -0.1413
  708SOL    HW1 2123   3.101   0.541   3.043 -1.3743 -1.0584 -0.2451
  708SOL    HW2 2124   2.992   0.418   3.001  0.6392  5.1254  1.0558
  709SOL     OW 2125   1.907   1.863   0.372  0.3443 -0.3778  0.0080
  709SOL    HW1 2126   1.900   1.963   0.404 -1.4723  1.2768  1.5612
  709SOL    HW2 2127   1.859   1.847   0.280  1.3386  0.3965 -1.1044
  710SOL     OW 2128   1.815   1.601   2.468 -0.5457  0.6695  0.2414
  710SOL    HW1 2129   1.872   1.537   2.412  1.6985 -1.6249  0.0388
  710SOL    HW2 2130   1.786   1.567   2.558  0.7855  2.7849  0.0211
  711SOL     OW 2131   2.657   2.923   0.921 -0.6526  0.3103  0.5574
  711SOL    HW1 2132   2.606   3.016   0.927 -1.8986 -1.3485 -0.5168
  711SOL    HW2 2133   2.759   2.928   0.953 -0.9658 -0.5821  0.5838
  712SOL     OW 2134   1.400   2.126   1.987 -0.2746 -0.1329 -0.5131
  712SOL    HW1 2135   1.447   2.042   1.959 -2.7102  2.3488 -0.3533
  712SOL    HW2 2136   1.305   2.132   1.954 -2.2902  1.2364  1.5562
  713SOL     OW 2137   2.769   1.445   2.500  0.1800  0.2784  0.5363
  713SOL    HW1 2138   2.786   1.347   2.517  0.5133  1.5267  0.3805
  713SOL    HW2 2139   2.685   1.479   2.547 -0.1160  2.1124 -0.4735
  714SOL     OW 2140   2.691   0.489   2.363 -0.0726 -0.1146  0.1225
  714SOL    HW1 2141   2.631   0.426   2.412 -1.0811  0.8433  0.0107
  714SOL    HW2 2142   2.680   0.480   2.259  0.4974  1.8236 -3.4369
  715SOL     OW 2143   1.610   2.194   1.153 -0.3975  0.3769 -0.1100
  715SOL    HW1 2144   1.524   2.234   1.119  2.6875  1.1132  1.8834
  715SOL    HW2 2145   1.594   2.124   1.229  1.6083 -1.4355 -0.5533
  716SOL     OW 2146   1.245   0.114   1.498 -0.1624  0.4092 -0.2939
  716SOL    HW1 2147   1.146   0.150   1.496 -0.5930  2.6125 -1.8997
  716SOL    HW2 2148   1.303   0.184   1.447 -4.6907  2.6493  0.3671
  717SOL     OW 2149   1.130   0.566   1.621 -0.0570 -0.1957 -0.0959
  717SOL    HW1 2150   1.222   0.603   1.650  0.2501  0.7120  0.9417
  717SOL    HW2 2151   1.133   0.504   1.537 -1.8081 -2.6466  0.7952
  718SOL     OW 2152   0.681   0.895   0.943 -0.5263  0.4211 -0.0796
  718SOL    HW1 2153   0.661   0.881   0.841  0.3529 -2.2227  2.1516
  718SOL    HW2 2154   0.664   0.988   0.982  1.7529 -0.0497 -0.1457
  719SOL     OW 2155   0.666   1.737   2.303 -0.6811 -0.0221 -0.4551
  719SOL    HW1 2156   0.754   1.769   2.360  2.1879  1.8516 -0.6407
  719SOL    HW2 2157   0.646   1.638   2.319  2.0718  1.4941  1.6147
  720SOL     OW 2158   2.208   1.152   0.289  0.5615 -0.0114 -0.0151
  720SOL    HW1 2159   2.247   1.067   0.242  1.5442  1.8135  0.4437
  720SOL    HW2 2160   2.172   1.131   0.386 -1.5025 -1.4357  0.3675
  721SOL     OW 2161   2.263   3.010   2.109  1.5270 -0.5109  0.5881
  721SOL    HW1 2162   2.202   3.003   2.021 -2.4301 -0.4520  0.0843
  721SOL    HW2 2163   2.205   3.034   2.192 -0.2084 -3.7057 -2.2089
  722SOL     OW 2164   2.355   1.661   0.515  0.4757 -0.4654 -0.2789
  722SOL    HW1 2165   2.419   1.686   0.439  0.9841 -2.3148 -0.8980
  722SOL    HW2 2166   2.260   1.674   0.481  0.4253 -1.1340 -0.5238
  723SOL     OW 2167   2.632   2.759   1.921  0.1508 -0.4879 -0.5067
  723SOL    HW1 2168   2.685   2.837   1.964  2.0929  0.6205  0.3830
  723SOL    HW2 2169   2.540   2.738   1.963  0.3426 -0.9403  2.1538
  724SOL     OW 2170   0.427   2.504   2.423  0.8439 -0.3639  0.0956
  724SOL    HW1 2171   0.328   2.514   2.395  2.5467 -0.8729  1.4386
  724SOL    HW2 2172   0.442   2.481   2.521 -0.0510  0.6798  1.2590
  725SOL     OW 2173   2.423   2.812   1.525 -0.5127 -0.5156  0.4068
  725SOL    HW1 2174   2.447   2.822   1.421  0.7024  1.4536 -1.8902
  725SOL    HW2 2175   2.449   2.714   1.556 -3.1760 -0.3164 -0.1537
  726SOL     OW 2176   2.516   2.317   0.703 -0.2942  0.1297 -0.1865
  726SOL    HW1 2177   2.480   2.404   0.668 -0.9382 -4.2055  1.7485
  726SOL    HW2 2178   2.476   2.239   0.645 -0.3424 -0.1006 -2.2700
  727SOL     OW 2179   0.118   0.011   0.143  0.3220  0.2655  0.5264
  727SOL    HW1 2180   0.211   0.026   0.101 -1.8467 -2.8513  1.3529
  727SOL    HW2 2181   0.059  -0.053   0.089 -0.6927  0.9365 -0.7708
  728SOL     OW 2182   2.913   0.705   0.952 -0.4529  0.4170  0.1938
  728SOL    HW1 2183   2.853   0.719   0.868  2.5706  0.0961  0.4367
  728SOL    HW2 2184   2.860   0.665   1.035 -1.5975 -1.4327 -0.3584
  729SOL     OW 2185   0.029   2.512   0.777 -0.1995 -0.5242 -0.2568
  729SOL    HW1 2186   0.090   2.509   0.855 -0.2662  2.8134 -0.5388
  729SOL    HW2 2187   0.068   2.500   0.682 -0.0905  1.8141 -2.0788
  730SOL     OW 2188   2.611   0.669   0.886 -0.0352 -0.0090 -0.0229
  730SOL    HW1 2189   2.577   0.765   0.894 -2.8453 -0.1496  1.4488
  730SOL    HW2 2190   2.659   0.649   0.799 -2.3275 -1.1403  0.4489
  731SOL     OW 2191   3.068   2.189   2.357 -0.1005  0.0375  0.0791
  731SOL    HW1 2192   3.058   2.240   2.448 -0.7168  0.1680  1.2693
  731SOL    HW2 2193   3.007   2.224   2.281  1.1765 -0.1053  0.7548
  732SOL     OW 2194   1.264   2.744   2.006 -0.3848 -0.2228 -0.0917
  732SOL    HW1 2195   1.268   2.680   2.084 -0.6586  0.4780  0.1154
  732SOL    HW2 2196   1.244   2.697   1.917  0.4434  0.1139  1.0830
  733SOL     OW 2197   0.013   0.601   2.280 -0.4336  0.1041  0.1957
  733SOL    HW1 2198   0.094   0.645   2.227  0.0496 -0.2348  0.0502
  733SOL    HW2 2199  -0.032   0.520   2.233 -0.3916 -2.0356  1.1044
  734SOL     OW 2200   1.459   0.375   2.678 -0.2175  0.1630 -0.2898
  734SOL    HW1 2201   1.464   0.470   2.727  1.7681 -1.1418  2.5467
  734SOL    HW2 2202   1.392   0.310   2.728  2.2733 -0.8873  0.6232
  735SOL     OW 2203   2.891   2.652   2.287 -1.2279 -0.2378  0.0071
  735SOL    HW1 2204   2.870   2.641   2.189  0.4625 -1.3931  2.2811
  735SOL    HW2 2205   2.990   2.676   2.295 -0.1672  1.8214  0.5536
  736SOL     OW 2206   0.898   0.405   2.516  0.4030  0.3312 -0.5176
  736SOL    HW1 2207   0.800   0.440   2.526 -2.7096 -2.2887 -0.9178
  736SOL    HW2 2208   0.895   0.331   2.444 -0.7459  0.4192  0.7179
  737SOL     OW 2209   2.612   0.418   2.782  0.0110 -0.3157 -0.4291
  737SOL    HW1 2210   2.582   0.386   2.877  3.0106 -1.1471  2.0060
  737SOL    HW2 2211   2.711   0.403   2.765 -2.0075  1.9828  1.0810
  738SOL     OW 2212   1.750   1.253   2.935  0.0506  0.4743 -0.6459
  738SOL    HW1 2213   1.845   1.282   2.908 -0.7333 -3.4561 -0.8588
  738SOL    HW2 2214   1.718   1.166   2.891  0.6464  1.5093  0.0581
  739SOL     OW 2215   1.864   0.686   0.628  0.1093  0.0690  0.2998
  739SOL    HW1 2216   1.895   0.703   0.728 -0.2471 -1.2584 -2.5890
  739SOL    HW2 2217   1.882   0.589   0.599 -0.9150 -1.0632 -1.0798
  740SOL     OW 2218   1.963   1.922   2.354  0.0373 -0.3890  0.3181
  740SOL    HW1 2219   2.031   1.849   2.384 -3.1462  2.3570  1.2368
  740SOL    HW2 2220   1.896   1.880   2.281 -1.7658 -0.6917 -0.1333
  741SOL     OW 2221   2.556   3.086   2.476  0.6990  0.2520 -0.6776
  741SOL    HW1 2222   2.659   3.108   2.461  2.0797  0.4705  2.7400
  741SOL    HW2 2223   2.494   3.149   2.422  0.8187  0.2744  0.5891
  742SOL     OW 2224   2.186   1.433   0.156 -0.0597 -0.3672  0.0656
  742SOL    HW1 2225   2.095   1.469   0.124  3.4065  1.3987  0.8681
  742SOL    HW2 2226   2.191   1.345   0.210 -0.1807 -0.4068 -0.8710
  743SOL     OW 2227   1.833   0.606   2.597 -0.1469 -0.2743  0.2147
  743SOL    HW1 2228   1.798   0.556   2.506 -2.5013 -0.3068  0.1983
  743SOL    HW2 2229   1.769   0.678   2.633  1.7832  1.8058 -2.7736
  744SOL     OW 2230   2.675   2.125   0.072  0.3622 -0.6184 -0.0492
  744SOL    HW1 2231   2.583   2.166   0.108 -0.5193  1.1290 -3.4283
  744SOL    HW2 2232   2.656   2.026   0.049 -3.1186 -0.6327 -0.6335
  745SOL     OW 2233   2.199   2.576   2.226  0.9580  0.3326  0.4306
  745SOL    HW1 2234   2.111   2.582   2.167 -1.7864 -0.8203  1.5232
  745SOL    HW2 2235   2.207   2.650   2.302  3.3029  0.1198  0.0856
  746SOL     OW 2236   0.026   2.622   1.745  0.2118  0.4462  0.1054
  746SOL    HW1 2237   0.112   2.619   1.692  0.3194  0.4680  1.5478
  746SOL    HW2 2238   0.030   2.683   1.829  0.9235  0.6489 -1.2631
  747SOL     OW 2239   0.071   1.795   1.647 -0.1618 -0.2186 -0.1170
  747SOL    HW1 2240  -0.002   1.732   1.620 -0.4014 -2.3621  0.3528
  747SOL    HW2 2241   0.132   1.811   1.570 -1.7223  0.8368  2.3944
  748SOL     OW 2242   1.855   2.737   2.908  0.6149 -0.2477 -0.3748
  748SOL    HW1 2243   1.863   2.787   3.002  2.0362  0.3146  2.1078
  748SOL    HW2 2244   1.761   2.753   2.866 -2.5163 -0.3464 -2.9643
  749SOL     OW 2245   1.374   3.005   0.879  1.2502  0.3583  0.3058
  749SOL    HW1 2246   1.310   3.065   0.819 -1.6395  4.2602 -0.5633
  749SOL    HW2 2247   1.449   2.964   0.825 -1.8828 -0.9316  3.4556
  750SOL     OW 2248   2.238   0.172   1.845  0.4344 -0.2999  0.0015
  750SOL    HW1 2249   2.274   0.216   1.756 -3.5205  0.8009  2.0397
  750SOL    HW2 2250   2.257   0.241   1.919  0.3004  0.4936 -2.7925
  751SOL     OW 2251   0.761   2.119   2.874 -0.2457  0.1527  0.2906
  751SOL    HW1 2252   0.843   2.080   2.921 -0.7292 -1.0862 -2.2897
  751SOL    HW2 2253   0.673   2.094   2.923 -0.7801 -1.8735  1.2475
  752SOL     OW 2254   1.294   0.817   1.187  0.2147  0.5454  0.9347
  752SOL    HW1 2255   1.337   0.904   1.221  1.0309 -0.4292  0.4131
  752SOL    HW2 2256   1.341   0.732   1.227 -1.4690 -2.0275  1.2516
  753SOL     OW 2257   0.957   2.564   1.806 -0.8529 -0.0088  0.1038
  753SOL    HW1 2258   1.060   2.575   1.795 -3.8994 -0.4211 -0.9483
  753SOL    HW2 2259   0.912   2.658   1.814  0.6596 -2.0976 -0.8189
  754SOL     OW 2260   1.156   1.175   3.006 -0.5732  0.3681  0.2764
  754SOL    HW1 2261   1.214   1.102   2.952  0.0386 -0.9095 -0.2009
  754SOL    HW2 2262   1.204   1.266   3.021  0.4329  1.4410  0.4364
  755SOL     OW 2263   1.993   0.448   2.228  0.5675 -0.5085  0.4059
  755SOL    HW1 2264   2.072   0.402   2.275 -2.9596  1.5026  0.1468
  755SOL    HW2 2265   1.905   0.449   2.285 -1.7997  0.0781  2.4444
  756SOL     OW 2266   2.497   1.005   2.990 -0.3195 -0.2389 -0.4321
  756SOL    HW1 2267   2.595   0.974   2.994 -0.5560  3.0431 -0.1833
  756SOL    HW2 2268   2.432   0.923   2.991 -2.0035 -0.5731 -0.1915
  757SOL     OW 2269   0.096   0.398   1.960  0.1017  0.2623  0.0751
  757SOL    HW1 2270   0.159   0.315   1.939  0.1157 -2.7022 -0.8930
  757SOL    HW2 2271   0.020   0.371   2.021  3.2689  1.7540 -2.1194
  758SOL     OW 2272   2.203   0.103   1.508 -0.6060 -0.3346 -0.1064
  758SOL    HW1 2273   2.174   0.009   1.545 -1.1196 -0.2957 -0.3180
  758SOL    HW2 2274   2.185   0.118   1.411  0.8422  2.0121  1.6319
  759SOL     OW 2275   1.688   0.031   0.051  0.6634 -0.4024 -0.2071
  759SOL    HW1 2276   1.638   0.047  -0.040  1.5396 -0.9583 -1.6719
  759SOL    HW2 2277   1.788   0.014   0.035  2.6643  0.8640  2.7907
  760SOL     OW 2278   2.669   2.002   2.811  0.1554  0.0477 -0.1080
  760SOL    HW1 2279   2.570   2.024   2.824  1.5737  0.4974  1.3925
  760SOL    HW2 2280   2.737   2.081   2.819 -0.4731  3.2707 -1.6986
  761SOL     OW 2281   1.948   1.737   1.745  0.1208  0.8050  0.2599
  761SOL    HW1 2282   1.975   1.638   1.765  1.4423  0.4147 -1.2462
  761SOL    HW2 2283   1.890   1.754   1.657  0.2930  0.3450 -0.0034
  762SOL     OW 2284   0.481   2.393   0.955  0.3856  0.1779  0.7005
  762SOL    HW1 2285   0.514   2.409   0.857  1.7873  0.2013  1.8223
  762SOL    HW2 2286   0.562   2.408   1.024  0.5487  3.2195 -0.2120
  763SOL     OW 2287   2.083   1.563   2.993 -0.2628 -0.0589 -0.3156
  763SOL    HW1 2288   2.179   1.525   2.988 -1.7959 -1.0657  0.0368
  763SOL    HW2 2289   2.020   1.523   3.061 -1.4484  2.3188  2.3206
  764SOL     OW 2290   0.690   0.609   0.688 -0.1468  0.4043 -0.3906
  764SOL    HW1 2291   0.603   0.550   0.682 -3.0604 -1.1176 -0.5433
  764SOL    HW2 2292   0.742   0.591   0.773 -0.7275 -1.0921  0.4727
  765SOL     OW 2293   0.811   0.298   0.738 -0.1005 -0.5889  0.8071
  765SOL    HW1 2294   0.827   0.324   0.632 -0.9360  0.3546 -4.5570
  765SOL    HW2 2295   0.805   0.379   0.800  0.4360 -3.0981 -1.8158
  766SOL     OW 2296   2.924   2.141   3.067 -0.3288 -0.3903 -0.2838
  766SOL    HW1 2297   2.827   2.156   3.099  2.7133 -0.7656  0.0657
  766SOL    HW2 2298   2.983   2.226   3.070 -1.2672  0.9739 -0.2657
  767SOL     OW 2299   2.803   1.623   0.616 -0.4146  0.3008  0.0154
  767SOL    HW1 2300   2.706   1.631   0.650 -0.4512  2.7063  0.2043
  767SOL    HW2 2301   2.873   1.674   0.672  1.2640 -1.6703 -0.0357
  768SOL     OW 2302   1.074   0.200   0.208  0.0381 -0.0998  0.4155
  768SOL    HW1 2303   1.064   0.224   0.308 -1.4479  0.2521  0.2467
  768SOL    HW2 2304   1.168   0.172   0.189 -1.8464 -2.6883 -0.2190
  769SOL     OW 2305   1.099   1.811   2.315  0.2753 -0.7916  0.0338
  769SOL    HW1 2306   1.004   1.844   2.339 -0.0134 -0.1089 -0.5861
  769SOL    HW2 2307   1.165   1.807   2.401 -0.9010  1.1158  0.0158
  770SOL     OW 2308   0.150   1.126   2.318  1.0020 -0.0942 -0.4867
  770SOL    HW1 2309   0.146   1.215   2.372 -0.1650 -0.7845 -0.4441
  770SOL    HW2 2310   0.055   1.086   2.305 -0.7690 -1.4590  0.7635
  771SOL     OW 2311   3.057   2.813   1.943  0.1329 -0.3015  0.0036
  771SOL    HW1 2312   3.019   2.847   1.858  1.7939 -1.8100 -1.1828
  771SOL    HW2 2313   3.017   2.853   2.028  3.3256  2.0803  0.0998
  772SOL     OW 2314   2.350   0.260   2.805 -0.3778 -0.0253 -0.1900
  772SOL    HW1 2315   2.420   0.191   2.783 -0.9920  0.9123 -0.3673
  772SOL    HW2 2316   2.350   0.279   2.909 -0.0266 -0.0218  2.3298
  773SOL     OW 2317   0.590   2.092   2.397  0.4623  0.8232 -0.7017
  773SOL    HW1 2318   0.597   2.135   2.309  1.0356  0.1421  0.8476
  773SOL    HW2 2319   0.526   2.013   2.403 -0.8351  1.6521  1.3889
  774SOL     OW 2320   2.107   0.007   2.581 -0.1067 -0.1146  0.4019
  774SOL    HW1 2321   2.101   0.099   2.633  0.8656 -2.4545  0.8318
  774SOL    HW2 2322   2.145  -0.076   2.636 -0.7511 -0.9561  1.4936
  775SOL     OW 2323   2.524   2.965   2.200 -0.9550  0.1557 -0.4208
  775SOL    HW1 2324   2.427   2.996   2.172 -2.6920 -0.5960 -0.4790
  775SOL    HW2 2325   2.551   2.996   2.288 -0.5514 -1.7858 -2.0252
  776SOL     OW 2326   3.091   1.276   0.164 -0.2769  0.2122 -0.1359
  776SOL    HW1 2327   3.035   1.244   0.083  1.3023 -3.2420 -0.5799
  776SOL    HW2 2328   3.052   1.261   0.262  1.0377  0.6580  2.2562
  777SOL     OW 2329   0.384   2.931   0.421  0.4408 -0.3475 -0.1510
  777SOL    HW1 2330   0.283   2.951   0.411 -0.3781  0.9740  0.8994
  777SOL    HW2 2331   0.412   2.851   0.363  0.7025 -2.1583 -0.5477
  778SOL     OW 2332   1.348   2.033   0.230 -0.4453  0.0446 -0.7076
  778SOL    HW1 2333   1.288   2.099   0.283  0.7442  1.0938 -1.0230
  778SOL    HW2 2334   1.366   2.072   0.134 -2.6405  0.7446 -1.2809
  779SOL     OW 2335   0.158   0.807   0.480  0.1994  0.2950  0.2017
  779SOL    HW1 2336   0.091   0.729   0.483  2.9949  2.2287 -1.7724
  779SOL    HW2 2337   0.121   0.893   0.525 -0.3103  3.0419 -1.5225
  780SOL     OW 2338   0.134   0.275   2.317  0.3176 -0.2011  0.2455
  780SOL    HW1 2339   0.125   0.325   2.409  0.7274  3.7183  0.3770
  780SOL    HW2 2340   0.208   0.318   2.254  0.7984 -2.2295 -2.1877
  781SOL     OW 2341   0.724   1.711   1.511  0.0184  0.0625 -0.5709
  781SOL    HW1 2342   0.758   1.625   1.558 -0.3571  1.6048  1.1584
  781SOL    HW2 2343   0.620   1.723   1.509 -0.4182 -0.8659  0.0338
  782SOL     OW 2344   2.558   0.069   0.949 -0.5839  0.6775  0.1129
  782SOL    HW1 2345   2.495   0.111   0.879  0.3726  1.8043 -0.1217
  782SOL    HW2 2346   2.514   0.068   1.042 -0.7108 -1.9588 -0.3011
  783SOL     OW 2347   2.789   0.733   2.495 -0.0199 -0.7685  0.6141
  783SOL    HW1 2348   2.792   0.768   2.592  2.3027  2.7270 -1.5033
  783SOL    HW2 2349   2.752   0.636   2.478  2.5267 -1.0952 -2.0921
  784SOL     OW 2350   1.411   2.169   0.005 -0.0436  0.7941  0.0601
  784SOL    HW1 2351   1.449   2.253   0.060 -2.2536 -0.2944 -0.6671
  784SOL    HW2 2352   1.396   2.187  -0.096 -0.1624 -0.7050 -0.9622
  785SOL     OW 2353   2.064   0.302   0.012 -0.6242  0.3038 -0.0956
  785SOL    HW1 2354   1.999   0.330   0.082  0.7039 -1.8588  0.7971
  785SOL    HW2 2355   2.098   0.386  -0.040  0.7272 -0.9595  1.4024
  786SOL     OW 2356   2.039   2.180   2.222  0.0693 -0.1398 -0.2311
  786SOL    HW1 2357   2.006   2.082   2.238 -1.5268 -2.0676 -1.2511
  786SOL    HW2 2358   2.139   2.184   2.235 -5.3573 -0.3063 -1.0518
  787SOL     OW 2359   1.356   0.571   0.897  0.5021  0.0660  0.1784
  787SOL    HW1 2360   1.286   0.639   0.923 -1.7118 -1.5023 -0.2614
  787SOL    HW2 2361   1.376   0.563   0.801 -0.6465 -0.6326  4.2131
  788SOL     OW 2362   1.214   0.424   0.021  0.1104  0.5358  0.2225
  788SOL    HW1 2363   1.132   0.396  -0.035  2.2892 -2.3563 -1.3317
  788SOL    HW2 2364   1.182   0.486   0.095 -1.6281 -0.5774 -0.4275
  789SOL     OW 2365   2.516   0.114   1.956 -0.3116  0.1373  0.1631
  789SOL    HW1 2366   2.437   0.148   1.911  4.0002  0.2126 -0.2143
  789SOL    HW2 2367   2.547   0.023   1.921 -1.6272 -3.2109 -0.1019
  790SOL     OW 2368   2.625   2.763   0.712  0.3993 -0.2887  0.7297
  790SOL    HW1 2369   2.658   2.815   0.624  1.3718  2.5985 -1.3552
  790SOL    HW2 2370   2.633   2.815   0.802  0.5431 -0.9226 -0.2642
  791SOL     OW 2371   1.933   1.211   0.227 -0.4414  0.5658  0.7315
  791SOL    HW1 2372   1.851   1.181   0.283  0.1484 -3.6427  2.3589
  791SOL    HW2 2373   2.023   1.164   0.247  1.9158 -0.8493  0.6701
  792SOL     OW 2374   0.401   1.726   2.148 -0.3411  0.0368 -0.7337
  792SOL    HW1 2375   0.472   1.695   2.223  1.0384 -2.6320 -0.6549
  792SOL    HW2 2376   0.304   1.741   2.179 -0.7637  2.4053 -0.6293
  793SOL     OW 2377   2.102   1.590   2.109 -0.4143 -0.4443 -0.4936
  793SOL    HW1 2378   2.174   1.659   2.077  0.8770  2.3999  0.1454
  793SOL    HW2 2379   2.105   1.504   2.049  1.0354 -0.8273  0.2907
  794SOL     OW 2380   0.545   1.500   2.280  0.4334 -0.0196  0.5306
  794SOL    HW1 2381   0.511   1.450   2.197  2.8380 -0.2570  0.7857
  794SOL    HW2 2382   0.493   1.475   2.366  1.6489 -0.2366 -1.2336
  795SOL     OW 2383   2.515   2.303   1.824  0.4147  0.5737  0.1744
  795SOL    HW1 2384   2.496   2.319   1.926 -0.6066  0.6611 -0.5371
  795SOL    HW2 2385   2.463   2.216   1.785 -1.6452  0.0397 -1.2860
  796SOL     OW 2386   3.091   1.117   2.634  0.0650 -0.1548  0.4200
  796SOL    HW1 2387   2.998   1.073   2.664 -1.5385  2.6681 -0.7874
  796SOL    HW2 2388   3.152   1.135   2.718  2.7399 -1.5973  0.0893
  797SOL     OW 2389   0.818   0.639   1.396 -0.3204  0.4103 -0.2054
  797SOL    HW1 2390   0.893   0.681   1.452 -2.0779 -0.2979 -0.0879
  797SOL    HW2 2391   0.770   0.708   1.337  0.4684  0.5063  2.0690
  798SOL     OW 2392   1.321   0.421   1.184  0.2367 -0.4983 -0.3565
  798SOL    HW1 2393   1.369   0.392   1.269 -0.3433 -1.9432 -1.0810
  798SOL    HW2 2394   1.374   0.480   1.117  1.4880  1.7089  0.4163
  799SOL     OW 2395   1.984   2.657   1.020 -0.1614  0.1790 -0.1833
  799SOL    HW1 2396   1.898   2.656   1.081 -0.1830  1.8675 -1.5652
  799SOL    HW2 2397   1.960   2.666   0.917 -3.3176 -0.6463 -0.7848
  800SOL     OW 2398   3.068   0.597   1.816  0.4218 -0.5320  0.1613
  800SOL    HW1 2399   3.039   0.672   1.884  2.1014  1.3173 -1.2393
  800SOL    HW2 2400   3.123   0.520   1.859 -1.6839 -0.6707 -1.2159
  801SOL     OW 2401   1.917   2.228   0.129 -0.1189  0.3113  0.4682
  801SOL    HW1 2402   1.854   2.197   0.053 -0.3133  2.8838 -2.4315
  801SOL    HW2 2403   2.001   2.167   0.143  1.1412  1.8766 -1.4090
  802SOL     OW 2404   0.708   0.760   2.582 -0.1440 -0.0799  0.0159
  802SOL    HW1 2405   0.771   0.743   2.498 -0.7882  1.7531  0.8193
  802SOL    HW2 2406   0.617   0.717   2.567 -1.0374  0.9132  0.4966
  803SOL     OW 2407   0.908   0.125   0.908  0.2133  0.1274 -0.4554
  803SOL    HW1 2408   0.984   0.177   0.948 -1.1854 -3.3597 -0.1405
  803SOL    HW2 2409   0.845   0.187   0.851  2.2405  1.1790  1.0253
  804SOL     OW 2410   0.346   3.095   2.122 -0.4221  0.7809  0.5813
  804SOL    HW1 2411   0.354   3.182   2.070  1.7735 -0.7630  0.5253
  804SOL    HW2 2412   0.303   3.020   2.067  0.1754  1.9006  0.3737
  805SOL     OW 2413   2.425   0.238   0.259 -0.4765 -0.3357  0.1273
  805SOL    HW1 2414   2.518   0.267   0.288  1.0449  0.4829 -0.2390
  805SOL    HW2 2415   2.417   0.209   0.156 -0.8000 -0.6780 -3.7775
  806SOL     OW 2416   0.653   2.402   1.698 -0.6186  0.4723 -0.0480
  806SOL    HW1 2417   0.669   2.500   1.732  0.0216  0.4975  1.8095
  806SOL    HW2 2418   0.745   2.365   1.662 -0.6788  0.1782 -2.9376
  807SOL     OW 2419   2.468   0.958   0.464  0.6034  0.5424  0.2310
  807SOL    HW1 2420   2.567   0.938   0.497  2.8250 -2.2215 -2.6290
  807SOL    HW2 2421   2.450   0.961   0.362  1.1536  0.8359  0.2737
  808SOL     OW 2422   0.535   1.986   2.946 -0.2728 -0.2239 -0.6686
  808SOL    HW1 2423   0.510   1.971   3.045 -1.6246  0.3063  1.1111
  808SOL    HW2 2424   0.570   1.898   2.903 -0.9582  1.4708 -0.5892
  809SOL     OW 2425   2.570   1.961   1.953 -0.2618 -0.0814  0.1765
  809SOL    HW1 2426   2.662   1.995   1.972 -2.0261  0.5081 -1.6539
  809SOL    HW2 2427   2.560   1.947   1.850 -0.0849 -1.3071  0.4173
  810SOL     OW 2428   2.026   1.092   0.545 -0.1908  0.1072  0.0225
  810SOL    HW1 2429   2.033   1.020   0.624  0.5721 -1.8378  0.3653
  810SOL    HW2 2430   2.017   1.192   0.580  1.2553 -1.0206 -3.0802
  811SOL     OW 2431   1.313   2.445   1.275  0.2559  0.6469  0.3768
  811SOL    HW1 2432   1.297   2.340   1.288  0.6885 -0.3208 -2.7098
  811SOL    HW2 2433   1.286   2.470   1.179  1.7068  1.7576  0.2236
  812SOL     OW 2434   1.418   0.783   1.940  0.4228 -0.3246 -0.3020
  812SOL    HW1 2435   1.440   0.838   2.026 -0.6165 -1.1237  0.6064
  812SOL    HW2 2436   1.325   0.809   1.905  1.2000  0.6291  0.3623
  813SOL     OW 2437   1.740   2.125   2.437 -0.3742  0.5795 -0.1266
  813SOL    HW1 2438   1.832   2.083   2.420 -0.0220  1.1017 -1.4957
  813SOL    HW2 2439   1.670   2.106   2.355  0.9233 -0.5380 -0.3994
  814SOL     OW 2440   2.841   1.547   2.929  0.0346  0.7065  0.2077
  814SOL    HW1 2441   2.945   1.526   2.938  0.3153  0.6653 -2.1626
  814SOL    HW2 2442   2.822   1.634   2.868 -0.3248 -1.0288 -1.3337
  815SOL     OW 2443   2.249   2.912   2.699 -0.1936  0.1213 -0.6820
  815SOL    HW1 2444   2.222   2.899   2.799  0.0533 -1.1659 -0.9116
  815SOL    HW2 2445   2.347   2.881   2.682  1.1791 -1.4993  2.7507
  816SOL     OW 2446   1.765   0.328   1.672  0.1052 -0.7190 -0.2872
  816SOL    HW1 2447   1.765   0.236   1.717  0.1435 -0.4842 -1.0928
  816SOL    HW2 2448   1.667   0.366   1.659 -3.1855 -0.8651  0.1382
  817SOL     OW 2449   0.473   1.198   2.453 -0.1253  0.1485  0.5747
  817SOL    HW1 2450   0.425   1.291   2.469  0.3739  1.1569 -1.2724
  817SOL    HW2 2451   0.467   1.176   2.350 -2.3022 -1.0172 -1.8643
  818SOL     OW 2452   2.000   0.824   0.467 -0.4550 -0.0483  0.3485
  818SOL    HW1 2453   1.989   0.925   0.476 -1.5889 -2.3742  1.6192
  818SOL    HW2 2454   1.945   0.766   0.537  0.0460  1.4328  1.8155
  819SOL     OW 2455   2.778   2.914   3.029 -0.3987  0.3795 -0.1237
  819SOL    HW1 2456   2.861   2.855   3.010 -0.0718 -1.6307  0.6337
  819SOL    HW2 2457   2.689   2.879   2.983 -2.0234  2.3872  0.5297
  820SOL     OW 2458   1.246   1.126   0.499  0.2025  0.9264  0.2994
  820SOL    HW1 2459   1.244   1.230   0.508  0.3324 -3.0254 -1.2795
  820SOL    HW2 2460   1.220   1.074   0.587 -0.2117 -1.4760 -0.6137
  821SOL     OW 2461   3.084   1.304   0.658 -0.4832 -0.1495  0.0486
  821SOL    HW1 2462   3.047   1.292   0.755  1.7704 -0.3952 -3.0016
  821SOL    HW2 2463   3.171   1.365   0.652  0.0587 -1.4444 -1.2658
  822SOL     OW 2464   2.521   1.784   2.440 -0.2270 -0.6377 -0.1254
  822SOL    HW1 2465   2.505   1.874   2.487  0.7177 -2.3294 -0.4578
  822SOL    HW2 2466   2.471   1.780   2.347 -0.4625 -1.3857  2.0078
  823SOL     OW 2467   2.052   0.885   1.242  0.2196 -0.1899  0.1337
  823SOL    HW1 2468   2.011   0.874   1.337  0.2907 -1.3221 -0.6784
  823SOL    HW2 2469   1.981   0.917   1.171 -1.0893  2.9915  1.0597
  824SOL     OW 2470   0.129   2.011   2.739 -0.0735 -0.0345  0.4338
  824SOL    HW1 2471   0.092   1.930   2.790 -2.0593  0.5279 -1.3508
  824SOL    HW2 2472   0.207   1.980   2.676 -1.9502  2.0254 -1.0138
  825SOL     OW 2473   1.246   1.045   0.223 -0.0732  0.4476 -0.5102
  825SOL    HW1 2474   1.260   1.099   0.309  3.2269 -2.0246 -1.1490
  825SOL    HW2 2475   1.187   1.095   0.156  1.3776 -2.4120 -0.0852
  826SOL     OW 2476   1.952   0.636   1.522  0.2714 -0.1436  0.3219
  826SOL    HW1 2477   2.005   0.585   1.599  0.9868 -4.3104  0.1064
  826SOL    HW2 2478   1.863   0.591   1.489 -1.5119  0.5178 -1.3097
  827SOL     OW 2479   0.719   1.421   0.296 -0.3731  0.3036  0.5412
  827SOL    HW1 2480   0.731   1.361   0.212 -2.2086 -0.4741  0.0739
  827SOL    HW2 2481   0.674   1.368   0.376 -0.5532  2.6013  1.6675
  828SOL     OW 2482   2.553   0.076   1.571  0.0342  0.0287  0.2515
  828SOL    HW1 2483   2.459   0.109   1.548  0.0712 -1.6466  0.6722
  828SOL    HW2 2484   2.567  -0.005   1.635 -0.5425  0.0588  2.8139
  829SOL     OW 2485   2.824   2.485   3.009 -0.1009  0.0785 -1.1601
  829SOL    HW1 2486   2.758   2.412   2.967  0.1640 -3.7540  3.2708
  829SOL    HW2 2487   2.785   2.541   3.088 -2.2256 -2.2411 -0.5957
  830SOL     OW 2488   2.768   0.949   3.037  0.4713 -0.1488 -0.2256
  830SOL    HW1 2489   2.828   1.022   3.080  0.8673  2.4048  0.5095
  830SOL    HW2 2490   2.769   0.858   3.086  0.2726 -2.3940 -0.8460
  831SOL     OW 2491   3.097   0.608   0.359 -0.4408 -0.3733  0.3782
  831SOL    HW1 2492   3.049   0.572   0.448  0.1220  0.2716  4.7722
  831SOL    HW2 2493   3.146   0.535   0.302 -0.5218  1.2760 -0.2712
  832SOL     OW 2494   1.810   0.734   0.010  0.2559  0.0378  0.3070
  832SOL    HW1 2495   1.728   0.796  -0.010  1.6028  1.6705  1.9405
  832SOL    HW2 2496   1.799   0.638  -0.031  0.0290 -2.6578  3.5443
  833SOL     OW 2497   2.443   2.150   0.499 -0.6003  0.1144  0.2859
  833SOL    HW1 2498   2.345   2.129   0.519 -1.2672 -2.7427  1.8396
  833SOL    HW2 2499   2.489   2.064   0.462  1.1529 -0.1252  1.9956
  834SOL     OW 2500   0.111   0.229   0.632  0.4522 -0.3130 -0.5634
  834SOL    HW1 2501   0.182   0.170   0.672  1.2648 -2.6940  1.3496
  834SOL    HW2 2502   0.128   0.228   0.533  2.5084  0.8880  0.6192
  835SOL     OW 2503   2.350   1.530   1.175 -0.5948  0.4258 -0.6043
  835SOL    HW1 2504   2.452   1.544   1.190  2.1860 -0.2951 -0.0795
  835SOL    HW2 2505   2.316   1.528   1.076 -0.4682 -0.6232 -0.3086
  836SOL     OW 2506   1.539   0.801   2.570  0.3228 -0.1206 -0.0855
  836SOL    HW1 2507   1.439   0.801   2.544  0.3238 -0.0841 -0.6263
  836SOL    HW2 2508   1.596   0.845   2.498  0.2659  1.2318  0.7035
  837SOL     OW 2509   1.666   0.096   0.537  0.4812  0.5712 -0.6321
  837SOL    HW1 2510   1.615   0.159   0.602 -0.0724 -3.0454  0.3256
  837SOL    HW2 2511   1.653   0.109   0.437 -0.4620  2.2402 -0.0170
  838SOL     OW 2512   1.224   1.573   2.686 -0.2735  0.4176  0.5680
  838SOL    HW1 2513   1.312   1.524   2.716 -2.5388 -1.9026 -2.0451
  838SOL    HW2 2514   1.141   1.506   2.672  0.7765 -1.4831  0.6265
  839SOL     OW 2515   1.624   0.290   0.972 -0.3587  0.4211  0.4907
  839SOL    HW1 2516   1.658   0.373   1.025  0.3143 -0.4897  0.5458
  839SOL    HW2 2517   1.615   0.200   1.022 -0.0171  2.2533 -1.7161
  840SOL     OW 2518   2.558   2.948   1.736  0.2948  0.3100  0.1149
  840SOL    HW1 2519   2.505   2.896   1.660 -1.5528  0.1008  1.0876
  840SOL    HW2 2520   2.600   2.875   1.799 -1.0612  1.5992 -2.1928
  841SOL     OW 2521   1.583   0.876   3.058  0.6877 -0.5000  0.3599
  841SOL    HW1 2522   1.494   0.843   3.084  0.4581 -0.9798 -0.2990
  841SOL    HW2 2523   1.569   0.927   2.966  1.5309 -3.1881 -0.6806
  842SOL     OW 2524   0.804   1.506   0.881  0.2132 -0.9023 -0.0202
  842SOL    HW1 2525   0.766   1.584   0.943 -2.0004 -1.3216 -0.1722
  842SOL    HW2 2526   0.729   1.433   0.860  0.0307  1.1255 -0.3343
  843SOL     OW 2527   0.139   3.089   1.410 -0.5651  0.7872 -0.1802
  843SOL    HW1 2528   0.165   3.163   1.478 -0.9198 -0.9437  0.9983
  843SOL    HW2 2529   0.101   3.000   1.442  1.9780  0.8825  0.0020
  844SOL     OW 2530   0.795   2.443   0.256  0.1762 -0.1560 -0.1937
  844SOL    HW1 2531   0.743   2.426   0.344 -0.5109  0.8395  0.4902
  844SOL    HW2 2532   0.777   2.534   0.210  1.1531  1.3038  1.3657
  845SOL     OW 2533   1.681   2.857   1.235 -0.0354  0.6641  0.6425
  845SOL    HW1 2534   1.712   2.755   1.225 -1.0696 -1.9339  0.1728
  845SOL    HW2 2535   1.674   2.884   1.336 -0.1751 -1.7956 -1.5237
  846SOL     OW 2536   1.567   2.962   0.703  0.2909 -0.0071 -0.1521
  846SOL    HW1 2537   1.553   3.013   0.612 -2.9155 -1.6256 -2.3289
  846SOL    HW2 2538   1.667   2.957   0.741  1.7515  1.9459 -1.4886
  847SOL     OW 2539   2.109   1.698   0.426 -0.0523  0.1476  0.3011
  847SOL    HW1 2540   2.070   1.599   0.438 -0.7452 -2.9142  1.8088
  847SOL    HW2 2541   2.035   1.767   0.427  4.0097  0.7682 -3.4827
  848SOL     OW 2542   2.414   0.879   2.595  0.4464  0.0176 -0.0368
  848SOL    HW1 2543   2.375   0.969   2.630 -0.9373 -0.2237 -0.2135
  848SOL    HW2 2544   2.348   0.798   2.603  2.8412 -2.9379  3.6228
  849SOL     OW 2545   2.563   0.884   2.366 -0.1887 -0.2339 -0.3029
  849SOL    HW1 2546   2.642   0.823   2.383 -0.1900 -0.2241  0.6929
  849SOL    HW2 2547   2.501   0.888   2.448  2.8272 -0.5803 -2.1873
  850SOL     OW 2548   1.583   0.089   1.337  0.0966 -0.2226  0.7274
  850SOL    HW1 2549   1.570   0.083   1.233  0.3676 -2.2471  2.2561
  850SOL    HW2 2550   1.538   0.009   1.392  0.6941  1.6651 -0.8056
  851SOL     OW 2551   0.475   1.786   0.598 -0.4399  0.7310 -0.5405
  851SOL    HW1 2552   0.492   1.878   0.634 -1.3263 -0.7540 -1.5725
  851SOL    HW2 2553   0.485   1.782   0.495 -1.5447 -4.7489  1.0348
  852SOL     OW 2554   0.846   2.036   1.794 -0.1035 -0.5560  0.3380
  852SOL    HW1 2555   0.848   2.133   1.752  2.4726  1.1588 -0.6625
  852SOL    HW2 2556   0.756   2.021   1.845 -0.1205 -1.1536 -1.2895
  853SOL     OW 2557   2.542   1.562   2.599 -0.4183 -0.2115  0.2030
  853SOL    HW1 2558   2.483   1.488   2.552 -0.3856  2.2128 -0.8275
  853SOL    HW2 2559   2.526   1.656   2.556 -0.6497  0.5710 -0.4429
  854SOL     OW 2560   2.450   1.390   1.783  0.2610 -0.4554 -0.0614
  854SOL    HW1 2561   2.484   1.331   1.702 -2.1277  1.0271 -0.3377
  854SOL    HW2 2562   2.375   1.341   1.841 -1.2199 -0.2093 -0.0111
  855SOL     OW 2563   2.061   2.411   1.077 -0.2509  0.0277  0.3122
  855SOL    HW1 2564   2.031   2.510   1.058 -0.4402  0.3508  0.5105
  855SOL    HW2 2565   2.154   2.408   1.122 -1.3370  1.0761 -0.5012
  856SOL     OW 2566   1.329   1.420   0.931 -0.3253  0.0456  0.3223
  856SOL    HW1 2567   1.395   1.490   0.972  2.3448  0.8710  2.9210
  856SOL    HW2 2568   1.230   1.455   0.934 -1.5219  0.7005 -1.0306
  857SOL     OW 2569  -0.000   2.758   1.048 -0.0349  0.1509 -0.2706
  857SOL    HW1 2570  -0.065   2.716   0.976  0.1158 -2.8910 -1.5188
  857SOL    HW2 2571   0.096   2.754   1.015 -3.3420  2.9360  0.5482
  858SOL     OW 2572   2.374   2.075   1.690 -0.2289  0.3401  0.8894
  858SOL    HW1 2573   2.292   2.020   1.664  3.6386  1.2463 -0.4150
  858SOL    HW2 2574   2.454   2.017   1.696 -2.1747 -1.0091  1.9611
  859SOL     OW 2575   2.385   0.525   1.027 -0.0973  0.2428  0.0598
  859SOL    HW1 2576   2.468   0.579   0.999  0.8178 -0.2133  1.7208
  859SOL    HW2 2577   2.409   0.433   1.061  0.5133 -0.5250  1.0788
  860SOL     OW 2578   1.849   2.826   0.537 -0.6873  0.2889  0.4785
  860SOL    HW1 2579   1.817   2.821   0.436 -1.6575  1.0014 -1.9914
  860SOL    HW2 2580   1.867   2.926   0.568 -0.8113 -0.5834  0.1307
  861SOL     OW 2581   0.950   2.494   2.893  0.3818 -0.0212 -0.2138
  861SOL    HW1 2582   1.021   2.555   2.853 -1.4234 -0.9938 -0.6379
  861SOL    HW2 2583   0.912   2.531   2.983 -1.2407 -2.0022 -0.8118
  862SOL     OW 2584   2.891   2.551   1.647  0.2975  0.1699 -0.2202
  862SOL    HW1 2585   2.983   2.578   1.686 -1.5178  1.8617 -3.7371
  862SOL    HW2 2586   2.837   2.632   1.610  1.2319  1.6487 -0.5434
  863SOL     OW 2587   1.813   2.736   0.293 -0.2846  0.2536 -0.4048
  863SOL    HW1 2588   1.876   2.652   0.297 -1.5878  0.0998  1.4929
  863SOL    HW2 2589   1.719   2.707   0.261  2.6462 -0.9894  0.5383
  864SOL     OW 2590   1.996   1.266   2.837 -0.6939 -0.0740  0.0647
  864SOL    HW1 2591   2.011   1.196   2.764  3.2935  1.3746 -1.3089
  864SOL    HW2 2592   2.058   1.349   2.828  2.6933  1.1099  0.6045
  865SOL     OW 2593   2.168   1.944   0.740  0.2246 -0.1755  0.0141
  865SOL    HW1 2594   2.212   1.869   0.794  0.7982 -0.7574  0.4956
  865SOL    HW2 2595   2.089   1.986   0.791 -0.3177  2.6883 -0.4743
  866SOL     OW 2596   2.922   2.998   1.026 -0.3622 -0.0252 -0.0555
  866SOL    HW1 2597   2.933   3.065   0.946 -1.5546 -1.0029  0.3815
  866SOL    HW2 2598   3.012   2.945   1.044  3.2146 -1.4283  1.4189
  867SOL     OW 2599   0.326   1.421   0.920  0.0801  0.5583 -0.1057
  867SOL    HW1 2600   0.309   1.352   0.837 -2.7836 -3.1878 -1.3176
  867SOL    HW2 2601   0.320   1.522   0.889  4.2664  1.4701 -1.3423
  868SOL     OW 2602   0.761   1.832   2.065 -0.4192 -0.0721  0.5941
  868SOL    HW1 2603   0.721   1.801   2.157 -1.2683  1.3138 -0.1374
  868SOL    HW2 2604   0.704   1.916   2.025  0.6234  1.1900 -0.0097
  869SOL     OW 2605   2.607   1.905   1.684 -0.3835 -0.0362  0.1620
  869SOL    HW1 2606   2.682   1.972   1.662 -2.0136 -0.8457 -2.0404
  869SOL    HW2 2607   2.631   1.803   1.662  2.2244 -2.6831 -2.3965
  870SOL     OW 2608   2.345   2.710   1.246 -0.3320  0.7381  0.3120
  870SOL    HW1 2609   2.371   2.614   1.258  1.9754  0.6511  1.6481
  870SOL    HW2 2610   2.431   2.774   1.227  3.1419  1.6534 -3.4634
  871SOL     OW 2611   3.057   2.237   0.522  0.2252 -0.0675  0.8078
  871SOL    HW1 2612   2.985   2.226   0.598 -1.1170  1.7375 -0.1338
  871SOL    HW2 2613   3.021   2.236   0.426 -0.9258 -3.6799  1.0203
  872SOL     OW 2614   2.101   0.487   1.705 -0.2090 -0.0837 -0.2795
  872SOL    HW1 2615   2.041   0.458   1.788  0.4340 -1.2581 -1.2568
  872SOL    HW2 2616   2.185   0.428   1.690  0.4778 -0.5455  1.3252
  873SOL     OW 2617   1.699   2.115   0.004 -0.0857 -0.0069  0.2074
  873SOL    HW1 2618   1.597   2.094   0.018 -0.5258 -1.5385  0.0457
  873SOL    HW2 2619   1.717   2.177  -0.080  1.7467 -0.8595  1.1495
  874SOL     OW 2620   0.665   2.447   0.745 -0.3000 -0.2672  0.2565
  874SOL    HW1 2621   0.659   2.551   0.769  0.0224 -0.4563 -1.1888
  874SOL    HW2 2622   0.762   2.406   0.748  1.9458 -1.2109  2.6215
  875SOL     OW 2623   2.225   1.490   1.403  0.1502  0.1654  0.1826
  875SOL    HW1 2624   2.277   1.543   1.474  1.5618 -1.0243 -1.3625
  875SOL    HW2 2625   2.262   1.501   1.307  2.1916  1.1348 -1.3539
  876SOL     OW 2626   0.054   2.264   2.620  0.1274  0.1775 -0.1881
  876SOL    HW1 2627   0.077   2.162   2.647  0.0395 -2.7433  2.3933
  876SOL    HW2 2628   0.116   2.325   2.676 -2.5331 -1.3264 -0.3782
  877SOL     OW 2629   2.942   2.682   0.614 -0.0801  0.1899  0.1031
  877SOL    HW1 2630   2.905   2.778   0.631  1.0361  0.6607  2.1962
  877SOL    HW2 2631   3.007   2.661   0.688  1.7380  1.4493 -1.1760
  878SOL     OW 2632   2.825   1.552   2.264  0.0689 -0.7455 -0.8629
  878SOL    HW1 2633   2.768   1.633   2.230  0.3064  0.6774 -0.9237
  878SOL    HW2 2634   2.797   1.522   2.362  0.4903 -0.2527 -0.0550
  879SOL     OW 2635   2.409   0.070   1.205 -0.8292 -0.1295 -0.1138
  879SOL    HW1 2636   2.432  -0.033   1.213 -2.8631  0.4504  1.9260
  879SOL    HW2 2637   2.309   0.076   1.174 -0.7460 -1.9645  1.3932
  880SOL     OW 2638   0.722   0.561   2.268  0.4380  0.1304  0.1093
  880SOL    HW1 2639   0.674   0.493   2.329 -1.2346  1.9884 -1.2558
  880SOL    HW2 2640   0.789   0.512   2.204 -0.9592  0.7118 -0.7721
  881SOL     OW 2641   0.820   0.082   0.401 -0.1775  0.3225  0.1127
  881SOL    HW1 2642   0.863  -0.009   0.427 -0.8711 -1.6953  0.6232
  881SOL    HW2 2643   0.715   0.066   0.386  0.7983 -1.4401 -0.4714
  882SOL     OW 2644   2.723   1.654   1.680 -0.4125  0.6786  0.0895
  882SOL    HW1 2645   2.820   1.630   1.654  1.0712  0.9393 -0.7852
  882SOL    HW2 2646   2.704   1.635   1.781  0.7770 -1.3078 -3.0120
  883SOL     OW 2647   0.797   0.510   0.919  0.4702 -0.0512  0.2687
  883SOL    HW1 2648   0.845   0.601   0.937  0.2743 -1.2677 -0.2579
  883SOL    HW2 2649   0.741   0.477   1.000 -0.8471 -0.8113  0.3612
  884SOL     OW 2650   1.127   1.787   1.136 -0.4615 -0.4643 -0.4945
  884SOL    HW1 2651   1.129   1.691   1.111  0.0643  2.1349 -1.2761
  884SOL    HW2 2652   1.088   1.852   1.060 -2.1429  3.3989  0.3699
  885SOL     OW 2653   2.338   1.876   2.247 -0.7698 -0.9821  0.2533
  885SOL    HW1 2654   2.264   1.802   2.270  0.0892 -2.8017 -0.9685
  885SOL    HW2 2655   2.315   1.974   2.273  0.1711 -1.0042  0.3189
  886SOL     OW 2656   2.594   0.392   1.774  0.2070  0.4534  0.4738
  886SOL    HW1 2657   2.598   0.293   1.808  1.6617 -0.9019  1.9508
  886SOL    HW2 2658   2.685   0.426   1.737  0.9091 -0.0237  3.5928
  887SOL     OW 2659   0.144   2.066   1.268 -0.0545 -0.7479  0.1617
  887SOL    HW1 2660   0.172   1.996   1.199 -0.6627  0.8339 -1.7967
  887SOL    HW2 2661   0.168   2.162   1.246 -0.2960  1.0231  0.0579
  888SOL     OW 2662   0.621   1.216   1.496  0.4148  0.1327 -0.1952
  888SOL    HW1 2663   0.610   1.257   1.399  0.3683 -2.6515 -0.5576
  888SOL    HW2 2664   0.687   1.133   1.498  4.2542 -2.5535  0.2692
  889SOL     OW 2665   0.863   2.454   2.231  0.1347  0.0407 -0.2401
  889SOL    HW1 2666   0.774   2.406   2.253  1.1766  1.2136  0.7033
  889SOL    HW2 2667   0.904   2.426   2.138  1.4718 -0.4635 -1.2694
  890SOL     OW 2668   2.322   2.509   0.227 -0.1738 -0.0609  0.3623
  890SOL    HW1 2669   2.341   2.574   0.152 -1.5739 -0.8746  1.7869
  890SOL    HW2 2670   2.303   2.549   0.319 -0.6024 -0.7577 -4.0365
  891SOL     OW 2671   2.549   1.672   0.709 -0.4761 -0.0526  0.0345
  891SOL    HW1 2672   2.515   1.694   0.804 -1.8994 -0.6857 -1.1629
  891SOL    HW2 2673   2.468   1.650   0.645 -3.5157 -0.2566  2.0638
  892SOL     OW 2674   0.344   0.390   2.213  0.1179 -0.3237  0.1062
  892SOL    HW1 2675   0.347   0.464   2.143 -0.0381  2.2631  1.3744
  892SOL    HW2 2676   0.440   0.359   2.243 -0.2802  1.8384  1.8586
  893SOL     OW 2677   1.702   0.247   2.733 -0.1848  0.1452 -0.3036
  893SOL    HW1 2678   1.772   0.318   2.763 -1.6460 -1.4952 -3.8378
  893SOL    HW2 2679   1.614   0.300   2.714  1.6004  0.3690 -0.3959
  894SOL     OW 2680   2.151   2.104   0.102  0.4161  0.0649 -0.0282
  894SOL    HW1 2681   2.141   2.053   0.013 -0.2509 -0.0708 -0.2615
  894SOL    HW2 2682   2.180   2.048   0.182  0.7641 -0.8124 -0.0620
  895SOL     OW 2683   2.734   1.442   0.960  0.2494  0.0188  0.0929
  895SOL    HW1 2684   2.807   1.372   0.975  2.5325 -0.2099 -0.0480
  895SOL    HW2 2685   2.758   1.541   0.986 -1.0808 -1.2194 -0.1387
  896SOL     OW 2686   1.793   1.855   1.224  0.3415  0.6377 -0.0188
  896SOL    HW1 2687   1.881   1.806   1.245 -0.5601 -2.7465 -1.5159
  896SOL    HW2 2688   1.729   1.798   1.164 -0.7490  0.5106 -2.2305
  897SOL     OW 2689   0.255   0.535   3.006  0.1392  0.1967  0.1960
  897SOL    HW1 2690   0.198   0.605   2.953 -2.1589 -1.5119  0.9869
  897SOL    HW2 2691   0.348   0.565   3.034  1.2259 -0.2740 -3.7209
  898SOL     OW 2692   0.692   2.818   1.077 -0.2980 -0.4362 -0.2137
  898SOL    HW1 2693   0.732   2.910   1.106 -1.1523  0.8814 -0.6321
  898SOL    HW2 2694   0.711   2.736   1.141  1.4481  0.7374  0.4506
  899SOL     OW 2695   2.857   0.949   1.406 -0.4023 -0.2941  0.5626
  899SOL    HW1 2696   2.839   0.935   1.306 -0.1654 -3.6761 -1.2413
  899SOL    HW2 2697   2.955   0.960   1.427 -0.5880  0.1086 -0.5851
  900SOL     OW 2698   1.029   2.428   2.472  0.1538  0.0230 -0.0545
  900SOL    HW1 2699   0.959   2.438   2.392 -0.8045 -0.5056  0.1266
  900SOL    HW2 2700   0.989   2.394   2.568  0.6788  0.1523  2.0972
  901SOL     OW 2701   1.912   2.460   1.413  0.1440 -0.1976 -0.8136
  901SOL    HW1 2702   1.896   2.390   1.339 -1.2032  3.2959 -0.9836
  901SOL    HW2 2703   1.995   2.445   1.465 -3.3076 -0.5429 -0.0398
  902SOL     OW 2704   2.542   1.654   1.479  0.4131 -0.3010 -0.0081
  902SOL    HW1 2705   2.622   1.647   1.546  0.5239 -0.4969  1.0587
  902SOL    HW2 2706   2.561   1.619   1.382  0.7854 -0.6112  0.9389
  903SOL     OW 2707   0.342   2.454   2.007 -0.0056  0.2657 -0.0055
  903SOL    HW1 2708   0.286   2.369   2.032 -1.3398  2.4581  0.9537
  903SOL    HW2 2709   0.317   2.488   1.912 -0.7024  1.4839 -0.8539
  904SOL     OW 2710   2.004   0.761   2.467 -0.2435 -0.0661  0.3830
  904SOL    HW1 2711   1.948   0.679   2.507  0.2092 -0.6333  0.2136
  904SOL    HW2 2712   2.015   0.753   2.364  0.1912 -1.2671  1.8584
  905SOL     OW 2713   2.822   0.080   2.415 -0.3481  0.5177  0.0934
  905SOL    HW1 2714   2.895   0.006   2.441 -0.9016  0.2645 -2.9729
  905SOL    HW2 2715   2.862   0.178   2.408 -0.1305 -0.2064 -1.4559
  906SOL     OW 2716   0.155   1.719   1.891  0.3460 -0.0984  0.0621
  906SOL    HW1 2717   0.111   1.770   1.811 -0.1632 -3.6597  0.6625
  906SOL    HW2 2718   0.259   1.712   1.879 -2.2229 -3.1934 -0.7275
  907SOL     OW 2719   0.245   2.529   0.979  0.3813  0.3572 -0.6429
  907SOL    HW1 2720   0.326   2.471   0.953 -0.2865 -0.3478 -1.9302
  907SOL    HW2 2721   0.251   2.630   0.950  0.9731  1.1093  0.9530
  908SOL     OW 2722   2.827   3.029   0.315  0.1403  0.1029 -0.6218
  908SOL    HW1 2723   2.734   3.007   0.269  1.2967 -1.1383 -0.0161
  908SOL    HW2 2724   2.878   2.939   0.331 -0.9703 -0.2198  0.1848
  909SOL     OW 2725   0.832   1.038   2.653  0.0078  0.3257  0.0281
  909SOL    HW1 2726   0.817   0.935   2.663 -1.6516  0.1458 -1.4036
  909SOL    HW2 2727   0.880   1.061   2.566 -0.7916  1.3520 -0.9467
  910SOL     OW 2728   1.784   1.879   2.138  0.1350  0.4086 -0.2638
  910SOL    HW1 2729   1.848   1.917   2.065 -0.4882 -1.9024  0.0337
  910SOL    HW2 2730   1.722   1.954   2.171 -0.8288 -2.7205  1.8049
  911SOL     OW 2731   1.772   2.968   1.483  0.0182  0.5550 -0.1761
  911SOL    HW1 2732   1.865   2.947   1.443 -0.5217 -0.1892 -2.4586
  911SOL    HW2 2733   1.754   2.900   1.557  1.4622  1.6220 -0.2933
  912SOL     OW 2734   2.854   1.031   0.703 -0.3553 -0.5491 -0.3016
  912SOL    HW1 2735   2.873   1.008   0.806 -2.8204  0.4718  0.8758
  912SOL    HW2 2736   2.784   1.105   0.691  0.1269 -1.8131 -0.2754
  913SOL     OW 2737   2.603   1.286   1.573 -0.4567 -0.0111  0.0290
  913SOL    HW1 2738   2.610   1.190   1.534 -1.5291 -1.6027 -0.3812
  913SOL    HW2 2739   2.626   1.364   1.510 -1.2501  0.9254  0.9793
  914SOL     OW 2740   2.787   0.591   1.150  0.4202 -0.1503 -0.1921
  914SOL    HW1 2741   2.790   0.500   1.200 -1.1714 -2.2368 -0.6563
  914SOL    HW2 2742   2.710   0.649   1.185 -4.3523 -1.1157  1.2291
  915SOL     OW 2743   1.183   0.776   0.930  0.0943  0.2369  0.0504
  915SOL    HW1 2744   1.233   0.808   1.019  0.1492  2.7601  1.3078
  915SOL    HW2 2745   1.085   0.748   0.950  2.9393  0.2926  0.2806
  916SOL     OW 2746   0.607   0.141   0.629 -0.4950  0.2416  0.5402
  916SOL    HW1 2747   0.672   0.202   0.683 -2.2004  0.6630 -0.9558
  916SOL    HW2 2748   0.561   0.191   0.552  1.6815 -2.1035  4.0384
  917SOL     OW 2749   2.901   2.581   2.013 -0.5145 -0.0750  0.1655
  917SOL    HW1 2750   2.815   2.566   1.957 -0.5700 -0.7624 -1.3346
  917SOL    HW2 2751   2.967   2.637   1.961  2.2778 -0.0883 -1.7498
  918SOL     OW 2752   1.005   2.134   3.014 -0.1978 -0.3927 -0.3585
  918SOL    HW1 2753   1.029   2.212   3.082  0.4189  1.7331  0.6978
  918SOL    HW2 2754   1.070   2.128   2.934 -1.1404  0.5329 -2.0847
  919SOL     OW 2755   0.879   1.694   2.768  0.0426  0.5426 -0.1508
  919SOL    HW1 2756   0.907   1.794   2.748  2.4241  1.0370 -2.1250
  919SOL    HW2 2757   0.846   1.640   2.684  0.6357  1.2637 -2.3724
  920SOL     OW 2758   1.293   1.777   2.497 -0.0911 -0.6012 -0.0606
  920SOL    HW1 2759   1.384   1.772   2.446  0.5013  0.1808 -1.3152
  920SOL    HW2 2760   1.261   1.693   2.548  0.7483  1.7932  1.5011
  921SOL     OW 2761   1.133   0.040   2.618 -0.5614 -0.3068  0.0751
  921SOL    HW1 2762   1.109   0.043   2.517  1.6644  4.8285  2.7872
  921SOL    HW2 2763   1.044   0.058   2.671 -1.9836  0.9449  1.1423
  922SOL     OW 2764   2.176   2.416   2.771  0.0610 -0.6244 -0.3396
  922SOL    HW1 2765   2.219   2.323   2.768  0.7580 -0.0645 -0.5205
  922SOL    HW2 2766   2.168   2.462   2.675  0.5568 -2.7651  2.9518
  923SOL     OW 2767   1.286   2.735   0.267  0.0346  0.1268 -0.0110
  923SOL    HW1 2768   1.330   2.809   0.330  0.7328  0.9115 -1.4500
  923SOL    HW2 2769   1.312   2.636   0.296 -0.6269 -0.7461 -1.3373
  924SOL     OW 2770   2.932   1.692   0.130 -0.7167 -0.5575 -0.2686
  924SOL    HW1 2771   2.841   1.664   0.096  1.3335  0.8097  0.3767
  924SOL    HW2 2772   3.007   1.614   0.126 -1.7911 -0.9022  0.5971
  925SOL     OW 2773   0.011   2.865   1.502  0.3030 -0.0966  0.1769
  925SOL    HW1 2774  -0.057   2.882   1.578 -1.8483  0.0589 -4.0700
  925SOL    HW2 2775  -0.037   2.805   1.427  0.5584 -2.6898 -0.2007
  926SOL     OW 2776   1.281   2.808   1.309  0.2737 -0.3739  0.6703
  926SOL    HW1 2777   1.313   2.788   1.212  0.4251 -0.4028 -1.5083
  926SOL    HW2 2778   1.343   2.880   1.349  0.1318  0.6121 -2.0156
  927SOL     OW 2779   0.379   2.662   1.757 -0.1950 -0.2830 -0.5914
  927SOL    HW1 2780   0.354   2.582   1.693 -1.1012 -1.7694  2.3324
  927SOL    HW2 2781   0.313   2.744   1.754  0.1576 -0.0339 -0.7428
  928SOL     OW 2782   1.577   2.069   2.231  0.1123 -0.1492 -0.0588
  928SOL    HW1 2783   1.586   2.150   2.166  0.0353  0.2945 -1.9430
  928SOL    HW2 2784   1.478   2.053   2.251  0.2660  0.6226 -0.5902
  929SOL     OW 2785   2.449   2.479   2.859 -0.3971  0.0676 -0.4725
  929SOL    HW1 2786   2.346   2.468   2.856 -2.3895 -0.5970 -2.1092
  929SOL    HW2 2787   2.483   2.523   2.769  1.9281  0.4062  2.1208
  930SOL     OW 2788   2.185   2.044   1.097  0.0641 -0.1867  0.4280
  930SOL    HW1 2789   2.170   1.993   1.189 -1.2927  0.9860 -0.9495
  930SOL    HW2 2790   2.260   2.112   1.103 -0.2918  1.0842 -0.4564
  931SOL     OW 2791   0.496   1.716   2.619  0.1062  0.2811  0.2588
  931SOL    HW1 2792   0.516   1.728   2.717 -0.5008  1.5521 -1.0108
  931SOL    HW2 2793   0.573   1.667   2.576 -0.5893 -1.9757  1.0222
  932SOL     OW 2794   0.351   0.024   0.027 -0.7054  0.6633 -0.2464
  932SOL    HW1 2795   0.428   0.093   0.002 -0.5412 -0.0529 -2.1063
  932SOL    HW2 2796   0.363  -0.069  -0.024 -3.0803 -2.5499 -0.8643
  933SOL     OW 2797   0.999   0.844   3.039 -0.5555  0.1194 -0.2451
  933SOL    HW1 2798   1.068   0.857   3.115  1.5182 -0.9686 -0.8505
  933SOL    HW2 2799   0.906   0.872   3.066  1.4604  0.4060 -0.4351
  934SOL     OW 2800   0.761   2.927   2.651 -0.6844 -0.6009  0.6303
  934SOL    HW1 2801   0.745   2.887   2.560 -1.4810  1.4685  1.9063
  934SOL    HW2 2802   0.832   2.876   2.716 -0.6178  1.1875  1.4057
  935SOL     OW 2803   0.037   0.537   0.817 -0.2179 -0.4766  0.0383
  935SOL    HW1 2804   0.012   0.513   0.717  0.3365 -1.2839 -3.7124
  935SOL    HW2 2805  -0.039   0.587   0.864  1.1119 -0.9986 -0.0115
  936SOL     OW 2806   1.112   2.856   0.062  0.0101 -0.1459  0.3519
  936SOL    HW1 2807   1.164   2.914  -0.002 -2.7757 -2.6426 -1.7133
  936SOL    HW2 2808   1.180   2.802   0.120  0.7579 -2.7565 -1.8224
  937SOL     OW 2809   1.999   2.617   2.045 -0.3739  0.1644 -0.4067
  937SOL    HW1 2810   1.930   2.666   2.104 -1.9431 -0.1672 -0.6191
  937SOL    HW2 2811   2.004   2.660   1.952 -0.0095 -0.0198  2.1235
  938SOL     OW 2812   2.787   2.080   1.561  0.1208  0.1258 -0.0500
  938SOL    HW1 2813   2.741   2.174   1.552 -0.5338  0.7087 -0.7696
  938SOL    HW2 2814   2.887   2.087   1.597  1.5239 -2.1853  1.3443
  939SOL     OW 2815   2.816   1.163   2.478 -0.8829  0.5411 -0.6099
  939SOL    HW1 2816   2.870   1.125   2.397 -0.8619 -0.0715 -1.4141
  939SOL    HW2 2817   2.820   1.103   2.564 -0.7384  1.3407 -0.3513
  940SOL     OW 2818   1.085   0.454   2.727 -0.3569 -0.0906 -0.3923
  940SOL    HW1 2819   1.159   0.382   2.744  0.6680  2.4432  0.3382
  940SOL    HW2 2820   1.017   0.433   2.652 -4.1433  0.0136 -0.5209
  941SOL     OW 2821   0.051   2.800   2.287 -0.9445 -0.1032  0.2973
  941SOL    HW1 2822   0.094   2.723   2.236 -0.3638 -2.0612  1.7243
  941SOL    HW2 2823   0.130   2.857   2.331  0.0527  1.6904 -0.9742
  942SOL     OW 2824   0.079   0.067   2.515 -0.3251  0.2616  0.0707
  942SOL    HW1 2825   0.123   0.069   2.610 -1.0776 -2.0268  0.4923
  942SOL    HW2 2826   0.101   0.148   2.453 -0.4355  0.6505  1.0104
  943SOL     OW 2827   2.150   1.711   2.351  0.6844  0.5350  0.2626
  943SOL    HW1 2828   2.112   1.683   2.256  0.7311 -0.9314 -0.4207
  943SOL    HW2 2829   2.152   1.638   2.427  0.2678 -2.7410  2.7722
  944SOL     OW 2830   2.155   2.374   1.510  0.3123 -0.2921 -0.1860
  944SOL    HW1 2831   2.247   2.387   1.548 -1.3663  1.6031 -1.1956
  944SOL    HW2 2832   2.099   2.293   1.549  0.1298  2.9729 -0.9280
  945SOL     OW 2833   0.727   1.597   0.072  0.3794  0.0910 -0.0428
  945SOL    HW1 2834   0.635   1.577   0.025  0.2006 -0.5391 -0.8916
  945SOL    HW2 2835   0.733   1.547   0.160  0.0470 -0.2190 -1.4180
  946SOL     OW 2836   0.310   1.023   2.595  0.2703 -0.2663 -0.6378
  946SOL    HW1 2837   0.287   0.967   2.510 -0.6165 -0.9169 -0.8053
  946SOL    HW2 2838   0.370   1.107   2.573  1.5654 -0.3707  2.3284
  947SOL     OW 2839   1.470   0.555   3.056 -0.2476  0.3113  0.4750
  947SOL    HW1 2840   1.455   0.599   2.965 -3.1520  1.7558 -0.0051
  947SOL    HW2 2841   1.384   0.509   3.088 -1.2775 -0.8923  1.5080
  948SOL     OW 2842   1.912   2.960   2.182 -0.4155  0.6087 -0.3387
  948SOL    HW1 2843   1.904   2.919   2.087 -0.4796  0.3704 -1.5964
  948SOL    HW2 2844   1.910   2.884   2.261  1.4281 -0.1902 -0.8064
  949SOL     OW 2845   0.615   2.435   0.474  0.0742 -0.0522  0.1444
  949SOL    HW1 2846   0.622   2.538   0.454  0.4049  4.5666  1.9844
  949SOL    HW2 2847   0.628   2.422   0.576  1.2799  0.9135 -0.2827
  950SOL     OW 2848   0.225   2.190   2.951  0.0137  0.3464 -0.1319
  950SOL    HW1 2849   0.202   2.290   2.933  0.0331 -3.2661  0.3777
  950SOL    HW2 2850   0.199   2.123   2.877  1.6781  0.3547  0.8788
  951SOL     OW 2851   1.182   2.664   2.794  0.1131 -0.1961 -0.5089
  951SOL    HW1 2852   1.248   2.596   2.842  0.8878 -2.4040  1.4628
  951SOL    HW2 2853   1.228   2.719   2.720 -0.6812  1.4380  3.0424
  952SOL     OW 2854   0.120   1.619   0.400  0.2150 -0.7225 -0.3177
  952SOL    HW1 2855   0.163   1.705   0.440  1.4405  1.3415 -2.1922
  952SOL    HW2 2856   0.133   1.543   0.467  0.0875  3.2409 -0.7123
  953SOL     OW 2857   2.530   1.723   0.314 -0.8639  0.3893  0.6925
  953SOL    HW1 2858   2.518   1.619   0.302  1.7961 -1.3010 -1.3452
  953SOL    HW2 2859   2.507   1.778   0.230  3.3216  0.2733  3.0653
  954SOL     OW 2860   2.148   0.571   0.905 -0.8377  0.3077 -0.0123
  954SOL    HW1 2861   2.169   0.553   0.803  1.4860  0.3252  3.0107
  954SOL    HW2 2862   2.240   0.581   0.949 -1.2792  0.9416 -2.7833
  955SOL     OW 2863   0.126   2.536   1.360  0.1748  0.4068 -0.0076
  955SOL    HW1 2864   0.039   2.596   1.369  1.2113  2.1056 -0.0008
  955SOL    HW2 2865   0.201   2.598   1.334 -1.9137  1.2274  0.5045
  956SOL     OW 2866   2.835   2.494   2.514 -0.0869 -0.1517  0.0639
  956SOL    HW1 2867   2.835   2.390   2.495 -1.3652 -0.5684  0.5135
  956SOL    HW2 2868   2.837   2.552   2.428 -0.5332  1.4992  2.9976
  957SOL     OW 2869   1.624   2.047   2.757 -0.4681 -0.3814 -0.1714
  957SOL    HW1 2870   1.589   1.966   2.812  1.3425 -0.8654  0.1502
  957SOL    HW2 2871   1.706   2.031   2.691 -0.8880  0.0039 -0.6927
  958SOL     OW 2872   2.642   2.300   2.902 -0.1959  0.2259 -0.2028
  958SOL    HW1 2873   2.572   2.373   2.880  1.7226 -0.6558 -1.1008
  958SOL    HW2 2874   2.603   2.215   2.949 -2.1639 -1.8669  1.6617
  959SOL     OW 2875   0.355   2.760   0.115  0.3119  0.0240 -0.4711
  959SOL    HW1 2876   0.262   2.773   0.160  2.7106  1.3816 -1.7804
  959SOL    HW2 2877   0.376   2.658   0.101  1.1132 -1.5945 -2.4273
  960SOL     OW 2878   1.959   0.436   1.944 -0.0550 -0.6657 -0.2468
  960SOL    HW1 2879   1.914   0.523   1.912  1.9109 -1.4822  1.6653
  960SOL    HW2 2880   1.968   0.432   2.046 -1.3549  0.1168  1.5686
  961SOL     OW 2881   2.537   1.861   1.012 -0.3120 -0.4071 -0.5061
  961SOL    HW1 2882   2.525   1.933   0.935  1.5053  2.3076 -0.3465
  961SOL    HW2 2883   2.501   1.887   1.103  0.7492  0.5085 -0.3331
  962SOL     OW 2884   1.284   0.831   0.061  0.3938 -0.1473  0.5222
  962SOL    HW1 2885   1.298   0.878  -0.033  0.2812  0.8726 -2.6916
  962SOL    HW2 2886   1.264   0.896   0.136  0.5551  0.3786  0.5779
  963SOL     OW 2887   2.301   2.569   1.833  0.5384 -0.1300 -0.0168
  963SOL    HW1 2888   2.248   2.483   1.853 -1.0227 -0.1320 -0.3648
  963SOL    HW2 2889   2.329   2.620   1.916 -2.9065 -1.6858 -0.7985
  964SOL     OW 2890   2.357   0.321   1.645 -0.3699  0.2328 -0.3945
  964SOL    HW1 2891   2.437   0.370   1.679 -2.0487 -3.4670 -2.9925
  964SOL    HW2 2892   2.345   0.332   1.544 -0.3704  1.1101  0.6111
  965SOL     OW 2893   2.598   2.952   0.158  0.0128 -0.1248  0.3934
  965SOL    HW1 2894   2.680   2.919   0.103 -0.6729 -0.7560  1.5276
  965SOL    HW2 2895   2.514   2.970   0.099  0.8341 -2.7210  0.9409
  966SOL     OW 2896   2.489   2.505   2.211 -0.2177 -0.0411 -0.3592
  966SOL    HW1 2897   2.523   2.576   2.144  3.2215 -0.8911 -0.8771
  966SOL    HW2 2898   2.389   2.480   2.199  1.2470  0.9659  0.3613
  967SOL     OW 2899   2.744   2.836   2.449 -0.2108 -0.1236 -0.6412
  967SOL    HW1 2900   2.768   2.760   2.385  2.8731  0.4966  0.9521
  967SOL    HW2 2901   2.830   2.894   2.468  0.3172 -1.5103  1.8024
  968SOL     OW 2902   1.939   1.040   2.624  0.2195 -0.1992  0.2847
  968SOL    HW1 2903   1.866   1.106   2.589 -0.4231  3.4280  1.3091
  968SOL    HW2 2904   1.951   0.957   2.566  0.4504 -0.8228  0.6372
  969SOL     OW 2905   2.811   2.534   1.079 -0.3827 -0.5406 -0.9755
  969SOL    HW1 2906   2.781   2.506   0.984 -1.2650 -1.6829  0.3079
  969SOL    HW2 2907   2.862   2.459   1.128 -2.0014 -0.0374 -0.9908
  970SOL     OW 2908   1.141   2.164   1.894  0.3934  0.1168  0.2860
  970SOL    HW1 2909   1.092   2.075   1.866  1.5664  0.8920 -2.0731
  970SOL    HW2 2910   1.068   2.230   1.937 -2.1673  3.3123 -1.9671
  971SOL     OW 2911   2.846   2.078   1.926  0.0005 -0.3713 -0.3312
  971SOL    HW1 2912   2.868   2.170   1.966 -0.8455 -3.5240  2.9048
  971SOL    HW2 2913   2.899   2.060   1.839  0.1689  4.2916  0.8106
  972SOL     OW 2914   1.921   2.489   0.247 -0.2838 -0.0896  0.6834
  972SOL    HW1 2915   1.942   2.395   0.206  1.3992 -2.8006 -1.7842
  972SOL    HW2 2916   1.930   2.499   0.353  1.5829  2.1177 -0.1115
  973SOL     OW 2917   1.161   0.874   1.879  0.3144 -0.0836  0.0785
  973SOL    HW1 2918   1.110   0.786   1.901 -0.5472  2.3027 -4.2828
  973SOL    HW2 2919   1.098   0.949   1.840  0.4745  1.5582  1.7044
  974SOL     OW 2920   1.614   0.599   1.996  0.7970  0.0443 -0.3547
  974SOL    HW1 2921   1.706   0.617   1.944  2.1250  0.4831 -1.2221
  974SOL    HW2 2922   1.538   0.666   1.964 -0.8922 -0.9487 -0.0434
  975SOL     OW 2923   2.345   3.001   3.074 -0.2557 -0.1648 -0.3260
  975SOL    HW1 2924   2.280   2.923   3.087 -0.2976  0.5843 -0.3009
  975SOL    HW2 2925   2.419   2.988   3.004  0.4446  0.0931  0.9275
  976SOL     OW 2926   1.905   2.753   2.346  0.3562  0.4711  0.6335
  976SOL    HW1 2927   1.804   2.723   2.339 -1.1805  2.1803  2.3894
  976SOL    HW2 2928   1.936   2.768   2.444  1.1293  1.2723  0.2885
  977SOL     OW 2929   0.469   0.688   1.032  0.0932 -0.3616  0.0236
  977SOL    HW1 2930   0.391   0.669   0.960 -2.3398 -0.5088  0.8244
  977SOL    HW2 2931   0.534   0.767   1.006  1.9074  2.2671 -1.1093
   3.10000   3.10000   3.10000
