1000 SPC/Fw water molecules t=   1.04000 step= 1040
 2931
    1SOL     OW    1   2.578   0.342   2.650 -0.4201  0.3687  0.4147
    1SOL    HW1    2   2.574   0.240   2.654  3.1833  0.4402 -0.9548
    1SOL    HW2    3   2.598   0.386   2.741 -0.2579 -2.8017 -0.2459
    2SOL     OW    4   2.701   3.044   1.418  0.3042 -0.2789 -0.0720
    2SOL    HW1    5   2.786   3.055   1.364 -2.7387  0.4874  0.3193
    2SOL    HW2    6   2.680   3.132   1.468 -0.4233  0.6973 -3.1131
    3SOL     OW    7   2.640   2.631   0.435 -1.1502 -0.3775 -0.0264
    3SOL    HW1    8   2.612   2.535   0.416  1.6598 -1.0959 -0.9933
    3SOL    HW2    9   2.734   2.640   0.478 -0.1555  1.0760  1.6357
    4SOL     OW   10   1.228   1.548   2.307 -0.1772 -0.0959  0.1119
    4SOL    HW1   11   1.159   1.590   2.244  2.0510 -1.1384 -1.4547
    4SOL    HW2   12   1.199   1.454   2.331  1.0650  3.7413  0.7510
    5SOL     OW   13   1.158   1.511   3.066 -0.2411  0.7412 -0.5906
    5SOL    HW1   14   1.198   1.608   3.057 -0.9424 -0.0488  1.2293
    5SOL    HW2   15   1.070   1.514   3.123  0.1907  0.4088  2.6901
    6SOL     OW   16   0.165   1.739   2.987 -0.0561 -0.3757  0.1337
    6SOL    HW1   17   0.093   1.784   3.041 -0.2314 -1.3330  1.9882
    6SOL    HW2   18   0.254   1.711   3.036 -0.2351 -2.9565 -0.6413
    7SOL     OW   19   2.593   0.899   1.085 -0.1018 -0.0543 -0.0275
    7SOL    HW1   20   2.505   0.870   1.130  0.2295 -2.7509 -0.5554
    7SOL    HW2   21   2.593   0.889   0.983  0.6901  2.1274 -1.7581
    8SOL     OW   22   0.401   0.652   1.525  0.3831 -0.4954 -0.2658
    8SOL    HW1   23   0.500   0.624   1.547  0.2662 -1.4678 -1.4886
    8SOL    HW2   24   0.382   0.628   1.426 -1.2322 -0.9136 -1.9824
    9SOL     OW   25   1.188   0.890   2.422  0.0722  0.4753  0.1886
    9SOL    HW1   26   1.230   0.916   2.334 -0.3476  1.3353  0.0960
    9SOL    HW2   27   1.155   0.796   2.413  0.5452  0.2875 -2.1928
   10SOL     OW   28   0.678   1.369   1.303  0.1121 -0.2452  0.1722
   10SOL    HW1   29   0.581   1.376   1.263  0.6040  1.4228  3.5859
   10SOL    HW2   30   0.728   1.464   1.307  0.4086  3.4992 -2.2626
   11SOL     OW   31   2.307   2.795   0.860 -0.1975 -0.5274  1.1012
   11SOL    HW1   32   2.232   2.808   0.935 -0.7436  1.8931 -0.0076
   11SOL    HW2   33   2.404   2.768   0.894 -2.5964 -1.5459  0.9080
   12SOL     OW   34   1.514   0.903   0.345  0.4106 -0.3136  0.1739
   12SOL    HW1   35   1.426   0.958   0.354 -0.9361 -1.8643  3.5261
   12SOL    HW2   36   1.509   0.830   0.274  0.0046  0.2784 -0.2647
   13SOL     OW   37   2.487   0.722   1.774 -0.3510 -0.2007  0.3412
   13SOL    HW1   38   2.408   0.680   1.829 -1.9869  2.2275  0.7680
   13SOL    HW2   39   2.493   0.673   1.678 -0.7876 -4.3950 -0.6701
   14SOL     OW   40   1.868   0.106   0.674 -0.6797 -0.1669  0.1468
   14SOL    HW1   41   1.779   0.112   0.621 -0.2800  1.1310 -1.6767
   14SOL    HW2   42   1.870   0.029   0.745  0.6573 -1.6768 -2.8261
   15SOL     OW   43   1.956   2.101   2.721 -0.3009  0.0022  0.0676
   15SOL    HW1   44   1.878   2.168   2.730  0.1189 -1.6600 -0.4905
   15SOL    HW2   45   1.931   2.013   2.670  2.0289 -0.4975 -0.7177
   16SOL     OW   46   1.622   1.697   2.975  0.4639 -0.3778  0.3507
   16SOL    HW1   47   1.620   1.605   3.023 -0.5065  1.1444 -0.2163
   16SOL    HW2   48   1.701   1.757   3.009 -2.3741 -0.6627 -0.2792
   17SOL     OW   49   0.112   0.469   0.159 -0.6153 -0.5430  0.0282
   17SOL    HW1   50   0.201   0.531   0.143  2.2955  1.0408 -1.1794
   17SOL    HW2   51   0.038   0.495   0.091  0.5759  0.3119  0.3613
   18SOL     OW   52   0.948   2.920   2.157 -0.1670  0.7027  0.2244
   18SOL    HW1   53   0.848   2.890   2.135 -0.2288  2.1371  1.9205
   18SOL    HW2   54   1.020   2.876   2.102  1.1121  2.7288 -1.1451
   19SOL     OW   55   0.549   0.828   1.887 -0.2864 -0.2485 -0.0275
   19SOL    HW1   56   0.569   0.755   1.956  1.8452  0.5561  0.6292
   19SOL    HW2   57   0.640   0.882   1.870 -0.0034 -3.8674 -1.7047
   20SOL     OW   58   0.181   2.764   0.851  0.2285  0.7242  0.8113
   20SOL    HW1   59   0.089   2.814   0.849  0.4206  4.2642  1.8001
   20SOL    HW2   60   0.202   2.702   0.768 -1.4019  1.1754 -0.8536
   21SOL     OW   61   2.716   0.268   2.032 -0.4105 -0.1774 -0.4741
   21SOL    HW1   62   2.645   0.193   2.021  0.0855  2.2232 -0.1361
   21SOL    HW2   63   2.800   0.239   2.083 -1.5473 -0.6983 -1.4115
   22SOL     OW   64   2.349   0.261   0.144 -0.3788 -0.1872 -0.1820
   22SOL    HW1   65   2.376   0.162   0.107 -1.8630 -1.7640 -2.1861
   22SOL    HW2   66   2.270   0.302   0.091 -0.3598  1.1267  1.5768
   23SOL     OW   67   2.786   0.577   0.605  0.1706 -0.2831 -0.3295
   23SOL    HW1   68   2.828   0.480   0.603  0.0160 -0.2052 -0.2159
   23SOL    HW2   69   2.739   0.608   0.513 -1.9572  1.9006  0.2427
   24SOL     OW   70   0.198   1.935   0.394  0.4284  0.6766  0.5145
   24SOL    HW1   71   0.141   1.982   0.309 -2.5867 -0.2282 -2.2125
   24SOL    HW2   72   0.291   1.901   0.359  1.3269  0.9931 -1.0774
   25SOL     OW   73   2.236   0.610   0.235  0.0995  0.1832  0.4497
   25SOL    HW1   74   2.250   0.602   0.129  0.3455 -0.4595 -2.0280
   25SOL    HW2   75   2.293   0.538   0.283 -4.3916 -0.2520  0.2878
   26SOL     OW   76   2.494   2.149   2.066  0.1256  0.1851 -0.1558
   26SOL    HW1   77   2.582   2.207   2.082 -1.8421  0.6175 -0.4419
   26SOL    HW2   78   2.515   2.069   2.000 -2.0772  2.1847  0.7545
   27SOL     OW   79   0.591   2.911   0.207  0.3122  0.1799  0.0947
   27SOL    HW1   80   0.691   2.943   0.190  1.5209  0.9716 -1.0284
   27SOL    HW2   81   0.532   2.959   0.138  0.3957 -0.9186 -1.0713
   28SOL     OW   82   1.566   0.199   0.285  0.4240 -0.3087 -0.0540
   28SOL    HW1   83   1.626   0.170   0.205  3.5535 -0.9623  0.6364
   28SOL    HW2   84   1.593   0.297   0.318 -3.1120  1.4785 -0.5308
   29SOL     OW   85   1.977   0.614   0.355  0.0698 -0.5692 -0.5315
   29SOL    HW1   86   1.972   0.702   0.408  0.6990  0.2290 -1.2561
   29SOL    HW2   87   2.076   0.589   0.324  4.2295  1.2568  1.6274
   30SOL     OW   88   0.161   1.961   0.927 -0.1441  0.4039  0.3884
   30SOL    HW1   89   0.135   1.937   0.830  1.5489 -2.5835  1.0024
   30SOL    HW2   90   0.115   2.048   0.967 -1.5230 -0.9198  0.7812
   31SOL     OW   91   2.136   3.083   2.363  0.1931  0.1269  0.1693
   31SOL    HW1   92   2.159   3.030   2.445  2.1681 -0.3027 -3.2460
   31SOL    HW2   93   2.042   3.058   2.328  0.4485 -0.2703  0.3290
   32SOL     OW   94   2.979   0.021   0.249 -0.2604  0.4648  0.1343
   32SOL    HW1   95   2.951  -0.065   0.197  1.5242 -1.8796 -0.8941
   32SOL    HW2   96   3.075   0.053   0.224 -2.2662 -2.3639 -1.3967
   33SOL     OW   97   0.906   0.323   0.583 -0.1389  0.0324  0.0181
   33SOL    HW1   98   0.878   0.242   0.525 -0.2821 -0.4033  0.1163
   33SOL    HW2   99   1.003   0.350   0.569 -1.6477 -1.3867 -0.3471
   34SOL     OW  100   0.330   2.754   1.085 -0.0769 -0.3225 -0.0767
   34SOL    HW1  101   0.324   2.721   0.988  1.1996  0.0505  0.8043
   34SOL    HW2  102   0.423   2.779   1.111 -1.5562 -0.4304 -3.3934
   35SOL     OW  103   0.026   0.091   1.894 -0.6258  0.5065 -0.2206
   35SOL    HW1  104   0.045  -0.009   1.888  0.9034  0.0460  1.8216
   35SOL    HW2  105  -0.024   0.130   1.813 -2.0347 -2.2737 -0.7529
   36SOL     OW  106   1.931   1.316   1.675 -0.1967  0.0223 -1.0478
   36SOL    HW1  107   1.988   1.226   1.681 -0.2809  0.1757 -0.9103
   36SOL    HW2  108   1.934   1.373   1.589  0.5000  1.5461  1.5655
   37SOL     OW  109   1.185   0.212   0.984 -0.0291 -0.6204 -0.1809
   37SOL    HW1  110   1.247   0.283   1.030  2.1278  1.0600  0.1012
   37SOL    HW2  111   1.234   0.122   0.959  1.1045 -1.8998  0.8944
   38SOL     OW  112   1.127   2.852   2.466  1.0322 -0.3411 -0.4016
   38SOL    HW1  113   1.076   2.782   2.408 -1.4691 -2.3309 -1.1360
   38SOL    HW2  114   1.108   2.953   2.437 -0.9277 -1.4354 -0.2729
   39SOL     OW  115   2.308   1.462   3.059  0.3232 -0.2076 -0.2117
   39SOL    HW1  116   2.384   1.389   3.061 -2.5416 -0.5603  1.5817
   39SOL    HW2  117   2.278   1.489   3.155 -0.5418 -0.6243 -1.0125
   40SOL     OW  118   2.008   2.431   2.556 -0.1690 -0.2998 -0.1288
   40SOL    HW1  119   1.988   2.534   2.565 -1.6873  0.8987  3.6106
   40SOL    HW2  120   1.966   2.380   2.474 -0.6552  0.1013 -0.7619
   41SOL     OW  121   3.031   0.687   2.802  0.1281 -0.4769 -0.2944
   41SOL    HW1  122   2.965   0.764   2.774 -2.5518  3.1301  1.3032
   41SOL    HW2  123   2.994   0.594   2.769 -0.2128 -1.9420 -0.4504
   42SOL     OW  124   1.781   1.791   0.512  0.0104  0.1328 -0.5291
   42SOL    HW1  125   1.734   1.701   0.506 -1.9614 -0.4405 -0.5892
   42SOL    HW2  126   1.798   1.821   0.418 -1.1666 -0.7991  0.0989
   43SOL     OW  127   0.432   1.677   1.133 -0.0215  0.4135 -0.0679
   43SOL    HW1  128   0.430   1.587   1.183  1.4652 -2.9731 -0.2201
   43SOL    HW2  129   0.341   1.697   1.084  2.9997 -0.2632 -1.8594
   44SOL     OW  130   1.745   2.423   3.009 -0.1647 -0.6250 -0.1352
   44SOL    HW1  131   1.685   2.506   2.989 -0.1406 -3.0295  1.1498
   44SOL    HW2  132   1.776   2.381   2.916 -2.4229 -0.4256 -0.4806
   45SOL     OW  133   0.373   1.883   2.618 -0.1853 -0.1609  0.2280
   45SOL    HW1  134   0.331   1.852   2.532  0.7705  0.9410  0.0937
   45SOL    HW2  135   0.454   1.823   2.650  1.8646  0.9366  0.6441
   46SOL     OW  136   1.228   0.615   0.145  0.3636 -0.3118  0.0375
   46SOL    HW1  137   1.273   0.707   0.133 -0.0952 -1.7165 -3.1289
   46SOL    HW2  138   1.121   0.621   0.143  0.5435 -0.9772 -1.8837
   47SOL     OW  139   0.204   2.542   1.549  0.3292  0.2301 -0.3316
   47SOL    HW1  140   0.206   2.442   1.580  2.6594  3.4599 -0.2828
   47SOL    HW2  141   0.214   2.562   1.446  0.1312 -0.2195 -1.5303
   48SOL     OW  142   2.640   0.632   0.146  0.2603  0.1748 -0.4540
   48SOL    HW1  143   2.612   0.615   0.244  1.4488 -0.7595  0.0348
   48SOL    HW2  144   2.741   0.665   0.138 -0.0137 -0.2657 -0.4213
   49SOL     OW  145   0.325   0.754   1.766 -0.0220 -0.3106 -0.1369
   49SOL    HW1  146   0.413   0.780   1.819  1.1602  0.0313 -0.9575
   49SOL    HW2  147   0.342   0.725   1.668 -0.3060 -0.9356  1.0098
   50SOL     OW  148   1.670   1.121   0.337 -0.0658  0.0148  0.1516
   50SOL    HW1  149   1.641   1.019   0.316  1.4843 -0.6426 -1.6344
   50SOL    HW2  150   1.655   1.152   0.439  0.9834  1.8091  0.3217
   51SOL     OW  151   2.911   1.774   0.242  0.4607 -0.8208  0.0442
   51SOL    HW1  152   2.861   1.700   0.190 -0.2268  2.5164 -0.3429
   51SOL    HW2  153   2.984   1.736   0.314  4.7356  0.0081 -0.3101
   52SOL     OW  154   0.803   2.066   0.544 -0.2622  0.6117  0.5213
   52SOL    HW1  155   0.709   2.103   0.572  4.0874  1.9467  2.7892
   52SOL    HW2  156   0.843   1.991   0.606 -0.0037 -1.3828 -0.3615
   53SOL     OW  157   0.186   0.431   1.594  0.3423  0.3349 -0.2627
   53SOL    HW1  158   0.274   0.486   1.601 -1.7935  3.3738 -0.6609
   53SOL    HW2  159   0.123   0.487   1.530 -0.1950  0.5929  1.8370
   54SOL     OW  160   1.810   0.527   3.084  0.0315  0.4893 -0.8340
   54SOL    HW1  161   1.853   0.488   3.175 -0.8543 -2.4126  0.8180
   54SOL    HW2  162   1.727   0.470   3.059 -0.5453 -2.9565  0.9758
   55SOL     OW  163   0.751   2.907   0.689  0.2287 -0.4119  0.0698
   55SOL    HW1  164   0.688   2.995   0.687 -2.0788  0.8211 -0.6303
   55SOL    HW2  165   0.845   2.932   0.644  3.1712  1.8799  3.0762
   56SOL     OW  166   0.592   1.564   0.022  0.3736 -0.0955 -0.5162
   56SOL    HW1  167   0.507   1.614   0.061 -0.8440 -1.6495  2.7026
   56SOL    HW2  168   0.569   1.471  -0.022  1.6161  1.6094 -0.5689
   57SOL     OW  169   1.754   2.526   2.385 -0.0364  0.0207 -0.5756
   57SOL    HW1  170   1.774   2.426   2.361  1.6452 -2.2195 -1.9362
   57SOL    HW2  171   1.682   2.543   2.459  2.7972  0.2238 -3.1530
   58SOL     OW  172   0.702   0.266   1.070  0.2766 -0.7770  0.2455
   58SOL    HW1  173   0.605   0.262   1.082  3.3928 -1.6664 -1.5853
   58SOL    HW2  174   0.738   0.170   1.059 -0.0234  0.6400 -3.5063
   59SOL     OW  175   0.402   2.335   2.727 -0.4685 -0.5022 -0.0774
   59SOL    HW1  176   0.431   2.241   2.694  0.5494 -2.1734  0.4476
   59SOL    HW2  177   0.465   2.372   2.795 -3.2368 -3.8276  0.2265
   60SOL     OW  178   2.314   2.067   2.259  0.5771  0.2432  0.4485
   60SOL    HW1  179   2.372   2.110   2.180 -1.6293 -1.0462 -0.7486
   60SOL    HW2  180   2.325   2.104   2.355 -1.9965 -2.7422 -1.2515
   61SOL     OW  181   1.323   0.651   0.442 -0.0464 -0.3249  0.0083
   61SOL    HW1  182   1.229   0.688   0.474 -1.3214 -3.8703 -1.0407
   61SOL    HW2  183   1.327   0.619   0.343 -0.1979 -1.1869 -2.8398
   62SOL     OW  184   2.705   1.829   2.935 -0.0513 -0.1006 -0.1966
   62SOL    HW1  185   2.660   1.809   2.845  2.3832 -0.7557  0.8505
   62SOL    HW2  186   2.788   1.764   2.949  0.0906 -1.0092 -1.5478
   63SOL     OW  187   0.514   0.807   0.194 -0.0119 -0.1356 -0.3110
   63SOL    HW1  188   0.558   0.882   0.136 -1.6380  1.3195 -2.9884
   63SOL    HW2  189   0.508   0.834   0.296 -2.1978  0.7686  0.7916
   64SOL     OW  190   0.077   0.430   2.472  0.2081  0.0857 -0.0782
   64SOL    HW1  191   0.103   0.488   2.554 -3.1489 -2.1802 -1.9760
   64SOL    HW2  192   0.082   0.480   2.380 -0.5202 -1.2231  0.5195
   65SOL     OW  193   0.147   1.520   0.600  0.7313 -0.0366  0.4214
   65SOL    HW1  194   0.156   1.575   0.686  0.5912 -1.4123 -2.5780
   65SOL    HW2  195   0.238   1.488   0.570 -1.0494 -0.8123 -1.2270
   66SOL     OW  196   2.543   0.359   0.587 -0.2818 -0.4559 -0.2269
   66SOL    HW1  197   2.644   0.344   0.604 -0.2950 -1.5879  0.8232
   66SOL    HW2  198   2.476   0.298   0.636  0.0977  2.1260  2.5385
   67SOL     OW  199   0.561   2.515   1.441  0.0911 -0.6311  0.4696
   67SOL    HW1  200   0.653   2.473   1.464 -0.2303 -0.4071  0.0142
   67SOL    HW2  201   0.485   2.449   1.458  2.1950 -2.1287  0.5438
   68SOL     OW  202   1.006   1.104   2.497 -0.5699 -0.2358  0.1332
   68SOL    HW1  203   1.088   1.038   2.482  1.7827  3.3642 -0.1508
   68SOL    HW2  204   0.936   1.107   2.414 -0.6401  0.2694  0.7884
   69SOL     OW  205   0.725   2.761   2.145 -0.3533 -0.0667  0.5221
   69SOL    HW1  206   0.758   2.668   2.133 -1.7841  4.1753 -1.6737
   69SOL    HW2  207   0.621   2.761   2.160 -0.8626  0.0531  0.9154
   70SOL     OW  208   0.479   0.236   2.647 -0.2342  0.0026 -0.8988
   70SOL    HW1  209   0.378   0.243   2.637 -1.5078 -1.7973  1.2843
   70SOL    HW2  210   0.515   0.138   2.660  0.1877  2.2745 -0.0574
   71SOL     OW  211   1.122   1.771   0.442  0.5472  0.4559 -0.7016
   71SOL    HW1  212   1.070   1.693   0.488  0.6977 -2.3903 -0.4155
   71SOL    HW2  213   1.086   1.796   0.350 -2.5459 -1.5716  4.0197
   72SOL     OW  214   1.822   0.205   2.142  0.2956 -0.0339  0.1087
   72SOL    HW1  215   1.885   0.284   2.134 -2.4359 -1.4489  0.9570
   72SOL    HW2  216   1.877   0.109   2.127  3.3386 -2.0000 -0.7456
   73SOL     OW  217   2.813   2.172   2.402  0.3278 -0.4960  0.0183
   73SOL    HW1  218   2.848   2.076   2.381  0.4624  0.0088 -0.4350
   73SOL    HW2  219   2.865   2.209   2.480 -2.7348 -1.0863  0.0357
   74SOL     OW  220   2.684   2.851   2.145 -0.0688 -0.5075  0.4893
   74SOL    HW1  221   2.673   2.844   2.245 -2.1593  1.4853 -1.6694
   74SOL    HW2  222   2.771   2.907   2.111 -0.8460  1.3527 -1.0965
   75SOL     OW  223   0.938   0.855   1.096 -0.7471  0.1008  0.0941
   75SOL    HW1  224   0.849   0.881   1.046 -1.8344 -1.3245 -1.9336
   75SOL    HW2  225   0.941   0.886   1.193  1.7782 -2.5098  1.1384
   76SOL     OW  226   1.724   1.202   2.511 -0.0955  0.2548  0.1782
   76SOL    HW1  227   1.627   1.183   2.490 -0.6808 -0.3937 -1.9699
   76SOL    HW2  228   1.736   1.292   2.562  1.5009  1.4281  1.2459
   77SOL     OW  229   2.935   0.936   0.993 -0.1055  0.0060  0.5592
   77SOL    HW1  230   2.891   0.844   0.972  1.0051 -0.3311  0.7493
   77SOL    HW2  231   3.002   0.921   1.067 -0.7296  1.5212  0.4604
   78SOL     OW  232   2.002   1.463   1.462 -0.3134 -0.2769  0.2219
   78SOL    HW1  233   2.097   1.499   1.450  1.1816 -2.9604  3.0709
   78SOL    HW2  234   1.945   1.459   1.377  0.1907  3.0837  0.2016
   79SOL     OW  235   0.605   1.388   0.808  0.0183  0.5505  0.1690
   79SOL    HW1  236   0.501   1.406   0.839 -2.1385  1.2921 -0.6627
   79SOL    HW2  237   0.620   1.344   0.713  2.0876  0.4444  0.6801
   80SOL     OW  238   0.628   0.504   1.565  0.2919  0.3397 -0.1003
   80SOL    HW1  239   0.696   0.557   1.505  0.9877 -0.9639  1.6097
   80SOL    HW2  240   0.616   0.406   1.536  0.4505 -1.0205 -0.5778
   81SOL     OW  241   1.035   1.341   2.627  0.5063 -0.1440 -0.2628
   81SOL    HW1  242   1.024   1.239   2.606 -1.2936  0.5244  1.2982
   81SOL    HW2  243   0.986   1.408   2.564 -1.8601 -0.8401  1.2445
   82SOL     OW  244   0.973   3.007   1.545 -0.2861  0.3119  0.6054
   82SOL    HW1  245   0.872   3.020   1.553  1.2474  0.3130  2.1367
   82SOL    HW2  246   0.998   2.950   1.463 -0.0453 -0.7301  0.2651
   83SOL     OW  247   2.656   2.399   0.837  0.0044 -0.0264  0.4337
   83SOL    HW1  248   2.586   2.341   0.796  2.5125 -0.0902  2.7669
   83SOL    HW2  249   2.614   2.496   0.844 -1.3685  0.8160  1.3599
   84SOL     OW  250   0.636   3.050   2.334 -0.2380 -0.0955  1.0397
   84SOL    HW1  251   0.569   3.068   2.409  3.8251 -0.5769  0.8413
   84SOL    HW2  252   0.695   2.969   2.367  0.3213 -0.6110 -1.1321
   85SOL     OW  253   0.275   1.597   1.441  0.0763  0.4688 -0.5083
   85SOL    HW1  254   0.262   1.702   1.436  1.1803 -0.5075 -1.1329
   85SOL    HW2  255   0.320   1.563   1.531 -2.3617 -3.8964 -0.4074
   86SOL     OW  256   0.441   0.998   1.539  0.8045  0.2599 -0.0867
   86SOL    HW1  257   0.419   0.952   1.449 -0.7262  1.0441 -1.2078
   86SOL    HW2  258   0.540   0.998   1.564  1.1136  0.7913  0.7269
   87SOL     OW  259   1.568   0.655   0.209 -0.2466 -0.2825  0.4414
   87SOL    HW1  260   1.643   0.720   0.186  0.9960  1.8026  1.4000
   87SOL    HW2  261   1.559   0.580   0.134  1.1212 -1.0983 -0.7736
   88SOL     OW  262   1.564   1.362   0.271 -0.5769 -0.1206 -0.1334
   88SOL    HW1  263   1.615   1.271   0.287 -1.0641 -2.2014  0.6460
   88SOL    HW2  264   1.461   1.354   0.271 -1.6213 -0.9674 -1.3241
   89SOL     OW  265   3.076   0.457   0.593 -0.1151 -0.3005 -0.1877
   89SOL    HW1  266   3.146   0.384   0.582 -1.3752  1.4511  1.5947
   89SOL    HW2  267   2.986   0.417   0.596  1.1826  0.6092 -1.2731
   90SOL     OW  268   0.911   1.570   0.081 -0.0078 -0.2738 -0.5599
   90SOL    HW1  269   0.854   1.545   0.165 -0.4966 -0.3795 -2.0043
   90SOL    HW2  270   0.858   1.569  -0.006  0.3564 -0.4989 -0.8838
   91SOL     OW  271   1.223   1.464   1.815 -0.2874  0.5564 -0.5177
   91SOL    HW1  272   1.218   1.549   1.874 -0.0617 -2.9019  0.9533
   91SOL    HW2  273   1.314   1.412   1.835  0.0597  0.1873  0.7012
   92SOL     OW  274   3.066   0.931   1.235  0.2015 -0.3287 -0.1753
   92SOL    HW1  275   3.119   1.014   1.202 -1.7623  0.5233  1.3564
   92SOL    HW2  276   3.071   0.923   1.338  0.2093  1.2406 -0.2086
   93SOL     OW  277   0.021   2.745   0.004 -0.1068  0.1696  0.5879
   93SOL    HW1  278  -0.050   2.762  -0.070 -0.0941  0.1160  1.1083
   93SOL    HW2  279   0.041   2.643   0.028  1.8867  1.2658 -0.0904
   94SOL     OW  280   1.519   1.457   1.782  0.1794  0.4840  0.9363
   94SOL    HW1  281   1.579   1.372   1.795  0.3175  0.3385 -1.0665
   94SOL    HW2  282   1.542   1.544   1.833  0.7281 -2.4973  0.0035
   95SOL     OW  283   1.421   2.514   3.013  0.0341 -0.0307  0.0853
   95SOL    HW1  284   1.332   2.533   3.073 -2.4216  0.1114  0.6873
   95SOL    HW2  285   1.427   2.415   2.986 -0.2571  0.5293  1.3337
   96SOL     OW  286   0.560   2.096   1.271  0.3356 -0.1004  1.0829
   96SOL    HW1  287   0.524   2.029   1.200  1.5163 -0.3937  0.6768
   96SOL    HW2  288   0.631   2.058   1.336 -0.3873  0.0462 -0.5465
   97SOL     OW  289   0.395   1.639   2.438 -1.0293 -0.6177  0.1519
   97SOL    HW1  290   0.313   1.614   2.387  2.4838 -0.4122 -0.8131
   97SOL    HW2  291   0.379   1.619   2.536 -3.6490 -0.2209  0.3276
   98SOL     OW  292   2.034   1.651   1.170  0.5422 -0.0122 -0.3696
   98SOL    HW1  293   1.964   1.586   1.207  0.2145 -1.7725  2.9046
   98SOL    HW2  294   2.122   1.603   1.145  1.4314 -1.2088 -1.2921
   99SOL     OW  295   2.517   2.035   1.297  0.1058  0.5868 -0.4855
   99SOL    HW1  296   2.537   2.055   1.397  1.0547 -1.7027  0.5134
   99SOL    HW2  297   2.502   1.933   1.280  1.6524 -0.5824 -1.6370
  100SOL     OW  298   2.352   0.357   2.084 -0.4339  0.8360 -0.0545
  100SOL    HW1  299   2.275   0.345   2.155 -3.1043 -1.2463 -0.1654
  100SOL    HW2  300   2.438   0.388   2.134  1.4827  1.2697 -2.1437
  101SOL     OW  301   0.422   1.475   0.460 -0.0388  0.5757  0.1571
  101SOL    HW1  302   0.435   1.575   0.482  0.5637  0.1547  1.2976
  101SOL    HW2  303   0.509   1.417   0.474  0.4488 -1.5742  1.2118
  102SOL     OW  304   2.229   1.034   0.832  0.4108  0.4264  0.3747
  102SOL    HW1  305   2.168   0.973   0.778  2.7617 -0.8113  0.1997
  102SOL    HW2  306   2.314   1.059   0.776 -3.3438  0.6197 -0.8633
  103SOL     OW  307   2.226   0.072   0.388 -0.2845  0.0012 -0.6810
  103SOL    HW1  308   2.269   0.137   0.317  2.7012 -0.3631  1.4348
  103SOL    HW2  309   2.281   0.070   0.474 -1.3708 -0.5414  0.3863
  104SOL     OW  310   0.101   1.788   2.175  0.1051  0.0903 -0.2990
  104SOL    HW1  311   0.152   1.744   2.098  1.0604  1.6030  0.2398
  104SOL    HW2  312  -0.004   1.802   2.159 -2.2333  1.6471 -1.4293
  105SOL     OW  313   1.274   2.080   0.771  0.4014  0.0412  0.1975
  105SOL    HW1  314   1.303   2.123   0.682  1.2372  0.0433  1.2990
  105SOL    HW2  315   1.301   1.982   0.787 -2.0890 -0.6381 -2.2907
  106SOL     OW  316   2.120   0.414   1.400  0.0910 -0.5913  0.1251
  106SOL    HW1  317   2.094   0.314   1.397 -0.7540  0.9775  0.0771
  106SOL    HW2  318   2.124   0.445   1.498  0.1918 -1.4493  0.4708
  107SOL     OW  319   1.869   2.957   1.232  0.8370  0.1259  0.2984
  107SOL    HW1  320   1.859   3.055   1.272  2.0833  3.1348  0.5441
  107SOL    HW2  321   1.777   2.909   1.232 -0.0951  0.5126  0.4309
  108SOL     OW  322   0.770   2.785   1.271  0.5414  0.1233  0.3829
  108SOL    HW1  323   0.785   2.709   1.339  1.9587  1.5370 -1.6598
  108SOL    HW2  324   0.860   2.832   1.248 -0.3637 -0.7575  0.8896
  109SOL     OW  325   2.133   0.092   0.811  0.0529  0.0811 -0.6789
  109SOL    HW1  326   2.036   0.126   0.787  0.5765  2.0801 -0.2333
  109SOL    HW2  327   2.143   0.046   0.906 -0.2745 -0.8490 -1.8440
  110SOL     OW  328   0.442   2.841   2.768 -0.7474 -0.1651 -0.0757
  110SOL    HW1  329   0.412   2.812   2.667  2.1843 -0.8341  0.4162
  110SOL    HW2  330   0.520   2.783   2.802 -1.1666  0.0337  2.0314
  111SOL     OW  331   1.289   0.495   2.326  0.8277 -0.3232 -0.2463
  111SOL    HW1  332   1.237   0.563   2.380 -1.2129  0.4258 -1.2302
  111SOL    HW2  333   1.352   0.436   2.388 -0.0171 -0.9836  1.0671
  112SOL     OW  334   1.703   0.502   1.436  0.5246 -0.0315  0.2860
  112SOL    HW1  335   1.699   0.461   1.336 -0.6350  2.7186 -1.5624
  112SOL    HW2  336   1.666   0.443   1.518 -2.4809 -0.0829  2.6241
  113SOL     OW  337   2.324   1.668   1.767  0.4465 -0.8082  0.0069
  113SOL    HW1  338   2.367   1.576   1.762  0.8475  0.9307  1.4227
  113SOL    HW2  339   2.303   1.689   1.864  1.1865  0.7626 -1.2507
  114SOL     OW  340   0.348   0.541   1.266 -0.3037  0.2388 -0.9526
  114SOL    HW1  341   0.401   0.591   1.189  0.6458 -1.5539  1.4810
  114SOL    HW2  342   0.249   0.569   1.281  0.5707 -5.3790 -0.1872
  115SOL     OW  343   2.704   1.629   1.206  0.0206 -0.2479  0.0180
  115SOL    HW1  344   2.701   1.529   1.237  0.1863  0.8716 -1.4318
  115SOL    HW2  345   2.783   1.648   1.141  4.4950 -0.6060 -2.6073
  116SOL     OW  346   1.799   1.031   0.604 -0.1337 -0.7759 -0.4313
  116SOL    HW1  347   1.733   0.955   0.599  2.0298  0.2551 -0.9035
  116SOL    HW2  348   1.764   1.093   0.677 -1.0188 -1.7889 -1.2420
  117SOL     OW  349   1.194   0.337   0.573 -0.5694  0.4373 -0.1955
  117SOL    HW1  350   1.258   0.416   0.613  2.3354  2.1005 -2.2327
  117SOL    HW2  351   1.218   0.312   0.476  0.0481 -0.9273  3.4650
  118SOL     OW  352   1.143   1.122   1.134 -0.3427  1.3484 -0.0904
  118SOL    HW1  353   1.131   1.052   1.206  1.8481  1.6752 -3.0963
  118SOL    HW2  354   1.154   1.215   1.176  0.6395  3.1637  1.1227
  119SOL     OW  355   1.817   1.583   2.172 -0.2799 -0.4042  0.0152
  119SOL    HW1  356   1.794   1.681   2.146 -0.3272 -0.8703 -0.2495
  119SOL    HW2  357   1.906   1.552   2.127  0.5209 -0.4979 -1.1846
  120SOL     OW  358   2.934   2.867   0.183 -0.2961 -0.0412  0.6118
  120SOL    HW1  359   3.011   2.830   0.123 -0.6760  2.3131  1.9387
  120SOL    HW2  360   2.848   2.811   0.177 -1.9999  1.2458  2.9294
  121SOL     OW  361   1.958   0.754   2.219 -0.6400 -0.0289  0.1983
  121SOL    HW1  362   1.984   0.805   2.131  2.3797 -0.6247  0.1203
  121SOL    HW2  363   1.966   0.651   2.211 -2.3466  1.9267  1.0430
  122SOL     OW  364   2.617   2.592   1.323  0.8522 -0.2481  0.0585
  122SOL    HW1  365   2.663   2.528   1.260 -0.5961 -2.2147  0.2135
  122SOL    HW2  366   2.515   2.568   1.333  2.1778 -4.4612  0.7392
  123SOL     OW  367   1.725   0.045   1.701 -0.0248 -0.3027  0.1129
  123SOL    HW1  368   1.747  -0.040   1.649  1.0250 -3.7308  1.1528
  123SOL    HW2  369   1.814   0.089   1.735 -0.5181 -0.7381  0.8949
  124SOL     OW  370   0.053   0.423   1.097 -0.1491 -0.0708 -0.4823
  124SOL    HW1  371   0.072   0.517   1.140  0.8713 -1.9160 -0.5678
  124SOL    HW2  372   0.089   0.414   0.998 -1.6525 -3.5765 -4.0879
  125SOL     OW  373   0.859   1.841   0.701  0.1789  0.2350  0.4677
  125SOL    HW1  374   0.958   1.802   0.707 -1.7304 -0.6868  0.3773
  125SOL    HW2  375   0.814   1.856   0.793 -0.0244  1.5623  0.4295
  126SOL     OW  376   1.825   2.262   2.390  0.0088 -0.3470  0.5629
  126SOL    HW1  377   1.857   2.212   2.309 -1.0034  1.7871  2.3402
  126SOL    HW2  378   1.757   2.207   2.442 -0.8333  2.0039  1.2881
  127SOL     OW  379   0.974   0.913   0.208 -0.7248  0.6139 -0.8030
  127SOL    HW1  380   0.988   0.977   0.287  0.2374 -2.9238 -1.1244
  127SOL    HW2  381   0.955   0.816   0.244 -3.7481  0.3926 -1.5829
  128SOL     OW  382   0.932   0.198   1.385 -0.3042 -0.2547 -0.0174
  128SOL    HW1  383   0.952   0.276   1.314 -1.1145  2.6175  2.1475
  128SOL    HW2  384   0.887   0.115   1.352 -0.3999  0.7366  2.2661
  129SOL     OW  385   1.843   0.656   1.817  0.1153  0.3779  0.0348
  129SOL    HW1  386   1.870   0.653   1.717  0.2949  1.7247 -0.2678
  129SOL    HW2  387   1.882   0.740   1.864 -0.0008 -3.8800  0.0237
  130SOL     OW  388   1.372   2.149   1.031 -0.1963 -0.5851  0.0932
  130SOL    HW1  389   1.305   2.139   0.953  2.2927  3.5162  1.7352
  130SOL    HW2  390   1.455   2.211   1.012  1.1959 -1.9968  0.9996
  131SOL     OW  391   3.010   1.421   1.365 -0.7093 -0.4532  0.0000
  131SOL    HW1  392   2.982   1.328   1.410 -1.7232  0.0374  0.5018
  131SOL    HW2  393   3.114   1.438   1.359 -0.1533 -0.1170  2.6508
  132SOL     OW  394   2.038   2.429   0.483 -0.0032 -0.1742 -0.2166
  132SOL    HW1  395   1.945   2.476   0.510 -1.2019  2.8757  2.0645
  132SOL    HW2  396   2.078   2.369   0.557 -2.9112 -1.0854 -4.4111
  133SOL     OW  397   1.800   2.345   2.743  0.0657  0.3941 -0.3952
  133SOL    HW1  398   1.755   2.392   2.660 -4.3240 -1.7182  1.7835
  133SOL    HW2  399   1.904   2.347   2.747 -1.4946  0.9568 -1.2558
  134SOL     OW  400   2.661   2.309   1.587 -0.0659 -0.1916  0.3530
  134SOL    HW1  401   2.574   2.298   1.642 -0.6531  1.3256 -0.9997
  134SOL    HW2  402   2.711   2.401   1.595  1.0033  0.3889 -1.5263
  135SOL     OW  403   0.716   1.483   2.666  0.5552 -0.2578  0.3466
  135SOL    HW1  404   0.692   1.393   2.712  1.7863 -3.7651  0.7916
  135SOL    HW2  405   0.753   1.466   2.568  0.4901  1.7612 -0.1066
  136SOL     OW  406   1.212   2.043   0.432 -0.4267 -0.1774  0.8011
  136SOL    HW1  407   1.153   2.127   0.449  0.0830 -0.0344  0.5929
  136SOL    HW2  408   1.178   1.957   0.475  1.8839  1.4643 -0.7095
  137SOL     OW  409   0.432   1.213   2.202  0.2416 -0.1125  0.5443
  137SOL    HW1  410   0.338   1.185   2.227  1.2193  2.4515 -1.6338
  137SOL    HW2  411   0.497   1.140   2.223  1.2656 -0.6665  1.3425
  138SOL     OW  412   2.511   1.465   0.282  0.0269  0.4343  0.3338
  138SOL    HW1  413   2.422   1.427   0.248 -1.9838  1.5915 -1.6694
  138SOL    HW2  414   2.563   1.393   0.333 -0.7549  1.3124  2.9530
  139SOL     OW  415   1.882   2.615   1.344  0.3045  0.2825  0.3543
  139SOL    HW1  416   1.778   2.624   1.340  1.7078 -0.1610 -0.0900
  139SOL    HW2  417   1.900   2.510   1.347 -2.9422 -1.0493 -0.1478
  140SOL     OW  418   3.008   2.969   2.510 -0.1395  0.3989 -0.4613
  140SOL    HW1  419   3.065   2.887   2.538 -0.6281 -0.4040 -0.1996
  140SOL    HW2  420   3.062   3.047   2.476 -1.9287  0.2275  2.5339
  141SOL     OW  421   1.335   1.686   1.587 -0.2463  0.1046  0.1138
  141SOL    HW1  422   1.247   1.741   1.588 -0.9193 -1.5621 -4.2773
  141SOL    HW2  423   1.340   1.607   1.654 -0.2570  1.3766  1.4759
  142SOL     OW  424   1.556   0.606   2.249 -0.8854 -0.4892 -0.0891
  142SOL    HW1  425   1.604   0.589   2.159 -1.0616  1.1987  0.0975
  142SOL    HW2  426   1.461   0.573   2.254  2.8866  1.4407 -3.0356
  143SOL     OW  427   2.749   0.915   0.482  0.2903 -0.1290  0.4669
  143SOL    HW1  428   2.801   0.959   0.406  0.5426  1.0894 -1.5376
  143SOL    HW2  429   2.790   0.939   0.575  0.3596  1.4144  0.6171
  144SOL     OW  430   2.903   1.199   1.494 -0.5414  0.7826 -0.2668
  144SOL    HW1  431   2.845   1.171   1.579  1.4860 -0.6589  0.1383
  144SOL    HW2  432   2.984   1.130   1.488 -0.6991  2.6760  0.2024
  145SOL     OW  433   1.013   1.809   0.152  0.7967  0.2719 -0.8019
  145SOL    HW1  434   1.097   1.853   0.111  0.6809  1.5725 -0.3487
  145SOL    HW2  435   0.984   1.713   0.115 -0.0249 -1.1104  0.3292
  146SOL     OW  436   2.459   0.653   1.486 -0.7531  0.2235 -0.1286
  146SOL    HW1  437   2.437   0.570   1.436  0.8941  3.2745  1.1858
  146SOL    HW2  438   2.401   0.733   1.463  0.4061 -2.3075 -1.4085
  147SOL     OW  439   1.096   2.495   0.595 -0.0965  0.8032 -0.0777
  147SOL    HW1  440   1.024   2.540   0.542  0.6810  0.2426  2.8538
  147SOL    HW2  441   1.192   2.486   0.557 -1.5580 -0.1328 -2.5413
  148SOL     OW  442   1.620   1.469   0.023 -0.5024 -0.0310  0.4339
  148SOL    HW1  443   1.597   1.392  -0.045 -0.3989  1.7754  0.0790
  148SOL    HW2  444   1.584   1.459   0.120 -0.7791  0.3625 -0.3870
  149SOL     OW  445   0.670   1.442   1.962 -0.4074  0.5406 -0.0133
  149SOL    HW1  446   0.566   1.424   1.949 -0.1552  1.4266  0.1877
  149SOL    HW2  447   0.727   1.383   1.896 -0.0555  2.1730 -2.0285
  150SOL     OW  448   3.046   1.250   0.942  0.4864  0.2078  0.0189
  150SOL    HW1  449   3.138   1.239   0.992  1.8928 -3.1763  1.4087
  150SOL    HW2  450   3.004   1.156   0.937 -1.5909 -1.6192  1.7553
  151SOL     OW  451   0.122   0.715   2.080  0.0703 -0.5556  0.0886
  151SOL    HW1  452   0.106   0.789   2.008  0.3474  0.8276  0.6981
  151SOL    HW2  453   0.188   0.642   2.046  1.4867  0.3786  0.2769
  152SOL     OW  454   1.468   1.778   1.207 -0.2349  0.4835 -0.2939
  152SOL    HW1  455   1.520   1.870   1.219  1.2854  0.8803 -0.2719
  152SOL    HW2  456   1.368   1.786   1.219  3.2118  0.4076 -1.5592
  153SOL     OW  457   0.117   1.598   0.190  0.2339  0.0005  0.6293
  153SOL    HW1  458   0.095   1.495   0.209  0.3302 -0.5041  3.0415
  153SOL    HW2  459   0.096   1.652   0.277 -1.8367 -0.3989 -0.5340
  154SOL     OW  460   2.375   1.871   2.828 -0.0286  0.0554  0.4992
  154SOL    HW1  461   2.410   1.779   2.858 -0.8451  1.0094 -0.4897
  154SOL    HW2  462   2.439   1.916   2.759 -2.4635 -1.1085  3.5887
  155SOL     OW  463   2.492   1.200   0.363  0.7052 -0.3520  0.3971
  155SOL    HW1  464   2.577   1.187   0.307 -0.3279  0.7662  1.6471
  155SOL    HW2  465   2.403   1.156   0.334  0.0969 -1.0937  1.3412
  156SOL     OW  466   2.496   0.912   0.805 -0.5756 -0.9395 -0.5251
  156SOL    HW1  467   2.409   0.910   0.860 -1.8845 -1.3459  0.4357
  156SOL    HW2  468   2.501   0.970   0.722  0.0316 -1.0167  1.0824
  157SOL     OW  469   1.218   2.989   2.971 -0.2762  0.6935 -0.4206
  157SOL    HW1  470   1.273   2.928   2.911  1.2682  0.8153  3.2401
  157SOL    HW2  471   1.267   3.083   2.994 -1.4271  1.7045 -1.9263
  158SOL     OW  472   0.987   1.853   1.884  0.2489 -0.2382  0.0610
  158SOL    HW1  473   0.989   1.953   1.912 -1.0776  2.3169  0.1473
  158SOL    HW2  474   0.896   1.812   1.912  0.2848  0.1142  0.5550
  159SOL     OW  475   0.901   0.399   1.207 -0.4018  0.0381 -0.1638
  159SOL    HW1  476   0.845   0.476   1.249  1.6845  0.5060  1.5380
  159SOL    HW2  477   0.845   0.328   1.154  1.8411  2.9301  0.0630
  160SOL     OW  478   1.364   2.414   1.600 -0.4268 -0.2818  0.0923
  160SOL    HW1  479   1.309   2.334   1.647 -0.8224 -0.5804  1.2591
  160SOL    HW2  480   1.467   2.398   1.602  2.1947  1.4283  1.3115
  161SOL     OW  481   0.012   2.968   0.427 -0.3282 -0.5283  0.6825
  161SOL    HW1  482  -0.007   2.878   0.386 -1.5547 -2.3641  1.9376
  161SOL    HW2  483  -0.024   3.042   0.367  0.8102  1.2286  4.2680
  162SOL     OW  484   2.594   1.869   0.523  0.3849  0.1929 -0.7046
  162SOL    HW1  485   2.559   1.828   0.437 -0.1676 -0.7422  1.3865
  162SOL    HW2  486   2.565   1.807   0.598  0.0620 -0.3456 -1.4278
  163SOL     OW  487   1.929   2.757   0.720 -0.1000 -0.3541  0.2510
  163SOL    HW1  488   1.905   2.758   0.618 -0.9294  0.7515  0.4704
  163SOL    HW2  489   1.987   2.677   0.751  0.2893  1.2353  0.9450
  164SOL     OW  490   3.044   0.235   1.242 -0.3067 -0.2323 -0.2383
  164SOL    HW1  491   3.101   0.303   1.179  1.7508  2.3416 -1.1031
  164SOL    HW2  492   3.104   0.203   1.326  0.0833 -0.8153  3.5430
  165SOL     OW  493   0.956   1.366   0.738 -0.1470  0.2429  0.8433
  165SOL    HW1  494   0.927   1.432   0.815 -1.2142 -4.2873  0.2403
  165SOL    HW2  495   0.964   1.404   0.640  2.4953  2.5015 -0.2998
  166SOL     OW  496   1.568   1.034   1.766  0.5729 -0.5431  0.6759
  166SOL    HW1  497   1.478   1.038   1.816  2.3545 -1.6194 -0.7497
  166SOL    HW2  498   1.630   1.117   1.781  1.5936 -2.4448 -2.4570
  167SOL     OW  499   0.749   2.007   1.463 -0.0785  0.0246  0.1920
  167SOL    HW1  500   0.787   2.054   1.552  2.1339 -0.2295 -0.9627
  167SOL    HW2  501   0.714   1.907   1.482 -0.4051 -1.3692 -0.7767
  168SOL     OW  502   1.613   2.357   0.156  0.2569 -0.3936  0.2107
  168SOL    HW1  503   1.669   2.370   0.069 -2.7834 -0.4439  1.9947
  168SOL    HW2  504   1.670   2.345   0.240 -4.5264  0.3173  0.7529
  169SOL     OW  505   0.195   2.578   2.225 -0.6899 -0.1967 -0.3398
  169SOL    HW1  506   0.218   2.535   2.136 -1.1514  2.6781  1.3029
  169SOL    HW2  507   0.173   2.509   2.299  1.5586  2.7273  1.0278
  170SOL     OW  508   1.088   0.234   2.017  0.5078 -0.0935  0.1798
  170SOL    HW1  509   1.143   0.209   2.100 -2.3681 -1.1228 -4.0907
  170SOL    HW2  510   1.107   0.178   1.932  0.9851  2.7729 -0.3282
  171SOL     OW  511   0.177   0.806   2.350 -0.2388  0.4831  0.4682
  171SOL    HW1  512   0.107   0.856   2.404  0.6929 -0.5694 -3.2139
  171SOL    HW2  513   0.153   0.779   2.254 -1.1683 -0.9944  0.5002
  172SOL     OW  514   0.949   0.993   2.865  0.0903 -0.3007  0.1659
  172SOL    HW1  515   0.940   1.068   2.937  0.8843  1.4453  2.1157
  172SOL    HW2  516   0.909   1.016   2.773 -1.9240 -2.3732  1.5353
  173SOL     OW  517   0.595   2.603   0.129 -0.9041 -1.0188 -0.1429
  173SOL    HW1  518   0.573   2.697   0.098 -1.6205 -1.7447  0.7882
  173SOL    HW2  519   0.516   2.571   0.179 -1.6786  1.3747 -0.7506
  174SOL     OW  520   1.538   2.794   1.045  0.1733  0.1509 -0.2857
  174SOL    HW1  521   1.543   2.857   0.960  1.7812  0.0612  3.6782
  174SOL    HW2  522   1.513   2.699   1.022 -1.6138 -1.0869  0.2373
  175SOL     OW  523   0.487   3.042   1.713  0.1852  0.2309  0.5992
  175SOL    HW1  524   0.578   3.032   1.770  0.4388  1.2700  0.5380
  175SOL    HW2  525   0.456   3.141   1.697  1.6009  0.5305 -0.6078
  176SOL     OW  526   2.562   0.392   0.018  0.1791  0.6637 -0.3410
  176SOL    HW1  527   2.586   0.485   0.048 -2.5761 -3.1912  1.9946
  176SOL    HW2  528   2.479   0.354   0.065  0.3194 -2.0507 -0.1236
  177SOL     OW  529   0.300   0.356   0.929 -0.3346 -0.0293 -0.1364
  177SOL    HW1  530   0.261   0.263   0.912 -0.0637  1.9211  0.1013
  177SOL    HW2  531   0.286   0.393   1.025  1.7896  2.4214 -1.7170
  178SOL     OW  532   0.064   2.749   2.567  0.3716 -0.1736 -0.2649
  178SOL    HW1  533   0.000   2.672   2.588  0.8617 -0.0851 -0.2747
  178SOL    HW2  534   0.132   2.771   2.646  1.5199  0.2086  0.7979
  179SOL     OW  535   3.059   1.582   1.141 -0.7855  0.1812  0.0215
  179SOL    HW1  536   3.023   1.528   1.064  3.1378  0.2721  0.2776
  179SOL    HW2  537   3.060   1.533   1.237 -0.5784  0.5427 -0.5971
  180SOL     OW  538   0.198   1.264   1.836 -0.2401  0.2045 -0.6387
  180SOL    HW1  539   0.272   1.218   1.881 -2.0976  0.8163 -0.5343
  180SOL    HW2  540   0.171   1.349   1.889  2.5378  0.0935 -1.2844
  181SOL     OW  541   3.089   1.888   2.468  0.5864 -0.1384 -0.2343
  181SOL    HW1  542   3.159   1.965   2.455  3.3814  0.9622 -1.8120
  181SOL    HW2  543   2.994   1.901   2.425  1.8614  1.8007  2.3964
  182SOL     OW  544   2.328   1.244   1.169  0.3786 -0.1770  0.6231
  182SOL    HW1  545   2.251   1.173   1.140 -2.7324 -4.0905  0.7756
  182SOL    HW2  546   2.294   1.340   1.151 -0.6938  0.2220  0.5623
  183SOL     OW  547   1.447   2.258   2.558 -0.3534 -0.2698 -0.7696
  183SOL    HW1  548   1.358   2.209   2.565 -0.2864  1.2614 -0.2079
  183SOL    HW2  549   1.535   2.202   2.576  4.3415 -1.0524  0.2245
  184SOL     OW  550   2.029   0.917   0.691 -0.3358  0.1763 -0.6273
  184SOL    HW1  551   1.939   0.936   0.654  5.5422 -1.0278 -2.9585
  184SOL    HW2  552   2.032   0.832   0.748  0.1056  2.1448 -2.1754
  185SOL     OW  553   1.614   2.782   1.959 -0.4044 -0.3348 -0.1887
  185SOL    HW1  554   1.549   2.858   1.939 -1.4430 -1.7230  1.4393
  185SOL    HW2  555   1.635   2.776   2.062 -1.1848 -1.0665  1.4353
  186SOL     OW  556   0.144   2.256   1.645  0.6666 -0.1456  0.2469
  186SOL    HW1  557   0.097   2.292   1.732  1.8835  1.2030  0.9153
  186SOL    HW2  558   0.214   2.183   1.657 -2.0720  1.1666  2.1609
  187SOL     OW  559   1.350   0.682   1.655  0.4752 -0.4042  0.0198
  187SOL    HW1  560   1.427   0.738   1.617 -0.2063  0.9245 -1.3136
  187SOL    HW2  561   1.391   0.600   1.700  0.4663  0.1314  1.0567
  188SOL     OW  562   2.786   2.757   1.446  0.7324 -0.2314  0.1591
  188SOL    HW1  563   2.743   2.854   1.453 -1.1591  1.4145  0.7611
  188SOL    HW2  564   2.724   2.697   1.390 -0.4846  1.0013  1.2101
  189SOL     OW  565   0.940   1.191   1.456 -0.3037  0.3204  0.3494
  189SOL    HW1  566   1.018   1.240   1.509 -1.8103 -1.3598  0.7099
  189SOL    HW2  567   0.869   1.261   1.422  0.2444 -2.6696  1.1155
  190SOL     OW  568   1.436   1.950   1.633  0.3644  0.0163  0.0888
  190SOL    HW1  569   1.418   1.849   1.617 -1.9840  0.7683 -3.1705
  190SOL    HW2  570   1.477   1.980   1.720 -2.0605  0.5979 -0.5791
  191SOL     OW  571   0.927   0.718   1.534 -0.4101  0.7633 -0.5542
  191SOL    HW1  572   0.999   0.644   1.559  0.1052 -0.8926 -2.5936
  191SOL    HW2  573   0.960   0.799   1.479  2.0439 -0.3800  0.0840
  192SOL     OW  574   1.858   2.318   1.071  0.2368 -0.1032  0.2310
  192SOL    HW1  575   1.762   2.337   1.027 -0.1781  3.1627  0.1290
  192SOL    HW2  576   1.939   2.331   1.007 -1.0518 -0.0159 -0.3191
  193SOL     OW  577   0.531   0.573   0.444  0.0318 -0.3683 -0.6279
  193SOL    HW1  578   0.479   0.500   0.496 -3.1093 -1.0445  2.9713
  193SOL    HW2  579   0.572   0.533   0.359 -0.6555  0.0055  0.1570
  194SOL     OW  580   0.359   0.883   1.296  0.4882 -0.4050 -0.3216
  194SOL    HW1  581   0.273   0.838   1.322  1.6095 -0.1585  0.9484
  194SOL    HW2  582   0.369   0.893   1.194 -0.5674 -1.2019 -1.1277
  195SOL     OW  583   1.032   2.935   0.511 -0.0922  0.2793  0.0161
  195SOL    HW1  584   1.007   2.837   0.479  1.3061  0.7083 -1.6835
  195SOL    HW2  585   1.130   2.948   0.481 -0.2434 -2.7924 -0.9431
  196SOL     OW  586   0.183   1.368   1.393  0.6959 -0.1569  0.1281
  196SOL    HW1  587   0.214   1.465   1.423 -0.4927  0.5810 -0.5606
  196SOL    HW2  588   0.179   1.298   1.473 -0.3968 -0.5742  0.3513
  197SOL     OW  589   0.840   2.053   0.253 -0.2745 -0.4684 -0.2433
  197SOL    HW1  590   0.850   2.050   0.358  0.5836  1.7980 -1.0695
  197SOL    HW2  591   0.892   1.975   0.210 -1.3653 -0.8610 -2.0184
  198SOL     OW  592   0.278   1.255   0.312  0.3995  0.2355  0.7999
  198SOL    HW1  593   0.184   1.252   0.267 -1.8178 -3.7496  0.2871
  198SOL    HW2  594   0.308   1.347   0.329 -2.1855  0.1144  0.1085
  199SOL     OW  595   2.327   0.377   2.512  0.4508  0.2921  0.4259
  199SOL    HW1  596   2.246   0.345   2.573 -2.3639 -1.6161 -0.1050
  199SOL    HW2  597   2.420   0.368   2.564 -0.9039 -1.1854 -1.2104
  200SOL     OW  598   3.098   2.943   0.735 -0.2594 -0.3308  0.5900
  200SOL    HW1  599   3.022   2.989   0.678  0.3308 -0.7931 -1.4403
  200SOL    HW2  600   3.187   2.936   0.681 -1.1600  2.6446 -1.4839
  201SOL     OW  601   1.053   0.720   0.551 -0.3196 -0.2225  0.2114
  201SOL    HW1  602   1.059   0.775   0.633  0.5437 -1.5939 -4.5314
  201SOL    HW2  603   0.988   0.641   0.567  2.4748  0.7586 -0.7880
  202SOL     OW  604   0.396   1.104   1.931  0.1129  0.5951  0.5957
  202SOL    HW1  605   0.468   1.041   1.883 -0.6923 -1.0978 -1.6506
  202SOL    HW2  606   0.416   1.100   2.035  1.2707  2.1182  3.0578
  203SOL     OW  607   0.648   0.210   1.470 -0.5916 -0.5245 -0.2451
  203SOL    HW1  608   0.703   0.153   1.402 -0.9986 -0.7832 -1.5647
  203SOL    HW2  609   0.693   0.208   1.564  2.0289  0.9853  0.6644
  204SOL     OW  610   2.118   1.805   2.894 -0.1522 -0.5989  0.2349
  204SOL    HW1  611   2.089   1.706   2.901  2.5378  2.0987  0.0148
  204SOL    HW2  612   2.212   1.821   2.849 -0.4102 -0.7459 -1.9804
  205SOL     OW  613   1.858   1.839   3.021  0.0497 -0.1826  0.1605
  205SOL    HW1  614   1.950   1.828   2.974 -1.9748 -2.2404 -1.7354
  205SOL    HW2  615   1.812   1.929   3.008  1.0521 -0.4468 -1.8616
  206SOL     OW  616   2.462   2.807   0.342 -0.7738  0.0938  0.0641
  206SOL    HW1  617   2.526   2.737   0.386 -0.9173  0.6357 -1.2575
  206SOL    HW2  618   2.517   2.876   0.283 -1.3258  0.2774  0.0251
  207SOL     OW  619   0.700   1.820   2.982 -0.1191 -0.0243 -0.5750
  207SOL    HW1  620   0.767   1.771   2.913  1.3084 -0.1939 -1.0240
  207SOL    HW2  621   0.672   1.755   3.058  2.7407 -1.4988  0.3222
  208SOL     OW  622   1.145   1.567   1.393  0.2387  0.1553 -0.1088
  208SOL    HW1  623   1.066   1.635   1.383  1.3113  1.5570  1.4780
  208SOL    HW2  624   1.206   1.584   1.477  2.8638 -1.6805  1.5260
  209SOL     OW  625   0.252   0.940   3.045 -0.1302 -0.1265 -0.0667
  209SOL    HW1  626   0.228   0.859   2.988  1.5186 -0.7346 -0.3868
  209SOL    HW2  627   0.254   0.920   3.145  1.0297 -0.4323  0.6547
  210SOL     OW  628   1.730   0.476   1.170 -0.1717 -0.5556 -0.5156
  210SOL    HW1  629   1.685   0.571   1.151 -0.8885 -0.0771  0.6738
  210SOL    HW2  630   1.833   0.486   1.161 -3.4740 -0.7903 -0.0109
  211SOL     OW  631   2.109   1.050   1.593  0.3584 -0.0687  0.2720
  211SOL    HW1  632   2.146   1.019   1.685  0.0909 -1.3229 -0.5201
  211SOL    HW2  633   2.169   1.111   1.539  0.6803 -0.8528 -2.0247
  212SOL     OW  634   0.002   0.983   1.503  0.5451 -0.2812 -0.0124
  212SOL    HW1  635   0.088   1.039   1.531 -0.0229  0.4493  3.2730
  212SOL    HW2  636  -0.023   0.917   1.580  0.2653 -2.1510 -0.7541
  213SOL     OW  637   2.810   0.187   0.412  0.0563 -0.5907  0.6211
  213SOL    HW1  638   2.849   0.105   0.366 -0.5403  2.2606 -1.7157
  213SOL    HW2  639   2.781   0.267   0.355 -1.6796  0.7071 -1.8056
  214SOL     OW  640   2.155   0.264   2.307  0.2880  0.6322  0.7081
  214SOL    HW1  641   2.216   0.310   2.377 -1.4946  1.3599  0.1374
  214SOL    HW2  642   2.150   0.164   2.324 -1.3302  3.0796 -0.5702
  215SOL     OW  643   1.573   2.299   2.097  0.4293  0.2551 -0.4904
  215SOL    HW1  644   1.671   2.320   2.082  0.2242  1.5894  0.6984
  215SOL    HW2  645   1.521   2.380   2.138 -2.3244 -2.0289 -0.4992
  216SOL     OW  646   2.176   0.620   0.687  0.4384 -0.1617 -0.0125
  216SOL    HW1  647   2.182   0.518   0.658  0.3433 -1.2369 -1.6036
  216SOL    HW2  648   2.157   0.680   0.600  2.7367 -0.7953 -0.8505
  217SOL     OW  649   0.750   2.776   2.426  0.0828  0.3144  0.0170
  217SOL    HW1  650   0.708   2.688   2.459 -3.2005  0.8913 -2.0929
  217SOL    HW2  651   0.764   2.784   2.326 -1.1347  0.4086  2.6170
  218SOL     OW  652   1.901   1.407   0.026  0.2168 -0.0481 -0.1207
  218SOL    HW1  653   1.800   1.446   0.017  0.1935  2.1066  0.4484
  218SOL    HW2  654   1.912   1.349   0.115 -1.9115  1.8061  4.1807
  219SOL     OW  655   2.436   1.311   2.495 -0.1768  0.3094  0.0756
  219SOL    HW1  656   2.477   1.264   2.412  0.8752  0.6419  1.1476
  219SOL    HW2  657   2.449   1.254   2.578 -0.3802  1.6613 -0.5510
  220SOL     OW  658   1.467   1.052   1.291 -0.2696  0.5446  0.8653
  220SOL    HW1  659   1.564   1.024   1.318  0.4116 -0.9392 -0.2329
  220SOL    HW2  660   1.467   1.085   1.191  2.0386 -0.5154  0.0185
  221SOL     OW  661   1.285   0.991   2.165  0.1316  0.0267 -0.2115
  221SOL    HW1  662   1.254   0.994   2.069  1.7629 -3.5926  0.3638
  221SOL    HW2  663   1.389   1.003   2.165 -0.6577  3.2225  1.6733
  222SOL     OW  664   1.107   0.057   1.203  0.2129  0.6144  0.2975
  222SOL    HW1  665   1.165   0.075   1.289 -0.0897  0.5986 -0.3249
  222SOL    HW2  666   1.127   0.120   1.117  1.2117  2.1203 -2.0666
  223SOL     OW  667   2.732   0.962   2.155 -0.1258  0.0376  0.6702
  223SOL    HW1  668   2.686   1.021   2.226 -1.0306 -0.0190  1.6152
  223SOL    HW2  669   2.833   0.947   2.177 -0.0389  2.1633  1.5372
  224SOL     OW  670   1.503   1.079   2.738  0.3491 -0.3948 -0.6007
  224SOL    HW1  671   1.580   1.020   2.699 -3.0916  1.9983  2.8141
  224SOL    HW2  672   1.460   1.139   2.664  2.4639  0.8792 -2.7698
  225SOL     OW  673   2.934   2.797   2.891 -0.0885  0.3439  0.0512
  225SOL    HW1  674   2.849   2.744   2.873  2.1697  0.0289  1.1760
  225SOL    HW2  675   2.998   2.799   2.813  0.4153 -2.9879 -0.7017
  226SOL     OW  676   2.468   1.612   2.890 -0.3745  0.5831 -0.5705
  226SOL    HW1  677   2.473   1.583   2.793 -2.1190  1.7069 -1.6812
  226SOL    HW2  678   2.396   1.556   2.951 -1.9687  1.6755  2.0923
  227SOL     OW  679   0.869   0.122   0.055  0.0079  0.2608  0.0683
  227SOL    HW1  680   0.944   0.191   0.033  0.9620  2.9369  0.5721
  227SOL    HW2  681   0.803   0.113  -0.027 -3.9822 -0.2561  0.3639
  228SOL     OW  682   2.429   0.608   2.834  0.0581  0.2462  0.1296
  228SOL    HW1  683   2.446   0.682   2.766 -0.6944 -1.9450 -2.3478
  228SOL    HW2  684   2.498   0.531   2.824  0.7884 -4.4405  0.8939
  229SOL     OW  685   0.556   0.463   1.863  0.2809  0.0430 -0.6232
  229SOL    HW1  686   0.543   0.355   1.855  0.8560 -0.6009 -1.5225
  229SOL    HW2  687   0.608   0.489   1.776 -1.3752 -2.1781 -1.1131
  230SOL     OW  688   1.888   1.144   2.094  1.0550 -0.0301 -0.0022
  230SOL    HW1  689   1.967   1.192   2.050  1.1750  0.1233  0.8794
  230SOL    HW2  690   1.812   1.215   2.116 -2.2878  0.1619 -0.0770
  231SOL     OW  691   0.628   1.017   0.051  0.2679 -0.1117  0.2527
  231SOL    HW1  692   0.729   1.039   0.032 -1.0211  0.5301  2.2722
  231SOL    HW2  693   0.576   1.100   0.079 -2.7055  0.4577  0.0377
  232SOL     OW  694   2.412   3.087   2.832  0.3788 -0.5023  0.2201
  232SOL    HW1  695   2.462   2.998   2.858  0.0563 -1.1733  2.1484
  232SOL    HW2  696   2.456   3.130   2.747  0.2304  1.2836  1.1186
  233SOL     OW  697   1.677   1.237   1.116 -0.3385 -0.3110 -0.1343
  233SOL    HW1  698   1.731   1.202   1.036 -1.3669 -1.4960  2.7232
  233SOL    HW2  699   1.692   1.176   1.202 -2.0153  1.8727  0.7955
  234SOL     OW  700   1.554   2.529   1.869  0.1779 -0.3574  0.1479
  234SOL    HW1  701   1.564   2.629   1.900 -3.5564  2.1746  1.2671
  234SOL    HW2  702   1.610   2.459   1.921  1.4041  1.2732 -0.3269
  235SOL     OW  703   0.030   3.039   2.813  0.3355  0.3004 -0.2397
  235SOL    HW1  704  -0.014   3.037   2.720 -0.0311  1.6758  2.3869
  235SOL    HW2  705  -0.042   3.059   2.887 -2.3842  1.9536 -2.3670
  236SOL     OW  706   2.869   0.736   0.094 -0.3840 -0.3119  0.1039
  236SOL    HW1  707   2.948   0.781   0.141 -1.7308  0.6258 -1.9558
  236SOL    HW2  708   2.899   0.660   0.028 -0.8641 -1.1663 -1.3135
  237SOL     OW  709   1.559   1.663   0.974  0.3742 -0.2272 -0.6877
  237SOL    HW1  710   1.665   1.664   0.956  0.0203  2.2007  1.4919
  237SOL    HW2  711   1.531   1.699   1.064 -0.8266  0.8291 -3.2824
  238SOL     OW  712   1.787   1.274   0.841 -0.0682 -0.0304  0.2309
  238SOL    HW1  713   1.860   1.333   0.891  1.2724  0.3059  0.6920
  238SOL    HW2  714   1.718   1.328   0.779  1.1127 -0.6938  1.4824
  239SOL     OW  715   2.099   0.305   2.685  0.1812  0.3837  0.4602
  239SOL    HW1  716   2.134   0.271   2.776 -1.7123  2.3091  0.3103
  239SOL    HW2  717   2.001   0.340   2.692 -0.8044 -0.2919  0.0788
  240SOL     OW  718   0.937   0.656   0.278  0.0389  0.6321 -0.0706
  240SOL    HW1  719   0.974   0.561   0.250 -1.4505  0.6362  1.8510
  240SOL    HW2  720   0.916   0.666   0.379  0.4471  1.0185 -1.8160
  241SOL     OW  721   0.588   0.014   0.388  0.1655 -0.3475  0.0662
  241SOL    HW1  722   0.615   0.096   0.335  0.2709  0.7538 -3.6609
  241SOL    HW2  723   0.592  -0.074   0.330 -0.6028  0.5342 -1.1629
  242SOL     OW  724   0.606   2.516   1.158 -0.3691 -0.0528 -0.2633
  242SOL    HW1  725   0.577   2.509   1.258  0.6182  1.3687 -0.5206
  242SOL    HW2  726   0.648   2.606   1.127  0.2324  0.0393  1.4498
  243SOL     OW  727   1.097   0.645   2.481 -0.4400 -0.3948  0.7904
  243SOL    HW1  728   1.011   0.691   2.438  1.0059  1.6797  0.0472
  243SOL    HW2  729   1.080   0.575   2.554 -0.8829 -0.6199  2.3166
  244SOL     OW  730   2.849   1.901   2.335  0.1777  0.3513  0.3626
  244SOL    HW1  731   2.866   1.882   2.239 -1.8734  3.5333  1.4113
  244SOL    HW2  732   2.761   1.869   2.378  1.3701 -0.6335  1.6261
  245SOL     OW  733   2.308   0.795   2.167  0.2556  0.9567 -0.1350
  245SOL    HW1  734   2.398   0.830   2.200 -2.0890  0.1892 -2.1044
  245SOL    HW2  735   2.251   0.748   2.245 -0.0689 -0.9310 -1.6473
  246SOL     OW  736   0.233   2.910   1.743  0.0871  0.3468 -0.1609
  246SOL    HW1  737   0.176   2.916   1.657  0.9936  1.1950  2.3692
  246SOL    HW2  738   0.318   2.963   1.729 -1.1693  0.0048  2.2470
  247SOL     OW  739   2.249   0.620   3.048 -0.2010  0.2082  0.0239
  247SOL    HW1  740   2.307   0.603   2.961 -6.1544 -0.8949 -4.9640
  247SOL    HW2  741   2.169   0.688   3.028 -3.3281 -0.9636 -1.2733
  248SOL     OW  742   2.155   1.825   1.581 -0.1643 -0.0788  0.4517
  248SOL    HW1  743   2.231   1.780   1.634  2.6063 -0.2455  1.9227
  248SOL    HW2  744   2.068   1.831   1.642 -0.2354  0.7107  0.2683
  249SOL     OW  745   1.854   1.946   1.921  0.0323 -0.2436 -0.3249
  249SOL    HW1  746   1.864   1.898   1.827  0.3210 -2.7398  0.1811
  249SOL    HW2  747   1.940   1.939   1.975 -0.9589  0.1183 -1.6459
  250SOL     OW  748   1.105   0.688   1.885 -0.2276 -0.2545 -0.2424
  250SOL    HW1  749   1.137   0.609   1.947 -1.9832 -0.6071  0.1103
  250SOL    HW2  750   1.046   0.661   1.808  0.2697  2.3646  1.1346
  251SOL     OW  751   0.062   1.599   2.488 -0.0831  0.6087  0.1595
  251SOL    HW1  752   0.031   1.685   2.444  0.5650  0.9839  0.9036
  251SOL    HW2  753  -0.021   1.554   2.529  0.2185  0.5541  1.9969
  252SOL     OW  754   1.575   0.850   1.572  0.8424 -0.1347 -0.2089
  252SOL    HW1  755   1.670   0.817   1.565  1.0688 -0.7713 -0.6820
  252SOL    HW2  756   1.564   0.913   1.651  0.4977  1.2746  1.8207
  253SOL     OW  757   0.988   1.536   0.513  0.7561 -0.2840 -0.6915
  253SOL    HW1  758   0.980   1.462   0.438  1.2854 -2.6880 -1.1824
  253SOL    HW2  759   0.895   1.585   0.537  1.9291 -2.1108 -0.8122
  254SOL     OW  760   2.057   2.163   1.638  0.0102 -0.7586 -0.8167
  254SOL    HW1  761   2.009   2.087   1.586 -1.5542 -0.9270  1.9992
  254SOL    HW2  762   1.990   2.206   1.702 -0.0695 -2.5513 -0.5236
  255SOL     OW  763   0.120   1.125   2.886 -0.3530 -0.4701  0.6301
  255SOL    HW1  764   0.174   1.215   2.892 -0.2423  5.0553 -2.6498
  255SOL    HW2  765   0.170   1.046   2.935  0.4849 -3.8973 -0.8397
  256SOL     OW  766   2.774   1.400   1.782  0.2820  0.6557 -0.0871
  256SOL    HW1  767   2.674   1.407   1.769  1.4966  0.1244  1.3476
  256SOL    HW2  768   2.811   1.305   1.767 -0.1569 -0.4364 -0.7280
  257SOL     OW  769   0.766   0.155   1.764 -0.4728 -0.6606  0.0340
  257SOL    HW1  770   0.840   0.225   1.728  0.7482  0.9686  0.2196
  257SOL    HW2  771   0.798   0.056   1.780  0.4281  0.7277 -1.1200
  258SOL     OW  772   3.011   1.234   0.435  0.6235  0.3170 -0.3016
  258SOL    HW1  773   2.924   1.286   0.416  0.3756 -0.7998 -2.2022
  258SOL    HW2  774   3.061   1.252   0.527 -1.6199 -1.3530  0.1628
  259SOL     OW  775   0.454   2.928   3.051  0.2606 -0.0028  0.2198
  259SOL    HW1  776   0.378   2.879   3.106  0.5281  0.7382 -0.6153
  259SOL    HW2  777   0.461   2.893   2.947  0.4427 -1.1691 -0.9843
  260SOL     OW  778   2.742   0.818   2.804  1.1405 -0.9090  0.0492
  260SOL    HW1  779   2.649   0.821   2.759  0.2121 -0.6256  0.0689
  260SOL    HW2  780   2.726   0.829   2.902 -2.6560 -2.5748 -1.3838
  261SOL     OW  781   2.744   1.367   1.256 -0.5733  0.3737 -0.0004
  261SOL    HW1  782   2.715   1.301   1.179 -0.0696 -0.5457  0.8658
  261SOL    HW2  783   2.851   1.373   1.276 -0.5889 -0.4326  0.1543
  262SOL     OW  784   1.394   2.974   1.992 -0.5255 -0.3054 -0.7388
  262SOL    HW1  785   1.444   3.045   1.931 -2.8900  0.2567 -1.6106
  262SOL    HW2  786   1.325   2.911   1.951  0.3949 -0.6089  1.1029
  263SOL     OW  787   0.846   0.696   2.365 -0.0452  0.2642 -0.1777
  263SOL    HW1  788   0.795   0.618   2.330  3.0287  0.9645 -1.5021
  263SOL    HW2  789   0.900   0.738   2.288  0.9386 -3.5207 -0.1399
  264SOL     OW  790   2.196   0.832   0.466 -0.5253  0.0594  0.3125
  264SOL    HW1  791   2.268   0.784   0.409  2.4314  2.5790  2.1318
  264SOL    HW2  792   2.238   0.920   0.488  0.6890 -2.3209 -0.3969
  265SOL     OW  793   0.955   2.416   2.593 -0.0168  0.5388 -0.5705
  265SOL    HW1  794   0.991   2.461   2.683  1.3274  1.8916  2.2559
  265SOL    HW2  795   0.926   2.320   2.610 -0.5742 -0.2869  1.3470
  266SOL     OW  796   1.298   1.747   0.016 -0.0223  0.6247 -0.1897
  266SOL    HW1  797   1.306   1.828   0.074  1.0007 -1.8540 -0.7001
  266SOL    HW2  798   1.380   1.727  -0.040 -1.7428 -2.0015 -1.6225
  267SOL     OW  799   1.018   3.094   2.342 -0.2467  0.5162 -0.6122
  267SOL    HW1  800   0.998   3.024   2.265  1.1571  1.7770  0.2061
  267SOL    HW2  801   0.947   3.173   2.340 -1.5510  0.0999 -1.7764
  268SOL     OW  802   0.603   1.184   1.027  0.5545 -0.5134  0.3998
  268SOL    HW1  803   0.631   1.238   1.113 -3.7367 -2.1134 -1.3795
  268SOL    HW2  804   0.600   1.236   0.938 -2.4182  2.0098 -0.1471
  269SOL     OW  805   2.338   2.555   1.600 -0.3899  0.2438  0.2119
  269SOL    HW1  806   2.403   2.477   1.602 -0.8920  1.3441 -0.2242
  269SOL    HW2  807   2.315   2.594   1.691 -0.7499 -3.5579 -0.0691
  270SOL     OW  808   0.178   2.921   2.008 -0.1347  0.2012 -0.0338
  270SOL    HW1  809   0.191   2.907   1.907  3.1989 -1.5989  0.7355
  270SOL    HW2  810   0.107   2.859   2.047 -0.5640 -0.8948 -0.8695
  271SOL     OW  811   0.410   1.415   1.189 -0.2108  0.4141 -0.0097
  271SOL    HW1  812   0.377   1.377   1.101  1.6852  0.9333  0.3374
  271SOL    HW2  813   0.347   1.400   1.268  0.0217  1.0482  0.2792
  272SOL     OW  814   1.994   2.884   1.945 -0.5542  0.2323 -0.6158
  272SOL    HW1  815   1.913   2.863   1.878  2.7755  0.1186  1.1513
  272SOL    HW2  816   2.059   2.950   1.908  0.4196 -0.1554  2.5170
  273SOL     OW  817   1.495   1.412   2.717 -0.1982  0.1682  0.3452
  273SOL    HW1  818   1.394   1.438   2.737 -0.5158 -1.2655 -1.6883
  273SOL    HW2  819   1.542   1.359   2.796  0.0039 -1.7934 -0.2054
  274SOL     OW  820   1.182   0.489   2.072 -0.2013 -0.1209  0.0543
  274SOL    HW1  821   1.131   0.404   2.044 -0.9039  1.3083 -0.2328
  274SOL    HW2  822   1.223   0.472   2.169  0.3703 -0.8720  0.9042
  275SOL     OW  823   0.621   2.078   1.889  0.2718 -0.1055 -0.1822
  275SOL    HW1  824   0.565   2.160   1.930 -4.0721  0.3445  0.6884
  275SOL    HW2  825   0.553   2.007   1.851  0.4290  0.5370 -1.9148
  276SOL     OW  826   2.197   0.986   2.734 -0.0141  0.7110 -0.6736
  276SOL    HW1  827   2.107   0.998   2.686  1.7335  2.0911  2.0150
  276SOL    HW2  828   2.188   0.919   2.812 -2.5293 -0.2077  0.8454
  277SOL     OW  829   3.088   0.857   0.225  0.0722 -0.9849  0.1553
  277SOL    HW1  830   3.174   0.913   0.224 -0.4474 -2.2073  0.6118
  277SOL    HW2  831   3.086   0.783   0.296  0.3652 -1.3940 -2.9409
  278SOL     OW  832   0.259   0.281   3.047  0.0148  0.5847 -0.5279
  278SOL    HW1  833   0.324   0.203   3.014  2.0327  0.9599 -0.2250
  278SOL    HW2  834   0.295   0.348   3.115 -2.3722 -0.3436 -1.8024
  279SOL     OW  835   0.189   0.073   0.870 -0.4358  0.5952 -0.3307
  279SOL    HW1  836   0.150  -0.005   0.928 -1.3362  1.9169  1.6870
  279SOL    HW2  837   0.191   0.050   0.770 -2.2522 -1.5270  1.1994
  280SOL     OW  838   1.603   2.923   2.407  0.0561 -0.7977 -0.5638
  280SOL    HW1  839   1.635   2.954   2.499 -0.8755 -1.2128 -1.1590
  280SOL    HW2  840   1.528   2.981   2.366  1.8280 -0.8904  1.9362
  281SOL     OW  841   0.552   0.968   2.229 -0.3268 -0.7875  0.3887
  281SOL    HW1  842   0.575   0.886   2.166  0.7473  0.3495  0.1906
  281SOL    HW2  843   0.501   0.947   2.315  0.1948  0.3881  0.7197
  282SOL     OW  844   1.774   2.498   0.514  0.2552  0.3123 -0.0968
  282SOL    HW1  845   1.725   2.420   0.466  0.0886 -1.9719  2.1671
  282SOL    HW2  846   1.713   2.576   0.538 -0.6390  0.0215  0.4113
  283SOL     OW  847   1.192   0.932   0.840  0.7774  0.2353 -0.1639
  283SOL    HW1  848   1.202   0.865   0.914  2.4714  1.3739  1.4359
  283SOL    HW2  849   1.105   0.983   0.847 -1.9746 -5.3993  1.1563
  284SOL     OW  850   2.283   2.793   2.536 -0.4471  0.2416 -0.2176
  284SOL    HW1  851   2.388   2.778   2.531 -1.2647  1.8780 -1.3102
  284SOL    HW2  852   2.245   2.819   2.625  0.1864 -1.0541  2.4430
  285SOL     OW  853   1.331   3.031   2.570  0.1735 -0.2180  0.0615
  285SOL    HW1  854   1.340   3.023   2.466 -0.2131 -0.1160  1.0216
  285SOL    HW2  855   1.237   3.037   2.592  1.0205 -0.8126 -1.0114
  286SOL     OW  856   0.457   0.434   0.723 -0.3211 -0.3570  0.2052
  286SOL    HW1  857   0.415   0.395   0.811  1.1944 -1.7258 -1.0115
  286SOL    HW2  858   0.436   0.373   0.635 -1.0446 -2.5186 -0.0509
  287SOL     OW  859   0.101   1.295   2.498  0.0262 -0.1555  0.0807
  287SOL    HW1  860   0.025   1.228   2.526  1.3623  3.9159  0.4681
  287SOL    HW2  861   0.080   1.391   2.512 -2.7140 -1.5080  1.6796
  288SOL     OW  862   1.616   2.641   1.626  0.1001  0.1065  0.3292
  288SOL    HW1  863   1.583   2.573   1.699 -1.0931 -2.0190  0.2909
  288SOL    HW2  864   1.647   2.593   1.547  0.2365  5.1332 -1.1637
  289SOL     OW  865   0.634   2.723   0.904 -0.2891  0.1870 -0.4638
  289SOL    HW1  866   0.694   2.761   0.830  0.3452 -0.6408  1.0033
  289SOL    HW2  867   0.615   2.790   0.984  0.0939 -0.8315  1.7653
  290SOL     OW  868   2.818   1.108   1.735  0.1278  0.1890  1.1701
  290SOL    HW1  869   2.730   1.063   1.756 -0.4859  0.1376 -0.2986
  290SOL    HW2  870   2.887   1.076   1.805 -0.5495 -1.3618 -0.9059
  291SOL     OW  871   1.999   0.027   0.025 -0.2972 -0.7782 -0.2464
  291SOL    HW1  872   2.000   0.071   0.118  2.3042 -0.0182 -0.1343
  291SOL    HW2  873   2.060   0.086  -0.037  3.3666  1.4328 -1.6120
  292SOL     OW  874   2.990   1.168   3.089  0.3281  0.6176  0.5327
  292SOL    HW1  875   2.923   1.215   3.029  0.9206 -0.7922  1.7034
  292SOL    HW2  876   3.069   1.133   3.039 -1.4446  0.4590  1.5603
  293SOL     OW  877   0.543   2.140   0.220 -0.2350 -0.1480  0.6838
  293SOL    HW1  878   0.484   2.184   0.290 -1.0527 -2.4848 -1.5439
  293SOL    HW2  879   0.623   2.090   0.262  2.6878 -2.9593 -0.0373
  294SOL     OW  880   1.834   2.279   1.773 -0.1669  0.3068 -0.3143
  294SOL    HW1  881   1.831   2.325   1.869 -0.8419  2.5783  0.7851
  294SOL    HW2  882   1.792   2.340   1.704 -0.4914  1.0042  2.7561
  295SOL     OW  883   0.983   1.075   0.423 -0.5016  0.4808 -0.5269
  295SOL    HW1  884   1.075   1.058   0.464  2.9064 -0.9157  0.1678
  295SOL    HW2  885   0.910   1.069   0.496 -0.5969 -0.9906 -1.3923
  296SOL     OW  886   1.160   2.127   2.581 -0.2497  0.3773  0.5622
  296SOL    HW1  887   1.056   2.142   2.579  0.2862 -0.6410  1.1275
  296SOL    HW2  888   1.179   2.037   2.532  1.7407 -1.0055 -2.2379
  297SOL     OW  889   1.404   0.617   1.353 -0.2739  0.2936  0.0967
  297SOL    HW1  890   1.404   0.526   1.410  2.7714  0.2949  4.0932
  297SOL    HW2  891   1.497   0.655   1.351 -1.6555 -0.4676 -2.3030
  298SOL     OW  892   0.516   1.319   2.999 -0.3537  0.4201  0.0665
  298SOL    HW1  893   0.478   1.264   3.073  1.2842  0.1604 -3.6416
  298SOL    HW2  894   0.526   1.261   2.907  0.1396 -0.5691 -2.9834
  299SOL     OW  895   0.465   0.291   1.233 -0.1980  0.4599 -0.7156
  299SOL    HW1  896   0.436   0.385   1.257  0.0305  0.8985  0.0673
  299SOL    HW2  897   0.542   0.249   1.294  0.3577 -2.3688  1.5754
  300SOL     OW  898   1.239   1.772   2.708  0.7483 -0.2870 -0.3032
  300SOL    HW1  899   1.232   1.667   2.699  1.5303 -3.7326 -1.6328
  300SOL    HW2  900   1.336   1.801   2.718  0.6441 -2.4766 -1.6897
  301SOL     OW  901   0.418   0.284   0.479 -0.5585 -0.1697 -0.0513
  301SOL    HW1  902   0.320   0.253   0.488 -1.4210  0.1779 -1.2656
  301SOL    HW2  903   0.480   0.204   0.478  0.9344  2.1508  0.1220
  302SOL     OW  904   1.275   2.420   2.361 -0.2300 -0.3974  0.7317
  302SOL    HW1  905   1.191   2.477   2.370  1.4615 -1.5722 -2.9832
  302SOL    HW2  906   1.264   2.318   2.388 -1.2122 -2.7095  1.8436
  303SOL     OW  907   0.942   2.395   0.799  0.2048 -0.2555  0.2096
  303SOL    HW1  908   1.008   2.425   0.723 -0.8196  0.6142  0.0035
  303SOL    HW2  909   0.955   2.451   0.884  0.6737 -0.3044 -1.4976
  304SOL     OW  910   0.066   1.943   0.655  0.5080  0.0270  0.5522
  304SOL    HW1  911   0.136   1.946   0.581  0.7472  0.7675 -0.1320
  304SOL    HW2  912  -0.010   2.010   0.634  2.6191  0.6340 -2.0302
  305SOL     OW  913   1.570   0.849   0.616 -0.0285 -0.5678  0.5676
  305SOL    HW1  914   1.545   0.852   0.514  3.9713 -0.8405  0.9395
  305SOL    HW2  915   1.610   0.752   0.637  1.6866 -2.2223  2.5929
  306SOL     OW  916   0.395   1.857   1.902  0.2237  0.6445 -0.4417
  306SOL    HW1  917   0.485   1.821   1.873  1.2705 -1.0232 -0.4725
  306SOL    HW2  918   0.397   1.899   1.997 -1.7979  0.1963  0.8707
  307SOL     OW  919   3.034   0.896   2.488  0.2610 -0.0056  0.5672
  307SOL    HW1  920   3.050   0.970   2.558 -2.2115  0.0376  0.0301
  307SOL    HW2  921   2.961   0.823   2.512  0.7653 -1.3081 -3.0887
  308SOL     OW  922   1.545   2.678   2.815 -0.0681 -0.4669 -0.4992
  308SOL    HW1  923   1.557   2.615   2.736 -1.6983  2.2276 -0.6578
  308SOL    HW2  924   1.484   2.646   2.891  1.2700 -0.2723  1.5298
  309SOL     OW  925   1.292   0.200   1.747  0.3768 -0.4034  0.4263
  309SOL    HW1  926   1.369   0.149   1.797 -0.8499  0.3272  0.4454
  309SOL    HW2  927   1.234   0.144   1.687 -1.4844  2.2074 -0.0673
  310SOL     OW  928   1.513   2.565   0.696  0.6760  0.5885 -0.0664
  310SOL    HW1  929   1.494   2.582   0.797  0.3133  0.8710  2.4018
  310SOL    HW2  930   1.567   2.639   0.654 -1.0566 -1.3428 -1.5714
  311SOL     OW  931   1.171   0.934   1.667 -0.3247 -0.5005  0.3073
  311SOL    HW1  932   1.138   0.838   1.690 -1.6337 -0.9705 -0.2039
  311SOL    HW2  933   1.233   0.937   1.582  2.6627 -0.8929 -0.2027
  312SOL     OW  934   1.630   0.718   1.133 -1.0499  0.4416 -0.1148
  312SOL    HW1  935   1.677   0.807   1.129 -1.2664 -0.1730  0.4546
  312SOL    HW2  936   1.552   0.711   1.071 -1.3849  0.0696 -1.3011
  313SOL     OW  937   1.569   1.388   0.706 -0.0599  0.3425  0.1601
  313SOL    HW1  938   1.498   1.457   0.753 -0.9599  2.3196 -2.0946
  313SOL    HW2  939   1.528   1.312   0.652 -1.4257  0.8267 -0.3003
  314SOL     OW  940   2.941   0.028   3.007  0.3441  0.3778  0.4046
  314SOL    HW1  941   2.966   0.054   3.105  2.1561  2.4225 -1.7492
  314SOL    HW2  942   2.851  -0.024   2.986  1.5474 -1.4933  0.9804
  315SOL     OW  943   1.152   0.210   2.799 -0.4688  0.5051  0.9018
  315SOL    HW1  944   1.093   0.147   2.740 -2.4382  0.5275  1.2885
  315SOL    HW2  945   1.196   0.156   2.874  0.9073 -3.1366  0.1157
  316SOL     OW  946   1.760   2.045   0.920  0.3766  0.5556  0.8585
  316SOL    HW1  947   1.730   2.078   1.018 -0.5709  2.0124  2.2214
  316SOL    HW2  948   1.754   2.121   0.852  1.4145 -2.4029  0.1201
  317SOL     OW  949   1.170   0.669   2.849  0.5176  0.8090 -0.8694
  317SOL    HW1  950   1.126   0.715   2.933  2.2765 -0.0663 -1.9618
  317SOL    HW2  951   1.099   0.602   2.804 -3.1928 -1.0705 -0.9821
  318SOL     OW  952   1.381   3.032   2.299  0.1933  0.2759 -0.7301
  318SOL    HW1  953   1.376   3.135   2.287  1.6253  1.1513  0.8228
  318SOL    HW2  954   1.376   2.989   2.206  0.6069 -0.1846 -0.0249
  319SOL     OW  955   0.601   2.416   2.948 -0.3998 -0.0498  0.0318
  319SOL    HW1  956   0.542   2.384   3.024  0.9299  1.6747  0.6545
  319SOL    HW2  957   0.682   2.356   2.930 -3.3384 -0.8632  0.5151
  320SOL     OW  958   1.667   2.256   0.425 -0.0432 -0.1118 -0.8218
  320SOL    HW1  959   1.741   2.194   0.398 -1.2601  4.4483  0.0960
  320SOL    HW2  960   1.579   2.201   0.445 -1.2346 -3.2787  0.6081
  321SOL     OW  961   1.651   2.792   0.555  0.4813 -0.3479  0.6042
  321SOL    HW1  962   1.573   2.810   0.483 -0.2816 -0.7533  1.4654
  321SOL    HW2  963   1.748   2.807   0.523 -0.1327 -1.0453  2.3024
  322SOL     OW  964   2.577   1.138   2.330 -0.2454  0.1504  0.1088
  322SOL    HW1  965   2.631   1.178   2.410 -0.9052  1.8219  1.2872
  322SOL    HW2  966   2.546   1.041   2.343  0.3804 -1.6761  2.3846
  323SOL     OW  967   1.194   2.693   0.849  0.1248  0.1110  0.4063
  323SOL    HW1  968   1.179   2.664   0.751  0.4030 -0.7011  3.5602
  323SOL    HW2  969   1.148   2.782   0.876  2.0359 -0.1838 -0.0929
  324SOL     OW  970   0.265   2.423   2.485  0.0829 -0.4107 -0.0060
  324SOL    HW1  971   0.304   2.376   2.566 -1.2169  2.4748 -1.7773
  324SOL    HW2  972   0.244   2.521   2.512  0.0776 -2.4093 -0.2948
  325SOL     OW  973   1.265   3.048   0.453  0.1121  0.0495 -0.3133
  325SOL    HW1  974   1.270   3.104   0.368 -1.7956 -3.4842  1.1020
  325SOL    HW2  975   1.300   3.099   0.536 -1.1333  1.5758 -2.6925
  326SOL     OW  976   2.464   0.790   0.007 -0.3572 -0.4190  0.2493
  326SOL    HW1  977   2.378   0.738  -0.015  1.3135  1.9172  0.6669
  326SOL    HW2  978   2.549   0.731   0.021 -0.1671  1.6596  1.6143
  327SOL     OW  979   2.834   0.315   0.627 -0.2789 -0.2479 -0.7294
  327SOL    HW1  980   2.826   0.242   0.550 -0.6388  0.0876  1.0405
  327SOL    HW2  981   2.858   0.253   0.712 -2.1354 -3.4682  0.2376
  328SOL     OW  982   2.611   0.553   0.394 -0.3943  0.2552 -0.2439
  328SOL    HW1  983   2.555   0.641   0.416  0.3592 -0.8222  1.0446
  328SOL    HW2  984   2.608   0.485   0.476  0.4163 -0.6339  1.2208
  329SOL     OW  985   2.963   2.968   2.145 -0.0123 -0.2838  0.4572
  329SOL    HW1  986   3.046   2.920   2.193  0.8259 -0.0306  0.5083
  329SOL    HW2  987   2.951   3.066   2.179  1.9683  0.0791  1.2707
  330SOL     OW  988   0.518   0.197   1.902 -0.1962  0.3455 -0.0291
  330SOL    HW1  989   0.614   0.178   1.866  3.0713 -0.0341  1.9368
  330SOL    HW2  990   0.503   0.195   2.005  2.2648  4.1912  1.3357
  331SOL     OW  991   2.975   1.947   1.114 -0.0787  0.0830 -0.8472
  331SOL    HW1  992   2.977   2.019   1.041  0.7740  0.5718 -1.4572
  331SOL    HW2  993   2.912   1.958   1.198  1.5814  1.8339 -1.3426
  332SOL     OW  994   0.392   1.159   0.079  0.4794  0.0288  0.2791
  332SOL    HW1  995   0.366   1.078   0.012 -2.4266  2.1472 -2.3596
  332SOL    HW2  996   0.333   1.170   0.162  2.6519  2.3778 -0.5018
  333SOL     OW  997   2.886   1.029   0.298  0.3180  0.4861 -0.7095
  333SOL    HW1  998   2.926   1.090   0.367  0.2994 -2.7748  0.0261
  333SOL    HW2  999   2.962   0.974   0.256 -1.8154  3.0511 -2.3986
  334SOL     OW 1000   1.697   1.255   1.823  0.3501  0.3157 -0.2270
  334SOL    HW1 1001   1.786   1.287   1.773  1.7403  0.5912 -1.5430
  334SOL    HW2 1002   1.692   1.274   1.928  0.6410  0.8648  1.0331
  335SOL     OW 1003   1.989   2.704   2.589  0.2697 -0.1183  0.2484
  335SOL    HW1 1004   1.905   2.735   2.640  0.3245  0.0774  1.2745
  335SOL    HW2 1005   2.051   2.784   2.580  1.2640 -0.7206  0.2065
  336SOL     OW 1006   0.232   0.108   2.727 -0.4032 -0.6457 -0.3940
  336SOL    HW1 1007   0.293   0.132   2.810  0.5411 -0.1369 -0.3169
  336SOL    HW2 1008   0.146   0.061   2.758  0.3448 -2.4179 -1.5948
  337SOL     OW 1009   0.974   2.884   2.858  0.6241  0.1708  0.0169
  337SOL    HW1 1010   0.958   2.796   2.912  0.7089  0.7200 -3.3705
  337SOL    HW2 1011   1.014   2.962   2.913  1.4938 -0.6879 -0.4640
  338SOL     OW 1012   0.050   1.010   0.641 -0.1485  0.0840  0.0099
  338SOL    HW1 1013  -0.051   0.978   0.655  0.1812  1.6430  1.6662
  338SOL    HW2 1014   0.059   1.115   0.651 -1.6339 -0.9374  3.6009
  339SOL     OW 1015   1.692   1.351   2.102  0.5313 -0.0875 -0.2579
  339SOL    HW1 1016   1.607   1.327   2.155 -1.9480 -0.7443  0.7488
  339SOL    HW2 1017   1.731   1.440   2.147  1.5649  1.7449  3.2741
  340SOL     OW 1018   2.319   0.809   1.116 -0.4628 -0.0834  0.5257
  340SOL    HW1 1019   2.215   0.817   1.099 -0.5386 -0.0586 -0.2748
  340SOL    HW2 1020   2.366   0.730   1.076 -1.0180  1.4348  0.9545
  341SOL     OW 1021   1.891   2.100   0.284  0.3242 -0.2748 -0.3855
  341SOL    HW1 1022   1.928   2.148   0.198  1.3514  2.1413  0.7977
  341SOL    HW2 1023   1.968   2.083   0.352  1.7501  0.7170  3.0251
  342SOL     OW 1024   2.250   2.116   2.796 -0.9217 -0.4750  0.3022
  342SOL    HW1 1025   2.281   2.029   2.843  0.1447  0.2368 -0.7878
  342SOL    HW2 1026   2.158   2.100   2.753  1.1064  0.4651  1.5824
  343SOL     OW 1027   0.357   0.827   2.750  0.2068  0.1780 -0.1077
  343SOL    HW1 1028   0.350   0.837   2.651  1.3452 -2.5851  0.8757
  343SOL    HW2 1029   0.451   0.844   2.794  2.1171 -0.7950  2.1377
  344SOL     OW 1030   1.932   1.444   0.427  0.2917  0.5177  0.0971
  344SOL    HW1 1031   1.923   1.369   0.354  0.0943 -0.7081  0.7578
  344SOL    HW2 1032   1.836   1.475   0.455 -0.5392  0.9220 -2.3519
  345SOL     OW 1033   1.397   2.237   2.924  0.0950  0.2646  0.0631
  345SOL    HW1 1034   1.299   2.209   2.920  0.9319  0.3399 -3.2012
  345SOL    HW2 1035   1.456   2.169   2.872 -1.3348  0.0425 -0.2370
  346SOL     OW 1036   2.349   0.890   1.390  0.0028  0.1485  0.4580
  346SOL    HW1 1037   2.322   0.983   1.427  0.3731  0.7525  0.4253
  346SOL    HW2 1038   2.290   0.870   1.303 -1.6696 -0.8036  1.2289
  347SOL     OW 1039   0.737   2.740   1.586 -0.2066 -0.3665  0.4077
  347SOL    HW1 1040   0.698   2.719   1.680  2.6752 -0.3918 -0.4845
  347SOL    HW2 1041   0.679   2.810   1.536 -0.0713  1.7134  0.1619
  348SOL     OW 1042   0.195   0.701   2.912 -0.7981  0.2151 -0.1517
  348SOL    HW1 1043   0.100   0.678   2.875  2.4445 -0.7198  3.3561
  348SOL    HW2 1044   0.248   0.753   2.840 -5.0485  0.2894 -1.3198
  349SOL     OW 1045   1.851   0.467   2.807  0.0026  0.1828 -0.2862
  349SOL    HW1 1046   1.869   0.537   2.733 -0.0275 -1.1187  0.6863
  349SOL    HW2 1047   1.852   0.503   2.909 -0.3883 -0.9511  0.2902
  350SOL     OW 1048   1.665   0.426   0.388 -0.1281 -0.1839  0.0879
  350SOL    HW1 1049   1.736   0.433   0.464  1.8848  1.5193 -0.4506
  350SOL    HW2 1050   1.639   0.519   0.346 -0.1751  2.0366 -0.7701
  351SOL     OW 1051   0.988   0.796   2.154 -0.6950 -0.3545 -0.0303
  351SOL    HW1 1052   1.017   0.897   2.163  3.5620 -0.8040 -0.1408
  351SOL    HW2 1053   1.004   0.755   2.062 -1.2397  1.7692 -0.4537
  352SOL     OW 1054   1.998   1.298   0.658  0.6790  0.0101 -0.2134
  352SOL    HW1 1055   1.974   1.358   0.572  3.3755  1.6376 -3.1705
  352SOL    HW2 1056   1.923   1.252   0.709  2.5333 -2.5653 -0.5317
  353SOL     OW 1057   2.154   2.774   1.092  0.5959 -0.1081 -0.4030
  353SOL    HW1 1058   2.238   2.739   1.150  2.6614  1.3982  1.5083
  353SOL    HW2 1059   2.071   2.708   1.079 -1.7335  0.3881 -0.3378
  354SOL     OW 1060   0.252   1.358   2.897  0.2065 -0.3876  0.0875
  354SOL    HW1 1061   0.248   1.447   2.844  1.0252  1.5349 -0.3709
  354SOL    HW2 1062   0.346   1.347   2.932  0.0992  1.2659 -0.2551
  355SOL     OW 1063   0.711   1.589   0.591 -0.2878  0.4271  0.3613
  355SOL    HW1 1064   0.676   1.569   0.690 -1.3439 -1.6140  0.8218
  355SOL    HW2 1065   0.719   1.504   0.533 -0.6798 -0.2085 -1.2385
  356SOL     OW 1066   0.827   0.340   2.055 -0.8753  0.1828 -0.1704
  356SOL    HW1 1067   0.914   0.277   2.043  4.7418 -1.0237 -0.6971
  356SOL    HW2 1068   0.804   0.389   1.969 -0.4887  1.0158 -1.7282
  357SOL     OW 1069   1.005   1.352   0.342  0.0194  0.5883  0.5516
  357SOL    HW1 1070   1.105   1.365   0.325  1.2438 -0.2813 -1.4878
  357SOL    HW2 1071   0.985   1.254   0.365  0.1100 -0.1382 -1.5946
  358SOL     OW 1072   1.684   1.521   0.492  0.1442  0.8717 -0.1110
  358SOL    HW1 1073   1.648   1.477   0.577  0.2616  2.7725 -1.1593
  358SOL    HW2 1074   1.655   1.481   0.403  3.4967 -0.5649  3.4086
  359SOL     OW 1075   1.568   2.634   0.205  0.3991  0.0064 -0.1858
  359SOL    HW1 1076   1.525   2.545   0.172  0.0574  3.0900  1.3763
  359SOL    HW2 1077   1.506   2.684   0.270  0.1372  2.4585  2.2904
  360SOL     OW 1078   0.803   0.576   0.539 -0.8483  0.3840 -0.3629
  360SOL    HW1 1079   0.703   0.584   0.512  2.2638 -0.8985  0.1998
  360SOL    HW2 1080   0.830   0.482   0.577  0.5505  2.2253 -0.4579
  361SOL     OW 1081   1.219   1.299   0.688  0.4939 -0.0710 -0.3144
  361SOL    HW1 1082   1.275   1.361   0.749  0.3848 -1.6740 -1.9820
  361SOL    HW2 1083   1.119   1.315   0.705  2.0101 -0.9471 -0.7053
  362SOL     OW 1084   1.410   1.836   0.828  0.0652  0.0281  0.2399
  362SOL    HW1 1085   1.454   1.771   0.897 -1.1843 -0.4319 -0.3527
  362SOL    HW2 1086   1.478   1.871   0.755 -0.8550 -0.1920 -0.4036
  363SOL     OW 1087   1.219   1.290   2.042 -0.0170  0.8676 -0.0595
  363SOL    HW1 1088   1.302   1.344   2.080 -1.0974 -1.1289  3.0726
  363SOL    HW2 1089   1.167   1.350   1.972 -0.3028  0.3177  1.0405
  364SOL     OW 1090   0.505   2.342   1.997  0.6950 -0.0500 -0.4083
  364SOL    HW1 1091   0.416   2.391   2.028  0.7634 -1.6347 -0.4667
  364SOL    HW2 1092   0.528   2.369   1.901 -1.1754  0.5632  0.9754
  365SOL     OW 1093   1.002   1.949   1.362 -0.2662  0.5932 -0.5488
  365SOL    HW1 1094   0.907   1.989   1.379  0.5442  0.8123 -0.4786
  365SOL    HW2 1095   1.045   1.960   1.265  0.5334 -1.6592 -1.1052
  366SOL     OW 1096   2.837   1.992   0.391  0.1792 -0.6080  0.2780
  366SOL    HW1 1097   2.742   1.961   0.431 -1.3040  0.8260 -1.0668
  366SOL    HW2 1098   2.879   1.910   0.343 -2.4935  0.2238  0.6301
  367SOL     OW 1099   0.877   1.100   0.047 -0.1526 -0.0972 -0.6706
  367SOL    HW1 1100   0.903   1.021   0.110 -0.4641  0.0961 -1.5581
  367SOL    HW2 1101   0.961   1.155   0.027 -0.3069 -1.8117  0.5800
  368SOL     OW 1102   1.453   0.581   0.694 -0.4631  0.0119 -0.0397
  368SOL    HW1 1103   1.412   0.622   0.610  2.4903  2.5754  0.7132
  368SOL    HW2 1104   1.553   0.583   0.676 -3.0667  2.7101 -4.6224
  369SOL     OW 1105   0.356   1.690   0.064  0.4068  0.1711  0.1552
  369SOL    HW1 1106   0.401   1.763   0.121  3.5724 -1.7800  1.6554
  369SOL    HW2 1107   0.276   1.642   0.114 -3.7265  0.3322 -1.1070
  370SOL     OW 1108   0.447   2.054   0.989 -0.4768 -0.0187  0.3767
  370SOL    HW1 1109   0.462   2.158   0.978 -2.1474 -0.9152 -1.4461
  370SOL    HW2 1110   0.342   2.030   0.977 -2.4827 -1.5851  1.7257
  371SOL     OW 1111   2.940   2.211   2.641  0.1907  0.1337 -0.1684
  371SOL    HW1 1112   2.869   2.155   2.697  0.6820  1.1149  0.4283
  371SOL    HW2 1113   3.023   2.230   2.699 -0.7084 -1.1917 -2.6673
  372SOL     OW 1114   1.087   2.014   1.061 -0.8972 -0.3808 -0.2616
  372SOL    HW1 1115   1.018   2.055   0.996 -1.5120  2.4334  0.1239
  372SOL    HW2 1116   1.177   2.064   1.062 -1.0338  3.0631  0.9731
  373SOL     OW 1117   2.006   1.967   0.842 -0.2983 -0.3890 -0.1640
  373SOL    HW1 1118   2.079   1.963   0.913  1.3985 -0.7867 -1.8887
  373SOL    HW2 1119   1.922   2.004   0.889 -0.3880 -0.8053 -1.9524
  374SOL     OW 1120   1.876   0.386   0.570 -0.3127  0.3292  0.1682
  374SOL    HW1 1121   1.858   0.333   0.660  2.5792  0.0878 -0.4350
  374SOL    HW2 1122   1.978   0.399   0.556  5.2001 -1.2574  1.3805
  375SOL     OW 1123   2.365   2.166   1.092 -0.1225 -0.7205 -0.0325
  375SOL    HW1 1124   2.414   2.163   1.000  0.0569 -2.9246  0.5697
  375SOL    HW2 1125   2.417   2.112   1.169 -1.1861  0.7905  3.0926
  376SOL     OW 1126   3.095   0.575   1.489  0.4255 -0.3543 -0.0078
  376SOL    HW1 1127   3.080   0.646   1.563  0.9092  0.6399  1.5644
  376SOL    HW2 1128   3.015   0.514   1.481  0.3686  1.6256  1.1053
  377SOL     OW 1129   2.203   2.909   0.300  0.1198  0.2735 -0.3808
  377SOL    HW1 1130   2.177   3.002   0.338  1.5965 -1.2556 -0.1412
  377SOL    HW2 1131   2.296   2.873   0.326 -0.7829 -1.9915  0.1792
  378SOL     OW 1132   1.839   1.855   2.622 -0.6080  0.1322  0.5345
  378SOL    HW1 1133   1.850   1.808   2.712 -0.4052 -2.9560 -2.9159
  378SOL    HW2 1134   1.865   1.788   2.552  0.6403  1.8821 -0.1553
  379SOL     OW 1135   0.705   0.122   2.884 -0.3669 -0.3663 -0.7461
  379SOL    HW1 1136   0.677   0.036   2.827  2.0408  0.9445 -1.2596
  379SOL    HW2 1137   0.754   0.196   2.834 -0.1464 -0.1028  2.3814
  380SOL     OW 1138   1.504   1.144   0.603  0.0565 -0.0574  0.4420
  380SOL    HW1 1139   1.402   1.159   0.604 -0.3607  1.1704 -1.6021
  380SOL    HW2 1140   1.536   1.048   0.618 -0.2132  2.9400  1.0674
  381SOL     OW 1141   1.369   1.166   1.531 -0.0506 -0.0499 -0.8592
  381SOL    HW1 1142   1.386   1.125   1.438 -1.6923 -0.8737  0.6445
  381SOL    HW2 1143   1.448   1.149   1.600 -2.1569 -0.4135  1.3741
  382SOL     OW 1144   1.769   0.846   0.183  0.2661  0.6035  0.0613
  382SOL    HW1 1145   1.815   0.841   0.087  1.6420  0.7224 -0.7919
  382SOL    HW2 1146   1.832   0.899   0.250  1.1167  0.7474  1.1116
  383SOL     OW 1147   2.604   1.001   1.468 -0.0772  0.5690  0.0241
  383SOL    HW1 1148   2.510   0.985   1.439 -0.0586  2.5012 -2.9599
  383SOL    HW2 1149   2.673   0.974   1.397 -1.7198 -1.1483  1.3987
  384SOL     OW 1150   0.939   2.288   0.140  1.0846  0.2342 -0.5467
  384SOL    HW1 1151   0.947   2.363   0.212 -1.1179  0.1826  1.7235
  384SOL    HW2 1152   0.901   2.201   0.183  1.3696 -2.1613 -0.3437
  385SOL     OW 1153   3.043   2.048   1.647  0.1573 -0.1007  0.0159
  385SOL    HW1 1154   3.130   2.100   1.661 -4.0865 -0.0546 -1.5697
  385SOL    HW2 1155   3.062   1.948   1.661  1.2019 -0.3060 -3.0233
  386SOL     OW 1156   0.505   1.126   0.386 -0.2023 -0.0857  0.3936
  386SOL    HW1 1157   0.502   1.039   0.438 -0.6127  0.7424 -0.0711
  386SOL    HW2 1158   0.406   1.161   0.367 -0.2881 -2.9435  0.1752
  387SOL     OW 1159   0.943   0.314   1.625  0.4293 -0.8962  0.1018
  387SOL    HW1 1160   1.021   0.385   1.632 -1.2849  0.6738  0.5837
  387SOL    HW2 1161   0.935   0.282   1.528  1.2084  2.4552  0.5497
  388SOL     OW 1162   1.191   2.648   1.736 -0.0166  1.0526 -0.3234
  388SOL    HW1 1163   1.242   2.643   1.647  0.3973 -2.1095  1.5950
  388SOL    HW2 1164   1.229   2.576   1.799  0.5418  0.2373 -1.9791
  389SOL     OW 1165   0.163   2.967   1.090  0.8051 -0.0965  0.5359
  389SOL    HW1 1166   0.065   2.932   1.082  2.4154 -2.6445 -1.8935
  389SOL    HW2 1167   0.231   2.893   1.094 -0.7161 -0.1714 -0.7262
  390SOL     OW 1168   1.027   0.948   1.354 -0.2931 -0.2304  0.1267
  390SOL    HW1 1169   1.128   0.931   1.375  0.4914 -1.0810 -2.5414
  390SOL    HW2 1170   0.992   1.043   1.377 -0.9897  2.5159  0.2149
  391SOL     OW 1171   2.105   1.092   1.074  0.5709 -0.6630 -0.1394
  391SOL    HW1 1172   2.064   1.005   1.112 -0.5346  3.1057 -0.9037
  391SOL    HW2 1173   2.150   1.086   0.982  3.2865 -1.6470  0.2754
  392SOL     OW 1174   0.879   2.725   3.074 -0.4001  0.8054  0.4393
  392SOL    HW1 1175   0.804   2.709   3.138  0.4518 -1.4142 -0.0974
  392SOL    HW2 1176   0.964   2.770   3.114 -3.0350  0.0033 -0.9780
  393SOL     OW 1177   0.321   0.513   1.977 -0.2267  0.4344  0.5764
  393SOL    HW1 1178   0.271   0.442   1.918  0.9057  2.0699  1.9169
  393SOL    HW2 1179   0.413   0.523   1.926  2.0906 -1.2234 -0.5748
  394SOL     OW 1180   3.045   1.832   2.804  0.3360 -0.8702  0.3030
  394SOL    HW1 1181   3.119   1.814   2.878 -0.2687 -1.5193  1.7773
  394SOL    HW2 1182   3.078   1.880   2.721 -0.1882  1.6983  2.5626
  395SOL     OW 1183   1.615   1.914   0.685 -0.1807 -0.0309  0.1421
  395SOL    HW1 1184   1.685   1.891   0.610  0.3072  2.8093 -1.9802
  395SOL    HW2 1185   1.653   1.927   0.782  0.0661 -0.7056  1.5775
  396SOL     OW 1186   2.812   1.903   1.332  0.3041 -1.2029 -0.6964
  396SOL    HW1 1187   2.774   1.805   1.334  3.7322  0.6777  0.8313
  396SOL    HW2 1188   2.786   1.966   1.416 -0.5330  2.6413 -1.3724
  397SOL     OW 1189   1.030   2.244   0.509  0.4155  0.1616  0.1481
  397SOL    HW1 1190   0.957   2.173   0.540 -0.1969  3.2921  0.4186
  397SOL    HW2 1191   1.014   2.337   0.551 -0.2615  3.7582 -2.2326
  398SOL     OW 1192   2.112   3.059   1.049 -0.0826 -0.2344 -0.2185
  398SOL    HW1 1193   2.108   2.961   1.079  0.7053  2.4087 -2.7919
  398SOL    HW2 1194   2.044   3.129   1.099 -0.9051  1.6962  0.7658
  399SOL     OW 1195   2.986   2.526   2.575  0.6769  0.1793 -0.4730
  399SOL    HW1 1196   2.900   2.484   2.524 -3.7676  1.3547 -2.0400
  399SOL    HW2 1197   3.030   2.462   2.637  2.1076 -2.4007 -3.7575
  400SOL     OW 1198   0.777   1.626   1.317 -0.3726  0.2065  0.4474
  400SOL    HW1 1199   0.768   1.699   1.395  2.0777  0.6062 -0.0663
  400SOL    HW2 1200   0.763   1.659   1.222  3.3552 -0.0999  0.0488
  401SOL     OW 1201   1.799   0.081   1.383 -0.0340 -0.3334  0.4042
  401SOL    HW1 1202   1.870   0.145   1.430  1.5303  0.4460  0.0625
  401SOL    HW2 1203   1.700   0.114   1.382  0.2534 -2.5883 -1.3505
  402SOL     OW 1204   1.316   0.147   3.028 -0.3509 -0.4490  0.0526
  402SOL    HW1 1205   1.417   0.133   2.998  3.0158 -1.8755  0.2981
  402SOL    HW2 1206   1.286   0.242   3.055 -1.0780 -0.7858 -2.3985
  403SOL     OW 1207   2.308   1.799   0.879  0.2847 -0.2417  0.2615
  403SOL    HW1 1208   2.409   1.793   0.906 -0.4988  0.3796 -0.5854
  403SOL    HW2 1209   2.265   1.868   0.948  0.4022  1.0476  0.9417
  404SOL     OW 1210   0.180   2.486   2.819 -0.0597 -0.4551 -0.3221
  404SOL    HW1 1211   0.269   2.437   2.814  0.9039  3.0838  0.4815
  404SOL    HW2 1212   0.184   2.589   2.845  0.7027  0.4502  2.1542
  405SOL     OW 1213   0.169   2.403   0.644 -0.6600 -0.5741  0.0931
  405SOL    HW1 1214   0.143   2.349   0.560  0.8783  0.0266 -0.7692
  405SOL    HW2 1215   0.215   2.498   0.629  2.5699  0.9118  1.7628
  406SOL     OW 1216   0.010   1.477   3.006 -0.4940  0.0894 -0.0404
  406SOL    HW1 1217   0.066   1.418   2.948 -1.7792  0.9643 -0.1477
  406SOL    HW2 1218   0.074   1.544   3.059  2.6739  0.9998  1.9630
  407SOL     OW 1219   1.593   0.953   0.916 -0.2832  0.4707 -0.3474
  407SOL    HW1 1220   1.566   0.900   0.833 -0.9929  0.3850  1.3682
  407SOL    HW2 1221   1.526   1.034   0.942  1.7779  0.1592 -0.1223
  408SOL     OW 1222   1.596   2.326   0.939 -0.1748  0.2160 -0.5011
  408SOL    HW1 1223   1.650   2.299   0.850  1.5211  0.3931  0.2017
  408SOL    HW2 1224   1.540   2.409   0.931 -0.5499 -1.2784 -0.8949
  409SOL     OW 1225   0.681   0.837   0.706  0.1681 -0.2313 -0.1989
  409SOL    HW1 1226   0.612   0.844   0.625 -1.9931  1.2241  0.0348
  409SOL    HW2 1227   0.669   0.745   0.748 -1.6836 -0.2798 -0.1664
  410SOL     OW 1228   1.242   2.051   1.436 -0.2169  0.1761  0.0395
  410SOL    HW1 1229   1.295   1.989   1.500  3.0911 -4.5683  0.9206
  410SOL    HW2 1230   1.155   2.010   1.403  0.8110  1.8453  0.4783
  411SOL     OW 1231   2.505   1.846   0.025 -0.0527  0.1321  0.0660
  411SOL    HW1 1232   2.445   1.923  -0.013 -0.0537  0.3523  0.1774
  411SOL    HW2 1233   2.577   1.815  -0.042 -0.4143  1.5329  1.2285
  412SOL     OW 1234   1.461   2.554   2.191 -0.0513  0.3902 -0.2436
  412SOL    HW1 1235   1.517   2.634   2.232 -1.7517  1.4910  0.6943
  412SOL    HW2 1236   1.408   2.497   2.262  1.7209 -2.0355 -1.3947
  413SOL     OW 1237   3.084   0.297   2.954 -0.4249 -0.3264  0.1681
  413SOL    HW1 1238   3.024   0.213   2.959  1.4152 -0.9159  3.3961
  413SOL    HW2 1239   3.183   0.268   2.975  1.3940 -1.1068  1.1026
  414SOL     OW 1240   1.829   1.449   1.235  0.1900  0.1811 -0.0315
  414SOL    HW1 1241   1.742   1.497   1.261 -1.5148  1.3568 -0.5242
  414SOL    HW2 1242   1.806   1.375   1.159 -1.1968 -0.6300 -3.2702
  415SOL     OW 1243   0.298   2.181   0.741  0.1770 -0.0239  0.2030
  415SOL    HW1 1244   0.244   2.247   0.679 -0.7724 -0.9033 -2.0115
  415SOL    HW2 1245   0.247   2.102   0.773  2.7400  2.2793 -0.4153
  416SOL     OW 1246   0.343   1.034   1.044 -0.1881 -0.6316 -0.3243
  416SOL    HW1 1247   0.341   0.987   0.952 -0.4308  0.0852 -1.5158
  416SOL    HW2 1248   0.424   1.101   1.059 -2.1426 -0.5520 -0.4097
  417SOL     OW 1249   2.149   2.288   1.922  0.3584 -0.3939  0.1846
  417SOL    HW1 1250   2.152   2.194   1.971 -0.8882  0.4171  1.7796
  417SOL    HW2 1251   2.060   2.301   1.873 -0.0931  0.4299 -1.3047
  418SOL     OW 1252   1.133   0.506   1.332 -0.2211  0.0227  0.3298
  418SOL    HW1 1253   1.065   0.472   1.254 -0.5724  1.6191 -1.8851
  418SOL    HW2 1254   1.228   0.521   1.293  3.2190  1.2347 -0.5184
  419SOL     OW 1255   0.950   0.381   3.032 -0.4894  0.3949 -0.4564
  419SOL    HW1 1256   0.987   0.394   2.938 -0.9498 -0.5457  0.4797
  419SOL    HW2 1257   0.860   0.427   3.059  0.4085  2.4221 -1.6848
  420SOL     OW 1258   0.101   2.262   0.415 -0.2353  0.0028  0.8236
  420SOL    HW1 1259   0.064   2.267   0.319  1.0020  0.5765  0.3931
  420SOL    HW2 1260   0.043   2.200   0.472 -1.8722  1.5949 -1.1879
  421SOL     OW 1261   0.336   2.939   0.703  0.6828 -0.1435 -0.0413
  421SOL    HW1 1262   0.297   2.866   0.765 -0.3148  1.7539 -3.2797
  421SOL    HW2 1263   0.413   2.987   0.754 -0.9854 -0.1435  2.1851
  422SOL     OW 1264   1.012   2.546   1.026  0.3201 -0.4217 -0.1433
  422SOL    HW1 1265   1.091   2.599   0.986  0.7025 -0.8557 -2.3135
  422SOL    HW2 1266   0.983   2.568   1.119  0.6131 -2.2937 -0.5946
  423SOL     OW 1267   0.120   0.666   1.264 -0.2919 -0.0724  0.0315
  423SOL    HW1 1268   0.050   0.650   1.345 -1.9886  0.3030  1.9403
  423SOL    HW2 1269   0.088   0.743   1.201 -2.0215  3.3648 -1.4624
  424SOL     OW 1270   1.030   2.230   2.059 -0.2005 -0.3807  0.2902
  424SOL    HW1 1271   1.030   2.324   2.017  0.2307 -0.3113  0.2041
  424SOL    HW2 1272   1.029   2.235   2.165  0.8902  2.4680 -0.6917
  425SOL     OW 1273   1.996   1.420   0.976 -0.1281 -0.6021 -0.2388
  425SOL    HW1 1274   2.036   1.365   1.058  0.2611  0.8607  2.9483
  425SOL    HW2 1275   2.067   1.464   0.910  2.1199 -2.1143 -0.3035
  426SOL     OW 1276   1.552   1.584   1.376  0.1341 -0.0978 -0.0018
  426SOL    HW1 1277   1.515   1.670   1.324 -0.2587  1.1725 -1.6024
  426SOL    HW2 1278   1.494   1.552   1.457  2.2731  3.3097  0.0592
  427SOL     OW 1279   1.859   2.341   2.045  0.0983  0.1507 -0.3553
  427SOL    HW1 1280   1.910   2.266   2.097  2.7602 -1.1185  0.6576
  427SOL    HW2 1281   1.895   2.437   2.066  0.1517 -0.3756 -1.3433
  428SOL     OW 1282   0.849   3.001   0.187 -0.3740 -0.3347  0.0691
  428SOL    HW1 1283   0.866   3.090   0.130 -1.8921 -1.9988 -0.4315
  428SOL    HW2 1284   0.929   2.936   0.202 -1.3248 -1.4052  1.1007
  429SOL     OW 1285   1.329   0.098   0.222 -0.0653 -0.4692 -0.0979
  429SOL    HW1 1286   1.424   0.137   0.248 -0.0675 -0.6405 -0.7249
  429SOL    HW2 1287   1.318   0.100   0.119  0.6539 -0.6547  0.4371
  430SOL     OW 1288   2.807   1.420   0.387  0.3687  0.1937  0.0212
  430SOL    HW1 1289   2.841   1.487   0.313  1.4057 -0.6571 -2.0653
  430SOL    HW2 1290   2.775   1.469   0.472  2.9255 -2.0672 -1.2646
  431SOL     OW 1291   2.164   1.573   0.822 -0.2334 -0.4123  0.4857
  431SOL    HW1 1292   2.203   1.656   0.871  1.1962  1.8809  0.3137
  431SOL    HW2 1293   2.082   1.599   0.766  0.9688  1.3330 -0.5025
  432SOL     OW 1294   2.897   2.248   1.232  0.4547  0.3532 -0.8183
  432SOL    HW1 1295   2.811   2.191   1.255  0.8164  0.2361  3.4606
  432SOL    HW2 1296   2.941   2.282   1.321 -0.4963 -1.2030 -1.9038
  433SOL     OW 1297   1.942   0.394   0.872  0.1503  0.2721  0.0978
  433SOL    HW1 1298   1.864   0.356   0.924  1.0413  0.4549 -0.9210
  433SOL    HW2 1299   2.030   0.386   0.927  0.4163  0.2985 -0.8442
  434SOL     OW 1300   1.538   0.296   0.783  0.4201 -0.2174  0.2095
  434SOL    HW1 1301   1.476   0.374   0.765 -1.8332 -1.3936 -1.0433
  434SOL    HW2 1302   1.605   0.305   0.858 -2.3911 -1.5785 -1.6444
  435SOL     OW 1303   1.430   1.446   2.168 -0.3002  0.1395  0.4472
  435SOL    HW1 1304   1.356   1.466   2.238  3.3829  2.6270 -3.2930
  435SOL    HW2 1305   1.480   1.533   2.138  1.0020  2.0921  2.5438
  436SOL     OW 1306   1.677   2.736   2.214 -0.2774  0.5501 -0.2797
  436SOL    HW1 1307   1.643   2.807   2.282 -2.4676  0.5413  3.0925
  436SOL    HW2 1308   1.712   2.646   2.258 -0.5943 -1.3931 -2.7651
  437SOL     OW 1309   1.041   2.920   0.918  0.0864 -0.1842  0.4230
  437SOL    HW1 1310   0.997   2.970   0.833  1.1786  0.0292 -0.7414
  437SOL    HW2 1311   0.983   2.906   1.006 -1.6653  2.6199 -0.7304
  438SOL     OW 1312   1.039   2.578   1.315  0.3908  0.2928  0.1299
  438SOL    HW1 1313   1.102   2.612   1.387 -0.9700  0.2214 -0.9649
  438SOL    HW2 1314   1.021   2.474   1.324 -1.5309 -1.2251  0.1097
  439SOL     OW 1315   0.704   1.705   1.065 -0.7297 -0.2317 -0.0803
  439SOL    HW1 1316   0.703   1.792   1.010 -0.5883  0.8645  2.2122
  439SOL    HW2 1317   0.608   1.684   1.099  0.7080 -1.0756  2.4598
  440SOL     OW 1318   0.998   2.499   1.961  0.1472  0.0272  0.3523
  440SOL    HW1 1319   0.974   2.520   1.865  1.7690  2.0129 -0.2601
  440SOL    HW2 1320   1.103   2.493   1.973 -0.8913 -0.4427 -1.7130
  441SOL     OW 1321   0.437   2.750   1.382  0.3994 -0.1206 -0.5381
  441SOL    HW1 1322   0.511   2.690   1.416 -0.4363  1.3543 -0.6861
  441SOL    HW2 1323   0.347   2.693   1.373  0.4716 -1.9345  1.5241
  442SOL     OW 1324   2.332   0.659   2.468  0.5515 -0.0312 -0.5259
  442SOL    HW1 1325   2.306   0.557   2.456  1.2891 -2.4659  0.0615
  442SOL    HW2 1326   2.252   0.710   2.511  1.8280 -0.7138  0.4594
  443SOL     OW 1327   1.220   2.731   2.179  0.2206  0.2675 -0.2889
  443SOL    HW1 1328   1.284   2.735   2.265  1.8737 -1.3094 -0.3731
  443SOL    HW2 1329   1.208   2.635   2.148  3.7530 -2.9769  1.2793
  444SOL     OW 1330   1.129   1.320   1.609 -0.6417 -0.2135  0.0018
  444SOL    HW1 1331   1.210   1.259   1.579  1.2552 -1.2199  0.5712
  444SOL    HW2 1332   1.161   1.380   1.689  0.4918  0.6908 -1.8823
  445SOL     OW 1333   3.102   2.412   1.882 -0.4324 -0.6163 -0.2022
  445SOL    HW1 1334   3.090   2.483   1.809  0.3962  0.9543  1.3373
  445SOL    HW2 1335   3.021   2.357   1.899  1.9768  0.7896 -1.4103
  446SOL     OW 1336   0.274   1.910   2.368 -0.3254 -0.3216 -0.2594
  446SOL    HW1 1337   0.226   1.989   2.402  1.5472 -0.5907 -0.7823
  446SOL    HW2 1338   0.215   1.857   2.302  3.3567  1.9095  0.1038
  447SOL     OW 1339   1.233   1.713   1.930 -0.3165  0.0829 -0.0958
  447SOL    HW1 1340   1.141   1.754   1.913 -0.6905 -0.9287  2.5906
  447SOL    HW2 1341   1.311   1.782   1.920 -0.1761 -1.5443 -1.6582
  448SOL     OW 1342   0.131   1.479   1.995 -0.4500  0.6158  0.2039
  448SOL    HW1 1343   0.142   1.571   1.948 -3.7597 -0.3046 -1.2419
  448SOL    HW2 1344   0.060   1.476   2.067  3.7567  0.1434 -1.0200
  449SOL     OW 1345   1.864   3.002   0.857  0.6188 -0.4836 -0.1227
  449SOL    HW1 1346   1.926   3.015   0.940 -0.4733 -0.2178  3.3801
  449SOL    HW2 1347   1.881   2.906   0.812 -0.4836 -2.1040 -0.3462
  450SOL     OW 1348   2.379   1.447   0.713 -0.6503 -0.5931  0.4976
  450SOL    HW1 1349   2.298   1.485   0.768  0.1613  0.0724 -1.7914
  450SOL    HW2 1350   2.385   1.501   0.624  1.7046 -2.7176  1.1813
  451SOL     OW 1351   1.380   2.994   1.441 -0.0675 -0.3510  0.4257
  451SOL    HW1 1352   1.311   3.070   1.451  1.1217 -1.0856 -0.5352
  451SOL    HW2 1353   1.380   2.925   1.518  0.0438 -1.3137  0.1185
  452SOL     OW 1354   2.705   2.295   2.174 -0.4924  0.7201 -0.3089
  452SOL    HW1 1355   2.648   2.377   2.205  1.1906 -1.3945  0.7589
  452SOL    HW2 1356   2.735   2.232   2.251 -0.9735 -0.6996 -0.5628
  453SOL     OW 1357   2.482   2.651   0.018  0.3305 -0.0980  0.1918
  453SOL    HW1 1358   2.398   2.706   0.037  1.9079 -3.3210 -3.0170
  453SOL    HW2 1359   2.463   2.565  -0.042  1.9674  1.1824  1.7391
  454SOL     OW 1360   0.974   1.153   2.100  0.6014  0.1744  0.1752
  454SOL    HW1 1361   0.953   1.139   1.999 -0.5229  0.1541  0.7901
  454SOL    HW2 1362   1.058   1.212   2.110  0.3782 -1.0185 -0.5939
  455SOL     OW 1363   0.642   2.690   2.935  0.1136 -0.1993  0.4764
  455SOL    HW1 1364   0.745   2.708   2.962  3.3021  0.9586  1.2349
  455SOL    HW2 1365   0.624   2.592   2.959 -0.6561 -0.1210  1.9347
  456SOL     OW 1366   0.449   1.860   0.248  0.1062  0.0318  0.3035
  456SOL    HW1 1367   0.523   1.839   0.315 -0.8537  0.4561 -1.8166
  456SOL    HW2 1368   0.465   1.949   0.194  1.6038  0.6856  0.4446
  457SOL     OW 1369   0.313   2.652   0.623 -0.3092  0.3690  0.6292
  457SOL    HW1 1370   0.299   2.738   0.576 -0.3300 -0.9103 -0.3420
  457SOL    HW2 1371   0.407   2.629   0.652 -3.1460  2.4582  0.1426
  458SOL     OW 1372   2.927   3.065   1.250  0.5031 -0.2760 -0.3081
  458SOL    HW1 1373   2.966   3.152   1.217 -2.2576 -2.3519 -1.4557
  458SOL    HW2 1374   2.944   2.989   1.182  0.3666  1.6060 -1.7772
  459SOL     OW 1375   2.154   2.565   0.809  0.8035  0.0980  0.0301
  459SOL    HW1 1376   2.205   2.653   0.827 -0.3739 -1.7162 -2.2670
  459SOL    HW2 1377   2.213   2.500   0.753  3.4784  0.6687  1.5464
  460SOL     OW 1378   1.238   2.022   2.837 -0.4908 -0.6305 -0.1085
  460SOL    HW1 1379   1.206   2.047   2.740 -0.8074 -1.9107 -0.3693
  460SOL    HW2 1380   1.234   1.918   2.856  1.4506 -0.4236  2.8214
  461SOL     OW 1381   0.554   2.106   2.649  0.2030 -0.3490  0.2420
  461SOL    HW1 1382   0.487   2.035   2.611 -0.9779 -2.1673  1.4503
  461SOL    HW2 1383   0.575   2.095   2.747 -1.6283 -0.8820  0.1446
  462SOL     OW 1384   0.956   1.155   1.819 -0.0250  0.0298  0.1283
  462SOL    HW1 1385   1.017   1.099   1.750  3.2357 -2.5721  0.3925
  462SOL    HW2 1386   0.915   1.245   1.781 -0.6441  2.9334 -0.0325
  463SOL     OW 1387   0.467   0.834   0.461 -0.3225 -0.0203 -0.4904
  463SOL    HW1 1388   0.481   0.728   0.455 -0.2120  0.0827  2.0116
  463SOL    HW2 1389   0.376   0.848   0.501  0.0893 -3.3719  0.6073
  464SOL     OW 1390   0.624   2.293   2.238 -0.5256 -0.0423 -0.0065
  464SOL    HW1 1391   0.611   2.368   2.310 -2.6774 -0.6205 -1.9556
  464SOL    HW2 1392   0.595   2.324   2.142  1.6498  3.1530 -1.1419
  465SOL     OW 1393   0.286   0.945   0.774  0.5616 -0.7583 -0.0611
  465SOL    HW1 1394   0.207   0.965   0.718  3.3491  0.2873  0.8490
  465SOL    HW2 1395   0.291   0.844   0.804  0.3533 -1.3909  2.0881
  466SOL     OW 1396   1.411   1.130   1.011 -0.2348 -0.5001  0.7013
  466SOL    HW1 1397   1.418   1.233   1.022 -2.7660 -2.0937 -0.3867
  466SOL    HW2 1398   1.315   1.101   1.021  1.6837 -0.1907 -3.3032
  467SOL     OW 1399   0.490   0.348   2.404 -0.5928  0.1603  0.2658
  467SOL    HW1 1400   0.454   0.444   2.417  1.3890 -1.7532 -0.5115
  467SOL    HW2 1401   0.494   0.295   2.492  2.0222 -1.8956 -3.2461
  468SOL     OW 1402   0.463   2.288   1.673 -0.1212  0.2201  0.4149
  468SOL    HW1 1403   0.544   2.352   1.682  0.7855  1.3957  0.7171
  468SOL    HW2 1404   0.441   2.274   1.575  2.7979 -3.1186  2.7262
  469SOL     OW 1405   1.473   1.417   1.176  0.1575 -0.0971  0.4578
  469SOL    HW1 1406   1.544   1.348   1.151  2.3556  0.7029 -3.2767
  469SOL    HW2 1407   1.513   1.494   1.237 -2.6494  0.7754  1.2970
  470SOL     OW 1408   3.021   1.690   0.709 -0.0651 -0.5810  0.4743
  470SOL    HW1 1409   3.067   1.781   0.671  1.5863 -0.1027  0.2723
  470SOL    HW2 1410   2.999   1.697   0.810  0.2916 -0.4052 -0.8906
  471SOL     OW 1411   2.712   1.285   2.118  0.2655  0.8656 -0.5882
  471SOL    HW1 1412   2.647   1.241   2.190  0.1588  1.4125 -0.3363
  471SOL    HW2 1413   2.771   1.362   2.156  1.0932  1.4096  1.5212
  472SOL     OW 1414   1.170   2.468   0.003  0.0516  0.3525 -0.7698
  472SOL    HW1 1415   1.208   2.441   0.096 -4.6958  0.5985  1.5024
  472SOL    HW2 1416   1.078   2.424  -0.015  0.5595 -1.7600 -0.6099
  473SOL     OW 1417   1.091   1.549   1.011  0.3707  0.0645  0.2983
  473SOL    HW1 1418   1.003   1.511   0.981  1.2379  1.6455 -0.4847
  473SOL    HW2 1419   1.142   1.496   1.089  4.0644 -0.2544 -1.1659
  474SOL     OW 1420   0.679   1.296   0.560  0.1990  0.0314 -0.9563
  474SOL    HW1 1421   0.662   1.253   0.465  1.9210  0.1748 -1.7279
  474SOL    HW2 1422   0.744   1.233   0.617  0.9382  0.7221  0.3189
  475SOL     OW 1423   2.841   0.077   0.788 -0.2054  0.5812  0.2071
  475SOL    HW1 1424   2.922   0.137   0.830  1.5078 -0.4373  0.4848
  475SOL    HW2 1425   2.743   0.111   0.816  0.0958 -0.7541  0.2125
  476SOL     OW 1426   0.990   3.038   1.816 -0.3552 -0.4308 -0.1178
  476SOL    HW1 1427   1.064   2.976   1.853  0.6995  0.6554  2.5924
  476SOL    HW2 1428   0.981   3.036   1.711  1.0964 -2.1876 -2.6335
  477SOL     OW 1429   1.454   0.325   2.487  0.4295 -0.0587  0.2184
  477SOL    HW1 1430   1.458   0.348   2.586 -0.0782  1.2539 -0.6755
  477SOL    HW2 1431   1.548   0.286   2.457 -2.4627  0.7966 -2.5596
  478SOL     OW 1432   2.205   1.840   0.211 -0.5861 -0.1894  0.0035
  478SOL    HW1 1433   2.135   1.762   0.224 -0.4086 -2.0384  4.2461
  478SOL    HW2 1434   2.304   1.815   0.248  0.9203  2.0412 -0.0643
  479SOL     OW 1435   1.276   1.047   2.927 -0.0785  0.3826  0.1507
  479SOL    HW1 1436   1.351   1.060   2.848 -0.5731  3.3070  0.8105
  479SOL    HW2 1437   1.192   0.991   2.903 -0.8689 -1.7235 -3.1719
  480SOL     OW 1438   2.572   2.363   0.401 -0.6881 -0.3479  0.1659
  480SOL    HW1 1439   2.558   2.264   0.426  0.2669  1.5390  0.8305
  480SOL    HW2 1440   2.517   2.387   0.316  0.8711  1.4416  0.3433
  481SOL     OW 1441   0.989   1.127   0.873  0.2557 -0.1584 -0.1226
  481SOL    HW1 1442   0.977   1.222   0.825 -1.6927  1.2954 -0.4068
  481SOL    HW2 1443   0.995   1.132   0.978 -0.0261 -0.9692  1.2005
  482SOL     OW 1444   1.565   0.268   2.044 -0.4880  0.2386 -0.0654
  482SOL    HW1 1445   1.582   0.370   2.023 -0.2075 -3.6142 -1.5134
  482SOL    HW2 1446   1.649   0.223   2.081 -1.8300  0.3378  4.7451
  483SOL     OW 1447   0.112   2.334   1.277 -0.4912  0.1271  0.4815
  483SOL    HW1 1448   0.040   2.321   1.348  1.2641  0.7448  1.1049
  483SOL    HW2 1449   0.131   2.434   1.260 -0.4092  0.3376 -1.7217
  484SOL     OW 1450   1.742   1.080   1.349  0.0017 -0.3929  0.2317
  484SOL    HW1 1451   1.802   0.999   1.380 -0.1917 -3.2193  0.3748
  484SOL    HW2 1452   1.765   1.165   1.404 -0.5746 -0.2074  1.2354
  485SOL     OW 1453   0.714   1.040   1.819 -0.3562  0.2906  0.2938
  485SOL    HW1 1454   0.700   1.033   1.718 -3.4436  0.1162  2.0782
  485SOL    HW2 1455   0.797   1.099   1.852  0.6692 -0.7462 -3.4381
  486SOL     OW 1456   0.831   1.932   2.473  0.2547  0.0488  0.4021
  486SOL    HW1 1457   0.892   1.912   2.559 -0.4251  0.9234  4.0763
  486SOL    HW2 1458   0.812   2.036   2.478 -0.7140  0.2351 -1.5462
  487SOL     OW 1459   1.830   1.668   0.951  0.8323 -0.1337  0.0105
  487SOL    HW1 1460   1.870   1.585   0.994 -0.4076 -1.4053  1.2929
  487SOL    HW2 1461   1.903   1.712   0.893 -2.2447 -0.5868 -0.3229
  488SOL     OW 1462   2.986   0.861   2.234 -0.1048 -0.2542  0.2291
  488SOL    HW1 1463   2.963   0.761   2.244 -1.2634  0.1688  2.8084
  488SOL    HW2 1464   3.014   0.897   2.328  1.2124  1.2428 -1.1904
  489SOL     OW 1465   2.774   0.253   1.278 -0.0710 -0.6735  0.3902
  489SOL    HW1 1466   2.791   0.273   1.380 -0.0993 -0.7616 -0.7167
  489SOL    HW2 1467   2.869   0.246   1.228  2.5164 -1.8607 -1.8828
  490SOL     OW 1468   1.500   2.975   2.775 -0.5860  0.2749  0.4497
  490SOL    HW1 1469   1.496   2.872   2.787 -0.8353 -0.7854 -0.0192
  490SOL    HW2 1470   1.455   3.007   2.683  0.0814  0.3819 -0.0514
  491SOL     OW 1471   1.758   1.455   2.624  0.4500 -0.3583 -0.1452
  491SOL    HW1 1472   1.700   1.441   2.708  0.9173 -2.1095  0.7191
  491SOL    HW2 1473   1.856   1.479   2.647 -1.1188 -1.0288 -1.0314
  492SOL     OW 1474   0.520   2.033   0.678 -0.1234 -1.1572  0.0713
  492SOL    HW1 1475   0.574   2.002   0.757 -0.1478 -1.5846  0.8797
  492SOL    HW2 1476   0.447   2.109   0.698 -1.7020 -0.1408 -2.8008
  493SOL     OW 1477   0.387   1.412   2.030 -0.6468 -0.3071  0.1634
  493SOL    HW1 1478   0.288   1.431   2.029  2.9370 -0.5682  0.3506
  493SOL    HW2 1479   0.414   1.328   2.086  0.5753 -0.6537 -0.5056
  494SOL     OW 1480   2.729   2.679   0.155 -0.0496 -0.1189 -0.3043
  494SOL    HW1 1481   2.768   2.623   0.234 -1.0997  0.1147  0.1573
  494SOL    HW2 1482   2.638   2.649   0.114  3.4504  2.4408 -0.6000
  495SOL     OW 1483   2.713   2.690   2.745  0.9171  0.5371  0.2007
  495SOL    HW1 1484   2.653   2.612   2.707 -1.5286 -0.4765 -2.5773
  495SOL    HW2 1485   2.749   2.749   2.669  2.9561  0.3515 -1.1489
  496SOL     OW 1486   2.092   2.253   0.698 -0.1020  0.5959  0.6602
  496SOL    HW1 1487   2.095   2.300   0.788  1.8718 -1.4079 -0.3565
  496SOL    HW2 1488   2.071   2.149   0.707 -1.8039  0.4059 -3.6769
  497SOL     OW 1489   0.258   2.985   2.411  0.0088  0.1193  0.0469
  497SOL    HW1 1490   0.203   3.064   2.452  0.8956 -1.8058  0.5105
  497SOL    HW2 1491   0.298   3.014   2.318  2.2673 -1.9189  1.7913
  498SOL     OW 1492   1.194   1.360   1.226  0.7026  0.2587  0.1701
  498SOL    HW1 1493   1.294   1.376   1.202  0.5406 -0.4310 -0.5094
  498SOL    HW2 1494   1.157   1.439   1.281  1.8044  1.3833  0.3209
  499SOL     OW 1495   0.683   1.827   0.434  0.1460  0.2807 -0.0030
  499SOL    HW1 1496   0.710   1.740   0.484 -0.1966  1.9728 -0.9337
  499SOL    HW2 1497   0.706   1.916   0.481 -0.6933  1.1750  1.6312
  500SOL     OW 1498   1.399   2.837   1.670  0.2386  0.4240  0.3180
  500SOL    HW1 1499   1.340   2.764   1.718 -1.3499 -2.4353  3.5515
  500SOL    HW2 1500   1.492   2.795   1.651 -0.5478 -4.7897  3.2843
  501SOL     OW 1501   0.792   1.142   2.310  0.1862 -0.3502  0.3149
  501SOL    HW1 1502   0.727   1.069   2.285  1.6150  1.7180  0.6697
  501SOL    HW2 1503   0.850   1.169   2.222  0.7590  0.2285 -2.6346
  502SOL     OW 1504   2.579   0.979   1.740  0.1227 -0.0354  0.0174
  502SOL    HW1 1505   2.600   0.991   1.642  1.4223  0.1148  0.3547
  502SOL    HW2 1506   2.554   0.877   1.764 -2.4360 -0.0470  0.0096
  503SOL     OW 1507   1.328   0.109   0.695 -0.2024 -0.4716 -0.3446
  503SOL    HW1 1508   1.250   0.176   0.670  0.0841  0.0568 -0.9540
  503SOL    HW2 1509   1.400   0.158   0.751  2.2979  1.1701 -1.5603
  504SOL     OW 1510   2.998   2.321   1.465  0.0951 -0.4914 -0.0388
  504SOL    HW1 1511   2.963   2.406   1.519 -0.6306 -0.0917 -3.2235
  504SOL    HW2 1512   3.039   2.249   1.523  2.0097  0.9419 -3.1126
  505SOL     OW 1513   2.318   1.176   1.427 -0.1733 -0.7774  0.3906
  505SOL    HW1 1514   2.305   1.219   1.330 -1.2541  1.4692 -4.4449
  505SOL    HW2 1515   2.389   1.228   1.485 -0.6685  1.3893 -0.6033
  506SOL     OW 1516   1.977   0.160   1.828  0.0100 -0.2670  0.2488
  506SOL    HW1 1517   2.046   0.082   1.819  1.2848 -4.6297  0.5001
  506SOL    HW2 1518   2.016   0.250   1.865  2.8361  1.5545  1.3334
  507SOL     OW 1519   0.533   0.681   2.140  0.4616 -0.2304  0.5073
  507SOL    HW1 1520   0.442   0.638   2.103 -1.0426 -0.1231 -1.7627
  507SOL    HW2 1521   0.595   0.608   2.188 -0.5189  2.7073 -2.4943
  508SOL     OW 1522   0.292   1.634   0.796 -0.1218  0.4215  0.0951
  508SOL    HW1 1523   0.352   1.690   0.733 -2.0140 -2.5416 -1.0985
  508SOL    HW2 1524   0.276   1.672   0.890  0.4630 -0.1066 -0.8838
  509SOL     OW 1525   1.212   1.276   2.354  0.7247  0.0761  0.3267
  509SOL    HW1 1526   1.235   1.203   2.277  0.0481 -0.5123 -3.3499
  509SOL    HW2 1527   1.135   1.244   2.406 -1.0742 -3.4943 -1.0804
  510SOL     OW 1528   1.267   2.029   2.178  0.1937 -0.9492 -0.6261
  510SOL    HW1 1529   1.261   2.117   2.115 -2.0629  0.9391 -1.5994
  510SOL    HW2 1530   1.175   1.985   2.189  1.3405 -1.2526 -0.5736
  511SOL     OW 1531   3.054   2.751   1.323  0.2553  0.5211  0.4053
  511SOL    HW1 1532   3.051   2.728   1.226 -0.9830  0.7859 -0.0377
  511SOL    HW2 1533   2.963   2.758   1.367  1.5473  0.0921  0.5475
  512SOL     OW 1534   2.393   0.386   1.381  0.8013  0.2172  0.0154
  512SOL    HW1 1535   2.296   0.383   1.348  0.4684 -0.4001  1.1509
  512SOL    HW2 1536   2.451   0.369   1.303 -0.4346  1.7784  0.4353
  513SOL     OW 1537   2.572   2.057   0.867 -0.1777 -0.9205 -0.2015
  513SOL    HW1 1538   2.523   2.128   0.806  0.4124 -0.4639 -1.3155
  513SOL    HW2 1539   2.649   2.006   0.822 -5.4587 -1.0173 -0.3262
  514SOL     OW 1540   0.619   2.744   0.422 -0.1933  0.0236  0.0354
  514SOL    HW1 1541   0.606   2.783   0.328  1.6751 -1.0802 -0.1439
  514SOL    HW2 1542   0.641   2.812   0.498  0.9450 -0.6810 -0.0683
  515SOL     OW 1543   1.982   1.209   2.363 -0.1766 -0.8033 -0.3350
  515SOL    HW1 1544   1.954   1.173   2.271  0.9341 -0.5298 -0.3815
  515SOL    HW2 1545   1.921   1.242   2.434  2.9392  2.7309  0.1744
  516SOL     OW 1546   0.224   0.277   1.869 -0.2290  0.3910 -0.4900
  516SOL    HW1 1547   0.317   0.232   1.862  2.9614  0.6082  1.3857
  516SOL    HW2 1548   0.145   0.214   1.861  1.9421  1.0729  0.7392
  517SOL     OW 1549   0.415   0.008   1.133  0.6390 -0.0656  0.6919
  517SOL    HW1 1550   0.412   0.108   1.159 -0.8596  1.9093 -0.8193
  517SOL    HW2 1551   0.324  -0.045   1.126 -0.1889 -1.5195 -0.4997
  518SOL     OW 1552   2.178   3.068   1.830 -0.1589  0.2053  0.0703
  518SOL    HW1 1553   2.246   3.151   1.839  0.7475  0.7281  1.6377
  518SOL    HW2 1554   2.197   3.019   1.739 -1.0758  1.3675 -2.4563
  519SOL     OW 1555   2.327   2.153   2.526 -0.2938 -0.0015  0.4921
  519SOL    HW1 1556   2.306   2.135   2.627  2.5876  0.0962 -0.0991
  519SOL    HW2 1557   2.382   2.242   2.513 -1.3875  1.9626  1.1875
  520SOL     OW 1558   1.824   2.769   1.779  0.3754  0.5190  0.8572
  520SOL    HW1 1559   1.741   2.762   1.842 -0.3680  0.8816 -1.1499
  520SOL    HW2 1560   1.867   2.675   1.755  2.2675 -0.3897 -0.1910
  521SOL     OW 1561   0.570   3.073   2.081 -0.1532  0.3042 -0.4911
  521SOL    HW1 1562   0.475   3.035   2.084 -1.6940  0.9265 -1.0132
  521SOL    HW2 1563   0.607   3.066   2.180 -1.3738 -2.5098 -0.7373
  522SOL     OW 1564   0.242   1.871   1.475 -0.2589  0.1758 -0.1225
  522SOL    HW1 1565   0.291   1.939   1.538 -1.0708 -2.0297  0.7013
  522SOL    HW2 1566   0.198   1.917   1.393 -1.0242 -0.9794 -0.4418
  523SOL     OW 1567   2.241   2.970   1.573  0.6188  0.2899  0.1591
  523SOL    HW1 1568   2.333   2.922   1.546  1.0052  0.5728  1.5768
  523SOL    HW2 1569   2.157   2.927   1.520  0.6779  2.6182 -0.3995
  524SOL     OW 1570   0.187   2.798   2.798  0.3705  0.2195 -0.0111
  524SOL    HW1 1571   0.124   2.860   2.858  0.7463 -1.4915  1.3475
  524SOL    HW2 1572   0.293   2.824   2.803  1.8478 -0.9625  1.2265
  525SOL     OW 1573   2.167   2.043   0.411 -0.1077 -0.0887  0.4009
  525SOL    HW1 1574   2.185   2.001   0.503 -0.5435  0.7263  1.9510
  525SOL    HW2 1575   2.181   1.976   0.334 -0.6040  3.2355 -0.5626
  526SOL     OW 1576   0.447   1.538   1.654  0.1627  0.7884  0.1403
  526SOL    HW1 1577   0.482   1.594   1.738 -0.9646 -1.0809  0.9825
  526SOL    HW2 1578   0.489   1.446   1.637 -1.0695  1.5368 -1.5408
  527SOL     OW 1579   1.040   2.896   1.233 -0.1257  0.1705 -0.1705
  527SOL    HW1 1580   1.125   2.844   1.210  0.0884  1.3575 -1.8738
  527SOL    HW2 1581   1.050   2.997   1.218  1.5816 -1.2218  2.0433
  528SOL     OW 1582   1.370   2.411   0.520 -0.5040  0.5206 -0.5246
  528SOL    HW1 1583   1.391   2.313   0.538 -2.0387  1.1456 -3.1507
  528SOL    HW2 1584   1.420   2.478   0.585 -0.0059 -1.8461 -0.8459
  529SOL     OW 1585   1.971   1.745   0.707  0.1198  0.2938 -0.6637
  529SOL    HW1 1586   1.879   1.739   0.664  0.0508  0.4312  2.0755
  529SOL    HW2 1587   1.995   1.839   0.751 -2.1528 -1.7649  0.8524
  530SOL     OW 1588   0.335   2.598   0.265  0.3169  0.1421  0.1690
  530SOL    HW1 1589   0.318   2.668   0.340 -0.1211 -0.4674 -2.0289
  530SOL    HW2 1590   0.330   2.494   0.295 -2.5898 -1.5181 -2.8862
  531SOL     OW 1591   1.843   0.986   0.980  0.0811 -0.6614 -0.6682
  531SOL    HW1 1592   1.894   1.057   0.925 -0.2728 -1.3383 -2.9430
  531SOL    HW2 1593   1.749   0.967   0.949  2.0655  0.4535 -1.2404
  532SOL     OW 1594   0.370   1.189   0.714  0.0128  0.8114  0.3644
  532SOL    HW1 1595   0.435   1.192   0.633  1.2246 -1.2802  1.2512
  532SOL    HW2 1596   0.354   1.087   0.748  2.4099 -0.5781 -0.4418
  533SOL     OW 1597   1.734   0.020   2.583 -0.1773  0.3871  0.2574
  533SOL    HW1 1598   1.824  -0.020   2.598 -0.7822  0.3881 -0.7792
  533SOL    HW2 1599   1.698   0.079   2.657 -0.0615 -1.2200  0.3416
  534SOL     OW 1600   0.355   0.186   1.620  0.4674  0.0294  0.3234
  534SOL    HW1 1601   0.417   0.248   1.560  2.7564  0.0475  2.6560
  534SOL    HW2 1602   0.275   0.240   1.667 -0.4406 -0.6561 -0.9758
  535SOL     OW 1603   1.921   0.398   0.195  0.5327 -0.8515 -0.3139
  535SOL    HW1 1604   1.922   0.472   0.267  0.3707 -1.4895 -0.0823
  535SOL    HW2 1605   1.910   0.307   0.233  1.1558  1.4931 -3.8154
  536SOL     OW 1606   1.431   2.541   0.965 -0.5494 -0.4546 -0.2060
  536SOL    HW1 1607   1.405   2.488   1.049  0.3066  1.4735 -1.5042
  536SOL    HW2 1608   1.345   2.585   0.924  1.0622  0.2449  1.2158
  537SOL     OW 1609   0.815   0.188   2.335  0.6999  0.2138  0.6569
  537SOL    HW1 1610   0.848   0.275   2.288 -1.8954  0.5229 -3.2347
  537SOL    HW2 1611   0.720   0.163   2.302 -0.1515 -0.4469  1.7450
  538SOL     OW 1612   1.687   2.355   1.520 -0.0775 -0.0021  0.2174
  538SOL    HW1 1613   1.654   2.263   1.486 -0.2904  1.0708 -1.1537
  538SOL    HW2 1614   1.745   2.401   1.451 -2.9655 -3.2990 -2.9572
  539SOL     OW 1615   0.209   1.576   2.725  0.1409  0.6857  0.1744
  539SOL    HW1 1616   0.169   1.598   2.630 -1.6837  0.8308  0.3870
  539SOL    HW2 1617   0.209   1.659   2.790  1.4723  0.5491  0.3972
  540SOL     OW 1618   2.717   1.662   1.961 -0.1815 -0.2077 -0.9448
  540SOL    HW1 1619   2.765   1.609   2.040 -2.2925  2.9639  2.1473
  540SOL    HW2 1620   2.621   1.689   1.982  0.6008 -1.8006  0.6073
  541SOL     OW 1621   0.451   2.264   0.006 -0.0310 -0.4769 -0.3328
  541SOL    HW1 1622   0.475   2.232   0.100 -4.0435 -1.1437  1.4300
  541SOL    HW2 1623   0.357   2.239  -0.032  1.7669  0.1961  0.0314
  542SOL     OW 1624   2.286   2.559   0.422 -0.1074  0.2272  0.3895
  542SOL    HW1 1625   2.248   2.649   0.388  0.1704  1.3426  2.0427
  542SOL    HW2 1626   2.206   2.495   0.435 -0.7918  1.1844  0.9483
  543SOL     OW 1627   1.063   1.817   1.614 -0.2749  0.7245 -0.9323
  543SOL    HW1 1628   1.042   1.866   1.703  0.2662  2.6780 -1.3664
  543SOL    HW2 1629   1.027   1.863   1.532  0.0672 -2.1367  1.3156
  544SOL     OW 1630   1.015   0.413   0.199  0.2917 -1.2049 -0.5342
  544SOL    HW1 1631   1.032   0.322   0.242 -3.1530 -0.3422  1.3755
  544SOL    HW2 1632   1.022   0.428   0.098 -0.9493 -0.0232 -0.0424
  545SOL     OW 1633   1.121   1.803   0.793  0.0163 -0.5866 -0.1885
  545SOL    HW1 1634   1.227   1.795   0.786  1.4700 -3.4653 -0.4841
  545SOL    HW2 1635   1.085   1.742   0.871 -0.3932 -0.1849  0.1546
  546SOL     OW 1636   2.664   1.495   0.011  0.8868 -0.3016 -0.6227
  546SOL    HW1 1637   2.616   1.525  -0.074 -0.0555  0.2555  0.7945
  546SOL    HW2 1638   2.597   1.484   0.095 -3.1072  1.1080 -1.0023
  547SOL     OW 1639   0.581   3.077   2.677  0.4191 -0.3838 -0.1174
  547SOL    HW1 1640   0.676   3.026   2.657  2.0141 -0.3497  0.4549
  547SOL    HW2 1641   0.507   3.008   2.709  2.5389  0.3936 -1.8457
  548SOL     OW 1642   2.088   0.854   2.989 -0.2358  0.3416  0.3910
  548SOL    HW1 1643   1.996   0.829   2.960  2.8623  1.5815 -1.4407
  548SOL    HW2 1644   2.093   0.951   3.022 -0.4224  2.0675  0.5464
  549SOL     OW 1645   0.700   0.519   0.212 -0.5434 -0.0073 -0.4946
  549SOL    HW1 1646   0.651   0.549   0.125 -0.6247 -0.2329  2.3179
  549SOL    HW2 1647   0.799   0.559   0.231  3.1841 -1.2772  2.3828
  550SOL     OW 1648   2.502   2.825   2.891  0.3691 -0.2260 -0.4519
  550SOL    HW1 1649   2.483   2.788   2.984 -0.9765  1.3716  0.8272
  550SOL    HW2 1650   2.546   2.763   2.826  0.9970  2.4620 -0.1619
  551SOL     OW 1651   0.276   0.921   0.222  0.2095 -0.1063  0.0679
  551SOL    HW1 1652   0.368   0.876   0.201  0.9617 -2.6472  0.5426
  551SOL    HW2 1653   0.242   0.903   0.319 -0.8263 -3.4862 -1.4357
  552SOL     OW 1654   0.698   2.973   1.848 -0.3535 -0.0233  0.3410
  552SOL    HW1 1655   0.670   3.024   1.936  0.2980  0.8308  2.5724
  552SOL    HW2 1656   0.805   2.952   1.842  0.4663 -0.5194 -0.4549
  553SOL     OW 1657   2.988   2.529   0.332 -0.0702 -0.2191  0.2571
  553SOL    HW1 1658   2.970   2.426   0.337 -0.4587 -1.9648  2.1118
  553SOL    HW2 1659   2.948   2.584   0.415 -3.5311  1.7793  0.4403
  554SOL     OW 1660   2.147   0.361   0.600  0.4101  0.4241 -0.4464
  554SOL    HW1 1661   2.211   0.359   0.521  0.8624  1.0685  1.6713
  554SOL    HW2 1662   2.107   0.268   0.623 -0.2987  0.9177  1.0125
  555SOL     OW 1663   0.372   2.767   2.525 -0.2608 -0.4789 -0.2499
  555SOL    HW1 1664   0.315   2.842   2.480 -2.6428  1.1955 -0.9133
  555SOL    HW2 1665   0.434   2.722   2.455  0.7710  1.3033  1.7496
  556SOL     OW 1666   0.814   2.388   1.513 -0.0772  0.2258 -0.3743
  556SOL    HW1 1667   0.855   2.471   1.561  2.1609  0.9717 -1.2098
  556SOL    HW2 1668   0.879   2.341   1.446 -0.7883  3.3028 -0.0044
  557SOL     OW 1669   0.073   2.054   0.187 -0.5603 -0.0669  0.1341
  557SOL    HW1 1670   0.026   1.985   0.123 -0.5031  0.8608 -0.4951
  557SOL    HW2 1671   0.139   2.122   0.147 -0.1065 -0.2078  0.6979
  558SOL     OW 1672   2.898   2.277   0.291 -0.7969 -0.0125  0.0072
  558SOL    HW1 1673   2.801   2.290   0.328 -0.7871  1.1241  2.5446
  558SOL    HW2 1674   2.905   2.181   0.254  0.8189 -0.1738  2.4022
  559SOL     OW 1675   0.390   2.299   1.397 -0.2751  0.2251 -0.0716
  559SOL    HW1 1676   0.298   2.292   1.352  0.3372 -1.2052 -0.7700
  559SOL    HW2 1677   0.462   2.227   1.360 -2.3993 -2.6084 -1.9359
  560SOL     OW 1678   2.091   1.143   3.066  0.1772 -0.2537 -0.2047
  560SOL    HW1 1679   2.074   1.145   3.167 -0.9517 -0.4696 -0.9585
  560SOL    HW2 1680   2.137   1.227   3.029 -1.0039 -1.8519 -1.4030
  561SOL     OW 1681   3.047   1.858   0.031  0.8096  0.2819 -0.0485
  561SOL    HW1 1682   3.007   1.814   0.117 -1.0262 -3.3981 -0.2420
  561SOL    HW2 1683   2.985   1.938   0.005 -0.6069  1.8283  0.3436
  562SOL     OW 1684   0.985   2.259   2.328 -0.0910 -0.2413 -0.2966
  562SOL    HW1 1685   0.915   2.230   2.389  3.8719 -0.3995  1.1453
  562SOL    HW2 1686   1.055   2.312   2.382 -3.2645 -1.0156 -1.2013
  563SOL     OW 1687   0.704   2.579   2.613  0.1666  0.4143  0.0325
  563SOL    HW1 1688   0.801   2.542   2.602 -0.7493 -0.6544 -1.8239
  563SOL    HW2 1689   0.688   2.627   2.702  1.6486 -1.9215 -2.0325
  564SOL     OW 1690   2.829   1.313   2.915  0.9174  0.3172 -0.4246
  564SOL    HW1 1691   2.755   1.351   2.978  2.8886  0.9413 -0.6179
  564SOL    HW2 1692   2.876   1.381   2.856  0.2041  1.4071  0.5289
  565SOL     OW 1693   2.536   1.959   2.642 -0.0808  0.0049 -0.0787
  565SOL    HW1 1694   2.500   2.038   2.584 -0.4273  2.6028  0.7839
  565SOL    HW2 1695   2.618   1.993   2.700 -1.7363  2.6184  0.5826
  566SOL     OW 1696   2.073   2.818   1.378  0.0831  0.0818  0.2953
  566SOL    HW1 1697   2.014   2.734   1.377  1.2338  1.7682 -0.5151
  566SOL    HW2 1698   2.029   2.893   1.315 -0.0503 -0.2646 -1.2810
  567SOL     OW 1699   2.455   0.033   2.360 -0.5195 -0.9414  0.2202
  567SOL    HW1 1700   2.371   0.097   2.348 -1.8538 -1.4901  2.1481
  567SOL    HW2 1701   2.492   0.007   2.269  1.1863  0.8232  0.3276
  568SOL     OW 1702   1.507   1.783   0.271 -0.0185 -0.3632 -0.3983
  568SOL    HW1 1703   1.441   1.858   0.241 -0.4751  0.1010 -1.2527
  568SOL    HW2 1704   1.599   1.777   0.224 -0.9628 -1.3236 -2.1466
  569SOL     OW 1705   0.262   0.675   0.796  0.2246 -0.2773  0.3767
  569SOL    HW1 1706   0.345   0.623   0.773 -1.3935  0.5557  2.9260
  569SOL    HW2 1707   0.174   0.622   0.798  1.7529 -2.2301  1.7614
  570SOL     OW 1708   0.599   0.891   2.910  0.2976  0.1781  0.5730
  570SOL    HW1 1709   0.661   0.928   2.841  0.0142 -0.3049 -1.4121
  570SOL    HW2 1710   0.583   0.956   2.989 -0.6880  0.4498  2.4104
  571SOL     OW 1711   0.775   3.098   1.001  0.3619  0.8779  0.3386
  571SOL    HW1 1712   0.827   3.111   0.911  1.0100 -2.0904 -0.0762
  571SOL    HW2 1713   0.689   3.038   0.989  0.5468  4.9747 -1.1757
  572SOL     OW 1714   1.612   2.599   1.318  0.2415 -0.7735 -0.0145
  572SOL    HW1 1715   1.533   2.536   1.290  0.4387 -0.1135 -1.4779
  572SOL    HW2 1716   1.597   2.696   1.304  0.5769 -2.5357  1.5271
  573SOL     OW 1717   2.864   0.502   2.023  0.1325  0.9232 -0.3474
  573SOL    HW1 1718   2.799   0.421   2.005 -1.4998  2.1878 -1.1630
  573SOL    HW2 1719   2.882   0.555   1.941  0.9700  0.4680 -2.3125
  574SOL     OW 1720   0.157   1.732   1.044 -0.4214  0.8132  0.5540
  574SOL    HW1 1721   0.147   1.830   1.008 -0.1267  1.6470  0.6493
  574SOL    HW2 1722   0.073   1.697   1.101  1.2874 -1.3595  0.6937
  575SOL     OW 1723   0.871   2.157   0.932 -0.0247  0.0723 -0.6998
  575SOL    HW1 1724   0.814   2.194   1.012 -0.1047 -0.0097 -0.2323
  575SOL    HW2 1725   0.906   2.227   0.863 -0.2813 -3.0318 -1.6793
  576SOL     OW 1726   2.933   3.034   1.727 -0.4551 -0.2884 -0.0150
  576SOL    HW1 1727   2.830   3.047   1.718 -0.2258 -0.8641  1.0612
  576SOL    HW2 1728   2.981   3.117   1.690  1.2063  0.9649  4.1734
  577SOL     OW 1729   2.475   1.247   0.014 -0.1031  0.1917 -0.0512
  577SOL    HW1 1730   2.499   1.170  -0.050 -0.6493  1.2587  0.0723
  577SOL    HW2 1731   2.559   1.260   0.075 -2.3674  1.3349 -0.7467
  578SOL     OW 1732   1.386   2.750   2.431  0.3182 -0.3799 -0.2011
  578SOL    HW1 1733   1.291   2.776   2.456  1.0025  0.4232 -0.6231
  578SOL    HW2 1734   1.450   2.830   2.435 -2.4997 -0.3445 -1.0183
  579SOL     OW 1735   0.086   2.514   0.141 -0.1777 -0.3713  0.1532
  579SOL    HW1 1736   0.014   2.529   0.215 -1.6176 -0.5318 -3.1876
  579SOL    HW2 1737   0.185   2.531   0.170 -0.9948  1.1038  1.9690
  580SOL     OW 1738   0.973   2.694   0.408  0.0171  0.1161 -0.2398
  580SOL    HW1 1739   1.059   2.689   0.354  1.4981  0.7730 -0.9376
  580SOL    HW2 1740   0.897   2.640   0.357  2.4951  0.3639 -1.3418
  581SOL     OW 1741   1.259   2.648   1.468 -0.6836  0.2347 -0.8118
  581SOL    HW1 1742   1.292   2.551   1.481 -1.6372  1.1126  2.2497
  581SOL    HW2 1743   1.303   2.694   1.392 -1.7316  0.4085  1.6345
  582SOL     OW 1744   1.511   0.081   1.859  0.0690 -0.1181 -0.2906
  582SOL    HW1 1745   1.535   0.141   1.943  0.6988  0.2998 -0.4947
  582SOL    HW2 1746   1.593   0.042   1.805  0.4386 -0.1087 -0.7430
  583SOL     OW 1747   2.472   3.063   0.560 -0.3161 -0.1285  0.2619
  583SOL    HW1 1748   2.528   3.022   0.484 -2.3070 -3.1832 -2.4996
  583SOL    HW2 1749   2.380   3.020   0.581  1.2369 -0.0262 -0.1178
  584SOL     OW 1750   1.574   0.954   2.129 -0.4820  1.1330  0.5527
  584SOL    HW1 1751   1.630   0.934   2.044  1.1376  0.5284  1.0896
  584SOL    HW2 1752   1.622   0.935   2.216 -1.7246  1.5179 -2.8594
  585SOL     OW 1753   2.119   2.676   2.915  0.5485 -0.0419  0.3750
  585SOL    HW1 1754   2.121   2.588   2.863  0.1585  1.9817  1.2088
  585SOL    HW2 1755   2.023   2.707   2.947 -1.8289  0.6966  0.4361
  586SOL     OW 1756   2.829   0.378   1.561 -0.2473 -0.2545  0.8188
  586SOL    HW1 1757   2.821   0.461   1.627 -1.4685  1.7906 -0.1174
  586SOL    HW2 1758   2.744   0.313   1.558  2.4991 -0.0726  1.5845
  587SOL     OW 1759   2.022   1.551   2.646  0.5974  0.5340 -0.8040
  587SOL    HW1 1760   2.085   1.480   2.598  3.6969 -2.4263  0.5945
  587SOL    HW2 1761   2.032   1.535   2.750  2.4154 -1.1696  0.3470
  588SOL     OW 1762   0.460   2.689   2.268  0.3771 -0.1951 -0.0812
  588SOL    HW1 1763   0.357   2.676   2.257 -0.5821 -0.5151  0.4940
  588SOL    HW2 1764   0.510   2.605   2.302  1.7286  0.7244 -2.6770
  589SOL     OW 1765   2.155   1.361   2.504  0.0989 -0.4541 -0.2440
  589SOL    HW1 1766   2.110   1.291   2.441  2.5883  0.6884 -1.9914
  589SOL    HW2 1767   2.256   1.375   2.483  1.5593 -2.1043  0.0107
  590SOL     OW 1768   2.352   1.673   2.062 -0.2878  0.0547 -0.0504
  590SOL    HW1 1769   2.401   1.584   2.036  1.2672 -0.8089  0.4288
  590SOL    HW2 1770   2.360   1.711   2.162  1.5741  0.4762  1.1397
  591SOL     OW 1771   1.296   2.394   0.268  0.8142 -0.4795  0.2878
  591SOL    HW1 1772   1.335   2.314   0.215 -1.4697 -3.2848 -0.9607
  591SOL    HW2 1773   1.308   2.379   0.373 -2.2791 -1.1488  0.0742
  592SOL     OW 1774   1.789   2.271   0.745 -0.2294 -0.0534  0.3872
  592SOL    HW1 1775   1.740   2.318   0.665 -0.2869 -0.4882 -1.1808
  592SOL    HW2 1776   1.890   2.286   0.741 -2.5312  0.5314  2.4428
  593SOL     OW 1777   0.700   0.233   0.242 -0.0004  0.4830 -0.4114
  593SOL    HW1 1778   0.790   0.204   0.204 -0.1753  0.3325 -0.4375
  593SOL    HW2 1779   0.689   0.334   0.241  3.6799 -2.0010  0.5410
  594SOL     OW 1780   0.979   1.887   2.687  0.0615 -0.3076 -1.0174
  594SOL    HW1 1781   1.073   1.854   2.695 -3.6485 -0.7871 -1.7052
  594SOL    HW2 1782   0.960   1.986   2.712 -0.8762 -1.3871  1.9236
  595SOL     OW 1783   1.546   0.029   1.086 -0.0106 -0.7491 -0.2518
  595SOL    HW1 1784   1.592  -0.046   1.033 -0.7487  0.0482 -0.6353
  595SOL    HW2 1785   1.447   0.039   1.066 -0.7739 -1.2246  0.9151
  596SOL     OW 1786   3.086   1.436   2.247  1.0445  0.0372  0.0048
  596SOL    HW1 1787   3.068   1.337   2.271 -0.7449  0.1634 -1.7795
  596SOL    HW2 1788   3.141   1.495   2.312  0.7885  0.1406 -0.8248
  597SOL     OW 1789   1.989   2.547   1.700 -0.8919 -0.1436  0.3072
  597SOL    HW1 1790   1.995   2.548   1.598  0.4937 -0.0921  0.3737
  597SOL    HW2 1791   2.089   2.561   1.733  0.5381  0.2424  3.2353
  598SOL     OW 1792   2.530   2.947   1.205  0.7693 -0.0808 -0.4318
  598SOL    HW1 1793   2.581   2.981   1.290  1.0335  1.1532 -0.1022
  598SOL    HW2 1794   2.591   2.945   1.122 -2.6811 -0.0947 -2.4894
  599SOL     OW 1795   2.917   0.323   2.495 -0.3888 -0.3917  0.1070
  599SOL    HW1 1796   3.004   0.356   2.453 -1.5538 -0.9135 -0.0466
  599SOL    HW2 1797   2.844   0.392   2.476  0.7815  2.6516  0.6791
  600SOL     OW 1798   2.820   1.058   2.755  0.5837 -0.1226 -0.2499
  600SOL    HW1 1799   2.793   0.959   2.772  0.0091  0.3731  0.4872
  600SOL    HW2 1800   2.789   1.130   2.823  2.7545  2.9662 -0.3040
  601SOL     OW 1801   2.977   1.326   1.970 -0.1019  0.6265  0.0043
  601SOL    HW1 1802   2.881   1.365   1.959  0.0144  0.6522  1.8843
  601SOL    HW2 1803   3.044   1.398   1.962  1.0709 -0.9667 -1.5585
  602SOL     OW 1804   1.477   1.722   2.335 -0.7124  0.1422 -0.4213
  602SOL    HW1 1805   1.402   1.650   2.332 -1.5260  0.5648 -1.4138
  602SOL    HW2 1806   1.570   1.686   2.375 -3.0889 -1.2483 -0.4782
  603SOL     OW 1807   0.586   1.223   2.745 -0.0579  0.4341  0.6569
  603SOL    HW1 1808   0.501   1.228   2.684 -1.0640  0.0040 -1.4108
  603SOL    HW2 1809   0.651   1.145   2.725  0.9819  0.2464  3.1034
  604SOL     OW 1810   2.377   1.003   0.164 -0.2220 -0.3747  0.0477
  604SOL    HW1 1811   2.396   1.086   0.113 -3.4652 -2.1141 -0.6800
  604SOL    HW2 1812   2.402   0.922   0.106 -0.4592 -0.8325 -0.3471
  605SOL     OW 1813   2.545   1.149   1.956  0.1209  0.3246  0.2721
  605SOL    HW1 1814   2.567   1.063   1.903  1.1062 -1.0809  3.2908
  605SOL    HW2 1815   2.632   1.193   2.001 -0.8524  0.3664 -3.0762
  606SOL     OW 1816   1.529   2.529   2.535  0.3794  0.2082  0.2962
  606SOL    HW1 1817   1.450   2.587   2.495 -2.4719  0.2928  0.8698
  606SOL    HW2 1818   1.491   2.433   2.545 -1.2635  0.6144  0.8718
  607SOL     OW 1819   1.313   1.573   0.335 -0.3830  0.2490  0.4214
  607SOL    HW1 1820   1.240   1.635   0.377  1.3707  0.7477  1.8611
  607SOL    HW2 1821   1.399   1.628   0.328  2.3883  0.7053 -0.1685
  608SOL     OW 1822   1.408   2.842   0.363 -0.5508 -0.4629  0.8833
  608SOL    HW1 1823   1.487   2.890   0.313 -2.1248  1.4184 -2.9047
  608SOL    HW2 1824   1.343   2.911   0.405 -1.0311  0.2900 -0.5927
  609SOL     OW 1825   1.269   1.351   0.191  0.1015 -0.3799  0.4298
  609SOL    HW1 1826   1.264   1.449   0.242 -0.2009  3.7580  2.9409
  609SOL    HW2 1827   1.225   1.358   0.097 -1.1776 -0.3895  1.7137
  610SOL     OW 1828   2.980   1.169   2.238 -0.4144 -0.0260  0.3989
  610SOL    HW1 1829   2.971   1.067   2.220  1.0430 -1.1785  0.8980
  610SOL    HW2 1830   2.951   1.226   2.156 -2.2914 -0.1060 -0.6073
  611SOL     OW 1831   2.526   0.291   1.155 -0.3857 -0.2399  0.7930
  611SOL    HW1 1832   2.455   0.213   1.154  0.1197 -1.6829 -1.6783
  611SOL    HW2 1833   2.608   0.266   1.216 -1.3311 -0.8874  1.4202
  612SOL     OW 1834   0.761   2.274   1.163 -0.0811 -0.1719  0.5129
  612SOL    HW1 1835   0.700   2.223   1.227  1.8389 -1.6143 -3.8706
  612SOL    HW2 1836   0.738   2.376   1.148  1.0347  1.7682  2.1628
  613SOL     OW 1837   0.850   1.397   2.439  0.1589  0.2555  0.5442
  613SOL    HW1 1838   0.864   1.467   2.361  2.1419  2.0355 -0.1306
  613SOL    HW2 1839   0.804   1.309   2.406  1.2837 -1.4794 -0.8785
  614SOL     OW 1840   1.563   1.660   1.967  0.1370  0.0953 -0.6378
  614SOL    HW1 1841   1.509   1.741   1.936 -0.4744  0.4641  0.1678
  614SOL    HW2 1842   1.630   1.676   2.041 -1.4970  0.9125 -0.0255
  615SOL     OW 1843   0.798   1.355   1.728  0.5138 -0.6365 -0.4726
  615SOL    HW1 1844   0.715   1.333   1.662 -0.9922 -1.2793 -3.7414
  615SOL    HW2 1845   0.859   1.430   1.686 -3.8831  1.7467 -2.8003
  616SOL     OW 1846   1.009   1.600   2.155 -0.2493 -0.1857  0.1369
  616SOL    HW1 1847   0.917   1.564   2.172 -0.2354  1.0232 -1.8034
  616SOL    HW2 1848   1.012   1.684   2.099  0.6803 -2.2771 -1.7517
  617SOL     OW 1849   2.965   1.542   1.634  0.2171  0.0569 -0.3485
  617SOL    HW1 1850   2.889   1.500   1.685 -0.3723  2.0262 -0.4845
  617SOL    HW2 1851   2.966   1.502   1.535 -0.8760  0.1922  0.0114
  618SOL     OW 1852   1.918   1.976   1.488 -0.1195  0.5005  0.5378
  618SOL    HW1 1853   1.958   1.970   1.395  1.8825  3.3928  1.3631
  618SOL    HW2 1854   1.849   1.902   1.509 -0.6965 -1.8493 -0.0557
  619SOL     OW 1855   1.741   0.495   2.404  0.3143  0.1570 -0.4260
  619SOL    HW1 1856   1.665   0.541   2.346 -0.5909  0.0535  1.4622
  619SOL    HW2 1857   1.729   0.391   2.387 -0.7814  0.0676 -0.0398
  620SOL     OW 1858   2.232   2.977   0.659 -0.1876  0.0995  0.1613
  620SOL    HW1 1859   2.177   3.048   0.706 -2.0634  1.6587  0.4954
  620SOL    HW2 1860   2.242   2.890   0.714  0.6262  2.8250 -2.2481
  621SOL     OW 1861   2.162   1.871   1.322 -0.1520  0.4396 -0.0462
  621SOL    HW1 1862   2.154   1.871   1.428  0.0624 -3.5934  3.6123
  621SOL    HW2 1863   2.119   1.787   1.281  0.2283  1.3944  1.3022
  622SOL     OW 1864   2.234   0.924   1.807 -0.0406 -0.0750 -0.0166
  622SOL    HW1 1865   2.319   0.924   1.749 -0.1008 -1.2081 -1.6041
  622SOL    HW2 1866   2.228   0.833   1.858  3.4186 -1.7063 -0.0575
  623SOL     OW 1867   1.336   0.823   2.652  0.1937 -0.4559  0.0806
  623SOL    HW1 1868   1.282   0.757   2.712  1.4502 -0.8011  1.9336
  623SOL    HW2 1869   1.282   0.870   2.576  1.5697  1.5387  2.0219
  624SOL     OW 1870   0.590   0.632   3.085  0.1677 -0.2662  0.6563
  624SOL    HW1 1871   0.619   0.681   2.996  0.1851  0.3875  1.5133
  624SOL    HW2 1872   0.554   0.701   3.150 -0.2663 -0.2233 -0.2711
  625SOL     OW 1873   2.871   1.732   0.967  0.6476  0.9092  0.4012
  625SOL    HW1 1874   2.781   1.766   1.009  0.8903  1.1657  1.8171
  625SOL    HW2 1875   2.955   1.771   1.011 -0.5360  0.4372 -0.5045
  626SOL     OW 1876   0.605   2.711   1.829  0.1198  0.0543  0.4382
  626SOL    HW1 1877   0.649   2.790   1.878 -0.8190 -0.1589  0.8290
  626SOL    HW2 1878   0.503   2.722   1.828  1.8818  0.1393 -0.0757
  627SOL     OW 1879   0.722   1.013   1.535 -0.0460 -0.3767 -0.3826
  627SOL    HW1 1880   0.688   0.961   1.450 -0.5847 -0.9712 -0.9710
  627SOL    HW2 1881   0.807   1.060   1.505 -0.7960 -0.0819  0.5842
  628SOL     OW 1882   2.388   0.179   0.731  0.2665  0.6648  0.0245
  628SOL    HW1 1883   2.418   0.092   0.678 -1.1873  0.2276 -0.4879
  628SOL    HW2 1884   2.290   0.165   0.760 -2.2950 -4.0047 -1.3732
  629SOL     OW 1885   1.981   0.891   1.970 -0.1215  0.0960  0.1980
  629SOL    HW1 1886   2.017   0.911   1.876 -3.7793  2.1642  1.1865
  629SOL    HW2 1887   1.948   0.979   2.012  0.4725  0.8883 -0.3523
  630SOL     OW 1888   2.856   2.201   0.854 -0.4432 -0.0407 -0.1497
  630SOL    HW1 1889   2.786   2.275   0.836 -0.1819  1.6119  4.0704
  630SOL    HW2 1890   2.833   2.106   0.824 -1.1310 -0.6856  1.1332
  631SOL     OW 1891   2.948   0.162   2.123  0.0709 -0.5061 -0.3244
  631SOL    HW1 1892   3.026   0.210   2.183  1.3172  0.7763 -2.5851
  631SOL    HW2 1893   2.986   0.137   2.032 -2.7207  0.8930 -0.2090
  632SOL     OW 1894   2.435   2.512   0.639  0.3418  0.2114  0.3297
  632SOL    HW1 1895   2.491   2.590   0.682  0.9451  3.9322 -1.0107
  632SOL    HW2 1896   2.397   2.539   0.541  0.8820 -0.8458 -1.1923
  633SOL     OW 1897   1.417   1.240   2.523  0.3816  0.3224 -0.3625
  633SOL    HW1 1898   1.444   1.322   2.585 -1.3310  1.2523 -0.6366
  633SOL    HW2 1899   1.332   1.267   2.464 -0.6654  2.1681 -1.3846
  634SOL     OW 1900   0.682   1.946   0.931  0.0681 -0.0171  0.3907
  634SOL    HW1 1901   0.586   1.978   0.959 -0.6355  0.1116 -1.5404
  634SOL    HW2 1902   0.751   2.024   0.931  1.1597 -2.3229 -0.5251
  635SOL     OW 1903   3.064   2.316   3.080  0.2511  0.1456 -0.3264
  635SOL    HW1 1904   2.994   2.363   3.017  1.8487  0.9049 -2.6372
  635SOL    HW2 1905   3.118   2.390   3.138  0.8336  0.3923  0.6824
  636SOL     OW 1906   2.261   2.724   2.089  0.3777 -0.3083  0.6572
  636SOL    HW1 1907   2.255   2.828   2.106 -0.8994  2.0078  1.5945
  636SOL    HW2 1908   2.206   2.663   2.155 -0.6781  0.7194 -2.7038
  637SOL     OW 1909   2.641   0.717   2.042 -0.2544  0.1874 -0.3465
  637SOL    HW1 1910   2.587   0.712   1.950 -1.5161 -0.6473 -2.4163
  637SOL    HW2 1911   2.668   0.813   2.073 -0.0973 -1.8533  0.0641
  638SOL     OW 1912   2.411   1.770   1.235 -0.5395  0.3133 -0.3166
  638SOL    HW1 1913   2.318   1.816   1.257 -2.5727  0.8762  0.3784
  638SOL    HW2 1914   2.450   1.729   1.322 -0.7957  2.0474 -1.4861
  639SOL     OW 1915   1.288   2.179   1.722 -0.1715  0.3255  0.1750
  639SOL    HW1 1916   1.350   2.106   1.681  3.4030 -0.0231  0.6115
  639SOL    HW2 1917   1.186   2.155   1.731 -0.5173 -0.4031 -1.8955
  640SOL     OW 1918   0.198   1.148   1.584 -0.0642  0.1270 -0.2095
  640SOL    HW1 1919   0.182   1.189   1.677 -1.4020  1.8447  0.6433
  640SOL    HW2 1920   0.294   1.109   1.569  0.3957  0.0764 -1.6209
  641SOL     OW 1921   2.033   0.166   1.531 -0.4368 -0.2534 -0.5051
  641SOL    HW1 1922   2.018   0.187   1.632  1.5016 -2.4832 -0.4844
  641SOL    HW2 1923   2.086   0.080   1.524  2.2235  2.6335 -1.2712
  642SOL     OW 1924   1.965   0.110   0.294 -0.2934  0.4753  0.3315
  642SOL    HW1 1925   2.051   0.115   0.345 -3.0418  0.3229  0.0567
  642SOL    HW2 1926   1.890   0.077   0.354 -1.0036  0.3964 -2.7956
  643SOL     OW 1927   2.916   1.868   2.060 -0.1582  0.2821 -0.4140
  643SOL    HW1 1928   2.851   1.808   2.008  0.7993 -1.7362 -0.1612
  643SOL    HW2 1929   2.945   1.952   2.009 -3.1116  0.5657  1.1949
  644SOL     OW 1930   2.281   2.393   1.208 -0.0742  0.0245  0.1565
  644SOL    HW1 1931   2.328   2.314   1.157 -0.0352  1.6921  2.7400
  644SOL    HW2 1932   2.253   2.359   1.306 -0.9526 -4.1626 -2.1545
  645SOL     OW 1933   0.638   0.847   1.241 -0.2653  0.3665  0.6625
  645SOL    HW1 1934   0.547   0.800   1.259  2.9150 -0.9168  0.0141
  645SOL    HW2 1935   0.672   0.849   1.142  1.2516 -1.9300  0.9961
  646SOL     OW 1936   1.409   1.915   1.956 -0.4864  0.3908 -0.5429
  646SOL    HW1 1937   1.466   1.994   1.915 -1.3366  2.3213 -2.0734
  646SOL    HW2 1938   1.365   1.944   2.045 -0.2011  0.9237 -0.6203
  647SOL     OW 1939   0.799   1.077   0.680  0.0941 -0.1473  0.0014
  647SOL    HW1 1940   0.885   1.097   0.740 -0.7503  0.8371  0.5809
  647SOL    HW2 1941   0.781   0.971   0.676  1.0560 -2.8302 -2.0808
  648SOL     OW 1942   0.101   0.185   0.222  0.2215 -0.2413  0.1982
  648SOL    HW1 1943   0.147   0.136   0.145 -2.8414  0.0903 -1.3074
  648SOL    HW2 1944   0.120   0.291   0.219  0.8383 -1.2785 -1.9608
  649SOL     OW 1945   3.025   0.236   0.890  0.3896 -0.5300 -0.1854
  649SOL    HW1 1946   3.107   0.175   0.915  1.1108 -0.5555  1.9377
  649SOL    HW2 1947   3.037   0.329   0.935  1.2551  0.5421 -1.9457
  650SOL     OW 1948   2.749   0.677   1.428 -0.4309 -0.1369 -0.2919
  650SOL    HW1 1949   2.646   0.659   1.429  0.1553  0.2423 -1.1149
  650SOL    HW2 1950   2.762   0.768   1.377 -0.4793 -0.0299 -1.5633
  651SOL     OW 1951   0.919   1.560   1.599  0.2187 -0.0781 -0.5596
  651SOL    HW1 1952   0.976   1.650   1.604  1.1185  1.8483  2.0132
  651SOL    HW2 1953   0.942   1.509   1.513  0.7836  0.5621  2.2718
  652SOL     OW 1954   2.319   2.450   2.494 -0.2382  0.4005 -0.1273
  652SOL    HW1 1955   2.243   2.416   2.553 -0.7080  3.7653  2.2027
  652SOL    HW2 1956   2.280   2.506   2.420  1.5113  0.3244  2.7177
  653SOL     OW 1957   2.702   1.231   0.183 -0.4092 -1.0497 -0.3943
  653SOL    HW1 1958   2.759   1.317   0.209 -1.3369 -0.5721  2.8416
  653SOL    HW2 1959   2.767   1.149   0.168  1.1523 -1.5783 -3.3569
  654SOL     OW 1960   1.282   2.242   1.267  0.4317 -0.2874 -0.2234
  654SOL    HW1 1961   1.288   2.165   1.336  1.2504  1.4969 -0.3298
  654SOL    HW2 1962   1.318   2.217   1.173 -0.3647  1.9489  2.1790
  655SOL     OW 1963   0.159   0.942   1.916  0.1444  0.2898 -1.1481
  655SOL    HW1 1964   0.193   0.856   1.868  0.6184  2.3939 -1.9142
  655SOL    HW2 1965   0.228   1.019   1.919 -0.5310 -0.7209 -0.4842
  656SOL     OW 1966   2.550   2.497   2.638 -0.8653 -0.3544 -0.5681
  656SOL    HW1 1967   2.630   2.480   2.575 -0.7924  1.6764 -3.0502
  656SOL    HW2 1968   2.465   2.499   2.586  3.7532  4.5432  0.0678
  657SOL     OW 1969   3.005   1.048   1.939  0.5988 -0.0776  0.0330
  657SOL    HW1 1970   2.995   1.148   1.965 -1.7108  0.9498 -0.0521
  657SOL    HW2 1971   3.102   1.019   1.929 -2.3893 -0.5508  0.0041
  658SOL     OW 1972   1.700   0.225   2.400  0.7915 -0.1174  0.2508
  658SOL    HW1 1973   1.715   0.152   2.474 -2.0294  2.7734  0.9531
  658SOL    HW2 1974   1.732   0.195   2.304  0.1708 -2.1041  1.4569
  659SOL     OW 1975   1.448   0.632   2.930  0.4477  0.0234  0.9242
  659SOL    HW1 1976   1.515   0.712   2.918 -0.1631  0.0734 -0.5195
  659SOL    HW2 1977   1.354   0.649   2.892  3.4539 -0.8839  1.1662
  660SOL     OW 1978   1.408   0.355   1.443 -0.2592  0.5882  0.4583
  660SOL    HW1 1979   1.465   0.363   1.523 -3.7403  0.1047 -1.4636
  660SOL    HW2 1980   1.426   0.262   1.399 -1.0585 -0.1952  0.3400
  661SOL     OW 1981   2.481   1.196   0.672  0.1429 -0.1085 -0.3556
  661SOL    HW1 1982   2.461   1.169   0.573  2.9921  2.2772  0.2534
  661SOL    HW2 1983   2.437   1.291   0.698 -0.6436  1.8752  1.1391
  662SOL     OW 1984   1.386   0.460   1.801 -0.1582  0.2220  0.5420
  662SOL    HW1 1985   1.334   0.373   1.783  1.3531  0.8324 -0.2352
  662SOL    HW2 1986   1.377   0.497   1.896 -2.7870  1.7455 -0.8794
  663SOL     OW 1987   0.753   1.532   2.228  0.5378  0.4790  0.0549
  663SOL    HW1 1988   0.717   1.627   2.254  1.7846  2.2116 -0.7495
  663SOL    HW2 1989   0.716   1.490   2.134 -1.3270 -4.7304 -4.5078
  664SOL     OW 1990   1.626   2.088   1.450  0.2610  0.0379  0.2067
  664SOL    HW1 1991   1.557   2.035   1.510  0.0140  2.3313  3.4896
  664SOL    HW2 1992   1.727   2.066   1.473 -1.3544  0.6696 -0.2442
  665SOL     OW 1993   2.269   0.657   1.935  0.3051 -0.0386  0.3482
  665SOL    HW1 1994   2.266   0.557   1.941 -0.2291 -1.0937  0.0713
  665SOL    HW2 1995   2.302   0.707   2.020 -3.5138  0.4901  0.1958
  666SOL     OW 1996   0.366   2.357   0.357 -0.0857  0.2600  0.5822
  666SOL    HW1 1997   0.424   2.386   0.435 -0.5838  0.8569 -0.7343
  666SOL    HW2 1998   0.266   2.333   0.376  1.5240  0.4677  0.2931
  667SOL     OW 1999   1.987   0.160   1.172 -0.0188 -0.9289 -0.3119
  667SOL    HW1 2000   1.980   0.253   1.129  3.3748 -0.3051 -1.3324
  667SOL    HW2 2001   1.925   0.137   1.253  1.7206 -2.1925 -0.8527
  668SOL     OW 2002   2.017   0.500   1.163  0.0196  0.3188  0.6757
  668SOL    HW1 2003   2.090   0.540   1.099  1.5845 -0.6549 -2.8843
  668SOL    HW2 2004   2.058   0.478   1.252  0.5692  2.1067  0.4638
  669SOL     OW 2005   3.098   2.189   1.010 -0.3902  0.3924  0.3732
  669SOL    HW1 2006   3.025   2.189   0.928 -2.5948 -1.6095 -2.1169
  669SOL    HW2 2007   3.053   2.197   1.108 -1.9197 -1.4526  0.6739
  670SOL     OW 2008   2.840   2.329   1.948  0.0904 -0.6441 -0.1405
  670SOL    HW1 2009   2.798   2.302   2.041  1.0542 -0.2414 -1.2426
  670SOL    HW2 2010   2.851   2.434   1.939  1.1148  2.9368 -0.1464
  671SOL     OW 2011   1.756   1.733   1.488  0.4603  0.6415 -0.0839
  671SOL    HW1 2012   1.816   1.747   1.404  0.5563 -3.5042  1.6938
  671SOL    HW2 2013   1.669   1.673   1.462 -2.1384  0.3271  3.1948
  672SOL     OW 2014   0.393   0.620   2.393 -0.1782 -0.0873 -0.5697
  672SOL    HW1 2015   0.452   0.670   2.319 -0.0383  1.4367  0.6094
  672SOL    HW2 2016   0.302   0.668   2.409 -0.5008  1.3341  2.2878
  673SOL     OW 2017   0.112   1.163   1.139 -0.2211  0.2624  0.3776
  673SOL    HW1 2018   0.124   1.212   1.226 -1.6004  1.7247 -0.0235
  673SOL    HW2 2019   0.195   1.101   1.117  1.0255  1.0184 -0.5633
  674SOL     OW 2020   1.626   2.946   0.232 -0.3146 -0.5347  0.0120
  674SOL    HW1 2021   1.643   3.028   0.166  0.4953  0.5814  1.2864
  674SOL    HW2 2022   1.639   2.850   0.199 -0.9697 -0.8505 -0.0609
  675SOL     OW 2023   1.708   0.824   2.326 -0.2874 -0.0326 -0.6460
  675SOL    HW1 2024   1.799   0.806   2.283 -1.9601 -1.7657  0.0883
  675SOL    HW2 2025   1.638   0.742   2.320  2.1667  0.1343 -0.4409
  676SOL     OW 2026   2.485   1.446   2.003 -0.1223 -0.2074  0.0063
  676SOL    HW1 2027   2.471   1.433   1.899 -1.6731 -0.5276  1.5495
  676SOL    HW2 2028   2.571   1.399   2.032  0.7206 -1.5769  1.7607
  677SOL     OW 2029   1.939   0.704   0.854  0.1670  0.6061  0.3817
  677SOL    HW1 2030   1.955   0.740   0.953 -1.3046  1.3131  3.8319
  677SOL    HW2 2031   1.959   0.601   0.848  3.8045 -0.2486 -0.2722
  678SOL     OW 2032   0.006   0.763   1.677  0.2722  0.3673  0.1830
  678SOL    HW1 2033   0.108   0.759   1.695 -1.9538 -1.0978 -0.1577
  678SOL    HW2 2034  -0.053   0.765   1.761 -0.9608  0.1627  1.8041
  679SOL     OW 2035   2.602   1.183   1.085  0.1154  0.1974  0.3388
  679SOL    HW1 2036   2.507   1.215   1.105  1.5824  1.8289  0.3093
  679SOL    HW2 2037   2.610   1.078   1.083  2.7625  0.0561 -1.2333
  680SOL     OW 2038   2.792   0.628   1.720 -0.0600  0.1968  0.2497
  680SOL    HW1 2039   2.783   0.648   1.618 -0.2469 -0.4539 -0.3758
  680SOL    HW2 2040   2.841   0.705   1.765  0.1531 -0.9944 -1.0666
  681SOL     OW 2041   3.020   0.192   1.659  0.2591  0.1734 -0.0024
  681SOL    HW1 2042   3.085   0.207   1.583  1.2133  1.6122 -1.2279
  681SOL    HW2 2043   2.949   0.267   1.642  3.8191 -0.4131 -0.6169
  682SOL     OW 2044   0.747   0.014   1.308 -1.0019  0.6075 -0.4826
  682SOL    HW1 2045   0.679  -0.051   1.352  2.6101  1.4552 -1.6761
  682SOL    HW2 2046   0.770  -0.003   1.208 -1.6311  3.4403  2.6184
  683SOL     OW 2047   1.343   0.185   2.204 -0.0154 -0.2263  0.1103
  683SOL    HW1 2048   1.361   0.230   2.295 -2.8848 -1.9303  0.3451
  683SOL    HW2 2049   1.412   0.208   2.128  2.3106 -3.2398 -1.3856
  684SOL     OW 2050   1.449   2.118   0.534  0.2549 -0.0381  0.5442
  684SOL    HW1 2051   1.504   2.043   0.585  2.1829 -0.2207 -2.6072
  684SOL    HW2 2052   1.369   2.080   0.479  2.0966  1.3293  1.1423
  685SOL     OW 2053   2.140   1.986   1.980  0.3909 -0.2971  0.4165
  685SOL    HW1 2054   2.207   1.965   1.899  0.3485  0.7913 -2.9923
  685SOL    HW2 2055   2.164   1.934   2.068  0.8281  2.1531 -1.2760
  686SOL     OW 2056   1.514   1.796   2.744 -0.3750 -0.0208  0.3261
  686SOL    HW1 2057   1.536   1.786   2.846 -1.0238  2.3593  0.6461
  686SOL    HW2 2058   1.535   1.711   2.691  0.8061  1.3452 -1.3158
  687SOL     OW 2059   1.255   2.491   1.991 -0.3731 -0.1455 -0.0233
  687SOL    HW1 2060   1.287   2.397   2.008  4.5201  1.2861  1.1842
  687SOL    HW2 2061   1.337   2.550   2.021 -1.4400  1.4817 -1.5478
  688SOL     OW 2062   2.070   1.576   1.746  0.5455  0.8596  0.2416
  688SOL    HW1 2063   2.160   1.623   1.747 -1.1187  1.8589 -0.8476
  688SOL    HW2 2064   2.046   1.512   1.667  2.1541 -0.7706  0.1290
  689SOL     OW 2065   2.449   1.062   2.668  0.1332  0.0721 -0.3281
  689SOL    HW1 2066   2.346   1.057   2.674  1.6488 -2.2300 -3.3003
  689SOL    HW2 2067   2.493   1.077   2.765  2.0726 -0.5464 -1.0055
  690SOL     OW 2068   2.253   2.803   0.024 -0.3022  0.3826  0.7172
  690SOL    HW1 2069   2.207   2.741  -0.048  0.2857 -1.7299  1.5395
  690SOL    HW2 2070   2.196   2.846   0.098 -1.3019  0.2450 -2.7780
  691SOL     OW 2071   2.588   0.486   2.222 -0.0168  0.3625 -0.2809
  691SOL    HW1 2072   2.628   0.403   2.168  0.6228 -0.1968  0.2225
  691SOL    HW2 2073   2.610   0.575   2.173  0.2568 -2.8034 -0.0172
  692SOL     OW 2074   2.766   1.228   0.712  0.2175  0.0773 -0.1290
  692SOL    HW1 2075   2.670   1.207   0.682 -0.8191 -0.5651  1.0564
  692SOL    HW2 2076   2.771   1.310   0.775 -0.4928 -0.4150 -2.0040
  693SOL     OW 2077   2.799   2.941   0.653 -0.3266  0.1422  0.6544
  693SOL    HW1 2078   2.794   3.031   0.700 -1.9889  0.6430 -0.9501
  693SOL    HW2 2079   2.774   2.957   0.554 -0.6781  2.1098 -0.3490
  694SOL     OW 2080   2.365   2.194   0.076  0.2279  0.4362 -0.0003
  694SOL    HW1 2081   2.341   2.283   0.123  1.3449 -1.9889 -0.1827
  694SOL    HW2 2082   2.289   2.141   0.033  1.2004  0.2754  2.3620
  695SOL     OW 2083   0.590   2.943   1.470 -0.1163 -0.4492  0.4352
  695SOL    HW1 2084   0.537   2.861   1.431  1.1732  1.7780  2.3895
  695SOL    HW2 2085   0.534   2.993   1.543  0.7511 -0.9597 -0.7695
  696SOL     OW 2086   2.825   1.949   0.782  0.7183 -0.1877  0.0136
  696SOL    HW1 2087   2.827   1.881   0.864 -1.7684 -1.5722  1.3256
  696SOL    HW2 2088   2.858   1.905   0.695  1.4677  1.5913 -0.4246
  697SOL     OW 2089   1.616   2.062   1.814  0.0975  0.5517 -0.3981
  697SOL    HW1 2090   1.690   2.001   1.857  2.9098  0.2212  4.1260
  697SOL    HW2 2091   1.659   2.156   1.799  0.0854 -0.5738  0.7924
  698SOL     OW 2092   2.935   0.437   2.755  0.0596 -0.3519  0.3655
  698SOL    HW1 2093   2.945   0.394   2.662 -1.0636  2.2890 -1.8785
  698SOL    HW2 2094   2.986   0.380   2.831  0.7473  0.8770  0.6769
  699SOL     OW 2095   1.568   0.091   2.923 -0.1139 -0.0506 -0.1863
  699SOL    HW1 2096   1.543   0.009   2.868 -0.6234  5.8468 -0.6932
  699SOL    HW2 2097   1.619   0.159   2.864 -1.7802 -0.4276 -2.1509
  700SOL     OW 2098   1.006   2.297   1.317  0.6866 -0.2262 -0.1219
  700SOL    HW1 2099   1.104   2.268   1.292 -0.6327  0.5767 -0.7800
  700SOL    HW2 2100   0.937   2.250   1.255 -0.3767 -0.5093 -0.9597
  701SOL     OW 2101   1.946   2.838   3.073  0.0714  0.1369  0.3453
  701SOL    HW1 2102   1.911   2.796   3.162  0.7195  0.8515  2.8111
  701SOL    HW2 2103   1.980   2.936   3.093 -1.7807  2.1668  0.5072
  702SOL     OW 2104   2.056   1.347   1.935 -0.4873 -0.0713 -0.7632
  702SOL    HW1 2105   2.148   1.304   1.922 -1.9413 -0.4136  0.8724
  702SOL    HW2 2106   2.027   1.397   1.845 -1.7101  0.7539 -2.5422
  703SOL     OW 2107   1.957   0.891   1.426  0.1458 -0.0051 -0.0881
  703SOL    HW1 2108   1.924   0.794   1.454 -1.4265 -2.1411  0.5168
  703SOL    HW2 2109   2.003   0.944   1.501 -0.4116  0.9878  0.1323
  704SOL     OW 2110   0.336   2.050   1.665  0.5906 -0.2502  0.5673
  704SOL    HW1 2111   0.332   1.980   1.738 -0.6835 -0.6042  1.0703
  704SOL    HW2 2112   0.416   2.116   1.683 -0.2432  1.2764 -1.9608
  705SOL     OW 2113   2.478   1.434   0.968 -0.1727 -0.8074  0.0604
  705SOL    HW1 2114   2.451   1.426   0.866  1.4248  2.0721 -0.1418
  705SOL    HW2 2115   2.559   1.373   0.989  1.5348 -1.5791  1.8587
  706SOL     OW 2116   0.673   1.670   1.828  0.0520 -0.0424 -0.1660
  706SOL    HW1 2117   0.668   1.572   1.865  0.1675  2.2865 -0.0511
  706SOL    HW2 2118   0.688   1.741   1.900 -0.2164 -0.9615 -0.4916
  707SOL     OW 2119   2.284   1.198   1.882 -0.3054 -0.2893 -0.4353
  707SOL    HW1 2120   2.378   1.185   1.925  2.2716  1.0484 -0.3570
  707SOL    HW2 2121   2.242   1.103   1.854  0.8300 -1.9236  0.9960
  708SOL     OW 2122   3.012   0.529   3.057 -0.8009  0.3590 -0.4325
  708SOL    HW1 2123   3.041   0.576   2.973 -2.7348 -2.0854  1.2097
  708SOL    HW2 2124   3.042   0.429   3.039  1.6579  4.1243  1.5459
  709SOL     OW 2125   1.809   1.846   0.199 -0.6848 -0.0196 -0.0833
  709SOL    HW1 2126   1.823   1.940   0.237  0.1426 -0.0451  1.3359
  709SOL    HW2 2127   1.834   1.842   0.096  2.3746 -1.9279 -0.4307
  710SOL     OW 2128   1.712   1.626   2.425  0.1300 -0.0607 -0.6356
  710SOL    HW1 2129   1.740   1.586   2.332 -1.6177 -1.2222 -3.1565
  710SOL    HW2 2130   1.729   1.550   2.501 -0.8433  0.4641  2.6411
  711SOL     OW 2131   2.685   2.989   0.964 -0.0861 -0.2757  0.3806
  711SOL    HW1 2132   2.660   3.078   0.924  2.2583  0.1544  1.4833
  711SOL    HW2 2133   2.786   2.975   0.961 -0.8006 -0.4774 -0.4384
  712SOL     OW 2134   1.348   2.209   1.981  0.1096  0.2937 -0.2480
  712SOL    HW1 2135   1.450   2.225   2.003  2.0018  1.2478 -0.7473
  712SOL    HW2 2136   1.329   2.185   1.881 -1.1836  2.0074 -2.0199
  713SOL     OW 2137   2.948   1.442   2.568 -0.1506 -0.2906  0.4956
  713SOL    HW1 2138   2.870   1.382   2.541  1.1997  0.3022 -1.0224
  713SOL    HW2 2139   2.932   1.477   2.662 -0.1138 -0.3955 -1.5641
  714SOL     OW 2140   2.685   0.514   2.472 -0.0234  0.8179 -1.0436
  714SOL    HW1 2141   2.633   0.469   2.551 -0.1535  0.9425  1.0840
  714SOL    HW2 2142   2.651   0.482   2.375  0.2291 -2.2551 -1.6061
  715SOL     OW 2143   1.606   2.036   1.191 -0.1394  0.2390  0.5402
  715SOL    HW1 2144   1.515   2.069   1.148 -0.5288  3.9612 -0.3404
  715SOL    HW2 2145   1.620   2.070   1.288 -0.3526 -1.7923  0.1078
  716SOL     OW 2146   1.220   0.117   1.458 -0.5376  0.6184 -0.2257
  716SOL    HW1 2147   1.124   0.098   1.497  0.2889  0.3877  3.1591
  716SOL    HW2 2148   1.245   0.215   1.439 -0.6351  2.2615 -0.5589
  717SOL     OW 2149   1.128   0.543   1.590 -0.3435  0.4399  0.1120
  717SOL    HW1 2150   1.214   0.590   1.629 -0.3053  1.4818 -1.1794
  717SOL    HW2 2151   1.122   0.524   1.486  1.2091 -0.3647 -1.4312
  718SOL     OW 2152   0.704   0.925   0.994  0.7929 -0.3436 -0.3097
  718SOL    HW1 2153   0.682   0.894   0.901  0.9533 -1.2645  0.1415
  718SOL    HW2 2154   0.673   1.023   1.001  0.5425  0.9541 -5.3188
  719SOL     OW 2155   0.663   1.778   2.310  0.7349  0.2451 -0.1765
  719SOL    HW1 2156   0.738   1.830   2.357  1.7412  0.3899 -3.3655
  719SOL    HW2 2157   0.576   1.748   2.364 -0.0947  0.7701  1.4797
  720SOL     OW 2158   2.192   1.166   0.290  0.0058  0.2121 -0.7000
  720SOL    HW1 2159   2.228   1.075   0.250  2.6284 -1.0847 -1.9263
  720SOL    HW2 2160   2.175   1.161   0.393  0.5669 -1.1923  1.3437
  721SOL     OW 2161   2.261   2.992   2.135  0.1767  0.2715  0.3934
  721SOL    HW1 2162   2.236   3.003   2.037  2.3650  0.2256  1.4090
  721SOL    HW2 2163   2.193   3.039   2.199 -1.0055 -0.4014 -4.3038
  722SOL     OW 2164   2.391   1.600   0.490 -0.4498  0.5094 -0.1818
  722SOL    HW1 2165   2.435   1.534   0.423  0.4045  2.4757 -0.0864
  722SOL    HW2 2166   2.381   1.697   0.449  2.8089 -0.0975  3.6817
  723SOL     OW 2167   2.516   2.725   1.983 -0.0326  0.3639  0.1995
  723SOL    HW1 2168   2.594   2.758   2.044  0.5339 -0.8333  1.0741
  723SOL    HW2 2169   2.425   2.728   2.038  0.7895 -1.1482 -0.1679
  724SOL     OW 2170   0.536   2.475   2.428  0.2921 -0.2827 -0.1394
  724SOL    HW1 2171   0.435   2.441   2.448 -0.2287 -0.3392  2.3436
  724SOL    HW2 2172   0.586   2.523   2.510  1.0049 -1.3639 -0.8730
  725SOL     OW 2173   2.446   2.799   1.491 -0.9874  0.1423  0.0105
  725SOL    HW1 2174   2.488   2.770   1.400  1.3673 -0.6706 -0.2455
  725SOL    HW2 2175   2.413   2.716   1.540  1.1447  2.3369 -0.4905
  726SOL     OW 2176   2.475   2.243   0.705 -0.5534 -0.2477  0.1751
  726SOL    HW1 2177   2.462   2.337   0.673 -2.2767 -0.2513  0.5074
  726SOL    HW2 2178   2.453   2.170   0.629 -1.0574 -0.9481 -0.3166
  727SOL     OW 2179   0.143   3.082   0.029 -0.1642  0.0727 -0.0786
  727SOL    HW1 2180   0.183   2.995   0.070  0.2615 -0.4207  2.6274
  727SOL    HW2 2181   0.151   3.089  -0.070 -1.6276  1.6857  0.5694
  728SOL     OW 2182   2.891   0.679   0.974 -0.3059  0.5476  0.1715
  728SOL    HW1 2183   2.791   0.662   0.939 -1.3795 -2.5835  1.0462
  728SOL    HW2 2184   2.894   0.642   1.071 -2.0163  0.5907 -2.7503
  729SOL     OW 2185   3.027   2.474   0.751  0.3934 -0.2314  0.2863
  729SOL    HW1 2186   2.978   2.442   0.840  1.5018  1.2951 -0.3553
  729SOL    HW2 2187   3.120   2.436   0.752 -4.1382 -0.4786 -0.5538
  730SOL     OW 2188   2.632   0.663   0.824 -0.1243  0.2574  0.0738
  730SOL    HW1 2189   2.581   0.756   0.809 -3.0779 -0.7709  0.2273
  730SOL    HW2 2190   2.712   0.655   0.755  4.0548 -0.0782  1.1777
  731SOL     OW 2191   0.127   2.137   2.452  0.3199  0.9784 -0.4704
  731SOL    HW1 2192   0.080   2.184   2.534  0.3725  3.2523  0.8369
  731SOL    HW2 2193   0.172   2.203   2.388 -3.9309  2.7559 -0.5160
  732SOL     OW 2194   1.137   2.837   1.948  0.4802  0.2681 -0.0460
  732SOL    HW1 2195   1.184   2.801   2.034 -1.5051  0.0835 -0.6642
  732SOL    HW2 2196   1.140   2.771   1.866 -1.4720  0.9401  2.7819
  733SOL     OW 2197   3.038   0.578   2.242 -0.3664 -0.3749  0.2609
  733SOL    HW1 2198   3.113   0.624   2.186  0.9841 -0.0324  1.6050
  733SOL    HW2 2199   2.951   0.560   2.183  3.2252  2.5761 -0.0738
  734SOL     OW 2200   1.407   0.358   2.767  0.4972 -0.3107  0.0533
  734SOL    HW1 2201   1.404   0.454   2.812  0.1586 -0.6174 -3.0944
  734SOL    HW2 2202   1.315   0.312   2.766 -0.6099 -0.4840 -0.0090
  735SOL     OW 2203   2.888   2.630   2.259 -0.1022  0.1048 -0.7228
  735SOL    HW1 2204   2.879   2.608   2.156  0.2550  0.1435 -0.3802
  735SOL    HW2 2205   2.960   2.699   2.286 -2.3254  1.1816  1.8923
  736SOL     OW 2206   0.766   0.292   2.667 -0.3378 -0.3858  0.4802
  736SOL    HW1 2207   0.666   0.300   2.694 -4.5650 -0.9952  2.4443
  736SOL    HW2 2208   0.780   0.268   2.566 -0.0125  0.5437 -1.1885
  737SOL     OW 2209   2.684   0.453   2.874  0.0761 -1.2853 -0.2047
  737SOL    HW1 2210   2.675   0.421   2.972  1.6205 -0.1357  0.0190
  737SOL    HW2 2211   2.783   0.470   2.845  0.9340  1.6958  2.8350
  738SOL     OW 2212   1.634   1.281   2.906  0.2011 -0.1034 -0.1382
  738SOL    HW1 2213   1.732   1.252   2.885  0.7369 -0.3953  1.6153
  738SOL    HW2 2214   1.569   1.203   2.909  0.1881 -2.6102  0.1559
  739SOL     OW 2215   1.740   0.613   0.693  0.5097 -0.2546  0.2227
  739SOL    HW1 2216   1.788   0.656   0.774 -0.0455 -1.9842 -3.0052
  739SOL    HW2 2217   1.800   0.544   0.645 -1.9502 -0.2637 -0.4830
  740SOL     OW 2218   1.991   1.915   2.216  0.4686  0.2050  0.0207
  740SOL    HW1 2219   2.037   1.851   2.286  1.2137  0.7512  1.3704
  740SOL    HW2 2220   1.893   1.907   2.210  2.0422  4.2596  0.0207
  741SOL     OW 2221   2.530   0.040   2.605  0.5429  0.0769  0.1678
  741SOL    HW1 2222   2.632   0.030   2.617  0.4502  3.0199  0.6709
  741SOL    HW2 2223   2.496   0.040   2.504 -2.5528 -0.4735 -1.2319
  742SOL     OW 2224   2.233   1.429   0.249 -0.0081  0.3719  0.4404
  742SOL    HW1 2225   2.139   1.476   0.264 -1.7493 -2.5832 -1.2689
  742SOL    HW2 2226   2.238   1.327   0.275 -0.8222 -0.4893  1.5107
  743SOL     OW 2227   1.853   0.679   2.620 -0.3763 -0.0216  0.4547
  743SOL    HW1 2228   1.824   0.609   2.555  0.9062 -1.5768  2.6434
  743SOL    HW2 2229   1.778   0.755   2.629  0.9898  0.4927  1.1438
  744SOL     OW 2230   2.608   2.088   0.129  0.3214 -0.6474 -0.2884
  744SOL    HW1 2231   2.511   2.143   0.118 -3.9077  2.6578 -2.3697
  744SOL    HW2 2232   2.604   1.986   0.110  2.2799 -0.5396 -2.1829
  745SOL     OW 2233   2.181   2.614   2.345  0.1169  0.2466 -0.2076
  745SOL    HW1 2234   2.079   2.613   2.348  1.2459 -0.2936  4.4134
  745SOL    HW2 2235   2.217   2.672   2.421  2.6635  1.4902 -2.5430
  746SOL     OW 2236  -0.002   2.630   1.714 -0.6919  0.6722  0.2193
  746SOL    HW1 2237   0.063   2.625   1.634  0.2341 -1.0050 -0.1762
  746SOL    HW2 2238  -0.003   2.721   1.761 -2.4935  2.7201 -0.4552
  747SOL     OW 2239   0.016   1.785   1.639 -0.9351  0.2245 -0.2981
  747SOL    HW1 2240  -0.028   1.696   1.640  0.7231  0.3184  0.6932
  747SOL    HW2 2241   0.081   1.803   1.556  0.5990  0.7208 -1.7500
  748SOL     OW 2242   1.831   2.738   2.827  0.5869 -0.3112 -0.3908
  748SOL    HW1 2243   1.868   2.800   2.908  0.1168  0.9470  2.5661
  748SOL    HW2 2244   1.728   2.724   2.851 -1.3418  2.2210 -0.1986
  749SOL     OW 2245   1.285   3.060   0.960 -0.8926  0.3658  0.1375
  749SOL    HW1 2246   1.196   3.013   0.943 -0.1723  0.6124 -0.7187
  749SOL    HW2 2247   1.364   3.036   0.893  1.9312  1.0605 -1.3735
  750SOL     OW 2248   2.325   0.182   1.875  0.7167  0.1465 -0.6378
  750SOL    HW1 2249   2.328   0.242   1.792  2.3695  0.6041  1.5073
  750SOL    HW2 2250   2.334   0.233   1.964  0.3601 -2.0952  1.9550
  751SOL     OW 2251   0.899   2.144   2.743  0.2100  0.4907 -0.2930
  751SOL    HW1 2252   0.963   2.189   2.814 -0.0953  0.4338 -0.6046
  751SOL    HW2 2253   0.799   2.147   2.771 -1.5102  2.2834 -1.0594
  752SOL     OW 2254   1.294   0.876   1.375  0.0473 -0.2805  0.1912
  752SOL    HW1 2255   1.372   0.937   1.340 -2.9629 -1.6301  0.5486
  752SOL    HW2 2256   1.322   0.776   1.370 -1.4660  2.1336  2.0070
  753SOL     OW 2257   0.926   2.573   1.694  0.4979  0.0406  0.7882
  753SOL    HW1 2258   1.027   2.610   1.692  0.2254  2.0272 -3.7091
  753SOL    HW2 2259   0.855   2.644   1.671 -1.2432 -0.2859  1.1923
  754SOL     OW 2260   1.108   1.237   3.055  0.2947  0.4888  0.6918
  754SOL    HW1 2261   1.170   1.181   2.990  2.7447 -0.7501 -0.2733
  754SOL    HW2 2262   1.113   1.343   3.042 -2.2917  2.8353  1.3607
  755SOL     OW 2263   1.975   0.448   2.228 -0.2362 -0.3286  0.1017
  755SOL    HW1 2264   2.043   0.366   2.247  2.0218  0.8450  2.7780
  755SOL    HW2 2265   1.909   0.472   2.306 -2.3736  0.5018 -0.5181
  756SOL     OW 2266   2.542   1.030   2.954 -0.0553 -0.3855  0.2967
  756SOL    HW1 2267   2.642   1.015   2.975 -0.1292 -0.3445  0.2491
  756SOL    HW2 2268   2.480   0.947   2.974  1.7005  2.0434 -1.7696
  757SOL     OW 2269   3.094   0.456   1.791 -0.3840 -0.7018 -0.7743
  757SOL    HW1 2270   3.155   0.432   1.714 -1.5082  0.6129 -0.1179
  757SOL    HW2 2271   3.109   0.390   1.871 -2.9652 -1.5174  1.5288
  758SOL     OW 2272   2.384   0.094   1.442  0.3551  0.0531 -0.4870
  758SOL    HW1 2273   2.320   0.035   1.502 -2.2594 -1.3320 -0.3041
  758SOL    HW2 2274   2.378   0.085   1.336 -0.4689 -3.3079 -1.1932
  759SOL     OW 2275   1.724   0.083   0.071  0.2753  0.2820  0.2913
  759SOL    HW1 2276   1.671   0.103  -0.016 -1.4196  0.5061  0.4763
  759SOL    HW2 2277   1.820   0.047   0.057  0.4059  1.7833 -0.8100
  760SOL     OW 2278   2.726   2.068   2.817  0.2883 -0.3328  0.3185
  760SOL    HW1 2279   2.739   1.980   2.874  0.5107 -0.5150 -0.8404
  760SOL    HW2 2280   2.709   2.151   2.878 -1.6507  0.0044  1.6730
  761SOL     OW 2281   1.893   1.773   1.718 -0.4466  0.7557 -0.4140
  761SOL    HW1 2282   1.958   1.693   1.737 -0.7891  2.5196  1.1071
  761SOL    HW2 2283   1.829   1.751   1.641  2.7225 -0.1963  2.3066
  762SOL     OW 2284   0.469   2.334   0.978 -0.2073 -0.7080 -0.2891
  762SOL    HW1 2285   0.532   2.356   0.897 -1.0240 -0.7135 -2.6053
  762SOL    HW2 2286   0.464   2.401   1.053 -0.3691  0.9455 -0.0719
  763SOL     OW 2287   2.064   1.507   2.911  0.1671  0.2449 -0.1479
  763SOL    HW1 2288   2.158   1.499   2.942 -0.8500  0.5508  0.5960
  763SOL    HW2 2289   2.004   1.449   2.968  1.7067  1.8709  2.1588
  764SOL     OW 2290   0.622   0.625   0.843 -0.4288  0.0279 -0.4118
  764SOL    HW1 2291   0.599   0.542   0.784 -2.5140 -0.6409 -0.3286
  764SOL    HW2 2292   0.715   0.624   0.896  0.2827  1.4609  2.1058
  765SOL     OW 2293   0.713   0.255   0.768 -0.2569 -0.3147  0.1979
  765SOL    HW1 2294   0.799   0.297   0.728  1.7220  1.2488  2.2693
  765SOL    HW2 2295   0.702   0.288   0.871 -0.5027 -1.5382  2.5686
  766SOL     OW 2296   2.903   2.082   0.011  0.8190 -0.2041  0.0527
  766SOL    HW1 2297   2.804   2.100   0.042 -1.8105 -1.0802 -3.1618
  766SOL    HW2 2298   2.956   2.174  -0.000 -1.4228 -1.2405 -1.1950
  767SOL     OW 2299   2.794   1.568   0.611  0.1008 -0.0260 -0.3012
  767SOL    HW1 2300   2.709   1.623   0.641 -2.0083 -3.9841 -1.9959
  767SOL    HW2 2301   2.881   1.609   0.638 -0.2696 -1.4896  1.1244
  768SOL     OW 2302   1.085   0.167   0.303 -0.1389  0.6467  0.5802
  768SOL    HW1 2303   1.041   0.109   0.377 -0.1377 -1.5380  3.2342
  768SOL    HW2 2304   1.180   0.136   0.275 -1.3707  4.8755 -2.4394
  769SOL     OW 2305   0.985   1.904   2.216 -0.1372 -0.1755  0.3479
  769SOL    HW1 2306   0.915   1.939   2.285  1.2636  2.0749 -2.3016
  769SOL    HW2 2307   1.044   1.834   2.266  1.3952 -0.0329  0.7502
  770SOL     OW 2308   0.184   1.123   2.282 -0.1678  0.0449 -0.5876
  770SOL    HW1 2309   0.171   1.155   2.380 -0.5360  0.0821 -1.1600
  770SOL    HW2 2310   0.098   1.135   2.228 -1.9379  0.8215 -2.3710
  771SOL     OW 2311   3.013   2.858   1.905 -0.0892 -0.1340 -0.1491
  771SOL    HW1 2312   2.987   2.928   1.831  0.4522 -2.0786 -1.7116
  771SOL    HW2 2313   2.995   2.885   2.003 -1.2420  0.4958 -3.1369
  772SOL     OW 2314   2.206   0.210   2.920 -0.0516 -0.4008  0.5304
  772SOL    HW1 2315   2.303   0.166   2.909  3.3815 -3.5159 -1.1355
  772SOL    HW2 2316   2.200   0.270   3.007 -0.6127  0.4267  0.9101
  773SOL     OW 2317   0.766   2.194   2.457 -0.3715 -0.0463  0.7656
  773SOL    HW1 2318   0.706   2.205   2.367  0.4491  0.1908 -1.6064
  773SOL    HW2 2319   0.706   2.182   2.543 -3.2740 -1.2199  3.5237
  774SOL     OW 2320   2.029   0.004   2.640 -0.3054  0.1352 -0.1246
  774SOL    HW1 2321   2.050   0.106   2.626  1.7640  4.1629 -2.1162
  774SOL    HW2 2322   2.098  -0.038   2.705 -2.1560  0.4281 -0.5130
  775SOL     OW 2323   2.540   2.840   2.425 -0.1399  0.0511  0.0634
  775SOL    HW1 2324   2.487   2.922   2.390 -3.8315  0.5367  2.3473
  775SOL    HW2 2325   2.638   2.861   2.452  2.7957 -1.5464 -1.7990
  776SOL     OW 2326   0.016   1.312   0.188 -0.0727 -0.8031  0.0992
  776SOL    HW1 2327  -0.048   1.265   0.117  0.0033  3.3502 -0.6833
  776SOL    HW2 2328  -0.022   1.311   0.285  1.3464  0.1809  1.6563
  777SOL     OW 2329   0.294   2.861   0.408 -0.4155  0.2706  0.0178
  777SOL    HW1 2330   0.206   2.894   0.446  0.0969 -0.4492 -0.2938
  777SOL    HW2 2331   0.377   2.914   0.436  1.4109  1.2238  0.6149
  778SOL     OW 2332   1.301   1.973   0.192  0.0038 -0.4660 -0.6405
  778SOL    HW1 2333   1.261   1.984   0.290 -0.8514 -0.4126  1.7553
  778SOL    HW2 2334   1.362   2.054   0.162 -2.4013  0.5767  0.7600
  779SOL     OW 2335   0.187   0.849   0.475  0.1162 -0.0125  0.4059
  779SOL    HW1 2336   0.144   0.758   0.453 -0.7102 -0.4860  0.4442
  779SOL    HW2 2337   0.123   0.920   0.521  0.7289  0.6734  0.1455
  780SOL     OW 2338   0.088   0.229   2.218  0.2914  0.6113  0.1287
  780SOL    HW1 2339   0.112   0.325   2.236 -2.0173 -1.3255 -1.7279
  780SOL    HW2 2340   0.148   0.186   2.147 -1.3059  2.8096 -0.8474
  781SOL     OW 2341   0.633   1.760   1.574 -0.4769 -0.3306 -0.1152
  781SOL    HW1 2342   0.671   1.724   1.668 -0.6756  0.8273 -0.8805
  781SOL    HW2 2343   0.575   1.683   1.532 -0.2977 -1.5019 -0.5778
  782SOL     OW 2344   2.613   0.190   0.892  0.6620  0.0061 -0.0048
  782SOL    HW1 2345   2.510   0.191   0.861 -1.1386  0.0026 -0.8641
  782SOL    HW2 2346   2.633   0.251   0.972  2.5675 -3.0348 -0.6461
  783SOL     OW 2347   2.846   0.710   2.562 -0.2652 -0.5886 -0.5384
  783SOL    HW1 2348   2.809   0.741   2.657 -0.2923 -2.2470  0.6147
  783SOL    HW2 2349   2.805   0.617   2.531  0.6538  1.6854 -0.4463
  784SOL     OW 2350   1.429   2.179   0.088 -0.3334  0.4748  0.2167
  784SOL    HW1 2351   1.501   2.249   0.115  0.9474  1.3726  1.2547
  784SOL    HW2 2352   1.405   2.189  -0.014 -0.4970  1.7197 -1.5318
  785SOL     OW 2353   2.126   0.379   0.023  0.0074  0.3858 -0.5418
  785SOL    HW1 2354   2.042   0.387   0.088  0.4901  3.0555 -1.3260
  785SOL    HW2 2355   2.142   0.470  -0.022 -2.0801  1.8288 -1.6792
  786SOL     OW 2356   2.044   2.189   2.215 -0.4965  0.5232  0.4388
  786SOL    HW1 2357   2.015   2.091   2.198  0.1578 -1.2317 -0.6431
  786SOL    HW2 2358   2.137   2.196   2.269  0.2259 -2.6265  2.3722
  787SOL     OW 2359   1.425   0.634   0.960  0.5284  0.2011 -0.2702
  787SOL    HW1 2360   1.346   0.691   0.998 -0.4898  1.7560 -0.5212
  787SOL    HW2 2361   1.423   0.618   0.856  0.3539 -0.4512 -2.4750
  788SOL     OW 2362   1.251   0.400   3.090 -0.0372  0.2006 -0.2588
  788SOL    HW1 2363   1.164   0.394   3.029 -0.6020 -3.0102 -2.2400
  788SOL    HW2 2364   1.252   0.485   3.152  1.6714 -1.5241  1.9235
  789SOL     OW 2365   2.586   0.052   1.802  0.2648 -0.4508 -0.3904
  789SOL    HW1 2366   2.501   0.092   1.857  1.2798  0.8817 -1.0559
  789SOL    HW2 2367   2.574  -0.046   1.772 -0.7884 -2.6042  2.2486
  790SOL     OW 2368   2.576   2.716   0.819 -0.8806 -0.3308 -0.1269
  790SOL    HW1 2369   2.616   2.758   0.732  3.2146  3.5903 -0.5784
  790SOL    HW2 2370   2.623   2.753   0.899 -0.0401 -3.5523 -0.5124
  791SOL     OW 2371   1.913   1.246   0.247  0.1760 -0.3075  0.4115
  791SOL    HW1 2372   1.839   1.169   0.251 -1.3460  1.2445  0.7586
  791SOL    HW2 2373   2.012   1.216   0.248 -0.0915  1.0073 -0.0620
  792SOL     OW 2374   0.442   1.996   2.136 -0.4982 -0.0280 -0.1395
  792SOL    HW1 2375   0.524   2.054   2.161  3.2699 -1.9774  0.9146
  792SOL    HW2 2376   0.403   1.959   2.222  2.9292  0.8624  0.1289
  793SOL     OW 2377   2.100   1.582   2.118 -0.0572  0.4484 -0.6216
  793SOL    HW1 2378   2.197   1.625   2.092  0.1783 -0.1446 -1.3638
  793SOL    HW2 2379   2.092   1.484   2.085 -0.0326  0.0750  1.5869
  794SOL     OW 2380   0.422   1.343   2.444  0.1534  0.5660  0.2493
  794SOL    HW1 2381   0.413   1.311   2.346 -1.4017 -0.3297  1.3115
  794SOL    HW2 2382   0.487   1.422   2.454 -0.6283  0.9068  0.3701
  795SOL     OW 2383   2.384   2.297   1.687  0.1790  0.5659 -0.1027
  795SOL    HW1 2384   2.332   2.339   1.761  1.4897 -0.3817 -1.3194
  795SOL    HW2 2385   2.372   2.195   1.682 -0.8662  1.3809  0.4721
  796SOL     OW 2386   3.075   1.099   2.666 -0.3482 -0.5506  0.3572
  796SOL    HW1 2387   2.976   1.076   2.692  0.1909  1.0613 -1.4153
  796SOL    HW2 2388   3.139   1.090   2.752 -2.0359 -0.3603 -0.0328
  797SOL     OW 2389   0.764   0.627   1.350 -0.5609  0.1216 -0.1206
  797SOL    HW1 2390   0.830   0.659   1.425 -1.8571  0.4065 -1.4996
  797SOL    HW2 2391   0.724   0.704   1.291 -0.7906 -1.0386  0.4651
  798SOL     OW 2392   1.341   0.404   1.122 -0.1224  0.7184 -0.0943
  798SOL    HW1 2393   1.379   0.410   1.221  0.4252 -0.4848  2.7387
  798SOL    HW2 2394   1.385   0.475   1.060 -0.3621 -2.7840 -0.2375
  799SOL     OW 2395   1.925   2.609   1.051  0.0851 -0.2023  0.1562
  799SOL    HW1 2396   1.893   2.664   1.136 -0.3316 -2.5422  2.6054
  799SOL    HW2 2397   1.867   2.630   0.973  2.0208 -2.1487 -0.5080
  800SOL     OW 2398   2.970   0.760   1.933 -0.0023  0.1924 -0.4233
  800SOL    HW1 2399   2.937   0.840   1.987 -1.7576  0.9076 -0.4294
  800SOL    HW2 2400   3.001   0.685   1.999 -0.6901 -0.1863  1.7438
  801SOL     OW 2401   1.970   2.205   0.047  0.1764 -0.0224 -0.2622
  801SOL    HW1 2402   1.892   2.180  -0.017  0.5899 -2.7208 -2.8410
  801SOL    HW2 2403   2.057   2.158   0.019 -2.7265  0.1159 -1.0652
  802SOL     OW 2404   0.608   0.814   2.589 -0.3817  0.1921  0.1591
  802SOL    HW1 2405   0.611   0.714   2.603 -1.5447  0.7676  1.3081
  802SOL    HW2 2406   0.540   0.842   2.511  1.2176 -1.3289 -2.3549
  803SOL     OW 2407   0.960   0.061   0.797 -0.1040  0.3406  0.3725
  803SOL    HW1 2408   1.017   0.115   0.866 -1.2549  0.9363 -0.4764
  803SOL    HW2 2409   0.937   0.110   0.708 -1.3169  1.5353  0.9593
  804SOL     OW 2410   0.308   3.084   2.181  0.2096 -0.0297  0.2466
  804SOL    HW1 2411   0.331   3.183   2.151 -0.1230 -0.4033 -1.0035
  804SOL    HW2 2412   0.256   3.029   2.104 -0.0963 -0.0577 -1.0512
  805SOL     OW 2413   2.348   0.402   0.391  0.2800  0.5297 -0.3265
  805SOL    HW1 2414   2.422   0.415   0.462 -0.4545  3.1091 -0.2859
  805SOL    HW2 2415   2.364   0.326   0.323 -1.1322  0.8733  3.2643
  806SOL     OW 2416   0.651   2.460   1.765 -0.0114 -0.9187  0.1245
  806SOL    HW1 2417   0.629   2.560   1.797  1.4203 -0.6389 -0.4892
  806SOL    HW2 2418   0.753   2.445   1.770  0.6691 -0.2074 -0.8882
  807SOL     OW 2419   2.496   0.817   0.369  0.4203 -0.2193  0.3420
  807SOL    HW1 2420   2.583   0.844   0.413 -1.0997  3.7289  0.4593
  807SOL    HW2 2421   2.466   0.876   0.289  1.5940  1.1298  0.6422
  808SOL     OW 2422   0.652   2.112   2.905 -0.0843  0.1634  0.4537
  808SOL    HW1 2423   0.590   2.157   2.974 -0.7641 -1.4135  0.0954
  808SOL    HW2 2424   0.691   2.025   2.939 -1.4198  0.9717  0.3984
  809SOL     OW 2425   2.595   1.961   1.891 -0.2800 -0.0227  0.2758
  809SOL    HW1 2426   2.692   1.985   1.862  1.6328  1.9614 -1.7456
  809SOL    HW2 2427   2.532   1.966   1.807 -0.9202  0.9169 -0.1170
  810SOL     OW 2428   2.163   1.129   0.541  0.3485  0.2261 -0.2647
  810SOL    HW1 2429   2.143   1.041   0.583  1.5703  2.2940  2.1161
  810SOL    HW2 2430   2.106   1.201   0.586  1.2914 -0.7379 -0.5891
  811SOL     OW 2431   1.341   2.507   1.224  0.4576  0.7022 -0.0870
  811SOL    HW1 2432   1.318   2.406   1.247  2.8987  1.1312  0.7814
  811SOL    HW2 2433   1.264   2.573   1.242  0.3585 -3.3149 -2.3511
  812SOL     OW 2434   1.426   0.758   1.956  0.1577 -0.3813  0.4774
  812SOL    HW1 2435   1.450   0.860   1.975 -1.4926  0.4058 -2.2829
  812SOL    HW2 2436   1.336   0.748   1.908  0.9248  1.2929 -0.0488
  813SOL     OW 2437   1.642   2.058   2.527  0.2406  0.5263 -0.2511
  813SOL    HW1 2438   1.700   1.978   2.544 -1.8780  0.7855 -1.1473
  813SOL    HW2 2439   1.593   2.048   2.436 -1.1625  0.6400 -0.1763
  814SOL     OW 2440   2.940   1.579   2.805  0.3515  0.8322  0.1688
  814SOL    HW1 2441   3.005   1.543   2.874 -3.5959  0.8307 -1.1247
  814SOL    HW2 2442   2.966   1.675   2.774  2.1250  0.4232  2.7247
  815SOL     OW 2443   2.191   2.917   2.791  0.4005  0.8684  0.2559
  815SOL    HW1 2444   2.165   2.838   2.855  1.5749 -1.5484 -0.5699
  815SOL    HW2 2445   2.278   2.965   2.810 -1.7803 -1.7987 -1.1619
  816SOL     OW 2446   1.616   0.318   1.644 -0.2146 -0.1181  0.3356
  816SOL    HW1 2447   1.626   0.217   1.643  1.5511  1.4959  0.3431
  816SOL    HW2 2448   1.549   0.350   1.720 -0.2889  1.4597 -0.0160
  817SOL     OW 2449   0.337   1.154   2.616  0.3154  0.0567  0.1650
  817SOL    HW1 2450   0.261   1.183   2.678  2.5192  0.0819 -1.2156
  817SOL    HW2 2451   0.363   1.221   2.542 -2.8313 -1.0847  0.5565
  818SOL     OW 2452   1.940   0.981   0.344 -0.4474 -0.4560  0.8907
  818SOL    HW1 2453   2.029   0.929   0.366  2.7257 -1.6394  0.4656
  818SOL    HW2 2454   1.890   1.015   0.427  0.7294  0.1591 -1.1400
  819SOL     OW 2455   2.742   2.952   2.987  0.6316 -0.2919  0.3524
  819SOL    HW1 2456   2.826   2.891   2.968  1.3974 -1.7022  2.2481
  819SOL    HW2 2457   2.653   2.906   2.951 -2.1898 -0.5870 -0.1862
  820SOL     OW 2458   1.216   1.045   0.587  0.2772  0.0029  0.1521
  820SOL    HW1 2459   1.202   1.138   0.632 -1.9889 -0.0263 -0.6521
  820SOL    HW2 2460   1.228   0.971   0.661 -0.7842  1.5243 -2.5156
  821SOL     OW 2461   0.012   1.284   0.676  0.1109 -0.0068 -0.0161
  821SOL    HW1 2462  -0.007   1.254   0.773 -2.5279 -3.5858  2.7248
  821SOL    HW2 2463   0.043   1.385   0.665 -1.9462  3.4057  0.8459
  822SOL     OW 2464   2.587   1.794   2.435 -0.5817 -0.0883  0.1774
  822SOL    HW1 2465   2.567   1.858   2.515 -0.0227  2.6798 -2.3838
  822SOL    HW2 2466   2.509   1.801   2.367  0.9130 -1.1860  1.1168
  823SOL     OW 2467   2.015   0.828   1.107 -0.1305 -0.8553 -0.6411
  823SOL    HW1 2468   1.970   0.801   1.201 -0.1044  0.7502  0.2247
  823SOL    HW2 2469   1.947   0.879   1.047 -0.4920  0.6568 -1.3400
  824SOL     OW 2470   0.237   1.984   2.858 -0.8299  0.1145 -0.5126
  824SOL    HW1 2471   0.219   1.892   2.899 -1.9102  3.0728  0.9124
  824SOL    HW2 2472   0.300   1.976   2.777 -0.0648  1.4706  0.1275
  825SOL     OW 2473   1.288   1.062   0.302  0.0731 -0.6710 -0.1991
  825SOL    HW1 2474   1.252   1.151   0.271  0.8181 -0.6318 -0.9188
  825SOL    HW2 2475   1.288   1.053   0.408 -0.4657  0.0469 -1.3707
  826SOL     OW 2476   1.918   0.650   1.561  0.9019  0.0266 -0.1614
  826SOL    HW1 2477   2.002   0.603   1.599  1.0256  0.9739  0.7904
  826SOL    HW2 2478   1.859   0.582   1.508 -0.4961  1.5471 -0.0179
  827SOL     OW 2479   0.715   1.223   0.281  0.3822 -0.2460  0.5885
  827SOL    HW1 2480   0.757   1.183   0.198  2.2779  0.6003 -0.8849
  827SOL    HW2 2481   0.627   1.178   0.305 -0.6766  0.5842  0.4428
  828SOL     OW 2482   2.637   0.188   1.576 -0.1158 -0.7611  0.0191
  828SOL    HW1 2483   2.548   0.167   1.527 -1.8050  1.8286 -2.4195
  828SOL    HW2 2484   2.635   0.145   1.671  0.7573 -0.2590 -1.3624
  829SOL     OW 2485   2.858   2.443   2.953  0.4374 -0.2101 -0.3920
  829SOL    HW1 2486   2.777   2.379   2.967  0.0462  1.3428 -1.8474
  829SOL    HW2 2487   2.834   2.544   2.932  2.4139  1.6173 -0.2794
  830SOL     OW 2488   2.811   0.963   3.051  0.4479  0.0389 -0.2025
  830SOL    HW1 2489   2.873   1.038   3.086 -2.7233  2.2628  1.3399
  830SOL    HW2 2490   2.839   0.878   3.105 -1.4002  0.8597  1.3155
  831SOL     OW 2491   0.033   0.633   0.380  1.2292 -0.1474 -0.0064
  831SOL    HW1 2492  -0.010   0.589   0.461  2.6287  0.8297 -0.6567
  831SOL    HW2 2493   0.051   0.560   0.307  1.2918  0.7187 -1.0864
  832SOL     OW 2494   1.832   0.791   3.023  0.4723 -0.0866  0.0500
  832SOL    HW1 2495   1.734   0.819   2.994 -1.7070 -0.1041 -0.4368
  832SOL    HW2 2496   1.836   0.690   3.051 -1.9537 -0.6523 -0.0296
  833SOL     OW 2497   2.453   2.103   0.462  0.6831 -0.2931 -0.7859
  833SOL    HW1 2498   2.368   2.066   0.413  0.2576  0.9383 -1.2795
  833SOL    HW2 2499   2.509   2.033   0.507  1.4089  2.9104  0.9914
  834SOL     OW 2500   0.106   0.237   0.491 -0.1347 -0.3204  0.4314
  834SOL    HW1 2501   0.019   0.214   0.539  1.9175  0.3803 -3.1213
  834SOL    HW2 2502   0.109   0.206   0.388  0.1051 -0.8622 -0.8662
  835SOL     OW 2503   2.326   1.533   1.160  0.6608 -0.3338  0.0164
  835SOL    HW1 2504   2.369   1.627   1.183 -0.9954 -2.9724  1.2740
  835SOL    HW2 2505   2.385   1.470   1.095  2.3205 -1.4962  0.5006
  836SOL     OW 2506   1.629   0.845   2.608 -0.2637  0.0880  0.2687
  836SOL    HW1 2507   1.530   0.828   2.614  1.0076  1.4762 -1.1644
  836SOL    HW2 2508   1.659   0.837   2.512 -0.6180  2.2054  1.8373
  837SOL     OW 2509   1.605   0.101   0.573 -0.3624  0.3563  0.2224
  837SOL    HW1 2510   1.573   0.178   0.634 -1.4451  2.7350 -0.3781
  837SOL    HW2 2511   1.589   0.120   0.470 -1.4855 -1.4672 -0.8959
  838SOL     OW 2512   1.221   1.474   2.751 -0.5486 -0.7770 -0.3378
  838SOL    HW1 2513   1.188   1.507   2.843 -1.8045 -0.5676 -1.0610
  838SOL    HW2 2514   1.157   1.408   2.700  1.3593 -2.1425  1.8295
  839SOL     OW 2515   1.728   0.273   0.999 -0.8831  0.1722 -0.4456
  839SOL    HW1 2516   1.714   0.356   1.063 -1.4360  2.3502 -2.3293
  839SOL    HW2 2517   1.671   0.193   1.025  1.3858 -0.9953 -2.1697
  840SOL     OW 2518   2.562   2.893   1.747 -0.7617 -0.9063  0.0687
  840SOL    HW1 2519   2.540   2.872   1.651 -1.8707 -0.2369  2.5169
  840SOL    HW2 2520   2.540   2.818   1.813 -0.7695 -0.9552  2.2124
  841SOL     OW 2521   1.577   0.888   2.946  0.1625  0.4829  0.0863
  841SOL    HW1 2522   1.521   0.897   3.030  0.9320  2.3903  0.6437
  841SOL    HW2 2523   1.573   0.971   2.891 -0.4962  0.4120 -0.5300
  842SOL     OW 2524   0.826   1.510   0.917 -0.0128 -0.0169 -0.2421
  842SOL    HW1 2525   0.784   1.585   0.980 -1.6580 -3.6575  0.0562
  842SOL    HW2 2526   0.751   1.452   0.867 -0.3755  1.5660 -0.2759
  843SOL     OW 2527   0.103   0.127   1.474  0.3783  0.6375  0.8366
  843SOL    HW1 2528   0.198   0.154   1.501  0.4148 -0.7552  0.1484
  843SOL    HW2 2529   0.071   0.031   1.498  0.2275 -0.0497 -0.4472
  844SOL     OW 2530   0.796   2.516   0.307 -0.0590  0.0559  0.3027
  844SOL    HW1 2531   0.739   2.466   0.373 -0.4218 -1.0792 -1.7579
  844SOL    HW2 2532   0.744   2.540   0.223 -3.5250 -1.9160  1.5521
  845SOL     OW 2533   1.622   2.876   1.376  0.4801 -0.3787  0.2820
  845SOL    HW1 2534   1.692   2.893   1.456  2.1811  2.2449 -0.6682
  845SOL    HW2 2535   1.533   2.930   1.381  0.2619 -0.3243  0.4709
  846SOL     OW 2536   1.562   2.969   0.835  0.8216  0.2386  0.3483
  846SOL    HW1 2537   1.548   2.948   0.735  3.5252  1.1095 -0.0061
  846SOL    HW2 2538   1.657   2.999   0.847 -1.3845  1.3339 -1.5200
  847SOL     OW 2539   2.023   1.642   0.264  0.3369  0.3232 -0.5582
  847SOL    HW1 2540   1.997   1.577   0.342  2.2374  0.5231  0.6670
  847SOL    HW2 2541   1.955   1.647   0.181  0.1569  1.1655  0.0622
  848SOL     OW 2542   2.509   0.772   2.640 -0.4838  0.0109  0.4105
  848SOL    HW1 2543   2.501   0.876   2.620  0.6897  2.3774 -1.5381
  848SOL    HW2 2544   2.444   0.711   2.591  0.5370 -2.9269 -0.1220
  849SOL     OW 2545   2.545   0.842   2.332 -0.6058  0.0833 -0.4843
  849SOL    HW1 2546   2.635   0.822   2.283 -1.5244 -0.8484 -0.0780
  849SOL    HW2 2547   2.512   0.761   2.385 -1.6093  0.2313 -0.9135
  850SOL     OW 2548   1.520   0.128   1.344 -0.4450 -0.3846 -0.0644
  850SOL    HW1 2549   1.520   0.089   1.244  0.7592 -0.2427 -1.2963
  850SOL    HW2 2550   1.462   0.080   1.416  1.0305  0.7878 -0.6908
  851SOL     OW 2551   0.475   1.751   0.618  0.1377 -0.0738  0.2126
  851SOL    HW1 2552   0.465   1.847   0.583 -0.1098 -2.3118  0.6141
  851SOL    HW2 2553   0.572   1.717   0.613  0.6257  1.0319  1.0953
  852SOL     OW 2554   0.787   2.176   1.674  0.2525 -0.2301  0.4313
  852SOL    HW1 2555   0.785   2.274   1.631  0.7031 -3.6184 -1.2486
  852SOL    HW2 2556   0.702   2.155   1.730  1.4886 -0.9341  1.4698
  853SOL     OW 2557   2.500   1.563   2.600 -0.2391  0.1673  0.2782
  853SOL    HW1 2558   2.473   1.473   2.553 -2.1039 -1.8318 -1.3567
  853SOL    HW2 2559   2.515   1.647   2.542  0.5914 -0.1350  2.0255
  854SOL     OW 2560   2.513   1.363   1.726  0.4363 -0.6003  0.7468
  854SOL    HW1 2561   2.534   1.368   1.624  2.2469  0.5974 -0.8909
  854SOL    HW2 2562   2.472   1.274   1.756  2.7347 -0.1263  1.2612
  855SOL     OW 2563   2.111   2.356   0.957 -0.0207 -0.3314 -0.2456
  855SOL    HW1 2564   2.084   2.446   0.913 -1.4307  1.0375  1.7413
  855SOL    HW2 2565   2.145   2.369   1.050 -0.6372  0.1186 -1.5183
  856SOL     OW 2566   1.370   1.500   0.849 -0.2649 -0.4397  0.0389
  856SOL    HW1 2567   1.448   1.525   0.907 -3.0200 -0.1214 -0.2148
  856SOL    HW2 2568   1.281   1.520   0.902  0.6692 -2.9961 -1.0767
  857SOL     OW 2569   2.986   2.649   1.038 -1.0840  0.1780 -0.4642
  857SOL    HW1 2570   2.919   2.574   1.057 -0.6594 -0.1458 -1.7328
  857SOL    HW2 2571   3.057   2.627   0.966  0.0347  1.4266  3.1895
  858SOL     OW 2572   2.286   2.031   1.726 -0.2158  0.4647 -0.4599
  858SOL    HW1 2573   2.185   2.033   1.694 -1.0748  0.0773 -1.4396
  858SOL    HW2 2574   2.357   2.004   1.655 -2.3470  0.7382  1.0176
  859SOL     OW 2575   2.470   0.546   1.031 -0.4710  0.0225 -0.1941
  859SOL    HW1 2576   2.535   0.574   0.953 -1.7142 -1.4094  0.5472
  859SOL    HW2 2577   2.492   0.461   1.081 -1.8486  1.9572 -1.9426
  860SOL     OW 2578   1.927   2.817   0.428  0.1081  0.2625  0.4445
  860SOL    HW1 2579   1.893   2.789   0.332 -1.5857 -0.3584  2.4830
  860SOL    HW2 2580   2.012   2.877   0.414  3.8301  3.6289 -0.1919
  861SOL     OW 2581   1.063   2.534   2.830  0.1831  0.4480  0.5113
  861SOL    HW1 2582   1.134   2.591   2.782 -1.2962 -2.1722  1.1933
  861SOL    HW2 2583   1.098   2.505   2.923  1.1802  2.5047 -1.3218
  862SOL     OW 2584   2.851   2.533   1.604 -0.2259  0.3841 -0.3600
  862SOL    HW1 2585   2.928   2.575   1.665 -0.8234 -2.5634  3.0162
  862SOL    HW2 2586   2.819   2.604   1.537  0.8012 -0.0757 -1.6714
  863SOL     OW 2587   1.834   2.702   0.188 -0.2737 -0.2936 -0.5121
  863SOL    HW1 2588   1.892   2.611   0.199  1.0976  0.5781  1.3532
  863SOL    HW2 2589   1.735   2.684   0.168 -0.3461 -3.2641 -0.7599
  864SOL     OW 2590   1.890   1.177   2.856 -0.6537 -0.0317  0.3818
  864SOL    HW1 2591   1.885   1.091   2.797  1.3210  1.5164 -0.0545
  864SOL    HW2 2592   1.945   1.160   2.944 -1.7312 -1.0941 -0.1958
  865SOL     OW 2593   2.223   1.841   0.595 -0.8175 -0.4571  0.3453
  865SOL    HW1 2594   2.290   1.835   0.675 -1.3796  0.4867  0.1781
  865SOL    HW2 2595   2.128   1.804   0.616  0.9681  0.5711 -1.1887
  866SOL     OW 2596   2.985   2.926   1.003 -0.4544 -0.6703 -0.8167
  866SOL    HW1 2597   2.982   2.950   0.903  1.7958 -0.4340 -2.5819
  866SOL    HW2 2598   2.967   2.822   1.016 -1.4939 -0.0072  0.2494
  867SOL     OW 2599   0.365   1.371   0.907 -0.1816 -0.3578  0.0449
  867SOL    HW1 2600   0.363   1.296   0.835  3.3933 -0.0886  3.1878
  867SOL    HW2 2601   0.348   1.467   0.865  2.1236  1.0918 -3.0941
  868SOL     OW 2602   0.717   1.862   2.023  0.1474  0.8666  0.0319
  868SOL    HW1 2603   0.684   1.844   2.120  0.9857  1.0853  0.8596
  868SOL    HW2 2604   0.699   1.960   1.995  0.8677 -1.4093  0.6616
  869SOL     OW 2605   2.534   1.945   1.596  0.1099 -0.2172 -0.1413
  869SOL    HW1 2606   2.608   2.014   1.614  0.0773  1.0465 -2.9990
  869SOL    HW2 2607   2.567   1.848   1.593 -2.7378  0.8549  2.5384
  870SOL     OW 2608   2.317   2.653   1.281  0.3733  0.2257 -0.0450
  870SOL    HW1 2609   2.293   2.553   1.259 -0.5628  1.0247  2.0657
  870SOL    HW2 2610   2.233   2.702   1.325 -4.3044  2.0593 -1.4149
  871SOL     OW 2611   2.995   2.144   0.562 -0.6509 -0.5127 -0.1443
  871SOL    HW1 2612   2.933   2.211   0.608 -2.7954 -3.0048 -2.6698
  871SOL    HW2 2613   2.951   2.099   0.476 -0.5601 -0.2462 -1.0192
  872SOL     OW 2614   2.116   0.473   1.686  0.2093  0.0649 -0.5959
  872SOL    HW1 2615   2.089   0.472   1.784 -1.8677 -1.4351 -1.0444
  872SOL    HW2 2616   2.207   0.424   1.672  1.9522 -1.6510  2.6576
  873SOL     OW 2617   1.715   2.101   3.046  0.3912 -0.6174  0.1522
  873SOL    HW1 2618   1.650   2.104   3.127  0.3885  1.2134 -1.6885
  873SOL    HW2 2619   1.661   2.110   2.955  0.2461  0.6003  0.5676
  874SOL     OW 2620   0.674   2.439   0.795 -0.0784  0.4995  0.5754
  874SOL    HW1 2621   0.645   2.524   0.843  0.1491  1.4058  0.0693
  874SOL    HW2 2622   0.782   2.422   0.794 -0.5774 -0.6854 -1.3921
  875SOL     OW 2623   2.266   1.554   1.433 -0.3319 -0.5713  0.0538
  875SOL    HW1 2624   2.357   1.547   1.488  2.9890 -1.7503  2.6063
  875SOL    HW2 2625   2.280   1.550   1.331 -0.9587 -0.5286  1.3888
  876SOL     OW 2626   0.070   2.252   2.746  0.4271  0.5065 -0.1214
  876SOL    HW1 2627   0.121   2.168   2.779 -3.6529  2.0456 -0.2722
  876SOL    HW2 2628   0.110   2.337   2.780 -3.3274 -1.8426  3.0212
  877SOL     OW 2629   2.889   2.699   0.571 -0.1291  0.6402 -0.3596
  877SOL    HW1 2630   2.857   2.794   0.596  2.0902 -0.7557 -1.3048
  877SOL    HW2 2631   2.927   2.646   0.650  0.6151 -0.7958  0.2979
  878SOL     OW 2632   2.819   1.530   2.187 -0.5398  0.1350 -0.1149
  878SOL    HW1 2633   2.921   1.517   2.203 -1.5953  1.7405 -3.0742
  878SOL    HW2 2634   2.779   1.601   2.250 -1.8360 -0.0928 -1.5120
  879SOL     OW 2635   2.361   0.071   1.152  0.3015  0.2535 -0.0736
  879SOL    HW1 2636   2.419  -0.016   1.166 -1.0967 -3.0905  0.1736
  879SOL    HW2 2637   2.271   0.044   1.106 -0.6008  0.3667  0.8511
  880SOL     OW 2638   0.705   0.492   2.244 -0.8588  0.3861 -0.1961
  880SOL    HW1 2639   0.640   0.429   2.297 -1.1849 -1.8917 -2.4445
  880SOL    HW2 2640   0.754   0.438   2.165 -1.5702  1.2799 -2.1769
  881SOL     OW 2641   0.885   0.064   0.470  0.7435 -0.0204  0.0471
  881SOL    HW1 2642   0.943  -0.020   0.486  0.7905  1.6253 -1.5827
  881SOL    HW2 2643   0.799   0.058   0.409  2.1616 -1.8179  1.3954
  882SOL     OW 2644   2.720   1.719   1.659  0.3034 -0.1646 -0.2139
  882SOL    HW1 2645   2.817   1.739   1.635 -3.2037 -1.5936 -1.8784
  882SOL    HW2 2646   2.712   1.694   1.763  0.3344 -0.2822 -0.2947
  883SOL     OW 2647   0.875   0.601   0.981  0.1279  0.3944 -0.0988
  883SOL    HW1 2648   0.914   0.694   1.013  1.7774  3.2814  0.6198
  883SOL    HW2 2649   0.910   0.518   1.034  0.8247  1.0756  0.2355
  884SOL     OW 2650   1.186   1.788   1.169 -0.4626  0.1817 -0.2519
  884SOL    HW1 2651   1.152   1.693   1.138 -2.8662 -2.7517 -2.5803
  884SOL    HW2 2652   1.155   1.869   1.114  2.2237 -0.9877 -0.3780
  885SOL     OW 2653   2.366   1.807   2.291  0.1798  0.0132 -0.0254
  885SOL    HW1 2654   2.283   1.788   2.355  0.6372  3.6650  0.5384
  885SOL    HW2 2655   2.362   1.908   2.260 -3.4469  1.7421  0.9577
  886SOL     OW 2656   2.595   0.411   1.791 -0.5533 -0.0308  0.2211
  886SOL    HW1 2657   2.652   0.348   1.850 -0.8634 -1.2539  0.7601
  886SOL    HW2 2658   2.645   0.499   1.775 -0.5426 -0.0797  1.3310
  887SOL     OW 2659   0.103   2.037   1.287  0.1317 -0.5038 -0.6068
  887SOL    HW1 2660   0.026   1.992   1.229  0.1994  0.2488 -1.1235
  887SOL    HW2 2661   0.115   2.138   1.264 -2.4914  1.2319 -1.4566
  888SOL     OW 2662   0.578   1.281   1.540  0.0940  0.6467  0.3232
  888SOL    HW1 2663   0.619   1.311   1.451  0.2853  1.3095  0.9629
  888SOL    HW2 2664   0.508   1.209   1.525  1.2835  2.9091  0.6308
  889SOL     OW 2665   0.798   2.498   2.153 -0.0456  0.9112  0.1971
  889SOL    HW1 2666   0.753   2.415   2.197  2.4506 -0.1440 -1.0204
  889SOL    HW2 2667   0.853   2.485   2.071 -0.5376  1.1810  3.4495
  890SOL     OW 2668   2.417   2.456   0.208 -0.0571 -0.0509  0.0116
  890SOL    HW1 2669   2.432   2.547   0.159 -1.1714  0.0094 -1.3166
  890SOL    HW2 2670   2.354   2.464   0.291 -1.9396  0.2574  0.7461
  891SOL     OW 2671   2.594   1.681   0.748  0.2360  0.1347  1.6178
  891SOL    HW1 2672   2.598   1.736   0.834  2.0576 -0.3808 -1.2558
  891SOL    HW2 2673   2.523   1.606   0.754  2.4992 -1.3127 -1.4377
  892SOL     OW 2674   0.379   0.265   2.149 -0.2363 -1.0149 -0.2628
  892SOL    HW1 2675   0.359   0.341   2.081  2.6128 -1.7114  0.7857
  892SOL    HW2 2676   0.405   0.298   2.243  0.3710 -0.1904 -1.8433
  893SOL     OW 2677   1.679   0.271   2.744 -0.3533 -0.4563  0.0140
  893SOL    HW1 2678   1.752   0.340   2.777  0.9728  0.8409 -1.6242
  893SOL    HW2 2679   1.585   0.313   2.753  0.8511 -0.1076 -2.3477
  894SOL     OW 2680   2.167   1.997   3.077  0.5315 -0.3616  0.3817
  894SOL    HW1 2681   2.153   1.925   3.001  3.8837  1.5483  1.3722
  894SOL    HW2 2682   2.168   1.950   3.167 -0.1561  0.5998  1.6483
  895SOL     OW 2683   2.832   1.422   0.931  0.1645  0.0990 -0.1230
  895SOL    HW1 2684   2.915   1.360   0.956  2.2902 -2.2810 -1.7904
  895SOL    HW2 2685   2.852   1.508   0.884  0.7417 -1.1210 -1.2295
  896SOL     OW 2686   1.806   1.821   1.208  0.2778  0.3229  0.0621
  896SOL    HW1 2687   1.837   1.767   1.123  2.5428  2.4431 -0.6957
  896SOL    HW2 2688   1.754   1.909   1.183 -0.8924  1.5584 -1.1561
  897SOL     OW 2689   0.324   0.589   0.047 -0.4802 -0.1179  0.2246
  897SOL    HW1 2690   0.267   0.637  -0.025  3.4688  0.0781  0.5335
  897SOL    HW2 2691   0.426   0.587   0.019 -1.5550  2.3540 -2.6940
  898SOL     OW 2692   0.583   2.893   1.110 -0.2504 -0.1183  0.1077
  898SOL    HW1 2693   0.514   2.970   1.131  0.6215  0.7472  0.6419
  898SOL    HW2 2694   0.640   2.865   1.190 -0.1092  0.6234 -2.5963
  899SOL     OW 2695   2.787   0.897   1.271 -0.2746 -0.2383  0.1161
  899SOL    HW1 2696   2.731   0.899   1.184 -0.1189  0.0175  0.0895
  899SOL    HW2 2697   2.874   0.950   1.251 -0.7064 -0.9376 -1.2492
  900SOL     OW 2698   1.045   2.571   2.379  0.2048  0.5599 -0.2165
  900SOL    HW1 2699   0.966   2.567   2.307 -0.2413 -1.1371 -0.7974
  900SOL    HW2 2700   1.016   2.540   2.473  1.3330 -5.2510 -1.3249
  901SOL     OW 2701   1.915   2.349   1.331 -0.3892  0.1581  0.1113
  901SOL    HW1 2702   1.903   2.325   1.228 -0.7697  2.6515  1.3801
  901SOL    HW2 2703   2.014   2.345   1.370  0.1392 -1.0249  0.6883
  902SOL     OW 2704   2.558   1.649   1.443 -0.6725  0.2008  0.3267
  902SOL    HW1 2705   2.620   1.640   1.525 -0.1008  0.0724  2.0476
  902SOL    HW2 2706   2.607   1.625   1.357 -1.5993 -1.6186  1.0400
  903SOL     OW 2707   0.274   2.487   1.980  0.0036 -0.0646  0.5823
  903SOL    HW1 2708   0.180   2.443   1.971 -0.5226 -1.0229 -0.8619
  903SOL    HW2 2709   0.295   2.529   1.890  0.2769 -1.3006 -1.2904
  904SOL     OW 2710   2.076   0.786   2.502 -0.1381 -0.6311 -0.1296
  904SOL    HW1 2711   2.012   0.736   2.562  1.0216  0.5291 -1.8038
  904SOL    HW2 2712   2.033   0.805   2.407  0.5238  1.5523 -1.7778
  905SOL     OW 2713   2.790   0.072   2.566 -0.3202 -0.1486  0.1186
  905SOL    HW1 2714   2.867   0.005   2.552  0.3587 -2.0095  2.0001
  905SOL    HW2 2715   2.809   0.165   2.529 -1.8014 -0.4526 -0.6308
  906SOL     OW 2716   0.155   1.744   1.895  0.1198  0.2851 -0.1399
  906SOL    HW1 2717   0.095   1.771   1.815  1.2791  1.8659 -1.1193
  906SOL    HW2 2718   0.252   1.774   1.883 -0.5473 -0.3131 -4.1318
  907SOL     OW 2719   0.166   2.432   1.004 -0.4868 -0.5674 -0.0965
  907SOL    HW1 2720   0.243   2.406   0.942 -3.1187 -0.2111 -0.8713
  907SOL    HW2 2721   0.119   2.348   1.034  0.5474  2.2787 -1.6490
  908SOL     OW 2722   2.707   2.974   0.371 -0.4490 -0.3272 -0.0729
  908SOL    HW1 2723   2.686   3.040   0.295 -1.4535 -3.1285 -1.1215
  908SOL    HW2 2724   2.791   2.916   0.344  1.7002 -0.6527  0.4476
  909SOL     OW 2725   0.762   1.028   2.645 -0.1990 -0.0619  0.0186
  909SOL    HW1 2726   0.707   0.945   2.616 -0.4031  3.0532 -0.8796
  909SOL    HW2 2727   0.845   1.048   2.586 -1.4634  1.4395  1.4227
  910SOL     OW 2728   1.704   1.852   2.152  0.4731 -0.2480 -0.1316
  910SOL    HW1 2729   1.745   1.901   2.073 -0.8007 -0.2214  2.1777
  910SOL    HW2 2730   1.632   1.917   2.194  0.7749  0.0373  0.0508
  911SOL     OW 2731   1.821   2.911   1.557  0.2390  0.3916 -0.5219
  911SOL    HW1 2732   1.883   2.884   1.479  1.3987  0.0515 -0.6943
  911SOL    HW2 2733   1.812   2.834   1.633 -1.6021 -1.3563 -1.4632
  912SOL     OW 2734   2.886   0.970   0.718  0.5205  0.2274  0.0168
  912SOL    HW1 2735   2.906   0.965   0.820  2.4268 -1.8884  0.9991
  912SOL    HW2 2736   2.836   1.061   0.697 -1.6448 -1.9998 -2.0546
  913SOL     OW 2737   2.575   1.297   1.464 -0.4321  0.0385  0.2143
  913SOL    HW1 2738   2.603   1.199   1.489 -0.4597 -0.6416  0.5557
  913SOL    HW2 2739   2.630   1.328   1.382 -0.6861  1.1782 -2.3947
  914SOL     OW 2740   2.907   0.561   1.216  0.3710  0.1987 -0.0697
  914SOL    HW1 2741   2.952   0.465   1.204  0.9901  0.0487  1.7641
  914SOL    HW2 2742   2.859   0.587   1.303 -1.1095 -1.5138 -1.5228
  915SOL     OW 2743   1.221   0.769   1.080  0.8896 -0.4579 -0.3578
  915SOL    HW1 2744   1.277   0.791   1.159 -0.2382 -2.1437  1.0110
  915SOL    HW2 2745   1.120   0.793   1.091 -0.5134  4.3394 -0.1733
  916SOL     OW 2746   0.600   0.026   0.673 -0.0850  0.1514  0.4264
  916SOL    HW1 2747   0.645   0.113   0.711 -1.2485  2.2725 -0.1023
  916SOL    HW2 2748   0.588   0.034   0.568  2.4057 -1.2679 -1.1438
  917SOL     OW 2749   2.839   2.617   1.943  0.3982  0.0536  0.0084
  917SOL    HW1 2750   2.734   2.631   1.942 -2.2293  1.5476  1.7269
  917SOL    HW2 2751   2.899   2.702   1.935  0.7770  0.0018 -1.7568
  918SOL     OW 2752   1.047   2.195   2.980 -0.3560  0.3584 -0.4447
  918SOL    HW1 2753   1.008   2.224   3.073  1.5195 -1.6955 -0.7311
  918SOL    HW2 2754   1.095   2.103   2.972 -0.5406  2.0307 -2.0042
  919SOL     OW 2755   0.850   1.676   2.800  0.0846 -0.1565 -0.2396
  919SOL    HW1 2756   0.906   1.739   2.739  2.4550  0.5540  2.1366
  919SOL    HW2 2757   0.798   1.607   2.744 -2.7157  0.5865 -1.3811
  920SOL     OW 2758   1.229   1.885   2.434  0.4393 -0.6621  0.2104
  920SOL    HW1 2759   1.308   1.865   2.370 -1.5691  0.0810  1.8884
  920SOL    HW2 2760   1.202   1.810   2.498 -0.8343  0.7447  0.4912
  921SOL     OW 2761   1.031   0.017   2.621  0.3476 -0.1639 -0.3025
  921SOL    HW1 2762   1.050   0.044   2.525 -1.6361  0.0361 -2.2370
  921SOL    HW2 2763   0.959  -0.055   2.628  3.0176  0.3659  1.7167
  922SOL     OW 2764   2.147   2.388   2.771  0.0049  0.3900  0.3560
  922SOL    HW1 2765   2.177   2.290   2.792  0.9414 -0.8451 -0.0192
  922SOL    HW2 2766   2.078   2.394   2.691 -2.6324 -0.6510 -3.1948
  923SOL     OW 2767   1.234   2.665   0.259 -0.6116  0.5591  0.1037
  923SOL    HW1 2768   1.302   2.732   0.307  1.3223  0.2218  0.8273
  923SOL    HW2 2769   1.268   2.564   0.256 -0.2998 -0.7216  0.0696
  924SOL     OW 2770   2.908   1.508   0.128  0.1726  0.3658 -0.2986
  924SOL    HW1 2771   2.823   1.487   0.072 -2.0535  3.1320 -0.7754
  924SOL    HW2 2772   2.997   1.474   0.080 -0.7140 -1.5393 -1.4475
  925SOL     OW 2773   0.044   2.935   1.542 -0.0686 -0.1384 -0.5254
  925SOL    HW1 2774  -0.040   2.943   1.597  0.6731 -1.0123 -0.4701
  925SOL    HW2 2775   0.022   2.960   1.444 -0.5555  1.2133 -2.3189
  926SOL     OW 2776   1.309   2.832   1.213  0.2829 -0.2770 -0.0149
  926SOL    HW1 2777   1.368   2.843   1.127  0.8800  1.8876 -0.9693
  926SOL    HW2 2778   1.330   2.908   1.283  0.9209  0.8370 -0.6024
  927SOL     OW 2779   0.349   2.667   1.748  0.1522 -0.0882 -0.3637
  927SOL    HW1 2780   0.344   2.628   1.654  1.4764 -0.9842  1.2570
  927SOL    HW2 2781   0.297   2.758   1.758 -0.6224  1.8769 -1.1405
  928SOL     OW 2782   1.541   2.076   2.259  0.0755  0.0077 -0.4449
  928SOL    HW1 2783   1.561   2.163   2.213  0.9746 -2.3566  1.5394
  928SOL    HW2 2784   1.443   2.036   2.249  1.0791  0.9567 -0.0362
  929SOL     OW 2785   2.434   2.477   2.883  0.9170 -0.4363  0.6932
  929SOL    HW1 2786   2.349   2.428   2.867  0.3091  0.2450  0.6151
  929SOL    HW2 2787   2.494   2.485   2.797 -2.0574 -0.9704 -0.9999
  930SOL     OW 2788   2.188   1.968   1.069  0.1864 -0.0227 -0.4457
  930SOL    HW1 2789   2.166   1.931   1.161 -0.4969 -0.2508 -1.0201
  930SOL    HW2 2790   2.253   2.050   1.076  0.3741 -2.5532 -0.3505
  931SOL     OW 2791   0.557   1.716   2.701 -0.3268  0.2330 -0.4504
  931SOL    HW1 2792   0.582   1.723   2.801  1.2894  1.5015  2.1154
  931SOL    HW2 2793   0.598   1.628   2.672 -0.5267 -3.0145  2.5860
  932SOL     OW 2794   0.436   0.105   2.956 -0.0970 -0.4453  0.6779
  932SOL    HW1 2795   0.531   0.124   2.912  0.5709  1.0163  0.8599
  932SOL    HW2 2796   0.440   0.015   3.001 -1.4317  1.8256 -5.4344
  933SOL     OW 2797   1.035   0.775   3.041  0.3069 -0.5420  0.1692
  933SOL    HW1 2798   1.032   0.788   3.144  0.6769  3.2045 -0.0354
  933SOL    HW2 2799   0.982   0.853   2.991  0.1804 -0.5152 -1.5876
  934SOL     OW 2800   0.806   2.927   2.647  0.7837 -0.3787  0.3043
  934SOL    HW1 2801   0.785   2.856   2.571 -0.3807 -3.4324 -0.3871
  934SOL    HW2 2802   0.861   2.901   2.731 -0.1510  0.6466  2.5740
  935SOL     OW 2803   3.099   0.560   0.848  0.6591 -0.1649  0.2634
  935SOL    HW1 2804   3.091   0.562   0.744 -1.8554 -0.6665 -0.1440
  935SOL    HW2 2805   3.028   0.615   0.894  1.5053  1.3274  0.5636
  936SOL     OW 2806   1.107   2.848   0.086  0.1306  0.4631 -0.2122
  936SOL    HW1 2807   1.150   2.906   0.018  0.9709  2.5884  0.9234
  936SOL    HW2 2808   1.162   2.763   0.114  0.3973 -1.1056  2.1856
  937SOL     OW 2809   1.960   2.631   2.085  0.1411  0.1449  0.3320
  937SOL    HW1 2810   1.933   2.715   2.142 -1.0904  2.4672 -1.8783
  937SOL    HW2 2811   2.009   2.662   2.002 -1.4946 -2.1234  3.7165
  938SOL     OW 2812   2.783   2.072   1.542 -0.2773 -0.3707 -0.1226
  938SOL    HW1 2813   2.735   2.165   1.566  1.7756 -0.4027  2.5644
  938SOL    HW2 2814   2.879   2.071   1.579 -1.6947 -1.0376 -1.8954
  939SOL     OW 2815   2.796   1.209   2.510 -0.1961  0.1714 -0.5152
  939SOL    HW1 2816   2.882   1.209   2.452  1.4326  3.6954  0.5032
  939SOL    HW2 2817   2.792   1.133   2.580 -3.3875 -3.5447 -0.7595
  940SOL     OW 2818   1.030   0.448   2.728 -0.3034  0.2022  0.2658
  940SOL    HW1 2819   1.103   0.379   2.737 -0.8549  4.5697  0.9920
  940SOL    HW2 2820   0.936   0.411   2.716  1.4365  3.8227 -0.4402
  941SOL     OW 2821   0.055   2.809   2.267  0.1604  0.7936  0.4205
  941SOL    HW1 2822   0.108   2.721   2.233  2.7903 -3.8372 -2.0423
  941SOL    HW2 2823   0.112   2.858   2.344 -0.9432  0.1291  1.9918
  942SOL     OW 2824   0.082   0.073   2.472 -0.7419 -0.3123 -0.1877
  942SOL    HW1 2825   0.132   0.102   2.554  0.4874 -1.7815 -1.2530
  942SOL    HW2 2826   0.089   0.139   2.397 -0.3181 -2.9484  0.2083
  943SOL     OW 2827   2.123   1.726   2.402  0.1197 -0.0369  0.2376
  943SOL    HW1 2828   2.103   1.667   2.319 -0.0582  0.2788  1.6409
  943SOL    HW2 2829   2.115   1.678   2.487 -0.2651  1.4350 -1.1301
  944SOL     OW 2830   2.184   2.350   1.473  0.0461  0.4387  0.0937
  944SOL    HW1 2831   2.221   2.431   1.523  0.3732  0.4486 -1.5408
  944SOL    HW2 2832   2.140   2.272   1.526  1.7792 -1.6233 -1.5703
  945SOL     OW 2833   0.711   1.497   0.268  0.0313 -0.4001  0.5999
  945SOL    HW1 2834   0.649   1.537   0.200  3.9196 -0.5427 -0.3508
  945SOL    HW2 2835   0.710   1.395   0.277  1.1789 -0.0145 -0.5942
  946SOL     OW 2836   0.401   0.944   2.447  0.1444 -0.4383  0.5147
  946SOL    HW1 2837   0.316   0.906   2.404 -1.0485  0.1334 -3.1026
  946SOL    HW2 2838   0.386   1.030   2.504 -0.0274  0.2130  0.3792
  947SOL     OW 2839   1.541   0.451   3.103  0.0206  0.2903  0.3037
  947SOL    HW1 2840   1.531   0.522   3.023  1.3410  1.8015 -1.1542
  947SOL    HW2 2841   1.454   0.410   3.124  4.6508 -0.4630  1.4042
  948SOL     OW 2842   1.938   3.049   2.148  0.3712  0.0571 -0.2790
  948SOL    HW1 2843   1.984   3.014   2.057  3.3019  0.7640 -0.8615
  948SOL    HW2 2844   1.906   2.975   2.213 -0.6259  0.4298 -0.6086
  949SOL     OW 2845   0.547   2.487   0.534  0.4221  0.0744  0.1562
  949SOL    HW1 2846   0.564   2.588   0.503 -1.4159  0.3049 -1.5294
  949SOL    HW2 2847   0.595   2.448   0.622 -0.2036 -0.8108 -0.4116
  950SOL     OW 2848   0.212   2.197   3.027  0.6104 -0.4359  0.1679
  950SOL    HW1 2849   0.114   2.231   3.037  1.0986 -0.9421  2.7351
  950SOL    HW2 2850   0.223   2.126   2.955  0.3213  1.2320 -0.8791
  951SOL     OW 2851   1.246   2.721   2.740 -0.9283  0.4809 -0.0600
  951SOL    HW1 2852   1.327   2.744   2.678  1.5785  2.6086 -1.0999
  951SOL    HW2 2853   1.159   2.772   2.717 -0.5849 -1.2425  1.9648
  952SOL     OW 2854   0.010   1.726   0.414 -0.2129 -0.5027  0.5450
  952SOL    HW1 2855   0.073   1.810   0.414 -2.7320 -4.3577  1.7670
  952SOL    HW2 2856   0.040   1.659   0.484  2.6249  2.9508  0.7522
  953SOL     OW 2857   2.477   1.753   0.268 -0.3521  0.0282  0.2674
  953SOL    HW1 2858   2.512   1.657   0.269 -0.1255  0.7037  0.6441
  953SOL    HW2 2859   2.490   1.800   0.173 -0.7091  2.8099 -2.1692
  954SOL     OW 2860   2.205   0.554   0.967 -0.6630 -0.1080 -0.1751
  954SOL    HW1 2861   2.191   0.585   0.870 -0.2840 -0.2615  1.2192
  954SOL    HW2 2862   2.303   0.554   0.994 -1.3756  0.5829  1.0815
  955SOL     OW 2863   0.186   2.622   1.276  0.2762  0.1669 -0.0133
  955SOL    HW1 2864   0.112   2.686   1.310 -1.0411  1.0102  1.4715
  955SOL    HW2 2865   0.224   2.642   1.182 -0.8545 -0.1872  3.7786
  956SOL     OW 2866   2.762   2.432   2.444 -0.6584  0.0416 -0.1639
  956SOL    HW1 2867   2.768   2.325   2.428  1.1691 -2.1675 -1.3453
  956SOL    HW2 2868   2.804   2.493   2.372 -0.7206  1.4886  3.1395
  957SOL     OW 2869   1.588   2.076   2.797 -0.0399 -0.0915 -0.5111
  957SOL    HW1 2870   1.527   1.994   2.782  0.2356 -1.6562  2.5431
  957SOL    HW2 2871   1.651   2.095   2.717  0.2449 -0.8917 -2.4130
  958SOL     OW 2872   2.641   2.295   3.005  0.0480  0.5248 -0.4879
  958SOL    HW1 2873   2.552   2.343   2.979  0.9454  0.7068  0.2130
  958SOL    HW2 2874   2.625   2.235   3.092 -1.3662  0.3629  0.0705
  959SOL     OW 2875   0.267   2.809   0.083 -0.6760 -0.6783 -0.1555
  959SOL    HW1 2876   0.170   2.790   0.051 -0.2847 -1.8988  2.0401
  959SOL    HW2 2877   0.304   2.742   0.156  2.3093 -0.1301  0.6895
  960SOL     OW 2878   2.007   0.458   1.962 -0.7708 -0.3442 -0.2234
  960SOL    HW1 2879   1.930   0.513   1.921 -0.2315 -1.8571 -0.1696
  960SOL    HW2 2880   2.005   0.469   2.069  0.0869  0.8813  1.9056
  961SOL     OW 2881   2.577   1.808   0.975 -0.0003  0.1023 -0.4197
  961SOL    HW1 2882   2.577   1.909   0.954 -1.5436  3.8237  2.3984
  961SOL    HW2 2883   2.562   1.784   1.075 -0.8098 -1.0692  0.0403
  962SOL     OW 2884   1.328   0.881   0.085 -0.7820 -0.2061 -0.1101
  962SOL    HW1 2885   1.283   0.910  -0.002  4.2506  3.1644  1.4966
  962SOL    HW2 2886   1.319   0.951   0.161 -1.3159  0.8603 -1.7411
  963SOL     OW 2887   2.200   2.566   1.861  0.3513 -0.5552 -0.2959
  963SOL    HW1 2888   2.175   2.469   1.899  0.0843  2.4291  1.5850
  963SOL    HW2 2889   2.223   2.630   1.944 -0.2258  2.1198  0.4174
  964SOL     OW 2890   2.370   0.356   1.656  0.0031  0.5724 -0.7179
  964SOL    HW1 2891   2.461   0.352   1.710  0.9392  0.3170 -1.9483
  964SOL    HW2 2892   2.386   0.355   1.551 -0.8772 -1.1732 -0.1940
  965SOL     OW 2893   2.633   3.059   0.115 -0.0582  0.2317  0.4180
  965SOL    HW1 2894   2.686   3.009   0.041 -0.3619 -1.8734 -2.5282
  965SOL    HW2 2895   2.550   3.114   0.090  1.0287 -2.3873 -0.5719
  966SOL     OW 2896   2.527   2.495   2.210 -0.2895 -0.4920 -0.1592
  966SOL    HW1 2897   2.495   2.550   2.289 -1.2332 -0.7461  0.2594
  966SOL    HW2 2898   2.491   2.535   2.122 -0.5619 -2.7455 -0.4648
  967SOL     OW 2899   2.794   2.796   2.498  0.1477 -0.1891  0.3132
  967SOL    HW1 2900   2.812   2.720   2.429  1.0847 -2.8874  1.7718
  967SOL    HW2 2901   2.870   2.862   2.512 -0.0102 -0.5716 -1.0632
  968SOL     OW 2902   1.925   0.984   2.616  0.7009 -0.1171 -0.3485
  968SOL    HW1 2903   1.883   1.053   2.550 -0.8455  0.9327 -0.4234
  968SOL    HW2 2904   1.975   0.900   2.581  1.1662  2.7630  3.6372
  969SOL     OW 2905   2.808   2.464   1.072 -0.4354  0.0447 -0.4463
  969SOL    HW1 2906   2.738   2.434   1.000 -3.3466  0.0819 -0.3765
  969SOL    HW2 2907   2.853   2.385   1.124 -0.8335  0.5580 -1.9539
  970SOL     OW 2908   1.035   2.126   1.783  0.3087  0.0525 -0.8325
  970SOL    HW1 2909   0.944   2.149   1.740 -0.2039  1.4596  1.7243
  970SOL    HW2 2910   1.051   2.162   1.880 -0.6357  0.9896 -0.6813
  971SOL     OW 2911   2.872   2.071   1.864 -0.0845 -0.0960  0.0362
  971SOL    HW1 2912   2.840   2.170   1.885 -1.3992  2.9749  0.9102
  971SOL    HW2 2913   2.933   2.053   1.787 -1.8042 -1.8507 -1.4143
  972SOL     OW 2914   1.995   2.474   0.210 -0.1946 -0.5937 -0.1718
  972SOL    HW1 2915   2.002   2.396   0.139  0.2819  2.5212 -2.7076
  972SOL    HW2 2916   2.042   2.451   0.299 -3.7940  0.3467 -0.0868
  973SOL     OW 2917   1.302   1.063   1.880 -0.2507  0.2782  0.1575
  973SOL    HW1 2918   1.258   1.023   1.793  0.5182  0.4163 -2.9934
  973SOL    HW2 2919   1.255   1.146   1.924 -1.9879 -0.0948 -2.0334
  974SOL     OW 2920   1.605   0.555   1.990  0.2506 -0.2841  0.5108
  974SOL    HW1 2921   1.693   0.577   1.936  2.8081 -0.1155  0.1582
  974SOL    HW2 2922   1.545   0.643   1.990 -1.7646  2.3382  0.1357
  975SOL     OW 2923   2.363   0.012   0.070 -0.3882  0.1786 -0.3044
  975SOL    HW1 2924   2.320  -0.051   0.143 -0.7563 -0.0995  1.8726
  975SOL    HW2 2925   2.350  -0.019  -0.029  0.7773 -0.4407  0.2562
  976SOL     OW 2926   1.907   2.848   2.337  0.2454 -0.1518 -0.6790
  976SOL    HW1 2927   1.813   2.820   2.310 -1.0447  1.2130  0.0342
  976SOL    HW2 2928   1.946   2.779   2.406 -1.8796 -1.0792  0.9594
  977SOL     OW 2929   0.460   0.686   1.052 -0.2535  0.1735  0.9856
  977SOL    HW1 2930   0.395   0.740   0.997  0.4933 -0.2955  0.8926
  977SOL    HW2 2931   0.534   0.654   0.992 -0.4615 -0.1120 -0.6034
   3.10000   3.10000   3.10000
