1000 SPC/Fw water molecules t=   1.03000 step= 1030
 2931
    1SOL     OW    1   2.580   0.339   2.647 -0.0127  0.3265  0.2073
    1SOL    HW1    2   2.551   0.241   2.667  1.9444  1.3287 -0.6530
    1SOL    HW2    3   2.613   0.387   2.736 -2.4292  0.7164  0.5172
    2SOL     OW    4   2.700   3.046   1.419  0.1464 -0.0500 -0.1846
    2SOL    HW1    5   2.792   3.057   1.363 -0.3430 -1.8483  1.3034
    2SOL    HW2    6   2.687   3.123   1.488 -1.0278  0.2692 -0.5732
    3SOL     OW    7   2.651   2.634   0.435 -1.0162 -0.2380 -0.1064
    3SOL    HW1    8   2.607   2.540   0.436  0.1548  1.1948 -2.4783
    3SOL    HW2    9   2.745   2.632   0.473 -2.5560 -0.4291 -0.6371
    4SOL     OW   10   1.228   1.547   2.307 -0.0490  0.0494 -0.2238
    4SOL    HW1   11   1.148   1.594   2.256  1.7599  1.2434  0.3564
    4SOL    HW2   12   1.212   1.441   2.325 -1.1900  0.7844  0.4104
    5SOL     OW   13   1.160   1.504   3.070 -0.2196  0.6346 -0.1279
    5SOL    HW1   14   1.213   1.596   3.068 -1.2162  3.0911 -3.6503
    5SOL    HW2   15   1.064   1.517   3.106  0.8927 -1.0793  0.4908
    6SOL     OW   16   0.165   1.745   2.983 -0.1343 -0.7620  0.2720
    6SOL    HW1   17   0.088   1.787   3.036  5.3777 -0.0079 -0.1425
    6SOL    HW2   18   0.246   1.734   3.048  0.4256  0.8168  1.0727
    7SOL     OW   19   2.593   0.900   1.086 -0.0036 -0.1060 -0.0548
    7SOL    HW1   20   2.501   0.894   1.133  1.4088 -1.6135 -0.6311
    7SOL    HW2   21   2.586   0.874   0.988 -0.0434  0.7132  1.3319
    8SOL     OW   22   0.398   0.657   1.528  0.3455 -0.6250 -0.4614
    8SOL    HW1   23   0.490   0.631   1.568  1.7095  0.9873 -0.4680
    8SOL    HW2   24   0.385   0.630   1.431 -1.2634  1.4905  0.9999
    9SOL     OW   25   1.187   0.887   2.420  0.0102 -0.2603 -0.0213
    9SOL    HW1   26   1.231   0.903   2.328  0.3698  2.9224  3.0624
    9SOL    HW2   27   1.155   0.790   2.439 -0.2190  3.3200 -0.6702
   10SOL     OW   28   0.676   1.368   1.301  0.3901  0.0163  0.4315
   10SOL    HW1   29   0.593   1.385   1.236 -2.6806 -0.3338 -0.1969
   10SOL    HW2   30   0.719   1.457   1.318  0.6455  0.2556 -0.6755
   11SOL     OW   31   2.308   2.799   0.851 -0.2140 -0.2321  0.6404
   11SOL    HW1   32   2.254   2.797   0.941 -2.4232 -0.6138  0.8337
   11SOL    HW2   33   2.413   2.791   0.867  2.5415 -2.4023  5.4684
   12SOL     OW   34   1.509   0.906   0.343  0.6992 -0.3158  0.1076
   12SOL    HW1   35   1.439   0.974   0.308 -1.6047 -0.9258  4.7341
   12SOL    HW2   36   1.517   0.821   0.284 -1.9782  2.4543 -1.4195
   13SOL     OW   37   2.491   0.724   1.771 -0.5062 -0.2069  0.2283
   13SOL    HW1   38   2.421   0.665   1.818 -0.8242  0.3934  2.8224
   13SOL    HW2   39   2.498   0.707   1.672  0.9170 -1.8448 -0.0058
   14SOL     OW   40   1.875   0.106   0.674 -0.4467  0.0142 -0.2298
   14SOL    HW1   41   1.783   0.107   0.625 -1.0209 -0.4746  1.6728
   14SOL    HW2   42   1.870   0.048   0.761 -0.9346 -1.2765 -0.1837
   15SOL     OW   43   1.958   2.102   2.720 -0.1655 -0.0317  0.0762
   15SOL    HW1   44   1.887   2.178   2.736 -1.3750 -0.3801 -0.3830
   15SOL    HW2   45   1.918   2.016   2.677 -0.2217 -0.2407 -0.2905
   16SOL     OW   46   1.618   1.702   2.974  0.1540 -0.4814 -0.0116
   16SOL    HW1   47   1.616   1.605   3.019  1.2373 -0.6838  0.2302
   16SOL    HW2   48   1.712   1.751   2.991  1.1445  1.9076  3.1760
   17SOL     OW   49   0.115   0.474   0.161 -0.1716 -0.4744 -0.3379
   17SOL    HW1   50   0.200   0.526   0.138  0.8172  1.8154  2.2249
   17SOL    HW2   51   0.040   0.490   0.088 -1.7462  0.4652  0.0762
   18SOL     OW   52   0.948   2.912   2.154  0.1762  0.9273  0.3251
   18SOL    HW1   53   0.853   2.873   2.132 -1.7886  0.6057 -1.8110
   18SOL    HW2   54   1.026   2.863   2.108 -3.5674  0.4508  0.7962
   19SOL     OW   55   0.552   0.831   1.888 -0.2043 -0.4286  0.0611
   19SOL    HW1   56   0.567   0.759   1.961 -3.1981 -1.8850 -2.2072
   19SOL    HW2   57   0.624   0.910   1.889  2.4746  1.4536 -2.0281
   20SOL     OW   58   0.180   2.755   0.843  0.1521  1.0754  0.9650
   20SOL    HW1   59   0.082   2.781   0.828 -0.1064  1.7799  1.7879
   20SOL    HW2   60   0.214   2.685   0.776 -1.2033  1.1684 -1.5505
   21SOL     OW   61   2.719   0.269   2.037 -0.0500  0.1133 -0.5587
   21SOL    HW1   62   2.660   0.183   2.017 -2.0817 -1.6004  1.2773
   21SOL    HW2   63   2.810   0.240   2.084 -1.9147  0.1726  0.5437
   22SOL     OW   64   2.353   0.264   0.147 -0.4230 -0.4096 -0.3822
   22SOL    HW1   65   2.384   0.169   0.124  1.6289 -1.8921 -1.3691
   22SOL    HW2   66   2.270   0.294   0.090  0.8201  0.2910 -1.0750
   23SOL     OW   67   2.785   0.580   0.608 -0.0110 -0.3232 -0.1563
   23SOL    HW1   68   2.814   0.480   0.625  3.2738 -1.9248 -3.3142
   23SOL    HW2   69   2.754   0.599   0.511 -1.4244  0.2097 -2.5862
   24SOL     OW   70   0.194   1.928   0.390  0.3953  0.7055  0.3296
   24SOL    HW1   71   0.157   1.994   0.322 -2.7201  1.6549 -3.2390
   24SOL    HW2   72   0.287   1.891   0.365  0.7939 -0.0941  0.3090
   25SOL     OW   73   2.236   0.607   0.232  0.0133  0.2296  0.1393
   25SOL    HW1   74   2.242   0.613   0.131 -0.4799  0.0391 -0.5101
   25SOL    HW2   75   2.315   0.554   0.283  0.0940 -1.6724  1.7110
   26SOL     OW   76   2.495   2.145   2.067 -0.1947  0.3770 -0.0884
   26SOL    HW1   77   2.577   2.206   2.100  2.5506  2.0793 -0.9178
   26SOL    HW2   78   2.521   2.061   2.004 -0.8074 -2.0824 -1.4488
   27SOL     OW   79   0.588   2.910   0.206  0.2194  0.1761 -0.1217
   27SOL    HW1   80   0.688   2.933   0.196  1.0477 -0.1573  1.8896
   27SOL    HW2   81   0.525   2.954   0.137 -0.8645  1.1794  2.4015
   28SOL     OW   82   1.563   0.203   0.285  0.2493 -0.3271 -0.1539
   28SOL    HW1   83   1.601   0.169   0.197  0.2245  0.2117  0.8566
   28SOL    HW2   84   1.616   0.281   0.329 -1.0441  1.4301  0.3164
   29SOL     OW   85   1.974   0.618   0.360  0.2077 -0.3866 -0.5280
   29SOL    HW1   86   1.986   0.703   0.416 -0.7707  0.1852 -1.0066
   29SOL    HW2   87   2.061   0.605   0.310  0.8514 -2.5220  1.4437
   30SOL     OW   88   0.162   1.960   0.921  0.0218 -0.4002  0.7236
   30SOL    HW1   89   0.122   1.948   0.824  1.1312  0.6518  0.6947
   30SOL    HW2   90   0.131   2.048   0.970 -1.1790  2.3672 -0.3901
   31SOL     OW   91   2.133   3.082   2.362  0.1659  0.1104  0.1288
   31SOL    HW1   92   2.139   3.051   2.464  2.5474 -2.6542 -1.7936
   31SOL    HW2   93   2.040   3.067   2.319  0.5797 -0.8270  1.0958
   32SOL     OW   94   2.981   0.020   0.249 -0.1450 -0.3346 -0.0220
   32SOL    HW1   95   2.964  -0.067   0.198 -3.5203  2.4656 -0.0498
   32SOL    HW2   96   3.073   0.066   0.217  2.9437 -0.3289  1.8708
   33SOL     OW   97   0.908   0.323   0.583 -0.2785 -0.0279  0.0214
   33SOL    HW1   98   0.888   0.241   0.523 -0.5579  1.5123  0.3538
   33SOL    HW2   99   1.011   0.348   0.577 -1.4521  0.6089 -1.8351
   34SOL     OW  100   0.331   2.758   1.088  0.0706 -0.2490 -0.3200
   34SOL    HW1  101   0.323   2.730   0.987 -0.6773 -1.8331 -0.2694
   34SOL    HW2  102   0.432   2.774   1.117 -2.2797  0.3591  1.4908
   35SOL     OW  103   0.032   0.087   1.896 -0.5288  0.3086 -0.2245
   35SOL    HW1  104   0.036  -0.012   1.874  0.5542  1.5645  0.6737
   35SOL    HW2  105  -0.011   0.141   1.818  0.6242 -1.3665  0.7850
   36SOL     OW  106   1.932   1.315   1.684 -0.2882  0.4556 -0.6762
   36SOL    HW1  107   1.988   1.227   1.685  1.8501 -1.0401 -3.2239
   36SOL    HW2  108   1.938   1.357   1.587  0.6136 -1.9654 -1.0699
   37SOL     OW  109   1.184   0.218   0.985  0.2877 -0.4407 -0.0988
   37SOL    HW1  110   1.242   0.285   1.034 -0.2716 -1.7617 -0.6471
   37SOL    HW2  111   1.237   0.136   0.955 -0.6333 -1.0246  0.1658
   38SOL     OW  112   1.118   2.856   2.471  0.9278 -0.5920 -0.3768
   38SOL    HW1  113   1.078   2.791   2.407  0.2003  1.4516  0.6664
   38SOL    HW2  114   1.108   2.954   2.432  0.5329  2.3663 -0.8076
   39SOL     OW  115   2.306   1.464   3.060  0.0057 -0.1057 -0.2175
   39SOL    HW1  116   2.384   1.391   3.059  2.9881  0.0649 -0.9040
   39SOL    HW2  117   2.280   1.486   3.160  0.9101  1.1244  0.5569
   40SOL     OW  118   2.009   2.433   2.556  0.0241 -0.0958  0.2912
   40SOL    HW1  119   2.005   2.534   2.538 -2.1597 -0.8940  0.6427
   40SOL    HW2  120   1.966   2.377   2.481 -0.0942  0.6450 -1.8239
   41SOL     OW  121   3.030   0.690   2.806 -0.1479 -0.2760 -0.4829
   41SOL    HW1  122   2.981   0.764   2.763 -0.9053 -1.0182  1.5629
   41SOL    HW2  123   3.001   0.596   2.777  0.0047  0.1393 -0.4532
   42SOL     OW  124   1.781   1.790   0.516 -0.0780  0.0903 -0.5392
   42SOL    HW1  125   1.745   1.695   0.513  0.1211  3.0460  1.9636
   42SOL    HW2  126   1.814   1.827   0.424 -1.2859  0.9425  1.0261
   43SOL     OW  127   0.430   1.675   1.132  0.4611 -0.0513  0.1826
   43SOL    HW1  128   0.429   1.592   1.190 -1.2645  2.6339 -1.0193
   43SOL    HW2  129   0.333   1.714   1.114 -2.9100 -1.3504 -2.9618
   44SOL     OW  130   1.746   2.430   3.010 -0.0489 -0.8139 -0.1796
   44SOL    HW1  131   1.694   2.520   2.988 -1.9440  1.3066  0.4013
   44SOL    HW2  132   1.791   2.385   2.927  1.3201 -1.9421 -1.2798
   45SOL     OW  133   0.374   1.885   2.617 -0.1075 -0.2635 -0.1171
   45SOL    HW1  134   0.330   1.864   2.525 -0.3600 -2.7409  2.5599
   45SOL    HW2  135   0.442   1.814   2.650  0.6729  0.4580 -0.3240
   46SOL     OW  136   1.224   0.621   0.145  0.4569 -0.7578 -0.1259
   46SOL    HW1  137   1.278   0.711   0.155 -1.0115  0.2095 -0.3493
   46SOL    HW2  138   1.124   0.628   0.172 -3.1777  0.0378 -2.8951
   47SOL     OW  139   0.202   2.538   1.553  0.2607  0.8362  0.0031
   47SOL    HW1  140   0.177   2.434   1.568  2.0933 -2.8191 -0.5209
   47SOL    HW2  141   0.206   2.556   1.451  1.1846 -1.2926 -1.0183
   48SOL     OW  142   2.636   0.630   0.148  0.2494  0.1242  0.1654
   48SOL    HW1  143   2.612   0.608   0.247 -0.9534  2.9622 -1.2842
   48SOL    HW2  144   2.731   0.675   0.143  3.1613 -0.7467  0.4906
   49SOL     OW  145   0.323   0.757   1.767  0.2711 -0.3736 -0.1042
   49SOL    HW1  146   0.408   0.787   1.819  1.1369 -1.4995 -0.0704
   49SOL    HW2  147   0.351   0.734   1.668  0.9271 -0.1118 -0.5007
   50SOL     OW  148   1.671   1.120   0.337  0.1236  0.2588 -0.2838
   50SOL    HW1  149   1.625   1.029   0.313 -0.2010 -3.2495  2.3371
   50SOL    HW2  150   1.651   1.148   0.435 -1.2431 -1.2194  2.5900
   51SOL     OW  151   2.905   1.778   0.242  0.7692 -0.1593 -0.1753
   51SOL    HW1  152   2.870   1.696   0.185 -1.4060 -1.0205  0.7496
   51SOL    HW2  153   2.960   1.755   0.326  0.6652 -3.5682 -0.0249
   52SOL     OW  154   0.804   2.060   0.538  0.2657  0.6515  0.4277
   52SOL    HW1  155   0.697   2.074   0.549 -2.5999  1.3844  2.3713
   52SOL    HW2  156   0.837   1.998   0.614 -0.5926 -0.1341  0.0178
   53SOL     OW  157   0.184   0.427   1.596  0.0840  0.7010 -0.3075
   53SOL    HW1  158   0.282   0.460   1.604  0.5172 -0.1869  1.3680
   53SOL    HW2  159   0.126   0.482   1.527 -2.1061 -0.7061 -1.3204
   54SOL     OW  160   1.811   0.525   3.089 -0.2031  0.1017 -0.4213
   54SOL    HW1  161   1.849   0.486   3.176  0.9246  1.0980  1.5188
   54SOL    HW2  162   1.719   0.482   3.080  2.1480 -0.7382 -3.8880
   55SOL     OW  163   0.750   2.910   0.688  0.1296 -0.0283  0.0477
   55SOL    HW1  164   0.694   2.996   0.693 -2.2164  0.5242  1.1747
   55SOL    HW2  165   0.822   2.907   0.616  2.9545  1.0787  1.2290
   56SOL     OW  166   0.588   1.564   0.027  0.6156  0.0967 -0.2849
   56SOL    HW1  167   0.506   1.627   0.025 -0.3619 -0.2391  3.2808
   56SOL    HW2  168   0.564   1.470  -0.018 -1.8832 -2.0261 -0.7345
   57SOL     OW  169   1.753   2.528   2.392  0.3699 -0.2353 -0.8823
   57SOL    HW1  170   1.774   2.430   2.377 -2.6333  0.7351 -0.0771
   57SOL    HW2  171   1.668   2.539   2.461 -0.3641 -1.0605  2.4531
   58SOL     OW  172   0.698   0.271   1.068  0.2106 -0.6036  0.2702
   58SOL    HW1  173   0.597   0.289   1.100  1.7423 -2.1436 -2.6197
   58SOL    HW2  174   0.731   0.173   1.081  2.5386  1.0606 -0.7704
   59SOL     OW  175   0.407   2.342   2.729 -0.5207 -0.7504 -0.1181
   59SOL    HW1  176   0.445   2.255   2.692 -2.0232  0.0931  0.5204
   59SOL    HW2  177   0.487   2.391   2.779 -1.4520 -2.4462  0.3254
   60SOL     OW  178   2.310   2.068   2.256  0.0224 -0.3396  0.3261
   60SOL    HW1  179   2.376   2.107   2.181  1.6725  2.1069  0.4810
   60SOL    HW2  180   2.322   2.108   2.356  2.4808  1.9369  0.2657
   61SOL     OW  181   1.323   0.655   0.445  0.0979 -0.4878 -0.4695
   61SOL    HW1  182   1.242   0.716   0.467 -2.1577 -0.8095 -0.0694
   61SOL    HW2  183   1.321   0.629   0.349 -0.4960  0.1155  0.9843
   62SOL     OW  184   2.705   1.830   2.936  0.0394  0.0173 -0.1994
   62SOL    HW1  185   2.653   1.800   2.849 -1.0033  2.3593 -1.1735
   62SOL    HW2  186   2.788   1.771   2.953  0.6154 -1.0796  1.0296
   63SOL     OW  187   0.516   0.809   0.197 -0.3153 -0.2919 -0.1785
   63SOL    HW1  188   0.579   0.874   0.149 -2.5636 -0.4481 -0.3773
   63SOL    HW2  189   0.523   0.809   0.299 -1.2590  3.1363 -0.0740
   64SOL     OW  190   0.077   0.432   2.473 -0.1553 -0.3917 -0.0544
   64SOL    HW1  191   0.123   0.484   2.555 -0.0114  2.8608  1.4585
   64SOL    HW2  192   0.069   0.490   2.385  3.3411 -0.4122 -1.7319
   65SOL     OW  193   0.141   1.521   0.597  0.7287 -0.0326  0.3585
   65SOL    HW1  194   0.141   1.579   0.688  0.3912 -0.0699  1.0863
   65SOL    HW2  195   0.236   1.490   0.565 -1.0083 -0.0446  1.4144
   66SOL     OW  196   2.545   0.364   0.588 -0.3725 -0.2356 -0.0195
   66SOL    HW1  197   2.643   0.348   0.616 -1.0271 -2.5567 -1.1508
   66SOL    HW2  198   2.493   0.283   0.627  1.4204  0.1243  0.0378
   67SOL     OW  199   0.561   2.522   1.436 -0.1475 -0.6701  0.5416
   67SOL    HW1  200   0.646   2.473   1.472  1.8576 -0.0655 -1.2381
   67SOL    HW2  201   0.476   2.462   1.446  0.2143  0.8186  1.5200
   68SOL     OW  202   1.012   1.104   2.494 -0.4621  0.2772  0.5442
   68SOL    HW1  203   1.064   1.013   2.489  2.3590 -0.2722 -0.8608
   68SOL    HW2  204   0.940   1.115   2.417 -2.0535 -1.6970 -3.2344
   69SOL     OW  205   0.728   2.759   2.140 -0.3218  0.2487  0.4814
   69SOL    HW1  206   0.766   2.657   2.150  0.2415  1.5983 -0.4182
   69SOL    HW2  207   0.626   2.767   2.153 -0.0676 -0.0626  0.3842
   70SOL     OW  208   0.483   0.235   2.655 -0.4496  0.1396 -0.7070
   70SOL    HW1  209   0.382   0.246   2.642  1.7552 -0.6600 -2.3172
   70SOL    HW2  210   0.506   0.131   2.660 -1.1181 -0.7552 -0.3996
   71SOL     OW  211   1.118   1.770   0.447  0.3647 -0.0279 -0.1717
   71SOL    HW1  212   1.054   1.699   0.481  1.6404  1.3095 -0.0953
   71SOL    HW2  213   1.100   1.784   0.341 -0.4092  1.7557 -1.4962
   72SOL     OW  214   1.819   0.207   2.141  0.2921 -0.0888  0.1095
   72SOL    HW1  215   1.894   0.282   2.126  0.0605  2.1826  0.7968
   72SOL    HW2  216   1.853   0.112   2.136  1.3589 -2.7374 -1.4022
   73SOL     OW  217   2.812   2.176   2.403  0.1712 -0.2420  0.1202
   73SOL    HW1  218   2.825   2.077   2.373  2.6970 -0.9122  0.3485
   73SOL    HW2  219   2.879   2.208   2.481 -2.3575  2.0223 -2.3872
   74SOL     OW  220   2.686   2.856   2.142 -0.6288 -0.6952  0.1908
   74SOL    HW1  221   2.680   2.820   2.242  1.3113  3.1335  0.8904
   74SOL    HW2  222   2.779   2.893   2.118  1.9853  1.8581 -0.5771
   75SOL     OW  223   0.944   0.855   1.096 -0.6166  0.1230 -0.0503
   75SOL    HW1  224   0.865   0.887   1.040 -1.2418 -0.2631  1.5538
   75SOL    HW2  225   0.957   0.896   1.191 -3.4781 -0.2325 -0.9095
   76SOL     OW  226   1.725   1.200   2.509 -0.2301  0.1534  0.1706
   76SOL    HW1  227   1.627   1.171   2.498  1.8306  1.6710 -0.2639
   76SOL    HW2  228   1.740   1.290   2.555 -0.6116 -0.2461  0.7112
   77SOL     OW  229   2.937   0.936   0.987 -0.1386 -0.2656  0.8281
   77SOL    HW1  230   2.888   0.848   0.964 -1.3813  0.8289 -0.5901
   77SOL    HW2  231   3.001   0.927   1.069  0.4659 -1.0799 -2.1275
   78SOL     OW  232   2.005   1.466   1.459 -0.1738 -0.1627  0.2628
   78SOL    HW1  233   2.086   1.524   1.429 -1.0600 -2.9601  1.3914
   78SOL    HW2  234   1.945   1.435   1.380  0.4595  1.3811  0.2066
   79SOL     OW  235   0.608   1.383   0.806 -0.1578  0.4461  0.0839
   79SOL    HW1  236   0.515   1.382   0.853 -4.3616  2.6863 -1.1238
   79SOL    HW2  237   0.602   1.344   0.709 -0.6711 -0.6119 -0.3487
   80SOL     OW  238   0.626   0.501   1.566  0.1670  0.1422  0.0440
   80SOL    HW1  239   0.680   0.556   1.494  1.9144  0.2855 -0.4470
   80SOL    HW2  240   0.619   0.404   1.537 -0.7587  2.3640 -0.6548
   81SOL     OW  241   1.031   1.342   2.630  0.3382 -0.0454  0.0463
   81SOL    HW1  242   1.029   1.243   2.593 -1.4586  0.5815 -2.3408
   81SOL    HW2  243   0.987   1.399   2.555  1.2346 -0.7143 -1.7453
   82SOL     OW  244   0.974   3.004   1.539 -0.0086  0.2532  0.7151
   82SOL    HW1  245   0.870   3.018   1.533  0.0577  0.2694  2.3166
   82SOL    HW2  246   1.012   2.953   1.459 -2.2340 -0.1531  0.5559
   83SOL     OW  247   2.654   2.400   0.833 -0.1634 -0.1042  0.2664
   83SOL    HW1  248   2.585   2.337   0.779  1.3490 -0.7626  1.6104
   83SOL    HW2  249   2.638   2.500   0.834 -0.7452  0.3099  2.1862
   84SOL     OW  250   0.637   3.051   2.328 -0.1832 -0.1555  0.4232
   84SOL    HW1  251   0.545   3.075   2.377 -0.3720  2.1507  2.0528
   84SOL    HW2  252   0.698   2.976   2.368  2.5511 -1.1947 -1.6379
   85SOL     OW  253   0.276   1.596   1.449 -0.2492 -0.4462 -1.0107
   85SOL    HW1  254   0.246   1.697   1.431  0.7663  2.7942  0.7847
   85SOL    HW2  255   0.347   1.583   1.525 -1.5048  0.2199  1.7681
   86SOL     OW  256   0.433   0.996   1.539  0.7531 -0.0256 -0.0485
   86SOL    HW1  257   0.410   0.939   1.457  2.1782  1.7244  0.0635
   86SOL    HW2  258   0.531   0.992   1.570 -0.2891  0.8041 -1.9856
   87SOL     OW  259   1.569   0.657   0.204  0.1096 -0.0629  0.3119
   87SOL    HW1  260   1.649   0.716   0.182 -3.0901 -0.6105  0.7296
   87SOL    HW2  261   1.548   0.582   0.139 -0.6765 -0.8167  0.0680
   88SOL     OW  262   1.570   1.366   0.273 -0.6303 -0.4194 -0.1823
   88SOL    HW1  263   1.616   1.275   0.281 -0.3253 -0.2059  0.7067
   88SOL    HW2  264   1.469   1.354   0.280  0.4963 -0.5232 -0.2293
   89SOL     OW  265   3.077   0.459   0.594 -0.3000 -0.4515 -0.0602
   89SOL    HW1  266   3.153   0.394   0.559  0.5199 -0.3541  2.7722
   89SOL    HW2  267   2.984   0.415   0.615  1.3150  2.9483 -2.1734
   90SOL     OW  268   0.912   1.572   0.086  0.0514 -0.0878 -0.4951
   90SOL    HW1  269   0.859   1.546   0.174 -1.3602  0.0708 -0.2044
   90SOL    HW2  270   0.845   1.573   0.007  1.7734 -0.4328 -0.5495
   91SOL     OW  271   1.225   1.459   1.822 -0.3861  0.3811 -0.6665
   91SOL    HW1  272   1.225   1.562   1.853 -0.8052  0.7894  1.4390
   91SOL    HW2  273   1.323   1.423   1.821 -0.0110 -3.1144  2.0295
   92SOL     OW  274   3.066   0.934   1.236 -0.0921 -0.2395  0.0344
   92SOL    HW1  275   3.126   1.012   1.199  0.0960 -0.7362 -0.0670
   92SOL    HW2  276   3.073   0.929   1.340 -0.2600 -1.9892 -0.8560
   93SOL     OW  277   0.021   2.743   3.098  0.1949  0.2686  0.7602
   93SOL    HW1  278  -0.047   2.755   3.019 -0.7393 -0.0436  0.8885
   93SOL    HW2  279   0.022   2.643   3.133  0.1540 -2.1280 -1.4580
   94SOL     OW  280   1.516   1.454   1.773  0.1805  0.1614  0.6216
   94SOL    HW1  281   1.581   1.378   1.802  1.2037  1.1878  2.9198
   94SOL    HW2  282   1.537   1.538   1.836  2.8281  0.5264  1.1444
   95SOL     OW  283   1.423   2.514   3.011 -0.2259  0.0553  0.1429
   95SOL    HW1  284   1.335   2.529   3.060 -0.8535  0.7361  3.6228
   95SOL    HW2  285   1.425   2.418   2.969  0.2623 -1.1721  1.8674
   96SOL     OW  286   0.557   2.098   1.262  0.1789 -0.2248  0.6776
   96SOL    HW1  287   0.514   2.032   1.195  1.2713 -0.8908  1.1742
   96SOL    HW2  288   0.622   2.048   1.329  1.6318  0.1614  1.4650
   97SOL     OW  289   0.404   1.644   2.437 -1.1642 -0.5607  0.3443
   97SOL    HW1  290   0.307   1.625   2.398  0.9362 -0.5206 -2.6191
   97SOL    HW2  291   0.420   1.625   2.536 -2.3733 -0.0252 -1.7753
   98SOL     OW  292   2.030   1.652   1.175  0.1013 -0.2011 -0.5185
   98SOL    HW1  293   1.952   1.589   1.184  2.4231  1.8409  1.9818
   98SOL    HW2  294   2.116   1.604   1.152 -0.0360  0.9557 -0.3328
   99SOL     OW  295   2.515   2.030   1.300  0.1959  0.4279 -0.2811
   99SOL    HW1  296   2.525   2.065   1.396  1.0846 -0.3534  0.0351
   99SOL    HW2  297   2.484   1.932   1.299  1.7629  0.2405 -1.7271
  100SOL     OW  298   2.357   0.349   2.088 -0.5149  0.7715 -0.3945
  100SOL    HW1  299   2.271   0.343   2.142  0.2756  0.3732  0.6833
  100SOL    HW2  300   2.443   0.388   2.128  0.8439 -1.0236  0.1345
  101SOL     OW  301   0.422   1.470   0.458  0.0081  0.5187  0.1780
  101SOL    HW1  302   0.427   1.573   0.471  1.5192  0.0169  0.8797
  101SOL    HW2  303   0.513   1.427   0.464 -0.1435 -0.7699  0.8131
  102SOL     OW  304   2.226   1.030   0.830  0.0403  0.2667 -0.1076
  102SOL    HW1  305   2.153   0.993   0.764  0.7602 -1.9303  3.3856
  102SOL    HW2  306   2.316   1.056   0.779  3.6154 -0.0134  0.8977
  103SOL     OW  307   2.228   0.073   0.394 -0.0721 -0.2228 -0.3393
  103SOL    HW1  308   2.251   0.137   0.315  0.2601  0.7235 -2.1630
  103SOL    HW2  309   2.302   0.075   0.467 -3.3360 -0.6174  0.3713
  104SOL     OW  310   0.101   1.785   2.179  0.1456  0.3818 -0.3298
  104SOL    HW1  311   0.139   1.743   2.091 -0.6909 -1.2938  1.3217
  104SOL    HW2  312   0.002   1.798   2.169 -0.5270 -1.6303 -2.3808
  105SOL     OW  313   1.270   2.081   0.771  0.1860 -0.0126  0.0100
  105SOL    HW1  314   1.293   2.107   0.673  2.4509  0.8796  0.4615
  105SOL    HW2  315   1.323   1.994   0.797 -1.1482 -0.7551 -1.4588
  106SOL     OW  316   2.118   0.419   1.398  0.2540 -0.3493  0.2039
  106SOL    HW1  317   2.102   0.314   1.404 -0.4660 -0.7837 -2.2795
  106SOL    HW2  318   2.120   0.463   1.492  1.1564 -1.3013  0.2394
  107SOL     OW  319   1.860   2.955   1.229  0.9190  0.1713  0.2607
  107SOL    HW1  320   1.842   3.041   1.278  1.8335  1.4030 -0.8364
  107SOL    HW2  321   1.778   2.893   1.227 -0.7578  1.6022  0.3642
  108SOL     OW  322   0.765   2.783   1.268  0.2634  0.2567  0.2043
  108SOL    HW1  323   0.772   2.711   1.346  1.0763 -1.2404  0.0689
  108SOL    HW2  324   0.861   2.825   1.251  0.4853  1.7449 -0.7641
  109SOL     OW  325   2.132   0.092   0.818  0.2084  0.0118 -0.7285
  109SOL    HW1  326   2.034   0.105   0.786 -1.5090  1.3532  1.5366
  109SOL    HW2  327   2.137   0.053   0.916  0.1192 -0.3030  0.9813
  110SOL     OW  328   0.451   2.844   2.768 -0.6866 -0.2844  0.0331
  110SOL    HW1  329   0.407   2.817   2.674 -3.5070 -0.4314 -3.0975
  110SOL    HW2  330   0.531   2.781   2.792 -1.4272  0.2708 -0.5986
  111SOL     OW  331   1.283   0.498   2.329  0.2687 -0.1369 -0.1964
  111SOL    HW1  332   1.230   0.565   2.387  2.9852 -1.2460 -1.7296
  111SOL    HW2  333   1.349   0.438   2.380  1.8793 -0.5372 -0.3554
  112SOL     OW  334   1.699   0.502   1.435  0.3844  0.3670 -0.0436
  112SOL    HW1  335   1.707   0.457   1.340 -0.6062 -4.5210 -0.7292
  112SOL    HW2  336   1.683   0.438   1.512 -1.2037 -0.8586 -0.4091
  113SOL     OW  337   2.319   1.674   1.768  0.6417 -0.6188  0.1123
  113SOL    HW1  338   2.364   1.584   1.741 -0.9532 -1.3264  0.3222
  113SOL    HW2  339   2.308   1.692   1.871 -2.8104  0.4641 -2.0351
  114SOL     OW  340   0.351   0.542   1.273 -0.5233 -0.3955 -0.4181
  114SOL    HW1  341   0.406   0.579   1.189 -1.7020  4.0177 -2.3282
  114SOL    HW2  342   0.259   0.596   1.290 -0.0553  0.5229 -1.6538
  115SOL     OW  343   2.702   1.631   1.209  0.1472  0.0287 -0.4344
  115SOL    HW1  344   2.708   1.527   1.231  0.5525 -1.3762  1.0258
  115SOL    HW2  345   2.769   1.650   1.142 -0.4996 -1.7574  2.3174
  116SOL     OW  346   1.798   1.037   0.609 -0.1424 -0.6091 -0.4269
  116SOL    HW1  347   1.724   0.962   0.601  3.2892 -1.4449 -2.0320
  116SOL    HW2  348   1.784   1.113   0.679  0.7776 -1.0585 -0.8085
  117SOL     OW  349   1.199   0.331   0.574 -0.4369  0.4221  0.0169
  117SOL    HW1  350   1.245   0.405   0.624  1.9416  2.5018  0.5469
  117SOL    HW2  351   1.220   0.339   0.468 -0.0399 -2.3326 -2.0400
  118SOL     OW  352   1.146   1.106   1.136 -0.2906  1.8264 -0.0574
  118SOL    HW1  353   1.111   1.038   1.210  1.9447  0.3865  0.1717
  118SOL    HW2  354   1.155   1.203   1.163 -0.2508 -1.4064 -0.7940
  119SOL     OW  355   1.819   1.588   2.171 -0.1626 -0.5041  0.1286
  119SOL    HW1  356   1.797   1.689   2.159  0.0242 -0.2409 -1.9728
  119SOL    HW2  357   1.915   1.565   2.143 -1.2461 -2.6440 -2.6343
  120SOL     OW  358   2.937   2.864   0.174 -0.4299  0.4454  1.0862
  120SOL    HW1  359   3.023   2.828   0.122 -0.5919 -1.1744 -1.0713
  120SOL    HW2  360   2.851   2.808   0.161  1.6050  0.5762  0.9642
  121SOL     OW  361   1.964   0.753   2.217 -0.6342  0.1969  0.1758
  121SOL    HW1  362   1.965   0.807   2.129  1.2086 -0.1596  0.2292
  121SOL    HW2  363   1.990   0.651   2.201 -1.6636 -1.4751  0.3421
  122SOL     OW  364   2.608   2.596   1.323  1.0281 -0.3967 -0.0045
  122SOL    HW1  365   2.650   2.540   1.248  1.3302  0.1579  2.5690
  122SOL    HW2  366   2.506   2.603   1.303 -1.3701 -2.9506  3.2153
  123SOL     OW  367   1.726   0.049   1.700 -0.1289 -0.6046  0.0085
  123SOL    HW1  368   1.742  -0.021   1.629 -1.6639  0.3810  3.3405
  123SOL    HW2  369   1.812   0.097   1.734  0.9188  0.9882  0.0957
  124SOL     OW  370   0.057   0.426   1.101 -0.4675 -0.7246 -0.4981
  124SOL    HW1  371   0.050   0.514   1.162  2.1329  3.7559 -1.3003
  124SOL    HW2  372   0.100   0.440   1.012 -0.1130 -2.6437  0.4900
  125SOL     OW  373   0.858   1.838   0.697 -0.1844  0.2377  0.3846
  125SOL    HW1  374   0.964   1.825   0.707  2.2791 -3.3493  0.2428
  125SOL    HW2  375   0.810   1.844   0.788  1.3825  0.4533  0.7287
  126SOL     OW  376   1.824   2.263   2.383  0.1356 -0.1857  0.7119
  126SOL    HW1  377   1.886   2.221   2.305 -3.4712 -1.0138 -1.3279
  126SOL    HW2  378   1.767   2.197   2.439 -0.9123  2.5474  0.6108
  127SOL     OW  379   0.981   0.907   0.216 -0.8011  0.4378 -0.6809
  127SOL    HW1  380   0.983   0.986   0.290  0.1627  1.3873 -1.4547
  127SOL    HW2  381   0.985   0.813   0.259 -1.6598 -0.1469 -2.0127
  128SOL     OW  382   0.936   0.199   1.384 -0.5894 -0.0588  0.2573
  128SOL    HW1  383   0.959   0.265   1.308  0.2386 -0.6994 -2.6757
  128SOL    HW2  384   0.890   0.109   1.351  1.1544  2.6631 -1.5393
  129SOL     OW  385   1.843   0.654   1.819  0.0076  0.1384 -0.6586
  129SOL    HW1  386   1.858   0.642   1.717  1.7645  0.0851  1.3945
  129SOL    HW2  387   1.868   0.753   1.854  2.1627  1.8210  1.7625
  130SOL     OW  388   1.372   2.155   1.029  0.0077 -0.5989  0.6019
  130SOL    HW1  389   1.325   2.112   0.941 -2.8907  2.2617 -0.7881
  130SOL    HW2  390   1.442   2.223   0.993  0.2747 -0.6115 -1.1274
  131SOL     OW  391   3.017   1.425   1.364 -0.8423 -0.1290  0.0038
  131SOL    HW1  392   2.989   1.335   1.411  2.5397 -3.2620 -0.1774
  131SOL    HW2  393   3.121   1.421   1.351 -0.1458  1.2858 -0.7506
  132SOL     OW  394   2.041   2.430   0.486 -0.5659 -0.0954 -0.5485
  132SOL    HW1  395   1.941   2.447   0.490  0.0738  2.9803  2.5951
  132SOL    HW2  396   2.077   2.382   0.577  2.2524 -0.1876  1.5586
  133SOL     OW  397   1.801   2.341   2.745 -0.5850  0.2343  0.0050
  133SOL    HW1  398   1.785   2.400   2.660 -0.1946  0.9346 -2.4624
  133SOL    HW2  399   1.904   2.338   2.772  2.1590  0.8645 -3.7151
  134SOL     OW  400   2.661   2.310   1.584  0.0893 -0.2254  0.1097
  134SOL    HW1  401   2.578   2.294   1.645  0.6408  0.5722  1.0854
  134SOL    HW2  402   2.711   2.397   1.608 -1.7646  0.9418  0.0678
  135SOL     OW  403   0.710   1.486   2.661  0.5545 -0.2387  0.7867
  135SOL    HW1  404   0.668   1.414   2.718  2.9649 -0.2847 -1.3643
  135SOL    HW2  405   0.759   1.450   2.576 -0.5985  1.2748 -3.3299
  136SOL     OW  406   1.214   2.044   0.426  0.0309 -0.0366  0.2806
  136SOL    HW1  407   1.153   2.128   0.440  0.3203 -0.7789  1.3021
  136SOL    HW2  408   1.171   1.953   0.465 -0.3028  0.6235  2.2206
  137SOL     OW  409   0.428   1.212   2.198  0.6549 -0.0265  0.3889
  137SOL    HW1  410   0.332   1.177   2.232  1.4465  1.5494 -0.5097
  137SOL    HW2  411   0.504   1.145   2.202 -3.0668  2.3035  2.0993
  138SOL     OW  412   2.512   1.460   0.278 -0.3089  0.2180  0.6506
  138SOL    HW1  413   2.416   1.429   0.260  2.8033 -0.0201 -1.5984
  138SOL    HW2  414   2.579   1.390   0.312 -0.9766  0.7660  1.2654
  139SOL     OW  415   1.879   2.614   1.342  0.1103 -0.0817  0.0508
  139SOL    HW1  416   1.772   2.614   1.335 -0.8788  2.8064  0.9943
  139SOL    HW2  417   1.915   2.517   1.331  2.1290 -0.9536  3.1327
  140SOL     OW  418   3.010   2.966   2.515 -0.3795  0.2363 -0.5319
  140SOL    HW1  419   3.067   2.880   2.531  0.5843  2.5103  0.8288
  140SOL    HW2  420   3.067   3.039   2.463  0.3666 -1.3346  0.5293
  141SOL     OW  421   1.336   1.685   1.587  0.0926  0.1131 -0.1959
  141SOL    HW1  422   1.263   1.746   1.629 -1.6425 -0.2490 -2.2923
  141SOL    HW2  423   1.348   1.596   1.639 -2.3005  1.2804  1.8531
  142SOL     OW  424   1.563   0.610   2.251 -0.5142 -0.2730 -0.0994
  142SOL    HW1  425   1.588   0.577   2.154  1.5828 -0.2799  0.7739
  142SOL    HW2  426   1.462   0.575   2.273 -0.7143 -2.0899 -2.9004
  143SOL     OW  427   2.743   0.914   0.480  1.0234  0.4390 -0.1008
  143SOL    HW1  428   2.798   0.955   0.405 -1.4841 -1.4059  1.8256
  143SOL    HW2  429   2.789   0.917   0.572 -0.3856  2.2710  0.5437
  144SOL     OW  430   2.910   1.190   1.495 -0.8069  0.8116  0.0256
  144SOL    HW1  431   2.844   1.176   1.576 -2.9692  0.5406  1.1547
  144SOL    HW2  432   2.978   1.108   1.488  2.6126  0.4751 -1.0680
  145SOL     OW  433   1.006   1.808   0.161  0.4955 -0.0067 -0.8042
  145SOL    HW1  434   1.093   1.838   0.116  0.3887  0.6894 -1.2550
  145SOL    HW2  435   0.969   1.718   0.123  3.2525 -0.9005 -3.3075
  146SOL     OW  436   2.467   0.650   1.488 -0.7646  0.2997 -0.1844
  146SOL    HW1  437   2.426   0.563   1.439  0.6811  1.1134 -0.6974
  146SOL    HW2  438   2.409   0.736   1.462 -1.3033 -0.8286  1.4812
  147SOL     OW  439   1.096   2.488   0.597 -0.1430  0.3455  0.0677
  147SOL    HW1  440   1.049   2.539   0.516 -0.2442 -0.1890  1.1613
  147SOL    HW2  441   1.197   2.482   0.572 -1.2120  3.5291 -3.5188
  148SOL     OW  442   1.625   1.469   0.018 -0.3584  0.3080  0.4372
  148SOL    HW1  443   1.610   1.383  -0.042 -2.7420 -1.8712  1.3982
  148SOL    HW2  444   1.598   1.448   0.118 -2.4455 -0.2776 -0.0765
  149SOL     OW  445   0.673   1.436   1.962 -0.0955  0.6282 -0.2931
  149SOL    HW1  446   0.570   1.412   1.968 -2.2594  1.4470 -2.6041
  149SOL    HW2  447   0.732   1.369   1.910  0.7145  0.5768 -0.1212
  150SOL     OW  448   3.041   1.249   0.941  0.4947 -0.2418  0.3156
  150SOL    HW1  449   3.123   1.254   1.000  1.6368  1.7799 -3.0039
  150SOL    HW2  450   3.009   1.155   0.929 -0.4098  1.9761 -0.5703
  151SOL     OW  451   0.121   0.718   2.080  0.0828 -0.0134  0.0211
  151SOL    HW1  452   0.103   0.798   2.015 -1.0544 -1.6774 -2.2217
  151SOL    HW2  453   0.179   0.642   2.040  0.2533 -1.5071  1.5194
  152SOL     OW  454   1.468   1.774   1.212  0.0619  0.3110 -0.6025
  152SOL    HW1  455   1.514   1.866   1.216  0.5093  0.7882  0.6591
  152SOL    HW2  456   1.359   1.779   1.215  0.4672  0.4188  1.9642
  153SOL     OW  457   0.117   1.597   0.184 -0.0981  0.1605  0.7890
  153SOL    HW1  458   0.083   1.500   0.181  1.6071 -2.6491  0.7957
  153SOL    HW2  459   0.098   1.646   0.276  2.2428  2.7146  0.9385
  154SOL     OW  460   2.377   1.869   2.824 -0.1568  0.2678  0.3537
  154SOL    HW1  461   2.414   1.777   2.860 -0.5219  0.6291 -0.0436
  154SOL    HW2  462   2.436   1.908   2.739  2.0348  2.1166 -0.4047
  155SOL     OW  463   2.486   1.203   0.359  0.6767  0.0122  0.4622
  155SOL    HW1  464   2.571   1.183   0.301 -1.3180 -1.2927 -1.6459
  155SOL    HW2  465   2.402   1.162   0.317  2.2084 -0.9127 -0.0963
  156SOL     OW  466   2.503   0.920   0.810 -0.6704 -0.7942 -0.4357
  156SOL    HW1  467   2.414   0.928   0.857  1.0239 -0.7441 -1.7195
  156SOL    HW2  468   2.506   0.982   0.725 -3.4563 -1.4583 -0.5188
  157SOL     OW  469   1.221   2.982   2.976 -0.4145  0.6250 -0.4995
  157SOL    HW1  470   1.257   2.935   2.888  1.4721 -1.2012  1.4938
  157SOL    HW2  471   1.280   3.062   3.005  0.8157  3.8829  0.2118
  158SOL     OW  472   0.985   1.853   1.883  0.1707  0.1823  0.1498
  158SOL    HW1  473   1.000   1.948   1.913 -0.5559 -0.9322 -0.6916
  158SOL    HW2  474   0.893   1.816   1.911  0.0617 -2.1864 -0.8144
  159SOL     OW  475   0.903   0.398   1.207  0.0908  0.0522  0.2344
  159SOL    HW1  476   0.845   0.476   1.246 -2.3069 -1.1121 -1.5033
  159SOL    HW2  477   0.841   0.324   1.157 -1.4903 -2.0233  0.1025
  160SOL     OW  478   1.368   2.417   1.599 -0.2750 -0.0677  0.1611
  160SOL    HW1  479   1.314   2.338   1.638 -1.4608 -1.7569  1.0578
  160SOL    HW2  480   1.465   2.393   1.583 -0.8798 -0.8793  2.4542
  161SOL     OW  481   0.015   2.973   0.418 -0.5756 -0.4653  0.7784
  161SOL    HW1  482   0.012   2.876   0.389 -0.6594  2.5613  0.0217
  161SOL    HW2  483  -0.033   3.046   0.359  2.1457 -0.1289 -0.1760
  162SOL     OW  484   2.589   1.868   0.529  0.3144 -0.2636 -0.4705
  162SOL    HW1  485   2.563   1.829   0.436  0.7846  2.8083 -0.4262
  162SOL    HW2  486   2.573   1.800   0.606 -0.7507  3.7082 -0.1763
  163SOL     OW  487   1.930   2.759   0.718 -0.1052 -0.1104  0.4020
  163SOL    HW1  488   1.919   2.765   0.615 -1.5711 -2.4689 -0.8491
  163SOL    HW2  489   1.987   2.676   0.749 -0.7753 -0.7481 -1.1948
  164SOL     OW  490   3.046   0.236   1.244 -0.2661  0.1077 -0.2660
  164SOL    HW1  491   3.089   0.300   1.178  1.0277  0.4085 -1.6552
  164SOL    HW2  492   3.110   0.200   1.314 -0.1023 -0.1799  1.3502
  165SOL     OW  493   0.958   1.364   0.731 -0.1431 -0.1206  0.6791
  165SOL    HW1  494   0.936   1.451   0.791 -0.6789  3.2045  0.1928
  165SOL    HW2  495   0.944   1.392   0.634  0.6275  2.9529  3.1404
  166SOL     OW  496   1.560   1.041   1.761  1.0594 -0.7419  0.2836
  166SOL    HW1  497   1.462   1.038   1.806  1.3262  1.1060  2.0645
  166SOL    HW2  498   1.619   1.125   1.791  0.3260  0.3394  0.6523
  167SOL     OW  499   0.750   2.005   1.462 -0.0010  0.1853 -0.0853
  167SOL    HW1  500   0.761   2.074   1.542  2.5582 -1.1760  4.7559
  167SOL    HW2  501   0.707   1.916   1.490  0.5932 -1.9005 -0.9851
  168SOL     OW  502   1.616   2.360   0.152 -0.4357 -0.3357  0.5061
  168SOL    HW1  503   1.662   2.382   0.056  1.7317 -1.2820 -0.0773
  168SOL    HW2  504   1.680   2.342   0.236  0.7778  0.2653  0.4017
  169SOL     OW  505   0.201   2.577   2.228 -0.6225  0.1798 -0.2693
  169SOL    HW1  506   0.236   2.544   2.131 -1.6839 -1.2985 -0.2082
  169SOL    HW2  507   0.161   2.505   2.294 -0.1902 -0.1296  1.3729
  170SOL     OW  508   1.084   0.234   2.017  0.0576  0.2388 -0.2323
  170SOL    HW1  509   1.151   0.218   2.102  1.6026 -1.3581  2.1294
  170SOL    HW2  510   1.096   0.156   1.948  2.3319  0.8667 -1.2586
  171SOL     OW  511   0.181   0.802   2.348 -0.1142  0.4180  0.1127
  171SOL    HW1  512   0.097   0.842   2.402 -0.1703  2.6164 -0.6541
  171SOL    HW2  513   0.149   0.801   2.250 -1.5489 -1.4716  2.2304
  172SOL     OW  514   0.949   0.996   2.862 -0.0160 -0.3677  0.1427
  172SOL    HW1  515   0.929   1.064   2.933  1.2778 -0.0202 -0.8549
  172SOL    HW2  516   0.924   1.028   2.766 -0.7102  0.1934  0.6081
  173SOL     OW  517   0.605   2.613   0.130 -1.4315 -1.0111 -0.0452
  173SOL    HW1  518   0.580   2.707   0.094  1.9768 -1.5384  0.0683
  173SOL    HW2  519   0.527   2.568   0.180  2.9039 -0.5961 -0.5291
  174SOL     OW  520   1.536   2.793   1.044  0.2339 -0.3187  0.1562
  174SOL    HW1  521   1.531   2.854   0.954  0.2783  1.9870 -2.3165
  174SOL    HW2  522   1.524   2.693   1.034 -0.4966  3.8139 -0.9343
  175SOL     OW  523   0.482   3.040   1.705  0.5728  0.2088  0.7669
  175SOL    HW1  524   0.570   3.022   1.761  2.6470  1.3058  2.5912
  175SOL    HW2  525   0.454   3.140   1.709 -0.4832  0.6905 -0.7234
  176SOL     OW  526   2.562   0.388   0.021 -0.1070  0.2673 -0.1259
  176SOL    HW1  527   2.600   0.487   0.044 -1.5479  0.1869 -1.3550
  176SOL    HW2  528   2.478   0.369   0.076  0.8742  0.7178 -1.9065
  177SOL     OW  529   0.301   0.354   0.932  0.0208  0.3566 -0.3833
  177SOL    HW1  530   0.277   0.255   0.903 -2.4740  0.6952  1.4377
  177SOL    HW2  531   0.286   0.373   1.034 -1.8611  1.1809 -0.3655
  178SOL     OW  532   0.058   2.751   2.569  0.6466 -0.2077 -0.1994
  178SOL    HW1  533  -0.004   2.667   2.578  0.6648  1.7340  2.3600
  178SOL    HW2  534   0.122   2.761   2.650  1.3694  1.6793 -0.7196
  179SOL     OW  535   3.065   1.579   1.141 -0.3051  0.5450 -0.2159
  179SOL    HW1  536   2.999   1.534   1.072  1.5603 -1.8490  0.4328
  179SOL    HW2  537   3.055   1.534   1.236  0.1365 -2.8960  2.1192
  180SOL     OW  538   0.200   1.261   1.841  0.1500  0.3477 -0.2860
  180SOL    HW1  539   0.289   1.222   1.881 -3.9353 -0.5253 -1.2595
  180SOL    HW2  540   0.160   1.339   1.899 -1.0317  1.1098 -1.5724
  181SOL     OW  541   3.081   1.887   2.471  0.8761  0.0585 -0.1730
  181SOL    HW1  542   3.124   1.978   2.467  2.4819 -1.5008 -2.1947
  181SOL    HW2  543   2.995   1.888   2.408 -0.6567  2.7588 -0.5816
  182SOL     OW  544   2.324   1.247   1.162  0.2279 -0.2556  0.6896
  182SOL    HW1  545   2.256   1.186   1.125  1.0989 -2.5281  1.7847
  182SOL    HW2  546   2.310   1.348   1.152 -0.8397 -0.0741 -0.2782
  183SOL     OW  547   1.449   2.261   2.566 -0.0023 -0.0918 -0.7849
  183SOL    HW1  548   1.355   2.214   2.569  1.6128 -2.8959 -0.4965
  183SOL    HW2  549   1.524   2.198   2.573 -1.4993  0.4228  1.3563
  184SOL     OW  550   2.030   0.913   0.698  0.0632  0.3859 -0.7533
  184SOL    HW1  551   1.930   0.959   0.687 -0.7398 -2.5928 -2.1140
  184SOL    HW2  552   2.029   0.821   0.752  0.9309  1.1372  0.5200
  185SOL     OW  553   1.618   2.786   1.959 -0.5695 -0.3311  0.2567
  185SOL    HW1  554   1.559   2.870   1.941  0.4378 -1.2477 -1.9174
  185SOL    HW2  555   1.646   2.778   2.057 -0.5388  0.8947 -0.3542
  186SOL     OW  556   0.137   2.257   1.642  0.7172 -0.0668  0.2238
  186SOL    HW1  557   0.101   2.276   1.736 -1.2290  0.1047 -0.0996
  186SOL    HW2  558   0.223   2.193   1.651 -1.0329 -1.4247  1.7461
  187SOL     OW  559   1.348   0.686   1.655  0.5534 -0.3897  0.1403
  187SOL    HW1  560   1.424   0.747   1.623 -2.1152 -0.4699 -0.9692
  187SOL    HW2  561   1.370   0.597   1.705 -0.5870 -0.3752 -1.7580
  188SOL     OW  562   2.781   2.759   1.444  0.3525 -0.1996  0.2060
  188SOL    HW1  563   2.745   2.853   1.446  0.7096  0.1729  1.3220
  188SOL    HW2  564   2.719   2.695   1.386  2.5938 -0.6603 -0.2265
  189SOL     OW  565   0.943   1.191   1.452 -0.2358 -0.1089  0.3995
  189SOL    HW1  566   1.026   1.235   1.504  1.8209  0.7095  0.8960
  189SOL    HW2  567   0.872   1.260   1.410 -2.5670  2.3406  0.0349
  190SOL     OW  568   1.433   1.949   1.634  0.2113  0.3001 -0.1534
  190SOL    HW1  569   1.428   1.846   1.633  0.9337  0.7101  1.3909
  190SOL    HW2  570   1.501   1.988   1.705 -2.7699 -4.1128  2.1538
  191SOL     OW  571   0.929   0.711   1.540 -0.4390  0.4661 -0.5909
  191SOL    HW1  572   1.012   0.661   1.574  0.1989 -0.0852 -1.4017
  191SOL    HW2  573   0.962   0.794   1.486  0.4602  0.2706 -0.9968
  192SOL     OW  574   1.856   2.318   1.070  0.3137  0.2944  0.2544
  192SOL    HW1  575   1.768   2.311   1.016 -2.2939  1.4433 -0.1672
  192SOL    HW2  576   1.939   2.336   1.008  0.9781 -0.8932 -0.9262
  193SOL     OW  577   0.533   0.575   0.448 -0.3426 -0.4092 -0.2138
  193SOL    HW1  578   0.488   0.498   0.491  0.4204  3.6041 -0.0230
  193SOL    HW2  579   0.583   0.559   0.357 -0.6253 -1.8858 -0.3448
  194SOL     OW  580   0.354   0.886   1.299  0.3806 -0.2645 -0.3630
  194SOL    HW1  581   0.262   0.840   1.314  2.3442  0.6836  1.2861
  194SOL    HW2  582   0.370   0.919   1.203  1.6757 -4.0295 -0.2744
  195SOL     OW  583   1.031   2.933   0.513  0.6838  0.0028 -0.4140
  195SOL    HW1  584   1.013   2.833   0.482 -4.9424 -0.4777  2.1156
  195SOL    HW2  585   1.126   2.968   0.489 -0.3102  0.6395  0.8331
  196SOL     OW  586   0.175   1.366   1.392  0.6754  0.4077  0.1674
  196SOL    HW1  587   0.219   1.460   1.415  0.4094  1.2545  1.7227
  196SOL    HW2  588   0.184   1.297   1.469 -0.3657 -0.2735  1.5471
  197SOL     OW  589   0.844   2.056   0.258 -0.3015 -0.3391 -0.5771
  197SOL    HW1  590   0.831   2.051   0.362  0.8183 -0.0968  1.7692
  197SOL    HW2  591   0.898   1.981   0.211 -0.1235  0.5919 -0.8495
  198SOL     OW  592   0.273   1.254   0.304  0.3809  0.0714  0.6939
  198SOL    HW1  593   0.185   1.280   0.262  1.7006 -3.5575  0.9222
  198SOL    HW2  594   0.332   1.334   0.339 -2.2509 -0.3601 -2.1848
  199SOL     OW  595   2.323   0.373   2.509  0.2019  0.3543  0.2094
  199SOL    HW1  596   2.248   0.360   2.576  0.5776 -1.3425 -0.4612
  199SOL    HW2  597   2.420   0.384   2.552  3.6679 -0.6123  3.3309
  200SOL     OW  598   0.001   2.946   0.731 -0.1493 -0.2937  0.3152
  200SOL    HW1  599  -0.068   2.992   0.669 -1.8854  1.0503  0.8851
  200SOL    HW2  600   0.085   2.927   0.674  0.8216 -0.1867  0.8669
  201SOL     OW  601   1.055   0.722   0.553 -0.1663 -0.0278 -0.1888
  201SOL    HW1  602   1.065   0.786   0.640  0.2012 -0.5424 -0.2760
  201SOL    HW2  603   0.972   0.654   0.552  0.4374 -4.0328  0.0375
  202SOL     OW  604   0.396   1.096   1.926  0.0557  0.8552  0.6646
  202SOL    HW1  605   0.473   1.054   1.874  0.3626 -1.8850 -1.2867
  202SOL    HW2  606   0.397   1.098   2.026 -0.3703  0.0287  0.7121
  203SOL     OW  607   0.653   0.216   1.473 -0.4071 -0.7019 -0.3097
  203SOL    HW1  608   0.707   0.156   1.409 -0.0598 -0.0131 -1.0293
  203SOL    HW2  609   0.673   0.200   1.571  1.8248  0.8312 -1.2055
  204SOL     OW  610   2.117   1.810   2.892  0.2384 -0.0983  0.1325
  204SOL    HW1  611   2.088   1.705   2.888 -0.4090 -2.5804  1.3182
  204SOL    HW2  612   2.216   1.818   2.864 -0.2050 -0.9503 -0.9515
  205SOL     OW  613   1.857   1.842   3.020  0.0166 -0.4860  0.1385
  205SOL    HW1  614   1.957   1.853   2.991 -0.2275  0.3354 -1.2922
  205SOL    HW2  615   1.812   1.936   3.022  1.8103 -2.0084 -1.3439
  206SOL     OW  616   2.470   2.807   0.341 -0.7877 -0.1632  0.2188
  206SOL    HW1  617   2.528   2.736   0.393  0.3792 -0.1861  0.1560
  206SOL    HW2  618   2.532   2.870   0.286 -0.1543  1.7218 -1.3771
  207SOL     OW  619   0.701   1.821   2.987 -0.0029 -0.1553 -0.4537
  207SOL    HW1  620   0.760   1.767   2.923  0.7397 -0.0170 -2.2082
  207SOL    HW2  621   0.651   1.761   3.054  0.7719 -0.0454  0.6668
  208SOL     OW  622   1.141   1.566   1.393  0.6508  0.0820  0.0904
  208SOL    HW1  623   1.061   1.626   1.367 -0.9349  0.9174  1.5912
  208SOL    HW2  624   1.193   1.604   1.470  0.1052 -2.1973  0.5907
  209SOL     OW  625   0.253   0.941   3.046  0.0147 -0.2125 -0.0667
  209SOL    HW1  626   0.221   0.859   2.992  0.0794  1.8112  1.0447
  209SOL    HW2  627   0.243   0.926   3.147  0.9099 -1.0502 -2.2532
  210SOL     OW  628   1.735   0.481   1.173 -0.8233 -0.1769 -0.1763
  210SOL    HW1  629   1.686   0.572   1.156 -1.5384  0.3160 -1.8119
  210SOL    HW2  630   1.844   0.490   1.171  1.3272 -1.6949 -0.9381
  211SOL     OW  631   2.105   1.052   1.592  0.4244 -0.2649 -0.0360
  211SOL    HW1  632   2.144   1.017   1.682  0.0534  2.1716  0.7943
  211SOL    HW2  633   2.165   1.119   1.542 -1.0232 -1.8370  2.3440
  212SOL     OW  634  -0.004   0.986   1.502  0.6346 -0.2993  0.1772
  212SOL    HW1  635   0.084   1.041   1.510  1.4946 -0.4674 -0.1783
  212SOL    HW2  636  -0.021   0.928   1.586 -1.3038 -0.2858 -0.0637
  213SOL     OW  637   2.810   0.191   0.407 -0.0871 -0.1022  0.7073
  213SOL    HW1  638   2.854   0.110   0.356 -1.2043  0.3310 -1.0039
  213SOL    HW2  639   2.797   0.257   0.334  0.1255 -2.1143  3.2781
  214SOL     OW  640   2.154   0.256   2.301 -0.1004  0.8040  0.6445
  214SOL    HW1  641   2.218   0.307   2.368  0.5922  1.5614  0.0635
  214SOL    HW2  642   2.143   0.150   2.316  0.9167  0.7995 -0.2872
  215SOL     OW  643   1.571   2.299   2.102  0.2102 -0.0894 -0.5851
  215SOL    HW1  644   1.671   2.293   2.075 -2.0194  2.6337  0.5694
  215SOL    HW2  645   1.539   2.392   2.138 -1.5093 -0.4482  0.1009
  216SOL     OW  646   2.172   0.622   0.688  0.4001 -0.3314 -0.1804
  216SOL    HW1  647   2.170   0.523   0.663  2.1858 -1.2090  1.5131
  216SOL    HW2  648   2.139   0.685   0.612 -0.3379  1.8809 -2.2245
  217SOL     OW  649   0.750   2.775   2.425 -0.1240  0.1634  0.2539
  217SOL    HW1  650   0.741   2.682   2.471 -2.4246  0.1013 -2.2847
  217SOL    HW2  651   0.762   2.762   2.319  1.2536  1.2396  0.1577
  218SOL     OW  652   1.899   1.409   0.025  0.3835 -0.0601  0.1452
  218SOL    HW1  653   1.797   1.422   0.018 -2.9199  1.1354 -0.0288
  218SOL    HW2  654   1.918   1.330   0.087  0.0085  0.3096  1.9863
  219SOL     OW  655   2.438   1.308   2.495 -0.2879  0.2804  0.0607
  219SOL    HW1  656   2.459   1.261   2.403  1.7260  0.0612 -0.0114
  219SOL    HW2  657   2.442   1.239   2.574  1.2173  1.9450  0.6655
  220SOL     OW  658   1.470   1.048   1.282 -0.2461  0.3460  0.8140
  220SOL    HW1  659   1.569   1.045   1.311 -0.9822 -3.0511  2.0530
  220SOL    HW2  660   1.458   1.087   1.188 -0.8385  0.9135  0.2477
  221SOL     OW  661   1.285   0.991   2.166  0.0051  0.0468 -0.4218
  221SOL    HW1  662   1.237   1.025   2.080 -0.5545 -2.8260 -0.1465
  221SOL    HW2  663   1.386   0.966   2.158  1.4964  2.6050  2.2342
  222SOL     OW  664   1.105   0.050   1.201  0.0551  0.5036  0.1971
  222SOL    HW1  665   1.161   0.075   1.285  2.0689  1.2923  1.7555
  222SOL    HW2  666   1.122   0.114   1.125  1.4963  1.9283 -0.4542
  223SOL     OW  667   2.733   0.960   2.148 -0.2321  0.4337  0.9303
  223SOL    HW1  668   2.699   1.033   2.210 -2.2583 -2.6506  1.0149
  223SOL    HW2  669   2.831   0.928   2.168  1.1340  0.6354 -0.3783
  224SOL     OW  670   1.503   1.082   2.744 -0.1432  0.0346 -0.4549
  224SOL    HW1  671   1.571   1.019   2.684  3.6396 -1.6545 -1.5711
  224SOL    HW2  672   1.438   1.131   2.681  2.2763 -0.0169 -1.2082
  225SOL     OW  673   2.934   2.793   2.891  0.1772  0.5539  0.1271
  225SOL    HW1  674   2.848   2.748   2.849 -0.4893  0.1855  1.3708
  225SOL    HW2  675   2.995   2.822   2.814 -2.6831 -3.0255  0.7969
  226SOL     OW  676   2.472   1.605   2.894 -0.4046  0.7454 -0.5529
  226SOL    HW1  677   2.498   1.575   2.799 -2.8264  0.5765  2.1509
  226SOL    HW2  678   2.405   1.545   2.943 -1.3418 -1.8114  0.9870
  227SOL     OW  679   0.870   0.121   0.051 -0.1564 -0.0833  0.5024
  227SOL    HW1  680   0.954   0.176   0.042 -1.1719  0.8622 -0.3200
  227SOL    HW2  681   0.815   0.103  -0.032 -0.7717  0.6459  1.0009
  228SOL     OW  682   2.428   0.607   2.833  0.1538  0.0830 -0.0868
  228SOL    HW1  683   2.446   0.698   2.788  0.5909 -1.8030 -0.5122
  228SOL    HW2  684   2.508   0.548   2.832 -2.7546  0.1351 -2.5619
  229SOL     OW  685   0.555   0.464   1.868  0.0463 -0.3276 -0.6183
  229SOL    HW1  686   0.540   0.361   1.873 -2.7817 -3.1376  1.4689
  229SOL    HW2  687   0.614   0.500   1.788  0.4892  3.9855 -0.3864
  230SOL     OW  688   1.879   1.145   2.093  0.6730 -0.0861  0.0394
  230SOL    HW1  689   1.958   1.186   2.038  1.2923 -0.6505  1.2385
  230SOL    HW2  690   1.806   1.211   2.117  1.8946  0.4468  0.8026
  231SOL     OW  691   0.627   1.017   0.048  0.0996  0.1403  0.3878
  231SOL    HW1  692   0.728   1.033   0.021  0.7708 -0.6743 -0.7295
  231SOL    HW2  693   0.580   1.101   0.082  1.4098 -1.5855 -0.7992
  232SOL     OW  694   2.409   3.091   2.831  0.3138 -0.2872 -0.0228
  232SOL    HW1  695   2.449   3.000   2.858  1.9270 -0.2950 -0.8430
  232SOL    HW2  696   2.437   3.124   2.734  2.1480  1.0136  0.6089
  233SOL     OW  697   1.683   1.238   1.117 -0.6448 -0.0930 -0.2130
  233SOL    HW1  698   1.720   1.227   1.018  2.5128 -1.9804  0.7169
  233SOL    HW2  699   1.709   1.161   1.184 -1.3767  0.3071  3.9624
  234SOL     OW  700   1.554   2.532   1.868 -0.0860 -0.1191  0.1245
  234SOL    HW1  701   1.593   2.619   1.899 -1.4694 -1.1614 -0.9817
  234SOL    HW2  702   1.586   2.450   1.924  4.2692  0.6783  0.7205
  235SOL     OW  703   0.027   3.036   2.815  0.1480  0.3758 -0.1156
  235SOL    HW1  704  -0.027   3.023   2.725  1.5473  0.6757 -2.3931
  235SOL    HW2  705  -0.040   3.048   2.893  1.5087 -0.3758 -0.0340
  236SOL     OW  706   2.876   0.740   0.093 -0.9479 -0.2568  0.1676
  236SOL    HW1  707   2.950   0.777   0.159  0.4069 -0.9855 -1.4049
  236SOL    HW2  708   2.910   0.659   0.039 -1.3891  1.3854 -0.9652
  237SOL     OW  709   1.555   1.664   0.981  0.1332 -0.0207 -0.5925
  237SOL    HW1  710   1.657   1.653   0.956  2.5135 -0.3809 -0.5635
  237SOL    HW2  711   1.546   1.691   1.083  0.2399 -0.0190 -2.5372
  238SOL     OW  712   1.787   1.274   0.837  0.0578 -0.2108  0.4034
  238SOL    HW1  713   1.851   1.340   0.885  0.4190  0.1175  0.1619
  238SOL    HW2  714   1.708   1.327   0.788  0.0078  3.1354 -2.9729
  239SOL     OW  715   2.098   0.301   2.680  0.1070  0.5599  0.5199
  239SOL    HW1  716   2.141   0.259   2.767 -0.3506  0.1230  1.0968
  239SOL    HW2  717   2.008   0.346   2.703 -1.2987 -1.0696 -1.5202
  240SOL     OW  718   0.937   0.650   0.279 -0.0519  0.6457 -0.3296
  240SOL    HW1  719   0.977   0.554   0.253  1.5358 -0.0765  0.2492
  240SOL    HW2  720   0.916   0.647   0.382  0.7421  0.0426  0.7928
  241SOL     OW  721   0.586   0.018   0.390  0.2657 -0.2371 -0.3420
  241SOL    HW1  722   0.619   0.097   0.338 -1.4403 -3.4190  2.4940
  241SOL    HW2  723   0.596  -0.066   0.330  0.8917 -1.8763 -0.3972
  242SOL     OW  724   0.610   2.515   1.160 -0.3134 -0.0790 -0.2816
  242SOL    HW1  725   0.581   2.522   1.261 -1.1698 -0.3582  0.6194
  242SOL    HW2  726   0.641   2.610   1.131  0.4567  1.0532  0.5530
  243SOL     OW  727   1.100   0.648   2.473  0.2018 -0.1056  0.7407
  243SOL    HW1  728   1.005   0.666   2.434 -2.0250  1.4268  2.0050
  243SOL    HW2  729   1.096   0.574   2.543 -4.1557  0.9863 -0.9456
  244SOL     OW  730   2.847   1.897   2.331  0.3397  0.4272  0.3184
  244SOL    HW1  731   2.873   1.861   2.234 -3.0421  0.5994  3.7924
  244SOL    HW2  732   2.750   1.869   2.352  1.5981 -0.1562  0.2596
  245SOL     OW  733   2.308   0.785   2.170 -0.0894  0.9983 -0.6876
  245SOL    HW1  734   2.402   0.827   2.204  0.7455  0.6354  0.6526
  245SOL    HW2  735   2.243   0.762   2.248 -0.2596 -2.0596  2.6039
  246SOL     OW  736   0.232   2.908   1.742  0.2287  0.2119  0.0774
  246SOL    HW1  737   0.165   2.899   1.659 -0.9808 -0.3760 -0.1815
  246SOL    HW2  738   0.327   2.953   1.724 -1.0492  0.3311  2.3296
  247SOL     OW  739   2.252   0.618   3.049 -0.3851 -0.0319 -0.1861
  247SOL    HW1  740   2.340   0.616   2.995 -1.2100  1.6911 -0.7705
  247SOL    HW2  741   2.204   0.704   3.022 -2.1154  0.0366  1.0851
  248SOL     OW  742   2.155   1.826   1.578  0.1931 -0.2088  0.2747
  248SOL    HW1  743   2.229   1.774   1.621 -0.6352  1.8859 -1.1967
  248SOL    HW2  744   2.064   1.826   1.628 -1.8085  1.5730  1.4906
  249SOL     OW  745   1.853   1.948   1.925  0.0478 -0.1510 -0.5243
  249SOL    HW1  746   1.871   1.909   1.832 -0.3286  0.7749 -0.6907
  249SOL    HW2  747   1.947   1.952   1.975 -0.3187 -3.4945 -0.0906
  250SOL     OW  748   1.107   0.690   1.887 -0.1765 -0.0432 -0.2065
  250SOL    HW1  749   1.154   0.621   1.950 -1.1782 -2.0254 -1.4071
  250SOL    HW2  750   1.056   0.641   1.809 -1.3021  0.9525 -0.3126
  251SOL     OW  751   0.061   1.593   2.485 -0.1646  0.7133  0.3921
  251SOL    HW1  752   0.043   1.688   2.446 -0.0005 -2.0876 -1.4048
  251SOL    HW2  753  -0.022   1.539   2.515  2.7976  0.5690  1.3912
  252SOL     OW  754   1.567   0.850   1.573  0.9215  0.2935  0.0773
  252SOL    HW1  755   1.662   0.816   1.565 -0.4714  0.6155  0.2526
  252SOL    HW2  756   1.554   0.920   1.644  0.4763 -4.1848 -1.9103
  253SOL     OW  757   0.978   1.541   0.522  1.3218 -0.8695 -0.9974
  253SOL    HW1  758   0.973   1.483   0.438 -0.4564 -1.0433  1.0567
  253SOL    HW2  759   0.888   1.596   0.540 -2.4630  1.3579 -0.1201
  254SOL     OW  760   2.057   2.170   1.645  0.0068 -0.7536 -0.5656
  254SOL    HW1  761   2.015   2.104   1.575  0.3226 -1.4466  0.6218
  254SOL    HW2  762   1.979   2.217   1.698  2.5355  0.1197  0.2047
  255SOL     OW  763   0.125   1.127   2.882 -0.5195 -0.1072  0.1398
  255SOL    HW1  764   0.167   1.217   2.892  0.5613 -2.7853  1.0300
  255SOL    HW2  765   0.155   1.049   2.940  0.4645  0.3063 -0.2032
  256SOL     OW  766   2.772   1.394   1.783  0.2317  0.6203 -0.1091
  256SOL    HW1  767   2.670   1.396   1.757  0.7433  0.2861  0.7129
  256SOL    HW2  768   2.807   1.299   1.768 -0.5350  2.6595  0.6893
  257SOL     OW  769   0.769   0.161   1.764 -0.4466 -0.3648  0.0388
  257SOL    HW1  770   0.845   0.216   1.722  1.6777 -0.8861  0.4709
  257SOL    HW2  771   0.806   0.067   1.792  0.7458 -3.4181 -1.5820
  258SOL     OW  772   3.004   1.232   0.438  0.6942 -0.1597 -0.4053
  258SOL    HW1  773   2.921   1.294   0.443  2.7944 -0.0549  0.2323
  258SOL    HW2  774   3.063   1.255   0.522 -0.2975  3.5812  1.5681
  259SOL     OW  775   0.452   2.930   3.048  0.0903 -0.3405  0.5634
  259SOL    HW1  776   0.381   2.872   3.105 -1.0925 -0.3691  0.1613
  259SOL    HW2  777   0.459   2.895   2.953 -0.5467 -1.1644 -3.3284
  260SOL     OW  778   2.732   0.825   2.803  0.6852 -0.4517  0.3499
  260SOL    HW1  779   2.636   0.814   2.766  3.1588  1.7118 -4.3586
  260SOL    HW2  780   2.742   0.849   2.905  2.5918 -1.7406 -1.7925
  261SOL     OW  781   2.749   1.364   1.256 -0.6918  0.3174  0.1470
  261SOL    HW1  782   2.726   1.303   1.174 -0.0270 -0.3664 -0.9142
  261SOL    HW2  783   2.852   1.367   1.270  2.9691  0.5894 -0.7009
  262SOL     OW  784   1.400   2.976   2.000 -0.6309 -0.1126 -0.5230
  262SOL    HW1  785   1.450   3.049   1.943 -0.3787 -2.1886 -4.1974
  262SOL    HW2  786   1.324   2.939   1.939  1.5244 -1.8927 -1.5738
  263SOL     OW  787   0.847   0.694   2.367 -0.1240  0.1173 -0.4165
  263SOL    HW1  788   0.781   0.622   2.329  1.3149  0.9570  1.3919
  263SOL    HW2  789   0.879   0.752   2.285  0.7191 -0.7937  1.2973
  264SOL     OW  790   2.200   0.831   0.462  0.0469  0.1686  0.3830
  264SOL    HW1  791   2.248   0.772   0.393 -1.0148 -1.2191  1.4207
  264SOL    HW2  792   2.248   0.923   0.479 -5.0293  1.0236  2.7771
  265SOL     OW  793   0.954   2.412   2.599  0.1188  0.2105 -0.6234
  265SOL    HW1  794   0.993   2.445   2.685 -1.2679  2.2900 -1.1366
  265SOL    HW2  795   0.925   2.315   2.603  1.1266  1.9976 -0.1289
  266SOL     OW  796   1.299   1.744   0.017 -0.0867  0.2424 -0.0018
  266SOL    HW1  797   1.286   1.827   0.082  2.1206 -0.2494 -2.2782
  266SOL    HW2  798   1.395   1.734  -0.020 -2.8035  0.3967 -1.9128
  267SOL     OW  799   1.021   3.089   2.348 -0.1612  0.4934 -0.5617
  267SOL    HW1  800   0.990   3.020   2.271 -0.6612 -1.0753 -1.7425
  267SOL    HW2  801   0.955   3.169   2.352 -0.7401  1.3847 -0.6229
  268SOL     OW  802   0.599   1.189   1.026  0.0897 -0.7292 -0.1350
  268SOL    HW1  803   0.658   1.244   1.097  0.7623  2.9096  1.5750
  268SOL    HW2  804   0.617   1.230   0.934  0.5028  1.3144  3.6502
  269SOL     OW  805   2.342   2.555   1.598 -0.4858 -0.0618  0.1768
  269SOL    HW1  806   2.395   2.466   1.618  1.5243  2.2049 -0.7731
  269SOL    HW2  807   2.325   2.604   1.690  0.4857 -0.8894 -0.6321
  270SOL     OW  808   0.179   2.920   2.008 -0.2318 -0.0628 -0.1756
  270SOL    HW1  809   0.172   2.919   1.904  0.7460 -0.0867  1.6168
  270SOL    HW2  810   0.111   2.861   2.056  0.3529  1.1953 -0.8397
  271SOL     OW  811   0.411   1.408   1.190 -0.2124  0.7559 -0.2521
  271SOL    HW1  812   0.377   1.381   1.094 -0.6458 -0.5648  2.4491
  271SOL    HW2  813   0.344   1.395   1.267  1.3714  0.6035 -0.2796
  272SOL     OW  814   1.999   2.884   1.948 -0.1227  0.0580 -0.1340
  272SOL    HW1  815   1.913   2.844   1.893 -4.5866  1.4156 -3.0827
  272SOL    HW2  816   2.064   2.942   1.890 -2.7036 -0.1239  2.9886
  273SOL     OW  817   1.495   1.411   2.715  0.1441 -0.1277 -0.0336
  273SOL    HW1  818   1.401   1.451   2.741 -1.6960 -0.1195  1.3365
  273SOL    HW2  819   1.549   1.372   2.795 -0.0807 -1.0403  1.3994
  274SOL     OW  820   1.184   0.490   2.071 -0.2944 -0.1962  0.3660
  274SOL    HW1  821   1.141   0.398   2.042 -1.1931  0.9901 -2.2079
  274SOL    HW2  822   1.221   0.498   2.167  2.1222 -0.8237  0.7401
  275SOL     OW  823   0.619   2.079   1.889  0.1699 -0.1002 -0.0030
  275SOL    HW1  824   0.589   2.165   1.931 -0.5082  0.3513 -0.3298
  275SOL    HW2  825   0.540   2.012   1.877  1.4344 -3.3880 -3.5987
  276SOL     OW  826   2.196   0.980   2.739  0.1107  0.5379 -0.3984
  276SOL    HW1  827   2.105   0.973   2.683 -0.5333  1.9537 -0.9010
  276SOL    HW2  828   2.196   0.913   2.814  1.0354  1.5327 -1.6518
  277SOL     OW  829   3.087   0.867   0.224  0.0955 -0.9943 -0.1349
  277SOL    HW1  830   3.177   0.919   0.212 -0.6196 -0.1570  2.7892
  277SOL    HW2  831   3.095   0.799   0.306 -0.8896  0.1645  0.4624
  278SOL     OW  832   0.257   0.276   3.053 -0.0135  0.5889 -0.6481
  278SOL    HW1  833   0.323   0.203   3.019  1.5041 -0.3267  1.0750
  278SOL    HW2  834   0.312   0.342   3.115  1.3669 -1.2864  0.1542
  279SOL     OW  835   0.192   0.069   0.872 -0.1776  0.4181 -0.2526
  279SOL    HW1  836   0.176  -0.024   0.917 -3.7478  0.2362  0.7889
  279SOL    HW2  837   0.219   0.059   0.771 -3.1970  0.1222 -0.8105
  280SOL     OW  838   1.602   2.930   2.412  0.0639 -0.7189 -0.5625
  280SOL    HW1  839   1.639   2.986   2.493 -1.9709 -3.1260  1.6963
  280SOL    HW2  840   1.525   2.989   2.366  0.1207  0.3078  0.5533
  281SOL     OW  841   0.556   0.975   2.224 -0.5772 -0.3946  0.5775
  281SOL    HW1  842   0.566   0.888   2.166  0.4458 -2.0018 -0.0507
  281SOL    HW2  843   0.497   0.959   2.309  0.9568 -3.4938 -0.7813
  282SOL     OW  844   1.772   2.495   0.515  0.1947  0.2410 -0.1769
  282SOL    HW1  845   1.727   2.430   0.450  0.0065  0.4265  0.6711
  282SOL    HW2  846   1.719   2.582   0.531 -0.5712 -1.6037  0.9750
  283SOL     OW  847   1.185   0.930   0.839  0.7096  0.2452  0.3373
  283SOL    HW1  848   1.169   0.865   0.916  3.4859  0.4920 -2.8100
  283SOL    HW2  849   1.133   1.018   0.860 -2.0188 -3.5596 -2.8168
  284SOL     OW  850   2.287   2.790   2.537 -0.4042  0.4550 -0.2272
  284SOL    HW1  851   2.390   2.773   2.542  1.7736 -0.1791  2.3527
  284SOL    HW2  852   2.257   2.834   2.623  0.3406 -3.3539 -2.9524
  285SOL     OW  853   1.329   3.033   2.569 -0.1876 -0.2042  0.0017
  285SOL    HW1  854   1.342   3.031   2.465  2.2153 -1.3928 -0.8041
  285SOL    HW2  855   1.232   3.046   2.604  4.1424 -1.1881 -0.2027
  286SOL     OW  856   0.460   0.439   0.721 -0.1432 -0.4561  0.2558
  286SOL    HW1  857   0.398   0.408   0.802  0.3381 -1.9293  1.7851
  286SOL    HW2  858   0.443   0.379   0.640 -2.0137 -0.6190 -2.3341
  287SOL     OW  859   0.102   1.294   2.495  0.1548  0.4911  0.2408
  287SOL    HW1  860   0.022   1.239   2.544 -3.9537 -3.1590 -1.1490
  287SOL    HW2  861   0.081   1.394   2.515 -0.1823 -3.2816 -1.1579
  288SOL     OW  862   1.615   2.638   1.621  0.2480  0.1097  0.3474
  288SOL    HW1  863   1.585   2.607   1.713 -0.2467 -2.0380 -0.0025
  288SOL    HW2  864   1.639   2.567   1.548  1.2570  5.0845  1.2146
  289SOL     OW  865   0.638   2.721   0.907 -0.4102  0.0861 -0.1460
  289SOL    HW1  866   0.684   2.763   0.823  0.9346  0.4372  0.9973
  289SOL    HW2  867   0.610   2.793   0.977  0.6587  1.2313 -0.5823
  290SOL     OW  868   2.817   1.106   1.727 -0.0956 -0.1348  0.8198
  290SOL    HW1  869   2.726   1.060   1.745  1.4154  2.8203 -0.4666
  290SOL    HW2  870   2.894   1.095   1.798  0.8553  0.5181  0.1498
  291SOL     OW  871   2.001   0.033   0.029 -0.0512 -0.1520 -0.2571
  291SOL    HW1  872   1.982   0.074   0.122  0.0291 -2.6220 -1.0447
  291SOL    HW2  873   2.042   0.093  -0.036  1.0821 -4.0878 -0.9208
  292SOL     OW  874   2.987   1.161   3.082  0.2181  0.6182  0.8099
  292SOL    HW1  875   2.926   1.226   3.022  0.4486 -2.2138  0.0771
  292SOL    HW2  876   3.076   1.137   3.032 -1.9724 -0.1166  0.7133
  293SOL     OW  877   0.543   2.141   0.217  0.2077 -0.1367  0.1427
  293SOL    HW1  878   0.494   2.213   0.279 -1.9125 -2.7910  1.7476
  293SOL    HW2  879   0.632   2.107   0.247 -4.4403 -2.0591  1.6917
  294SOL     OW  880   1.836   2.274   1.774 -0.2852  0.7249 -0.0574
  294SOL    HW1  881   1.834   2.317   1.867  0.8335 -1.1391  1.0462
  294SOL    HW2  882   1.796   2.337   1.699  0.6016 -1.6723 -1.5264
  295SOL     OW  883   0.987   1.071   0.430 -0.0058  0.1792 -0.5873
  295SOL    HW1  884   1.076   1.058   0.471 -3.7839  1.4444 -3.9240
  295SOL    HW2  885   0.908   1.079   0.497 -0.5975 -0.2827 -0.0184
  296SOL     OW  886   1.162   2.123   2.576 -0.2587  0.2131  0.2678
  296SOL    HW1  887   1.064   2.159   2.574 -2.5848  1.1303  1.7243
  296SOL    HW2  888   1.181   2.036   2.528  1.4085  1.2894  3.7603
  297SOL     OW  889   1.407   0.615   1.351 -0.1891  0.1313  0.3255
  297SOL    HW1  890   1.389   0.521   1.382 -0.3680 -0.0672  1.2327
  297SOL    HW2  891   1.506   0.643   1.377 -1.1291  2.1435 -2.7489
  298SOL     OW  892   0.518   1.316   3.001 -0.2013  0.0932 -0.1671
  298SOL    HW1  893   0.470   1.262   3.082  1.6654  2.5981 -0.1805
  298SOL    HW2  894   0.541   1.258   2.922 -2.5904  0.2866 -2.1846
  299SOL     OW  895   0.467   0.286   1.240 -0.3023  0.6070 -0.6461
  299SOL    HW1  896   0.426   0.379   1.256  3.7528 -1.1421  0.6920
  299SOL    HW2  897   0.547   0.270   1.298 -0.3165 -0.9711 -1.3744
  300SOL     OW  898   1.231   1.777   2.711  0.8120 -0.5212 -0.3700
  300SOL    HW1  899   1.225   1.678   2.716  0.6313  0.5227 -1.9041
  300SOL    HW2  900   1.331   1.806   2.726 -0.6698  0.4705  0.2010
  301SOL     OW  901   0.423   0.283   0.481 -0.4937 -0.1295 -0.3598
  301SOL    HW1  902   0.321   0.272   0.493  0.4469 -0.9031  0.6822
  301SOL    HW2  903   0.483   0.199   0.467  0.4250  1.0189  2.0064
  302SOL     OW  904   1.276   2.426   2.353 -0.1828 -0.6696  0.7527
  302SOL    HW1  905   1.192   2.481   2.392 -0.1719 -0.3649 -0.7480
  302SOL    HW2  906   1.277   2.330   2.379 -2.0173 -1.1374  0.7386
  303SOL     OW  907   0.940   2.398   0.799  0.0634 -0.3114 -0.0611
  303SOL    HW1  908   1.014   2.425   0.730  0.8188 -0.3119 -0.4709
  303SOL    HW2  909   0.959   2.448   0.890 -0.9378  0.0284 -1.5968
  304SOL     OW  910   0.061   1.942   0.651  0.6098  0.1288  0.1197
  304SOL    HW1  911   0.122   1.944   0.568  0.8445  0.2546  3.1311
  304SOL    HW2  912  -0.017   2.011   0.636 -0.3054 -1.3822  1.2544
  305SOL     OW  913   1.570   0.856   0.608 -0.0371 -0.9137  0.7894
  305SOL    HW1  914   1.511   0.866   0.521  1.0242  0.5328 -1.5276
  305SOL    HW2  915   1.603   0.762   0.626  1.0546 -0.7865  1.6777
  306SOL     OW  916   0.394   1.852   1.906  0.0207  0.3099 -0.3232
  306SOL    HW1  917   0.478   1.808   1.870 -0.6627  3.8458  0.5948
  306SOL    HW2  918   0.405   1.903   1.994 -1.0800 -0.9283 -1.2357
  307SOL     OW  919   3.031   0.897   2.484  0.1102 -0.1437  0.1319
  307SOL    HW1  920   3.074   0.969   2.549 -2.1066 -0.6066  1.3651
  307SOL    HW2  921   2.961   0.833   2.530 -0.5309  0.2033  0.2878
  308SOL     OW  922   1.546   2.682   2.819 -0.1171 -0.1682 -0.2886
  308SOL    HW1  923   1.570   2.609   2.747 -1.8059 -1.3655  0.4045
  308SOL    HW2  924   1.473   2.645   2.883  1.6800 -0.7202 -1.9586
  309SOL     OW  925   1.289   0.202   1.743  0.1223 -0.1245  0.1959
  309SOL    HW1  926   1.374   0.162   1.792  0.2151 -2.3871  0.5573
  309SOL    HW2  927   1.241   0.135   1.680  1.0783  0.6238  2.5821
  310SOL     OW  928   1.508   2.562   0.696  0.4759  0.2397  0.1605
  310SOL    HW1  929   1.482   2.560   0.793  1.1046  2.7268 -1.4846
  310SOL    HW2  930   1.568   2.643   0.664 -0.0838 -1.3440 -1.0581
  311SOL     OW  931   1.173   0.940   1.664 -0.0936 -0.5781  0.2538
  311SOL    HW1  932   1.160   0.843   1.698 -3.1387 -1.2418 -1.4602
  311SOL    HW2  933   1.221   0.943   1.575 -0.1022 -0.7960  0.4050
  312SOL     OW  934   1.640   0.716   1.135 -1.1240  0.0808 -0.1729
  312SOL    HW1  935   1.684   0.808   1.122 -0.7043 -1.2732  1.1271
  312SOL    HW2  936   1.559   0.701   1.074  2.1586  2.2134  1.7919
  313SOL     OW  937   1.572   1.386   0.705 -0.0537  0.2301  0.0113
  313SOL    HW1  938   1.495   1.423   0.763 -2.3770  2.6706  1.3315
  313SOL    HW2  939   1.537   1.297   0.662 -2.8398  3.4523  0.0147
  314SOL     OW  940   2.938   0.026   3.004  0.4816  0.2179  0.0443
  314SOL    HW1  941   2.947   0.027   3.108 -1.7346  1.1386  1.6672
  314SOL    HW2  942   2.843  -0.009   2.978 -1.1915 -1.2894  3.4746
  315SOL     OW  943   1.157   0.207   2.789 -0.4801  0.2088  1.1678
  315SOL    HW1  944   1.120   0.130   2.731 -2.6821  2.3799 -0.5449
  315SOL    HW2  945   1.193   0.174   2.878 -0.4420  0.1323 -2.0294
  316SOL     OW  946   1.755   2.041   0.911  0.5505  0.3956  0.8859
  316SOL    HW1  947   1.729   2.051   1.008  0.3501  2.2071  2.6148
  316SOL    HW2  948   1.751   2.130   0.852 -0.4308 -0.8587 -0.6777
  317SOL     OW  949   1.167   0.661   2.858  0.0910  0.7960 -0.7334
  317SOL    HW1  950   1.107   0.709   2.934  1.3044  1.8831  1.9462
  317SOL    HW2  951   1.117   0.597   2.801 -0.9328  0.8864 -0.0041
  318SOL     OW  952   1.379   3.030   2.303  0.2052  0.1144 -0.3123
  318SOL    HW1  953   1.353   3.129   2.290  2.9190 -0.2808  0.6680
  318SOL    HW2  954   1.367   2.972   2.217  1.0480  2.5205 -0.6978
  319SOL     OW  955   0.605   2.417   2.946 -0.5986 -0.0937  0.3762
  319SOL    HW1  956   0.543   2.362   3.012  1.2547  2.1438  0.4051
  319SOL    HW2  957   0.699   2.371   2.938 -0.8114 -2.4999 -1.1238
  320SOL     OW  958   1.670   2.256   0.432 -0.4708 -0.0340 -0.5239
  320SOL    HW1  959   1.739   2.177   0.402  1.3181  0.8979 -0.6784
  320SOL    HW2  960   1.577   2.226   0.452  0.7481 -0.0675 -1.5849
  321SOL     OW  961   1.646   2.794   0.548  0.4437 -0.2599  1.1097
  321SOL    HW1  962   1.571   2.819   0.480  0.0516  0.0688 -3.2391
  321SOL    HW2  963   1.742   2.820   0.511  0.9087 -0.9161 -1.0855
  322SOL     OW  964   2.581   1.137   2.328 -0.5196  0.0481  0.2398
  322SOL    HW1  965   2.646   1.150   2.405 -1.7474  2.3272  0.2556
  322SOL    HW2  966   2.537   1.046   2.333  2.6227  1.2867  0.7605
  323SOL     OW  967   1.192   2.692   0.844  0.2228  0.0449  0.6468
  323SOL    HW1  968   1.177   2.672   0.741 -0.4656  0.2901 -1.1240
  323SOL    HW2  969   1.133   2.775   0.875  0.3753  0.7289 -0.4971
  324SOL     OW  970   0.265   2.427   2.487 -0.0798 -0.4668 -0.0957
  324SOL    HW1  971   0.300   2.369   2.571  1.2902 -1.6269 -1.4311
  324SOL    HW2  972   0.240   2.527   2.513  0.3524  1.6041 -1.1759
  325SOL     OW  973   1.266   3.050   0.456 -0.2108 -0.3329 -0.4017
  325SOL    HW1  974   1.300   3.115   0.377 -3.0120  0.4916 -1.5218
  325SOL    HW2  975   1.304   3.080   0.550  0.5396  1.1561 -0.7785
  326SOL     OW  976   2.466   0.793   0.003 -0.1472 -0.2411  0.5644
  326SOL    HW1  977   2.376   0.737  -0.011  0.3474 -1.7107 -1.1380
  326SOL    HW2  978   2.548   0.731   0.029 -0.2635 -2.0547 -3.2052
  327SOL     OW  979   2.838   0.318   0.634 -0.3541 -0.8269 -0.7887
  327SOL    HW1  980   2.829   0.254   0.548 -1.5412  0.7763 -4.3696
  327SOL    HW2  981   2.876   0.279   0.719 -1.1264  1.7398  2.5403
  328SOL     OW  982   2.614   0.552   0.398 -0.1109 -0.0940 -0.5205
  328SOL    HW1  983   2.552   0.637   0.404 -0.8244  2.5098  0.4856
  328SOL    HW2  984   2.590   0.484   0.471  2.6028 -0.5697  1.0951
  329SOL     OW  985   2.963   2.971   2.141  0.0751 -0.1226  0.3233
  329SOL    HW1  986   3.035   2.927   2.202  2.8479 -1.7765 -0.8626
  329SOL    HW2  987   2.942   3.069   2.167  0.0624 -0.1755  1.3514
  330SOL     OW  988   0.516   0.195   1.900  0.1066  0.4030  0.1235
  330SOL    HW1  989   0.607   0.169   1.865 -0.5018 -0.6597  2.8113
  330SOL    HW2  990   0.512   0.146   1.990  0.2807  4.1173  1.4080
  331SOL     OW  991   2.976   1.945   1.122  0.1253  0.2263 -0.9683
  331SOL    HW1  992   2.962   2.029   1.067 -0.3309 -1.9894 -1.8923
  331SOL    HW2  993   2.903   1.941   1.200 -1.7560  3.7204 -0.6952
  332SOL     OW  994   0.386   1.157   0.076  0.5650  0.4170  0.3854
  332SOL    HW1  995   0.386   1.064   0.033 -1.7679 -1.2409 -0.6942
  332SOL    HW2  996   0.324   1.161   0.162 -0.4027 -2.2895 -0.8757
  333SOL     OW  997   2.886   1.025   0.304  0.0713  0.2420 -0.2773
  333SOL    HW1  998   2.921   1.113   0.352 -2.5508 -2.5363  1.3614
  333SOL    HW2  999   2.960   0.953   0.280 -0.4703 -0.2878 -2.0892
  334SOL     OW 1000   1.693   1.253   1.826  0.0493 -0.0125 -0.6105
  334SOL    HW1 1001   1.781   1.285   1.783  1.3193  1.2183  0.8668
  334SOL    HW2 1002   1.694   1.273   1.927  0.7640  0.6936  0.4740
  335SOL     OW 1003   1.985   2.707   2.585  0.4463 -0.2320  0.7765
  335SOL    HW1 1004   1.904   2.717   2.648 -0.9581  1.0074 -3.6109
  335SOL    HW2 1005   2.054   2.784   2.587 -0.8253 -0.9453 -3.4087
  336SOL     OW 1006   0.235   0.115   2.732 -0.2002 -0.8190 -0.4967
  336SOL    HW1 1007   0.305   0.135   2.804 -0.9196  0.8108  1.3963
  336SOL    HW2 1008   0.146   0.073   2.766 -0.7505  0.3960 -1.6392
  337SOL     OW 1009   0.968   2.881   2.859  0.7158  0.4086 -0.2816
  337SOL    HW1 1010   0.948   2.804   2.931  1.6483 -1.0486  0.2878
  337SOL    HW2 1011   1.008   2.967   2.903 -0.3735 -0.3769  2.9798
  338SOL     OW 1012   0.052   1.009   0.640  0.0256 -0.0037  0.2357
  338SOL    HW1 1013  -0.049   0.981   0.648 -2.1483 -0.5930 -0.9530
  338SOL    HW2 1014   0.052   1.112   0.619  0.7935  2.0568  1.3657
  339SOL     OW 1015   1.688   1.349   2.104  0.1028  0.4066  0.0221
  339SOL    HW1 1016   1.599   1.336   2.149  3.0386 -4.0568 -0.2607
  339SOL    HW2 1017   1.727   1.441   2.115  1.7941 -0.5589  1.7460
  340SOL     OW 1018   2.324   0.810   1.111 -0.3041 -0.0239  0.5508
  340SOL    HW1 1019   2.222   0.809   1.096 -0.9045 -0.7094 -0.2119
  340SOL    HW2 1020   2.363   0.719   1.074 -1.7986  2.0375 -0.3122
  341SOL     OW 1021   1.887   2.103   0.288  0.5538 -0.1161 -0.3277
  341SOL    HW1 1022   1.909   2.135   0.192  1.5532 -0.0009 -0.6345
  341SOL    HW2 1023   1.969   2.078   0.339 -2.0420 -0.4795  0.1786
  342SOL     OW 1024   2.256   2.120   2.791 -0.3664 -0.5295  0.5962
  342SOL    HW1 1025   2.295   2.039   2.846 -1.4437 -1.3978  0.9738
  342SOL    HW2 1026   2.157   2.104   2.753 -0.2708  1.1208 -1.9796
  343SOL     OW 1027   0.355   0.826   2.749  0.0393  0.0137  0.3246
  343SOL    HW1 1028   0.340   0.866   2.654  2.7729 -2.8515  0.2383
  343SOL    HW2 1029   0.444   0.854   2.786 -0.3925 -0.5163 -2.5779
  344SOL     OW 1030   1.930   1.439   0.427  0.0737  0.4864 -0.1305
  344SOL    HW1 1031   1.916   1.371   0.349  2.5456 -0.0820 -0.1305
  344SOL    HW2 1032   1.840   1.470   0.469  1.2937  0.6915  1.0599
  345SOL     OW 1033   1.397   2.236   2.925 -0.0004 -0.0913 -0.3287
  345SOL    HW1 1034   1.300   2.195   2.927  0.1968  2.4570  1.9738
  345SOL    HW2 1035   1.459   2.174   2.867 -0.0732 -1.0795  1.1204
  346SOL     OW 1036   2.348   0.889   1.386  0.0710  0.0956  0.3647
  346SOL    HW1 1037   2.315   0.982   1.419  1.6670 -0.2824  3.1438
  346SOL    HW2 1038   2.324   0.867   1.287 -4.7295 -0.6716 -0.7412
  347SOL     OW 1039   0.737   2.743   1.584  0.0182 -0.2909  0.0600
  347SOL    HW1 1040   0.679   2.723   1.671  0.7663 -0.3571  1.6983
  347SOL    HW2 1041   0.694   2.811   1.520 -2.4745 -1.8601  2.3439
  348SOL     OW 1042   0.200   0.698   2.913 -0.1894  0.3277 -0.2371
  348SOL    HW1 1043   0.111   0.700   2.850 -4.4945 -2.4892  0.2728
  348SOL    HW2 1044   0.286   0.734   2.860 -2.6159  1.9515 -0.0815
  349SOL     OW 1045   1.852   0.467   2.810 -0.3214 -0.3489 -0.3892
  349SOL    HW1 1046   1.860   0.545   2.738  1.9105  0.9525 -0.0700
  349SOL    HW2 1047   1.856   0.505   2.907  0.0492  3.6207  1.3485
  350SOL     OW 1048   1.665   0.427   0.387  0.0537  0.0343  0.0724
  350SOL    HW1 1049   1.731   0.426   0.466 -0.7398  0.2193  0.6816
  350SOL    HW2 1050   1.645   0.520   0.354 -0.9660 -1.1484 -0.8115
  351SOL     OW 1051   0.993   0.799   2.155 -0.4965 -0.5321 -0.0685
  351SOL    HW1 1052   0.990   0.901   2.143  2.3414  1.0603  1.6533
  351SOL    HW2 1053   1.029   0.757   2.066 -3.3372  0.5933 -0.4963
  352SOL     OW 1054   1.989   1.298   0.660  1.1125 -0.0703 -0.1203
  352SOL    HW1 1055   1.963   1.358   0.583 -2.5622 -0.5165  0.1722
  352SOL    HW2 1056   1.914   1.277   0.731 -0.2407 -1.8787 -4.4095
  353SOL     OW 1057   2.148   2.775   1.094  0.5464  0.2979 -0.1566
  353SOL    HW1 1058   2.226   2.736   1.148  0.6825 -2.9216 -0.8724
  353SOL    HW2 1059   2.074   2.706   1.073  0.6350 -2.5123  2.1052
  354SOL     OW 1060   0.250   1.361   2.897  0.3940 -0.1847 -0.0618
  354SOL    HW1 1061   0.242   1.439   2.832 -1.2474 -0.3388  2.9005
  354SOL    HW2 1062   0.346   1.347   2.934 -2.3271 -2.2428 -0.1322
  355SOL     OW 1063   0.714   1.586   0.587 -0.1762  0.3380  0.2549
  355SOL    HW1 1064   0.694   1.574   0.687 -2.5487 -0.9982  1.4249
  355SOL    HW2 1065   0.721   1.493   0.545  0.1118  1.7842 -0.2877
  356SOL     OW 1066   0.834   0.339   2.058 -0.5401  0.1100 -0.4278
  356SOL    HW1 1067   0.904   0.272   2.044 -1.3439  0.3039  0.5232
  356SOL    HW2 1068   0.804   0.383   1.972  0.5221  0.1990  1.0682
  357SOL     OW 1069   1.004   1.345   0.337  0.1922  0.6200  0.5183
  357SOL    HW1 1070   1.103   1.363   0.326 -1.7273  1.6566  1.3006
  357SOL    HW2 1071   0.981   1.250   0.370 -0.4600  2.1003  0.4197
  358SOL     OW 1072   1.683   1.512   0.492  0.3917  1.0107  0.1210
  358SOL    HW1 1073   1.639   1.459   0.573  0.4664  0.1924 -1.6204
  358SOL    HW2 1074   1.619   1.495   0.406  1.4276 -2.5193 -0.4489
  359SOL     OW 1075   1.564   2.633   0.205  0.1996  0.1399  0.1234
  359SOL    HW1 1076   1.551   2.534   0.166 -2.5674 -2.0749 -1.5979
  359SOL    HW2 1077   1.489   2.670   0.260  4.4169  1.7408  0.5895
  360SOL     OW 1078   0.810   0.572   0.543 -0.6012  0.4343 -0.3391
  360SOL    HW1 1079   0.707   0.593   0.515 -2.0391 -0.6654 -0.9403
  360SOL    HW2 1080   0.826   0.470   0.567 -0.7403 -0.3577  1.9714
  361SOL     OW 1081   1.214   1.300   0.694  0.3884 -0.0741 -0.5816
  361SOL    HW1 1082   1.276   1.368   0.747  0.4548 -0.7468  1.2309
  361SOL    HW2 1083   1.110   1.324   0.700 -0.1919 -1.7000  0.5130
  362SOL     OW 1084   1.409   1.837   0.826  0.0888 -0.0935  0.1876
  362SOL    HW1 1085   1.453   1.771   0.896  2.3458  0.6403  0.0903
  362SOL    HW2 1086   1.481   1.868   0.756  1.2797  0.9305  0.1901
  363SOL     OW 1087   1.220   1.284   2.041 -0.0879  0.5959  0.2101
  363SOL    HW1 1088   1.310   1.331   2.069  1.1746  1.9702  0.4406
  363SOL    HW2 1089   1.163   1.330   1.966 -1.8204  1.6036 -1.0246
  364SOL     OW 1090   0.499   2.342   2.000  0.5854 -0.0405 -0.3130
  364SOL    HW1 1091   0.413   2.403   2.016 -0.6387  0.5681  2.5527
  364SOL    HW2 1092   0.540   2.365   1.906 -1.6081  0.1496 -1.2500
  365SOL     OW 1093   1.005   1.944   1.367 -0.0605  0.3733 -0.3063
  365SOL    HW1 1094   0.905   1.974   1.388 -0.2502  2.7467 -3.4917
  365SOL    HW2 1095   1.031   1.969   1.271  0.2696  1.0174 -1.4044
  366SOL     OW 1096   2.835   1.997   0.389  0.1092 -0.5435 -0.0326
  366SOL    HW1 1097   2.754   1.959   0.441 -3.1906  0.4442  1.6724
  366SOL    HW2 1098   2.888   1.926   0.329  2.6414 -1.6130  1.3518
  367SOL     OW 1099   0.880   1.101   0.053 -0.2748 -0.1367 -0.5872
  367SOL    HW1 1100   0.917   1.027   0.118 -3.1314 -0.8696 -0.2794
  367SOL    HW2 1101   0.955   1.170   0.025 -0.5915 -1.7435 -0.2088
  368SOL     OW 1102   1.457   0.580   0.696 -0.0770  0.3076 -0.4083
  368SOL    HW1 1103   1.422   0.593   0.597 -4.6171  2.4035  2.4339
  368SOL    HW2 1104   1.562   0.567   0.695 -2.0291 -0.2506  2.0497
  369SOL     OW 1105   0.353   1.689   0.063  0.4047  0.1387  0.0594
  369SOL    HW1 1106   0.375   1.778   0.110  0.9829 -1.5967 -0.8273
  369SOL    HW2 1107   0.293   1.629   0.119 -0.3727  1.7183  0.6788
  370SOL     OW 1108   0.452   2.056   0.986 -0.3708 -0.2869  0.2132
  370SOL    HW1 1109   0.472   2.159   0.996  1.1535  1.6725 -1.0987
  370SOL    HW2 1110   0.356   2.036   0.960 -2.9699 -0.7640  1.3913
  371SOL     OW 1111   2.936   2.210   2.643  0.7259  0.2351 -0.1072
  371SOL    HW1 1112   2.866   2.148   2.691 -2.4237 -0.9292 -0.1389
  371SOL    HW2 1113   3.022   2.235   2.703  0.4415  1.1737 -0.2963
  372SOL     OW 1114   1.095   2.016   1.065 -0.8099 -0.2307 -0.4421
  372SOL    HW1 1115   1.032   2.044   0.990 -0.2181  0.2627  0.5810
  372SOL    HW2 1116   1.190   2.047   1.044 -1.6745  1.1456  1.5426
  373SOL     OW 1117   2.010   1.973   0.847 -0.4702 -0.6354 -0.2747
  373SOL    HW1 1118   2.083   1.965   0.921  0.9307 -1.3404 -3.4873
  373SOL    HW2 1119   1.910   2.001   0.871  0.3262  0.8808  0.6011
  374SOL     OW 1120   1.873   0.384   0.568  0.6690  0.1445  0.0043
  374SOL    HW1 1121   1.862   0.330   0.657 -2.0848 -0.4282  3.2365
  374SOL    HW2 1122   1.969   0.404   0.560 -2.5397 -0.3936 -1.1737
  375SOL     OW 1123   2.369   2.172   1.091 -0.5067 -0.5142  0.1943
  375SOL    HW1 1124   2.409   2.195   0.998  0.7959 -2.5132 -1.1431
  375SOL    HW2 1125   2.430   2.114   1.151 -0.8240 -1.5779  1.2296
  376SOL     OW 1126   3.089   0.577   1.486  0.6608 -0.1067  0.6796
  376SOL    HW1 1127   3.077   0.646   1.560  0.3447 -0.6500 -1.4207
  376SOL    HW2 1128   3.011   0.507   1.481  1.7602  0.3168 -1.7255
  377SOL     OW 1129   2.202   2.907   0.303  0.1515 -0.0098 -0.3552
  377SOL    HW1 1130   2.178   3.003   0.340  0.2871  0.9941  0.2916
  377SOL    HW2 1131   2.300   2.885   0.327 -1.8611  2.1962  0.1159
  378SOL     OW 1132   1.845   1.855   2.617 -0.5917 -0.3257  0.3982
  378SOL    HW1 1133   1.849   1.836   2.720 -0.1936  0.4037  1.0625
  378SOL    HW2 1134   1.852   1.768   2.559  1.5110  4.2443 -2.1941
  379SOL     OW 1135   0.709   0.125   2.891 -0.3736 -0.1147 -0.2990
  379SOL    HW1 1136   0.666   0.041   2.843 -0.3928 -2.1006 -5.0115
  379SOL    HW2 1137   0.751   0.185   2.814 -0.7789 -0.5635 -0.1580
  380SOL     OW 1138   1.504   1.142   0.599  0.1063  0.4566  0.4190
  380SOL    HW1 1139   1.404   1.153   0.619  0.7326 -1.5171 -1.1442
  380SOL    HW2 1140   1.532   1.039   0.604 -1.1327 -0.6813  1.6310
  381SOL     OW 1141   1.371   1.165   1.539 -0.3711  0.0089 -0.6225
  381SOL    HW1 1142   1.388   1.142   1.437  0.8686 -1.6303 -0.8573
  381SOL    HW2 1143   1.455   1.157   1.600  1.6684 -0.8106 -0.8277
  382SOL     OW 1144   1.766   0.840   0.183  0.3610  0.6709  0.1672
  382SOL    HW1 1145   1.799   0.832   0.085  1.3685  0.1085 -1.3589
  382SOL    HW2 1146   1.827   0.896   0.243 -0.3631  0.0954  1.6683
  383SOL     OW 1147   2.605   0.996   1.469 -0.2266  0.3376 -0.0414
  383SOL    HW1 1148   2.519   0.946   1.445  1.2406  5.7610  0.8937
  383SOL    HW2 1149   2.673   0.981   1.390 -0.5549 -0.7186 -0.4282
  384SOL     OW 1150   0.930   2.287   0.144  0.8430  0.1380 -0.0952
  384SOL    HW1 1151   0.950   2.365   0.205  0.9709 -0.0605 -0.7147
  384SOL    HW2 1152   0.882   2.211   0.193  1.6373 -0.5476 -1.6039
  385SOL     OW 1153   3.044   2.049   1.650 -0.0321 -0.4628 -0.3882
  385SOL    HW1 1154   3.140   2.100   1.652  0.5294  1.4810  2.6803
  385SOL    HW2 1155   3.046   1.946   1.665 -0.7398  2.3351  1.6186
  386SOL     OW 1156   0.505   1.126   0.383  0.1495 -0.0069  0.0381
  386SOL    HW1 1157   0.494   1.032   0.429  2.6460  1.2227  1.5696
  386SOL    HW2 1158   0.413   1.174   0.365 -1.3358  2.0434  0.1673
  387SOL     OW 1159   0.939   0.322   1.624  0.2726 -0.8181 -0.1009
  387SOL    HW1 1160   1.025   0.382   1.623  1.6475 -0.0401  1.6742
  387SOL    HW2 1161   0.929   0.266   1.534 -0.1788  0.3748  0.7859
  388SOL     OW 1162   1.190   2.639   1.740  0.2125  0.6970 -0.6228
  388SOL    HW1 1163   1.227   2.639   1.641  1.5615  3.3405  0.6815
  388SOL    HW2 1164   1.240   2.568   1.799 -3.3464  1.5821  2.2526
  389SOL     OW 1165   0.156   2.970   1.085  0.7484 -0.4779  0.3794
  389SOL    HW1 1166   0.055   2.949   1.094  0.8841 -2.2598  0.3507
  389SOL    HW2 1167   0.210   2.880   1.093  1.3922  3.2096  0.9826
  390SOL     OW 1168   1.030   0.950   1.353 -0.3327 -0.1812  0.1608
  390SOL    HW1 1169   1.123   0.926   1.391 -0.3283  2.3422 -0.0570
  390SOL    HW2 1170   0.992   1.036   1.388  1.3865 -1.0958 -2.5398
  391SOL     OW 1171   2.099   1.098   1.076  0.4828 -0.4725 -0.1762
  391SOL    HW1 1172   2.081   0.998   1.111 -1.3166 -2.6616 -1.2337
  391SOL    HW2 1173   2.125   1.094   0.977  0.6191 -1.8865  2.0746
  392SOL     OW 1174   0.884   2.719   3.071 -0.7336  0.5321  0.2106
  392SOL    HW1 1175   0.805   2.718   3.138  2.4750  0.5295 -0.4473
  392SOL    HW2 1176   0.973   2.757   3.119 -0.3720  2.2702  1.1957
  393SOL     OW 1177   0.320   0.508   1.972  0.5340  0.2871  0.0961
  393SOL    HW1 1178   0.264   0.433   1.919 -2.8739 -0.1575  0.1526
  393SOL    HW2 1179   0.410   0.530   1.929 -0.3281  2.9704  2.3508
  394SOL     OW 1180   3.042   1.841   2.799  0.2000 -0.7955  0.5351
  394SOL    HW1 1181   3.120   1.829   2.865  1.3287 -1.5792  1.5316
  394SOL    HW2 1182   3.072   1.862   2.701  1.4715  1.2043  2.6470
  395SOL     OW 1183   1.617   1.916   0.684 -0.3377 -0.2494  0.0874
  395SOL    HW1 1184   1.677   1.857   0.624  2.8555  2.5950  0.1222
  395SOL    HW2 1185   1.662   1.942   0.772 -0.9016 -2.8761  0.6107
  396SOL     OW 1186   2.808   1.912   1.338  0.5759 -0.5857 -0.4871
  396SOL    HW1 1187   2.748   1.824   1.322  0.1199 -5.0528  0.5729
  396SOL    HW2 1188   2.798   1.956   1.431 -1.9097 -0.5958  0.3150
  397SOL     OW 1189   1.026   2.239   0.507  0.5290  1.0520  0.3244
  397SOL    HW1 1190   0.959   2.160   0.530 -0.4404 -2.8861  1.4425
  397SOL    HW2 1191   1.024   2.314   0.574 -1.5382  0.9713 -2.8635
  398SOL     OW 1192   2.113   3.059   1.051  0.0812  0.1161 -0.4255
  398SOL    HW1 1193   2.112   2.959   1.094 -1.3896 -1.1957  0.6574
  398SOL    HW2 1194   2.055   3.127   1.102 -3.1068  0.1903 -0.0004
  399SOL     OW 1195   2.982   2.525   2.581  0.2272  0.0933 -0.7134
  399SOL    HW1 1196   2.912   2.473   2.533 -0.1945 -0.7707 -1.0475
  399SOL    HW2 1197   3.009   2.486   2.673  2.4273 -1.8202 -4.8307
  400SOL     OW 1198   0.780   1.624   1.313 -0.1966 -0.0269  0.0805
  400SOL    HW1 1199   0.749   1.684   1.393 -0.3097  4.2494  0.9770
  400SOL    HW2 1200   0.740   1.658   1.223  0.5142  0.8028  2.5187
  401SOL     OW 1201   1.799   0.087   1.378 -0.1350 -0.8631  0.4098
  401SOL    HW1 1202   1.865   0.131   1.444  0.5704  3.3252 -1.3896
  401SOL    HW2 1203   1.699   0.119   1.385  0.0440  1.6358  1.2424
  402SOL     OW 1204   1.318   0.151   3.028 -0.2571 -0.5042 -0.1464
  402SOL    HW1 1205   1.409   0.146   2.985 -0.5540  1.6736  2.7198
  402SOL    HW2 1206   1.303   0.245   3.073  0.3835 -0.0406 -1.3686
  403SOL     OW 1207   2.306   1.802   0.877  0.1157 -0.2304  0.2389
  403SOL    HW1 1208   2.406   1.783   0.906  3.1942 -1.0910 -1.5091
  403SOL    HW2 1209   2.251   1.861   0.941 -1.5706  0.7869 -0.7545
  404SOL     OW 1210   0.179   2.489   2.821 -0.0075 -0.4107 -0.1230
  404SOL    HW1 1211   0.270   2.438   2.813 -0.3755  0.2991 -0.3638
  404SOL    HW2 1212   0.201   2.588   2.824 -0.3004  0.5397  1.5975
  405SOL     OW 1213   0.175   2.408   0.643 -0.4990 -0.5134  0.4011
  405SOL    HW1 1214   0.131   2.358   0.562  1.3937  0.0808 -0.4245
  405SOL    HW2 1215   0.205   2.500   0.615 -1.3101 -0.4203 -1.2939
  406SOL     OW 1216   0.014   1.475   3.004 -0.2518  0.0910  0.1313
  406SOL    HW1 1217   0.083   1.409   2.961 -4.0370  0.8658 -2.0736
  406SOL    HW2 1218   0.056   1.551   3.052  0.6866 -0.6352  1.1631
  407SOL     OW 1219   1.595   0.949   0.918  0.2072  0.3007 -0.0743
  407SOL    HW1 1220   1.574   0.900   0.827 -0.9627  0.5778  0.2296
  407SOL    HW2 1221   1.516   1.015   0.947 -1.6532  3.9478 -0.6690
  408SOL     OW 1222   1.597   2.323   0.944 -0.1539  0.4471 -0.2480
  408SOL    HW1 1223   1.640   2.301   0.853  0.6790 -0.9658 -2.7557
  408SOL    HW2 1224   1.551   2.418   0.946 -0.4589 -2.3953 -2.4857
  409SOL     OW 1225   0.679   0.840   0.706  0.1235 -0.6595  0.1157
  409SOL    HW1 1226   0.628   0.838   0.619 -1.5003  1.9896 -0.6522
  409SOL    HW2 1227   0.679   0.750   0.759  1.0793  0.9410 -1.4460
  410SOL     OW 1228   1.243   2.049   1.435 -0.0525  0.3012  0.2244
  410SOL    HW1 1229   1.287   2.013   1.513 -2.1970 -1.0324 -3.9852
  410SOL    HW2 1230   1.152   1.997   1.413  0.6705  1.1068 -1.3244
  411SOL     OW 1231   2.506   1.845   0.023 -0.0893  0.0336  0.2617
  411SOL    HW1 1232   2.442   1.915  -0.018  0.8720  1.2948  0.2159
  411SOL    HW2 1233   2.576   1.811  -0.048 -0.5437 -0.6131 -0.1052
  412SOL     OW 1234   1.461   2.548   2.194 -0.1129  0.6668 -0.2945
  412SOL    HW1 1235   1.532   2.619   2.220 -0.2921  1.9808  2.2221
  412SOL    HW2 1236   1.391   2.526   2.269  1.1352 -2.4903  0.6421
  413SOL     OW 1237   3.086   0.299   2.951  0.0227 -0.1322  0.5147
  413SOL    HW1 1238   3.027   0.214   2.936 -3.4579  2.3240  0.4689
  413SOL    HW2 1239   3.183   0.279   2.976 -0.2707  0.0446 -1.4166
  414SOL     OW 1240   1.828   1.449   1.236 -0.1241  0.0729 -0.1264
  414SOL    HW1 1241   1.746   1.492   1.275  1.2214  0.0357 -2.1782
  414SOL    HW2 1242   1.807   1.368   1.181  1.4378 -0.2812 -2.9241
  415SOL     OW 1243   0.296   2.180   0.740  0.2830  0.2111  0.1808
  415SOL    HW1 1244   0.250   2.267   0.711 -1.6915 -2.4493 -4.6760
  415SOL    HW2 1245   0.226   2.103   0.767  1.6578 -0.8009  0.7878
  416SOL     OW 1246   0.346   1.040   1.048 -0.6775 -0.6014 -0.4051
  416SOL    HW1 1247   0.337   0.997   0.955  2.8179 -1.4496  0.5157
  416SOL    HW2 1248   0.435   1.098   1.053  1.8981  0.7550  0.0097
  417SOL     OW 1249   2.145   2.292   1.920  0.1985 -0.4045  0.2214
  417SOL    HW1 1250   2.170   2.196   1.953 -1.2557 -1.7447  2.3165
  417SOL    HW2 1251   2.051   2.298   1.882  2.2185  0.9221 -0.9400
  418SOL     OW 1252   1.133   0.505   1.329  0.2318  0.2124  0.2834
  418SOL    HW1 1253   1.062   0.455   1.274 -2.1360 -0.3556 -2.5305
  418SOL    HW2 1254   1.220   0.521   1.284 -0.0856 -0.6660  4.1579
  419SOL     OW 1255   0.957   0.377   3.036 -0.5364  0.1725 -0.2381
  419SOL    HW1 1256   0.971   0.406   2.937 -0.5991 -0.1679  1.0491
  419SOL    HW2 1257   0.859   0.403   3.057 -0.6748  4.1201 -2.2310
  420SOL     OW 1258   0.104   2.262   0.407 -0.3493 -0.0523  0.7191
  420SOL    HW1 1259   0.053   2.260   0.317  1.3066  0.6793  0.5323
  420SOL    HW2 1260   0.059   2.196   0.476 -0.5921  0.2341 -0.1658
  421SOL     OW 1261   0.329   2.939   0.705  0.6498 -0.1047 -0.0762
  421SOL    HW1 1262   0.299   2.871   0.784 -1.5068 -3.2085 -1.4718
  421SOL    HW2 1263   0.417   2.993   0.718  0.4433  0.7315  2.0534
  422SOL     OW 1264   1.008   2.551   1.028  0.3810 -0.5811 -0.2003
  422SOL    HW1 1265   1.088   2.604   0.993 -0.5997  0.0091  2.1591
  422SOL    HW2 1266   0.981   2.578   1.125  1.0230  0.5405 -2.6418
  423SOL     OW 1267   0.123   0.667   1.263 -0.2411 -0.0400  0.0070
  423SOL    HW1 1268   0.062   0.643   1.340 -2.2141  0.6502  0.7149
  423SOL    HW2 1269   0.084   0.735   1.204  2.9416 -1.2116  0.3237
  424SOL     OW 1270   1.033   2.233   2.055 -0.2010 -0.2968  0.3644
  424SOL    HW1 1271   1.019   2.333   2.031  1.3644 -0.5414 -1.8374
  424SOL    HW2 1272   1.010   2.221   2.158  1.4958  1.1023  2.3878
  425SOL     OW 1273   1.995   1.426   0.978 -0.0536 -0.4099 -0.1617
  425SOL    HW1 1274   2.047   1.353   1.025  1.1148  0.3171  3.8865
  425SOL    HW2 1275   2.060   1.479   0.917  1.9890 -1.2673 -1.2429
  426SOL     OW 1276   1.551   1.583   1.378  0.2369  0.1992 -0.3089
  426SOL    HW1 1277   1.508   1.664   1.332 -0.6725  0.6945  0.5311
  426SOL    HW2 1278   1.478   1.535   1.439 -1.1896  0.5023  2.3852
  427SOL     OW 1279   1.856   2.341   2.049  0.3249 -0.2033 -0.4163
  427SOL    HW1 1280   1.908   2.269   2.096 -1.9021  1.2220  0.2547
  427SOL    HW2 1281   1.895   2.435   2.075  0.8782 -0.1023  0.6980
  428SOL     OW 1282   0.853   3.003   0.187 -0.6867 -0.0913 -0.0877
  428SOL    HW1 1283   0.868   3.099   0.142  3.5649  1.0325 -1.7058
  428SOL    HW2 1284   0.942   2.949   0.188  0.1056  0.1333  0.8613
  429SOL     OW 1285   1.329   0.102   0.223 -0.1001 -0.2244 -0.1573
  429SOL    HW1 1286   1.421   0.143   0.255  0.9834 -0.5630  0.8896
  429SOL    HW2 1287   1.316   0.106   0.119 -1.0778 -0.8550  0.2716
  430SOL     OW 1288   2.802   1.420   0.387  0.5878  0.0150 -0.1014
  430SOL    HW1 1289   2.839   1.485   0.317 -0.6940  0.3629  0.0755
  430SOL    HW2 1290   2.769   1.463   0.481 -1.8180  1.1269  0.0003
  431SOL     OW 1291   2.165   1.575   0.818  0.0485  0.0789  0.2160
  431SOL    HW1 1292   2.207   1.658   0.859 -2.4424 -1.9164  2.4361
  431SOL    HW2 1293   2.081   1.602   0.762 -0.1601 -1.9665  1.7227
  432SOL     OW 1294   2.893   2.245   1.237  0.3741  0.2170 -0.4992
  432SOL    HW1 1295   2.807   2.189   1.242 -0.3959  0.2029 -0.3459
  432SOL    HW2 1296   2.920   2.276   1.337  3.2537  2.1101  0.5464
  433SOL     OW 1297   1.940   0.392   0.872  0.1193  0.0612  0.1514
  433SOL    HW1 1298   1.856   0.346   0.918  0.2700  2.5836 -0.5224
  433SOL    HW2 1299   2.029   0.391   0.925  1.3448 -0.2407 -0.2496
  434SOL     OW 1300   1.535   0.299   0.783  0.1345 -0.2780 -0.1429
  434SOL    HW1 1301   1.492   0.391   0.767  0.7330 -3.5889  1.9432
  434SOL    HW2 1302   1.617   0.305   0.852 -0.9528  2.5642  1.2099
  435SOL     OW 1303   1.432   1.442   2.164 -0.0961  0.4861  0.3451
  435SOL    HW1 1304   1.353   1.469   2.237 -2.0436 -0.6500  2.8309
  435SOL    HW2 1305   1.457   1.528   2.117  2.1889  0.5146  2.9523
  436SOL     OW 1306   1.681   2.730   2.218 -0.4927  0.5662 -0.6834
  436SOL    HW1 1307   1.649   2.813   2.267  1.6712 -2.0330  0.3785
  436SOL    HW2 1308   1.716   2.655   2.282  0.3653 -0.2404 -1.0865
  437SOL     OW 1309   1.042   2.920   0.914  0.2137  0.0790  0.2705
  437SOL    HW1 1310   0.977   2.979   0.858 -2.3695 -1.2998 -2.1350
  437SOL    HW2 1311   0.990   2.893   1.000 -3.6212  1.3580  1.2651
  438SOL     OW 1312   1.036   2.575   1.315  0.2941  0.2277  0.1012
  438SOL    HW1 1313   1.100   2.617   1.388  0.3431 -0.1122 -0.7789
  438SOL    HW2 1314   1.026   2.474   1.316  0.0144  0.2800  0.4614
  439SOL     OW 1315   0.709   1.708   1.064 -0.3136 -0.3285  0.0724
  439SOL    HW1 1316   0.725   1.787   0.998 -2.1559 -1.1734  0.2341
  439SOL    HW2 1317   0.607   1.686   1.080  0.6776 -0.3168  1.6494
  440SOL     OW 1318   0.996   2.497   1.958  0.3221  0.3383  0.1018
  440SOL    HW1 1319   0.970   2.509   1.859  0.3193  0.0655  2.8821
  440SOL    HW2 1320   1.100   2.511   1.971  1.8404 -2.4761  1.5557
  441SOL     OW 1321   0.434   2.751   1.388  0.5608 -0.0074 -0.4667
  441SOL    HW1 1322   0.495   2.667   1.413  2.7762  3.7932  0.4461
  441SOL    HW2 1323   0.344   2.721   1.348 -1.9755 -3.6634  2.2424
  442SOL     OW 1324   2.325   0.661   2.474  0.7106 -0.3273 -0.5968
  442SOL    HW1 1325   2.308   0.562   2.458  0.0602 -0.2297 -1.3526
  442SOL    HW2 1326   2.240   0.721   2.492  1.2536  0.8736  2.8424
  443SOL     OW 1327   1.217   2.731   2.181  0.2411 -0.2295 -0.2883
  443SOL    HW1 1328   1.269   2.725   2.269  1.8145  1.7006  2.0160
  443SOL    HW2 1329   1.185   2.638   2.158  2.0666  2.4282 -1.8857
  444SOL     OW 1330   1.135   1.321   1.608 -0.4205 -0.0350  0.1596
  444SOL    HW1 1331   1.216   1.268   1.576 -2.6919 -1.3645 -1.3107
  444SOL    HW2 1332   1.154   1.372   1.699 -0.3272  1.2987  0.7259
  445SOL     OW 1333   0.006   2.415   1.884 -0.5193 -0.1304 -0.1782
  445SOL    HW1 1334  -0.008   2.486   1.809 -0.6606 -2.3760 -0.3324
  445SOL    HW2 1335  -0.086   2.370   1.916  1.7589 -1.7330 -2.3195
  446SOL     OW 1336   0.274   1.913   2.367 -0.0064 -0.0562  0.3871
  446SOL    HW1 1337   0.228   1.995   2.415  1.7491 -2.3544 -2.1011
  446SOL    HW2 1338   0.207   1.847   2.314 -0.0378 -1.2925 -1.4524
  447SOL     OW 1339   1.236   1.713   1.930 -0.2184 -0.0748  0.2164
  447SOL    HW1 1340   1.145   1.753   1.895  0.8112 -0.0931  0.7299
  447SOL    HW2 1341   1.310   1.785   1.951  1.0612  0.5686 -3.2394
  448SOL     OW 1342   0.133   1.474   1.994  0.0324  0.3721 -0.0275
  448SOL    HW1 1343   0.166   1.568   1.963 -1.2556  0.5943 -0.1613
  448SOL    HW2 1344   0.058   1.483   2.073 -1.6550 -0.3219 -1.5385
  449SOL     OW 1345   1.858   3.005   0.858  0.5671 -0.2171 -0.0852
  449SOL    HW1 1346   1.932   3.029   0.923 -0.3664 -0.8557  1.0314
  449SOL    HW2 1347   1.877   2.924   0.798  0.5980 -2.9722  0.4539
  450SOL     OW 1348   2.384   1.455   0.708 -0.3911 -0.7163  0.1980
  450SOL    HW1 1349   2.300   1.474   0.771 -0.2929  0.3703  2.6949
  450SOL    HW2 1350   2.380   1.512   0.617 -0.4036 -0.7009  0.7119
  451SOL     OW 1351   1.380   2.998   1.437  0.1765 -0.3529  0.2662
  451SOL    HW1 1352   1.307   3.075   1.449  0.1221 -1.3370  1.4923
  451SOL    HW2 1353   1.383   2.937   1.521 -0.9279 -0.1402 -0.8808
  452SOL     OW 1354   2.709   2.288   2.177 -0.2807  0.5017 -0.3207
  452SOL    HW1 1355   2.640   2.368   2.195 -0.2569  2.8376  1.4230
  452SOL    HW2 1356   2.743   2.245   2.265 -1.2169 -1.1202 -1.5503
  453SOL     OW 1357   2.478   2.651   0.016  0.6078  0.0962  0.1949
  453SOL    HW1 1358   2.397   2.720   0.046 -0.4049 -0.4522  0.8526
  453SOL    HW2 1359   2.441   2.582  -0.057  0.3982 -4.1876 -0.0408
  454SOL     OW 1360   0.969   1.152   2.098  0.5153  0.0824  0.2116
  454SOL    HW1 1361   0.957   1.135   1.995 -0.9287 -0.2138  0.1571
  454SOL    HW2 1362   1.052   1.213   2.119  0.4040  0.4636 -0.3480
  455SOL     OW 1363   0.641   2.691   2.928  0.2659 -0.2904  1.0027
  455SOL    HW1 1364   0.732   2.717   2.959  1.3615  1.4189 -0.9467
  455SOL    HW2 1365   0.613   2.591   2.939 -0.4360  1.2249  0.1781
  456SOL     OW 1366   0.448   1.860   0.246 -0.0498 -0.1539  0.0133
  456SOL    HW1 1367   0.529   1.842   0.313  0.1349  0.7928  1.1570
  456SOL    HW2 1368   0.464   1.950   0.200  0.0449 -0.7095 -1.2324
  457SOL     OW 1369   0.315   2.648   0.618 -0.3852  0.4554  0.4278
  457SOL    HW1 1370   0.320   2.743   0.575 -1.0684 -2.5967  1.6575
  457SOL    HW2 1371   0.416   2.612   0.632  1.5153  3.4430  2.6269
  458SOL     OW 1372   2.922   3.068   1.254  0.4537 -0.2880 -0.6076
  458SOL    HW1 1373   2.980   3.155   1.233 -0.7404 -0.2826 -1.7077
  458SOL    HW2 1374   2.946   2.992   1.187 -0.4262 -1.2515  1.5996
  459SOL     OW 1375   2.145   2.567   0.808  0.8050 -0.2603  0.3302
  459SOL    HW1 1376   2.210   2.648   0.833  0.0838  1.1738  0.7270
  459SOL    HW2 1377   2.192   2.507   0.738  1.5550 -2.4768  1.1970
  460SOL     OW 1378   1.242   2.027   2.838 -0.2313 -0.3785  0.0206
  460SOL    HW1 1379   1.223   2.084   2.752 -2.0007 -2.6193 -2.6026
  460SOL    HW2 1380   1.224   1.925   2.831  0.3530 -3.0510  3.2134
  461SOL     OW 1381   0.552   2.112   2.645  0.2442 -0.6437  0.4935
  461SOL    HW1 1382   0.495   2.034   2.615 -0.8077  1.1509 -0.4944
  461SOL    HW2 1383   0.586   2.090   2.742 -2.3231  0.1763 -1.0406
  462SOL     OW 1384   0.957   1.155   1.819 -0.3285 -0.0198  0.2486
  462SOL    HW1 1385   1.003   1.103   1.746  0.6797  0.3869 -1.8537
  462SOL    HW2 1386   0.904   1.236   1.787  2.0621 -0.0135 -1.9925
  463SOL     OW 1387   0.471   0.836   0.467 -0.6350 -0.3422 -0.5269
  463SOL    HW1 1388   0.479   0.733   0.447  1.0908 -1.5273 -2.2931
  463SOL    HW2 1389   0.371   0.859   0.488  2.8451  1.3756  0.9363
  464SOL     OW 1390   0.631   2.292   2.240 -0.5752  0.0079 -0.1738
  464SOL    HW1 1391   0.611   2.371   2.309  1.5310  0.8283  1.2194
  464SOL    HW2 1392   0.568   2.305   2.159  2.5476  1.4772 -1.9247
  465SOL     OW 1393   0.278   0.951   0.774  0.7050 -0.2696 -0.1475
  465SOL    HW1 1394   0.186   0.977   0.724  3.7242 -3.2242 -0.5401
  465SOL    HW2 1395   0.292   0.849   0.779 -0.7006 -0.0239  2.2942
  466SOL     OW 1396   1.412   1.136   1.005 -0.0816 -0.6013  0.4670
  466SOL    HW1 1397   1.442   1.236   1.018 -0.6194  1.0422  1.1050
  466SOL    HW2 1398   1.315   1.115   1.047  0.0695 -2.5298 -1.6412
  467SOL     OW 1399   0.494   0.349   2.404 -0.2973 -0.4112  0.0837
  467SOL    HW1 1400   0.451   0.448   2.397 -0.5628  0.8596  1.6008
  467SOL    HW2 1401   0.493   0.302   2.500 -1.3023 -0.1464 -0.2325
  468SOL     OW 1402   0.465   2.285   1.666 -0.1575  0.4123  0.6996
  468SOL    HW1 1403   0.537   2.354   1.691  0.7164 -2.2581 -0.9068
  468SOL    HW2 1404   0.412   2.308   1.576  1.4028 -3.7666 -0.8110
  469SOL     OW 1405   1.472   1.417   1.171  0.2172 -0.0542  0.4033
  469SOL    HW1 1406   1.525   1.331   1.166 -0.7181  3.0199 -0.9409
  469SOL    HW2 1407   1.513   1.493   1.230  1.9754  1.1477  0.8600
  470SOL     OW 1408   3.020   1.697   0.705  0.0554 -0.8179  0.3632
  470SOL    HW1 1409   3.065   1.783   0.670 -0.3470  1.6817 -1.8898
  470SOL    HW2 1410   2.997   1.698   0.808 -0.1735 -0.6500  1.5557
  471SOL     OW 1411   2.709   1.276   2.123  0.4342  0.9224 -0.6723
  471SOL    HW1 1412   2.653   1.234   2.200 -1.9017 -0.0944  0.2121
  471SOL    HW2 1413   2.755   1.362   2.154  1.3996 -1.0725  0.2037
  472SOL     OW 1414   1.170   2.465   0.010  0.1334  0.2707 -0.6912
  472SOL    HW1 1415   1.224   2.425   0.088 -0.3480  1.4096 -0.1636
  472SOL    HW2 1416   1.075   2.428   0.019 -0.1489 -0.5441 -4.1675
  473SOL     OW 1417   1.087   1.546   1.010  0.3655  0.3778 -0.0782
  473SOL    HW1 1418   0.990   1.521   0.974  2.4714 -3.3335  2.6658
  473SOL    HW2 1419   1.113   1.498   1.096  0.9818 -0.5901  0.9264
  474SOL     OW 1420   0.677   1.295   0.569  0.2609  0.2298 -0.6476
  474SOL    HW1 1421   0.646   1.259   0.477  0.4506 -1.0878 -1.6834
  474SOL    HW2 1422   0.732   1.224   0.622  2.2116  0.0349 -0.1034
  475SOL     OW 1423   2.842   0.072   0.787  0.1083  0.2362 -0.0521
  475SOL    HW1 1424   2.919   0.130   0.829  0.4704  3.6948  0.8725
  475SOL    HW2 1425   2.746   0.113   0.808 -2.3897  1.9107  1.8742
  476SOL     OW 1426   0.992   3.043   1.817 -0.1402 -0.5319 -0.0846
  476SOL    HW1 1427   1.055   2.967   1.847  1.2264  1.1455 -1.8907
  476SOL    HW2 1428   0.984   3.050   1.717 -1.6090 -0.5129  0.9505
  477SOL     OW 1429   1.452   0.325   2.486  0.0651 -0.0092  0.3396
  477SOL    HW1 1430   1.427   0.340   2.587  2.4426  1.2654 -0.4562
  477SOL    HW2 1431   1.548   0.282   2.461  2.8092 -0.9466 -1.8030
  478SOL     OW 1432   2.211   1.842   0.211 -0.7558 -0.1263  0.0151
  478SOL    HW1 1433   2.133   1.776   0.199  1.2030 -1.6166  0.7802
  478SOL    HW2 1434   2.296   1.794   0.242  1.8710 -0.9370  2.0822
  479SOL     OW 1435   1.278   1.044   2.926 -0.2597  0.5047  0.5210
  479SOL    HW1 1436   1.343   1.018   2.848  1.8637  1.3155 -4.2117
  479SOL    HW2 1437   1.191   0.995   2.913  1.5506 -0.4142 -1.3119
  480SOL     OW 1438   2.579   2.363   0.399 -0.7721  0.0777  0.3102
  480SOL    HW1 1439   2.561   2.265   0.434  0.6728 -0.8644 -0.4722
  480SOL    HW2 1440   2.521   2.394   0.316 -1.2697 -0.2721 -0.5314
  481SOL     OW 1441   0.986   1.128   0.874  0.1478 -0.3193 -0.1098
  481SOL    HW1 1442   0.989   1.220   0.828 -0.3655  0.9938 -0.3344
  481SOL    HW2 1443   1.005   1.133   0.974 -1.8521  1.4157  0.6681
  482SOL     OW 1444   1.571   0.268   2.044 -0.5060 -0.3062  0.0037
  482SOL    HW1 1445   1.570   0.376   2.038  0.9083  2.8289 -1.0437
  482SOL    HW2 1446   1.667   0.230   2.046 -3.2960 -1.5173  1.3652
  483SOL     OW 1447   0.117   2.332   1.274 -0.4639  0.2953  0.2409
  483SOL    HW1 1448   0.033   2.315   1.334  0.7004 -0.7009  0.7372
  483SOL    HW2 1449   0.142   2.432   1.263 -1.0792 -0.4495  0.3517
  484SOL     OW 1450   1.742   1.084   1.347 -0.1064 -0.4368  0.2181
  484SOL    HW1 1451   1.811   1.011   1.367 -1.0463 -1.6143  1.5742
  484SOL    HW2 1452   1.760   1.175   1.391  0.2454 -0.3578  0.6259
  485SOL     OW 1453   0.716   1.036   1.816 -0.2676  0.1688  0.1986
  485SOL    HW1 1454   0.742   1.033   1.714 -1.5839  2.1823  1.0858
  485SOL    HW2 1455   0.790   1.095   1.864  2.6230  3.0391 -0.7140
  486SOL     OW 1456   0.829   1.931   2.467  0.3929  0.2612  0.8317
  486SOL    HW1 1457   0.895   1.888   2.530  0.1031 -1.4313  0.7884
  486SOL    HW2 1458   0.809   2.034   2.476 -2.1892  2.2585 -1.0358
  487SOL     OW 1459   1.825   1.669   0.950  0.5874 -0.2890  0.0384
  487SOL    HW1 1460   1.862   1.582   0.990 -1.9689  2.0311  0.7825
  487SOL    HW2 1461   1.888   1.729   0.890  2.5405  0.5072 -0.0467
  488SOL     OW 1462   2.986   0.864   2.231  0.2756 -0.3582  0.4237
  488SOL    HW1 1463   2.984   0.763   2.210 -2.9955 -0.5654  2.4193
  488SOL    HW2 1464   3.004   0.883   2.334  0.9804  2.2067 -0.3143
  489SOL     OW 1465   2.773   0.261   1.276  0.1360 -0.8648  0.0853
  489SOL    HW1 1466   2.776   0.282   1.379  1.0182 -0.3964  3.0881
  489SOL    HW2 1467   2.864   0.253   1.232  0.5231  0.4444 -2.3890
  490SOL     OW 1468   1.506   2.972   2.771 -0.5332  0.1953  0.4211
  490SOL    HW1 1469   1.513   2.871   2.787 -2.5862  1.1446  0.5028
  490SOL    HW2 1470   1.446   2.999   2.690  0.3537  1.9322 -2.3888
  491SOL     OW 1471   1.755   1.458   2.626 -0.0076 -0.1471 -0.1031
  491SOL    HW1 1472   1.684   1.464   2.700  1.9208 -2.6943  0.2069
  491SOL    HW2 1473   1.854   1.490   2.653  1.7154 -0.9961 -0.9923
  492SOL     OW 1474   0.522   2.045   0.677 -0.2986 -1.3290  0.0690
  492SOL    HW1 1475   0.582   2.005   0.751 -2.2108  1.5527 -0.6911
  492SOL    HW2 1476   0.450   2.109   0.713  0.4424  1.1507  1.2999
  493SOL     OW 1477   0.393   1.416   2.028 -0.7659 -0.3787  0.1993
  493SOL    HW1 1478   0.287   1.438   2.017 -0.4565 -0.8606  1.9359
  493SOL    HW2 1479   0.412   1.339   2.095  0.2559 -1.3925 -0.9742
  494SOL     OW 1480   2.729   2.680   0.157  0.1549  0.0916 -0.1887
  494SOL    HW1 1481   2.771   2.619   0.230 -1.1570 -0.5646  0.3817
  494SOL    HW2 1482   2.631   2.644   0.127 -2.2180 -3.0329  0.0927
  495SOL     OW 1483   2.705   2.686   2.746  0.7111  0.2133 -0.1935
  495SOL    HW1 1484   2.655   2.604   2.719  0.7609  1.8106 -1.0741
  495SOL    HW2 1485   2.723   2.740   2.661  1.3589  0.7268  2.4479
  496SOL     OW 1486   2.091   2.247   0.695  0.1942  0.6383  0.0330
  496SOL    HW1 1487   2.096   2.311   0.779 -1.5837 -0.3653  0.5307
  496SOL    HW2 1488   2.097   2.146   0.720 -2.8471 -0.8181  1.0655
  497SOL     OW 1489   0.258   2.985   2.411  0.1608  0.1011 -0.0270
  497SOL    HW1 1490   0.191   3.053   2.459  0.0045  2.5149  0.1183
  497SOL    HW2 1491   0.282   3.010   2.309  0.7692  0.4279 -0.4322
  498SOL     OW 1492   1.188   1.359   1.223  0.5789 -0.0598  0.4123
  498SOL    HW1 1493   1.290   1.376   1.213  0.7882  0.3274 -0.9493
  498SOL    HW2 1494   1.149   1.421   1.298 -0.2384  2.1630 -3.4602
  499SOL     OW 1495   0.680   1.823   0.433  0.2321  0.4714 -0.0186
  499SOL    HW1 1496   0.716   1.737   0.484  0.6496  0.3945  2.4429
  499SOL    HW2 1497   0.728   1.904   0.472 -2.9951 -0.0124  1.8799
  500SOL     OW 1498   1.398   2.837   1.665  0.0441 -0.3472  0.5274
  500SOL    HW1 1499   1.350   2.757   1.694 -1.9101  2.3101  2.2137
  500SOL    HW2 1500   1.491   2.808   1.630  0.4961  2.2089  0.5211
  501SOL     OW 1501   0.790   1.145   2.308  0.2416 -0.1895  0.1494
  501SOL    HW1 1502   0.717   1.069   2.285  0.4209 -1.3405  0.7885
  501SOL    HW2 1503   0.853   1.164   2.231  1.1081  2.4676 -0.1701
  502SOL     OW 1504   2.578   0.979   1.740  0.1279  0.1879 -0.0504
  502SOL    HW1 1505   2.586   0.992   1.637  0.9698 -0.3740  2.3354
  502SOL    HW2 1506   2.570   0.879   1.766 -0.5326 -1.6672 -0.0966
  503SOL     OW 1507   1.328   0.113   0.698  0.1550 -0.2638 -0.2632
  503SOL    HW1 1508   1.251   0.177   0.673 -2.5718 -0.3326 -0.2402
  503SOL    HW2 1509   1.394   0.150   0.765 -0.2636 -0.9538 -0.8529
  504SOL     OW 1510   2.999   2.326   1.469 -0.0067 -0.6138 -0.6727
  504SOL    HW1 1511   2.957   2.408   1.523  0.9908  1.1478  2.0720
  504SOL    HW2 1512   3.021   2.238   1.525  1.0087  1.0840  0.7086
  505SOL     OW 1513   2.319   1.182   1.428 -0.2356 -0.6231 -0.4225
  505SOL    HW1 1514   2.322   1.212   1.335 -0.6714  2.1074  2.2100
  505SOL    HW2 1515   2.402   1.220   1.475  0.4500  1.6228  2.4493
  506SOL     OW 1516   1.975   0.163   1.824  0.2749 -0.4219  0.6086
  506SOL    HW1 1517   2.053   0.103   1.825 -1.4411 -0.1230 -2.0723
  506SOL    HW2 1518   1.992   0.252   1.866  2.9521 -0.9580 -0.9076
  507SOL     OW 1519   0.529   0.681   2.138  0.2679  0.1726  0.0117
  507SOL    HW1 1520   0.442   0.640   2.105 -1.4880  0.3774  0.4209
  507SOL    HW2 1521   0.603   0.612   2.182  2.0332 -3.2233  4.9969
  508SOL     OW 1522   0.295   1.631   0.797 -0.3552  0.1133 -0.2713
  508SOL    HW1 1523   0.364   1.695   0.747 -0.7006  1.2272 -0.4424
  508SOL    HW2 1524   0.259   1.668   0.889  2.8492  0.4957  0.0509
  509SOL     OW 1525   1.205   1.277   2.352  0.4709 -0.2073  0.4759
  509SOL    HW1 1526   1.232   1.196   2.299  1.7388  0.2517 -2.9054
  509SOL    HW2 1527   1.131   1.258   2.418  3.9922  1.8539 -3.2166
  510SOL     OW 1528   1.265   2.037   2.185  0.0689 -0.7978 -0.5012
  510SOL    HW1 1529   1.277   2.116   2.120 -0.4744  1.2792 -0.8899
  510SOL    HW2 1530   1.164   2.010   2.196  0.7711 -3.5868 -0.9882
  511SOL     OW 1531   3.051   2.747   1.318  0.3707  0.3147  0.4350
  511SOL    HW1 1532   3.045   2.712   1.222  1.3683  3.0606  3.3074
  511SOL    HW2 1533   2.955   2.752   1.360  1.4336  0.5374 -1.4477
  512SOL     OW 1534   2.386   0.385   1.379  0.4801 -0.2188 -0.2375
  512SOL    HW1 1535   2.286   0.392   1.355  1.6888 -0.3334  1.0580
  512SOL    HW2 1536   2.454   0.350   1.307  0.3081  3.2443  3.4200
  513SOL     OW 1537   2.575   2.063   0.870 -0.6643 -0.5876 -0.1363
  513SOL    HW1 1538   2.528   2.134   0.810  0.7520 -0.2991 -1.2126
  513SOL    HW2 1539   2.675   2.048   0.829  0.7163 -3.2358 -2.8672
  514SOL     OW 1540   0.620   2.744   0.423 -0.0056 -0.1651 -0.3385
  514SOL    HW1 1541   0.593   2.790   0.333  0.8886  0.5129  0.5953
  514SOL    HW2 1542   0.640   2.813   0.498 -0.7540  1.8969 -0.0728
  515SOL     OW 1543   1.982   1.217   2.366  0.4984 -0.5001 -0.1725
  515SOL    HW1 1544   1.953   1.180   2.273 -5.4549 -0.5994  3.2585
  515SOL    HW2 1545   1.897   1.213   2.425  2.0093  1.0432 -4.3656
  516SOL     OW 1546   0.225   0.273   1.873 -0.0059  0.4509 -0.3054
  516SOL    HW1 1547   0.312   0.225   1.857 -2.8563  0.5915 -0.6328
  516SOL    HW2 1548   0.141   0.207   1.874  0.2432  1.2311 -3.1945
  517SOL     OW 1549   0.409   0.008   1.126  0.7423 -0.0135  0.4535
  517SOL    HW1 1550   0.417   0.100   1.169 -3.1053 -0.2324 -0.5917
  517SOL    HW2 1551   0.312  -0.022   1.125  1.1737 -0.7826  2.2251
  518SOL     OW 1552   2.179   3.065   1.829  0.0381  0.3844  0.0660
  518SOL    HW1 1553   2.240   3.147   1.844  0.5624  2.6367 -0.9493
  518SOL    HW2 1554   2.209   3.001   1.754 -2.5429 -0.0281 -0.3963
  519SOL     OW 1555   2.331   2.152   2.521 -0.4935  0.0674  0.4924
  519SOL    HW1 1556   2.289   2.145   2.619 -0.1073 -1.1255  1.9303
  519SOL    HW2 1557   2.388   2.236   2.511  0.8358  0.4507 -0.6786
  520SOL     OW 1558   1.820   2.763   1.773  0.2648  0.7127  0.3150
  520SOL    HW1 1559   1.743   2.763   1.846  0.5713 -0.5446  0.5746
  520SOL    HW2 1560   1.858   2.671   1.749  0.3856  0.2296  0.7261
  521SOL     OW 1561   0.572   3.070   2.085 -0.4564  0.1633  0.1610
  521SOL    HW1 1562   0.480   3.027   2.095  0.6919  1.0177 -3.0516
  521SOL    HW2 1563   0.619   3.085   2.178  0.8235  0.9023  0.7265
  522SOL     OW 1564   0.244   1.871   1.475 -0.2285 -0.1545  0.0749
  522SOL    HW1 1565   0.298   1.939   1.537  0.2205  1.5752 -0.2583
  522SOL    HW2 1566   0.199   1.918   1.393  0.8817  0.2731  0.0741
  523SOL     OW 1567   2.234   2.966   1.570  0.7337  0.7573  0.5841
  523SOL    HW1 1568   2.327   2.926   1.540  1.5716 -1.9838 -1.2803
  523SOL    HW2 1569   2.153   2.910   1.531 -1.7978 -1.2157 -2.1911
  524SOL     OW 1570   0.182   2.796   2.800  0.4508 -0.1016 -0.3690
  524SOL    HW1 1571   0.123   2.876   2.835 -0.6847  0.9883  3.6944
  524SOL    HW2 1572   0.281   2.826   2.790  2.2319  2.5595  0.9049
  525SOL     OW 1573   2.169   2.041   0.406 -0.1844  0.3710  0.6887
  525SOL    HW1 1574   2.183   2.005   0.500  0.4710 -0.0111 -0.9360
  525SOL    HW2 1575   2.174   1.969   0.327  0.9083 -0.8242  1.0644
  526SOL     OW 1576   0.446   1.530   1.653 -0.1734  0.6409 -0.0192
  526SOL    HW1 1577   0.492   1.593   1.722  1.1057  0.7025  3.0341
  526SOL    HW2 1578   0.493   1.436   1.653  1.3299  2.3737  0.4073
  527SOL     OW 1579   1.038   2.894   1.235  0.3378  0.2165 -0.1028
  527SOL    HW1 1580   1.131   2.847   1.231 -1.3807 -0.1352 -2.4720
  527SOL    HW2 1581   1.054   2.995   1.203 -0.6166 -0.3720  0.5066
  528SOL     OW 1582   1.375   2.405   0.527 -0.5504  0.4734 -0.8481
  528SOL    HW1 1583   1.409   2.311   0.561 -0.9306  1.3512 -0.6172
  528SOL    HW2 1584   1.421   2.483   0.584  0.0315  0.6624  1.0891
  529SOL     OW 1585   1.971   1.741   0.714  0.0957  0.0098 -0.5584
  529SOL    HW1 1586   1.897   1.749   0.638 -2.2647  0.7132  3.6764
  529SOL    HW2 1587   1.994   1.842   0.742 -0.2099  2.6073 -1.8496
  530SOL     OW 1588   0.331   2.598   0.265  0.3903 -0.1468 -0.2844
  530SOL    HW1 1589   0.326   2.677   0.337 -0.7935 -1.8183  2.8259
  530SOL    HW2 1590   0.368   2.509   0.305 -2.5398 -2.1035  2.8400
  531SOL     OW 1591   1.843   0.991   0.987 -0.0394 -0.5617 -0.7222
  531SOL    HW1 1592   1.882   1.075   0.945  0.8820 -2.4001 -1.9976
  531SOL    HW2 1593   1.741   0.982   0.957  1.9453 -0.6051 -0.9602
  532SOL     OW 1594   0.370   1.184   0.711 -0.0071  0.4640  0.4162
  532SOL    HW1 1595   0.419   1.183   0.620  2.0191  1.9899  0.4891
  532SOL    HW2 1596   0.334   1.088   0.731  0.4252 -2.6068  2.7886
  533SOL     OW 1597   1.736   0.017   2.581 -0.2815  0.3630  0.1678
  533SOL    HW1 1598   1.831  -0.016   2.608 -2.8471  0.8877 -0.1874
  533SOL    HW2 1599   1.703   0.089   2.649  1.4904 -2.9511  0.5515
  534SOL     OW 1600   0.350   0.186   1.617  0.6979 -0.2320  0.3735
  534SOL    HW1 1601   0.395   0.234   1.536  2.3445  3.2115  0.2957
  534SOL    HW2 1602   0.287   0.248   1.673 -3.3197  0.1453  1.7425
  535SOL     OW 1603   1.916   0.405   0.200  0.4490 -0.5316 -0.6490
  535SOL    HW1 1604   1.917   0.490   0.262  0.5618 -2.0611 -0.4616
  535SOL    HW2 1605   1.896   0.313   0.254  1.7705 -0.7778 -1.7899
  536SOL     OW 1606   1.434   2.545   0.967 -0.1555 -0.4315  0.0356
  536SOL    HW1 1607   1.412   2.501   1.062 -0.1525 -3.6553 -1.6669
  536SOL    HW2 1608   1.347   2.583   0.919 -1.1823  0.3807 -1.6663
  537SOL     OW 1609   0.810   0.186   2.330  0.3726  0.1613  0.2162
  537SOL    HW1 1610   0.855   0.273   2.303  1.0609  0.2896  0.7818
  537SOL    HW2 1611   0.723   0.167   2.277 -1.2472 -0.9230  3.0106
  538SOL     OW 1612   1.687   2.356   1.520 -0.0640 -0.1836 -0.1228
  538SOL    HW1 1613   1.670   2.262   1.480 -0.5143 -0.2363  0.5400
  538SOL    HW2 1614   1.767   2.396   1.464 -1.9856  1.5645  0.0564
  539SOL     OW 1615   0.208   1.570   2.724  0.0144  0.5426  0.0349
  539SOL    HW1 1616   0.175   1.585   2.627  0.5268  1.2832 -0.3730
  539SOL    HW2 1617   0.192   1.650   2.788  1.6593  2.3641  1.0569
  540SOL     OW 1618   2.721   1.666   1.968 -0.3819 -0.3524 -0.6778
  540SOL    HW1 1619   2.752   1.586   2.027  2.0403  0.1156  2.0449
  540SOL    HW2 1620   2.624   1.690   1.999 -0.4049 -0.1584 -1.8748
  541SOL     OW 1621   0.453   2.270   0.006 -0.0402 -0.5982  0.0710
  541SOL    HW1 1622   0.495   2.222   0.086 -3.8940  1.9999  0.0341
  541SOL    HW2 1623   0.353   2.236   0.001 -0.1510 -2.3127 -1.3382
  542SOL     OW 1624   2.285   2.556   0.417 -0.0287  0.3401  0.5109
  542SOL    HW1 1625   2.256   2.644   0.372  0.7501  0.2096  1.2285
  542SOL    HW2 1626   2.209   2.488   0.439  2.2921 -1.4346 -0.5807
  543SOL     OW 1627   1.066   1.810   1.621 -0.3587  0.7761 -0.5769
  543SOL    HW1 1628   1.033   1.837   1.715  1.5116  2.9473 -1.6602
  543SOL    HW2 1629   1.036   1.879   1.545 -1.2663 -1.0668 -1.7956
  544SOL     OW 1630   1.013   0.423   0.204 -0.1378 -0.5410 -0.2492
  544SOL    HW1 1631   1.057   0.336   0.241 -1.6690 -0.9430 -5.3342
  544SOL    HW2 1632   1.018   0.421   0.100  3.0922 -1.6750  1.6473
  545SOL     OW 1633   1.120   1.808   0.795  0.1360 -0.3864 -0.2961
  545SOL    HW1 1634   1.220   1.827   0.791  1.5422 -2.1810 -0.9026
  545SOL    HW2 1635   1.096   1.742   0.871 -2.4741 -0.6377  1.1559
  546SOL     OW 1636   2.658   1.497   0.015  0.7065 -0.0651 -0.4125
  546SOL    HW1 1637   2.595   1.533  -0.060  2.5568 -1.9490 -2.7090
  546SOL    HW2 1638   2.602   1.485   0.100 -0.4194 -1.1177  0.8587
  547SOL     OW 1639   0.575   3.080   2.679  0.7116 -0.1114 -0.2651
  547SOL    HW1 1640   0.661   3.027   2.652  3.0963 -1.5357 -0.3884
  547SOL    HW2 1641   0.500   3.013   2.719 -2.1958 -2.0729  0.5643
  548SOL     OW 1642   2.090   0.850   2.984 -0.3370  0.4650  0.5158
  548SOL    HW1 1643   1.987   0.819   2.994  0.7946  1.4421 -3.7273
  548SOL    HW2 1644   2.100   0.944   3.018 -1.8523 -1.3907  0.3853
  549SOL     OW 1645   0.703   0.519   0.214 -0.2369 -0.1904  0.1034
  549SOL    HW1 1646   0.655   0.541   0.121  0.6181  2.2367 -1.6508
  549SOL    HW2 1647   0.784   0.576   0.232  1.0541 -0.0164 -3.4384
  550SOL     OW 1648   2.500   2.826   2.896  0.1377 -0.0991 -0.4218
  550SOL    HW1 1649   2.482   2.780   2.985  1.5683  0.2319 -2.5903
  550SOL    HW2 1650   2.535   2.759   2.822  0.2308 -0.9390  2.6942
  551SOL     OW 1651   0.271   0.924   0.222  0.4020 -0.3522  0.0206
  551SOL    HW1 1652   0.364   0.884   0.203  0.8890  0.7031  1.0840
  551SOL    HW2 1653   0.258   0.927   0.325  0.6174 -1.6010 -0.1861
  552SOL     OW 1654   0.704   2.973   1.845 -0.8861 -0.1254  0.0621
  552SOL    HW1 1655   0.664   3.016   1.929  1.2401  1.5066 -0.4423
  552SOL    HW2 1656   0.806   2.965   1.852  2.6380 -1.7445 -0.3144
  553SOL     OW 1657   2.990   2.533   0.329 -0.2598 -0.5396  0.1257
  553SOL    HW1 1658   2.961   2.435   0.316  1.8605 -0.1820  2.2851
  553SOL    HW2 1659   2.978   2.567   0.423 -2.7741  2.2609  0.5227
  554SOL     OW 1660   2.144   0.355   0.602  0.2412  0.4846 -0.1724
  554SOL    HW1 1661   2.204   0.363   0.515 -0.2127 -0.4228  0.6166
  554SOL    HW2 1662   2.107   0.262   0.625 -0.5751  0.7716 -0.3405
  555SOL     OW 1663   0.376   2.770   2.526 -0.4014 -0.1276  0.0023
  555SOL    HW1 1664   0.327   2.852   2.494 -0.5382 -2.7015 -1.0500
  555SOL    HW2 1665   0.423   2.716   2.448  1.4478 -1.5827 -0.2275
  556SOL     OW 1666   0.813   2.386   1.515 -0.0500  0.2042 -0.0476
  556SOL    HW1 1667   0.858   2.461   1.569 -0.4912 -0.1039 -1.6449
  556SOL    HW2 1668   0.891   2.337   1.460  0.9835 -0.9760 -1.1549
  557SOL     OW 1669   0.079   2.055   0.186 -0.6971 -0.1457  0.4523
  557SOL    HW1 1670   0.034   1.984   0.124  0.8979  1.2481 -2.4060
  557SOL    HW2 1671   0.132   2.119   0.125  0.4400 -1.2489  0.8343
  558SOL     OW 1672   2.904   2.275   0.291 -0.6238  0.1790  0.0367
  558SOL    HW1 1673   2.807   2.299   0.311 -0.2298 -0.0212  2.2135
  558SOL    HW2 1674   2.921   2.190   0.232 -1.2016 -1.1418  1.2356
  559SOL     OW 1675   0.394   2.298   1.400 -0.4395  0.1835 -0.2009
  559SOL    HW1 1676   0.306   2.287   1.345  0.3817 -0.0909  0.4001
  559SOL    HW2 1677   0.462   2.237   1.352  1.9823 -1.7566 -0.2234
  560SOL     OW 1678   2.090   1.146   3.069  0.0863 -0.4388 -0.3285
  560SOL    HW1 1679   2.081   1.139   3.172 -0.4154  1.3012  0.1103
  560SOL    HW2 1680   2.143   1.231   3.036 -0.3181  0.7378 -0.0780
  561SOL     OW 1681   3.041   1.856   0.031  0.2040  0.1780  0.2819
  561SOL    HW1 1682   3.009   1.828   0.123  2.1770 -0.3116 -0.9623
  561SOL    HW2 1683   2.986   1.932  -0.010  1.6479 -0.2351  1.3576
  562SOL     OW 1684   0.989   2.262   2.330 -0.8322 -0.2424  0.1265
  562SOL    HW1 1685   0.893   2.250   2.374  4.0462 -2.4701 -1.3708
  562SOL    HW2 1686   1.055   2.316   2.393  3.5879 -0.0376 -1.4684
  563SOL     OW 1687   0.702   2.576   2.615  0.0504  0.1660 -0.4015
  563SOL    HW1 1688   0.799   2.536   2.620  1.1811  2.0663 -1.7418
  563SOL    HW2 1689   0.674   2.630   2.703  0.6685  1.0377  0.8935
  564SOL     OW 1690   2.819   1.308   2.920  1.2176  0.3334 -0.6080
  564SOL    HW1 1691   2.740   1.355   2.971  0.1446  1.2016  0.5311
  564SOL    HW2 1692   2.864   1.381   2.861 -0.2343 -0.2773  0.2139
  565SOL     OW 1693   2.538   1.958   2.643 -0.4375  0.1487  0.0356
  565SOL    HW1 1694   2.503   2.027   2.577 -0.0331  0.1809  0.2747
  565SOL    HW2 1695   2.628   1.992   2.687  0.6443 -2.3426  1.4828
  566SOL     OW 1696   2.071   2.816   1.376  0.3486  0.0818  0.0032
  566SOL    HW1 1697   2.009   2.729   1.374  0.4133 -0.0400  1.1923
  566SOL    HW2 1698   2.030   2.890   1.318 -1.0504  2.5270 -0.2520
  567SOL     OW 1699   2.460   0.043   2.354 -0.4120 -1.0483  0.7756
  567SOL    HW1 1700   2.383   0.110   2.345 -2.2185  0.4545  0.6084
  567SOL    HW2 1701   2.486  -0.011   2.270  1.5224  1.4693  1.3626
  568SOL     OW 1702   1.508   1.785   0.276 -0.1842 -0.2779 -0.3863
  568SOL    HW1 1703   1.446   1.862   0.247  0.9970  0.2705 -1.2547
  568SOL    HW2 1704   1.605   1.801   0.245 -0.2610 -1.4558 -3.2004
  569SOL     OW 1705   0.262   0.678   0.792 -0.0455 -0.2953  0.4585
  569SOL    HW1 1706   0.331   0.611   0.749  0.2198  1.2306  1.7345
  569SOL    HW2 1707   0.168   0.635   0.789  1.9265 -1.9242 -1.4026
  570SOL     OW 1708   0.596   0.890   2.903  0.4599  0.2815  0.7628
  570SOL    HW1 1709   0.668   0.921   2.838 -3.1687 -0.1828  2.0879
  570SOL    HW2 1710   0.584   0.943   2.989 -0.7801  1.4569 -1.7292
  571SOL     OW 1711   0.771   3.089   1.000  0.5212  0.9392 -0.0345
  571SOL    HW1 1712   0.810   3.121   0.909  2.4379  0.3810  0.2941
  571SOL    HW2 1713   0.709   3.003   0.991 -3.8689  0.3244  0.7914
  572SOL     OW 1714   1.610   2.607   1.318  0.3742 -0.6474  0.0946
  572SOL    HW1 1715   1.526   2.547   1.301  0.1641 -1.0563 -0.9980
  572SOL    HW2 1716   1.589   2.709   1.299  0.0766 -3.2290 -0.4790
  573SOL     OW 1717   2.864   0.492   2.028 -0.1541  0.9943 -0.7620
  573SOL    HW1 1718   2.813   0.404   2.015 -1.1912  0.7790 -1.3095
  573SOL    HW2 1719   2.864   0.549   1.944  2.9689 -0.8028  2.9700
  574SOL     OW 1720   0.162   1.723   1.039 -0.6696  0.8772  0.4967
  574SOL    HW1 1721   0.161   1.819   0.998 -0.8605  1.3097  0.2025
  574SOL    HW2 1722   0.075   1.690   1.090 -2.9254  1.3805  2.7086
  575SOL     OW 1723   0.871   2.158   0.938  0.0972 -0.3395 -0.6767
  575SOL    HW1 1724   0.823   2.190   1.025 -1.5766  2.2694 -2.4833
  575SOL    HW2 1725   0.908   2.240   0.882 -0.7669  1.4555 -0.2410
  576SOL     OW 1726   2.936   3.039   1.725 -0.1935 -0.3609  0.4065
  576SOL    HW1 1727   2.832   3.032   1.724 -1.1526  1.6826 -1.0856
  576SOL    HW2 1728   2.978   3.114   1.666  1.3081 -1.9773  1.2477
  577SOL     OW 1729   2.479   1.244   0.015 -0.3347  0.2491 -0.2326
  577SOL    HW1 1730   2.485   1.169  -0.060 -0.9892  0.2146  0.6417
  577SOL    HW2 1731   2.561   1.257   0.082 -0.3477  2.3684  1.7995
  578SOL     OW 1732   1.383   2.752   2.433  0.3336 -0.0581 -0.2205
  578SOL    HW1 1733   1.290   2.793   2.462  0.7874 -3.7757 -0.8879
  578SOL    HW2 1734   1.459   2.824   2.445 -0.4056  0.9113 -0.5637
  579SOL     OW 1735   0.088   2.517   0.140 -0.2013 -0.2397  0.0290
  579SOL    HW1 1736   0.035   2.530   0.231 -0.4639  0.1833  0.4381
  579SOL    HW2 1737   0.191   2.524   0.154 -0.6509  0.4364  1.7996
  580SOL     OW 1738   0.973   2.692   0.410  0.2089  0.2686 -0.4594
  580SOL    HW1 1739   1.052   2.679   0.347 -0.7105  1.8192  3.9483
  580SOL    HW2 1740   0.887   2.638   0.379 -2.4490 -0.2411 -1.8151
  581SOL     OW 1741   1.267   2.645   1.473 -0.6691  0.4440 -0.4591
  581SOL    HW1 1742   1.305   2.547   1.488 -2.6117 -0.6294 -2.0674
  581SOL    HW2 1743   1.310   2.707   1.398 -1.9783 -1.9869 -0.8063
  582SOL     OW 1744   1.510   0.081   1.862  0.0341  0.0843 -0.2834
  582SOL    HW1 1745   1.531   0.149   1.939  2.2676 -1.5037  0.9250
  582SOL    HW2 1746   1.597   0.060   1.808  0.9637 -2.1632  1.0044
  583SOL     OW 1747   2.474   3.068   0.559 -0.0111 -0.4053  0.0795
  583SOL    HW1 1748   2.541   3.023   0.499 -3.8529  0.1474 -0.4331
  583SOL    HW2 1749   2.394   2.999   0.568 -2.0153  0.5895 -0.2723
  584SOL     OW 1750   1.578   0.943   2.125 -0.3089  1.0341  0.5218
  584SOL    HW1 1751   1.634   0.930   2.041 -0.3341 -0.6759  0.5391
  584SOL    HW2 1752   1.636   0.915   2.212 -0.2500  1.7702  0.2107
  585SOL     OW 1753   2.116   2.675   2.910  0.3663  0.1946  0.3663
  585SOL    HW1 1754   2.115   2.582   2.859 -0.4365  0.1798  0.5160
  585SOL    HW2 1755   2.024   2.697   2.946  0.2309  0.7522 -0.2347
  586SOL     OW 1756   2.831   0.379   1.553  0.0960 -0.1456  0.6892
  586SOL    HW1 1757   2.834   0.449   1.629 -2.8210  0.3934  0.9705
  586SOL    HW2 1758   2.737   0.327   1.554 -3.1994 -1.5021  0.6239
  587SOL     OW 1759   2.014   1.548   2.653  0.9818  0.0460 -0.6003
  587SOL    HW1 1760   2.061   1.476   2.599  1.3651  2.4380 -1.3347
  587SOL    HW2 1761   2.029   1.530   2.753 -1.9883  1.9658  0.4033
  588SOL     OW 1762   0.457   2.690   2.270  0.2921 -0.0064 -0.1627
  588SOL    HW1 1763   0.358   2.681   2.241  0.1101 -0.5650  2.6119
  588SOL    HW2 1764   0.493   2.606   2.322  0.5963 -0.4803 -0.9007
  589SOL     OW 1765   2.153   1.367   2.507  0.2033 -0.7264 -0.3936
  589SOL    HW1 1766   2.099   1.292   2.456  1.1378 -1.6177 -1.4818
  589SOL    HW2 1767   2.249   1.368   2.473 -0.1230  2.5153  0.5627
  590SOL     OW 1768   2.352   1.673   2.060 -0.0709  0.1860  0.0982
  590SOL    HW1 1769   2.403   1.584   2.054 -0.1536  0.6603  0.5672
  590SOL    HW2 1770   2.365   1.708   2.156 -0.1735 -3.2654  2.2892
  591SOL     OW 1771   1.289   2.398   0.265  0.4944 -0.3910  0.1814
  591SOL    HW1 1772   1.347   2.336   0.210 -1.1715 -0.9211  0.9372
  591SOL    HW2 1773   1.323   2.410   0.364  0.3433 -2.6803  3.1867
  592SOL     OW 1774   1.793   2.273   0.741 -0.3452 -0.1592  0.4718
  592SOL    HW1 1775   1.740   2.321   0.668 -0.2049 -0.2961  0.5095
  592SOL    HW2 1776   1.897   2.267   0.717  0.2033  2.8661  1.9040
  593SOL     OW 1777   0.698   0.229   0.248  0.2686  0.3441 -0.7601
  593SOL    HW1 1778   0.784   0.207   0.194  0.6854  0.2891  2.5968
  593SOL    HW2 1779   0.671   0.331   0.230  0.2678  0.8401  0.4519
  594SOL     OW 1780   0.981   1.890   2.696 -0.3260 -0.3181 -0.8102
  594SOL    HW1 1781   1.085   1.863   2.712 -1.4439  0.7269 -1.3606
  594SOL    HW2 1782   0.962   1.992   2.705  1.2410 -0.2507 -0.4256
  595SOL     OW 1783   1.546   0.038   1.089 -0.0410 -0.7744 -0.1480
  595SOL    HW1 1784   1.595  -0.044   1.046 -0.8510 -0.9818 -2.8760
  595SOL    HW2 1785   1.450   0.043   1.051  1.4416 -0.4200  1.7206
  596SOL     OW 1786   3.076   1.436   2.247  0.8422 -0.0737 -0.3424
  596SOL    HW1 1787   3.072   1.337   2.279  1.3591  1.3367  1.9754
  596SOL    HW2 1788   3.130   1.494   2.316  1.5039 -2.1627  1.5735
  597SOL     OW 1789   1.996   2.549   1.694 -0.2321 -0.1300  0.4482
  597SOL    HW1 1790   1.978   2.546   1.593 -3.0399 -0.2901  1.3681
  597SOL    HW2 1791   2.088   2.561   1.737  0.1803 -0.5021  2.3000
  598SOL     OW 1792   2.525   2.949   1.210  0.4912 -0.2064 -0.4175
  598SOL    HW1 1793   2.558   2.971   1.304  1.3779  0.3103 -1.3462
  598SOL    HW2 1794   2.596   2.944   1.133  0.0225 -0.3211 -0.7025
  599SOL     OW 1795   2.921   0.326   2.494 -0.2928  0.0026 -0.0350
  599SOL    HW1 1796   3.013   0.368   2.464  0.1028 -3.3550 -1.1548
  599SOL    HW2 1797   2.838   0.379   2.467 -0.2402 -1.7967  2.2412
  600SOL     OW 1798   2.815   1.061   2.756  0.4163 -0.4318 -0.0077
  600SOL    HW1 1799   2.792   0.959   2.767 -0.2913  0.3056  2.1698
  600SOL    HW2 1800   2.771   1.116   2.829  0.4747 -2.2295 -0.5941
  601SOL     OW 1801   2.977   1.320   1.971  0.1968  0.7330 -0.2858
  601SOL    HW1 1802   2.883   1.344   1.932 -1.8190  0.9627  3.3057
  601SOL    HW2 1803   3.050   1.394   1.964 -1.6539 -0.8874  1.8892
  602SOL     OW 1804   1.484   1.721   2.339 -0.6159 -0.0225 -0.4760
  602SOL    HW1 1805   1.420   1.640   2.347 -1.6528  0.6559 -1.1552
  602SOL    HW2 1806   1.582   1.697   2.376  1.8675 -1.0377  0.6364
  603SOL     OW 1807   0.587   1.219   2.739 -0.0586  0.4642  0.7154
  603SOL    HW1 1808   0.497   1.222   2.694  1.5044  0.9467 -2.0688
  603SOL    HW2 1809   0.650   1.149   2.694 -2.1769 -0.6996  2.1645
  604SOL     OW 1810   2.380   1.008   0.163 -0.2416 -0.2988 -0.0140
  604SOL    HW1 1811   2.422   1.098   0.127 -3.1958 -2.0150  0.7714
  604SOL    HW2 1812   2.407   0.924   0.109 -1.3590 -0.2390  1.4301
  605SOL     OW 1813   2.543   1.146   1.953  0.1819  0.2289  0.1056
  605SOL    HW1 1814   2.569   1.082   1.875 -1.6558 -1.7806  2.6247
  605SOL    HW2 1815   2.625   1.170   2.018  3.3915  3.6706  1.9733
  606SOL     OW 1816   1.526   2.526   2.533 -0.0144  0.1598 -0.0049
  606SOL    HW1 1817   1.465   2.590   2.483  0.4508  1.0497  1.0622
  606SOL    HW2 1818   1.492   2.428   2.535  3.1241  0.2666  1.7165
  607SOL     OW 1819   1.315   1.571   0.332 -0.0240  0.2629  0.3440
  607SOL    HW1 1820   1.230   1.621   0.363 -1.3435  0.6319  0.3940
  607SOL    HW2 1821   1.396   1.631   0.321 -0.4608 -3.0600  0.9336
  608SOL     OW 1822   1.414   2.845   0.355 -0.8471 -0.2307  0.5763
  608SOL    HW1 1823   1.503   2.890   0.327 -1.1372 -0.6520  1.6310
  608SOL    HW2 1824   1.355   2.915   0.403  0.4359 -0.8752  0.7790
  609SOL     OW 1825   1.268   1.353   0.186  0.1404 -0.0194  0.3616
  609SOL    HW1 1826   1.282   1.441   0.230 -3.0525  1.6792  2.2179
  609SOL    HW2 1827   1.241   1.361   0.085 -1.6005 -1.0935 -0.5958
  610SOL     OW 1828   2.984   1.170   2.235 -0.4719  0.0169  0.3250
  610SOL    HW1 1829   2.968   1.071   2.212 -0.6466 -0.4296  0.7146
  610SOL    HW2 1830   2.969   1.232   2.155 -1.4143 -0.5691  0.7774
  611SOL     OW 1831   2.530   0.294   1.148 -0.5021 -0.5327  0.6025
  611SOL    HW1 1832   2.460   0.219   1.160 -1.6823  1.1035  0.2693
  611SOL    HW2 1833   2.623   0.273   1.191 -0.3521  0.2289  3.0121
  612SOL     OW 1834   0.760   2.275   1.159  0.1896 -0.1912  0.2183
  612SOL    HW1 1835   0.694   2.237   1.236 -0.7694  1.2423  1.0015
  612SOL    HW2 1836   0.725   2.364   1.123  0.0594  0.7804  3.3158
  613SOL     OW 1837   0.848   1.394   2.434  0.3393  0.1842  0.6688
  613SOL    HW1 1838   0.834   1.458   2.355  3.6928  0.8287 -0.6658
  613SOL    HW2 1839   0.798   1.306   2.417 -0.8069  2.1922 -1.9367
  614SOL     OW 1840   1.562   1.658   1.973  0.1098  0.1377 -0.4883
  614SOL    HW1 1841   1.513   1.745   1.951  1.9130 -0.4986 -1.2456
  614SOL    HW2 1842   1.636   1.680   2.041 -1.7562  0.7409 -1.5434
  615SOL     OW 1843   0.794   1.360   1.735  0.2257 -0.2647 -0.7531
  615SOL    HW1 1844   0.720   1.351   1.669 -1.4362 -1.9248  0.1052
  615SOL    HW2 1845   0.866   1.425   1.694  2.8160 -0.7652 -0.2570
  616SOL     OW 1846   1.012   1.603   2.154 -0.2481 -0.4143  0.0580
  616SOL    HW1 1847   0.920   1.563   2.183  1.3638  1.5533 -1.3397
  616SOL    HW2 1848   0.998   1.697   2.115  0.8971 -2.2096 -0.0368
  617SOL     OW 1849   2.963   1.542   1.636  0.0494 -0.1508  0.0094
  617SOL    HW1 1850   2.899   1.485   1.697  0.1793  2.9410 -1.2451
  617SOL    HW2 1851   2.982   1.502   1.542 -0.1195  0.5567 -3.3624
  618SOL     OW 1852   1.918   1.972   1.481  0.1261  0.2635  0.7947
  618SOL    HW1 1853   1.948   1.945   1.386 -0.0691  2.2114  1.4380
  618SOL    HW2 1854   1.853   1.908   1.526 -0.5591  0.8412 -3.4351
  619SOL     OW 1855   1.739   0.493   2.407 -0.3048  0.0131 -0.4821
  619SOL    HW1 1856   1.671   0.544   2.345  0.2415  2.9505 -0.9254
  619SOL    HW2 1857   1.732   0.389   2.411  3.1685 -0.7797 -2.3186
  620SOL     OW 1858   2.234   2.974   0.657 -0.2019  0.6385  0.1486
  620SOL    HW1 1859   2.191   3.052   0.706 -0.4742 -3.1498 -1.0253
  620SOL    HW2 1860   2.249   2.887   0.721 -1.4477 -2.5733  0.7181
  621SOL     OW 1861   2.163   1.867   1.318 -0.0699  0.5006  0.7467
  621SOL    HW1 1862   2.154   1.877   1.417 -1.2090  0.9855 -1.4939
  621SOL    HW2 1863   2.107   1.781   1.291  1.3398 -0.5704 -0.7552
  622SOL     OW 1864   2.233   0.926   1.807  0.2492 -0.3088  0.0547
  622SOL    HW1 1865   2.330   0.919   1.772 -1.7548  1.5110 -3.1329
  622SOL    HW2 1866   2.213   0.841   1.861 -0.6138  0.0395 -0.3557
  623SOL     OW 1867   1.333   0.828   2.650  0.5319 -0.3183  0.2617
  623SOL    HW1 1868   1.276   0.764   2.708 -0.6502 -1.1586 -0.7640
  623SOL    HW2 1869   1.289   0.856   2.558 -2.7062  0.4965  1.1470
  624SOL     OW 1870   0.589   0.635   3.079 -0.0134 -0.1562  0.7264
  624SOL    HW1 1871   0.610   0.681   2.988  1.9514 -0.8688 -1.1730
  624SOL    HW2 1872   0.559   0.703   3.153 -0.1341 -2.2510 -0.9576
  625SOL     OW 1873   2.866   1.724   0.962  0.5048  0.7023  0.3868
  625SOL    HW1 1874   2.770   1.751   0.988  1.1820  2.6817  3.7458
  625SOL    HW2 1875   2.938   1.766   1.027  2.5508  0.6632 -2.0143
  626SOL     OW 1876   0.604   2.712   1.826  0.0122 -0.0196  0.2422
  626SOL    HW1 1877   0.647   2.799   1.864  2.1190 -2.4295  1.7932
  626SOL    HW2 1878   0.497   2.713   1.818  0.2320  0.3496  1.6778
  627SOL     OW 1879   0.723   1.016   1.537 -0.0086 -0.2813 -0.3496
  627SOL    HW1 1880   0.687   0.957   1.462 -3.2677 -0.1928  0.4355
  627SOL    HW2 1881   0.812   1.070   1.523 -0.5711 -0.7109  0.7454
  628SOL     OW 1882   2.387   0.174   0.730 -0.3593  0.3790  0.1833
  628SOL    HW1 1883   2.410   0.082   0.688  3.1965  0.3895 -1.5784
  628SOL    HW2 1884   2.294   0.172   0.769  2.4101  2.6115 -0.7708
  629SOL     OW 1885   1.981   0.889   1.967  0.0443  0.4384  0.3018
  629SOL    HW1 1886   2.053   0.904   1.891 -2.8318 -1.6831 -3.4984
  629SOL    HW2 1887   1.948   0.978   2.007 -0.1948 -2.0200  1.4288
  630SOL     OW 1888   2.861   2.202   0.854 -0.5459 -0.3210  0.0500
  630SOL    HW1 1889   2.790   2.266   0.814  0.2071 -1.3860  0.0508
  630SOL    HW2 1890   2.855   2.105   0.818 -3.7666  2.3204  0.1535
  631SOL     OW 1891   2.947   0.167   2.125 -0.0467 -0.3174 -0.3429
  631SOL    HW1 1892   3.011   0.196   2.203  3.1610  1.6851  1.3809
  631SOL    HW2 1893   3.005   0.130   2.045 -1.0387  0.1993 -1.1577
  632SOL     OW 1894   2.432   2.508   0.637  0.3808  0.3998  0.1394
  632SOL    HW1 1895   2.482   2.575   0.692  1.4442  0.1007 -0.6682
  632SOL    HW2 1896   2.385   2.550   0.555  0.1919  0.5595 -3.3986
  633SOL     OW 1897   1.415   1.235   2.528  0.0676  0.6543 -0.5251
  633SOL    HW1 1898   1.448   1.317   2.585  1.5111  0.6327  1.4000
  633SOL    HW2 1899   1.335   1.259   2.469 -1.5851 -1.0305 -0.9130
  634SOL     OW 1900   0.682   1.947   0.927 -0.2621 -0.1238  0.5070
  634SOL    HW1 1901   0.588   1.967   0.968  0.0250  0.3384  0.1762
  634SOL    HW2 1902   0.750   2.029   0.930 -0.3103  0.8581  0.3316
  635SOL     OW 1903   3.061   2.315   3.083  0.3260  0.0761 -0.4169
  635SOL    HW1 1904   2.976   2.355   3.038  0.3269  0.1520 -1.5048
  635SOL    HW2 1905   3.113   2.385   3.139  1.3784  1.4973  0.7329
  636SOL     OW 1906   2.257   2.724   2.083  0.4586  0.1581  0.1495
  636SOL    HW1 1907   2.261   2.824   2.102 -1.1237 -1.8417  2.3069
  636SOL    HW2 1908   2.231   2.677   2.175 -4.1178 -0.8249  2.0215
  637SOL     OW 1909   2.643   0.717   2.046 -0.1155 -0.2428 -0.4686
  637SOL    HW1 1910   2.598   0.710   1.956 -1.5787  1.4840 -0.6001
  637SOL    HW2 1911   2.672   0.816   2.072 -0.6694  2.2434 -0.4017
  638SOL     OW 1912   2.417   1.768   1.240 -0.8162  0.0838 -0.4974
  638SOL    HW1 1913   2.330   1.816   1.259 -0.4986  0.1134 -1.7776
  638SOL    HW2 1914   2.458   1.717   1.325 -0.1394  0.3060 -0.0116
  639SOL     OW 1915   1.289   2.176   1.721 -0.0307  0.4259  0.2408
  639SOL    HW1 1916   1.325   2.099   1.666  0.2438  0.8721  1.8924
  639SOL    HW2 1917   1.189   2.161   1.748 -0.0350 -1.8115 -2.0254
  640SOL     OW 1918   0.201   1.147   1.586 -0.4058  0.0622 -0.1598
  640SOL    HW1 1919   0.186   1.183   1.680  1.0722 -1.3345 -1.7399
  640SOL    HW2 1920   0.289   1.093   1.576  0.7196  3.0225  0.5608
  641SOL     OW 1921   2.038   0.168   1.536 -0.2905 -0.3293 -0.3944
  641SOL    HW1 1922   2.003   0.207   1.627  0.1532  0.1767  0.6785
  641SOL    HW2 1923   2.060   0.066   1.540  2.4151  1.2214 -3.4103
  642SOL     OW 1924   1.969   0.105   0.293 -0.3194  0.3461  0.1780
  642SOL    HW1 1925   2.070   0.105   0.328 -2.2151  2.0657  0.1537
  642SOL    HW2 1926   1.897   0.077   0.364 -0.7414  0.1224 -1.1418
  643SOL     OW 1927   2.918   1.865   2.064 -0.3054  0.3687 -0.3940
  643SOL    HW1 1928   2.840   1.820   2.014  1.9735  0.7677 -1.2156
  643SOL    HW2 1929   2.961   1.941   2.006 -0.7081  0.4520 -0.3640
  644SOL     OW 1930   2.282   2.394   1.206  0.0706 -0.0930  0.0724
  644SOL    HW1 1931   2.313   2.299   1.163  2.3476 -0.3393 -3.3516
  644SOL    HW2 1932   2.269   2.380   1.310 -1.5719  0.3955  2.3358
  645SOL     OW 1933   0.640   0.842   1.236  0.1768  0.5124  0.4896
  645SOL    HW1 1934   0.536   0.825   1.251 -2.1500 -2.5026 -1.6085
  645SOL    HW2 1935   0.652   0.873   1.137 -1.2923 -2.1736 -0.7176
  646SOL     OW 1936   1.414   1.911   1.961 -0.6597  0.5148 -0.6016
  646SOL    HW1 1937   1.486   1.978   1.934 -1.3971  1.3299 -1.8695
  646SOL    HW2 1938   1.365   1.938   2.049 -0.0068 -0.4718  0.0170
  647SOL     OW 1939   0.800   1.079   0.679 -0.3278 -0.1455  0.1062
  647SOL    HW1 1940   0.881   1.094   0.746  3.7689  1.1617 -0.2842
  647SOL    HW2 1941   0.748   0.993   0.697  2.6975 -4.0152 -2.0073
  648SOL     OW 1942   0.100   0.188   0.221  0.0767 -0.6027 -0.0516
  648SOL    HW1 1943   0.164   0.141   0.153 -0.9180 -0.2565  0.5722
  648SOL    HW2 1944   0.109   0.293   0.215  1.5411  3.1853  2.7457
  649SOL     OW 1945   3.021   0.242   0.891  0.4519 -0.4659 -0.0711
  649SOL    HW1 1946   3.105   0.181   0.897 -0.5600 -2.7672  0.5983
  649SOL    HW2 1947   3.025   0.326   0.951 -0.7535  1.2035 -1.3780
  650SOL     OW 1948   2.753   0.678   1.432 -0.4216  0.1024 -0.6505
  650SOL    HW1 1949   2.651   0.656   1.445 -1.0773 -2.3200 -0.0777
  650SOL    HW2 1950   2.775   0.767   1.383  1.0154  0.0152  0.8392
  651SOL     OW 1951   0.918   1.560   1.602  0.1438  0.0344 -0.1970
  651SOL    HW1 1952   0.967   1.649   1.609  0.4949  0.5780 -0.1476
  651SOL    HW2 1953   0.926   1.504   1.512 -0.0368 -2.3600 -1.4549
  652SOL     OW 1954   2.321   2.445   2.495 -0.4254  0.6781 -0.1515
  652SOL    HW1 1955   2.254   2.381   2.539  0.4474  3.3623  0.4841
  652SOL    HW2 1956   2.281   2.495   2.410  0.1433  0.1132  0.3040
  653SOL     OW 1957   2.707   1.241   0.185 -0.4555 -0.9202 -0.1096
  653SOL    HW1 1958   2.766   1.325   0.195 -0.2665  1.2159 -0.3875
  653SOL    HW2 1959   2.754   1.154   0.209  0.7862 -1.6294 -4.4580
  654SOL     OW 1960   1.278   2.244   1.267  0.4461 -0.2448  0.2229
  654SOL    HW1 1961   1.265   2.171   1.343  2.2749 -1.1483 -1.4333
  654SOL    HW2 1962   1.314   2.203   1.174  0.6466  0.2961 -1.4975
  655SOL     OW 1963   0.158   0.939   1.927 -0.1407  0.4247 -0.8622
  655SOL    HW1 1964   0.202   0.855   1.880  0.0540 -0.3592 -0.6726
  655SOL    HW2 1965   0.231   1.014   1.921  1.5327 -1.0412 -1.4159
  656SOL     OW 1966   2.556   2.499   2.642 -0.6170 -0.0373 -0.3531
  656SOL    HW1 1967   2.636   2.461   2.592 -2.4059  1.4301 -0.0514
  656SOL    HW2 1968   2.466   2.457   2.599  0.2116  2.0051 -0.9848
  657SOL     OW 1969   3.001   1.049   1.939  0.3249 -0.1313  0.0149
  657SOL    HW1 1970   2.997   1.150   1.958 -0.3860 -1.3389  1.4375
  657SOL    HW2 1971   3.100   1.007   1.926  1.0320  1.2706  0.2738
  658SOL     OW 1972   1.693   0.224   2.397  0.5116  0.2087  0.5029
  658SOL    HW1 1973   1.725   0.139   2.454  0.6179  0.1881  1.5636
  658SOL    HW2 1974   1.727   0.222   2.297  1.4373 -2.7938 -0.7320
  659SOL     OW 1975   1.442   0.631   2.919  0.6207 -0.1287  1.2043
  659SOL    HW1 1976   1.502   0.716   2.918  0.8528  0.2719  0.3347
  659SOL    HW2 1977   1.341   0.661   2.896  0.5443  1.0477 -1.4216
  660SOL     OW 1978   1.412   0.349   1.440 -0.2466  0.5313  0.3955
  660SOL    HW1 1979   1.478   0.372   1.522 -1.0246 -0.8660 -0.5041
  660SOL    HW2 1980   1.446   0.269   1.383 -3.6823 -1.2080  1.0003
  661SOL     OW 1981   2.478   1.195   0.674  0.4286  0.2313  0.0159
  661SOL    HW1 1982   2.446   1.158   0.580 -0.7221 -0.1279 -1.7001
  661SOL    HW2 1983   2.443   1.289   0.691 -1.7660 -0.2505  0.3231
  662SOL     OW 1984   1.388   0.456   1.796 -0.1853  0.4916  0.4457
  662SOL    HW1 1985   1.326   0.372   1.783  0.8446  0.4163  1.1194
  662SOL    HW2 1986   1.406   0.479   1.896 -2.8840  1.2145  0.6882
  663SOL     OW 1987   0.749   1.530   2.228  0.5806  0.0627  0.1577
  663SOL    HW1 1988   0.703   1.612   2.270 -0.0918  1.4586 -1.7910
  663SOL    HW2 1989   0.717   1.506   2.140 -0.5281  0.9183  0.5053
  664SOL     OW 1990   1.625   2.087   1.449 -0.0833  0.1545 -0.0325
  664SOL    HW1 1991   1.557   2.017   1.482 -0.2039  0.0399  2.2551
  664SOL    HW2 1992   1.725   2.063   1.474  2.3812 -0.4067  0.4525
  665SOL     OW 1993   2.267   0.658   1.931 -0.0734 -0.1644  0.3882
  665SOL    HW1 1994   2.260   0.558   1.944  2.0558  2.8631 -0.5282
  665SOL    HW2 1995   2.310   0.706   2.015  1.9738 -1.3218 -0.0994
  666SOL     OW 1996   0.367   2.353   0.352  0.0656  0.6247  0.2653
  666SOL    HW1 1997   0.423   2.379   0.437 -1.8247 -0.0462 -0.6075
  666SOL    HW2 1998   0.269   2.320   0.380 -1.6622  2.1961  1.1544
  667SOL     OW 1999   1.986   0.171   1.177  0.5044 -1.1265 -0.7084
  667SOL    HW1 2000   1.961   0.258   1.130 -0.1785 -1.2686  2.4826
  667SOL    HW2 2001   1.917   0.142   1.252 -1.0705  1.9256  1.1993
  668SOL     OW 2002   2.015   0.496   1.157  0.4905  0.4248  0.5754
  668SOL    HW1 2003   2.084   0.545   1.103 -1.4416  0.1042  0.9420
  668SOL    HW2 2004   2.049   0.461   1.249 -1.3444  1.3512 -1.3394
  669SOL     OW 2005   3.102   2.184   1.007 -0.1249  0.2092  0.2185
  669SOL    HW1 2006   3.033   2.211   0.939 -2.6994 -0.7501 -1.2790
  669SOL    HW2 2007   3.071   2.217   1.100 -4.1364 -0.7859  2.2498
  670SOL     OW 2008   2.840   2.334   1.950  0.0057 -0.5231 -0.2533
  670SOL    HW1 2009   2.786   2.308   2.039  0.3512 -0.5019  2.0293
  670SOL    HW2 2010   2.837   2.432   1.933  1.6339 -0.9791  1.4736
  671SOL     OW 2011   1.753   1.728   1.485  0.2817  0.3934  0.4830
  671SOL    HW1 2012   1.802   1.782   1.407  2.9366 -0.9142 -0.7527
  671SOL    HW2 2013   1.679   1.662   1.452 -1.8405  0.1619 -1.1757
  672SOL     OW 2014   0.395   0.621   2.398 -0.3098 -0.0007 -0.1942
  672SOL    HW1 2015   0.456   0.653   2.320  0.0492  2.1514 -2.4988
  672SOL    HW2 2016   0.302   0.663   2.391  0.6857 -0.5251  0.7175
  673SOL     OW 2017   0.115   1.159   1.137 -0.3428  0.6130  0.1484
  673SOL    HW1 2018   0.133   1.210   1.225 -2.4017 -1.2106 -1.1585
  673SOL    HW2 2019   0.192   1.100   1.101 -0.6494 -2.7477  1.4650
  674SOL     OW 2020   1.629   2.951   0.232 -0.3345 -0.5634  0.3401
  674SOL    HW1 2021   1.643   3.025   0.161  0.4496 -1.3865 -3.3649
  674SOL    HW2 2022   1.656   2.859   0.194 -1.8265  0.8780 -0.9069
  675SOL     OW 2023   1.710   0.825   2.334 -0.1590  0.1972 -0.7381
  675SOL    HW1 2024   1.803   0.806   2.286 -1.1576 -0.2934 -1.5246
  675SOL    HW2 2025   1.644   0.747   2.303 -2.5637 -3.4774  0.6315
  676SOL     OW 2026   2.487   1.448   2.000 -0.1408 -0.3920  0.5125
  676SOL    HW1 2027   2.477   1.437   1.896 -1.2978  0.7235 -2.1029
  676SOL    HW2 2028   2.568   1.406   2.042 -0.8836  1.5674 -2.2628
  677SOL     OW 2029   1.937   0.697   0.850  0.2764  0.6313  0.1963
  677SOL    HW1 2030   1.977   0.732   0.935 -2.6412  1.3819  1.3132
  677SOL    HW2 2031   1.933   0.595   0.847  1.2794  1.1093 -0.1393
  678SOL     OW 2032   0.005   0.760   1.676 -0.0806  0.0502 -0.0245
  678SOL    HW1 2033   0.109   0.767   1.694  1.1264  0.0033  1.6580
  678SOL    HW2 2034  -0.047   0.760   1.763  1.2291  1.0966 -1.9871
  679SOL     OW 2035   2.598   1.180   1.083  0.4926  0.2898  0.1562
  679SOL    HW1 2036   2.502   1.216   1.104  0.4443 -0.4719 -0.3075
  679SOL    HW2 2037   2.613   1.077   1.086 -1.5607 -0.9736  0.7918
  680SOL     OW 2038   2.793   0.626   1.717  0.0241  0.3374  0.3349
  680SOL    HW1 2039   2.782   0.653   1.618 -0.9470 -2.3961 -0.5213
  680SOL    HW2 2040   2.835   0.699   1.781  0.2263  0.3217 -0.5561
  681SOL     OW 2041   3.015   0.191   1.660  0.6120  0.2668 -0.5578
  681SOL    HW1 2042   3.081   0.190   1.583  0.2215 -0.7813  4.3561
  681SOL    HW2 2043   2.931   0.256   1.645 -1.7545  0.7180  3.2653
  682SOL     OW 2044   0.756   0.007   1.310 -0.8190  1.0189 -0.0455
  682SOL    HW1 2045   0.679  -0.050   1.362 -1.9080 -1.0735 -2.0139
  682SOL    HW2 2046   0.774  -0.035   1.212 -0.7010  0.9967 -1.9754
  683SOL     OW 2047   1.344   0.190   2.205 -0.2428 -0.6785 -0.1433
  683SOL    HW1 2048   1.368   0.238   2.295  0.8731 -0.0033 -0.9399
  683SOL    HW2 2049   1.390   0.227   2.122  1.9009 -0.1429  1.7347
  684SOL     OW 2050   1.446   2.117   0.529  0.2515  0.0671  0.3433
  684SOL    HW1 2051   1.485   2.052   0.600  0.4928 -1.4310  0.4082
  684SOL    HW2 2052   1.360   2.077   0.479  0.3654 -0.8677  0.0468
  685SOL     OW 2053   2.137   1.987   1.977  0.3371 -0.0317  0.2055
  685SOL    HW1 2054   2.212   1.972   1.911 -0.3907 -1.4597 -1.6775
  685SOL    HW2 2055   2.142   1.936   2.071  1.8234 -2.3083  2.5567
  686SOL     OW 2056   1.517   1.795   2.743 -0.2250  0.3023  0.1020
  686SOL    HW1 2057   1.553   1.776   2.839 -2.2148  0.6067  0.8519
  686SOL    HW2 2058   1.525   1.715   2.677  0.8037 -1.9673  3.3318
  687SOL     OW 2059   1.260   2.492   1.991 -0.4496 -0.3930 -0.0328
  687SOL    HW1 2060   1.250   2.390   1.990  0.2310  2.7869  1.0423
  687SOL    HW2 2061   1.349   2.526   2.036 -0.4065  5.8762 -1.3895
  688SOL     OW 2062   2.064   1.567   1.745  0.4972  1.0831  0.3687
  688SOL    HW1 2063   2.166   1.592   1.740 -1.1451  1.6160 -1.2079
  688SOL    HW2 2064   2.039   1.522   1.656  2.2370 -0.8445  0.3171
  689SOL     OW 2065   2.446   1.063   2.674  0.1724 -0.2133 -0.7738
  689SOL    HW1 2066   2.339   1.057   2.678  0.0485  2.1143 -0.0116
  689SOL    HW2 2067   2.497   1.076   2.765  0.4051  1.1907  1.9659
  690SOL     OW 2068   2.257   2.801   0.018 -0.1466  0.2172  0.4729
  690SOL    HW1 2069   2.189   2.765  -0.051 -0.5249 -1.7908  1.0575
  690SOL    HW2 2070   2.204   2.821   0.108 -2.9101  2.5047 -1.3230
  691SOL     OW 2071   2.588   0.483   2.223 -0.0955  0.2767  0.1741
  691SOL    HW1 2072   2.632   0.409   2.165 -0.7474 -2.6456 -0.9713
  691SOL    HW2 2073   2.602   0.581   2.178  0.9892  1.9058 -0.6482
  692SOL     OW 2074   2.764   1.226   0.713  0.0394  0.0782 -0.2235
  692SOL    HW1 2075   2.668   1.221   0.679  1.8461 -1.6575 -0.2994
  692SOL    HW2 2076   2.776   1.302   0.786 -0.5890  2.2041  0.0149
  693SOL     OW 2077   2.802   2.938   0.647 -0.3875  0.4973  0.6480
  693SOL    HW1 2078   2.813   3.027   0.701 -1.4819 -1.5464  1.1523
  693SOL    HW2 2079   2.767   2.955   0.552  1.8372 -3.1821  0.2121
  694SOL     OW 2080   2.361   2.190   0.076  0.4991  0.2451 -0.0028
  694SOL    HW1 2081   2.334   2.286   0.113 -1.5127  0.7399  0.9559
  694SOL    HW2 2082   2.285   2.147   0.018 -0.1507  0.6953  1.4362
  695SOL     OW 2083   0.591   2.948   1.466  0.1035 -0.5028  0.5263
  695SOL    HW1 2084   0.524   2.878   1.414  0.5761 -3.7878 -0.2472
  695SOL    HW2 2085   0.541   2.993   1.548 -1.9432  0.8123 -0.2602
  696SOL     OW 2086   2.818   1.949   0.781  0.6562  0.1233  0.0152
  696SOL    HW1 2087   2.844   1.892   0.861 -1.5164 -0.7374  1.1789
  696SOL    HW2 2088   2.834   1.904   0.689  3.4454 -0.4343  1.2125
  697SOL     OW 2089   1.614   2.058   1.818  0.3267  0.2897 -0.2777
  697SOL    HW1 2090   1.685   1.991   1.833 -2.3045  0.9439  0.8672
  697SOL    HW2 2091   1.655   2.150   1.789  0.7192  2.5644  0.1092
  698SOL     OW 2092   2.936   0.438   2.752 -0.1660  0.0587  0.0632
  698SOL    HW1 2093   2.936   0.388   2.661  1.6988  0.3560  1.5018
  698SOL    HW2 2094   2.979   0.391   2.835  0.1247 -2.3363  1.9865
  699SOL     OW 2095   1.568   0.090   2.926 -0.1686  0.2058 -0.3994
  699SOL    HW1 2096   1.564  -0.009   2.880 -1.2975 -0.6723 -0.7180
  699SOL    HW2 2097   1.632   0.150   2.869 -0.6733  0.9945  1.1187
  700SOL     OW 2098   1.000   2.299   1.319  0.4250 -0.2788 -0.3799
  700SOL    HW1 2099   1.100   2.268   1.307  2.9102  0.4501 -0.1376
  700SOL    HW2 2100   0.932   2.261   1.253 -0.1336 -0.9969  1.9849
  701SOL     OW 2101   1.945   2.836   3.068  0.0364  0.1283  0.7178
  701SOL    HW1 2102   1.903   2.787   3.147  0.1246 -0.6389 -0.4804
  701SOL    HW2 2103   1.990   2.924   3.094  1.0217  1.4493 -1.9250
  702SOL     OW 2104   2.063   1.347   1.943 -0.6165 -0.0209 -1.0636
  702SOL    HW1 2105   2.158   1.302   1.928 -1.2752  0.3392  0.4646
  702SOL    HW2 2106   2.025   1.402   1.867 -0.5925 -0.3210 -1.6814
  703SOL     OW 2107   1.955   0.892   1.426  0.3752  0.0550 -0.0705
  703SOL    HW1 2108   1.938   0.798   1.460 -1.1474 -0.4971 -0.6301
  703SOL    HW2 2109   2.016   0.945   1.491 -2.1588 -2.2600  2.3663
  704SOL     OW 2110   0.331   2.051   1.662  0.5007 -0.2229  0.4171
  704SOL    HW1 2111   0.322   1.971   1.725 -0.5102  1.7686 -1.5843
  704SOL    HW2 2112   0.402   2.127   1.677  2.7210 -0.1046  0.4082
  705SOL     OW 2113   2.479   1.441   0.966 -0.0156 -0.5898  0.2563
  705SOL    HW1 2114   2.434   1.421   0.874 -0.6557 -0.5195 -1.4347
  705SOL    HW2 2115   2.562   1.386   0.986 -1.8586 -0.8453  0.4019
  706SOL     OW 2116   0.671   1.671   1.829  0.2391 -0.0306 -0.3579
  706SOL    HW1 2117   0.682   1.572   1.871 -1.5348 -1.1699  1.3051
  706SOL    HW2 2118   0.696   1.739   1.906 -0.9558 -1.3360  0.1659
  707SOL     OW 2119   2.286   1.201   1.885 -0.0641 -0.2145 -0.1861
  707SOL    HW1 2120   2.371   1.180   1.938 -0.7571  0.0429 -1.6915
  707SOL    HW2 2121   2.238   1.115   1.853 -1.4442 -1.7853 -1.6051
  708SOL     OW 2122   3.021   0.526   3.060 -0.7253  0.2083 -0.6535
  708SOL    HW1 2123   3.051   0.597   2.986 -1.0347  0.5883  0.4836
  708SOL    HW2 2124   3.016   0.421   3.030 -0.5439 -4.0314  3.5313
  709SOL     OW 2125   1.815   1.848   0.199 -0.3845 -0.1475  0.0192
  709SOL    HW1 2126   1.829   1.942   0.239 -1.5435 -1.4282 -0.4629
  709SOL    HW2 2127   1.815   1.840   0.097  0.8750  1.2773 -0.9065
  710SOL     OW 2128   1.712   1.625   2.430 -0.0041 -0.0920 -0.5681
  710SOL    HW1 2129   1.759   1.616   2.341 -2.8904 -1.3648 -1.0352
  710SOL    HW2 2130   1.727   1.555   2.505 -0.0768 -1.0253  1.2612
  711SOL     OW 2131   2.685   2.990   0.961  0.0657  0.1492  0.1685
  711SOL    HW1 2132   2.644   3.075   0.916  0.8286 -1.3065  0.8735
  711SOL    HW2 2133   2.789   2.994   0.965  0.0520 -3.6544 -0.3282
  712SOL     OW 2134   1.346   2.206   1.985  0.3557  0.3308 -0.5022
  712SOL    HW1 2135   1.441   2.226   2.016  0.7587 -1.8295 -1.4875
  712SOL    HW2 2136   1.338   2.178   1.886 -0.7444 -0.7766  1.1944
  713SOL     OW 2137   2.948   1.445   2.565 -0.0998 -0.3864  0.4854
  713SOL    HW1 2138   2.872   1.376   2.543  0.5435  1.3569 -1.4621
  713SOL    HW2 2139   2.947   1.490   2.661  0.2658 -1.0506 -0.3128
  714SOL     OW 2140   2.687   0.506   2.481 -0.2261  0.7354 -0.6801
  714SOL    HW1 2141   2.634   0.445   2.546 -1.0576  3.4030  0.2043
  714SOL    HW2 2142   2.642   0.513   2.389 -0.0242 -3.1935 -2.7897
  715SOL     OW 2143   1.608   2.033   1.185 -0.1366  0.4193  0.6973
  715SOL    HW1 2144   1.516   2.043   1.145 -0.6040  0.8880  1.3639
  715SOL    HW2 2145   1.615   2.084   1.278  0.4759 -0.8305  1.2427
  716SOL     OW 2146   1.224   0.110   1.460 -0.1384  0.5556 -0.1265
  716SOL    HW1 2147   1.121   0.101   1.463  0.0196  1.5019  2.9979
  716SOL    HW2 2148   1.250   0.208   1.456 -3.2150 -0.3928 -2.7819
  717SOL     OW 2149   1.129   0.538   1.592 -0.3595  0.4560 -0.1488
  717SOL    HW1 2150   1.220   0.581   1.618  0.8693  0.2183 -1.2688
  717SOL    HW2 2151   1.133   0.530   1.490  1.5879  1.4899 -0.2013
  718SOL     OW 2152   0.697   0.928   0.996  0.6483 -0.1862 -0.2757
  718SOL    HW1 2153   0.672   0.916   0.896  1.7746 -3.6401  1.9981
  718SOL    HW2 2154   0.662   1.017   1.034  2.6313 -1.6659 -0.2586
  719SOL     OW 2155   0.656   1.776   2.312  0.8661  0.2934 -0.5609
  719SOL    HW1 2156   0.709   1.826   2.387  0.2954 -1.1837 -0.4324
  719SOL    HW2 2157   0.567   1.742   2.351  2.0535  1.1247  4.8480
  720SOL     OW 2158   2.191   1.165   0.295  0.2319  0.0258 -0.0988
  720SOL    HW1 2159   2.217   1.075   0.260 -0.4687 -0.1712  0.3447
  720SOL    HW2 2160   2.174   1.163   0.396 -0.5474  0.5165 -2.3847
  721SOL     OW 2161   2.260   2.989   2.131  0.1190  0.2273  0.4097
  721SOL    HW1 2162   2.205   3.018   2.044  3.4358 -2.8321 -2.8059
  721SOL    HW2 2163   2.217   3.031   2.220 -2.4773  1.7502  0.9318
  722SOL     OW 2164   2.396   1.596   0.490 -0.2635  0.2629  0.1660
  722SOL    HW1 2165   2.429   1.517   0.430 -0.5022  1.6704 -1.0636
  722SOL    HW2 2166   2.350   1.672   0.432  1.6565  4.0116 -2.1311
  723SOL     OW 2167   2.516   2.720   1.982  0.0465  0.4610  0.1740
  723SOL    HW1 2168   2.586   2.778   2.034  2.0579 -2.8310  0.4369
  723SOL    HW2 2169   2.417   2.735   2.018 -0.9524  0.1833  3.6736
  724SOL     OW 2170   0.534   2.478   2.428  0.4264 -0.3806 -0.0449
  724SOL    HW1 2171   0.435   2.448   2.439 -1.9719 -1.1132  0.5842
  724SOL    HW2 2172   0.572   2.517   2.519  0.3382  2.8655  2.1396
  725SOL     OW 2173   2.455   2.796   1.493 -0.9429  0.2457 -0.3523
  725SOL    HW1 2174   2.473   2.789   1.393  1.9913 -2.6010  0.8839
  725SOL    HW2 2175   2.404   2.710   1.531  0.1422  1.0000  1.8791
  726SOL     OW 2176   2.480   2.246   0.702 -0.5066 -0.1915  0.5770
  726SOL    HW1 2177   2.468   2.344   0.669  1.4166 -4.4262 -0.2154
  726SOL    HW2 2178   2.458   2.183   0.624 -0.5892 -0.9589 -0.9578
  727SOL     OW 2179   0.146   3.080   0.028 -0.3138  0.2942  0.0586
  727SOL    HW1 2180   0.183   2.995   0.070 -0.5868  0.5001 -1.3634
  727SOL    HW2 2181   0.157   3.092  -0.074 -0.1582 -1.3967  1.8537
  728SOL     OW 2182   2.893   0.673   0.973 -0.1512  0.5919  0.1921
  728SOL    HW1 2183   2.798   0.675   0.935 -0.9133  0.8526 -2.0932
  728SOL    HW2 2184   2.897   0.638   1.076  2.7776  0.7226  1.7196
  729SOL     OW 2185   3.024   2.476   0.750  0.5559 -0.4024  0.0523
  729SOL    HW1 2186   2.968   2.428   0.826 -3.5035  1.9488  3.0270
  729SOL    HW2 2187   3.130   2.453   0.742  0.8556  0.1513 -0.4814
  730SOL     OW 2188   2.634   0.663   0.823 -0.3067 -0.1512 -0.0558
  730SOL    HW1 2189   2.592   0.758   0.817 -1.2372  2.3099  1.1760
  730SOL    HW2 2190   2.678   0.623   0.739  4.7713  2.7132  1.1509
  731SOL     OW 2191   0.125   2.125   2.456  0.1393  1.1205 -0.3853
  731SOL    HW1 2192   0.077   2.174   2.530  0.8980  0.7931  0.4041
  731SOL    HW2 2193   0.196   2.190   2.415 -1.1555  1.2415 -3.2038
  732SOL     OW 2194   1.133   2.833   1.946  0.1524  0.5120  0.3925
  732SOL    HW1 2195   1.185   2.802   2.034  1.3173 -0.5366  0.3531
  732SOL    HW2 2196   1.155   2.769   1.863 -0.4516 -0.7655 -1.9188
  733SOL     OW 2197   3.040   0.582   2.238  0.0684 -0.1158  0.4336
  733SOL    HW1 2198   3.102   0.627   2.169  0.8651 -0.1826  2.0302
  733SOL    HW2 2199   2.955   0.531   2.194 -5.2860  0.4767 -1.3606
  734SOL     OW 2200   1.403   0.363   2.767  0.3293 -0.6643 -0.0664
  734SOL    HW1 2201   1.405   0.443   2.837  0.0701  3.0739 -0.3542
  734SOL    HW2 2202   1.317   0.308   2.770  0.3610  1.1536 -1.1057
  735SOL     OW 2203   2.890   2.630   2.266 -0.2610 -0.0553 -0.3339
  735SOL    HW1 2204   2.867   2.603   2.167  2.4568  0.8733 -3.6545
  735SOL    HW2 2205   2.982   2.678   2.274 -2.1834  2.5283 -0.8393
  736SOL     OW 2206   0.772   0.297   2.662 -0.6939 -0.4346  0.5720
  736SOL    HW1 2207   0.676   0.311   2.678  2.4664 -1.3581  1.1141
  736SOL    HW2 2208   0.791   0.256   2.571 -2.0414  1.5190 -1.2592
  737SOL     OW 2209   2.681   0.467   2.875  0.3093 -1.3043  0.0919
  737SOL    HW1 2210   2.669   0.420   2.967  0.7193  0.0877  0.4479
  737SOL    HW2 2211   2.775   0.446   2.835  1.0737  1.7065 -0.0760
  738SOL     OW 2212   1.632   1.284   2.908  0.0085 -0.2491 -0.2817
  738SOL    HW1 2213   1.725   1.251   2.874  0.2894 -0.4208  0.1364
  738SOL    HW2 2214   1.564   1.209   2.899  1.9108  1.1215  2.1964
  739SOL     OW 2215   1.735   0.615   0.692  0.5338 -0.2883  0.0555
  739SOL    HW1 2216   1.779   0.670   0.775  1.0285 -0.4463  2.6223
  739SOL    HW2 2217   1.804   0.550   0.646  0.6946 -0.3128  0.4553
  740SOL     OW 2218   1.984   1.911   2.216  0.7104  0.5180 -0.1995
  740SOL    HW1 2219   2.043   1.854   2.278 -1.3744 -2.0037  0.3412
  740SOL    HW2 2220   1.885   1.875   2.204  2.6272  2.2966  1.2728
  741SOL     OW 2221   2.527   0.040   2.605  0.1687  0.0372  0.0418
  741SOL    HW1 2222   2.628   0.016   2.614 -0.5374 -0.6859 -1.0291
  741SOL    HW2 2223   2.497   0.045   2.507  2.9274 -0.9159 -0.2855
  742SOL     OW 2224   2.235   1.427   0.243 -0.1031  0.0826  0.5491
  742SOL    HW1 2225   2.161   1.487   0.284 -4.6957 -0.5959 -0.2687
  742SOL    HW2 2226   2.213   1.329   0.267  2.7113 -0.5343  1.6674
  743SOL     OW 2227   1.854   0.679   2.614 -0.1279  0.0358  0.5187
  743SOL    HW1 2228   1.827   0.616   2.535  1.5603  0.7590  3.4878
  743SOL    HW2 2229   1.786   0.754   2.641 -1.9851  1.7502 -0.9050
  744SOL     OW 2230   2.607   2.094   0.132  0.2629 -0.4911 -0.2476
  744SOL    HW1 2231   2.520   2.140   0.138 -2.4042 -1.4628 -1.3065
  744SOL    HW2 2232   2.594   1.991   0.131 -1.8648 -0.7496 -1.7272
  745SOL     OW 2233   2.179   2.612   2.346  0.2459  0.2045  0.2415
  745SOL    HW1 2234   2.083   2.610   2.305 -0.4371 -0.4330  2.0022
  745SOL    HW2 2235   2.193   2.666   2.435  3.8764 -1.5886 -1.3158
  746SOL     OW 2236   0.004   2.624   1.711 -0.2487  0.5606  0.2403
  746SOL    HW1 2237   0.073   2.620   1.635 -3.3595  1.7345  0.1712
  746SOL    HW2 2238   0.014   2.700   1.777 -1.5233  0.8228 -2.6090
  747SOL     OW 2239   0.024   1.782   1.643 -0.8118  0.2444 -0.4641
  747SOL    HW1 2240  -0.030   1.693   1.632  1.6352  2.6497  0.0225
  747SOL    HW2 2241   0.089   1.797   1.568 -1.7961 -0.2760 -1.9934
  748SOL     OW 2242   1.825   2.741   2.830  0.4756 -0.1337 -0.0098
  748SOL    HW1 2243   1.867   2.799   2.901  4.6935  0.9068 -0.9364
  748SOL    HW2 2244   1.730   2.708   2.848 -1.4311 -2.3117 -1.5254
  749SOL     OW 2245   1.294   3.056   0.960 -0.8626  0.3800  0.1689
  749SOL    HW1 2246   1.201   3.007   0.953  0.4588  0.4205 -2.0089
  749SOL    HW2 2247   1.358   3.021   0.892 -0.8004  0.6435  0.1993
  750SOL     OW 2248   2.319   0.182   1.879  0.6534 -0.0874 -0.2628
  750SOL    HW1 2249   2.312   0.227   1.783  0.2688  1.9694  1.2521
  750SOL    HW2 2250   2.332   0.253   1.953 -0.4681 -2.0724 -1.6052
  751SOL     OW 2251   0.898   2.141   2.746  0.0139  0.1199 -0.4597
  751SOL    HW1 2252   0.963   2.175   2.821  0.2327  2.4673  0.6602
  751SOL    HW2 2253   0.806   2.119   2.786  0.2457  3.3530 -1.0345
  752SOL     OW 2254   1.295   0.877   1.372  0.0943  0.0583  0.2567
  752SOL    HW1 2255   1.373   0.950   1.349  1.0161  1.4794 -0.9579
  752SOL    HW2 2256   1.326   0.773   1.368 -1.3861 -2.1244 -0.8898
  753SOL     OW 2257   0.922   2.571   1.687  0.1988  0.1209  0.4917
  753SOL    HW1 2258   1.018   2.597   1.718  2.3446  1.1865 -0.3550
  753SOL    HW2 2259   0.873   2.653   1.646 -1.2789 -0.4171  3.5341
  754SOL     OW 2260   1.105   1.233   3.048  0.4019  0.4336  0.9277
  754SOL    HW1 2261   1.161   1.168   2.994 -0.2809  2.5052 -1.8139
  754SOL    HW2 2262   1.131   1.330   3.036 -0.5581  1.2310 -1.0147
  755SOL     OW 2263   1.977   0.452   2.227 -0.2220 -0.1154 -0.1114
  755SOL    HW1 2264   2.033   0.364   2.237 -0.1331 -2.5913  0.4824
  755SOL    HW2 2265   1.924   0.469   2.313 -0.1930 -1.5716  1.0198
  756SOL     OW 2266   2.542   1.032   2.952  0.0900  0.1808  0.1040
  756SOL    HW1 2267   2.641   1.020   2.982 -1.1135 -2.3025 -1.0076
  756SOL    HW2 2268   2.485   0.950   2.992 -1.4038 -4.0437  0.4231
  757SOL     OW 2269  -0.001   0.462   1.798 -0.3860 -0.5837 -0.7261
  757SOL    HW1 2270   0.060   0.457   1.712 -1.2492 -2.7380 -0.8429
  757SOL    HW2 2271   0.026   0.409   1.880 -2.5405 -1.8036 -0.7990
  758SOL     OW 2272   2.384   0.096   1.449  0.1200  0.0037 -0.4310
  758SOL    HW1 2273   2.324   0.025   1.488 -1.0665  1.0805 -0.0963
  758SOL    HW2 2274   2.359   0.098   1.349  0.3601 -2.2810 -3.0879
  759SOL     OW 2275   1.721   0.079   0.068  0.4116  0.4435  0.3492
  759SOL    HW1 2276   1.680   0.095  -0.025  1.1825  0.4884  0.6937
  759SOL    HW2 2277   1.816   0.037   0.061 -0.5055  0.2121 -1.2218
  760SOL     OW 2278   2.723   2.072   2.814  0.1454 -0.3204  0.3567
  760SOL    HW1 2279   2.736   1.990   2.879  0.3385 -2.1520  0.7286
  760SOL    HW2 2280   2.720   2.161   2.864 -0.5760 -1.9612  0.7789
  761SOL     OW 2281   1.896   1.765   1.720 -0.2213  0.6517 -0.0145
  761SOL    HW1 2282   1.955   1.677   1.735  1.1567  0.2129 -0.8885
  761SOL    HW2 2283   1.822   1.751   1.641 -0.5031  1.4644 -1.0182
  762SOL     OW 2284   0.471   2.340   0.980 -0.2736 -0.7147 -0.1528
  762SOL    HW1 2285   0.546   2.364   0.917 -0.8003  1.8545  0.7623
  762SOL    HW2 2286   0.479   2.400   1.062 -1.0000 -0.2260 -4.4365
  763SOL     OW 2287   2.063   1.505   2.912  0.1651  0.0134  0.0866
  763SOL    HW1 2288   2.158   1.485   2.949 -1.8997  2.4593 -3.1577
  763SOL    HW2 2289   1.992   1.443   2.957  2.4696  0.6392 -1.4855
  764SOL     OW 2290   0.629   0.623   0.847 -1.0878  0.5445 -0.4373
  764SOL    HW1 2291   0.596   0.546   0.785  3.5381 -1.1817 -0.7484
  764SOL    HW2 2292   0.722   0.610   0.888 -0.1794  0.8113 -0.5016
  765SOL     OW 2293   0.715   0.257   0.766 -0.0129 -0.0802  0.0749
  765SOL    HW1 2294   0.787   0.291   0.702  0.0201 -1.2083  1.7697
  765SOL    HW2 2295   0.710   0.305   0.856 -2.7445 -1.0170  3.7215
  766SOL     OW 2296   2.895   2.087   0.010  0.6369 -0.6352  0.0123
  766SOL    HW1 2297   2.814   2.100   0.073 -1.0969 -0.0609 -2.4744
  766SOL    HW2 2298   2.968   2.165   0.009  2.2740  2.8616 -0.8630
  767SOL     OW 2299   2.793   1.572   0.614  0.1078 -0.3669 -0.1667
  767SOL    HW1 2300   2.718   1.628   0.664 -0.4110  2.0711 -2.4209
  767SOL    HW2 2301   2.893   1.600   0.623 -3.4727  0.7829  0.2036
  768SOL     OW 2302   1.088   0.161   0.297 -0.0717  0.3612  0.6230
  768SOL    HW1 2303   1.019   0.120   0.357  3.3167 -0.0537  0.9492
  768SOL    HW2 2304   1.180   0.110   0.282  0.4274  1.3659  0.4428
  769SOL     OW 2305   0.986   1.905   2.216 -0.1050 -0.1445  0.0551
  769SOL    HW1 2306   0.904   1.931   2.279 -1.1272  1.9289  0.8732
  769SOL    HW2 2307   1.049   1.830   2.243  0.4000 -0.3987  0.7044
  770SOL     OW 2308   0.187   1.123   2.289 -0.4607  0.0007 -0.8117
  770SOL    HW1 2309   0.180   1.163   2.385 -0.1069 -1.9523  0.7639
  770SOL    HW2 2310   0.100   1.124   2.239  2.6098  1.2674 -0.3365
  771SOL     OW 2311   3.014   2.858   1.907  0.0294 -0.1071 -0.4159
  771SOL    HW1 2312   2.977   2.935   1.847  0.7162  1.7686  1.5971
  771SOL    HW2 2313   3.004   2.889   2.010 -1.0490  0.5424  0.1564
  772SOL     OW 2314   2.206   0.215   2.915  0.2103 -0.4200  0.4971
  772SOL    HW1 2315   2.296   0.177   2.905 -0.7996 -0.7574 -0.7810
  772SOL    HW2 2316   2.184   0.277   2.995  0.6964 -0.0029  2.5231
  773SOL     OW 2317   0.769   2.194   2.450  0.0275  0.0348  0.6656
  773SOL    HW1 2318   0.709   2.212   2.367 -2.2825 -1.0925 -0.8289
  773SOL    HW2 2319   0.720   2.190   2.536  0.1246 -0.7727 -0.8772
  774SOL     OW 2320   2.033   0.000   2.642 -0.3066  0.5394 -0.1482
  774SOL    HW1 2321   2.037   0.098   2.643 -0.5575 -0.9139 -3.2557
  774SOL    HW2 2322   2.100  -0.052   2.705  1.3387  0.1361  0.4966
  775SOL     OW 2323   2.541   2.840   2.423  0.0511  0.0586  0.2318
  775SOL    HW1 2324   2.503   2.918   2.370 -1.4258 -1.3475  0.8846
  775SOL    HW2 2325   2.624   2.850   2.481  0.5087  1.4581 -2.2703
  776SOL     OW 2326   0.016   1.319   0.187  0.0749 -0.3926  0.0807
  776SOL    HW1 2327  -0.018   1.246   0.117 -4.7043 -1.8112 -0.9062
  776SOL    HW2 2328  -0.027   1.309   0.281 -0.1169  0.3899  0.0110
  777SOL     OW 2329   0.296   2.857   0.409 -0.1715  0.4916 -0.2178
  777SOL    HW1 2330   0.208   2.905   0.434  1.0766 -1.6153  2.5317
  777SOL    HW2 2331   0.377   2.913   0.431 -2.1850 -0.8178  1.0597
  778SOL     OW 2332   1.303   1.975   0.195 -0.3494 -0.0490 -0.2330
  778SOL    HW1 2333   1.264   2.006   0.285  0.3363 -1.9443  1.2012
  778SOL    HW2 2334   1.364   2.053   0.156  2.5231  1.0523  1.2249
  779SOL     OW 2335   0.187   0.850   0.471  0.1376 -0.1384  0.4275
  779SOL    HW1 2336   0.145   0.758   0.447 -0.1097  0.9854  1.2548
  779SOL    HW2 2337   0.123   0.908   0.530 -2.2856  1.4871 -1.3639
  780SOL     OW 2338   0.086   0.224   2.218 -0.0160  0.4603 -0.1718
  780SOL    HW1 2339   0.129   0.317   2.247 -1.6208  0.6776 -1.0032
  780SOL    HW2 2340   0.154   0.166   2.164 -0.4284  1.7458 -1.5162
  781SOL     OW 2341   0.639   1.763   1.575 -0.7603 -0.3003 -0.0619
  781SOL    HW1 2342   0.676   1.730   1.670  1.9190 -0.6009  3.0843
  781SOL    HW2 2343   0.568   1.703   1.532  0.6742 -1.8000 -1.9872
  782SOL     OW 2344   2.607   0.191   0.894  0.6263 -0.0975 -0.1873
  782SOL    HW1 2345   2.517   0.184   0.846 -2.3025  1.2744  3.1549
  782SOL    HW2 2346   2.608   0.264   0.971  2.0770  0.4082 -0.0395
  783SOL     OW 2347   2.849   0.715   2.568 -0.0629 -0.4541 -0.7543
  783SOL    HW1 2348   2.799   0.758   2.648  0.6664 -0.6946  2.4047
  783SOL    HW2 2349   2.794   0.629   2.534 -0.8441 -4.5098 -0.0071
  784SOL     OW 2350   1.433   2.174   0.087 -0.4100  0.4933  0.1292
  784SOL    HW1 2351   1.502   2.245   0.113 -1.4561 -0.8310 -0.3720
  784SOL    HW2 2352   1.409   2.178  -0.012 -0.8808 -0.3003  0.5012
  785SOL     OW 2353   2.127   0.373   0.029 -0.2183  0.9336 -0.5230
  785SOL    HW1 2354   2.043   0.377   0.092 -1.0044 -0.9830  0.8388
  785SOL    HW2 2355   2.154   0.468   0.001 -0.7675 -2.0604 -2.5705
  786SOL     OW 2356   2.047   2.185   2.211 -0.2367  0.3488  0.3519
  786SOL    HW1 2357   2.039   2.083   2.208 -1.3922  1.7352 -0.3669
  786SOL    HW2 2358   2.143   2.202   2.239  1.3364 -1.2226  4.7846
  787SOL     OW 2359   1.420   0.632   0.965  0.4956  0.3007 -0.5221
  787SOL    HW1 2360   1.337   0.679   0.999  1.5243  0.4109 -0.9895
  787SOL    HW2 2361   1.419   0.624   0.864 -1.0373 -0.2314  0.2336
  788SOL     OW 2362   1.250   0.401   3.093  0.2189 -0.1611 -0.1954
  788SOL    HW1 2363   1.167   0.397   3.035 -1.6076  0.8638 -1.0863
  788SOL    HW2 2364   1.266   0.488   3.151 -1.7883  0.7801 -0.6227
  789SOL     OW 2365   2.583   0.058   1.806  0.6448 -0.8933 -0.7516
  789SOL    HW1 2366   2.493   0.077   1.855 -3.3343  0.4800  2.6782
  789SOL    HW2 2367   2.582  -0.037   1.766 -1.9898  1.9276  0.0053
  790SOL     OW 2368   2.585   2.717   0.822 -0.8930 -0.0660 -0.4459
  790SOL    HW1 2369   2.598   2.746   0.728  0.9611 -0.3383  2.4704
  790SOL    HW2 2370   2.621   2.793   0.884 -0.0265 -4.2476  2.0834
  791SOL     OW 2371   1.913   1.248   0.241 -0.1026  0.2421  0.6106
  791SOL    HW1 2372   1.843   1.171   0.253  0.9123 -4.0521 -0.7591
  791SOL    HW2 2373   2.010   1.213   0.262 -0.5076 -1.5056 -2.3535
  792SOL     OW 2374   0.446   1.995   2.138 -0.3275  0.1906  0.0008
  792SOL    HW1 2375   0.494   2.079   2.164  3.0698 -2.9529 -1.9518
  792SOL    HW2 2376   0.383   1.962   2.216  1.6909 -0.8088 -0.9666
  793SOL     OW 2377   2.100   1.577   2.125 -0.2513  0.5286 -0.5942
  793SOL    HW1 2378   2.190   1.627   2.103  4.0328  1.7477 -1.0586
  793SOL    HW2 2379   2.091   1.490   2.065  0.3913 -1.4650  1.4662
  794SOL     OW 2380   0.422   1.338   2.441 -0.1086  0.4510  0.3391
  794SOL    HW1 2381   0.424   1.304   2.341 -0.8790  1.7343  0.4528
  794SOL    HW2 2382   0.485   1.417   2.459  0.5822 -0.2385 -0.8580
  795SOL     OW 2383   2.384   2.291   1.689  0.0315  0.6501 -0.4105
  795SOL    HW1 2384   2.322   2.327   1.767  0.6655 -0.1429 -1.1724
  795SOL    HW2 2385   2.366   2.188   1.685  0.3234  0.9136  0.5548
  796SOL     OW 2386   3.077   1.102   2.663 -0.1816 -0.2006  0.2494
  796SOL    HW1 2387   2.981   1.085   2.707 -1.3734 -2.4878 -0.9854
  796SOL    HW2 2388   3.152   1.114   2.738  1.4904 -3.0370  3.0700
  797SOL     OW 2389   0.769   0.625   1.350 -0.5870  0.1013 -0.0075
  797SOL    HW1 2390   0.839   0.654   1.427  0.0987  2.1164  0.2629
  797SOL    HW2 2391   0.734   0.711   1.299 -0.0520  1.0309 -1.1329
  798SOL     OW 2392   1.343   0.399   1.121 -0.3553  0.3712  0.1306
  798SOL    HW1 2393   1.376   0.401   1.216 -0.2811  1.3123  0.8495
  798SOL    HW2 2394   1.368   0.485   1.061  2.1764  1.0350 -1.1551
  799SOL     OW 2395   1.923   2.615   1.049  0.0023 -0.7286  0.2006
  799SOL    HW1 2396   1.907   2.666   1.137  0.5666  1.7302  0.5590
  799SOL    HW2 2397   1.861   2.629   0.966  1.7632 -0.3688  0.6209
  800SOL     OW 2398   2.969   0.757   1.935  0.1891  0.3771  0.0491
  800SOL    HW1 2399   2.960   0.846   1.985 -3.5869 -1.5218 -0.7130
  800SOL    HW2 2400   3.015   0.682   1.985 -1.7006 -0.8718  0.0437
  801SOL     OW 2401   1.970   2.206   0.051 -0.2245 -0.1494 -0.5526
  801SOL    HW1 2402   1.888   2.194  -0.007  1.7773 -0.9371  0.5741
  801SOL    HW2 2403   2.051   2.149   0.010  3.1865  0.8021  1.2550
  802SOL     OW 2404   0.612   0.812   2.588 -0.3635  0.0277  0.1441
  802SOL    HW1 2405   0.621   0.709   2.581 -0.1301  0.7656  3.4078
  802SOL    HW2 2406   0.530   0.850   2.538 -0.7453  0.9559 -3.0082
  803SOL     OW 2407   0.961   0.057   0.794 -0.1611  0.1412  0.3393
  803SOL    HW1 2408   1.027   0.112   0.854  0.0236  1.5332  1.1608
  803SOL    HW2 2409   0.956   0.101   0.701 -0.8313  2.3642  0.5618
  804SOL     OW 2410   0.306   3.085   2.178  0.1868 -0.2643  0.4323
  804SOL    HW1 2411   0.334   3.182   2.151 -0.1758  1.7087  1.0230
  804SOL    HW2 2412   0.255   3.034   2.103 -0.8759 -2.0562  0.2530
  805SOL     OW 2413   2.345   0.395   0.393  0.1824  0.9339 -0.1250
  805SOL    HW1 2414   2.421   0.384   0.465  0.2950  2.6507 -0.7727
  805SOL    HW2 2415   2.367   0.350   0.297  1.0796 -4.1538  0.6447
  806SOL     OW 2416   0.651   2.467   1.765  0.1691 -0.4465 -0.0201
  806SOL    HW1 2417   0.620   2.563   1.796 -1.3397  0.9514  1.3359
  806SOL    HW2 2418   0.753   2.456   1.777 -0.4437 -2.9708 -0.2179
  807SOL     OW 2419   2.492   0.816   0.367  0.3857  0.0619  0.3101
  807SOL    HW1 2420   2.590   0.839   0.393 -1.6271 -0.8958 -0.1602
  807SOL    HW2 2421   2.469   0.878   0.288  0.8575 -0.1035 -0.7629
  808SOL     OW 2422   0.653   2.110   2.901 -0.2170  0.2560  0.3989
  808SOL    HW1 2423   0.601   2.161   2.975 -0.2513 -0.6933 -0.1342
  808SOL    HW2 2424   0.690   2.019   2.939  0.6404  1.8418 -0.1575
  809SOL     OW 2425   2.596   1.961   1.889  0.0435  0.0299  0.0259
  809SOL    HW1 2426   2.695   1.973   1.876 -1.3299  0.3972  1.0161
  809SOL    HW2 2427   2.539   1.950   1.805 -3.2947  1.9790  0.5646
  810SOL     OW 2428   2.159   1.125   0.546  0.3541  0.4773 -0.5516
  810SOL    HW1 2429   2.116   1.033   0.571  4.2912  2.4525 -0.5029
  810SOL    HW2 2430   2.105   1.202   0.594 -0.1805 -1.2089 -1.5558
  811SOL     OW 2431   1.336   2.500   1.225  0.5708  0.6361 -0.1068
  811SOL    HW1 2432   1.291   2.406   1.245  0.6457 -0.7184 -0.0607
  811SOL    HW2 2433   1.273   2.582   1.255 -1.1568  0.6968  0.0844
  812SOL     OW 2434   1.426   0.760   1.952  0.0535 -0.2884  0.3602
  812SOL    HW1 2435   1.440   0.854   1.995  2.1722  2.7582 -0.9382
  812SOL    HW2 2436   1.329   0.758   1.912  0.0427 -1.7684 -0.0834
  813SOL     OW 2437   1.642   2.052   2.529 -0.0594  0.3790 -0.1684
  813SOL    HW1 2438   1.708   1.974   2.555 -0.8420  2.2873 -0.4167
  813SOL    HW2 2439   1.602   2.043   2.434 -0.9013  1.1521  0.9512
  814SOL     OW 2440   2.937   1.570   2.804  0.0951  1.0040  0.0991
  814SOL    HW1 2441   3.017   1.550   2.875  0.6221 -0.3964 -0.5627
  814SOL    HW2 2442   2.945   1.667   2.767  2.2420  0.5243 -0.8325
  815SOL     OW 2443   2.188   2.911   2.787  0.1384  0.4829  0.3854
  815SOL    HW1 2444   2.158   2.843   2.858  1.4942  2.1352  1.3180
  815SOL    HW2 2445   2.271   2.969   2.825  1.3736 -0.9734 -0.0808
  816SOL     OW 2446   1.616   0.318   1.640  0.0763 -0.0672  0.3361
  816SOL    HW1 2447   1.630   0.213   1.637 -1.1256  0.5671 -0.7226
  816SOL    HW2 2448   1.559   0.355   1.718 -1.8107 -0.4099  1.1942
  817SOL     OW 2449   0.335   1.153   2.615  0.2703 -0.1651  0.1130
  817SOL    HW1 2450   0.248   1.186   2.666  0.5237  2.0226  1.5470
  817SOL    HW2 2451   0.366   1.236   2.554 -0.1664 -0.1698  0.0685
  818SOL     OW 2452   1.944   0.985   0.337 -0.2914 -0.3672  0.4445
  818SOL    HW1 2453   2.024   0.932   0.360 -0.7011  0.5829  0.3979
  818SOL    HW2 2454   1.884   1.015   0.420  0.0411 -0.1005  2.0134
  819SOL     OW 2455   2.735   2.955   2.983  0.7317 -0.3305  0.4166
  819SOL    HW1 2456   2.822   2.909   2.951  1.2381 -0.7919  0.9511
  819SOL    HW2 2457   2.650   2.913   2.950  0.9361 -0.0850  0.4070
  820SOL     OW 2458   1.214   1.045   0.587  0.0042  0.0908 -0.1058
  820SOL    HW1 2459   1.219   1.143   0.623 -0.4231 -0.5975  0.9334
  820SOL    HW2 2460   1.227   0.969   0.664  1.5431 -2.5272  1.3730
  821SOL     OW 2461   0.013   1.284   0.675 -0.3799 -0.1713  0.2094
  821SOL    HW1 2462  -0.004   1.282   0.773  2.4846 -2.2946 -2.6868
  821SOL    HW2 2463   0.065   1.365   0.644 -1.7857  1.7321  3.1057
  822SOL     OW 2464   2.593   1.795   2.433 -0.7990 -0.0292  0.2434
  822SOL    HW1 2465   2.574   1.828   2.530  0.0921  1.9411 -0.2261
  822SOL    HW2 2466   2.508   1.802   2.368  0.9027  0.0345 -1.4401
  823SOL     OW 2467   2.017   0.835   1.114 -0.2032 -0.5138 -0.8067
  823SOL    HW1 2468   1.981   0.795   1.202 -2.4427 -1.3237  2.1278
  823SOL    HW2 2469   1.945   0.890   1.062  1.3628 -2.4902 -2.4175
  824SOL     OW 2470   0.246   1.980   2.862 -0.9360  0.3617 -0.2979
  824SOL    HW1 2471   0.226   1.886   2.908 -0.4847 -0.0297 -1.3366
  824SOL    HW2 2472   0.297   1.977   2.771  0.0409  0.5310  1.3186
  825SOL     OW 2473   1.288   1.068   0.305 -0.0406 -0.5260 -0.5902
  825SOL    HW1 2474   1.251   1.159   0.269 -0.3486 -2.0299  1.1525
  825SOL    HW2 2475   1.277   1.056   0.410  2.2698 -1.2754  2.7468
  826SOL     OW 2476   1.910   0.647   1.561  0.7520  0.2801  0.0717
  826SOL    HW1 2477   1.998   0.604   1.597  0.9971  1.4102  0.7267
  826SOL    HW2 2478   1.843   0.589   1.505  1.7409 -1.0476 -0.0840
  827SOL     OW 2479   0.712   1.226   0.274  0.1391 -0.6242  0.7947
  827SOL    HW1 2480   0.761   1.182   0.198 -2.4862  1.6661  1.6462
  827SOL    HW2 2481   0.630   1.176   0.315  1.2176  2.4270 -1.1911
  828SOL     OW 2482   2.637   0.193   1.576 -0.1056 -0.3763 -0.0598
  828SOL    HW1 2483   2.554   0.167   1.523  1.8835 -0.6156  1.3477
  828SOL    HW2 2484   2.640   0.163   1.678  1.1722 -1.8514  0.3674
  829SOL     OW 2485   2.854   2.445   2.957  0.6473 -0.1663 -0.4235
  829SOL    HW1 2486   2.780   2.374   2.986 -1.4800  0.5253 -1.4792
  829SOL    HW2 2487   2.810   2.532   2.932  0.2401  0.9998  0.3177
  830SOL     OW 2488   2.808   0.961   3.054  0.5863  0.1861 -0.0607
  830SOL    HW1 2489   2.885   1.031   3.059 -1.3644  1.6814  1.2360
  830SOL    HW2 2490   2.826   0.865   3.090  0.0906 -0.8861 -0.7551
  831SOL     OW 2491   0.020   0.633   0.381  1.3292 -0.1382 -0.0385
  831SOL    HW1 2492  -0.024   0.591   0.468  0.4434  1.5612 -0.4302
  831SOL    HW2 2493   0.051   0.567   0.307  0.1386 -1.0129 -1.2016
  832SOL     OW 2494   1.829   0.792   3.023  0.3110 -0.1163  0.0769
  832SOL    HW1 2495   1.736   0.817   2.989 -0.1993  0.2420  1.2268
  832SOL    HW2 2496   1.833   0.691   3.048  2.2874  0.4201  0.7001
  833SOL     OW 2497   2.447   2.103   0.471  0.7295  0.0486 -0.8536
  833SOL    HW1 2498   2.355   2.086   0.424  0.6143 -4.3950 -1.7654
  833SOL    HW2 2499   2.505   2.017   0.490 -0.8874  2.4932  1.7477
  834SOL     OW 2500   0.107   0.240   0.489  0.0719 -0.1568  0.0926
  834SOL    HW1 2501   0.023   0.201   0.543 -2.9541  1.0106  0.4129
  834SOL    HW2 2502   0.100   0.209   0.391 -0.2261 -1.0420 -0.4897
  835SOL     OW 2503   2.319   1.537   1.160  0.4598 -0.5024  0.4158
  835SOL    HW1 2504   2.360   1.637   1.170  4.3159  0.6551 -1.9098
  835SOL    HW2 2505   2.369   1.494   1.081  3.0499 -1.5058  0.1309
  836SOL     OW 2506   1.631   0.843   2.604 -0.2508  0.1096  0.2011
  836SOL    HW1 2507   1.531   0.821   2.629  1.3753  0.9677  0.0396
  836SOL    HW2 2508   1.657   0.832   2.502  2.1212 -0.3914  2.5631
  837SOL     OW 2509   1.610   0.097   0.570 -0.6666  0.3287  0.3973
  837SOL    HW1 2510   1.578   0.160   0.643  0.9443  1.1375 -1.5685
  837SOL    HW2 2511   1.598   0.135   0.476 -0.2083 -0.8720 -1.5149
  838SOL     OW 2512   1.227   1.483   2.754 -0.4687 -1.0119 -0.4446
  838SOL    HW1 2513   1.196   1.497   2.852 -2.3428  1.2233 -1.9075
  838SOL    HW2 2514   1.145   1.440   2.702 -1.3778 -2.5937  0.3268
  839SOL     OW 2515   1.735   0.271   1.006 -0.4868  0.2668 -0.6699
  839SOL    HW1 2516   1.741   0.347   1.077 -1.9912  0.0551 -0.9002
  839SOL    HW2 2517   1.672   0.190   1.028 -0.7158  1.1792  0.0277
  840SOL     OW 2518   2.569   2.901   1.743 -0.7733 -0.8210  0.5110
  840SOL    HW1 2519   2.558   2.874   1.641 -1.2490  0.4300  1.9006
  840SOL    HW2 2520   2.547   2.826   1.808 -0.3233  0.2671 -2.1250
  841SOL     OW 2521   1.576   0.882   2.947  0.0064  0.8426 -0.2029
  841SOL    HW1 2522   1.507   0.881   3.023  2.5909  0.0104 -0.0344
  841SOL    HW2 2523   1.567   0.965   2.887  2.1681 -0.9822  2.2082
  842SOL     OW 2524   0.827   1.511   0.920  0.1021 -0.1419 -0.2849
  842SOL    HW1 2525   0.789   1.599   0.968 -1.4078  1.3425  1.1285
  842SOL    HW2 2526   0.743   1.454   0.889 -1.5098 -1.4129 -2.9534
  843SOL     OW 2527   0.099   0.122   1.465  0.2769  0.7609  0.7281
  843SOL    HW1 2528   0.194   0.153   1.497 -0.0490 -2.0505  1.6408
  843SOL    HW2 2529   0.084   0.027   1.502 -0.1193  0.3889  1.5347
  844SOL     OW 2530   0.800   2.516   0.304 -0.4058  0.1337  0.2344
  844SOL    HW1 2531   0.727   2.484   0.371  1.7940 -1.2541 -0.3239
  844SOL    HW2 2532   0.747   2.549   0.221  1.5310 -1.0812  1.3726
  845SOL     OW 2533   1.617   2.880   1.372  0.5436 -0.4015  0.2721
  845SOL    HW1 2534   1.670   2.875   1.461  1.0301  2.3325  1.8687
  845SOL    HW2 2535   1.531   2.935   1.384  0.3513 -0.2383  0.8387
  846SOL     OW 2536   1.554   2.966   0.833  0.8364  0.3200  0.1503
  846SOL    HW1 2537   1.528   2.946   0.734  0.2688 -0.7105  0.8213
  846SOL    HW2 2538   1.660   2.981   0.839 -0.6662  1.7767  2.6580
  847SOL     OW 2539   2.020   1.637   0.268  0.5803  0.5625 -0.1703
  847SOL    HW1 2540   1.979   1.577   0.343 -0.1966 -0.6183 -1.3052
  847SOL    HW2 2541   1.956   1.643   0.186 -2.7951 -0.9027 -2.5365
  848SOL     OW 2542   2.513   0.773   2.636 -0.3197 -0.6008  0.3006
  848SOL    HW1 2543   2.498   0.873   2.635 -1.1706 -0.5244 -2.3990
  848SOL    HW2 2544   2.445   0.723   2.578  0.1498  2.6758  3.0262
  849SOL     OW 2545   2.551   0.841   2.336 -0.5627 -0.0399 -0.3777
  849SOL    HW1 2546   2.643   0.831   2.287  0.2950 -0.3638 -0.9054
  849SOL    HW2 2547   2.527   0.761   2.397 -1.6309  0.7680 -1.9034
  850SOL     OW 2548   1.523   0.131   1.346 -0.0977  0.0855 -0.1103
  850SOL    HW1 2549   1.529   0.091   1.250 -4.0415 -3.2888 -0.5836
  850SOL    HW2 2550   1.468   0.065   1.408 -2.7072 -0.1932  0.4845
  851SOL     OW 2551   0.473   1.752   0.615  0.3989 -0.1871  0.2277
  851SOL    HW1 2552   0.475   1.857   0.595 -0.8497 -0.3804 -2.6287
  851SOL    HW2 2553   0.565   1.709   0.599 -0.2550  1.5963  1.7543
  852SOL     OW 2554   0.783   2.179   1.671  0.2860 -0.3990  0.2641
  852SOL    HW1 2555   0.789   2.280   1.630  1.0176  4.3143  0.3950
  852SOL    HW2 2556   0.699   2.153   1.727 -0.0336 -0.5443 -0.7387
  853SOL     OW 2557   2.503   1.563   2.599 -0.2566 -0.1046  0.3194
  853SOL    HW1 2558   2.488   1.473   2.557 -0.8400  2.5828 -2.3070
  853SOL    HW2 2559   2.515   1.635   2.525 -0.9878  0.2795 -0.1392
  854SOL     OW 2560   2.507   1.368   1.719  0.8552 -0.6013  0.6395
  854SOL    HW1 2561   2.525   1.365   1.619 -0.4855  0.6331  2.1030
  854SOL    HW2 2562   2.450   1.288   1.757  1.8806 -1.9213 -1.2775
  855SOL     OW 2563   2.109   2.358   0.960  0.2235 -0.0776 -0.3681
  855SOL    HW1 2564   2.118   2.448   0.910 -4.0064 -1.0235  0.6410
  855SOL    HW2 2565   2.154   2.371   1.054 -1.6594  1.0279 -1.6740
  856SOL     OW 2566   1.372   1.504   0.851  0.0630 -0.2620 -0.3321
  856SOL    HW1 2567   1.460   1.542   0.898 -0.8739 -4.2714 -0.2209
  856SOL    HW2 2568   1.286   1.550   0.893 -2.8528 -1.4514  2.6535
  857SOL     OW 2569   2.999   2.649   1.042 -1.5060 -0.0937 -0.1326
  857SOL    HW1 2570   2.923   2.583   1.072  1.8053 -0.5518 -2.6071
  857SOL    HW2 2571   3.048   2.611   0.956  0.2716  0.3794 -1.5112
  858SOL     OW 2572   2.292   2.027   1.731 -0.6973  0.5291 -0.3360
  858SOL    HW1 2573   2.197   2.043   1.694 -1.8039 -2.4007 -1.2396
  858SOL    HW2 2574   2.354   1.986   1.654  0.6716  2.4351 -2.5722
  859SOL     OW 2575   2.475   0.546   1.033 -0.7521  0.0152 -0.0805
  859SOL    HW1 2576   2.545   0.577   0.960  1.3461 -1.4364 -1.0383
  859SOL    HW2 2577   2.512   0.457   1.080 -0.0698  0.5589 -0.7669
  860SOL     OW 2578   1.924   2.814   0.422  0.6417  0.4122  0.4283
  860SOL    HW1 2579   1.894   2.774   0.328 -1.8869  0.9331 -1.0413
  860SOL    HW2 2580   2.009   2.860   0.429 -2.8946  1.2887  0.1091
  861SOL     OW 2581   1.062   2.529   2.824 -0.0173  0.4306  0.6063
  861SOL    HW1 2582   1.138   2.601   2.795  0.4963 -0.0456 -2.0742
  861SOL    HW2 2583   1.088   2.490   2.919  1.1663  1.0412  1.2023
  862SOL     OW 2584   2.854   2.532   1.607 -0.4652  0.1290 -0.3296
  862SOL    HW1 2585   2.940   2.573   1.651  0.4111  0.9279  1.5649
  862SOL    HW2 2586   2.795   2.593   1.548  1.8634  0.0787 -1.1527
  863SOL     OW 2587   1.838   2.705   0.192 -0.3079 -0.1027 -0.2477
  863SOL    HW1 2588   1.884   2.611   0.188 -0.5608 -3.0050  0.0456
  863SOL    HW2 2589   1.735   2.694   0.186  0.9057  0.2988 -2.9881
  864SOL     OW 2590   1.896   1.177   2.853 -0.4277  0.0391  0.2173
  864SOL    HW1 2591   1.884   1.088   2.797 -1.8209 -0.8262  0.1352
  864SOL    HW2 2592   1.964   1.167   2.932 -1.3084  0.3703  3.1524
  865SOL     OW 2593   2.230   1.845   0.593 -0.6066 -0.3735 -0.0646
  865SOL    HW1 2594   2.298   1.828   0.671 -1.1052 -0.1596  1.5360
  865SOL    HW2 2595   2.137   1.798   0.615 -1.8590  0.1430  2.5372
  866SOL     OW 2596   2.988   2.931   1.011 -0.1666 -0.2890 -1.1203
  866SOL    HW1 2597   2.983   2.966   0.916 -2.3015 -1.4484  1.3300
  866SOL    HW2 2598   2.988   2.826   1.022 -2.1993 -1.6825  0.6977
  867SOL     OW 2599   0.365   1.374   0.905  0.3708 -0.4672  0.1603
  867SOL    HW1 2600   0.332   1.305   0.830  1.4717 -0.1585 -1.0623
  867SOL    HW2 2601   0.319   1.464   0.897  2.5825  0.3796 -3.0956
  868SOL     OW 2602   0.715   1.854   2.022  0.2079  0.9361  0.2050
  868SOL    HW1 2603   0.681   1.833   2.118 -0.0177 -0.0453 -0.9244
  868SOL    HW2 2604   0.698   1.955   1.991  0.0672  1.3823 -0.7356
  869SOL     OW 2605   2.534   1.946   1.598 -0.0907 -0.0583 -0.2083
  869SOL    HW1 2606   2.608   2.010   1.632 -0.3364 -0.8961 -0.5205
  869SOL    HW2 2607   2.573   1.851   1.570  1.5627 -0.1551  1.6696
  870SOL     OW 2608   2.315   2.650   1.280 -0.0644  0.2598  0.2535
  870SOL    HW1 2609   2.293   2.552   1.243  1.4811 -1.3681 -0.4429
  870SOL    HW2 2610   2.252   2.684   1.348 -0.1924  3.9258 -2.2254
  871SOL     OW 2611   3.003   2.148   0.564 -0.6731 -0.4044 -0.2908
  871SOL    HW1 2612   2.959   2.229   0.615 -3.2107 -1.4211  0.0178
  871SOL    HW2 2613   2.935   2.113   0.493  1.1866 -1.9504 -2.6154
  872SOL     OW 2614   2.113   0.473   1.691  0.3334 -0.0592 -0.3000
  872SOL    HW1 2615   2.110   0.484   1.793 -0.9644 -1.2862 -2.0140
  872SOL    HW2 2616   2.204   0.437   1.665 -1.7728 -0.2960 -0.3999
  873SOL     OW 2617   1.711   2.106   3.045  0.2556 -0.3706  0.0470
  873SOL    HW1 2618   1.647   2.097   3.128  0.4679 -0.2336  2.0858
  873SOL    HW2 2619   1.659   2.104   2.954  0.1861  0.4469 -1.3971
  874SOL     OW 2620   0.675   2.435   0.790 -0.1078  0.3122  0.4404
  874SOL    HW1 2621   0.644   2.518   0.842  0.4250 -1.1921 -0.1576
  874SOL    HW2 2622   0.779   2.417   0.797  3.3628  1.6212  1.7837
  875SOL     OW 2623   2.268   1.559   1.431 -0.2387 -0.4955  0.4111
  875SOL    HW1 2624   2.353   1.569   1.480 -0.3353 -3.0018 -0.3668
  875SOL    HW2 2625   2.285   1.550   1.326  0.5121  0.8440 -0.1939
  876SOL     OW 2626   0.070   2.246   2.749 -0.3238  0.7536 -0.2402
  876SOL    HW1 2627   0.136   2.165   2.774 -0.0797 -1.7563  0.1131
  876SOL    HW2 2628   0.115   2.344   2.750  0.0416 -1.7666  0.8922
  877SOL     OW 2629   2.890   2.693   0.574  0.0530  0.6077 -0.2900
  877SOL    HW1 2630   2.848   2.786   0.608 -0.5396  1.1435 -0.7076
  877SOL    HW2 2631   2.931   2.638   0.649 -2.0649  2.9977 -0.7283
  878SOL     OW 2632   2.827   1.530   2.190 -0.8815  0.1553 -0.3564
  878SOL    HW1 2633   2.921   1.487   2.220  1.3296  2.3511 -0.3225
  878SOL    HW2 2634   2.785   1.596   2.259 -0.0634  0.5079 -1.2217
  879SOL     OW 2635   2.358   0.069   1.154  0.2994  0.0660 -0.2026
  879SOL    HW1 2636   2.430  -0.003   1.162 -0.5625  0.3886  0.6421
  879SOL    HW2 2637   2.276   0.035   1.100 -1.1388  1.3919 -0.2817
  880SOL     OW 2638   0.712   0.488   2.247 -0.6119  0.3761 -0.4521
  880SOL    HW1 2639   0.655   0.436   2.316 -1.8798  0.5079 -0.7942
  880SOL    HW2 2640   0.765   0.424   2.184  0.3387 -0.1793 -1.6709
  881SOL     OW 2641   0.878   0.065   0.470  0.8907  0.1857  0.1972
  881SOL    HW1 2642   0.914  -0.033   0.488  0.1932 -0.6039 -1.9279
  881SOL    HW2 2643   0.797   0.053   0.403 -1.5448 -2.3241 -1.5794
  882SOL     OW 2644   2.719   1.721   1.663  0.0364 -0.2504 -0.4510
  882SOL    HW1 2645   2.823   1.745   1.646  1.2386  0.9941 -1.5451
  882SOL    HW2 2646   2.696   1.693   1.761  0.4122 -0.2748  2.0451
  883SOL     OW 2647   0.873   0.595   0.981  0.2384  0.5915 -0.0107
  883SOL    HW1 2648   0.906   0.680   1.022  1.2134 -0.0731 -0.8299
  883SOL    HW2 2649   0.903   0.514   1.037  1.4669  0.5526  0.4792
  884SOL     OW 2650   1.192   1.788   1.172 -0.5486 -0.0350 -0.2479
  884SOL    HW1 2651   1.164   1.700   1.141 -1.7404  2.1474 -0.2097
  884SOL    HW2 2652   1.133   1.861   1.123  0.4436 -1.0972 -2.5368
  885SOL     OW 2653   2.365   1.804   2.292  0.1256  0.3863 -0.1513
  885SOL    HW1 2654   2.273   1.781   2.338 -0.9439 -0.7139  2.3763
  885SOL    HW2 2655   2.356   1.904   2.266  2.7689  0.3560 -1.4905
  886SOL     OW 2656   2.602   0.412   1.789 -0.5864 -0.0648  0.1814
  886SOL    HW1 2657   2.657   0.353   1.852 -1.2038 -1.2118 -1.1539
  886SOL    HW2 2658   2.645   0.502   1.760 -1.7036 -0.6806  0.6555
  887SOL     OW 2659   0.102   2.040   1.294  0.0656 -0.1667 -0.6721
  887SOL    HW1 2660   0.025   2.004   1.235 -1.3914 -2.5886 -1.3497
  887SOL    HW2 2661   0.128   2.135   1.268 -0.2417 -0.0273  0.0559
  888SOL     OW 2662   0.575   1.275   1.537  0.3103  0.5493  0.1019
  888SOL    HW1 2663   0.619   1.302   1.446  0.6003  1.3966  2.0252
  888SOL    HW2 2664   0.513   1.189   1.534 -1.9248  1.2591 -0.3228
  889SOL     OW 2665   0.798   2.491   2.152  0.0159  0.7715  0.1401
  889SOL    HW1 2666   0.746   2.406   2.183  0.5448  0.3382  0.7498
  889SOL    HW2 2667   0.854   2.463   2.065 -2.5020 -0.2991  0.6602
  890SOL     OW 2668   2.418   2.456   0.207  0.0207 -0.0158  0.1538
  890SOL    HW1 2669   2.449   2.543   0.161 -2.1853  1.9032  1.9326
  890SOL    HW2 2670   2.367   2.476   0.294 -0.3964 -1.9631 -1.0246
  891SOL     OW 2671   2.588   1.681   0.735  0.7964 -0.1586  1.1869
  891SOL    HW1 2672   2.603   1.736   0.826 -0.5492  1.2740  0.6552
  891SOL    HW2 2673   2.515   1.605   0.732 -0.2176  0.8637  3.2832
  892SOL     OW 2674   0.380   0.274   2.152  0.0843 -0.9296 -0.2388
  892SOL    HW1 2675   0.347   0.356   2.093 -0.5721 -0.6436 -1.5436
  892SOL    HW2 2676   0.412   0.305   2.247 -2.5074 -0.7242 -0.5185
  893SOL     OW 2677   1.681   0.275   2.745 -0.0258 -0.0854 -0.1974
  893SOL    HW1 2678   1.754   0.340   2.780  0.3409 -1.9508  1.0100
  893SOL    HW2 2679   1.581   0.305   2.764 -0.1606 -0.2463  0.0170
  894SOL     OW 2680   2.161   1.999   3.073  0.7098 -0.4237  0.4539
  894SOL    HW1 2681   2.122   1.939   2.993  0.2190 -2.0413 -1.6546
  894SOL    HW2 2682   2.179   1.951   3.163 -2.0654  1.8410 -1.1212
  895SOL     OW 2683   2.828   1.422   0.933  0.4277 -0.0176 -0.3056
  895SOL    HW1 2684   2.911   1.369   0.956  0.7195  1.2397  2.4031
  895SOL    HW2 2685   2.851   1.516   0.895  0.7178 -2.1920 -0.0361
  896SOL     OW 2686   1.803   1.818   1.209  0.4023  0.3413 -0.1291
  896SOL    HW1 2687   1.812   1.755   1.127  1.5619 -0.3544 -1.1163
  896SOL    HW2 2688   1.751   1.901   1.185  1.0254  0.6888 -0.2328
  897SOL     OW 2689   0.327   0.590   0.046 -0.2211 -0.0483  0.1978
  897SOL    HW1 2690   0.277   0.627  -0.042 -2.4726  1.6590  0.7641
  897SOL    HW2 2691   0.427   0.582   0.018  0.9253 -0.6816  0.3894
  898SOL     OW 2692   0.585   2.894   1.109 -0.0174 -0.1251  0.1755
  898SOL    HW1 2693   0.516   2.972   1.125 -1.6185 -0.8998  0.2774
  898SOL    HW2 2694   0.638   2.860   1.196 -0.3897  0.1802  0.0320
  899SOL     OW 2695   2.789   0.901   1.271 -0.1559 -0.3405 -0.4202
  899SOL    HW1 2696   2.728   0.897   1.186 -1.0446 -1.0195  1.1298
  899SOL    HW2 2697   2.882   0.946   1.258 -0.5784  1.3364  2.7044
  900SOL     OW 2698   1.043   2.567   2.382  0.4002  0.2390 -0.1479
  900SOL    HW1 2699   0.970   2.572   2.310 -2.1819  0.9826 -0.5119
  900SOL    HW2 2700   1.005   2.576   2.478  0.6340 -1.4745 -1.0521
  901SOL     OW 2701   1.919   2.348   1.331 -0.7194  0.2876  0.0830
  901SOL    HW1 2702   1.902   2.312   1.230  1.5369 -1.4968 -2.9312
  901SOL    HW2 2703   2.019   2.343   1.359  0.4776  1.2963  1.1722
  902SOL     OW 2704   2.565   1.647   1.439 -0.4597  0.2331  0.5365
  902SOL    HW1 2705   2.622   1.649   1.523 -1.7620 -1.6459 -1.6175
  902SOL    HW2 2706   2.619   1.646   1.349 -2.1214 -1.4974  0.5348
  903SOL     OW 2707   0.273   2.488   1.975  0.2274 -0.0126  0.2726
  903SOL    HW1 2708   0.177   2.451   1.964  0.8461 -1.2932  3.7714
  903SOL    HW2 2709   0.300   2.550   1.898 -0.3698 -3.2965  1.2293
  904SOL     OW 2710   2.076   0.791   2.503 -0.0467 -0.3707 -0.0783
  904SOL    HW1 2711   2.017   0.737   2.574  0.2643  0.2921 -0.6712
  904SOL    HW2 2712   2.039   0.794   2.408 -0.6931  1.4973  0.3887
  905SOL     OW 2713   2.795   0.074   2.564 -0.6288 -0.1662  0.2252
  905SOL    HW1 2714   2.864   0.005   2.538 -0.3583  1.6339  1.3324
  905SOL    HW2 2715   2.821   0.173   2.546 -1.4666 -1.7715 -2.0213
  906SOL     OW 2716   0.153   1.738   1.899  0.3804  0.6591 -0.4789
  906SOL    HW1 2717   0.105   1.761   1.810 -1.7183  1.7400  1.1691
  906SOL    HW2 2718   0.243   1.791   1.900  0.2719 -2.3756 -1.0579
  907SOL     OW 2719   0.171   2.436   1.004 -0.4852 -0.4814  0.1385
  907SOL    HW1 2720   0.266   2.415   0.963 -1.6502  0.6283 -3.0228
  907SOL    HW2 2721   0.122   2.352   1.049 -1.9255 -0.1616 -0.9334
  908SOL     OW 2722   2.712   2.978   0.373 -0.6051 -0.4511 -0.3227
  908SOL    HW1 2723   2.691   3.057   0.306 -0.3162  0.1460  0.1948
  908SOL    HW2 2724   2.779   2.912   0.335  2.1734 -0.5774  1.5687
  909SOL     OW 2725   0.765   1.027   2.644 -0.3861  0.1606  0.1633
  909SOL    HW1 2726   0.716   0.933   2.630  0.2123  0.2419 -1.2780
  909SOL    HW2 2727   0.846   1.040   2.578  0.7409 -0.7564  0.0901
  910SOL     OW 2728   1.701   1.856   2.151  0.0377 -0.0935 -0.0033
  910SOL    HW1 2729   1.741   1.896   2.060  2.0549 -2.1912  1.4522
  910SOL    HW2 2730   1.626   1.911   2.196 -0.4002 -0.7062  1.4998
  911SOL     OW 2731   1.818   2.908   1.562  0.3082  0.0787 -0.4655
  911SOL    HW1 2732   1.877   2.875   1.485  0.0516  1.6686 -0.2739
  911SOL    HW2 2733   1.830   2.851   1.649 -0.5974 -2.9419  0.1089
  912SOL     OW 2734   2.880   0.972   0.719  0.6497 -0.3893  0.0266
  912SOL    HW1 2735   2.897   0.948   0.817  0.2586  2.3204 -0.4206
  912SOL    HW2 2736   2.854   1.072   0.696 -1.1793  0.1607 -0.7988
  913SOL     OW 2737   2.580   1.295   1.463 -0.3970  0.2594 -0.0320
  913SOL    HW1 2738   2.603   1.197   1.486 -0.4120  0.7221  1.1926
  913SOL    HW2 2739   2.640   1.336   1.392 -1.5977 -1.6224  0.0834
  914SOL     OW 2740   2.904   0.561   1.215  0.2202  0.2971 -0.1751
  914SOL    HW1 2741   2.932   0.462   1.214  2.4494 -1.3850  0.4936
  914SOL    HW2 2742   2.872   0.580   1.313  0.5076 -2.0676  0.1653
  915SOL     OW 2743   1.213   0.773   1.082  0.7668 -0.3013 -0.1325
  915SOL    HW1 2744   1.262   0.818   1.161  0.6260 -3.8676 -1.8022
  915SOL    HW2 2745   1.116   0.765   1.105  1.8695  2.1010 -1.0417
  916SOL     OW 2746   0.600   0.025   0.669  0.1381  0.2428  0.3082
  916SOL    HW1 2747   0.651   0.104   0.712  0.4783 -1.0032  0.8355
  916SOL    HW2 2748   0.572   0.041   0.572 -0.4147 -0.6856 -0.8153
  917SOL     OW 2749   2.836   2.615   1.944  0.3339  0.0122 -0.2129
  917SOL    HW1 2750   2.740   2.630   1.921 -0.1322  1.1434  2.2968
  917SOL    HW2 2751   2.887   2.706   1.939 -0.3032  1.1571  0.8581
  918SOL     OW 2752   1.050   2.192   2.984 -0.1434  0.4060 -0.7976
  918SOL    HW1 2753   1.002   2.223   3.074  0.1546 -0.5956  2.1493
  918SOL    HW2 2754   1.095   2.099   3.002 -0.3814 -1.2441 -0.4228
  919SOL     OW 2755   0.849   1.678   2.802  0.0979 -0.1314 -0.4970
  919SOL    HW1 2756   0.887   1.751   2.738  1.5849 -1.1605 -0.1034
  919SOL    HW2 2757   0.816   1.589   2.764 -1.4606  2.2687  0.4507
  920SOL     OW 2758   1.226   1.890   2.432  0.1766 -0.2918  0.2253
  920SOL    HW1 2759   1.307   1.874   2.365  1.6903 -3.2294  0.2209
  920SOL    HW2 2760   1.214   1.809   2.496  0.0749 -0.5256 -1.4915
  921SOL     OW 2761   1.028   0.018   2.625  0.3973 -0.0848 -0.5202
  921SOL    HW1 2762   1.060   0.043   2.532 -1.4665 -0.3741  2.5468
  921SOL    HW2 2763   0.941  -0.043   2.619  1.3573 -1.6686 -1.1086
  922SOL     OW 2764   2.149   2.385   2.772 -0.3596  0.3177 -0.3664
  922SOL    HW1 2765   2.170   2.287   2.789  0.7693  0.0577  1.0281
  922SOL    HW2 2766   2.096   2.403   2.689 -2.2146 -0.8321  2.2667
  923SOL     OW 2767   1.239   2.659   0.257 -0.3649  0.4319  0.0742
  923SOL    HW1 2768   1.301   2.730   0.300  0.2547  1.1790  1.6987
  923SOL    HW2 2769   1.273   2.563   0.263  0.6858 -0.5738 -0.9191
  924SOL     OW 2770   2.907   1.505   0.132  0.1278  0.3236 -0.4744
  924SOL    HW1 2771   2.832   1.472   0.070 -0.6307 -0.5443  1.3183
  924SOL    HW2 2772   3.001   1.492   0.093  1.5472 -1.3117 -1.0696
  925SOL     OW 2773   0.044   2.939   1.548 -0.1340 -0.5595 -0.6610
  925SOL    HW1 2774  -0.042   2.940   1.607  1.6864  1.3566  0.2004
  925SOL    HW2 2775   0.030   2.927   1.448  1.1586  5.8417 -0.3351
  926SOL     OW 2776   1.305   2.833   1.214  0.4323 -0.0851 -0.2054
  926SOL    HW1 2777   1.378   2.829   1.142 -1.8415  1.5046 -2.3108
  926SOL    HW2 2778   1.332   2.903   1.285 -0.4901  0.9227  0.6271
  927SOL     OW 2779   0.347   2.667   1.752  0.1660  0.0313 -0.4550
  927SOL    HW1 2780   0.321   2.627   1.657  2.7514  2.0791 -1.2467
  927SOL    HW2 2781   0.298   2.754   1.770 -0.1390 -0.8491 -1.4725
  928SOL     OW 2782   1.540   2.076   2.263  0.5332  0.1049 -0.2498
  928SOL    HW1 2783   1.547   2.167   2.206 -1.6675 -1.2742  0.0845
  928SOL    HW2 2784   1.441   2.039   2.252 -2.4400  0.0678 -2.5456
  929SOL     OW 2785   2.426   2.481   2.879  0.6595 -0.3219  0.2910
  929SOL    HW1 2786   2.341   2.433   2.846  3.2953 -0.9079  2.3474
  929SOL    HW2 2787   2.492   2.489   2.798  1.3346 -1.0409 -0.0288
  930SOL     OW 2788   2.186   1.969   1.073  0.0700 -0.2282 -0.1195
  930SOL    HW1 2789   2.165   1.935   1.169  0.6893  0.1217 -2.2210
  930SOL    HW2 2790   2.234   2.065   1.073  2.5820  0.5786  0.2828
  931SOL     OW 2791   0.559   1.713   2.705  0.1805  0.0402 -0.1238
  931SOL    HW1 2792   0.580   1.717   2.801 -2.7083  1.9828 -2.1019
  931SOL    HW2 2793   0.615   1.648   2.652 -5.4681  0.5938 -0.4694
  932SOL     OW 2794   0.437   0.105   2.950 -0.0362  0.1201  0.5008
  932SOL    HW1 2795   0.528   0.131   2.909  0.5059 -0.7189 -1.9722
  932SOL    HW2 2796   0.445   0.033   3.034 -1.2920 -2.2733 -0.4004
  933SOL     OW 2797   1.031   0.781   3.041  0.4996 -0.7221 -0.1140
  933SOL    HW1 2798   1.017   0.773   3.143  2.4867 -0.3424 -0.1693
  933SOL    HW2 2799   0.979   0.860   3.000 -0.6466  0.4190 -0.6190
  934SOL     OW 2800   0.798   2.933   2.644  0.6642 -0.4247  0.3368
  934SOL    HW1 2801   0.792   2.876   2.561  0.9430 -2.7608  3.2163
  934SOL    HW2 2802   0.867   2.893   2.710 -1.3385 -1.0893 -0.9926
  935SOL     OW 2803   3.094   0.562   0.846  0.0900 -0.1521  0.3571
  935SOL    HW1 2804   3.091   0.556   0.743  1.5999  2.6060 -0.1458
  935SOL    HW2 2805   3.007   0.604   0.884  4.0535 -0.0709 -0.4145
  936SOL     OW 2806   1.104   2.843   0.087  0.3962  0.5985 -0.0879
  936SOL    HW1 2807   1.141   2.895   0.006 -0.8777 -1.1455  3.4068
  936SOL    HW2 2808   1.160   2.764   0.118  0.0123 -0.3308 -2.8203
  937SOL     OW 2809   1.959   2.629   2.080 -0.0146  0.3329  0.5093
  937SOL    HW1 2810   1.939   2.695   2.155 -0.2625  1.0848 -0.0318
  937SOL    HW2 2811   2.004   2.677   1.994  1.5018 -1.1291 -1.9472
  938SOL     OW 2812   2.786   2.076   1.545 -0.1227 -0.4705 -0.3054
  938SOL    HW1 2813   2.738   2.169   1.536 -3.2854  0.9574  1.5567
  938SOL    HW2 2814   2.883   2.084   1.588  0.2162 -1.4563 -0.4278
  939SOL     OW 2815   2.799   1.206   2.514 -0.2512  0.2005 -0.2080
  939SOL    HW1 2816   2.863   1.179   2.438  1.8152  3.2937  0.7974
  939SOL    HW2 2817   2.812   1.166   2.606 -1.8529 -2.7534 -3.9411
  940SOL     OW 2818   1.032   0.442   2.725 -0.0853  0.8169  0.2206
  940SOL    HW1 2819   1.104   0.361   2.729 -1.0611  0.6260 -0.1052
  940SOL    HW2 2820   0.931   0.406   2.711  1.0630 -2.1794  1.5553
  941SOL     OW 2821   0.053   2.804   2.263  0.1373  0.3015  0.3771
  941SOL    HW1 2822   0.094   2.718   2.242  0.6814  1.6251 -1.5883
  941SOL    HW2 2823   0.111   2.862   2.327  2.0225  1.5432  2.7782
  942SOL     OW 2824   0.090   0.078   2.474 -0.7048 -0.6398 -0.2039
  942SOL    HW1 2825   0.125   0.115   2.566 -0.1665 -2.3711 -2.6133
  942SOL    HW2 2826   0.082   0.152   2.398  1.1795 -1.7394  0.5318
  943SOL     OW 2827   2.121   1.725   2.399  0.1397  0.1719  0.5767
  943SOL    HW1 2828   2.103   1.663   2.315  0.0999  0.6975 -0.4361
  943SOL    HW2 2829   2.110   1.671   2.489  1.2896  0.7872 -2.1025
  944SOL     OW 2830   2.181   2.347   1.472  0.4155  0.2132 -0.0937
  944SOL    HW1 2831   2.232   2.421   1.527 -3.7999 -0.6834  2.1250
  944SOL    HW2 2832   2.132   2.282   1.537  0.7430  2.1044  0.8289
  945SOL     OW 2833   0.710   1.501   0.263  0.2244 -0.4201  0.2587
  945SOL    HW1 2834   0.631   1.533   0.200  0.5092 -0.8768  1.9444
  945SOL    HW2 2835   0.711   1.397   0.274 -2.6157  1.2126  0.4911
  946SOL     OW 2836   0.400   0.948   2.443  0.0101 -0.3587  0.1274
  946SOL    HW1 2837   0.315   0.901   2.418  2.2018  2.3577  1.3109
  946SOL    HW2 2838   0.383   1.029   2.505 -0.0706 -0.4302 -0.3378
  947SOL     OW 2839   1.537   0.448   3.099  0.5123  0.2698  0.4548
  947SOL    HW1 2840   1.531   0.521   3.028  0.3991 -0.1067 -0.6050
  947SOL    HW2 2841   1.442   0.404   3.128  0.2014  1.5807 -1.3502
  948SOL     OW 2842   1.934   3.049   2.152  0.4859  0.2643 -0.2657
  948SOL    HW1 2843   1.947   3.000   2.062  3.3630 -0.9962 -1.8403
  948SOL    HW2 2844   1.913   2.979   2.227 -0.4947 -2.2159 -3.4574
  949SOL     OW 2845   0.544   2.486   0.533 -0.0363 -0.1812 -0.2671
  949SOL    HW1 2846   0.581   2.579   0.501  0.3713  2.3486  3.5627
  949SOL    HW2 2847   0.592   2.454   0.622  2.6844  1.6296  1.9426
  950SOL     OW 2848   0.205   2.200   3.025  0.8422 -0.3265  0.0580
  950SOL    HW1 2849   0.111   2.245   3.013 -0.6765 -1.1107  2.2655
  950SOL    HW2 2850   0.220   2.112   2.972  0.7711  2.5470 -0.4435
  951SOL     OW 2851   1.252   2.718   2.740 -0.4596  0.2423  0.0806
  951SOL    HW1 2852   1.333   2.714   2.683 -2.1744  3.8783 -0.4264
  951SOL    HW2 2853   1.176   2.781   2.705 -2.2974 -0.4163  0.5182
  952SOL     OW 2854   0.012   1.732   0.408 -0.3967 -0.6593  0.5896
  952SOL    HW1 2855   0.091   1.810   0.418  1.0767  3.8501 -0.6621
  952SOL    HW2 2856   0.030   1.656   0.480 -0.5141  0.1060 -1.6741
  953SOL     OW 2857   2.481   1.752   0.267 -0.4151  0.2353 -0.0139
  953SOL    HW1 2858   2.504   1.650   0.277  1.1035  0.6817 -1.5252
  953SOL    HW2 2859   2.493   1.789   0.174 -0.0024  0.4906  0.8953
  954SOL     OW 2860   2.211   0.556   0.967 -0.5653 -0.2752  0.0021
  954SOL    HW1 2861   2.192   0.583   0.867 -0.0458  0.0427  0.9185
  954SOL    HW2 2862   2.313   0.538   0.985 -2.2559  2.4717  0.4409
  955SOL     OW 2863   0.185   2.619   1.276 -0.1243  0.3295  0.1863
  955SOL    HW1 2864   0.106   2.679   1.299  2.8163  0.9399 -0.4461
  955SOL    HW2 2865   0.227   2.644   1.178 -0.3095  0.7659 -2.7713
  956SOL     OW 2866   2.768   2.434   2.445 -0.5612 -0.0684  0.0517
  956SOL    HW1 2867   2.757   2.334   2.435  1.0554 -1.7881 -2.5162
  956SOL    HW2 2868   2.801   2.477   2.354  0.7583 -1.4103 -0.0763
  957SOL     OW 2869   1.588   2.076   2.803  0.0984  0.0114 -0.5879
  957SOL    HW1 2870   1.529   2.001   2.763  0.4041  1.3352  0.3749
  957SOL    HW2 2871   1.652   2.111   2.732 -0.9370 -3.5000 -1.3102
  958SOL     OW 2872   2.640   2.290   3.010  0.0870  0.6369 -0.4217
  958SOL    HW1 2873   2.550   2.333   2.981 -0.4406  2.1033 -1.9500
  958SOL    HW2 2874   2.633   2.230   3.094  1.1403 -0.4209  1.2171
  959SOL     OW 2875   0.271   2.815   0.085 -0.0991 -0.4643 -0.3339
  959SOL    HW1 2876   0.179   2.799   0.036 -0.7199 -0.5714  1.9357
  959SOL    HW2 2877   0.287   2.741   0.154 -0.4827 -0.4934 -0.2397
  960SOL     OW 2878   2.014   0.462   1.962 -0.6895 -0.3122  0.1729
  960SOL    HW1 2879   1.945   0.528   1.915 -2.2682 -1.2136 -0.8640
  960SOL    HW2 2880   2.008   0.458   2.064  1.0182 -0.4839  1.8354
  961SOL     OW 2881   2.578   1.805   0.979 -0.2269  0.2989 -0.4830
  961SOL    HW1 2882   2.578   1.901   0.948  1.2736 -2.5249  1.3176
  961SOL    HW2 2883   2.561   1.802   1.080  1.4233 -0.8316 -0.7821
  962SOL     OW 2884   1.336   0.882   0.085 -0.5704 -0.0657 -0.0138
  962SOL    HW1 2885   1.255   0.893   0.016  0.5938  1.7933 -1.8389
  962SOL    HW2 2886   1.318   0.952   0.161 -0.3298 -0.8704 -0.1891
  963SOL     OW 2887   2.197   2.569   1.865  0.0692 -0.1148 -0.3023
  963SOL    HW1 2888   2.184   2.464   1.882 -1.6810 -3.2757 -0.2033
  963SOL    HW2 2889   2.230   2.619   1.948  0.3347  1.8185 -0.0629
  964SOL     OW 2890   2.369   0.349   1.662  0.0302  0.5609 -0.5933
  964SOL    HW1 2891   2.455   0.368   1.720  1.7276 -2.3838 -0.2068
  964SOL    HW2 2892   2.392   0.364   1.561  1.2890  0.7328 -2.1915
  965SOL     OW 2893   2.634   3.058   0.115 -0.0181 -0.1939  0.1515
  965SOL    HW1 2894   2.679   3.024   0.032 -1.3859  1.2105  1.1951
  965SOL    HW2 2895   2.551   3.113   0.078  0.5110  1.5012 -2.1242
  966SOL     OW 2896   2.530   2.502   2.211 -0.3578 -0.5178 -0.0375
  966SOL    HW1 2897   2.511   2.551   2.299 -0.9241 -1.4534 -1.5767
  966SOL    HW2 2898   2.504   2.550   2.122 -0.9564 -2.3966 -0.7244
  967SOL     OW 2899   2.793   2.799   2.495 -0.0456 -0.3561  0.2272
  967SOL    HW1 2900   2.810   2.740   2.414  0.9373  0.3546  1.0021
  967SOL    HW2 2901   2.874   2.863   2.508 -1.1586 -1.6313 -0.2434
  968SOL     OW 2902   1.919   0.984   2.619  0.4629  0.0805 -0.0018
  968SOL    HW1 2903   1.877   1.056   2.561  2.9017 -3.0068 -3.7799
  968SOL    HW2 2904   1.955   0.901   2.561  1.1527 -0.9573 -2.0549
  969SOL     OW 2905   2.813   2.462   1.078 -0.4145  0.4416 -0.6281
  969SOL    HW1 2906   2.765   2.426   0.996 -1.9770  0.3617  0.7420
  969SOL    HW2 2907   2.849   2.384   1.139  1.0734 -0.9132 -1.4216
  970SOL     OW 2908   1.034   2.124   1.791  0.2420  0.0206 -0.9512
  970SOL    HW1 2909   0.941   2.142   1.747  0.3502  1.3488  0.2345
  970SOL    HW2 2910   1.027   2.161   1.888  1.9082  0.4829 -0.5770
  971SOL     OW 2911   2.873   2.070   1.863 -0.1098 -0.0925  0.1057
  971SOL    HW1 2912   2.849   2.163   1.889  1.4049  0.3068 -3.6818
  971SOL    HW2 2913   2.948   2.072   1.794 -3.1640  1.0427  2.1472
  972SOL     OW 2914   1.999   2.477   0.212 -0.3867 -0.1527  0.0320
  972SOL    HW1 2915   1.981   2.388   0.158  1.7448 -1.5296 -3.0366
  972SOL    HW2 2916   2.049   2.469   0.306  1.9567 -1.4170 -0.6813
  973SOL     OW 2917   1.307   1.060   1.880 -0.3267  0.1831 -0.0476
  973SOL    HW1 2918   1.237   1.024   1.815  1.3328  0.5756 -1.2876
  973SOL    HW2 2919   1.268   1.143   1.931 -2.8381  0.9690 -0.1312
  974SOL     OW 2920   1.604   0.558   1.985 -0.0036 -0.1437  0.3144
  974SOL    HW1 2921   1.679   0.571   1.918  1.8979 -0.1529  2.5582
  974SOL    HW2 2922   1.532   0.628   1.980  1.6437  1.0457  3.3417
  975SOL     OW 2923   2.366   0.010   0.072 -0.2059  0.4998  0.0604
  975SOL    HW1 2924   2.325  -0.059   0.134 -1.1393  0.5362  0.0856
  975SOL    HW2 2925   2.347  -0.012  -0.029 -0.8510 -1.8415 -0.5764
  976SOL     OW 2926   1.905   2.849   2.343 -0.1415 -0.2137 -0.4924
  976SOL    HW1 2927   1.817   2.806   2.312  1.2681  2.5372 -0.6213
  976SOL    HW2 2928   1.958   2.790   2.408  0.8135 -1.3635 -1.2129
  977SOL     OW 2929   0.461   0.685   1.044  0.1344  0.0447  0.4661
  977SOL    HW1 2930   0.390   0.732   0.985  1.5966  1.3419  2.2305
  977SOL    HW2 2931   0.539   0.653   0.984 -2.1641  0.9031  3.4051
   3.10000   3.10000   3.10000
