1000 SPC/Fw water molecules t=   1.58000 step= 1580
 2931
    1SOL     OW    1   2.455   0.370   2.647 -0.3190  0.4009  0.1557
    1SOL    HW1    2   2.467   0.270   2.633  3.7163 -1.5826  1.1916
    1SOL    HW2    3   2.519   0.396   2.728  1.7076  3.1975 -0.8599
    2SOL     OW    4   2.729   2.983   1.385  0.5886  0.0831 -0.3358
    2SOL    HW1    5   2.828   3.000   1.351 -2.4653  0.9797 -0.4987
    2SOL    HW2    6   2.683   3.061   1.429 -1.3855 -1.7915 -1.8095
    3SOL     OW    7   2.678   2.526   0.368  0.1819 -0.7425 -0.1547
    3SOL    HW1    8   2.597   2.462   0.389  0.2850 -1.0530 -0.2265
    3SOL    HW2    9   2.717   2.574   0.452  0.7955  0.0188  0.8043
    4SOL     OW   10   1.272   1.556   2.433  0.5102  0.4708  0.4798
    4SOL    HW1   11   1.199   1.542   2.359 -0.6373 -0.9181  1.1350
    4SOL    HW2   12   1.253   1.494   2.516  0.2834  0.7267 -1.3153
    5SOL     OW   13   1.160   1.522   2.998 -0.6685  0.5191  0.4511
    5SOL    HW1   14   1.214   1.600   3.042 -1.8422  1.0624  1.2367
    5SOL    HW2   15   1.073   1.546   2.948 -1.7353 -0.0004 -0.2984
    6SOL     OW   16   0.273   1.817   3.027 -0.3957  0.4386  1.1171
    6SOL    HW1   17   0.195   1.814   3.085  2.0450  2.0656  0.2109
    6SOL    HW2   18   0.361   1.779   3.064  2.1404  2.4929  1.2458
    7SOL     OW   19   2.479   0.915   0.993  0.4088  0.4886 -0.2680
    7SOL    HW1   20   2.388   0.878   1.027  1.4529  0.0108  0.5366
    7SOL    HW2   21   2.500   0.893   0.893  1.6759  1.3125  0.9699
    8SOL     OW   22   0.364   0.665   1.561 -0.3984 -0.0162 -0.0064
    8SOL    HW1   23   0.448   0.604   1.563  0.4667  2.4188  1.7200
    8SOL    HW2   24   0.366   0.731   1.481  1.4831 -0.0374 -0.5129
    9SOL     OW   25   1.160   0.866   2.320 -0.4524  0.1925  0.2246
    9SOL    HW1   26   1.244   0.891   2.260  2.4275  0.5188 -0.3590
    9SOL    HW2   27   1.123   0.772   2.309 -0.3941 -1.5427 -1.3542
   10SOL     OW   28   0.738   1.418   1.243 -0.2313 -0.1975 -0.1342
   10SOL    HW1   29   0.652   1.402   1.177 -1.1649 -0.2264 -0.0575
   10SOL    HW2   30   0.753   1.517   1.264 -3.2082 -0.2011  1.5569
   11SOL     OW   31   2.356   2.857   0.883  1.1641  0.5730  1.2950
   11SOL    HW1   32   2.291   2.819   0.948  1.3618  1.5503 -0.5083
   11SOL    HW2   33   2.452   2.878   0.924  0.2530 -0.1395  2.8443
   12SOL     OW   34   1.505   0.916   0.402 -0.6339  0.2645  0.4897
   12SOL    HW1   35   1.412   0.951   0.372 -1.5230  3.9642  2.6906
   12SOL    HW2   36   1.539   0.833   0.350 -0.7205 -1.4286  0.9688
   13SOL     OW   37   2.449   0.728   1.793  0.3609  0.2441  0.1054
   13SOL    HW1   38   2.375   0.677   1.842  0.6941 -3.4519 -0.1829
   13SOL    HW2   39   2.461   0.700   1.693 -1.1669 -2.8897 -0.8860
   14SOL     OW   40   1.953   3.090   0.596 -0.0251  0.3113  0.2082
   14SOL    HW1   41   1.862   3.141   0.576  2.3762 -2.5142 -1.9768
   14SOL    HW2   42   1.964   3.051   0.691 -1.6072 -1.9462  0.3645
   15SOL     OW   43   1.886   2.076   2.647  0.2147  0.1307  0.1951
   15SOL    HW1   44   1.843   2.058   2.739  1.7695  0.7026 -0.5204
   15SOL    HW2   45   1.865   2.001   2.574  1.0923 -1.5262  1.6507
   16SOL     OW   46   1.626   1.737   3.025  0.4109 -0.4131  0.1080
   16SOL    HW1   47   1.603   1.643   3.059  2.0377  1.1349  0.5768
   16SOL    HW2   48   1.701   1.788   3.078 -1.1024 -0.6433 -1.3421
   17SOL     OW   49   0.133   0.443   0.163 -0.1439  0.5240 -0.4772
   17SOL    HW1   50   0.213   0.478   0.107  2.0955 -0.5696  0.0083
   17SOL    HW2   51   0.053   0.429   0.104  0.5252 -0.5445  1.7532
   18SOL     OW   52   0.885   2.936   2.147  0.2659  0.1912 -0.1516
   18SOL    HW1   53   0.874   2.847   2.205  2.8289 -1.7228  0.2838
   18SOL    HW2   54   0.928   2.928   2.055  1.2544 -1.9414  0.2160
   19SOL     OW   55   0.606   0.866   1.926  0.6346  0.6089  0.5308
   19SOL    HW1   56   0.679   0.845   1.995  1.4736  0.6153 -1.3074
   19SOL    HW2   57   0.634   0.949   1.866  0.9485 -0.0111  0.1415
   20SOL     OW   58   0.198   2.847   0.855 -0.1908 -0.2496 -0.1146
   20SOL    HW1   59   0.102   2.869   0.824 -0.6378  0.4724 -5.4112
   20SOL    HW2   60   0.233   2.768   0.794 -0.0137  0.5805  0.8740
   21SOL     OW   61   2.708   0.319   2.021 -0.3936 -0.0234  0.4370
   21SOL    HW1   62   2.685   0.239   1.954 -2.6202 -1.4651  2.7047
   21SOL    HW2   63   2.804   0.313   2.058 -0.6142  0.4926  1.6996
   22SOL     OW   64   2.347   0.203   0.126 -0.0235  0.4244 -0.0139
   22SOL    HW1   65   2.338   0.102   0.090 -0.5353 -3.8423 -1.7958
   22SOL    HW2   66   2.278   0.265   0.075 -2.1258  0.7703  2.4222
   23SOL     OW   67   2.802   0.565   0.661 -0.3050  0.1536  0.0759
   23SOL    HW1   68   2.800   0.473   0.612 -2.0083 -1.6192 -0.1700
   23SOL    HW2   69   2.789   0.654   0.608 -0.2896  1.2904  2.5252
   24SOL     OW   70   0.267   1.849   0.409  0.9235 -0.2976  0.6692
   24SOL    HW1   71   0.242   1.932   0.348  0.9613  0.0750  0.8352
   24SOL    HW2   72   0.354   1.810   0.378  0.1506  1.4480  1.7950
   25SOL     OW   73   2.299   0.604   0.193  0.1671  0.1987 -0.3788
   25SOL    HW1   74   2.281   0.598   0.091  0.1632  0.7644 -0.7076
   25SOL    HW2   75   2.342   0.517   0.232 -0.0826  0.9724  1.1297
   26SOL     OW   76   2.436   2.146   2.108 -0.0101 -0.3863 -0.4042
   26SOL    HW1   77   2.508   2.203   2.155 -0.8177  0.9810  0.1991
   26SOL    HW2   78   2.480   2.074   2.048  2.3782  1.2495 -0.3044
   27SOL     OW   79   0.613   2.944   0.181  0.4607  0.6325  0.1167
   27SOL    HW1   80   0.689   3.011   0.145  3.1455 -2.1569  3.9858
   27SOL    HW2   81   0.550   2.905   0.108  0.4794 -1.1146 -0.5579
   28SOL     OW   82   1.599   0.151   0.280 -0.4185 -0.2684  0.0069
   28SOL    HW1   83   1.621   0.104   0.193 -1.9766  1.8578  1.7255
   28SOL    HW2   84   1.645   0.246   0.286 -0.3549  1.4748  0.4916
   29SOL     OW   85   2.012   0.613   0.286  0.1735  0.0507  0.0475
   29SOL    HW1   86   1.998   0.674   0.370 -2.5862 -0.8558  0.3631
   29SOL    HW2   87   2.105   0.619   0.245 -3.0090  1.1252 -1.0896
   30SOL     OW   88   0.175   2.094   0.934  0.4250  0.1077  0.2885
   30SOL    HW1   89   0.187   2.019   0.863  1.2006  0.6956  1.3255
   30SOL    HW2   90   0.076   2.116   0.956  1.9944 -0.0571 -0.9192
   31SOL     OW   91   2.154   0.052   2.363 -0.4412  0.2961  0.2447
   31SOL    HW1   92   2.117   0.035   2.457 -1.7345 -0.4774 -0.2609
   31SOL    HW2   93   2.099   0.002   2.292  1.2752 -1.6331 -0.3635
   32SOL     OW   94   3.052   3.071   0.304  1.1778 -0.3555 -0.0649
   32SOL    HW1   95   2.993   2.989   0.323  0.0574 -1.4396  1.2038
   32SOL    HW2   96   3.152   3.056   0.294 -0.5743 -1.0313 -1.6551
   33SOL     OW   97   0.904   0.185   0.613  0.4032  0.3247  0.7809
   33SOL    HW1   98   0.891   0.146   0.515  1.1955 -1.1972 -0.3676
   33SOL    HW2   99   0.985   0.246   0.618 -2.3546 -0.3905 -0.6885
   34SOL     OW  100   0.336   2.699   1.027  0.2060 -0.1815 -0.3873
   34SOL    HW1  101   0.264   2.751   0.970 -2.0478 -0.0220 -2.0698
   34SOL    HW2  102   0.430   2.749   1.035  1.9898  1.0644  1.6549
   35SOL     OW  103   0.044   0.118   1.894 -0.1136  0.1619  0.5394
   35SOL    HW1  104   0.063   0.016   1.923 -0.2427 -1.5277  0.2515
   35SOL    HW2  105   0.005   0.119   1.795  1.8667 -1.4147 -0.8076
   36SOL     OW  106   1.911   1.172   1.514  0.8453  0.1349 -0.1995
   36SOL    HW1  107   1.983   1.102   1.535 -1.4016 -1.0484 -1.4758
   36SOL    HW2  108   1.939   1.231   1.429  2.8243 -2.9630  0.7935
   37SOL     OW  109   1.127   0.222   0.996  0.0844  0.7010  0.1735
   37SOL    HW1  110   1.130   0.322   0.982 -2.5303 -0.3251  0.0739
   37SOL    HW2  111   1.196   0.165   0.940 -0.8983 -1.3009  1.9195
   38SOL     OW  112   1.153   2.892   2.453  0.4917  0.0776 -0.0746
   38SOL    HW1  113   1.059   2.875   2.493 -3.4811 -1.9424 -1.3633
   38SOL    HW2  114   1.181   2.987   2.438  0.6398 -1.7749 -1.8731
   39SOL     OW  115   2.455   1.396   3.045  0.5321 -0.2415 -0.4756
   39SOL    HW1  116   2.527   1.329   3.081  1.5111 -0.7598  0.7244
   39SOL    HW2  117   2.360   1.379   3.078  3.1205 -0.4040 -0.4769
   40SOL     OW  118   2.011   2.536   2.587 -0.6093  0.1815 -0.6449
   40SOL    HW1  119   1.951   2.614   2.593  1.7628 -1.8307 -0.3597
   40SOL    HW2  120   1.958   2.453   2.561  0.2722 -0.4356 -0.4400
   41SOL     OW  121   3.035   0.756   2.810  0.2893  0.4007 -0.0581
   41SOL    HW1  122   2.964   0.818   2.861  0.9629  0.5626  0.5743
   41SOL    HW2  123   2.994   0.688   2.745 -2.5107  3.0308  1.7639
   42SOL     OW  124   1.797   1.715   0.559 -0.1874 -0.0181 -0.0962
   42SOL    HW1  125   1.744   1.625   0.557 -0.0172 -1.8469 -2.2626
   42SOL    HW2  126   1.818   1.749   0.463 -0.5989 -2.0656  0.1427
   43SOL     OW  127   0.458   1.679   1.164 -0.0423 -0.2392 -0.6569
   43SOL    HW1  128   0.443   1.592   1.115  1.0685 -0.8205 -0.9598
   43SOL    HW2  129   0.395   1.701   1.246  2.0032  1.5842 -0.5157
   44SOL     OW  130   1.653   2.365   2.969  0.1842 -0.1404  0.0483
   44SOL    HW1  131   1.558   2.400   2.995 -0.8591  0.3798  0.0794
   44SOL    HW2  132   1.696   2.406   2.881  1.4645 -0.8507 -3.1380
   45SOL     OW  133   0.346   1.900   2.561 -0.1759 -0.2431  0.2171
   45SOL    HW1  134   0.318   1.904   2.463  0.6689 -0.3294 -2.8052
   45SOL    HW2  135   0.426   1.832   2.584  2.2086  0.2763  1.2604
   46SOL     OW  136   1.215   0.753   0.280  0.0158  0.4330 -0.2440
   46SOL    HW1  137   1.231   0.815   0.201 -1.4075 -0.5411  0.6622
   46SOL    HW2  138   1.149   0.677   0.259  3.0826  1.2277  0.6752
   47SOL     OW  139   0.155   2.427   1.559 -0.3225 -0.4030  0.9398
   47SOL    HW1  140   0.124   2.327   1.576 -1.7498 -1.4100 -0.1058
   47SOL    HW2  141   0.189   2.444   1.459  1.2322  1.2328 -1.5360
   48SOL     OW  142   2.659   0.666   0.140 -0.4381  0.3121 -0.1218
   48SOL    HW1  143   2.630   0.672   0.243  1.2345  0.2860  1.2456
   48SOL    HW2  144   2.766   0.675   0.129  3.3372  3.2158 -0.6583
   49SOL     OW  145   0.378   0.838   1.789 -0.1756 -0.0508  0.1807
   49SOL    HW1  146   0.468   0.848   1.837  0.0324  0.2610 -1.0928
   49SOL    HW2  147   0.382   0.760   1.721 -1.3382  0.3063  0.3865
   50SOL     OW  148   1.754   1.136   0.296  0.1683 -0.5520  0.0040
   50SOL    HW1  149   1.765   1.043   0.256 -0.5856  0.6814  0.9183
   50SOL    HW2  150   1.689   1.132   0.377  0.0619 -0.4826  0.3299
   51SOL     OW  151   3.021   1.775   0.303 -0.1658 -0.2498  1.1391
   51SOL    HW1  152   2.966   1.700   0.257 -1.4306  2.6409  1.1942
   51SOL    HW2  153   3.066   1.747   0.392  0.8233  0.6469  1.4147
   52SOL     OW  154   0.767   2.150   0.595 -0.1244  0.2680 -0.8248
   52SOL    HW1  155   0.666   2.149   0.578  1.4497  1.8133 -1.1688
   52SOL    HW2  156   0.797   2.077   0.665  0.2146 -1.3588  1.6715
   53SOL     OW  157   0.246   0.419   1.517  0.5543 -0.1646 -0.5443
   53SOL    HW1  158   0.270   0.519   1.514  3.0322  0.1877 -2.8559
   53SOL    HW2  159   0.179   0.387   1.446  1.4466 -1.0579  1.0178
   54SOL     OW  160   1.731   0.461   0.002  0.2024 -0.1194 -0.0597
   54SOL    HW1  161   1.797   0.424   0.078  2.0137 -0.4661  2.7791
   54SOL    HW2  162   1.635   0.473   0.043  0.5440 -0.5896  2.1715
   55SOL     OW  163   0.717   2.891   0.610 -0.2509  0.1890 -0.6011
   55SOL    HW1  164   0.670   2.981   0.627  0.5270 -0.0958 -0.6193
   55SOL    HW2  165   0.819   2.908   0.619  0.8231 -0.4163 -2.9185
   56SOL     OW  166   0.578   1.562   3.045  0.0801 -0.5188  0.0236
   56SOL    HW1  167   0.502   1.579   3.118 -2.5062  0.4320 -0.0634
   56SOL    HW2  168   0.553   1.483   2.980 -2.3359 -1.8759 -0.9230
   57SOL     OW  169   1.723   2.489   2.350 -0.4243 -0.1610 -0.3311
   57SOL    HW1  170   1.791   2.417   2.377 -0.1092  1.4332  1.3566
   57SOL    HW2  171   1.651   2.498   2.426 -1.5709 -1.4802 -2.8932
   58SOL     OW  172   0.674   0.245   1.101  0.1844  0.0236 -0.4278
   58SOL    HW1  173   0.592   0.233   1.162 -0.1247 -0.0101  0.2799
   58SOL    HW2  174   0.738   0.163   1.096  1.6356  1.1806 -2.1297
   59SOL     OW  175   0.467   2.409   2.717 -0.0202  0.2135 -0.1921
   59SOL    HW1  176   0.482   2.302   2.717 -0.9162  0.4505 -2.0670
   59SOL    HW2  177   0.548   2.460   2.686 -1.5530 -1.6954  0.9151
   60SOL     OW  178   2.318   2.056   2.365 -0.4259 -0.9279 -0.2074
   60SOL    HW1  179   2.354   2.084   2.270 -0.0921  0.4082 -1.6216
   60SOL    HW2  180   2.350   2.118   2.445 -1.3711  0.7598  0.3889
   61SOL     OW  181   1.193   0.629   0.525 -0.1691  0.1007 -0.2711
   61SOL    HW1  182   1.093   0.651   0.551 -2.1669 -2.0165  1.4534
   61SOL    HW2  183   1.232   0.688   0.449  1.8800  2.7934 -3.7664
   62SOL     OW  184   2.749   1.717   2.723  0.3491  0.1340 -0.2630
   62SOL    HW1  185   2.724   1.621   2.710 -0.4932  2.1609 -1.2472
   62SOL    HW2  186   2.849   1.732   2.752 -0.9351 -0.5042 -0.9035
   63SOL     OW  187   0.491   0.930   0.195  0.1875  0.1734 -0.3881
   63SOL    HW1  188   0.560   0.979   0.136  1.6114 -1.7644  1.8517
   63SOL    HW2  189   0.500   0.953   0.297  0.4487 -4.0445  0.6139
   64SOL     OW  190   3.010   0.573   2.302 -0.1405 -0.6219  0.4065
   64SOL    HW1  191   2.940   0.612   2.366 -0.7511  0.3702  1.8221
   64SOL    HW2  192   3.011   0.631   2.215  1.4024  1.6485 -1.6544
   65SOL     OW  193   0.237   1.440   0.736 -0.2533 -0.0273  0.2564
   65SOL    HW1  194   0.247   1.523   0.803 -1.3564  0.7002  0.1463
   65SOL    HW2  195   0.285   1.449   0.647 -0.2823  0.3634  2.6328
   66SOL     OW  196   2.588   0.329   0.551 -0.1542 -0.1028  0.2674
   66SOL    HW1  197   2.688   0.302   0.548  1.9795  1.1265  1.8867
   66SOL    HW2  198   2.536   0.283   0.626  0.8220  0.6779 -2.7539
   67SOL     OW  199   0.626   2.517   1.454 -0.1922  0.5246 -0.0091
   67SOL    HW1  200   0.711   2.476   1.504 -0.3412 -0.1921  0.5892
   67SOL    HW2  201   0.548   2.452   1.447  0.5546 -0.3371  0.4875
   68SOL     OW  202   0.924   1.006   2.441 -0.3595 -0.4717 -0.4121
   68SOL    HW1  203   0.999   0.949   2.400 -5.1632 -1.4092 -0.7679
   68SOL    HW2  204   0.836   1.015   2.383 -0.8166 -1.2481  0.6588
   69SOL     OW  205   0.801   2.731   2.323 -0.0277 -0.7580  0.4332
   69SOL    HW1  206   0.843   2.671   2.249  1.1593 -2.3186 -0.2334
   69SOL    HW2  207   0.699   2.749   2.313 -1.2968  1.0689  0.7102
   70SOL     OW  208   0.440   0.139   2.510  0.3343 -0.1478  0.7678
   70SOL    HW1  209   0.366   0.101   2.566 -0.4132 -1.3028 -2.6953
   70SOL    HW2  210   0.517   0.073   2.508  0.5446  2.8363 -0.1904
   71SOL     OW  211   1.048   1.765   0.323  0.4296  0.3310  0.2594
   71SOL    HW1  212   0.996   1.768   0.412  0.1471 -0.0297  1.7607
   71SOL    HW2  213   1.006   1.814   0.240  3.1486 -0.4023  0.2075
   72SOL     OW  214   1.850   0.240   2.159  0.0972  0.5399 -0.0848
   72SOL    HW1  215   1.935   0.297   2.174  1.0448 -0.2185  0.4425
   72SOL    HW2  216   1.871   0.134   2.160  1.6447 -3.1419 -1.1231
   73SOL     OW  217   2.783   2.180   2.493  0.1604 -0.3384  0.5536
   73SOL    HW1  218   2.757   2.090   2.449 -3.1519 -0.1912  0.2635
   73SOL    HW2  219   2.830   2.168   2.585  0.9734  1.6132  0.6436
   74SOL     OW  220   2.705   2.880   2.145 -0.3837  0.2316  0.2211
   74SOL    HW1  221   2.626   2.895   2.202  1.6560  1.0858 -2.0899
   74SOL    HW2  222   2.788   2.935   2.181  0.6838 -1.5854 -1.4435
   75SOL     OW  223   0.963   0.821   1.126  0.2064 -0.5990  0.1981
   75SOL    HW1  224   0.874   0.867   1.097 -1.8869  0.0390  1.0294
   75SOL    HW2  225   0.987   0.848   1.223 -2.0697  1.3747  0.5780
   76SOL     OW  226   1.864   1.271   2.566 -0.1954  0.1597  0.1077
   76SOL    HW1  227   1.764   1.259   2.588 -2.1558 -1.2229  1.0400
   76SOL    HW2  228   1.896   1.366   2.576  0.0007  0.7881 -0.1282
   77SOL     OW  229   2.893   0.937   1.049  0.2552  0.3711 -0.2022
   77SOL    HW1  230   2.848   0.840   1.040  1.9113  0.1752  1.6109
   77SOL    HW2  231   2.977   0.931   1.113  2.1426  2.1793 -0.6572
   78SOL     OW  232   1.997   1.333   1.332 -0.2964  0.0865  0.5672
   78SOL    HW1  233   2.096   1.338   1.304  1.8064 -0.5856  3.0788
   78SOL    HW2  234   1.939   1.404   1.290  0.6711 -0.7039  0.3031
   79SOL     OW  235   0.699   1.418   0.836  0.2564  0.2394 -0.5953
   79SOL    HW1  236   0.617   1.377   0.884 -1.0239 -1.9271  2.7700
   79SOL    HW2  237   0.765   1.344   0.811  0.2142  0.3363 -1.6993
   80SOL     OW  238   0.561   0.479   1.537  0.1802 -0.4481  0.2774
   80SOL    HW1  239   0.601   0.542   1.467  1.8696 -1.9301 -0.9462
   80SOL    HW2  240   0.621   0.400   1.553  0.0818 -0.7113 -1.0719
   81SOL     OW  241   1.049   1.240   2.563  0.7184  0.4104 -0.0241
   81SOL    HW1  242   1.020   1.152   2.516  1.0464 -1.2821 -1.5281
   81SOL    HW2  243   0.980   1.318   2.552  0.6732  2.8711  1.2725
   82SOL     OW  244   0.930   2.880   1.521 -0.2083  0.0569 -0.0172
   82SOL    HW1  245   0.926   2.798   1.462 -0.0850  0.7927  0.9955
   82SOL    HW2  246   0.930   2.968   1.472 -1.8826  0.1668 -0.0400
   83SOL     OW  247   2.584   2.352   0.890  0.6032 -0.7250  0.1328
   83SOL    HW1  248   2.512   2.320   0.826 -0.8106  0.1659 -1.1411
   83SOL    HW2  249   2.615   2.453   0.870  1.9617 -0.5647  1.7335
   84SOL     OW  250   0.760   0.017   2.288  0.1987  0.4993  0.1389
   84SOL    HW1  251   0.711  -0.029   2.367  0.2989  0.0691 -1.7861
   84SOL    HW2  252   0.806  -0.054   2.224  0.6754 -0.8326 -1.3209
   85SOL     OW  253   0.293   1.697   1.389  0.0998 -0.0232 -0.5272
   85SOL    HW1  254   0.240   1.787   1.414  0.4886  0.2549  0.1043
   85SOL    HW2  255   0.331   1.646   1.472  0.4598 -1.4080  1.8648
   86SOL     OW  256   0.394   1.034   1.525  0.1767  0.1064 -0.9406
   86SOL    HW1  257   0.385   0.984   1.437 -0.5152  2.0501  0.3702
   86SOL    HW2  258   0.416   0.971   1.600 -0.2567 -2.2730 -2.5923
   87SOL     OW  259   1.600   0.651   0.317  0.5094 -0.3337 -0.7578
   87SOL    HW1  260   1.680   0.694   0.277 -3.4061 -3.0082 -1.4223
   87SOL    HW2  261   1.544   0.604   0.242  2.6347  0.2144  1.3105
   88SOL     OW  262   1.609   1.375   0.271 -0.1721 -0.2868 -0.1738
   88SOL    HW1  263   1.659   1.282   0.277 -1.6946  0.4758 -1.8617
   88SOL    HW2  264   1.511   1.368   0.238  0.4090  1.1635 -0.0022
   89SOL     OW  265   0.030   0.357   0.595 -0.3878  0.9585  0.4732
   89SOL    HW1  266   0.086   0.272   0.621 -1.4027  2.3501  0.6252
   89SOL    HW2  267  -0.069   0.338   0.581  1.1771  0.6194 -1.1841
   90SOL     OW  268   0.778   1.524   0.149  0.0409 -0.6493  0.1205
   90SOL    HW1  269   0.858   1.458   0.151 -1.5958 -0.1897 -0.4638
   90SOL    HW2  270   0.722   1.524   0.062 -0.4535 -1.5335 -0.6696
   91SOL     OW  271   1.219   1.493   1.769  0.5896 -0.3763 -0.1308
   91SOL    HW1  272   1.242   1.542   1.859  0.9276  1.3550 -0.0400
   91SOL    HW2  273   1.127   1.446   1.784 -1.2538 -1.1741 -2.1005
   92SOL     OW  274   0.005   0.992   1.214 -0.2370 -0.2590  0.1044
   92SOL    HW1  275   0.071   1.064   1.173 -1.8631  1.4349  1.2231
   92SOL    HW2  276   0.018   0.974   1.315  1.4446  0.9400 -0.0065
   93SOL     OW  277   3.091   2.675   0.080  0.3120  0.6509  0.3400
   93SOL    HW1  278   3.014   2.647   0.023  1.6695  1.2443 -0.3627
   93SOL    HW2  279   3.122   2.601   0.141  0.2173  0.6535 -3.4312
   94SOL     OW  280   1.505   1.298   1.672  0.4056 -0.3228 -0.0448
   94SOL    HW1  281   1.594   1.255   1.700  1.6168  0.1497 -1.1801
   94SOL    HW2  282   1.481   1.379   1.734  0.2974 -1.5879  1.2367
   95SOL     OW  283   1.353   2.474   2.914 -0.6702  0.0460 -0.3716
   95SOL    HW1  284   1.254   2.509   2.934 -1.8310  1.8300  4.2062
   95SOL    HW2  285   1.353   2.375   2.893  0.5117  1.4251  0.9167
   96SOL     OW  286   0.577   2.172   1.301  0.3913  0.6754  0.4629
   96SOL    HW1  287   0.505   2.140   1.232 -0.9664 -0.3042  0.0780
   96SOL    HW2  288   0.614   2.101   1.370  1.2288  0.5190  0.5844
   97SOL     OW  289   0.267   1.628   2.444  0.0585 -0.6686 -0.0323
   97SOL    HW1  290   0.267   1.719   2.399 -1.5020  0.8077  0.0199
   97SOL    HW2  291   0.214   1.626   2.536 -2.6211  0.5080  1.4078
   98SOL     OW  292   2.180   1.671   1.207 -0.4462  0.1549 -0.1599
   98SOL    HW1  293   2.127   1.587   1.188  2.7017  1.4279  0.9227
   98SOL    HW2  294   2.280   1.648   1.195 -1.2138 -2.1390 -0.4614
   99SOL     OW  295   2.618   2.091   1.251  0.5028 -0.4412 -0.5051
   99SOL    HW1  296   2.706   2.120   1.305 -0.3106  2.1684  0.2537
   99SOL    HW2  297   2.578   2.006   1.294  2.2697 -1.7786 -0.9439
  100SOL     OW  298   2.312   0.368   2.109  0.3825 -0.4963  0.0243
  100SOL    HW1  299   2.252   0.336   2.188  0.5163 -0.4082  0.1504
  100SOL    HW2  300   2.402   0.402   2.142 -0.7657  0.6907 -1.9785
  101SOL     OW  301   0.385   1.525   0.520 -0.1725  0.5242 -0.4186
  101SOL    HW1  302   0.411   1.598   0.587 -1.7322 -5.5767  1.4990
  101SOL    HW2  303   0.453   1.494   0.447 -0.8311 -0.6412  0.5621
  102SOL     OW  304   2.250   1.074   0.819 -0.4437 -0.0765  0.0308
  102SOL    HW1  305   2.227   0.973   0.817 -2.0428 -0.0626 -2.3819
  102SOL    HW2  306   2.351   1.096   0.783  1.7950 -0.0241  1.4586
  103SOL     OW  307   2.266   0.037   0.339  0.3405  0.2631 -0.0354
  103SOL    HW1  308   2.325   0.090   0.273  1.6306 -1.0549  0.1106
  103SOL    HW2  309   2.325   0.011   0.422 -2.1066  0.4718  0.7643
  104SOL     OW  310   3.086   1.790   2.193 -0.3007  0.4118  1.2249
  104SOL    HW1  311   3.136   1.758   2.105 -2.1869  0.7693 -1.1592
  104SOL    HW2  312   2.989   1.819   2.177 -1.0760 -1.6767 -1.4875
  105SOL     OW  313   1.398   2.116   0.762 -0.0021  0.0359 -0.2296
  105SOL    HW1  314   1.441   2.132   0.669 -1.9854  0.0249 -0.0752
  105SOL    HW2  315   1.370   2.016   0.767 -1.1489 -0.7511 -0.4563
  106SOL     OW  316   2.143   0.402   1.416  0.0979  0.1212 -0.0867
  106SOL    HW1  317   2.070   0.324   1.429 -0.6708 -0.6965 -1.3906
  106SOL    HW2  318   2.180   0.453   1.501  0.1883  2.4847 -0.8029
  107SOL     OW  319   1.949   2.900   1.169 -0.3275 -0.1225  0.7374
  107SOL    HW1  320   1.866   2.935   1.219  0.9324 -0.4618 -1.3513
  107SOL    HW2  321   1.921   2.822   1.111  1.7165 -1.4422  1.7214
  108SOL     OW  322   0.823   2.826   1.197 -0.0230 -0.2948 -0.3579
  108SOL    HW1  323   0.795   2.726   1.178 -1.2366 -0.8340  0.6345
  108SOL    HW2  324   0.925   2.833   1.219  0.0713 -0.9236 -0.2574
  109SOL     OW  325   2.131   0.219   0.710 -0.0588  0.0607  0.3446
  109SOL    HW1  326   2.069   0.141   0.677  0.4123 -0.2732 -0.1112
  109SOL    HW2  327   2.124   0.226   0.813  1.5366 -1.1715 -0.1922
  110SOL     OW  328   0.493   2.763   2.786  0.6279  0.0378  0.2797
  110SOL    HW1  329   0.479   2.765   2.684  0.4791 -0.5416 -1.0332
  110SOL    HW2  330   0.576   2.715   2.823 -2.2974  1.5438 -0.3297
  111SOL     OW  331   1.294   0.523   2.282  0.6245  0.4809  0.0474
  111SOL    HW1  332   1.202   0.553   2.321  0.7349 -2.1630  0.2551
  111SOL    HW2  333   1.340   0.467   2.350 -0.8395 -1.5673  0.6755
  112SOL     OW  334   1.730   0.399   1.497 -0.1649  0.5083  0.4193
  112SOL    HW1  335   1.710   0.455   1.408  1.3638  0.2144 -0.7214
  112SOL    HW2  336   1.648   0.375   1.547  2.7212 -0.0695  1.1151
  113SOL     OW  337   2.373   1.743   1.795  0.0194  0.3788 -0.3458
  113SOL    HW1  338   2.384   1.640   1.776 -0.8929 -1.4652 -0.4597
  113SOL    HW2  339   2.355   1.766   1.894 -1.5727 -1.5929  0.3337
  114SOL     OW  340   0.324   0.445   1.158 -0.4295 -0.4420 -0.4577
  114SOL    HW1  341   0.407   0.508   1.136 -0.6533 -1.2243  0.2313
  114SOL    HW2  342   0.259   0.443   1.081  2.1232 -0.3139  1.7920
  115SOL     OW  343   2.692   1.563   1.225  0.9075  0.1400  0.1022
  115SOL    HW1  344   2.687   1.459   1.244 -0.5308 -1.4673  0.7061
  115SOL    HW2  345   2.768   1.580   1.159 -0.9498  0.7477 -1.1490
  116SOL     OW  346   1.917   0.933   0.763  0.0102  0.3601 -0.1832
  116SOL    HW1  347   1.829   0.889   0.727  2.0039  0.8763  2.1712
  116SOL    HW2  348   1.907   1.038   0.767 -1.3073 -2.2325  0.5864
  117SOL     OW  349   1.127   0.366   0.560 -0.3375 -0.2893 -0.6628
  117SOL    HW1  350   1.159   0.464   0.569  0.8317  3.5164 -0.2604
  117SOL    HW2  351   1.093   0.359   0.465  1.4077 -1.6390 -1.1088
  118SOL     OW  352   1.132   1.220   1.056  0.0315 -0.0250  0.4728
  118SOL    HW1  353   1.060   1.192   1.125 -2.7737  0.9470 -0.9162
  118SOL    HW2  354   1.176   1.312   1.082  1.2255 -3.7427  0.0569
  119SOL     OW  355   1.841   1.585   2.182 -0.0449 -0.0019  0.4044
  119SOL    HW1  356   1.787   1.657   2.130  0.4866  0.9570 -1.3344
  119SOL    HW2  357   1.937   1.566   2.145 -1.9636 -0.5811  0.8134
  120SOL     OW  358   2.920   2.808   0.253  0.5801  0.6846  0.1927
  120SOL    HW1  359   2.994   2.767   0.195  0.3934 -2.4056 -0.6219
  120SOL    HW2  360   2.825   2.768   0.232  1.7112 -0.1956 -1.8003
  121SOL     OW  361   2.008   0.773   2.303  0.5313  0.3707  0.4333
  121SOL    HW1  362   2.086   0.833   2.279 -1.8247  0.7972  1.0126
  121SOL    HW2  363   1.990   0.689   2.243  0.4432 -0.1998 -0.9149
  122SOL     OW  364   2.637   2.484   1.319  0.1333  0.0139  0.4207
  122SOL    HW1  365   2.681   2.439   1.234  2.3963  3.3856 -0.5512
  122SOL    HW2  366   2.672   2.435   1.399  0.3304 -1.2082 -4.6389
  123SOL     OW  367   1.688   0.138   1.762 -0.3485 -0.0981 -1.0220
  123SOL    HW1  368   1.711   0.087   1.678 -1.0794  0.8370 -2.6483
  123SOL    HW2  369   1.767   0.205   1.774 -0.9468 -0.3148 -0.4329
  124SOL     OW  370   3.074   0.400   1.113 -0.1503 -0.9015  0.1071
  124SOL    HW1  371   3.005   0.457   1.163  1.5649  2.4322  0.3523
  124SOL    HW2  372   3.102   0.444   1.022  0.5921 -0.4063  0.8857
  125SOL     OW  373   0.849   1.961   0.772 -0.1855  0.6240 -0.6991
  125SOL    HW1  374   0.939   1.918   0.810  0.5934  1.7359 -0.8679
  125SOL    HW2  375   0.817   2.033   0.835 -3.4677  1.2949 -0.6668
  126SOL     OW  376   1.888   2.310   2.498  0.6533  0.0009 -0.3440
  126SOL    HW1  377   1.948   2.244   2.444 -0.5249  1.9881 -0.4950
  126SOL    HW2  378   1.839   2.261   2.575 -1.6967  2.4786  0.1884
  127SOL     OW  379   0.892   0.985   0.209  0.2301  0.1008 -0.3457
  127SOL    HW1  380   0.952   1.018   0.286 -3.0732  0.2612 -1.1992
  127SOL    HW2  381   0.895   0.880   0.208  1.9963 -1.3739  0.9868
  128SOL     OW  382   0.966   0.232   1.438  0.1412  0.3682 -0.3404
  128SOL    HW1  383   0.936   0.317   1.390 -3.3401  0.0728 -0.3106
  128SOL    HW2  384   0.894   0.170   1.466 -0.8961 -0.3144 -1.5215
  129SOL     OW  385   1.875   0.729   1.847  0.2517  0.0999 -0.4786
  129SOL    HW1  386   1.898   0.740   1.749 -0.4296 -2.5256 -1.1265
  129SOL    HW2  387   1.904   0.805   1.913 -0.9257 -0.7583 -2.2950
  130SOL     OW  388   1.327   2.294   0.972  0.0133  0.0041  0.2681
  130SOL    HW1  389   1.325   2.219   0.901 -0.8974 -0.2251  1.8854
  130SOL    HW2  390   1.400   2.363   0.954  1.3877  0.2534 -0.4114
  131SOL     OW  391   3.080   1.402   1.386 -0.1244  0.5321  0.3046
  131SOL    HW1  392   3.026   1.317   1.410 -0.6581  1.5630 -0.6379
  131SOL    HW2  393   3.181   1.374   1.379  2.4528  0.3438 -1.4008
  132SOL     OW  394   2.038   2.386   0.540  0.2540  0.2298  0.4296
  132SOL    HW1  395   1.946   2.430   0.540  2.0024 -0.0453  1.3568
  132SOL    HW2  396   2.053   2.316   0.619 -0.1685 -0.9048  0.6009
  133SOL     OW  397   1.708   2.475   2.733  0.3869  0.1916  0.6803
  133SOL    HW1  398   1.644   2.469   2.653  0.5716 -0.5001 -1.2122
  133SOL    HW2  399   1.710   2.571   2.780 -2.3217  1.0644  1.3154
  134SOL     OW  400   2.686   2.384   1.588 -0.2794  0.3077  0.1296
  134SOL    HW1  401   2.640   2.353   1.676 -0.0228 -3.3045 -1.2856
  134SOL    HW2  402   2.732   2.475   1.586 -0.0023 -1.4255  0.3904
  135SOL     OW  403   0.786   1.457   2.683  0.7080  0.4374  0.3025
  135SOL    HW1  404   0.722   1.376   2.697 -0.1528 -0.4507 -2.0702
  135SOL    HW2  405   0.780   1.481   2.586  1.0673  0.8406  3.4131
  136SOL     OW  406   1.190   2.030   0.397 -0.3902 -0.8193 -0.0261
  136SOL    HW1  407   1.137   2.108   0.445 -0.6810  1.1866  0.0330
  136SOL    HW2  408   1.132   1.941   0.390  0.2583 -2.3813  0.8692
  137SOL     OW  409   0.406   1.209   2.284  0.1044  0.1736  0.4855
  137SOL    HW1  410   0.309   1.212   2.328  1.5687 -0.0057 -0.7373
  137SOL    HW2  411   0.444   1.115   2.287  0.4793  1.8506  0.0358
  138SOL     OW  412   2.413   1.532   0.265  0.0055  0.0595 -0.3376
  138SOL    HW1  413   2.356   1.489   0.192  0.4743 -2.3104  2.4786
  138SOL    HW2  414   2.414   1.462   0.344  2.3793  0.1989  0.3634
  139SOL     OW  415   1.877   2.650   1.561  0.6163 -0.6004 -0.4795
  139SOL    HW1  416   1.781   2.670   1.528 -1.2420  0.7764  0.7387
  139SOL    HW2  417   1.914   2.564   1.517  2.8417  1.9770  0.2728
  140SOL     OW  418   2.969   2.951   2.581 -0.6881 -0.0005 -0.1757
  140SOL    HW1  419   3.027   2.863   2.593 -1.8634 -1.5288 -1.7202
  140SOL    HW2  420   3.032   3.035   2.563 -1.5309  0.0082  0.8921
  141SOL     OW  421   1.305   1.628   1.545  0.0564  0.8474 -0.3266
  141SOL    HW1  422   1.214   1.674   1.522 -0.9890  1.9940 -0.4832
  141SOL    HW2  423   1.306   1.576   1.636  0.9164  0.2198 -1.2321
  142SOL     OW  424   1.512   0.659   2.231  0.2409 -0.0726  0.5596
  142SOL    HW1  425   1.492   0.735   2.170  0.3892 -0.8892  1.4916
  142SOL    HW2  426   1.435   0.593   2.225  1.9663 -0.7276 -0.6594
  143SOL     OW  427   2.750   0.812   0.556  0.4544  1.0379  0.1483
  143SOL    HW1  428   2.819   0.851   0.496 -0.5434 -1.4457  3.1841
  143SOL    HW2  429   2.745   0.856   0.652  1.0449 -2.5348  2.0724
  144SOL     OW  430   2.914   1.215   1.460 -0.4281 -0.3579 -0.2625
  144SOL    HW1  431   2.860   1.219   1.550  1.5467 -1.5104  2.6401
  144SOL    HW2  432   2.973   1.130   1.446 -2.2571 -0.1424 -0.6440
  145SOL     OW  433   0.867   1.832   0.112  0.2527 -0.4069 -0.4777
  145SOL    HW1  434   0.875   1.883   0.026 -2.1856 -0.6975 -1.1193
  145SOL    HW2  435   0.833   1.735   0.103 -1.1122  0.2275  1.0370
  146SOL     OW  436   2.477   0.655   1.527  0.0359 -0.1683  0.3886
  146SOL    HW1  437   2.479   0.560   1.487  1.7767  1.5417 -0.3728
  146SOL    HW2  438   2.390   0.702   1.503 -0.7995 -1.1958 -1.3856
  147SOL     OW  439   1.110   2.507   0.584 -0.6170 -0.0527 -0.4911
  147SOL    HW1  440   1.045   2.553   0.517  1.2236  1.1461 -1.1769
  147SOL    HW2  441   1.203   2.481   0.541 -0.7911  0.4065 -0.1503
  148SOL     OW  442   1.582   1.469   0.004 -0.2022 -0.0711  0.5816
  148SOL    HW1  443   1.594   1.372  -0.029  2.3686 -0.4581  1.6333
  148SOL    HW2  444   1.586   1.463   0.106 -1.7703  0.8712  0.1404
  149SOL     OW  445   0.661   1.486   1.973  0.1139 -0.0265  0.4725
  149SOL    HW1  446   0.569   1.454   2.010 -2.1519 -0.0304 -1.7626
  149SOL    HW2  447   0.678   1.448   1.880 -2.5747  0.8299 -1.6910
  150SOL     OW  448   3.069   1.219   0.959  0.3580  0.0273 -0.4902
  150SOL    HW1  449   3.150   1.233   1.020 -1.4066  1.3812 -1.1307
  150SOL    HW2  450   2.997   1.157   1.000 -1.4099 -1.5098  2.4719
  151SOL     OW  451   0.196   0.879   2.059 -1.0924  0.8004  0.5055
  151SOL    HW1  452   0.213   0.951   1.992 -0.9911 -0.8201 -0.3086
  151SOL    HW2  453   0.232   0.784   2.032 -0.5881  2.5327  0.0237
  152SOL     OW  454   1.482   1.844   1.085  0.5150  0.1849  0.1453
  152SOL    HW1  455   1.524   1.937   1.103 -0.0837 -0.3275  1.1550
  152SOL    HW2  456   1.388   1.860   1.056  4.0810 -0.2986  1.0462
  153SOL     OW  457   0.143   1.510   0.231  0.1796 -0.9060 -0.2312
  153SOL    HW1  458   0.074   1.433   0.237  0.7937 -0.1915  0.5900
  153SOL    HW2  459   0.145   1.574   0.317 -0.4715  1.7246  0.1889
  154SOL     OW  460   2.323   1.771   2.745  0.4403  0.1712  0.0921
  154SOL    HW1  461   2.342   1.674   2.755  1.1286  0.9142  1.3868
  154SOL    HW2  462   2.399   1.831   2.700  1.2084 -0.0310 -0.3540
  155SOL     OW  463   2.402   1.286   0.411 -0.0249  0.2566  0.2773
  155SOL    HW1  464   2.493   1.245   0.395 -0.3912  0.3455  1.3145
  155SOL    HW2  465   2.338   1.217   0.460  1.2923  0.9315  3.5958
  156SOL     OW  466   2.469   0.818   0.704  0.3708  0.4562  0.2907
  156SOL    HW1  467   2.379   0.765   0.716  0.0390 -0.2134 -1.5424
  156SOL    HW2  468   2.469   0.863   0.614  0.2860  3.2229  1.4941
  157SOL     OW  469   1.238   3.036   3.067  0.7042  0.4701  0.3551
  157SOL    HW1  470   1.297   2.969   3.020 -2.2268  0.0577  1.2041
  157SOL    HW2  471   1.281   3.133   3.070 -2.4501  1.6994  2.0695
  158SOL     OW  472   1.081   1.919   1.828  0.9243  0.3094 -0.8022
  158SOL    HW1  473   1.104   2.010   1.783 -3.2142  0.0924 -0.3845
  158SOL    HW2  474   0.990   1.930   1.882 -1.0202 -2.7023  1.2230
  159SOL     OW  475   0.802   0.420   1.275 -0.2658 -0.2307  0.5587
  159SOL    HW1  476   0.751   0.508   1.287 -0.8324  0.4016 -1.7262
  159SOL    HW2  477   0.749   0.352   1.210 -2.9652 -3.4504  2.2120
  160SOL     OW  478   1.410   2.446   1.448  0.0055  0.5812 -0.1363
  160SOL    HW1  479   1.346   2.398   1.513  1.8231 -1.3765 -1.5194
  160SOL    HW2  480   1.479   2.381   1.405 -1.5101 -0.2479 -0.6550
  161SOL     OW  481   3.065   2.649   0.443  0.4998 -0.2708  0.1597
  161SOL    HW1  482   3.034   2.557   0.409 -0.0676 -1.8414  0.9273
  161SOL    HW2  483   2.999   2.717   0.420  0.9238 -1.0275  2.7063
  162SOL     OW  484   2.537   1.890   0.453 -0.1294 -0.0160  0.7051
  162SOL    HW1  485   2.586   1.847   0.370  1.2792  4.3066  0.8742
  162SOL    HW2  486   2.485   1.810   0.500  0.9540 -0.1071  0.4443
  163SOL     OW  487   1.959   2.720   0.752  0.3682  0.6984 -0.3103
  163SOL    HW1  488   1.972   2.742   0.652  0.6144  0.9888  1.6969
  163SOL    HW2  489   2.013   2.642   0.788 -3.8615  0.6155  0.2356
  164SOL     OW  490   3.092   0.149   1.213 -0.2304 -0.0767  0.0113
  164SOL    HW1  491   3.072   0.244   1.182  1.2671 -0.7244  0.3047
  164SOL    HW2  492   3.134   0.162   1.305 -1.9154 -0.5628 -1.0484
  165SOL     OW  493   1.108   1.452   0.654  0.1999  0.0428 -0.3281
  165SOL    HW1  494   1.083   1.482   0.747  0.5619  0.2011 -2.5966
  165SOL    HW2  495   1.049   1.498   0.582 -0.6663  2.9696  1.8757
  166SOL     OW  496   1.516   0.998   1.807  0.0446 -0.2316 -0.2572
  166SOL    HW1  497   1.433   1.057   1.812 -1.0153 -2.9342 -0.4049
  166SOL    HW2  498   1.601   1.042   1.770 -1.6297  0.8725  0.6995
  167SOL     OW  499   0.671   1.994   1.523 -0.1949  0.0551 -0.0928
  167SOL    HW1  500   0.704   2.039   1.611 -0.2405  1.3469  1.6430
  167SOL    HW2  501   0.605   1.918   1.537 -0.6748  1.4253  3.1221
  168SOL     OW  502   1.602   2.332   0.150 -0.0993 -0.7353 -0.1606
  168SOL    HW1  503   1.667   2.337   0.069  0.8578 -1.3006 -1.4243
  168SOL    HW2  504   1.622   2.251   0.209  1.7258 -0.6455 -2.0833
  169SOL     OW  505   0.019   2.561   2.208 -0.3390  0.0132  0.1918
  169SOL    HW1  506   0.043   2.479   2.152 -3.2709  3.4660 -1.0389
  169SOL    HW2  507   0.077   2.574   2.295  0.2077  0.5427  1.1002
  170SOL     OW  508   1.157   0.151   2.047 -0.5324 -0.1095  0.3645
  170SOL    HW1  509   1.242   0.166   2.106 -1.4987  1.3684 -0.4841
  170SOL    HW2  510   1.179   0.153   1.948  0.3561 -0.6190 -0.0813
  171SOL     OW  511   0.198   0.844   2.415  0.0884  0.5122  0.6575
  171SOL    HW1  512   0.123   0.866   2.478 -0.3065 -2.2652 -2.5008
  171SOL    HW2  513   0.170   0.861   2.315 -3.1610  0.0841 -0.5397
  172SOL     OW  514   0.985   1.041   2.876  0.2490  0.0988 -0.1825
  172SOL    HW1  515   0.931   1.093   2.949  2.3657 -0.3364 -1.0557
  172SOL    HW2  516   0.932   1.033   2.785  0.9628 -3.2050  0.1572
  173SOL     OW  517   0.429   2.563   0.062 -0.6442  0.2947 -0.5280
  173SOL    HW1  518   0.464   2.529  -0.027  0.9011  2.4657 -2.7083
  173SOL    HW2  519   0.357   2.503   0.098 -3.4443  1.1617  0.9772
  174SOL     OW  520   1.496   2.886   1.063 -0.3708 -0.1143 -0.4323
  174SOL    HW1  521   1.554   2.950   1.004  0.6076  0.8517  4.2205
  174SOL    HW2  522   1.481   2.792   1.021  0.7971 -0.5812 -3.4729
  175SOL     OW  523   0.414   3.059   1.720  0.3928  0.0930 -0.0681
  175SOL    HW1  524   0.473   3.066   1.809  2.2839 -1.3683  1.8826
  175SOL    HW2  525   0.391   3.153   1.675  0.3163  1.8677 -1.1881
  176SOL     OW  526   2.666   0.397   3.092  0.1251  0.0686 -0.1613
  176SOL    HW1  527   2.658   0.481   3.152  0.1954  0.1088  0.4274
  176SOL    HW2  528   2.628   0.308   3.128 -0.4757 -1.0465 -0.4272
  177SOL     OW  529   0.368   0.287   0.909 -0.1412 -0.0570 -0.4105
  177SOL    HW1  530   0.304   0.202   0.909 -1.2535 -1.9699 -0.4898
  177SOL    HW2  531   0.472   0.266   0.927  3.4154  1.5598 -1.1109
  178SOL     OW  532   0.051   2.747   2.594 -0.0682 -0.4712  0.6177
  178SOL    HW1  533   0.022   2.647   2.579  0.3197 -0.8003  0.8584
  178SOL    HW2  534   0.106   2.770   2.678 -0.2735 -1.6565  1.0557
  179SOL     OW  535   2.957   1.566   1.162  0.0161  0.2220  0.7478
  179SOL    HW1  536   3.054   1.583   1.132  2.2341  0.7779 -2.2268
  179SOL    HW2  537   2.944   1.509   1.247  0.3574  1.3168  1.1176
  180SOL     OW  538   0.233   1.379   1.758  0.5188 -0.1149  0.2482
  180SOL    HW1  539   0.316   1.323   1.771 -1.9733  2.4219  0.2561
  180SOL    HW2  540   0.178   1.393   1.844 -0.5991 -0.1427  0.9023
  181SOL     OW  541   2.966   1.854   2.517  0.6154 -0.7360 -0.0017
  181SOL    HW1  542   2.980   1.937   2.456  0.0066  1.1580 -3.3050
  181SOL    HW2  543   2.867   1.828   2.541 -0.6310  0.6684 -1.1585
  182SOL     OW  544   2.265   1.371   1.197 -0.0646  0.2237 -0.9038
  182SOL    HW1  545   2.242   1.294   1.131  0.5869 -0.5298 -0.7211
  182SOL    HW2  546   2.345   1.420   1.157 -0.9549 -2.1562  0.9006
  183SOL     OW  547   1.429   2.270   2.420  0.2919 -0.5684  0.0064
  183SOL    HW1  548   1.364   2.196   2.455 -2.1760  1.1134 -0.2095
  183SOL    HW2  549   1.517   2.227   2.382 -0.5807 -2.7185 -3.1537
  184SOL     OW  550   2.169   0.828   0.768  0.3041 -0.1562  0.1993
  184SOL    HW1  551   2.069   0.867   0.762 -1.3483 -0.0657  0.2615
  184SOL    HW2  552   2.168   0.719   0.764 -1.0979 -3.5467  1.2482
  185SOL     OW  553   1.569   2.789   1.991 -0.1023  0.1943 -0.2072
  185SOL    HW1  554   1.478   2.827   2.025 -0.4579  1.4843 -1.7068
  185SOL    HW2  555   1.635   2.766   2.069  0.5902  1.1942  1.8825
  186SOL     OW  556   0.108   2.212   1.735 -0.1140  0.5047  0.1770
  186SOL    HW1  557   0.086   2.264   1.824  1.2125  1.2535  1.5411
  186SOL    HW2  558   0.203   2.166   1.729 -0.7989  1.8234  3.0228
  187SOL     OW  559   1.361   0.664   1.659 -0.5473  0.0182  0.6226
  187SOL    HW1  560   1.443   0.717   1.620 -1.8384  1.3811 -1.8582
  187SOL    HW2  561   1.383   0.598   1.734 -2.7006  1.9726 -2.9457
  188SOL     OW  562   2.719   2.694   1.503 -0.4929 -0.3076  0.5683
  188SOL    HW1  563   2.679   2.790   1.503  0.2238  0.9135  0.1972
  188SOL    HW2  564   2.665   2.629   1.448  0.9598  0.7055  3.2878
  189SOL     OW  565   0.937   1.233   1.348  0.1787 -0.1172 -0.0413
  189SOL    HW1  566   1.003   1.276   1.415 -0.1977  1.3596 -1.4474
  189SOL    HW2  567   0.874   1.301   1.302  3.6292 -0.5211 -2.6304
  190SOL     OW  568   1.453   1.871   1.521  0.0172 -0.1805 -0.1628
  190SOL    HW1  569   1.402   1.783   1.536 -1.3994  1.2714 -2.5838
  190SOL    HW2  570   1.474   1.928   1.605  2.6168 -0.6856 -0.5798
  191SOL     OW  571   0.865   0.764   1.508 -0.2786 -0.0153 -0.0248
  191SOL    HW1  572   0.929   0.709   1.561 -1.8249 -0.0823 -1.6512
  191SOL    HW2  573   0.910   0.840   1.455  3.2129  1.8972  1.1566
  192SOL     OW  574   1.851   2.437   1.128  0.1111 -0.1066  0.1803
  192SOL    HW1  575   1.747   2.428   1.119  0.6636  0.4185  3.0533
  192SOL    HW2  576   1.915   2.367   1.095  1.3082  0.3265  0.0976
  193SOL     OW  577   0.577   0.583   0.467  0.2460  0.2620 -0.2889
  193SOL    HW1  578   0.504   0.512   0.447 -0.8696 -3.1438 -0.8058
  193SOL    HW2  579   0.637   0.591   0.385 -2.2378  1.8770 -0.2895
  194SOL     OW  580   0.371   0.866   1.311 -0.0302 -0.3996  0.3145
  194SOL    HW1  581   0.294   0.805   1.280  0.0475 -2.2181 -1.8897
  194SOL    HW2  582   0.430   0.899   1.232 -1.1470 -2.3456  0.2247
  195SOL     OW  583   1.011   2.941   0.544  0.8177  0.0720 -0.4653
  195SOL    HW1  584   1.006   2.846   0.507  0.0968  0.0421 -0.8333
  195SOL    HW2  585   1.110   2.973   0.548 -0.0739  0.3356  1.2336
  196SOL     OW  586   0.276   1.381   1.313 -0.5626  0.2631 -0.2892
  196SOL    HW1  587   0.277   1.484   1.318 -0.2528  0.2823 -0.0990
  196SOL    HW2  588   0.252   1.329   1.400  2.0015 -1.3624  1.2851
  197SOL     OW  589   0.848   2.009   0.325  0.1210 -0.1777  0.1741
  197SOL    HW1  590   0.851   1.954   0.415  0.4061  2.2884  0.3418
  197SOL    HW2  591   0.845   1.949   0.243 -0.9591  0.0759  0.2446
  198SOL     OW  592   0.291   1.237   0.343 -0.3247 -0.1255 -0.0162
  198SOL    HW1  593   0.207   1.235   0.287  1.5195 -1.7362  2.4113
  198SOL    HW2  594   0.312   1.334   0.363 -1.0640 -2.4534  0.8137
  199SOL     OW  595   2.177   0.486   2.592  0.5704 -0.1715  0.5045
  199SOL    HW1  596   2.093   0.457   2.643  0.2661  0.8765  0.0551
  199SOL    HW2  597   2.268   0.451   2.634 -0.1706 -0.2959 -3.4433
  200SOL     OW  598   3.031   2.922   0.781 -0.0827 -0.0526  0.2570
  200SOL    HW1  599   3.072   3.017   0.808 -0.4164  1.9757 -1.7778
  200SOL    HW2  600   2.967   2.930   0.697  0.4587 -1.2584  0.3567
  201SOL     OW  601   0.906   0.677   0.511 -0.5703  0.3336  0.3385
  201SOL    HW1  602   0.856   0.747   0.567 -0.0031  1.0348 -0.7065
  201SOL    HW2  603   0.873   0.583   0.541 -2.2029 -2.3546 -0.0543
  202SOL     OW  604   0.453   1.231   1.858  0.5024 -0.2500 -0.5762
  202SOL    HW1  605   0.547   1.190   1.824 -0.0068 -0.2415 -1.2923
  202SOL    HW2  606   0.452   1.277   1.956  0.8394  1.2437  0.9024
  203SOL     OW  607   0.691   0.203   1.594  0.0133 -0.5290  0.1765
  203SOL    HW1  608   0.712   0.161   1.497 -0.1612 -1.4501 -2.6683
  203SOL    HW2  609   0.752   0.170   1.671 -0.2809  0.3595  0.7195
  204SOL     OW  610   2.092   1.810   2.931  0.5011  0.2976 -0.2840
  204SOL    HW1  611   2.100   1.708   2.967  0.5550 -0.4572  1.5221
  204SOL    HW2  612   2.138   1.824   2.837 -1.5702  2.4451 -3.3483
  205SOL     OW  613   1.836   1.909   3.086  0.2760 -0.3234  0.0012
  205SOL    HW1  614   1.925   1.873   3.046  1.4659  1.7994  0.4104
  205SOL    HW2  615   1.799   1.978   3.020 -3.6390 -0.3737 -1.0226
  206SOL     OW  616   2.381   2.720   0.263 -0.3099 -0.1481  0.0539
  206SOL    HW1  617   2.360   2.665   0.349 -2.2159 -1.4561 -0.3964
  206SOL    HW2  618   2.474   2.714   0.212 -0.6117  1.8221  0.4748
  207SOL     OW  619   0.688   1.745   2.899 -0.1323 -0.1981  0.7295
  207SOL    HW1  620   0.773   1.695   2.864 -1.1225 -0.8222  1.1724
  207SOL    HW2  621   0.633   1.685   2.963 -1.7776 -0.5055 -3.5702
  208SOL     OW  622   1.009   1.556   1.255 -0.0610 -0.0287  0.4857
  208SOL    HW1  623   0.959   1.602   1.179  0.7479 -0.6987  1.8548
  208SOL    HW2  624   0.978   1.586   1.348 -2.5655 -3.7784  0.5622
  209SOL     OW  625   0.270   0.960   3.077 -0.1141 -0.2940 -0.3849
  209SOL    HW1  626   0.307   0.903   3.002  2.5037  4.3671 -0.9629
  209SOL    HW2  627   0.244   0.906   3.164 -1.3258 -0.2144  0.5164
  210SOL     OW  628   1.696   0.535   1.270 -0.1307  0.7295 -0.1298
  210SOL    HW1  629   1.652   0.581   1.190  0.0915  1.1410 -2.7906
  210SOL    HW2  630   1.802   0.525   1.265 -1.3398 -1.5285  1.4128
  211SOL     OW  631   2.135   1.011   1.579  0.4693  0.2549  0.2844
  211SOL    HW1  632   2.186   0.984   1.663  2.3726  0.3357 -4.8783
  211SOL    HW2  633   2.191   1.080   1.526  2.0180 -0.2042 -2.0362
  212SOL     OW  634   0.047   1.003   1.488  0.3152  0.5892 -0.5016
  212SOL    HW1  635   0.115   1.085   1.488 -0.6177  1.8130  2.0324
  212SOL    HW2  636   0.073   0.931   1.562  0.5700  2.1072  0.5070
  213SOL     OW  637   2.824   0.133   0.324 -0.1847 -0.7120  0.2344
  213SOL    HW1  638   2.923   0.108   0.313 -3.9174 -2.7649  1.3512
  213SOL    HW2  639   2.753   0.065   0.288 -0.7778  0.8237  0.1935
  214SOL     OW  640   2.157   0.323   2.351 -0.0839 -0.6157  0.0297
  214SOL    HW1  641   2.163   0.372   2.441 -1.2361 -1.4695  0.8093
  214SOL    HW2  642   2.167   0.221   2.352 -0.8662  3.7406 -1.7670
  215SOL     OW  643   1.639   2.206   2.034  0.3318 -0.2114 -0.0009
  215SOL    HW1  644   1.735   2.243   2.038  2.6519 -1.0785  0.0392
  215SOL    HW2  645   1.566   2.277   2.040 -2.0286  0.5408  0.1783
  216SOL     OW  646   2.200   0.538   0.728  0.2913 -0.4472  0.4875
  216SOL    HW1  647   2.170   0.530   0.623  0.8634 -0.5460 -4.2788
  216SOL    HW2  648   2.222   0.443   0.762  0.3517  2.5461  0.2192
  217SOL     OW  649   0.922   2.776   2.589  0.0165 -1.0648 -0.4201
  217SOL    HW1  650   0.959   2.693   2.645  1.0819 -1.4159  0.6964
  217SOL    HW2  651   0.876   2.758   2.499 -0.4782 -0.3153  3.2316
  218SOL     OW  652   1.869   1.461   0.044 -0.7216 -0.3503 -0.0978
  218SOL    HW1  653   1.780   1.431  -0.001 -0.1713 -0.2619 -1.5782
  218SOL    HW2  654   1.907   1.397   0.114  0.3698  1.5092  0.4019
  219SOL     OW  655   2.459   1.266   2.535  0.1604  0.1002 -0.5950
  219SOL    HW1  656   2.516   1.230   2.458  1.8306  0.3911 -0.0763
  219SOL    HW2  657   2.445   1.201   2.615 -0.5587  1.4601 -0.4021
  220SOL     OW  658   1.396   1.040   1.369 -0.6762  0.3394 -0.2224
  220SOL    HW1  659   1.485   0.994   1.401 -0.1283 -1.2022 -1.1970
  220SOL    HW2  660   1.398   1.066   1.266  1.5027 -0.6248 -1.5289
  221SOL     OW  661   1.395   0.974   2.178  0.1131  0.3661 -0.6840
  221SOL    HW1  662   1.343   1.003   2.096  0.5691  0.8261  2.5690
  221SOL    HW2  663   1.477   1.039   2.197  0.7521  2.4530  1.9151
  222SOL     OW  664   1.151   0.088   1.220  0.3276 -0.6451 -0.0706
  222SOL    HW1  665   1.163   0.130   1.312  0.7054 -1.2480 -0.5969
  222SOL    HW2  666   1.157   0.155   1.140  0.3882  0.8688 -0.5928
  223SOL     OW  667   2.709   0.955   2.103 -0.0885  0.0108  0.1827
  223SOL    HW1  668   2.642   1.019   2.060  0.4034 -0.6692 -2.3175
  223SOL    HW2  669   2.801   1.000   2.123  1.8826  0.3613 -1.6766
  224SOL     OW  670   1.579   1.024   2.778 -0.5163 -0.4997  0.1897
  224SOL    HW1  671   1.581   0.952   2.704 -2.4291  3.2795  0.3209
  224SOL    HW2  672   1.627   1.107   2.747 -0.4584  0.2163 -2.7051
  225SOL     OW  673   2.947   2.686   2.903 -0.2890 -0.7742  0.6123
  225SOL    HW1  674   2.871   2.703   2.836 -0.1260  0.2450 -0.2859
  225SOL    HW2  675   3.028   2.752   2.895  3.2128  1.0249 -1.0712
  226SOL     OW  676   2.386   1.498   2.811  0.0865  0.4459 -0.2795
  226SOL    HW1  677   2.455   1.491   2.736 -0.9364 -0.2656  0.6579
  226SOL    HW2  678   2.411   1.460   2.906  0.7084  1.3390 -1.0297
  227SOL     OW  679   0.840   0.235   3.094 -0.2018  0.2294 -0.5552
  227SOL    HW1  680   0.863   0.336   3.097  1.4270 -1.3905 -0.8700
  227SOL    HW2  681   0.815   0.204   2.995 -0.1375 -0.1342  0.5518
  228SOL     OW  682   2.436   0.658   2.861  0.5414  0.0656 -0.3236
  228SOL    HW1  683   2.418   0.725   2.783  0.8099 -0.5344 -0.6954
  228SOL    HW2  684   2.519   0.602   2.846  0.6790  0.2478  1.4005
  229SOL     OW  685   0.437   0.493   1.824 -0.0014  0.1367 -0.1076
  229SOL    HW1  686   0.515   0.533   1.881  1.2002  2.5957 -1.0775
  229SOL    HW2  687   0.456   0.491   1.726 -0.4368 -1.2031  3.5699
  230SOL     OW  688   1.899   1.212   1.970 -0.2219  0.2504 -0.2831
  230SOL    HW1  689   1.975   1.281   1.965  0.5725  0.0401  0.6789
  230SOL    HW2  690   1.829   1.245   2.041  1.1293  0.6816  0.0956
  231SOL     OW  691   0.617   1.066   3.093  0.2016  0.0617  0.0468
  231SOL    HW1  692   0.709   1.124   3.103  1.1169 -2.6103 -0.9083
  231SOL    HW2  693   0.536   1.122   3.111 -0.8391 -0.2766 -0.8719
  232SOL     OW  694   2.415   3.055   2.819  0.1450  0.5059 -1.0408
  232SOL    HW1  695   2.482   2.972   2.832  0.7488 -0.2905  0.7202
  232SOL    HW2  696   2.444   3.123   2.745  0.1897  0.6804 -2.8104
  233SOL     OW  697   1.740   1.175   1.100  0.6266 -0.2762 -0.4126
  233SOL    HW1  698   1.815   1.203   1.038  0.5202 -1.7752 -2.8241
  233SOL    HW2  699   1.771   1.099   1.160  1.0204  0.0550  0.7865
  234SOL     OW  700   1.656   2.574   1.821  0.0540 -0.1974  0.3217
  234SOL    HW1  701   1.637   2.657   1.875 -0.1395 -4.9938  0.2740
  234SOL    HW2  702   1.611   2.489   1.864 -0.3204  0.7246 -0.8764
  235SOL     OW  703   3.092   2.957   2.865 -0.1373  0.5889 -0.5071
  235SOL    HW1  704   3.040   3.004   2.788  3.1452  0.2154 -0.0141
  235SOL    HW2  705   3.063   2.987   2.959  1.6447  2.1598 -1.0957
  236SOL     OW  706   2.952   0.673   0.048 -0.5245 -0.2735 -0.1812
  236SOL    HW1  707   3.015   0.720   0.119  1.1093  3.1140  0.4180
  236SOL    HW2  708   2.999   0.586   0.014  1.3892 -0.1310 -1.5878
  237SOL     OW  709   1.460   1.636   0.907 -0.3641  0.9050 -0.0174
  237SOL    HW1  710   1.545   1.575   0.914  0.9027 -0.2650  0.1387
  237SOL    HW2  711   1.456   1.708   0.983  1.7588  0.4908 -2.0536
  238SOL     OW  712   1.899   1.197   0.786  0.3007 -0.6509 -0.2829
  238SOL    HW1  713   1.927   1.254   0.866  2.4720  0.4091 -1.4981
  238SOL    HW2  714   1.791   1.206   0.775 -5.0747  0.3110  0.1376
  239SOL     OW  715   2.023   0.227   2.743 -0.0164 -0.5359  0.2186
  239SOL    HW1  716   2.070   0.180   2.820 -3.0776  2.8443 -1.3306
  239SOL    HW2  717   1.968   0.309   2.776 -1.4450  0.5527  1.6830
  240SOL     OW  718   0.923   0.720   0.237  0.4359  0.1319 -0.3695
  240SOL    HW1  719   0.969   0.632   0.204 -0.5510 -2.5717 -1.1580
  240SOL    HW2  720   0.918   0.727   0.342  0.9643  0.9727  2.4431
  241SOL     OW  721   0.559   0.141   0.345 -0.5911 -0.3340  0.1045
  241SOL    HW1  722   0.625   0.203   0.300 -2.0629  0.6914  3.2365
  241SOL    HW2  723   0.547   0.048   0.301  2.0681 -2.6789 -1.2795
  242SOL     OW  724   0.639   2.569   1.195 -0.0273  0.3581 -0.1394
  242SOL    HW1  725   0.634   2.564   1.302  0.0970 -0.6189  3.1339
  242SOL    HW2  726   0.587   2.651   1.153  1.7162 -1.3036 -3.1196
  243SOL     OW  727   1.055   0.590   2.370  0.3705  0.1952 -0.0623
  243SOL    HW1  728   0.963   0.587   2.317 -4.2649  0.6761  1.8366
  243SOL    HW2  729   1.038   0.560   2.471  0.5637  1.8897 -0.7287
  244SOL     OW  730   2.702   1.942   2.346 -0.8721  0.4665 -0.1381
  244SOL    HW1  731   2.759   1.909   2.267 -0.7146  1.3123  1.4330
  244SOL    HW2  732   2.635   1.873   2.379  1.8059 -1.0481  2.7613
  245SOL     OW  733   2.171   1.001   2.170 -0.0307  0.2189  0.7819
  245SOL    HW1  734   2.266   0.961   2.196 -0.6943 -2.7012  0.3565
  245SOL    HW2  735   2.130   1.062   2.243 -0.2836  0.6818  0.6719
  246SOL     OW  736   0.285   2.847   1.817  0.5103 -0.0406 -0.5207
  246SOL    HW1  737   0.196   2.833   1.762  0.8699  0.1094  1.2330
  246SOL    HW2  738   0.353   2.902   1.768  0.7122  0.7969  1.9127
  247SOL     OW  739   2.221   0.595   3.023  0.2310  0.1815 -0.5215
  247SOL    HW1  740   2.302   0.619   2.963 -1.0916 -1.8628  0.3574
  247SOL    HW2  741   2.145   0.673   3.033 -1.2620  0.7120  3.1891
  248SOL     OW  742   2.200   1.826   1.610  0.2537 -0.7240 -0.4602
  248SOL    HW1  743   2.268   1.801   1.682  1.5563  0.6013 -1.0706
  248SOL    HW2  744   2.107   1.769   1.609 -2.6373  0.6442 -1.7550
  249SOL     OW  745   1.893   1.898   1.799 -0.7378 -0.1232 -0.0268
  249SOL    HW1  746   1.902   1.833   1.717  0.3602  1.2241 -1.0845
  249SOL    HW2  747   1.983   1.903   1.854  0.3467  2.1430  0.3925
  250SOL     OW  748   0.979   0.709   1.893 -0.7090  0.2262  0.1522
  250SOL    HW1  749   1.051   0.645   1.927  0.8562 -0.1567 -0.7676
  250SOL    HW2  750   0.947   0.694   1.796  1.1835 -0.6432  1.7392
  251SOL     OW  751   3.048   1.557   2.517 -0.5794 -0.7687  0.3030
  251SOL    HW1  752   3.042   1.647   2.462 -2.9157 -0.3809  1.1014
  251SOL    HW2  753   2.964   1.493   2.512 -0.8047 -2.9667 -0.8753
  252SOL     OW  754   1.544   0.855   1.567  0.3974  0.5533  0.7307
  252SOL    HW1  755   1.619   0.894   1.507  1.0660 -1.5072 -0.1489
  252SOL    HW2  756   1.524   0.906   1.656  0.6701 -0.2136  1.7794
  253SOL     OW  757   0.932   1.515   0.462 -0.0962 -0.0215 -1.0045
  253SOL    HW1  758   0.953   1.489   0.365  1.4995  2.1402 -0.0093
  253SOL    HW2  759   0.827   1.521   0.482  1.9743  1.4839  2.3898
  254SOL     OW  760   2.034   2.198   1.593  0.3510 -0.0426 -0.0994
  254SOL    HW1  761   1.995   2.109   1.548 -0.8045 -2.8596 -0.3978
  254SOL    HW2  762   1.962   2.251   1.644  1.2314  0.7161  1.3599
  255SOL     OW  763   0.132   1.151   2.924  0.3004  0.1223 -0.4689
  255SOL    HW1  764   0.193   1.229   2.899  0.1056  1.5723 -2.4884
  255SOL    HW2  765   0.172   1.076   2.985 -3.4708  1.4095 -1.1660
  256SOL     OW  766   2.829   1.403   1.793 -0.0076  0.5005 -0.5555
  256SOL    HW1  767   2.784   1.489   1.764  1.7499 -1.9528  2.1115
  256SOL    HW2  768   2.788   1.312   1.759  0.4474 -0.3248 -2.9829
  257SOL     OW  769   0.819   0.229   1.851  0.7977  0.6118  0.7978
  257SOL    HW1  770   0.870   0.296   1.803  0.5289 -1.1031  1.0320
  257SOL    HW2  771   0.852   0.130   1.840  0.2057  2.0125  2.8805
  258SOL     OW  772   2.956   1.153   0.543 -0.0193  0.2882  0.0031
  258SOL    HW1  773   2.868   1.174   0.592  2.6332  3.7729 -0.5887
  258SOL    HW2  774   3.030   1.221   0.573 -1.4114 -0.7856  0.3327
  259SOL     OW  775   0.463   2.932   2.988 -0.1592 -0.3357  0.1535
  259SOL    HW1  776   0.394   2.876   3.046  0.0485 -0.3389 -1.9412
  259SOL    HW2  777   0.473   2.877   2.895  1.0046  0.8626 -3.4886
  260SOL     OW  778   2.717   0.754   2.743 -0.0164 -0.2245  0.3939
  260SOL    HW1  779   2.631   0.802   2.721  1.9766 -3.5152  0.0798
  260SOL    HW2  780   2.712   0.660   2.782 -0.6716  3.3657  2.0971
  261SOL     OW  781   2.700   1.306   1.299 -0.0762 -0.0994 -0.0011
  261SOL    HW1  782   2.657   1.240   1.233 -0.4801 -0.7786 -1.2361
  261SOL    HW2  783   2.789   1.276   1.335 -1.6941 -3.6025 -1.6549
  262SOL     OW  784   1.375   2.978   2.080  0.3040  0.0552  0.3843
  262SOL    HW1  785   1.425   3.055   2.029 -2.1192 -1.4142 -0.7974
  262SOL    HW2  786   1.281   2.954   2.043 -0.7640 -0.5626 -1.7920
  263SOL     OW  787   0.805   0.644   2.259  0.0388 -0.7123  0.2002
  263SOL    HW1  788   0.745   0.569   2.225  1.0226 -0.5744  0.6649
  263SOL    HW2  789   0.807   0.726   2.188 -0.6920  0.2885 -0.3443
  264SOL     OW  790   2.272   0.804   0.361 -0.0244 -0.0095 -0.2123
  264SOL    HW1  791   2.292   0.734   0.282  0.0192 -0.7873  2.5642
  264SOL    HW2  792   2.362   0.818   0.411 -1.4033 -0.6664  0.8167
  265SOL     OW  793   0.930   2.388   2.602 -0.1744  0.3883 -0.3681
  265SOL    HW1  794   0.988   2.453   2.660  2.3223  1.9172  2.2751
  265SOL    HW2  795   0.891   2.316   2.664  2.1889  0.6905 -2.7007
  266SOL     OW  796   1.304   1.767   3.053 -0.4475  0.1730 -0.2063
  266SOL    HW1  797   1.325   1.797   3.151  0.0764  0.7464  0.9703
  266SOL    HW2  798   1.390   1.761   2.993  1.0754 -1.9380 -3.2225
  267SOL     OW  799   1.052   0.046   2.303 -0.3680  0.0442  0.3577
  267SOL    HW1  800   0.964  -0.002   2.276  1.8547  1.2288  5.0400
  267SOL    HW2  801   1.105   0.077   2.219  1.4363  0.3126  1.8248
  268SOL     OW  802   0.829   1.245   1.037  0.3758  0.6202  0.2116
  268SOL    HW1  803   0.819   1.319   1.107  0.6237 -2.3864 -0.8106
  268SOL    HW2  804   0.916   1.256   0.979  2.0811 -1.8889 -0.5505
  269SOL     OW  805   2.373   2.509   1.633 -0.1280  0.6618 -0.3334
  269SOL    HW1  806   2.451   2.447   1.665 -0.0109  0.9877  1.3087
  269SOL    HW2  807   2.336   2.552   1.722  1.7786  0.0565  1.2189
  270SOL     OW  808   0.161   2.992   2.005 -0.0577  0.0367 -0.5167
  270SOL    HW1  809   0.219   2.953   1.926 -0.9152  0.4484 -0.3415
  270SOL    HW2  810   0.119   2.920   2.062  0.9012  2.1726  0.1321
  271SOL     OW  811   0.474   1.380   1.136  0.5521  0.2509 -0.0995
  271SOL    HW1  812   0.509   1.304   1.075 -2.2104  2.2765 -1.4907
  271SOL    HW2  813   0.412   1.350   1.209 -0.2200 -1.9724 -0.2625
  272SOL     OW  814   1.914   0.001   1.933  0.1587 -0.0247 -0.4608
  272SOL    HW1  815   1.886  -0.081   1.875  0.0697  1.8878 -0.7681
  272SOL    HW2  816   1.904   0.096   1.892 -0.7044  1.4913  1.3405
  273SOL     OW  817   1.519   1.484   2.802 -0.7006  0.2436 -0.0336
  273SOL    HW1  818   1.419   1.500   2.776 -0.9616  2.1036 -0.6148
  273SOL    HW2  819   1.537   1.478   2.904 -0.3950 -1.7765  0.6287
  274SOL     OW  820   1.100   0.512   2.042 -0.2977  0.1766 -0.5268
  274SOL    HW1  821   0.998   0.486   2.061  1.2767 -0.5195 -3.3238
  274SOL    HW2  822   1.167   0.494   2.120  0.4274 -0.3740 -1.8918
  275SOL     OW  823   0.643   2.142   1.920 -0.1351  0.7490 -0.7318
  275SOL    HW1  824   0.608   2.233   1.961 -0.1437 -0.6328 -0.6905
  275SOL    HW2  825   0.570   2.075   1.895  2.1108 -2.4759  0.8361
  276SOL     OW  826   2.237   0.955   2.821  0.3153 -0.5439  0.8499
  276SOL    HW1  827   2.146   0.989   2.780  1.4633 -0.5119  1.0926
  276SOL    HW2  828   2.223   0.921   2.920 -1.7321  0.7384  1.6403
  277SOL     OW  829   3.088   0.790   0.272 -0.2608 -0.2110  0.2965
  277SOL    HW1  830   3.170   0.852   0.261 -0.6029 -0.2885 -0.3205
  277SOL    HW2  831   3.115   0.700   0.312  0.6228  0.1843 -1.1486
  278SOL     OW  832   0.265   0.253   3.065 -0.6746 -0.8094  0.3995
  278SOL    HW1  833   0.355   0.209   3.033  1.1886 -2.4448  2.7388
  278SOL    HW2  834   0.274   0.354   3.078  2.1494 -2.4072  0.2081
  279SOL     OW  835   0.262   0.050   0.898 -0.5580 -0.1835 -0.6383
  279SOL    HW1  836   0.306   0.027   0.993  1.1153  1.4997 -0.8952
  279SOL    HW2  837   0.222  -0.027   0.846 -0.5054 -1.3796 -2.2997
  280SOL     OW  838   1.630   2.929   2.433 -0.7858  0.3018 -0.2042
  280SOL    HW1  839   1.703   2.976   2.493  0.8113  1.3461  2.1532
  280SOL    HW2  840   1.548   2.989   2.407  2.1450 -0.5026  3.2020
  281SOL     OW  841   0.523   0.966   2.268 -0.2496 -0.1684  0.2565
  281SOL    HW1  842   0.461   0.928   2.192 -0.2439 -1.0595 -1.6861
  281SOL    HW2  843   0.509   0.925   2.363  1.2435  0.3861  2.0224
  282SOL     OW  844   1.777   2.458   0.509 -0.1203 -0.2723 -0.0959
  282SOL    HW1  845   1.745   2.374   0.457  1.7872  2.4213  0.0080
  282SOL    HW2  846   1.705   2.528   0.519  1.7531 -0.2617 -1.2739
  283SOL     OW  847   1.147   0.882   0.728  0.5269  0.1773  0.1826
  283SOL    HW1  848   1.166   0.804   0.794 -0.1603 -0.2181 -1.2765
  283SOL    HW2  849   1.158   0.976   0.776  0.9089 -2.1529  1.9009
  284SOL     OW  850   2.229   2.819   2.474  0.1262 -0.2534  0.3840
  284SOL    HW1  851   2.330   2.810   2.453 -2.9510  2.1151  0.4569
  284SOL    HW2  852   2.202   2.816   2.570 -1.5673  2.9973 -1.1514
  285SOL     OW  853   1.334   0.002   2.592 -0.4875 -0.5165  0.3081
  285SOL    HW1  854   1.365  -0.014   2.494 -0.1258  0.2750  0.7984
  285SOL    HW2  855   1.285   0.091   2.616 -1.1639 -0.4161  0.9450
  286SOL     OW  856   0.381   0.469   0.716 -1.2028 -0.3323 -0.1568
  286SOL    HW1  857   0.375   0.386   0.776  0.7406  1.4862  0.9249
  286SOL    HW2  858   0.384   0.438   0.614  1.5504  1.3655 -1.3533
  287SOL     OW  859   0.086   1.299   2.627  0.2275 -0.5459 -0.6927
  287SOL    HW1  860   0.026   1.223   2.651 -0.7144  3.4197 -2.1218
  287SOL    HW2  861   0.031   1.381   2.596 -1.7110  0.3360  0.8284
  288SOL     OW  862   1.517   2.744   1.652  0.0232  0.0077 -0.0604
  288SOL    HW1  863   1.570   2.686   1.722  0.7909 -1.1269  0.2638
  288SOL    HW2  864   1.560   2.729   1.561  0.5653 -2.3133  2.0857
  289SOL     OW  865   0.632   2.765   0.835 -0.0761 -0.3090 -0.6348
  289SOL    HW1  866   0.675   2.827   0.761  3.7180 -0.7959 -1.2413
  289SOL    HW2  867   0.661   2.798   0.927 -0.3938  4.0344  1.4634
  290SOL     OW  868   2.810   1.144   1.731  0.0033  0.4091  0.3322
  290SOL    HW1  869   2.734   1.074   1.736 -1.0784  0.4905 -0.4608
  290SOL    HW2  870   2.911   1.113   1.761  2.2904  1.9350  0.3577
  291SOL     OW  871   1.946   3.069   0.054 -0.0493  0.0193  0.0930
  291SOL    HW1  872   1.969   3.111   0.149 -2.5124 -1.5988 -0.2802
  291SOL    HW2  873   1.991   3.133  -0.018  0.0251  0.4298  0.8354
  292SOL     OW  874   2.990   1.156   3.052 -0.2650  0.2941  0.4197
  292SOL    HW1  875   2.922   1.234   3.033 -1.2825  3.1498 -0.2495
  292SOL    HW2  876   3.075   1.163   2.999  0.0355 -1.7103 -0.2710
  293SOL     OW  877   0.571   2.075   0.299  0.2258 -0.0546 -0.0060
  293SOL    HW1  878   0.532   2.157   0.350 -1.8060 -3.1173 -0.2471
  293SOL    HW2  879   0.674   2.060   0.320  0.2134 -2.4461  0.8953
  294SOL     OW  880   1.871   2.343   1.774  0.1850 -0.4040 -0.3262
  294SOL    HW1  881   1.916   2.333   1.869 -2.2709  0.6220  0.9534
  294SOL    HW2  882   1.831   2.437   1.763 -0.9214 -3.7608  1.6431
  295SOL     OW  883   1.022   1.036   0.425  0.5064  0.1116  0.2574
  295SOL    HW1  884   1.118   1.035   0.465 -0.0369 -2.1860 -2.6775
  295SOL    HW2  885   0.953   0.987   0.488 -4.3032  1.9281  1.1340
  296SOL     OW  886   1.102   2.154   2.740 -0.7980  0.1499  0.0856
  296SOL    HW1  887   1.000   2.153   2.728  0.6963  2.6223  0.1245
  296SOL    HW2  888   1.162   2.148   2.653  0.6504 -1.6377 -0.1390
  297SOL     OW  889   1.294   0.533   1.179 -0.5135  0.0000 -0.3952
  297SOL    HW1  890   1.337   0.491   1.262 -0.8866 -0.8937 -3.9404
  297SOL    HW2  891   1.364   0.598   1.139 -0.9828 -1.6597  3.1177
  298SOL     OW  892   0.495   1.336   2.933  0.3364  0.1637 -0.5036
  298SOL    HW1  893   0.454   1.281   3.014  0.1919  0.5088 -0.2192
  298SOL    HW2  894   0.549   1.275   2.868 -0.5606 -0.0454  0.4211
  299SOL     OW  895   0.436   0.207   1.250 -0.1095  0.0352  0.7623
  299SOL    HW1  896   0.384   0.286   1.207  1.4006 -2.1411 -2.1738
  299SOL    HW2  897   0.443   0.211   1.356  2.1009  0.9586  1.8225
  300SOL     OW  898   1.329   1.791   2.563  0.8348  0.0026  0.3617
  300SOL    HW1  899   1.320   1.713   2.489  0.0518 -1.4180  1.5650
  300SOL    HW2  900   1.400   1.766   2.637  0.6346  0.5664 -1.7606
  301SOL     OW  901   0.407   0.364   0.452 -0.4772 -0.0401 -0.3325
  301SOL    HW1  902   0.330   0.303   0.416 -0.6151 -0.2149 -2.5695
  301SOL    HW2  903   0.493   0.317   0.424  0.9600  1.2831 -1.4697
  302SOL     OW  904   1.259   2.450   2.287 -0.7372  0.3065  0.4050
  302SOL    HW1  905   1.160   2.423   2.302  0.9192 -1.9512 -1.2876
  302SOL    HW2  906   1.320   2.418   2.364 -2.0344 -0.0542  1.6897
  303SOL     OW  907   0.980   2.423   0.823 -0.6182  0.4835  0.3495
  303SOL    HW1  908   1.031   2.415   0.733  1.0387  0.5498 -2.1970
  303SOL    HW2  909   1.012   2.491   0.897 -1.2160 -0.6003  3.7783
  304SOL     OW  910   0.148   1.909   0.669  0.4364  0.0545 -0.0935
  304SOL    HW1  911   0.218   1.902   0.597 -1.7132  0.0045  0.0857
  304SOL    HW2  912   0.056   1.959   0.645 -3.8210  1.2151  1.3601
  305SOL     OW  913   1.590   0.837   0.686 -0.0733  0.7532  0.0525
  305SOL    HW1  914   1.553   0.848   0.592  6.5221 -0.1161  0.0073
  305SOL    HW2  915   1.672   0.775   0.691  0.1825 -0.2524 -2.1651
  306SOL     OW  916   0.393   1.859   1.963 -0.0394 -0.3224 -0.0544
  306SOL    HW1  917   0.466   1.787   1.943  1.5835 -1.5156 -2.1086
  306SOL    HW2  918   0.408   1.912   2.053  0.9237  1.0062  0.4139
  307SOL     OW  919   3.003   0.899   2.486 -0.8279  0.0817  0.4504
  307SOL    HW1  920   3.020   0.965   2.564 -0.0068  1.5569 -2.1341
  307SOL    HW2  921   2.963   0.806   2.513 -0.0796  0.4004  0.0975
  308SOL     OW  922   1.498   2.684   2.823  0.4787 -0.1399  0.4188
  308SOL    HW1  923   1.496   2.662   2.721 -0.5475  1.7902 -0.1890
  308SOL    HW2  924   1.453   2.607   2.882  1.1302 -4.9792  1.9093
  309SOL     OW  925   1.266   0.175   1.774  0.0981  0.1649  0.1016
  309SOL    HW1  926   1.350   0.117   1.798 -0.7308  0.2741  0.0288
  309SOL    HW2  927   1.250   0.177   1.669  1.9405 -0.1771  0.1474
  310SOL     OW  928   1.459   2.581   0.672  0.4369 -0.4144  0.0790
  310SOL    HW1  929   1.425   2.604   0.768 -1.3843  0.2844  4.5247
  310SOL    HW2  930   1.531   2.647   0.634 -0.8462  0.2816  2.6004
  311SOL     OW  931   1.054   0.981   1.768 -0.3094 -0.2645 -0.5067
  311SOL    HW1  932   1.022   0.906   1.835 -1.8111 -0.9466 -0.5762
  311SOL    HW2  933   1.109   0.949   1.684  1.5137  0.1174 -1.5465
  312SOL     OW  934   1.544   0.642   1.048  0.2823 -0.2934 -0.0113
  312SOL    HW1  935   1.528   0.744   1.053  0.6204 -0.9018  1.6371
  312SOL    HW2  936   1.510   0.602   0.958  1.3770 -1.8261 -2.3193
  313SOL     OW  937   1.641   1.244   0.772 -0.6023 -0.5469 -0.3003
  313SOL    HW1  938   1.566   1.266   0.843  0.9655  0.4246  1.4596
  313SOL    HW2  939   1.608   1.224   0.678  0.3628  0.4082 -1.5768
  314SOL     OW  940   2.957   3.080   3.091  0.2491  0.2283 -0.3831
  314SOL    HW1  941   2.991   3.105   3.184 -0.3577 -0.6909 -0.1673
  314SOL    HW2  942   2.874   3.015   3.093 -2.3095 -1.8332  0.5390
  315SOL     OW  943   1.177   0.203   2.794 -0.0298  0.0839  0.0943
  315SOL    HW1  944   1.114   0.186   2.709  2.2934  0.0431 -2.5234
  315SOL    HW2  945   1.185   0.125   2.857  1.5516  0.6619 -1.0546
  316SOL     OW  946   1.720   2.091   0.883  0.2906 -0.1032 -0.1492
  316SOL    HW1  947   1.637   2.085   0.951 -0.0222  1.5497  0.3217
  316SOL    HW2  948   1.714   2.184   0.844  0.7300  0.2540 -0.3577
  317SOL     OW  949   1.179   0.688   2.781 -0.1556  0.4212 -0.0392
  317SOL    HW1  950   1.126   0.721   2.867 -2.7892  1.8616 -1.1271
  317SOL    HW2  951   1.129   0.612   2.726 -0.9280  0.7003 -3.1765
  318SOL     OW  952   1.449   3.078   2.319  0.4927 -0.4348  0.1196
  318SOL    HW1  953   1.421   3.179   2.311 -0.8524  0.7154  2.6614
  318SOL    HW2  954   1.415   3.026   2.231 -2.3239 -3.3808 -0.6334
  319SOL     OW  955   0.677   2.389   3.010  0.1493 -0.1138  0.4540
  319SOL    HW1  956   0.640   2.313   3.070 -0.6643  0.8002 -2.1996
  319SOL    HW2  957   0.714   2.352   2.924 -2.3182  0.4602  1.1201
  320SOL     OW  958   1.680   2.224   0.409  0.0788  0.0640  0.0713
  320SOL    HW1  959   1.744   2.147   0.412  1.0771  0.8983 -1.6188
  320SOL    HW2  960   1.599   2.197   0.465 -0.6874 -1.0681  2.0051
  321SOL     OW  961   1.696   2.715   0.556  0.0937 -0.1007  0.2988
  321SOL    HW1  962   1.644   2.775   0.488 -1.7638 -1.6260 -0.2798
  321SOL    HW2  963   1.793   2.733   0.568 -0.6960 -0.9295  1.1154
  322SOL     OW  964   2.582   1.135   2.317 -0.4041  0.2065 -0.0680
  322SOL    HW1  965   2.654   1.113   2.389 -2.2203  2.2676 -1.8404
  322SOL    HW2  966   2.563   1.056   2.260 -1.5637  1.3078 -0.4941
  323SOL     OW  967   1.150   2.671   0.801 -0.0648 -0.3469 -0.2548
  323SOL    HW1  968   1.158   2.599   0.722  0.3410 -0.0009  1.7502
  323SOL    HW2  969   1.121   2.766   0.769 -0.9507  2.0219  3.4347
  324SOL     OW  970   0.178   2.531   2.439 -0.3029  0.0589 -0.1339
  324SOL    HW1  971   0.091   2.486   2.478 -2.1901 -0.0752 -1.3645
  324SOL    HW2  972   0.205   2.620   2.486 -2.2158 -1.2425 -0.5225
  325SOL     OW  973   1.255   3.083   0.457 -0.2237 -0.0346 -0.3847
  325SOL    HW1  974   1.240   3.129   0.364  2.1392  0.6840 -1.1549
  325SOL    HW2  975   1.283   3.163   0.522 -0.9986  0.7093  0.0990
  326SOL     OW  976   2.500   0.832   3.083  0.0333  0.9821  0.4175
  326SOL    HW1  977   2.475   0.793   2.988 -1.5077  0.7107  1.1204
  326SOL    HW2  978   2.542   0.761   3.145  0.3985  2.8998  0.8842
  327SOL     OW  979   2.848   0.279   0.561  0.3707  0.4657  0.1850
  327SOL    HW1  980   2.847   0.247   0.462 -0.5754 -0.1508  2.2512
  327SOL    HW2  981   2.872   0.212   0.633  1.6471  2.5779 -0.9217
  328SOL     OW  982   2.571   0.661   0.405 -0.0091 -0.5020 -0.3471
  328SOL    HW1  983   2.648   0.710   0.453 -0.2600 -0.6706  0.4920
  328SOL    HW2  984   2.552   0.564   0.435  0.2800 -0.5876  0.2255
  329SOL     OW  985   2.927   3.031   2.178 -0.1775 -0.5674  0.7708
  329SOL    HW1  986   3.020   2.983   2.188  1.2003 -1.0218 -1.4492
  329SOL    HW2  987   2.935   3.129   2.154  2.1781 -0.0410  0.6383
  330SOL     OW  988   0.525   0.201   1.858  0.2420 -0.5533 -0.0638
  330SOL    HW1  989   0.590   0.278   1.839 -0.7942 -0.2411  0.8425
  330SOL    HW2  990   0.539   0.166   1.953  0.8582  1.2567 -3.7397
  331SOL     OW  991   3.048   1.903   1.145  0.7781 -1.1533  0.0260
  331SOL    HW1  992   3.020   1.929   1.052 -0.3143  1.8247  0.3040
  331SOL    HW2  993   2.967   1.870   1.204 -2.0488  1.4398  0.2585
  332SOL     OW  994   0.388   1.197   0.065 -0.6843 -0.3561 -0.2003
  332SOL    HW1  995   0.330   1.111   0.053  1.2491 -0.3210  0.0217
  332SOL    HW2  996   0.359   1.257   0.148  2.1315 -0.9542  1.2261
  333SOL     OW  997   2.878   0.952   0.358  0.3972 -0.5564  0.1076
  333SOL    HW1  998   2.908   1.032   0.423 -1.8557 -2.1655  0.8838
  333SOL    HW2  999   2.953   0.885   0.345 -4.5025  3.5113 -1.8597
  334SOL     OW 1000   1.746   1.147   1.720  0.0517 -0.2568 -0.3409
  334SOL    HW1 1001   1.806   1.159   1.633 -1.4416 -1.9196 -4.4958
  334SOL    HW2 1002   1.793   1.183   1.807 -0.0839  2.1466  0.4123
  335SOL     OW 1003   1.872   2.798   2.640 -0.2500 -0.4779  0.1634
  335SOL    HW1 1004   1.831   2.796   2.736  0.2889  2.2942  0.4098
  335SOL    HW2 1005   1.958   2.851   2.635  1.4206 -1.4474 -0.7120
  336SOL     OW 1006   0.271   0.021   2.708  0.3877  0.3561  0.3503
  336SOL    HW1 1007   0.349   0.055   2.774  0.0336  2.7969  0.8197
  336SOL    HW2 1008   0.213  -0.053   2.750  1.6795  0.9580  2.5033
  337SOL     OW 1009   0.902   2.863   2.965 -0.5818 -0.5519  0.4793
  337SOL    HW1 1010   0.896   2.783   3.033  0.0435  2.0828 -1.9796
  337SOL    HW2 1011   0.987   2.911   2.983 -0.1697 -0.1325  1.2417
  338SOL     OW 1012   3.088   0.916   0.693  0.0287  0.2794  0.3842
  338SOL    HW1 1013   2.999   0.905   0.747 -1.5547  2.0379  0.6720
  338SOL    HW2 1014   3.110   1.013   0.670 -0.6096 -0.1177 -0.4947
  339SOL     OW 1015   1.735   1.307   2.168  0.4526  0.1371  0.1478
  339SOL    HW1 1016   1.678   1.342   2.092  0.8968 -0.7908  0.0903
  339SOL    HW2 1017   1.781   1.371   2.229 -1.7358 -1.3786  0.6392
  340SOL     OW 1018   2.230   0.811   1.098 -0.2744  0.0669 -0.8512
  340SOL    HW1 1019   2.139   0.854   1.134  1.1081  0.2337  0.1463
  340SOL    HW2 1020   2.223   0.708   1.074 -1.1746 -2.9873  1.5676
  341SOL     OW 1021   1.924   2.091   0.386  0.0249  0.3795 -0.0888
  341SOL    HW1 1022   1.946   2.093   0.285 -0.6998  1.0213  1.7382
  341SOL    HW2 1023   1.992   2.140   0.443  1.9455 -0.3754 -1.0056
  342SOL     OW 1024   2.178   2.103   2.710 -0.0123  0.0297  0.3518
  342SOL    HW1 1025   2.224   2.012   2.729  0.1354 -2.2295 -0.8562
  342SOL    HW2 1026   2.080   2.093   2.692  0.7837  1.5806  0.9927
  343SOL     OW 1027   0.368   0.846   2.765  0.3508  0.6599  0.5785
  343SOL    HW1 1028   0.381   0.901   2.676  1.1127  1.3377 -0.5836
  343SOL    HW2 1029   0.454   0.840   2.829  0.6002  0.1996  1.0171
  344SOL     OW 1030   1.954   1.483   0.398 -0.2441 -0.2807 -0.1085
  344SOL    HW1 1031   1.951   1.387   0.358 -1.1647 -1.4357  0.5091
  344SOL    HW2 1032   1.867   1.513   0.448 -0.1797  1.2638 -1.1880
  345SOL     OW 1033   1.361   2.192   2.837 -0.2436  0.1541 -0.0158
  345SOL    HW1 1034   1.260   2.185   2.819  0.2567 -1.8979 -4.1666
  345SOL    HW2 1035   1.409   2.129   2.769 -1.8422 -0.5933  3.0695
  346SOL     OW 1036   2.313   0.875   1.393 -0.7695 -0.7208 -0.1224
  346SOL    HW1 1037   2.233   0.884   1.458  1.9522 -0.5318  0.4608
  346SOL    HW2 1038   2.289   0.873   1.291 -0.3572  4.4847 -0.1160
  347SOL     OW 1039   0.700   2.774   1.652  0.7603 -0.1070 -0.0706
  347SOL    HW1 1040   0.786   2.826   1.628 -1.4084 -1.1050 -0.1340
  347SOL    HW2 1041   0.615   2.829   1.628 -0.9558  0.7865  0.3193
  348SOL     OW 1042   0.185   0.703   2.929 -0.0503 -0.4574 -0.1441
  348SOL    HW1 1043   0.082   0.718   2.911 -1.0669 -2.4505 -0.7605
  348SOL    HW2 1044   0.238   0.739   2.847 -3.0585  2.0606  0.2145
  349SOL     OW 1045   1.858   0.417   2.818 -0.6712  0.0629  0.3824
  349SOL    HW1 1046   1.825   0.478   2.743 -0.1081 -1.0460 -0.1189
  349SOL    HW2 1047   1.818   0.439   2.913 -1.5236  3.1552  0.6705
  350SOL     OW 1048   1.692   0.388   0.374 -0.1975  0.0988 -0.3618
  350SOL    HW1 1049   1.754   0.396   0.460  0.6323  2.3549  0.0152
  350SOL    HW2 1050   1.648   0.479   0.359 -0.2368  1.4876  1.6629
  351SOL     OW 1051   0.835   0.856   2.076 -1.0326 -0.0875  0.2530
  351SOL    HW1 1052   0.881   0.942   2.122  1.3789 -2.3838  1.6304
  351SOL    HW2 1053   0.896   0.818   2.002  0.2432  1.8571  0.9400
  352SOL     OW 1054   2.065   1.335   0.591 -0.2121  0.1557 -0.4883
  352SOL    HW1 1055   2.013   1.400   0.529 -3.6476 -3.4960 -1.7109
  352SOL    HW2 1056   2.004   1.279   0.651  0.4683  1.4725 -0.7311
  353SOL     OW 1057   2.191   2.757   1.099  0.4913 -0.3627 -0.1036
  353SOL    HW1 1058   2.262   2.693   1.147  2.1778 -2.2341  2.7308
  353SOL    HW2 1059   2.160   2.834   1.165 -0.2211  2.5045 -0.3267
  354SOL     OW 1060   0.200   1.453   2.894  0.0904  0.0366  0.2392
  354SOL    HW1 1061   0.167   1.513   2.815 -0.5144 -2.4538 -1.7168
  354SOL    HW2 1062   0.302   1.472   2.908 -0.0120  1.4014 -0.6972
  355SOL     OW 1063   0.691   1.543   0.587 -0.0672  0.1477  0.2226
  355SOL    HW1 1064   0.678   1.489   0.674  1.3831 -2.2138 -1.5412
  355SOL    HW2 1065   0.629   1.505   0.513  1.6571 -1.7589  2.5583
  356SOL     OW 1066   0.936   0.295   2.114 -0.0634 -0.1940  0.5455
  356SOL    HW1 1067   1.026   0.245   2.090  0.8787 -0.4272 -0.1736
  356SOL    HW2 1068   0.868   0.290   2.038  0.8344 -0.7835  3.1097
  357SOL     OW 1069   1.022   1.370   0.219 -0.2748  0.1437 -0.6445
  357SOL    HW1 1070   1.100   1.363   0.152 -0.7774 -0.6659 -0.6966
  357SOL    HW2 1071   1.030   1.329   0.310 -2.1549  3.6786 -1.3520
  358SOL     OW 1072   1.699   1.457   0.522  0.3868 -0.1829 -0.5812
  358SOL    HW1 1073   1.693   1.373   0.575 -0.5703  3.2928 -1.2132
  358SOL    HW2 1074   1.655   1.442   0.430 -0.2205  0.0684  1.8056
  359SOL     OW 1075   1.595   2.581   0.242 -0.3626  0.2493 -0.7807
  359SOL    HW1 1076   1.594   2.485   0.201  0.3720  0.3358  0.5720
  359SOL    HW2 1077   1.513   2.600   0.300 -0.4355  1.3412  0.2988
  360SOL     OW 1078   0.796   0.448   0.588 -0.5934  0.2025  0.0091
  360SOL    HW1 1079   0.700   0.471   0.567  3.2699 -1.1101 -1.5775
  360SOL    HW2 1080   0.823   0.354   0.562 -1.0937 -0.5542 -0.5473
  361SOL     OW 1081   1.360   1.323   0.623 -0.4612 -0.4495  0.2746
  361SOL    HW1 1082   1.385   1.316   0.724  0.2080  0.1228 -2.1074
  361SOL    HW2 1083   1.278   1.387   0.614 -0.6951  2.9456  0.4644
  362SOL     OW 1084   1.357   1.827   0.712  0.4817  0.0475 -0.5443
  362SOL    HW1 1085   1.398   1.749   0.766 -0.6732 -1.4371 -0.8467
  362SOL    HW2 1086   1.381   1.822   0.613  2.0471 -0.2621  0.3648
  363SOL     OW 1087   1.306   1.321   2.076 -0.1715  0.2820 -0.7205
  363SOL    HW1 1088   1.399   1.359   2.047  1.4174 -1.3341 -2.5870
  363SOL    HW2 1089   1.274   1.356   2.169  2.8003  0.5184  1.4124
  364SOL     OW 1090   0.538   2.370   2.013  0.0339 -0.1033 -0.8112
  364SOL    HW1 1091   0.433   2.366   2.024 -1.2770  0.1857 -2.8610
  364SOL    HW2 1092   0.564   2.415   1.922  0.2584  0.2282 -1.4717
  365SOL     OW 1093   0.920   1.960   1.396 -0.2880  0.4614  0.6268
  365SOL    HW1 1094   0.834   1.987   1.445 -2.3145 -1.8948 -0.0065
  365SOL    HW2 1095   0.938   2.002   1.302  2.5124  0.1466 -0.9650
  366SOL     OW 1096   2.774   1.949   0.251 -0.1726  0.1901 -0.8855
  366SOL    HW1 1097   2.698   1.877   0.244  0.6986  0.5067  0.1362
  366SOL    HW2 1098   2.865   1.914   0.228 -2.6341  1.2807  1.0598
  367SOL     OW 1099   0.881   1.142   3.094 -0.0402 -0.5525  0.0820
  367SOL    HW1 1100   0.872   1.054   3.150 -1.4225 -1.2907 -3.1823
  367SOL    HW2 1101   0.964   1.196   3.121 -1.3286 -1.6591 -0.4794
  368SOL     OW 1102   1.465   0.566   0.554  0.0749 -0.4852 -0.4476
  368SOL    HW1 1103   1.362   0.587   0.540  2.1127 -1.8185 -0.2331
  368SOL    HW2 1104   1.520   0.604   0.473  0.9165 -1.2677  1.0965
  369SOL     OW 1105   0.407   1.585   0.154 -0.0622 -0.8222  0.0570
  369SOL    HW1 1106   0.460   1.631   0.228 -0.2141 -1.0788  1.1357
  369SOL    HW2 1107   0.323   1.530   0.185  1.4135 -0.4008  0.3644
  370SOL     OW 1108   0.392   2.180   1.079  0.1745 -0.3735 -0.2950
  370SOL    HW1 1109   0.425   2.274   1.039  2.1034  0.0853  0.3942
  370SOL    HW2 1110   0.305   2.144   1.034 -1.3522 -0.4071 -0.6349
  371SOL     OW 1111   2.925   2.227   2.744  0.0468 -0.0502  0.4185
  371SOL    HW1 1112   2.989   2.148   2.733 -1.0061  1.6663 -0.8652
  371SOL    HW2 1113   2.929   2.277   2.834  0.3347 -0.7332  0.6857
  372SOL     OW 1114   1.043   2.059   1.138 -0.6170 -0.0659  0.1909
  372SOL    HW1 1115   0.980   2.089   1.058  1.3014 -0.0194 -3.5209
  372SOL    HW2 1116   1.094   2.136   1.183  0.5247 -0.6496 -0.2098
  373SOL     OW 1117   1.915   1.931   1.014  0.6952 -0.6792  0.5468
  373SOL    HW1 1118   2.005   1.964   1.051 -0.0812  1.4863 -2.8386
  373SOL    HW2 1119   1.855   2.002   0.977  1.1494  0.3385  2.0451
  374SOL     OW 1120   1.870   0.404   0.566  0.2209 -0.4278  0.6064
  374SOL    HW1 1121   1.844   0.341   0.644  0.9769  1.8669 -0.7036
  374SOL    HW2 1122   1.964   0.383   0.527  2.2070  2.3009 -2.3767
  375SOL     OW 1123   2.423   2.190   1.093  0.3026 -0.5336  0.3506
  375SOL    HW1 1124   2.475   2.253   1.028  1.9432  1.0234  0.0412
  375SOL    HW2 1125   2.486   2.153   1.163  0.7495 -0.8206  0.7618
  376SOL     OW 1126   0.005   0.651   1.404 -0.0150 -0.0203  0.1445
  376SOL    HW1 1127   0.048   0.709   1.477 -3.8676 -0.4154  1.1902
  376SOL    HW2 1128  -0.036   0.570   1.437  3.1070  0.1339 -0.1694
  377SOL     OW 1129   2.172   2.918   0.232  0.1819  0.3783 -0.3070
  377SOL    HW1 1130   2.177   3.015   0.271 -0.9080  0.9712 -0.9402
  377SOL    HW2 1131   2.257   2.866   0.255 -1.3805  0.2375  0.7279
  378SOL     OW 1132   1.841   1.907   2.432  1.1939  0.3429 -0.4186
  378SOL    HW1 1133   1.907   1.895   2.351 -0.1703 -0.6959  1.0090
  378SOL    HW2 1134   1.811   1.812   2.460  1.4793 -0.4183 -2.0948
  379SOL     OW 1135   0.751   0.126   2.825  0.5396 -0.1137  0.2825
  379SOL    HW1 1136   0.791   0.039   2.783 -0.7713  2.8112 -2.1295
  379SOL    HW2 1137   0.762   0.204   2.761  1.6914  0.5171 -2.9590
  380SOL     OW 1138   1.560   1.160   0.499  0.2042  0.2815  0.1902
  380SOL    HW1 1139   1.468   1.216   0.512 -2.1814  1.9890 -0.9546
  380SOL    HW2 1140   1.539   1.061   0.481  2.5947 -0.5444  2.4175
  381SOL     OW 1141   1.291   1.212   1.526 -0.1327  0.2378 -0.6612
  381SOL    HW1 1142   1.327   1.166   1.444 -0.6989  1.9716  1.0304
  381SOL    HW2 1143   1.366   1.253   1.586  1.6757 -2.3346 -0.7118
  382SOL     OW 1144   1.825   0.866   0.265  0.0453 -0.6342  0.0187
  382SOL    HW1 1145   1.889   0.822   0.197  1.1342  0.7272  0.6866
  382SOL    HW2 1146   1.876   0.879   0.358  1.8765 -0.2769  0.5297
  383SOL     OW 1147   2.540   1.008   1.462  0.3681  0.2821  0.1785
  383SOL    HW1 1148   2.444   0.974   1.450 -0.5194 -0.2305  1.0853
  383SOL    HW2 1149   2.595   0.986   1.373  2.2643 -1.4435 -3.6092
  384SOL     OW 1150   0.886   2.303   0.193  0.3392  0.4155 -0.0074
  384SOL    HW1 1151   0.836   2.389   0.211  1.3312 -1.1448 -1.9354
  384SOL    HW2 1152   0.895   2.238   0.273 -1.4348 -0.0558  0.1219
  385SOL     OW 1153   2.965   2.082   1.675  0.0863  0.3781 -0.2298
  385SOL    HW1 1154   3.046   2.152   1.697  2.0154  1.5386 -1.8913
  385SOL    HW2 1155   2.988   1.982   1.695  0.4522  0.5314 -0.5383
  386SOL     OW 1156   0.470   1.033   0.447 -0.7953 -0.6446 -0.0204
  386SOL    HW1 1157   0.432   0.956   0.502  2.3922  0.7365 -1.2666
  386SOL    HW2 1158   0.406   1.117   0.429 -0.5323  2.9931  0.3202
  387SOL     OW 1159   1.013   0.373   1.688  0.7298 -0.1367 -0.0503
  387SOL    HW1 1160   1.035   0.469   1.649 -3.3535 -1.0538 -1.8255
  387SOL    HW2 1161   0.987   0.312   1.610 -0.9164  0.8534  0.1822
  388SOL     OW 1162   1.216   2.677   1.721 -0.3798  0.1131  0.4217
  388SOL    HW1 1163   1.270   2.704   1.638 -2.6715 -2.9180 -0.9964
  388SOL    HW2 1164   1.266   2.625   1.792 -3.4431 -0.9109 -1.6066
  389SOL     OW 1165   0.154   2.940   1.359  0.3478 -0.7572 -0.4635
  389SOL    HW1 1166   0.058   2.906   1.341  0.8882 -1.0239  1.1749
  389SOL    HW2 1167   0.207   2.884   1.425  0.9506  0.5032 -0.0644
  390SOL     OW 1168   1.036   0.929   1.397 -0.1791 -0.2914  0.0805
  390SOL    HW1 1169   1.124   0.902   1.448 -1.3777  1.7426 -0.0471
  390SOL    HW2 1170   1.025   1.031   1.391 -0.5525  0.6191  0.7669
  391SOL     OW 1171   2.177   1.137   1.079  0.0134  0.0622 -0.2451
  391SOL    HW1 1172   2.121   1.078   1.146  2.8806  1.5254 -1.0116
  391SOL    HW2 1173   2.185   1.100   0.984  1.1369 -0.1380  1.0884
  392SOL     OW 1174   0.906   2.647   0.028 -0.0229  0.1690  0.5147
  392SOL    HW1 1175   0.978   2.573   0.018  1.3688 -2.8844 -1.8709
  392SOL    HW2 1176   0.838   2.617   0.098  0.2898  1.3976 -1.2977
  393SOL     OW 1177   0.264   0.606   2.028  0.0127  0.6002  0.1352
  393SOL    HW1 1178   0.166   0.568   2.016  1.2881  3.0456  0.6997
  393SOL    HW2 1179   0.322   0.588   1.943  1.3655  0.8353  0.4895
  394SOL     OW 1180   3.024   1.967   2.763 -0.4775 -0.9587 -0.1910
  394SOL    HW1 1181   3.131   1.974   2.770  0.6782  0.8163 -0.5358
  394SOL    HW2 1182   2.998   1.919   2.678 -1.5714 -0.9811 -0.1059
  395SOL     OW 1183   1.620   1.947   0.551 -0.0625 -0.0782 -0.0040
  395SOL    HW1 1184   1.686   1.878   0.511 -0.7168 -0.1456 -1.8787
  395SOL    HW2 1185   1.625   1.951   0.656  3.0549 -0.4734 -0.3188
  396SOL     OW 1186   2.835   1.823   1.296  0.2501  0.3736 -0.0505
  396SOL    HW1 1187   2.793   1.730   1.304  0.3762  0.3072 -2.4423
  396SOL    HW2 1188   2.867   1.871   1.385 -1.3174  1.2103  1.9884
  397SOL     OW 1189   1.033   2.215   0.509 -0.4544 -0.1339  0.2072
  397SOL    HW1 1190   0.930   2.193   0.519  0.5706 -1.8956 -2.0187
  397SOL    HW2 1191   1.052   2.309   0.544 -1.9060 -0.8963  0.2825
  398SOL     OW 1192   2.127   0.018   1.086 -0.0939 -0.3723  0.1785
  398SOL    HW1 1193   2.056  -0.038   1.140  0.4554  1.6691  2.5629
  398SOL    HW2 1194   2.084   0.103   1.046  0.2597 -0.1465 -0.3553
  399SOL     OW 1195   3.040   2.472   2.562 -0.0695 -0.1152  0.0879
  399SOL    HW1 1196   2.939   2.471   2.535  0.8905  1.8803  2.4206
  399SOL    HW2 1197   3.051   2.434   2.656  0.6561  2.3430  2.8404
  400SOL     OW 1198   0.747   1.688   1.379 -0.5201 -0.3040  0.4728
  400SOL    HW1 1199   0.697   1.730   1.462  2.5617  1.8652 -1.1132
  400SOL    HW2 1200   0.743   1.744   1.291  1.3216  0.6044 -0.3471
  401SOL     OW 1201   1.889   0.193   1.169  0.0678  0.9417 -1.0141
  401SOL    HW1 1202   1.923   0.198   1.268  2.2481  2.4206  2.4529
  401SOL    HW2 1203   1.798   0.245   1.163 -0.0963  4.2206 -0.3392
  402SOL     OW 1204   1.351   0.198   3.074  0.1562  0.6966  0.3987
  402SOL    HW1 1205   1.448   0.179   3.039 -0.9949  0.5462 -0.5470
  402SOL    HW2 1206   1.302   0.288   3.049  0.6353  0.3015  0.8554
  403SOL     OW 1207   2.282   1.773   0.914  0.4723  0.5338 -0.0129
  403SOL    HW1 1208   2.350   1.825   0.858  1.1269  0.0606  0.4510
  403SOL    HW2 1209   2.241   1.827   0.993 -0.6914  4.1438  2.1650
  404SOL     OW 1210   0.200   2.458   2.784 -0.1827  0.1954 -0.4756
  404SOL    HW1 1211   0.302   2.435   2.763  0.7526  1.2146 -1.0288
  404SOL    HW2 1212   0.178   2.560   2.803  2.8646  2.0678  4.7554
  405SOL     OW 1213   0.090   2.475   0.737 -0.6262  0.3821  0.3149
  405SOL    HW1 1214   0.080   2.403   0.658  0.7940  0.9721 -0.2397
  405SOL    HW2 1215   0.193   2.509   0.747  0.6236  0.1730 -1.7785
  406SOL     OW 1216   0.054   1.571   3.074 -0.2202 -0.0201  0.3458
  406SOL    HW1 1217   0.110   1.516   3.008 -3.2877  0.0060 -1.2333
  406SOL    HW2 1218   0.089   1.566   3.175  2.1832  1.7077  0.8769
  407SOL     OW 1219   1.549   0.926   0.974 -0.0826 -0.8324 -0.1971
  407SOL    HW1 1220   1.571   0.927   0.875  3.4044 -0.5329  1.2767
  407SOL    HW2 1221   1.474   0.996   1.005  2.4065  0.1134 -0.6658
  408SOL     OW 1222   1.592   2.434   0.981 -0.0950 -0.2256  0.1394
  408SOL    HW1 1223   1.665   2.405   0.916 -0.4959 -1.3310  0.0930
  408SOL    HW2 1224   1.530   2.511   0.946 -0.1247 -1.7250  0.8930
  409SOL     OW 1225   0.678   0.763   0.766 -0.0438  0.2148 -0.2580
  409SOL    HW1 1226   0.595   0.776   0.709  0.6524 -0.9099  1.4475
  409SOL    HW2 1227   0.690   0.666   0.804 -1.9275  1.3719  0.5172
  410SOL     OW 1228   1.244   2.026   1.407  0.0004  0.2872  0.6565
  410SOL    HW1 1229   1.318   1.951   1.389 -1.8050 -0.7143  1.5354
  410SOL    HW2 1230   1.150   1.999   1.383  1.5377 -1.1180 -1.1230
  411SOL     OW 1231   2.598   1.848   2.982 -0.7273  0.0906  0.2852
  411SOL    HW1 1232   2.628   1.943   3.012  1.2637 -0.9635 -0.1807
  411SOL    HW2 1233   2.502   1.847   2.943 -1.0683 -0.1690  0.0576
  412SOL     OW 1234   1.521   2.472   2.138 -0.1156 -0.0017  0.0672
  412SOL    HW1 1235   1.604   2.475   2.201 -1.5909 -3.2992 -0.1920
  412SOL    HW2 1236   1.435   2.426   2.177 -0.2195  1.1252  0.7523
  413SOL     OW 1237   0.012   0.191   2.916  0.1762 -0.1595  0.4796
  413SOL    HW1 1238  -0.050   0.114   2.944 -0.0149 -0.9073  0.2861
  413SOL    HW2 1239   0.105   0.183   2.956  1.6513  0.7541 -1.2062
  414SOL     OW 1240   1.827   1.512   1.197 -0.8536 -0.4512 -0.2725
  414SOL    HW1 1241   1.790   1.608   1.196  0.1506 -0.1480  1.1978
  414SOL    HW2 1242   1.812   1.467   1.102 -0.5978  0.9873 -0.1407
  415SOL     OW 1243   0.336   2.253   0.703 -0.2372 -0.7328 -0.0975
  415SOL    HW1 1244   0.332   2.287   0.803  2.4513 -1.1080  2.6192
  415SOL    HW2 1245   0.246   2.240   0.650  2.1356  2.8102 -4.2466
  416SOL     OW 1246   0.366   1.047   1.068 -0.1097  0.3331  0.2155
  416SOL    HW1 1247   0.315   0.993   1.000  0.2242  1.3353  0.5905
  416SOL    HW2 1248   0.464   1.058   1.040 -0.2655 -0.4150 -1.2625
  417SOL     OW 1249   2.293   2.380   2.045  0.2556  0.1893  0.0297
  417SOL    HW1 1250   2.322   2.283   2.069 -2.0025 -0.5481 -1.0266
  417SOL    HW2 1251   2.206   2.420   2.090 -0.8714  0.7227  2.5625
  418SOL     OW 1252   1.051   0.548   1.341  0.0204 -0.7310  0.6164
  418SOL    HW1 1253   0.968   0.526   1.278 -0.4424  1.5407 -2.4395
  418SOL    HW2 1254   1.136   0.559   1.275  2.7600  2.8250 -2.1822
  419SOL     OW 1255   0.944   0.523   2.959 -0.1160  0.6023  0.3543
  419SOL    HW1 1256   0.856   0.522   2.908  0.4507 -2.4555  1.0291
  419SOL    HW2 1257   0.947   0.606   3.011 -1.7924 -0.5783 -3.8321
  420SOL     OW 1258   0.098   2.219   0.561  0.1335 -0.3197 -0.2376
  420SOL    HW1 1259   0.156   2.202   0.473  0.3025 -5.9822 -2.4187
  420SOL    HW2 1260   0.019   2.151   0.573  0.2322 -0.9626  2.2022
  421SOL     OW 1261   0.334   2.948   0.594  0.0162  0.0151  0.1159
  421SOL    HW1 1262   0.332   2.890   0.678  1.0075  1.1439 -0.8006
  421SOL    HW2 1263   0.382   3.039   0.608  0.8666  0.2361 -0.0924
  422SOL     OW 1264   0.996   2.631   1.040 -0.0435  0.0679 -0.1851
  422SOL    HW1 1265   1.071   2.682   0.985 -1.6882  2.4515 -2.2460
  422SOL    HW2 1266   1.003   2.645   1.139 -0.7331  1.3865  1.4862
  423SOL     OW 1267   0.153   0.747   1.169  0.2435  0.5062  0.3771
  423SOL    HW1 1268   0.080   0.703   1.237 -1.1190 -1.4222  1.0737
  423SOL    HW2 1269   0.115   0.832   1.121 -2.9681  1.0843 -2.0154
  424SOL     OW 1270   1.158   2.171   2.023  0.3924  0.1860 -0.1455
  424SOL    HW1 1271   1.119   2.265   2.012 -0.7968  0.8484  0.0542
  424SOL    HW2 1272   1.144   2.142   2.123 -1.7476  1.7781  1.2011
  425SOL     OW 1273   1.964   1.340   1.006  0.3317 -0.7010  0.2170
  425SOL    HW1 1274   2.041   1.272   0.989  0.9132  0.6670 -1.9311
  425SOL    HW2 1275   1.997   1.438   1.000  0.8412 -3.5551  0.4796
  426SOL     OW 1276   1.436   1.615   1.270 -0.4031  0.1537 -0.9001
  426SOL    HW1 1277   1.464   1.710   1.245 -0.7517  3.4768  1.2368
  426SOL    HW2 1278   1.401   1.617   1.368  0.2110 -1.7669 -3.6149
  427SOL     OW 1279   1.899   2.330   2.036 -0.1726  0.1967 -0.3092
  427SOL    HW1 1280   1.932   2.260   2.106  0.4025 -3.3916  2.9606
  427SOL    HW2 1281   1.888   2.427   2.072  1.2828 -0.1577 -1.0335
  428SOL     OW 1282   0.818   3.091   0.118  0.5667 -0.2574 -0.4358
  428SOL    HW1 1283   0.836   3.179   0.071 -1.6774 -0.0960  0.6584
  428SOL    HW2 1284   0.889   3.019   0.124  1.0505 -1.7806  1.5685
  429SOL     OW 1285   1.316   0.135   0.231 -0.5863  0.3157  0.5485
  429SOL    HW1 1286   1.406   0.105   0.268 -1.0196 -0.2942 -2.6065
  429SOL    HW2 1287   1.331   0.156   0.128 -1.1176 -0.5643  0.9671
  430SOL     OW 1288   2.898   1.389   0.298  0.4468 -0.2315  0.1385
  430SOL    HW1 1289   2.877   1.438   0.216  3.0641  2.4048 -0.2504
  430SOL    HW2 1290   2.895   1.446   0.384  1.1597  0.0101 -1.0898
  431SOL     OW 1291   2.081   1.593   0.969 -0.3511  0.8340 -0.4013
  431SOL    HW1 1292   2.169   1.645   0.944  1.6542 -0.3301 -2.4852
  431SOL    HW2 1293   1.999   1.638   0.929  0.5328 -1.8281 -0.7784
  432SOL     OW 1294   2.942   2.154   1.186 -0.0831  0.1350  0.1908
  432SOL    HW1 1295   2.988   2.062   1.189 -2.6650 -2.1588 -2.2502
  432SOL    HW2 1296   2.978   2.216   1.260  1.4000 -0.6473 -0.3874
  433SOL     OW 1297   1.853   0.271   0.833 -0.1507 -0.7382 -0.1307
  433SOL    HW1 1298   1.772   0.284   0.886 -1.9894  2.8218  1.1176
  433SOL    HW2 1299   1.933   0.314   0.887  2.3258 -0.5665 -0.1474
  434SOL     OW 1300   1.570   0.350   0.674  0.8782 -0.2090 -0.3571
  434SOL    HW1 1301   1.536   0.437   0.630 -0.8779  1.6956  0.8859
  434SOL    HW2 1302   1.563   0.354   0.778 -3.2926  1.2721 -1.0620
  435SOL     OW 1303   1.542   1.469   2.012  0.7395 -0.4863  0.6349
  435SOL    HW1 1304   1.501   1.503   2.105 -1.1150 -2.3018  2.5511
  435SOL    HW2 1305   1.538   1.538   1.936  0.0494  0.6145 -0.5613
  436SOL     OW 1306   1.715   2.743   2.236 -0.0850  0.2332 -0.3345
  436SOL    HW1 1307   1.670   2.807   2.306  0.6605 -1.6567  0.6899
  436SOL    HW2 1308   1.729   2.644   2.277 -1.5139 -4.7728 -0.9222
  437SOL     OW 1309   1.102   2.951   0.927 -0.4951  0.2972  0.4999
  437SOL    HW1 1310   1.021   3.016   0.922  0.6861 -0.0192 -0.8870
  437SOL    HW2 1311   1.122   2.915   1.021 -1.3920  0.8204 -1.2967
  438SOL     OW 1312   0.996   2.639   1.340 -0.1272  0.4739  0.6397
  438SOL    HW1 1313   1.102   2.665   1.338  1.3380 -1.1895  2.6500
  438SOL    HW2 1314   0.971   2.545   1.376 -3.9626 -0.8935  0.5466
  439SOL     OW 1315   0.692   1.795   1.113 -0.6296  0.3452 -1.0533
  439SOL    HW1 1316   0.686   1.898   1.114  0.8320  0.3721  0.3959
  439SOL    HW2 1317   0.600   1.749   1.124 -0.2291  1.7168 -1.2938
  440SOL     OW 1318   1.069   2.452   1.966  0.1719  0.2052  0.8443
  440SOL    HW1 1319   1.021   2.488   1.883  1.4718  0.8893 -0.8736
  440SOL    HW2 1320   1.172   2.474   1.961  1.2286 -0.8867  0.6043
  441SOL     OW 1321   0.425   2.719   1.522 -0.4403  0.0257  0.4095
  441SOL    HW1 1322   0.516   2.677   1.508 -1.8471 -1.4347  1.0170
  441SOL    HW2 1323   0.355   2.686   1.446 -1.1095 -0.8678 -2.3047
  442SOL     OW 1324   2.237   0.743   2.486 -0.5292 -0.1278  0.3515
  442SOL    HW1 1325   2.254   0.643   2.499 -0.1884  0.4685 -2.5308
  442SOL    HW2 1326   2.152   0.766   2.538  0.4239 -0.4922 -0.9525
  443SOL     OW 1327   1.193   2.711   2.163 -0.1728 -0.5933  0.2280
  443SOL    HW1 1328   1.142   2.746   2.245  1.0028  0.0730 -0.6606
  443SOL    HW2 1329   1.237   2.618   2.169  1.0365 -1.8513  1.1417
  444SOL     OW 1330   1.050   1.340   1.574 -0.6732 -0.4492  0.1084
  444SOL    HW1 1331   1.146   1.295   1.570  0.1833 -0.9598  1.0877
  444SOL    HW2 1332   1.051   1.442   1.591 -3.7703  0.3266  0.8464
  445SOL     OW 1333   3.076   2.361   1.943 -0.3200  0.1448  0.5367
  445SOL    HW1 1334   3.077   2.454   1.893 -0.6878 -0.4488 -1.0205
  445SOL    HW2 1335   2.977   2.347   1.970  0.0052  0.9884 -0.0680
  446SOL     OW 1336   0.175   1.912   2.337 -0.0373 -0.1161 -0.2314
  446SOL    HW1 1337   0.138   2.001   2.384 -1.7942  1.7212  1.4228
  446SOL    HW2 1338   0.104   1.857   2.283 -0.4244 -0.2752 -0.5344
  447SOL     OW 1339   1.223   1.706   1.968 -0.6291  0.0626  0.3163
  447SOL    HW1 1340   1.171   1.776   1.912 -0.0161  1.4635  0.0271
  447SOL    HW2 1341   1.293   1.752   2.030  0.5225  0.3601 -1.8873
  448SOL     OW 1342   0.119   1.471   2.000 -0.5677 -0.7925 -0.7831
  448SOL    HW1 1343   0.144   1.571   1.979  2.2119  0.5264 -1.4592
  448SOL    HW2 1344   0.115   1.460   2.110  1.3467  1.3937 -0.8504
  449SOL     OW 1345   2.006   3.004   0.856 -0.0754  0.0925  0.1957
  449SOL    HW1 1346   2.049   3.035   0.944 -0.7444  1.0313  1.0840
  449SOL    HW2 1347   1.994   2.900   0.841 -2.3041 -2.8227 -0.4785
  450SOL     OW 1348   2.263   1.349   0.800  0.1367  0.1844  0.9775
  450SOL    HW1 1349   2.272   1.243   0.817  0.2075 -1.7140  0.2600
  450SOL    HW2 1350   2.196   1.385   0.729 -0.8374  1.6289 -0.1985
  451SOL     OW 1351   1.441   0.027   1.479  0.1454 -0.2040 -0.3896
  451SOL    HW1 1352   1.364   0.096   1.488 -1.8700 -0.2049 -0.6399
  451SOL    HW2 1353   1.446  -0.037   1.558  0.9463  0.7011 -0.4199
  452SOL     OW 1354   2.643   2.301   2.236  0.6727  0.2366  0.2729
  452SOL    HW1 1355   2.604   2.394   2.217 -1.0402  1.5071 -1.7407
  452SOL    HW2 1356   2.671   2.286   2.335  0.5759  1.1191  1.4956
  453SOL     OW 1357   2.433   2.616   3.051  0.0611 -0.5081 -0.2741
  453SOL    HW1 1358   2.341   2.665   3.070  0.9344 -0.6004  1.1149
  453SOL    HW2 1359   2.433   2.547   2.971 -2.3695  0.7220 -3.1883
  454SOL     OW 1360   0.980   1.117   2.127  0.1861  0.1716 -0.3476
  454SOL    HW1 1361   0.947   1.165   2.042 -1.2761 -0.7401 -2.9324
  454SOL    HW2 1362   1.078   1.091   2.123  1.6089 -0.0822  1.9313
  455SOL     OW 1363   0.741   2.666   2.867  0.1253  0.0388  0.5462
  455SOL    HW1 1364   0.777   2.756   2.909  1.9238 -0.9369 -2.5299
  455SOL    HW2 1365   0.757   2.589   2.929  0.8392 -0.0571  0.7519
  456SOL     OW 1366   0.531   1.794   0.313  0.4461 -0.3452 -0.7106
  456SOL    HW1 1367   0.620   1.748   0.300 -2.8137  0.3469  1.2937
  456SOL    HW2 1368   0.530   1.897   0.330 -1.2507  0.4032 -1.6927
  457SOL     OW 1369   0.321   2.630   0.747 -0.0380 -0.6492  0.2262
  457SOL    HW1 1370   0.358   2.635   0.650  0.9931  0.4727  0.9716
  457SOL    HW2 1371   0.398   2.610   0.810 -2.7484 -1.5019 -1.7317
  458SOL     OW 1372   2.975   2.991   1.261 -0.3443  0.6335  0.1496
  458SOL    HW1 1373   3.022   3.068   1.213 -4.4195 -1.2048 -0.3616
  458SOL    HW2 1374   2.983   2.904   1.208  3.2196  0.6276  2.1007
  459SOL     OW 1375   2.086   2.535   0.933  0.0963 -0.4147 -0.0757
  459SOL    HW1 1376   2.093   2.587   1.021 -1.8663  0.3818 -2.1137
  459SOL    HW2 1377   2.180   2.522   0.885 -1.1917 -0.2535  2.1356
  460SOL     OW 1378   1.115   1.932   2.932 -0.2286 -0.0180 -0.0421
  460SOL    HW1 1379   1.177   1.996   2.876  0.0841  0.2239  1.2952
  460SOL    HW2 1380   1.162   1.892   3.017 -2.4484  0.3675 -1.4516
  461SOL     OW 1381   0.465   2.105   2.687  0.2184 -0.0905  0.4064
  461SOL    HW1 1382   0.405   2.036   2.631 -0.5620 -1.0600  0.2419
  461SOL    HW2 1383   0.521   2.061   2.765  0.3496 -1.7854 -1.3591
  462SOL     OW 1384   0.941   1.217   1.843  0.1684 -0.0424  0.2155
  462SOL    HW1 1385   0.993   1.130   1.815 -2.3143 -0.8200 -0.4489
  462SOL    HW2 1386   0.921   1.268   1.763 -0.9642  1.2217  0.4748
  463SOL     OW 1387   0.444   0.779   0.608 -0.0624  0.0857 -0.4992
  463SOL    HW1 1388   0.481   0.709   0.542  3.0017  0.9360 -0.0070
  463SOL    HW2 1389   0.341   0.791   0.606  2.9196 -0.1931  1.5807
  464SOL     OW 1390   0.554   2.233   2.269 -1.0517  0.1027  0.1952
  464SOL    HW1 1391   0.508   2.291   2.345 -0.9182  1.3427 -0.7013
  464SOL    HW2 1392   0.574   2.288   2.183 -0.0265  0.9815 -1.0231
  465SOL     OW 1393   0.227   0.909   0.844 -0.2609 -0.9856  0.0610
  465SOL    HW1 1394   0.136   0.918   0.795  0.6002 -1.0966  2.5648
  465SOL    HW2 1395   0.249   0.812   0.876 -1.1084  0.6739 -0.3141
  466SOL     OW 1396   1.386   1.111   1.096 -0.2253  0.1168 -0.3788
  466SOL    HW1 1397   1.453   1.192   1.110 -0.8733  0.1874 -2.2987
  466SOL    HW2 1398   1.293   1.149   1.077  0.3762  1.0957 -2.4418
  467SOL     OW 1399   0.460   0.359   2.360 -0.0503 -0.0937  0.2156
  467SOL    HW1 1400   0.459   0.452   2.408  0.0792  1.1916  0.2612
  467SOL    HW2 1401   0.465   0.277   2.421 -0.5904  1.0808  0.5703
  468SOL     OW 1402   0.465   2.261   1.660  0.1978 -0.3254 -0.0095
  468SOL    HW1 1403   0.492   2.350   1.706  1.1118 -0.3866  0.0044
  468SOL    HW2 1404   0.426   2.282   1.567 -0.7312 -1.5613  0.8940
  469SOL     OW 1405   1.534   1.339   1.125  0.3760 -0.4103 -0.2283
  469SOL    HW1 1406   1.621   1.283   1.117  1.2480  1.3790 -0.9544
  469SOL    HW2 1407   1.538   1.438   1.167  1.6492  0.7388 -0.0812
  470SOL     OW 1408   3.020   1.678   0.724 -0.0625 -0.0238 -0.2795
  470SOL    HW1 1409   3.106   1.717   0.764 -2.8618 -1.1084  2.4216
  470SOL    HW2 1410   2.938   1.729   0.750  2.6807 -0.3256 -0.6110
  471SOL     OW 1411   2.675   1.307   2.124  0.9273  0.1551  0.0423
  471SOL    HW1 1412   2.635   1.243   2.201 -0.7082 -0.7496 -0.6461
  471SOL    HW2 1413   2.728   1.385   2.167  0.1711 -0.1242  0.2355
  472SOL     OW 1414   1.101   2.451   3.075 -0.1075  0.5620  0.3861
  472SOL    HW1 1415   1.160   2.453   3.162  0.5865 -0.0521  0.6730
  472SOL    HW2 1416   1.064   2.357   3.059 -0.9173  2.2956 -0.8714
  473SOL     OW 1417   1.104   1.563   0.905 -0.5171  0.5777 -0.0401
  473SOL    HW1 1418   1.018   1.593   0.946  0.9897  1.6713 -1.4669
  473SOL    HW2 1419   1.178   1.530   0.973 -0.0305 -2.4773  0.2703
  474SOL     OW 1420   0.827   1.223   0.705  0.0338 -0.1363  0.9553
  474SOL    HW1 1421   0.824   1.207   0.603  0.1653  0.0475  0.0811
  474SOL    HW2 1422   0.841   1.137   0.755  1.9375 -1.2044 -0.1809
  475SOL     OW 1423   2.878   0.096   0.764  0.5323 -0.6368  0.3216
  475SOL    HW1 1424   2.966   0.099   0.817 -1.1895 -0.8871 -1.4966
  475SOL    HW2 1425   2.792   0.108   0.823 -1.1280 -1.5928 -1.8145
  476SOL     OW 1426   0.899   3.051   1.804 -0.1779  0.3333  0.0464
  476SOL    HW1 1427   0.981   3.050   1.862 -0.2270  2.0022  0.2798
  476SOL    HW2 1428   0.891   2.975   1.737 -0.5983 -1.5148  1.0467
  477SOL     OW 1429   1.414   0.322   2.440 -0.3648  0.0705 -0.4161
  477SOL    HW1 1430   1.396   0.335   2.541 -0.2881  2.4309 -1.3814
  477SOL    HW2 1431   1.507   0.280   2.419 -0.5412 -1.1830  0.6661
  478SOL     OW 1432   2.260   1.798   0.223  0.2454 -0.0323  0.3555
  478SOL    HW1 1433   2.203   1.717   0.197 -0.1073  2.4168  0.7338
  478SOL    HW2 1434   2.363   1.780   0.240  2.0142  0.2641  0.0102
  479SOL     OW 1435   1.315   1.046   2.875  0.0436  0.5197  0.2860
  479SOL    HW1 1436   1.410   1.010   2.859  0.4500  0.2738  0.1315
  479SOL    HW2 1437   1.274   1.075   2.786  0.9374  0.4323 -3.5558
  480SOL     OW 1438   2.469   2.331   0.385 -0.2476  0.4006  0.0220
  480SOL    HW1 1439   2.433   2.239   0.421 -1.2575 -1.2290 -1.5150
  480SOL    HW2 1440   2.415   2.370   0.307 -1.9370 -0.2575 -1.5325
  481SOL     OW 1441   1.121   1.150   0.786  0.3193 -0.0890 -0.6503
  481SOL    HW1 1442   1.061   1.214   0.730  2.0250  0.5020 -1.0597
  481SOL    HW2 1443   1.124   1.159   0.890 -1.0595 -0.0844 -1.2767
  482SOL     OW 1444   1.606   0.327   2.056 -0.2215 -0.4345  0.1189
  482SOL    HW1 1445   1.610   0.420   2.003  0.3829 -1.1963 -0.4536
  482SOL    HW2 1446   1.691   0.276   2.056  0.1996 -2.1068  0.1132
  483SOL     OW 1447   0.148   2.320   1.279 -0.7306  0.1941  0.4129
  483SOL    HW1 1448   0.054   2.346   1.308 -1.0696 -0.6927 -1.0466
  483SOL    HW2 1449   0.168   2.363   1.188  0.1186 -1.6498  3.0332
  484SOL     OW 1450   1.729   0.984   1.402 -0.0489  0.1341 -0.1203
  484SOL    HW1 1451   1.804   0.925   1.449  1.0870 -1.3434 -0.5017
  484SOL    HW2 1452   1.749   1.087   1.416  2.1980  1.9605  1.2100
  485SOL     OW 1453   0.680   1.102   1.789 -0.1794  0.0979  0.4759
  485SOL    HW1 1454   0.695   1.088   1.689  0.5517 -1.9206 -0.8258
  485SOL    HW2 1455   0.756   1.158   1.835  1.0277  0.3203 -1.8856
  486SOL     OW 1456   0.933   1.981   2.447 -0.3401 -0.2900  0.1313
  486SOL    HW1 1457   0.979   1.937   2.529 -2.9058 -4.0188  0.3159
  486SOL    HW2 1458   0.842   2.027   2.460 -1.1863 -3.7602 -0.5204
  487SOL     OW 1459   1.698   1.507   0.934  0.5991 -0.4966  0.4848
  487SOL    HW1 1460   1.714   1.409   0.904  2.6959 -2.7032 -2.1307
  487SOL    HW2 1461   1.766   1.580   0.898  2.3917  1.1457 -2.3059
  488SOL     OW 1462   2.957   0.963   2.232  0.1124 -0.4482  0.3392
  488SOL    HW1 1463   2.971   0.886   2.158  2.4573 -3.2527  1.8183
  488SOL    HW2 1464   2.990   0.928   2.321 -1.0904  0.5149  0.2986
  489SOL     OW 1465   2.741   0.279   1.338  0.2789  0.0075  0.0686
  489SOL    HW1 1466   2.683   0.255   1.421 -1.2785 -1.5408 -1.4683
  489SOL    HW2 1467   2.795   0.201   1.307  0.6107 -1.0790  0.7468
  490SOL     OW 1468   1.421   2.970   2.830 -0.3348 -0.2298  0.1706
  490SOL    HW1 1469   1.481   2.887   2.815  0.8091 -0.9340  2.6479
  490SOL    HW2 1470   1.377   2.997   2.737 -1.0457  2.0873 -0.6042
  491SOL     OW 1471   1.858   1.568   2.715  0.2888  0.4642 -0.2101
  491SOL    HW1 1472   1.837   1.542   2.812  2.3054 -1.8496 -0.7637
  491SOL    HW2 1473   1.957   1.571   2.707 -2.2212  3.0242  1.9737
  492SOL     OW 1474   0.476   2.014   0.768 -0.4735 -0.3553 -0.2550
  492SOL    HW1 1475   0.544   2.007   0.845 -0.0888  1.9587 -1.2455
  492SOL    HW2 1476   0.435   2.107   0.756 -1.9178 -3.4338  0.8492
  493SOL     OW 1477   0.419   1.376   2.075 -0.2745 -0.0460  0.7941
  493SOL    HW1 1478   0.322   1.408   2.061  1.0210  2.3142  4.3237
  493SOL    HW2 1479   0.430   1.322   2.165  3.9920 -0.8774  0.0280
  494SOL     OW 1480   2.651   2.673   0.146  0.0143 -0.2558 -0.5113
  494SOL    HW1 1481   2.654   2.619   0.232  1.5195 -0.8094 -2.0487
  494SOL    HW2 1482   2.596   2.626   0.069 -2.2817 -0.3588  0.2325
  495SOL     OW 1483   2.735   2.671   2.700  0.2934 -0.0978 -0.7117
  495SOL    HW1 1484   2.739   2.568   2.721 -1.7147  0.1916  0.2058
  495SOL    HW2 1485   2.736   2.695   2.600 -1.7499  1.3606 -1.4109
  496SOL     OW 1486   2.085   2.187   0.742  0.7536  0.6368  0.0785
  496SOL    HW1 1487   2.049   2.183   0.840  0.9923 -2.4645  1.9104
  496SOL    HW2 1488   2.138   2.099   0.718 -1.5942  1.9187  1.7229
  497SOL     OW 1489   0.208   2.977   2.403  0.2996  0.3952  0.1738
  497SOL    HW1 1490   0.150   3.049   2.451 -1.4740 -1.3257  0.0494
  497SOL    HW2 1491   0.236   3.019   2.316 -0.8738 -0.0595  0.4866
  498SOL     OW 1492   1.236   1.461   1.135  0.0473  0.5172 -0.0596
  498SOL    HW1 1493   1.317   1.518   1.161 -3.8849 -1.0262  1.9069
  498SOL    HW2 1494   1.148   1.496   1.173 -0.8750  1.6849 -1.7806
  499SOL     OW 1495   0.838   1.841   0.539  0.0912 -0.3442  0.5005
  499SOL    HW1 1496   0.797   1.750   0.539  2.1159  2.6365  0.9342
  499SOL    HW2 1497   0.839   1.888   0.632  0.5884 -0.0617  0.3429
  500SOL     OW 1498   1.387   2.974   1.720 -0.0258 -0.0587  0.9806
  500SOL    HW1 1499   1.437   3.012   1.801 -0.3694  0.2767  0.4023
  500SOL    HW2 1500   1.415   2.875   1.702  0.6841  1.9955 -0.7790
  501SOL     OW 1501   0.728   1.147   2.271  0.1137  0.3049 -0.4152
  501SOL    HW1 1502   0.635   1.101   2.253  0.2866 -1.1946  2.1027
  501SOL    HW2 1503   0.802   1.129   2.199 -1.9861 -1.1860  0.8156
  502SOL     OW 1504   2.622   0.970   1.733  0.1000  0.0573 -0.1526
  502SOL    HW1 1505   2.610   0.978   1.631  2.7566 -3.2075  2.0474
  502SOL    HW2 1506   2.572   0.888   1.777  1.7306 -0.5601  0.4761
  503SOL     OW 1507   1.365   0.199   0.602  0.3216  0.2402  0.3165
  503SOL    HW1 1508   1.279   0.261   0.596  0.4192 -1.2918 -2.8109
  503SOL    HW2 1509   1.450   0.252   0.636  0.5815 -1.5138  1.7319
  504SOL     OW 1510   2.995   2.352   1.384 -0.0794  0.3703 -0.0864
  504SOL    HW1 1511   3.020   2.438   1.442  1.8153  0.0948 -2.3936
  504SOL    HW2 1512   2.954   2.274   1.428  0.4113  0.8973  1.2804
  505SOL     OW 1513   2.284   1.210   1.457  0.3350  0.6068  0.2194
  505SOL    HW1 1514   2.272   1.274   1.373 -0.5373  0.2327 -1.2575
  505SOL    HW2 1515   2.380   1.220   1.500 -2.1502  1.3017 -2.0854
  506SOL     OW 1516   1.920   0.248   1.791 -0.3667  0.2909  0.4029
  506SOL    HW1 1517   2.012   0.196   1.794  2.2532 -1.2869  0.2097
  506SOL    HW2 1518   1.915   0.342   1.829 -3.5862 -1.6293  1.7596
  507SOL     OW 1519   0.494   0.642   2.181 -0.2340 -0.1947 -0.0722
  507SOL    HW1 1520   0.407   0.629   2.127 -1.0747 -0.4859 -1.1740
  507SOL    HW2 1521   0.548   0.558   2.178  0.5123  2.3657  2.5833
  508SOL     OW 1522   0.265   1.677   0.878 -0.2678  0.2005 -0.2458
  508SOL    HW1 1523   0.341   1.742   0.847  1.8249  0.1371 -0.6661
  508SOL    HW2 1524   0.241   1.685   0.978 -2.9247 -1.7263 -1.5374
  509SOL     OW 1525   1.333   1.188   2.500  0.2197  0.2581  0.7731
  509SOL    HW1 1526   1.241   1.239   2.515  1.7871  0.5003 -2.4696
  509SOL    HW2 1527   1.313   1.100   2.443 -1.9510 -2.8900 -0.9029
  510SOL     OW 1528   1.340   1.971   2.061 -0.0416 -0.5160  0.8016
  510SOL    HW1 1529   1.287   2.067   2.042 -1.0708  2.7528  0.6841
  510SOL    HW2 1530   1.296   1.912   2.132 -0.4138 -2.3429 -0.2255
  511SOL     OW 1531   0.011   2.641   1.329  0.5070 -0.1294  0.4637
  511SOL    HW1 1532  -0.030   2.611   1.242 -0.5096  0.7529  0.1160
  511SOL    HW2 1533  -0.055   2.632   1.411 -0.1246 -0.0094  0.1284
  512SOL     OW 1534   2.431   0.433   1.367 -0.4478  0.0662 -0.5625
  512SOL    HW1 1535   2.331   0.407   1.375  0.7228  0.1049  2.1885
  512SOL    HW2 1536   2.469   0.426   1.272  1.6084 -0.5392 -1.6108
  513SOL     OW 1537   2.468   1.996   0.853  0.4233 -0.1258 -0.4365
  513SOL    HW1 1538   2.422   2.087   0.842 -0.2858  1.0595  0.8050
  513SOL    HW2 1539   2.556   1.984   0.796  0.7061  1.0682  0.3723
  514SOL     OW 1540   0.686   2.780   0.378  0.4278  0.0630  0.1998
  514SOL    HW1 1541   0.663   2.838   0.294 -1.9452 -2.1033  1.5778
  514SOL    HW2 1542   0.709   2.830   0.465 -1.8393  1.0372 -1.1175
  515SOL     OW 1543   1.995   1.182   2.295 -0.0856  0.0205  0.0259
  515SOL    HW1 1544   1.927   1.219   2.224 -2.3042  2.6844  0.5328
  515SOL    HW2 1545   1.949   1.202   2.391 -1.1464  1.5678  3.2324
  516SOL     OW 1546   0.278   0.298   1.947  0.0655  0.5512 -0.4856
  516SOL    HW1 1547   0.368   0.300   1.891  2.1394 -0.3360 -1.6442
  516SOL    HW2 1548   0.211   0.226   1.918  0.2687  0.7012  0.8198
  517SOL     OW 1549   0.348   3.055   1.182 -0.5117 -0.2866  0.3071
  517SOL    HW1 1550   0.381   3.150   1.201  0.1117 -0.7644  1.0736
  517SOL    HW2 1551   0.277   3.017   1.246  3.9210  1.3534  2.0203
  518SOL     OW 1552   2.134   0.089   1.775 -0.3995  1.1308 -0.7960
  518SOL    HW1 1553   2.221   0.137   1.809 -0.8107  1.4876 -1.8108
  518SOL    HW2 1554   2.143  -0.012   1.753 -0.1676 -1.9139  0.1266
  519SOL     OW 1555   2.409   2.185   2.587  0.6401 -0.6164 -0.2743
  519SOL    HW1 1556   2.331   2.166   2.651 -0.1673  0.9827  0.5248
  519SOL    HW2 1557   2.461   2.275   2.595 -3.2608  1.2147 -1.4946
  520SOL     OW 1558   1.777   2.891   1.811 -0.2715 -0.0400  0.2094
  520SOL    HW1 1559   1.696   2.875   1.873  0.8417 -1.7255 -3.3393
  520SOL    HW2 1560   1.848   2.819   1.817 -0.4859  2.5947  2.6182
  521SOL     OW 1561   0.561   0.104   2.099 -0.5453  0.2866  0.1388
  521SOL    HW1 1562   0.469   0.086   2.136  0.8725 -0.4535  1.6691
  521SOL    HW2 1563   0.635   0.103   2.171 -1.8838  3.1656 -0.4312
  522SOL     OW 1564   0.163   1.907   1.525  0.3942 -0.0752  0.7434
  522SOL    HW1 1565   0.226   1.955   1.591  2.4996  0.0914  1.1318
  522SOL    HW2 1566   0.152   1.961   1.438 -0.7723  2.8515  2.2791
  523SOL     OW 1567   2.187   2.926   1.610 -0.0008  0.2272  0.0350
  523SOL    HW1 1568   2.249   2.852   1.575 -2.7858  1.2390  0.9895
  523SOL    HW2 1569   2.089   2.908   1.572  0.1711  0.6877  0.4149
  524SOL     OW 1570   0.221   2.740   2.823  0.2521 -0.3132 -0.0555
  524SOL    HW1 1571   0.204   2.797   2.906  1.7913 -1.8223  2.9412
  524SOL    HW2 1572   0.320   2.726   2.810 -1.6461 -0.2451 -0.7822
  525SOL     OW 1573   2.184   1.905   0.462 -0.1411  0.1599 -0.4043
  525SOL    HW1 1574   2.166   1.820   0.515 -1.2737  0.0189 -1.8579
  525SOL    HW2 1575   2.209   1.880   0.363  0.1945 -1.9264 -3.8080
  526SOL     OW 1576   0.399   1.500   1.599 -0.2469  0.4332 -0.5014
  526SOL    HW1 1577   0.321   1.471   1.661 -0.9689 -0.3424 -3.1837
  526SOL    HW2 1578   0.448   1.422   1.555 -1.5620  1.1057 -4.0443
  527SOL     OW 1579   1.128   2.919   1.222 -0.2534  0.3608 -0.6174
  527SOL    HW1 1580   1.223   2.896   1.250  0.8573 -0.1563 -0.0207
  527SOL    HW2 1581   1.113   3.021   1.205 -0.1253 -0.1382 -0.1114
  528SOL     OW 1582   1.333   2.387   0.466 -0.0854 -0.6346 -0.4785
  528SOL    HW1 1583   1.355   2.290   0.492  0.2653 -0.0901 -3.6887
  528SOL    HW2 1584   1.385   2.457   0.522  1.2495 -0.9621  0.9728
  529SOL     OW 1585   1.870   1.708   0.825 -0.4662  0.5184 -0.3426
  529SOL    HW1 1586   1.830   1.719   0.730  2.8672  0.4697 -1.3927
  529SOL    HW2 1587   1.861   1.795   0.889  0.1932  1.9457 -0.0235
  530SOL     OW 1588   0.284   2.433   0.336  0.3193  0.6196  0.4006
  530SOL    HW1 1589   0.250   2.525   0.377  1.7415 -0.4879 -1.8227
  530SOL    HW2 1590   0.382   2.424   0.359 -0.4017  0.6736  1.6815
  531SOL     OW 1591   1.807   0.883   1.049  0.0082 -1.0209  0.4710
  531SOL    HW1 1592   1.856   0.859   0.954  3.2442  0.8847 -2.1180
  531SOL    HW2 1593   1.702   0.878   1.048 -1.0335  0.2450 -0.4464
  532SOL     OW 1594   0.491   1.059   0.742  0.1477  0.3522 -0.4939
  532SOL    HW1 1595   0.524   1.045   0.645  2.7645  1.9743 -1.4137
  532SOL    HW2 1596   0.413   0.992   0.769 -1.4386 -0.0947 -0.9114
  533SOL     OW 1597   1.772   0.036   2.564  0.0455 -0.0374 -0.3731
  533SOL    HW1 1598   1.874   0.028   2.551  1.3202  0.7793 -0.7946
  533SOL    HW2 1599   1.739   0.111   2.630  0.1877  3.2125 -0.0516
  534SOL     OW 1600   0.415   0.190   1.538  0.0496 -0.2992 -0.4057
  534SOL    HW1 1601   0.518   0.207   1.560  0.0234  0.0090 -1.3713
  534SOL    HW2 1602   0.352   0.273   1.553  1.1910 -0.3093  1.6280
  535SOL     OW 1603   1.932   0.380   0.178 -0.4669  0.0507 -0.1193
  535SOL    HW1 1604   1.933   0.447   0.258 -0.6014 -3.8066  1.5949
  535SOL    HW2 1605   1.922   0.286   0.214  0.2335  1.5444  0.2910
  536SOL     OW 1606   1.387   2.627   0.946 -0.0236  0.3206 -0.6115
  536SOL    HW1 1607   1.379   2.605   1.048 -1.3415 -1.3931  0.3701
  536SOL    HW2 1608   1.299   2.652   0.900 -2.0778  1.0796 -1.7681
  537SOL     OW 1609   0.843   0.270   2.399  0.1216 -0.1169 -0.1146
  537SOL    HW1 1610   0.923   0.318   2.355  1.4583  1.2482 -1.6783
  537SOL    HW2 1611   0.831   0.176   2.363 -1.1121 -1.1953 -2.4988
  538SOL     OW 1612   1.632   2.312   1.337 -0.4484  0.3788 -0.0292
  538SOL    HW1 1613   1.659   2.214   1.359  0.3669 -0.2473  2.1722
  538SOL    HW2 1614   1.690   2.385   1.384  0.4444  1.8710  1.0476
  539SOL     OW 1615   0.139   1.632   2.700 -0.3895 -0.1623 -0.1681
  539SOL    HW1 1616   0.060   1.593   2.642 -3.0514 -0.7013  0.6843
  539SOL    HW2 1617   0.116   1.725   2.740  1.7342 -0.3630  1.7059
  540SOL     OW 1618   2.679   1.696   1.936  0.1216 -0.0535  0.2593
  540SOL    HW1 1619   2.600   1.632   1.964 -1.1861 -1.7463 -0.8005
  540SOL    HW2 1620   2.638   1.786   1.906 -1.3710 -0.8080 -0.5714
  541SOL     OW 1621   0.566   2.162   0.028 -0.3587 -0.1452 -0.4470
  541SOL    HW1 1622   0.586   2.122   0.123 -0.4607  0.2341 -0.6108
  541SOL    HW2 1623   0.464   2.151   0.002  0.5835  0.8098 -0.0229
  542SOL     OW 1624   2.236   2.606   0.490  0.3222 -0.0353  0.6529
  542SOL    HW1 1625   2.153   2.667   0.495  0.6616  0.5200  1.5635
  542SOL    HW2 1626   2.213   2.507   0.480 -2.1830  0.4105  1.6258
  543SOL     OW 1627   1.069   1.813   1.568  0.6068 -0.0094  0.0954
  543SOL    HW1 1628   1.061   1.856   1.666  0.0003 -1.4208 -0.1493
  543SOL    HW2 1629   1.013   1.865   1.501  0.0376  0.4871  0.9198
  544SOL     OW 1630   1.109   0.514   0.178 -0.0545 -0.1827 -0.0204
  544SOL    HW1 1631   1.105   0.445   0.249 -0.3382  1.1789 -1.4033
  544SOL    HW2 1632   1.151   0.483   0.089 -0.6342 -0.5379  0.4367
  545SOL     OW 1633   1.087   1.817   0.792 -0.1761  0.2095  0.2870
  545SOL    HW1 1634   1.174   1.845   0.743  1.7656 -2.2744  1.3542
  545SOL    HW2 1635   1.087   1.717   0.820  0.1031 -0.3492  0.4081
  546SOL     OW 1636   2.685   1.565   2.994  0.3295  0.0430 -0.5580
  546SOL    HW1 1637   2.660   1.662   2.959  0.0703  4.6849  0.5700
  546SOL    HW2 1638   2.608   1.503   3.030 -1.7846  1.9583 -1.1255
  547SOL     OW 1639   0.640   3.055   2.518  0.1137  0.7735 -0.3282
  547SOL    HW1 1640   0.704   3.042   2.596  2.9570  2.3743 -0.6969
  547SOL    HW2 1641   0.561   2.982   2.512  1.2022 -0.5147 -1.4394
  548SOL     OW 1642   2.058   0.798   3.072  0.2513 -0.1330  0.3430
  548SOL    HW1 1643   1.958   0.772   3.052  1.4505  1.2619 -1.2042
  548SOL    HW2 1644   2.070   0.901   3.082 -1.3650 -0.6949 -1.8750
  549SOL     OW 1645   0.690   0.583   0.211  0.3790  0.0744  0.3145
  549SOL    HW1 1646   0.630   0.619   0.133 -0.6722  1.4343  2.0235
  549SOL    HW2 1647   0.781   0.637   0.235  6.3407  0.4989 -0.7285
  550SOL     OW 1648   2.570   2.832   2.877  0.1102  0.3729 -0.6880
  550SOL    HW1 1649   2.513   2.772   2.941 -0.7436 -0.8287  1.4064
  550SOL    HW2 1650   2.622   2.779   2.806 -2.5766 -2.2599 -0.8882
  551SOL     OW 1651   0.237   0.894   0.257  0.5871  0.1902  0.1154
  551SOL    HW1 1652   0.340   0.909   0.246  1.4263 -1.6286  0.1445
  551SOL    HW2 1653   0.221   0.899   0.359  1.0531 -0.1951 -1.3244
  552SOL     OW 1654   0.615   2.998   1.946 -1.0722  0.2806  0.8691
  552SOL    HW1 1655   0.580   3.080   1.999 -0.9909 -0.0648  0.7529
  552SOL    HW2 1656   0.719   3.009   1.930  0.4755  0.5200  0.1226
  553SOL     OW 1657   2.937   2.406   0.330  0.3310 -0.2922  0.1565
  553SOL    HW1 1658   2.917   2.311   0.353  0.3910 -0.1631  1.2650
  553SOL    HW2 1659   2.842   2.457   0.346 -0.9351  0.9991  1.3312
  554SOL     OW 1660   2.127   0.360   0.474  0.7649  0.3342  0.0353
  554SOL    HW1 1661   2.214   0.358   0.419  0.2577  1.4162  1.1999
  554SOL    HW2 1662   2.133   0.312   0.570 -0.8773 -0.4779  1.5747
  555SOL     OW 1663   0.441   2.844   2.495  0.0008  0.1291 -0.2295
  555SOL    HW1 1664   0.358   2.889   2.467  1.2297 -1.4166  2.2022
  555SOL    HW2 1665   0.488   2.781   2.425  1.6195 -3.1384  1.3958
  556SOL     OW 1666   0.854   2.436   1.600  0.1955  0.1608  0.1032
  556SOL    HW1 1667   0.884   2.484   1.682 -2.0979  0.2368  0.7912
  556SOL    HW2 1668   0.926   2.415   1.528 -1.1323  2.1508 -0.5123
  557SOL     OW 1669   0.185   2.060   0.239  0.4975  0.8546  0.1794
  557SOL    HW1 1670   0.122   2.003   0.175 -1.3288 -2.7460 -1.3210
  557SOL    HW2 1671   0.252   2.122   0.187  0.8626  1.5210 -1.2612
  558SOL     OW 1672   2.782   2.167   0.422  0.9276 -0.3188 -0.0210
  558SOL    HW1 1673   2.701   2.227   0.412  0.3515 -1.7265 -2.5269
  558SOL    HW2 1674   2.780   2.083   0.370  1.0246  2.5193  0.4449
  559SOL     OW 1675   0.394   2.341   1.404 -0.0646  0.2926  0.3528
  559SOL    HW1 1676   0.316   2.368   1.341  0.4100 -2.7305  2.3184
  559SOL    HW2 1677   0.447   2.265   1.366  1.1808  0.4102  1.7397
  560SOL     OW 1678   2.133   1.064   3.068 -0.3691 -0.6510 -0.3628
  560SOL    HW1 1679   2.173   1.073   3.167  1.0272  1.5333  0.2895
  560SOL    HW2 1680   2.196   1.099   2.993  2.0413  1.1408  2.6818
  561SOL     OW 1681   0.035   1.886   0.077  0.3683  0.7006  0.1382
  561SOL    HW1 1682  -0.009   1.820   0.145  1.3185  0.9378 -0.3840
  561SOL    HW2 1683  -0.024   1.946   0.017  0.6713 -0.9856  1.1332
  562SOL     OW 1684   1.111   2.107   2.298  0.4696 -0.2682 -0.1040
  562SOL    HW1 1685   1.093   2.210   2.308  0.0719  3.8063  0.1057
  562SOL    HW2 1686   1.032   2.045   2.339  0.1470 -0.2930 -1.5000
  563SOL     OW 1687   0.690   2.523   2.646 -0.1376  0.0890  0.0777
  563SOL    HW1 1688   0.766   2.463   2.608  0.6996  0.9802  2.7204
  563SOL    HW2 1689   0.725   2.594   2.714  0.2713  0.3861 -2.0021
  564SOL     OW 1690   2.916   1.383   2.884 -0.2252 -0.0657 -0.0022
  564SOL    HW1 1691   2.827   1.434   2.910 -0.0636 -2.3456  2.3070
  564SOL    HW2 1692   3.001   1.432   2.907  0.4912  0.1360 -3.1394
  565SOL     OW 1693   2.508   1.939   2.651  0.1013  0.1535 -0.4183
  565SOL    HW1 1694   2.480   2.029   2.605 -2.1038 -1.0841  0.9598
  565SOL    HW2 1695   2.598   1.959   2.705  0.0472 -0.8602 -1.1220
  566SOL     OW 1696   1.973   2.889   1.463  0.3765 -0.4024 -0.4528
  566SOL    HW1 1697   1.938   2.800   1.501  1.5166 -0.3253 -2.9561
  566SOL    HW2 1698   1.977   2.897   1.359 -3.8075  0.8110 -2.1322
  567SOL     OW 1699   2.428   0.019   2.320 -0.7573  0.3994 -0.4324
  567SOL    HW1 1700   2.326   0.008   2.319  1.1924 -0.9012  0.4956
  567SOL    HW2 1701   2.455   0.094   2.257 -0.3544 -0.0670 -1.0054
  568SOL     OW 1702   1.500   1.749   0.318 -0.5003  0.0777 -0.3572
  568SOL    HW1 1703   1.449   1.827   0.274  1.0784 -1.1565 -1.2265
  568SOL    HW2 1704   1.601   1.766   0.330 -2.2785 -0.2094  1.4563
  569SOL     OW 1705   0.244   0.616   0.892  0.5691 -0.2808 -0.6158
  569SOL    HW1 1706   0.297   0.569   0.820  0.9866  0.0856  1.9721
  569SOL    HW2 1707   0.151   0.574   0.909 -1.4444 -0.4037  1.9957
  570SOL     OW 1708   0.600   0.855   2.923 -0.0058  0.4479 -0.3834
  570SOL    HW1 1709   0.659   0.857   2.842  0.1661  2.3058 -1.7228
  570SOL    HW2 1710   0.613   0.938   2.988 -0.2567  0.7074 -0.3713
  571SOL     OW 1711   0.795   3.079   1.113 -0.7070 -0.2394 -0.0406
  571SOL    HW1 1712   0.821   3.110   1.016  1.8181 -1.0060  1.2500
  571SOL    HW2 1713   0.804   2.974   1.130  2.2846  1.5373 -0.4337
  572SOL     OW 1714   1.627   2.704   1.410 -0.1513 -0.0119 -0.3225
  572SOL    HW1 1715   1.566   2.617   1.397  0.2935  0.1699  2.5047
  572SOL    HW2 1716   1.654   2.755   1.325 -1.2078  0.5192  0.9692
  573SOL     OW 1717   0.040   0.484   1.978  0.0387  0.5742 -0.7696
  573SOL    HW1 1718   0.017   0.387   2.016 -0.9703 -1.8134 -0.7147
  573SOL    HW2 1719   0.075   0.486   1.880 -1.7899 -0.1494 -3.3728
  574SOL     OW 1720   0.142   1.704   1.136 -0.0392 -0.6920  0.0387
  574SOL    HW1 1721   0.203   1.710   1.220 -2.0379 -1.2355  0.8568
  574SOL    HW2 1722   0.073   1.783   1.132 -2.4371 -4.1805  2.2788
  575SOL     OW 1723   0.883   2.197   0.955  0.4646  0.4247  0.0846
  575SOL    HW1 1724   0.873   2.245   1.046 -0.1355 -0.0739  0.9797
  575SOL    HW2 1725   0.917   2.263   0.879  0.5223 -0.6798  1.3833
  576SOL     OW 1726   2.909   2.993   1.713 -0.1631  0.2279 -0.0202
  576SOL    HW1 1727   2.811   2.968   1.673 -2.1947 -0.8339  2.2093
  576SOL    HW2 1728   2.944   3.086   1.683 -0.3436 -1.3245  0.9354
  577SOL     OW 1729   2.667   1.222   3.092 -0.2528  0.0490 -0.4493
  577SOL    HW1 1730   2.637   1.140   3.030 -1.5084 -0.3941 -0.6966
  577SOL    HW2 1731   2.707   1.202   3.189 -1.7541  1.4359  4.2327
  578SOL     OW 1732   1.456   2.757   2.546 -0.1739 -0.2065  0.1006
  578SOL    HW1 1733   1.368   2.777   2.500  0.6344 -1.8503 -0.6423
  578SOL    HW2 1734   1.531   2.831   2.529  1.0895  0.8937 -0.9770
  579SOL     OW 1735   0.066   2.427   0.188 -0.2031 -0.9598 -0.1272
  579SOL    HW1 1736  -0.022   2.394   0.237  0.4044  0.5918  1.8913
  579SOL    HW2 1737   0.153   2.396   0.237 -0.1798 -1.8670  0.0067
  580SOL     OW 1738   0.942   2.659   0.414  0.0951  0.5904  0.5430
  580SOL    HW1 1739   0.996   2.660   0.329 -4.1477 -1.0792 -2.0842
  580SOL    HW2 1740   0.856   2.719   0.398 -1.9801  0.9895  0.6641
  581SOL     OW 1741   1.277   2.708   1.441  0.0116 -0.0020 -0.2094
  581SOL    HW1 1742   1.321   2.618   1.461  0.7599  2.7155 -2.5090
  581SOL    HW2 1743   1.340   2.783   1.416 -0.8913 -0.1702 -0.4043
  582SOL     OW 1744   1.490   0.086   1.930 -0.0904  0.0876  0.0334
  582SOL    HW1 1745   1.473   0.176   1.977 -0.6107 -2.6818 -1.6988
  582SOL    HW2 1746   1.572   0.086   1.864  0.8303  0.5346  0.3999
  583SOL     OW 1747   2.466   3.076   0.553  0.5815 -0.0917 -0.0687
  583SOL    HW1 1748   2.560   3.038   0.530  2.7667 -0.7046  0.8700
  583SOL    HW2 1749   2.398   3.003   0.584  0.1624 -0.3079 -0.4088
  584SOL     OW 1750   1.601   1.119   2.321  0.3472 -0.7712 -0.2907
  584SOL    HW1 1751   1.652   1.194   2.262  0.1758 -2.8417  0.1772
  584SOL    HW2 1752   1.670   1.045   2.348  1.1060  1.7037 -1.8058
  585SOL     OW 1753   2.061   2.662   2.885 -0.1317 -0.1297 -0.0145
  585SOL    HW1 1754   2.109   2.577   2.857  0.7257  3.2363  0.9221
  585SOL    HW2 1755   1.955   2.655   2.890 -0.5266 -0.6328 -1.8015
  586SOL     OW 1756   2.912   0.397   1.551 -0.0714 -0.0882  0.4855
  586SOL    HW1 1757   2.879   0.477   1.609  1.0207  0.9419  0.6178
  586SOL    HW2 1758   2.847   0.374   1.482  3.8850  0.4540  2.2876
  587SOL     OW 1759   2.125   1.479   2.692  0.4655 -0.0541  0.0771
  587SOL    HW1 1760   2.122   1.392   2.636 -0.7261  0.5811  1.2125
  587SOL    HW2 1761   2.206   1.482   2.758 -2.2242  0.2670  2.5076
  588SOL     OW 1762   0.521   2.679   2.292 -0.5321 -0.9929 -0.3695
  588SOL    HW1 1763   0.516   2.708   2.187  0.7701  1.6231 -3.0789
  588SOL    HW2 1764   0.488   2.585   2.313 -2.1867 -0.3939 -2.4048
  589SOL     OW 1765   2.177   1.293   2.484 -0.2331 -0.2031 -0.4862
  589SOL    HW1 1766   2.139   1.261   2.395  1.2504  0.7182  1.8596
  589SOL    HW2 1767   2.279   1.264   2.498 -0.5143 -0.7255 -0.2607
  590SOL     OW 1768   2.332   1.710   2.064 -0.2380 -0.4286  0.0142
  590SOL    HW1 1769   2.414   1.644   2.063 -1.9160 -1.0061 -0.5292
  590SOL    HW2 1770   2.327   1.745   2.162  0.5759 -0.5391 -1.7553
  591SOL     OW 1771   1.239   2.380   0.205  0.5472  0.2865 -0.3998
  591SOL    HW1 1772   1.268   2.310   0.139  1.0484 -1.3283 -1.9115
  591SOL    HW2 1773   1.265   2.359   0.307  0.8581  0.7987  0.5854
  592SOL     OW 1774   1.801   2.344   0.794 -0.0448  0.4165 -0.0548
  592SOL    HW1 1775   1.803   2.413   0.713  0.9301  1.1126 -0.4976
  592SOL    HW2 1776   1.887   2.342   0.846  1.0268  0.0219 -0.6686
  593SOL     OW 1777   0.753   0.322   0.253  0.8795 -0.4766 -0.0745
  593SOL    HW1 1778   0.808   0.279   0.173  2.1001 -0.7030  1.1418
  593SOL    HW2 1779   0.737   0.423   0.233 -1.0708 -0.3689 -1.0498
  594SOL     OW 1780   1.057   1.823   2.668  0.0337 -0.7985 -0.6057
  594SOL    HW1 1781   1.150   1.808   2.621 -1.0434  0.2147 -2.6728
  594SOL    HW2 1782   1.063   1.865   2.763 -3.2807 -0.8187  1.1577
  595SOL     OW 1783   1.506   0.099   0.979  0.3053  0.4805  0.3551
  595SOL    HW1 1784   1.577   0.036   0.930 -2.2417 -0.4753 -1.6559
  595SOL    HW2 1785   1.410   0.090   0.936  0.0270 -0.3482 -2.4996
  596SOL     OW 1786   0.086   1.471   2.255  0.5399 -0.0727 -0.3433
  596SOL    HW1 1787  -0.004   1.454   2.299  0.3568  1.4453 -0.3645
  596SOL    HW2 1788   0.140   1.547   2.303  0.5852 -0.3773 -3.8280
  597SOL     OW 1789   1.997   2.669   1.814  0.5707 -0.1885  0.5347
  597SOL    HW1 1790   1.962   2.683   1.718 -0.9777 -1.3191 -3.0240
  597SOL    HW2 1791   2.104   2.661   1.814  2.8928 -0.1986 -0.0940
  598SOL     OW 1792   2.527   2.865   1.235  0.2824  0.0108  0.2963
  598SOL    HW1 1793   2.612   2.899   1.288 -0.1086 -2.8552  0.7383
  598SOL    HW2 1794   2.549   2.787   1.170 -4.1022 -1.3375  3.3658
  599SOL     OW 1795   2.818   0.253   2.518  0.5961 -0.5711  0.4504
  599SOL    HW1 1796   2.874   0.234   2.435  1.2616  0.1749  0.1523
  599SOL    HW2 1797   2.747   0.320   2.487  0.8006  1.2248  1.2127
  600SOL     OW 1798   2.795   1.166   2.751 -0.4779 -0.5951  0.5745
  600SOL    HW1 1799   2.730   1.119   2.815  1.1834  0.1631 -0.2432
  600SOL    HW2 1800   2.838   1.257   2.784 -1.6292  2.8757 -0.6668
  601SOL     OW 1801   2.967   1.327   2.011 -0.6507  0.5549 -0.4270
  601SOL    HW1 1802   2.897   1.374   1.942 -1.8447  2.5311  0.3551
  601SOL    HW2 1803   3.059   1.369   1.995 -0.2188  1.7684 -1.1027
  602SOL     OW 1804   1.509   1.559   2.274  0.4620 -0.1008  0.1093
  602SOL    HW1 1805   1.421   1.535   2.321  2.5933 -1.5414 -2.1560
  602SOL    HW2 1806   1.589   1.587   2.334  1.6668 -0.0828 -0.8483
  603SOL     OW 1807   0.645   1.191   2.706 -0.3198  0.2855  0.0603
  603SOL    HW1 1808   0.551   1.194   2.661  0.2825  0.9257  1.5338
  603SOL    HW2 1809   0.700   1.104   2.693 -2.1998 -0.7792  1.6282
  604SOL     OW 1810   2.492   1.003   0.215  0.2939  0.6197  0.0581
  604SOL    HW1 1811   2.578   1.061   0.220  2.0887 -0.2184  1.1453
  604SOL    HW2 1812   2.488   0.935   0.137 -0.7245  1.8823  0.3523
  605SOL     OW 1813   2.533   1.117   1.976  0.1762  0.1993 -0.3269
  605SOL    HW1 1814   2.574   1.093   1.882  0.3822 -0.8481  0.2058
  605SOL    HW2 1815   2.591   1.185   2.037 -1.3436  0.4234  1.3337
  606SOL     OW 1816   1.505   2.501   2.567 -0.3074 -0.3572 -0.0163
  606SOL    HW1 1817   1.469   2.590   2.529 -0.5943 -0.3124 -1.5223
  606SOL    HW2 1818   1.447   2.416   2.546 -0.1261  0.6036 -1.1276
  607SOL     OW 1819   1.293   1.583   0.223 -0.5291 -0.2065 -0.1385
  607SOL    HW1 1820   1.193   1.603   0.246 -1.1847  0.2103 -1.1190
  607SOL    HW2 1821   1.358   1.648   0.265  0.2901 -1.3796 -0.7752
  608SOL     OW 1822   1.405   2.858   0.387 -0.3992 -0.4781 -0.2883
  608SOL    HW1 1823   1.447   2.871   0.293 -1.0957 -0.3720  0.5900
  608SOL    HW2 1824   1.367   2.952   0.421 -1.6406  0.5148 -0.3437
  609SOL     OW 1825   1.346   1.337   0.159 -0.0246 -0.1379  0.2819
  609SOL    HW1 1826   1.312   1.430   0.184 -1.2643  1.1453 -0.9709
  609SOL    HW2 1827   1.300   1.295   0.078  2.7049 -0.1617  3.2398
  610SOL     OW 1828   3.017   1.221   2.263 -0.4481  0.0481  0.2452
  610SOL    HW1 1829   2.986   1.123   2.252  1.0841 -0.3965  1.1371
  610SOL    HW2 1830   2.999   1.271   2.174  1.2814 -0.6252 -2.9056
  611SOL     OW 1831   2.528   0.257   1.139  0.4607 -0.0084 -0.5201
  611SOL    HW1 1832   2.463   0.176   1.158  4.9572 -0.0993 -0.6350
  611SOL    HW2 1833   2.600   0.270   1.217  1.5048 -0.6907 -2.9753
  612SOL     OW 1834   0.801   2.327   1.189 -0.0152  0.1655  0.9119
  612SOL    HW1 1835   0.715   2.275   1.206  2.7363  0.5113  2.1505
  612SOL    HW2 1836   0.784   2.430   1.197 -1.1567  1.8742 -0.7225
  613SOL     OW 1837   0.801   1.395   2.355 -0.1889 -0.0027 -0.2602
  613SOL    HW1 1838   0.830   1.456   2.279 -4.1044 -0.7753 -0.9355
  613SOL    HW2 1839   0.779   1.298   2.336  0.0851  1.2825  0.5487
  614SOL     OW 1840   1.556   1.674   1.834 -0.4460 -0.0872  0.2528
  614SOL    HW1 1841   1.523   1.765   1.810  2.4493 -1.9842  0.6065
  614SOL    HW2 1842   1.646   1.672   1.883 -1.0470 -1.2986 -1.4358
  615SOL     OW 1843   0.727   1.406   1.720 -0.0549  0.3569 -0.4073
  615SOL    HW1 1844   0.657   1.368   1.651 -1.3964 -0.9777 -3.2177
  615SOL    HW2 1845   0.808   1.448   1.673 -2.1705 -1.4890  2.5976
  616SOL     OW 1846   1.125   1.563   2.192  0.6310  0.1420  0.9611
  616SOL    HW1 1847   1.020   1.546   2.191  0.9572 -1.5337  0.7128
  616SOL    HW2 1848   1.160   1.584   2.098 -1.1440  2.1901  1.2701
  617SOL     OW 1849   3.038   1.542   1.640  0.1260 -0.2305 -0.3015
  617SOL    HW1 1850   2.997   1.483   1.716  1.8735 -1.5302  0.3085
  617SOL    HW2 1851   3.047   1.484   1.550 -2.1495 -0.4329 -1.0954
  618SOL     OW 1852   1.960   1.972   1.462 -0.5895  0.1780  0.4418
  618SOL    HW1 1853   2.049   1.975   1.402  1.4533  1.2064  0.3293
  618SOL    HW2 1854   1.953   1.883   1.517  0.5527  0.7997  0.1986
  619SOL     OW 1855   1.719   0.517   2.338  0.1549 -0.3010 -0.2936
  619SOL    HW1 1856   1.642   0.585   2.314  0.9862  2.8860  1.5303
  619SOL    HW2 1857   1.694   0.421   2.329 -0.5154  0.5039  2.9617
  620SOL     OW 1858   2.254   2.931   0.638 -0.1975 -0.2794  0.1765
  620SOL    HW1 1859   2.156   2.964   0.639 -2.0701 -1.1356 -0.0890
  620SOL    HW2 1860   2.285   2.883   0.727 -0.4058  1.8818 -0.3144
  621SOL     OW 1861   2.203   1.897   1.354 -0.6018  0.0309 -0.0197
  621SOL    HW1 1862   2.205   1.872   1.457 -0.6735 -0.6462 -1.6858
  621SOL    HW2 1863   2.172   1.812   1.296 -0.5230 -0.6146 -0.3977
  622SOL     OW 1864   2.211   0.945   1.835 -0.2386  0.9325  0.1480
  622SOL    HW1 1865   2.280   0.871   1.859 -1.3092  1.0479  1.1961
  622SOL    HW2 1866   2.144   0.952   1.914 -2.1597 -1.4725  0.8109
  623SOL     OW 1867   1.293   0.831   2.577 -0.4483  0.6133  0.1215
  623SOL    HW1 1868   1.246   0.775   2.657 -1.7135 -1.4864 -1.0365
  623SOL    HW2 1869   1.231   0.852   2.491  1.3554  0.3650 -1.6169
  624SOL     OW 1870   0.524   0.710   0.034 -0.4859  0.1051  0.7213
  624SOL    HW1 1871   0.546   0.751  -0.060  4.0212 -0.7575 -1.8076
  624SOL    HW2 1872   0.497   0.792   0.086 -0.8294  4.2915 -1.4241
  625SOL     OW 1873   2.735   1.699   0.865  0.4984  0.3022 -0.6313
  625SOL    HW1 1874   2.675   1.727   0.948 -1.9333  0.5941 -1.1911
  625SOL    HW2 1875   2.763   1.600   0.873  0.1004  0.5146 -0.6476
  626SOL     OW 1876   0.493   2.733   1.993 -0.0187  0.4676  1.0132
  626SOL    HW1 1877   0.536   2.824   1.980 -1.5106 -0.2204  0.7212
  626SOL    HW2 1878   0.402   2.732   1.946  0.0036 -1.4218  1.8404
  627SOL     OW 1879   0.751   1.073   1.513  0.0372 -0.4276 -0.1262
  627SOL    HW1 1880   0.753   0.979   1.475 -0.8848  3.0936  1.5362
  627SOL    HW2 1881   0.805   1.137   1.447  3.0680 -0.1094  1.0331
  628SOL     OW 1882   2.427   0.178   0.729 -0.1564  0.1105  0.4334
  628SOL    HW1 1883   2.442   0.107   0.652  0.3264  0.0559 -1.1149
  628SOL    HW2 1884   2.333   0.199   0.757  3.3240 -0.9993  0.0650
  629SOL     OW 1885   1.988   0.948   1.996  0.5565  0.0378  0.5803
  629SOL    HW1 1886   2.051   0.960   2.078 -0.3668 -0.7148  0.8624
  629SOL    HW2 1887   1.947   1.045   1.974 -0.2166  0.2302 -1.7012
  630SOL     OW 1888   2.817   2.200   0.758  0.1386 -0.0312 -0.3097
  630SOL    HW1 1889   2.730   2.237   0.804 -0.0362  4.6796 -1.3192
  630SOL    HW2 1890   2.804   2.113   0.714  0.5469  3.4883 -0.9573
  631SOL     OW 1891   3.029   0.239   2.128  0.0265  0.1353  0.2910
  631SOL    HW1 1892   3.097   0.242   2.210  1.4141  0.8049  0.8979
  631SOL    HW2 1893   3.078   0.215   2.040 -1.4279 -0.4182 -2.6014
  632SOL     OW 1894   2.324   2.567   0.756 -0.5696 -0.0145 -0.2475
  632SOL    HW1 1895   2.421   2.598   0.764 -2.7020 -3.1620  1.8312
  632SOL    HW2 1896   2.291   2.593   0.659 -0.5966 -0.2232 -0.0978
  633SOL     OW 1897   1.593   1.291   2.634  0.2209 -0.4278  0.8393
  633SOL    HW1 1898   1.589   1.384   2.684 -1.3491 -0.8760  1.5199
  633SOL    HW2 1899   1.498   1.265   2.598  0.1369  0.4045 -0.6533
  634SOL     OW 1900   0.620   2.071   0.989 -0.2853 -0.2039 -0.2518
  634SOL    HW1 1901   0.528   2.092   1.028 -1.5723 -0.8150  0.2960
  634SOL    HW2 1902   0.673   2.163   0.976  0.7074  2.3682  2.5637
  635SOL     OW 1903   0.066   2.243   3.081  0.2384 -0.0292 -0.2542
  635SOL    HW1 1904   0.029   2.254   2.984  0.3983 -0.6216 -2.3810
  635SOL    HW2 1905   0.064   2.337   3.133  0.5615  2.7728 -3.7374
  636SOL     OW 1906   2.315   2.846   2.029 -0.1103  0.2401  0.7966
  636SOL    HW1 1907   2.294   2.951   2.026  2.1412  3.3966 -2.5245
  636SOL    HW2 1908   2.255   2.791   2.099  0.4848  1.8280 -0.0202
  637SOL     OW 1909   2.587   0.737   2.054  0.7431 -0.2753  0.1737
  637SOL    HW1 1910   2.558   0.724   1.955  0.6367 -1.4792  0.1584
  637SOL    HW2 1911   2.643   0.822   2.078  1.4249 -0.4462  0.6977
  638SOL     OW 1912   2.500   1.881   1.371  0.0002  0.1964  0.4376
  638SOL    HW1 1913   2.397   1.884   1.365  1.7091  0.9715  1.2830
  638SOL    HW2 1914   2.529   1.785   1.416 -4.2140  1.3044  0.0302
  639SOL     OW 1915   1.296   2.245   1.582  0.0497 -0.3694 -0.3930
  639SOL    HW1 1916   1.282   2.181   1.501 -2.1633  0.3383 -3.3092
  639SOL    HW2 1917   1.228   2.233   1.658  0.8842  1.5034 -0.6108
  640SOL     OW 1918   0.211   1.246   1.520  0.1663  0.2849 -0.3838
  640SOL    HW1 1919   0.208   1.313   1.603 -1.1916 -1.2527  2.4336
  640SOL    HW2 1920   0.287   1.172   1.542 -2.6854 -0.9295  0.2293
  641SOL     OW 1921   1.952   0.208   1.450 -0.4495  0.3514  0.0096
  641SOL    HW1 1922   1.878   0.269   1.476 -0.1279 -1.0679 -0.3664
  641SOL    HW2 1923   1.960   0.123   1.513  0.9730 -1.1667  2.0448
  642SOL     OW 1924   1.994   0.091   0.307 -0.1620 -0.0960 -0.5097
  642SOL    HW1 1925   2.088   0.087   0.347  0.1846  1.6883  0.6126
  642SOL    HW2 1926   1.923   0.075   0.381  1.2026 -0.1901 -0.3505
  643SOL     OW 1927   2.841   1.843   2.113 -0.0362 -0.5422 -0.1755
  643SOL    HW1 1928   2.784   1.770   2.064 -0.8390 -0.9962  0.2948
  643SOL    HW2 1929   2.869   1.925   2.055 -0.8282  0.1071  2.6423
  644SOL     OW 1930   2.168   2.280   1.232 -0.3822 -0.3078  0.2761
  644SOL    HW1 1931   2.268   2.262   1.235 -0.8578  1.8079 -1.5999
  644SOL    HW2 1932   2.135   2.307   1.322  0.4549 -1.6975 -1.2652
  645SOL     OW 1933   0.613   0.875   1.170  0.9060  0.8496 -0.0248
  645SOL    HW1 1934   0.564   0.797   1.123 -1.5357  3.7052 -0.8203
  645SOL    HW2 1935   0.597   0.966   1.126 -0.9081 -0.8340 -1.8983
  646SOL     OW 1936   1.471   1.963   1.772 -0.5608 -0.1374 -0.1750
  646SOL    HW1 1937   1.524   2.048   1.775 -0.9180  0.9192 -2.2923
  646SOL    HW2 1938   1.400   1.958   1.846  0.8238  0.0140  0.2188
  647SOL     OW 1939   0.865   0.905   0.662 -0.3955 -0.7559  0.1190
  647SOL    HW1 1940   0.960   0.880   0.689 -1.0774  2.7230 -1.3233
  647SOL    HW2 1941   0.789   0.862   0.717 -2.0616  1.4087  1.7082
  648SOL     OW 1942   0.210   0.219   0.323 -0.0219 -0.0808  0.5435
  648SOL    HW1 1943   0.229   0.134   0.271  1.0576  0.4555 -1.8724
  648SOL    HW2 1944   0.184   0.304   0.266  0.2044  2.3309 -1.8193
  649SOL     OW 1945   3.092   0.066   0.927  0.1869 -1.1493 -0.4120
  649SOL    HW1 1946   3.189   0.083   0.908 -2.1998  2.2062  1.9255
  649SOL    HW2 1947   3.065   0.098   1.021  0.8535 -1.0033  0.4453
  650SOL     OW 1948   2.723   0.716   1.428  0.0895 -0.2040  0.0482
  650SOL    HW1 1949   2.623   0.690   1.465 -3.3752  2.2257  1.2885
  650SOL    HW2 1950   2.715   0.805   1.369 -0.1340  0.4629 -2.4081
  651SOL     OW 1951   0.916   1.592   1.591  0.0694  0.3330 -0.4066
  651SOL    HW1 1952   0.985   1.668   1.603 -3.1352 -0.1920 -2.0200
  651SOL    HW2 1953   0.851   1.605   1.517 -0.5238  0.3133  0.9282
  652SOL     OW 1954   2.300   2.529   2.374  0.5586  0.0026  0.2871
  652SOL    HW1 1955   2.248   2.492   2.457  0.0562 -1.6152  2.2171
  652SOL    HW2 1956   2.248   2.599   2.322  3.3100 -1.8081  1.5489
  653SOL     OW 1957   2.707   1.176   0.283  0.0955 -0.3598  0.3362
  653SOL    HW1 1958   2.778   1.255   0.293 -0.2109  0.9755 -0.4264
  653SOL    HW2 1959   2.751   1.089   0.318  3.5833 -1.2084 -2.2762
  654SOL     OW 1960   1.207   2.262   1.216 -0.3097 -0.5619 -0.0273
  654SOL    HW1 1961   1.277   2.200   1.258  0.8490  0.4072 -0.0178
  654SOL    HW2 1962   1.238   2.289   1.118 -0.1966 -0.9751 -3.5407
  655SOL     OW 1963   0.240   1.066   1.838 -0.3681 -0.5858 -0.2841
  655SOL    HW1 1964   0.299   0.976   1.827 -1.4301 -1.8652  0.1444
  655SOL    HW2 1965   0.301   1.142   1.875  1.9512  1.3413  0.8935
  656SOL     OW 1966   2.500   2.467   2.567  0.0651  0.0075 -0.1793
  656SOL    HW1 1967   2.592   2.456   2.523 -0.9236 -1.7633 -1.2535
  656SOL    HW2 1968   2.430   2.511   2.506  1.8468 -1.4054  2.3602
  657SOL     OW 1969   3.059   1.105   1.843  0.2313  0.1885 -0.2010
  657SOL    HW1 1970   3.037   1.179   1.909  1.3465 -0.6913 -0.3720
  657SOL    HW2 1971   3.163   1.088   1.838 -0.1799 -2.1011  0.8727
  658SOL     OW 1972   1.669   0.223   2.373  0.9059  0.2083  0.3472
  658SOL    HW1 1973   1.694   0.144   2.436 -2.4470  2.8248 -0.1046
  658SOL    HW2 1974   1.729   0.227   2.292  0.5727  1.3367 -0.9805
  659SOL     OW 1975   1.407   0.571   2.870  0.4740  0.3397  0.1139
  659SOL    HW1 1976   1.480   0.642   2.888  0.1096  0.2005 -1.9731
  659SOL    HW2 1977   1.332   0.612   2.815  0.5093 -0.2306  1.8159
  660SOL     OW 1978   1.420   0.394   1.378  0.0183 -0.1706  0.2622
  660SOL    HW1 1979   1.454   0.406   1.471  0.3299  0.8526 -1.9480
  660SOL    HW2 1980   1.492   0.349   1.316  1.2378 -0.7972  1.3434
  661SOL     OW 1981   2.461   1.165   0.678 -0.4941  0.1533  0.0530
  661SOL    HW1 1982   2.501   1.092   0.614  0.5245  0.1732  1.7996
  661SOL    HW2 1983   2.411   1.242   0.633 -1.9082 -1.0494  0.6260
  662SOL     OW 1984   1.290   0.439   1.818 -0.3650  0.2998  0.1837
  662SOL    HW1 1985   1.278   0.335   1.792 -0.2649 -1.0901 -1.3315
  662SOL    HW2 1986   1.218   0.473   1.888 -0.4671  2.6985  0.1719
  663SOL     OW 1987   0.833   1.592   2.178 -0.1489  0.1465  0.0716
  663SOL    HW1 1988   0.840   1.699   2.175  0.8123 -0.1168 -0.4227
  663SOL    HW2 1989   0.760   1.549   2.116  0.1986 -0.1301  0.0783
  664SOL     OW 1990   1.667   2.036   1.393 -0.4436  0.2982  0.1058
  664SOL    HW1 1991   1.618   1.968   1.454  1.0963  0.0326 -0.4857
  664SOL    HW2 1992   1.771   2.032   1.397  0.5731  1.8867 -0.0437
  665SOL     OW 1993   2.290   0.634   1.985  0.3193  0.0521 -0.0308
  665SOL    HW1 1994   2.296   0.540   2.030  2.0465 -0.4353  0.3424
  665SOL    HW2 1995   2.206   0.692   1.998 -0.1998 -0.4377  0.2091
  666SOL     OW 1996   0.506   2.297   0.459  0.3149 -0.2297  0.5813
  666SOL    HW1 1997   0.564   2.378   0.470 -0.9725 -1.1286 -0.4307
  666SOL    HW2 1998   0.447   2.272   0.543  0.1962  2.0886 -0.5916
  667SOL     OW 1999   2.080   0.280   0.985 -0.2786 -0.1213  0.0493
  667SOL    HW1 2000   2.161   0.345   0.996  1.5773  0.1480 -1.4358
  667SOL    HW2 2001   2.015   0.273   1.068 -0.4697  0.8607 -1.0346
  668SOL     OW 2002   1.985   0.485   1.204 -0.5086  0.2863 -0.0282
  668SOL    HW1 2003   2.050   0.507   1.125  1.4972  2.3521 -1.5069
  668SOL    HW2 2004   2.036   0.437   1.281  0.3283 -1.0756 -3.0781
  669SOL     OW 2005   3.006   2.070   0.926 -0.4574  0.0307  0.4435
  669SOL    HW1 2006   2.952   2.108   0.853  0.5191 -0.3639  3.5231
  669SOL    HW2 2007   2.966   2.098   1.012  2.3400 -0.8988 -0.5594
  670SOL     OW 2008   2.802   2.360   2.007 -0.5763 -0.3264  0.2276
  670SOL    HW1 2009   2.746   2.334   2.094  0.9383  0.8873  2.5129
  670SOL    HW2 2010   2.784   2.454   1.972  1.4150 -1.5685 -1.3455
  671SOL     OW 2011   1.723   1.639   1.450 -0.7041  0.2668  0.3284
  671SOL    HW1 2012   1.699   1.723   1.392 -0.1502  4.6760 -0.9240
  671SOL    HW2 2013   1.684   1.551   1.412  0.9425 -0.6608  0.6336
  672SOL     OW 2014   0.417   0.689   2.427  0.4304 -0.0152 -0.0963
  672SOL    HW1 2015   0.456   0.680   2.327  1.0669 -0.3441 -0.4010
  672SOL    HW2 2016   0.329   0.741   2.430 -1.8914 -0.6100  0.5933
  673SOL     OW 2017   0.161   1.208   1.122 -0.1629  0.3683  0.0899
  673SOL    HW1 2018   0.190   1.285   1.189 -2.2770 -3.1453  2.2570
  673SOL    HW2 2019   0.243   1.143   1.100 -2.4414 -0.7353  0.1060
  674SOL     OW 2020   1.535   2.844   0.131  0.3811  0.2117 -0.0940
  674SOL    HW1 2021   1.599   2.915   0.089 -1.2225 -2.2334  0.6102
  674SOL    HW2 2022   1.570   2.748   0.143 -0.9775 -1.1566 -0.8712
  675SOL     OW 2023   1.722   0.820   2.337  0.2729  1.0381 -0.1608
  675SOL    HW1 2024   1.823   0.796   2.332  3.6161  0.1506  1.2843
  675SOL    HW2 2025   1.659   0.775   2.266  0.3752 -1.1104 -1.4397
  676SOL     OW 2026   2.497   1.506   2.017  0.7362 -0.0510  0.7895
  676SOL    HW1 2027   2.466   1.467   1.927  0.2860 -0.5258  1.6757
  676SOL    HW2 2028   2.560   1.445   2.066 -3.0848  0.0769 -0.7771
  677SOL     OW 2029   1.813   0.525   0.945  0.7111 -0.0454 -0.2233
  677SOL    HW1 2030   1.863   0.522   1.034  1.4801  4.2639 -0.8984
  677SOL    HW2 2031   1.714   0.502   0.951 -0.9664  0.4721  1.4608
  678SOL     OW 2032   0.104   0.801   1.683  0.4115  0.4986 -0.1270
  678SOL    HW1 2033   0.175   0.845   1.746  0.4228 -1.5194 -0.7391
  678SOL    HW2 2034   0.008   0.803   1.716  1.1159 -0.4051 -1.0211
  679SOL     OW 2035   2.552   1.171   1.128  0.0058 -0.6602  0.4772
  679SOL    HW1 2036   2.456   1.184   1.160  1.5140 -0.1650  0.2566
  679SOL    HW2 2037   2.561   1.089   1.072 -0.1441  0.1426  2.4520
  680SOL     OW 2038   2.843   0.649   1.674  0.1025  0.1359  0.2939
  680SOL    HW1 2039   2.810   0.686   1.585  0.3372 -0.0434 -1.0099
  680SOL    HW2 2040   2.873   0.723   1.740 -1.7865  0.2050  0.8160
  681SOL     OW 2041   3.036   0.161   1.651  0.5100 -0.6842  0.0320
  681SOL    HW1 2042   3.116   0.141   1.589  0.7766  1.3673 -0.3947
  681SOL    HW2 2043   2.997   0.258   1.630  0.6161 -0.2461  0.5018
  682SOL     OW 2044   0.720   0.064   1.379 -0.4032 -0.4784 -0.2557
  682SOL    HW1 2045   0.654  -0.007   1.410 -1.5351 -1.8944  1.2230
  682SOL    HW2 2046   0.758   0.054   1.282 -3.1223 -0.6964 -1.6128
  683SOL     OW 2047   1.379   0.236   2.181  0.0924  0.3124  0.1404
  683SOL    HW1 2048   1.381   0.286   2.273 -0.4542  0.4536 -2.1932
  683SOL    HW2 2049   1.464   0.266   2.132 -1.8566  0.8475 -1.5643
  684SOL     OW 2050   1.422   2.121   0.489 -0.0619 -0.2552 -0.0227
  684SOL    HW1 2051   1.492   2.045   0.502 -1.2706 -1.5930 -1.5027
  684SOL    HW2 2052   1.327   2.082   0.463 -0.4618 -0.1310 -0.6988
  685SOL     OW 2053   2.129   1.888   1.958 -0.3397  0.3724  0.2325
  685SOL    HW1 2054   2.172   1.960   1.893 -0.9880  3.8391 -0.4869
  685SOL    HW2 2055   2.207   1.830   1.998 -0.1887  0.8262  0.6085
  686SOL     OW 2056   1.561   1.785   2.771 -0.4632 -0.3638  0.3477
  686SOL    HW1 2057   1.611   1.710   2.719 -0.6984 -0.5564 -0.3183
  686SOL    HW2 2058   1.584   1.781   2.874  0.0640  1.4691  4.0401
  687SOL     OW 2059   1.336   2.518   1.920  0.0542 -0.4671 -0.2108
  687SOL    HW1 2060   1.372   2.444   1.854 -0.4877 -0.6366 -1.8647
  687SOL    HW2 2061   1.394   2.532   2.011  1.4337  0.1881  0.3485
  688SOL     OW 2062   2.085   1.433   1.624 -0.1190  0.9964 -0.3473
  688SOL    HW1 2063   2.180   1.457   1.593 -0.2656  3.3134  0.3770
  688SOL    HW2 2064   2.031   1.386   1.549  0.5692  2.4798  0.0640
  689SOL     OW 2065   2.455   1.103   2.763 -0.4762 -0.0563 -0.2810
  689SOL    HW1 2066   2.360   1.071   2.792  0.3609 -0.8718  0.0024
  689SOL    HW2 2067   2.534   1.086   2.833  1.9929 -0.2305  1.6829
  690SOL     OW 2068   2.199   2.775   3.092  0.2700 -0.3679  0.1624
  690SOL    HW1 2069   2.124   2.745   3.026 -0.0427  0.7343 -0.9017
  690SOL    HW2 2070   2.165   2.822   3.175 -5.8567 -3.3923 -0.3856
  691SOL     OW 2071   2.555   0.493   2.176  0.4951 -0.0257  0.2000
  691SOL    HW1 2072   2.609   0.432   2.111 -0.0494 -0.9039 -1.4106
  691SOL    HW2 2073   2.563   0.590   2.142 -4.5412 -0.3676 -2.6263
  692SOL     OW 2074   2.739   1.224   0.682  0.0459  0.2822 -0.1911
  692SOL    HW1 2075   2.639   1.233   0.677  1.6333  0.0481  1.5136
  692SOL    HW2 2076   2.790   1.301   0.734 -0.4600  0.5844  2.0438
  693SOL     OW 2077   2.866   2.964   0.579 -0.1455  0.0457  0.0342
  693SOL    HW1 2078   2.862   3.064   0.594 -1.3589  0.6681 -2.4582
  693SOL    HW2 2079   2.810   2.928   0.504  1.2362 -0.6117 -0.8286
  694SOL     OW 2080   2.380   2.142   0.063 -0.1356 -0.6460  0.0033
  694SOL    HW1 2081   2.370   2.236   0.107 -1.3266 -1.2988 -1.0596
  694SOL    HW2 2082   2.295   2.097   0.055  1.7800  1.1102  3.1919
  695SOL     OW 2083   0.544   2.974   1.487  0.4057 -0.5589  0.0617
  695SOL    HW1 2084   0.492   2.891   1.452 -1.1885  0.8990 -1.5159
  695SOL    HW2 2085   0.507   3.016   1.573 -1.0222 -1.3764  0.7247
  696SOL     OW 2086   2.707   1.944   0.700 -0.2779  0.3502 -0.5131
  696SOL    HW1 2087   2.710   1.847   0.743  1.4932  1.5659 -0.1143
  696SOL    HW2 2088   2.679   1.948   0.603 -1.9965 -0.3964  3.3707
  697SOL     OW 2089   1.713   2.134   1.759 -0.3762  0.2291  0.1698
  697SOL    HW1 2090   1.759   2.046   1.791  1.6152 -2.8336  0.3179
  697SOL    HW2 2091   1.776   2.220   1.750 -0.4339  1.2408 -3.2838
  698SOL     OW 2092   2.930   0.349   2.746 -0.4444 -0.0404  0.3552
  698SOL    HW1 2093   2.900   0.306   2.657  2.3620 -2.6101 -0.7742
  698SOL    HW2 2094   2.999   0.283   2.801 -0.2284 -2.1022  1.6036
  699SOL     OW 2095   1.573   0.086   2.929 -0.1675  0.4387  0.2751
  699SOL    HW1 2096   1.504   0.016   2.897  0.2262 -3.4515  1.9119
  699SOL    HW2 2097   1.626   0.134   2.855  2.0606  0.8264  0.7973
  700SOL     OW 2098   1.017   2.376   1.384 -0.8913 -0.1831  0.3260
  700SOL    HW1 2099   1.100   2.339   1.331 -0.8685 -0.0501  3.4088
  700SOL    HW2 2100   0.930   2.354   1.327 -3.0851 -0.5676 -1.3715
  701SOL     OW 2101   1.840   2.802   0.037  0.4070 -0.6106  0.7152
  701SOL    HW1 2102   1.871   2.749   0.118 -2.2436  2.9293  4.2059
  701SOL    HW2 2103   1.886   2.896   0.045 -2.8886  0.1152 -1.5519
  702SOL     OW 2104   2.071   1.402   1.910 -0.0828 -0.0746 -0.1404
  702SOL    HW1 2105   2.160   1.356   1.929 -2.7688  0.2972 -0.7620
  702SOL    HW2 2106   2.056   1.430   1.809  2.3990  0.6226 -2.0850
  703SOL     OW 2107   1.969   0.840   1.466  0.0815  0.1087  0.4688
  703SOL    HW1 2108   1.955   0.747   1.505  1.5493  1.6814  2.1799
  703SOL    HW2 2109   2.037   0.894   1.523 -0.8546 -1.0691 -0.2024
  704SOL     OW 2110   0.341   2.026   1.739  0.5194 -0.1176  0.5556
  704SOL    HW1 2111   0.364   1.968   1.816 -1.6041  2.3024  0.7898
  704SOL    HW2 2112   0.407   2.102   1.711 -1.1651 -1.5490  1.5984
  705SOL     OW 2113   2.551   1.403   0.869  0.2662 -0.0428 -0.0461
  705SOL    HW1 2114   2.450   1.428   0.875 -1.2511  0.5768  1.5544
  705SOL    HW2 2115   2.580   1.339   0.939  0.3457 -1.6069  0.1597
  706SOL     OW 2116   0.664   1.755   1.876 -0.5841 -0.0462  0.1911
  706SOL    HW1 2117   0.676   1.654   1.903 -2.6390 -2.2701  1.0328
  706SOL    HW2 2118   0.723   1.816   1.926  1.1330 -1.6811 -0.7210
  707SOL     OW 2119   2.282   1.219   1.911  0.4045  0.2507  0.9277
  707SOL    HW1 2120   2.361   1.196   1.973  1.2934  0.5496  1.6077
  707SOL    HW2 2121   2.243   1.131   1.865  1.8578 -1.3921  0.1773
  708SOL     OW 2122   3.075   0.467   3.032 -0.2915 -0.0699 -0.1915
  708SOL    HW1 2123   3.157   0.487   2.978  2.2922 -0.2056  4.2707
  708SOL    HW2 2124   3.023   0.394   2.981 -0.5389 -0.3071 -0.4451
  709SOL     OW 2125   1.813   1.861   0.297 -0.3716  0.2235 -0.1150
  709SOL    HW1 2126   1.863   1.935   0.344 -1.6051 -0.4670  2.3528
  709SOL    HW2 2127   1.813   1.867   0.191 -1.4194  2.7581  0.9498
  710SOL     OW 2128   1.747   1.632   2.461  0.2810 -0.2066 -0.4816
  710SOL    HW1 2129   1.798   1.617   2.372  2.0062 -1.0329 -0.0007
  710SOL    HW2 2130   1.800   1.597   2.546 -0.3737 -3.0498  3.5345
  711SOL     OW 2131   2.611   2.934   0.970 -0.8424 -0.2217 -0.1679
  711SOL    HW1 2132   2.592   3.031   1.004  2.0228  4.1374  1.1852
  711SOL    HW2 2133   2.707   2.901   1.004  1.1745 -2.4116 -1.5560
  712SOL     OW 2134   1.494   2.307   1.798 -0.6711 -0.2535  0.0219
  712SOL    HW1 2135   1.590   2.265   1.814 -0.6882  0.4155  2.0328
  712SOL    HW2 2136   1.442   2.255   1.728 -1.0002 -0.1651  2.3361
  713SOL     OW 2137   2.834   1.407   2.497  0.5537 -0.3417  0.3461
  713SOL    HW1 2138   2.812   1.310   2.491 -1.2455  1.2806 -0.7978
  713SOL    HW2 2139   2.750   1.457   2.534  2.7373  2.3201  1.2469
  714SOL     OW 2140   2.638   0.477   2.469  0.2938  0.4720 -0.2534
  714SOL    HW1 2141   2.556   0.462   2.533  0.6473  0.1652  2.2034
  714SOL    HW2 2142   2.612   0.501   2.371 -0.4827  0.2929 -1.3893
  715SOL     OW 2143   1.581   2.089   1.140  0.1679 -0.3328  0.0815
  715SOL    HW1 2144   1.559   2.191   1.130  0.1697  0.8634  1.0002
  715SOL    HW2 2145   1.619   2.059   1.231  2.3080  1.1712 -0.8993
  716SOL     OW 2146   1.230   0.197   1.473 -0.2739  0.3636 -0.3532
  716SOL    HW1 2147   1.127   0.201   1.480 -0.1164 -0.7679  2.2519
  716SOL    HW2 2148   1.273   0.282   1.427 -2.3982  0.1162 -2.7746
  717SOL     OW 2149   1.094   0.625   1.606  0.4265  0.3413 -0.3980
  717SOL    HW1 2150   1.192   0.630   1.643 -1.6010  3.0781 -1.0214
  717SOL    HW2 2151   1.095   0.593   1.505  2.7092 -0.9233  0.1403
  718SOL     OW 2152   0.614   1.072   0.974  0.0251 -0.2322 -0.0753
  718SOL    HW1 2153   0.593   1.060   0.870 -0.6472  0.8057  0.8368
  718SOL    HW2 2154   0.699   1.135   0.992 -0.0276 -0.9366  0.6218
  719SOL     OW 2155   0.799   1.860   2.238 -0.2494 -0.6260  0.5033
  719SOL    HW1 2156   0.868   1.887   2.311 -0.3719  0.5022  0.3859
  719SOL    HW2 2157   0.707   1.902   2.273  3.2049 -0.1468 -1.6597
  720SOL     OW 2158   2.219   1.106   0.238  0.3056  0.4000  0.3815
  720SOL    HW1 2159   2.313   1.076   0.213 -1.1227  1.3509 -2.5481
  720SOL    HW2 2160   2.203   1.092   0.339  2.4055 -2.6532  0.7050
  721SOL     OW 2161   2.235   0.047   2.084 -0.6621  0.7386  0.8439
  721SOL    HW1 2162   2.295   0.087   2.009 -0.0583 -1.4013 -1.6837
  721SOL    HW2 2163   2.137   0.078   2.073 -0.6149 -1.5439 -0.2441
  722SOL     OW 2164   2.358   1.646   0.507 -0.7051  0.0294  0.0755
  722SOL    HW1 2165   2.366   1.624   0.408 -0.1752 -3.1841  0.7457
  722SOL    HW2 2166   2.265   1.620   0.552 -1.9005  2.4335 -0.0885
  723SOL     OW 2167   2.580   2.841   1.916  0.9061 -0.0578 -0.7525
  723SOL    HW1 2168   2.645   2.852   1.994  0.0225 -1.0040 -3.0054
  723SOL    HW2 2169   2.481   2.839   1.951 -2.2069  0.5501  0.8916
  724SOL     OW 2170   0.426   2.425   2.413 -0.4829 -0.2635 -0.3932
  724SOL    HW1 2171   0.325   2.462   2.412 -0.2308  3.4390 -1.9712
  724SOL    HW2 2172   0.459   2.402   2.506  1.9239 -2.7151 -1.5758
  725SOL     OW 2173   2.325   2.761   1.420 -0.9303 -0.1650 -0.1080
  725SOL    HW1 2174   2.412   2.797   1.367 -2.0368 -0.0258  0.1740
  725SOL    HW2 2175   2.336   2.677   1.480  0.3513  2.2885  0.6205
  726SOL     OW 2176   2.388   2.266   0.726 -0.1873 -0.0804  0.8595
  726SOL    HW1 2177   2.302   2.317   0.748  2.5087  0.6628  2.3065
  726SOL    HW2 2178   2.380   2.211   0.636 -2.7708 -3.2636  0.0096
  727SOL     OW 2179   0.224   0.032   0.127  0.2907  0.5543  0.1449
  727SOL    HW1 2180   0.201  -0.059   0.082 -1.6406  0.2898 -1.6324
  727SOL    HW2 2181   0.242   0.111   0.063 -0.2600  1.1286 -0.0898
  728SOL     OW 2182   2.759   0.706   1.025  0.1037  0.5694  0.2899
  728SOL    HW1 2183   2.686   0.660   0.961 -1.7200 -1.6796  0.4771
  728SOL    HW2 2184   2.772   0.647   1.111  2.0848  4.8883  2.1560
  729SOL     OW 2185   2.910   2.459   0.709  0.3717  0.0145  0.3765
  729SOL    HW1 2186   2.889   2.357   0.734  0.2757  0.3272 -0.2604
  729SOL    HW2 2187   3.012   2.483   0.730  2.3399 -2.8707  0.1364
  730SOL     OW 2188   2.589   0.618   0.828  0.6097 -0.9507  0.9563
  730SOL    HW1 2189   2.556   0.712   0.791  1.1165 -0.0103 -2.8979
  730SOL    HW2 2190   2.654   0.573   0.762  2.7883 -1.8348 -0.8703
  731SOL     OW 2191   0.028   2.117   2.465  0.2885 -0.0809 -0.5727
  731SOL    HW1 2192   0.047   2.170   2.557  1.9268  1.5042  2.7775
  731SOL    HW2 2193   0.025   2.183   2.390 -3.3664 -1.2940 -1.9666
  732SOL     OW 2194   1.128   2.862   1.963  0.1087 -0.6106 -0.1663
  732SOL    HW1 2195   1.160   2.794   2.036  0.8791 -1.2872 -2.9135
  732SOL    HW2 2196   1.163   2.833   1.869  0.5169  0.2631 -0.7840
  733SOL     OW 2197   3.074   0.750   2.058 -0.1620 -0.4986  0.4537
  733SOL    HW1 2198   3.159   0.805   2.056 -1.7277 -0.5434 -0.0670
  733SOL    HW2 2199   3.092   0.653   2.020 -0.8377 -1.0121  1.8987
  734SOL     OW 2200   1.391   0.352   2.708 -0.2021 -0.0707 -0.3034
  734SOL    HW1 2201   1.435   0.423   2.774 -1.2092 -0.7754  0.7003
  734SOL    HW2 2202   1.328   0.285   2.752 -1.3984  0.2292 -1.2764
  735SOL     OW 2203   2.859   2.604   2.271 -0.3592  0.0914 -0.0744
  735SOL    HW1 2204   2.810   2.607   2.181 -0.0891 -0.5642  0.6395
  735SOL    HW2 2205   2.967   2.600   2.261  2.0243  0.6025 -0.2159
  736SOL     OW 2206   0.802   0.414   2.666  0.0273 -0.1990 -0.3611
  736SOL    HW1 2207   0.731   0.485   2.633 -0.9538  1.8228 -1.4219
  736SOL    HW2 2208   0.835   0.354   2.583  0.6001 -1.7302  1.0202
  737SOL     OW 2209   2.682   0.478   2.824  0.4046 -0.3296 -0.9023
  737SOL    HW1 2210   2.673   0.434   2.918 -0.8250  1.2018 -4.1186
  737SOL    HW2 2211   2.757   0.435   2.768 -0.7556  1.2935 -0.8747
  738SOL     OW 2212   1.641   1.221   3.016 -0.0584 -0.0191  0.4214
  738SOL    HW1 2213   1.736   1.184   2.982  1.7236  2.0109 -0.2008
  738SOL    HW2 2214   1.571   1.156   2.982  0.1669 -0.3608  0.4044
  739SOL     OW 2215   1.788   0.638   0.704 -0.4507 -0.3430  0.1596
  739SOL    HW1 2216   1.814   0.602   0.800  1.0479 -0.8661  1.4381
  739SOL    HW2 2217   1.825   0.572   0.633 -0.9447 -0.8814  0.3893
  740SOL     OW 2218   1.966   1.899   2.169 -0.4650  0.7696  0.3767
  740SOL    HW1 2219   2.051   1.915   2.106 -0.3757  1.2463 -0.4637
  740SOL    HW2 2220   1.889   1.863   2.113 -0.0613  1.6878 -1.4118
  741SOL     OW 2221   2.475   0.105   2.585 -0.0821  0.4433  0.0248
  741SOL    HW1 2222   2.575   0.080   2.610  1.7605  1.2314  0.0857
  741SOL    HW2 2223   2.446   0.068   2.495  1.4845  1.1367  0.0255
  742SOL     OW 2224   2.241   1.374   0.116 -0.0735 -0.2691  0.0278
  742SOL    HW1 2225   2.160   1.438   0.087 -0.7082  1.1362  0.6852
  742SOL    HW2 2226   2.224   1.310   0.196 -0.0673 -0.4161 -1.2721
  743SOL     OW 2227   1.743   0.585   2.622 -0.2165  0.0757 -0.3797
  743SOL    HW1 2228   1.750   0.552   2.523  2.0337 -1.4185 -0.2543
  743SOL    HW2 2229   1.671   0.663   2.636  1.9471  2.5065 -0.4883
  744SOL     OW 2230   2.637   2.102   0.045 -0.2595 -0.1980  0.4722
  744SOL    HW1 2231   2.536   2.115   0.038 -0.9398 -2.4229 -0.9995
  744SOL    HW2 2232   2.664   2.031   0.114 -1.6016  0.7639 -2.3060
  745SOL     OW 2233   2.168   2.708   2.210 -0.1139  0.0859 -0.3496
  745SOL    HW1 2234   2.071   2.680   2.185 -0.9539  0.8579  0.3833
  745SOL    HW2 2235   2.163   2.774   2.295 -0.2365 -0.2185  3.0780
  746SOL     OW 2236   3.082   2.588   1.813  0.2896  0.3397  0.0830
  746SOL    HW1 2237   3.176   2.609   1.843 -1.4729  1.7974  0.4085
  746SOL    HW2 2238   3.021   2.665   1.838 -0.1726 -1.1525  2.1415
  747SOL     OW 2239   3.062   1.819   1.696  0.0005 -0.2718  0.3216
  747SOL    HW1 2240   3.037   1.721   1.676  0.5111 -0.7130  1.3778
  747SOL    HW2 2241   3.133   1.852   1.626  0.7809  0.4792  0.6515
  748SOL     OW 2242   1.764   2.752   2.877 -0.5029  0.3682 -0.8373
  748SOL    HW1 2243   1.799   2.768   2.976 -4.5881  2.2979 -1.8767
  748SOL    HW2 2244   1.660   2.745   2.872  0.1466  3.3886 -0.6034
  749SOL     OW 2245   1.275   0.058   0.834 -0.2132  0.1481 -0.3261
  749SOL    HW1 2246   1.237  -0.030   0.871 -1.9963  0.4051  0.8487
  749SOL    HW2 2247   1.277   0.073   0.734 -0.2587  0.9743  0.9320
  750SOL     OW 2248   2.372   0.215   1.891  0.4675 -0.5267  0.7309
  750SOL    HW1 2249   2.377   0.261   1.796  0.7587  0.5531  1.4277
  750SOL    HW2 2250   2.373   0.285   1.969  1.7775  3.4485  3.1603
  751SOL     OW 2251   0.822   2.224   2.810  0.2978  0.3336  0.4819
  751SOL    HW1 2252   0.893   2.223   2.886  0.2455  0.6455 -0.5678
  751SOL    HW2 2253   0.761   2.143   2.821 -0.2163  1.3227  0.9814
  752SOL     OW 2254   1.242   0.905   1.581 -0.1182  0.0152 -0.3474
  752SOL    HW1 2255   1.312   0.955   1.521  1.2821  1.5127  1.6359
  752SOL    HW2 2256   1.278   0.818   1.630  0.2666 -0.5330  0.6671
  753SOL     OW 2257   0.942   2.623   1.775  0.0758  0.1572 -0.0036
  753SOL    HW1 2258   1.040   2.649   1.741  0.8801 -0.2957  1.1479
  753SOL    HW2 2259   0.862   2.680   1.745 -0.0944  1.8700 -1.0326
  754SOL     OW 2260   1.141   1.261   3.062 -0.5501 -0.4979  0.3898
  754SOL    HW1 2261   1.163   1.204   2.979 -1.0912  0.1959 -3.0742
  754SOL    HW2 2262   1.143   1.365   3.036 -3.1906 -0.7538 -0.6761
  755SOL     OW 2263   1.994   0.491   2.223  0.2745  0.4749  0.4291
  755SOL    HW1 2264   2.073   0.436   2.272  0.6237 -0.1684  1.1433
  755SOL    HW2 2265   1.907   0.504   2.275  0.3335  1.0706 -0.4881
  756SOL     OW 2266   2.635   1.011   2.935  0.5606 -0.4327 -0.0168
  756SOL    HW1 2267   2.736   0.996   2.952  0.7559 -1.5499 -0.8142
  756SOL    HW2 2268   2.579   0.932   2.987 -1.5022 -0.5119 -1.0315
  757SOL     OW 2269   0.137   0.527   1.736 -0.3490  0.5660  0.3384
  757SOL    HW1 2270   0.139   0.623   1.703  1.9252 -1.5161  0.9844
  757SOL    HW2 2271   0.189   0.459   1.676  0.3817  0.2620 -0.5468
  758SOL     OW 2272   2.405   3.080   1.529  0.1933  0.2332  0.5747
  758SOL    HW1 2273   2.324   3.038   1.579 -1.4218 -0.4837  0.7554
  758SOL    HW2 2274   2.383   3.090   1.430  1.4814 -0.0406  0.8919
  759SOL     OW 2275   1.671   3.087   0.062  0.1438 -0.2646  0.1667
  759SOL    HW1 2276   1.622   3.137  -0.021 -0.1901  2.5026 -0.4971
  759SOL    HW2 2277   1.777   3.084   0.053 -1.3360  0.8233 -2.6193
  760SOL     OW 2278   2.712   2.016   2.799 -0.4615 -0.2121  0.3424
  760SOL    HW1 2279   2.711   1.918   2.835 -0.8761 -0.6511  1.4898
  760SOL    HW2 2280   2.805   2.053   2.801  1.0023  0.5485 -2.6339
  761SOL     OW 2281   1.935   1.700   1.615 -0.0742 -0.1367  0.0582
  761SOL    HW1 2282   1.983   1.608   1.635  0.1639 -1.5953 -3.7027
  761SOL    HW2 2283   1.839   1.681   1.577  2.0611  1.2484 -1.0064
  762SOL     OW 2284   0.517   2.398   0.945  0.3644 -0.0407 -0.3644
  762SOL    HW1 2285   0.579   2.404   0.863 -1.7131  0.1650  1.1816
  762SOL    HW2 2286   0.550   2.439   1.037 -2.0392  0.7481  1.9785
  763SOL     OW 2287   2.093   1.544   2.989 -0.3013  0.2630 -0.3588
  763SOL    HW1 2288   2.107   1.497   2.898 -0.6862 -0.4024 -1.1930
  763SOL    HW2 2289   2.008   1.527   3.042 -1.1610 -0.5877  0.1743
  764SOL     OW 2290   0.685   0.509   0.892  0.6154  0.4996 -0.2973
  764SOL    HW1 2291   0.681   0.447   0.813 -2.3137  2.7879  1.1307
  764SOL    HW2 2292   0.781   0.539   0.915 -1.4892 -0.8184  0.0332
  765SOL     OW 2293   0.673   0.253   0.777  0.0248 -0.2825 -0.1790
  765SOL    HW1 2294   0.763   0.238   0.729 -0.6883  2.5395 -0.4552
  765SOL    HW2 2295   0.678   0.243   0.877  2.6245  1.1528 -0.4643
  766SOL     OW 2296   2.944   2.080   0.020 -0.2863 -0.6976 -0.3505
  766SOL    HW1 2297   2.854   2.123   0.024  1.2808  0.4292 -0.3079
  766SOL    HW2 2298   3.020   2.151   0.012  0.0501 -2.5668  0.3523
  767SOL     OW 2299   2.866   1.563   0.511  0.1696  0.4093 -0.1280
  767SOL    HW1 2300   2.764   1.569   0.526  0.6938  0.6030  0.4843
  767SOL    HW2 2301   2.917   1.600   0.590  1.0793 -3.6627  2.0432
  768SOL     OW 2302   1.105   0.268   0.309  0.0197  0.3780  0.1635
  768SOL    HW1 2303   1.029   0.191   0.316 -2.6102  0.3033  2.3906
  768SOL    HW2 2304   1.202   0.229   0.307 -1.6319 -0.3016 -0.9862
  769SOL     OW 2305   1.196   1.824   2.256  0.3621  0.1043 -0.4808
  769SOL    HW1 2306   1.210   1.838   2.350  1.1305  0.1747 -1.7588
  769SOL    HW2 2307   1.169   1.726   2.229  0.2397  1.5271 -2.6840
  770SOL     OW 2308   0.174   1.183   2.407 -0.1049 -0.8107  0.2728
  770SOL    HW1 2309   0.164   1.227   2.505  0.8757 -2.0091  2.1511
  770SOL    HW2 2310   0.095   1.213   2.343 -2.5071  0.8289 -3.2130
  771SOL     OW 2311   2.921   2.837   1.949 -0.4579 -0.0969  0.6896
  771SOL    HW1 2312   2.899   2.897   1.866 -2.0019  1.9819 -1.8477
  771SOL    HW2 2313   2.911   2.894   2.032 -0.5370 -1.7000 -2.0026
  772SOL     OW 2314   2.136   0.127   2.964  0.2291  0.1467  0.1528
  772SOL    HW1 2315   2.199   0.059   3.007  1.9222  0.9324  0.9275
  772SOL    HW2 2316   2.140   0.219   3.008  1.8766 -3.8763 -0.7788
  773SOL     OW 2317   0.667   2.076   2.458  0.0079  0.2922  0.1541
  773SOL    HW1 2318   0.617   2.122   2.378 -1.6672 -1.9526 -1.5408
  773SOL    HW2 2319   0.610   2.051   2.539  1.1919  0.1817  0.9084
  774SOL     OW 2320   2.047   3.085   2.607  0.2139 -0.2267  0.2146
  774SOL    HW1 2321   2.046   3.176   2.655 -1.1457  1.3911  0.5181
  774SOL    HW2 2322   2.114   3.015   2.654 -0.5402 -1.4953 -2.2812
  775SOL     OW 2323   2.485   2.835   2.317  0.0108 -0.3087 -0.1925
  775SOL    HW1 2324   2.449   2.935   2.311 -2.6930  0.1717 -0.4421
  775SOL    HW2 2325   2.554   2.831   2.393  1.9853  2.9602 -1.1381
  776SOL     OW 2326   0.048   1.257   0.206  0.0621  0.3451  0.2307
  776SOL    HW1 2327   0.023   1.208   0.116 -0.3741  0.2166  1.5536
  776SOL    HW2 2328  -0.018   1.245   0.280  1.2143 -2.2874 -1.3728
  777SOL     OW 2329   0.259   2.677   0.482  0.2642 -0.1690 -0.5532
  777SOL    HW1 2330   0.160   2.654   0.482  0.6166  0.2977 -2.0235
  777SOL    HW2 2331   0.278   2.779   0.482 -0.3672  0.9023 -2.1576
  778SOL     OW 2332   1.338   1.950   0.174  0.3547 -0.1874  0.6162
  778SOL    HW1 2333   1.272   1.972   0.249 -1.8181 -1.1612 -1.9302
  778SOL    HW2 2334   1.344   2.028   0.108  2.5354  0.3337  2.4590
  779SOL     OW 2335   0.187   0.814   0.542  0.3028 -0.1703  0.4350
  779SOL    HW1 2336   0.149   0.726   0.491 -2.1963  0.3689  0.8921
  779SOL    HW2 2337   0.112   0.859   0.600  0.1598  2.4936  2.0294
  780SOL     OW 2338   0.029   0.330   2.399 -0.5566  0.2870 -0.2473
  780SOL    HW1 2339  -0.029   0.412   2.372 -0.8602  0.8766 -1.8911
  780SOL    HW2 2340   0.122   0.338   2.349  0.0955  1.8912 -1.2270
  781SOL     OW 2341   0.586   1.703   1.606  0.0945  0.1808  0.5077
  781SOL    HW1 2342   0.626   1.692   1.699  0.5237 -1.3766 -0.9263
  781SOL    HW2 2343   0.523   1.625   1.583 -0.4086 -3.6699  1.2271
  782SOL     OW 2344   2.656   0.115   0.904 -0.0564 -0.3222 -0.1281
  782SOL    HW1 2345   2.600   0.115   0.817  0.7267  0.0522 -1.9421
  782SOL    HW2 2346   2.615   0.172   0.978  1.9803  1.1674  0.4126
  783SOL     OW 2347   2.826   0.686   2.485 -0.0102 -0.5252 -0.5712
  783SOL    HW1 2348   2.797   0.726   2.578 -3.8718  1.1542  0.5293
  783SOL    HW2 2349   2.757   0.616   2.454 -3.3471 -0.4410  2.5857
  784SOL     OW 2350   1.389   2.180   0.028  0.6677  0.0141  0.7024
  784SOL    HW1 2351   1.465   2.233   0.070  0.0608 -0.7267 -1.1329
  784SOL    HW2 2352   1.400   2.178  -0.074  1.4863 -0.4474 -1.6972
  785SOL     OW 2353   2.140   0.354   0.012 -0.6797 -0.3992  0.2729
  785SOL    HW1 2354   2.050   0.361   0.074 -1.6167 -1.3484 -1.7083
  785SOL    HW2 2355   2.166   0.451  -0.028  0.8330 -2.1510 -0.4730
  786SOL     OW 2356   2.018   2.165   2.295 -0.2213  0.1941  0.8033
  786SOL    HW1 2357   1.961   2.081   2.279 -0.8037 -2.2087 -2.7059
  786SOL    HW2 2358   2.113   2.145   2.336  1.9994 -3.3903  2.2584
  787SOL     OW 2359   1.382   0.623   0.818  0.5216  0.1317 -0.1204
  787SOL    HW1 2360   1.351   0.716   0.830 -0.3287 -3.4004 -0.2404
  787SOL    HW2 2361   1.443   0.610   0.734  0.2336 -1.6741 -0.2635
  788SOL     OW 2362   1.204   0.451   3.020 -0.0253  0.1942  0.0477
  788SOL    HW1 2363   1.097   0.455   3.003 -0.5395 -0.2042 -1.2012
  788SOL    HW2 2364   1.261   0.504   2.952  1.3565  0.3162  0.6512
  789SOL     OW 2365   2.617   0.114   1.852  0.3465  0.1862  0.6291
  789SOL    HW1 2366   2.512   0.118   1.879  0.0481  1.5708  0.1231
  789SOL    HW2 2367   2.648   0.026   1.817 -3.0879  1.2696  0.8957
  790SOL     OW 2368   2.578   2.646   0.794  0.3561  0.4981  0.1874
  790SOL    HW1 2369   2.654   2.681   0.728  0.1631  2.1045  0.2118
  790SOL    HW2 2370   2.535   2.717   0.852  3.0063  2.2348 -1.0032
  791SOL     OW 2371   1.985   1.248   0.233  0.3122 -0.5483  0.1193
  791SOL    HW1 2372   1.883   1.214   0.251 -1.8536 -1.2697  1.8151
  791SOL    HW2 2373   2.057   1.174   0.209 -1.8431 -0.0603  1.5767
  792SOL     OW 2374   0.414   1.982   2.205  0.4884  0.3146 -0.3472
  792SOL    HW1 2375   0.456   2.076   2.209 -1.3960  0.7123  2.9463
  792SOL    HW2 2376   0.316   1.985   2.231 -0.1890 -0.7293  0.4923
  793SOL     OW 2377   2.134   1.533   2.145 -0.8737 -0.4906  0.4896
  793SOL    HW1 2378   2.202   1.589   2.087 -1.9200 -0.9049 -0.4406
  793SOL    HW2 2379   2.109   1.450   2.099  4.9560  3.1862 -0.0362
  794SOL     OW 2380   0.495   1.476   2.472  0.3264  0.3256  0.1263
  794SOL    HW1 2381   0.534   1.433   2.382 -0.7926 -0.6048 -0.0582
  794SOL    HW2 2382   0.401   1.519   2.459  1.1179 -1.4775 -2.8916
  795SOL     OW 2383   2.537   2.313   1.799 -0.5382  0.0493 -0.1460
  795SOL    HW1 2384   2.577   2.374   1.870  2.6111 -0.2653  1.1597
  795SOL    HW2 2385   2.453   2.261   1.834  1.1923 -1.4439 -0.2254
  796SOL     OW 2386   3.047   1.065   2.701  0.2050  0.4018  0.4241
  796SOL    HW1 2387   2.958   1.097   2.736 -0.8561 -1.5396  1.1317
  796SOL    HW2 2388   3.122   1.079   2.769  1.8238 -3.1001  2.0989
  797SOL     OW 2389   0.679   0.638   1.365 -0.3476  0.1381 -0.0557
  797SOL    HW1 2390   0.753   0.687   1.418 -0.5056 -1.2728  0.7494
  797SOL    HW2 2391   0.626   0.704   1.305  1.2685 -2.2264 -2.4600
  798SOL     OW 2392   1.179   0.478   0.926 -0.4823  0.5288 -0.6949
  798SOL    HW1 2393   1.192   0.531   1.015 -1.5705  0.0946  1.0240
  798SOL    HW2 2394   1.258   0.486   0.864 -0.8832 -0.8276  2.1038
  799SOL     OW 2395   1.813   2.709   1.015 -0.2292 -0.3850 -0.3970
  799SOL    HW1 2396   1.825   2.609   1.046  1.5418 -0.6705  1.0325
  799SOL    HW2 2397   1.850   2.713   0.920 -0.9990 -0.6648  0.8880
  800SOL     OW 2398   2.944   0.856   1.818 -0.0350 -0.0012  0.2204
  800SOL    HW1 2399   2.975   0.951   1.799  2.3600 -2.0503  0.4567
  800SOL    HW2 2400   2.955   0.833   1.917 -0.0203  1.9100 -0.3034
  801SOL     OW 2401   1.959   2.143   0.129 -0.1617  0.1841 -0.0966
  801SOL    HW1 2402   1.898   2.187   0.057  0.8616  0.7162 -2.3516
  801SOL    HW2 2403   2.021   2.072   0.087  0.0526  1.4745  2.2890
  802SOL     OW 2404   0.663   0.609   2.540 -0.1869 -0.3735 -0.2674
  802SOL    HW1 2405   0.715   0.604   2.453 -2.5861  0.9010 -0.0916
  802SOL    HW2 2406   0.565   0.628   2.519  0.5849 -0.8282 -0.3314
  803SOL     OW 2407   0.923   0.068   0.886  0.2984 -0.5766  0.4597
  803SOL    HW1 2408   0.983   0.132   0.940  0.8476 -0.9060 -0.4136
  803SOL    HW2 2409   0.918   0.087   0.784  0.8244 -0.3072 -1.7880
  804SOL     OW 2410   0.304   0.035   2.184  0.5545  0.1510 -0.0131
  804SOL    HW1 2411   0.266   0.133   2.195 -0.4213 -0.9861 -1.0802
  804SOL    HW2 2412   0.247  -0.017   2.113  0.9243  2.3964 -1.0269
  805SOL     OW 2413   2.406   0.392   0.339  0.5216 -0.3762  0.2397
  805SOL    HW1 2414   2.472   0.362   0.409  2.6594 -0.0156 -0.1101
  805SOL    HW2 2415   2.412   0.337   0.254 -1.2619 -0.0598  1.8200
  806SOL     OW 2416   0.625   2.564   1.823 -0.4148  0.7823  0.2001
  806SOL    HW1 2417   0.563   2.600   1.894 -1.0101 -1.5702 -2.7873
  806SOL    HW2 2418   0.645   2.633   1.747 -0.9129  0.9281 -0.8686
  807SOL     OW 2419   2.517   0.947   0.477 -0.1356 -0.5977 -0.0870
  807SOL    HW1 2420   2.604   0.902   0.453  2.7843 -1.1542 -2.0183
  807SOL    HW2 2421   2.467   0.973   0.387 -0.1859 -1.1309 -1.5609
  808SOL     OW 2422   0.654   2.024   2.885  0.0787 -0.3879  0.4405
  808SOL    HW1 2423   0.605   2.060   2.972 -2.1579  0.4562  1.8006
  808SOL    HW2 2424   0.678   1.922   2.882 -0.3845 -0.5824 -1.4611
  809SOL     OW 2425   2.564   1.980   1.892  0.1412 -0.2093  0.0621
  809SOL    HW1 2426   2.658   2.013   1.900 -2.1851 -0.8894  0.6300
  809SOL    HW2 2427   2.548   1.972   1.790  3.0405  0.0765 -1.6147
  810SOL     OW 2428   2.210   1.113   0.510  0.5101  0.3526 -1.2127
  810SOL    HW1 2429   2.234   1.089   0.610 -0.5532 -0.9759 -0.9120
  810SOL    HW2 2430   2.152   1.199   0.515  1.0218  1.1093  0.4025
  811SOL     OW 2431   1.284   2.571   1.186  0.2790 -0.8263  0.1478
  811SOL    HW1 2432   1.270   2.468   1.196  0.5645 -2.2433 -0.6312
  811SOL    HW2 2433   1.288   2.633   1.268 -1.2140  0.7560 -0.4724
  812SOL     OW 2434   1.449   0.742   1.949  0.1728 -0.2742 -0.7019
  812SOL    HW1 2435   1.351   0.763   1.942  2.6570 -0.6605  2.8979
  812SOL    HW2 2436   1.497   0.826   1.915 -1.5095 -0.3251 -3.6114
  813SOL     OW 2437   1.618   2.079   2.388  0.4200 -0.1079 -0.4375
  813SOL    HW1 2438   1.713   2.042   2.412  1.5975  3.0720 -0.9532
  813SOL    HW2 2439   1.585   2.049   2.294 -0.3397  1.5921 -2.2958
  814SOL     OW 2440   3.004   1.724   2.856  0.4441  0.2888 -0.2193
  814SOL    HW1 2441   3.077   1.713   2.931 -2.1898  1.1773 -0.7590
  814SOL    HW2 2442   2.997   1.824   2.829 -1.2602  0.1654  0.2619
  815SOL     OW 2443   2.171   2.887   2.741  0.2102 -0.2084 -0.4122
  815SOL    HW1 2444   2.134   2.817   2.810 -0.2166 -2.2090 -1.3365
  815SOL    HW2 2445   2.247   2.944   2.779 -1.8294 -0.7100  1.0607
  816SOL     OW 2446   1.526   0.349   1.669 -0.2923 -0.5864  0.5351
  816SOL    HW1 2447   1.588   0.274   1.704 -0.0673 -1.0023  1.6013
  816SOL    HW2 2448   1.476   0.390   1.749  0.5236 -0.4105  0.6734
  817SOL     OW 2449   0.385   1.279   2.644  0.1590  1.2416 -0.4032
  817SOL    HW1 2450   0.289   1.300   2.682 -1.2245  1.1448 -1.8138
  817SOL    HW2 2451   0.429   1.352   2.578 -2.9092  2.6385  0.5790
  818SOL     OW 2452   2.008   0.842   0.464 -0.0476  0.4343  0.1372
  818SOL    HW1 2453   2.103   0.816   0.426  1.7903 -0.4914 -1.5577
  818SOL    HW2 2454   2.018   0.891   0.553 -0.6340  1.2788 -0.2499
  819SOL     OW 2455   2.764   2.873   3.052  0.2843 -0.1740 -0.5389
  819SOL    HW1 2456   2.791   2.777   3.074  3.0673  0.2379 -0.9252
  819SOL    HW2 2457   2.696   2.882   2.978 -1.4806  0.3074  0.5017
  820SOL     OW 2458   1.283   1.043   0.545 -0.1116 -0.1987 -0.5912
  820SOL    HW1 2459   1.259   1.131   0.599 -3.1874  0.4887  0.2022
  820SOL    HW2 2460   1.256   0.954   0.597 -1.4204  1.7365  1.8041
  821SOL     OW 2461   0.093   1.197   0.698 -0.4236  0.2458  0.1477
  821SOL    HW1 2462   0.072   1.193   0.797  1.0565 -1.5050 -3.5700
  821SOL    HW2 2463   0.171   1.268   0.689  0.4456  2.6471 -0.2267
  822SOL     OW 2464   2.522   1.758   2.441 -0.3700 -0.0025  0.3989
  822SOL    HW1 2465   2.516   1.811   2.529 -0.0558 -1.8802  1.3724
  822SOL    HW2 2466   2.431   1.748   2.394 -1.6595  0.3980  1.5230
  823SOL     OW 2467   2.016   0.952   1.203 -0.1941 -0.3133 -0.1234
  823SOL    HW1 2468   2.010   0.902   1.297 -1.0654  1.2856 -0.6842
  823SOL    HW2 2469   1.928   0.946   1.151  0.9617 -0.5890  3.6159
  824SOL     OW 2470   0.190   1.902   2.783 -0.0555  0.0389 -0.3201
  824SOL    HW1 2471   0.222   1.872   2.877 -0.9524 -1.0322  0.0530
  824SOL    HW2 2472   0.252   1.885   2.697  2.4872 -2.2063 -1.9685
  825SOL     OW 2473   1.309   1.082   0.262 -0.1639  0.2304 -0.0543
  825SOL    HW1 2474   1.332   1.177   0.228  0.2711 -1.7431  1.8733
  825SOL    HW2 2475   1.268   1.078   0.361  0.1003 -3.5519  2.0911
  826SOL     OW 2476   1.932   0.591   1.581  0.0722  0.0063  0.2423
  826SOL    HW1 2477   2.016   0.539   1.616 -0.1200 -0.9398 -0.1735
  826SOL    HW2 2478   1.852   0.526   1.564  1.3791 -0.3861 -2.1167
  827SOL     OW 2479   0.723   1.176   0.420 -0.1404  0.7696  0.4218
  827SOL    HW1 2480   0.798   1.150   0.353 -1.2690  0.5890 -0.4573
  827SOL    HW2 2481   0.638   1.114   0.414 -1.0236 -1.1951 -0.6210
  828SOL     OW 2482   2.623   0.132   1.543  0.1215  0.4132 -0.3295
  828SOL    HW1 2483   2.526   0.091   1.544 -0.4802 -0.3683 -0.4992
  828SOL    HW2 2484   2.656   0.163   1.637 -0.7301 -0.1534 -2.6671
  829SOL     OW 2485   2.932   2.405   2.954  0.2273 -0.4814  0.3571
  829SOL    HW1 2486   2.835   2.395   2.986  2.2217 -0.3130  0.7373
  829SOL    HW2 2487   2.943   2.505   2.924  0.2356  2.0322 -0.6827
  830SOL     OW 2488   2.866   0.898   2.997 -0.1979 -0.2074 -1.0262
  830SOL    HW1 2489   2.930   0.980   3.014 -0.4993  0.3333 -1.1145
  830SOL    HW2 2490   2.896   0.814   3.056 -3.5414  0.3175  0.0696
  831SOL     OW 2491   0.120   0.584   0.408  0.4574 -0.2266  0.4178
  831SOL    HW1 2492   0.126   0.522   0.493  0.9852  0.6542  1.1461
  831SOL    HW2 2493   0.131   0.533   0.318 -0.7244  0.1553 -1.5866
  832SOL     OW 2494   1.789   0.722   3.032  0.0335 -1.1034  0.2665
  832SOL    HW1 2495   1.697   0.760   3.007 -2.2639 -1.8492  4.4358
  832SOL    HW2 2496   1.778   0.627   3.065  0.7972  0.5587 -0.1567
  833SOL     OW 2497   2.372   2.107   0.512  0.1174  0.3842  0.0861
  833SOL    HW1 2498   2.278   2.068   0.489 -1.3989  1.4442  2.1869
  833SOL    HW2 2499   2.447   2.049   0.478 -3.2757  2.4547 -0.9774
  834SOL     OW 2500   0.166   0.089   0.579 -0.0673 -0.8426 -0.4801
  834SOL    HW1 2501   0.228   0.002   0.581  2.1717  0.5622  0.8572
  834SOL    HW2 2502   0.193   0.154   0.505 -1.4410 -2.3648 -0.4799
  835SOL     OW 2503   2.418   1.584   1.110 -0.1203  0.2204  0.3323
  835SOL    HW1 2504   2.512   1.555   1.128 -2.7573  1.1095  1.3606
  835SOL    HW2 2505   2.428   1.678   1.062  0.5558  2.2766  2.4022
  836SOL     OW 2506   1.564   0.811   2.579 -0.3464  0.2698  0.4293
  836SOL    HW1 2507   1.460   0.813   2.575  1.6860 -2.3017  1.1227
  836SOL    HW2 2508   1.609   0.843   2.496 -1.9386 -2.0824 -1.8749
  837SOL     OW 2509   1.724   0.107   0.558 -0.3115  0.3581 -0.4857
  837SOL    HW1 2510   1.705   0.191   0.609 -3.1987 -1.2955 -0.9200
  837SOL    HW2 2511   1.659   0.100   0.476  1.5549  0.5284 -0.2800
  838SOL     OW 2512   1.216   1.433   2.690  0.0435  0.6454 -0.5314
  838SOL    HW1 2513   1.183   1.491   2.767  1.0867 -1.0737 -0.2753
  838SOL    HW2 2514   1.150   1.356   2.667  2.8604 -2.3019 -0.1960
  839SOL     OW 2515   1.600   0.351   0.968  0.3745  0.2390  0.0496
  839SOL    HW1 2516   1.556   0.408   1.041  2.2539  0.8195  0.0535
  839SOL    HW2 2517   1.568   0.253   0.974  2.7026  3.4163 -3.2635
  840SOL     OW 2518   2.631   2.947   1.671  0.7399 -0.0038 -0.1225
  840SOL    HW1 2519   2.549   3.005   1.641  2.0704  0.2896 -1.2802
  840SOL    HW2 2520   2.617   2.917   1.769  1.9975  1.1098  0.4330
  841SOL     OW 2521   1.513   0.816   2.944 -0.3773  0.6690  0.2284
  841SOL    HW1 2522   1.415   0.838   2.979  1.8314 -2.9336 -0.2889
  841SOL    HW2 2523   1.554   0.884   2.875  0.5706 -1.2283  1.6326
  842SOL     OW 2524   0.855   1.609   1.016  0.4108  0.4754 -0.5471
  842SOL    HW1 2525   0.793   1.693   1.038 -1.8556  1.1989  0.3227
  842SOL    HW2 2526   0.808   1.543   0.950 -2.4565  0.5607  4.2981
  843SOL     OW 2527   0.142   0.091   1.463 -0.1877 -0.9650  0.3369
  843SOL    HW1 2528   0.240   0.115   1.487  0.6708  0.3374 -0.0494
  843SOL    HW2 2529   0.148  -0.002   1.418 -0.7916 -1.3483  1.5510
  844SOL     OW 2530   0.712   2.527   0.217  0.0653 -0.6756  0.2473
  844SOL    HW1 2531   0.691   2.540   0.319 -1.1728  0.8892  0.6884
  844SOL    HW2 2532   0.634   2.556   0.154  0.1186  0.7643 -0.2834
  845SOL     OW 2533   1.729   3.006   1.291  0.1309  1.0301 -0.2542
  845SOL    HW1 2534   1.725   3.034   1.392 -2.3730 -0.5048  0.9096
  845SOL    HW2 2535   1.664   3.061   1.234  1.2994  0.6393  1.4003
  846SOL     OW 2536   1.689   3.008   0.904 -0.0970  0.3417  0.1750
  846SOL    HW1 2537   1.746   3.037   0.826  0.2095 -0.0775  0.1451
  846SOL    HW2 2538   1.730   2.932   0.959  1.6851 -0.4937  1.1338
  847SOL     OW 2539   2.085   1.602   0.200  0.5823  0.6455 -0.1334
  847SOL    HW1 2540   2.060   1.541   0.279  0.7372 -2.2385  2.0307
  847SOL    HW2 2541   2.007   1.655   0.162  1.7508  0.1059  1.9728
  848SOL     OW 2542   2.474   0.864   2.617  0.1206 -0.4085 -0.2593
  848SOL    HW1 2543   2.470   0.957   2.669  2.9786  2.0020 -0.4156
  848SOL    HW2 2544   2.395   0.838   2.558  0.1277  1.7793 -1.3497
  849SOL     OW 2545   2.369   0.840   2.256 -0.6152  0.1724 -0.0621
  849SOL    HW1 2546   2.424   0.778   2.193 -1.0739  1.8018  0.9043
  849SOL    HW2 2547   2.323   0.785   2.334 -2.9119 -2.1882  0.8933
  850SOL     OW 2548   1.554   0.199   1.253  0.1132  0.4170 -0.1517
  850SOL    HW1 2549   1.528   0.161   1.158 -1.2623 -0.5429 -0.2013
  850SOL    HW2 2550   1.553   0.131   1.332  0.2719  2.0852 -0.0809
  851SOL     OW 2551   0.495   1.740   0.663 -0.3299 -0.2793 -0.3215
  851SOL    HW1 2552   0.492   1.845   0.664 -0.5381 -1.8049 -1.5538
  851SOL    HW2 2553   0.592   1.703   0.644 -1.1607 -2.0565 -1.7091
  852SOL     OW 2554   0.828   2.157   1.719  0.4361  0.7524  0.5462
  852SOL    HW1 2555   0.843   2.255   1.680  2.4559  1.0804 -0.0021
  852SOL    HW2 2556   0.785   2.157   1.807 -0.0789 -0.5853 -1.5946
  853SOL     OW 2557   2.583   1.522   2.575  1.0232  0.0984 -0.1112
  853SOL    HW1 2558   2.518   1.447   2.556  2.4746 -1.0822  0.0104
  853SOL    HW2 2559   2.548   1.611   2.539  1.8692 -3.2118  1.1019
  854SOL     OW 2560   2.403   1.442   1.758  0.0277  0.1468  0.2056
  854SOL    HW1 2561   2.414   1.433   1.657 -0.7287 -2.5895  2.1137
  854SOL    HW2 2562   2.368   1.354   1.793  2.5188  2.4822 -0.1344
  855SOL     OW 2563   2.038   2.276   1.000 -0.3920 -0.3367  0.0223
  855SOL    HW1 2564   2.046   2.371   0.963  0.9636 -2.5514  0.2026
  855SOL    HW2 2565   2.100   2.258   1.081 -2.4903  0.8709 -3.2056
  856SOL     OW 2566   1.407   1.343   0.884 -0.1560  0.9504  0.1916
  856SOL    HW1 2567   1.366   1.436   0.869 -0.7900 -0.5082  1.4329
  856SOL    HW2 2568   1.447   1.338   0.983 -1.6379 -2.0687 -1.5491
  857SOL     OW 2569   2.902   2.549   1.032 -0.4834  0.0906 -0.1085
  857SOL    HW1 2570   2.836   2.485   1.080  2.7435 -3.5770 -0.7491
  857SOL    HW2 2571   2.924   2.510   0.941 -1.3827  3.4754  0.8244
  858SOL     OW 2572   2.260   2.105   1.773  0.0237 -0.3554  0.6199
  858SOL    HW1 2573   2.190   2.147   1.710  1.1598 -0.1713 -1.5208
  858SOL    HW2 2574   2.333   2.056   1.720 -2.6627  0.4833 -1.5135
  859SOL     OW 2575   2.395   0.453   0.993  0.2602 -0.8442 -0.1729
  859SOL    HW1 2576   2.448   0.518   0.923 -1.7251  0.9252  1.5819
  859SOL    HW2 2577   2.440   0.365   1.021 -1.8879  0.4363 -1.0497
  860SOL     OW 2578   1.951   2.798   0.486 -0.0895  0.2857 -0.4889
  860SOL    HW1 2579   1.923   2.746   0.405 -1.3474  2.1689  1.6193
  860SOL    HW2 2580   1.954   2.898   0.474  0.5091  0.0699  0.1361
  861SOL     OW 2581   1.038   2.563   2.778 -0.8624 -0.1883  0.2627
  861SOL    HW1 2582   1.100   2.644   2.785 -1.5405 -2.1483  1.2402
  861SOL    HW2 2583   1.016   2.536   2.876  0.7680 -2.7070 -0.8239
  862SOL     OW 2584   2.970   2.580   1.552  0.4590  0.2882 -0.3608
  862SOL    HW1 2585   3.004   2.570   1.650 -0.3263  0.0810  1.5088
  862SOL    HW2 2586   2.888   2.641   1.548 -1.5465 -0.7605 -2.0480
  863SOL     OW 2587   1.920   2.646   0.261  0.3636  0.5286  0.2350
  863SOL    HW1 2588   1.979   2.560   0.243  0.2381 -2.0606 -1.1967
  863SOL    HW2 2589   1.825   2.618   0.256  1.7099 -1.0859  1.1093
  864SOL     OW 2590   1.897   1.130   2.942  0.8506 -0.4381  0.4962
  864SOL    HW1 2591   1.929   1.099   2.852 -1.0206  0.9727  3.2153
  864SOL    HW2 2592   1.976   1.130   3.014 -0.2079  0.1281  0.2309
  865SOL     OW 2593   2.146   1.702   0.672 -0.1526 -0.8058 -0.0661
  865SOL    HW1 2594   2.205   1.741   0.752 -2.2461 -1.5845 -0.3986
  865SOL    HW2 2595   2.045   1.693   0.696  0.5253  0.3300 -1.9107
  866SOL     OW 2596   2.874   2.833   1.012 -0.4181 -0.2618 -0.0701
  866SOL    HW1 2597   2.933   2.877   0.940 -1.3743 -0.2007  0.1934
  866SOL    HW2 2598   2.887   2.727   1.016 -1.0898 -3.4740  0.0695
  867SOL     OW 2599   0.448   1.300   0.863  0.4175 -0.1225  0.3815
  867SOL    HW1 2600   0.471   1.219   0.807  2.4097  2.8484  0.9536
  867SOL    HW2 2601   0.372   1.358   0.817  0.7630  0.6480 -2.8997
  868SOL     OW 2602   0.849   1.960   1.986 -0.4020  0.3803  0.4027
  868SOL    HW1 2603   0.856   1.923   2.080 -2.1409  1.9557 -1.3325
  868SOL    HW2 2604   0.791   2.051   1.984  1.0827  0.0569  2.0597
  869SOL     OW 2605   2.528   2.035   1.615 -0.0290  0.1017  0.6701
  869SOL    HW1 2606   2.589   2.116   1.620  1.2686 -0.5137 -0.5197
  869SOL    HW2 2607   2.541   1.979   1.528 -0.6201  1.0671 -3.4174
  870SOL     OW 2608   2.382   2.511   1.184  0.0678 -0.2822 -0.1995
  870SOL    HW1 2609   2.332   2.426   1.162  0.6634  1.9000 -0.0076
  870SOL    HW2 2610   2.450   2.501   1.264  0.2577  1.7807  0.8148
  871SOL     OW 2611   3.002   2.015   0.539  0.1863  0.2890 -0.5972
  871SOL    HW1 2612   2.928   2.082   0.531  1.9621 -0.8161  0.0807
  871SOL    HW2 2613   2.986   1.925   0.489 -2.1722 -2.3556 -1.7738
  872SOL     OW 2614   2.181   0.513   1.697  0.0570 -0.0436 -0.0648
  872SOL    HW1 2615   2.125   0.526   1.786 -1.4218  1.1076 -1.4626
  872SOL    HW2 2616   2.274   0.462   1.711 -1.6121 -1.6249  0.4627
  873SOL     OW 2617   1.702   2.092   2.903 -0.2891 -0.2766 -0.7276
  873SOL    HW1 2618   1.676   2.185   2.934 -0.5441  1.4338 -3.2640
  873SOL    HW2 2619   1.646   2.068   2.824 -1.4632 -1.0606  0.2599
  874SOL     OW 2620   0.719   2.516   0.747 -0.2779  0.1453 -0.2009
  874SOL    HW1 2621   0.684   2.607   0.774  3.3310  0.3372  1.3704
  874SOL    HW2 2622   0.823   2.500   0.764  1.3954  1.0386 -0.1707
  875SOL     OW 2623   2.327   1.509   1.467 -0.3367  0.0250 -0.5881
  875SOL    HW1 2624   2.415   1.571   1.480  1.4945  2.4808  1.8526
  875SOL    HW2 2625   2.285   1.499   1.372 -0.1699 -0.4031  0.5805
  876SOL     OW 2626   0.155   2.195   2.708  0.6761  0.2942  0.1807
  876SOL    HW1 2627   0.242   2.139   2.717  0.8928  0.7790  2.6362
  876SOL    HW2 2628   0.168   2.287   2.743 -0.9548  0.8764 -1.5477
  877SOL     OW 2629   2.787   2.676   0.588  0.3088 -0.3314 -0.1784
  877SOL    HW1 2630   2.806   2.775   0.612  2.9453 -2.4208 -1.0267
  877SOL    HW2 2631   2.843   2.609   0.640  0.8857  0.1404  1.1127
  878SOL     OW 2632   2.781   1.555   2.220 -0.6932 -0.1550  0.0311
  878SOL    HW1 2633   2.848   1.626   2.178 -0.0300  1.1915  2.1689
  878SOL    HW2 2634   2.805   1.535   2.321 -2.5039 -2.2755  0.2466
  879SOL     OW 2635   2.373   3.103   1.212 -0.3859 -0.1079 -0.0579
  879SOL    HW1 2636   2.417   3.009   1.219  2.3517  2.1881  1.6982
  879SOL    HW2 2637   2.274   3.099   1.181 -0.4271 -0.2975  1.2634
  880SOL     OW 2638   0.681   0.414   2.186  0.0915  0.4835  0.1571
  880SOL    HW1 2639   0.590   0.379   2.216  0.0176 -0.8391 -0.0094
  880SOL    HW2 2640   0.769   0.357   2.196  1.3935 -1.0610  0.9796
  881SOL     OW 2641   0.905   0.059   0.369  0.1154  0.1366 -0.4805
  881SOL    HW1 2642   0.946  -0.027   0.404 -1.4169 -0.7201 -0.3557
  881SOL    HW2 2643   0.855   0.048   0.278  0.9840 -0.9608 -0.4369
  882SOL     OW 2644   2.757   1.642   1.684  0.0762  0.1762 -0.3432
  882SOL    HW1 2645   2.854   1.637   1.664 -2.7233  1.3850 -0.6238
  882SOL    HW2 2646   2.742   1.674   1.787  2.6389 -0.1372  1.1220
  883SOL     OW 2647   0.939   0.610   0.944 -0.0671 -0.0364  0.1141
  883SOL    HW1 2648   0.960   0.704   0.979 -2.9750  2.1592  1.5795
  883SOL    HW2 2649   1.021   0.552   0.919 -3.0579  0.1177 -1.1488
  884SOL     OW 2650   1.213   1.889   1.025 -0.0576 -0.8554  0.1181
  884SOL    HW1 2651   1.179   1.860   0.933  0.1499 -1.4814 -0.5328
  884SOL    HW2 2652   1.149   1.950   1.079 -0.2845 -0.5737 -1.4829
  885SOL     OW 2653   2.277   1.791   2.323  0.8202 -0.6491  0.8385
  885SOL    HW1 2654   2.173   1.761   2.329 -0.8318  0.4711  1.1686
  885SOL    HW2 2655   2.294   1.892   2.348 -1.9755  1.9580  0.9962
  886SOL     OW 2656   2.657   0.464   1.775 -0.0337  0.0260 -0.0534
  886SOL    HW1 2657   2.686   0.423   1.862 -1.6494  2.0301  0.0477
  886SOL    HW2 2658   2.728   0.537   1.749  1.7468  2.3203 -2.1508
  887SOL     OW 2659   0.143   2.055   1.305  0.6037 -0.2160 -0.2083
  887SOL    HW1 2660   0.113   2.028   1.210  1.5079 -0.5349  1.7044
  887SOL    HW2 2661   0.158   2.157   1.312 -0.3977  0.6075 -0.7438
  888SOL     OW 2662   0.594   1.320   1.484  0.4411  0.5249 -0.1415
  888SOL    HW1 2663   0.636   1.372   1.408  2.8839 -1.0535 -1.1587
  888SOL    HW2 2664   0.626   1.221   1.477 -1.8964  0.3759  1.9911
  889SOL     OW 2665   0.876   2.525   2.129  0.2720 -0.2831 -0.1188
  889SOL    HW1 2666   0.785   2.493   2.091  2.1521 -0.0423 -1.9830
  889SOL    HW2 2667   0.954   2.511   2.065 -1.2210  0.2384 -1.7325
  890SOL     OW 2668   2.342   2.423   0.162  0.2662 -0.4821 -0.2914
  890SOL    HW1 2669   2.360   2.511   0.116  0.2902 -3.5823 -0.3522
  890SOL    HW2 2670   2.243   2.416   0.192 -0.2228 -3.1246 -0.9310
  891SOL     OW 2671   2.571   1.529   0.619 -0.0394  0.0912 -0.4949
  891SOL    HW1 2672   2.541   1.489   0.712 -3.8379  0.8822  0.2819
  891SOL    HW2 2673   2.496   1.587   0.569 -0.6890  2.0451 -0.8326
  892SOL     OW 2674   0.236   0.283   2.216 -0.1690 -0.1304 -0.0468
  892SOL    HW1 2675   0.240   0.316   2.113 -0.4642  0.8975  0.8930
  892SOL    HW2 2676   0.319   0.303   2.278 -0.8167  2.2069  2.1636
  893SOL     OW 2677   1.663   0.242   2.721  0.3717  0.1433 -0.5929
  893SOL    HW1 2678   1.730   0.311   2.764 -0.1149  0.1567  0.7674
  893SOL    HW2 2679   1.576   0.291   2.691  1.0346  0.8020  0.1871
  894SOL     OW 2680   2.146   1.958   0.052 -0.0544 -0.2749 -0.2346
  894SOL    HW1 2681   2.134   1.908  -0.043 -0.5128  0.7888  0.1281
  894SOL    HW2 2682   2.206   1.908   0.120 -0.7849  0.4884  1.2689
  895SOL     OW 2683   2.907   1.391   0.824 -0.4866 -0.2122 -0.1460
  895SOL    HW1 2684   2.973   1.326   0.877  2.2229 -1.0922 -2.6907
  895SOL    HW2 2685   2.962   1.457   0.767 -3.3571  0.3686  0.1743
  896SOL     OW 2686   1.734   1.800   1.187 -0.2715  0.2849  0.1644
  896SOL    HW1 2687   1.798   1.863   1.135 -2.2136 -0.0658 -0.1689
  896SOL    HW2 2688   1.635   1.803   1.148 -1.0747 -1.9275  1.4105
  897SOL     OW 2689   0.321   0.527   0.004  0.5198 -0.3073 -0.1252
  897SOL    HW1 2690   0.282   0.570  -0.085 -1.4262  1.6097 -0.1567
  897SOL    HW2 2691   0.393   0.594   0.037  0.6527  1.2658  1.6167
  898SOL     OW 2692   0.550   2.814   1.143  0.2413 -0.1241  0.2855
  898SOL    HW1 2693   0.483   2.892   1.163 -1.3341 -1.9021 -1.0567
  898SOL    HW2 2694   0.645   2.834   1.185  0.6504 -0.9499  1.9769
  899SOL     OW 2695   2.691   0.913   1.242  0.1760  0.0061 -0.5457
  899SOL    HW1 2696   2.611   0.881   1.187  1.1644  1.0680  0.7420
  899SOL    HW2 2697   2.758   0.959   1.175 -0.4555  0.7479 -1.2285
  900SOL     OW 2698   0.995   2.388   2.342  0.6466 -1.0284 -0.0424
  900SOL    HW1 2699   0.930   2.434   2.276  0.1256  0.8366 -3.3465
  900SOL    HW2 2700   0.967   2.397   2.444 -0.5484  0.5678  0.6402
  901SOL     OW 2701   1.899   2.472   1.388 -0.5225  0.4555  0.2853
  901SOL    HW1 2702   1.894   2.485   1.283  0.7560  1.1871 -0.3098
  901SOL    HW2 2703   1.992   2.445   1.427  2.8845 -0.9867 -1.3464
  902SOL     OW 2704   2.585   1.633   1.455 -0.2627 -0.0411  0.0662
  902SOL    HW1 2705   2.656   1.635   1.534 -1.2512 -2.1295  2.5848
  902SOL    HW2 2706   2.617   1.606   1.362 -0.6774  1.1593  2.0693
  903SOL     OW 2707   0.257   2.320   1.977  0.2655 -0.1681 -0.2254
  903SOL    HW1 2708   0.154   2.332   1.976 -0.4139  1.4667  0.3262
  903SOL    HW2 2709   0.301   2.384   1.913  1.4390 -4.2531  1.5027
  904SOL     OW 2710   1.970   0.800   2.579 -0.0958 -0.5810  0.4431
  904SOL    HW1 2711   1.893   0.765   2.639  1.0837 -0.6903 -1.6135
  904SOL    HW2 2712   1.964   0.753   2.485 -1.2280 -0.2748 -1.4925
  905SOL     OW 2713   2.743   0.014   2.644  0.1677  0.3102  0.1305
  905SOL    HW1 2714   2.795  -0.073   2.638 -2.0021  1.7834  0.7337
  905SOL    HW2 2715   2.790   0.096   2.596  0.4853  0.5508 -0.8107
  906SOL     OW 2716   0.132   1.758   1.950 -0.4768 -0.4476  0.6563
  906SOL    HW1 2717   0.086   1.784   1.862 -0.6814  0.8875  0.9389
  906SOL    HW2 2718   0.227   1.793   1.960 -0.2062  0.1077  0.0198
  907SOL     OW 2719   0.170   2.457   1.043  0.3677  0.0994  0.2389
  907SOL    HW1 2720   0.222   2.545   1.033 -2.2175 -0.7601  1.2092
  907SOL    HW2 2721   0.102   2.446   0.965 -0.2003  0.1399  1.7570
  908SOL     OW 2722   2.657   2.894   0.423 -0.4748  0.0645 -0.8774
  908SOL    HW1 2723   2.630   2.928   0.323 -3.8788 -3.0833  0.7307
  908SOL    HW2 2724   2.635   2.792   0.444  2.2267 -0.3897 -0.1943
  909SOL     OW 2725   0.779   0.896   2.651 -0.9435 -0.0114  0.2083
  909SOL    HW1 2726   0.717   0.829   2.600 -3.6475 -1.0392 -1.5825
  909SOL    HW2 2727   0.832   0.950   2.576  0.4175 -0.0444 -1.7388
  910SOL     OW 2728   1.744   1.772   2.018  0.0618  0.3155 -0.1688
  910SOL    HW1 2729   1.793   1.816   1.936  2.9884  0.9517  0.8329
  910SOL    HW2 2730   1.687   1.842   2.069  0.1447  1.3644 -1.8561
  911SOL     OW 2731   1.757   3.042   1.558 -0.3277  0.7309 -0.6747
  911SOL    HW1 2732   1.838   3.001   1.511 -0.3081 -0.3439  3.0247
  911SOL    HW2 2733   1.728   2.985   1.634  0.7484  2.1959 -2.6835
  912SOL     OW 2734   2.825   0.952   0.780 -0.3390 -0.6028  0.3079
  912SOL    HW1 2735   2.859   0.946   0.877 -2.1216 -0.8380  0.8691
  912SOL    HW2 2736   2.787   1.046   0.755  2.5241  0.2839 -0.5884
  913SOL     OW 2737   2.535   1.266   1.560  0.3119 -0.3079 -0.1922
  913SOL    HW1 2738   2.548   1.159   1.564 -1.6226 -1.8108 -1.7808
  913SOL    HW2 2739   2.608   1.310   1.510 -0.5858 -2.1014 -0.2109
  914SOL     OW 2740   2.809   0.550   1.239 -0.5316 -0.3960  0.4492
  914SOL    HW1 2741   2.768   0.458   1.249  0.8080 -0.8875 -0.3384
  914SOL    HW2 2742   2.806   0.618   1.315  0.9562 -1.5179  0.9513
  915SOL     OW 2743   1.246   0.803   1.009 -0.0421  0.7043 -0.0594
  915SOL    HW1 2744   1.288   0.892   1.030 -2.7651  0.9164 -0.7112
  915SOL    HW2 2745   1.154   0.793   1.058 -0.2701  0.2204 -0.6224
  916SOL     OW 2746   0.523   0.062   0.596 -0.2991 -0.2009 -0.7820
  916SOL    HW1 2747   0.556   0.141   0.654 -1.8675 -1.3220 -1.7621
  916SOL    HW2 2748   0.518   0.087   0.497 -0.7081  1.9937  1.1400
  917SOL     OW 2749   2.754   2.619   1.933  0.5140  0.5199 -0.1205
  917SOL    HW1 2750   2.664   2.664   1.904 -3.1293 -1.9930 -2.3869
  917SOL    HW2 2751   2.828   2.690   1.931 -0.3798 -1.8742 -0.0325
  918SOL     OW 2752   0.975   2.200   3.062  0.0861  0.4763  1.0672
  918SOL    HW1 2753   0.922   2.231   3.145  0.5008  0.6988  1.7308
  918SOL    HW2 2754   1.032   2.119   3.085 -1.4829 -0.7658  0.7755
  919SOL     OW 2755   0.938   1.616   2.824 -0.2205  0.1652  0.0479
  919SOL    HW1 2756   0.976   1.695   2.761  4.5710  1.2344  2.5082
  919SOL    HW2 2757   0.887   1.546   2.761  1.4539 -0.1611 -1.6083
  920SOL     OW 2758   1.241   2.056   2.528  0.2338  0.2369 -0.3842
  920SOL    HW1 2759   1.202   2.064   2.433  1.0184 -1.3639  2.2101
  920SOL    HW2 2760   1.294   1.969   2.523 -1.7264  1.4638  0.3172
  921SOL     OW 2761   1.042   0.154   2.574 -0.4744  0.1501 -0.1681
  921SOL    HW1 2762   1.066   0.152   2.475 -0.4663  0.3971  1.7474
  921SOL    HW2 2763   0.949   0.111   2.600  0.5019  1.7052 -1.0173
  922SOL     OW 2764   2.173   2.400   2.768 -0.5632  0.1596 -0.0099
  922SOL    HW1 2765   2.163   2.300   2.744 -2.9227  0.0053  1.0145
  922SOL    HW2 2766   2.123   2.455   2.696 -0.2094  1.7659  2.0560
  923SOL     OW 2767   1.194   2.659   0.277 -0.3771  0.2630 -0.5457
  923SOL    HW1 2768   1.263   2.720   0.326 -1.8272  0.2683  0.5157
  923SOL    HW2 2769   1.227   2.566   0.263 -1.0927  2.6239 -0.5487
  924SOL     OW 2770   2.904   1.577   0.078  0.0448 -0.2252  0.1370
  924SOL    HW1 2771   2.832   1.609   0.009 -2.2587  1.6562 -0.1339
  924SOL    HW2 2772   3.001   1.565   0.038  0.3219 -0.1468 -0.9767
  925SOL     OW 2773   0.041   2.839   1.677  0.7603  0.2511 -0.0756
  925SOL    HW1 2774  -0.036   2.910   1.684 -1.1607 -1.3121 -0.7391
  925SOL    HW2 2775   0.014   2.759   1.617  0.0526  0.3362  1.3032
  926SOL     OW 2776   1.422   2.907   1.315  0.5162 -0.6737  0.6948
  926SOL    HW1 2777   1.448   2.925   1.213  0.9703 -0.3519 -1.0762
  926SOL    HW2 2778   1.424   2.998   1.366  0.6063  0.6016 -1.7685
  927SOL     OW 2779   0.290   2.530   1.766 -0.0294 -0.2861 -0.3755
  927SOL    HW1 2780   0.239   2.473   1.691 -1.2802  1.1077 -0.3973
  927SOL    HW2 2781   0.313   2.627   1.739  2.7824  0.0939 -1.2059
  928SOL     OW 2782   1.590   1.973   2.139  0.6864  0.0951  0.1905
  928SOL    HW1 2783   1.628   2.056   2.083 -0.2846 -1.0569 -2.4374
  928SOL    HW2 2784   1.502   1.939   2.094  0.7577 -1.1921 -2.5837
  929SOL     OW 2785   2.431   2.471   2.824 -0.7761  0.0843 -0.0170
  929SOL    HW1 2786   2.343   2.423   2.825 -2.5202  0.1311 -0.4353
  929SOL    HW2 2787   2.459   2.482   2.722  2.0050  1.6227 -1.7059
  930SOL     OW 2788   2.218   1.980   1.088  0.1942  0.1803  0.2900
  930SOL    HW1 2789   2.215   1.952   1.191 -1.0009  2.0010 -0.2595
  930SOL    HW2 2790   2.292   2.057   1.075 -0.2074 -0.9705  1.6095
  931SOL     OW 2791   0.553   1.723   2.604  0.2590 -0.1203 -0.0638
  931SOL    HW1 2792   0.620   1.712   2.686  0.9213  0.9974  0.4783
  931SOL    HW2 2793   0.516   1.639   2.552 -3.3903  0.4277  0.1944
  932SOL     OW 2794   0.465   0.097   2.949 -0.1680 -0.1332 -0.1390
  932SOL    HW1 2795   0.552   0.140   2.911 -0.0974  2.7247  0.4150
  932SOL    HW2 2796   0.472  -0.004   2.981 -1.0008  1.3391 -0.2269
  933SOL     OW 2797   1.050   0.791   2.992  0.6304 -0.7822  0.3198
  933SOL    HW1 2798   1.087   0.801   3.085 -0.7979  1.5663  1.9292
  933SOL    HW2 2799   1.023   0.879   2.948 -2.2539 -0.6893  1.4821
  934SOL     OW 2800   0.834   2.983   2.729 -0.6067  0.0116  0.7863
  934SOL    HW1 2801   0.849   2.899   2.664 -1.1540 -2.8815  1.0880
  934SOL    HW2 2802   0.854   2.951   2.826  1.4669 -1.6852 -1.3528
  935SOL     OW 2803   3.084   0.496   0.837 -0.0807 -0.0152  0.7331
  935SOL    HW1 2804   3.117   0.451   0.745 -1.5229  1.2020  2.5005
  935SOL    HW2 2805   2.997   0.544   0.822  1.3254 -1.4259  0.2256
  936SOL     OW 2806   1.068   2.941   0.169 -0.2298  0.5620 -0.4435
  936SOL    HW1 2807   1.138   2.994   0.113 -0.8476  1.5720  0.7179
  936SOL    HW2 2808   1.100   2.849   0.200  0.2274 -2.0401  2.1981
  937SOL     OW 2809   1.919   2.626   2.084  0.4001  0.0792 -0.8195
  937SOL    HW1 2810   1.840   2.674   2.131 -0.5100 -1.2186  0.7336
  937SOL    HW2 2811   1.937   2.648   1.983 -0.1222  1.4849  0.9825
  938SOL     OW 2812   2.798   2.161   1.477 -0.0244 -0.0772 -0.3181
  938SOL    HW1 2813   2.752   2.235   1.540 -1.3020  0.6570  0.3869
  938SOL    HW2 2814   2.873   2.111   1.531 -1.3309 -1.5449  1.3594
  939SOL     OW 2815   2.795   1.078   2.491  0.0506 -0.3292  0.4003
  939SOL    HW1 2816   2.846   0.990   2.471  2.3569 -0.3652 -3.0711
  939SOL    HW2 2817   2.807   1.105   2.589  1.7513 -0.3704 -0.7878
  940SOL     OW 2818   1.061   0.489   2.640 -0.2147 -0.3469 -0.0925
  940SOL    HW1 2819   1.126   0.421   2.671  1.1371  3.2159 -1.0595
  940SOL    HW2 2820   0.968   0.479   2.670  4.0917 -3.5604 -1.1429
  941SOL     OW 2821   0.062   2.841   2.204 -0.1964  0.3255 -0.4908
  941SOL    HW1 2822   0.039   2.744   2.178 -1.9622 -3.2689 -0.5080
  941SOL    HW2 2823   0.108   2.846   2.298 -1.7605 -0.1187  1.6288
  942SOL     OW 2824   0.052   0.069   2.512  0.1390  0.2771  0.1057
  942SOL    HW1 2825   0.139   0.078   2.573  1.3767  0.8236  0.3496
  942SOL    HW2 2826   0.025   0.164   2.481  0.3731 -1.2405  1.3699
  943SOL     OW 2827   2.076   1.578   2.424 -0.1977 -0.0761 -0.5720
  943SOL    HW1 2828   2.115   1.542   2.336 -2.6061  0.6237  3.2567
  943SOL    HW2 2829   2.108   1.534   2.510  2.0581  2.1343 -2.9804
  944SOL     OW 2830   2.154   2.417   1.478 -0.0868  0.1031  0.2900
  944SOL    HW1 2831   2.238   2.452   1.516 -2.5062 -0.2213  2.3074
  944SOL    HW2 2832   2.121   2.328   1.521 -0.0266  0.9342 -2.4323
  945SOL     OW 2833   0.574   1.428   0.367  0.5592 -0.2318 -0.5180
  945SOL    HW1 2834   0.626   1.473   0.292 -0.5744 -1.5839 -1.0771
  945SOL    HW2 2835   0.610   1.334   0.384 -1.1487  1.2937  0.0806
  946SOL     OW 2836   0.406   1.010   2.538 -0.4660 -0.0397  0.0076
  946SOL    HW1 2837   0.330   0.955   2.492 -1.6003  2.1321 -2.6808
  946SOL    HW2 2838   0.374   1.101   2.587 -2.0157 -0.4047 -1.3961
  947SOL     OW 2839   1.477   0.510   0.121 -0.0904 -0.5503  0.0390
  947SOL    HW1 2840   1.412   0.565   0.057 -1.6704  1.5608  2.1795
  947SOL    HW2 2841   1.428   0.440   0.174  2.3812  0.1981 -0.4234
  948SOL     OW 2842   1.943   3.081   2.196  0.0381 -0.1990  0.3419
  948SOL    HW1 2843   1.935   3.073   2.090 -2.4828  3.3212 -0.8544
  948SOL    HW2 2844   1.944   2.992   2.248  0.0957  3.0823 -0.9071
  949SOL     OW 2845   0.624   2.536   0.483  0.0068 -0.2922 -0.2778
  949SOL    HW1 2846   0.629   2.634   0.450 -0.2052  0.4039 -0.0688
  949SOL    HW2 2847   0.640   2.532   0.585  1.3358  1.8365  0.0016
  950SOL     OW 2848   0.306   2.105   3.073  0.1477 -0.8591 -0.2843
  950SOL    HW1 2849   0.223   2.164   3.045  1.2689 -0.0300 -2.1337
  950SOL    HW2 2850   0.296   2.005   3.052 -2.5062  0.7945 -0.9507
  951SOL     OW 2851   1.198   2.794   2.766  0.4677 -0.5729  0.2603
  951SOL    HW1 2852   1.194   2.819   2.667 -0.9107  0.5639  3.5109
  951SOL    HW2 2853   1.290   2.790   2.806  0.6138  0.9330 -2.0989
  952SOL     OW 2854   0.108   1.647   0.464 -0.5100  0.2019 -0.2456
  952SOL    HW1 2855   0.170   1.726   0.457  0.9175 -0.4252  0.6110
  952SOL    HW2 2856   0.077   1.630   0.561 -0.4627  1.2070  4.1385
  953SOL     OW 2857   2.591   1.768   0.185 -0.2834 -0.8290 -0.7472
  953SOL    HW1 2858   2.565   1.674   0.214  0.8805  1.7510 -1.2495
  953SOL    HW2 2859   2.578   1.789   0.087 -1.0242 -0.5127 -2.6130
  954SOL     OW 2860   2.148   0.556   1.002 -0.4150 -0.4392  0.6214
  954SOL    HW1 2861   2.119   0.581   0.904  0.5404  0.5188  3.8996
  954SOL    HW2 2862   2.238   0.504   1.005 -1.0862 -1.1022 -1.9411
  955SOL     OW 2863   0.283   2.671   1.299 -0.0427  0.4975 -0.0702
  955SOL    HW1 2864   0.186   2.644   1.309  1.3048 -1.2935 -1.4496
  955SOL    HW2 2865   0.309   2.675   1.198 -0.2920  1.0764 -1.7241
  956SOL     OW 2866   2.771   2.450   2.500 -0.4962  0.3808  0.4320
  956SOL    HW1 2867   2.787   2.342   2.510 -0.5645 -3.5951 -1.9069
  956SOL    HW2 2868   2.789   2.486   2.403  0.9085  0.6484  2.5661
  957SOL     OW 2869   1.540   2.027   2.703 -0.3479  0.4798 -0.6043
  957SOL    HW1 2870   1.559   1.931   2.736  4.7259  0.2023 -0.7895
  957SOL    HW2 2871   1.575   2.049   2.607  1.5849  0.1250 -0.2740
  958SOL     OW 2872   2.648   2.341   2.990 -0.4455  0.1026  0.2938
  958SOL    HW1 2873   2.568   2.373   2.941  3.0398 -0.8959  0.6424
  958SOL    HW2 2874   2.628   2.255   3.045  3.1747 -1.0941 -1.1313
  959SOL     OW 2875   0.289   2.793   0.014 -0.5136  0.3947 -0.6358
  959SOL    HW1 2876   0.190   2.776   0.040 -1.7927  0.8998 -1.5195
  959SOL    HW2 2877   0.355   2.724   0.060  2.5495  0.9815  2.6799
  960SOL     OW 2878   1.985   0.500   1.925  0.1645  0.1209 -0.4421
  960SOL    HW1 2879   1.918   0.578   1.894 -0.6117 -2.3597 -0.8159
  960SOL    HW2 2880   1.990   0.496   2.028  1.8821  3.4799 -0.6172
  961SOL     OW 2881   2.577   1.821   1.077 -0.1315  0.1707  0.5463
  961SOL    HW1 2882   2.543   1.896   1.012  0.5691  1.0272 -2.1130
  961SOL    HW2 2883   2.623   1.850   1.164  3.0697 -1.1009  0.9429
  962SOL     OW 2884   1.276   0.904   0.059 -0.4480  0.0996  0.1037
  962SOL    HW1 2885   1.253   0.939  -0.031 -0.2964  0.2086  1.9480
  962SOL    HW2 2886   1.293   0.977   0.133 -0.5880  2.0915 -1.8424
  963SOL     OW 2887   2.313   2.625   1.865  0.3020 -0.1048 -1.0521
  963SOL    HW1 2888   2.326   2.546   1.933 -0.3285  1.1730  1.1098
  963SOL    HW2 2889   2.304   2.716   1.918  0.1539  1.2054  0.5291
  964SOL     OW 2890   2.433   0.368   1.651  0.3110  0.4769 -0.2044
  964SOL    HW1 2891   2.523   0.412   1.689  0.4908 -2.4811  1.8803
  964SOL    HW2 2892   2.432   0.386   1.545  2.3420  3.5807 -0.9177
  965SOL     OW 2893   2.621   2.994   0.184  0.0176 -0.2251  0.1888
  965SOL    HW1 2894   2.682   2.926   0.130  1.5229  0.4768  0.1123
  965SOL    HW2 2895   2.536   3.036   0.135  4.8468 -1.3368  1.9063
  966SOL     OW 2896   2.554   2.582   2.223  0.5321  0.2957 -0.3298
  966SOL    HW1 2897   2.463   2.536   2.207 -0.3101  1.7405 -1.7972
  966SOL    HW2 2898   2.542   2.676   2.274  0.0968  0.6970 -1.0431
  967SOL     OW 2899   2.760   2.788   2.446  0.3945  0.1763 -0.3312
  967SOL    HW1 2900   2.803   2.724   2.374 -0.5563 -0.2098 -1.0305
  967SOL    HW2 2901   2.807   2.876   2.461 -0.9259 -3.5554 -0.9245
  968SOL     OW 2902   2.019   1.072   2.685  0.4639 -0.0722 -0.8045
  968SOL    HW1 2903   1.966   1.153   2.645 -1.9469 -0.6075  1.0943
  968SOL    HW2 2904   1.987   0.990   2.636  1.8607  3.7936  2.0210
  969SOL     OW 2905   2.752   2.337   1.123 -0.2716  0.0024 -0.2205
  969SOL    HW1 2906   2.708   2.325   1.031  0.7261  0.7770  0.0458
  969SOL    HW2 2907   2.832   2.273   1.138 -2.6956 -2.6399  0.7313
  970SOL     OW 2908   1.107   2.184   1.767 -0.0108  0.8958 -0.6695
  970SOL    HW1 2909   1.008   2.192   1.746  0.6274 -1.6482 -1.9910
  970SOL    HW2 2910   1.133   2.184   1.868 -0.7555 -2.1796 -0.9979
  971SOL     OW 2911   2.828   2.070   1.922  0.0945  0.7027  0.3686
  971SOL    HW1 2912   2.830   2.154   1.983  0.5618 -0.0325 -1.5515
  971SOL    HW2 2913   2.856   2.084   1.823 -1.7033 -1.2809  0.6270
  972SOL     OW 2914   2.030   2.384   0.265 -0.5627 -0.0423  0.0100
  972SOL    HW1 2915   1.986   2.298   0.223 -0.5085  0.5904 -1.6210
  972SOL    HW2 2916   2.030   2.382   0.373 -4.7889  0.0071  1.7185
  973SOL     OW 2917   1.227   1.069   1.973  0.0092 -0.0745  0.3792
  973SOL    HW1 2918   1.182   1.067   1.882  0.5025 -0.4982  0.2225
  973SOL    HW2 2919   1.239   1.172   1.991 -1.1154  1.1304  1.6971
  974SOL     OW 2920   1.639   0.562   1.901  0.4547 -0.4426 -0.2559
  974SOL    HW1 2921   1.727   0.615   1.907 -0.6913 -0.4445  0.8058
  974SOL    HW2 2922   1.551   0.622   1.923  0.3436 -0.7036 -2.3165
  975SOL     OW 2923   2.337   3.053   3.090 -0.3606  0.1080 -0.1097
  975SOL    HW1 2924   2.296   2.961   3.103 -1.4490 -2.5910  1.7817
  975SOL    HW2 2925   2.370   3.066   2.991  0.2761 -0.9719 -0.9578
  976SOL     OW 2926   1.938   2.865   2.358 -0.3820  0.4227 -0.2835
  976SOL    HW1 2927   1.855   2.815   2.336  3.9291 -0.4459  0.4372
  976SOL    HW2 2928   1.955   2.873   2.459 -0.0234  1.4274  2.5595
  977SOL     OW 2929   0.494   0.650   1.041  0.4623  0.7830 -0.0084
  977SOL    HW1 2930   0.400   0.661   0.985  0.5061  0.9700 -3.0831
  977SOL    HW2 2931   0.568   0.607   0.983 -0.9557 -0.0086 -0.5600
   3.10000   3.10000   3.10000
