1000 SPC/Fw water molecules t=   1.94000 step= 1940
 2931
    1SOL     OW    1   2.534   0.273   2.714 -0.1000 -0.1089  0.3895
    1SOL    HW1    2   2.588   0.184   2.694  1.0127 -3.1643 -2.1408
    1SOL    HW2    3   2.569   0.320   2.801  0.6990  1.2846 -0.5463
    2SOL     OW    4   2.794   2.788   1.271  0.4194 -0.6091 -0.3142
    2SOL    HW1    5   2.877   2.833   1.228 -2.3042  0.5116  0.7755
    2SOL    HW2    6   2.790   2.800   1.374  1.8489 -1.0043 -2.7591
    3SOL     OW    7   2.767   2.428   0.465  0.3466  0.2431  0.1417
    3SOL    HW1    8   2.670   2.393   0.441  2.5879 -4.5163  2.9969
    3SOL    HW2    9   2.753   2.507   0.531 -0.5932 -0.3582 -1.4063
    4SOL     OW   10   1.196   1.545   2.425 -0.3646 -0.1211 -0.6936
    4SOL    HW1   11   1.151   1.586   2.342 -0.0989  1.7557 -1.5102
    4SOL    HW2   12   1.173   1.446   2.433  1.2922  0.2331  1.3027
    5SOL     OW   13   1.152   1.568   2.906 -0.0117 -0.0278  0.1506
    5SOL    HW1   14   1.172   1.659   2.947  0.8114  2.2823  0.1861
    5SOL    HW2   15   1.065   1.569   2.851 -0.5527  0.0058 -2.8793
    6SOL     OW   16   0.185   1.868   0.016 -0.2248 -0.2007  0.3037
    6SOL    HW1   17   0.092   1.886   0.062  2.9426 -0.5322  1.2593
    6SOL    HW2   18   0.242   1.793   0.060 -0.5403  4.2937 -1.3048
    7SOL     OW   19   2.555   0.864   1.063 -0.0033  0.2609 -0.1025
    7SOL    HW1   20   2.473   0.805   1.100  0.3376 -2.6130 -0.1640
    7SOL    HW2   21   2.605   0.809   0.991  2.1693 -0.3241  4.3036
    8SOL     OW   22   0.472   0.728   1.475  0.0089 -0.0326 -0.3307
    8SOL    HW1   23   0.570   0.743   1.505 -0.0915  0.4192 -0.4630
    8SOL    HW2   24   0.468   0.725   1.371  1.1155 -1.5102 -0.9297
    9SOL     OW   25   1.133   0.847   2.313 -0.1154 -0.4485 -0.6092
    9SOL    HW1   26   1.144   0.882   2.217 -1.2514 -0.7122  2.4922
    9SOL    HW2   27   1.082   0.761   2.305  0.1917 -0.3826  0.2905
   10SOL     OW   28   0.602   1.499   1.249 -0.2253  0.7454 -0.2270
   10SOL    HW1   29   0.506   1.487   1.207  0.6675  0.6719  1.7638
   10SOL    HW2   30   0.621   1.600   1.271  1.2791  2.5039 -0.3113
   11SOL     OW   31   2.343   2.824   0.933 -0.0777 -0.1514 -0.2805
   11SOL    HW1   32   2.289   2.799   1.018 -1.7120 -2.5676  2.1779
   11SOL    HW2   33   2.441   2.847   0.947 -2.3356 -0.9528 -0.3272
   12SOL     OW   34   1.428   0.828   0.528  0.1417  0.0343  0.6145
   12SOL    HW1   35   1.324   0.834   0.539  0.3843  0.5083 -1.3531
   12SOL    HW2   36   1.457   0.807   0.432 -4.9298 -3.2244  1.2570
   13SOL     OW   37   2.445   0.693   1.837  0.0082 -0.7296 -0.5841
   13SOL    HW1   38   2.356   0.662   1.882 -1.2137  0.9891 -2.8453
   13SOL    HW2   39   2.465   0.639   1.750  0.4044  2.2973  2.3119
   14SOL     OW   40   1.937   3.030   0.661  0.5388  0.0751  0.6962
   14SOL    HW1   41   1.842   3.074   0.677  3.5634  1.2946 -0.5994
   14SOL    HW2   42   1.980   2.995   0.752  0.8975  1.3883  2.8010
   15SOL     OW   43   1.858   2.093   2.638 -0.6647 -0.4702  0.1353
   15SOL    HW1   44   1.784   2.091   2.710  2.7708 -1.8332  0.2283
   15SOL    HW2   45   1.858   2.007   2.571 -0.0797  0.6623 -0.2501
   16SOL     OW   46   1.541   1.739   2.993 -0.2541 -0.4336  0.0368
   16SOL    HW1   47   1.523   1.649   3.044 -2.2426 -1.8002 -3.2693
   16SOL    HW2   48   1.628   1.790   3.012 -0.6268  0.3044  0.0022
   17SOL     OW   49   0.058   0.467   0.189  0.0113  0.0029 -0.9280
   17SOL    HW1   50   0.156   0.467   0.157 -1.0260 -0.8243  1.6108
   17SOL    HW2   51  -0.014   0.480   0.120  0.1817  1.8454  0.6300
   18SOL     OW   52   0.869   2.832   2.234  0.4166  0.1799 -0.1130
   18SOL    HW1   53   0.814   2.765   2.292  0.1861 -0.9652  0.0938
   18SOL    HW2   54   0.883   2.790   2.139  0.5853 -1.4629 -0.7054
   19SOL     OW   55   0.524   0.931   1.919  1.2250  0.5393 -0.2892
   19SOL    HW1   56   0.564   0.875   1.994 -0.1706  0.6781 -0.6518
   19SOL    HW2   57   0.580   1.011   1.889 -1.6882 -0.6604 -0.1491
   20SOL     OW   58   0.223   2.764   0.769  0.9487 -1.1371  0.2969
   20SOL    HW1   59   0.119   2.787   0.763 -3.3870  0.3284 -0.5569
   20SOL    HW2   60   0.262   2.701   0.699 -0.8761  0.6712  0.5952
   21SOL     OW   61   2.828   0.292   1.972 -0.1961 -0.0112 -0.0147
   21SOL    HW1   62   2.752   0.225   1.970  2.0992  1.1076 -1.0861
   21SOL    HW2   63   2.907   0.261   2.032 -1.3442  0.5062  1.1038
   22SOL     OW   64   2.420   0.209   0.060  0.0121  0.4864 -0.2150
   22SOL    HW1   65   2.454   0.120   0.020  1.7245  1.5901  1.9799
   22SOL    HW2   66   2.346   0.258   0.015 -2.0022 -0.1818 -0.7727
   23SOL     OW   67   2.808   0.513   0.672  0.0779  0.3421  0.0109
   23SOL    HW1   68   2.889   0.470   0.636 -0.9380  2.5849  1.0165
   23SOL    HW2   69   2.804   0.612   0.653  0.1137 -0.4765  2.3516
   24SOL     OW   70   0.272   1.899   0.428 -0.3123 -0.2941 -0.4367
   24SOL    HW1   71   0.272   1.996   0.402 -1.6929 -1.7941  1.1160
   24SOL    HW2   72   0.361   1.847   0.411  0.8084 -1.4452 -1.4820
   25SOL     OW   73   2.293   0.577   0.261 -0.0213 -0.2749  0.4897
   25SOL    HW1   74   2.287   0.600   0.159 -2.1210  1.8051  1.2388
   25SOL    HW2   75   2.345   0.491   0.274 -2.6823  0.3316 -3.4551
   26SOL     OW   76   2.450   2.152   2.145 -0.4262  0.2714 -0.0352
   26SOL    HW1   77   2.529   2.213   2.164 -3.1221 -1.6697  2.6619
   26SOL    HW2   78   2.464   2.083   2.068  0.1456 -0.1152  2.1047
   27SOL     OW   79   0.638   3.032   0.170 -0.0787  0.8894 -1.0009
   27SOL    HW1   80   0.725   3.070   0.129 -0.3103  1.2281  1.8791
   27SOL    HW2   81   0.573   2.996   0.091 -1.7819 -4.2679  1.0292
   28SOL     OW   82   1.573   0.173   0.341  0.1305 -0.2002  0.1512
   28SOL    HW1   83   1.615   0.147   0.252  0.1400  1.1015  0.1702
   28SOL    HW2   84   1.630   0.246   0.396  2.8963  1.5896  0.1794
   29SOL     OW   85   2.003   0.547   0.312 -0.1300  0.0021  0.2013
   29SOL    HW1   86   1.985   0.625   0.376 -1.3421 -0.3847  0.8712
   29SOL    HW2   87   2.097   0.547   0.269  1.6861 -2.1473 -2.6975
   30SOL     OW   88   0.185   2.098   0.897 -0.2730 -0.3944  0.1666
   30SOL    HW1   89   0.179   2.029   0.820  0.3457 -2.3090  2.5724
   30SOL    HW2   90   0.099   2.153   0.904  0.9942 -2.4760  0.9510
   31SOL     OW   91   2.091   0.099   2.368 -0.2227  0.1011  0.1207
   31SOL    HW1   92   2.059   0.062   2.462  0.8049 -1.7772  1.2203
   31SOL    HW2   93   2.022   0.083   2.290  1.9297 -2.2865 -0.5412
   32SOL     OW   94   3.082   3.068   0.229  0.6208  0.5491 -0.0812
   32SOL    HW1   95   3.056   2.967   0.249 -0.9033  3.2470 -0.6166
   32SOL    HW2   96   3.177   3.074   0.187 -1.9575 -2.1652  0.1285
   33SOL     OW   97   0.877   0.253   0.661  0.0229 -0.7969 -0.0147
   33SOL    HW1   98   0.887   0.191   0.576 -0.2812  0.3496  1.9991
   33SOL    HW2   99   0.961   0.307   0.677 -1.3914 -0.1683 -0.4041
   34SOL     OW  100   0.351   2.655   0.990  0.2579  0.1044 -0.5738
   34SOL    HW1  101   0.315   2.685   0.893  0.2268  0.9461 -0.6492
   34SOL    HW2  102   0.412   2.731   1.027  1.4279 -0.3955 -0.6607
   35SOL     OW  103   0.111   0.206   1.921  0.2965  0.2443  0.5686
   35SOL    HW1  104   0.128   0.105   1.946 -1.7719  1.1685  2.5614
   35SOL    HW2  105   0.054   0.229   1.835  2.2153  0.8524 -2.8643
   36SOL     OW  106   1.838   1.241   1.482 -0.7844  0.6007  0.4480
   36SOL    HW1  107   1.916   1.175   1.510 -0.8354 -0.0892  1.1577
   36SOL    HW2  108   1.869   1.312   1.418 -1.7302 -1.3571 -1.2436
   37SOL     OW  109   1.164   0.245   0.988  0.0235 -0.3519 -0.3167
   37SOL    HW1  110   1.180   0.347   0.986 -0.3607  0.5539  0.3203
   37SOL    HW2  111   1.236   0.196   0.930 -0.9774  1.0413  0.7347
   38SOL     OW  112   1.127   2.804   2.471  0.4360 -0.3645  0.5631
   38SOL    HW1  113   1.026   2.773   2.472  1.6010  0.2903 -3.4248
   38SOL    HW2  114   1.132   2.901   2.434  0.4370 -1.4104 -1.8185
   39SOL     OW  115   2.485   1.411   3.033  0.7199  0.0478  0.7965
   39SOL    HW1  116   2.527   1.316   3.015 -0.3165 -0.2689  0.2388
   39SOL    HW2  117   2.398   1.401   3.090  2.3307 -0.8970 -0.6906
   40SOL     OW  118   2.039   2.502   2.569 -0.0023 -0.0223  0.3099
   40SOL    HW1  119   1.998   2.595   2.592  0.4776  1.5238  1.0035
   40SOL    HW2  120   1.979   2.428   2.518 -1.3240  1.2457  1.5166
   41SOL     OW  121   3.024   0.704   2.806  0.1424  0.2715  0.0567
   41SOL    HW1  122   3.017   0.794   2.860  0.1451  0.0139 -0.1999
   41SOL    HW2  123   2.936   0.651   2.796 -2.2458 -0.7021  0.8616
   42SOL     OW  124   1.765   1.730   0.459  0.5776 -0.5687 -0.3838
   42SOL    HW1  125   1.729   1.631   0.467  1.3661 -0.5745  0.2548
   42SOL    HW2  126   1.751   1.770   0.364  0.5365  0.0062  0.1861
   43SOL     OW  127   0.425   1.796   1.135  0.2609  0.7097  0.4982
   43SOL    HW1  128   0.390   1.793   1.037 -2.1986  3.9408 -1.4523
   43SOL    HW2  129   0.348   1.812   1.202 -1.5450  0.0275 -2.8308
   44SOL     OW  130   1.712   2.389   2.969  0.1871  0.5225  0.2954
   44SOL    HW1  131   1.638   2.455   3.000  1.0010 -0.3485 -0.0867
   44SOL    HW2  132   1.730   2.394   2.865  0.4889 -1.5917 -0.7844
   45SOL     OW  133   0.356   1.936   2.619 -0.0936  0.3599  0.6879
   45SOL    HW1  134   0.280   1.906   2.553  1.4494  0.0030  0.0319
   45SOL    HW2  135   0.435   1.871   2.603 -0.4816 -1.8535  0.0093
   46SOL     OW  136   1.299   0.737   0.226 -0.4763  0.3962 -0.5130
   46SOL    HW1  137   1.270   0.833   0.214 -0.2340 -0.7073 -0.5330
   46SOL    HW2  138   1.233   0.669   0.191  1.4501  3.2509  1.5289
   47SOL     OW  139   0.169   2.344   1.612  0.0807  0.2159  0.0635
   47SOL    HW1  140   0.094   2.282   1.648  1.8913 -1.3583  0.3865
   47SOL    HW2  141   0.160   2.352   1.507  2.8017  0.1354 -1.7346
   48SOL     OW  142   2.661   0.678   0.186  0.1512 -0.5395  1.0579
   48SOL    HW1  143   2.660   0.641   0.286  1.1496  1.0958  1.5224
   48SOL    HW2  144   2.753   0.715   0.151 -0.1646  0.5181  0.2443
   49SOL     OW  145   0.335   0.845   1.724 -0.1081 -0.4650 -0.3937
   49SOL    HW1  146   0.425   0.860   1.772  1.0051 -0.8145 -1.1194
   49SOL    HW2  147   0.351   0.812   1.625  1.9466  3.4245 -1.2578
   50SOL     OW  148   1.684   1.078   0.345  0.2035 -0.2503  0.3495
   50SOL    HW1  149   1.719   0.984   0.321  1.0406 -2.8392  2.4149
   50SOL    HW2  150   1.616   1.084   0.423  1.4151  0.1783  2.1689
   51SOL     OW  151   2.924   1.713   0.337 -0.0634  0.1224  0.9275
   51SOL    HW1  152   2.913   1.667   0.243 -0.3170 -1.1666  1.0403
   51SOL    HW2  153   3.011   1.682   0.382 -4.1530 -1.6991  1.1455
   52SOL     OW  154   0.803   2.178   0.555  0.2133 -0.3118  0.0544
   52SOL    HW1  155   0.709   2.173   0.509 -0.7153 -0.4589 -1.6574
   52SOL    HW2  156   0.813   2.122   0.640  1.6777 -1.7078 -0.5764
   53SOL     OW  157   0.302   0.503   1.501  0.1397  0.7729  0.5191
   53SOL    HW1  158   0.377   0.571   1.518 -0.8273  0.6080  0.8261
   53SOL    HW2  159   0.242   0.521   1.422  0.7165  0.6360  0.5475
   54SOL     OW  160   1.788   0.438   3.088 -0.1760 -0.1538 -0.4957
   54SOL    HW1  161   1.866   0.385   3.132  0.9503  0.3859 -2.1348
   54SOL    HW2  162   1.704   0.434   3.146 -0.0222  0.5417  0.4317
   55SOL     OW  163   0.759   2.896   0.617 -0.9759 -0.0976 -0.5658
   55SOL    HW1  164   0.707   2.989   0.608 -4.0599 -1.5081  2.3633
   55SOL    HW2  165   0.864   2.906   0.625 -1.2209 -0.3627  0.3545
   56SOL     OW  166   0.517   1.615   3.065  0.0930  0.4572  0.2307
   56SOL    HW1  167   0.434   1.638   3.124  1.2831 -0.6276 -0.0426
   56SOL    HW2  168   0.484   1.542   2.997  1.9791 -1.2096 -1.7060
   57SOL     OW  169   1.688   2.470   2.384  0.4345 -0.1553 -0.1227
   57SOL    HW1  170   1.762   2.398   2.397 -0.8485 -2.2213  2.0515
   57SOL    HW2  171   1.616   2.470   2.460  1.1568  0.3914  0.0174
   58SOL     OW  172   0.660   0.164   1.073  0.6848 -0.2819 -0.3577
   58SOL    HW1  173   0.576   0.153   1.138 -1.4727 -0.7787 -1.2676
   58SOL    HW2  174   0.715   0.077   1.078  1.0302 -1.4137  1.8139
   59SOL     OW  175   0.453   2.377   2.573 -0.2343  0.4852 -0.3253
   59SOL    HW1  176   0.459   2.285   2.624 -0.3538  2.4316 -0.5295
   59SOL    HW2  177   0.542   2.432   2.582 -0.1498  1.3604 -0.3268
   60SOL     OW  178   2.331   2.061   2.370  0.2578  0.2849  0.3042
   60SOL    HW1  179   2.401   2.084   2.299  0.5422 -1.4041  0.2533
   60SOL    HW2  180   2.357   2.093   2.462 -0.9741 -2.6746 -0.7701
   61SOL     OW  181   1.193   0.643   0.497 -0.4437  0.3735  0.4807
   61SOL    HW1  182   1.094   0.669   0.485 -0.0258 -1.3191  1.3121
   61SOL    HW2  183   1.249   0.652   0.409  0.1303 -0.3035 -1.7186
   62SOL     OW  184   2.763   1.713   2.686 -0.4286  0.1685  0.1172
   62SOL    HW1  185   2.739   1.626   2.634 -1.6170  0.0977 -1.9286
   62SOL    HW2  186   2.857   1.710   2.726 -3.3073 -0.2508 -0.0661
   63SOL     OW  187   0.518   0.803   0.181 -0.4420 -0.6143 -0.9870
   63SOL    HW1  188   0.582   0.865   0.128 -1.0230  1.2987 -0.4774
   63SOL    HW2  189   0.537   0.802   0.287  0.9021  0.0256 -1.7068
   64SOL     OW  190   3.071   0.572   2.381  0.2452  0.7955  0.1127
   64SOL    HW1  191   3.009   0.590   2.459  0.0198  0.5356 -1.5873
   64SOL    HW2  192   3.037   0.607   2.291  1.2167 -1.2696  0.9465
   65SOL     OW  193   0.132   1.430   0.652 -0.3367 -0.2897  0.2988
   65SOL    HW1  194   0.097   1.506   0.716 -0.8263  0.2359 -0.4068
   65SOL    HW2  195   0.136   1.452   0.548 -0.4253 -1.5436 -1.6381
   66SOL     OW  196   2.599   0.311   0.512 -0.0937 -0.1910  0.0970
   66SOL    HW1  197   2.702   0.300   0.538 -2.2025  1.9810 -1.2325
   66SOL    HW2  198   2.533   0.284   0.586  1.6747  1.4418 -3.3402
   67SOL     OW  199   0.575   2.488   1.534  0.4961  0.0825 -0.0882
   67SOL    HW1  200   0.671   2.453   1.547 -2.2756  1.1537 -0.0520
   67SOL    HW2  201   0.512   2.411   1.497  0.0842 -3.7047  1.0351
   68SOL     OW  202   0.905   0.992   2.527  0.0062 -0.4831  0.0862
   68SOL    HW1  203   0.943   0.900   2.508  2.4767 -0.5486 -0.8664
   68SOL    HW2  204   0.912   1.052   2.443 -0.4061 -2.0306  0.2202
   69SOL     OW  205   0.695   2.596   2.304 -0.0000 -0.2894  0.3868
   69SOL    HW1  206   0.738   2.535   2.233 -1.9484  0.8421 -0.6460
   69SOL    HW2  207   0.600   2.625   2.280 -0.4477  4.0251 -2.2393
   70SOL     OW  208   0.541   0.148   2.578 -0.3882 -0.3783  0.2212
   70SOL    HW1  209   0.450   0.126   2.621  1.2805  0.2840  1.2927
   70SOL    HW2  210   0.622   0.087   2.606  0.7214 -0.9792 -0.0766
   71SOL     OW  211   1.087   1.806   0.324  0.3112  0.6747 -0.1393
   71SOL    HW1  212   1.005   1.779   0.384  0.1536 -1.7842 -1.7139
   71SOL    HW2  213   1.058   1.820   0.224 -0.6256  1.3342  0.8151
   72SOL     OW  214   1.826   0.208   2.137 -0.5420 -0.3451 -0.1642
   72SOL    HW1  215   1.866   0.303   2.103 -1.9009  4.1661 -0.0116
   72SOL    HW2  216   1.853   0.134   2.070 -1.2657  0.7078 -1.1559
   73SOL     OW  217   2.785   2.192   2.436  0.3544 -0.2801  0.1021
   73SOL    HW1  218   2.806   2.097   2.398  1.8468 -0.3179 -1.3162
   73SOL    HW2  219   2.835   2.201   2.525  3.9441 -2.7039 -3.4340
   74SOL     OW  220   2.688   3.006   2.114 -0.3376  0.2294 -0.4268
   74SOL    HW1  221   2.650   2.953   2.193  1.3387  3.3237 -0.0537
   74SOL    HW2  222   2.780   3.051   2.137 -2.1428 -1.2557 -3.3774
   75SOL     OW  223   0.920   0.809   1.115 -0.4400 -0.0902 -0.7670
   75SOL    HW1  224   0.816   0.825   1.121 -3.1239 -0.5859 -3.3069
   75SOL    HW2  225   0.969   0.837   1.199  0.0942 -1.0350 -2.4566
   76SOL     OW  226   1.816   1.269   2.581 -0.6146 -0.0247 -0.4432
   76SOL    HW1  227   1.742   1.211   2.631 -0.5765 -1.0677  3.8123
   76SOL    HW2  228   1.834   1.361   2.633  1.4693  1.8279  2.1519
   77SOL     OW  229   2.918   0.918   1.022 -0.7484  0.2158  0.0674
   77SOL    HW1  230   2.874   0.831   1.052 -1.2755  1.8479  1.5925
   77SOL    HW2  231   3.010   0.933   1.071  1.1398 -0.1915 -0.3367
   78SOL     OW  232   1.945   1.465   1.285  0.3357 -0.0780  0.3123
   78SOL    HW1  233   2.032   1.449   1.229  0.1703 -1.2473  1.5594
   78SOL    HW2  234   1.864   1.493   1.228 -0.9676 -0.4235  0.7725
   79SOL     OW  235   0.637   1.508   0.831 -0.2553  0.4564 -0.2341
   79SOL    HW1  236   0.537   1.499   0.865 -0.9198  0.5897  1.3093
   79SOL    HW2  237   0.678   1.413   0.817 -0.7022 -2.0848 -2.1315
   80SOL     OW  238   0.710   0.465   1.568  0.1394  0.0856 -0.3806
   80SOL    HW1  239   0.725   0.492   1.467  2.0427  1.6511  0.8927
   80SOL    HW2  240   0.682   0.367   1.576  0.6023  2.2551  1.8213
   81SOL     OW  241   1.055   1.299   2.431 -0.2125  0.1726 -0.7667
   81SOL    HW1  242   0.950   1.316   2.425 -0.0045 -2.6022 -2.1818
   81SOL    HW2  243   1.088   1.223   2.367  2.7930  1.2780  1.2294
   82SOL     OW  244   0.954   2.946   1.673 -0.1590  0.3244  0.5049
   82SOL    HW1  245   0.995   2.855   1.657  2.1395 -0.2555 -0.9550
   82SOL    HW2  246   0.914   2.990   1.590  2.0692 -1.2147  1.6944
   83SOL     OW  247   2.629   2.359   0.928 -0.4294  0.0734  0.8448
   83SOL    HW1  248   2.541   2.315   0.892 -1.7170 -3.5587  0.6567
   83SOL    HW2  249   2.634   2.462   0.917 -2.2924 -1.4632  3.6372
   84SOL     OW  250   0.792   3.096   2.334  0.4445  0.3366 -0.0781
   84SOL    HW1  251   0.750   3.070   2.421 -2.3326  1.7822 -0.3490
   84SOL    HW2  252   0.831   3.015   2.282  0.5364 -0.5482  0.3913
   85SOL     OW  253   0.257   1.691   1.366 -0.3271 -0.1684 -0.2617
   85SOL    HW1  254   0.249   1.780   1.423  1.4661  0.2294  0.2273
   85SOL    HW2  255   0.283   1.608   1.430 -0.9220  1.8890  1.5459
   86SOL     OW  256   0.480   1.068   1.396  0.0464  0.2310 -0.4480
   86SOL    HW1  257   0.459   1.048   1.299  2.0750 -2.9582  2.4322
   86SOL    HW2  258   0.514   0.979   1.441  2.1324  1.9776  0.3425
   87SOL     OW  259   1.588   0.680   0.350 -0.5207  0.1234 -0.3327
   87SOL    HW1  260   1.672   0.743   0.356 -1.8829  1.3843 -1.1209
   87SOL    HW2  261   1.586   0.632   0.259 -1.5205  0.1473  1.6739
   88SOL     OW  262   1.529   1.349   0.291 -0.1063 -0.6337 -0.1086
   88SOL    HW1  263   1.576   1.260   0.299 -3.0145  4.7562  1.2760
   88SOL    HW2  264   1.427   1.344   0.319 -0.9924  0.0463  0.0386
   89SOL     OW  265   3.065   0.365   0.628 -0.1398  0.2750 -0.3195
   89SOL    HW1  266   3.162   0.328   0.645  1.2976  0.8803 -3.0626
   89SOL    HW2  267   2.999   0.282   0.609  0.3348 -1.4393  2.7407
   90SOL     OW  268   0.752   1.581   0.160 -0.1734  0.2623  0.6851
   90SOL    HW1  269   0.849   1.554   0.136 -1.3072 -0.1638 -0.4890
   90SOL    HW2  270   0.688   1.595   0.079 -2.1275  1.9789  2.1930
   91SOL     OW  271   1.277   1.521   1.676  0.3529 -0.2282  0.1072
   91SOL    HW1  272   1.250   1.576   1.758 -1.1495 -0.0928  0.9306
   91SOL    HW2  273   1.365   1.470   1.682  1.5359 -1.7836  0.1719
   92SOL     OW  274   0.081   0.954   1.148 -0.1940 -1.0212  0.0075
   92SOL    HW1  275   0.124   1.046   1.123  0.8574  1.3665 -0.3021
   92SOL    HW2  276   0.080   0.945   1.253 -0.6570 -0.3736  4.1589
   93SOL     OW  277   3.028   2.681   0.056  0.0324  0.1618 -0.5953
   93SOL    HW1  278   2.994   2.665  -0.037 -1.5401 -1.2403  0.2630
   93SOL    HW2  279   3.072   2.596   0.093  2.7738 -0.2959 -0.4412
   94SOL     OW  280   1.548   1.451   1.611 -0.2401  0.6536 -0.2805
   94SOL    HW1  281   1.593   1.373   1.659  0.3831 -0.9770 -0.5455
   94SOL    HW2  282   1.607   1.491   1.541 -1.8114  1.3209 -1.1423
   95SOL     OW  283   1.439   2.469   2.916  0.6101  0.1817 -0.3160
   95SOL    HW1  284   1.366   2.514   2.976  2.3095 -1.1560  0.8645
   95SOL    HW2  285   1.409   2.376   2.880 -2.2115 -1.3737 -0.3384
   96SOL     OW  286   0.592   2.137   1.269 -0.1863 -0.3080 -0.4023
   96SOL    HW1  287   0.557   2.099   1.177 -0.5106 -2.2108 -0.0603
   96SOL    HW2  288   0.623   2.065   1.335  1.4937  1.4692  0.1671
   97SOL     OW  289   0.298   1.614   2.417  0.4421 -0.1071  0.0110
   97SOL    HW1  290   0.308   1.706   2.368  0.3169  2.6529  0.4426
   97SOL    HW2  291   0.253   1.624   2.509 -0.7293  0.0103  0.7968
   98SOL     OW  292   2.274   1.686   1.193  0.2030 -0.0892 -0.6678
   98SOL    HW1  293   2.257   1.587   1.167  0.2137  0.7764  0.8652
   98SOL    HW2  294   2.365   1.729   1.154 -0.0976  3.3735  0.7587
   99SOL     OW  295   2.596   2.106   1.280 -0.1839  0.6995 -0.2653
   99SOL    HW1  296   2.656   2.149   1.355 -0.8565 -1.4837  1.6760
   99SOL    HW2  297   2.526   2.042   1.315 -2.3487 -1.1928 -0.2948
  100SOL     OW  298   2.330   0.389   2.130 -0.0810  0.3147  0.8781
  100SOL    HW1  299   2.271   0.368   2.214  0.8076  2.0607 -1.3621
  100SOL    HW2  300   2.428   0.399   2.156 -0.3674 -0.1700  0.2153
  101SOL     OW  301   0.362   1.473   0.442  0.9604 -0.2756  1.2604
  101SOL    HW1  302   0.341   1.572   0.472 -0.9154 -1.7281 -1.2467
  101SOL    HW2  303   0.467   1.461   0.435 -0.5713  0.5755 -3.8108
  102SOL     OW  304   2.309   1.059   0.870  0.7360  0.4582 -1.0086
  102SOL    HW1  305   2.289   0.956   0.865 -1.0140 -3.3622 -0.3207
  102SOL    HW2  306   2.365   1.092   0.788 -2.2306  0.8888  0.6570
  103SOL     OW  307   2.256   0.060   0.331  0.2902 -0.0079 -0.1080
  103SOL    HW1  308   2.306   0.152   0.339  2.0147  2.9349 -1.6002
  103SOL    HW2  309   2.300  -0.013   0.381 -1.1211  2.2820  2.9539
  104SOL     OW  310   0.046   1.830   2.180  0.2120  0.3145 -0.6289
  104SOL    HW1  311   0.093   1.794   2.092  1.0753  0.3880  1.8341
  104SOL    HW2  312  -0.056   1.843   2.174 -2.0099 -0.2948  1.7309
  105SOL     OW  313   1.242   2.101   0.795 -0.7446  0.1905  0.0854
  105SOL    HW1  314   1.168   2.126   0.858 -0.5611  2.4478  0.9800
  105SOL    HW2  315   1.261   2.000   0.787 -2.3023  0.3610 -1.6998
  106SOL     OW  316   2.137   0.405   1.474  0.1067  0.0953  0.3781
  106SOL    HW1  317   2.053   0.350   1.443 -0.5680  0.7371 -0.1092
  106SOL    HW2  318   2.131   0.435   1.575 -1.2966  0.8087  3.0823
  107SOL     OW  319   1.929   2.939   1.204 -0.4282  0.6736  0.6645
  107SOL    HW1  320   1.858   3.009   1.237  0.6811 -0.8587 -0.9349
  107SOL    HW2  321   1.893   2.853   1.151  0.7602 -0.5437 -0.8289
  108SOL     OW  322   0.900   2.781   1.082 -0.1606 -0.4200  0.0758
  108SOL    HW1  323   0.897   2.687   1.039 -2.4383 -0.3353  0.5591
  108SOL    HW2  324   0.994   2.800   1.129  1.7447  2.0356 -1.7232
  109SOL     OW  325   2.187   0.094   0.755 -0.5868 -0.4065  0.3031
  109SOL    HW1  326   2.102   0.055   0.712  0.8165 -1.2628  1.1115
  109SOL    HW2  327   2.166   0.137   0.849 -0.1930 -2.2093  2.2082
  110SOL     OW  328   0.497   2.817   2.816 -0.2101 -0.3343  0.2533
  110SOL    HW1  329   0.492   2.815   2.711 -2.4350  0.4870  0.4871
  110SOL    HW2  330   0.543   2.732   2.859 -1.9174  0.1643 -0.5103
  111SOL     OW  331   1.331   0.612   2.358  0.4154 -0.8063 -0.4037
  111SOL    HW1  332   1.229   0.613   2.381  1.9455  0.7363 -2.7190
  111SOL    HW2  333   1.382   0.523   2.381  0.8013 -1.4789  0.5002
  112SOL     OW  334   1.753   0.556   1.507  0.5030  0.6268 -0.6301
  112SOL    HW1  335   1.748   0.592   1.415 -2.4061 -4.7718  1.5973
  112SOL    HW2  336   1.660   0.544   1.551 -1.5688  1.3126  1.7442
  113SOL     OW  337   2.289   1.705   1.773  0.5284  0.0774  0.0120
  113SOL    HW1  338   2.321   1.619   1.722 -0.0833  2.4439  0.5120
  113SOL    HW2  339   2.303   1.703   1.877 -0.5592 -1.5805  2.3145
  114SOL     OW  340   0.330   0.443   1.179  0.2402  0.1360  0.0375
  114SOL    HW1  341   0.265   0.512   1.213  1.2640 -1.8578  2.0665
  114SOL    HW2  342   0.403   0.473   1.109  2.5325  0.3807 -2.9861
  115SOL     OW  343   2.724   1.582   1.257  0.2881 -0.3291 -0.7162
  115SOL    HW1  344   2.688   1.487   1.241  2.0753  1.1401  0.7423
  115SOL    HW2  345   2.824   1.589   1.237 -1.1587 -1.1337  0.0719
  116SOL     OW  346   1.879   0.929   0.678 -0.0992 -0.2758  0.4308
  116SOL    HW1  347   1.782   0.900   0.680  2.6274  1.5235 -0.9990
  116SOL    HW2  348   1.883   1.026   0.645  1.1895 -0.7230  0.2092
  117SOL     OW  349   1.112   0.385   0.549  0.4869  0.3079  0.3047
  117SOL    HW1  350   1.141   0.486   0.559  1.0625 -1.6357  1.2010
  117SOL    HW2  351   1.078   0.378   0.450 -0.8584 -1.0166  1.5473
  118SOL     OW  352   1.127   1.229   1.130 -0.4391  0.0067  0.2398
  118SOL    HW1  353   1.101   1.153   1.196 -0.1696  0.9935 -2.3497
  118SOL    HW2  354   1.164   1.314   1.172 -1.5114 -0.0001  0.1864
  119SOL     OW  355   1.914   1.623   2.224 -0.4552  0.3972 -0.6367
  119SOL    HW1  356   1.845   1.699   2.195 -1.5890 -0.2400 -3.3072
  119SOL    HW2  357   1.954   1.578   2.141  1.5363 -2.4996  1.8959
  120SOL     OW  358   2.954   2.823   0.285 -0.6309 -0.0445  0.0137
  120SOL    HW1  359   2.968   2.772   0.192  2.1127 -0.0962  2.8065
  120SOL    HW2  360   2.861   2.809   0.324  1.8561  1.8499 -2.6991
  121SOL     OW  361   1.978   0.809   2.332 -0.4782  0.9100 -0.1738
  121SOL    HW1  362   2.047   0.881   2.312  0.6383  2.7856 -0.4075
  121SOL    HW2  363   2.013   0.716   2.303  0.2255  0.2508  1.4597
  122SOL     OW  364   2.570   2.471   1.397  0.1752  0.0723 -0.3981
  122SOL    HW1  365   2.648   2.439   1.337 -1.0094 -0.2281  2.7976
  122SOL    HW2  366   2.582   2.437   1.496 -0.9020  2.5171  1.7102
  123SOL     OW  367   1.657   0.183   1.658 -0.1238 -0.2957  0.2414
  123SOL    HW1  368   1.687   0.094   1.613  1.8100 -0.7418  2.0940
  123SOL    HW2  369   1.739   0.247   1.684 -2.3012  1.6906  0.1224
  124SOL     OW  370   3.016   0.430   1.164 -0.1766  0.5243 -0.2390
  124SOL    HW1  371   2.942   0.482   1.222 -1.6127  0.9592  1.6613
  124SOL    HW2  372   3.043   0.477   1.076  2.0288 -2.7935  0.0968
  125SOL     OW  373   0.915   1.942   0.741 -0.1635  0.0959  0.0090
  125SOL    HW1  374   1.003   1.891   0.756 -1.1229 -1.5595 -0.6982
  125SOL    HW2  375   0.871   1.988   0.824 -0.9851  2.8904  1.4257
  126SOL     OW  376   1.898   2.290   2.451 -0.4086  0.7112  0.2398
  126SOL    HW1  377   1.955   2.256   2.374 -1.6466  2.7892  0.4969
  126SOL    HW2  378   1.889   2.224   2.536  2.2024 -0.3261  1.0636
  127SOL     OW  379   0.978   0.961   0.184  0.2989  0.3077 -0.2180
  127SOL    HW1  380   0.956   0.999   0.277  0.3974 -0.5415  1.1850
  127SOL    HW2  381   0.952   0.861   0.172 -2.0689  2.2851 -0.9024
  128SOL     OW  382   0.887   0.192   1.397 -0.2302  0.0979  0.1456
  128SOL    HW1  383   0.876   0.262   1.323 -0.2709 -0.2073 -1.2310
  128SOL    HW2  384   0.843   0.103   1.375  0.1259  1.0407 -1.3390
  129SOL     OW  385   1.903   0.678   1.903 -0.0391 -0.1305  0.9266
  129SOL    HW1  386   1.917   0.688   1.798  0.6814  0.6607 -1.9386
  129SOL    HW2  387   1.913   0.766   1.951 -2.2256 -0.1441  0.2308
  130SOL     OW  388   1.391   2.211   0.998 -0.0866  0.6732 -0.2308
  130SOL    HW1  389   1.356   2.166   0.910  1.1540  0.9788  0.6319
  130SOL    HW2  390   1.437   2.305   0.984 -1.2889  1.5092 -0.4738
  131SOL     OW  391   3.018   1.375   1.396 -0.3572 -0.2971 -0.0842
  131SOL    HW1  392   2.986   1.273   1.406 -1.9220 -4.0412  2.0148
  131SOL    HW2  393   3.114   1.396   1.380 -1.5994  0.1894 -1.0294
  132SOL     OW  394   2.030   2.427   0.555  0.1100 -0.3617  0.7338
  132SOL    HW1  395   1.933   2.466   0.553 -2.7704 -0.0258 -1.9802
  132SOL    HW2  396   2.052   2.346   0.623 -2.5612 -0.2841  1.0750
  133SOL     OW  397   1.741   2.457   2.705 -0.2363 -0.3211 -0.1693
  133SOL    HW1  398   1.649   2.464   2.653 -2.2420 -0.5632 -1.7772
  133SOL    HW2  399   1.765   2.548   2.745 -1.7507  0.1361  0.4640
  134SOL     OW  400   2.589   2.421   1.677  0.0271  0.1377  0.5902
  134SOL    HW1  401   2.531   2.365   1.746  2.3586 -0.5161  0.4539
  134SOL    HW2  402   2.650   2.488   1.729  0.7129 -2.5367  2.0269
  135SOL     OW  403   0.786   1.344   2.675  0.1011  0.5787  0.0108
  135SOL    HW1  404   0.706   1.284   2.711  1.2088  4.8542  3.0529
  135SOL    HW2  405   0.799   1.338   2.577 -0.4783 -0.4866  2.6022
  136SOL     OW  406   1.206   2.025   0.406  0.0703  0.0418 -0.5409
  136SOL    HW1  407   1.141   2.098   0.452  1.3315  2.5408  1.8504
  136SOL    HW2  408   1.160   1.930   0.390 -0.8078 -0.0735  0.2770
  137SOL     OW  409   0.463   1.171   2.259 -0.0022 -0.0363  0.4741
  137SOL    HW1  410   0.360   1.177   2.264  0.4770  1.6511 -1.1721
  137SOL    HW2  411   0.496   1.076   2.258  0.1162 -1.1643  1.9605
  138SOL     OW  412   2.414   1.522   0.307  0.0296  0.2358 -0.2267
  138SOL    HW1  413   2.365   1.477   0.223 -1.4680 -1.1456 -0.7621
  138SOL    HW2  414   2.498   1.468   0.345 -3.5043 -0.8759 -0.2396
  139SOL     OW  415   1.901   2.655   1.542 -0.5093  1.0915 -0.1774
  139SOL    HW1  416   1.810   2.698   1.507 -0.9583  1.8359 -3.3605
  139SOL    HW2  417   1.932   2.576   1.486 -1.2872  0.1288  0.8911
  140SOL     OW  418   3.059   3.005   2.651  0.9288 -0.7067  0.2665
  140SOL    HW1  419   3.073   2.898   2.630  0.3631 -1.6205 -0.6033
  140SOL    HW2  420   3.128   3.069   2.599  2.4855  0.3115  0.0944
  141SOL     OW  421   1.251   1.615   1.398 -0.7979 -0.2035 -0.3677
  141SOL    HW1  422   1.160   1.633   1.346  0.3114 -1.8543  0.4992
  141SOL    HW2  423   1.235   1.573   1.492 -0.9175 -0.0230  1.0076
  142SOL     OW  424   1.592   0.658   2.249 -0.2776 -0.1229  0.6674
  142SOL    HW1  425   1.612   0.600   2.166  1.2565 -1.9397  0.9686
  142SOL    HW2  426   1.494   0.660   2.277  0.0381  1.4103 -0.4317
  143SOL     OW  427   2.818   0.774   0.574 -0.0198 -0.4331  0.2626
  143SOL    HW1  428   2.871   0.810   0.493  0.8539  0.2176 -0.0860
  143SOL    HW2  429   2.828   0.839   0.656 -1.4030 -2.3929 -0.3544
  144SOL     OW  430   2.927   1.113   1.402 -0.4421  0.4292 -0.1315
  144SOL    HW1  431   2.865   1.090   1.484  0.2646 -0.7905  0.0301
  144SOL    HW2  432   3.021   1.072   1.416  1.6607  2.4042 -1.3175
  145SOL     OW  433   0.950   1.879   0.061 -0.2565  0.7661  0.3490
  145SOL    HW1  434   0.997   1.933  -0.018  3.3623  1.0803  0.4477
  145SOL    HW2  435   0.876   1.817   0.026  1.0922 -0.0877 -2.1042
  146SOL     OW  436   2.443   0.629   1.535 -0.2372 -0.1654  0.1155
  146SOL    HW1  437   2.424   0.532   1.526 -0.5683  2.3042 -0.1217
  146SOL    HW2  438   2.366   0.701   1.510 -1.3010  0.2532  0.9967
  147SOL     OW  439   1.046   2.504   0.508 -0.1025  0.1178 -0.4276
  147SOL    HW1  440   1.012   2.576   0.437 -0.6425  0.8069 -0.5741
  147SOL    HW2  441   1.144   2.480   0.490 -0.5316  1.8321 -1.2522
  148SOL     OW  442   1.548   1.382   0.008 -0.6674 -0.2674  0.4712
  148SOL    HW1  443   1.593   1.286   0.013 -1.0245 -1.9184 -0.1729
  148SOL    HW2  444   1.517   1.408   0.102  0.9664  0.8512 -2.1831
  149SOL     OW  445   0.730   1.489   1.971  0.6510  0.7359  0.0524
  149SOL    HW1  446   0.649   1.453   2.025  0.9494  1.4049 -2.3706
  149SOL    HW2  447   0.717   1.469   1.869 -0.4934 -0.2518 -0.9162
  150SOL     OW  448   2.978   1.215   1.015  0.4755 -0.5532 -0.1372
  150SOL    HW1  449   3.071   1.225   1.063  4.1984  2.8013 -0.6219
  150SOL    HW2  450   2.944   1.115   1.022  1.7753 -0.1222  1.9711
  151SOL     OW  451   0.152   0.833   2.112  0.8052  0.1683 -0.1171
  151SOL    HW1  452   0.163   0.929   2.073 -0.9472 -0.2008 -0.8062
  151SOL    HW2  453   0.224   0.773   2.067 -0.3041 -1.8595  2.1630
  152SOL     OW  454   1.409   1.871   1.106 -0.2602  0.2639 -0.4171
  152SOL    HW1  455   1.469   1.955   1.110  0.4730 -2.7414  0.8209
  152SOL    HW2  456   1.307   1.887   1.113  0.8800  0.5374  0.3888
  153SOL     OW  457   0.087   1.520   0.243  0.6694  0.3018 -0.1380
  153SOL    HW1  458  -0.007   1.472   0.237 -0.4994  0.4715  0.6322
  153SOL    HW2  459   0.087   1.580   0.330 -2.5132  0.1947 -1.7946
  154SOL     OW  460   2.258   1.883   2.788  0.2360 -0.2353 -0.2029
  154SOL    HW1  461   2.274   1.786   2.816  1.2335 -3.0102  1.6252
  154SOL    HW2  462   2.332   1.915   2.722  0.5034  1.5677 -1.0756
  155SOL     OW  463   2.620   1.334   0.364 -0.5688 -0.3216  0.0036
  155SOL    HW1  464   2.661   1.392   0.441  1.1661 -1.5769  2.5683
  155SOL    HW2  465   2.677   1.251   0.340  0.6751  1.5608 -0.3527
  156SOL     OW  466   2.506   0.800   0.758 -0.5732 -0.2155  0.4100
  156SOL    HW1  467   2.407   0.803   0.778  1.5142 -0.0753 -1.9483
  156SOL    HW2  468   2.533   0.857   0.678  1.9240 -0.2446  1.4338
  157SOL     OW  469   1.212   0.015   3.023 -0.3852 -0.0550 -0.1985
  157SOL    HW1  470   1.273  -0.037   2.958 -0.5314  0.9471  0.1886
  157SOL    HW2  471   1.248   0.109   3.050  1.3221 -2.3200 -2.3517
  158SOL     OW  472   1.043   1.823   1.869 -0.6075  0.1143  0.1860
  158SOL    HW1  473   1.104   1.907   1.866  3.6781 -1.0102 -0.2505
  158SOL    HW2  474   0.963   1.835   1.944  0.4701  1.0047  1.8667
  159SOL     OW  475   0.818   0.363   1.192  0.4195 -0.2139  0.0038
  159SOL    HW1  476   0.759   0.448   1.198  0.7987  1.0073  2.2995
  159SOL    HW2  477   0.784   0.284   1.135 -0.1611  0.8029  1.5081
  160SOL     OW  478   1.375   2.455   1.454 -0.0458  0.1942  0.1450
  160SOL    HW1  479   1.300   2.396   1.499 -0.1014  0.4663 -1.4721
  160SOL    HW2  480   1.465   2.403   1.451 -1.3773 -0.8219  0.4285
  161SOL     OW  481   0.080   2.660   0.407  0.2166  0.2136  0.1405
  161SOL    HW1  482   0.069   2.560   0.409  1.4292  0.7973  0.0552
  161SOL    HW2  483  -0.002   2.708   0.375  0.1733 -0.8510 -0.6813
  162SOL     OW  484   2.559   1.947   0.471 -0.0733  0.5735  0.4341
  162SOL    HW1  485   2.621   1.934   0.386 -0.2824 -2.4426 -0.9215
  162SOL    HW2  486   2.521   1.852   0.511 -2.5117 -1.0954 -1.0425
  163SOL     OW  487   1.894   2.693   0.797  0.3196 -0.1247 -0.4582
  163SOL    HW1  488   1.865   2.728   0.702 -2.2671  1.5281  1.2627
  163SOL    HW2  489   1.980   2.636   0.799 -2.6743 -0.6016 -1.6618
  164SOL     OW  490   3.022   0.149   1.265 -0.3602  0.3014  0.1785
  164SOL    HW1  491   3.025   0.250   1.233 -1.6497 -0.0742  2.7743
  164SOL    HW2  492   3.096   0.120   1.335  1.4771  3.6852  2.1164
  165SOL     OW  493   1.083   1.365   0.648 -0.4649 -0.5828  0.2577
  165SOL    HW1  494   1.060   1.416   0.735  0.0245  1.0116  0.7667
  165SOL    HW2  495   1.050   1.407   0.555  0.4818 -1.1325 -0.9460
  166SOL     OW  496   1.547   0.941   1.786  0.0690  0.6094 -0.7661
  166SOL    HW1  497   1.452   0.977   1.804  0.2453  1.5381 -0.5621
  166SOL    HW2  498   1.607   1.015   1.751 -3.4204  0.8307 -0.2686
  167SOL     OW  499   0.653   2.033   1.515 -0.4286  0.0766  0.2271
  167SOL    HW1  500   0.667   2.109   1.582  0.8020 -1.6472  0.1833
  167SOL    HW2  501   0.612   1.948   1.563  0.4226 -0.6217 -0.3846
  168SOL     OW  502   1.677   2.319   0.152 -0.3465  0.0964  0.2999
  168SOL    HW1  503   1.745   2.292   0.082 -3.1361  3.2477  2.0059
  168SOL    HW2  504   1.692   2.274   0.244  1.3860  0.7350 -0.9339
  169SOL     OW  505   3.052   2.608   2.165 -0.1361  0.6464 -0.1105
  169SOL    HW1  506   3.030   2.563   2.075 -0.9205 -0.0722  1.3540
  169SOL    HW2  507   3.106   2.550   2.237 -0.6864  0.9873 -1.5981
  170SOL     OW  508   1.160   0.142   2.121 -0.0526 -0.0555  0.1268
  170SOL    HW1  509   1.246   0.175   2.173 -0.4647 -2.6376  3.6622
  170SOL    HW2  510   1.175   0.124   2.017  2.4404  0.5507 -2.6616
  171SOL     OW  511   0.160   0.890   2.450 -0.3131 -0.0134  0.1530
  171SOL    HW1  512   0.060   0.897   2.483 -1.8445  1.1504  0.4760
  171SOL    HW2  513   0.169   0.869   2.350  2.6019  0.4748  1.7748
  172SOL     OW  514   1.015   1.010   2.817  0.6745  0.1312  0.6460
  172SOL    HW1  515   0.977   1.071   2.894 -0.2564  0.0049  3.1549
  172SOL    HW2  516   0.981   1.027   2.719  0.9075  1.1253  0.3350
  173SOL     OW  517   0.326   2.552   3.030 -0.3697 -0.0255  0.8842
  173SOL    HW1  518   0.317   2.507   2.936  0.9513  1.5223 -0.8320
  173SOL    HW2  519   0.353   2.479   3.100  2.0267 -0.5935  0.7256
  174SOL     OW  520   1.473   2.891   0.979  0.1490  0.4268 -0.1164
  174SOL    HW1  521   1.566   2.926   0.949  1.7304  1.5956  2.6417
  174SOL    HW2  522   1.464   2.790   0.961  1.4628  2.8174 -1.0337
  175SOL     OW  523   0.416   0.016   1.712 -0.3505  0.7360  0.5991
  175SOL    HW1  524   0.497   0.003   1.775 -3.0706  2.0532  1.0090
  175SOL    HW2  525   0.371   0.109   1.714  0.7016  0.2627  0.8281
  176SOL     OW  526   2.533   0.468   0.037  0.1947 -0.1425 -0.4199
  176SOL    HW1  527   2.547   0.508   0.129  0.7265 -2.6858 -0.7821
  176SOL    HW2  528   2.531   0.367   0.037 -3.2798  0.9842  0.1281
  177SOL     OW  529   0.319   0.108   0.789  0.0324 -0.1644 -0.5835
  177SOL    HW1  530   0.300   0.036   0.861 -0.0202 -1.8459  2.1364
  177SOL    HW2  531   0.414   0.146   0.793 -0.0090  1.9625  1.7036
  178SOL     OW  532   0.002   2.718   2.614  0.0392 -0.0012 -0.0225
  178SOL    HW1  533  -0.009   2.614   2.607  0.1467  0.7301 -0.5274
  178SOL    HW2  534   0.089   2.741   2.667  0.8918  0.7489  0.2444
  179SOL     OW  535   2.986   1.601   1.231  0.6037  0.5619 -0.2842
  179SOL    HW1  536   3.063   1.631   1.167 -1.0722 -0.8152 -1.1025
  179SOL    HW2  537   3.008   1.510   1.269  0.0809  1.5263 -3.9322
  180SOL     OW  538   0.248   1.354   1.729 -0.7648 -0.4807 -0.0551
  180SOL    HW1  539   0.326   1.318   1.786 -0.8156 -1.2889 -1.5112
  180SOL    HW2  540   0.174   1.416   1.778 -0.1225  1.5390  0.6768
  181SOL     OW  541   3.040   1.740   2.448  1.0149 -0.1542 -0.3500
  181SOL    HW1  542   3.134   1.779   2.434 -2.4426  0.3449 -0.8156
  181SOL    HW2  543   2.958   1.799   2.435  0.5774 -2.3786 -1.3781
  182SOL     OW  544   2.212   1.413   1.206  0.1694  0.1866  0.3271
  182SOL    HW1  545   2.239   1.373   1.300 -0.9464  1.9386 -1.8787
  182SOL    HW2  546   2.218   1.345   1.128 -1.6879 -0.7618 -1.2682
  183SOL     OW  547   1.387   2.205   2.478  0.2914 -0.1245  0.4906
  183SOL    HW1  548   1.301   2.142   2.472  1.7435  0.1822  2.4209
  183SOL    HW2  549   1.474   2.150   2.462 -1.3280 -0.6402  2.0370
  184SOL     OW  550   2.242   0.794   0.806  0.0889  0.4699 -0.6174
  184SOL    HW1  551   2.176   0.824   0.733 -0.5676  1.5360 -0.1717
  184SOL    HW2  552   2.235   0.689   0.822 -0.6912 -1.6982  2.4216
  185SOL     OW  553   1.596   2.749   2.008 -0.0710  0.4940 -0.3437
  185SOL    HW1  554   1.524   2.823   2.011 -0.2092  1.4574  1.3353
  185SOL    HW2  555   1.636   2.733   2.104  0.7341  0.2871  1.2570
  186SOL     OW  556  -0.006   2.133   1.802 -0.0965 -0.2644 -0.0282
  186SOL    HW1  557   0.028   2.216   1.856 -1.3410  1.8043  1.8689
  186SOL    HW2  558   0.072   2.082   1.760 -0.7258  0.1603 -4.1688
  187SOL     OW  559   1.313   0.639   1.680  0.6429 -0.5233 -0.0495
  187SOL    HW1  560   1.413   0.651   1.656 -2.2891 -0.4529 -0.1047
  187SOL    HW2  561   1.301   0.579   1.764  2.8818 -1.8960  1.4217
  188SOL     OW  562   2.708   2.673   1.572 -0.3296  0.5367 -0.4346
  188SOL    HW1  563   2.705   2.772   1.604  0.3376 -2.2015 -0.8222
  188SOL    HW2  564   2.625   2.645   1.519 -1.2032  0.3040  0.4008
  189SOL     OW  565   0.859   1.136   1.432 -0.3172 -0.1413  0.2867
  189SOL    HW1  566   0.905   1.209   1.495  2.2511 -1.7701  0.4510
  189SOL    HW2  567   0.818   1.187   1.349 -1.1486  2.0034  1.3501
  190SOL     OW  568   1.397   1.861   1.517 -0.4589  0.6778  0.0867
  190SOL    HW1  569   1.334   1.781   1.499 -0.8397 -0.6439 -3.6693
  190SOL    HW2  570   1.418   1.889   1.617  0.7700  0.6671 -2.1865
  191SOL     OW  571   0.900   0.745   1.506  0.8468 -0.2029 -0.0055
  191SOL    HW1  572   0.972   0.677   1.530 -0.0650 -1.9070  1.2108
  191SOL    HW2  573   0.939   0.837   1.490 -2.9012 -0.6349  1.5750
  192SOL     OW  574   1.838   2.418   1.130 -0.0441 -0.1765 -0.1085
  192SOL    HW1  575   1.749   2.393   1.085  0.6843 -1.9008 -3.6698
  192SOL    HW2  576   1.907   2.409   1.047 -1.7648 -0.0323 -1.9252
  193SOL     OW  577   0.491   0.497   0.385 -0.1301  0.1404  0.2598
  193SOL    HW1  578   0.416   0.426   0.394  0.7650  0.3040  0.9498
  193SOL    HW2  579   0.545   0.489   0.296  0.6890  2.2772  3.2912
  194SOL     OW  580   0.432   0.728   1.208  0.6809 -0.0929 -0.1040
  194SOL    HW1  581   0.333   0.698   1.215 -1.5393  0.0623  0.0697
  194SOL    HW2  582   0.486   0.667   1.147 -0.5980 -0.2149  0.2432
  195SOL     OW  583   1.018   2.941   0.502 -0.2673 -0.5576 -0.1639
  195SOL    HW1  584   1.022   2.842   0.474 -1.2214  1.0929 -2.3170
  195SOL    HW2  585   1.105   2.993   0.476 -1.3813 -0.2110  0.0168
  196SOL     OW  586   0.196   1.372   1.354 -0.5885 -0.2346 -0.1068
  196SOL    HW1  587   0.265   1.448   1.339 -1.3554  0.3582  1.1094
  196SOL    HW2  588   0.205   1.322   1.447  0.2327 -1.1507  0.0906
  197SOL     OW  589   0.791   1.972   0.258 -0.2538 -0.3471  0.7584
  197SOL    HW1  590   0.787   1.901   0.329 -0.4845  0.5412 -0.7251
  197SOL    HW2  591   0.863   1.952   0.185  0.9953  0.9170 -1.1011
  198SOL     OW  592   0.295   1.229   0.332  0.0097  0.3411  0.5015
  198SOL    HW1  593   0.198   1.205   0.309  1.3275 -1.2419 -0.3186
  198SOL    HW2  594   0.308   1.330   0.355 -0.4164  0.5411  2.2906
  199SOL     OW  595   2.274   0.414   2.628  0.5874  0.2439 -0.1547
  199SOL    HW1  596   2.193   0.388   2.693  3.0508 -1.4742  0.2860
  199SOL    HW2  597   2.365   0.386   2.671  0.4809  1.6545 -1.5300
  200SOL     OW  598   3.085   2.902   0.755  0.3004  0.6916 -0.1679
  200SOL    HW1  599   3.101   3.002   0.775  0.9960 -0.7231 -0.5376
  200SOL    HW2  600   3.025   2.890   0.674 -0.4456  0.3998  0.0507
  201SOL     OW  601   0.903   0.674   0.486 -0.7205  0.5734 -0.2474
  201SOL    HW1  602   0.895   0.743   0.558 -3.3314 -2.2524 -0.4422
  201SOL    HW2  603   0.827   0.600   0.495 -1.2433  0.0774 -0.0548
  202SOL     OW  604   0.450   1.271   1.902 -0.2417 -0.4821 -0.2345
  202SOL    HW1  605   0.533   1.238   1.848 -0.1624  0.5453 -0.5822
  202SOL    HW2  606   0.472   1.300   2.001 -2.1606 -1.0791  0.1427
  203SOL     OW  607   0.622   0.204   1.591  0.0180  0.4858  0.3564
  203SOL    HW1  608   0.672   0.141   1.528 -2.2442  2.0171  1.4214
  203SOL    HW2  609   0.644   0.192   1.692  0.6417  0.4279 -0.3819
  204SOL     OW  610   2.046   1.836   2.986 -0.8606 -0.3733 -0.1835
  204SOL    HW1  611   2.025   1.731   2.984  0.2290 -2.8324  1.4219
  204SOL    HW2  612   2.102   1.857   2.899 -0.5434  0.3088  0.3021
  205SOL     OW  613   1.780   1.884   3.023 -0.1510 -0.0979  0.4325
  205SOL    HW1  614   1.881   1.867   3.015  0.2394 -1.6578  2.5563
  205SOL    HW2  615   1.750   1.973   2.978  1.7422 -0.3796  0.9648
  206SOL     OW  616   2.389   2.737   0.311 -0.0444  0.6013 -0.0161
  206SOL    HW1  617   2.352   2.686   0.395 -0.0996  2.7301 -0.2863
  206SOL    HW2  618   2.474   2.690   0.274 -1.8889  0.3518  1.6604
  207SOL     OW  619   0.707   1.769   2.908 -0.4575 -0.0835  0.1396
  207SOL    HW1  620   0.765   1.695   2.863  1.9906  3.0000 -0.5900
  207SOL    HW2  621   0.655   1.734   2.988 -0.6503  0.3355 -0.7358
  208SOL     OW  622   1.018   1.592   1.221  0.0706  0.0293  0.5309
  208SOL    HW1  623   0.954   1.592   1.141 -0.4683 -0.4549  1.2247
  208SOL    HW2  624   0.967   1.576   1.314 -1.8440  1.1286 -0.5288
  209SOL     OW  625   0.249   0.994   3.078  0.2521 -0.2737  0.5684
  209SOL    HW1  626   0.282   0.921   3.005  0.3297 -6.0469  1.9205
  209SOL    HW2  627   0.253   0.958   3.174  2.3040 -0.0632  0.4021
  210SOL     OW  628   1.779   0.649   1.244  0.4457  0.5991 -0.0300
  210SOL    HW1  629   1.737   0.744   1.265  2.3077  0.8039  0.7629
  210SOL    HW2  630   1.882   0.644   1.246 -0.0780 -1.6355  2.9694
  211SOL     OW  631   2.066   1.136   1.565 -1.0558  0.3271 -0.8062
  211SOL    HW1  632   2.087   1.103   1.658  0.6974  2.6521 -1.2661
  211SOL    HW2  633   2.146   1.185   1.512  0.4821 -1.4699  1.0808
  212SOL     OW  634   0.078   0.956   1.419  0.3654 -0.3118 -0.0274
  212SOL    HW1  635   0.142   1.022   1.470  0.0632  0.6562 -0.7528
  212SOL    HW2  636   0.071   0.863   1.464 -1.4024 -0.8719  1.4244
  213SOL     OW  637   2.851   0.059   0.328 -0.4874  0.0443  0.5176
  213SOL    HW1  638   2.942   0.017   0.288 -0.1866 -1.2784  0.0352
  213SOL    HW2  639   2.775   0.034   0.265  2.4815  1.2223 -1.0066
  214SOL     OW  640   2.218   0.349   2.379 -0.1744 -0.3679  0.3590
  214SOL    HW1  641   2.238   0.383   2.481  0.0172  1.0147  0.7397
  214SOL    HW2  642   2.181   0.253   2.387  1.5636 -0.6611 -1.6050
  215SOL     OW  643   1.695   2.296   2.071  0.0249  0.2602  0.0352
  215SOL    HW1  644   1.787   2.339   2.079 -0.4477  0.7579 -1.2673
  215SOL    HW2  645   1.616   2.362   2.073 -0.2539  0.9508 -1.2740
  216SOL     OW  646   2.304   0.528   0.782  0.0229 -0.0795 -0.4394
  216SOL    HW1  647   2.268   0.469   0.701  1.6263  0.0006 -0.9413
  216SOL    HW2  648   2.402   0.504   0.806  3.2126 -0.6153  3.3274
  217SOL     OW  649   0.882   2.688   2.552  0.0097 -0.1242  0.2266
  217SOL    HW1  650   0.911   2.646   2.641 -0.8715  2.4322 -4.7906
  217SOL    HW2  651   0.803   2.641   2.507  0.0042 -1.5211 -2.3965
  218SOL     OW  652   1.850   1.398   0.010  0.0428 -0.0144  0.1372
  218SOL    HW1  653   1.746   1.402   0.020  2.5441  3.0860 -1.2608
  218SOL    HW2  654   1.898   1.322   0.066 -0.3110 -0.3184 -1.0222
  219SOL     OW  655   2.416   1.251   2.533 -0.0409  0.5926 -0.1001
  219SOL    HW1  656   2.476   1.223   2.451 -1.4419  0.3388  0.8670
  219SOL    HW2  657   2.436   1.199   2.621  1.1365 -1.6586 -1.7404
  220SOL     OW  658   1.438   1.054   1.424  0.0706 -0.5002  0.0605
  220SOL    HW1  659   1.543   1.040   1.429  1.2349 -1.8741  0.1829
  220SOL    HW2  660   1.401   1.039   1.328 -0.5714 -1.7079 -1.6498
  221SOL     OW  661   1.248   0.993   2.122 -0.7564  0.3922 -0.2973
  221SOL    HW1  662   1.268   0.998   2.022 -0.5069  0.7404  1.4251
  221SOL    HW2  663   1.330   1.030   2.182 -1.0561  0.0388  0.1130
  222SOL     OW  664   1.151   0.051   1.199 -0.1765  0.4303 -0.0947
  222SOL    HW1  665   1.149   0.085   1.298 -0.2981 -1.7639 -0.0532
  222SOL    HW2  666   1.162   0.131   1.130  1.1566 -0.4230 -1.6600
  223SOL     OW  667   2.701   0.949   2.150 -0.7159 -0.1736  0.1568
  223SOL    HW1  668   2.649   0.966   2.240  0.4624 -1.8580  1.0422
  223SOL    HW2  669   2.806   0.957   2.164 -0.3476  0.3202 -1.0878
  224SOL     OW  670   1.531   0.974   2.814  0.8690  0.3025 -0.6354
  224SOL    HW1  671   1.539   0.935   2.723 -1.9525 -0.4273  0.4905
  224SOL    HW2  672   1.549   1.077   2.810  0.7617 -1.1011  2.0185
  225SOL     OW  673   2.951   2.677   2.868  0.1807 -0.2034  0.1393
  225SOL    HW1  674   2.859   2.680   2.820  0.6852  0.8518 -0.6426
  225SOL    HW2  675   3.030   2.685   2.801 -1.9381 -1.2877  2.5687
  226SOL     OW  676   2.405   1.591   2.841  0.1341 -0.6914  0.1541
  226SOL    HW1  677   2.448   1.559   2.750 -4.1076  1.2142  0.1852
  226SOL    HW2  678   2.426   1.521   2.917 -2.0431 -1.6062  0.0435
  227SOL     OW  679   0.905   0.290   3.010  0.1053  0.6393  0.9867
  227SOL    HW1  680   0.903   0.393   2.982 -2.4505  0.3823 -0.9587
  227SOL    HW2  681   0.858   0.233   2.933 -0.9755  1.4328 -1.6746
  228SOL     OW  682   2.385   0.681   2.916 -0.1093  0.3441  0.0706
  228SOL    HW1  683   2.417   0.732   2.830  2.9227  0.8612  0.8754
  228SOL    HW2  684   2.446   0.601   2.942  0.5703 -2.8427 -0.1304
  229SOL     OW  685   0.751   0.681   1.762  0.3697  0.0425 -0.7752
  229SOL    HW1  686   0.841   0.684   1.816 -1.3552 -1.0916 -2.5178
  229SOL    HW2  687   0.762   0.611   1.683  0.7273 -1.3034 -1.9130
  230SOL     OW  688   1.920   1.208   1.938  0.1733  0.0368  0.2475
  230SOL    HW1  689   1.994   1.273   1.897 -0.4342  0.1849 -1.6712
  230SOL    HW2  690   1.852   1.262   1.989  1.0407 -2.5096 -0.9847
  231SOL     OW  691   0.660   0.984   0.026  0.3466 -0.5824  0.2193
  231SOL    HW1  692   0.745   1.039   0.011  0.5532 -2.5389 -0.2155
  231SOL    HW2  693   0.584   1.044   0.076 -1.7094  1.5095  2.9576
  232SOL     OW  694   2.401   2.955   2.792  0.0966  0.2219  0.4128
  232SOL    HW1  695   2.479   2.901   2.831 -0.7602 -1.0108 -1.9632
  232SOL    HW2  696   2.440   3.011   2.715  1.0535 -2.0096 -0.8324
  233SOL     OW  697   1.815   1.110   1.172  0.0989 -0.1863 -0.2895
  233SOL    HW1  698   1.869   1.177   1.113  1.7034 -0.8163 -0.8868
  233SOL    HW2  699   1.876   1.031   1.196 -0.3318 -1.2478 -2.3803
  234SOL     OW  700   1.650   2.539   1.842 -0.1659  0.0739 -0.5115
  234SOL    HW1  701   1.635   2.614   1.913  1.5115  2.1367  2.5369
  234SOL    HW2  702   1.596   2.450   1.867  0.0739 -0.4942 -0.7926
  235SOL     OW  703   0.107   3.023   2.885 -0.3405 -0.3961  0.0360
  235SOL    HW1  704   0.035   3.024   2.807 -0.7108  2.9152 -1.4458
  235SOL    HW2  705   0.076   3.062   2.976  1.8914 -0.4454  0.7820
  236SOL     OW  706   2.890   0.771   0.042  0.2252 -0.0014  0.1112
  236SOL    HW1  707   2.952   0.795   0.121  0.1055 -0.5039  0.3287
  236SOL    HW2  708   2.919   0.680   0.011  1.8104 -0.7067  2.5877
  237SOL     OW  709   1.509   1.682   0.900 -0.4381 -0.0697 -0.0032
  237SOL    HW1  710   1.610   1.646   0.911  1.9385  1.2332 -0.4951
  237SOL    HW2  711   1.482   1.736   0.983  1.1322 -0.5214 -1.8738
  238SOL     OW  712   1.901   1.223   0.721 -0.1770  0.4139 -0.0079
  238SOL    HW1  713   1.916   1.224   0.822  1.6886 -0.1640  0.7967
  238SOL    HW2  714   1.809   1.268   0.690 -2.0092  1.6478  1.4362
  239SOL     OW  715   2.091   0.348   2.816  0.2955  0.2682 -0.2567
  239SOL    HW1  716   2.123   0.331   2.911 -0.5868  0.3052 -0.8086
  239SOL    HW2  717   2.004   0.407   2.814  1.4226 -0.8050 -2.8102
  240SOL     OW  718   0.896   0.677   0.220 -0.3517  0.0653 -0.0739
  240SOL    HW1  719   0.987   0.639   0.191  1.0448 -0.7564  1.0755
  240SOL    HW2  720   0.905   0.707   0.320  1.0955 -0.8872  0.2322
  241SOL     OW  721   0.552   0.148   0.300  0.2112 -0.5023  0.5306
  241SOL    HW1  722   0.630   0.210   0.278  0.9093  0.9294 -0.6537
  241SOL    HW2  723   0.562   0.054   0.251 -0.5031 -0.0369 -1.0228
  242SOL     OW  724   0.613   2.621   1.286 -0.1199 -0.1766  0.0289
  242SOL    HW1  725   0.608   2.585   1.388  1.5259  0.9520  0.3197
  242SOL    HW2  726   0.600   2.720   1.270  1.6047  0.4805  1.8970
  243SOL     OW  727   1.037   0.593   2.404  0.3352 -0.0598  0.3328
  243SOL    HW1  728   0.956   0.617   2.339  1.3194  0.5949  0.3025
  243SOL    HW2  729   1.013   0.542   2.487  1.0089  1.7260 -1.5509
  244SOL     OW  730   2.804   1.888   2.363  0.0611 -0.4877 -0.3209
  244SOL    HW1  731   2.831   1.888   2.262  0.7483 -1.1331  1.2244
  244SOL    HW2  732   2.719   1.836   2.377  0.3007 -0.0138 -3.1486
  245SOL     OW  733   2.122   1.035   2.207  0.4279 -0.0148  0.2165
  245SOL    HW1  734   2.209   1.021   2.256 -0.8456  0.2165  2.0484
  245SOL    HW2  735   2.077   1.127   2.229 -1.2568  1.5642 -1.0431
  246SOL     OW  736   0.261   2.918   1.820 -0.1651 -0.4198  0.0723
  246SOL    HW1  737   0.211   2.857   1.757  0.3373 -2.0280  1.1555
  246SOL    HW2  738   0.307   2.998   1.766  0.9417  0.1292 -2.9675
  247SOL     OW  739   2.207   0.599   3.087 -0.2316  0.0747  0.5760
  247SOL    HW1  740   2.274   0.622   3.013 -0.9272 -0.4228 -1.2901
  247SOL    HW2  741   2.132   0.673   3.089 -0.0781  0.2078  1.8280
  248SOL     OW  742   2.162   1.895   1.618 -0.2025  0.4756 -0.6487
  248SOL    HW1  743   2.195   1.816   1.670 -0.8380 -0.2019  0.1243
  248SOL    HW2  744   2.136   1.976   1.675  0.6492 -0.7426 -1.7091
  249SOL     OW  745   1.876   1.856   1.905 -0.0940 -0.1546  0.5517
  249SOL    HW1  746   1.870   1.807   1.816 -0.6484 -0.8333  1.0672
  249SOL    HW2  747   1.972   1.890   1.928  0.0869 -0.9981  1.2392
  250SOL     OW  748   1.083   0.660   1.853  0.4315 -0.4140  0.1790
  250SOL    HW1  749   1.140   0.617   1.932  0.3490 -2.8490  0.7313
  250SOL    HW2  750   1.088   0.593   1.770 -0.3121 -0.5278 -4.1448
  251SOL     OW  751   3.027   1.500   2.563  0.1059  0.6535 -0.5994
  251SOL    HW1  752   3.039   1.588   2.510  0.9958 -0.0878  1.6892
  251SOL    HW2  753   2.952   1.436   2.529  0.5936  1.1042 -0.4555
  252SOL     OW  754   1.563   0.750   1.568 -0.4108 -0.2923 -0.0772
  252SOL    HW1  755   1.596   0.813   1.492  0.5303  1.2845  0.2968
  252SOL    HW2  756   1.561   0.794   1.661 -1.5804  2.1648 -2.1868
  253SOL     OW  757   0.988   1.465   0.408  0.3368  0.0912 -0.2455
  253SOL    HW1  758   1.027   1.469   0.308 -0.0499  0.3134 -2.3358
  253SOL    HW2  759   0.909   1.534   0.421  0.5173 -0.3613 -0.0220
  254SOL     OW  760   2.048   2.181   1.647  0.6706 -0.4309 -0.3442
  254SOL    HW1  761   1.968   2.116   1.614  0.6778  1.2212 -1.4233
  254SOL    HW2  762   2.008   2.273   1.678  2.0801  0.5444 -0.4900
  255SOL     OW  763   0.085   1.177   2.975  0.6219 -0.7375  0.1726
  255SOL    HW1  764   0.138   1.260   2.942  1.4726  0.2153  1.8776
  255SOL    HW2  765   0.142   1.105   3.015 -4.3851  1.5161 -1.1157
  256SOL     OW  766   2.779   1.443   1.792  0.2584 -0.3129 -0.6003
  256SOL    HW1  767   2.697   1.501   1.824 -1.6933  2.9061  0.8119
  256SOL    HW2  768   2.751   1.346   1.756  0.4784  0.3421  2.3837
  257SOL     OW  769   0.808   0.186   1.870  0.2129 -0.4678  0.3348
  257SOL    HW1  770   0.870   0.215   1.787  0.7402  3.0523 -1.2055
  257SOL    HW2  771   0.855   0.116   1.931 -2.6447  0.9329 -5.3051
  258SOL     OW  772   2.982   1.170   0.534  0.4351 -0.2267  0.5312
  258SOL    HW1  773   2.886   1.190   0.574 -1.6784  0.6731  0.5235
  258SOL    HW2  774   3.056   1.177   0.609  1.5336 -1.9014 -2.4899
  259SOL     OW  775   0.451   2.966   3.030  0.3287  0.1411  0.4882
  259SOL    HW1  776   0.374   2.912   3.071  0.0202 -0.4111 -0.3159
  259SOL    HW2  777   0.486   2.915   2.939  1.1098 -2.2168 -1.7852
  260SOL     OW  778   2.693   0.671   2.796  0.3022 -0.5397  0.2989
  260SOL    HW1  779   2.613   0.700   2.739  0.1893 -1.9232  0.0641
  260SOL    HW2  780   2.687   0.570   2.823 -3.4202 -1.2273 -1.9439
  261SOL     OW  781   2.729   1.272   1.282  0.4341  0.1205 -0.3480
  261SOL    HW1  782   2.655   1.239   1.218  1.0520  1.5749  1.3249
  261SOL    HW2  783   2.821   1.229   1.265 -0.1311  2.3497  0.7659
  262SOL     OW  784   1.405   2.969   1.998 -0.5448 -0.0816 -0.1677
  262SOL    HW1  785   1.404   3.063   1.953  0.6167  0.8768  1.2752
  262SOL    HW2  786   1.323   2.908   1.969 -1.3986 -0.8915 -0.7570
  263SOL     OW  787   0.840   0.683   2.257  0.9719  0.4943 -0.0237
  263SOL    HW1  788   0.760   0.615   2.235  0.3574 -2.2189  0.8713
  263SOL    HW2  789   0.876   0.735   2.167 -2.0922 -0.6112  0.4305
  264SOL     OW  790   2.279   0.820   0.457 -0.0938 -0.2306 -0.0016
  264SOL    HW1  791   2.294   0.732   0.406  1.2483 -0.8112  0.1827
  264SOL    HW2  792   2.354   0.845   0.521  1.6287 -0.8615  0.2748
  265SOL     OW  793   0.876   2.305   2.645  0.1352 -0.1146  0.3764
  265SOL    HW1  794   0.863   2.288   2.749 -1.1467  3.0645 -1.4696
  265SOL    HW2  795   0.816   2.245   2.590 -0.4123 -0.2566  1.2293
  266SOL     OW  796   1.281   1.823   3.030 -0.0652  0.0293 -0.7765
  266SOL    HW1  797   1.265   1.886   3.113 -1.1569 -0.1381 -1.6797
  266SOL    HW2  798   1.380   1.781   3.033 -2.2204 -0.1227 -2.0041
  267SOL     OW  799   1.109   3.022   2.285  0.6087  0.1698  0.1635
  267SOL    HW1  800   1.022   2.965   2.260  0.2960 -4.5532  1.5933
  267SOL    HW2  801   1.121   3.095   2.208  2.1366  1.7465  1.4304
  268SOL     OW  802   0.770   1.300   1.220 -0.2429 -0.3735  0.9985
  268SOL    HW1  803   0.714   1.388   1.229 -0.3677  1.7341  2.5330
  268SOL    HW2  804   0.871   1.319   1.189  0.3055 -1.0368 -0.0806
  269SOL     OW  805   2.294   2.515   1.614 -0.6818  0.0806 -0.0451
  269SOL    HW1  806   2.387   2.472   1.633 -3.8175  0.5192 -0.3113
  269SOL    HW2  807   2.245   2.537   1.701  1.9067 -1.6528 -0.6378
  270SOL     OW  808   0.108   3.062   2.008  0.5285 -0.4395  0.0391
  270SOL    HW1  809   0.158   2.994   1.948 -1.9025 -0.3252  2.7815
  270SOL    HW2  810   0.052   3.014   2.083 -3.6697 -1.8963 -1.1070
  271SOL     OW  811   0.368   1.426   1.119 -0.2012  0.4673  0.1522
  271SOL    HW1  812   0.394   1.396   1.024 -1.0415 -2.5180  0.5177
  271SOL    HW2  813   0.277   1.379   1.148 -3.6796  0.8569  0.1806
  272SOL     OW  814   1.871   0.013   1.899  0.2292 -0.1998  0.4384
  272SOL    HW1  815   1.815  -0.071   1.869 -0.8835 -1.4896 -1.5727
  272SOL    HW2  816   1.888   0.074   1.817 -0.5386 -1.3556 -1.2352
  273SOL     OW  817   1.450   1.451   2.862  0.5153 -0.4807  0.4987
  273SOL    HW1  818   1.363   1.506   2.874 -0.3830  0.3559  0.4497
  273SOL    HW2  819   1.503   1.425   2.949  2.4996  1.1751 -1.0917
  274SOL     OW  820   1.175   0.549   2.104  0.0043 -0.0713  0.3432
  274SOL    HW1  821   1.107   0.476   2.118  3.9752  0.7079  1.2788
  274SOL    HW2  822   1.228   0.573   2.191  0.3566 -2.2572  1.1862
  275SOL     OW  823   0.648   2.150   1.965  0.2748  0.5427 -0.4390
  275SOL    HW1  824   0.573   2.081   1.953  2.1038 -1.8307  0.3101
  275SOL    HW2  825   0.610   2.249   1.962  0.5347  1.6791  1.9874
  276SOL     OW  826   2.243   0.923   2.856 -0.5749 -0.3804 -0.3962
  276SOL    HW1  827   2.141   0.939   2.837  0.1008  0.2254 -2.1979
  276SOL    HW2  828   2.259   0.828   2.887 -0.0575  0.4578 -1.2949
  277SOL     OW  829   3.081   0.787   0.242  0.3661 -0.0724 -0.2878
  277SOL    HW1  830   3.181   0.813   0.232 -0.5364  0.1774 -2.2126
  277SOL    HW2  831   3.063   0.737   0.330  0.0069  2.9547 -0.3579
  278SOL     OW  832   0.335   0.234   0.021 -0.2871  0.0882  0.3133
  278SOL    HW1  833   0.414   0.195  -0.037 -0.6689 -0.3188  0.3299
  278SOL    HW2  834   0.322   0.335   0.010  0.1600 -1.7204 -0.4765
  279SOL     OW  835   0.249   2.989   0.944 -0.2631  0.1229  0.6166
  279SOL    HW1  836   0.245   2.950   1.037  0.6691 -0.6227 -2.1444
  279SOL    HW2  837   0.239   2.911   0.873  1.9161 -0.4822  1.0797
  280SOL     OW  838   1.593   2.891   2.446 -0.3589  0.2094 -0.3936
  280SOL    HW1  839   1.620   2.973   2.504 -1.5333 -0.1045 -0.2332
  280SOL    HW2  840   1.538   2.927   2.370 -0.6930 -1.9267  0.5587
  281SOL     OW  841   0.614   0.938   2.333  0.4812  0.2114 -0.5760
  281SOL    HW1  842   0.588   0.869   2.262 -1.9917 -2.5869  0.8369
  281SOL    HW2  843   0.607   0.898   2.430 -1.3268 -3.1176 -1.2158
  282SOL     OW  844   1.736   2.462   0.543 -0.7698 -0.6499  0.0154
  282SOL    HW1  845   1.724   2.384   0.475  1.0321  2.7345  0.4334
  282SOL    HW2  846   1.669   2.542   0.535 -1.1304  0.5993  3.8875
  283SOL     OW  847   1.145   0.913   0.788 -0.5449 -0.0397 -0.0162
  283SOL    HW1  848   1.161   0.859   0.874 -0.1602 -0.0349 -0.2415
  283SOL    HW2  849   1.108   1.010   0.810 -1.3648 -0.9267  2.1551
  284SOL     OW  850   2.220   2.845   2.470 -0.8630  0.4216  0.2294
  284SOL    HW1  851   2.317   2.861   2.437 -1.8750 -0.2373 -1.4904
  284SOL    HW2  852   2.212   2.804   2.564  0.6281  0.2195  0.8274
  285SOL     OW  853   1.337   3.068   2.544 -0.3584  0.3631 -0.4640
  285SOL    HW1  854   1.336   3.026   2.450  1.5184  1.3758 -0.4218
  285SOL    HW2  855   1.256   3.121   2.564  3.0990 -2.0712 -1.9826
  286SOL     OW  856   0.232   0.322   0.664 -0.2815  0.0412  0.0077
  286SOL    HW1  857   0.248   0.232   0.709 -0.0868 -3.0747 -1.3690
  286SOL    HW2  858   0.272   0.326   0.570  1.3849 -0.6466  4.3959
  287SOL     OW  859   0.105   1.273   2.536 -0.1950  0.6526  0.6261
  287SOL    HW1  860   0.059   1.211   2.604  0.5489  1.0819  1.4935
  287SOL    HW2  861   0.055   1.361   2.540  1.2323 -2.2475 -1.1134
  288SOL     OW  862   1.518   2.710   1.651  0.2294  0.4466  0.0617
  288SOL    HW1  863   1.556   2.659   1.739  0.2566  0.4072  1.0531
  288SOL    HW2  864   1.558   2.669   1.567  1.5439  0.0860  0.1315
  289SOL     OW  865   0.587   2.737   0.790 -0.2406 -0.0770 -0.4460
  289SOL    HW1  866   0.652   2.781   0.723 -1.4903 -1.0489  0.3856
  289SOL    HW2  867   0.570   2.789   0.881 -1.2602 -3.1132  1.9127
  290SOL     OW  868   2.818   1.083   1.661  0.0710 -0.3557 -0.5732
  290SOL    HW1  869   2.737   1.034   1.705 -2.6363  0.6363 -1.4869
  290SOL    HW2  870   2.901   1.079   1.722 -3.3646 -0.5171 -0.4170
  291SOL     OW  871   1.920   0.014   0.051 -0.2148 -0.3577 -0.9756
  291SOL    HW1  872   1.965  -0.006   0.143  1.5028  0.6415 -2.1554
  291SOL    HW2  873   1.985   0.028  -0.029  1.0647  1.3045 -0.9552
  292SOL     OW  874   2.948   1.265   0.022 -0.4785 -0.4989 -0.4225
  292SOL    HW1  875   2.885   1.325  -0.036  1.2965 -2.0400 -1.6262
  292SOL    HW2  876   3.019   1.209  -0.031 -0.6218 -2.4418 -0.5108
  293SOL     OW  877   0.539   2.047   0.226  0.5338 -0.3305 -0.6289
  293SOL    HW1  878   0.497   2.107   0.302 -0.5856 -1.0142  0.7066
  293SOL    HW2  879   0.646   2.035   0.242  1.9052  1.1031  1.2015
  294SOL     OW  880   1.891   2.386   1.815  0.4614  0.3858 -0.4106
  294SOL    HW1  881   1.936   2.391   1.909  0.8465 -1.2253 -0.5762
  294SOL    HW2  882   1.820   2.460   1.806  0.6005  0.8462  0.9718
  295SOL     OW  883   0.933   1.048   0.442 -0.0643 -0.2295 -0.2122
  295SOL    HW1  884   1.030   1.084   0.462  1.6895  0.2297  1.0704
  295SOL    HW2  885   0.900   0.968   0.505  0.0672 -0.2052  1.4426
  296SOL     OW  886   1.129   2.130   2.695 -0.6884  0.3007 -0.1784
  296SOL    HW1  887   1.072   2.210   2.667 -1.8117 -1.6048 -3.5621
  296SOL    HW2  888   1.165   2.076   2.616 -1.5211  1.1317  1.6351
  297SOL     OW  889   1.332   0.618   1.245  0.1075  0.4173  0.0300
  297SOL    HW1  890   1.349   0.546   1.317 -0.4852 -0.0441 -0.2147
  297SOL    HW2  891   1.385   0.602   1.158 -1.8643  2.1617  0.9534
  298SOL     OW  892   0.497   1.330   2.965  0.4874 -0.3714  0.3666
  298SOL    HW1  893   0.492   1.266   3.050  2.2795  1.5982  0.3761
  298SOL    HW2  894   0.543   1.286   2.885  2.3525  1.4366 -0.2061
  299SOL     OW  895   0.433   0.193   1.213 -0.0028 -0.1396  0.0164
  299SOL    HW1  896   0.392   0.272   1.161  0.0270 -2.1440 -1.6767
  299SOL    HW2  897   0.414   0.200   1.315 -0.2055  1.3565 -4.0503
  300SOL     OW  898   1.238   1.751   2.605 -0.7754 -0.6044 -0.0343
  300SOL    HW1  899   1.219   1.654   2.564 -2.8020 -4.7451  1.9790
  300SOL    HW2  900   1.335   1.776   2.627 -2.0674  0.1074  0.8980
  301SOL     OW  901   0.317   0.297   0.378  0.0370 -0.1093 -0.2514
  301SOL    HW1  902   0.230   0.243   0.383  0.9444  0.8081  0.6842
  301SOL    HW2  903   0.387   0.239   0.332 -1.7434 -1.8243  1.2153
  302SOL     OW  904   1.262   2.401   2.314 -0.6388  0.0594  0.3380
  302SOL    HW1  905   1.162   2.384   2.330  1.0758  0.7876  2.4088
  302SOL    HW2  906   1.320   2.331   2.360 -0.0050 -0.6964 -0.3220
  303SOL     OW  907   0.883   2.453   0.718 -0.1520  0.4119 -0.2084
  303SOL    HW1  908   0.933   2.441   0.624  0.5866 -0.5665 -0.4004
  303SOL    HW2  909   0.940   2.519   0.771  0.6756  0.1330 -0.6729
  304SOL     OW  910   0.113   1.920   0.699 -0.6653 -0.0039  0.1296
  304SOL    HW1  911   0.192   1.901   0.633  1.9346  0.2465 -1.9072
  304SOL    HW2  912   0.022   1.936   0.649  2.0417 -0.0189 -3.3553
  305SOL     OW  913   1.651   0.777   0.697 -0.4501  0.5395  0.3421
  305SOL    HW1  914   1.570   0.772   0.629 -0.8455 -1.8846  2.2909
  305SOL    HW2  915   1.714   0.692   0.698  0.1485  1.1914  0.9006
  306SOL     OW  916   0.436   1.940   1.976  0.3719  0.0898 -0.6291
  306SOL    HW1  917   0.470   1.856   1.924  0.8589  1.7755  0.8046
  306SOL    HW2  918   0.438   1.926   2.075  0.3334  2.6489 -2.6314
  307SOL     OW  919   3.031   0.901   2.586  0.3089 -0.5153 -0.3614
  307SOL    HW1  920   3.019   0.979   2.652 -0.0536 -0.3410 -1.4953
  307SOL    HW2  921   3.039   0.814   2.634  0.6867  2.9020  0.5074
  308SOL     OW  922   1.495   2.748   2.814 -0.0724  0.0588 -0.0418
  308SOL    HW1  923   1.452   2.725   2.723  2.0258  1.1624 -1.6376
  308SOL    HW2  924   1.500   2.665   2.879 -2.1202 -1.7358  1.3565
  309SOL     OW  925   1.163   0.202   1.825  0.4478  0.1274  0.2768
  309SOL    HW1  926   1.254   0.174   1.786  0.3941 -0.9788  2.0699
  309SOL    HW2  927   1.081   0.201   1.762  2.1032 -1.9627 -0.4460
  310SOL     OW  928   1.410   2.587   0.657  0.2876  0.2321 -0.0552
  310SOL    HW1  929   1.422   2.580   0.761  1.5344  0.3748  0.6795
  310SOL    HW2  930   1.493   2.622   0.605 -1.4884 -1.0475  0.1693
  311SOL     OW  931   1.105   0.920   1.701 -0.4822 -0.7792 -0.3077
  311SOL    HW1  932   1.091   0.848   1.773 -0.2879  0.2425 -1.6914
  311SOL    HW2  933   1.164   0.885   1.622 -1.7148 -0.5134 -0.5023
  312SOL     OW  934   1.490   0.622   0.992 -0.1533 -0.4506 -0.2779
  312SOL    HW1  935   1.521   0.724   0.984 -0.7733 -0.6533 -0.5667
  312SOL    HW2  936   1.443   0.588   0.902 -1.9479  0.5980  0.6915
  313SOL     OW  937   1.652   1.326   0.700 -0.0097 -0.3651  0.2940
  313SOL    HW1  938   1.576   1.374   0.747  0.5327  0.0414 -2.4428
  313SOL    HW2  939   1.625   1.228   0.697 -0.2277  0.9557  0.2948
  314SOL     OW  940   2.978   0.010   3.076 -0.1858 -0.0780 -0.1070
  314SOL    HW1  941   2.996   0.002   3.180  0.4170 -1.2377  1.7443
  314SOL    HW2  942   2.912  -0.061   3.042  1.5977  3.7897 -1.3716
  315SOL     OW  943   1.112   0.219   2.752 -0.3521 -0.0383 -0.3826
  315SOL    HW1  944   1.086   0.177   2.660 -0.9779  0.5688  2.1758
  315SOL    HW2  945   1.046   0.196   2.828 -1.1969 -0.7606 -1.3046
  316SOL     OW  946   1.775   2.079   0.867  0.0080  0.2864  0.4516
  316SOL    HW1  947   1.733   2.056   0.957  2.0603 -1.0223 -0.6183
  316SOL    HW2  948   1.775   2.182   0.843  0.6274  1.9927 -0.5476
  317SOL     OW  949   1.175   0.684   2.736  0.4095 -0.3231  0.2058
  317SOL    HW1  950   1.131   0.723   2.819  1.3734  0.3343 -1.9512
  317SOL    HW2  951   1.115   0.612   2.696 -2.0893  2.8349  0.2307
  318SOL     OW  952   1.437   3.029   2.258  0.8139 -0.0318 -0.4459
  318SOL    HW1  953   1.408   3.127   2.274 -1.6452  0.2012  2.0126
  318SOL    HW2  954   1.427   2.995   2.155  0.1528 -1.7132 -1.2565
  319SOL     OW  955   0.648   2.360   3.063  0.1414 -0.2136  0.3380
  319SOL    HW1  956   0.585   2.281   3.076  1.3687 -0.3703 -2.0492
  319SOL    HW2  957   0.730   2.323   3.010  2.0961 -2.5710  2.9066
  320SOL     OW  958   1.707   2.216   0.393 -0.2367 -0.3981  0.0552
  320SOL    HW1  959   1.774   2.142   0.364  0.9389  1.9902  1.2369
  320SOL    HW2  960   1.612   2.184   0.424 -1.4102 -0.8328 -1.0854
  321SOL     OW  961   1.614   2.705   0.514  0.2877  0.2351  0.0584
  321SOL    HW1  962   1.539   2.763   0.474  2.5528 -0.6841  1.4133
  321SOL    HW2  963   1.712   2.743   0.495  0.5659  1.3335 -1.4031
  322SOL     OW  964   2.552   1.036   2.364  0.3065 -0.3193  0.3270
  322SOL    HW1  965   2.618   1.009   2.436 -1.9740  0.9418 -0.4103
  322SOL    HW2  966   2.464   0.976   2.357  0.4450 -4.8450  0.1883
  323SOL     OW  967   1.176   2.721   0.806 -0.0886  0.9013  0.6572
  323SOL    HW1  968   1.233   2.728   0.719  2.8823 -1.4056 -0.2788
  323SOL    HW2  969   1.138   2.821   0.827 -0.1630  2.3685  0.5795
  324SOL     OW  970   0.075   2.521   2.390  0.3184 -0.0856  0.2018
  324SOL    HW1  971   0.043   2.450   2.459  1.6248 -0.9546 -1.1009
  324SOL    HW2  972   0.036   2.614   2.422 -1.0283  0.0867  2.2234
  325SOL     OW  973   1.247   3.048   0.431  0.4835  0.6158  0.2662
  325SOL    HW1  974   1.222   3.095   0.340 -3.6647  0.1419 -2.2294
  325SOL    HW2  975   1.266   3.118   0.504 -1.3317  2.2685  1.5877
  326SOL     OW  976   2.494   0.832   0.025  0.3348 -0.7799 -0.1966
  326SOL    HW1  977   2.423   0.789  -0.033  0.5723 -1.7318  0.9251
  326SOL    HW2  978   2.558   0.757   0.064  1.4181 -3.5956 -1.1150
  327SOL     OW  979   2.861   0.186   0.575  0.3106  0.1114  0.1821
  327SOL    HW1  980   2.867   0.134   0.481  0.5645  0.6553 -1.6397
  327SOL    HW2  981   2.864   0.116   0.655 -2.2458 -2.7710 -0.9996
  328SOL     OW  982   2.662   0.586   0.425 -0.0844 -0.1423  0.5395
  328SOL    HW1  983   2.727   0.643   0.484  1.6770 -1.6589  1.3595
  328SOL    HW2  984   2.635   0.493   0.462  1.2265 -1.3976 -0.6487
  329SOL     OW  985   2.941   3.063   2.208  0.5409 -0.1706 -0.3455
  329SOL    HW1  986   3.010   2.989   2.223 -1.2798 -0.3786 -0.8259
  329SOL    HW2  987   2.984   3.157   2.190  1.5889  0.4865 -1.9674
  330SOL     OW  988   0.623   0.319   1.996  0.3026 -0.1370 -0.3943
  330SOL    HW1  989   0.688   0.283   1.919  0.3225 -0.7201 -0.1456
  330SOL    HW2  990   0.616   0.238   2.062  1.6573 -1.1506 -2.5264
  331SOL     OW  991   3.100   1.933   1.116 -0.6288 -0.0327  0.0186
  331SOL    HW1  992   3.100   2.027   1.074  1.7295  0.5050 -2.5290
  331SOL    HW2  993   3.016   1.912   1.170 -0.5282  0.3439 -1.1957
  332SOL     OW  994   0.444   1.171   0.087 -0.3359  0.7305 -0.4482
  332SOL    HW1  995   0.360   1.137   0.035 -1.9875 -0.7229 -1.2371
  332SOL    HW2  996   0.421   1.193   0.185  0.1662 -1.2482 -2.3515
  333SOL     OW  997   2.904   0.945   0.372 -0.2169  0.4091 -0.1320
  333SOL    HW1  998   2.955   1.013   0.442  0.4822 -1.8929 -1.8978
  333SOL    HW2  999   2.968   0.888   0.314 -1.6479 -1.6489  1.1027
  334SOL     OW 1000   1.698   1.183   1.713 -0.2504 -0.0174 -0.1020
  334SOL    HW1 1001   1.744   1.182   1.615  3.5547  1.1908 -0.9225
  334SOL    HW2 1002   1.763   1.188   1.793  1.4002  1.5809 -0.0453
  335SOL     OW 1003   1.938   2.761   2.604 -0.6429  0.2100  0.1654
  335SOL    HW1 1004   1.859   2.758   2.667  0.5280  0.1346  0.8951
  335SOL    HW2 1005   2.015   2.822   2.643  0.5730  0.8679 -2.8284
  336SOL     OW 1006   0.280   0.089   2.771  0.7311  0.2063 -0.0995
  336SOL    HW1 1007   0.362   0.121   2.828 -0.2184 -1.6619  0.5443
  336SOL    HW2 1008   0.219   0.026   2.832 -1.1662 -1.2392  2.3533
  337SOL     OW 1009   0.784   2.795   3.045  0.4198  0.4178  0.0490
  337SOL    HW1 1010   0.846   2.718   3.073 -3.6663  0.8655  0.5318
  337SOL    HW2 1011   0.715   2.831   3.120  1.1718 -2.0266  1.4054
  338SOL     OW 1012   0.070   0.934   0.717 -0.2492 -0.6492 -0.2813
  338SOL    HW1 1013  -0.030   0.916   0.732  0.1946 -0.6666 -0.3303
  338SOL    HW2 1014   0.086   1.035   0.714  2.0961  0.4672  0.1540
  339SOL     OW 1015   1.757   1.363   2.139 -0.0309 -0.1229 -0.2555
  339SOL    HW1 1016   1.659   1.391   2.125  1.3808 -1.2698  1.7496
  339SOL    HW2 1017   1.814   1.433   2.186 -1.0615 -2.0523 -0.4363
  340SOL     OW 1018   2.317   0.789   1.184  0.3439 -0.2963  0.7369
  340SOL    HW1 1019   2.240   0.846   1.151 -1.3344 -0.2559  0.8988
  340SOL    HW2 1020   2.318   0.689   1.155 -0.8235  2.0759  1.4786
  341SOL     OW 1021   1.927   2.070   0.302  0.4160 -0.0830  0.3021
  341SOL    HW1 1022   1.973   2.143   0.249  1.2100 -2.2165  0.9759
  341SOL    HW2 1023   1.973   2.049   0.392  0.2292 -0.0182 -1.7027
  342SOL     OW 1024   2.113   2.140   2.767 -0.5835  0.4994 -0.0139
  342SOL    HW1 1025   2.175   2.060   2.783  0.2267  1.6635  0.4041
  342SOL    HW2 1026   2.015   2.115   2.740 -2.3183 -1.1949  0.0763
  343SOL     OW 1027   0.364   0.838   2.889  0.3419  0.1915 -0.0350
  343SOL    HW1 1028   0.359   0.888   2.799 -0.7023 -0.2180  0.5052
  343SOL    HW2 1029   0.452   0.794   2.900  0.2095  2.1413  3.4629
  344SOL     OW 1030   1.918   1.403   0.392 -0.4272  0.4345  0.6153
  344SOL    HW1 1031   1.921   1.328   0.318 -1.5715 -1.4763 -0.3831
  344SOL    HW2 1032   1.824   1.408   0.435  0.8471 -1.8342 -0.4383
  345SOL     OW 1033   1.372   2.196   2.817 -0.3006  0.1550 -0.6955
  345SOL    HW1 1034   1.272   2.191   2.789  0.7348  4.3072  0.1296
  345SOL    HW2 1035   1.430   2.126   2.771  1.7187 -1.3518  3.0885
  346SOL     OW 1036   2.279   0.819   1.448 -0.0373  0.0115  0.6320
  346SOL    HW1 1037   2.185   0.842   1.477 -0.2077 -0.2173  1.3679
  346SOL    HW2 1038   2.284   0.830   1.347 -1.7114  0.7168  1.3379
  347SOL     OW 1039   0.719   2.801   1.722  0.1928 -0.0374  0.5925
  347SOL    HW1 1040   0.797   2.864   1.726 -1.4561 -1.7368 -3.0532
  347SOL    HW2 1041   0.644   2.836   1.660  2.4202  0.3366  2.3869
  348SOL     OW 1042   0.184   0.619   2.853  0.0296 -0.3950  0.4206
  348SOL    HW1 1043   0.097   0.635   2.798 -0.4032 -0.6209  2.0580
  348SOL    HW2 1044   0.220   0.705   2.897 -0.0312 -0.4132  0.4903
  349SOL     OW 1045   1.819   0.441   2.818  0.8318  0.4026  0.0126
  349SOL    HW1 1046   1.779   0.526   2.773 -1.9709  2.0499  0.0242
  349SOL    HW2 1047   1.801   0.439   2.921 -0.8890  1.2949  0.5549
  350SOL     OW 1048   1.762   0.357   0.419 -0.0148 -0.0999  0.2110
  350SOL    HW1 1049   1.841   0.318   0.482  0.9147 -0.4859  0.1026
  350SOL    HW2 1050   1.765   0.454   0.375  2.0547 -0.7563  3.1371
  351SOL     OW 1051   0.923   0.807   2.046  0.3771 -0.0622  0.1194
  351SOL    HW1 1052   0.944   0.902   2.069 -0.6600 -1.2941  1.6791
  351SOL    HW2 1053   0.979   0.768   1.963  0.8091 -1.3915 -2.4414
  352SOL     OW 1054   2.083   1.474   0.603 -0.3895  0.2042  0.6231
  352SOL    HW1 1055   2.013   1.457   0.529  4.3193 -1.2359 -0.2609
  352SOL    HW2 1056   2.048   1.468   0.700 -0.8168  2.8587  1.2520
  353SOL     OW 1057   2.173   2.733   1.150 -0.0754  0.5573 -0.3663
  353SOL    HW1 1058   2.215   2.654   1.205  1.7859  1.5890 -0.9330
  353SOL    HW2 1059   2.076   2.746   1.179 -0.5326  1.4928 -0.0337
  354SOL     OW 1060   0.236   1.405   2.881  0.2013 -0.2220 -0.0512
  354SOL    HW1 1061   0.230   1.469   2.799 -1.5056  0.1659 -0.8321
  354SOL    HW2 1062   0.332   1.384   2.922  0.1261  0.1941  1.2205
  355SOL     OW 1063   0.741   1.576   0.540 -0.1589 -0.3903  0.2390
  355SOL    HW1 1064   0.739   1.563   0.646  3.1672 -1.2198  2.5055
  355SOL    HW2 1065   0.689   1.505   0.480  1.5033 -1.0245 -0.5101
  356SOL     OW 1066   0.980   0.347   2.082 -0.7335 -0.3985  0.0980
  356SOL    HW1 1067   1.048   0.266   2.091 -0.3658  0.5830 -0.0541
  356SOL    HW2 1068   0.929   0.341   1.991 -0.6060 -2.8441  0.4259
  357SOL     OW 1069   1.019   1.534   0.136 -0.0599 -0.0102 -0.7307
  357SOL    HW1 1070   1.023   1.455   0.065  0.2877 -2.5379 -0.0151
  357SOL    HW2 1071   1.106   1.593   0.141 -2.1536  2.0910  1.2892
  358SOL     OW 1072   1.663   1.481   0.496 -0.1105  0.2524  0.1591
  358SOL    HW1 1073   1.670   1.412   0.575  0.5770 -1.0327  0.5569
  358SOL    HW2 1074   1.595   1.454   0.422  0.6141  2.4065 -0.8946
  359SOL     OW 1075   1.648   2.603   0.189  0.7738  0.4470 -0.1377
  359SOL    HW1 1076   1.650   2.501   0.207  0.6292  0.8487 -1.0973
  359SOL    HW2 1077   1.561   2.639   0.148  1.7370  0.1478  0.3441
  360SOL     OW 1078   0.705   0.497   0.565  0.1922 -1.2945 -0.1659
  360SOL    HW1 1079   0.613   0.497   0.518  3.1878  0.6210  2.3697
  360SOL    HW2 1080   0.746   0.400   0.575  0.3474  1.8545 -1.6161
  361SOL     OW 1081   1.343   1.327   0.565 -0.3102  0.1725 -0.2379
  361SOL    HW1 1082   1.408   1.364   0.636  1.1061 -0.3893  1.7584
  361SOL    HW2 1083   1.240   1.347   0.588 -3.0211  1.0028  1.5866
  362SOL     OW 1084   1.391   1.862   0.733  0.1755 -0.1228 -0.0137
  362SOL    HW1 1085   1.447   1.799   0.793 -2.5411 -0.8908 -0.1695
  362SOL    HW2 1086   1.454   1.914   0.669 -0.9279  1.3127  1.6296
  363SOL     OW 1087   1.278   1.307   1.955  0.4459 -0.3971  0.5903
  363SOL    HW1 1088   1.340   1.359   2.019  0.6638 -1.6730  0.5702
  363SOL    HW2 1089   1.227   1.370   1.890  3.6470  0.4748  0.3464
  364SOL     OW 1090   0.541   2.395   2.020 -0.1923 -0.1203  0.3088
  364SOL    HW1 1091   0.437   2.418   2.009 -1.4114  1.7139  0.2064
  364SOL    HW2 1092   0.598   2.482   2.037 -1.4824 -0.1797  0.5088
  365SOL     OW 1093   0.919   1.983   1.389 -0.0316  0.7967 -0.5992
  365SOL    HW1 1094   0.827   2.003   1.431 -1.9647 -0.4238 -2.3114
  365SOL    HW2 1095   0.917   2.013   1.291 -0.7593  0.4022  0.3181
  366SOL     OW 1096   2.699   1.848   0.239  0.3273  0.1680 -0.4571
  366SOL    HW1 1097   2.607   1.809   0.208  1.4875  1.8524 -1.9864
  366SOL    HW2 1098   2.768   1.784   0.284  1.7102  1.0233 -0.3698
  367SOL     OW 1099   0.953   1.122   3.067  0.0538  0.5183  0.5955
  367SOL    HW1 1100   0.959   1.046   3.138  3.1827  1.4356 -0.8110
  367SOL    HW2 1101   1.026   1.192   3.071 -0.9244  1.4392  0.9101
  368SOL     OW 1102   1.476   0.462   0.518  0.3841 -0.3423  1.0699
  368SOL    HW1 1103   1.414   0.412   0.451 -2.3138 -0.0463 -3.2282
  368SOL    HW2 1104   1.516   0.551   0.474 -0.7921  1.7382 -1.7834
  369SOL     OW 1105   0.299   1.638   0.136 -0.5335  0.4726 -0.0178
  369SOL    HW1 1106   0.363   1.684   0.211 -0.1539  1.3389  1.2603
  369SOL    HW2 1107   0.248   1.557   0.175  1.7674  1.4084  0.3935
  370SOL     OW 1108   0.477   2.118   1.015  0.3278 -0.1291  0.1908
  370SOL    HW1 1109   0.496   2.221   1.028  0.1867 -0.3413 -3.0834
  370SOL    HW2 1110   0.373   2.105   0.997 -0.6467 -0.0802 -1.3813
  371SOL     OW 1111   2.936   2.176   2.681 -0.0786 -0.0095  0.3321
  371SOL    HW1 1112   3.019   2.125   2.702 -0.5254  1.5583 -2.3803
  371SOL    HW2 1113   2.917   2.253   2.748  1.5798 -0.9939 -0.0450
  372SOL     OW 1114   0.972   2.138   1.119  0.0605 -0.2316 -0.3317
  372SOL    HW1 1115   0.931   2.204   1.051  1.5814  0.6520  3.5330
  372SOL    HW2 1116   1.054   2.180   1.173  2.8945 -1.4405  0.5725
  373SOL     OW 1117   1.924   1.862   0.969 -0.0759 -0.1236 -0.5267
  373SOL    HW1 1118   1.995   1.918   1.017 -2.1875 -2.7811 -1.2898
  373SOL    HW2 1119   1.898   1.908   0.879 -2.3546 -1.5750 -1.8760
  374SOL     OW 1120   1.964   0.275   0.562  0.0337  0.0746 -0.5840
  374SOL    HW1 1121   1.923   0.268   0.656  1.8060 -1.9610  0.7721
  374SOL    HW2 1122   2.069   0.297   0.567  0.6786 -0.4805  1.9934
  375SOL     OW 1123   2.393   2.092   1.073 -0.3558 -0.8190  0.2572
  375SOL    HW1 1124   2.425   2.060   0.978 -1.9615 -1.2736 -0.8842
  375SOL    HW2 1125   2.472   2.084   1.145  2.7956  0.2573  1.3140
  376SOL     OW 1126   0.011   0.582   1.470  0.4912 -0.6278  0.3645
  376SOL    HW1 1127   0.041   0.614   1.562  0.2962  1.6400 -2.7024
  376SOL    HW2 1128  -0.051   0.500   1.474 -0.0744 -0.0461 -1.9884
  377SOL     OW 1129   2.303   2.945   0.168  0.4400 -0.1447  0.1755
  377SOL    HW1 1130   2.274   3.036   0.205  3.5696 -0.5720 -0.5582
  377SOL    HW2 1131   2.346   2.877   0.236 -0.8581 -0.2824  0.9402
  378SOL     OW 1132   1.909   1.880   2.471 -0.0242 -0.5714 -0.2723
  378SOL    HW1 1133   1.995   1.849   2.424 -0.5394  0.3437 -1.3072
  378SOL    HW2 1134   1.839   1.805   2.471  1.1712  0.6789 -1.2122
  379SOL     OW 1135   0.792   0.157   2.780 -0.6281 -0.2870 -0.2651
  379SOL    HW1 1136   0.802   0.057   2.771  0.8658 -3.1036  0.8200
  379SOL    HW2 1137   0.798   0.210   2.688  1.5213  2.0919 -3.1920
  380SOL     OW 1138   1.514   1.099   0.573 -0.3614  0.3011  0.0504
  380SOL    HW1 1139   1.456   1.179   0.540 -1.4282 -2.3882 -0.5606
  380SOL    HW2 1140   1.461   1.010   0.567 -1.7662 -1.1968 -0.3778
  381SOL     OW 1141   1.271   1.300   1.425  0.0204  0.8120 -0.4184
  381SOL    HW1 1142   1.300   1.200   1.445  0.7444 -1.8824  0.4370
  381SOL    HW2 1143   1.355   1.357   1.448 -0.8168 -0.4580  2.7017
  382SOL     OW 1144   1.808   0.843   0.268 -0.0553  0.1635  0.1917
  382SOL    HW1 1145   1.790   0.820   0.168 -0.7087  0.9346 -1.8808
  382SOL    HW2 1146   1.911   0.838   0.287  0.4619 -0.7636 -0.2023
  383SOL     OW 1147   2.530   0.964   1.488  0.5017 -0.1797  0.3608
  383SOL    HW1 1148   2.446   0.903   1.478 -0.9869 -0.6227  0.5514
  383SOL    HW2 1149   2.591   0.973   1.399 -0.6311 -0.2508  0.9340
  384SOL     OW 1150   0.956   2.251   0.199 -0.1699 -0.5866 -0.0241
  384SOL    HW1 1151   0.886   2.326   0.220  0.0218 -0.0022  2.3964
  384SOL    HW2 1152   0.997   2.219   0.288 -1.0960  2.7322 -1.2420
  385SOL     OW 1153   2.889   2.018   1.624 -0.3812  0.2073 -0.5684
  385SOL    HW1 1154   2.970   2.052   1.683 -2.9570  0.7535  0.5847
  385SOL    HW2 1155   2.847   1.927   1.659  0.8734 -3.2970  0.1228
  386SOL     OW 1156   0.509   1.042   0.425 -0.0304  0.4007 -0.7473
  386SOL    HW1 1157   0.484   0.940   0.439 -2.1145 -1.4391 -1.6438
  386SOL    HW2 1158   0.426   1.101   0.444  0.8454 -2.7653 -3.1450
  387SOL     OW 1159   0.939   0.282   1.664 -0.2178  0.4645 -0.0075
  387SOL    HW1 1160   1.003   0.363   1.681  1.4367 -0.4151  0.8292
  387SOL    HW2 1161   0.902   0.274   1.568 -0.6516 -0.6296  2.2499
  388SOL     OW 1162   1.266   2.727   1.814  0.4592 -0.3648  0.2839
  388SOL    HW1 1163   1.318   2.714   1.726  1.4273  2.1928  1.3430
  388SOL    HW2 1164   1.272   2.643   1.876  0.7855  0.4453  0.5837
  389SOL     OW 1165   0.115   2.893   1.368 -0.4408 -0.3786  0.3285
  389SOL    HW1 1166   0.031   2.920   1.310  2.9787 -1.7013 -0.5939
  389SOL    HW2 1167   0.159   2.809   1.322  0.8599  2.9626 -1.0517
  390SOL     OW 1168   1.032   0.927   1.333  0.0700 -0.5609 -0.3010
  390SOL    HW1 1169   1.098   0.881   1.398  0.1507 -0.1264 -0.0370
  390SOL    HW2 1170   0.979   1.000   1.380 -1.0048 -3.5385 -0.7333
  391SOL     OW 1171   2.167   1.112   1.100  0.7434  0.0687 -0.3119
  391SOL    HW1 1172   2.129   1.019   1.132 -0.5644  0.7680 -2.0015
  391SOL    HW2 1173   2.239   1.095   1.026 -0.4116  2.4392 -0.7281
  392SOL     OW 1174   0.939   2.572   0.028  0.5134  0.0629 -0.2584
  392SOL    HW1 1175   1.044   2.553   0.015  1.2735 -1.4330  0.2368
  392SOL    HW2 1176   0.895   2.516   0.104 -2.0373 -0.1360 -0.6547
  393SOL     OW 1177   0.328   0.678   1.983 -0.4481 -0.1242  0.9173
  393SOL    HW1 1178   0.321   0.574   1.995 -2.3170 -0.2920  0.3100
  393SOL    HW2 1179   0.338   0.709   1.883  0.2693  0.3579  2.6893
  394SOL     OW 1180   0.007   1.941   2.666  0.4745  0.3479 -0.7021
  394SOL    HW1 1181   0.066   1.904   2.742 -1.9807 -2.2199 -3.5709
  394SOL    HW2 1182  -0.070   1.874   2.649 -2.1869  1.1115  1.8236
  395SOL     OW 1183   1.625   1.963   0.621 -0.2035 -0.2299 -0.2676
  395SOL    HW1 1184   1.662   1.871   0.579  0.5349  0.4055 -1.6668
  395SOL    HW2 1185   1.685   1.997   0.698 -0.8278  1.9979 -1.1008
  396SOL     OW 1186   2.914   1.921   1.349  0.0209  0.3296  0.8596
  396SOL    HW1 1187   2.888   1.821   1.370  1.5820 -0.7935  0.7977
  396SOL    HW2 1188   2.909   1.977   1.435  1.8345 -1.4713 -1.0941
  397SOL     OW 1189   1.056   2.222   0.493 -0.3968 -0.9404  0.1171
  397SOL    HW1 1190   0.959   2.196   0.520  1.2132  1.0069  0.8681
  397SOL    HW2 1191   1.077   2.325   0.501 -1.1542  0.6626 -2.9773
  398SOL     OW 1192   2.162   3.083   1.172 -0.5146  0.5903 -0.1871
  398SOL    HW1 1193   2.074   3.026   1.187  1.4901 -0.3281 -0.4676
  398SOL    HW2 1194   2.153   3.182   1.137 -0.6932  2.0548 -0.8637
  399SOL     OW 1195   3.084   2.404   2.608  0.9334  0.2685 -0.5927
  399SOL    HW1 1196   2.989   2.382   2.643 -1.1298  0.6509 -0.4092
  399SOL    HW2 1197   3.164   2.351   2.653 -0.2067 -0.9996 -2.5378
  400SOL     OW 1198   0.698   1.723   1.376  0.9126 -0.7780  0.2527
  400SOL    HW1 1199   0.647   1.772   1.456  1.5975 -0.9224 -0.5204
  400SOL    HW2 1200   0.706   1.789   1.294 -1.0615 -2.1459  1.2209
  401SOL     OW 1201   1.861   0.330   1.143 -0.1878  0.4707  0.3968
  401SOL    HW1 1202   1.863   0.332   1.247 -1.6113  1.4892  1.1953
  401SOL    HW2 1203   1.767   0.329   1.110  2.3284 -0.4375 -3.6597
  402SOL     OW 1204   1.344   0.261   3.070  0.6176  0.5407 -0.0827
  402SOL    HW1 1205   1.416   0.211   3.008 -0.3143 -2.3504 -1.7301
  402SOL    HW2 1206   1.290   0.340   3.021 -2.0569  0.3583  0.8946
  403SOL     OW 1207   2.205   1.893   0.832  0.2000  0.1869 -0.0290
  403SOL    HW1 1208   2.288   1.949   0.811  1.2816  1.8155  2.2885
  403SOL    HW2 1209   2.162   1.910   0.925 -0.1676 -0.2101  1.1783
  404SOL     OW 1210   0.309   2.521   2.768  0.0274  0.4593 -0.5631
  404SOL    HW1 1211   0.368   2.503   2.683 -0.4402 -1.2098 -0.0404
  404SOL    HW2 1212   0.265   2.616   2.769 -0.8926 -2.6225 -2.4728
  405SOL     OW 1213   0.154   2.409   0.658  0.5282 -0.0723 -0.2123
  405SOL    HW1 1214   0.137   2.328   0.588 -0.4644 -3.1142 -3.5549
  405SOL    HW2 1215   0.235   2.466   0.630  2.4797  1.2030 -1.8821
  406SOL     OW 1216   0.069   1.557   3.044  0.0402  0.2611 -0.0489
  406SOL    HW1 1217   0.144   1.498   2.994  1.1889 -0.9145 -2.2185
  406SOL    HW2 1218   0.092   1.558   3.146  1.3202 -3.4871  0.9410
  407SOL     OW 1219   1.614   0.863   0.951  0.1964  0.4052 -0.0790
  407SOL    HW1 1220   1.622   0.839   0.851 -0.5696 -0.2003 -0.6459
  407SOL    HW2 1221   1.559   0.944   0.973  1.4798 -0.9954 -1.3348
  408SOL     OW 1222   1.603   2.430   0.979  0.4225  0.6742 -0.1326
  408SOL    HW1 1223   1.658   2.419   0.888  1.0789  3.8473 -0.0670
  408SOL    HW2 1224   1.530   2.502   0.976  1.4297 -1.9294 -0.9149
  409SOL     OW 1225   0.598   0.807   0.678 -0.3469 -0.4488  0.1086
  409SOL    HW1 1226   0.557   0.763   0.593  1.0392 -1.0018 -0.1809
  409SOL    HW2 1227   0.610   0.740   0.757  0.4988  3.1646 -0.1838
  410SOL     OW 1228   1.193   2.051   1.422  0.2978  0.3649 -0.1861
  410SOL    HW1 1229   1.262   1.998   1.473  1.0538  2.1931  0.1703
  410SOL    HW2 1230   1.095   2.009   1.428  1.3611  2.9029  1.1410
  411SOL     OW 1231   2.553   1.816   2.976  0.2817 -0.4348 -0.6810
  411SOL    HW1 1232   2.549   1.908   2.933 -0.8650  0.4226 -1.8839
  411SOL    HW2 1233   2.485   1.749   2.934  1.2055  0.2032 -3.2164
  412SOL     OW 1234   1.496   2.448   2.169  0.2694  0.1182 -0.0515
  412SOL    HW1 1235   1.551   2.458   2.258  0.6079 -1.5182 -1.4429
  412SOL    HW2 1236   1.394   2.434   2.192 -0.2863  0.1709 -0.0437
  413SOL     OW 1237   0.040   0.282   3.017 -0.2981  0.5885  0.0837
  413SOL    HW1 1238  -0.013   0.209   3.062 -0.3070  0.8607 -3.6909
  413SOL    HW2 1239   0.140   0.261   3.017  0.3704 -1.2537 -2.8518
  414SOL     OW 1240   1.736   1.519   1.108  0.0830  0.0791 -0.6697
  414SOL    HW1 1241   1.707   1.611   1.150  1.5865  0.5403 -0.7321
  414SOL    HW2 1242   1.754   1.524   1.003 -0.4617  0.1399  3.1082
  415SOL     OW 1243   0.375   2.183   0.652  0.1028  0.2113 -0.2624
  415SOL    HW1 1244   0.370   2.219   0.753 -1.3264  2.0429  0.5803
  415SOL    HW2 1245   0.279   2.181   0.608 -5.3525  1.3063  0.5252
  416SOL     OW 1246   0.357   1.093   1.062 -0.1184 -0.0887 -0.2467
  416SOL    HW1 1247   0.346   1.008   0.998  1.0251 -2.7152  0.5637
  416SOL    HW2 1248   0.456   1.132   1.056  0.5593  0.8336 -1.7513
  417SOL     OW 1249   2.326   2.435   2.133 -0.6620 -0.0107  0.4671
  417SOL    HW1 1250   2.332   2.333   2.139 -0.4171 -1.9936  2.8017
  417SOL    HW2 1251   2.279   2.470   2.217 -1.2475  1.4669  1.1648
  418SOL     OW 1252   1.042   0.523   1.337  0.3354 -0.1867  0.2328
  418SOL    HW1 1253   0.980   0.455   1.288 -2.7765  0.0013 -1.4180
  418SOL    HW2 1254   1.119   0.548   1.272  1.2594 -2.3219 -0.0685
  419SOL     OW 1255   0.890   0.566   2.967  0.0271 -0.5634  0.3611
  419SOL    HW1 1256   0.790   0.581   2.969  3.0212  1.7173 -1.0538
  419SOL    HW2 1257   0.940   0.658   2.988 -0.7191  1.2683 -0.6020
  420SOL     OW 1258   0.093   2.189   0.517 -0.1663  0.0696 -0.0802
  420SOL    HW1 1259   0.094   2.200   0.412  1.0725 -0.0179 -3.5610
  420SOL    HW2 1260   0.022   2.116   0.548 -1.7803 -3.0841 -0.8479
  421SOL     OW 1261   0.343   2.973   0.549  0.5915 -0.0780  0.3230
  421SOL    HW1 1262   0.313   2.901   0.619 -0.0055  0.0262 -0.0734
  421SOL    HW2 1263   0.422   3.033   0.580  1.3051  0.9609  0.7563
  422SOL     OW 1264   1.013   2.562   0.950 -0.0755 -0.2662  0.2289
  422SOL    HW1 1265   1.060   2.629   0.885  1.0887 -1.0846 -0.6588
  422SOL    HW2 1266   1.081   2.526   1.019 -0.2847 -1.8832  2.7401
  423SOL     OW 1267   0.149   0.671   1.247  0.5663 -0.8606 -0.3821
  423SOL    HW1 1268   0.074   0.622   1.297  1.8150 -0.7379  0.0449
  423SOL    HW2 1269   0.107   0.751   1.190 -3.2802  1.8353  0.5191
  424SOL     OW 1270   1.133   2.185   2.051  0.1749 -0.5785  0.4319
  424SOL    HW1 1271   1.123   2.278   2.008  0.1191 -0.6462  1.4549
  424SOL    HW2 1272   1.075   2.164   2.135 -1.8719  1.0494 -0.8887
  425SOL     OW 1273   1.956   1.259   1.004  0.5544 -0.5233 -0.2014
  425SOL    HW1 1274   2.054   1.227   1.033 -0.0751  0.0209  1.3468
  425SOL    HW2 1275   1.955   1.365   1.001  4.3180  0.4521 -0.1393
  426SOL     OW 1276   1.466   1.644   1.242  0.3571  0.3229  0.0981
  426SOL    HW1 1277   1.468   1.748   1.218  0.5529  0.8591 -0.6827
  426SOL    HW2 1278   1.399   1.615   1.318  0.0391  0.5696 -0.0995
  427SOL     OW 1279   1.949   2.432   2.089  0.5261  0.2868  0.2212
  427SOL    HW1 1280   2.019   2.388   2.152 -0.8758  4.0087  0.1390
  427SOL    HW2 1281   1.944   2.531   2.106 -0.7348 -1.9297  1.0067
  428SOL     OW 1282   0.873   0.022   0.032 -0.0403 -1.0583 -0.2935
  428SOL    HW1 1283   0.880   0.105  -0.028  0.6836  0.7728 -0.0568
  428SOL    HW2 1284   0.969  -0.009   0.067  0.4069  2.2511  1.3258
  429SOL     OW 1285   1.288   0.180   0.234  0.4739  0.2662 -0.2138
  429SOL    HW1 1286   1.378   0.169   0.282 -0.9607 -0.7018 -0.2995
  429SOL    HW2 1287   1.306   0.215   0.134 -1.8942  1.4609  1.1838
  430SOL     OW 1288   2.925   1.431   0.289  0.6996  0.7034  0.6184
  430SOL    HW1 1289   2.900   1.476   0.198 -3.4095  1.8291  2.4067
  430SOL    HW2 1290   2.846   1.432   0.349  4.5131 -0.5199 -4.1708
  431SOL     OW 1291   2.074   1.551   0.898  0.2513 -0.1756 -0.0218
  431SOL    HW1 1292   2.149   1.600   0.946  1.0974 -1.3344 -1.8095
  431SOL    HW2 1293   1.988   1.609   0.895  0.3037  0.0870  1.0228
  432SOL     OW 1294   2.940   2.168   1.202  0.1689  0.2023 -0.3541
  432SOL    HW1 1295   2.908   2.068   1.223  1.3314 -1.1274 -0.5747
  432SOL    HW2 1296   2.978   2.219   1.285 -1.3182  2.3476 -1.0380
  433SOL     OW 1297   1.867   0.250   0.823  0.2706 -0.3001  0.7976
  433SOL    HW1 1298   1.784   0.292   0.875 -1.0104  0.3813 -2.2793
  433SOL    HW2 1299   1.940   0.231   0.888 -1.9048  0.5056 -1.8682
  434SOL     OW 1300   1.570   0.273   0.714 -0.0261  0.0517  0.4803
  434SOL    HW1 1301   1.580   0.358   0.650  0.4414  0.6242 -2.5691
  434SOL    HW2 1302   1.585   0.301   0.812 -0.3559 -3.0013  0.5367
  435SOL     OW 1303   1.485   1.452   2.105  0.0598  0.8581  0.0743
  435SOL    HW1 1304   1.491   1.501   2.199  1.6722  0.8242 -2.0315
  435SOL    HW2 1305   1.499   1.521   2.025  2.8033  1.2825 -1.4679
  436SOL     OW 1306   1.716   2.723   2.266  0.0786  0.1776  0.3644
  436SOL    HW1 1307   1.690   2.799   2.327  0.5685 -1.6268  0.1126
  436SOL    HW2 1308   1.722   2.631   2.319 -1.7485 -1.2737 -0.0726
  437SOL     OW 1309   1.137   2.965   0.894  0.1457 -0.1219  0.0955
  437SOL    HW1 1310   1.072   3.047   0.879  3.5769  1.2732 -0.5741
  437SOL    HW2 1311   1.153   2.941   0.994  1.3805 -1.8393 -0.6272
  438SOL     OW 1312   1.009   2.692   1.524  0.0820  0.3662  0.3005
  438SOL    HW1 1313   1.101   2.715   1.484  1.0618  0.6687 -0.6461
  438SOL    HW2 1314   0.978   2.600   1.483  0.4756 -2.6998 -1.9568
  439SOL     OW 1315   0.711   1.875   1.120 -0.0895  0.1309 -0.1392
  439SOL    HW1 1316   0.742   1.908   1.027  0.2647  0.8813  1.8217
  439SOL    HW2 1317   0.608   1.849   1.120 -1.9646  3.7075 -0.4794
  440SOL     OW 1318   1.031   2.457   1.979 -0.5962 -0.2587 -0.1532
  440SOL    HW1 1319   0.998   2.498   1.887  0.1201  2.1413 -1.0075
  440SOL    HW2 1320   1.106   2.515   2.015  1.5164 -1.9789  0.0985
  441SOL     OW 1321   0.400   2.712   1.526  0.5788 -0.1923 -0.1362
  441SOL    HW1 1322   0.451   2.624   1.519 -1.2374  1.4087 -0.5028
  441SOL    HW2 1323   0.342   2.727   1.440 -1.4203 -0.9941  2.8023
  442SOL     OW 1324   2.257   0.687   2.526  0.1778  0.4930  0.2778
  442SOL    HW1 1325   2.252   0.582   2.543  0.4574 -0.3495 -2.3511
  442SOL    HW2 1326   2.171   0.744   2.544 -3.3823  0.1852 -0.3729
  443SOL     OW 1327   1.211   2.669   2.215  0.0767 -0.0199  0.4123
  443SOL    HW1 1328   1.202   2.720   2.302 -0.9062  0.5114  0.0836
  443SOL    HW2 1329   1.219   2.568   2.226 -1.8536  1.9057  0.5729
  444SOL     OW 1330   1.029   1.318   1.548  0.0211  0.1291  0.0522
  444SOL    HW1 1331   1.113   1.294   1.491 -1.6351 -1.2468  0.1739
  444SOL    HW2 1332   0.994   1.417   1.532 -2.8640 -0.3316 -1.2855
  445SOL     OW 1333   3.091   2.381   1.935 -0.0968 -0.3155 -0.6470
  445SOL    HW1 1334   3.086   2.453   1.863 -0.1871 -1.2021 -0.4878
  445SOL    HW2 1335   2.997   2.351   1.963  1.0078  1.9972 -0.8602
  446SOL     OW 1336   0.189   1.896   2.403 -0.6373  0.6549  0.2688
  446SOL    HW1 1337   0.167   1.978   2.461  1.8880 -0.9001  0.3296
  446SOL    HW2 1338   0.143   1.898   2.314 -0.1102 -1.0469  2.0986
  447SOL     OW 1339   1.230   1.617   1.944 -0.0685 -0.4735  0.1616
  447SOL    HW1 1340   1.166   1.695   1.917 -2.5877 -1.3442  1.3208
  447SOL    HW2 1341   1.333   1.638   1.950 -1.1986 -0.7694  1.9084
  448SOL     OW 1342   0.128   1.564   1.920  0.6508  0.3134  0.4092
  448SOL    HW1 1343   0.145   1.664   1.887 -0.2208  0.8165 -1.7352
  448SOL    HW2 1344   0.137   1.550   2.023  1.4367 -1.3271 -3.2102
  449SOL     OW 1345   2.013   2.922   0.909 -0.5376 -0.9258 -0.0583
  449SOL    HW1 1346   2.065   2.947   0.997  1.6235 -1.5423  2.5700
  449SOL    HW2 1347   1.969   2.828   0.911 -0.7624 -0.7069  0.2103
  450SOL     OW 1348   2.264   1.324   0.934  0.3669 -0.1417  0.5136
  450SOL    HW1 1349   2.266   1.231   0.891 -0.1359  0.3973 -2.0142
  450SOL    HW2 1350   2.207   1.383   0.866 -3.5876 -0.1522  1.5409
  451SOL     OW 1351   1.432   0.017   1.441 -0.1943 -0.3051 -0.3124
  451SOL    HW1 1352   1.350   0.077   1.464  0.0383  0.5978  1.9093
  451SOL    HW2 1353   1.453  -0.054   1.516 -0.2022 -1.0560 -2.1205
  452SOL     OW 1354   2.669   2.368   2.244  0.6140  0.2725 -0.0864
  452SOL    HW1 1355   2.603   2.452   2.272 -1.7995  3.0950  0.5885
  452SOL    HW2 1356   2.696   2.307   2.322 -0.2231  0.7997 -0.1339
  453SOL     OW 1357   2.452   2.626   3.058  0.2864  0.2905  0.2299
  453SOL    HW1 1358   2.366   2.682   3.059  3.0640 -0.3873 -1.0928
  453SOL    HW2 1359   2.447   2.542   2.997  2.3310 -0.5633 -0.4071
  454SOL     OW 1360   0.981   1.103   2.047  0.3957  0.9635  0.4026
  454SOL    HW1 1361   0.957   1.132   1.953  1.9139 -0.1072  0.1285
  454SOL    HW2 1362   1.082   1.116   2.069 -1.1992  2.7043 -2.9068
  455SOL     OW 1363   0.636   2.604   2.905  0.1660 -0.7949 -0.0566
  455SOL    HW1 1364   0.711   2.659   2.952 -1.2770 -1.1262  0.9320
  455SOL    HW2 1365   0.615   2.512   2.955 -0.2649 -1.8885  2.8581
  456SOL     OW 1366   0.469   1.772   0.287 -0.5309  0.2328 -1.1616
  456SOL    HW1 1367   0.563   1.734   0.277  1.0609 -2.2610  2.1804
  456SOL    HW2 1368   0.462   1.872   0.261  0.1631 -1.9585  2.1740
  457SOL     OW 1369   0.368   2.578   0.587  0.6400  0.6526 -0.3200
  457SOL    HW1 1370   0.357   2.624   0.491 -2.5100  1.3817 -0.0024
  457SOL    HW2 1371   0.459   2.529   0.597  0.2879 -1.6467 -3.6836
  458SOL     OW 1372   2.992   2.971   1.201 -0.0296 -0.0813 -0.2608
  458SOL    HW1 1373   2.988   3.075   1.190 -0.1214 -1.7377 -2.5739
  458SOL    HW2 1374   2.975   2.922   1.107 -2.9833  1.2296 -1.1396
  459SOL     OW 1375   2.184   2.596   0.843  0.1266  0.6594  0.1345
  459SOL    HW1 1376   2.215   2.686   0.893 -1.0118  1.5434 -0.5120
  459SOL    HW2 1377   2.267   2.561   0.791 -1.2919  0.1160  1.8185
  460SOL     OW 1378   1.082   1.953   2.901  0.4287  0.4187  0.1145
  460SOL    HW1 1379   1.108   2.031   2.837  2.0898  0.4071  1.3473
  460SOL    HW2 1380   1.163   1.906   2.941  0.8144 -1.7311 -2.2917
  461SOL     OW 1381   0.551   2.142   2.671 -0.3744 -0.3520 -0.2835
  461SOL    HW1 1382   0.463   2.093   2.673  0.9928  1.0597  1.2804
  461SOL    HW2 1383   0.625   2.090   2.728 -0.7227 -1.6715  0.5851
  462SOL     OW 1384   0.945   1.155   1.764 -0.1305 -0.1667  0.2135
  462SOL    HW1 1385   0.947   1.064   1.727 -1.5548  0.7061  2.2866
  462SOL    HW2 1386   0.968   1.225   1.690 -2.3694  2.0469 -2.7608
  463SOL     OW 1387   0.464   0.753   0.450  0.0385  0.0140  0.2130
  463SOL    HW1 1388   0.488   0.656   0.410 -0.8284 -0.5053 -0.9848
  463SOL    HW2 1389   0.367   0.758   0.484  0.0593  0.5134  0.4176
  464SOL     OW 1390   0.523   2.242   2.252  0.5365 -0.2184  0.2415
  464SOL    HW1 1391   0.447   2.289   2.306  0.7308 -0.9231  1.8555
  464SOL    HW2 1392   0.535   2.288   2.158 -3.3860  1.7256 -0.7023
  465SOL     OW 1393   0.323   0.883   0.879  0.4693  0.3180  0.2520
  465SOL    HW1 1394   0.227   0.886   0.833  0.6569 -1.3424  0.4645
  465SOL    HW2 1395   0.340   0.791   0.922  0.0427 -0.6471 -1.2571
  466SOL     OW 1396   1.392   1.111   1.137  0.0275 -0.0277  0.3439
  466SOL    HW1 1397   1.464   1.184   1.139  0.0221 -0.9181 -0.6588
  466SOL    HW2 1398   1.295   1.144   1.121 -0.5325 -2.6660  1.0316
  467SOL     OW 1399   0.479   0.379   2.416  0.4016 -0.5819 -0.2791
  467SOL    HW1 1400   0.431   0.462   2.456  3.6388 -2.9307  2.7064
  467SOL    HW2 1401   0.509   0.319   2.495  0.5040 -0.0462  0.4084
  468SOL     OW 1402   0.491   2.263   1.738 -0.1377  0.1959  0.2267
  468SOL    HW1 1403   0.499   2.353   1.788 -1.0418 -0.3389  1.2948
  468SOL    HW2 1404   0.447   2.272   1.642  0.1867  0.5475 -0.2989
  469SOL     OW 1405   1.574   1.301   1.114 -0.0832 -0.0248  0.2210
  469SOL    HW1 1406   1.654   1.234   1.130  1.3831 -1.3200  1.7662
  469SOL    HW2 1407   1.616   1.397   1.109  1.3850 -1.2237 -0.0669
  470SOL     OW 1408   3.002   1.611   0.763  0.1413  0.3971  0.4030
  470SOL    HW1 1409   3.078   1.613   0.831 -3.0252 -1.8881 -1.6506
  470SOL    HW2 1410   2.934   1.688   0.777  1.3706  1.1321  0.3417
  471SOL     OW 1411   2.588   1.304   2.195 -0.1414  0.0921 -0.0928
  471SOL    HW1 1412   2.561   1.205   2.226 -0.2083 -1.1255 -0.1595
  471SOL    HW2 1413   2.634   1.363   2.271 -1.3649 -0.1962  4.1062
  472SOL     OW 1414   1.178   2.461   3.063  0.9087 -0.1653 -0.2693
  472SOL    HW1 1415   1.222   2.432   3.154  2.4866 -1.8628 -0.9536
  472SOL    HW2 1416   1.133   2.377   3.025 -0.0825  0.4262  0.7690
  473SOL     OW 1417   1.054   1.516   0.891  0.5919 -0.5149 -0.0989
  473SOL    HW1 1418   0.971   1.532   0.948  0.4396 -0.4075 -1.3993
  473SOL    HW2 1419   1.139   1.496   0.948 -0.4624 -0.9786 -1.1982
  474SOL     OW 1420   0.747   1.263   0.781 -0.3178 -0.1412 -0.2060
  474SOL    HW1 1421   0.712   1.251   0.687 -0.9997 -1.4353  0.4025
  474SOL    HW2 1422   0.840   1.223   0.795  0.4626 -1.2266 -0.0305
  475SOL     OW 1423   2.866   0.029   0.834 -0.4274 -0.0449  0.3754
  475SOL    HW1 1424   2.951   0.025   0.893 -1.6314  1.2635 -2.7569
  475SOL    HW2 1425   2.773   0.051   0.885 -0.4899  0.2520 -0.2412
  476SOL     OW 1426   0.967   3.042   1.955 -0.0584 -0.3349 -0.3464
  476SOL    HW1 1427   1.032   2.974   2.003  0.0239 -1.0864 -0.1802
  476SOL    HW2 1428   1.003   3.075   1.863  0.0462  1.5309 -1.9268
  477SOL     OW 1429   1.492   0.386   2.430 -0.1349 -0.8874 -0.3336
  477SOL    HW1 1430   1.427   0.356   2.507 -1.7751  0.7554 -0.5762
  477SOL    HW2 1431   1.588   0.339   2.431  0.1164  0.3441 -0.0773
  478SOL     OW 1432   2.216   1.845   0.242  0.2586 -0.0313  0.2154
  478SOL    HW1 1433   2.173   1.754   0.221  0.1134 -1.7537 -0.6468
  478SOL    HW2 1434   2.313   1.852   0.205 -1.8812  3.2835  0.1958
  479SOL     OW 1435   1.274   1.150   2.890  0.9127 -0.6045  1.2539
  479SOL    HW1 1436   1.352   1.191   2.837 -0.3185  1.5845 -0.1514
  479SOL    HW2 1437   1.201   1.097   2.832  0.1275 -2.0164 -0.5687
  480SOL     OW 1438   2.496   2.347   0.424  0.1276  0.1776  0.5910
  480SOL    HW1 1439   2.479   2.249   0.454  0.2648  1.2092 -2.1114
  480SOL    HW2 1440   2.425   2.385   0.357 -1.8173  2.2823  0.1916
  481SOL     OW 1441   1.061   1.167   0.843  0.1388 -0.1752  0.3793
  481SOL    HW1 1442   1.066   1.253   0.787 -0.2407 -2.0389  0.8912
  481SOL    HW2 1443   1.065   1.190   0.945 -0.5050 -1.4512 -0.9848
  482SOL     OW 1444   1.595   0.293   2.015 -0.2669  0.0351  0.0663
  482SOL    HW1 1445   1.612   0.395   2.012  1.7912  0.1819 -1.8255
  482SOL    HW2 1446   1.682   0.243   2.047  3.1672 -1.7323 -1.3190
  483SOL     OW 1447   0.134   2.360   1.340  0.9946 -0.2442  0.2711
  483SOL    HW1 1448   0.030   2.356   1.357  0.9920  2.3130  1.9387
  483SOL    HW2 1449   0.165   2.390   1.245 -0.2412  0.7036  4.0228
  484SOL     OW 1450   1.701   0.959   1.383 -0.0121 -0.1825  0.2704
  484SOL    HW1 1451   1.785   0.954   1.441  2.4840  2.0412 -1.5623
  484SOL    HW2 1452   1.710   1.022   1.299 -0.2927  2.2920 -0.2500
  485SOL     OW 1453   0.669   1.124   1.806 -0.1809 -0.7518 -0.0974
  485SOL    HW1 1454   0.691   1.051   1.732 -0.3046 -2.3067  0.2419
  485SOL    HW2 1455   0.742   1.196   1.802  0.1899 -1.5818 -0.9484
  486SOL     OW 1456   0.870   1.917   2.461 -0.0551  0.2667 -0.0705
  486SOL    HW1 1457   0.900   1.872   2.547 -0.9010  0.6212  0.4677
  486SOL    HW2 1458   0.796   1.982   2.478 -1.4407  0.9499 -0.3548
  487SOL     OW 1459   1.772   1.556   0.851 -0.1710  0.7069 -0.0561
  487SOL    HW1 1460   1.766   1.479   0.785 -1.3269  0.7770 -1.6809
  487SOL    HW2 1461   1.804   1.643   0.809 -0.2754  0.4649 -0.6403
  488SOL     OW 1462   2.989   0.964   2.211  0.1085  0.2092 -0.2060
  488SOL    HW1 1463   3.012   0.871   2.174 -1.1738  1.6812  1.8998
  488SOL    HW2 1464   3.045   1.001   2.295  2.0636  1.3398 -0.2726
  489SOL     OW 1465   2.763   0.216   1.372  0.2867  0.2217  0.0009
  489SOL    HW1 1466   2.756   0.187   1.470  0.5649  2.1934 -1.1209
  489SOL    HW2 1467   2.853   0.184   1.327 -0.3138 -0.8610 -0.5775
  490SOL     OW 1468   1.388   2.991   2.799 -0.1723  0.1399 -0.4369
  490SOL    HW1 1469   1.452   2.912   2.811 -3.5010  2.0121  0.1193
  490SOL    HW2 1470   1.366   3.022   2.704  0.0055 -1.9777  1.9131
  491SOL     OW 1471   1.879   1.541   2.680 -0.5697 -0.1881 -0.4545
  491SOL    HW1 1472   1.819   1.581   2.749  0.6550 -3.5175 -1.0807
  491SOL    HW2 1473   1.975   1.524   2.716 -2.2764  1.0855  3.2886
  492SOL     OW 1474   0.496   1.932   0.708  0.0345 -0.3159 -0.4414
  492SOL    HW1 1475   0.574   1.981   0.755 -0.1787 -0.0227 -2.1516
  492SOL    HW2 1476   0.432   1.999   0.661 -3.9432  1.9809 -0.1934
  493SOL     OW 1477   0.495   1.406   2.142  0.3070  0.6654 -0.3628
  493SOL    HW1 1478   0.400   1.449   2.136  0.1009  0.2780 -0.6622
  493SOL    HW2 1479   0.494   1.316   2.198  1.1446 -0.2583 -1.4651
  494SOL     OW 1480   2.587   2.562   0.197  0.4475 -0.5157  0.0951
  494SOL    HW1 1481   2.647   2.477   0.204  3.7181 -2.0885 -0.4441
  494SOL    HW2 1482   2.557   2.587   0.097 -0.0221  0.2765  0.7195
  495SOL     OW 1483   2.747   2.681   2.694 -0.2154  0.4100  0.3559
  495SOL    HW1 1484   2.763   2.590   2.653  1.5075  4.0386  1.2065
  495SOL    HW2 1485   2.723   2.752   2.619 -2.5404  1.4054 -1.2964
  496SOL     OW 1486   2.100   2.203   0.705  0.2092  0.2557 -0.1914
  496SOL    HW1 1487   2.139   2.239   0.797 -0.8223 -1.4598 -3.7841
  496SOL    HW2 1488   2.104   2.100   0.695  0.2467 -2.5079  1.4052
  497SOL     OW 1489   0.250   2.965   2.394 -0.2923 -0.2999 -0.3862
  497SOL    HW1 1490   0.201   3.037   2.449  2.6564 -0.0017 -1.3054
  497SOL    HW2 1491   0.317   2.999   2.323  0.2988  0.7482  3.4800
  498SOL     OW 1492   1.253   1.498   1.107  0.3666  0.0119  0.3913
  498SOL    HW1 1493   1.352   1.511   1.129 -0.7957  2.9617 -1.3746
  498SOL    HW2 1494   1.185   1.559   1.168 -0.0827 -0.8477  0.9036
  499SOL     OW 1495   0.844   1.805   0.481 -0.2423  0.3178 -0.0684
  499SOL    HW1 1496   0.796   1.720   0.516 -0.9816  1.7484  0.9169
  499SOL    HW2 1497   0.873   1.870   0.553 -2.0762 -1.8917 -2.9387
  500SOL     OW 1498   1.441   2.962   1.649  0.1119 -0.1896  0.0824
  500SOL    HW1 1499   1.367   2.981   1.721 -1.4198 -1.2134  0.7732
  500SOL    HW2 1500   1.474   2.864   1.647  0.0717  1.4140  2.4980
  501SOL     OW 1501   0.819   1.122   2.269  1.1238  0.5320 -0.5117
  501SOL    HW1 1502   0.756   1.035   2.292 -0.4575  0.3706 -0.8610
  501SOL    HW2 1503   0.854   1.124   2.174  0.4736  0.9914  0.9543
  502SOL     OW 1504   2.573   0.958   1.743 -0.0693 -0.3013 -0.0624
  502SOL    HW1 1505   2.551   0.968   1.643 -0.9868  0.1410  2.2734
  502SOL    HW2 1506   2.528   0.869   1.772 -1.1019  0.8108  0.2096
  503SOL     OW 1507   1.311   0.164   0.583  0.1355  0.2180 -0.7763
  503SOL    HW1 1508   1.242   0.241   0.569 -0.6837  0.1550  1.0773
  503SOL    HW2 1509   1.403   0.198   0.615 -0.9368  2.4735  0.5921
  504SOL     OW 1510   2.963   2.316   1.434 -0.0231  0.1461 -0.2049
  504SOL    HW1 1511   2.956   2.407   1.481 -0.2053 -2.2309 -1.8133
  504SOL    HW2 1512   2.872   2.269   1.459 -1.5216  0.3817  0.0350
  505SOL     OW 1513   2.281   1.291   1.459  0.0732 -0.4814 -0.3201
  505SOL    HW1 1514   2.271   1.388   1.493  0.3321 -1.4672 -0.8264
  505SOL    HW2 1515   2.375   1.256   1.472  1.7057 -0.0424 -1.5960
  506SOL     OW 1516   1.875   0.325   1.745  0.1755  0.3979  0.2068
  506SOL    HW1 1517   1.964   0.276   1.722 -2.6539  0.3852  1.7128
  506SOL    HW2 1518   1.883   0.415   1.799  0.8964  0.7764  0.0691
  507SOL     OW 1519   0.519   0.744   2.165  0.0728 -0.0232 -0.0145
  507SOL    HW1 1520   0.439   0.736   2.097  0.3944 -1.7658 -1.2049
  507SOL    HW2 1521   0.569   0.652   2.184  0.7923  0.1468 -1.6855
  508SOL     OW 1522   0.159   1.614   0.860 -0.7921  0.9149 -0.5342
  508SOL    HW1 1523   0.253   1.645   0.822 -0.5186 -1.5757 -3.4277
  508SOL    HW2 1524   0.152   1.630   0.965 -0.0816 -2.2680  3.1221
  509SOL     OW 1525   1.359   1.159   2.571  0.8754 -0.3980 -0.3917
  509SOL    HW1 1526   1.266   1.200   2.583  0.2079  1.2288 -0.0039
  509SOL    HW2 1527   1.354   1.051   2.556  2.3855 -0.7803 -0.2704
  510SOL     OW 1528   1.343   2.012   2.045 -0.4635 -0.4218 -0.1905
  510SOL    HW1 1529   1.261   2.072   2.074  3.3260 -2.4940  1.6767
  510SOL    HW2 1530   1.354   1.926   2.104 -1.5983 -1.9764 -1.0561
  511SOL     OW 1531   3.037   2.633   1.296  0.4080 -0.1514  0.0188
  511SOL    HW1 1532   2.997   2.616   1.199  1.1545 -0.5534  1.4465
  511SOL    HW2 1533   2.975   2.680   1.359  2.2970 -1.4825 -0.9435
  512SOL     OW 1534   2.414   0.362   1.457  0.3067  0.1295  0.1847
  512SOL    HW1 1535   2.314   0.362   1.429 -1.1681  0.3950 -2.6860
  512SOL    HW2 1536   2.463   0.277   1.418 -2.3993 -0.2159  1.3749
  513SOL     OW 1537   2.489   2.040   0.823 -0.5123  0.2710 -0.7211
  513SOL    HW1 1538   2.444   2.123   0.776 -0.7571  0.3001 -0.9948
  513SOL    HW2 1539   2.588   2.025   0.793  0.6475 -0.4851  0.1965
  514SOL     OW 1540   0.705   2.812   0.338  0.4569 -0.4239 -0.3242
  514SOL    HW1 1541   0.673   2.881   0.270  3.5304 -1.0045  1.1479
  514SOL    HW2 1542   0.731   2.855   0.428 -1.6919 -0.4829 -0.0445
  515SOL     OW 1543   1.948   1.243   2.339  0.7138  0.3060  0.5567
  515SOL    HW1 1544   1.889   1.275   2.264  0.9357  0.6722 -0.0151
  515SOL    HW2 1545   1.903   1.233   2.430 -3.5442 -1.2010 -4.7401
  516SOL     OW 1546   0.311   0.390   2.001  0.7005 -0.3389 -0.2001
  516SOL    HW1 1547   0.410   0.362   1.973  0.7188 -1.2289 -0.1647
  516SOL    HW2 1548   0.240   0.325   1.955 -0.9858 -1.4391 -3.5377
  517SOL     OW 1549   0.346   2.973   1.188 -0.0932  0.2447 -0.3418
  517SOL    HW1 1550   0.395   3.062   1.210 -2.4598  0.9004  1.5243
  517SOL    HW2 1551   0.271   2.948   1.250 -0.3388 -0.0778 -0.0015
  518SOL     OW 1552   2.109   0.165   1.709  0.1557 -0.5339  0.4735
  518SOL    HW1 1553   2.158   0.188   1.797  1.2332  1.6272  0.3183
  518SOL    HW2 1554   2.147   0.078   1.664  1.7338 -0.4665  1.0843
  519SOL     OW 1555   2.365   2.217   2.635  0.2952  0.7655  0.2921
  519SOL    HW1 1556   2.268   2.201   2.673  0.6767 -1.3080 -2.6830
  519SOL    HW2 1557   2.371   2.311   2.597  1.1386 -0.7736  2.7638
  520SOL     OW 1558   1.737   2.881   1.815 -0.3807  0.2523 -0.5028
  520SOL    HW1 1559   1.679   2.836   1.890  2.1194 -0.9488 -0.0711
  520SOL    HW2 1560   1.813   2.810   1.794 -0.1138 -0.7280  1.0085
  521SOL     OW 1561   0.607   0.087   2.146  0.0362 -0.6438  0.1762
  521SOL    HW1 1562   0.505   0.062   2.156  1.4668 -3.6514 -0.6109
  521SOL    HW2 1563   0.660   0.060   2.234 -0.0844 -2.2974 -0.5737
  522SOL     OW 1564   0.202   1.914   1.521 -0.6641  0.4628  0.1665
  522SOL    HW1 1565   0.269   1.949   1.597  1.2226  2.6461 -0.6635
  522SOL    HW2 1566   0.213   1.967   1.431 -0.9795 -0.2513  0.9108
  523SOL     OW 1567   2.265   3.020   1.631 -0.1481  0.0792  1.0481
  523SOL    HW1 1568   2.275   2.936   1.568  2.3494  0.7103 -2.0585
  523SOL    HW2 1569   2.220   3.008   1.720  0.5855 -1.8842 -0.8769
  524SOL     OW 1570   0.215   2.774   2.800 -0.6797 -0.1425 -0.3316
  524SOL    HW1 1571   0.170   2.850   2.860  2.8144  2.8071  0.2339
  524SOL    HW2 1572   0.319   2.789   2.817 -3.0452  1.5816  1.8854
  525SOL     OW 1573   2.080   1.921   0.473  0.3240 -0.3962 -0.4882
  525SOL    HW1 1574   2.136   1.886   0.550  0.0370  0.2192  0.5173
  525SOL    HW2 1575   2.114   1.879   0.381 -1.2423 -0.0439  0.8520
  526SOL     OW 1576   0.379   1.524   1.524  0.2114  0.0391  0.0937
  526SOL    HW1 1577   0.323   1.497   1.605  1.0939  0.4081 -0.1748
  526SOL    HW2 1578   0.471   1.481   1.517 -0.8066  1.5192  1.1021
  527SOL     OW 1579   1.146   2.893   1.165  0.1386  0.0662 -0.5307
  527SOL    HW1 1580   1.204   2.851   1.245  2.7341  1.1198  0.1542
  527SOL    HW2 1581   1.134   2.996   1.173  0.6876 -0.0060  0.0055
  528SOL     OW 1582   1.303   2.404   0.473 -0.4027  0.1632  0.1492
  528SOL    HW1 1583   1.356   2.318   0.483 -0.4020  0.6641 -0.3814
  528SOL    HW2 1584   1.344   2.474   0.538  0.9945 -1.2976  0.8072
  529SOL     OW 1585   1.903   1.747   0.702  0.4366  0.1750 -0.2777
  529SOL    HW1 1586   1.847   1.758   0.615  0.3837 -0.0947 -0.2565
  529SOL    HW2 1587   2.002   1.757   0.686 -0.9863 -2.7321  1.2351
  530SOL     OW 1588   0.342   2.490   0.224 -0.3625  0.5114  0.5323
  530SOL    HW1 1589   0.356   2.584   0.247  1.5676  1.3148 -3.2247
  530SOL    HW2 1590   0.390   2.422   0.284  1.9968  0.0728 -1.3803
  531SOL     OW 1591   1.900   0.803   0.942  0.3952 -0.1243  0.1123
  531SOL    HW1 1592   1.932   0.846   0.851  1.8068  0.9600  3.2646
  531SOL    HW2 1593   1.800   0.832   0.962 -3.3171 -2.0575  0.1044
  532SOL     OW 1594   0.455   1.103   0.734 -0.0834 -0.6051  0.0811
  532SOL    HW1 1595   0.544   1.064   0.693  2.0889  0.5761 -0.7870
  532SOL    HW2 1596   0.404   1.025   0.782 -2.6688 -0.4533 -1.0529
  533SOL     OW 1597   1.718   0.018   2.574  0.7547  0.3343  0.1981
  533SOL    HW1 1598   1.815   0.001   2.601  1.7405  3.2508  0.4176
  533SOL    HW2 1599   1.668   0.085   2.641 -3.1092 -0.8014  0.9318
  534SOL     OW 1600   0.369   0.228   1.491  0.4266  0.2485 -0.2308
  534SOL    HW1 1601   0.463   0.218   1.541  2.6579 -1.9398  0.2439
  534SOL    HW2 1602   0.349   0.330   1.481 -0.5069  0.3686 -0.2370
  535SOL     OW 1603   1.982   0.317   0.161  0.3723 -0.3979  0.5945
  535SOL    HW1 1604   1.984   0.403   0.223 -0.0960 -2.0542 -0.8472
  535SOL    HW2 1605   1.964   0.223   0.206  0.7764 -1.8313  0.3474
  536SOL     OW 1606   1.381   2.603   0.971  0.3729 -0.0226  0.4670
  536SOL    HW1 1607   1.341   2.540   1.039  1.5441  3.0527 -3.8763
  536SOL    HW2 1608   1.314   2.655   0.916  0.6740  0.4250  3.1032
  537SOL     OW 1609   0.890   0.231   2.336  0.3328  0.0539 -0.2031
  537SOL    HW1 1610   0.908   0.270   2.239 -0.3637  0.0386 -1.4642
  537SOL    HW2 1611   0.857   0.129   2.341 -2.8962 -3.7553 -1.3288
  538SOL     OW 1612   1.631   2.361   1.406 -0.0488 -0.6257  0.0324
  538SOL    HW1 1613   1.640   2.257   1.424  0.6039 -1.7595 -0.3270
  538SOL    HW2 1614   1.716   2.421   1.426  1.2251 -0.1464 -1.8239
  539SOL     OW 1615   0.190   1.583   2.665 -0.6959 -0.3719 -0.5821
  539SOL    HW1 1616   0.094   1.541   2.658  0.1942  2.4452  0.7287
  539SOL    HW2 1617   0.192   1.664   2.728  1.7194 -0.2300 -1.7401
  540SOL     OW 1618   2.669   1.755   1.954  0.5232  0.1476  0.0795
  540SOL    HW1 1619   2.605   1.670   1.961 -0.1233 -1.2071 -0.3282
  540SOL    HW2 1620   2.619   1.850   1.939  1.6327  5.3710 -1.6235
  541SOL     OW 1621   0.471   2.137   3.055 -0.5149 -0.2948 -0.7430
  541SOL    HW1 1622   0.495   2.099   3.148  2.0719 -0.6316  0.3753
  541SOL    HW2 1623   0.369   2.129   3.033 -2.2914  0.0499  0.4323
  542SOL     OW 1624   2.260   2.607   0.501  0.1215 -0.5134 -0.8801
  542SOL    HW1 1625   2.239   2.691   0.559 -1.0292  0.5784 -0.4009
  542SOL    HW2 1626   2.187   2.532   0.500 -1.9214  0.1914  2.6636
  543SOL     OW 1627   1.007   1.779   1.585 -0.9499  0.0232  0.0765
  543SOL    HW1 1628   1.011   1.788   1.692  0.6031  2.6275 -2.6292
  543SOL    HW2 1629   0.962   1.860   1.535  0.2554  0.7246 -0.2860
  544SOL     OW 1630   1.128   0.532   0.150  0.3803  0.6220 -0.4530
  544SOL    HW1 1631   1.085   0.440   0.183  0.7767 -1.9074 -0.2707
  544SOL    HW2 1632   1.160   0.526   0.050 -0.9488 -1.2709  0.7892
  545SOL     OW 1633   1.146   1.779   0.811  0.1824 -0.0789  0.0939
  545SOL    HW1 1634   1.243   1.790   0.773 -1.5849 -0.1001  0.4152
  545SOL    HW2 1635   1.126   1.677   0.836  0.9148 -1.7694  0.9016
  546SOL     OW 1636   2.718   1.587   3.015  0.4283  0.0347  0.4635
  546SOL    HW1 1637   2.694   1.670   2.954 -0.8457 -1.2918 -1.3633
  546SOL    HW2 1638   2.639   1.528   3.039 -0.4586 -0.4592  0.8887
  547SOL     OW 1639   0.727   3.016   2.599  0.5505  0.1320 -0.1298
  547SOL    HW1 1640   0.772   2.986   2.692  2.4823  0.5169  3.2452
  547SOL    HW2 1641   0.673   2.937   2.556  2.7425  2.9409  3.5274
  548SOL     OW 1642   2.028   0.808   3.073 -0.4951  0.3595  0.7117
  548SOL    HW1 1643   1.929   0.806   3.049 -0.6469 -1.3258  0.2719
  548SOL    HW2 1644   2.061   0.902   3.094 -0.3209  1.1714  0.9192
  549SOL     OW 1645   0.660   0.512   0.183  0.1116 -0.7103 -0.1971
  549SOL    HW1 1646   0.611   0.539   0.095  0.7122 -1.3487  0.5772
  549SOL    HW2 1647   0.738   0.583   0.208  0.9606 -2.4301  0.1565
  550SOL     OW 1648   2.613   2.804   2.893  0.3047  0.3273  0.0345
  550SOL    HW1 1649   2.553   2.745   2.954  2.9750  3.2186  1.4674
  550SOL    HW2 1650   2.648   2.752   2.809 -1.1780 -0.7089 -1.0967
  551SOL     OW 1651   0.245   0.861   0.237 -0.6021 -0.2838  0.3693
  551SOL    HW1 1652   0.339   0.826   0.208 -0.9021  0.5844 -2.3771
  551SOL    HW2 1653   0.229   0.862   0.337  0.2032  0.7407  3.3759
  552SOL     OW 1654   0.616   3.043   1.913  0.0233  0.5309 -0.3750
  552SOL    HW1 1655   0.637   3.099   1.999 -0.6202  0.3566  2.3579
  552SOL    HW2 1656   0.697   2.989   1.886 -2.5458  0.5642 -0.0414
  553SOL     OW 1657   3.065   2.405   0.372  0.3202 -0.4099  0.0251
  553SOL    HW1 1658   3.089   2.332   0.445  1.5125 -1.2873  1.0575
  553SOL    HW2 1659   2.972   2.442   0.382 -0.2620 -0.2994  0.6963
  554SOL     OW 1660   2.230   0.330   0.593  0.2848 -0.0828  0.2259
  554SOL    HW1 1661   2.281   0.342   0.502  0.9611 -2.7528 -1.5409
  554SOL    HW2 1662   2.243   0.238   0.639 -1.1222  0.4862  2.1233
  555SOL     OW 1663   0.468   2.813   2.497  0.1670 -0.2137  0.8717
  555SOL    HW1 1664   0.388   2.858   2.450 -0.1752  0.0659 -0.5313
  555SOL    HW2 1665   0.526   2.757   2.428 -2.1132 -0.1121  1.7072
  556SOL     OW 1666   0.841   2.359   1.594 -0.4522 -0.2719 -0.1298
  556SOL    HW1 1667   0.857   2.433   1.667 -0.8844  4.5663 -1.1372
  556SOL    HW2 1668   0.902   2.375   1.513 -2.1899 -2.4667  0.9453
  557SOL     OW 1669   0.132   2.179   0.256 -1.0624  0.6245  0.4886
  557SOL    HW1 1670   0.046   2.127   0.224 -1.2805 -1.5465 -3.7625
  557SOL    HW2 1671   0.177   2.219   0.176  0.4166 -0.2634 -2.1318
  558SOL     OW 1672   2.826   2.184   0.394 -0.5453 -0.3291 -0.3196
  558SOL    HW1 1673   2.802   2.277   0.426  4.6296 -4.3150 -3.6266
  558SOL    HW2 1674   2.770   2.152   0.314  1.0173 -1.5784  2.4098
  559SOL     OW 1675   0.438   2.273   1.441 -0.2746  0.1309 -0.3303
  559SOL    HW1 1676   0.339   2.260   1.437  1.1250  3.2592 -1.9880
  559SOL    HW2 1677   0.500   2.212   1.377  1.2236 -0.0073  0.0432
  560SOL     OW 1678   2.172   1.051   0.029 -0.2927  0.3430  0.2673
  560SOL    HW1 1679   2.234   1.106   0.097 -0.1662  1.6502  2.7696
  560SOL    HW2 1680   2.233   0.993  -0.033  1.4340 -1.2005 -1.1491
  561SOL     OW 1681   3.028   1.991   0.142 -0.4410 -0.3130 -0.4766
  561SOL    HW1 1682   2.974   1.919   0.191 -1.1901  3.8616 -0.9869
  561SOL    HW2 1683   2.973   2.022   0.062  0.9183 -0.7238  0.1262
  562SOL     OW 1684   1.022   2.096   2.288 -0.0260  0.2711  0.2119
  562SOL    HW1 1685   0.997   2.193   2.322 -1.3241  1.0763 -1.7245
  562SOL    HW2 1686   0.971   2.027   2.343  1.4742  4.1980  1.0635
  563SOL     OW 1687   0.670   2.504   2.641  0.7885 -0.9929 -0.1395
  563SOL    HW1 1688   0.759   2.454   2.628 -1.3957  1.1726  0.3649
  563SOL    HW2 1689   0.665   2.552   2.734 -1.9401 -0.8496 -0.4506
  564SOL     OW 1690   2.873   1.402   2.889 -0.1378 -0.7878  0.3521
  564SOL    HW1 1691   2.807   1.469   2.925  2.4787 -1.8076 -0.5784
  564SOL    HW2 1692   2.960   1.454   2.859  0.4523 -1.6762  1.0976
  565SOL     OW 1693   2.498   1.948   2.643  0.4499  0.4086  0.1276
  565SOL    HW1 1694   2.488   2.054   2.635  0.6602  0.3988 -1.0408
  565SOL    HW2 1695   2.585   1.919   2.693 -2.0797 -2.0388 -0.4697
  566SOL     OW 1696   2.017   2.924   1.513  0.1702  0.2363  1.0872
  566SOL    HW1 1697   2.016   2.817   1.520  1.7215 -3.1048 -0.7356
  566SOL    HW2 1698   2.079   2.958   1.434  2.1997  0.4422  0.2768
  567SOL     OW 1699   2.374   0.044   2.300  0.3680 -0.0204 -0.0788
  567SOL    HW1 1700   2.281   0.068   2.340 -0.4793  0.3410 -0.0816
  567SOL    HW2 1701   2.381   0.035   2.197  0.1096 -2.2388  1.9363
  568SOL     OW 1702   1.476   1.751   0.191  0.0485 -0.0984 -0.2674
  568SOL    HW1 1703   1.416   1.830   0.167  1.6592 -2.3018 -0.4267
  568SOL    HW2 1704   1.576   1.775   0.183 -2.7680 -0.4317 -4.0486
  569SOL     OW 1705   0.214   0.531   0.840 -0.7965  0.2370 -0.2107
  569SOL    HW1 1706   0.215   0.449   0.780 -2.9041 -1.9537  1.0998
  569SOL    HW2 1707   0.119   0.571   0.849 -1.4028 -1.7079 -1.5713
  570SOL     OW 1708   0.653   0.824   2.913 -0.3459 -0.7237  0.0555
  570SOL    HW1 1709   0.690   0.878   2.832  0.7399 -0.9214 -1.7286
  570SOL    HW2 1710   0.643   0.885   2.999  3.0366 -0.8066 -1.7103
  571SOL     OW 1711   0.809   3.032   1.093 -0.6314  0.2012  0.7468
  571SOL    HW1 1712   0.872   3.097   1.038  0.0570 -1.9061 -2.3579
  571SOL    HW2 1713   0.858   2.941   1.104  2.3215  2.4679  2.4536
  572SOL     OW 1714   1.668   2.733   1.406  0.1789 -0.2310 -0.5068
  572SOL    HW1 1715   1.649   2.700   1.314  0.6477  0.5058 -1.2042
  572SOL    HW2 1716   1.644   2.835   1.413 -2.5588 -1.4756  2.4302
  573SOL     OW 1717   3.042   0.470   1.948  0.1623 -0.1535 -0.3416
  573SOL    HW1 1718   2.956   0.410   1.931  0.6450  1.2799 -2.7975
  573SOL    HW2 1719   3.122   0.452   1.879  3.5586 -1.7244 -0.5408
  574SOL     OW 1720   0.112   1.684   1.110 -0.1539 -0.0622  0.4451
  574SOL    HW1 1721   0.162   1.691   1.203  1.5952  1.1811 -1.3977
  574SOL    HW2 1722   0.051   1.765   1.095  1.0047 -0.0733 -0.5943
  575SOL     OW 1723   0.840   2.302   0.930 -0.1616  0.5909  0.0110
  575SOL    HW1 1724   0.817   2.369   1.007  0.0042  1.3036 -3.5210
  575SOL    HW2 1725   0.842   2.341   0.836  3.7782 -0.6042  0.1563
  576SOL     OW 1726   2.935   3.035   1.672 -0.2750  0.0053 -0.0228
  576SOL    HW1 1727   2.834   3.052   1.651  2.9747 -0.7861  0.6594
  576SOL    HW2 1728   2.995   3.121   1.672  1.2520  0.9302  1.3088
  577SOL     OW 1729   2.647   1.203   3.060 -0.4522  0.5968 -0.1463
  577SOL    HW1 1730   2.641   1.111   3.009 -2.9233 -2.2505 -0.2493
  577SOL    HW2 1731   2.687   1.179   3.152  0.7725 -0.7761 -0.2921
  578SOL     OW 1732   1.364   2.729   2.557  0.0587  0.4897  0.1328
  578SOL    HW1 1733   1.271   2.762   2.530  0.6456 -0.0082 -1.6167
  578SOL    HW2 1734   1.439   2.783   2.508 -1.2010  0.5534 -1.1224
  579SOL     OW 1735   0.071   2.460   0.133 -0.5140  0.0147  0.3128
  579SOL    HW1 1736   0.036   2.437   0.230  2.0445 -0.1815 -1.4765
  579SOL    HW2 1737   0.177   2.473   0.136  0.0349  4.3314  2.3876
  580SOL     OW 1738   0.979   2.697   0.344  0.2492  0.4131  0.0032
  580SOL    HW1 1739   1.049   2.706   0.268 -0.4012  0.8143 -1.6725
  580SOL    HW2 1740   0.890   2.747   0.326  0.1296  0.0512  1.1315
  581SOL     OW 1741   1.280   2.716   1.406 -0.1133  0.0445 -0.5738
  581SOL    HW1 1742   1.326   2.636   1.448 -1.0465  3.3764 -0.8045
  581SOL    HW2 1743   1.347   2.776   1.353  0.0541 -1.9426 -2.3019
  582SOL     OW 1744   1.419   0.104   1.841 -0.4174  0.5511 -0.2225
  582SOL    HW1 1745   1.467   0.163   1.907  0.5475 -2.2306 -0.0146
  582SOL    HW2 1746   1.481   0.081   1.761 -1.2945  2.6721  0.6945
  583SOL     OW 1747   2.493   2.987   0.493  0.2628  0.2653  0.4524
  583SOL    HW1 1748   2.562   2.929   0.436  0.7480 -2.9873  1.0836
  583SOL    HW2 1749   2.448   2.936   0.569 -0.8445  0.0327  0.6726
  584SOL     OW 1750   1.477   1.037   2.271 -0.3700 -0.2943 -0.2205
  584SOL    HW1 1751   1.491   1.135   2.299 -4.9516  0.1291  2.4656
  584SOL    HW2 1752   1.568   0.983   2.271  0.3397 -1.5479 -1.1689
  585SOL     OW 1753   2.054   2.663   2.868  0.3393  0.1132 -0.4708
  585SOL    HW1 1754   2.089   2.561   2.872 -3.3534 -2.4551 -0.1576
  585SOL    HW2 1755   1.953   2.671   2.874  0.6899 -2.3658  0.5620
  586SOL     OW 1756   2.872   0.390   1.604 -0.2326  0.2047  0.5729
  586SOL    HW1 1757   2.844   0.472   1.665 -0.1381 -3.0811 -1.3359
  586SOL    HW2 1758   2.794   0.326   1.603 -2.4721 -0.1643  0.0292
  587SOL     OW 1759   2.148   1.475   2.744 -0.5850 -0.0874 -0.6713
  587SOL    HW1 1760   2.147   1.413   2.662  2.3202  1.9236 -0.3606
  587SOL    HW2 1761   2.245   1.509   2.772 -3.8079  1.3632 -1.2259
  588SOL     OW 1762   0.439   2.647   2.228 -0.5115  0.6030 -0.9741
  588SOL    HW1 1763   0.427   2.729   2.161 -0.4339 -1.3418 -2.1775
  588SOL    HW2 1764   0.377   2.571   2.208 -2.7765  0.2088 -2.0065
  589SOL     OW 1765   2.162   1.377   2.481  0.2051 -0.0429 -0.4023
  589SOL    HW1 1766   2.092   1.320   2.427 -2.3260 -0.2779  0.3108
  589SOL    HW2 1767   2.254   1.335   2.503 -2.5220  0.4868  0.7956
  590SOL     OW 1768   2.328   1.677   2.045 -0.4601  0.3710 -0.2574
  590SOL    HW1 1769   2.401   1.601   2.027 -0.6642 -1.1051  0.6637
  590SOL    HW2 1770   2.348   1.717   2.140  2.1414  1.9343  0.6580
  591SOL     OW 1771   1.279   2.415   0.209 -0.4215  0.7665 -0.1005
  591SOL    HW1 1772   1.341   2.337   0.174  2.9607  0.0321 -0.4030
  591SOL    HW2 1773   1.264   2.409   0.310  0.5687 -0.6335 -3.1628
  592SOL     OW 1774   1.793   2.340   0.785 -0.0367 -0.2796 -0.1572
  592SOL    HW1 1775   1.780   2.395   0.693 -2.0484  1.9219 -0.1297
  592SOL    HW2 1776   1.892   2.305   0.799 -2.3757 -1.9172 -0.4606
  593SOL     OW 1777   0.787   0.263   0.212  0.7419 -0.9618  0.6232
  593SOL    HW1 1778   0.810   0.221   0.122  1.5893 -1.5733  1.9112
  593SOL    HW2 1779   0.741   0.357   0.201  1.4278 -0.7939 -0.3442
  594SOL     OW 1780   0.969   1.809   2.685 -0.9713 -0.2161  0.6287
  594SOL    HW1 1781   1.066   1.788   2.650  0.0968 -1.8624 -1.1149
  594SOL    HW2 1782   0.972   1.874   2.772  0.4015  1.4533  3.6113
  595SOL     OW 1783   1.573   0.112   1.014 -0.3347 -0.6264  0.4092
  595SOL    HW1 1784   1.662   0.058   1.012  1.8234  1.1609 -0.7647
  595SOL    HW2 1785   1.501   0.062   0.956 -2.3075  0.2895  0.7591
  596SOL     OW 1786   0.234   1.490   2.177  0.4143  0.3584  0.6709
  596SOL    HW1 1787   0.157   1.421   2.193 -0.7866  3.7656 -1.6970
  596SOL    HW2 1788   0.268   1.535   2.260  1.4828 -2.9666  0.4871
  597SOL     OW 1789   1.953   2.699   1.816  0.2071 -0.0522  0.0190
  597SOL    HW1 1790   1.945   2.693   1.709  0.2759 -2.3517 -2.9102
  597SOL    HW2 1791   2.036   2.645   1.847 -0.3044  0.0530  0.1843
  598SOL     OW 1792   2.529   2.771   1.242 -0.2101 -0.0857  0.5591
  598SOL    HW1 1793   2.634   2.760   1.243  0.1420 -0.4029 -2.1093
  598SOL    HW2 1794   2.475   2.682   1.237 -0.9127 -1.1462 -0.7956
  599SOL     OW 1795   2.892   0.312   2.507  0.1744 -0.0933 -0.2343
  599SOL    HW1 1796   2.983   0.304   2.465  1.6679  0.1302  1.6707
  599SOL    HW2 1797   2.822   0.371   2.462 -1.8286 -0.7299  2.1128
  600SOL     OW 1798   2.739   1.207   2.735 -0.1205 -0.0926  0.1269
  600SOL    HW1 1799   2.650   1.180   2.777  0.1156  0.3306 -0.1864
  600SOL    HW2 1800   2.773   1.294   2.784 -2.0487  0.5376 -0.8821
  601SOL     OW 1801   3.036   1.380   1.886 -0.3351 -0.0635 -0.5506
  601SOL    HW1 1802   2.943   1.420   1.868 -0.0679  0.8838  3.5823
  601SOL    HW2 1803   3.110   1.452   1.911 -0.6019  0.4624  1.7819
  602SOL     OW 1804   1.489   1.588   2.365 -0.2417 -0.0857  0.0712
  602SOL    HW1 1805   1.395   1.563   2.396 -0.1814 -1.8666 -0.0097
  602SOL    HW2 1806   1.566   1.570   2.430 -1.7886 -2.7655 -2.4383
  603SOL     OW 1807   0.577   1.161   2.756  0.3226 -0.1459  0.4085
  603SOL    HW1 1808   0.506   1.195   2.691  0.3608 -1.5911 -0.1165
  603SOL    HW2 1809   0.603   1.063   2.729 -1.3116 -0.1419 -0.5386
  604SOL     OW 1810   2.526   0.998   0.262  0.5105  0.0992 -0.6830
  604SOL    HW1 1811   2.610   1.053   0.241 -2.0111 -0.0571  1.8685
  604SOL    HW2 1812   2.499   0.942   0.181  3.1675 -0.0347  0.9654
  605SOL     OW 1813   2.568   1.174   1.911 -0.3606 -0.4121 -0.3467
  605SOL    HW1 1814   2.572   1.072   1.887 -1.0123 -1.6891  1.1383
  605SOL    HW2 1815   2.577   1.192   2.015 -1.0295 -0.3080  1.1473
  606SOL     OW 1816   1.473   2.462   2.549 -0.5991 -0.2976 -0.1000
  606SOL    HW1 1817   1.389   2.523   2.566 -0.9652  2.5853  0.5523
  606SOL    HW2 1818   1.453   2.363   2.547  1.0200  0.9947 -1.5381
  607SOL     OW 1819   1.273   1.585   0.259  0.0735  0.4606 -0.1372
  607SOL    HW1 1820   1.216   1.655   0.316  0.0214  4.0677 -1.0946
  607SOL    HW2 1821   1.364   1.632   0.227  1.7025  5.0756  0.5825
  608SOL     OW 1822   1.450   2.856   0.351  0.0352  0.4687  0.1967
  608SOL    HW1 1823   1.503   2.872   0.263  2.4681 -0.2182  2.5187
  608SOL    HW2 1824   1.390   2.938   0.384 -1.2869  1.1722  0.6387
  609SOL     OW 1825   1.256   1.305   0.196 -0.3208 -0.2558  0.4079
  609SOL    HW1 1826   1.267   1.410   0.225 -1.7598  2.7182 -1.0202
  609SOL    HW2 1827   1.239   1.303   0.094 -2.1721 -0.4281  0.7523
  610SOL     OW 1828   3.084   1.226   2.109 -0.5969 -0.3536 -0.4920
  610SOL    HW1 1829   3.020   1.152   2.125 -1.9037 -0.0607 -0.2733
  610SOL    HW2 1830   3.060   1.263   2.017 -0.3192 -1.7769 -0.1158
  611SOL     OW 1831   2.581   0.183   1.173  0.6861  0.3407  0.2545
  611SOL    HW1 1832   2.522   0.095   1.189 -1.4062 -0.1335  0.9182
  611SOL    HW2 1833   2.668   0.188   1.233  1.2412 -0.4641 -1.0904
  612SOL     OW 1834   0.753   2.386   1.197  0.0780  0.3448 -0.8906
  612SOL    HW1 1835   0.724   2.290   1.201  0.4591  1.3748 -0.5596
  612SOL    HW2 1836   0.683   2.458   1.224  0.3337 -1.0898  2.4417
  613SOL     OW 1837   0.789   1.353   2.388  0.0518 -0.5448  0.1041
  613SOL    HW1 1838   0.814   1.438   2.331  0.7163  0.4593 -0.5382
  613SOL    HW2 1839   0.789   1.266   2.329  1.9982 -2.3190  1.8373
  614SOL     OW 1840   1.508   1.681   1.958  0.1033  0.2523 -0.0995
  614SOL    HW1 1841   1.508   1.740   1.877  1.2049  1.0775 -0.8634
  614SOL    HW2 1842   1.571   1.712   2.033 -1.9168 -1.3456 -2.7706
  615SOL     OW 1843   0.716   1.440   1.689  0.0054 -0.0878 -0.3261
  615SOL    HW1 1844   0.666   1.402   1.607  4.1770  0.0805  1.3509
  615SOL    HW2 1845   0.816   1.433   1.678  1.4605 -2.3011  1.5717
  616SOL     OW 1846   1.096   1.642   2.178  0.1724  0.2606 -0.6519
  616SOL    HW1 1847   0.994   1.613   2.184 -1.6700  1.5221  0.9155
  616SOL    HW2 1848   1.140   1.623   2.084  1.2307  2.2640 -4.5061
  617SOL     OW 1849   2.913   1.565   1.592  0.4173 -0.1145  0.5566
  617SOL    HW1 1850   2.879   1.523   1.680 -0.1414  1.3509  0.2445
  617SOL    HW2 1851   2.936   1.492   1.520  0.2760  0.9244 -1.0644
  618SOL     OW 1852   1.876   2.012   1.530  0.3456  0.8428  0.2858
  618SOL    HW1 1853   1.950   2.004   1.456 -1.2354  0.1686  0.6823
  618SOL    HW2 1854   1.844   1.920   1.566 -3.9814 -0.3070  1.0284
  619SOL     OW 1855   1.787   0.513   2.405  0.2122 -0.4030  0.3830
  619SOL    HW1 1856   1.694   0.550   2.372  1.4179 -1.9081  0.6402
  619SOL    HW2 1857   1.790   0.409   2.410  0.6098  2.0926 -1.0077
  620SOL     OW 1858   2.233   2.835   0.678  0.0804 -0.0431  0.9483
  620SOL    HW1 1859   2.135   2.843   0.709  1.5557  0.3251  0.0151
  620SOL    HW2 1860   2.293   2.834   0.759 -2.5984  0.8919  1.2730
  621SOL     OW 1861   2.126   1.931   1.344  0.1501  0.3348 -0.4031
  621SOL    HW1 1862   2.146   1.934   1.447  0.3467 -0.4493  2.4204
  621SOL    HW2 1863   2.109   1.834   1.304 -2.4327 -2.7385 -2.3744
  622SOL     OW 1864   2.191   0.935   1.740 -0.1648 -0.5119  0.0486
  622SOL    HW1 1865   2.264   0.869   1.743 -1.9577 -2.3378 -1.3689
  622SOL    HW2 1866   2.112   0.924   1.808 -2.7428  2.4507  0.2143
  623SOL     OW 1867   1.283   0.896   2.539 -0.1234 -0.8982 -0.0201
  623SOL    HW1 1868   1.210   0.856   2.603  1.0168  0.1778  1.2659
  623SOL    HW2 1869   1.262   0.863   2.443 -0.4176  0.9861  1.7096
  624SOL     OW 1870   0.546   0.636   3.081 -0.6680  0.5320  0.2880
  624SOL    HW1 1871   0.606   0.686   3.013 -3.2195 -3.2997  2.1729
  624SOL    HW2 1872   0.524   0.697   3.164  1.4736 -3.1511 -1.9749
  625SOL     OW 1873   2.823   1.797   0.828  0.5017 -0.4076 -0.6030
  625SOL    HW1 1874   2.811   1.859   0.913 -0.6027  1.0566 -1.9312
  625SOL    HW2 1875   2.742   1.740   0.795 -0.0896 -1.2275 -0.7755
  626SOL     OW 1876   0.462   2.835   2.020 -0.0320 -0.2584 -0.3953
  626SOL    HW1 1877   0.531   2.907   1.993  0.8127 -0.8124 -0.0654
  626SOL    HW2 1878   0.383   2.824   1.956 -1.4494  1.3898 -0.5868
  627SOL     OW 1879   0.705   0.956   1.562  0.0859 -0.1446  0.5152
  627SOL    HW1 1880   0.756   0.870   1.569  0.0587 -0.2434  2.1278
  627SOL    HW2 1881   0.758   1.033   1.516 -1.3417 -3.6866  1.5284
  628SOL     OW 1882   2.442   0.122   0.659 -0.4745 -0.2151 -0.3385
  628SOL    HW1 1883   2.479   0.043   0.600  1.8578  1.9032 -0.0474
  628SOL    HW2 1884   2.351   0.093   0.700 -0.5127 -0.3308 -1.7772
  629SOL     OW 1885   2.024   0.951   1.970 -0.0719 -0.2287 -0.4542
  629SOL    HW1 1886   2.068   0.959   2.068  1.8514 -1.2411  1.1723
  629SOL    HW2 1887   1.988   1.044   1.939  1.9938 -1.8031 -0.4531
  630SOL     OW 1888   2.834   2.245   0.796  0.6480  0.8392  0.5064
  630SOL    HW1 1889   2.752   2.307   0.833  2.4570 -1.6056  1.5940
  630SOL    HW2 1890   2.802   2.168   0.732  1.9455 -1.1478  1.1063
  631SOL     OW 1891   3.046   0.206   2.140  0.1569  0.2429  0.5514
  631SOL    HW1 1892   3.092   0.243   2.227 -0.4825 -0.8017  2.0565
  631SOL    HW2 1893   3.111   0.213   2.054  2.9455  2.3780 -1.1988
  632SOL     OW 1894   2.412   2.529   0.728 -0.2518  0.0719 -0.6209
  632SOL    HW1 1895   2.495   2.565   0.778  3.6702 -0.8372  0.4676
  632SOL    HW2 1896   2.416   2.542   0.624  1.7456 -1.8597  0.8521
  633SOL     OW 1897   1.553   1.234   2.724  0.3560  0.1899 -0.3416
  633SOL    HW1 1898   1.516   1.322   2.762 -0.3359  1.5214 -1.3491
  633SOL    HW2 1899   1.499   1.196   2.643  1.5880 -3.3563 -1.0076
  634SOL     OW 1900   0.698   2.076   0.873  0.5529 -0.5393  0.1110
  634SOL    HW1 1901   0.611   2.076   0.932 -2.6878  1.7246  2.2361
  634SOL    HW2 1902   0.755   2.160   0.889 -1.4163 -0.7568 -1.9481
  635SOL     OW 1903   3.067   2.255   3.051 -0.3311 -0.2449  0.3005
  635SOL    HW1 1904   3.003   2.285   2.971 -2.2230  1.4506 -0.4991
  635SOL    HW2 1905   3.100   2.338   3.109 -0.9308  0.6299  0.9029
  636SOL     OW 1906   2.327   2.815   1.959 -0.2533  0.1936 -0.1090
  636SOL    HW1 1907   2.347   2.917   1.973 -1.7342  0.1931 -0.8156
  636SOL    HW2 1908   2.269   2.787   2.041 -0.6064 -1.4569  1.4646
  637SOL     OW 1909   2.558   0.735   2.082  0.0014 -0.2196 -0.0713
  637SOL    HW1 1910   2.522   0.742   1.986  0.7193  0.7512  1.5817
  637SOL    HW2 1911   2.622   0.817   2.098 -1.3329  0.6257  1.6768
  638SOL     OW 1912   2.422   1.917   1.355 -0.0716 -0.9988  0.2196
  638SOL    HW1 1913   2.325   1.943   1.327 -0.5742  0.5055  0.3515
  638SOL    HW2 1914   2.442   1.822   1.336 -0.4610  3.8659 -1.3719
  639SOL     OW 1915   1.275   2.252   1.630 -0.5348 -0.5141  0.4835
  639SOL    HW1 1916   1.260   2.203   1.536  0.0169  0.3089 -1.0832
  639SOL    HW2 1917   1.220   2.207   1.707 -0.8327 -0.8898 -0.9018
  640SOL     OW 1918   0.249   1.148   1.546 -0.3392 -0.6616  0.0517
  640SOL    HW1 1919   0.252   1.229   1.617 -3.5464  1.1086  0.3004
  640SOL    HW2 1920   0.338   1.134   1.495  0.4702  1.3159  0.2589
  641SOL     OW 1921   1.873   0.315   1.434  0.0492 -0.4648 -0.4272
  641SOL    HW1 1922   1.829   0.406   1.464  0.9120  2.5231  0.5489
  641SOL    HW2 1923   1.832   0.231   1.469 -0.4652  1.8096 -1.5471
  642SOL     OW 1924   1.983   0.091   0.324  0.1533  0.0021  0.4662
  642SOL    HW1 1925   2.086   0.069   0.326 -0.2044  0.1316 -0.6326
  642SOL    HW2 1926   1.949   0.120   0.414 -0.4832 -1.7996 -1.2197
  643SOL     OW 1927   2.862   1.883   2.107  0.6138 -0.1359 -0.2732
  643SOL    HW1 1928   2.793   1.830   2.051 -1.3293  2.7120  1.2581
  643SOL    HW2 1929   2.858   1.985   2.085 -1.0440 -0.3882 -1.8294
  644SOL     OW 1930   2.208   2.265   1.150 -0.4039  0.0308 -0.4282
  644SOL    HW1 1931   2.292   2.208   1.114  0.0218  0.2493  2.4699
  644SOL    HW2 1932   2.205   2.244   1.254  1.1227 -0.0213 -0.8191
  645SOL     OW 1933   0.651   0.886   1.128 -0.6920  0.4811  0.6267
  645SOL    HW1 1934   0.565   0.829   1.107 -0.9647  0.3439 -1.0868
  645SOL    HW2 1935   0.643   0.991   1.121 -2.5466 -1.0475  1.2598
  646SOL     OW 1936   1.457   1.929   1.780 -0.4963 -0.2363  0.2795
  646SOL    HW1 1937   1.543   1.987   1.779 -0.4946  1.1707  3.4835
  646SOL    HW2 1938   1.403   1.965   1.861  3.5247  1.9926 -0.1901
  647SOL     OW 1939   0.866   0.859   0.673  0.3044 -0.1178 -0.5570
  647SOL    HW1 1940   0.931   0.864   0.751 -0.9151 -2.2199  2.2928
  647SOL    HW2 1941   0.769   0.833   0.701  1.7575  1.4207  0.3866
  648SOL     OW 1942   0.052   0.216   0.349  0.6416  0.0456 -0.0209
  648SOL    HW1 1943   0.007   0.137   0.297 -1.0051 -1.1498 -2.2399
  648SOL    HW2 1944   0.051   0.303   0.296 -0.2507 -2.1311  1.0012
  649SOL     OW 1945   0.025   0.051   0.990 -1.0088 -0.0785 -0.3478
  649SOL    HW1 1946   0.118   0.005   0.973 -0.7004 -0.9013 -0.9503
  649SOL    HW2 1947   0.023   0.095   1.087 -1.7142  1.0090 -1.3440
  650SOL     OW 1948   2.711   0.700   1.463 -0.8561  0.0344 -0.0597
  650SOL    HW1 1949   2.613   0.690   1.505 -0.0084  1.1288  1.4567
  650SOL    HW2 1950   2.726   0.786   1.405  0.2444 -1.8583 -0.9196
  651SOL     OW 1951   0.920   1.552   1.467 -0.2142 -0.8059  0.1428
  651SOL    HW1 1952   0.980   1.617   1.515  0.9723 -1.6587 -2.6273
  651SOL    HW2 1953   0.840   1.614   1.434  2.4250 -0.2312 -1.3068
  652SOL     OW 1954   2.220   2.546   2.374 -1.0780  0.5407  0.1175
  652SOL    HW1 1955   2.146   2.539   2.454  1.6263  0.7954  0.1072
  652SOL    HW2 1956   2.203   2.620   2.301 -0.4469  1.2587 -2.4511
  653SOL     OW 1957   2.757   1.123   0.205 -0.4384  0.0285  0.0666
  653SOL    HW1 1958   2.815   1.191   0.160 -2.2557 -0.3300 -0.9224
  653SOL    HW2 1959   2.821   1.050   0.258  0.0588 -1.6161  3.5114
  654SOL     OW 1960   1.215   2.234   1.237 -0.0310  0.1325  0.6082
  654SOL    HW1 1961   1.225   2.159   1.308  2.2500  0.0141 -1.5848
  654SOL    HW2 1962   1.276   2.221   1.153  1.1168 -1.9582  1.7986
  655SOL     OW 1963   0.222   1.035   1.920 -0.4615  0.0331 -0.0513
  655SOL    HW1 1964   0.263   0.984   1.838 -0.4375 -0.8693  1.6683
  655SOL    HW2 1965   0.287   1.113   1.962  2.0618  1.4409 -0.7853
  656SOL     OW 1966   2.438   2.470   2.534 -0.1594  0.3909  0.0738
  656SOL    HW1 1967   2.528   2.520   2.522  0.9401 -1.3299 -3.0501
  656SOL    HW2 1968   2.373   2.507   2.463  2.8418  2.0488  1.0137
  657SOL     OW 1969   3.040   1.094   1.840 -0.3119 -0.2785 -0.4484
  657SOL    HW1 1970   3.032   1.196   1.842  1.7487  1.0291 -2.3766
  657SOL    HW2 1971   3.140   1.064   1.858  1.2100 -1.0693 -0.3243
  658SOL     OW 1972   1.735   0.256   2.399 -0.0859  0.1100  0.0027
  658SOL    HW1 1973   1.726   0.171   2.446  0.0416  0.3937 -4.2284
  658SOL    HW2 1974   1.767   0.241   2.296  1.6183 -1.3676 -0.0873
  659SOL     OW 1975   1.440   0.614   2.805 -0.0087  0.1861  0.1707
  659SOL    HW1 1976   1.499   0.687   2.846  1.2287 -0.2686 -2.5788
  659SOL    HW2 1977   1.357   0.651   2.758  0.6872  3.8738  0.5316
  660SOL     OW 1978   1.361   0.394   1.418  0.4003 -0.2738 -0.4082
  660SOL    HW1 1979   1.401   0.430   1.510  0.8101  0.6624  1.7278
  660SOL    HW2 1980   1.430   0.335   1.364 -1.7980  1.6569 -0.2846
  661SOL     OW 1981   2.422   1.132   0.626  0.0197 -0.4200  0.0788
  661SOL    HW1 1982   2.474   1.063   0.570  0.1152 -0.1776  0.7759
  661SOL    HW2 1983   2.356   1.185   0.569  0.3475 -0.5431  0.1975
  662SOL     OW 1984   1.307   0.453   1.876  0.6033  0.4677 -0.0343
  662SOL    HW1 1985   1.248   0.369   1.861 -2.0696 -1.2459  3.1418
  662SOL    HW2 1986   1.308   0.491   1.970 -0.4431  1.1680  2.3198
  663SOL     OW 1987   0.828   1.561   2.218 -0.6507  0.2210 -0.8530
  663SOL    HW1 1988   0.795   1.665   2.235  1.3592  0.5126  0.8037
  663SOL    HW2 1989   0.786   1.526   2.128 -0.0655  0.4965 -1.2615
  664SOL     OW 1990   1.595   2.091   1.423  0.3500  0.1332  0.2683
  664SOL    HW1 1991   1.512   2.040   1.457 -1.7807 -0.2213 -0.9576
  664SOL    HW2 1992   1.679   2.075   1.478 -2.3644 -0.8699 -0.0021
  665SOL     OW 1993   2.195   0.621   1.994 -0.3621  0.6275  0.3621
  665SOL    HW1 1994   2.213   0.559   2.074 -3.7758 -0.6693  0.2017
  665SOL    HW2 1995   2.118   0.686   2.018 -3.8955 -1.3207  1.5936
  666SOL     OW 1996   0.570   2.239   0.440  0.0771  0.3485 -0.4067
  666SOL    HW1 1997   0.632   2.319   0.430  0.6720  1.1712 -1.1584
  666SOL    HW2 1998   0.510   2.255   0.523  2.3772 -0.5759 -0.9614
  667SOL     OW 1999   2.082   0.217   1.019  0.6871 -0.2137  0.4459
  667SOL    HW1 2000   2.145   0.302   1.008 -0.6788 -1.5122 -1.1953
  667SOL    HW2 2001   1.998   0.239   1.076  1.2008  3.7066  2.9835
  668SOL     OW 2002   2.027   0.583   1.254 -0.5618 -0.4608 -0.2657
  668SOL    HW1 2003   2.073   0.580   1.161 -0.0867 -1.8731  2.7190
  668SOL    HW2 2004   2.075   0.527   1.328 -0.3268 -0.1571  0.8231
  669SOL     OW 2005   3.034   2.271   0.973  0.3625  0.4230  0.0584
  669SOL    HW1 2006   2.957   2.244   0.907  1.3924  2.9280 -1.1186
  669SOL    HW2 2007   3.022   2.243   1.075 -0.0765  2.2693 -1.9274
  670SOL     OW 2008   2.809   2.383   2.021 -0.1686  0.3157 -0.3236
  670SOL    HW1 2009   2.751   2.384   2.110  0.8736 -1.2577 -1.0345
  670SOL    HW2 2010   2.797   2.469   1.965  0.8048  1.4231 -0.0570
  671SOL     OW 2011   1.658   1.759   1.458 -0.5101 -0.4228 -0.0402
  671SOL    HW1 2012   1.689   1.778   1.357 -1.4873  1.6918 -0.9956
  671SOL    HW2 2013   1.555   1.767   1.468 -3.7615  0.5309 -2.1059
  672SOL     OW 2014   0.422   0.682   2.442  0.1309  0.8447  0.4020
  672SOL    HW1 2015   0.430   0.708   2.342 -1.2772 -1.2627  1.2586
  672SOL    HW2 2016   0.336   0.730   2.485  0.0331  0.5761 -1.1223
  673SOL     OW 2017   0.125   1.229   1.135  0.2753 -0.2772  0.5245
  673SOL    HW1 2018   0.128   1.302   1.205 -1.1788 -1.6957 -2.2149
  673SOL    HW2 2019   0.220   1.194   1.111  0.4399  0.1381  0.7845
  674SOL     OW 2020   1.604   2.946   0.125  0.2688 -0.0424 -0.5845
  674SOL    HW1 2021   1.615   3.044   0.109 -0.6120  1.0705  0.3338
  674SOL    HW2 2022   1.671   2.887   0.071 -0.4037 -0.1606  0.0297
  675SOL     OW 2023   1.725   0.866   2.336  0.3189  0.0701 -0.5252
  675SOL    HW1 2024   1.829   0.859   2.344  1.5707 -1.1628 -0.7553
  675SOL    HW2 2025   1.683   0.782   2.296  2.1016  0.3647 -1.6068
  676SOL     OW 2026   2.533   1.509   1.975 -0.3168  0.2119 -0.5907
  676SOL    HW1 2027   2.473   1.495   1.893  1.6804 -0.4507  0.9806
  676SOL    HW2 2028   2.541   1.420   2.032  0.5631  0.4211  1.2684
  677SOL     OW 2029   1.932   0.537   0.951 -0.3561 -0.1724  0.1134
  677SOL    HW1 2030   1.893   0.631   0.960 -1.3418  2.5754  0.4107
  677SOL    HW2 2031   1.887   0.474   1.014  1.5949  0.8413 -1.1654
  678SOL     OW 2032   0.081   0.716   1.707  0.4494  0.4011  0.6600
  678SOL    HW1 2033   0.162   0.779   1.729 -1.5282  0.4248  0.4892
  678SOL    HW2 2034   0.004   0.716   1.779  0.8559 -1.2709 -0.6646
  679SOL     OW 2035   2.506   1.120   1.139  0.2175 -0.3492 -0.1071
  679SOL    HW1 2036   2.406   1.121   1.149  0.0901 -0.3282 -0.9953
  679SOL    HW2 2037   2.545   1.032   1.098  1.7932  0.0393 -1.5701
  680SOL     OW 2038   2.843   0.647   1.702 -0.4228  0.2820  0.2975
  680SOL    HW1 2039   2.803   0.661   1.607 -3.0397  0.8323 -0.8657
  680SOL    HW2 2040   2.887   0.727   1.748 -1.4194 -0.9007  1.4363
  681SOL     OW 2041   3.081   0.194   1.663  0.3446  0.1372  0.3829
  681SOL    HW1 2042   3.129   0.157   1.578  0.8861 -1.8213  1.1335
  681SOL    HW2 2043   3.015   0.275   1.642  0.9731 -1.1194  0.0582
  682SOL     OW 2044   0.736   3.068   1.375  0.1343 -0.1744  0.2801
  682SOL    HW1 2045   0.669   3.001   1.414  2.1110  1.4679 -0.5988
  682SOL    HW2 2046   0.751   3.040   1.279 -2.2317  1.3365  1.4941
  683SOL     OW 2047   1.400   0.233   2.202 -0.8257  0.0256  0.3120
  683SOL    HW1 2048   1.423   0.310   2.264 -2.1027  0.5684 -3.2060
  683SOL    HW2 2049   1.468   0.226   2.126  0.6921 -2.5773  0.6576
  684SOL     OW 2050   1.450   2.123   0.476  0.6042 -0.2064  0.1772
  684SOL    HW1 2051   1.501   2.069   0.550 -0.2598  0.1736  1.0799
  684SOL    HW2 2052   1.359   2.076   0.456  0.6548 -0.4344 -0.9423
  685SOL     OW 2053   2.132   1.940   2.008 -0.0850  0.2653 -0.5984
  685SOL    HW1 2054   2.172   2.006   1.936  0.5052  0.1390 -1.0673
  685SOL    HW2 2055   2.201   1.876   2.051 -0.4432 -0.1848 -0.0871
  686SOL     OW 2056   1.497   1.733   2.704  0.5185  0.5471  0.0446
  686SOL    HW1 2057   1.472   1.633   2.689 -1.3490  0.0955 -0.7640
  686SOL    HW2 2058   1.517   1.750   2.810  0.5133  2.9570  1.5486
  687SOL     OW 2059   1.349   2.494   1.937  0.8214 -0.1370  0.4042
  687SOL    HW1 2060   1.360   2.396   1.901 -1.1374 -2.3850 -0.6249
  687SOL    HW2 2061   1.422   2.517   2.006 -1.7773  3.4054 -0.2983
  688SOL     OW 2062   2.063   1.499   1.542 -0.5491  0.2295 -0.4127
  688SOL    HW1 2063   2.144   1.566   1.540 -0.4459 -0.5963 -0.8814
  688SOL    HW2 2064   2.027   1.472   1.449  2.4605  0.9575 -0.2495
  689SOL     OW 2065   2.450   1.084   2.767  0.3692 -0.2609  0.6666
  689SOL    HW1 2066   2.349   1.075   2.790 -0.8410 -2.5711  3.5106
  689SOL    HW2 2067   2.511   1.020   2.831  0.9122 -1.7311  2.5874
  690SOL     OW 2068   2.227   2.792   3.051 -0.1370 -0.2140  0.1741
  690SOL    HW1 2069   2.148   2.766   2.994  2.1918 -2.3806  0.1937
  690SOL    HW2 2070   2.193   2.846   3.134 -0.4332  1.2947  2.2720
  691SOL     OW 2071   2.610   0.480   2.170  0.1389  0.5439  0.5810
  691SOL    HW1 2072   2.685   0.436   2.117 -1.5086  0.3368  1.2751
  691SOL    HW2 2073   2.583   0.573   2.132  0.0449 -1.2095 -1.2076
  692SOL     OW 2074   2.713   1.162   0.699 -0.1292 -0.7541  0.1727
  692SOL    HW1 2075   2.626   1.169   0.646 -1.0906  1.2449 -3.4236
  692SOL    HW2 2076   2.735   1.255   0.746 -0.3708 -1.4677  1.9842
  693SOL     OW 2077   2.832   2.923   0.622 -0.1606 -0.0198 -0.4744
  693SOL    HW1 2078   2.844   2.984   0.706  0.0921 -1.5839 -1.0336
  693SOL    HW2 2079   2.767   2.957   0.549 -2.3693  2.1195 -0.5446
  694SOL     OW 2080   2.419   2.204   0.072 -0.3209  0.4535  0.1085
  694SOL    HW1 2081   2.392   2.289   0.125  0.6229 -4.0882  0.8908
  694SOL    HW2 2082   2.353   2.124   0.072  0.0504 -2.7624  0.2023
  695SOL     OW 2083   0.538   2.936   1.530  0.2550  0.0266  0.3585
  695SOL    HW1 2084   0.484   2.852   1.509  1.5711  1.0134 -0.6842
  695SOL    HW2 2085   0.481   3.010   1.578 -1.3003  2.5085 -0.1214
  696SOL     OW 2086   2.717   2.023   0.693  0.2904 -0.3392  0.4617
  696SOL    HW1 2087   2.767   1.941   0.728  0.1763  0.3135 -0.7812
  696SOL    HW2 2088   2.657   1.992   0.614  0.9418 -3.1258 -0.6674
  697SOL     OW 2089   1.686   2.072   1.766  0.4036  0.4206  0.2694
  697SOL    HW1 2090   1.757   2.002   1.801  0.0194 -0.4301 -0.4292
  697SOL    HW2 2091   1.722   2.166   1.744  0.8258  1.2146  2.5896
  698SOL     OW 2092   2.905   0.364   2.822  0.1067 -0.0877  0.2599
  698SOL    HW1 2093   2.919   0.374   2.719 -2.5260  1.7820 -2.3936
  698SOL    HW2 2094   2.982   0.313   2.866 -2.2966  0.7180  1.0704
  699SOL     OW 2095   1.535   0.118   2.941 -0.7202 -0.1751  0.1737
  699SOL    HW1 2096   1.491   0.029   2.908 -2.3739 -1.7099  0.6932
  699SOL    HW2 2097   1.570   0.184   2.868  1.7516 -0.7381  0.3692
  700SOL     OW 2098   0.976   2.464   1.377 -0.5423 -0.2630  0.0623
  700SOL    HW1 2099   1.074   2.455   1.344  2.2371  2.2029  1.0220
  700SOL    HW2 2100   0.899   2.460   1.303  0.5200  2.0712 -0.6290
  701SOL     OW 2101   1.834   2.862   3.071  0.0288  1.0145 -0.3928
  701SOL    HW1 2102   1.866   2.796   3.147 -0.5335 -2.2047 -1.4102
  701SOL    HW2 2103   1.849   2.962   3.099 -1.3911 -0.3076  2.3079
  702SOL     OW 2104   2.116   1.364   1.814 -0.0829  0.2431  0.1075
  702SOL    HW1 2105   2.211   1.327   1.815  2.1602 -2.4333  1.4858
  702SOL    HW2 2106   2.099   1.418   1.727 -0.4327 -0.9501  1.3032
  703SOL     OW 2107   2.005   0.889   1.469  0.3521  0.1405 -0.2425
  703SOL    HW1 2108   1.996   0.808   1.532 -1.0875 -2.9450 -0.8768
  703SOL    HW2 2109   2.027   0.981   1.513 -0.7035 -0.4187 -0.0099
  704SOL     OW 2110   0.328   2.029   1.737  0.8377 -0.0003 -0.1032
  704SOL    HW1 2111   0.343   1.994   1.837  1.7096 -0.2546 -0.0369
  704SOL    HW2 2112   0.392   2.108   1.724 -1.8721 -1.9461  1.1247
  705SOL     OW 2113   2.523   1.464   0.864 -0.4260 -0.0520  0.4240
  705SOL    HW1 2114   2.444   1.407   0.895  0.5982 -1.0995  0.0776
  705SOL    HW2 2115   2.621   1.434   0.887 -1.0591  2.4934 -1.3868
  706SOL     OW 2116   0.648   1.752   1.869  0.3377 -0.6643  0.1592
  706SOL    HW1 2117   0.684   1.667   1.917 -0.8896  1.1731  0.3185
  706SOL    HW2 2118   0.702   1.835   1.907  2.5237  0.5477 -0.9573
  707SOL     OW 2119   2.357   1.198   1.742 -0.2506 -0.1477  0.0221
  707SOL    HW1 2120   2.447   1.198   1.800 -0.9038  2.2463  2.1636
  707SOL    HW2 2121   2.307   1.103   1.748 -0.7969 -0.6501  0.8266
  708SOL     OW 2122   3.006   0.527   3.055  0.0048  0.0636 -0.3612
  708SOL    HW1 2123   3.059   0.579   2.983  0.2515 -1.3939  0.1876
  708SOL    HW2 2124   3.047   0.438   3.053  0.2233  1.1591 -2.2119
  709SOL     OW 2125   1.748   1.863   0.200 -0.1466  0.4408 -0.5845
  709SOL    HW1 2126   1.830   1.895   0.261 -0.1605  1.7318 -0.0042
  709SOL    HW2 2127   1.762   1.897   0.105  1.2177  1.5906  2.3891
  710SOL     OW 2128   1.741   1.657   2.474 -0.3887 -0.5668  0.9412
  710SOL    HW1 2129   1.776   1.628   2.383  3.0776 -1.9043  0.7828
  710SOL    HW2 2130   1.797   1.623   2.557  4.3154  0.9559  0.3048
  711SOL     OW 2131   2.632   2.866   0.955  0.6302 -0.3284 -0.7926
  711SOL    HW1 2132   2.606   2.967   0.940  0.6354  2.4391  1.1640
  711SOL    HW2 2133   2.719   2.851   1.008  1.3672 -3.1598 -0.5761
  712SOL     OW 2134   1.491   2.282   1.796 -0.2341 -0.1582  1.2833
  712SOL    HW1 2135   1.542   2.192   1.813 -0.0073  0.0125 -1.2016
  712SOL    HW2 2136   1.427   2.283   1.712  0.9757  1.7306 -1.9049
  713SOL     OW 2137   2.862   1.283   2.494  0.5013 -0.4220 -0.8396
  713SOL    HW1 2138   2.911   1.194   2.462 -0.0867 -4.7754 -0.6411
  713SOL    HW2 2139   2.802   1.265   2.577  0.6937  2.4805  0.4412
  714SOL     OW 2140   2.649   0.436   2.434  0.2198  0.2498 -0.1098
  714SOL    HW1 2141   2.573   0.391   2.486  0.1584  0.0704 -0.4332
  714SOL    HW2 2142   2.628   0.448   2.332  1.7637 -0.3535  0.3114
  715SOL     OW 2143   1.615   2.110   1.133 -0.0946 -0.1155  0.2328
  715SOL    HW1 2144   1.565   2.196   1.098 -0.3194 -0.2064  2.1414
  715SOL    HW2 2145   1.624   2.121   1.238 -1.3186 -1.0221  2.7089
  716SOL     OW 2146   1.162   0.152   1.453 -0.0657  0.0339 -0.0597
  716SOL    HW1 2147   1.063   0.140   1.466 -0.3904  1.6964  1.3480
  716SOL    HW2 2148   1.193   0.248   1.461  3.1446 -2.6371 -0.6372
  717SOL     OW 2149   1.087   0.527   1.600  0.4769  0.2973 -0.0807
  717SOL    HW1 2150   1.172   0.585   1.622 -0.5241 -0.3461 -0.1347
  717SOL    HW2 2151   1.085   0.509   1.494  0.8960  0.9076 -1.7773
  718SOL     OW 2152   0.612   1.161   1.021 -0.4236  0.5100 -0.1479
  718SOL    HW1 2153   0.644   1.163   0.923 -1.1188 -0.5688 -0.0037
  718SOL    HW2 2154   0.674   1.214   1.084 -1.0184 -0.7536 -0.7378
  719SOL     OW 2155   0.695   1.831   2.240  0.0974 -0.5546 -0.7511
  719SOL    HW1 2156   0.754   1.843   2.329 -0.3271  3.3586  0.7662
  719SOL    HW2 2157   0.602   1.871   2.249  2.5571 -0.6759 -0.7195
  720SOL     OW 2158   2.305   1.140   0.253  0.3745  0.0652  0.7417
  720SOL    HW1 2159   2.400   1.107   0.275 -1.6604 -0.7988 -1.3525
  720SOL    HW2 2160   2.253   1.137   0.340  1.6432  2.7095 -1.0952
  721SOL     OW 2161   2.308   3.083   2.044  0.3181 -0.4350  0.8001
  721SOL    HW1 2162   2.307   3.165   1.981  0.9327 -0.4853 -0.7032
  721SOL    HW2 2163   2.217   3.056   2.081 -0.0504 -1.8319 -2.8749
  722SOL     OW 2164   2.442   1.705   0.502  0.2680  0.3820  0.3819
  722SOL    HW1 2165   2.455   1.638   0.422  2.0682 -1.6569 -0.7893
  722SOL    HW2 2166   2.346   1.697   0.548  1.0922 -0.6934  2.7789
  723SOL     OW 2167   2.605   2.868   1.890  0.0183 -0.3543 -0.1953
  723SOL    HW1 2168   2.655   2.917   1.965  0.9952 -0.4057 -0.4915
  723SOL    HW2 2169   2.501   2.883   1.885 -1.5573 -1.3885  0.0026
  724SOL     OW 2170   0.316   2.373   2.358 -0.1122 -0.3934  0.1408
  724SOL    HW1 2171   0.248   2.448   2.362  1.2522 -1.2691  1.7792
  724SOL    HW2 2172   0.383   2.376   2.438  0.1480  0.1547  3.3853
  725SOL     OW 2173   2.345   2.798   1.476  0.2388  0.0019  0.1812
  725SOL    HW1 2174   2.419   2.801   1.397  3.4116 -0.3914  0.2828
  725SOL    HW2 2175   2.338   2.706   1.533 -0.5555 -4.6336  0.6378
  726SOL     OW 2176   2.375   2.254   0.733  0.1871  0.8499 -0.8902
  726SOL    HW1 2177   2.391   2.353   0.732 -0.4229 -0.4634 -2.4932
  726SOL    HW2 2178   2.337   2.217   0.642 -0.2904 -0.0547  1.2423
  727SOL     OW 2179   0.235   0.008   0.119  0.0979 -0.1448 -0.2167
  727SOL    HW1 2180   0.315  -0.052   0.142  1.4405  1.8059 -0.6851
  727SOL    HW2 2181   0.269   0.104   0.098  0.7107 -1.5406 -2.2747
  728SOL     OW 2182   2.796   0.661   1.061  0.2336 -0.1861 -0.3878
  728SOL    HW1 2183   2.747   0.620   0.982  2.3767  1.2991 -0.8633
  728SOL    HW2 2184   2.794   0.594   1.142 -0.9232  1.4352  1.6866
  729SOL     OW 2185   2.996   2.456   0.718 -1.0851 -0.2255  0.6021
  729SOL    HW1 2186   2.949   2.372   0.757 -0.3010  0.5822 -0.8064
  729SOL    HW2 2187   3.100   2.443   0.693  3.0291 -1.2964  0.4852
  730SOL     OW 2188   2.630   0.587   0.842  0.0643  0.3133 -0.1333
  730SOL    HW1 2189   2.579   0.671   0.807 -1.0756  1.1212  0.2373
  730SOL    HW2 2190   2.699   0.539   0.775 -0.2726 -2.0118 -3.3596
  731SOL     OW 2191   0.200   2.177   2.486  0.4112  0.1879 -0.0773
  731SOL    HW1 2192   0.191   2.194   2.583  2.0340 -1.8919 -1.8919
  731SOL    HW2 2193   0.225   2.266   2.434  0.9980  3.0216 -1.6439
  732SOL     OW 2194   1.115   2.853   2.039 -0.3140 -0.0449 -0.3865
  732SOL    HW1 2195   1.127   2.800   2.127 -0.1574  1.2564 -1.3997
  732SOL    HW2 2196   1.169   2.806   1.964  1.1209  2.4871  0.3095
  733SOL     OW 2197   3.022   0.697   2.114 -0.0544  0.7733  0.1459
  733SOL    HW1 2198   3.115   0.744   2.100 -0.9392  1.2858 -0.3774
  733SOL    HW2 2199   3.027   0.602   2.068  1.1212  1.1357  0.0446
  734SOL     OW 2200   1.384   0.363   2.692 -0.1243 -0.0576  0.2272
  734SOL    HW1 2201   1.390   0.457   2.743  0.0065  0.5963 -1.0731
  734SOL    HW2 2202   1.305   0.303   2.720 -0.3608 -3.9977 -0.7830
  735SOL     OW 2203   2.806   2.667   2.297  0.5542  0.1927  0.6546
  735SOL    HW1 2204   2.710   2.666   2.252 -1.6246  0.8547  0.0116
  735SOL    HW2 2205   2.888   2.651   2.230 -1.1220  2.6454 -2.0593
  736SOL     OW 2206   0.803   0.356   2.559 -0.1438 -0.2793  0.3732
  736SOL    HW1 2207   0.752   0.449   2.549  1.4251 -1.0484  0.1236
  736SOL    HW2 2208   0.822   0.307   2.469  2.3554  2.5956  0.4269
  737SOL     OW 2209   2.657   0.408   2.912 -0.3944 -0.2406  0.0161
  737SOL    HW1 2210   2.632   0.438   3.010 -0.6423  0.8338 -1.7316
  737SOL    HW2 2211   2.762   0.391   2.901 -0.9383  0.6079  1.8031
  738SOL     OW 2212   1.659   1.120   0.041  0.2237 -0.4015  0.1317
  738SOL    HW1 2213   1.759   1.107   0.008  2.5484 -1.5003  1.2554
  738SOL    HW2 2214   1.600   1.033   0.023 -3.0200 -2.0697  0.5025
  739SOL     OW 2215   1.823   0.556   0.698  0.0796  0.0848 -0.0229
  739SOL    HW1 2216   1.860   0.510   0.784  0.7970 -0.1215 -0.1451
  739SOL    HW2 2217   1.852   0.503   0.619  1.0883  0.3382 -0.6994
  740SOL     OW 2218   1.917   2.067   2.160  0.1333 -0.0976  0.0429
  740SOL    HW1 2219   1.970   2.005   2.101  0.5639 -0.2315  1.8666
  740SOL    HW2 2220   1.815   2.061   2.145 -0.0372 -1.0462 -1.2300
  741SOL     OW 2221   2.558   0.020   2.571  0.3302 -0.1003 -0.2942
  741SOL    HW1 2222   2.663   0.023   2.565 -0.6641  2.4753 -0.9683
  741SOL    HW2 2223   2.513   0.081   2.504 -1.4479 -2.2549 -3.9038
  742SOL     OW 2224   2.261   1.412   0.086 -0.2175 -0.0231  0.3553
  742SOL    HW1 2225   2.180   1.462   0.127  2.0520 -3.2857  1.8776
  742SOL    HW2 2226   2.266   1.319   0.130 -1.3092  0.4503  0.8217
  743SOL     OW 2227   1.741   0.649   2.663 -0.3072 -0.1918  0.0815
  743SOL    HW1 2228   1.780   0.606   2.572 -1.5506  0.3170 -1.2523
  743SOL    HW2 2229   1.664   0.716   2.640 -0.6810  0.7781 -2.2482
  744SOL     OW 2230   2.679   2.137   0.139  0.2604  0.2666  0.8199
  744SOL    HW1 2231   2.581   2.185   0.142 -3.0791  2.0596  0.3142
  744SOL    HW2 2232   2.671   2.031   0.146  3.4684 -0.9426 -0.9961
  745SOL     OW 2233   2.197   2.757   2.193 -0.1555 -0.2367  0.1832
  745SOL    HW1 2234   2.094   2.762   2.166 -3.7554  1.2219 -0.4238
  745SOL    HW2 2235   2.221   2.797   2.288 -0.3209 -1.8658 -0.7448
  746SOL     OW 2236   3.084   2.622   1.805  0.4743  0.7257 -0.0485
  746SOL    HW1 2237   3.184   2.639   1.778 -0.7056 -1.7712  0.4895
  746SOL    HW2 2238   3.033   2.712   1.822  2.6308 -1.6626  0.3202
  747SOL     OW 2239   3.088   1.770   1.686 -0.4607 -0.0847 -0.4414
  747SOL    HW1 2240   3.029   1.698   1.638 -0.6228 -0.3851 -0.5558
  747SOL    HW2 2241   3.155   1.808   1.622 -0.3109 -0.6481  1.1946
  748SOL     OW 2242   1.767   2.735   2.836  0.4978  0.6079 -0.3223
  748SOL    HW1 2243   1.799   2.792   2.918  2.6287 -2.7277 -1.3938
  748SOL    HW2 2244   1.666   2.758   2.806 -0.6632  0.3408 -0.4025
  749SOL     OW 2245   1.344   0.066   0.854 -0.1005 -0.2567 -0.6972
  749SOL    HW1 2246   1.293  -0.027   0.862 -0.3278 -0.5254 -1.9672
  749SOL    HW2 2247   1.348   0.107   0.758 -0.0170  2.8042 -1.8073
  750SOL     OW 2248   2.298   0.232   1.915  0.5193  0.2585 -0.0067
  750SOL    HW1 2249   2.325   0.283   1.831 -0.6614 -0.2527 -0.7686
  750SOL    HW2 2250   2.309   0.289   2.006  3.2301  0.9282  0.9371
  751SOL     OW 2251   0.848   2.236   2.925  0.0923 -0.5223 -0.1462
  751SOL    HW1 2252   0.935   2.214   2.971 -1.3787 -0.1873 -3.2393
  751SOL    HW2 2253   0.792   2.152   2.899 -0.7380 -1.5288  2.0245
  752SOL     OW 2254   1.253   0.845   1.476  0.2513 -0.5035 -0.4858
  752SOL    HW1 2255   1.302   0.938   1.465  0.2540 -0.5740  1.5634
  752SOL    HW2 2256   1.318   0.768   1.501  1.0335  1.2922  0.9533
  753SOL     OW 2257   0.906   2.575   1.752  0.0320 -0.4328  0.6505
  753SOL    HW1 2258   0.974   2.624   1.689 -0.2955 -1.8244 -1.0453
  753SOL    HW2 2259   0.817   2.627   1.750  1.7826  0.2834  0.2430
  754SOL     OW 2260   1.133   1.348   3.044  0.0627  0.3696  0.0302
  754SOL    HW1 2261   1.181   1.265   3.002 -1.7158 -2.9941 -1.0017
  754SOL    HW2 2262   1.134   1.429   2.982  0.0449 -1.1430  1.7556
  755SOL     OW 2263   2.040   0.543   2.300  0.2326  0.1320  0.6681
  755SOL    HW1 2264   2.115   0.482   2.343 -0.3325 -1.4878  0.6297
  755SOL    HW2 2265   1.947   0.529   2.347 -1.3520  0.1312  0.9015
  756SOL     OW 2266   2.635   0.958   2.925 -0.0995 -0.4045 -0.0982
  756SOL    HW1 2267   2.707   0.891   2.891 -2.8508  0.0744 -2.4682
  756SOL    HW2 2268   2.580   0.914   3.002  2.1329  0.0834 -1.0484
  757SOL     OW 2269   0.143   0.456   1.743 -0.4062 -0.0250  0.5773
  757SOL    HW1 2270   0.104   0.552   1.727 -0.5790  3.3754 -1.9389
  757SOL    HW2 2271   0.206   0.424   1.666 -0.7608 -0.1791  2.6153
  758SOL     OW 2272   2.474   0.058   1.503  0.4530 -0.2629  0.1136
  758SOL    HW1 2273   2.378   0.050   1.543  0.5812 -1.7794  0.7472
  758SOL    HW2 2274   2.481   0.022   1.406 -0.0963 -0.5493 -1.4317
  759SOL     OW 2275   1.678   0.143   0.073  0.4228  0.2831  0.2183
  759SOL    HW1 2276   1.628   0.148  -0.019 -2.2982  1.7096  0.5028
  759SOL    HW2 2277   1.780   0.119   0.065  1.8673 -2.7285  1.5030
  760SOL     OW 2278   2.744   1.969   2.765  0.2500  0.0804  0.0157
  760SOL    HW1 2279   2.751   1.872   2.734 -2.2022  1.4111 -0.1746
  760SOL    HW2 2280   2.802   2.034   2.706 -1.3895  1.8932  1.2343
  761SOL     OW 2281   1.840   1.701   1.657 -0.0925 -0.6054  0.0217
  761SOL    HW1 2282   1.897   1.617   1.635 -1.1583  0.4056  1.0837
  761SOL    HW2 2283   1.765   1.720   1.593 -0.9641 -1.6586  0.7385
  762SOL     OW 2284   0.502   2.398   1.017 -0.2882  0.4455  0.5588
  762SOL    HW1 2285   0.545   2.445   0.936  0.3640 -0.4725 -2.6381
  762SOL    HW2 2286   0.465   2.462   1.089  0.8573 -1.3335 -0.1855
  763SOL     OW 2287   1.996   1.558   2.957 -0.1108 -0.3213  0.3681
  763SOL    HW1 2288   2.061   1.509   2.895  0.4663 -0.2760  0.7465
  763SOL    HW2 2289   1.945   1.490   3.015 -2.4904 -0.1190 -0.2898
  764SOL     OW 2290   0.702   0.601   0.815 -0.2846  0.3681  0.1192
  764SOL    HW1 2291   0.686   0.546   0.724  0.5445  0.2285 -1.2091
  764SOL    HW2 2292   0.787   0.559   0.862 -0.9566 -2.5823  0.9015
  765SOL     OW 2293   0.615   0.207   0.779 -0.1920 -0.4060 -0.4158
  765SOL    HW1 2294   0.706   0.235   0.740 -0.2851 -3.1619  2.1856
  765SOL    HW2 2295   0.617   0.216   0.883  1.2072 -1.8121  2.4924
  766SOL     OW 2296   2.943   1.992   2.950 -1.3321  0.6183  0.2090
  766SOL    HW1 2297   2.861   2.015   2.889 -1.2732  1.4171 -1.1596
  766SOL    HW2 2298   2.995   2.074   2.976 -1.5847  0.1442 -0.2280
  767SOL     OW 2299   2.735   1.552   0.500  0.7590 -0.1870  0.3274
  767SOL    HW1 2300   2.699   1.588   0.588  1.8275 -1.7512 -0.4513
  767SOL    HW2 2301   2.808   1.614   0.460 -1.5788  2.2538 -1.0693
  768SOL     OW 2302   1.043   0.305   0.278 -1.0154 -0.3168 -0.1372
  768SOL    HW1 2303   0.950   0.261   0.269  3.2721 -0.8396 -0.0324
  768SOL    HW2 2304   1.123   0.240   0.257 -1.2453  0.3233  0.4762
  769SOL     OW 2305   1.355   1.782   2.191 -0.4574  0.1367 -0.8784
  769SOL    HW1 2306   1.447   1.737   2.224  0.8538 -0.0968 -0.5699
  769SOL    HW2 2307   1.274   1.727   2.215  1.3623  1.6663 -0.6774
  770SOL     OW 2308   0.184   1.167   2.268  0.1502  0.3109  0.1148
  770SOL    HW1 2309   0.156   1.196   2.364  1.4796  1.0567 -1.0866
  770SOL    HW2 2310   0.116   1.204   2.191  0.3675  1.4041 -2.5890
  771SOL     OW 2311   2.962   2.861   1.871  0.0268  0.5292 -0.5063
  771SOL    HW1 2312   2.955   2.925   1.790 -1.6604  1.0421  1.1952
  771SOL    HW2 2313   2.991   2.907   1.956 -1.1701 -0.0983  3.5176
  772SOL     OW 2314   2.162   0.045   3.023 -0.1958 -0.9095 -0.0026
  772SOL    HW1 2315   2.229  -0.002   2.966  0.4330  1.1314  1.9774
  772SOL    HW2 2316   2.183   0.139   3.048 -0.0612  1.0735 -0.4599
  773SOL     OW 2317   0.691   2.151   2.446 -0.7009  0.4174 -0.0720
  773SOL    HW1 2318   0.637   2.174   2.361  0.3786  3.3697  2.2576
  773SOL    HW2 2319   0.635   2.144   2.529 -2.2714  0.3535 -2.5465
  774SOL     OW 2320   1.991   0.011   2.654  0.3272 -0.1669 -0.2980
  774SOL    HW1 2321   1.979   0.102   2.707  2.6325  1.3581 -0.2198
  774SOL    HW2 2322   2.040  -0.062   2.705 -0.3144  3.2138 -1.2392
  775SOL     OW 2323   2.481   2.888   2.324 -0.2211  0.0499  0.0997
  775SOL    HW1 2324   2.437   2.985   2.305 -1.0974 -0.2007 -2.3396
  775SOL    HW2 2325   2.555   2.895   2.402  0.1063  0.4579  0.8694
  776SOL     OW 2326   0.029   1.202   0.269 -0.4061  0.7324  0.5364
  776SOL    HW1 2327  -0.030   1.250   0.197 -0.0238  0.2102  0.6645
  776SOL    HW2 2328  -0.011   1.207   0.363  2.1356  1.0727  0.0855
  777SOL     OW 2329   0.335   2.733   0.368  0.5143  0.2655 -0.5225
  777SOL    HW1 2330   0.230   2.722   0.373  1.4390  0.9390  0.1479
  777SOL    HW2 2331   0.356   2.834   0.398 -0.5723 -0.6664 -0.3211
  778SOL     OW 2332   1.285   1.998   0.141  0.0425 -0.1694 -0.2463
  778SOL    HW1 2333   1.257   2.011   0.239 -3.3495  0.4120 -0.0012
  778SOL    HW2 2334   1.359   2.068   0.112 -0.7915  2.2785  0.3054
  779SOL     OW 2335   0.195   0.793   0.502 -0.2522 -0.0580  0.4516
  779SOL    HW1 2336   0.115   0.726   0.495 -2.0400 -0.3908 -1.3272
  779SOL    HW2 2337   0.179   0.875   0.567  0.5573  0.8539  0.8501
  780SOL     OW 2338   0.063   0.327   2.389 -0.1863 -0.3074  0.3306
  780SOL    HW1 2339   0.043   0.425   2.411 -1.7751 -2.5145  0.1549
  780SOL    HW2 2340   0.141   0.312   2.321 -2.7080  0.7151  1.1541
  781SOL     OW 2341   0.526   1.791   1.606 -0.5809 -0.0712  0.6175
  781SOL    HW1 2342   0.551   1.767   1.702 -2.1889 -1.7841 -0.2103
  781SOL    HW2 2343   0.454   1.726   1.572  1.5557  1.1475  1.1245
  782SOL     OW 2344   2.615   0.096   0.919  0.9189 -0.5272  0.4607
  782SOL    HW1 2345   2.559   0.113   0.832 -3.0772 -1.2122 -1.5474
  782SOL    HW2 2346   2.581   0.141   1.006  0.4793  2.7775  0.0418
  783SOL     OW 2347   2.839   0.625   2.555 -0.4196 -0.1982 -0.4027
  783SOL    HW1 2348   2.794   0.660   2.644  1.6603  0.3164 -0.8566
  783SOL    HW2 2349   2.780   0.563   2.501  0.1662 -1.6689  0.1636
  784SOL     OW 2350   1.429   2.220   0.067  0.6239 -0.2637  0.3185
  784SOL    HW1 2351   1.520   2.249   0.100 -1.2642  0.9308 -1.0991
  784SOL    HW2 2352   1.404   2.255  -0.030 -1.0777  1.2511  1.5882
  785SOL     OW 2353   2.183   0.332   3.072  0.0170  0.0215 -0.5655
  785SOL    HW1 2354   2.110   0.299   3.140 -0.7767 -2.6937 -1.5568
  785SOL    HW2 2355   2.200   0.435   3.082  1.6310  2.3683  0.0304
  786SOL     OW 2356   2.120   2.236   2.241  0.4072  0.9009 -0.1212
  786SOL    HW1 2357   2.055   2.166   2.205 -0.7395 -1.0701  3.3927
  786SOL    HW2 2358   2.183   2.186   2.308  1.3992  2.2630  1.5473
  787SOL     OW 2359   1.351   0.587   0.759  0.1128 -1.4150  0.9358
  787SOL    HW1 2360   1.298   0.674   0.725 -0.3344 -0.8829  0.1503
  787SOL    HW2 2361   1.381   0.522   0.682 -0.8947  4.5589  0.0296
  788SOL     OW 2362   1.221   0.464   2.969 -0.8371 -0.0300 -0.0964
  788SOL    HW1 2363   1.126   0.461   2.934  1.9979  1.2658  0.1358
  788SOL    HW2 2364   1.282   0.535   2.922  0.3967 -3.0290 -3.2363
  789SOL     OW 2365   2.620   0.118   1.934 -0.0011  0.8384  0.3426
  789SOL    HW1 2366   2.530   0.146   1.905  0.6511 -1.9896  1.5704
  789SOL    HW2 2367   2.623   0.071   2.031  0.3936  0.6744  0.9459
  790SOL     OW 2368   2.649   2.620   0.837 -0.1633  0.4110  0.0074
  790SOL    HW1 2369   2.712   2.642   0.758 -0.5482  0.0923  0.5608
  790SOL    HW2 2370   2.617   2.712   0.882 -0.3631  3.6501  1.8594
  791SOL     OW 2371   1.918   1.194   0.210 -0.3707  0.2149 -0.2580
  791SOL    HW1 2372   1.825   1.167   0.251 -0.5674  0.1330 -1.7565
  791SOL    HW2 2373   1.978   1.114   0.194  0.6395 -0.4554 -0.2028
  792SOL     OW 2374   0.468   1.960   2.268 -0.5734 -0.3708  0.4993
  792SOL    HW1 2375   0.494   2.057   2.244  1.6317  0.5662  1.4391
  792SOL    HW2 2376   0.394   1.960   2.343  0.2517  1.4766  0.9224
  793SOL     OW 2377   2.070   1.569   2.019 -0.1923  0.3246 -0.0402
  793SOL    HW1 2378   2.161   1.622   2.035 -1.1222 -0.4098  3.3418
  793SOL    HW2 2379   2.061   1.520   1.923 -1.2022 -1.9024 -2.3384
  794SOL     OW 2380   0.558   1.551   2.491 -0.2196 -0.2907 -0.2218
  794SOL    HW1 2381   0.632   1.481   2.490 -1.3674 -0.7056 -0.1961
  794SOL    HW2 2382   0.471   1.533   2.438 -0.6731 -1.4301 -0.6498
  795SOL     OW 2383   2.374   2.339   1.856 -0.0001 -0.3050 -0.3243
  795SOL    HW1 2384   2.337   2.380   1.949 -0.8257 -3.1268  2.1766
  795SOL    HW2 2385   2.337   2.246   1.834 -1.2660  0.9597  0.3707
  796SOL     OW 2386   3.022   1.145   2.722 -0.5721 -0.3969  0.2459
  796SOL    HW1 2387   2.923   1.173   2.722  0.5922  2.4864  1.0707
  796SOL    HW2 2388   3.067   1.151   2.816  0.0562  0.5473 -0.4838
  797SOL     OW 2389   0.706   0.644   1.318  0.4070  0.3916 -0.5871
  797SOL    HW1 2390   0.772   0.672   1.399  0.3253 -3.8038 -0.8824
  797SOL    HW2 2391   0.684   0.717   1.246 -2.7193  0.1975 -1.1914
  798SOL     OW 2392   1.197   0.511   0.975  0.0460 -0.6175 -0.2617
  798SOL    HW1 2393   1.213   0.591   1.041 -1.8611 -2.6323  0.5880
  798SOL    HW2 2394   1.257   0.525   0.889 -0.4196 -2.6948 -1.9227
  799SOL     OW 2395   1.798   2.703   1.091  0.2741  0.0338  0.6496
  799SOL    HW1 2396   1.787   2.606   1.136  3.1457 -1.2522  2.2894
  799SOL    HW2 2397   1.790   2.702   0.984  2.1501  1.6862 -0.5258
  800SOL     OW 2398   2.948   0.822   1.870 -0.0990 -0.0633  0.5594
  800SOL    HW1 2399   2.979   0.919   1.883 -0.7371 -2.6593 -3.4844
  800SOL    HW2 2400   2.957   0.765   1.955 -0.1598  1.4573 -1.0431
  801SOL     OW 2401   1.994   2.285   0.078 -0.5166  0.6878 -0.4486
  801SOL    HW1 2402   1.964   2.350   0.007  2.3000 -0.1611 -0.8325
  801SOL    HW2 2403   2.050   2.204   0.037  1.9442  0.5434 -1.5484
  802SOL     OW 2404   0.680   0.617   2.500 -0.1107  0.4268 -0.5110
  802SOL    HW1 2405   0.734   0.666   2.425 -1.9028  0.7662 -2.0639
  802SOL    HW2 2406   0.580   0.622   2.477  0.4396  0.8229 -1.8442
  803SOL     OW 2407   0.949   0.093   0.917  0.1006  0.1768 -0.0653
  803SOL    HW1 2408   1.028   0.160   0.948  1.9737  0.7055  1.5617
  803SOL    HW2 2409   0.905   0.138   0.831 -1.6926  0.6987 -0.5964
  804SOL     OW 2410   0.340   0.027   2.172 -0.4266  0.1206 -0.8505
  804SOL    HW1 2411   0.321   0.122   2.216 -2.4184 -1.6524  0.8022
  804SOL    HW2 2412   0.265   0.005   2.102  1.9315 -1.3319 -0.7690
  805SOL     OW 2413   2.401   0.306   0.324  0.2602 -0.5790  0.3978
  805SOL    HW1 2414   2.494   0.304   0.372 -0.7412 -2.2032 -1.9619
  805SOL    HW2 2415   2.413   0.278   0.227  2.0834  1.1144  3.0405
  806SOL     OW 2416   0.675   2.649   1.992  0.6039 -0.0995 -0.3350
  806SOL    HW1 2417   0.622   2.681   2.072  0.8133 -2.5968  0.7860
  806SOL    HW2 2418   0.645   2.695   1.902  0.0694  0.9075  2.0207
  807SOL     OW 2419   2.592   0.925   0.509  0.0346  0.4228 -0.1374
  807SOL    HW1 2420   2.683   0.866   0.511  1.4318 -1.3225  2.2012
  807SOL    HW2 2421   2.556   0.941   0.412  0.1969  0.5354  0.9455
  808SOL     OW 2422   0.676   2.040   2.901 -0.3445  0.6631  0.1191
  808SOL    HW1 2423   0.592   2.067   2.961 -0.0971  1.5828  2.9333
  808SOL    HW2 2424   0.683   1.935   2.899 -1.9266 -0.0899 -0.1490
  809SOL     OW 2425   2.569   2.034   1.920  0.4783 -0.0447 -0.4233
  809SOL    HW1 2426   2.666   2.064   1.949 -0.9936 -0.8982  2.7921
  809SOL    HW2 2427   2.538   2.060   1.824  0.2855 -0.5274  1.6008
  810SOL     OW 2428   2.189   1.242   0.506 -0.6417  0.6824  0.2740
  810SOL    HW1 2429   2.130   1.190   0.569  3.1454  1.2971  2.6695
  810SOL    HW2 2430   2.158   1.339   0.496  2.4505  0.4852  1.5335
  811SOL     OW 2431   1.230   2.492   1.182 -0.2834 -0.1352  0.4830
  811SOL    HW1 2432   1.223   2.400   1.221 -2.5625  2.6485 -0.9172
  811SOL    HW2 2433   1.284   2.556   1.237  0.2406 -0.2249 -0.2207
  812SOL     OW 2434   1.438   0.758   1.993 -0.4256  0.4174 -0.1184
  812SOL    HW1 2435   1.373   0.778   2.069 -3.5853  0.5741 -2.3351
  812SOL    HW2 2436   1.471   0.839   1.940 -0.9252 -3.5742 -1.3648
  813SOL     OW 2437   1.634   2.074   2.419  0.3635  0.0705  0.4050
  813SOL    HW1 2438   1.729   2.105   2.437  0.2263  3.3364  1.5344
  813SOL    HW2 2439   1.615   2.037   2.323  1.5955  0.7823 -2.5031
  814SOL     OW 2440   2.983   1.705   2.877  0.5934  0.4575 -0.5401
  814SOL    HW1 2441   3.046   1.652   2.939 -0.4736  0.7321 -0.5336
  814SOL    HW2 2442   2.954   1.801   2.912 -0.5277  0.4986 -1.0520
  815SOL     OW 2443   2.128   2.904   2.773 -0.5564  0.2239  0.4066
  815SOL    HW1 2444   2.115   2.806   2.813  0.4274  1.0422  1.4690
  815SOL    HW2 2445   2.231   2.932   2.768  1.0712  0.9380  0.4863
  816SOL     OW 2446   1.543   0.456   1.685  0.4783 -0.2109 -0.1211
  816SOL    HW1 2447   1.580   0.361   1.706  2.7220  3.3562 -0.7949
  816SOL    HW2 2448   1.492   0.503   1.761 -0.4832  0.7176  0.6182
  817SOL     OW 2449   0.403   1.226   2.554  0.1715 -0.6700 -0.2878
  817SOL    HW1 2450   0.305   1.265   2.569 -1.0853  0.6844 -3.5757
  817SOL    HW2 2451   0.446   1.249   2.462  1.2297  1.3079 -1.0784
  818SOL     OW 2452   2.002   0.775   0.472  0.3487  0.3613  0.1221
  818SOL    HW1 2453   2.106   0.790   0.489  2.2175 -0.9822  0.4786
  818SOL    HW2 2454   1.944   0.804   0.553 -1.4105 -0.1693  1.4677
  819SOL     OW 2455   2.839   2.892   3.029 -0.1059  0.1692  0.0349
  819SOL    HW1 2456   2.912   2.839   2.993 -4.5220 -0.1505  0.2883
  819SOL    HW2 2457   2.749   2.860   2.996 -0.7691 -1.9270  1.5425
  820SOL     OW 2458   1.217   1.033   0.534 -0.0437 -0.4483 -0.2985
  820SOL    HW1 2459   1.274   1.116   0.566  3.7711  1.1817  2.5170
  820SOL    HW2 2460   1.181   0.979   0.620 -0.4563 -2.9267  3.6403
  821SOL     OW 2461   0.053   1.215   0.756  0.1052  0.0565 -0.1307
  821SOL    HW1 2462   0.005   1.237   0.842 -0.1744  0.4734  0.9791
  821SOL    HW2 2463   0.095   1.299   0.709 -1.1454  0.9324  1.3845
  822SOL     OW 2464   2.553   1.770   2.445 -0.3077 -0.1529 -0.0955
  822SOL    HW1 2465   2.522   1.838   2.519  1.2996 -1.4361  0.4093
  822SOL    HW2 2466   2.490   1.775   2.358  0.3486  1.9421 -2.6631
  823SOL     OW 2467   2.020   0.887   1.166  0.3895 -0.1900 -0.2652
  823SOL    HW1 2468   2.014   0.820   1.250 -0.0410 -1.0478 -1.3803
  823SOL    HW2 2469   1.976   0.845   1.078  0.4752 -1.0699 -4.1104
  824SOL     OW 2470   0.198   1.803   2.835 -0.0025  0.2656 -0.6730
  824SOL    HW1 2471   0.198   1.810   2.938 -1.2568  2.5291 -1.3143
  824SOL    HW2 2472   0.269   1.866   2.793  0.0750 -0.1952 -0.2504
  825SOL     OW 2473   1.265   1.039   0.250  0.3809  0.4855 -1.1160
  825SOL    HW1 2474   1.249   1.140   0.233 -0.2318 -1.5068 -1.2043
  825SOL    HW2 2475   1.272   1.020   0.353  0.2353 -2.1904  0.2763
  826SOL     OW 2476   1.974   0.662   1.627 -0.7750 -0.2293  0.0945
  826SOL    HW1 2477   2.069   0.620   1.617  2.1633  0.4953  1.0340
  826SOL    HW2 2478   1.899   0.624   1.567 -3.3104  0.0753  0.4254
  827SOL     OW 2479   0.709   1.191   0.481 -0.3839  0.2433  0.0568
  827SOL    HW1 2480   0.802   1.153   0.452  1.5744  1.9021 -4.1936
  827SOL    HW2 2481   0.628   1.131   0.444 -3.3718  0.3808 -0.6002
  828SOL     OW 2482   2.707   0.161   1.645 -1.2644 -0.2188  0.0920
  828SOL    HW1 2483   2.607   0.179   1.623  0.1100  1.2003  1.1763
  828SOL    HW2 2484   2.718   0.125   1.740 -1.0319  1.4002 -1.3763
  829SOL     OW 2485   2.877   2.380   2.875 -0.3582  0.0339 -0.1857
  829SOL    HW1 2486   2.793   2.334   2.918 -2.5935  2.1104 -3.4092
  829SOL    HW2 2487   2.882   2.485   2.887  0.0745  1.1478 -2.6103
  830SOL     OW 2488   3.004   0.938   2.951  0.1526  0.0142 -0.2443
  830SOL    HW1 2489   3.049   1.024   2.990 -0.2784  0.3577 -1.3048
  830SOL    HW2 2490   2.939   0.885   3.013 -0.8485  1.0002 -4.0327
  831SOL     OW 2491   3.079   0.558   0.458  0.1483  0.3913  0.1603
  831SOL    HW1 2492   3.067   0.490   0.537 -1.2455 -0.5759 -0.9686
  831SOL    HW2 2493   3.103   0.510   0.371 -0.2575 -0.2485  1.5587
  832SOL     OW 2494   1.762   0.721   0.020 -0.5767  0.7046 -0.4645
  832SOL    HW1 2495   1.670   0.767  -0.009  0.3012  2.7897 -1.7234
  832SOL    HW2 2496   1.769   0.624   0.006  0.9943  0.8266  0.5722
  833SOL     OW 2497   2.340   2.105   0.487 -0.5253 -0.5270 -0.2952
  833SOL    HW1 2498   2.246   2.063   0.486  0.9828  0.9639  0.1074
  833SOL    HW2 2499   2.423   2.042   0.487 -0.6554 -0.6476 -0.6915
  834SOL     OW 2500   0.035   0.055   0.571 -0.0815 -0.7255  0.4311
  834SOL    HW1 2501   0.133   0.028   0.570 -3.2994  1.0762 -0.6439
  834SOL    HW2 2502   0.014   0.133   0.509  0.1335 -1.8061 -0.4836
  835SOL     OW 2503   2.547   1.737   1.107  0.4014  0.7556  0.3068
  835SOL    HW1 2504   2.599   1.666   1.165  0.3287 -0.0088  0.1241
  835SOL    HW2 2505   2.604   1.807   1.059 -1.9509 -1.5637  1.1496
  836SOL     OW 2506   1.544   0.851   2.582 -0.3124 -0.7439 -0.1219
  836SOL    HW1 2507   1.442   0.859   2.584 -0.6577  0.6239 -0.2769
  836SOL    HW2 2508   1.589   0.859   2.486  1.5283 -0.8221 -0.3340
  837SOL     OW 2509   1.659   0.004   0.656 -0.4076 -0.7263  0.4298
  837SOL    HW1 2510   1.632   0.099   0.687 -0.1079 -0.6702  3.4154
  837SOL    HW2 2511   1.624  -0.010   0.562 -1.4110  2.9195  1.1369
  838SOL     OW 2512   1.174   1.395   2.680 -0.6588 -0.6846  0.1928
  838SOL    HW1 2513   1.142   1.440   2.764 -2.0737  1.7773 -2.7912
  838SOL    HW2 2514   1.107   1.382   2.604  0.8763  0.5841  1.7280
  839SOL     OW 2515   1.619   0.374   0.984  0.1629 -0.5265 -0.4110
  839SOL    HW1 2516   1.572   0.466   1.009  0.5459 -2.3872  2.3494
  839SOL    HW2 2517   1.573   0.291   1.019  0.0720  1.9517  3.2062
  840SOL     OW 2518   2.654   2.932   1.622 -0.1801 -0.4390 -0.5680
  840SOL    HW1 2519   2.618   3.023   1.592  1.0268  0.5186 -0.8992
  840SOL    HW2 2520   2.632   2.908   1.720 -1.0092  1.2122  0.3867
  841SOL     OW 2521   1.537   0.852   3.053 -0.4295 -0.0249  0.2576
  841SOL    HW1 2522   1.449   0.855   3.105  1.5649 -1.0705  3.1082
  841SOL    HW2 2523   1.525   0.891   2.953  3.7572 -0.5774 -1.3304
  842SOL     OW 2524   0.827   1.605   1.034 -0.0604  0.0566 -0.3963
  842SOL    HW1 2525   0.823   1.709   1.053 -1.9161 -0.4320  1.0784
  842SOL    HW2 2526   0.758   1.573   0.967  2.4675  0.6481  0.3513
  843SOL     OW 2527   0.137   0.085   1.431  0.1025  0.2252  0.0261
  843SOL    HW1 2528   0.224   0.134   1.461 -0.3819  0.9503 -1.1846
  843SOL    HW2 2529   0.143  -0.016   1.443  1.3329  0.5968  1.5868
  844SOL     OW 2530   0.780   2.452   0.203  0.6172 -0.0155  0.0774
  844SOL    HW1 2531   0.737   2.489   0.292 -0.1394  1.1671  0.1777
  844SOL    HW2 2532   0.712   2.453   0.123  0.2005 -0.5530  1.4257
  845SOL     OW 2533   1.738   0.014   1.306  0.4895 -0.2195 -0.0441
  845SOL    HW1 2534   1.745  -0.016   1.404 -0.7143 -0.8098 -2.4975
  845SOL    HW2 2535   1.656   0.076   1.287 -1.7233  0.1199 -2.6420
  846SOL     OW 2536   1.717   2.990   0.889  0.5537 -0.4275  0.5303
  846SOL    HW1 2537   1.690   3.010   0.787 -0.6072 -0.1270 -1.9044
  846SOL    HW2 2538   1.821   2.974   0.906  0.0581 -2.4056 -1.3375
  847SOL     OW 2539   2.058   1.577   0.193 -0.4060  0.3965  0.0576
  847SOL    HW1 2540   2.010   1.543   0.279  0.9996  0.5993 -1.1582
  847SOL    HW2 2541   2.000   1.566   0.109 -2.1495 -1.1356 -1.5813
  848SOL     OW 2542   2.455   0.790   2.676 -0.6604  0.0966  0.1652
  848SOL    HW1 2543   2.437   0.889   2.688 -1.6099 -3.4371 -1.2049
  848SOL    HW2 2544   2.374   0.746   2.628  2.8174 -0.1146  1.9900
  849SOL     OW 2545   2.350   0.850   2.317  0.1570  0.3804  0.5706
  849SOL    HW1 2546   2.390   0.791   2.241  2.1894 -0.4986  0.4554
  849SOL    HW2 2547   2.320   0.793   2.402 -1.5207  1.9400 -1.9928
  850SOL     OW 2548   1.534   0.209   1.273  0.1842 -0.2641  0.5524
  850SOL    HW1 2549   1.541   0.180   1.173  3.0819 -5.2368 -0.4296
  850SOL    HW2 2550   1.483   0.140   1.328  1.7455 -0.3380 -1.0924
  851SOL     OW 2551   0.412   1.684   0.654 -0.4818  0.2117  0.2416
  851SOL    HW1 2552   0.436   1.777   0.696 -0.6450 -0.4191 -3.4372
  851SOL    HW2 2553   0.498   1.625   0.651 -0.0060  0.3403  2.5867
  852SOL     OW 2554   0.844   2.145   1.761 -0.0690 -0.5995 -0.6117
  852SOL    HW1 2555   0.836   2.224   1.687  1.9942 -2.3689  1.9564
  852SOL    HW2 2556   0.769   2.150   1.835 -2.7608  0.0055  0.5188
  853SOL     OW 2557   2.512   1.511   2.608 -0.4854  0.4252  0.2956
  853SOL    HW1 2558   2.489   1.419   2.566  1.8152  2.7179 -0.1933
  853SOL    HW2 2559   2.524   1.582   2.536  2.4314 -2.8044  1.5869
  854SOL     OW 2560   2.423   1.461   1.708  0.1928 -0.5086 -0.1247
  854SOL    HW1 2561   2.480   1.462   1.624  1.8061 -0.5130  2.6585
  854SOL    HW2 2562   2.400   1.360   1.722 -1.0475 -0.6562 -2.5344
  855SOL     OW 2563   2.053   2.386   0.946 -0.3392  0.0809 -0.1122
  855SOL    HW1 2564   2.087   2.485   0.914 -1.5060  1.9140 -0.6089
  855SOL    HW2 2565   2.106   2.341   1.025 -1.6526  0.8979  1.1621
  856SOL     OW 2566   1.445   1.429   0.822  0.0378 -0.1917  0.2917
  856SOL    HW1 2567   1.437   1.529   0.858 -1.7756  2.7627 -0.8362
  856SOL    HW2 2568   1.406   1.357   0.885  3.0145 -1.6156 -0.0996
  857SOL     OW 2569   2.927   2.529   1.048  0.2834 -0.1134 -0.2421
  857SOL    HW1 2570   2.847   2.489   1.099  2.1877 -1.3046  1.2028
  857SOL    HW2 2571   2.985   2.461   0.995 -0.0868  0.5788 -4.7701
  858SOL     OW 2572   2.275   2.101   1.772 -0.6728 -0.5083  0.0434
  858SOL    HW1 2573   2.200   2.116   1.703  0.5602 -1.6190 -0.7526
  858SOL    HW2 2574   2.358   2.069   1.725 -2.6969  1.6606  2.0818
  859SOL     OW 2575   2.487   0.452   1.034  0.3186 -0.0119  0.2519
  859SOL    HW1 2576   2.553   0.506   0.975 -1.8249 -0.4513  1.0291
  859SOL    HW2 2577   2.543   0.390   1.100  1.6986 -0.0954  1.4396
  860SOL     OW 2578   1.902   2.797   0.511  0.0065 -0.1950 -0.1789
  860SOL    HW1 2579   1.979   2.757   0.455  0.6434  0.8810 -1.8214
  860SOL    HW2 2580   1.926   2.897   0.530  1.9583 -1.6647  0.9810
  861SOL     OW 2581   0.968   2.617   2.854 -0.4626  0.5887  0.0667
  861SOL    HW1 2582   1.028   2.701   2.874  0.5901  0.5584 -1.6100
  861SOL    HW2 2583   0.962   2.546   2.927 -3.8299 -0.5043 -1.8966
  862SOL     OW 2584   2.931   2.513   1.593 -0.1462 -0.1902  0.7596
  862SOL    HW1 2585   3.010   2.556   1.647  0.8947 -3.2424 -0.8887
  862SOL    HW2 2586   2.844   2.574   1.590  1.6811  2.8444  0.0536
  863SOL     OW 2587   1.911   2.688   0.183  0.3131 -0.5599  0.2304
  863SOL    HW1 2588   1.985   2.618   0.197 -1.5539  0.7448 -1.4639
  863SOL    HW2 2589   1.810   2.662   0.189 -1.7604  1.0214  2.0209
  864SOL     OW 2590   1.930   1.087   2.999 -0.1550 -0.1353  0.5604
  864SOL    HW1 2591   1.925   1.072   2.896 -1.6940 -1.1711  0.1047
  864SOL    HW2 2592   2.025   1.096   3.046 -0.2132  3.9156  0.6585
  865SOL     OW 2593   2.210   1.725   0.630 -0.1157  0.3477  0.1066
  865SOL    HW1 2594   2.206   1.749   0.729  0.4848  0.9250 -0.2839
  865SOL    HW2 2595   2.164   1.630   0.623  2.8823  2.3235 -0.2949
  866SOL     OW 2596   2.974   2.807   0.972  0.4772  0.6131 -0.4393
  866SOL    HW1 2597   3.013   2.832   0.877 -1.1170  0.1360 -2.7646
  866SOL    HW2 2598   2.945   2.706   0.985  2.2505 -1.2570 -1.2914
  867SOL     OW 2599   0.363   1.381   0.852  0.1125 -0.0265 -0.0717
  867SOL    HW1 2600   0.368   1.291   0.806  0.7110 -1.7632 -1.7395
  867SOL    HW2 2601   0.291   1.440   0.811  0.7973 -1.4368  1.6973
  868SOL     OW 2602   0.809   1.910   2.020 -0.5692  0.0353 -0.4566
  868SOL    HW1 2603   0.761   1.874   2.110 -0.5073  2.6798  3.3427
  868SOL    HW2 2604   0.783   2.014   2.006 -1.4211 -0.8937  0.7187
  869SOL     OW 2605   2.497   1.976   1.646 -0.7611  0.8539  0.4007
  869SOL    HW1 2606   2.552   1.891   1.675  0.7549 -2.8816  1.6981
  869SOL    HW2 2607   2.459   1.964   1.547 -0.7059 -3.0014 -1.9544
  870SOL     OW 2608   2.342   2.552   1.268 -0.6254  0.5114 -0.1888
  870SOL    HW1 2609   2.302   2.466   1.226  0.6620 -2.6737 -0.7095
  870SOL    HW2 2610   2.434   2.533   1.323  1.1952  0.7134 -0.5727
  871SOL     OW 2611   3.006   1.980   0.534 -0.2262 -0.1512  0.0544
  871SOL    HW1 2612   2.936   2.045   0.493 -0.4534 -0.6533 -2.7940
  871SOL    HW2 2613   2.982   1.886   0.497  1.5408 -1.4037  1.2803
  872SOL     OW 2614   2.202   0.532   1.712  0.4693 -0.3163  0.0286
  872SOL    HW1 2615   2.168   0.554   1.810  0.2887 -3.2609 -2.3356
  872SOL    HW2 2616   2.283   0.466   1.714  0.6515 -1.7415  3.7441
  873SOL     OW 2617   1.714   2.119   2.894  0.1578  0.3261 -0.1343
  873SOL    HW1 2618   1.712   2.220   2.906  2.3534 -3.2947  0.5636
  873SOL    HW2 2619   1.642   2.088   2.832  1.0109  0.4983  3.5571
  874SOL     OW 2620   0.613   2.470   0.726  0.7485 -0.4546 -0.2753
  874SOL    HW1 2621   0.591   2.567   0.758 -0.9891  0.8643 -1.2181
  874SOL    HW2 2622   0.715   2.441   0.724  0.3262 -1.4411 -3.1016
  875SOL     OW 2623   2.295   1.599   1.477 -1.0496  0.9276  0.3923
  875SOL    HW1 2624   2.382   1.647   1.515  2.1112 -0.0734 -0.3309
  875SOL    HW2 2625   2.283   1.624   1.378  1.1024  1.3026  0.8100
  876SOL     OW 2626   0.177   2.266   2.772  0.2273  0.1571  0.5464
  876SOL    HW1 2627   0.204   2.212   2.853  4.1744  1.1509 -0.3450
  876SOL    HW2 2628   0.223   2.357   2.791 -0.8199  1.5797  1.0316
  877SOL     OW 2629   2.817   2.651   0.653  0.2854  0.2992  0.3292
  877SOL    HW1 2630   2.830   2.751   0.644 -2.4461 -1.8171 -0.1939
  877SOL    HW2 2631   2.899   2.589   0.656  0.5825 -1.1102 -0.9870
  878SOL     OW 2632   2.691   1.485   2.376 -0.6070 -0.0546  0.3901
  878SOL    HW1 2633   2.697   1.582   2.351 -4.9858 -0.4987 -1.4561
  878SOL    HW2 2634   2.775   1.438   2.407 -1.2333  0.3168 -0.7817
  879SOL     OW 2635   2.450   3.045   1.220 -0.1355 -0.3082 -0.5077
  879SOL    HW1 2636   2.479   2.948   1.232 -2.2381 -0.5559  0.0241
  879SOL    HW2 2637   2.344   3.053   1.199 -2.9681 -1.7929 -0.6603
  880SOL     OW 2638   0.622   0.498   2.215  0.2889 -0.4570 -0.4378
  880SOL    HW1 2639   0.572   0.439   2.287  1.5971 -0.5119  1.2430
  880SOL    HW2 2640   0.650   0.444   2.135  1.4213  1.3852  2.4056
  881SOL     OW 2641   0.912   0.077   0.451  0.4147  0.4509 -0.1689
  881SOL    HW1 2642   0.954  -0.019   0.469  0.8035  1.1487 -0.1250
  881SOL    HW2 2643   0.867   0.084   0.358 -1.0532 -0.4935 -0.4422
  882SOL     OW 2644   2.758   1.779   1.684 -0.2087 -0.4904  0.6060
  882SOL    HW1 2645   2.815   1.718   1.621  1.3820  1.3885 -3.0014
  882SOL    HW2 2646   2.768   1.762   1.786 -1.0260 -0.6865 -0.4734
  883SOL     OW 2647   0.923   0.567   0.963 -0.2422  0.1243  0.3247
  883SOL    HW1 2648   0.902   0.645   1.027  0.3783  1.8276 -0.8804
  883SOL    HW2 2649   1.023   0.539   0.964  0.3188  1.1863 -0.5866
  884SOL     OW 2650   1.138   1.905   1.058 -0.7547 -0.0452  0.0657
  884SOL    HW1 2651   1.146   1.878   0.959 -1.2262 -0.7933 -0.4824
  884SOL    HW2 2652   1.068   1.979   1.074  1.2547 -0.6378 -0.3532
  885SOL     OW 2653   2.320   1.802   2.294 -0.2545  0.1997 -0.2383
  885SOL    HW1 2654   2.246   1.748   2.351 -0.3172 -2.4547  0.5488
  885SOL    HW2 2655   2.324   1.902   2.331  1.8705  1.3552  2.1075
  886SOL     OW 2656   2.676   0.457   1.834  0.0633  0.3596  0.2472
  886SOL    HW1 2657   2.741   0.397   1.883  0.5707 -0.7991  0.5522
  886SOL    HW2 2658   2.722   0.540   1.799 -2.1845 -2.0776 -0.1758
  887SOL     OW 2659   0.214   2.045   1.273  0.4918  0.2020 -0.1259
  887SOL    HW1 2660   0.131   1.997   1.237  2.4390 -1.1328  0.9686
  887SOL    HW2 2661   0.229   2.144   1.246 -1.6885 -0.8271 -1.1550
  888SOL     OW 2662   0.570   1.344   1.467  0.0041  0.2128 -0.6503
  888SOL    HW1 2663   0.594   1.408   1.386 -0.7937 -0.4870  0.2945
  888SOL    HW2 2664   0.540   1.253   1.435 -3.4125  0.3188  2.1573
  889SOL     OW 2665   0.839   2.408   2.167 -0.1251 -0.0425  0.2879
  889SOL    HW1 2666   0.766   2.344   2.142  1.9857  0.8833  2.0008
  889SOL    HW2 2667   0.901   2.423   2.085 -1.2287 -3.3576  1.0682
  890SOL     OW 2668   2.343   2.429   0.220  0.0796  0.3919  0.3411
  890SOL    HW1 2669   2.409   2.503   0.192  1.9335  0.6260 -0.4138
  890SOL    HW2 2670   2.253   2.464   0.264  0.7227 -0.0449  1.5580
  891SOL     OW 2671   2.600   1.659   0.716  0.2154  0.5759 -0.5309
  891SOL    HW1 2672   2.564   1.581   0.779  0.8216 -0.3367  1.1813
  891SOL    HW2 2673   2.528   1.692   0.647 -0.4738  4.0149  0.2290
  892SOL     OW 2674   0.305   0.284   2.245  0.0584  0.0812 -0.1910
  892SOL    HW1 2675   0.299   0.328   2.153 -0.9412 -0.0008 -2.0502
  892SOL    HW2 2676   0.385   0.322   2.302  1.8255 -0.2336  4.1046
  893SOL     OW 2677   1.633   0.257   2.739  0.7910  0.0385  0.4708
  893SOL    HW1 2678   1.711   0.324   2.761 -3.0829 -1.1563  0.1696
  893SOL    HW2 2679   1.549   0.298   2.694  0.3470  0.8176  2.3897
  894SOL     OW 2680   2.176   2.033   0.041  0.3605 -0.1404 -0.1481
  894SOL    HW1 2681   2.139   1.983  -0.044  1.0840  1.9770 -1.5848
  894SOL    HW2 2682   2.185   1.965   0.121 -1.3575 -0.0608 -0.2387
  895SOL     OW 2683   2.794   1.373   0.845 -0.7566  0.1751  0.1798
  895SOL    HW1 2684   2.860   1.350   0.925  1.7750  0.6746 -0.2870
  895SOL    HW2 2685   2.843   1.420   0.774 -1.1954 -4.3494 -0.2101
  896SOL     OW 2686   1.721   1.818   1.170  0.6744  1.0060 -0.1822
  896SOL    HW1 2687   1.790   1.827   1.094  1.3553  1.5784  0.4898
  896SOL    HW2 2688   1.657   1.899   1.176 -0.8767 -0.6258  1.5187
  897SOL     OW 2689   0.308   0.506   3.060 -0.5215  0.2943 -0.0643
  897SOL    HW1 2690   0.254   0.529   2.970 -1.2721  3.4026  2.1947
  897SOL    HW2 2691   0.407   0.545   3.059  0.8890 -0.7073  0.6198
  898SOL     OW 2692   0.546   2.921   0.992 -0.4242 -0.3048  0.0109
  898SOL    HW1 2693   0.470   2.961   1.053  0.9573  1.2599  2.4652
  898SOL    HW2 2694   0.640   2.966   0.998 -0.2076 -0.3740 -1.4778
  899SOL     OW 2695   2.696   0.936   1.275  0.3294 -0.1020  0.3898
  899SOL    HW1 2696   2.669   0.908   1.180 -0.4148 -3.7067 -1.7435
  899SOL    HW2 2697   2.794   0.959   1.276 -0.2838 -0.6931  1.1739
  900SOL     OW 2698   0.996   2.372   2.386  0.2450  0.0603 -0.0533
  900SOL    HW1 2699   0.907   2.365   2.330  2.0649  0.5343 -1.1610
  900SOL    HW2 2700   0.976   2.419   2.473  0.5809 -0.0099  0.2130
  901SOL     OW 2701   1.987   2.492   1.340 -0.0068 -0.0173 -0.3840
  901SOL    HW1 2702   1.929   2.460   1.263 -2.2098 -0.2096  2.0342
  901SOL    HW2 2703   2.075   2.433   1.355 -0.0946 -1.4143 -0.3746
  902SOL     OW 2704   2.580   1.668   1.485 -0.0177  0.2668  0.5320
  902SOL    HW1 2705   2.630   1.653   1.577  1.6289 -0.8625  2.5480
  902SOL    HW2 2706   2.634   1.617   1.412  1.9232  0.1834 -1.8425
  903SOL     OW 2707   0.278   2.477   1.960  0.0832  0.1145 -0.2385
  903SOL    HW1 2708   0.183   2.438   1.961  2.1706  2.2962 -0.7390
  903SOL    HW2 2709   0.302   2.506   1.867  0.1122  2.2190 -2.1847
  904SOL     OW 2710   1.986   0.804   2.604 -0.0607  0.7696 -0.0052
  904SOL    HW1 2711   1.917   0.762   2.670  2.2353 -1.1492  1.9854
  904SOL    HW2 2712   1.952   0.797   2.500  0.2699 -1.8434  0.8188
  905SOL     OW 2713   2.838   0.043   2.580  0.5419  0.4494  0.3380
  905SOL    HW1 2714   2.919  -0.014   2.613 -1.4670 -1.0544  1.7095
  905SOL    HW2 2715   2.862   0.143   2.552 -1.5707 -0.5997  1.6238
  906SOL     OW 2716   0.122   1.851   1.908 -0.1178 -0.3428 -0.4004
  906SOL    HW1 2717   0.051   1.833   1.834  1.3264  1.3523  1.4622
  906SOL    HW2 2718   0.128   1.954   1.918 -0.8529  0.6292  0.1009
  907SOL     OW 2719   0.191   2.406   1.067 -0.6193  0.3545  0.2047
  907SOL    HW1 2720   0.267   2.435   1.004  0.7012  0.7062 -1.2959
  907SOL    HW2 2721   0.116   2.355   1.014  2.1632 -2.0981 -0.3176
  908SOL     OW 2722   2.687   2.795   0.360  0.1100 -0.1637 -0.0646
  908SOL    HW1 2723   2.690   2.861   0.277  2.7717 -1.0831 -3.0708
  908SOL    HW2 2724   2.676   2.695   0.334 -3.8697 -2.4295 -0.4286
  909SOL     OW 2725   0.663   0.902   2.641 -0.1933 -0.1982 -0.0019
  909SOL    HW1 2726   0.644   0.796   2.635 -1.3552 -2.2648  0.8713
  909SOL    HW2 2727   0.739   0.942   2.584 -1.0989 -0.3239 -0.4954
  910SOL     OW 2728   1.721   1.770   2.114 -0.0921 -0.5337  0.3720
  910SOL    HW1 2729   1.780   1.782   2.030  0.3261 -0.6729  1.5901
  910SOL    HW2 2730   1.675   1.860   2.141  2.5702  0.1078 -1.9206
  911SOL     OW 2731   1.776   3.036   1.576  0.9313 -0.6404  0.1380
  911SOL    HW1 2732   1.869   2.995   1.558 -2.6330 -0.6669  2.9469
  911SOL    HW2 2733   1.720   2.973   1.640 -0.6080  0.5364 -0.7838
  912SOL     OW 2734   2.884   0.961   0.756  0.3156 -0.3428 -0.4102
  912SOL    HW1 2735   2.903   0.955   0.857  0.4071 -0.3783 -1.4140
  912SOL    HW2 2736   2.826   1.045   0.729  3.3481  1.7927 -0.3085
  913SOL     OW 2737   2.580   1.284   1.549  0.1056  0.1335 -0.1504
  913SOL    HW1 2738   2.592   1.193   1.595  0.8528  0.2453 -1.9927
  913SOL    HW2 2739   2.628   1.290   1.458  3.2927 -2.4145 -0.2707
  914SOL     OW 2740   2.772   0.496   1.273 -0.1405  0.1324  0.0415
  914SOL    HW1 2741   2.748   0.404   1.305 -0.9026 -0.4726 -4.9597
  914SOL    HW2 2742   2.737   0.579   1.327 -3.4524 -0.2036  0.1796
  915SOL     OW 2743   1.188   0.791   1.034  0.4498  0.0865 -0.1354
  915SOL    HW1 2744   1.253   0.775   1.115  2.5684 -1.2504  2.6308
  915SOL    HW2 2745   1.091   0.804   1.062  1.0965 -2.0728 -0.1752
  916SOL     OW 2746   0.601   0.022   0.580 -0.5167 -0.4070 -0.3273
  916SOL    HW1 2747   0.595   0.081   0.665  2.1737 -0.0826 -1.8774
  916SOL    HW2 2748   0.592   0.078   0.493 -0.2466  1.6990  0.4584
  917SOL     OW 2749   2.746   2.614   1.864 -0.0737  0.0458  0.1900
  917SOL    HW1 2750   2.672   2.689   1.872  0.5347 -1.7823  0.2209
  917SOL    HW2 2751   2.829   2.663   1.829  3.9496  1.2461  0.6840
  918SOL     OW 2752   1.077   2.189   3.087  0.3912 -0.2347 -0.4422
  918SOL    HW1 2753   1.036   2.212   3.182 -0.4454  2.4618 -2.2212
  918SOL    HW2 2754   1.145   2.109   3.083 -1.2084 -0.2519 -1.0588
  919SOL     OW 2755   0.910   1.571   2.774 -0.1199 -0.5760  0.3848
  919SOL    HW1 2756   0.927   1.660   2.720  0.7440 -1.6678 -1.0444
  919SOL    HW2 2757   0.858   1.493   2.727 -1.1441  0.2615 -0.0767
  920SOL     OW 2758   1.208   2.008   2.460 -0.4353 -0.2764  0.0443
  920SOL    HW1 2759   1.156   2.037   2.374  0.9343  2.3496 -0.7106
  920SOL    HW2 2760   1.225   1.904   2.477  0.9942 -2.7368 -0.5371
  921SOL     OW 2761   1.059   0.105   2.518  0.4377 -0.0381 -0.4958
  921SOL    HW1 2762   1.010   0.013   2.501  0.7580 -1.0689 -0.5700
  921SOL    HW2 2763   1.019   0.175   2.459  1.7019 -1.6444 -3.3765
  922SOL     OW 2764   2.147   2.411   2.807  0.1455 -0.6665 -0.0857
  922SOL    HW1 2765   2.115   2.309   2.810  1.8617 -1.2264  0.8789
  922SOL    HW2 2766   2.140   2.453   2.713  2.0025 -3.2619  1.9690
  923SOL     OW 2767   1.230   2.707   0.204  0.5099 -0.2764 -0.2074
  923SOL    HW1 2768   1.312   2.744   0.251 -0.9055 -0.6738 -0.2941
  923SOL    HW2 2769   1.248   2.626   0.147 -0.3516 -0.9867  0.7395
  924SOL     OW 2770   2.923   1.618   0.078  0.3347  0.1535 -0.0884
  924SOL    HW1 2771   2.834   1.608   0.021  0.6859 -2.5405  0.0742
  924SOL    HW2 2772   3.004   1.587   0.021  0.4304  1.6406  0.1464
  925SOL     OW 2773   0.061   2.876   1.636 -0.5613 -0.0582  0.3235
  925SOL    HW1 2774  -0.038   2.914   1.622 -0.3301 -3.0145  0.0697
  925SOL    HW2 2775   0.112   2.868   1.542  2.9543 -0.5252 -0.2726
  926SOL     OW 2776   1.413   2.894   1.253  0.2554 -0.4243  0.2707
  926SOL    HW1 2777   1.416   2.903   1.146  1.8156  1.1633  1.3654
  926SOL    HW2 2778   1.413   2.983   1.306  0.6182 -2.1150  1.8304
  927SOL     OW 2779   0.250   2.598   1.714 -0.2320 -0.0446 -0.6130
  927SOL    HW1 2780   0.219   2.516   1.658  1.2333 -1.7440 -1.5280
  927SOL    HW2 2781   0.312   2.658   1.654  0.3986 -1.4584 -0.6996
  928SOL     OW 2782   1.612   2.039   2.125  0.3818  0.0401  0.0016
  928SOL    HW1 2783   1.645   2.134   2.100 -3.3488 -1.7025  2.1923
  928SOL    HW2 2784   1.517   2.026   2.087  0.2191  2.5767 -1.4181
  929SOL     OW 2785   2.435   2.402   2.869  0.7458 -0.1833  0.2841
  929SOL    HW1 2786   2.332   2.407   2.879  0.9183  1.1461  1.9994
  929SOL    HW2 2787   2.467   2.365   2.779 -0.1076  0.2395  0.8085
  930SOL     OW 2788   2.130   1.990   1.062 -0.4410  0.4637  0.6642
  930SOL    HW1 2789   2.116   1.973   1.164 -2.8218 -1.1812 -1.2261
  930SOL    HW2 2790   2.218   2.036   1.034 -2.1448  1.0605  0.4759
  931SOL     OW 2791   0.541   1.755   2.662  0.3131  0.1997  0.6982
  931SOL    HW1 2792   0.595   1.743   2.746 -0.9085 -0.6271 -2.8016
  931SOL    HW2 2793   0.556   1.667   2.603  2.4509  0.5715  0.6264
  932SOL     OW 2794   0.522   0.116   2.948  0.5418  0.2673 -0.2986
  932SOL    HW1 2795   0.603   0.139   2.887  0.8437 -1.2480 -1.9169
  932SOL    HW2 2796   0.510   0.014   2.962  1.5120  1.8287  0.5929
  933SOL     OW 2797   1.055   0.788   2.991 -0.1430  0.7909 -0.2177
  933SOL    HW1 2798   1.145   0.814   3.042  1.4476  1.9252 -0.6044
  933SOL    HW2 2799   1.022   0.877   2.943 -1.2874  1.5005 -1.1725
  934SOL     OW 2800   0.867   2.969   2.825  0.3408 -0.5527  0.2198
  934SOL    HW1 2801   0.968   2.936   2.825  0.2369  2.3309  1.1487
  934SOL    HW2 2802   0.806   2.907   2.888 -4.5754 -1.7828  1.3939
  935SOL     OW 2803   3.040   0.533   0.857  0.3275 -0.0253 -0.2724
  935SOL    HW1 2804   3.075   0.491   0.766 -2.7305  0.8263 -0.6061
  935SOL    HW2 2805   2.951   0.590   0.848 -0.9680 -0.2038 -2.1466
  936SOL     OW 2806   1.128   2.994   0.155 -0.4551 -0.1768 -0.3016
  936SOL    HW1 2807   1.151   3.032   0.062  0.9857 -2.2825  1.3645
  936SOL    HW2 2808   1.155   2.893   0.165  1.4407 -1.9445 -1.2135
  937SOL     OW 2809   1.952   2.708   2.103 -0.0098 -0.1214 -0.0459
  937SOL    HW1 2810   1.875   2.726   2.172  1.8728  0.7223  2.3366
  937SOL    HW2 2811   1.937   2.718   2.002  0.9997  0.8543  1.9246
  938SOL     OW 2812   2.719   2.200   1.501 -0.0277 -0.6169  0.3458
  938SOL    HW1 2813   2.657   2.250   1.570  1.4358  0.2115  1.0259
  938SOL    HW2 2814   2.771   2.125   1.547 -1.2758 -2.2676 -0.5774
  939SOL     OW 2815   2.760   0.987   2.533 -0.2121  0.2373  0.3197
  939SOL    HW1 2816   2.845   0.923   2.546  0.9012  2.8560 -2.4515
  939SOL    HW2 2817   2.750   1.050   2.612 -0.5884  1.7997  2.6328
  940SOL     OW 2818   1.041   0.460   2.652 -0.5141  0.3492 -0.5018
  940SOL    HW1 2819   1.092   0.378   2.688 -1.4012 -1.5503 -0.0721
  940SOL    HW2 2820   0.938   0.450   2.651 -3.4661  1.8949  0.1483
  941SOL     OW 2821   0.032   2.882   2.193 -0.3806  0.1197  0.1926
  941SOL    HW1 2822   0.015   2.787   2.158 -0.8266  1.3090 -3.1845
  941SOL    HW2 2823   0.105   2.882   2.266 -3.0630 -0.4196  2.3312
  942SOL     OW 2824   0.146   0.083   2.530  0.5519 -0.1705  0.8564
  942SOL    HW1 2825   0.207   0.104   2.616  2.2137  0.4158  1.5230
  942SOL    HW2 2826   0.115   0.165   2.469 -3.1462  1.8943 -0.0846
  943SOL     OW 2827   2.104   1.666   2.404  0.3413 -0.3352 -0.1713
  943SOL    HW1 2828   2.125   1.567   2.430 -0.8698 -0.3417  0.4591
  943SOL    HW2 2829   2.048   1.655   2.311  2.3054  1.8201 -1.6317
  944SOL     OW 2830   2.190   2.297   1.415 -0.0953  0.3289 -0.1456
  944SOL    HW1 2831   2.226   2.387   1.453  2.8336  1.3610  2.7785
  944SOL    HW2 2832   2.147   2.244   1.489  0.4489  1.9265 -2.0260
  945SOL     OW 2833   0.632   1.421   0.348 -1.1371 -0.5635 -0.2010
  945SOL    HW1 2834   0.660   1.480   0.265  1.5417 -0.3363 -0.8899
  945SOL    HW2 2835   0.684   1.333   0.360 -1.8234 -1.4843 -2.2147
  946SOL     OW 2836   0.318   0.973   2.652 -0.2778 -0.2035 -0.5270
  946SOL    HW1 2837   0.260   0.932   2.574 -0.4805 -0.4620 -1.7469
  946SOL    HW2 2838   0.347   1.064   2.622 -0.8933 -0.1364 -0.3089
  947SOL     OW 2839   1.524   0.442   0.150  0.3324  0.2781 -0.4962
  947SOL    HW1 2840   1.547   0.371   0.218 -1.6015  2.0413  0.8593
  947SOL    HW2 2841   1.444   0.416   0.087 -1.5929  1.2074 -3.3324
  948SOL     OW 2842   2.024   3.055   2.128  0.5002 -0.6539  0.1436
  948SOL    HW1 2843   1.965   3.054   2.041 -0.6218  1.8834  0.5020
  948SOL    HW2 2844   1.983   2.999   2.202  2.6632  0.8988 -1.1993
  949SOL     OW 2845   0.681   2.543   0.438  0.3874  0.1096 -0.3884
  949SOL    HW1 2846   0.680   2.637   0.391  1.3555 -2.0409 -3.5471
  949SOL    HW2 2847   0.716   2.540   0.536  1.3299 -1.5927  0.5527
  950SOL     OW 2848   0.208   2.113   3.007  0.1012  0.3394 -0.4467
  950SOL    HW1 2849   0.116   2.163   3.016 -0.9243  2.0801  2.3605
  950SOL    HW2 2850   0.191   2.011   3.031  1.1469 -0.0178 -2.3568
  951SOL     OW 2851   1.133   2.848   2.806 -0.7557  0.8703  0.1754
  951SOL    HW1 2852   1.134   2.761   2.754  1.6197 -0.1919 -2.3340
  951SOL    HW2 2853   1.225   2.893   2.816 -1.4765  1.6672 -1.4669
  952SOL     OW 2854   0.051   1.684   0.479 -1.0470 -0.3805  0.2969
  952SOL    HW1 2855   0.115   1.765   0.447  2.5877  1.3816 -4.6113
  952SOL    HW2 2856   0.048   1.666   0.578 -1.0814 -1.6823 -1.2096
  953SOL     OW 2857   2.447   1.770   0.156 -0.7141  0.2722 -0.4166
  953SOL    HW1 2858   2.430   1.680   0.206  1.5747  0.5414  4.1213
  953SOL    HW2 2859   2.476   1.763   0.054 -1.7806  2.2031 -1.2618
  954SOL     OW 2860   2.228   0.491   1.041  0.4798  0.1043  0.0995
  954SOL    HW1 2861   2.220   0.500   0.942  2.1714 -1.7697  0.7344
  954SOL    HW2 2862   2.331   0.464   1.061  2.6213 -2.0255  0.7658
  955SOL     OW 2863   0.216   2.691   1.241  0.1141 -0.3509 -0.4343
  955SOL    HW1 2864   0.135   2.647   1.283 -1.2414  0.4113 -2.3232
  955SOL    HW2 2865   0.227   2.663   1.140  1.5553  1.0191 -0.2971
  956SOL     OW 2866   2.758   2.479   2.500  0.3839  0.1902 -0.2278
  956SOL    HW1 2867   2.779   2.384   2.457  1.3647 -1.5750 -0.3006
  956SOL    HW2 2868   2.776   2.557   2.432  1.2991 -0.1049  1.0430
  957SOL     OW 2869   1.553   1.986   2.676 -0.1970  0.4138  0.3769
  957SOL    HW1 2870   1.538   1.879   2.690 -0.0966 -2.6224  2.0000
  957SOL    HW2 2871   1.579   2.000   2.576  1.3032  0.3573 -0.2453
  958SOL     OW 2872   2.658   2.281   2.977 -0.0142 -0.4636 -0.0466
  958SOL    HW1 2873   2.570   2.329   2.949 -0.2762  1.6451 -3.7740
  958SOL    HW2 2874   2.639   2.200   3.039  0.7840 -0.0826  0.5298
  959SOL     OW 2875   0.262   2.795   0.036  0.0103  0.6033  0.0057
  959SOL    HW1 2876   0.162   2.810   0.045  0.5293  0.6902  3.1538
  959SOL    HW2 2877   0.293   2.705  -0.003 -1.4466 -0.4324  2.5676
  960SOL     OW 2878   1.928   0.449   2.050 -0.3881  0.2372  0.1749
  960SOL    HW1 2879   1.923   0.529   1.981  1.4352 -0.9448 -0.0195
  960SOL    HW2 2880   1.983   0.475   2.137  0.7525 -1.5993  3.4038
  961SOL     OW 2881   2.741   1.977   1.029  0.7546  0.7336  0.5640
  961SOL    HW1 2882   2.773   2.071   1.002  2.4943  1.5148  1.2208
  961SOL    HW2 2883   2.678   1.988   1.113 -0.8517  0.6019  0.2382
  962SOL     OW 2884   1.251   0.947   3.090 -0.2674 -0.0792 -0.2551
  962SOL    HW1 2885   1.255   1.019   3.020  1.1989 -0.6588 -0.5599
  962SOL    HW2 2886   1.252   0.981   3.189  0.7156 -2.6554  0.4025
  963SOL     OW 2887   2.182   2.584   1.924 -0.6420  0.2494 -0.3673
  963SOL    HW1 2888   2.179   2.509   1.996 -1.3636 -2.1540  0.9766
  963SOL    HW2 2889   2.255   2.656   1.947  1.0324  0.8760  0.1614
  964SOL     OW 2890   2.428   0.368   1.719  0.0508 -0.4730 -0.2738
  964SOL    HW1 2891   2.516   0.402   1.765 -1.5481 -0.6073  3.0212
  964SOL    HW2 2892   2.428   0.344   1.617 -0.4604  2.8471 -0.4827
  965SOL     OW 2893   2.667   3.000   0.142  0.1084  0.2620 -0.4648
  965SOL    HW1 2894   2.754   3.020   0.084 -1.6786 -0.6054  0.7124
  965SOL    HW2 2895   2.583   3.028   0.083 -0.3623  2.1096 -0.9694
  966SOL     OW 2896   2.527   2.628   2.222 -0.5822 -0.6212  0.3655
  966SOL    HW1 2897   2.466   2.564   2.167  0.1673  0.2050  0.1884
  966SOL    HW2 2898   2.502   2.728   2.216  2.3108  0.7208 -3.1593
  967SOL     OW 2899   2.715   2.857   2.474  0.1599 -0.0143  0.2515
  967SOL    HW1 2900   2.750   2.779   2.411  1.5123  1.9181 -1.6443
  967SOL    HW2 2901   2.786   2.928   2.490  0.6881 -0.6929 -0.9327
  968SOL     OW 2902   1.967   1.043   2.717 -0.1591  0.1016 -0.1164
  968SOL    HW1 2903   1.928   1.136   2.690  0.5070 -2.5806  0.5252
  968SOL    HW2 2904   1.959   0.964   2.647 -3.7024  1.1346  1.2966
  969SOL     OW 2905   2.745   2.381   1.177 -0.3144  0.3884  0.0405
  969SOL    HW1 2906   2.668   2.382   1.110  0.3765 -0.1482  0.2164
  969SOL    HW2 2907   2.787   2.285   1.189 -2.1037  0.5163 -0.5289
  970SOL     OW 2908   1.118   2.105   1.786 -0.5761 -0.6524  0.4871
  970SOL    HW1 2909   1.021   2.122   1.744  1.4635  0.8706 -0.0040
  970SOL    HW2 2910   1.121   2.121   1.888 -2.7026  0.8304 -2.7178
  971SOL     OW 2911   2.832   2.129   1.918  0.1532  0.5014 -0.0133
  971SOL    HW1 2912   2.812   2.234   1.929  4.2506  2.0928 -1.7125
  971SOL    HW2 2913   2.917   2.114   1.859 -0.5123  2.0285 -1.9786
  972SOL     OW 2914   2.065   2.467   0.287 -0.3842  0.6859 -0.1079
  972SOL    HW1 2915   2.044   2.394   0.214  1.3216  0.3899 -4.8481
  972SOL    HW2 2916   2.033   2.445   0.386 -2.4097 -0.4976 -1.2610
  973SOL     OW 2917   1.308   1.036   1.859  0.2175  0.2172 -0.5169
  973SOL    HW1 2918   1.233   1.017   1.794  0.7100  1.3057 -1.8144
  973SOL    HW2 2919   1.315   1.139   1.881 -0.6964 -2.5693 -0.6251
  974SOL     OW 2920   1.639   0.551   2.002 -0.1458  0.0025  0.8497
  974SOL    HW1 2921   1.730   0.603   1.978  0.4638  2.8164  0.9338
  974SOL    HW2 2922   1.557   0.614   1.967 -0.1493  0.5147 -0.0005
  975SOL     OW 2923   2.462   3.053   3.083  0.0245 -0.3095  0.0580
  975SOL    HW1 2924   2.382   3.002   3.130  0.8956 -0.6301  1.5288
  975SOL    HW2 2925   2.486   3.012   2.996  1.6121 -0.2136  1.1626
  976SOL     OW 2926   1.966   2.919   2.359  0.3537  0.4426  0.1534
  976SOL    HW1 2927   1.915   2.868   2.432 -0.6274 -2.8142  2.9601
  976SOL    HW2 2928   2.071   2.908   2.365  2.2201 -0.4907 -1.5372
  977SOL     OW 2929   0.489   0.563   0.988 -0.2888 -0.7900 -0.3699
  977SOL    HW1 2930   0.405   0.544   0.925  0.0674  0.1085 -0.2721
  977SOL    HW2 2931   0.577   0.595   0.945  2.7194 -0.2700 -0.9365
   3.10000   3.10000   3.10000
