1000 SPC/Fw water molecules t=   1.98000 step= 1980
 2931
    1SOL     OW    1   2.516   0.271   2.702 -1.0995 -0.0133 -0.9543
    1SOL    HW1    2   2.527   0.164   2.689  2.3231 -0.7649  0.1302
    1SOL    HW2    3   2.567   0.309   2.786  0.1681  0.0015  0.1219
    2SOL     OW    4   2.802   2.767   1.265 -0.0805 -0.4072  0.3600
    2SOL    HW1    5   2.877   2.833   1.242 -1.7649 -2.9149 -1.9418
    2SOL    HW2    6   2.788   2.752   1.364  1.5652 -0.5095 -1.5817
    3SOL     OW    7   2.786   2.440   0.471  0.6680  0.1775  0.2054
    3SOL    HW1    8   2.687   2.432   0.452  3.0723  3.0889 -1.5111
    3SOL    HW2    9   2.811   2.527   0.520 -2.4303 -0.3341  0.2135
    4SOL     OW   10   1.192   1.544   2.393  0.2516  0.4230 -0.4791
    4SOL    HW1   11   1.161   1.582   2.299 -3.0101 -1.3024 -3.2012
    4SOL    HW2   12   1.145   1.452   2.408  1.7942 -3.0932 -1.9772
    5SOL     OW   13   1.157   1.587   2.908  0.5163  0.2220  0.3219
    5SOL    HW1   14   1.189   1.684   2.935 -0.2414  3.7722  0.2655
    5SOL    HW2   15   1.058   1.586   2.873 -1.1110 -0.5403 -3.4302
    6SOL     OW   16   0.170   1.874   0.015 -1.0110  0.2461 -0.1815
    6SOL    HW1   17   0.086   1.898   0.068  2.4477  0.5272 -2.6712
    6SOL    HW2   18   0.207   1.784   0.043  1.3503  4.7404  0.3498
    7SOL     OW   19   2.564   0.857   1.062 -0.2158 -0.2609  0.3425
    7SOL    HW1   20   2.461   0.849   1.081  3.0171 -0.7999 -0.6601
    7SOL    HW2   21   2.611   0.774   1.024  0.5517  0.3012 -0.6115
    8SOL     OW   22   0.471   0.735   1.478 -0.0326  0.2244  0.3808
    8SOL    HW1   23   0.565   0.726   1.517 -0.7052  1.3656 -0.9609
    8SOL    HW2   24   0.463   0.729   1.374  0.1654  1.4457 -0.5751
    9SOL     OW   25   1.125   0.842   2.312 -0.0850  0.7099  0.0809
    9SOL    HW1   26   1.155   0.899   2.237 -1.8032 -2.7280  1.1302
    9SOL    HW2   27   1.109   0.742   2.298  2.3902 -0.1657  0.1242
   10SOL     OW   28   0.593   1.516   1.238  0.1213 -0.0682 -0.2554
   10SOL    HW1   29   0.508   1.529   1.182 -0.9567 -0.2603  1.7339
   10SOL    HW2   30   0.632   1.605   1.286 -0.2762  1.1768 -2.3279
   11SOL     OW   31   2.339   2.819   0.941  0.4285  0.1373  0.2803
   11SOL    HW1   32   2.281   2.822   1.032 -2.3653  0.9764  0.6381
   11SOL    HW2   33   2.435   2.830   0.962  0.8507  1.8646  1.2612
   12SOL     OW   34   1.429   0.824   0.547  0.1605 -0.0304  0.0609
   12SOL    HW1   35   1.333   0.860   0.527  0.4246  1.2156  2.8395
   12SOL    HW2   36   1.480   0.774   0.472  2.4940 -0.7358  0.5600
   13SOL     OW   37   2.442   0.689   1.815 -0.1100  0.2340 -0.4141
   13SOL    HW1   38   2.359   0.677   1.875  1.1194  1.3482 -1.5171
   13SOL    HW2   39   2.431   0.661   1.719 -0.4298  0.3141  3.5919
   14SOL     OW   40   1.971   3.035   0.686  0.3074 -0.0388  0.0725
   14SOL    HW1   41   1.883   3.081   0.665  2.7263 -1.0482  2.6872
   14SOL    HW2   42   1.979   2.994   0.785  2.5863 -0.2574 -0.9129
   15SOL     OW   43   1.855   2.076   2.640  0.2180 -0.3018 -0.2314
   15SOL    HW1   44   1.798   2.069   2.726  0.9778 -0.7303 -0.8897
   15SOL    HW2   45   1.858   1.986   2.586 -0.0037  2.7301  2.4126
   16SOL     OW   46   1.536   1.722   2.976  0.2472 -0.5443 -0.5339
   16SOL    HW1   47   1.544   1.630   3.020 -0.4669  1.6671  0.5171
   16SOL    HW2   48   1.612   1.779   3.020  0.5060 -0.0379  1.1337
   17SOL     OW   49   0.058   0.468   0.177 -0.0589 -0.0645  0.1119
   17SOL    HW1   50   0.147   0.452   0.131 -1.3423  3.1375 -0.6827
   17SOL    HW2   51  -0.006   0.490   0.101  1.3458  0.4030 -0.5612
   18SOL     OW   52   0.885   2.836   2.233  0.4023  0.0976 -0.1233
   18SOL    HW1   53   0.823   2.762   2.276 -1.5714  0.3474  0.1558
   18SOL    HW2   54   0.937   2.810   2.147  1.6033 -0.0931  1.3474
   19SOL     OW   55   0.534   0.918   1.918 -0.2862 -0.8742  0.0135
   19SOL    HW1   56   0.583   0.863   1.989 -0.8958 -0.6227 -0.3242
   19SOL    HW2   57   0.599   0.981   1.872  0.3010 -2.6879  1.6841
   20SOL     OW   58   0.243   2.739   0.765 -0.0623 -0.3105 -0.3778
   20SOL    HW1   59   0.150   2.774   0.723  0.3251  1.0695 -0.7005
   20SOL    HW2   60   0.289   2.675   0.698  4.1572  0.6168 -2.8447
   21SOL     OW   61   2.834   0.294   1.983  0.3671  0.1993  0.5987
   21SOL    HW1   62   2.750   0.238   1.988  0.1859  1.2113 -0.4264
   21SOL    HW2   63   2.912   0.256   2.038 -0.4631 -0.5622 -0.4488
   22SOL     OW   64   2.418   0.230   0.062 -0.0172 -0.1040  0.2340
   22SOL    HW1   65   2.443   0.148   0.012 -0.1950  1.7101 -0.8255
   22SOL    HW2   66   2.330   0.267   0.019 -2.3563  1.9278 -0.4594
   23SOL     OW   67   2.828   0.513   0.669  0.5232 -0.4128  0.3290
   23SOL    HW1   68   2.878   0.429   0.648  1.0144 -1.9815 -0.4098
   23SOL    HW2   69   2.865   0.596   0.626  0.1779 -0.0442  0.1347
   24SOL     OW   70   0.243   1.874   0.422 -0.9635 -0.8540 -0.1444
   24SOL    HW1   71   0.226   1.973   0.408 -1.2078  0.8387  0.2332
   24SOL    HW2   72   0.329   1.845   0.369  0.4089  0.7456  1.4982
   25SOL     OW   73   2.278   0.572   0.276 -0.5630 -0.1499  0.4942
   25SOL    HW1   74   2.269   0.568   0.173 -0.2573 -2.2979  2.0660
   25SOL    HW2   75   2.334   0.501   0.320  0.7880  1.5662  0.4148
   26SOL     OW   76   2.443   2.170   2.149  0.0612  0.5912 -0.1313
   26SOL    HW1   77   2.513   2.239   2.168  0.0148  0.0155  0.0008
   26SOL    HW2   78   2.473   2.113   2.071  0.8959  0.1197  3.4176
   27SOL     OW   79   0.634   3.038   0.126 -0.1736 -0.0729 -0.5117
   27SOL    HW1   80   0.730   3.066   0.091  1.2704  0.0390 -3.2379
   27SOL    HW2   81   0.571   3.016   0.041  4.4310 -0.8209 -2.3215
   28SOL     OW   82   1.579   0.176   0.336  0.0243  0.2953 -0.2278
   28SOL    HW1   83   1.628   0.152   0.247  1.1355 -2.2551 -2.5439
   28SOL    HW2   84   1.637   0.247   0.391 -0.9753 -0.2485  1.1665
   29SOL     OW   85   2.002   0.545   0.321 -0.0989 -0.2646  0.4826
   29SOL    HW1   86   1.982   0.628   0.380  0.3919  2.1367  0.3575
   29SOL    HW2   87   2.109   0.546   0.313  1.2168  1.9990 -0.8087
   30SOL     OW   88   0.177   2.076   0.917 -0.1298 -0.5709  0.5973
   30SOL    HW1   89   0.163   2.038   0.822  1.3954  1.7925 -0.1215
   30SOL    HW2   90   0.151   2.174   0.924  1.0369 -1.1289  1.0157
   31SOL     OW   91   2.096   0.095   2.378  0.0848 -0.3017  0.1208
   31SOL    HW1   92   2.020   0.066   2.446  0.8845  0.2035 -0.4708
   31SOL    HW2   93   2.085   0.041   2.290 -1.1462 -0.0476  1.2970
   32SOL     OW   94  -0.001   3.076   0.228  0.3711 -0.2124  0.1588
   32SOL    HW1   95  -0.041   2.983   0.245 -1.0672  3.6379 -1.0453
   32SOL    HW2   96   0.085   3.077   0.171 -1.0416 -0.6807 -0.7262
   33SOL     OW   97   0.871   0.228   0.668 -0.0345 -0.3260  0.1138
   33SOL    HW1   98   0.883   0.166   0.586 -0.9966  2.1152  1.5771
   33SOL    HW2   99   0.950   0.295   0.675  0.7145 -1.2642  1.2042
   34SOL     OW  100   0.368   2.661   0.992  0.4857 -0.0716  0.5512
   34SOL    HW1  101   0.305   2.675   0.909  3.1392 -0.1393  0.8137
   34SOL    HW2  102   0.462   2.705   0.979  0.2831  0.2674 -0.2251
   35SOL     OW  103   0.127   0.219   1.927  0.3423 -0.0864  0.1952
   35SOL    HW1  104   0.121   0.122   1.960  3.1014 -0.9601 -1.3113
   35SOL    HW2  105   0.055   0.233   1.851  0.0123  2.3056  0.7074
   36SOL     OW  106   1.799   1.273   1.486 -0.9060  0.8855 -0.1402
   36SOL    HW1  107   1.894   1.238   1.505 -1.9627  0.4343 -0.6758
   36SOL    HW2  108   1.792   1.310   1.389 -0.1980  2.8857 -2.4165
   37SOL     OW  109   1.174   0.222   0.985  0.3932 -0.8993 -0.0825
   37SOL    HW1  110   1.182   0.328   0.980  1.4647  0.0180 -0.0761
   37SOL    HW2  111   1.229   0.170   0.917 -0.5068  1.1438 -0.8253
   38SOL     OW  112   1.130   2.799   2.472 -0.4711 -0.1239  0.2818
   38SOL    HW1  113   1.044   2.744   2.489  1.5909 -0.8889 -3.7126
   38SOL    HW2  114   1.115   2.884   2.412  1.2098 -0.0622 -0.4622
   39SOL     OW  115   2.500   1.435   3.063 -0.1302  0.5852  0.9160
   39SOL    HW1  116   2.537   1.343   3.028 -2.4111  1.6357 -1.0040
   39SOL    HW2  117   2.412   1.431   3.116  2.0220  1.3298  0.9327
   40SOL     OW  118   2.031   2.515   2.591 -0.6607  0.1689  0.5978
   40SOL    HW1  119   1.988   2.612   2.576 -0.2445  2.7110  1.6440
   40SOL    HW2  120   1.968   2.442   2.555  3.6168  1.2535  0.8461
   41SOL     OW  121   3.019   0.709   2.809 -0.3905  0.0009  0.0824
   41SOL    HW1  122   3.013   0.797   2.866 -0.0407 -0.2889  0.5189
   41SOL    HW2  123   2.923   0.671   2.787 -0.8830 -0.6481 -1.9936
   42SOL     OW  124   1.787   1.728   0.447  0.5018  0.3818 -0.3418
   42SOL    HW1  125   1.723   1.644   0.452  0.0274  1.2587 -3.2272
   42SOL    HW2  126   1.794   1.767   0.351  1.3526  0.9231  0.0088
   43SOL     OW  127   0.436   1.835   1.142  0.0756  1.0225  0.1633
   43SOL    HW1  128   0.373   1.907   1.093  0.8736  3.5261  1.1315
   43SOL    HW2  129   0.389   1.773   1.212  2.7723 -2.2814  1.4335
   44SOL     OW  130   1.730   2.399   2.973  0.4499 -0.0535  0.0141
   44SOL    HW1  131   1.630   2.421   2.978  1.8067  1.4291  0.0107
   44SOL    HW2  132   1.767   2.430   2.879 -0.7215  1.0666  0.9626
   45SOL     OW  133   0.355   1.942   2.648 -0.1645 -0.2603  0.3878
   45SOL    HW1  134   0.282   1.949   2.577  1.2307  1.2945  1.5976
   45SOL    HW2  135   0.427   1.864   2.639 -0.3280 -1.0498 -0.4061
   46SOL     OW  136   1.281   0.753   0.228 -0.4844  0.2729  0.4462
   46SOL    HW1  137   1.294   0.841   0.179  1.9901 -0.9135 -1.0013
   46SOL    HW2  138   1.233   0.682   0.178  0.2685  0.6027  2.6562
   47SOL     OW  139   0.177   2.354   1.617  0.2380 -0.0306  0.3598
   47SOL    HW1  140   0.134   2.267   1.651  0.0098 -1.0531 -0.8994
   47SOL    HW2  141   0.189   2.356   1.511 -0.5477 -1.6695 -0.7262
   48SOL     OW  142   2.665   0.667   0.196  0.3009 -0.6410  0.2124
   48SOL    HW1  143   2.662   0.636   0.296 -0.1675  0.2663  0.3244
   48SOL    HW2  144   2.757   0.709   0.170 -1.3437  1.1971 -0.7258
   49SOL     OW  145   0.348   0.839   1.720  0.6364 -0.0903  0.0806
   49SOL    HW1  146   0.425   0.868   1.786  0.5712  1.0423  1.4382
   49SOL    HW2  147   0.376   0.781   1.638 -0.7532 -1.9298  2.2069
   50SOL     OW  148   1.694   1.078   0.368  0.2968  0.3096  0.4967
   50SOL    HW1  149   1.726   0.986   0.327  0.7713 -2.1454 -1.2676
   50SOL    HW2  150   1.643   1.064   0.457 -2.0903  1.9154  0.2092
   51SOL     OW  151   2.897   1.728   0.359 -0.5738  0.5766  0.1224
   51SOL    HW1  152   2.908   1.720   0.255 -4.0195  1.2023  1.3906
   51SOL    HW2  153   2.982   1.707   0.409  1.0477  0.9868 -2.5437
   52SOL     OW  154   0.802   2.150   0.570 -0.3303 -0.7979  0.3821
   52SOL    HW1  155   0.726   2.159   0.498 -0.9105 -1.2613  0.7446
   52SOL    HW2  156   0.811   2.052   0.605 -0.5836 -2.1233  1.1827
   53SOL     OW  157   0.311   0.517   1.527 -0.0874  0.0557  0.8198
   53SOL    HW1  158   0.360   0.591   1.478  1.1793 -1.7154 -0.3953
   53SOL    HW2  159   0.209   0.532   1.520 -1.0261 -0.6437  0.0195
   54SOL     OW  160   1.776   0.439   3.084 -0.2058  0.1780  0.1009
   54SOL    HW1  161   1.843   0.386   3.140 -1.8949 -0.3950  1.0299
   54SOL    HW2  162   1.682   0.443   3.129 -1.0739  1.5891  2.3118
   55SOL     OW  163   0.711   2.883   0.595 -1.0056 -0.4489 -0.9347
   55SOL    HW1  164   0.677   2.983   0.588  2.0703 -1.0691  1.1603
   55SOL    HW2  165   0.814   2.880   0.580 -2.1843  0.7691  1.3566
   56SOL     OW  166   0.535   1.617   3.069  0.8292 -0.3063  0.2389
   56SOL    HW1  167   0.442   1.651   3.093 -0.3407 -1.2491 -1.2613
   56SOL    HW2  168   0.538   1.513   3.048 -3.6145 -0.3265 -0.9512
   57SOL     OW  169   1.689   2.469   2.374 -0.3549  0.3121 -0.1907
   57SOL    HW1  170   1.778   2.415   2.394  0.0747 -1.8590 -3.0648
   57SOL    HW2  171   1.611   2.448   2.441 -1.3210 -0.0883 -1.2315
   58SOL     OW  172   0.670   0.168   1.054 -0.2576  0.9346 -0.3682
   58SOL    HW1  173   0.583   0.171   1.112 -0.1865 -1.6940 -2.5303
   58SOL    HW2  174   0.721   0.075   1.055 -1.4064 -3.2706 -2.6496
   59SOL     OW  175   0.457   2.395   2.580  0.4659  0.0482  0.2549
   59SOL    HW1  176   0.452   2.299   2.616 -2.2489  1.5825 -0.5420
   59SOL    HW2  177   0.552   2.437   2.604  0.7649 -0.6974  2.0221
   60SOL     OW  178   2.330   2.073   2.387 -0.1839  0.5218  0.0999
   60SOL    HW1  179   2.383   2.076   2.298  2.5757  0.1670  0.8822
   60SOL    HW2  180   2.380   2.111   2.464 -1.1811  0.8510  0.9865
   61SOL     OW  181   1.172   0.660   0.504 -0.6516  0.4156  0.0937
   61SOL    HW1  182   1.074   0.683   0.520 -1.1219  0.2116 -1.2193
   61SOL    HW2  183   1.206   0.708   0.415 -0.6585  0.3331 -0.8010
   62SOL     OW  184   2.750   1.716   2.691 -0.4006 -0.0505  0.0845
   62SOL    HW1  185   2.678   1.649   2.654  0.4922  0.0149  3.1202
   62SOL    HW2  186   2.816   1.675   2.755  0.9054  0.7656 -0.8447
   63SOL     OW  187   0.495   0.806   0.170 -0.4369  0.1389  0.5630
   63SOL    HW1  188   0.566   0.874   0.127 -1.3662  1.8128 -1.6531
   63SOL    HW2  189   0.514   0.783   0.269 -1.5590  0.9033 -2.5873
   64SOL     OW  190   3.071   0.602   2.387 -0.1372  0.6440 -0.0336
   64SOL    HW1  191   2.985   0.602   2.443  0.0461 -2.2976  1.1007
   64SOL    HW2  192   3.058   0.648   2.299 -1.1456  0.2086  0.9486
   65SOL     OW  193   0.128   1.431   0.645  0.1991 -0.1820 -0.4503
   65SOL    HW1  194   0.091   1.509   0.704  0.7382 -2.2671  1.4491
   65SOL    HW2  195   0.202   1.467   0.578  1.4905  0.1215  3.0077
   66SOL     OW  196   2.605   0.307   0.518  0.3789 -0.5145  0.4839
   66SOL    HW1  197   2.703   0.279   0.521 -4.2788  0.6046  0.9447
   66SOL    HW2  198   2.551   0.243   0.575  2.1030  0.8089 -0.4412
   67SOL     OW  199   0.590   2.488   1.527  0.2653 -0.0368 -0.1655
   67SOL    HW1  200   0.668   2.441   1.570  1.8913  1.0460 -2.2414
   67SOL    HW2  201   0.522   2.419   1.478 -1.3782  0.5412  0.9767
   68SOL     OW  202   0.908   0.965   2.523 -0.0562 -0.5537 -0.2163
   68SOL    HW1  203   1.003   0.936   2.490  1.5055 -0.8728  0.3606
   68SOL    HW2  204   0.847   1.004   2.451 -1.1890 -0.9532  0.1473
   69SOL     OW  205   0.691   2.606   2.318  0.0777  0.2293  0.4408
   69SOL    HW1  206   0.746   2.529   2.282 -0.2327  0.2516 -1.0900
   69SOL    HW2  207   0.588   2.604   2.291 -3.0314  2.7068 -0.7597
   70SOL     OW  208   0.525   0.131   2.584 -0.3409 -0.5938  0.0392
   70SOL    HW1  209   0.460   0.125   2.664 -1.7390 -0.1294 -0.0171
   70SOL    HW2  210   0.601   0.060   2.596 -0.5439  0.5108 -0.0780
   71SOL     OW  211   1.074   1.806   0.308 -0.7650  0.0452 -0.4210
   71SOL    HW1  212   1.001   1.810   0.383 -0.1395  0.1968 -0.5040
   71SOL    HW2  213   1.040   1.838   0.214  1.3673 -2.6305 -1.1259
   72SOL     OW  214   1.815   0.202   2.120 -0.1710 -0.3547 -0.2512
   72SOL    HW1  215   1.878   0.286   2.093  1.0823 -0.5110 -1.8214
   72SOL    HW2  216   1.825   0.118   2.058 -0.0144 -0.9656 -2.9183
   73SOL     OW  217   2.811   2.180   2.432  0.4437 -0.1993 -0.0226
   73SOL    HW1  218   2.781   2.090   2.389  1.6209 -0.0165 -0.2603
   73SOL    HW2  219   2.842   2.178   2.530  0.7568  2.4866  0.1629
   74SOL     OW  220   2.681   3.017   2.098 -0.0310  0.2629 -0.3151
   74SOL    HW1  221   2.590   3.029   2.144 -0.3112 -0.1117 -2.3036
   74SOL    HW2  222   2.761   3.035   2.157 -3.9196  1.0550 -1.9426
   75SOL     OW  223   0.903   0.812   1.081 -0.2702  0.5519 -0.5996
   75SOL    HW1  224   0.800   0.833   1.089 -0.1043  0.2287  1.6630
   75SOL    HW2  225   0.943   0.838   1.172  0.6087  1.2539  1.2737
   76SOL     OW  226   1.800   1.266   2.581  0.1836 -0.0229 -0.5691
   76SOL    HW1  227   1.704   1.247   2.629  0.8630 -3.9046  1.6130
   76SOL    HW2  228   1.830   1.369   2.593 -0.7096  0.4073  3.1501
   77SOL     OW  229   2.906   0.925   1.036 -0.0039  0.0827  0.2246
   77SOL    HW1  230   2.855   0.836   1.047 -0.6906 -0.0705  1.2553
   77SOL    HW2  231   3.001   0.922   1.082 -0.9691  1.1250  3.6084
   78SOL     OW  232   1.948   1.453   1.297 -0.0462 -0.3776  0.0991
   78SOL    HW1  233   2.047   1.442   1.268 -1.8809 -1.1072 -2.0731
   78SOL    HW2  234   1.888   1.487   1.217  0.0466  1.3994 -1.0724
   79SOL     OW  235   0.629   1.511   0.825 -0.2246 -0.1964 -0.0631
   79SOL    HW1  236   0.531   1.497   0.858  0.4139 -1.5129 -0.3260
   79SOL    HW2  237   0.681   1.417   0.814  1.6707 -1.8125 -1.0907
   80SOL     OW  238   0.718   0.486   1.555  0.0417  0.9482 -0.4224
   80SOL    HW1  239   0.704   0.528   1.462 -0.4187 -2.9707  0.1483
   80SOL    HW2  240   0.676   0.392   1.559  0.8893 -0.6413 -3.4679
   81SOL     OW  241   1.071   1.303   2.410  0.4394  0.0157 -0.5768
   81SOL    HW1  242   0.968   1.319   2.413  2.2925 -0.9444  3.0082
   81SOL    HW2  243   1.094   1.228   2.344 -1.9491  1.1321  0.8181
   82SOL     OW  244   0.958   2.950   1.679  0.2781 -0.0882 -0.2912
   82SOL    HW1  245   1.004   2.868   1.630 -1.0674 -2.6084 -2.4728
   82SOL    HW2  246   0.948   3.029   1.620 -0.2584  1.4709  2.4219
   83SOL     OW  247   2.599   2.356   0.954 -0.6637 -0.0412  0.2744
   83SOL    HW1  248   2.518   2.297   0.916 -1.1977  1.0200  0.1876
   83SOL    HW2  249   2.594   2.451   0.914 -1.9849  0.3838  0.7579
   84SOL     OW  250   0.792   3.075   2.332  0.0894 -0.6956 -0.2113
   84SOL    HW1  251   0.788   3.057   2.436 -1.1854 -3.3338  3.0020
   84SOL    HW2  252   0.821   2.990   2.281 -0.0681 -0.7827 -1.1731
   85SOL     OW  253   0.243   1.703   1.356 -0.0029  0.2766  0.3156
   85SOL    HW1  254   0.187   1.774   1.413  0.0821  1.6964 -1.0420
   85SOL    HW2  255   0.319   1.656   1.409 -1.8134  0.7511 -2.2976
   86SOL     OW  256   0.491   1.080   1.398  0.8318  0.2382  0.4336
   86SOL    HW1  257   0.449   1.023   1.326 -2.4657  2.8979  0.8128
   86SOL    HW2  258   0.581   1.050   1.436 -2.5367 -1.7346 -0.3708
   87SOL     OW  259   1.566   0.674   0.341 -0.7059 -0.1445 -0.1069
   87SOL    HW1  260   1.632   0.742   0.303 -1.1441 -2.6815 -0.6076
   87SOL    HW2  261   1.480   0.665   0.287 -0.6593  2.6208 -0.3091
   88SOL     OW  262   1.521   1.333   0.296 -0.1684 -0.6211 -0.0352
   88SOL    HW1  263   1.574   1.251   0.299 -1.4292  0.9010  2.0187
   88SOL    HW2  264   1.420   1.317   0.270  2.7211 -0.5581  2.1723
   89SOL     OW  265   3.054   0.367   0.633 -0.3180  0.0014  0.0395
   89SOL    HW1  266   3.146   0.329   0.669 -1.8952 -1.8705  1.5289
   89SOL    HW2  267   2.998   0.299   0.577  1.4967  1.1954  0.5801
   90SOL     OW  268   0.733   1.594   0.185 -0.3871  0.4740  0.4793
   90SOL    HW1  269   0.830   1.586   0.149 -0.1032 -1.2872 -0.3890
   90SOL    HW2  270   0.665   1.619   0.111  0.2257 -0.3275  0.1578
   91SOL     OW  271   1.286   1.514   1.672 -0.0721 -0.0109 -0.4453
   91SOL    HW1  272   1.272   1.533   1.773 -0.4808  1.2457  1.0552
   91SOL    HW2  273   1.388   1.493   1.654  1.7694 -4.9011  0.3074
   92SOL     OW  274   0.064   0.909   1.155 -0.6012 -1.3326 -0.1603
   92SOL    HW1  275   0.104   0.991   1.101  1.4342  0.0051 -0.1074
   92SOL    HW2  276   0.077   0.917   1.263  0.1729 -1.5957  4.0946
   93SOL     OW  277   3.031   2.681   0.036 -0.0675  0.1522 -0.2285
   93SOL    HW1  278   3.004   2.662  -0.062  1.0242 -1.9534 -2.7644
   93SOL    HW2  279   3.074   2.599   0.086  0.1796 -1.1540  1.3865
   94SOL     OW  280   1.537   1.469   1.596 -0.3935  0.4595 -0.6966
   94SOL    HW1  281   1.598   1.387   1.612  1.4684  0.1302  0.8359
   94SOL    HW2  282   1.583   1.546   1.546  3.3827  3.0812  0.7166
   95SOL     OW  283   1.450   2.472   2.911  0.1330  0.0516 -0.1388
   95SOL    HW1  284   1.354   2.463   2.948  1.2458  1.2996  0.5748
   95SOL    HW2  285   1.470   2.411   2.826  0.3747 -0.5200 -1.2559
   96SOL     OW  286   0.599   2.136   1.264  0.1330  0.2681  0.2118
   96SOL    HW1  287   0.529   2.109   1.191  1.6033 -0.5068  0.1503
   96SOL    HW2  288   0.599   2.072   1.346  1.9263 -1.9576 -0.3314
   97SOL     OW  289   0.309   1.622   2.420  0.2632  0.6337  0.3750
   97SOL    HW1  290   0.254   1.711   2.429 -1.5353  0.4621 -0.1940
   97SOL    HW2  291   0.278   1.548   2.487  0.0934 -1.6468  1.7867
   98SOL     OW  292   2.282   1.689   1.177  0.1457  0.1415 -0.1825
   98SOL    HW1  293   2.253   1.589   1.190  0.8297 -0.5480 -1.0622
   98SOL    HW2  294   2.383   1.692   1.146 -1.7146 -1.9153  2.5812
   99SOL     OW  295   2.581   2.114   1.268 -0.2752  0.0638 -0.1377
   99SOL    HW1  296   2.629   2.162   1.344  1.4177  0.8620 -0.7461
   99SOL    HW2  297   2.525   2.032   1.306 -2.8110 -3.0661  1.3595
  100SOL     OW  298   2.334   0.409   2.154  0.1036  0.7104  0.2729
  100SOL    HW1  299   2.303   0.364   2.240 -0.4027  0.7641 -2.6312
  100SOL    HW2  300   2.430   0.449   2.164  1.3685 -1.5111  2.4843
  101SOL     OW  301   0.384   1.467   0.483 -0.0136 -0.0929  1.2652
  101SOL    HW1  302   0.411   1.519   0.567  0.5536 -1.7323 -1.2735
  101SOL    HW2  303   0.468   1.443   0.423  0.6101  2.5656  4.5847
  102SOL     OW  304   2.319   1.068   0.846  0.0368  0.2874 -0.0541
  102SOL    HW1  305   2.268   0.972   0.830 -3.6857 -0.3402 -1.6681
  102SOL    HW2  306   2.356   1.098   0.757 -1.6408 -0.1599  1.5250
  103SOL     OW  307   2.270   0.064   0.343 -0.1332 -0.1293  0.3805
  103SOL    HW1  308   2.310   0.156   0.307  0.6910 -0.2312  1.2768
  103SOL    HW2  309   2.310   0.041   0.437  2.5097 -3.0718  4.2354
  104SOL     OW  310   0.053   1.848   2.163  0.5695  0.6494 -0.5508
  104SOL    HW1  311   0.084   1.845   2.066 -4.0882 -1.0581  1.5330
  104SOL    HW2  312  -0.055   1.857   2.160 -1.1619  1.2936 -0.1710
  105SOL     OW  313   1.214   2.117   0.805 -0.6834  0.6100  0.4056
  105SOL    HW1  314   1.110   2.116   0.791 -2.4528 -1.4873 -3.8345
  105SOL    HW2  315   1.263   2.076   0.725  1.9215  2.3065  0.2309
  106SOL     OW  316   2.133   0.413   1.477  0.1776  0.2666  0.1497
  106SOL    HW1  317   2.047   0.352   1.475 -1.9103  0.1791 -2.8899
  106SOL    HW2  318   2.154   0.449   1.576 -2.3983  1.9258  1.0899
  107SOL     OW  319   1.928   2.942   1.216  0.2612 -0.4888 -0.0452
  107SOL    HW1  320   1.858   3.016   1.234  0.6887 -2.1843  1.6100
  107SOL    HW2  321   1.879   2.855   1.176  3.7304 -0.3084  0.3467
  108SOL     OW  322   0.895   2.775   1.094 -0.0884  0.2213  0.4349
  108SOL    HW1  323   0.922   2.693   1.035  1.8181 -0.6290  0.1637
  108SOL    HW2  324   0.976   2.804   1.155 -1.6806 -3.3483  2.0463
  109SOL     OW  325   2.169   0.078   0.770  0.0994 -0.2724  0.4497
  109SOL    HW1  326   2.085   0.045   0.719 -0.8909  1.1384  0.4587
  109SOL    HW2  327   2.153   0.088   0.872 -0.0517  2.7357 -0.6408
  110SOL     OW  328   0.479   2.798   2.807 -0.2674 -0.6255 -0.3567
  110SOL    HW1  329   0.484   2.810   2.702 -2.3391 -2.3296 -0.2175
  110SOL    HW2  330   0.524   2.708   2.833 -2.4192 -0.0245  0.6108
  111SOL     OW  331   1.338   0.576   2.335 -0.0885 -0.9459 -0.2109
  111SOL    HW1  332   1.251   0.592   2.385  0.0633 -1.9260 -3.1218
  111SOL    HW2  333   1.373   0.478   2.359 -2.4251 -2.3971 -2.5679
  112SOL     OW  334   1.760   0.553   1.490 -0.0723 -0.1602 -0.2777
  112SOL    HW1  335   1.770   0.606   1.406  1.2052  2.5251 -1.1851
  112SOL    HW2  336   1.672   0.570   1.546 -2.6146 -3.8164 -2.1566
  113SOL     OW  337   2.305   1.713   1.772  0.4587  0.1328 -0.2829
  113SOL    HW1  338   2.343   1.627   1.738 -0.5633  2.4612 -0.9021
  113SOL    HW2  339   2.304   1.719   1.878  0.2881  1.5859  0.6780
  114SOL     OW  340   0.338   0.439   1.174  0.0592 -0.6620 -0.1379
  114SOL    HW1  341   0.271   0.516   1.185  0.3276  2.0059  1.3691
  114SOL    HW2  342   0.402   0.467   1.092 -0.2549 -1.5610 -1.5863
  115SOL     OW  343   2.721   1.564   1.236 -0.2791 -0.5319 -0.6116
  115SOL    HW1  344   2.712   1.464   1.243 -2.4900  1.5069 -0.4656
  115SOL    HW2  345   2.815   1.594   1.207  0.4430 -1.0717  0.9459
  116SOL     OW  346   1.893   0.927   0.693  0.4257  0.0141  0.3651
  116SOL    HW1  347   1.810   0.873   0.695  1.3484  1.1283  0.8148
  116SOL    HW2  348   1.887   1.027   0.715  0.2057 -0.3095  0.5290
  117SOL     OW  349   1.129   0.379   0.560  0.3160 -0.2940  0.2331
  117SOL    HW1  350   1.145   0.479   0.557 -3.6356 -1.6107 -1.3057
  117SOL    HW2  351   1.093   0.341   0.471  1.0698  3.0481 -0.3949
  118SOL     OW  352   1.106   1.226   1.130 -0.4399 -0.1592  0.0881
  118SOL    HW1  353   1.077   1.185   1.216  0.6615  2.3429 -1.0497
  118SOL    HW2  354   1.184   1.295   1.147  0.2820  0.5504 -0.5139
  119SOL     OW  355   1.894   1.615   2.221 -0.6852 -0.4117  0.5686
  119SOL    HW1  356   1.825   1.691   2.200  2.3913  0.5925 -1.9766
  119SOL    HW2  357   1.949   1.587   2.135  1.3665 -3.3172 -0.4204
  120SOL     OW  358   2.963   2.823   0.282  0.6972 -0.0804 -0.2805
  120SOL    HW1  359   2.970   2.790   0.186  0.5549  1.9249  3.7674
  120SOL    HW2  360   2.868   2.819   0.318  0.6432  0.9077 -3.2925
  121SOL     OW  361   1.994   0.835   2.319  0.2540  0.2110 -0.1542
  121SOL    HW1  362   2.045   0.914   2.268  4.1329  1.8749 -1.0301
  121SOL    HW2  363   2.030   0.740   2.307  0.1631 -0.5659 -0.9978
  122SOL     OW  364   2.568   2.482   1.402 -0.1297  0.2348  0.1671
  122SOL    HW1  365   2.609   2.474   1.310  0.1117  1.9203  1.3395
  122SOL    HW2  366   2.588   2.400   1.464 -0.7338 -1.2595 -2.4404
  123SOL     OW  367   1.661   0.171   1.670  0.1951 -0.2549  0.3248
  123SOL    HW1  368   1.672   0.073   1.632  1.6736 -0.4188 -0.7886
  123SOL    HW2  369   1.746   0.202   1.721 -1.4466 -1.5058 -1.3520
  124SOL     OW  370   3.014   0.429   1.160 -0.0034 -0.4338 -0.0750
  124SOL    HW1  371   2.930   0.486   1.191  1.4386  0.0413 -2.1123
  124SOL    HW2  372   3.066   0.479   1.085 -0.4289  2.6739  0.3370
  125SOL     OW  373   0.906   1.941   0.726 -0.4500 -0.3962 -0.6504
  125SOL    HW1  374   0.981   1.896   0.784  1.7372  0.9220  0.0740
  125SOL    HW2  375   0.826   1.968   0.791  0.6134  0.8060  0.6643
  126SOL     OW  376   1.886   2.309   2.465  0.0122 -0.0922  0.5230
  126SOL    HW1  377   1.956   2.290   2.391  1.6706 -0.5543  0.2702
  126SOL    HW2  378   1.867   2.221   2.520  0.4065  3.3351  0.8476
  127SOL     OW  379   0.975   0.961   0.181 -0.3435 -0.3861  0.1289
  127SOL    HW1  380   0.951   1.001   0.275 -2.3813  1.1694  0.4569
  127SOL    HW2  381   0.962   0.861   0.176  1.6507 -0.1367  0.1939
  128SOL     OW  382   0.882   0.198   1.412  0.1106  0.0355  0.6225
  128SOL    HW1  383   0.861   0.276   1.346  0.2149  2.1360  2.0674
  128SOL    HW2  384   0.834   0.110   1.390 -0.9903 -1.0856  0.0047
  129SOL     OW  385   1.898   0.684   1.926 -0.3072  0.1896  0.3040
  129SOL    HW1  386   1.910   0.658   1.823 -1.4984  0.0101 -0.0834
  129SOL    HW2  387   1.939   0.778   1.948  3.5113  2.1534  1.4823
  130SOL     OW  388   1.390   2.243   1.000  0.2563  0.7255  0.1495
  130SOL    HW1  389   1.314   2.220   0.933 -0.4383  1.2302  0.9683
  130SOL    HW2  390   1.463   2.305   0.960 -0.7557 -1.4258  1.8323
  131SOL     OW  391   3.001   1.378   1.397 -0.3462  0.5471 -0.0512
  131SOL    HW1  392   2.975   1.277   1.379  0.0982  0.2787  0.6323
  131SOL    HW2  393   3.103   1.379   1.383  2.5308  3.1127 -0.4164
  132SOL     OW  394   2.017   2.425   0.572 -0.2910 -0.1271  0.0507
  132SOL    HW1  395   1.910   2.424   0.575 -1.8090  3.0908 -1.8390
  132SOL    HW2  396   2.052   2.333   0.606 -0.3233  2.1817  1.5649
  133SOL     OW  397   1.718   2.456   2.701 -0.6807  0.0105 -0.0515
  133SOL    HW1  398   1.630   2.413   2.660 -0.8939 -0.2035 -0.5061
  133SOL    HW2  399   1.725   2.560   2.687  0.3241  2.0189 -2.6161
  134SOL     OW  400   2.591   2.415   1.699  0.0856 -0.0877  0.4907
  134SOL    HW1  401   2.508   2.389   1.758  1.6585 -3.3861 -1.7332
  134SOL    HW2  402   2.652   2.492   1.734 -1.5538  0.1854 -0.1646
  135SOL     OW  403   0.784   1.360   2.677 -0.3239 -0.4208 -0.0153
  135SOL    HW1  404   0.720   1.287   2.701  1.4023  1.9825 -4.1255
  135SOL    HW2  405   0.770   1.382   2.578 -2.1513  1.0975 -0.8781
  136SOL     OW  406   1.228   2.034   0.392  0.7982 -0.0146 -0.2920
  136SOL    HW1  407   1.147   2.102   0.413  0.4316  0.3332 -0.8843
  136SOL    HW2  408   1.191   1.935   0.387  0.1527  0.4967  0.1352
  137SOL     OW  409   0.470   1.172   2.282  0.5871  0.1624  0.6445
  137SOL    HW1  410   0.368   1.171   2.267 -0.0414  1.7416  0.0920
  137SOL    HW2  411   0.514   1.082   2.250 -1.1348 -1.6718 -4.0807
  138SOL     OW  412   2.420   1.526   0.289  0.3033  0.0168 -0.6087
  138SOL    HW1  413   2.346   1.477   0.229  1.1040 -0.1381  1.5165
  138SOL    HW2  414   2.496   1.461   0.310  0.6984  3.8491  2.4843
  139SOL     OW  415   1.889   2.692   1.528 -0.0246  0.5295 -0.3989
  139SOL    HW1  416   1.785   2.699   1.508 -0.4019  2.5218  0.8139
  139SOL    HW2  417   1.934   2.618   1.469  0.4469 -1.3634 -2.5328
  140SOL     OW  418   3.088   2.981   2.648  0.1096 -0.6536 -0.3783
  140SOL    HW1  419   3.097   2.883   2.608  2.0738  1.4827  0.3071
  140SOL    HW2  420   3.153   3.052   2.596  1.4537  0.9809  0.5839
  141SOL     OW  421   1.233   1.616   1.408 -0.0582  0.3096  0.5475
  141SOL    HW1  422   1.156   1.617   1.342  3.0183  1.8717  1.3237
  141SOL    HW2  423   1.204   1.600   1.509 -0.7967  1.1967  1.1737
  142SOL     OW  424   1.589   0.641   2.281  0.4453 -0.4680  0.9406
  142SOL    HW1  425   1.609   0.618   2.180  0.4179  0.6036 -0.6317
  142SOL    HW2  426   1.489   0.621   2.303 -1.0531 -0.7184  0.1679
  143SOL     OW  427   2.820   0.768   0.576  0.1763  0.2471 -0.4097
  143SOL    HW1  428   2.842   0.795   0.476  0.7527  0.9015 -0.2855
  143SOL    HW2  429   2.869   0.829   0.644 -1.4751  1.2454 -1.0649
  144SOL     OW  430   2.924   1.114   1.400 -0.3528 -0.1646 -0.1785
  144SOL    HW1  431   2.882   1.097   1.494  0.2054 -0.8206 -0.5584
  144SOL    HW2  432   2.988   1.036   1.369  1.0346 -1.4236  0.3179
  145SOL     OW  433   0.958   1.906   0.062  0.4908  0.5862 -0.0510
  145SOL    HW1  434   1.001   1.956  -0.020 -2.0625  0.6229 -0.3593
  145SOL    HW2  435   0.880   1.843   0.033 -1.7853  0.3807  0.7239
  146SOL     OW  436   2.444   0.626   1.551 -0.1745  0.1742  0.2435
  146SOL    HW1  437   2.440   0.545   1.486  0.1263 -5.4666  1.8668
  146SOL    HW2  438   2.366   0.693   1.536  2.3045 -1.2392  2.6806
  147SOL     OW  439   1.047   2.500   0.486  0.2185  0.0752 -0.5092
  147SOL    HW1  440   1.027   2.577   0.418 -0.9711 -1.9236 -0.7213
  147SOL    HW2  441   1.146   2.464   0.481  1.1700 -1.4521 -2.4985
  148SOL     OW  442   1.541   1.364   0.022  0.1911 -0.6646  0.2791
  148SOL    HW1  443   1.586   1.268   0.011  0.7352 -0.1947  2.2159
  148SOL    HW2  444   1.534   1.391   0.120  0.0424 -1.3038  0.0690
  149SOL     OW  445   0.729   1.505   1.953 -0.4191 -0.4654 -0.6548
  149SOL    HW1  446   0.660   1.468   2.019 -0.0196  0.9355 -0.4252
  149SOL    HW2  447   0.742   1.456   1.859  0.0824  0.5528 -1.3157
  150SOL     OW  448   3.004   1.201   1.002  0.1278 -0.2208 -0.6455
  150SOL    HW1  449   3.090   1.205   1.069  2.4256 -2.5338  0.0844
  150SOL    HW2  450   2.943   1.120   1.015  1.9033 -0.4681 -0.5479
  151SOL     OW  451   0.167   0.855   2.124 -0.0438  0.8384  0.8027
  151SOL    HW1  452   0.187   0.945   2.076  1.9867 -0.0527 -0.1291
  151SOL    HW2  453   0.222   0.778   2.080  0.6552  2.2463 -2.0605
  152SOL     OW  454   1.405   1.880   1.085 -0.2977  0.1440 -0.9005
  152SOL    HW1  455   1.448   1.972   1.083  0.1221 -1.5023  0.8807
  152SOL    HW2  456   1.302   1.889   1.084  0.6717  1.4626  1.9468
  153SOL     OW  457   0.093   1.529   0.250  0.0613  0.3106  0.5525
  153SOL    HW1  458   0.046   1.434   0.249  3.2448  0.5519 -0.8546
  153SOL    HW2  459   0.094   1.578   0.341  1.8380 -0.9348 -0.4205
  154SOL     OW  460   2.267   1.869   2.785 -0.1220 -0.3002  0.0608
  154SOL    HW1  461   2.297   1.778   2.834  1.2048 -2.8300  1.5625
  154SOL    HW2  462   2.343   1.907   2.724  2.3948 -0.8647 -0.4813
  155SOL     OW  463   2.601   1.326   0.374 -0.3613  0.0962 -0.0328
  155SOL    HW1  464   2.662   1.398   0.423 -0.2878 -0.1756  2.1717
  155SOL    HW2  465   2.652   1.265   0.307 -0.1447 -2.8400  1.6562
  156SOL     OW  466   2.502   0.804   0.757  0.0039  0.3039 -0.1898
  156SOL    HW1  467   2.406   0.821   0.776  0.6754  2.0281  0.5137
  156SOL    HW2  468   2.539   0.874   0.691 -0.0489  0.1847 -1.6770
  157SOL     OW  469   1.206   0.013   3.010  0.2153  0.2399 -0.4223
  157SOL    HW1  470   1.274  -0.027   2.944 -0.2846 -0.2159  0.9974
  157SOL    HW2  471   1.233   0.103   3.050 -3.5942 -1.1557  1.5797
  158SOL     OW  472   1.037   1.828   1.880 -0.2399 -0.0791  0.1000
  158SOL    HW1  473   1.075   1.927   1.851 -0.4237  2.9342  1.7174
  158SOL    HW2  474   0.949   1.838   1.935  4.3488 -0.5339  0.6885
  159SOL     OW  475   0.827   0.368   1.204 -0.0263  0.3911  0.0909
  159SOL    HW1  476   0.784   0.463   1.200 -1.2469 -0.2477  0.5250
  159SOL    HW2  477   0.797   0.319   1.121  1.3227  0.4842  0.6709
  160SOL     OW  478   1.371   2.468   1.459  0.1405  0.4375  0.2439
  160SOL    HW1  479   1.351   2.406   1.539 -1.3327  1.0914 -2.5302
  160SOL    HW2  480   1.466   2.454   1.418 -0.7114 -1.2541  0.3532
  161SOL     OW  481   0.086   2.673   0.405  0.1845  0.4997 -0.0922
  161SOL    HW1  482   0.039   2.583   0.409 -0.9334 -1.1049 -0.9726
  161SOL    HW2  483   0.021   2.752   0.399 -0.0287  1.2489 -1.0179
  162SOL     OW  484   2.566   1.956   0.474  0.6146  0.3395 -0.0798
  162SOL    HW1  485   2.630   1.973   0.391 -0.2442  2.0381 -1.4069
  162SOL    HW2  486   2.550   1.852   0.493 -1.7149  1.4412 -0.3385
  163SOL     OW  487   1.895   2.686   0.781 -0.2947 -0.4486 -0.5610
  163SOL    HW1  488   1.851   2.692   0.688  2.9976 -3.1255 -0.0737
  163SOL    HW2  489   1.961   2.608   0.782  1.1129  1.0608  0.1408
  164SOL     OW  490   3.020   0.175   1.272  0.6756  0.8206  0.0681
  164SOL    HW1  491   3.039   0.269   1.230 -1.4219  0.8419 -1.4607
  164SOL    HW2  492   3.097   0.140   1.337 -0.5462 -1.9304  1.5886
  165SOL     OW  493   1.063   1.346   0.652 -0.6387 -0.4785 -0.1545
  165SOL    HW1  494   1.069   1.404   0.740 -0.6968 -2.3377  2.4479
  165SOL    HW2  495   1.028   1.407   0.575  1.1188  0.5858  0.2903
  166SOL     OW  496   1.549   0.964   1.748  0.0869  0.5946 -1.0317
  166SOL    HW1  497   1.454   0.996   1.780 -0.3337 -1.5595 -0.7902
  166SOL    HW2  498   1.618   1.038   1.735  0.2835  0.1194 -0.4424
  167SOL     OW  499   0.646   2.020   1.521 -0.2089 -0.3865  0.0594
  167SOL    HW1  500   0.712   2.044   1.596  1.1515 -2.8611  0.4202
  167SOL    HW2  501   0.564   1.966   1.555  2.2141 -0.2549 -0.4711
  168SOL     OW  502   1.660   2.341   0.153 -0.0065  0.6458  0.0572
  168SOL    HW1  503   1.748   2.351   0.110 -1.3492 -0.1064  1.2027
  168SOL    HW2  504   1.667   2.304   0.248 -0.9881  1.9994 -1.1493
  169SOL     OW  505   3.042   2.628   2.153 -0.1739 -0.3586  0.0377
  169SOL    HW1  506   3.044   2.584   2.059  0.3067  4.1337 -2.2617
  169SOL    HW2  507   3.092   2.571   2.223 -1.2615  1.0587 -1.7844
  170SOL     OW  508   1.150   0.137   2.116 -0.7448 -0.1240 -0.4749
  170SOL    HW1  509   1.249   0.174   2.118  0.4143 -1.0619  0.9815
  170SOL    HW2  510   1.121   0.121   2.014  0.4530 -2.6208 -0.3108
  171SOL     OW  511   0.164   0.878   2.435  0.2533 -0.7128 -0.6742
  171SOL    HW1  512   0.071   0.870   2.485 -0.0826  1.7794 -2.1912
  171SOL    HW2  513   0.152   0.892   2.334  0.2719  0.3222 -1.8780
  172SOL     OW  514   1.036   1.031   2.836  0.4996  1.1250  0.2019
  172SOL    HW1  515   1.007   1.079   2.927 -1.6451  0.6975  1.4881
  172SOL    HW2  516   0.973   1.062   2.761  0.7230 -0.3755 -0.9184
  173SOL     OW  517   0.314   2.556   3.061 -0.4404  0.5294  0.2820
  173SOL    HW1  518   0.330   2.535   2.959  1.2211 -4.1287  0.5247
  173SOL    HW2  519   0.371   2.505   3.130 -0.4501  1.6642  0.9073
  174SOL     OW  520   1.485   2.906   0.986  0.1840 -0.1105  0.4977
  174SOL    HW1  521   1.574   2.940   0.939  0.8138 -1.6076 -1.5450
  174SOL    HW2  522   1.467   2.808   0.977 -1.4565  1.3286  0.5967
  175SOL     OW  523   0.400   0.035   1.739 -0.1251  0.2342  0.7980
  175SOL    HW1  524   0.483   0.022   1.797  0.0612 -1.3895 -1.2847
  175SOL    HW2  525   0.395   0.127   1.694 -1.1768 -1.0757 -1.1930
  176SOL     OW  526   2.529   0.477   0.033 -0.1201  0.8702  0.2584
  176SOL    HW1  527   2.587   0.538   0.090 -1.1851  2.2091 -0.0995
  176SOL    HW2  528   2.514   0.381   0.067  2.1833 -1.6484 -1.7087
  177SOL     OW  529   0.331   0.093   0.779  0.3434 -0.3938 -0.3102
  177SOL    HW1  530   0.282   0.024   0.842 -1.9491 -0.4503  1.4614
  177SOL    HW2  531   0.432   0.102   0.801  3.4221 -1.3280 -0.2983
  178SOL     OW  532   0.014   2.708   2.614  0.1149 -0.5364 -0.1979
  178SOL    HW1  533  -0.012   2.610   2.623  1.4891 -0.2120 -0.6315
  178SOL    HW2  534   0.093   2.739   2.681  2.1718 -1.2689  0.8386
  179SOL     OW  535   2.989   1.615   1.229  0.0391  0.3267  0.2685
  179SOL    HW1  536   3.071   1.630   1.170 -3.6871 -1.9034 -0.6331
  179SOL    HW2  537   2.987   1.528   1.282 -1.1525  0.3891  0.6625
  180SOL     OW  538   0.226   1.346   1.731 -0.3916  0.2165  0.2803
  180SOL    HW1  539   0.302   1.315   1.795  0.5574 -1.0780  0.1203
  180SOL    HW2  540   0.166   1.414   1.781  0.3550 -2.8103 -1.8961
  181SOL     OW  541   3.059   1.744   2.430  0.0652  0.7027 -0.3525
  181SOL    HW1  542   3.129   1.808   2.458 -0.4049 -2.1447 -1.1713
  181SOL    HW2  543   2.974   1.793   2.399 -0.0080 -1.0539 -0.5022
  182SOL     OW  544   2.214   1.414   1.208  0.2553  0.0261  0.1387
  182SOL    HW1  545   2.235   1.343   1.275 -0.9119  1.2578 -2.5391
  182SOL    HW2  546   2.267   1.393   1.117 -1.2483 -1.5156 -0.8572
  183SOL     OW  547   1.399   2.201   2.491 -0.0366 -0.4890 -0.1348
  183SOL    HW1  548   1.333   2.122   2.488  0.7275  2.5132  0.5663
  183SOL    HW2  549   1.492   2.177   2.454 -0.6748  0.5454 -0.2832
  184SOL     OW  550   2.226   0.809   0.785 -0.4267  0.0987 -0.5386
  184SOL    HW1  551   2.146   0.842   0.727 -1.6059  0.9260 -0.6759
  184SOL    HW2  552   2.255   0.708   0.762 -3.3953 -1.6928 -1.8785
  185SOL     OW  553   1.592   2.773   2.016 -0.1264  0.4539  0.2381
  185SOL    HW1  554   1.505   2.830   2.001 -1.4105  1.0617  0.0067
  185SOL    HW2  555   1.628   2.766   2.115 -0.4213  0.5446  0.9107
  186SOL     OW  556   3.089   2.122   1.789 -0.3419 -0.1594 -0.5556
  186SOL    HW1  557   3.102   2.223   1.820  3.2420  1.7575 -0.7598
  186SOL    HW2  558   3.179   2.071   1.777  1.7585 -2.4474  2.4477
  187SOL     OW  559   1.346   0.625   1.665  0.4978 -0.2666 -0.5209
  187SOL    HW1  560   1.431   0.673   1.638 -2.3258  0.4858 -1.5595
  187SOL    HW2  561   1.348   0.583   1.762  1.6560 -0.1701  0.3564
  188SOL     OW  562   2.709   2.685   1.539  0.2678  0.0118 -1.2091
  188SOL    HW1  563   2.677   2.777   1.564  1.5357 -1.8796 -0.7222
  188SOL    HW2  564   2.640   2.632   1.480 -0.4880 -0.0441 -0.4552
  189SOL     OW  565   0.857   1.120   1.442  0.2140 -0.8131  0.2439
  189SOL    HW1  566   0.907   1.187   1.505 -3.6504 -0.6655  0.1032
  189SOL    HW2  567   0.819   1.164   1.354  2.5261 -0.1319 -0.0458
  190SOL     OW  568   1.380   1.882   1.509 -0.0937  0.0308 -0.0746
  190SOL    HW1  569   1.328   1.790   1.491 -0.6948 -0.7845  1.7337
  190SOL    HW2  570   1.372   1.894   1.610 -1.1325  0.2522 -2.3194
  191SOL     OW  571   0.915   0.726   1.501 -0.0343 -0.3096 -0.8170
  191SOL    HW1  572   0.935   0.653   1.572  1.6245  0.0914  1.7311
  191SOL    HW2  573   1.002   0.761   1.461  3.2511 -3.9743 -1.1185
  192SOL     OW  574   1.836   2.410   1.117  0.1285 -0.1506 -0.1310
  192SOL    HW1  575   1.735   2.433   1.089 -0.4007 -0.4379 -0.5200
  192SOL    HW2  576   1.908   2.383   1.045 -1.9555  1.1071  1.7782
  193SOL     OW  577   0.495   0.496   0.401  0.4635 -0.1822  0.1865
  193SOL    HW1  578   0.423   0.420   0.399  0.9742 -0.9005 -0.1622
  193SOL    HW2  579   0.553   0.487   0.317 -2.0427 -1.9979  1.4770
  194SOL     OW  580   0.440   0.724   1.193 -0.0279  0.1264 -0.3801
  194SOL    HW1  581   0.335   0.723   1.211 -1.1178 -2.2200  0.5435
  194SOL    HW2  582   0.468   0.653   1.124  3.3571  0.4407 -2.1129
  195SOL     OW  583   1.003   2.921   0.499 -0.5398 -0.2541  0.3076
  195SOL    HW1  584   1.005   2.845   0.429  0.8064  1.1202  0.1282
  195SOL    HW2  585   1.099   2.942   0.530 -1.1668  1.7697  0.1764
  196SOL     OW  586   0.170   1.363   1.368 -0.2584 -0.3252  0.8780
  196SOL    HW1  587   0.193   1.448   1.422 -2.3048 -0.0893  1.2543
  196SOL    HW2  588   0.221   1.281   1.406 -2.2437  0.5682  0.3534
  197SOL     OW  589   0.785   1.964   0.277 -0.2277  0.0638 -0.1714
  197SOL    HW1  590   0.799   1.906   0.360 -1.1573 -1.9593  0.1541
  197SOL    HW2  591   0.864   1.952   0.208  2.2025  0.5051  1.4358
  198SOL     OW  592   0.302   1.228   0.343  0.1542 -0.2486 -0.0390
  198SOL    HW1  593   0.200   1.238   0.335 -0.2755 -0.6141  1.3864
  198SOL    HW2  594   0.342   1.295   0.413 -0.9487  1.2906 -1.4216
  199SOL     OW  595   2.315   0.426   2.630  0.9123  0.4050  0.2062
  199SOL    HW1  596   2.224   0.421   2.680  2.6823 -0.8086 -1.9504
  199SOL    HW2  597   2.388   0.361   2.671  1.1281  0.6381 -0.2706
  200SOL     OW  598   3.103   2.921   0.729  0.4930 -0.1533 -0.3154
  200SOL    HW1  599   3.129   3.019   0.728 -0.5037 -0.5422 -2.8517
  200SOL    HW2  600   3.010   2.910   0.682 -1.7934 -1.0197 -0.6222
  201SOL     OW  601   0.877   0.674   0.477 -0.5637 -0.4329 -0.0768
  201SOL    HW1  602   0.875   0.758   0.536 -1.5354  1.2239  1.4836
  201SOL    HW2  603   0.815   0.595   0.509  1.4024 -0.8484 -4.4146
  202SOL     OW  604   0.428   1.247   1.887 -0.7055 -0.5283 -0.3924
  202SOL    HW1  605   0.514   1.194   1.859 -0.6802 -0.6055 -0.9593
  202SOL    HW2  606   0.455   1.324   1.951  0.4411 -1.5749 -0.7517
  203SOL     OW  607   0.629   0.215   1.608  0.4002 -0.0337  0.4367
  203SOL    HW1  608   0.685   0.177   1.533  0.9806  1.8271  0.8688
  203SOL    HW2  609   0.679   0.206   1.698 -0.0987  1.5224 -0.7427
  204SOL     OW  610   2.028   1.813   2.969 -0.1902 -0.1781 -0.5753
  204SOL    HW1  611   2.003   1.708   2.973  1.3001 -0.8295 -2.3588
  204SOL    HW2  612   2.096   1.837   2.895  0.6505 -2.2243 -0.2534
  205SOL     OW  613   1.767   1.882   3.034 -0.5852 -0.0833 -0.3152
  205SOL    HW1  614   1.867   1.867   3.006  1.1752  1.2217  0.0265
  205SOL    HW2  615   1.732   1.969   2.996 -0.2990 -1.0182  1.6058
  206SOL     OW  616   2.398   2.745   0.316  0.4310 -0.4465  0.0034
  206SOL    HW1  617   2.336   2.689   0.379  3.5272  0.0052  1.2290
  206SOL    HW2  618   2.461   2.687   0.260 -1.6484  0.5817  0.9520
  207SOL     OW  619   0.695   1.766   2.910  0.0981  0.0011 -0.0329
  207SOL    HW1  620   0.774   1.702   2.906 -2.9368 -1.9802  0.4552
  207SOL    HW2  621   0.622   1.728   2.974  0.6206  0.7927  3.2029
  208SOL     OW  622   1.024   1.585   1.233  0.0706 -0.3667  0.1894
  208SOL    HW1  623   0.968   1.635   1.158  1.0970  0.7221 -2.1177
  208SOL    HW2  624   0.971   1.562   1.321  1.2392 -0.4264 -1.3769
  209SOL     OW  625   0.260   0.977   0.009  0.2783 -0.3503  0.3322
  209SOL    HW1  626   0.297   0.921  -0.075 -0.7002  1.3111 -0.6794
  209SOL    HW2  627   0.235   0.921   0.096  1.3339 -0.2624  4.0718
  210SOL     OW  628   1.770   0.680   1.246 -0.2889  0.9550  0.0391
  210SOL    HW1  629   1.775   0.780   1.260 -2.6868 -1.6900 -0.6402
  210SOL    HW2  630   1.857   0.634   1.214  0.1702  1.8959 -0.8707
  211SOL     OW  631   2.053   1.147   1.543  0.3766  0.3363 -0.6068
  211SOL    HW1  632   2.085   1.104   1.633 -2.4408 -3.0440  1.6051
  211SOL    HW2  633   2.128   1.198   1.498 -2.9500  0.4589 -0.9311
  212SOL     OW  634   0.084   0.946   1.428 -0.1411 -0.2986  0.1926
  212SOL    HW1  635   0.133   1.030   1.467 -1.7581  0.9858  0.8070
  212SOL    HW2  636   0.056   0.882   1.505 -0.0235 -0.8228  1.7749
  213SOL     OW  637   2.829   0.060   0.344 -0.3991 -0.1315  0.1140
  213SOL    HW1  638   2.929   0.058   0.312 -3.2707  0.7708  0.8252
  213SOL    HW2  639   2.759   0.004   0.291 -1.1173 -1.6272  1.1005
  214SOL     OW  640   2.205   0.335   2.385 -0.2202  0.1004  0.1105
  214SOL    HW1  641   2.249   0.365   2.477 -0.9991 -2.6336 -0.6880
  214SOL    HW2  642   2.152   0.242   2.395  1.8385 -3.4188  3.6088
  215SOL     OW  643   1.707   2.297   2.065  0.4543 -0.0943 -0.3111
  215SOL    HW1  644   1.791   2.352   2.088  2.2171 -0.5967  1.2223
  215SOL    HW2  645   1.620   2.351   2.080 -0.5249 -0.4649 -0.8452
  216SOL     OW  646   2.311   0.525   0.773  0.0788  0.2975 -0.0915
  216SOL    HW1  647   2.273   0.464   0.699 -0.9897  0.1745  1.2327
  216SOL    HW2  648   2.417   0.508   0.791  2.7772 -0.5711 -2.1485
  217SOL     OW  649   0.886   2.687   2.543  0.2398  0.2254  0.0612
  217SOL    HW1  650   0.881   2.677   2.640  0.1268 -3.4200 -2.6847
  217SOL    HW2  651   0.798   2.649   2.498  0.7072  0.9853 -0.7140
  218SOL     OW  652   1.842   1.398   0.024 -0.5062 -0.0561  0.6262
  218SOL    HW1  653   1.742   1.388   0.010  1.4076 -2.6962  1.1314
  218SOL    HW2  654   1.870   1.329   0.097 -2.0343  3.0362  0.1971
  219SOL     OW  655   2.417   1.262   2.531 -0.1245 -0.3756  0.0701
  219SOL    HW1  656   2.464   1.192   2.473  2.1418  3.4253  1.0049
  219SOL    HW2  657   2.413   1.229   2.631 -0.4854  2.6916  1.6842
  220SOL     OW  658   1.433   1.032   1.412  0.1130 -0.3415 -0.3009
  220SOL    HW1  659   1.530   1.005   1.441  1.8097  0.7086 -1.8235
  220SOL    HW2  660   1.428   1.051   1.306 -2.8536 -2.2332 -2.3910
  221SOL     OW  661   1.232   1.007   2.106  0.2422  0.2497 -0.2657
  221SOL    HW1  662   1.253   1.026   2.006  0.3034 -0.6102 -1.1178
  221SOL    HW2  663   1.317   1.024   2.164 -3.5719  1.8072 -2.1484
  222SOL     OW  664   1.146   0.065   1.192 -0.2610 -0.1043  0.0895
  222SOL    HW1  665   1.140   0.113   1.284  0.1327  2.8082 -1.6299
  222SOL    HW2  666   1.148   0.138   1.115  1.9894  0.2282  1.9178
  223SOL     OW  667   2.691   0.952   2.152  0.1222  0.5253 -0.1617
  223SOL    HW1  668   2.627   0.977   2.231 -0.4329 -3.1051  0.0345
  223SOL    HW2  669   2.791   0.977   2.174 -1.2525  0.0734  1.4303
  224SOL     OW  670   1.565   0.977   2.809  1.0534  0.0683  0.2061
  224SOL    HW1  671   1.553   0.914   2.728 -0.1516  0.1045 -3.6228
  224SOL    HW2  672   1.588   1.070   2.779 -0.6391 -2.5609 -1.0408
  225SOL     OW  673   2.952   2.665   2.882  0.2615 -0.2699  0.2156
  225SOL    HW1  674   2.902   2.668   2.792 -0.1635 -1.5504  1.4177
  225SOL    HW2  675   3.047   2.693   2.872 -2.1483 -0.0349  0.9424
  226SOL     OW  676   2.388   1.580   2.850 -0.7970  0.0126  0.1716
  226SOL    HW1  677   2.441   1.558   2.765 -0.3550  0.3065  3.2340
  226SOL    HW2  678   2.437   1.544   2.937  0.7018  0.4115 -1.4357
  227SOL     OW  679   0.892   0.293   3.030 -0.4578 -0.2914  0.3768
  227SOL    HW1  680   0.918   0.394   3.046 -0.3883 -0.8842  0.4088
  227SOL    HW2  681   0.836   0.271   2.940 -0.2590 -3.8524  0.9245
  228SOL     OW  682   2.390   0.671   2.920  0.0538 -0.7684  0.1879
  228SOL    HW1  683   2.394   0.715   2.825 -0.1301  0.6110  0.2561
  228SOL    HW2  684   2.453   0.586   2.930  1.1600 -1.5587  0.8173
  229SOL     OW  685   0.757   0.679   1.731 -0.1833 -0.0254 -0.2778
  229SOL    HW1  686   0.831   0.667   1.796 -1.6125  1.2355 -1.8495
  229SOL    HW2  687   0.748   0.607   1.651  2.5764  1.2964 -0.3707
  230SOL     OW  688   1.919   1.208   1.940 -0.1236 -0.0871 -0.0255
  230SOL    HW1  689   1.998   1.262   1.901 -2.2982 -0.6705  1.6044
  230SOL    HW2  690   1.866   1.259   2.011 -0.4239  2.4895 -1.0573
  231SOL     OW  691   0.673   0.984   0.043  0.4311  0.2312  0.2191
  231SOL    HW1  692   0.763   0.994   0.095  0.6926  1.2474  3.6885
  231SOL    HW2  693   0.620   1.076   0.029  1.5216 -0.8091  1.0518
  232SOL     OW  694   2.409   2.968   2.793  0.2797  0.5461  0.0787
  232SOL    HW1  695   2.477   2.901   2.833  0.8456  1.5043  0.0226
  232SOL    HW2  696   2.446   3.042   2.733 -0.5877 -0.5269 -0.8211
  233SOL     OW  697   1.811   1.097   1.157 -0.3175 -0.2969 -0.5768
  233SOL    HW1  698   1.849   1.178   1.101  0.6519  1.9644  0.4381
  233SOL    HW2  699   1.872   1.014   1.153  0.5879 -1.2204  0.9601
  234SOL     OW  700   1.648   2.540   1.826  0.0108 -0.3530 -0.5083
  234SOL    HW1  701   1.611   2.605   1.906 -1.1343  0.8207  1.8309
  234SOL    HW2  702   1.598   2.450   1.820  0.9348  0.4830  2.0130
  235SOL     OW  703   0.098   3.014   2.898 -0.0923 -0.1672  0.4909
  235SOL    HW1  704   0.035   3.005   2.812  0.9937  1.4241 -1.4292
  235SOL    HW2  705   0.036   3.031   2.980 -2.1058  2.0019 -0.3144
  236SOL     OW  706   2.897   0.760   0.053 -0.1155 -0.3209  0.2899
  236SOL    HW1  707   2.966   0.774   0.130 -0.9809  1.3293  0.2127
  236SOL    HW2  708   2.910   0.680  -0.012  1.9778 -0.6346 -2.0527
  237SOL     OW  709   1.500   1.685   0.906  0.0891  0.1529  0.0671
  237SOL    HW1  710   1.602   1.671   0.889 -2.8738  0.2072  1.8635
  237SOL    HW2  711   1.473   1.757   0.975 -0.1179 -0.5183  1.4540
  238SOL     OW  712   1.911   1.226   0.730  0.3814 -0.2866  0.1256
  238SOL    HW1  713   1.934   1.246   0.832  0.4275 -0.0905  3.6058
  238SOL    HW2  714   1.813   1.255   0.706  1.8095 -1.3481 -0.3544
  239SOL     OW  715   2.097   0.355   2.791  0.0733  0.1087 -0.8663
  239SOL    HW1  716   2.135   0.335   2.886 -0.8595 -1.7663  0.7286
  239SOL    HW2  717   2.002   0.388   2.799  2.5553  1.9094  0.2859
  240SOL     OW  718   0.888   0.675   0.204 -0.2220  0.0170 -0.7151
  240SOL    HW1  719   0.983   0.644   0.168  1.5982 -1.5828  0.5676
  240SOL    HW2  720   0.877   0.681   0.308 -1.0120 -1.3147 -0.9262
  241SOL     OW  721   0.555   0.131   0.332 -0.1799 -0.7742  0.7426
  241SOL    HW1  722   0.634   0.202   0.322  2.0141  0.6366  1.4709
  241SOL    HW2  723   0.566   0.055   0.262 -0.7345  0.4550  0.5652
  242SOL     OW  724   0.614   2.612   1.284  0.1823 -0.2827 -0.0612
  242SOL    HW1  725   0.598   2.565   1.374 -0.1736 -1.2418 -3.8970
  242SOL    HW2  726   0.680   2.693   1.296  2.3228  0.6286 -1.5331
  243SOL     OW  727   1.076   0.586   2.412  0.9533 -0.3281  0.2403
  243SOL    HW1  728   0.987   0.627   2.378  3.9502 -1.4763 -0.4364
  243SOL    HW2  729   1.060   0.545   2.504 -0.2429  0.0122  0.5640
  244SOL     OW  730   2.810   1.867   2.362  0.1840 -0.3089  0.0005
  244SOL    HW1  731   2.816   1.894   2.264  1.5342 -0.7060  2.0620
  244SOL    HW2  732   2.718   1.832   2.396 -0.7436 -3.2681 -0.4808
  245SOL     OW  733   2.134   1.034   2.224  0.1720  0.0060  0.2937
  245SOL    HW1  734   2.227   0.993   2.244  2.5417 -1.6200 -0.2254
  245SOL    HW2  735   2.102   1.107   2.292  2.1247  0.4752  1.6322
  246SOL     OW  736   0.257   2.898   1.824 -0.1347 -0.2102 -0.2581
  246SOL    HW1  737   0.197   2.866   1.744  0.8477 -4.1215 -2.9289
  246SOL    HW2  738   0.328   2.973   1.799 -1.6529  0.4613 -0.0435
  247SOL     OW  739   2.190   0.609   0.014 -0.4540  0.2208  0.6318
  247SOL    HW1  740   2.277   0.645  -0.030  2.3067  1.6183  0.6116
  247SOL    HW2  741   2.114   0.678   0.020  0.9605  0.4353  0.3093
  248SOL     OW  742   2.154   1.893   1.588 -0.1715 -0.2950 -0.3004
  248SOL    HW1  743   2.210   1.814   1.629  1.0158 -3.2357 -0.0719
  248SOL    HW2  744   2.122   1.952   1.659  0.0249 -1.5642 -0.8297
  249SOL     OW  745   1.872   1.844   1.911 -0.2080 -0.1125 -0.2256
  249SOL    HW1  746   1.868   1.773   1.835  0.0241 -2.0588 -0.6627
  249SOL    HW2  747   1.969   1.877   1.927 -0.3247 -0.9096 -0.7975
  250SOL     OW  748   1.076   0.652   1.860 -0.5998  0.0954  0.3082
  250SOL    HW1  749   1.115   0.607   1.947  1.7799 -0.1993 -0.9674
  250SOL    HW2  750   1.097   0.606   1.765  1.0158 -2.6887  0.4173
  251SOL     OW  751   3.035   1.503   2.552 -0.0465 -0.3775 -0.4238
  251SOL    HW1  752   3.028   1.585   2.490  0.4654 -1.8690  0.5623
  251SOL    HW2  753   2.981   1.422   2.515  0.0490  0.5280  1.1586
  252SOL     OW  754   1.542   0.766   1.567  0.0675  0.7535 -0.2095
  252SOL    HW1  755   1.590   0.786   1.477 -1.4151  0.9551 -1.7740
  252SOL    HW2  756   1.544   0.845   1.635 -1.4738 -0.4143  2.4713
  253SOL     OW  757   0.996   1.471   0.401 -0.2262  0.1546  0.1673
  253SOL    HW1  758   0.984   1.479   0.295  0.5047 -0.3025  0.8239
  253SOL    HW2  759   0.912   1.500   0.457 -0.5410 -0.0955 -1.6400
  254SOL     OW  760   2.067   2.192   1.631 -0.1592  0.5589 -0.2088
  254SOL    HW1  761   2.003   2.131   1.575  0.9166  3.4089 -0.1086
  254SOL    HW2  762   2.014   2.271   1.678  1.0378  1.6909 -2.6726
  255SOL     OW  763   0.091   1.156   2.974  0.1498 -0.4668 -0.1865
  255SOL    HW1  764   0.129   1.246   2.937  0.4745 -2.3642 -0.5707
  255SOL    HW2  765   0.159   1.115   3.032 -1.1394  0.7028  0.8197
  256SOL     OW  766   2.769   1.432   1.787 -0.5426 -0.6092  0.0439
  256SOL    HW1  767   2.704   1.488   1.855 -1.0587 -0.3429  0.2563
  256SOL    HW2  768   2.722   1.349   1.757 -1.1310  3.0035 -1.6138
  257SOL     OW  769   0.828   0.173   1.861  0.4809  0.0657 -0.1994
  257SOL    HW1  770   0.889   0.224   1.786  0.3639 -0.9930 -0.0218
  257SOL    HW2  771   0.879   0.105   1.912  0.8037  1.8057 -2.7542
  258SOL     OW  772   2.993   1.159   0.541  0.0422 -0.4569 -0.2046
  258SOL    HW1  773   2.891   1.178   0.569  1.0624  1.7642  0.6306
  258SOL    HW2  774   3.057   1.172   0.622 -2.4330  0.2366  1.0299
  259SOL     OW  775   0.469   2.962   3.050  0.4103 -0.0187  0.0439
  259SOL    HW1  776   0.392   2.901   3.090 -1.4163 -2.8004  1.5870
  259SOL    HW2  777   0.506   2.924   2.956  0.3945 -0.1603  1.4603
  260SOL     OW  778   2.698   0.654   2.791  0.0974 -0.0882 -0.2875
  260SOL    HW1  779   2.607   0.680   2.743 -0.4511  0.6008 -1.8793
  260SOL    HW2  780   2.703   0.561   2.842  3.3662 -0.2732 -0.5596
  261SOL     OW  781   2.725   1.291   1.270 -0.4870  0.2010 -0.0658
  261SOL    HW1  782   2.656   1.249   1.208  1.8882  1.6119 -1.3902
  261SOL    HW2  783   2.786   1.218   1.307 -1.5107 -0.7289 -3.2676
  262SOL     OW  784   1.388   2.961   1.985 -0.4107 -0.4375 -0.3133
  262SOL    HW1  785   1.400   3.043   1.921 -1.3428  1.6610  0.3936
  262SOL    HW2  786   1.287   2.933   1.995  0.7585  1.5320  0.3095
  263SOL     OW  787   0.843   0.675   2.269 -0.0198 -0.3261  0.0427
  263SOL    HW1  788   0.787   0.599   2.214 -0.8169  0.3205  1.4013
  263SOL    HW2  789   0.880   0.750   2.207 -1.3853 -1.9038  2.5570
  264SOL     OW  790   2.287   0.796   0.459  0.3167 -0.7173 -0.2831
  264SOL    HW1  791   2.283   0.714   0.395 -0.3306 -3.2350  0.5397
  264SOL    HW2  792   2.384   0.836   0.469  2.2453  1.0960 -0.1539
  265SOL     OW  793   0.880   2.294   2.654  0.3074 -0.8502  0.2054
  265SOL    HW1  794   0.878   2.284   2.755 -2.4953  2.0991 -3.4001
  265SOL    HW2  795   0.803   2.238   2.608 -1.5966 -0.7054  0.6469
  266SOL     OW  796   1.282   1.813   3.001  0.5158 -0.4089 -0.5418
  266SOL    HW1  797   1.271   1.851   3.098  0.2714 -2.2172 -0.7918
  266SOL    HW2  798   1.369   1.760   2.994 -2.9047  1.0376  3.0703
  267SOL     OW  799   1.121   3.010   2.296 -0.0167 -0.4355  0.4377
  267SOL    HW1  800   1.112   2.935   2.222  3.2993  0.5253 -2.1512
  267SOL    HW2  801   1.169   3.096   2.258  2.8954 -1.7240 -3.7178
  268SOL     OW  802   0.767   1.291   1.243  0.0455 -0.1122 -0.1234
  268SOL    HW1  803   0.712   1.383   1.232  0.1971  2.8801  0.0320
  268SOL    HW2  804   0.859   1.292   1.194 -1.6673 -0.2981  1.9096
  269SOL     OW  805   2.271   2.515   1.612 -0.3564 -0.1795  0.1671
  269SOL    HW1  806   2.365   2.505   1.646 -2.5473  2.5448 -1.9872
  269SOL    HW2  807   2.199   2.522   1.684 -1.5602 -0.4568 -1.8194
  270SOL     OW  808   0.125   3.037   2.006  0.4239 -0.6912 -0.1335
  270SOL    HW1  809   0.165   3.003   1.919  0.2445  0.1399  0.2951
  270SOL    HW2  810   0.092   2.958   2.070 -3.6744  0.3651 -0.1996
  271SOL     OW  811   0.352   1.443   1.123 -0.5689  0.7973 -0.0346
  271SOL    HW1  812   0.349   1.414   1.022 -0.0839 -0.6884 -2.3317
  271SOL    HW2  813   0.260   1.457   1.172  0.8948 -0.0765  0.0514
  272SOL     OW  814   1.874   0.005   1.916  0.3576 -0.1600  0.6325
  272SOL    HW1  815   1.801  -0.065   1.880 -2.1631  0.5183  0.2389
  272SOL    HW2  816   1.954   0.027   1.852  1.6011 -0.0935  0.6386
  273SOL     OW  817   1.466   1.441   2.874  0.1505 -0.4664  0.3392
  273SOL    HW1  818   1.371   1.466   2.838  0.6912  1.8467 -2.0705
  273SOL    HW2  819   1.461   1.433   2.976 -0.4307  2.0420 -0.5273
  274SOL     OW  820   1.185   0.542   2.116  0.0715 -0.2459  0.2073
  274SOL    HW1  821   1.095   0.506   2.146 -1.2320 -0.3572 -0.1065
  274SOL    HW2  822   1.255   0.562   2.192  1.8158  0.9237 -2.9852
  275SOL     OW  823   0.665   2.157   1.956  0.4985  0.1583 -0.0501
  275SOL    HW1  824   0.581   2.102   1.923 -2.0820  0.6731 -0.5255
  275SOL    HW2  825   0.634   2.257   1.971 -0.8511 -0.4359 -1.1424
  276SOL     OW  826   2.216   0.923   2.839 -0.5117  0.4576 -0.5973
  276SOL    HW1  827   2.130   0.952   2.793 -1.1366 -0.2587  2.5672
  276SOL    HW2  828   2.214   0.825   2.871 -3.0870 -0.1948  2.0185
  277SOL     OW  829   3.080   0.788   0.238 -0.3702  0.0403  0.1417
  277SOL    HW1  830   3.172   0.834   0.241  0.9320 -1.8236  0.2825
  277SOL    HW2  831   3.077   0.707   0.300  0.4390  1.5926  0.8827
  278SOL     OW  832   0.329   0.243   0.013  0.0932  0.2535 -0.4804
  278SOL    HW1  833   0.414   0.222  -0.041 -1.8442 -0.7774 -0.0490
  278SOL    HW2  834   0.311   0.345   0.019  0.3237  0.3473  0.1329
  279SOL     OW  835   0.230   2.992   0.938 -0.4440  0.0163 -0.4185
  279SOL    HW1  836   0.282   3.016   1.023 -2.0583 -0.0055  1.5195
  279SOL    HW2  837   0.217   2.892   0.922 -2.9631  1.9817  0.7807
  280SOL     OW  838   1.577   2.899   2.439  0.1083 -0.0462  0.2012
  280SOL    HW1  839   1.650   2.950   2.489 -2.8711  1.6675 -0.5165
  280SOL    HW2  840   1.531   2.953   2.365 -1.0861  1.2610 -0.5541
  281SOL     OW  841   0.621   0.941   2.314  0.1167  0.4856 -0.1896
  281SOL    HW1  842   0.605   0.859   2.246 -0.8377 -0.8625 -3.8729
  281SOL    HW2  843   0.604   0.926   2.416  1.0298  1.4229 -0.0066
  282SOL     OW  844   1.720   2.442   0.550 -0.3706 -0.4839  0.0547
  282SOL    HW1  845   1.693   2.360   0.497  2.2308  0.1782 -1.6044
  282SOL    HW2  846   1.692   2.529   0.496 -0.7790 -1.9080 -1.7539
  283SOL     OW  847   1.127   0.907   0.790 -0.3450 -0.0485  0.0934
  283SOL    HW1  848   1.170   0.851   0.866  0.0034 -2.8731  0.0548
  283SOL    HW2  849   1.088   1.000   0.819  0.4054 -1.0265  0.5231
  284SOL     OW  850   2.210   2.863   2.472  0.3328  0.4290  0.3711
  284SOL    HW1  851   2.306   2.860   2.434 -0.0915 -0.2415 -0.4656
  284SOL    HW2  852   2.211   2.877   2.575  1.1312  2.9366  0.2966
  285SOL     OW  853   1.326   3.080   2.522  0.1200  0.2864 -0.3823
  285SOL    HW1  854   1.400   3.049   2.459 -1.5176 -0.3103  0.0294
  285SOL    HW2  855   1.258   3.136   2.480  0.0102  0.5356  0.0782
  286SOL     OW  856   0.226   0.320   0.657  0.0876  0.2053 -0.6274
  286SOL    HW1  857   0.251   0.235   0.714  1.1373 -0.8209  3.6570
  286SOL    HW2  858   0.259   0.323   0.564 -3.9813 -1.8806 -1.7020
  287SOL     OW  859   0.109   1.287   2.553  0.4513  0.1097  0.2455
  287SOL    HW1  860   0.040   1.219   2.589 -0.8279  0.7310 -1.7472
  287SOL    HW2  861   0.082   1.382   2.562 -0.1155 -1.2660  1.7865
  288SOL     OW  862   1.537   2.704   1.655  0.5074 -0.3619  0.0328
  288SOL    HW1  863   1.584   2.638   1.721  0.4681  0.8690 -2.0726
  288SOL    HW2  864   1.573   2.698   1.556  0.7961 -0.4559 -2.2802
  289SOL     OW  865   0.584   2.726   0.772  0.0121 -0.1235 -0.3047
  289SOL    HW1  866   0.649   2.761   0.700 -0.4859 -0.1482 -0.7494
  289SOL    HW2  867   0.556   2.811   0.827  1.2246 -1.2084 -1.9409
  290SOL     OW  868   2.809   1.067   1.640 -0.2495 -0.5092 -0.3985
  290SOL    HW1  869   2.740   0.996   1.675  1.8569 -0.2002  1.4078
  290SOL    HW2  870   2.893   1.072   1.697  0.3300 -0.2791 -2.0149
  291SOL     OW  871   1.920   0.014   0.026  0.1925  0.5565  0.0725
  291SOL    HW1  872   1.917   0.039   0.125 -0.2598 -1.6925  0.4803
  291SOL    HW2  873   2.018   0.019  -0.011 -0.3923  1.5452 -3.6277
  292SOL     OW  874   2.938   1.225   0.016  0.0189 -1.0788  0.0674
  292SOL    HW1  875   2.886   1.269  -0.061 -1.4448 -2.6232  2.1174
  292SOL    HW2  876   3.039   1.248   0.008 -0.2410 -2.5373  0.1861
  293SOL     OW  877   0.544   2.049   0.203  0.2485  0.6026 -0.5772
  293SOL    HW1  878   0.535   2.142   0.254 -3.6342  0.5414 -1.8709
  293SOL    HW2  879   0.641   2.006   0.223 -0.0312  2.1420  0.2581
  294SOL     OW  880   1.913   2.390   1.799  0.5703 -0.2118 -0.2700
  294SOL    HW1  881   1.947   2.429   1.888  0.8495  1.5170 -1.6765
  294SOL    HW2  882   1.829   2.441   1.763 -0.4193 -0.0366 -2.0650
  295SOL     OW  883   0.946   1.034   0.448  0.4326 -0.4820  0.5028
  295SOL    HW1  884   1.052   1.036   0.458  1.6251  0.4981 -0.1993
  295SOL    HW2  885   0.906   0.965   0.517 -1.2111 -0.0130 -0.3369
  296SOL     OW  886   1.100   2.147   2.683 -0.6984  0.4253 -0.3431
  296SOL    HW1  887   1.029   2.224   2.678  1.9288  3.0183  0.3251
  296SOL    HW2  888   1.128   2.105   2.594  1.8923 -0.1444  0.4729
  297SOL     OW  889   1.330   0.626   1.239  0.0104  0.0055 -0.0645
  297SOL    HW1  890   1.356   0.553   1.309  1.9158 -0.2671 -0.2755
  297SOL    HW2  891   1.402   0.634   1.168 -2.4896 -2.2484 -0.9645
  298SOL     OW  892   0.520   1.337   2.971  0.1722  0.4423  0.2832
  298SOL    HW1  893   0.478   1.285   3.048  3.8515 -1.2318 -2.8676
  298SOL    HW2  894   0.548   1.267   2.896  3.1761  0.4552 -1.9659
  299SOL     OW  895   0.426   0.174   1.208 -0.1945 -0.3139  0.1821
  299SOL    HW1  896   0.387   0.270   1.195 -0.2914 -1.1505  1.2834
  299SOL    HW2  897   0.441   0.155   1.304 -0.7614 -1.4878 -3.3688
  300SOL     OW  898   1.193   1.725   2.607 -1.1060 -0.5504 -0.2831
  300SOL    HW1  899   1.206   1.662   2.522 -1.6606 -1.9412  1.0240
  300SOL    HW2  900   1.279   1.715   2.662 -1.1128 -1.9384  2.8970
  301SOL     OW  901   0.324   0.286   0.378  0.2929 -0.1161  0.2177
  301SOL    HW1  902   0.228   0.253   0.365  1.8340 -1.0752  1.0529
  301SOL    HW2  903   0.401   0.222   0.353  1.0107  0.4649 -0.4637
  302SOL     OW  904   1.257   2.401   2.323  0.5839 -0.0405 -0.0855
  302SOL    HW1  905   1.156   2.402   2.333  1.8670  0.1589  1.1771
  302SOL    HW2  906   1.299   2.316   2.369  1.0350 -0.3559  1.7790
  303SOL     OW  907   0.896   2.480   0.704  0.4928  0.9904 -0.1208
  303SOL    HW1  908   0.947   2.487   0.613 -1.1584 -1.2549  1.3340
  303SOL    HW2  909   0.933   2.539   0.783  4.1134  2.8874 -1.0664
  304SOL     OW  910   0.108   1.916   0.694  0.0253  0.0243 -0.3015
  304SOL    HW1  911   0.186   1.894   0.622  2.0471  0.0379 -0.0888
  304SOL    HW2  912   0.015   1.934   0.652 -1.7456 -1.3702  2.1059
  305SOL     OW  913   1.641   0.787   0.704  0.0408  0.1585 -0.4213
  305SOL    HW1  914   1.560   0.820   0.647 -0.5577 -0.9082  2.7120
  305SOL    HW2  915   1.668   0.691   0.676 -0.5117  1.1461  1.4062
  306SOL     OW  916   0.469   1.942   1.962  1.3131 -0.1539 -0.1376
  306SOL    HW1  917   0.529   1.862   1.953 -2.3750  0.3074 -0.6393
  306SOL    HW2  918   0.427   1.949   2.055  1.2665 -1.0613  1.4205
  307SOL     OW  919   3.025   0.893   2.582 -0.4668 -0.0353  0.0771
  307SOL    HW1  920   3.021   0.984   2.629 -0.3898 -1.1088  0.2247
  307SOL    HW2  921   3.004   0.812   2.637 -0.1297 -1.4402  0.1640
  308SOL     OW  922   1.494   2.733   2.805  0.0157 -0.4302 -0.2034
  308SOL    HW1  923   1.441   2.726   2.714 -1.3901 -4.0164 -0.7790
  308SOL    HW2  924   1.480   2.646   2.863  2.2613 -0.3358  1.3468
  309SOL     OW  925   1.178   0.210   1.846  0.2454  0.3340  0.5360
  309SOL    HW1  926   1.272   0.170   1.832  0.8291  0.9941 -0.4635
  309SOL    HW2  927   1.133   0.235   1.758 -2.0113  2.7209  2.5720
  310SOL     OW  928   1.416   2.595   0.661  0.1689  0.2494  0.2121
  310SOL    HW1  929   1.435   2.562   0.758 -1.0011  0.1389 -0.9547
  310SOL    HW2  930   1.496   2.644   0.620  0.2375 -1.3528  0.3260
  311SOL     OW  931   1.089   0.889   1.690 -0.0043 -0.5542 -0.0659
  311SOL    HW1  932   1.071   0.800   1.733 -1.7640  0.5249 -1.3405
  311SOL    HW2  933   1.154   0.882   1.610 -1.1008 -0.5049  0.9382
  312SOL     OW  934   1.490   0.606   1.003  0.4443 -0.2553  0.3535
  312SOL    HW1  935   1.550   0.692   0.999 -1.8077 -0.6435  1.5043
  312SOL    HW2  936   1.432   0.593   0.916 -0.0516 -0.9125  3.2341
  313SOL     OW  937   1.643   1.300   0.712 -0.1814 -0.6474 -0.0312
  313SOL    HW1  938   1.569   1.315   0.780 -1.3213 -0.2405 -0.2503
  313SOL    HW2  939   1.620   1.237   0.637 -0.8446 -1.9240  0.9849
  314SOL     OW  940   2.994   0.029   3.071  0.7857  0.5777  0.0440
  314SOL    HW1  941   3.019   0.056   3.170 -2.0292  0.3720 -1.8569
  314SOL    HW2  942   2.915  -0.031   3.068 -0.2163  2.2490  0.0328
  315SOL     OW  943   1.107   0.226   2.744  0.1429  0.2140 -0.2341
  315SOL    HW1  944   1.091   0.175   2.657  1.0984  2.1828 -0.1134
  315SOL    HW2  945   1.083   0.176   2.831  1.3764  1.4201 -0.1214
  316SOL     OW  946   1.762   2.086   0.874 -0.6198 -0.0314 -0.0788
  316SOL    HW1  947   1.753   2.098   0.976 -0.7609  0.9778  1.4625
  316SOL    HW2  948   1.787   2.180   0.830  1.1141  0.0470  1.0902
  317SOL     OW  949   1.183   0.692   2.743 -0.0320  0.3625  0.4274
  317SOL    HW1  950   1.137   0.732   2.824 -1.4421  1.6000 -1.8263
  317SOL    HW2  951   1.131   0.616   2.697 -1.4112  1.7552 -2.1091
  318SOL     OW  952   1.459   3.038   2.249  0.4151  0.6461 -0.4832
  318SOL    HW1  953   1.459   3.140   2.222  1.0539  1.2552 -1.6091
  318SOL    HW2  954   1.426   2.983   2.165 -0.0203  1.3676  1.5589
  319SOL     OW  955   0.651   2.349   3.077 -0.0086 -0.3330  0.1009
  319SOL    HW1  956   0.571   2.285   3.077  0.7320 -1.7846  4.6046
  319SOL    HW2  957   0.738   2.321   3.025  0.1966 -1.2729  0.3444
  320SOL     OW  958   1.704   2.210   0.398  0.1334  0.1439  0.1077
  320SOL    HW1  959   1.776   2.137   0.391 -1.2144  0.0614 -1.5398
  320SOL    HW2  960   1.615   2.170   0.438  0.7959 -0.0621 -0.1122
  321SOL     OW  961   1.633   2.718   0.517  0.7557  0.4392 -0.0530
  321SOL    HW1  962   1.576   2.766   0.446 -1.7437  0.2100  1.6420
  321SOL    HW2  963   1.732   2.753   0.521 -1.3027 -0.5756  0.7334
  322SOL     OW  964   2.556   1.037   2.378 -0.1466  0.6889  0.4258
  322SOL    HW1  965   2.623   1.005   2.449  2.7219  0.3212  0.1185
  322SOL    HW2  966   2.468   0.976   2.371  1.0956 -0.1465 -1.8606
  323SOL     OW  967   1.192   2.722   0.821  0.5519 -0.6364  0.5823
  323SOL    HW1  968   1.223   2.693   0.723  0.0296  1.7171 -2.7812
  323SOL    HW2  969   1.158   2.821   0.831  0.6554 -1.0657 -0.9933
  324SOL     OW  970   0.091   2.540   2.374  0.3506  1.0232 -0.7972
  324SOL    HW1  971   0.053   2.488   2.456 -0.0085  2.4932  0.2132
  324SOL    HW2  972   0.147   2.625   2.396  1.9252 -2.4574 -0.2577
  325SOL     OW  973   1.264   3.064   0.423  0.5269 -0.0987 -0.4373
  325SOL    HW1  974   1.201   3.085   0.341 -0.6467  0.2838 -0.8957
  325SOL    HW2  975   1.273   3.147   0.490 -1.9270  1.5160  3.1136
  326SOL     OW  976   2.517   0.798   0.031  0.4751 -0.4759  0.2708
  326SOL    HW1  977   2.482   0.754  -0.056 -0.2959 -1.4485 -1.0309
  326SOL    HW2  978   2.576   0.739   0.098  2.6362  0.2253 -0.3664
  327SOL     OW  979   2.857   0.185   0.582 -0.3200  0.0119  0.1961
  327SOL    HW1  980   2.842   0.118   0.498 -1.1787 -1.8003  1.6328
  327SOL    HW2  981   2.894   0.139   0.671  0.2553  1.2472  0.2999
  328SOL     OW  982   2.656   0.565   0.456 -0.5814 -0.5964  0.6050
  328SOL    HW1  983   2.692   0.625   0.533 -1.5707  2.0445 -1.3286
  328SOL    HW2  984   2.621   0.473   0.494  0.2733 -2.0508  0.2734
  329SOL     OW  985   2.934   3.071   2.181 -0.7040  0.2948 -0.7576
  329SOL    HW1  986   3.008   3.000   2.179 -1.1706 -0.2085 -1.6041
  329SOL    HW2  987   2.976   3.168   2.178  0.7757  0.4394 -0.7091
  330SOL     OW  988   0.613   0.309   1.997 -0.4828 -0.6914  0.1067
  330SOL    HW1  989   0.687   0.282   1.928 -3.3530  0.4155  0.8418
  330SOL    HW2  990   0.590   0.239   2.071  0.7956  0.6301  0.2053
  331SOL     OW  991   3.091   1.928   1.113  0.1677 -0.4263 -0.0152
  331SOL    HW1  992   3.085   1.972   1.018 -0.3580 -0.9764 -0.9610
  331SOL    HW2  993   3.001   1.924   1.162 -0.9818  1.4122 -1.0529
  332SOL     OW  994   0.427   1.185   0.076 -0.5577  0.2704 -0.0267
  332SOL    HW1  995   0.379   1.090   0.069 -1.0187 -1.5183  1.4894
  332SOL    HW2  996   0.395   1.238   0.155  0.9929  1.2054  0.6129
  333SOL     OW  997   2.896   0.959   0.368 -0.0090  0.5945  0.3061
  333SOL    HW1  998   2.927   1.028   0.438 -1.5793 -3.5058 -1.9536
  333SOL    HW2  999   2.977   0.905   0.324 -0.7068 -0.7331 -0.6882
  334SOL     OW 1000   1.696   1.181   1.717  0.0983 -0.1197  0.4584
  334SOL    HW1 1001   1.741   1.191   1.620 -2.9995  0.4161 -1.6021
  334SOL    HW2 1002   1.761   1.208   1.796  0.2963  0.1196  2.5526
  335SOL     OW 1003   1.916   2.771   2.602 -0.3730  0.3164 -0.4820
  335SOL    HW1 1004   1.853   2.763   2.686 -0.4326  0.3222  2.0045
  335SOL    HW2 1005   1.980   2.849   2.621 -1.4525 -1.0054  1.1427
  336SOL     OW 1006   0.321   0.092   2.779  1.2046 -0.0351  0.3715
  336SOL    HW1 1007   0.397   0.130   2.839  0.5277 -0.0086 -0.6259
  336SOL    HW2 1008   0.247   0.030   2.831  0.3791  1.1697  2.2962
  337SOL     OW 1009   0.790   2.798   3.053  0.1610  0.4197  0.5214
  337SOL    HW1 1010   0.864   2.730   3.082 -1.4368 -5.4181 -0.1882
  337SOL    HW2 1011   0.761   2.867   3.121 -1.7799 -0.7885 -3.8520
  338SOL     OW 1012   0.073   0.923   0.716  0.2594 -0.3404  0.1665
  338SOL    HW1 1013  -0.028   0.904   0.709 -1.2234  0.7499  3.0385
  338SOL    HW2 1014   0.089   1.026   0.728 -0.2401  2.8922  0.4527
  339SOL     OW 1015   1.769   1.353   2.133  0.5051 -0.1946 -0.2061
  339SOL    HW1 1016   1.672   1.342   2.105  1.4228 -0.1921  0.4913
  339SOL    HW2 1017   1.798   1.448   2.125  1.1355 -1.8266 -0.9505
  340SOL     OW 1018   2.314   0.772   1.201 -0.3650 -0.7453  0.2658
  340SOL    HW1 1019   2.231   0.829   1.169 -1.4067  0.6275 -0.7460
  340SOL    HW2 1020   2.298   0.677   1.174  2.1528  0.4050 -0.2148
  341SOL     OW 1021   1.932   2.069   0.313 -0.1039 -0.1487  0.1816
  341SOL    HW1 1022   1.984   2.096   0.230  0.2500 -0.0709  0.4098
  341SOL    HW2 1023   1.987   2.019   0.384 -0.9261  3.7843  1.7977
  342SOL     OW 1024   2.092   2.136   2.763 -0.4143 -0.5618 -0.2013
  342SOL    HW1 1025   2.126   2.039   2.774  1.0967 -2.1952 -0.7724
  342SOL    HW2 1026   2.001   2.136   2.708 -1.4409 -0.6816 -0.3525
  343SOL     OW 1027   0.370   0.846   2.886 -0.2490  0.5179 -0.1599
  343SOL    HW1 1028   0.338   0.887   2.799  2.7716  1.1174 -1.0591
  343SOL    HW2 1029   0.474   0.841   2.889  3.3518 -2.9677 -1.9667
  344SOL     OW 1030   1.912   1.416   0.407  0.0262  0.3690  0.2006
  344SOL    HW1 1031   1.906   1.325   0.352  0.8298  0.4263 -0.2322
  344SOL    HW2 1032   1.822   1.458   0.431  0.9203  1.0113  1.4376
  345SOL     OW 1033   1.371   2.210   2.803  0.0664  0.4868 -0.1339
  345SOL    HW1 1034   1.278   2.211   2.762  0.5656 -2.5538  0.5692
  345SOL    HW2 1035   1.429   2.144   2.742 -0.6465 -0.0651 -4.9971
  346SOL     OW 1036   2.276   0.830   1.473  0.0720  0.2146  0.2380
  346SOL    HW1 1037   2.176   0.852   1.479 -1.8277 -0.3154  0.3597
  346SOL    HW2 1038   2.311   0.795   1.383  0.1812  1.2898 -0.6865
  347SOL     OW 1039   0.726   2.801   1.751  0.0288  0.1800  0.6223
  347SOL    HW1 1040   0.811   2.847   1.719  1.1043  1.3694  2.3889
  347SOL    HW2 1041   0.641   2.830   1.708  1.1302 -2.9421  3.5987
  348SOL     OW 1042   0.174   0.619   2.861 -0.4759 -0.0663 -0.2261
  348SOL    HW1 1043   0.088   0.671   2.836  0.3188  1.0998  0.3494
  348SOL    HW2 1044   0.254   0.644   2.802  0.6282 -0.5613  0.5567
  349SOL     OW 1045   1.847   0.460   2.816  0.8228  0.2655 -0.1751
  349SOL    HW1 1046   1.815   0.547   2.762 -1.8384  1.2619 -1.2091
  349SOL    HW2 1047   1.824   0.458   2.919 -0.7382 -1.5629  1.1250
  350SOL     OW 1048   1.756   0.363   0.424  0.1314  0.7468  0.0787
  350SOL    HW1 1049   1.835   0.338   0.489 -2.0842 -2.5313  1.3574
  350SOL    HW2 1050   1.783   0.442   0.369 -3.6997 -2.5289 -3.3152
  351SOL     OW 1051   0.946   0.815   2.035  0.6937  0.2617 -0.1178
  351SOL    HW1 1052   0.960   0.913   2.002 -0.1328  3.1689 -2.5614
  351SOL    HW2 1053   0.991   0.749   1.964 -1.2808  1.2127 -2.2187
  352SOL     OW 1054   2.074   1.495   0.626 -0.1608  0.3817  0.4558
  352SOL    HW1 1055   1.998   1.474   0.561 -1.8279  2.2807  3.1832
  352SOL    HW2 1056   2.040   1.480   0.724  0.1131 -1.8162 -0.7961
  353SOL     OW 1057   2.173   2.763   1.135  0.0028  0.8746 -0.1352
  353SOL    HW1 1058   2.210   2.674   1.171 -2.9708 -0.3867  1.4538
  353SOL    HW2 1059   2.089   2.799   1.185 -0.5132  1.1349  0.6286
  354SOL     OW 1060   0.242   1.395   2.882  0.2019 -0.3640 -0.1111
  354SOL    HW1 1061   0.229   1.433   2.784 -0.5871  0.5426 -0.6727
  354SOL    HW2 1062   0.344   1.393   2.901 -1.1051  1.1185  0.7986
  355SOL     OW 1063   0.741   1.545   0.557 -0.0971 -0.9219  0.4099
  355SOL    HW1 1064   0.701   1.556   0.655 -0.5823  2.5433 -1.8709
  355SOL    HW2 1065   0.661   1.537   0.491  1.1875  1.0862 -0.8987
  356SOL     OW 1066   0.955   0.324   2.083 -0.5876 -0.4750 -0.2491
  356SOL    HW1 1067   1.037   0.262   2.104 -0.8088  1.0064 -0.9105
  356SOL    HW2 1068   0.885   0.285   2.017  1.8557  0.1740 -0.7820
  357SOL     OW 1069   1.013   1.530   0.106 -0.3941  0.1577 -0.4255
  357SOL    HW1 1070   1.054   1.460   0.036 -0.8424  1.2793 -0.5641
  357SOL    HW2 1071   1.093   1.583   0.148  2.1926 -2.7075 -1.7151
  358SOL     OW 1072   1.658   1.489   0.485 -0.3438 -0.0338 -0.5128
  358SOL    HW1 1073   1.663   1.438   0.576  0.0433  0.7134 -0.0317
  358SOL    HW2 1074   1.596   1.435   0.420 -1.6268 -1.4132  1.5749
  359SOL     OW 1075   1.668   2.615   0.185 -0.1135  0.1825 -0.2369
  359SOL    HW1 1076   1.633   2.520   0.164 -0.7328  1.3147  2.1411
  359SOL    HW2 1077   1.596   2.687   0.184  1.4986  1.3166  0.4916
  360SOL     OW 1078   0.722   0.452   0.560  0.6022 -1.2076  0.0936
  360SOL    HW1 1079   0.637   0.457   0.505  2.6768 -2.3130  1.3326
  360SOL    HW2 1080   0.750   0.358   0.582 -2.0937  2.4667 -2.0647
  361SOL     OW 1081   1.329   1.323   0.572 -0.3298 -0.4837  0.1839
  361SOL    HW1 1082   1.362   1.375   0.658  1.1177  0.1188  3.7771
  361SOL    HW2 1083   1.227   1.344   0.552 -1.3335  0.5349 -0.9134
  362SOL     OW 1084   1.387   1.854   0.730 -0.3233 -0.1590 -0.2379
  362SOL    HW1 1085   1.423   1.784   0.798  2.1354  1.6679 -0.8858
  362SOL    HW2 1086   1.466   1.893   0.675 -0.1908 -2.5938 -0.4372
  363SOL     OW 1087   1.304   1.289   1.975  0.5725 -0.1885  0.4439
  363SOL    HW1 1088   1.387   1.289   2.037  1.7819 -1.2131 -0.6081
  363SOL    HW2 1089   1.265   1.382   1.962  0.4390 -1.8294  2.7587
  364SOL     OW 1090   0.528   2.402   2.024  0.1251  0.4693 -0.5065
  364SOL    HW1 1091   0.425   2.433   2.016 -0.3385 -1.6544  0.7795
  364SOL    HW2 1092   0.596   2.481   2.018 -0.1686  0.8831  3.7086
  365SOL     OW 1093   0.914   2.013   1.373 -0.0445  0.5935 -0.2119
  365SOL    HW1 1094   0.825   2.039   1.421  0.5616  2.3061 -0.1349
  365SOL    HW2 1095   0.930   2.048   1.278  1.1515  1.5655  0.2960
  366SOL     OW 1096   2.716   1.880   0.221  0.3111  1.0856 -0.6068
  366SOL    HW1 1097   2.625   1.839   0.196  0.3710  2.4226  2.2576
  366SOL    HW2 1098   2.770   1.812   0.279 -0.9581  1.3882  1.0260
  367SOL     OW 1099   0.950   1.140   3.076 -0.4404  0.2765 -0.0066
  367SOL    HW1 1100   0.958   1.084   3.160 -1.3626 -2.0153 -2.5522
  367SOL    HW2 1101   0.957   1.242   3.091  1.4073  1.2473  0.1817
  368SOL     OW 1102   1.480   0.465   0.543  0.2902 -0.0916  0.5335
  368SOL    HW1 1103   1.404   0.417   0.478 -3.5804  0.9835 -1.4445
  368SOL    HW2 1104   1.566   0.502   0.490  1.3609  0.8983  1.1655
  369SOL     OW 1105   0.293   1.656   0.116 -0.0013  0.3897 -0.7558
  369SOL    HW1 1106   0.367   1.710   0.173 -2.0129 -0.3378 -2.3107
  369SOL    HW2 1107   0.228   1.597   0.176  1.7033 -3.0783 -1.0634
  370SOL     OW 1108   0.463   2.118   1.003 -0.9593 -0.0440 -0.3411
  370SOL    HW1 1109   0.475   2.216   1.038 -0.2826  1.2635 -3.7532
  370SOL    HW2 1110   0.369   2.103   0.958  0.5796  1.3072 -1.1035
  371SOL     OW 1111   2.929   2.168   2.684 -0.2588 -0.2079 -0.0111
  371SOL    HW1 1112   3.017   2.115   2.691  1.1738 -1.1643  1.3903
  371SOL    HW2 1113   2.923   2.255   2.737 -0.5320 -0.2728 -4.0951
  372SOL     OW 1114   0.985   2.126   1.118  0.0191  0.0153  0.1331
  372SOL    HW1 1115   0.923   2.169   1.050  2.0303 -1.9730 -2.5166
  372SOL    HW2 1116   1.071   2.185   1.143 -0.0643 -1.1667 -0.4637
  373SOL     OW 1117   1.907   1.836   0.960 -0.2119 -1.0051  0.0267
  373SOL    HW1 1118   1.965   1.909   0.999 -1.9319  0.0751 -0.2220
  373SOL    HW2 1119   1.861   1.866   0.871  2.2061  1.1853  0.7633
  374SOL     OW 1120   1.974   0.264   0.569  0.2732 -0.2314  0.4517
  374SOL    HW1 1121   1.946   0.246   0.670 -1.1677 -2.1594  2.4189
  374SOL    HW2 1122   2.070   0.302   0.554 -0.0169 -3.1461 -1.0023
  375SOL     OW 1123   2.395   2.069   1.079 -0.1010 -0.0731  0.1808
  375SOL    HW1 1124   2.436   2.043   0.984  0.0209  0.0771 -1.6372
  375SOL    HW2 1125   2.471   2.082   1.154  1.1947 -2.1143 -0.2874
  376SOL     OW 1126   0.030   0.565   1.473  0.7194 -0.0658  0.1391
  376SOL    HW1 1127   0.026   0.612   1.563 -3.2566 -3.0048  1.0879
  376SOL    HW2 1128  -0.048   0.498   1.468  0.8887 -0.9225  0.9868
  377SOL     OW 1129   2.308   2.953   0.169 -0.1434  0.3539 -0.0050
  377SOL    HW1 1130   2.263   3.026   0.225 -1.4476  1.9969 -2.8830
  377SOL    HW2 1131   2.356   2.884   0.231 -0.2951  1.5946  0.3694
  378SOL     OW 1132   1.906   1.868   2.465 -0.1072 -0.3973  0.1452
  378SOL    HW1 1133   1.995   1.813   2.461 -0.2129  0.6843  1.0739
  378SOL    HW2 1134   1.823   1.810   2.479  0.2615 -0.7755  0.6690
  379SOL     OW 1135   0.774   0.154   2.785 -0.5823  0.4272  0.8282
  379SOL    HW1 1136   0.813   0.061   2.745  0.2343 -4.2466 -3.2108
  379SOL    HW2 1137   0.756   0.225   2.707 -0.3214  2.1408 -1.0672
  380SOL     OW 1138   1.507   1.105   0.575  0.0477  0.2163 -0.1325
  380SOL    HW1 1139   1.455   1.193   0.565  2.0043  0.8825  2.4933
  380SOL    HW2 1140   1.453   1.015   0.558 -2.3743 -0.0431  2.6394
  381SOL     OW 1141   1.279   1.310   1.419  0.2808  0.2392 -0.0626
  381SOL    HW1 1142   1.365   1.250   1.399 -0.1165  0.5173  0.9353
  381SOL    HW2 1143   1.293   1.403   1.460  0.7689  0.3542 -1.1087
  382SOL     OW 1144   1.802   0.846   0.270 -0.4737 -0.1576  0.3871
  382SOL    HW1 1145   1.826   0.802   0.177  1.9599  0.4649 -0.8974
  382SOL    HW2 1146   1.858   0.813   0.351  1.8973  1.1174 -0.7404
  383SOL     OW 1147   2.528   0.963   1.492 -0.2242  0.2965 -0.1306
  383SOL    HW1 1148   2.430   0.945   1.456 -0.1731 -0.5594  1.2627
  383SOL    HW2 1149   2.599   0.937   1.423 -0.9307  0.4150  3.1299
  384SOL     OW 1150   0.956   2.231   0.215  0.3250 -0.5051  0.3722
  384SOL    HW1 1151   0.903   2.322   0.202  0.1362 -1.1465 -0.5265
  384SOL    HW2 1152   0.972   2.196   0.309 -0.1370 -1.3812 -1.0925
  385SOL     OW 1153   2.880   2.009   1.615  0.0533 -0.5976  0.5221
  385SOL    HW1 1154   2.968   2.033   1.663  0.5903 -1.5082 -1.6169
  385SOL    HW2 1155   2.831   1.925   1.661 -1.1097 -0.5022 -0.6066
  386SOL     OW 1156   0.490   1.039   0.389 -0.4382 -0.2328 -0.8624
  386SOL    HW1 1157   0.470   0.935   0.404  0.0819  0.8355 -1.3866
  386SOL    HW2 1158   0.416   1.098   0.351  0.7396  1.0047  1.9965
  387SOL     OW 1159   0.949   0.302   1.655  0.4416  0.5165 -0.5371
  387SOL    HW1 1160   0.972   0.404   1.645 -0.0573 -0.1721  0.7727
  387SOL    HW2 1161   0.928   0.265   1.562  2.1774  1.7412 -0.8020
  388SOL     OW 1162   1.288   2.724   1.828  0.6246 -0.0333  0.0014
  388SOL    HW1 1163   1.359   2.727   1.753  1.2532 -3.0630 -0.1690
  388SOL    HW2 1164   1.307   2.641   1.887  0.6599  1.8357  1.4819
  389SOL     OW 1165   0.104   2.896   1.367 -0.7062  0.1624 -0.0195
  389SOL    HW1 1166   0.022   2.926   1.313  3.3543  0.6254 -2.7639
  389SOL    HW2 1167   0.126   2.796   1.356  1.4972  3.0372 -1.4313
  390SOL     OW 1168   1.033   0.915   1.311  0.1160  0.0020 -0.8160
  390SOL    HW1 1169   1.126   0.894   1.350 -1.5048 -0.4513  0.6923
  390SOL    HW2 1170   0.981   0.988   1.356 -0.4431 -0.8163 -0.1635
  391SOL     OW 1171   2.193   1.102   1.097  0.7299 -0.4471  0.2711
  391SOL    HW1 1172   2.147   1.017   1.136  0.6205 -1.5521 -3.0573
  391SOL    HW2 1173   2.235   1.084   1.004 -0.7103 -2.2874 -0.0769
  392SOL     OW 1174   0.955   2.584   0.017  0.6268  0.5003 -0.4380
  392SOL    HW1 1175   1.042   2.538  -0.018 -1.1430  0.7707 -0.6740
  392SOL    HW2 1176   0.905   2.520   0.086 -0.4282 -1.7307 -1.0215
  393SOL     OW 1177   0.315   0.651   2.002 -0.0268 -0.9787  0.0118
  393SOL    HW1 1178   0.323   0.545   2.010  0.3440 -0.7203  0.0619
  393SOL    HW2 1179   0.353   0.684   1.915 -1.5787 -1.5977  1.7365
  394SOL     OW 1180   0.008   1.956   2.649 -0.3347  0.2520 -0.2203
  394SOL    HW1 1181   0.090   1.920   2.697 -1.2567  4.2309  1.8007
  394SOL    HW2 1182  -0.061   1.886   2.612  1.9310 -0.0793 -1.2207
  395SOL     OW 1183   1.628   1.957   0.615  0.4185 -0.2424 -0.1757
  395SOL    HW1 1184   1.685   1.888   0.563 -0.7599  0.5521  3.3687
  395SOL    HW2 1185   1.675   1.988   0.705  0.5003 -2.2010  1.8246
  396SOL     OW 1186   2.924   1.930   1.361  0.5287  0.0759 -0.4753
  396SOL    HW1 1187   2.959   1.833   1.349 -0.8675  1.6442  2.4137
  396SOL    HW2 1188   2.884   1.948   1.454 -0.5485  0.4532 -1.2765
  397SOL     OW 1189   1.047   2.213   0.485 -0.1668  0.2435 -0.2532
  397SOL    HW1 1190   0.959   2.179   0.527  0.3768 -1.3038 -1.2540
  397SOL    HW2 1191   1.068   2.312   0.511 -0.4811 -0.3685 -0.2280
  398SOL     OW 1192   2.154  -0.002   1.165 -0.1407 -0.1416 -0.0549
  398SOL    HW1 1193   2.062  -0.046   1.179  1.0702  0.5377 -1.4378
  398SOL    HW2 1194   2.137   0.095   1.121  1.8852  1.4372  1.8158
  399SOL     OW 1195   0.009   2.409   2.609  0.4165  0.1030  0.4377
  399SOL    HW1 1196  -0.080   2.353   2.620  1.9981 -2.2897 -0.2228
  399SOL    HW2 1197   0.080   2.370   2.672  1.0816  2.8926 -0.1650
  400SOL     OW 1198   0.725   1.709   1.383  0.0661  0.4121  0.1833
  400SOL    HW1 1199   0.693   1.739   1.477  1.0913  0.0835 -2.0850
  400SOL    HW2 1200   0.772   1.781   1.327  1.3813 -2.3545  1.6206
  401SOL     OW 1201   1.860   0.347   1.144  0.3750  0.2346 -0.2935
  401SOL    HW1 1202   1.868   0.324   1.244  0.2710  2.1617 -0.3559
  401SOL    HW2 1203   1.764   0.354   1.111 -2.4996  0.4140  2.4298
  402SOL     OW 1204   1.358   0.277   3.083  0.2067  0.5118  0.2504
  402SOL    HW1 1205   1.412   0.209   3.019 -1.4873 -1.2351  0.2182
  402SOL    HW2 1206   1.291   0.337   3.026 -0.6606  0.0606  0.5159
  403SOL     OW 1207   2.230   1.908   0.837  0.6932  0.2447  0.2081
  403SOL    HW1 1208   2.324   1.948   0.812  1.8233  3.7227 -2.2259
  403SOL    HW2 1209   2.195   1.941   0.929 -0.9385 -0.1107  1.6793
  404SOL     OW 1210   0.302   2.524   2.752 -0.2653  0.2300 -0.0893
  404SOL    HW1 1211   0.365   2.473   2.685  0.2697  2.1427  2.2539
  404SOL    HW2 1212   0.281   2.618   2.719  1.4860 -0.4769  0.3935
  405SOL     OW 1213   0.174   2.412   0.649  0.0887  0.1674  0.1856
  405SOL    HW1 1214   0.136   2.334   0.585  0.4278 -0.6958 -2.0289
  405SOL    HW2 1215   0.245   2.480   0.606  2.1550  3.7905 -2.3294
  406SOL     OW 1216   0.070   1.557   3.041  0.1428 -0.1220 -0.3219
  406SOL    HW1 1217   0.138   1.508   2.975  0.5924 -1.2676  2.0293
  406SOL    HW2 1218   0.098   1.554   3.143 -0.5607  1.8658  1.6637
  407SOL     OW 1219   1.624   0.875   0.957  0.3032  0.2400  0.6607
  407SOL    HW1 1220   1.617   0.850   0.856 -0.2900 -1.5076  0.1189
  407SOL    HW2 1221   1.567   0.954   0.983 -1.3996  0.6014  1.2872
  408SOL     OW 1222   1.612   2.447   0.970  0.2509  0.2774 -0.5420
  408SOL    HW1 1223   1.657   2.411   0.882 -2.6642 -1.8955  1.2036
  408SOL    HW2 1224   1.556   2.532   0.962 -1.1229 -1.4001  1.7069
  409SOL     OW 1225   0.593   0.817   0.689 -0.0040  0.5306  0.3973
  409SOL    HW1 1226   0.541   0.806   0.598  1.0803 -1.0486  0.6670
  409SOL    HW2 1227   0.618   0.728   0.733 -0.6540  2.2172 -0.9866
  410SOL     OW 1228   1.204   2.062   1.437 -0.4341  0.4017  0.2825
  410SOL    HW1 1229   1.276   1.985   1.446  1.4000  0.5254  1.3478
  410SOL    HW2 1230   1.113   2.026   1.412  3.0842 -0.8793  0.0284
  411SOL     OW 1231   2.552   1.796   2.944 -0.0092 -0.5067 -0.6686
  411SOL    HW1 1232   2.608   1.879   2.909  2.6305  0.6075 -1.2897
  411SOL    HW2 1233   2.507   1.738   2.871 -1.2088 -1.1268  0.9561
  412SOL     OW 1234   1.504   2.459   2.183  0.1859  0.2775  0.8249
  412SOL    HW1 1235   1.581   2.489   2.245 -2.5825  1.1872  0.4432
  412SOL    HW2 1236   1.415   2.441   2.235  0.6428  0.3216  0.8692
  413SOL     OW 1237   0.016   0.287   3.003 -0.7091 -0.0529 -0.5691
  413SOL    HW1 1238  -0.016   0.195   3.031 -1.0404 -0.8780 -1.2235
  413SOL    HW2 1239   0.118   0.297   3.019 -0.2568 -0.7037  1.4328
  414SOL     OW 1240   1.746   1.533   1.108  0.3169  0.6994  0.0197
  414SOL    HW1 1241   1.684   1.602   1.159 -0.6106 -2.6151 -0.3100
  414SOL    HW2 1242   1.758   1.557   1.012 -0.3681 -0.8759  4.0306
  415SOL     OW 1243   0.365   2.192   0.643  0.1677  0.2558 -0.1554
  415SOL    HW1 1244   0.390   2.287   0.681  0.2452  1.3517 -2.5449
  415SOL    HW2 1245   0.257   2.172   0.642 -1.4984 -2.5153 -0.7196
  416SOL     OW 1246   0.346   1.084   1.057 -0.1962 -0.3311 -0.1320
  416SOL    HW1 1247   0.335   1.007   0.984  0.2207 -0.5796 -0.1244
  416SOL    HW2 1248   0.444   1.123   1.069 -0.0603  0.0578  1.1517
  417SOL     OW 1249   2.307   2.432   2.156 -0.1637  0.2965  0.1439
  417SOL    HW1 1250   2.264   2.338   2.136 -2.7290 -1.8928 -0.3420
  417SOL    HW2 1251   2.267   2.477   2.243 -0.5597  1.5183  3.1968
  418SOL     OW 1252   1.056   0.502   1.329  0.6929 -0.5242 -0.2164
  418SOL    HW1 1253   0.980   0.479   1.256  0.0319 -3.1488 -0.7879
  418SOL    HW2 1254   1.148   0.538   1.300 -0.3815  1.3989 -1.8955
  419SOL     OW 1255   0.901   0.567   2.980  0.5297  0.8049  0.3841
  419SOL    HW1 1256   0.811   0.586   2.937  0.0195 -3.0416 -0.5344
  419SOL    HW2 1257   0.953   0.651   3.019 -0.7183 -0.2400  0.1313
  420SOL     OW 1258   0.088   2.181   0.512 -0.1094 -0.1280  0.1005
  420SOL    HW1 1259   0.103   2.163   0.407  1.2916 -2.7922 -3.8820
  420SOL    HW2 1260   0.014   2.114   0.550 -0.4017 -2.4785  1.4579
  421SOL     OW 1261   0.363   2.960   0.557  0.1960 -0.6768  0.1819
  421SOL    HW1 1262   0.342   2.930   0.653  0.7737 -0.3039 -0.8551
  421SOL    HW2 1263   0.447   3.026   0.556  1.4886 -0.7849 -0.4345
  422SOL     OW 1264   1.018   2.545   0.958 -0.0376 -0.2808  0.1724
  422SOL    HW1 1265   1.078   2.611   0.904  1.5418 -0.0580 -1.4340
  422SOL    HW2 1266   1.063   2.513   1.047  2.7443 -0.0543  0.0554
  423SOL     OW 1267   0.168   0.647   1.232  0.3571 -0.2265 -0.3846
  423SOL    HW1 1268   0.099   0.607   1.299 -0.3848 -1.8625 -0.2597
  423SOL    HW2 1269   0.131   0.719   1.164 -0.3506 -1.6208 -1.0748
  424SOL     OW 1270   1.130   2.174   2.061 -0.2204 -0.1167  0.3696
  424SOL    HW1 1271   1.087   2.267   2.053  0.9253  0.3208 -3.7349
  424SOL    HW2 1272   1.104   2.129   2.152  0.2357 -0.7909  0.1736
  425SOL     OW 1273   1.990   1.258   0.987  0.9547  0.3519 -0.3785
  425SOL    HW1 1274   2.078   1.214   1.026 -0.2535  1.0321 -2.8777
  425SOL    HW2 1275   1.980   1.362   0.988 -1.2415 -0.9665  0.6513
  426SOL     OW 1276   1.471   1.652   1.241 -0.3975  0.3619 -0.2316
  426SOL    HW1 1277   1.474   1.752   1.210  1.7940 -1.0556  1.6391
  426SOL    HW2 1278   1.406   1.637   1.323  1.4389 -1.6570  0.8998
  427SOL     OW 1279   1.964   2.431   2.097  0.5160 -0.4028  0.1867
  427SOL    HW1 1280   2.029   2.374   2.147 -2.0225  1.7170 -1.5994
  427SOL    HW2 1281   1.975   2.533   2.101 -1.7992 -0.2474  0.2142
  428SOL     OW 1282   0.878   3.100   0.035  0.3459 -0.6704  0.2015
  428SOL    HW1 1283   0.920   3.161  -0.043 -0.2206  1.6953 -0.7255
  428SOL    HW2 1284   0.942   3.025   0.066 -0.6909  1.3150  1.4213
  429SOL     OW 1285   1.303   0.192   0.231  0.1800  0.1395 -0.0179
  429SOL    HW1 1286   1.389   0.170   0.286  2.9732  2.2059 -1.1576
  429SOL    HW2 1287   1.326   0.223   0.135  1.9003  0.9284  3.6145
  430SOL     OW 1288   2.941   1.437   0.302 -0.1617  0.1684  0.1787
  430SOL    HW1 1289   2.952   1.495   0.215  2.7698 -3.5826  0.8120
  430SOL    HW2 1290   2.926   1.477   0.392  1.2960 -2.5144  1.5203
  431SOL     OW 1291   2.079   1.542   0.904 -0.0651 -0.3048  0.4634
  431SOL    HW1 1292   2.179   1.568   0.905  0.7492  0.8465 -0.2114
  431SOL    HW2 1293   2.018   1.615   0.944  1.5015  0.7399 -0.0261
  432SOL     OW 1294   2.936   2.175   1.197  0.0020 -0.1577 -0.1469
  432SOL    HW1 1295   2.926   2.088   1.257 -1.1944  1.5176 -1.3071
  432SOL    HW2 1296   2.973   2.253   1.258 -1.4157  0.3113  1.2229
  433SOL     OW 1297   1.875   0.234   0.836  0.2094 -0.3004 -0.2376
  433SOL    HW1 1298   1.804   0.306   0.848  2.9246 -2.6274  3.6068
  433SOL    HW2 1299   1.937   0.225   0.914  0.2150 -0.5981  0.8907
  434SOL     OW 1300   1.565   0.267   0.725 -0.2477 -0.3004 -0.1311
  434SOL    HW1 1301   1.563   0.345   0.653  1.2803  2.4332  2.7003
  434SOL    HW2 1302   1.597   0.302   0.817  2.9127  0.3932  0.5953
  435SOL     OW 1303   1.497   1.475   2.109  0.1376  0.3145  0.1826
  435SOL    HW1 1304   1.493   1.501   2.208  3.1038 -1.1985 -2.3683
  435SOL    HW2 1305   1.499   1.561   2.044  2.3164 -0.5072  0.5641
  436SOL     OW 1306   1.720   2.720   2.272  0.0357 -0.1655  0.0873
  436SOL    HW1 1307   1.650   2.773   2.326 -2.2720  0.2124 -0.8435
  436SOL    HW2 1308   1.740   2.628   2.316 -0.1984  2.0308  0.6452
  437SOL     OW 1309   1.144   2.994   0.900  0.0010  1.1421 -0.1537
  437SOL    HW1 1310   1.057   3.046   0.882 -0.3519 -1.7001  0.2819
  437SOL    HW2 1311   1.148   2.964   1.001 -0.9923  2.7504  1.1810
  438SOL     OW 1312   1.028   2.702   1.531  0.5127  0.4421  0.2738
  438SOL    HW1 1313   1.127   2.701   1.492  2.3735 -2.0552 -0.2680
  438SOL    HW2 1314   0.962   2.632   1.485 -1.2583 -1.5496  1.0138
  439SOL     OW 1315   0.702   1.870   1.119 -0.1017 -0.4169  0.2374
  439SOL    HW1 1316   0.706   1.972   1.107 -2.2259 -0.6194  1.0338
  439SOL    HW2 1317   0.604   1.833   1.110  0.9434 -1.1842  0.4908
  440SOL     OW 1318   1.024   2.444   1.978 -0.0375 -0.6414  0.1529
  440SOL    HW1 1319   0.951   2.459   1.905  1.4879 -0.0464 -0.3490
  440SOL    HW2 1320   1.124   2.450   1.943  1.9290 -0.4583 -0.5962
  441SOL     OW 1321   0.416   2.699   1.508  0.2255 -0.3787 -0.6295
  441SOL    HW1 1322   0.489   2.634   1.535 -1.3842 -0.8745 -0.0560
  441SOL    HW2 1323   0.373   2.678   1.418  5.2348  1.3590 -0.5288
  442SOL     OW 1324   2.241   0.698   2.528 -0.4878 -0.0639  0.2082
  442SOL    HW1 1325   2.255   0.602   2.566  0.2733  0.5038 -0.2780
  442SOL    HW2 1326   2.150   0.736   2.571 -1.8022  1.9089 -1.4874
  443SOL     OW 1327   1.206   2.670   2.241 -0.0179 -0.0494  0.7354
  443SOL    HW1 1328   1.175   2.712   2.331 -1.9666  0.1506  0.4232
  443SOL    HW2 1329   1.237   2.576   2.257 -0.6255  0.4927  0.0657
  444SOL     OW 1330   1.020   1.309   1.554 -0.0842 -0.1630  0.4430
  444SOL    HW1 1331   1.123   1.303   1.549 -0.1607 -4.6079 -1.2847
  444SOL    HW2 1332   0.991   1.400   1.510  1.1931 -0.7784  1.0003
  445SOL     OW 1333   3.083   2.376   1.913 -0.3191  0.0822 -0.4514
  445SOL    HW1 1334   3.111   2.464   1.865  0.1197 -0.6872 -0.7367
  445SOL    HW2 1335   2.985   2.371   1.939 -0.1172 -0.0831 -2.2312
  446SOL     OW 1336   0.178   1.915   2.406  0.1424  0.0353 -0.4910
  446SOL    HW1 1337   0.157   2.006   2.448  0.8349 -1.6034  1.2120
  446SOL    HW2 1338   0.123   1.904   2.320 -2.2068  2.8634  0.9597
  447SOL     OW 1339   1.222   1.602   1.928 -0.0253 -0.3073 -0.6859
  447SOL    HW1 1340   1.155   1.677   1.895 -0.5643  0.7564  0.7902
  447SOL    HW2 1341   1.312   1.646   1.943 -1.1115 -1.6788 -4.1891
  448SOL     OW 1342   0.158   1.568   1.924  0.7607 -0.1697 -0.1596
  448SOL    HW1 1343   0.126   1.667   1.949  2.2020 -2.1206  0.3886
  448SOL    HW2 1344   0.242   1.548   1.975 -1.6199  1.1318  0.4228
  449SOL     OW 1345   1.996   2.889   0.915 -0.1358 -0.7503  0.2836
  449SOL    HW1 1346   2.040   2.870   1.011 -0.6648 -1.1737  1.7519
  449SOL    HW2 1347   1.967   2.802   0.862 -3.3078 -0.8957  0.0524
  450SOL     OW 1348   2.279   1.337   0.939  0.5675  0.7354  0.0171
  450SOL    HW1 1349   2.313   1.242   0.914 -0.3572 -0.9241  1.3771
  450SOL    HW2 1350   2.195   1.378   0.895  3.2971 -1.1334 -0.9701
  451SOL     OW 1351   1.412   0.007   1.426 -0.8602 -0.3683 -0.1843
  451SOL    HW1 1352   1.309   0.008   1.411  0.0751 -0.7370 -0.5631
  451SOL    HW2 1353   1.433  -0.023   1.523 -0.3322 -0.5907 -1.0973
  452SOL     OW 1354   2.671   2.369   2.237 -0.2863 -0.0440 -0.5496
  452SOL    HW1 1355   2.614   2.460   2.248  0.2798 -3.0852 -0.3993
  452SOL    HW2 1356   2.720   2.340   2.327  1.6508  0.2696  1.0572
  453SOL     OW 1357   2.480   2.634   3.061  0.6591  0.0345 -0.1219
  453SOL    HW1 1358   2.392   2.684   3.064  1.0475 -0.7768 -0.1922
  453SOL    HW2 1359   2.473   2.553   2.993  0.0128  0.1616  0.6949
  454SOL     OW 1360   0.997   1.141   2.041  0.8166  0.8700 -0.3218
  454SOL    HW1 1361   0.982   1.188   1.950 -1.0503  1.8950 -1.2720
  454SOL    HW2 1362   1.088   1.100   2.057 -2.4731 -2.3640  0.2132
  455SOL     OW 1363   0.641   2.568   2.907  0.3624 -0.4696  0.1409
  455SOL    HW1 1364   0.688   2.652   2.947  0.0479 -0.5859  0.2810
  455SOL    HW2 1365   0.650   2.480   2.969 -2.9083 -1.9227 -0.9080
  456SOL     OW 1366   0.478   1.785   0.267  0.2183  0.0424 -0.1471
  456SOL    HW1 1367   0.536   1.721   0.330  3.3230  0.9320  0.8211
  456SOL    HW2 1368   0.536   1.857   0.228 -0.4416  1.6516  1.6482
  457SOL     OW 1369   0.381   2.588   0.570  0.2408 -0.0817 -0.3705
  457SOL    HW1 1370   0.400   2.649   0.488  1.1305 -1.7052 -0.2505
  457SOL    HW2 1371   0.468   2.563   0.624  0.3366  1.7088  2.3622
  458SOL     OW 1372   2.990   2.966   1.194  0.0937  0.1185  0.1129
  458SOL    HW1 1373   2.983   3.069   1.181 -1.2066 -0.3179  1.1416
  458SOL    HW2 1374   2.974   2.907   1.105 -3.3563 -1.8499  3.4892
  459SOL     OW 1375   2.174   2.607   0.854 -0.3959 -0.3030  0.4395
  459SOL    HW1 1376   2.198   2.681   0.921  1.3189 -3.8324 -0.8471
  459SOL    HW2 1377   2.255   2.574   0.798  0.0920  0.7121 -0.2578
  460SOL     OW 1378   1.083   1.963   2.896 -0.5802  0.3111 -0.3113
  460SOL    HW1 1379   1.108   2.039   2.832 -0.2214 -0.9830 -1.6999
  460SOL    HW2 1380   1.165   1.913   2.939  0.8941 -2.5573 -0.7804
  461SOL     OW 1381   0.528   2.129   2.671 -0.2946  0.1777  0.1538
  461SOL    HW1 1382   0.458   2.053   2.656 -4.6732  2.5457  0.7436
  461SOL    HW2 1383   0.570   2.125   2.766  0.6954  0.1393 -2.6822
  462SOL     OW 1384   0.945   1.154   1.772  0.5314 -0.0511  0.4674
  462SOL    HW1 1385   0.987   1.066   1.743 -0.7338 -3.3032 -3.4682
  462SOL    HW2 1386   0.959   1.228   1.698 -2.2370 -0.6119 -1.9366
  463SOL     OW 1387   0.450   0.765   0.455 -0.6336  0.5376  0.2233
  463SOL    HW1 1388   0.476   0.663   0.439  1.1557  1.5805 -0.9906
  463SOL    HW2 1389   0.345   0.772   0.473 -2.5741 -0.4402 -0.1351
  464SOL     OW 1390   0.530   2.241   2.245 -0.2193  0.2497 -0.1454
  464SOL    HW1 1391   0.440   2.289   2.271 -0.6876  0.2682 -1.4948
  464SOL    HW2 1392   0.577   2.291   2.165  1.4348 -1.4872 -0.3854
  465SOL     OW 1393   0.325   0.882   0.883 -0.3147 -0.3508 -0.2204
  465SOL    HW1 1394   0.233   0.864   0.840  1.2070  0.2372  1.2403
  465SOL    HW2 1395   0.400   0.814   0.856  1.6863  1.7282 -1.3742
  466SOL     OW 1396   1.387   1.099   1.156 -0.0943 -0.3082  0.3987
  466SOL    HW1 1397   1.441   1.184   1.131 -0.8284  0.6165  0.1866
  466SOL    HW2 1398   1.295   1.104   1.111  1.1325  0.0056 -0.1377
  467SOL     OW 1399   0.509   0.354   2.427  0.8547 -0.6946  0.5690
  467SOL    HW1 1400   0.506   0.429   2.495  0.3008  0.6704 -2.7881
  467SOL    HW2 1401   0.510   0.253   2.462  0.4874 -1.0058  0.3154
  468SOL     OW 1402   0.476   2.267   1.734 -0.4062  0.2259 -0.3308
  468SOL    HW1 1403   0.463   2.344   1.803 -2.0066  0.1551 -0.8760
  468SOL    HW2 1404   0.463   2.296   1.635 -1.3718 -1.0160  1.6281
  469SOL     OW 1405   1.590   1.291   1.122  0.5263 -0.2842  0.2129
  469SOL    HW1 1406   1.661   1.215   1.145  1.3614 -0.2102 -1.8797
  469SOL    HW2 1407   1.627   1.388   1.116  0.2171 -1.1526 -0.7702
  470SOL     OW 1408   3.006   1.607   0.755 -0.0645 -0.2459 -0.6217
  470SOL    HW1 1409   3.095   1.629   0.796 -0.8630 -2.0707 -1.1718
  470SOL    HW2 1410   2.932   1.672   0.786  1.8489  0.2975 -2.3560
  471SOL     OW 1411   2.576   1.296   2.192 -0.3258 -0.4295  0.0649
  471SOL    HW1 1412   2.578   1.209   2.250 -1.2524  0.0013 -1.2629
  471SOL    HW2 1413   2.597   1.383   2.253  0.4817  2.0425 -0.3708
  472SOL     OW 1414   1.215   2.445   3.042  0.7492 -0.3524 -0.8629
  472SOL    HW1 1415   1.248   2.470   3.139  1.1684  0.3678 -2.0304
  472SOL    HW2 1416   1.191   2.346   3.022 -0.2343 -1.9730  0.9790
  473SOL     OW 1417   1.081   1.501   0.885  0.7678 -0.2250 -0.0858
  473SOL    HW1 1418   1.000   1.549   0.930  0.4919 -0.0391  2.0650
  473SOL    HW2 1419   1.155   1.483   0.954  0.5437  1.5222 -2.0628
  474SOL     OW 1420   0.737   1.251   0.764 -0.1941 -0.0241 -0.2165
  474SOL    HW1 1421   0.730   1.234   0.662 -0.5398  0.1204 -3.2498
  474SOL    HW2 1422   0.829   1.225   0.801  0.5217 -0.9645 -0.1483
  475SOL     OW 1423   2.863   0.018   0.818  0.0592 -0.3804 -0.8931
  475SOL    HW1 1424   2.941   0.012   0.886 -0.4094 -2.9026 -1.9658
  475SOL    HW2 1425   2.772   0.040   0.866  3.3499  0.2227 -1.8645
  476SOL     OW 1426   0.942   3.052   1.922 -0.9434  0.0930 -0.5771
  476SOL    HW1 1427   1.017   3.038   1.993  1.2590  3.0347 -2.4414
  476SOL    HW2 1428   0.947   2.979   1.844  0.9500 -0.2269 -1.1106
  477SOL     OW 1429   1.476   0.357   2.428 -0.2077 -0.7967  0.2649
  477SOL    HW1 1430   1.461   0.327   2.528 -1.4594 -1.7551 -0.4763
  477SOL    HW2 1431   1.559   0.310   2.388 -0.1843  0.8449  3.1013
  478SOL     OW 1432   2.192   1.839   0.243 -0.4488 -0.4264 -0.6438
  478SOL    HW1 1433   2.114   1.769   0.224 -1.6320 -1.0588 -1.8144
  478SOL    HW2 1434   2.280   1.801   0.209 -1.1547 -1.8332 -1.9682
  479SOL     OW 1435   1.296   1.136   2.927  0.0375  0.0008  0.2203
  479SOL    HW1 1436   1.361   1.188   2.863  4.5874 -0.0407 -0.1938
  479SOL    HW2 1437   1.217   1.093   2.872 -0.4663  1.9582  1.6812
  480SOL     OW 1438   2.503   2.348   0.455  0.2119 -0.1665  0.7269
  480SOL    HW1 1439   2.447   2.270   0.482  1.7677  1.0512  2.4004
  480SOL    HW2 1440   2.469   2.384   0.360 -0.7950 -0.0809 -0.8501
  481SOL     OW 1441   1.058   1.158   0.862 -0.1110 -0.0851  0.4047
  481SOL    HW1 1442   1.058   1.234   0.792 -0.8842  1.4273  3.3337
  481SOL    HW2 1443   1.073   1.188   0.958 -2.8383 -0.3262 -1.6122
  482SOL     OW 1444   1.575   0.276   2.007 -1.1048 -0.4056 -0.1196
  482SOL    HW1 1445   1.573   0.379   1.998 -0.3200  2.0092 -2.0628
  482SOL    HW2 1446   1.665   0.243   2.055  2.0093 -0.7886 -1.4068
  483SOL     OW 1447   0.174   2.355   1.345  0.7380 -0.1793 -0.6079
  483SOL    HW1 1448   0.074   2.359   1.371  3.1895 -0.5657 -0.4457
  483SOL    HW2 1449   0.184   2.374   1.246  1.8003  1.0892  1.7025
  484SOL     OW 1450   1.714   0.952   1.392  0.5080 -0.2554  0.1200
  484SOL    HW1 1451   1.802   0.951   1.450  0.8786 -1.5471  4.2653
  484SOL    HW2 1452   1.727   1.014   1.307  0.9018 -1.0864 -1.1051
  485SOL     OW 1453   0.675   1.115   1.782  0.0996  0.1898 -0.7890
  485SOL    HW1 1454   0.658   1.079   1.685  2.1464  0.9219  0.6992
  485SOL    HW2 1455   0.775   1.134   1.804  0.1598  1.8983 -0.4706
  486SOL     OW 1456   0.852   1.946   2.448 -0.6356  0.8223 -0.6156
  486SOL    HW1 1457   0.870   1.891   2.533  0.3161  0.1896  1.9913
  486SOL    HW2 1458   0.785   2.025   2.459 -2.2074  2.1988  0.2914
  487SOL     OW 1459   1.760   1.587   0.828 -0.6250  0.6541 -0.5658
  487SOL    HW1 1460   1.733   1.503   0.774  0.4842 -1.5186 -0.7162
  487SOL    HW2 1461   1.819   1.653   0.775  0.0338  2.8253 -1.0836
  488SOL     OW 1462   2.982   0.981   2.209 -0.2106  0.1182 -0.0724
  488SOL    HW1 1463   2.963   0.881   2.219 -0.8431 -0.3770  0.3172
  488SOL    HW2 1464   3.083   0.996   2.205 -4.2590  1.8472 -1.4473
  489SOL     OW 1465   2.777   0.221   1.370  0.0494  0.2464  0.3650
  489SOL    HW1 1466   2.765   0.217   1.472  2.7500  0.7165 -0.0280
  489SOL    HW2 1467   2.875   0.202   1.337 -1.7426  0.9551 -1.1024
  490SOL     OW 1468   1.367   3.010   2.802 -0.6025  0.3353  0.0522
  490SOL    HW1 1469   1.417   2.924   2.811  1.2137  3.6526  0.2199
  490SOL    HW2 1470   1.359   3.038   2.705 -2.9269  1.3189  3.3151
  491SOL     OW 1471   1.864   1.519   2.689  0.0138 -1.1546  0.7696
  491SOL    HW1 1472   1.826   1.490   2.780 -0.8464 -1.0175  3.0671
  491SOL    HW2 1473   1.968   1.511   2.678 -1.4625  1.6739 -3.8497
  492SOL     OW 1474   0.493   1.943   0.687  0.0313  0.1608 -0.4167
  492SOL    HW1 1475   0.578   1.934   0.741 -0.1651  1.5957  1.1174
  492SOL    HW2 1476   0.464   2.046   0.668 -0.2705  2.6975 -3.1280
  493SOL     OW 1477   0.513   1.426   2.116  0.4794  0.2161 -0.6508
  493SOL    HW1 1478   0.422   1.472   2.140 -0.1270 -0.3322 -1.1481
  493SOL    HW2 1479   0.522   1.333   2.162 -0.4574  0.2643 -2.2898
  494SOL     OW 1480   2.599   2.553   0.197 -0.1586 -0.0214  0.0132
  494SOL    HW1 1481   2.690   2.503   0.228  1.7691  0.7335  1.1064
  494SOL    HW2 1482   2.599   2.577   0.096  1.0263 -0.0999  0.8479
  495SOL     OW 1483   2.735   2.699   2.690 -0.1460  0.4207 -0.2237
  495SOL    HW1 1484   2.711   2.608   2.654 -0.9755 -1.0781  0.6462
  495SOL    HW2 1485   2.738   2.773   2.614  0.0801 -0.6072 -0.5410
  496SOL     OW 1486   2.089   2.197   0.698 -0.3019 -0.2687  0.2251
  496SOL    HW1 1487   2.146   2.243   0.765 -1.1877 -1.4813 -3.0873
  496SOL    HW2 1488   2.080   2.090   0.713 -0.6107 -0.7084 -1.9944
  497SOL     OW 1489   0.244   2.958   2.382 -0.1872  0.1975 -0.5645
  497SOL    HW1 1490   0.226   3.039   2.442 -0.0376 -1.3646  2.9909
  497SOL    HW2 1491   0.273   2.985   2.289  1.5821 -2.3606 -0.0203
  498SOL     OW 1492   1.258   1.498   1.110 -0.4713  0.0327  0.0536
  498SOL    HW1 1493   1.350   1.533   1.149  2.2279 -2.4377  0.0694
  498SOL    HW2 1494   1.176   1.540   1.158  3.3399 -1.2105 -1.7115
  499SOL     OW 1495   0.846   1.819   0.488  0.4579 -0.1853  1.0069
  499SOL    HW1 1496   0.801   1.727   0.482  0.6195  0.5317  0.2654
  499SOL    HW2 1497   0.872   1.844   0.580  1.7395  0.6978 -0.6832
  500SOL     OW 1498   1.440   2.965   1.663 -0.2955  0.3372  0.4889
  500SOL    HW1 1499   1.363   2.965   1.732  1.3264  0.5695 -0.5056
  500SOL    HW2 1500   1.488   2.874   1.654  1.6192 -0.0265 -1.5470
  501SOL     OW 1501   0.851   1.119   2.264  0.2891 -0.5942  0.0670
  501SOL    HW1 1502   0.776   1.051   2.244  4.3938  0.8359  3.4942
  501SOL    HW2 1503   0.912   1.136   2.180 -0.9269  1.3397 -2.0833
  502SOL     OW 1504   2.572   0.933   1.763  0.1955 -0.8565  0.7335
  502SOL    HW1 1505   2.545   0.938   1.665 -1.5100  0.0780  1.1818
  502SOL    HW2 1506   2.536   0.852   1.815  0.2869  0.1719 -1.9127
  503SOL     OW 1507   1.319   0.197   0.572  0.3292  0.9903 -0.1144
  503SOL    HW1 1508   1.246   0.271   0.586  0.3514  1.4179 -1.3807
  503SOL    HW2 1509   1.413   0.220   0.610  1.6952 -2.5375  3.4626
  504SOL     OW 1510   2.957   2.315   1.422  0.1445  0.2685  0.1994
  504SOL    HW1 1511   2.951   2.395   1.484 -1.8161  0.1737 -0.4698
  504SOL    HW2 1512   2.888   2.239   1.441  0.1719  2.3280  0.6155
  505SOL     OW 1513   2.288   1.280   1.440  0.0684 -0.1118 -0.4609
  505SOL    HW1 1514   2.262   1.364   1.491 -0.4774  0.0045 -0.6961
  505SOL    HW2 1515   2.391   1.258   1.452  2.3097  0.1389 -0.1118
  506SOL     OW 1516   1.880   0.335   1.753  0.4911 -0.0087  0.4714
  506SOL    HW1 1517   1.964   0.280   1.729 -0.2351  1.6540 -0.2077
  506SOL    HW2 1518   1.885   0.373   1.849 -1.8931 -3.5591 -0.8824
  507SOL     OW 1519   0.524   0.735   2.164  0.2954 -0.7458  0.1372
  507SOL    HW1 1520   0.436   0.715   2.109 -1.5651  1.4871 -0.4322
  507SOL    HW2 1521   0.581   0.650   2.176  1.1418  1.2246 -0.3025
  508SOL     OW 1522   0.154   1.643   0.838  0.3834  0.9213 -0.4872
  508SOL    HW1 1523   0.231   1.696   0.796 -0.1390  1.7844  1.4347
  508SOL    HW2 1524   0.141   1.671   0.943  2.1582  1.3792  1.3178
  509SOL     OW 1525   1.376   1.137   2.542  0.2643 -0.7385 -0.6704
  509SOL    HW1 1526   1.317   1.227   2.553 -4.0166  0.6740 -2.6539
  509SOL    HW2 1527   1.323   1.052   2.565  0.9767  2.5340 -0.0749
  510SOL     OW 1528   1.348   1.998   2.023  0.1327  0.2221 -0.5531
  510SOL    HW1 1529   1.264   2.053   2.029  3.2767 -0.7982 -1.1188
  510SOL    HW2 1530   1.354   1.915   2.090  1.4382 -1.5430 -2.7012
  511SOL     OW 1531   3.066   2.611   1.286  0.5216 -0.8776 -0.7468
  511SOL    HW1 1532   3.032   2.581   1.195  0.9927  0.7501  2.1745
  511SOL    HW2 1533   2.989   2.641   1.343  0.6208 -1.3070 -0.3883
  512SOL     OW 1534   2.413   0.362   1.444 -0.2225 -0.2371 -0.3127
  512SOL    HW1 1535   2.307   0.373   1.430 -1.7531 -0.7272 -2.7692
  512SOL    HW2 1536   2.451   0.270   1.433  0.8044  1.8905 -2.2368
  513SOL     OW 1537   2.457   2.038   0.810 -0.7843 -0.2114 -0.2298
  513SOL    HW1 1538   2.424   2.126   0.763 -0.4713 -0.3867 -0.5373
  513SOL    HW2 1539   2.550   2.013   0.769  0.7855  0.6216  0.8763
  514SOL     OW 1540   0.728   2.802   0.334  0.1307  0.0695 -0.0489
  514SOL    HW1 1541   0.696   2.871   0.268 -1.4239 -2.6463 -1.7440
  514SOL    HW2 1542   0.723   2.834   0.433  1.8208  2.6839 -0.2835
  515SOL     OW 1543   1.967   1.250   2.343  0.1551  0.0808 -0.1529
  515SOL    HW1 1544   1.909   1.291   2.267 -0.6001  1.1756 -1.5861
  515SOL    HW2 1545   1.916   1.239   2.429  2.6111 -2.5551  3.3457
  516SOL     OW 1546   0.347   0.383   1.984  1.0403 -0.0327 -0.1838
  516SOL    HW1 1547   0.437   0.355   1.940 -0.1070  0.3880 -0.7188
  516SOL    HW2 1548   0.261   0.320   1.960  0.2045 -0.4215 -2.4057
  517SOL     OW 1549   0.351   2.997   1.201  0.2048  0.7199  0.4139
  517SOL    HW1 1550   0.344   3.094   1.231  2.7086  0.9418 -0.9149
  517SOL    HW2 1551   0.294   2.930   1.260 -0.5610 -1.5967  1.8121
  518SOL     OW 1552   2.113   0.149   1.740 -0.1509 -0.3836  0.8693
  518SOL    HW1 1553   2.185   0.178   1.812  1.2365 -0.1580  1.4727
  518SOL    HW2 1554   2.143   0.071   1.681  0.2766  0.8548  1.4342
  519SOL     OW 1555   2.381   2.235   2.634  0.3582  0.1616 -0.2762
  519SOL    HW1 1556   2.295   2.234   2.686  4.2483  1.9736  0.7655
  519SOL    HW2 1557   2.402   2.325   2.589 -1.1319  0.6970  0.9537
  520SOL     OW 1558   1.742   2.884   1.803  0.4667 -0.1523 -0.1543
  520SOL    HW1 1559   1.660   2.855   1.862  0.6943  2.8501  0.3389
  520SOL    HW2 1560   1.824   2.817   1.797  0.4668  0.8704  1.7783
  521SOL     OW 1561   0.608   0.063   2.150  0.0184 -0.2643  0.2338
  521SOL    HW1 1562   0.508   0.043   2.176  0.5137 -2.2027 -2.3165
  521SOL    HW2 1563   0.678   0.030   2.220 -1.5381  0.4710 -0.5972
  522SOL     OW 1564   0.178   1.935   1.529 -0.5301  0.5479  0.3002
  522SOL    HW1 1565   0.251   1.943   1.606 -1.2576 -0.5609 -0.5053
  522SOL    HW2 1566   0.206   1.980   1.439 -0.6952 -2.9779 -1.9278
  523SOL     OW 1567   2.277   3.015   1.664  0.6274 -0.4873  0.4186
  523SOL    HW1 1568   2.309   2.929   1.611 -0.1661 -2.8176  4.4635
  523SOL    HW2 1569   2.179   2.998   1.685 -1.3918  2.3677 -0.7641
  524SOL     OW 1570   0.191   2.791   2.790 -0.2617  0.6179  0.0940
  524SOL    HW1 1571   0.149   2.881   2.834  0.6249 -0.7440 -0.6497
  524SOL    HW2 1572   0.289   2.767   2.814 -2.2783  0.1530 -3.9980
  525SOL     OW 1573   2.101   1.916   0.467  0.4786  0.2641 -0.0427
  525SOL    HW1 1574   2.107   1.833   0.533  2.3589 -0.3284  0.8297
  525SOL    HW2 1575   2.148   1.894   0.378 -3.2040 -0.8217  2.0163
  526SOL     OW 1576   0.381   1.528   1.548 -0.1618 -0.1039  0.6615
  526SOL    HW1 1577   0.322   1.478   1.615 -0.4359  1.0798  1.5009
  526SOL    HW2 1578   0.455   1.466   1.513  1.2494  1.1325  1.3392
  527SOL     OW 1579   1.149   2.890   1.143  0.2523 -0.2458 -0.4558
  527SOL    HW1 1580   1.242   2.847   1.164 -2.3219 -1.0457 -0.6985
  527SOL    HW2 1581   1.141   2.988   1.180 -0.7861  2.3771 -0.7125
  528SOL     OW 1582   1.302   2.409   0.489  0.2187  0.1486  0.5247
  528SOL    HW1 1583   1.324   2.309   0.503  1.6189 -0.3297  1.3879
  528SOL    HW2 1584   1.357   2.480   0.542 -0.5062  0.5238 -2.1966
  529SOL     OW 1585   1.914   1.746   0.678  0.2692 -0.0654 -0.8117
  529SOL    HW1 1586   1.875   1.746   0.582  0.0543  0.0214  0.5304
  529SOL    HW2 1587   2.012   1.770   0.679  0.2947  1.6734 -1.7503
  530SOL     OW 1588   0.338   2.502   0.239 -0.0362 -0.2435  0.4486
  530SOL    HW1 1589   0.345   2.595   0.287  1.9173  3.9050  2.3629
  530SOL    HW2 1590   0.419   2.451   0.269  0.2382  0.6243  0.5259
  531SOL     OW 1591   1.894   0.809   0.942 -0.2747  0.1076 -0.0720
  531SOL    HW1 1592   1.900   0.838   0.844 -1.3343 -1.1495  0.3289
  531SOL    HW2 1593   1.793   0.816   0.980 -0.8646  3.0244 -1.6631
  532SOL     OW 1594   0.452   1.086   0.739 -0.0051  0.1148  0.1093
  532SOL    HW1 1595   0.481   1.035   0.652 -2.8762 -2.4003  0.5957
  532SOL    HW2 1596   0.423   1.025   0.818  0.6197 -2.1608 -0.0785
  533SOL     OW 1597   1.737   0.037   2.580  0.2898  0.5825  0.1497
  533SOL    HW1 1598   1.834   0.003   2.603  1.7047 -0.8045  0.7278
  533SOL    HW2 1599   1.710   0.115   2.644  2.8970  0.4960 -1.4799
  534SOL     OW 1600   0.383   0.246   1.479  0.2028  0.3259 -0.2056
  534SOL    HW1 1601   0.473   0.242   1.536  0.5323  3.5578 -0.0576
  534SOL    HW2 1602   0.354   0.345   1.459  1.8841  2.3304 -2.0489
  535SOL     OW 1603   1.996   0.301   0.170  0.2652  0.0809  0.2466
  535SOL    HW1 1604   1.993   0.389   0.220  1.7169 -1.0628 -2.2765
  535SOL    HW2 1605   1.987   0.222   0.238  0.1273 -0.5892 -1.7910
  536SOL     OW 1606   1.390   2.616   0.978 -0.2347  0.6830  0.2391
  536SOL    HW1 1607   1.357   2.570   1.056  2.7306  1.2230 -1.2338
  536SOL    HW2 1608   1.316   2.644   0.912  1.6906 -1.6179 -2.4729
  537SOL     OW 1609   0.908   0.253   2.328  0.3159  0.5190  0.4123
  537SOL    HW1 1610   0.924   0.309   2.240  1.1324  2.4798  0.9621
  537SOL    HW2 1611   0.874   0.156   2.299 -0.2095 -1.9897  0.6307
  538SOL     OW 1612   1.628   2.353   1.407 -0.1056  0.0081 -0.0980
  538SOL    HW1 1613   1.602   2.256   1.441 -0.2443  1.2200  1.5563
  538SOL    HW2 1614   1.714   2.350   1.347 -1.7068 -0.1376 -1.3834
  539SOL     OW 1615   0.168   1.575   2.656 -0.4799 -0.2261 -0.0120
  539SOL    HW1 1616   0.077   1.552   2.620  1.6927 -0.7602  2.6256
  539SOL    HW2 1617   0.166   1.654   2.725 -1.0572  0.8806 -0.1952
  540SOL     OW 1618   2.681   1.767   1.955  0.0932  0.0744  0.0348
  540SOL    HW1 1619   2.615   1.685   1.972 -1.0269 -0.1512  0.1720
  540SOL    HW2 1620   2.635   1.861   1.990 -1.2178  0.0503  2.1930
  541SOL     OW 1621   0.462   2.131   3.053 -0.2774  0.1872  0.2110
  541SOL    HW1 1622   0.471   2.098   3.154  0.7520 -0.3374  2.9402
  541SOL    HW2 1623   0.362   2.135   3.021 -2.3804 -0.3915  1.2293
  542SOL     OW 1624   2.243   2.594   0.492 -0.7464 -0.0594  0.4058
  542SOL    HW1 1625   2.243   2.670   0.565 -0.2706  2.5480 -0.7283
  542SOL    HW2 1626   2.152   2.541   0.495 -2.1855 -1.8582 -3.0887
  543SOL     OW 1627   0.977   1.786   1.583 -0.8490  0.4098 -0.0717
  543SOL    HW1 1628   0.972   1.817   1.680 -0.4982 -3.4769 -2.0954
  543SOL    HW2 1629   0.966   1.864   1.514 -0.1987 -1.0719  0.1957
  544SOL     OW 1630   1.134   0.543   0.128  0.0142 -0.1178 -0.7764
  544SOL    HW1 1631   1.104   0.464   0.197 -1.1427  1.3309 -0.0719
  544SOL    HW2 1632   1.156   0.511   0.033  0.0599  1.6847  0.3163
  545SOL     OW 1633   1.131   1.772   0.816 -0.7264 -0.2229  0.0465
  545SOL    HW1 1634   1.218   1.823   0.792 -0.7967 -0.4985  0.8052
  545SOL    HW2 1635   1.139   1.667   0.816 -0.3319  1.9456  0.1534
  546SOL     OW 1636   2.715   1.578   3.022 -0.0997  0.0437  0.1351
  546SOL    HW1 1637   2.676   1.671   3.040  1.2801 -0.2536 -0.8850
  546SOL    HW2 1638   2.637   1.505   3.026 -0.7821 -2.9202  0.3947
  547SOL     OW 1639   0.746   3.020   2.597  0.1424 -0.1484 -0.1048
  547SOL    HW1 1640   0.787   2.981   2.693 -2.5173 -0.4824  0.7991
  547SOL    HW2 1641   0.667   2.971   2.566  2.4982  2.1579 -1.9766
  548SOL     OW 1642   2.012   0.813   0.007 -0.3482 -0.1676  1.0255
  548SOL    HW1 1643   1.913   0.786  -0.003 -1.6059  0.6463 -2.3696
  548SOL    HW2 1644   2.031   0.906  -0.037  0.7882  0.9441 -1.3439
  549SOL     OW 1645   0.688   0.479   0.180  0.7934 -0.6279 -0.0599
  549SOL    HW1 1646   0.624   0.493   0.098  3.0000 -0.7534 -0.7113
  549SOL    HW2 1647   0.757   0.557   0.189 -1.7778 -2.4057 -0.6196
  550SOL     OW 1648   2.603   2.811   2.908 -0.6604 -0.0547  0.0782
  550SOL    HW1 1649   2.548   2.744   2.960 -0.3752  1.3737 -0.0113
  550SOL    HW2 1650   2.652   2.770   2.824 -2.4719 -0.8951  0.0208
  551SOL     OW 1651   0.239   0.854   0.244 -0.0638 -0.2506  0.2153
  551SOL    HW1 1652   0.339   0.835   0.236  0.9625  2.0101 -1.4848
  551SOL    HW2 1653   0.215   0.850   0.348  1.0443  0.8281  4.2992
  552SOL     OW 1654   0.609   3.058   1.898 -0.4418  0.3577 -0.5355
  552SOL    HW1 1655   0.610   3.100   1.996  0.2160 -2.8860  0.9995
  552SOL    HW2 1656   0.701   3.035   1.865  1.7223  1.4799 -0.0070
  553SOL     OW 1657   3.058   2.404   0.394 -0.3336  0.3388  0.6546
  553SOL    HW1 1658   3.101   2.311   0.411 -1.1815  1.0892 -0.3444
  553SOL    HW2 1659   2.965   2.413   0.444 -4.1682  0.8283  1.9002
  554SOL     OW 1660   2.244   0.326   0.594  0.2658 -0.1389 -0.0196
  554SOL    HW1 1661   2.313   0.289   0.522  1.3664  0.6415 -0.1291
  554SOL    HW2 1662   2.223   0.251   0.663 -1.1639 -1.2566 -0.5693
  555SOL     OW 1663   0.469   2.809   2.540 -0.1077 -0.1668  0.9842
  555SOL    HW1 1664   0.410   2.883   2.490  0.9987  1.4247  0.2886
  555SOL    HW2 1665   0.492   2.730   2.482  1.5298  3.5042  3.0283
  556SOL     OW 1666   0.818   2.359   1.597 -0.3306 -0.0758  0.2077
  556SOL    HW1 1667   0.860   2.404   1.685 -2.3048  0.6563  0.8439
  556SOL    HW2 1668   0.861   2.398   1.512 -0.7312  2.5203  0.5755
  557SOL     OW 1669   0.097   2.177   0.239 -0.6277 -0.4998 -0.5454
  557SOL    HW1 1670   0.037   2.112   0.181 -2.2325 -2.3007 -0.4941
  557SOL    HW2 1671   0.142   2.260   0.189 -0.0850  3.9848 -2.5955
  558SOL     OW 1672   2.829   2.139   0.381  0.2886 -1.0014 -0.0683
  558SOL    HW1 1673   2.818   2.217   0.439 -4.4268 -3.2962 -0.4273
  558SOL    HW2 1674   2.764   2.149   0.303  2.8229  0.1546  1.8246
  559SOL     OW 1675   0.428   2.291   1.432  0.0500  0.6823 -0.4768
  559SOL    HW1 1676   0.334   2.316   1.394 -3.3987 -0.3013  1.4868
  559SOL    HW2 1677   0.471   2.223   1.367 -2.2151  1.9124  1.0487
  560SOL     OW 1678   2.168   1.070   0.044 -0.4131  0.6796  0.3888
  560SOL    HW1 1679   2.230   1.087   0.129  1.4574  2.2837 -0.9676
  560SOL    HW2 1680   2.218   1.042  -0.047  1.5495 -0.2443 -0.6240
  561SOL     OW 1681   3.021   1.980   0.126 -0.1096 -0.3050 -0.4280
  561SOL    HW1 1682   2.955   2.015   0.191  2.9663  1.4622 -1.6889
  561SOL    HW2 1683   2.986   1.961   0.031 -0.9618 -0.0065  1.2244
  562SOL     OW 1684   1.009   2.117   2.301 -0.2776  0.4326  0.5793
  562SOL    HW1 1685   1.002   2.212   2.342 -0.9456 -1.5826 -2.2924
  562SOL    HW2 1686   0.931   2.055   2.320 -1.0246  1.0511 -0.8344
  563SOL     OW 1687   0.700   2.486   2.646  0.5930 -0.0333  0.3678
  563SOL    HW1 1688   0.784   2.430   2.640 -0.1802  2.7506  1.2303
  563SOL    HW2 1689   0.688   2.525   2.743  2.6065 -0.2491 -0.1998
  564SOL     OW 1690   2.873   1.379   2.895  0.1783 -0.3201  0.1963
  564SOL    HW1 1691   2.815   1.453   2.933 -0.4301  0.3109 -0.5749
  564SOL    HW2 1692   2.958   1.411   2.849 -3.6261 -0.5639 -0.5147
  565SOL     OW 1693   2.498   1.970   2.647 -0.3243  0.7553  0.1174
  565SOL    HW1 1694   2.435   2.054   2.650  1.2607 -0.5075  1.1189
  565SOL    HW2 1695   2.593   1.998   2.678 -2.1437  3.0340 -0.8649
  566SOL     OW 1696   2.033   2.922   1.551  0.5612 -0.1513  0.6857
  566SOL    HW1 1697   1.960   2.840   1.555 -1.3062  1.3951  3.4126
  566SOL    HW2 1698   2.095   2.914   1.465  0.1675 -1.9394  0.7354
  567SOL     OW 1699   2.384   0.038   2.311  0.2820  0.0385  0.4746
  567SOL    HW1 1700   2.324   0.107   2.361  1.0902  0.8511  0.7779
  567SOL    HW2 1701   2.352   0.027   2.215  1.0362 -1.5950  1.6113
  568SOL     OW 1702   1.488   1.759   0.175  0.5841  0.7491 -0.0845
  568SOL    HW1 1703   1.422   1.835   0.177  0.6106 -1.0487 -2.5355
  568SOL    HW2 1704   1.581   1.782   0.209 -0.3960 -0.5132  0.4148
  569SOL     OW 1705   0.209   0.538   0.837  0.6078  0.4530 -0.0196
  569SOL    HW1 1706   0.227   0.474   0.755  0.2359 -2.5774 -0.8353
  569SOL    HW2 1707   0.112   0.569   0.850  0.9901 -0.2201  1.1009
  570SOL     OW 1708   0.649   0.794   2.901  0.0911 -0.5182 -0.6358
  570SOL    HW1 1709   0.656   0.833   2.801  1.1945 -0.5891 -0.5170
  570SOL    HW2 1710   0.684   0.858   2.973 -1.5677 -2.3543  0.1653
  571SOL     OW 1711   0.798   3.029   1.114  0.0963 -0.6099  0.3521
  571SOL    HW1 1712   0.866   3.100   1.081 -0.1555 -0.0798  2.3658
  571SOL    HW2 1713   0.822   2.928   1.099 -0.3420 -0.6900 -0.8668
  572SOL     OW 1714   1.661   2.733   1.382 -0.8779  0.2603 -0.6920
  572SOL    HW1 1715   1.735   2.717   1.309  3.5322 -1.3618  0.1393
  572SOL    HW2 1716   1.582   2.789   1.350  1.5620 -0.9527 -6.0431
  573SOL     OW 1717   3.051   0.481   1.944 -0.3590  0.5569  0.3989
  573SOL    HW1 1718   2.977   0.408   1.951  1.2777  1.0655  2.3076
  573SOL    HW2 1719   3.118   0.464   1.859 -0.0215 -0.4609  0.2644
  574SOL     OW 1720   0.136   1.691   1.122  0.8150  0.1405 -0.0210
  574SOL    HW1 1721   0.182   1.687   1.216  1.9312  4.9454 -1.7473
  574SOL    HW2 1722   0.073   1.774   1.117  0.5606  1.4807  0.1274
  575SOL     OW 1723   0.837   2.303   0.934 -0.2310 -0.3265  0.5207
  575SOL    HW1 1724   0.811   2.350   1.019  2.8957 -4.0898 -0.0561
  575SOL    HW2 1725   0.875   2.369   0.864 -1.2923 -0.5851 -1.8193
  576SOL     OW 1726   2.929   3.052   1.670 -0.1661  0.5349 -0.1157
  576SOL    HW1 1727   2.849   3.035   1.614  1.2456  0.0952  1.8756
  576SOL    HW2 1728   2.966   3.152   1.661 -0.5182 -0.4975 -0.8648
  577SOL     OW 1729   2.634   1.188   3.054 -0.2842 -0.7551 -0.1185
  577SOL    HW1 1730   2.658   1.108   2.988  2.1308 -0.4537  0.6643
  577SOL    HW2 1731   2.680   1.192   3.147  1.4652  0.6936  0.0469
  578SOL     OW 1732   1.392   2.744   2.565  1.0409  0.4218  0.0591
  578SOL    HW1 1733   1.292   2.762   2.539  0.0483 -1.0888 -1.6143
  578SOL    HW2 1734   1.462   2.806   2.520  1.1579 -0.4451  0.9304
  579SOL     OW 1735   0.064   2.461   0.139 -0.0092 -0.3384  0.3902
  579SOL    HW1 1736   0.020   2.467   0.232  1.4840  3.5087 -1.2607
  579SOL    HW2 1737   0.169   2.458   0.140 -1.9670 -0.0163 -2.4088
  580SOL     OW 1738   0.983   2.726   0.332  0.3733  0.2382 -0.6950
  580SOL    HW1 1739   1.050   2.715   0.252  0.5310  0.9175 -1.4619
  580SOL    HW2 1740   0.883   2.732   0.305 -0.1391  1.5501 -0.1849
  581SOL     OW 1741   1.264   2.709   1.392 -0.4197 -0.3987  0.0371
  581SOL    HW1 1742   1.310   2.624   1.422 -1.2754  0.1475  0.5495
  581SOL    HW2 1743   1.328   2.783   1.357 -1.6033 -1.2109 -0.1401
  582SOL     OW 1744   1.428   0.125   1.840  0.8187  0.5673 -0.0838
  582SOL    HW1 1745   1.485   0.174   1.910  1.0730 -1.3107  2.4405
  582SOL    HW2 1746   1.478   0.110   1.753  1.0909 -2.2218  1.5474
  583SOL     OW 1747   2.500   2.986   0.521 -0.0033 -0.3268  0.6764
  583SOL    HW1 1748   2.560   2.943   0.447  1.3381  2.3403  1.0348
  583SOL    HW2 1749   2.420   2.923   0.548 -1.5475 -2.0672  1.1745
  584SOL     OW 1750   1.458   1.027   2.269 -0.7412 -0.2781 -0.0608
  584SOL    HW1 1751   1.429   1.036   2.370  1.6796 -1.1739  2.7563
  584SOL    HW2 1752   1.557   0.992   2.261 -0.1030 -0.4362  1.9106
  585SOL     OW 1753   2.053   2.652   2.868 -0.0510 -0.4010  0.0283
  585SOL    HW1 1754   2.122   2.571   2.864  1.8349  1.8115  4.3972
  585SOL    HW2 1755   1.954   2.633   2.834 -3.2573  0.1375  0.4527
  586SOL     OW 1756   2.877   0.387   1.622  0.5576  0.2527  0.4776
  586SOL    HW1 1757   2.867   0.483   1.641 -1.1159 -4.1979  1.6028
  586SOL    HW2 1758   2.810   0.317   1.670  0.6148 -2.4173  0.6685
  587SOL     OW 1759   2.131   1.484   2.723  0.1526  0.4195 -0.3435
  587SOL    HW1 1760   2.131   1.416   2.643 -3.2033 -0.3046  1.2004
  587SOL    HW2 1761   2.220   1.500   2.766 -3.5423 -1.7154 -1.0029
  588SOL     OW 1762   0.422   2.664   2.190 -0.1895  0.2583 -0.6529
  588SOL    HW1 1763   0.436   2.741   2.123  0.5404  0.6568  2.8756
  588SOL    HW2 1764   0.347   2.594   2.159 -2.2482 -2.8666 -2.4750
  589SOL     OW 1765   2.163   1.383   2.472  0.3473  0.0853 -0.1334
  589SOL    HW1 1766   2.104   1.331   2.401  0.7443  1.3563  0.0879
  589SOL    HW2 1767   2.258   1.349   2.467 -0.4205  2.5281 -0.1629
  590SOL     OW 1768   2.311   1.693   2.050 -0.4319  0.4033 -0.1334
  590SOL    HW1 1769   2.392   1.639   2.013 -0.4191  0.6503  1.5305
  590SOL    HW2 1770   2.316   1.722   2.154  0.3769  0.0245  1.5411
  591SOL     OW 1771   1.286   2.433   0.207  0.6318  0.1623  0.4836
  591SOL    HW1 1772   1.318   2.349   0.149 -1.8551  1.0793 -0.7254
  591SOL    HW2 1773   1.293   2.417   0.307 -0.1860 -0.2643  1.1727
  592SOL     OW 1774   1.789   2.336   0.781  0.0215  0.0459  0.0330
  592SOL    HW1 1775   1.757   2.375   0.685  1.8522  2.1219  1.2290
  592SOL    HW2 1776   1.882   2.371   0.808 -1.5923  1.1984  1.6700
  593SOL     OW 1777   0.790   0.221   0.222 -0.2992 -0.8137 -0.0163
  593SOL    HW1 1778   0.818   0.170   0.136 -0.1044 -1.5181 -0.5370
  593SOL    HW2 1779   0.747   0.313   0.200  1.3109 -1.4796 -0.7620
  594SOL     OW 1780   0.952   1.819   2.705 -0.2925  0.4806  0.2688
  594SOL    HW1 1781   1.039   1.765   2.673  1.1603 -1.1807  0.8542
  594SOL    HW2 1782   0.976   1.879   2.792 -0.5045  1.2527 -0.7145
  595SOL     OW 1783   1.554   0.082   1.034 -0.8063 -0.2603  0.2546
  595SOL    HW1 1784   1.629   0.010   1.021 -0.2888 -2.3336  3.0351
  595SOL    HW2 1785   1.472   0.064   0.971  1.0561 -4.7440 -2.6175
  596SOL     OW 1786   0.246   1.500   2.191  0.1493  0.1952 -0.3271
  596SOL    HW1 1787   0.154   1.500   2.156  3.7033  1.2679  1.0420
  596SOL    HW2 1788   0.257   1.563   2.272  0.3039 -0.2629  1.8171
  597SOL     OW 1789   1.949   2.705   1.808 -0.6618  0.4716 -0.2552
  597SOL    HW1 1790   1.917   2.691   1.707  1.2227  2.7504 -1.0396
  597SOL    HW2 1791   2.029   2.646   1.837 -0.6112 -1.5862  0.7547
  598SOL     OW 1792   2.511   2.774   1.261 -0.3841  0.1849  0.2510
  598SOL    HW1 1793   2.616   2.772   1.254 -0.5350  1.0256 -0.5157
  598SOL    HW2 1794   2.467   2.678   1.252 -0.3883 -0.8658  2.6969
  599SOL     OW 1795   2.897   0.298   2.519 -0.2501 -0.4350  0.6789
  599SOL    HW1 1796   2.986   0.330   2.474  1.8867 -0.6547 -0.4482
  599SOL    HW2 1797   2.823   0.364   2.487  1.9433  2.5865 -0.9919
  600SOL     OW 1798   2.728   1.209   2.736 -0.3898 -0.0783  0.0727
  600SOL    HW1 1799   2.626   1.217   2.720 -0.8480  2.0121 -1.1340
  600SOL    HW2 1800   2.768   1.270   2.808  0.9805  0.2979 -3.1119
  601SOL     OW 1801   3.026   1.375   1.872 -0.0216 -0.0812 -0.5076
  601SOL    HW1 1802   2.949   1.405   1.809 -1.1679 -0.3182 -1.6913
  601SOL    HW2 1803   3.099   1.447   1.887 -0.5403 -1.0535  2.9822
  602SOL     OW 1804   1.468   1.576   2.353 -0.6205  0.0866 -0.1995
  602SOL    HW1 1805   1.383   1.549   2.406 -1.3395 -1.8924 -0.7942
  602SOL    HW2 1806   1.531   1.637   2.402 -0.0315 -0.2447 -0.6516
  603SOL     OW 1807   0.588   1.155   2.760  0.3265 -0.2472 -0.1822
  603SOL    HW1 1808   0.526   1.204   2.691 -1.4023  1.8369 -0.5293
  603SOL    HW2 1809   0.623   1.063   2.731 -0.2825  0.4242  1.0726
  604SOL     OW 1810   2.538   0.982   0.237 -0.0819 -0.5678 -0.5052
  604SOL    HW1 1811   2.611   1.047   0.214  0.4215 -3.4444 -0.1988
  604SOL    HW2 1812   2.514   0.921   0.159  0.4018  1.4800 -1.1215
  605SOL     OW 1813   2.557   1.171   1.912 -0.0735  0.0042 -0.0413
  605SOL    HW1 1814   2.568   1.082   1.855 -0.9622 -0.7242 -0.1258
  605SOL    HW2 1815   2.587   1.163   2.013 -0.7086  0.8052  0.2560
  606SOL     OW 1816   1.472   2.463   2.552  0.6733  0.5811  0.2735
  606SOL    HW1 1817   1.419   2.555   2.551 -1.3724 -1.2353 -0.1000
  606SOL    HW2 1818   1.406   2.383   2.551 -1.2594 -0.9310  0.3459
  607SOL     OW 1819   1.264   1.612   0.256 -0.5179  0.2991 -0.1013
  607SOL    HW1 1820   1.207   1.691   0.302 -3.1743  0.7433  0.4733
  607SOL    HW2 1821   1.354   1.641   0.201  0.9320 -0.6277 -1.9404
  608SOL     OW 1822   1.449   2.874   0.358  0.0158  0.4103  0.0044
  608SOL    HW1 1823   1.480   2.911   0.266 -2.6605 -1.0482 -1.1881
  608SOL    HW2 1824   1.385   2.945   0.404  1.3980  0.8784 -1.1701
  609SOL     OW 1825   1.239   1.321   0.212 -0.1133  0.8340  0.5586
  609SOL    HW1 1826   1.239   1.417   0.262 -1.1886 -0.8029  0.4701
  609SOL    HW2 1827   1.205   1.325   0.112 -0.0775  0.8324 -0.2999
  610SOL     OW 1828   3.061   1.215   2.097 -0.0696  0.0806 -0.2342
  610SOL    HW1 1829   3.004   1.128   2.102 -2.9790 -0.7206  0.9731
  610SOL    HW2 1830   3.041   1.286   2.029 -1.9707  0.0966  0.6084
  611SOL     OW 1831   2.589   0.197   1.175 -0.2404  0.1486 -0.1085
  611SOL    HW1 1832   2.540   0.105   1.195 -0.6928  0.4768  1.7591
  611SOL    HW2 1833   2.659   0.217   1.252  2.5554  0.8441 -3.3488
  612SOL     OW 1834   0.761   2.403   1.177  0.1011  0.4499 -0.3866
  612SOL    HW1 1835   0.687   2.336   1.196 -0.1041 -0.4299  1.0523
  612SOL    HW2 1836   0.722   2.498   1.184  1.6492  0.8502  0.5621
  613SOL     OW 1837   0.777   1.349   2.397 -0.5426  0.3296  0.1102
  613SOL    HW1 1838   0.799   1.437   2.344  1.2053  0.6956 -0.5074
  613SOL    HW2 1839   0.799   1.261   2.343  0.2247 -0.5656 -0.2724
  614SOL     OW 1840   1.512   1.693   1.929 -0.0065  0.2656 -0.7485
  614SOL    HW1 1841   1.477   1.776   1.872  0.0385  2.6673 -1.7905
  614SOL    HW2 1842   1.588   1.717   1.987 -0.8945 -1.3993 -2.6980
  615SOL     OW 1843   0.730   1.428   1.691  0.3583 -0.4298  0.0131
  615SOL    HW1 1844   0.656   1.389   1.638 -0.9824 -0.0871  3.6400
  615SOL    HW2 1845   0.824   1.431   1.642  0.2294  0.4304 -2.5497
  616SOL     OW 1846   1.096   1.653   2.173 -0.2135  0.1522  0.3174
  616SOL    HW1 1847   0.991   1.645   2.183 -1.4454  1.1564 -0.0537
  616SOL    HW2 1848   1.126   1.603   2.081 -1.3699  0.2380 -2.9728
  617SOL     OW 1849   2.937   1.562   1.597  0.6493 -0.3188 -0.1741
  617SOL    HW1 1850   2.855   1.515   1.641 -0.7313 -0.6042 -0.1341
  617SOL    HW2 1851   2.963   1.507   1.512 -1.1307 -2.3106  1.0092
  618SOL     OW 1852   1.870   2.025   1.528 -0.1746  0.0607 -0.3144
  618SOL    HW1 1853   1.910   1.975   1.448 -3.0344 -1.2549 -0.3104
  618SOL    HW2 1854   1.845   1.957   1.607  1.4639 -0.5669  0.7945
  619SOL     OW 1855   1.793   0.517   2.425 -0.3213  0.1043  0.3469
  619SOL    HW1 1856   1.741   0.572   2.355  0.1411 -0.3514  3.1606
  619SOL    HW2 1857   1.779   0.416   2.414  2.7698  1.3288  0.9828
  620SOL     OW 1858   2.239   2.847   0.688  0.1220  0.6445 -0.4447
  620SOL    HW1 1859   2.147   2.887   0.688  2.7286  1.5243 -0.9935
  620SOL    HW2 1860   2.286   2.841   0.779  1.8316  0.3454 -1.1235
  621SOL     OW 1861   2.122   1.922   1.336 -0.2150 -0.6870 -0.4005
  621SOL    HW1 1862   2.128   1.908   1.443 -0.6363 -0.2310  3.4356
  621SOL    HW2 1863   2.159   1.833   1.288  1.3384  0.0274 -1.4445
  622SOL     OW 1864   2.183   0.926   1.744 -0.0511  0.1422  0.1005
  622SOL    HW1 1865   2.157   0.847   1.683 -1.4932 -1.2312 -3.6343
  622SOL    HW2 1866   2.124   0.916   1.830 -1.5548 -0.7898 -1.4437
  623SOL     OW 1867   1.267   0.865   2.543 -0.4707 -0.7660  0.0965
  623SOL    HW1 1868   1.251   0.790   2.613 -4.5102  0.8605 -1.8825
  623SOL    HW2 1869   1.214   0.850   2.456  1.4971 -1.8826  0.3321
  624SOL     OW 1870   0.524   0.617   3.068 -0.3624 -0.6818 -0.3413
  624SOL    HW1 1871   0.572   0.657   2.989  0.2360 -2.2416  3.1397
  624SOL    HW2 1872   0.512   0.689   3.139  0.0817 -2.8672 -4.5260
  625SOL     OW 1873   2.826   1.799   0.817 -0.0994  0.2062  0.4650
  625SOL    HW1 1874   2.807   1.842   0.908  3.0835  0.7576  0.0224
  625SOL    HW2 1875   2.738   1.754   0.779 -0.0067 -1.1314 -0.1850
  626SOL     OW 1876   0.449   2.837   1.994 -0.1689  0.4074 -0.8349
  626SOL    HW1 1877   0.510   2.917   1.973 -0.7331  1.5767 -1.0014
  626SOL    HW2 1878   0.377   2.830   1.918 -1.3543 -2.8417 -1.8847
  627SOL     OW 1879   0.697   0.937   1.590 -0.1602 -0.4915  0.3787
  627SOL    HW1 1880   0.723   0.848   1.640 -0.9089 -2.4501  1.8197
  627SOL    HW2 1881   0.775   0.987   1.555 -2.0722 -2.0626  1.9050
  628SOL     OW 1882   2.434   0.112   0.646  0.0294 -0.2201 -0.3871
  628SOL    HW1 1883   2.467   0.018   0.618 -2.8324 -0.0396  2.0684
  628SOL    HW2 1884   2.358   0.109   0.716  0.2323 -1.6243  0.2618
  629SOL     OW 1885   2.021   0.941   1.959 -0.1911 -0.0615  0.1731
  629SOL    HW1 1886   2.092   0.967   2.034 -1.7234  0.2047 -0.7282
  629SOL    HW2 1887   1.965   1.024   1.936  0.6761 -0.1021 -1.2893
  630SOL     OW 1888   2.837   2.249   0.815 -0.8718 -0.4669  0.5486
  630SOL    HW1 1889   2.760   2.286   0.871  2.3008 -2.2313 -2.3386
  630SOL    HW2 1890   2.806   2.157   0.769 -1.0734 -0.2072  1.1749
  631SOL     OW 1891   3.051   0.224   2.165 -0.1991  0.6651  0.5817
  631SOL    HW1 1892   3.090   0.255   2.258  1.0535  0.7653  0.7440
  631SOL    HW2 1893   3.106   0.262   2.080  0.4400 -0.9079 -0.3026
  632SOL     OW 1894   2.420   2.534   0.702 -0.2370  0.6177 -0.9475
  632SOL    HW1 1895   2.493   2.593   0.756  2.2015  0.3999  1.4916
  632SOL    HW2 1896   2.417   2.557   0.604  0.8641  0.5386  0.0723
  633SOL     OW 1897   1.581   1.249   2.717  0.5635  0.4177  0.0666
  633SOL    HW1 1898   1.541   1.320   2.784 -1.9078  1.4561  0.6086
  633SOL    HW2 1899   1.511   1.227   2.642 -0.0253 -0.0794 -2.1724
  634SOL     OW 1900   0.715   2.058   0.883  0.5363 -0.3819  0.1975
  634SOL    HW1 1901   0.616   2.064   0.926 -2.7114  0.2212 -0.0455
  634SOL    HW2 1902   0.765   2.146   0.892  1.5315 -0.0942 -0.3288
  635SOL     OW 1903   3.048   2.257   3.057 -0.3938  0.4312  0.0454
  635SOL    HW1 1904   2.999   2.321   2.987  0.5833 -1.3483 -1.9567
  635SOL    HW2 1905   3.099   2.312   3.132 -0.5163  0.9461 -0.1171
  636SOL     OW 1906   2.321   2.819   1.966  0.0333 -0.2764 -0.1573
  636SOL    HW1 1907   2.345   2.918   1.958  1.3904 -1.2519  1.6279
  636SOL    HW2 1908   2.292   2.789   2.064 -0.6499  0.0971  2.1776
  637SOL     OW 1909   2.545   0.724   2.086 -0.6580 -0.1322  0.0123
  637SOL    HW1 1910   2.524   0.699   1.989  1.6179  1.6719 -0.2632
  637SOL    HW2 1911   2.606   0.808   2.099 -0.8402 -1.6313 -0.0212
  638SOL     OW 1912   2.417   1.897   1.367  0.0629 -0.2883  0.2083
  638SOL    HW1 1913   2.317   1.917   1.358  1.5594  1.7512  0.2656
  638SOL    HW2 1914   2.459   1.860   1.286 -0.7810  0.9117 -1.5795
  639SOL     OW 1915   1.259   2.233   1.630 -0.2804 -0.5542  0.1432
  639SOL    HW1 1916   1.249   2.176   1.542  0.9697  0.7956  0.9956
  639SOL    HW2 1917   1.187   2.201   1.699 -1.4415  1.5809 -0.3251
  640SOL     OW 1918   0.230   1.132   1.538 -0.3999 -0.2095 -0.2662
  640SOL    HW1 1919   0.230   1.202   1.618  0.8592  0.6525 -1.7299
  640SOL    HW2 1920   0.322   1.084   1.524  0.8566 -0.8241 -0.1726
  641SOL     OW 1921   1.872   0.310   1.419 -0.1553 -0.1893 -0.2292
  641SOL    HW1 1922   1.815   0.390   1.459 -0.5961  0.0313 -1.8697
  641SOL    HW2 1923   1.823   0.224   1.436 -0.5197 -2.1457  1.8244
  642SOL     OW 1924   1.991   0.082   0.332  0.3413 -0.3478  0.0457
  642SOL    HW1 1925   2.088   0.051   0.326 -1.8582 -0.8591  0.9621
  642SOL    HW2 1926   1.973   0.134   0.419  1.4746  1.5931  1.0339
  643SOL     OW 1927   2.886   1.889   2.084  0.8213  0.1758 -0.8774
  643SOL    HW1 1928   2.817   1.824   2.039 -0.5687 -0.4367  0.0680
  643SOL    HW2 1929   2.915   1.972   2.029  0.3893  2.0800  2.1445
  644SOL     OW 1930   2.202   2.284   1.139  0.2470  0.6621  0.0350
  644SOL    HW1 1931   2.281   2.221   1.112 -1.4403  3.0338 -1.3268
  644SOL    HW2 1932   2.175   2.290   1.240  0.4376 -1.0800 -1.6373
  645SOL     OW 1933   0.630   0.912   1.148 -0.6884  0.7629  0.2016
  645SOL    HW1 1934   0.551   0.847   1.173  1.6414 -0.5570  1.1805
  645SOL    HW2 1935   0.607   0.971   1.067  2.6829  0.6094  0.3055
  646SOL     OW 1936   1.447   1.924   1.797 -0.1062 -0.1120  0.3063
  646SOL    HW1 1937   1.523   1.990   1.762 -0.5607 -0.2569 -1.0364
  646SOL    HW2 1938   1.397   1.940   1.888 -0.0103 -1.4932 -2.3822
  647SOL     OW 1939   0.873   0.874   0.661 -0.2082  0.8216 -0.1948
  647SOL    HW1 1940   0.956   0.874   0.728  3.6192  2.8043 -1.9640
  647SOL    HW2 1941   0.779   0.857   0.699  0.6070 -1.0741 -0.3158
  648SOL     OW 1942   0.067   0.219   0.336  0.1287  0.0459 -0.5644
  648SOL    HW1 1943   0.044   0.121   0.298 -0.9942  0.0006  1.1535
  648SOL    HW2 1944   0.018   0.295   0.291  0.0377  1.0864  0.2402
  649SOL     OW 1945   3.079   0.051   0.971 -1.0907 -0.0105 -0.3923
  649SOL    HW1 1946   3.156  -0.021   0.961 -0.3285  2.6144 -0.5651
  649SOL    HW2 1947   3.108   0.139   1.015  0.4642 -0.9454 -2.9307
  650SOL     OW 1948   2.682   0.703   1.463 -0.3539  0.0417 -0.0108
  650SOL    HW1 1949   2.585   0.676   1.491  2.3087  1.6173  1.0921
  650SOL    HW2 1950   2.685   0.781   1.394  0.0742 -1.0674  0.1274
  651SOL     OW 1951   0.904   1.535   1.479 -0.6783 -0.4657  0.7672
  651SOL    HW1 1952   0.932   1.631   1.511  1.2113  1.7809 -2.1373
  651SOL    HW2 1953   0.816   1.532   1.429  3.8165 -0.1797 -1.1147
  652SOL     OW 1954   2.199   2.551   2.370 -0.3505 -0.6081  0.3822
  652SOL    HW1 1955   2.133   2.542   2.448  2.5437  2.3747 -1.7366
  652SOL    HW2 1956   2.196   2.652   2.328  2.2938  0.5783  0.5182
  653SOL     OW 1957   2.768   1.141   0.211  0.3092  0.6151 -0.0015
  653SOL    HW1 1958   2.840   1.175   0.142  3.6107  2.6796 -1.1146
  653SOL    HW2 1959   2.812   1.065   0.274  2.4139  2.8430 -2.8009
  654SOL     OW 1960   1.221   2.236   1.226  0.3295 -0.0420 -0.7940
  654SOL    HW1 1961   1.229   2.187   1.317 -1.1695  0.9088 -0.5675
  654SOL    HW2 1962   1.298   2.224   1.155 -1.2306  1.8558 -3.6304
  655SOL     OW 1963   0.207   1.037   1.913 -0.1031  0.1529 -0.3186
  655SOL    HW1 1964   0.255   0.970   1.847 -0.8384 -0.2348 -1.9622
  655SOL    HW2 1965   0.265   1.125   1.921 -3.4961 -1.6262  1.1042
  656SOL     OW 1966   2.440   2.480   2.534  0.1837  0.1373 -0.2210
  656SOL    HW1 1967   2.538   2.503   2.507 -1.3524  1.8832  1.6017
  656SOL    HW2 1968   2.359   2.528   2.493 -0.4060 -2.2843  1.7908
  657SOL     OW 1969   3.041   1.084   1.815  0.0279 -0.2785 -0.5814
  657SOL    HW1 1970   3.022   1.188   1.810 -0.7342  1.6598  0.8547
  657SOL    HW2 1971   3.130   1.062   1.868  0.9372 -0.4966 -2.2068
  658SOL     OW 1972   1.734   0.234   2.386 -0.1479 -0.6818 -0.6540
  658SOL    HW1 1973   1.750   0.167   2.464  0.5415 -2.5897  3.2835
  658SOL    HW2 1974   1.762   0.204   2.290 -0.9748  2.8617  1.1856
  659SOL     OW 1975   1.437   0.613   2.812  0.2148 -0.4441  0.1847
  659SOL    HW1 1976   1.527   0.649   2.778  0.9272 -1.4115 -1.0644
  659SOL    HW2 1977   1.357   0.679   2.806 -2.4579 -1.1098  0.0451
  660SOL     OW 1978   1.381   0.386   1.408  0.7100 -0.2621 -0.2227
  660SOL    HW1 1979   1.427   0.422   1.497 -0.5173  0.5303 -2.2789
  660SOL    HW2 1980   1.445   0.326   1.355  0.5196  0.3777  2.0766
  661SOL     OW 1981   2.434   1.118   0.614  0.5395  0.0060 -0.5965
  661SOL    HW1 1982   2.485   1.048   0.556 -0.8947  0.2991 -1.4031
  661SOL    HW2 1983   2.359   1.169   0.564 -0.4014  0.0123 -0.8751
  662SOL     OW 1984   1.330   0.457   1.890  0.5796 -0.1636  0.3109
  662SOL    HW1 1985   1.278   0.371   1.863  0.1668 -2.3596 -2.1022
  662SOL    HW2 1986   1.293   0.491   1.984  1.0745  1.0814  4.8351
  663SOL     OW 1987   0.818   1.576   2.199  0.0832  0.3235  0.1512
  663SOL    HW1 1988   0.768   1.666   2.214  4.0865 -2.0947 -2.9777
  663SOL    HW2 1989   0.803   1.541   2.099 -2.0030  1.0181 -0.9530
  664SOL     OW 1990   1.599   2.078   1.430 -0.1550 -0.4498  0.2457
  664SOL    HW1 1991   1.530   2.008   1.468  1.2051 -1.4322  1.6356
  664SOL    HW2 1992   1.689   2.071   1.477  2.1574  0.1485 -1.6204
  665SOL     OW 1993   2.176   0.637   1.998 -0.1911 -0.0144 -0.3010
  665SOL    HW1 1994   2.220   0.585   2.078  1.1766  2.0030  2.1276
  665SOL    HW2 1995   2.072   0.654   2.002 -0.9078  0.5109 -1.6507
  666SOL     OW 1996   0.564   2.260   0.418 -0.3208  0.4169 -0.6034
  666SOL    HW1 1997   0.590   2.356   0.452 -1.3387  0.9289  1.9161
  666SOL    HW2 1998   0.493   2.210   0.469 -1.2919  1.0822 -2.9192
  667SOL     OW 1999   2.100   0.227   1.039  0.4444  0.8759  0.4052
  667SOL    HW1 2000   2.170   0.299   1.037 -0.6029 -1.1053  2.0066
  667SOL    HW2 2001   2.011   0.259   1.089 -3.6271 -1.4024 -0.4702
  668SOL     OW 2002   2.044   0.557   1.254  0.9323 -0.8328  0.0107
  668SOL    HW1 2003   2.113   0.521   1.190  1.2438  2.9755  0.2438
  668SOL    HW2 2004   2.052   0.518   1.351 -1.1163 -0.7679 -0.0824
  669SOL     OW 2005   3.080   2.275   0.967  1.2275 -0.4956 -0.1442
  669SOL    HW1 2006   2.997   2.270   0.903  1.3114 -0.9976  1.9404
  669SOL    HW2 2007   3.052   2.231   1.054  4.1803  1.5425 -2.7222
  670SOL     OW 2008   2.820   2.400   2.001  0.4274  0.2182 -0.1822
  670SOL    HW1 2009   2.770   2.403   2.091  1.0377  0.0676 -0.7915
  670SOL    HW2 2010   2.798   2.487   1.945  1.5039  2.2521  0.7353
  671SOL     OW 2011   1.640   1.750   1.455 -0.0776 -0.2909  0.0162
  671SOL    HW1 2012   1.657   1.730   1.355 -0.7439 -0.4364  0.9479
  671SOL    HW2 2013   1.557   1.817   1.475 -1.1815  2.2373  2.6506
  672SOL     OW 2014   0.421   0.714   2.451 -0.3276  0.9336  0.0500
  672SOL    HW1 2015   0.420   0.708   2.348  0.5798  1.7213  0.8789
  672SOL    HW2 2016   0.343   0.766   2.492  3.5949 -0.3799 -0.4761
  673SOL     OW 2017   0.137   1.211   1.138  0.0661 -0.5153  0.0319
  673SOL    HW1 2018   0.156   1.282   1.206 -0.4974  1.9444 -2.2970
  673SOL    HW2 2019   0.224   1.174   1.092  0.4618 -1.0550  1.3711
  674SOL     OW 2020   1.608   2.948   0.111 -0.0565 -0.0412 -0.1152
  674SOL    HW1 2021   1.604   3.053   0.106  1.1057  2.8976 -0.8414
  674SOL    HW2 2022   1.682   2.914   0.051 -0.4208  0.4884  0.8026
  675SOL     OW 2023   1.706   0.886   2.323 -0.9001  0.6777 -0.0674
  675SOL    HW1 2024   1.809   0.882   2.320 -0.8150  2.2332 -0.8821
  675SOL    HW2 2025   1.659   0.796   2.302 -1.5954 -0.9036 -0.9116
  676SOL     OW 2026   2.530   1.512   1.960  0.1156  0.1323  0.0241
  676SOL    HW1 2027   2.475   1.499   1.875  0.5375  2.7159 -0.3942
  676SOL    HW2 2028   2.528   1.429   2.025 -2.0164 -1.9170 -2.9556
  677SOL     OW 2029   1.922   0.528   0.952  0.0402 -0.2891 -0.3923
  677SOL    HW1 2030   1.958   0.626   0.969 -0.8633  1.5679  2.8619
  677SOL    HW2 2031   1.906   0.471   1.033 -2.3923 -1.0569  0.5126
  678SOL     OW 2032   0.084   0.732   1.723 -0.0234  0.6351  0.1507
  678SOL    HW1 2033   0.184   0.760   1.719 -1.2053 -0.1102  0.0797
  678SOL    HW2 2034   0.031   0.796   1.781  1.7295 -1.1494 -1.0564
  679SOL     OW 2035   2.515   1.124   1.138  0.3360  0.3189  0.1485
  679SOL    HW1 2036   2.425   1.173   1.122 -1.2649  2.0166 -1.6122
  679SOL    HW2 2037   2.524   1.042   1.074  1.1254  1.5569 -0.1943
  680SOL     OW 2038   2.809   0.647   1.707 -0.6670 -0.0073  0.1805
  680SOL    HW1 2039   2.769   0.694   1.621 -2.7376 -1.5385 -0.5218
  680SOL    HW2 2040   2.871   0.713   1.755 -0.3806  1.3001 -1.7432
  681SOL     OW 2041   3.093   0.185   1.672  0.0113 -0.1319  0.1503
  681SOL    HW1 2042   3.145   0.169   1.582 -0.0518 -0.2513 -0.3959
  681SOL    HW2 2043   3.028   0.264   1.668  1.5998 -2.2078 -0.5943
  682SOL     OW 2044   0.740   3.067   1.391  0.0579  0.1020  0.5253
  682SOL    HW1 2045   0.668   3.017   1.437  2.4998  1.2139 -0.9036
  682SOL    HW2 2046   0.766   3.039   1.297 -0.2167 -0.4363  1.6606
  683SOL     OW 2047   1.385   0.226   2.215  0.0718 -0.4268  0.3576
  683SOL    HW1 2048   1.401   0.259   2.309  0.3883  0.2912  0.3165
  683SOL    HW2 2049   1.424   0.290   2.143 -1.9565  2.7494 -0.7716
  684SOL     OW 2050   1.466   2.123   0.477  0.1842  0.1002 -0.0527
  684SOL    HW1 2051   1.513   2.051   0.537 -1.3563 -0.1901  0.4278
  684SOL    HW2 2052   1.368   2.099   0.447 -0.5470 -0.4395  0.6738
  685SOL     OW 2053   2.127   1.950   1.982 -0.1849  0.1367 -0.6336
  685SOL    HW1 2054   2.177   2.003   1.906 -0.2439  0.7720  0.6553
  685SOL    HW2 2055   2.177   1.863   2.006 -0.8749 -0.2519 -1.0752
  686SOL     OW 2056   1.500   1.733   2.722 -0.3049 -0.1435 -0.0068
  686SOL    HW1 2057   1.574   1.672   2.676  4.4820  1.7676  1.6194
  686SOL    HW2 2058   1.505   1.723   2.829 -0.3219 -2.3576 -0.7384
  687SOL     OW 2059   1.359   2.492   1.947 -0.2947  0.1708  0.1712
  687SOL    HW1 2060   1.409   2.414   1.891  0.9956 -2.5364  1.4186
  687SOL    HW2 2061   1.388   2.481   2.045  2.0882 -1.6891  0.4858
  688SOL     OW 2062   2.035   1.506   1.549 -0.5214  0.4532  0.5964
  688SOL    HW1 2063   2.118   1.566   1.529 -0.6883 -0.3277  2.5057
  688SOL    HW2 2064   1.982   1.478   1.464  0.4628 -3.6560  1.2193
  689SOL     OW 2065   2.454   1.071   2.788 -0.1639 -0.1677  0.1494
  689SOL    HW1 2066   2.351   1.045   2.811 -3.4843  0.5714 -0.7125
  689SOL    HW2 2067   2.528   1.022   2.851 -0.6197 -0.1923 -1.0286
  690SOL     OW 2068   2.238   2.771   3.056  0.9453 -0.6545  0.2861
  690SOL    HW1 2069   2.148   2.730   3.028 -2.4723  1.1313 -0.9914
  690SOL    HW2 2070   2.237   2.841   3.133 -1.6077 -1.7594  0.3437
  691SOL     OW 2071   2.608   0.489   2.181  0.0207  0.0836  0.1015
  691SOL    HW1 2072   2.663   0.441   2.110 -0.8884 -0.5596  0.2351
  691SOL    HW2 2073   2.589   0.588   2.155 -1.8055 -1.7585  0.0152
  692SOL     OW 2074   2.711   1.142   0.695  0.1733 -0.8236  0.1269
  692SOL    HW1 2075   2.612   1.150   0.651 -2.3403  0.8045 -1.6309
  692SOL    HW2 2076   2.729   1.209   0.770  1.5127  3.4920 -4.6930
  693SOL     OW 2077   2.829   2.931   0.612  0.0542  0.3024  0.0890
  693SOL    HW1 2078   2.815   3.002   0.684  1.2392  0.7854 -1.3214
  693SOL    HW2 2079   2.778   2.957   0.523  1.4328 -0.6494 -1.9788
  694SOL     OW 2080   2.408   2.204   0.085 -0.2822  0.1520  0.4598
  694SOL    HW1 2081   2.380   2.286   0.131  0.8241 -0.5761  0.6675
  694SOL    HW2 2082   2.323   2.152   0.049 -0.2041 -2.2910  0.6177
  695SOL     OW 2083   0.553   2.951   1.550  0.2237  0.3419  0.8548
  695SOL    HW1 2084   0.485   2.884   1.511 -0.0536  1.3826 -1.6944
  695SOL    HW2 2085   0.506   3.019   1.617 -0.5170 -0.3109  0.2504
  696SOL     OW 2086   2.737   2.013   0.695  0.3826  0.5557 -0.3372
  696SOL    HW1 2087   2.772   1.928   0.739 -0.7295  0.8863  1.4547
  696SOL    HW2 2088   2.676   2.008   0.609 -0.3158 -1.5234 -0.3409
  697SOL     OW 2089   1.706   2.089   1.791  0.4479  0.1930  1.1582
  697SOL    HW1 2090   1.749   2.005   1.833 -0.6636  1.2039  0.0382
  697SOL    HW2 2091   1.764   2.172   1.814  2.3066  0.9202 -0.5495
  698SOL     OW 2092   2.908   0.362   2.818 -0.1425 -0.0140 -0.2680
  698SOL    HW1 2093   2.906   0.331   2.716  3.6427 -2.4856 -0.6642
  698SOL    HW2 2094   3.000   0.347   2.861  0.9925 -1.4435 -0.5097
  699SOL     OW 2095   1.511   0.096   2.940 -0.3377 -0.7006 -0.1631
  699SOL    HW1 2096   1.458   0.020   2.888 -0.4179 -0.2564 -0.1269
  699SOL    HW2 2097   1.568   0.147   2.869 -0.5750  1.9233 -0.0745
  700SOL     OW 2098   0.959   2.462   1.367 -0.5124 -0.1222 -0.5979
  700SOL    HW1 2099   1.054   2.460   1.321 -0.3842 -1.3813 -0.7094
  700SOL    HW2 2100   0.896   2.406   1.307 -1.4872  0.8823  1.5049
  701SOL     OW 2101   1.832   2.865   3.061  0.0419 -0.5386 -0.2299
  701SOL    HW1 2102   1.865   2.818   3.150 -0.3115  0.2143  0.2857
  701SOL    HW2 2103   1.856   2.966   3.062 -2.5944 -0.6351  1.0569
  702SOL     OW 2104   2.113   1.370   1.813 -0.4240  0.1289 -0.0610
  702SOL    HW1 2105   2.200   1.308   1.793  2.7911 -0.6229 -2.8634
  702SOL    HW2 2106   2.082   1.427   1.735  0.6495  1.2032  0.0751
  703SOL     OW 2107   2.003   0.880   1.458 -0.3222 -0.0675 -0.3726
  703SOL    HW1 2108   1.990   0.822   1.545  0.3992 -0.8388  1.1502
  703SOL    HW2 2109   2.009   0.979   1.483 -0.1722 -0.2550  0.0236
  704SOL     OW 2110   0.345   2.036   1.730  0.0895  0.1233 -0.2160
  704SOL    HW1 2111   0.389   1.980   1.806 -1.0861  2.9400 -1.8279
  704SOL    HW2 2112   0.385   2.129   1.718 -0.3576 -0.8508 -1.1059
  705SOL     OW 2113   2.509   1.464   0.879 -0.0023  0.2068  0.3211
  705SOL    HW1 2114   2.424   1.413   0.912 -1.3286  1.1526 -2.1815
  705SOL    HW2 2115   2.589   1.403   0.884 -2.4683  1.2277  0.2290
  706SOL     OW 2116   0.645   1.736   1.866 -0.4323  0.1050 -0.2910
  706SOL    HW1 2117   0.675   1.639   1.884  1.8211  1.2974 -0.5994
  706SOL    HW2 2118   0.711   1.807   1.910 -1.1572  0.6495 -0.9359
  707SOL     OW 2119   2.325   1.186   1.758 -1.1313 -0.4232  0.3112
  707SOL    HW1 2120   2.401   1.177   1.833 -1.8400 -0.3273  1.1673
  707SOL    HW2 2121   2.306   1.091   1.717 -1.0043  0.1959  2.6177
  708SOL     OW 2122   3.016   0.541   3.042  0.2020  0.5032 -0.4756
  708SOL    HW1 2123   3.021   0.592   2.956  0.1054  0.4457  1.6007
  708SOL    HW2 2124   3.052   0.446   3.048 -0.1121 -1.4248  0.1760
  709SOL     OW 2125   1.745   1.881   0.200 -0.2408  0.4410  0.4617
  709SOL    HW1 2126   1.776   1.977   0.225 -0.6193 -3.1319  2.3436
  709SOL    HW2 2127   1.765   1.852   0.103 -0.1353  0.5659 -0.0502
  710SOL     OW 2128   1.737   1.636   2.478 -0.4620 -0.3785 -0.6291
  710SOL    HW1 2129   1.787   1.607   2.389 -0.2014 -1.6976 -4.6095
  710SOL    HW2 2130   1.777   1.589   2.564 -0.3608  2.9727  2.5738
  711SOL     OW 2131   2.660   2.878   0.942  0.7654  0.6870 -0.1074
  711SOL    HW1 2132   2.653   2.982   0.926 -1.3592  0.9106 -1.3740
  711SOL    HW2 2133   2.760   2.850   0.959  2.8575  2.4852  0.9577
  712SOL     OW 2134   1.482   2.285   1.833 -0.2831  0.0320  0.3666
  712SOL    HW1 2135   1.562   2.220   1.834  1.2495  2.0941  2.1979
  712SOL    HW2 2136   1.394   2.238   1.795 -0.5833 -1.9989  1.6793
  713SOL     OW 2137   2.879   1.275   2.462  0.1979  0.2380 -0.8853
  713SOL    HW1 2138   2.871   1.185   2.405  1.1319  0.8645 -1.5291
  713SOL    HW2 2139   2.828   1.270   2.553  0.7776 -2.2995  1.0469
  714SOL     OW 2140   2.665   0.441   2.443  0.2670 -0.1887  0.2856
  714SOL    HW1 2141   2.595   0.384   2.492  0.3810 -0.2004  1.5132
  714SOL    HW2 2142   2.644   0.452   2.342 -0.1750 -2.0802  0.8905
  715SOL     OW 2143   1.607   2.091   1.153 -0.3050 -0.5841  0.0970
  715SOL    HW1 2144   1.545   2.154   1.101  1.0452  0.7746  2.6260
  715SOL    HW2 2145   1.620   2.108   1.258 -0.9187 -1.8420 -0.3593
  716SOL     OW 2146   1.173   0.165   1.454  0.4275  0.6304 -0.3306
  716SOL    HW1 2147   1.072   0.186   1.453 -1.1711 -0.0965  2.5325
  716SOL    HW2 2148   1.223   0.252   1.457 -0.8036  2.0612  2.3539
  717SOL     OW 2149   1.095   0.535   1.598  0.0625 -0.0773  0.1206
  717SOL    HW1 2150   1.192   0.566   1.617 -1.0568  2.2711 -0.7639
  717SOL    HW2 2151   1.075   0.513   1.494  0.4719  0.5528  0.0134
  718SOL     OW 2152   0.607   1.178   1.020 -0.1179  0.4425  0.0474
  718SOL    HW1 2153   0.651   1.216   0.934  2.2973 -0.9559  1.0385
  718SOL    HW2 2154   0.650   1.213   1.106  1.1240 -0.7962 -0.5014
  719SOL     OW 2155   0.707   1.810   2.244  0.2727 -0.2921  0.5954
  719SOL    HW1 2156   0.780   1.830   2.319  0.4424 -1.7098 -1.7521
  719SOL    HW2 2157   0.610   1.835   2.272 -2.0119  1.5506  0.2245
  720SOL     OW 2158   2.298   1.160   0.270 -0.2506  0.4452  0.2623
  720SOL    HW1 2159   2.391   1.120   0.276 -0.4197  4.8751  2.4028
  720SOL    HW2 2160   2.271   1.216   0.349 -0.5272 -1.2788  0.4732
  721SOL     OW 2161   2.304   3.080   2.054 -0.3867  0.6913  0.0583
  721SOL    HW1 2162   2.302   3.165   1.992 -0.4866 -0.2964 -3.0197
  721SOL    HW2 2163   2.209   3.058   2.087 -0.7302 -1.3670  0.0768
  722SOL     OW 2164   2.442   1.715   0.505 -0.1635  0.0124 -0.2733
  722SOL    HW1 2165   2.437   1.639   0.428  0.7505 -0.2837 -1.8392
  722SOL    HW2 2166   2.346   1.728   0.547 -0.3102 -1.6715  0.2920
  723SOL     OW 2167   2.595   2.851   1.878 -0.5739 -0.6514 -0.2913
  723SOL    HW1 2168   2.625   2.911   1.958  1.7149 -0.3614  0.8303
  723SOL    HW2 2169   2.499   2.813   1.898 -0.7836  2.9145 -1.2457
  724SOL     OW 2170   0.306   2.384   2.342 -0.2674  0.2779 -0.9440
  724SOL    HW1 2171   0.216   2.432   2.342 -1.1608  2.0141 -0.8546
  724SOL    HW2 2172   0.369   2.409   2.423  2.1959 -1.4897  0.7863
  725SOL     OW 2173   2.361   2.793   1.490  0.0779  0.0070  0.2718
  725SOL    HW1 2174   2.417   2.777   1.398  1.3550  1.1473 -0.8096
  725SOL    HW2 2175   2.291   2.711   1.505  1.7477  0.2828  3.7849
  726SOL     OW 2176   2.381   2.274   0.701 -0.0328 -0.3615 -0.5948
  726SOL    HW1 2177   2.412   2.372   0.703  0.9967  0.5446 -0.4533
  726SOL    HW2 2178   2.343   2.251   0.611 -0.1724  0.7962  1.8331
  727SOL     OW 2179   0.236   3.097   0.116  0.1034 -0.0266  0.2055
  727SOL    HW1 2180   0.304   3.020   0.100 -2.8734 -2.2390 -2.7684
  727SOL    HW2 2181   0.268   3.192   0.092  0.2380 -0.6470 -1.0491
  728SOL     OW 2182   2.801   0.669   1.040  0.1065  0.3842 -0.5332
  728SOL    HW1 2183   2.727   0.637   0.977 -1.9077 -1.2882  0.7419
  728SOL    HW2 2184   2.787   0.627   1.134 -1.3677 -0.4963 -1.9489
  729SOL     OW 2185   2.992   2.467   0.735  0.4988  0.6874  0.4157
  729SOL    HW1 2186   2.935   2.381   0.746  1.3236  0.5322  3.7904
  729SOL    HW2 2187   3.093   2.447   0.700  2.0148  2.0625 -1.5673
  730SOL     OW 2188   2.624   0.585   0.858  0.1696 -0.1822  0.2957
  730SOL    HW1 2189   2.575   0.666   0.815 -1.9312  0.5129 -0.2082
  730SOL    HW2 2190   2.707   0.558   0.798 -0.0817 -1.9480  1.4028
  731SOL     OW 2191   0.203   2.161   2.490  0.1421 -0.5629  0.0138
  731SOL    HW1 2192   0.205   2.174   2.591 -2.5187  1.8392  3.3863
  731SOL    HW2 2193   0.227   2.248   2.437 -2.6822  0.5170  2.0152
  732SOL     OW 2194   1.122   2.824   2.020  0.0622 -0.9364 -0.1956
  732SOL    HW1 2195   1.165   2.765   2.092 -1.3431 -0.5847 -0.1899
  732SOL    HW2 2196   1.122   2.781   1.927  3.2626 -1.6675  0.4065
  733SOL     OW 2197   3.030   0.714   2.121  0.2984  0.0601  0.2581
  733SOL    HW1 2198   3.120   0.766   2.111 -0.5640 -0.0793 -1.1270
  733SOL    HW2 2199   3.020   0.629   2.061  2.3813  0.3243  2.4878
  734SOL     OW 2200   1.383   0.352   2.696  0.4745 -0.0589  0.0861
  734SOL    HW1 2201   1.391   0.450   2.727 -2.1367 -2.0292  1.9369
  734SOL    HW2 2202   1.280   0.320   2.708 -2.8418  0.0539 -0.1153
  735SOL     OW 2203   2.816   2.676   2.306  0.3795 -0.0648 -0.3070
  735SOL    HW1 2204   2.728   2.664   2.246 -1.3548  3.6451 -0.1021
  735SOL    HW2 2205   2.904   2.665   2.249  0.9885  0.3917  1.2399
  736SOL     OW 2206   0.790   0.352   2.569 -0.8726 -0.2214 -0.1731
  736SOL    HW1 2207   0.715   0.415   2.546  2.2231  0.1112  2.6880
  736SOL    HW2 2208   0.820   0.296   2.487  0.1907 -0.1596 -0.5600
  737SOL     OW 2209   2.648   0.411   2.897  0.1378 -0.0633 -0.4714
  737SOL    HW1 2210   2.615   0.405   2.995  1.8829  2.3917 -2.4037
  737SOL    HW2 2211   2.749   0.384   2.881 -1.9606  0.3309 -1.0956
  738SOL     OW 2212   1.666   1.103   0.034 -0.1499 -0.0644 -0.2544
  738SOL    HW1 2213   1.750   1.104  -0.033  1.9699 -1.2100 -0.3208
  738SOL    HW2 2214   1.628   1.004   0.053  1.2635 -1.9247 -1.2888
  739SOL     OW 2215   1.822   0.564   0.691 -0.2057  0.4366 -0.0718
  739SOL    HW1 2216   1.828   0.558   0.793 -2.1347 -0.9784 -0.4899
  739SOL    HW2 2217   1.874   0.494   0.635  1.3606 -1.9595 -0.3264
  740SOL     OW 2218   1.933   2.063   2.163  0.7341  0.1724 -0.0985
  740SOL    HW1 2219   1.996   2.016   2.096 -0.1752 -2.7873 -1.8811
  740SOL    HW2 2220   1.834   2.054   2.141  0.7589 -0.1426  3.1443
  741SOL     OW 2221   2.562   0.019   2.556  0.1215 -0.0155  0.1015
  741SOL    HW1 2222   2.661   0.032   2.579 -0.3872 -0.5117  0.9496
  741SOL    HW2 2223   2.538   0.015   2.453 -0.3503  2.4342 -2.4397
  742SOL     OW 2224   2.255   1.400   0.116 -0.3452 -0.4058  0.5284
  742SOL    HW1 2225   2.172   1.456   0.097  1.5466 -0.2626  1.2786
  742SOL    HW2 2226   2.247   1.301   0.150  1.7787  0.9018  1.6628
  743SOL     OW 2227   1.725   0.647   2.651 -0.0627 -0.2412 -0.4505
  743SOL    HW1 2228   1.753   0.584   2.570  1.1501  0.3928  2.5486
  743SOL    HW2 2229   1.654   0.725   2.624 -2.9769  0.3031 -1.3492
  744SOL     OW 2230   2.678   2.143   0.167 -0.2885  0.1446  0.3329
  744SOL    HW1 2231   2.570   2.162   0.150 -0.6604  0.6718  0.5105
  744SOL    HW2 2232   2.698   2.039   0.182 -4.1217 -1.1443  0.4678
  745SOL     OW 2233   2.191   2.757   2.199 -0.2575  0.5711  0.1519
  745SOL    HW1 2234   2.102   2.742   2.135 -2.4107 -0.3430 -0.9199
  745SOL    HW2 2235   2.181   2.839   2.258  2.4338  0.7297 -2.0230
  746SOL     OW 2236   0.005   2.634   1.808  0.0616  0.1739  0.2462
  746SOL    HW1 2237   0.093   2.645   1.754 -0.8470  1.1201  3.5580
  746SOL    HW2 2238  -0.033   2.725   1.831  2.2319 -2.5514  1.0691
  747SOL     OW 2239   3.081   1.776   1.667  0.2884  0.2750 -0.3166
  747SOL    HW1 2240   3.014   1.701   1.640 -0.4507  3.3568 -1.8303
  747SOL    HW2 2241   3.122   1.826   1.586 -1.6455  2.6782 -1.4304
  748SOL     OW 2242   1.783   2.753   2.825 -0.2555  0.2501 -0.0646
  748SOL    HW1 2243   1.803   2.804   2.914  0.3651 -2.1023  0.0535
  748SOL    HW2 2244   1.680   2.730   2.823  1.4275  2.6197  1.7480
  749SOL     OW 2245   1.341   0.069   0.825  0.0146  0.1549 -0.3979
  749SOL    HW1 2246   1.289  -0.014   0.862 -1.1767  2.4458 -0.1625
  749SOL    HW2 2247   1.329   0.074   0.719  0.2783 -0.0312 -1.6593
  750SOL     OW 2248   2.322   0.229   1.926  0.4196 -0.3174  0.9105
  750SOL    HW1 2249   2.358   0.287   1.846 -0.0293  0.4989 -1.7010
  750SOL    HW2 2250   2.290   0.291   2.004  1.3706 -2.0121 -0.0712
  751SOL     OW 2251   0.867   2.229   2.914  0.6112 -0.1150 -0.4493
  751SOL    HW1 2252   0.947   2.210   2.973 -0.2338  2.2588  1.7752
  751SOL    HW2 2253   0.802   2.148   2.907  0.0365  0.0358  1.3910
  752SOL     OW 2254   1.257   0.841   1.473 -0.3217 -0.2784 -0.0761
  752SOL    HW1 2255   1.340   0.897   1.443 -2.9023  2.7033  1.2255
  752SOL    HW2 2256   1.280   0.743   1.496  0.4243  0.6604  1.2195
  753SOL     OW 2257   0.911   2.567   1.765  0.2091 -0.0383  0.0933
  753SOL    HW1 2258   0.950   2.624   1.687 -0.2155  0.2203  0.4928
  753SOL    HW2 2259   0.842   2.615   1.823 -1.3190 -2.0566  0.0715
  754SOL     OW 2260   1.141   1.343   3.051  0.5070  0.2981  0.1808
  754SOL    HW1 2261   1.179   1.247   3.026  0.5911 -0.6845  2.4432
  754SOL    HW2 2262   1.141   1.404   2.971  0.4526 -2.6536 -3.0370
  755SOL     OW 2263   2.039   0.547   2.320  0.0588  0.2869  0.1411
  755SOL    HW1 2264   2.124   0.491   2.345  0.4908  0.3425  0.2846
  755SOL    HW2 2265   1.956   0.528   2.384 -1.0112 -1.1129  1.2305
  756SOL     OW 2266   2.639   0.935   2.923  0.4145 -0.9155  0.0856
  756SOL    HW1 2267   2.693   0.867   2.870  1.6867 -0.1070  3.2145
  756SOL    HW2 2268   2.597   0.897   3.009  0.9492  0.4374 -0.1338
  757SOL     OW 2269   0.140   0.460   1.757  0.3796  0.1722 -0.1661
  757SOL    HW1 2270   0.100   0.562   1.757 -1.2353  2.8475  0.8753
  757SOL    HW2 2271   0.205   0.444   1.682  1.4125  0.1101  0.8952
  758SOL     OW 2272   2.482   0.040   1.497 -0.1967 -0.8745 -0.0903
  758SOL    HW1 2273   2.403   0.041   1.564 -1.1476  3.5148 -1.9242
  758SOL    HW2 2274   2.448   0.015   1.399 -0.3166 -0.3307 -1.9968
  759SOL     OW 2275   1.683   0.140   0.090 -0.3363 -0.3547  0.3368
  759SOL    HW1 2276   1.615   0.145   0.012 -0.1390 -0.9999 -0.3521
  759SOL    HW2 2277   1.779   0.123   0.048  0.5339  1.0075 -1.7324
  760SOL     OW 2278   2.740   1.981   2.759 -0.2805  0.4710 -0.1933
  760SOL    HW1 2279   2.759   1.886   2.721 -0.8215 -0.0791 -1.3380
  760SOL    HW2 2280   2.810   2.050   2.726  2.0013 -3.5052  0.7749
  761SOL     OW 2281   1.835   1.684   1.665  0.2279 -0.1062  0.2692
  761SOL    HW1 2282   1.916   1.638   1.629 -2.2029 -1.4114  0.6578
  761SOL    HW2 2283   1.766   1.698   1.590 -2.1110 -0.0703 -0.7914
  762SOL     OW 2284   0.496   2.400   1.022  0.0168 -0.1928  0.1977
  762SOL    HW1 2285   0.511   2.404   0.916 -0.2229 -0.3453 -1.3249
  762SOL    HW2 2286   0.478   2.494   1.057 -1.4145  0.2941 -3.0666
  763SOL     OW 2287   2.000   1.553   2.970  0.4132 -0.0980  0.3998
  763SOL    HW1 2288   2.043   1.513   2.886 -1.4361  0.0324 -1.5544
  763SOL    HW2 2289   1.946   1.484   3.028 -2.2983 -3.5270 -2.0693
  764SOL     OW 2290   0.695   0.594   0.819 -0.0121 -0.3608 -0.2089
  764SOL    HW1 2291   0.710   0.516   0.750 -1.8061 -0.9542  2.5728
  764SOL    HW2 2292   0.772   0.607   0.891  1.0601 -2.7874 -0.9528
  765SOL     OW 2293   0.620   0.183   0.788  0.0824 -0.6751  0.3931
  765SOL    HW1 2294   0.687   0.239   0.740  0.4189 -1.5467 -0.0142
  765SOL    HW2 2295   0.638   0.172   0.894 -0.6287 -0.2281  1.6345
  766SOL     OW 2296   2.907   2.014   2.977 -0.5943  0.1035  0.9036
  766SOL    HW1 2297   2.823   1.992   2.921 -0.4188  1.8133  1.3061
  766SOL    HW2 2298   2.934   2.115   2.981 -0.3936  2.5246  4.4511
  767SOL     OW 2299   2.767   1.535   0.508  0.5803 -0.5439 -0.0714
  767SOL    HW1 2300   2.730   1.571   0.595  2.4975 -0.5604  2.1372
  767SOL    HW2 2301   2.808   1.610   0.449  1.0785 -0.7507  1.7475
  768SOL     OW 2302   1.055   0.317   0.289  0.8830  0.5744  0.4715
  768SOL    HW1 2303   0.958   0.290   0.278  2.0758  1.2181  0.3404
  768SOL    HW2 2304   1.127   0.247   0.261  1.4461  4.8545  0.0837
  769SOL     OW 2305   1.334   1.774   2.179 -0.6434 -0.5033  0.4754
  769SOL    HW1 2306   1.378   1.708   2.246 -1.8924 -1.0479 -3.0331
  769SOL    HW2 2307   1.237   1.746   2.157 -2.0259 -0.8075 -0.4692
  770SOL     OW 2308   0.190   1.183   2.275 -0.2901  0.3003  0.1380
  770SOL    HW1 2309   0.161   1.221   2.367  0.0566  0.0940  0.6138
  770SOL    HW2 2310   0.129   1.222   2.197  2.0407  1.6573  1.8634
  771SOL     OW 2311   2.959   2.868   1.879 -0.2000 -0.0534  0.2545
  771SOL    HW1 2312   2.937   2.933   1.803 -0.8509  0.4207  0.5524
  771SOL    HW2 2313   2.914   2.904   1.969 -1.1922  0.7474  2.4227
  772SOL     OW 2314   2.162   0.024   3.015  0.2690 -0.5278 -0.2499
  772SOL    HW1 2315   2.244  -0.014   3.056  1.5109 -0.4145  3.5538
  772SOL    HW2 2316   2.177   0.117   2.969 -0.6572  2.1293 -3.1001
  773SOL     OW 2317   0.692   2.161   2.458  0.3850  0.0992  0.6476
  773SOL    HW1 2318   0.640   2.171   2.373  2.7178 -1.5283  0.4432
  773SOL    HW2 2319   0.636   2.151   2.544  1.1828  0.6705  2.4605
  774SOL     OW 2320   2.008   0.026   2.642  0.7740  0.6140 -0.1857
  774SOL    HW1 2321   2.066   0.110   2.653 -2.2081 -0.5489 -2.8229
  774SOL    HW2 2322   2.035  -0.048   2.706  0.0301  0.1675  0.4308
  775SOL     OW 2323   2.473   2.888   2.335 -0.0735 -0.5579  0.5958
  775SOL    HW1 2324   2.440   2.990   2.332  0.2521 -1.3925 -0.1628
  775SOL    HW2 2325   2.569   2.878   2.379  0.3436  3.4712 -0.9276
  776SOL     OW 2326   0.015   1.228   0.293 -0.3435  0.5338  0.5767
  776SOL    HW1 2327  -0.067   1.265   0.243  0.0400  0.5483  4.2963
  776SOL    HW2 2328  -0.015   1.194   0.385  0.3503 -0.8921  0.9228
  777SOL     OW 2329   0.348   2.761   0.351 -0.1157  1.1014 -0.0610
  777SOL    HW1 2330   0.250   2.727   0.363  1.7229  2.4655  0.7423
  777SOL    HW2 2331   0.368   2.851   0.397 -0.2927 -2.6885 -1.0785
  778SOL     OW 2332   1.285   1.994   0.124  0.3338 -0.2566 -0.7637
  778SOL    HW1 2333   1.264   2.013   0.227 -2.0916  3.2240  1.4271
  778SOL    HW2 2334   1.354   2.064   0.091 -0.5393 -0.4055 -1.3664
  779SOL     OW 2335   0.185   0.785   0.518  0.0055 -0.5567  0.0820
  779SOL    HW1 2336   0.139   0.689   0.514 -2.9986 -0.1776  0.4996
  779SOL    HW2 2337   0.130   0.849   0.580  2.3422  1.3184 -0.1654
  780SOL     OW 2338   0.054   0.312   2.397  0.2314 -0.0564  0.1072
  780SOL    HW1 2339   0.057   0.414   2.395 -0.6732 -0.5165  2.0093
  780SOL    HW2 2340   0.136   0.275   2.354 -3.6303  0.7832 -1.5109
  781SOL     OW 2341   0.518   1.781   1.626 -0.0560 -0.5554  0.5081
  781SOL    HW1 2342   0.577   1.794   1.711  0.7481  1.1900  0.2931
  781SOL    HW2 2343   0.456   1.702   1.625  1.5713  0.5634 -0.2071
  782SOL     OW 2344   2.626   0.076   0.928 -0.0937 -0.6719  0.3675
  782SOL    HW1 2345   2.535   0.108   0.880 -1.3130  1.6103 -1.8691
  782SOL    HW2 2346   2.629   0.113   1.028  1.4117  0.7622  2.8808
  783SOL     OW 2347   2.830   0.618   2.534  0.0915  0.2996 -0.1912
  783SOL    HW1 2348   2.796   0.629   2.628 -1.0563 -2.6715 -3.2191
  783SOL    HW2 2349   2.770   0.547   2.483  0.2623 -1.0047 -1.9940
  784SOL     OW 2350   1.437   2.218   0.074 -0.1409 -0.0666 -0.4264
  784SOL    HW1 2351   1.514   2.270   0.120 -1.2738  1.6625  2.0505
  784SOL    HW2 2352   1.449   2.217  -0.027  0.6619 -1.3681  2.9143
  785SOL     OW 2353   2.177   0.326   3.064 -0.1102 -0.1877 -0.1296
  785SOL    HW1 2354   2.110   0.301   3.140 -1.1963 -0.8226  0.1323
  785SOL    HW2 2355   2.191   0.431   3.070 -3.1334  1.9247  1.9139
  786SOL     OW 2356   2.117   2.258   2.253 -0.4852  0.0237  0.4632
  786SOL    HW1 2357   2.040   2.205   2.205 -2.7816 -0.9924  0.5326
  786SOL    HW2 2358   2.180   2.202   2.314 -2.5580  0.5642  1.7123
  787SOL     OW 2359   1.352   0.546   0.763 -0.0577 -0.6862 -0.9391
  787SOL    HW1 2360   1.278   0.612   0.726  0.5803 -1.6782  2.6434
  787SOL    HW2 2361   1.405   0.495   0.691  2.6942 -2.8770  2.3938
  788SOL     OW 2362   1.189   0.475   2.957 -0.6813  0.4763 -0.3513
  788SOL    HW1 2363   1.091   0.483   2.935 -1.2319 -1.3780  0.4983
  788SOL    HW2 2364   1.244   0.555   2.925 -2.3870  0.4090  2.0810
  789SOL     OW 2365   2.614   0.139   1.946 -0.2680 -0.0628  0.0388
  789SOL    HW1 2366   2.514   0.157   1.964 -2.1077  2.8102  2.7506
  789SOL    HW2 2367   2.645   0.048   1.984 -0.5018  4.0706 -0.0756
  790SOL     OW 2368   2.621   2.620   0.849 -0.7049 -0.5223  0.0793
  790SOL    HW1 2369   2.692   2.628   0.776  0.2961  2.4197 -1.0892
  790SOL    HW2 2370   2.602   2.714   0.900  1.9436 -0.3604  2.6372
  791SOL     OW 2371   1.900   1.202   0.202 -0.3948  0.3330 -0.0885
  791SOL    HW1 2372   1.823   1.139   0.230  0.0292  0.4656  1.1802
  791SOL    HW2 2373   1.983   1.147   0.168  0.8176 -1.3165 -0.5243
  792SOL     OW 2374   0.444   1.959   2.281 -0.6910 -0.1926  0.3844
  792SOL    HW1 2375   0.478   2.059   2.288 -1.7393  1.7927 -2.6101
  792SOL    HW2 2376   0.351   1.943   2.321 -0.2013 -0.1136 -2.6122
  793SOL     OW 2377   2.071   1.569   2.007  0.1777 -0.1495 -0.3679
  793SOL    HW1 2378   2.165   1.615   2.006 -0.5599 -0.2938 -0.9972
  793SOL    HW2 2379   2.072   1.485   1.938  0.8487  1.4861 -0.7599
  794SOL     OW 2380   0.564   1.534   2.487  0.2269 -0.1367 -0.1444
  794SOL    HW1 2381   0.590   1.466   2.416  0.9651 -2.2353  0.4692
  794SOL    HW2 2382   0.474   1.578   2.460 -1.0799  0.4931  1.0916
  795SOL     OW 2383   2.380   2.330   1.853  0.4086  0.0138  0.3981
  795SOL    HW1 2384   2.378   2.363   1.952  0.4684  1.5264 -2.5418
  795SOL    HW2 2385   2.356   2.228   1.839  0.7117 -1.8634 -1.9061
  796SOL     OW 2386   3.017   1.138   2.730  0.3147 -0.1273  0.1397
  796SOL    HW1 2387   2.915   1.145   2.744 -0.2932 -0.9655 -1.6553
  796SOL    HW2 2388   3.068   1.115   2.816 -0.7948  0.5349 -0.7910
  797SOL     OW 2389   0.736   0.643   1.296  1.1858 -0.2467 -0.2833
  797SOL    HW1 2390   0.800   0.702   1.354 -4.4573  0.1666 -1.0102
  797SOL    HW2 2391   0.676   0.709   1.236  3.0679  0.1029 -1.0768
  798SOL     OW 2392   1.185   0.488   0.970 -0.5882 -0.4685  0.2285
  798SOL    HW1 2393   1.214   0.564   1.032  0.8011 -0.6866 -1.3194
  798SOL    HW2 2394   1.247   0.491   0.883  0.0896  2.8247  0.1964
  799SOL     OW 2395   1.821   2.706   1.116  0.7986  0.2063  0.7466
  799SOL    HW1 2396   1.837   2.600   1.129 -2.0018  0.2116 -1.4048
  799SOL    HW2 2397   1.817   2.728   1.013 -0.5420 -1.3151  1.3824
  800SOL     OW 2398   2.950   0.827   1.878  0.1082  0.4064 -0.0944
  800SOL    HW1 2399   2.969   0.926   1.868  1.0918 -1.1605  3.3746
  800SOL    HW2 2400   2.968   0.796   1.974  0.7406  0.4945 -2.2473
  801SOL     OW 2401   1.992   2.306   0.056  0.2479  0.3483 -0.5596
  801SOL    HW1 2402   1.947   2.339  -0.031 -3.0119  0.4309 -1.2372
  801SOL    HW2 2403   2.066   2.232   0.045 -0.8154  0.6121 -0.1180
  802SOL     OW 2404   0.682   0.640   2.481  0.0221  0.6624 -0.2152
  802SOL    HW1 2405   0.755   0.655   2.405  0.5889 -0.6606  0.2019
  802SOL    HW2 2406   0.580   0.657   2.460 -0.9547 -1.2971 -1.3272
  803SOL     OW 2407   0.947   0.094   0.909 -0.3856 -0.4590 -0.1004
  803SOL    HW1 2408   1.035   0.146   0.942  0.5594  2.3382 -4.2450
  803SOL    HW2 2409   0.908   0.124   0.816  1.1208 -0.3133 -0.5592
  804SOL     OW 2410   0.327   0.021   2.148 -0.1713 -0.0270 -0.1900
  804SOL    HW1 2411   0.327   0.121   2.175 -2.4530 -2.0042 -0.0680
  804SOL    HW2 2412   0.246  -0.004   2.087  0.8253  1.8834 -0.3784
  805SOL     OW 2413   2.407   0.288   0.328  0.4567  0.4475  0.0657
  805SOL    HW1 2414   2.479   0.322   0.394 -0.5584 -3.9851 -1.4107
  805SOL    HW2 2415   2.437   0.254   0.236 -2.9119 -1.8389 -0.0936
  806SOL     OW 2416   0.698   2.638   1.980  0.6867 -0.1527 -0.7199
  806SOL    HW1 2417   0.635   2.680   2.052 -0.6157 -0.2294  0.6446
  806SOL    HW2 2418   0.694   2.693   1.894 -1.1612 -2.4819  0.6346
  807SOL     OW 2419   2.581   0.934   0.517 -0.2846 -0.1979  0.0029
  807SOL    HW1 2420   2.658   0.863   0.534 -1.1790  1.5546 -1.1822
  807SOL    HW2 2421   2.579   0.960   0.415  0.3682 -1.0074 -0.3233
  808SOL     OW 2422   0.655   2.043   2.901 -0.2657 -0.2532 -0.3716
  808SOL    HW1 2423   0.584   2.072   2.975  2.3139 -0.2579  2.5122
  808SOL    HW2 2424   0.687   1.943   2.902 -0.8310 -1.0099  0.4582
  809SOL     OW 2425   2.591   2.024   1.915  0.3411 -0.2432 -0.1070
  809SOL    HW1 2426   2.678   2.072   1.884 -1.3203 -1.1185  0.1519
  809SOL    HW2 2427   2.519   2.041   1.844  2.5660  1.4026 -0.4463
  810SOL     OW 2428   2.192   1.254   0.525  0.5142  0.1156  0.7396
  810SOL    HW1 2429   2.101   1.204   0.521 -1.1364  0.6949 -5.2155
  810SOL    HW2 2430   2.169   1.351   0.542 -1.5939 -0.4641  0.4511
  811SOL     OW 2431   1.215   2.505   1.191 -0.4694  0.4401 -0.0603
  811SOL    HW1 2432   1.224   2.407   1.192 -0.2757  0.2231  3.0530
  811SOL    HW2 2433   1.235   2.542   1.285 -0.3105  1.9573  0.3820
  812SOL     OW 2434   1.423   0.762   1.980 -0.0443 -0.1359 -0.7706
  812SOL    HW1 2435   1.325   0.796   1.978 -0.9347  0.2077 -0.0094
  812SOL    HW2 2436   1.469   0.792   1.897 -1.2951  2.3147  0.4068
  813SOL     OW 2437   1.645   2.089   2.430  0.1961  0.6957  0.2035
  813SOL    HW1 2438   1.736   2.130   2.461  2.9749 -0.7736  0.6784
  813SOL    HW2 2439   1.658   2.051   2.333 -1.7439 -0.6752 -0.3011
  814SOL     OW 2440   2.998   1.731   2.856  0.3004  0.9472 -0.4843
  814SOL    HW1 2441   3.085   1.682   2.879 -0.1610 -0.7107  0.0115
  814SOL    HW2 2442   3.000   1.826   2.895  0.4748 -1.2128 -0.2822
  815SOL     OW 2443   2.122   2.917   2.775 -0.0531  0.0498 -0.0967
  815SOL    HW1 2444   2.097   2.821   2.809  0.7460  0.5391 -0.1896
  815SOL    HW2 2445   2.224   2.942   2.794 -0.5452  0.8928 -2.6041
  816SOL     OW 2446   1.562   0.446   1.681  0.5435 -0.7158 -0.2013
  816SOL    HW1 2447   1.612   0.369   1.640  0.6301 -0.6161  1.0263
  816SOL    HW2 2448   1.505   0.411   1.761  1.4743 -0.3740  0.5763
  817SOL     OW 2449   0.401   1.209   2.540 -0.3006 -0.3300 -0.2261
  817SOL    HW1 2450   0.306   1.250   2.559  1.3527 -0.8145  4.8851
  817SOL    HW2 2451   0.425   1.204   2.437 -0.1058 -0.3806 -1.9671
  818SOL     OW 2452   2.012   0.783   0.476 -0.0635  0.1896 -0.2185
  818SOL    HW1 2453   2.117   0.793   0.464  0.3660 -0.4605  3.0174
  818SOL    HW2 2454   1.974   0.849   0.552  0.1674  0.7797  2.1500
  819SOL     OW 2455   2.825   2.897   3.029  0.0909  0.5076  0.1192
  819SOL    HW1 2456   2.882   2.814   3.031  1.0756 -2.2579  2.9266
  819SOL    HW2 2457   2.752   2.900   2.955 -2.3244  0.0811  1.0297
  820SOL     OW 2458   1.206   1.017   0.543 -0.6616 -0.4255  0.0364
  820SOL    HW1 2459   1.228   1.122   0.560 -0.6534  3.0055  0.1639
  820SOL    HW2 2460   1.189   0.959   0.635  0.8566 -1.9316  2.5252
  821SOL     OW 2461   0.044   1.184   0.771 -0.1884 -0.8331  0.3471
  821SOL    HW1 2462  -0.016   1.193   0.857 -1.1436 -0.9764  3.2669
  821SOL    HW2 2463   0.075   1.273   0.729  0.9797 -0.9010  0.0271
  822SOL     OW 2464   2.552   1.761   2.428  0.0729 -0.2568 -0.2960
  822SOL    HW1 2465   2.548   1.826   2.508 -1.1705  0.6914 -1.7448
  822SOL    HW2 2466   2.459   1.762   2.374  2.2458  1.1347 -1.4095
  823SOL     OW 2467   2.049   0.881   1.155  1.1266  0.0597  0.3617
  823SOL    HW1 2468   2.027   0.843   1.248 -0.4747  0.1489 -1.5093
  823SOL    HW2 2469   1.992   0.836   1.071  0.9287 -0.7342 -1.5513
  824SOL     OW 2470   0.195   1.815   2.808 -0.4239  0.2064 -0.3060
  824SOL    HW1 2471   0.198   1.824   2.911  2.0990 -0.9683 -1.0552
  824SOL    HW2 2472   0.258   1.880   2.756  0.7340 -1.9432 -0.9539
  825SOL     OW 2473   1.284   1.043   0.225  0.5920  0.0640 -0.0880
  825SOL    HW1 2474   1.282   1.145   0.212 -2.9531  0.8597  0.2902
  825SOL    HW2 2475   1.245   1.019   0.320  0.2462  1.5159  0.4763
  826SOL     OW 2476   1.952   0.665   1.647 -0.0929  0.3715  0.8851
  826SOL    HW1 2477   2.039   0.604   1.651 -0.1594 -1.9235  1.5488
  826SOL    HW2 2478   1.887   0.623   1.575 -0.9487 -2.8578 -0.3388
  827SOL     OW 2479   0.705   1.206   0.488 -0.2279  0.2406  0.3390
  827SOL    HW1 2480   0.800   1.161   0.474  2.6904 -0.4290  0.2390
  827SOL    HW2 2481   0.629   1.155   0.433  0.3495 -0.1035 -2.1636
  828SOL     OW 2482   2.666   0.166   1.650 -0.7828  0.3703  0.1397
  828SOL    HW1 2483   2.628   0.093   1.590  1.7421  1.3474  0.7851
  828SOL    HW2 2484   2.619   0.173   1.741 -2.7476 -1.1215 -1.1330
  829SOL     OW 2485   2.884   2.387   2.857  0.3781  0.2863 -0.2131
  829SOL    HW1 2486   2.796   2.343   2.893 -0.2250 -2.0504 -2.0210
  829SOL    HW2 2487   2.881   2.490   2.872  0.5400 -1.3896  0.0244
  830SOL     OW 2488   3.005   0.937   2.939  0.0988  0.2178  0.2374
  830SOL    HW1 2489   3.075   1.010   2.963 -0.8031 -2.3116  0.8010
  830SOL    HW2 2490   2.967   0.903   3.027  1.8230 -0.2321 -1.6869
  831SOL     OW 2491   3.096   0.590   0.434  0.6126  0.5402 -1.0941
  831SOL    HW1 2492   3.070   0.548   0.525  0.1316  3.6664  0.2066
  831SOL    HW2 2493   3.107   0.523   0.356  1.6508 -0.4245 -0.3343
  832SOL     OW 2494   1.761   0.744   0.009  0.1325  0.4051  0.0944
  832SOL    HW1 2495   1.670   0.790  -0.006  0.7870 -1.5249 -1.3368
  832SOL    HW2 2496   1.747   0.644  -0.014 -0.4754 -3.2217 -1.0864
  833SOL     OW 2497   2.319   2.099   0.478 -0.3328 -0.0214 -0.1554
  833SOL    HW1 2498   2.238   2.040   0.489 -0.8247  2.7148  2.2777
  833SOL    HW2 2499   2.406   2.043   0.490 -0.6046  0.1912 -0.5062
  834SOL     OW 2500   0.039   0.030   0.584  0.6936 -0.0411 -0.2023
  834SOL    HW1 2501   0.126  -0.017   0.587 -1.4673 -0.4973  0.0109
  834SOL    HW2 2502   0.038   0.114   0.524  0.4931  0.9774  1.9640
  835SOL     OW 2503   2.554   1.766   1.131  0.0705  0.5507  0.7081
  835SOL    HW1 2504   2.619   1.687   1.154 -1.3603  2.5611  1.1940
  835SOL    HW2 2505   2.573   1.803   1.041 -0.3152  0.5531  1.2224
  836SOL     OW 2506   1.551   0.816   2.559  0.5913 -0.3823 -0.8812
  836SOL    HW1 2507   1.450   0.839   2.548 -1.5168 -1.2845  2.1536
  836SOL    HW2 2508   1.604   0.877   2.495 -1.5195 -1.3925 -0.4964
  837SOL     OW 2509   1.643  -0.003   0.670 -0.1239  0.1230  0.3993
  837SOL    HW1 2510   1.618   0.095   0.698 -1.3355  1.2611 -1.9973
  837SOL    HW2 2511   1.601  -0.038   0.583 -0.7606 -3.2692 -0.3945
  838SOL     OW 2512   1.153   1.357   2.685 -0.4037 -1.1147  0.0954
  838SOL    HW1 2513   1.130   1.448   2.724 -0.1191  0.4299  0.9386
  838SOL    HW2 2514   1.088   1.324   2.616  2.1723 -2.8481  0.0372
  839SOL     OW 2515   1.635   0.362   0.974  0.1210 -0.0325 -0.2132
  839SOL    HW1 2516   1.567   0.437   0.987  2.6479 -0.6609  1.2663
  839SOL    HW2 2517   1.602   0.264   0.995  2.8849 -3.8752 -0.9164
  840SOL     OW 2518   2.647   2.941   1.608 -0.2056  0.6370 -0.2615
  840SOL    HW1 2519   2.575   3.002   1.563 -1.7063  0.1512 -1.0165
  840SOL    HW2 2520   2.627   2.917   1.707  0.4263 -0.6015  0.7100
  841SOL     OW 2521   1.516   0.861   3.060 -0.2522  0.3307  0.1724
  841SOL    HW1 2522   1.410   0.860   3.070 -3.4941  3.8625 -2.2357
  841SOL    HW2 2523   1.539   0.908   2.966 -3.3867  0.6058 -0.8159
  842SOL     OW 2524   0.822   1.613   1.012 -0.3828  0.3778 -0.5432
  842SOL    HW1 2525   0.781   1.697   1.056  3.8325  0.2825 -3.2603
  842SOL    HW2 2526   0.762   1.580   0.937 -0.2536  1.2596 -1.1585
  843SOL     OW 2527   0.138   0.100   1.441 -0.0320  0.4911  0.2266
  843SOL    HW1 2528   0.229   0.143   1.460 -0.1002 -0.1587  1.8261
  843SOL    HW2 2529   0.139  -0.002   1.421 -0.1975 -0.5793 -0.8912
  844SOL     OW 2530   0.792   2.449   0.198  0.3851 -0.3465 -0.3882
  844SOL    HW1 2531   0.750   2.487   0.288 -1.1810 -0.0145 -1.5355
  844SOL    HW2 2532   0.724   2.407   0.131  1.1853  2.4690 -2.1070
  845SOL     OW 2533   1.750   0.009   1.314  0.2213  0.3772  0.7526
  845SOL    HW1 2534   1.737  -0.021   1.410 -2.6944  0.0156  0.1879
  845SOL    HW2 2535   1.684   0.090   1.293 -1.7293 -1.2503 -0.1554
  846SOL     OW 2536   1.736   2.973   0.911  0.4065 -0.3165  0.5974
  846SOL    HW1 2537   1.734   2.999   0.807 -0.2071  0.4095  0.1623
  846SOL    HW2 2538   1.832   2.961   0.946 -0.9040  2.0788  1.9026
  847SOL     OW 2539   2.041   1.587   0.191 -0.3870  0.1812  0.1945
  847SOL    HW1 2540   2.013   1.539   0.275  0.3867 -0.4733 -0.7866
  847SOL    HW2 2541   1.971   1.577   0.111 -2.5739  1.1335 -0.8704
  848SOL     OW 2542   2.456   0.794   2.685  0.3493  0.1610 -0.0130
  848SOL    HW1 2543   2.479   0.889   2.705  2.0996 -1.7878  0.4912
  848SOL    HW2 2544   2.387   0.780   2.615  1.4581  3.6121  2.6485
  849SOL     OW 2545   2.358   0.857   2.332 -0.1298 -0.0718  0.3513
  849SOL    HW1 2546   2.386   0.811   2.240 -0.0834  0.0739 -0.5623
  849SOL    HW2 2547   2.319   0.791   2.398  2.3966  0.8752 -1.0305
  850SOL     OW 2548   1.542   0.192   1.282  0.1090 -0.1864  0.3409
  850SOL    HW1 2549   1.536   0.172   1.177  2.6568 -0.6267 -1.3146
  850SOL    HW2 2550   1.496   0.123   1.343 -0.6781 -0.9114  0.6711
  851SOL     OW 2551   0.391   1.678   0.665 -0.3434 -0.2421  0.5365
  851SOL    HW1 2552   0.401   1.780   0.672 -2.1812 -1.5654 -0.2616
  851SOL    HW2 2553   0.433   1.624   0.742 -2.6411  1.7361  1.2821
  852SOL     OW 2554   0.830   2.121   1.738 -0.4922 -0.4049 -0.8726
  852SOL    HW1 2555   0.815   2.196   1.671 -1.8140 -4.3071  1.1237
  852SOL    HW2 2556   0.773   2.136   1.831 -0.8145  0.1768 -0.0108
  853SOL     OW 2557   2.497   1.528   2.612 -0.4971  0.0139 -0.2066
  853SOL    HW1 2558   2.451   1.439   2.621  1.0494  2.6878  1.4645
  853SOL    HW2 2559   2.530   1.546   2.517  0.8689 -0.0811  0.3027
  854SOL     OW 2560   2.436   1.445   1.708  0.2904 -0.3834  0.1561
  854SOL    HW1 2561   2.505   1.434   1.632 -1.6289 -0.9263 -1.9911
  854SOL    HW2 2562   2.395   1.356   1.742  2.7208  0.6953  0.9313
  855SOL     OW 2563   2.042   2.387   0.945  0.1065  0.0775 -0.2340
  855SOL    HW1 2564   2.084   2.485   0.927 -2.8738 -0.7303 -0.1155
  855SOL    HW2 2565   2.105   2.335   1.014 -0.7801 -0.9238  0.9164
  856SOL     OW 2566   1.438   1.420   0.837 -0.1315 -0.1204  0.6879
  856SOL    HW1 2567   1.443   1.527   0.835 -1.4403 -0.1942  1.6317
  856SOL    HW2 2568   1.425   1.392   0.936 -4.1177  0.2352  1.2859
  857SOL     OW 2569   2.950   2.539   1.037  0.6260  0.5311 -0.2758
  857SOL    HW1 2570   2.861   2.522   1.086 -1.2347  2.8137  0.5713
  857SOL    HW2 2571   2.942   2.519   0.934  1.3979 -0.0206 -0.9184
  858SOL     OW 2572   2.255   2.084   1.795 -0.5412 -0.5431  0.8237
  858SOL    HW1 2573   2.187   2.133   1.734  1.7795 -0.2871  0.3109
  858SOL    HW2 2574   2.332   2.043   1.746  2.5108  2.6605  1.7833
  859SOL     OW 2575   2.515   0.442   1.056  0.4491 -0.5370  0.6939
  859SOL    HW1 2576   2.581   0.481   0.988  0.8840 -1.6788  1.4005
  859SOL    HW2 2577   2.543   0.349   1.100  1.4102  0.6742  0.1697
  860SOL     OW 2578   1.901   2.789   0.505 -0.3852  0.0596 -0.1153
  860SOL    HW1 2579   1.892   2.792   0.400 -1.0125 -1.0598  0.0716
  860SOL    HW2 2580   1.940   2.869   0.556  0.8153 -0.6656 -1.8001
  861SOL     OW 2581   0.942   2.642   2.830 -0.6602  0.9199 -0.8516
  861SOL    HW1 2582   1.032   2.693   2.821 -0.5661 -2.0765 -1.2579
  861SOL    HW2 2583   0.944   2.604   2.928  2.2067 -0.0176 -0.6664
  862SOL     OW 2584   2.927   2.520   1.625 -0.2551  0.2077  0.8045
  862SOL    HW1 2585   2.979   2.578   1.692  0.1295  0.5472 -2.9079
  862SOL    HW2 2586   2.841   2.569   1.590  0.9290  0.4685  0.4903
  863SOL     OW 2587   1.923   2.691   0.183  0.3813  0.6323 -0.1969
  863SOL    HW1 2588   1.984   2.617   0.213  3.0311  3.2076 -2.4242
  863SOL    HW2 2589   1.831   2.650   0.151 -0.4378  2.2796 -0.3323
  864SOL     OW 2590   1.909   1.086   3.017 -0.5344  0.0027  0.0985
  864SOL    HW1 2591   1.919   1.092   2.912 -0.3389  2.8263  0.2278
  864SOL    HW2 2592   2.004   1.092   3.059 -1.4732 -3.2197  0.8964
  865SOL     OW 2593   2.201   1.733   0.631 -0.2224  0.2303  0.1388
  865SOL    HW1 2594   2.212   1.793   0.716 -0.6908 -3.9500  3.4171
  865SOL    HW2 2595   2.173   1.639   0.642 -0.8127  4.3360 -0.5777
  866SOL     OW 2596   2.976   2.820   0.965  0.0684  0.2494 -0.2291
  866SOL    HW1 2597   3.031   2.842   0.877 -0.4061 -0.3274 -2.5113
  866SOL    HW2 2598   2.988   2.721   1.000 -2.6691 -0.0836  1.7734
  867SOL     OW 2599   0.374   1.367   0.840  0.3629 -0.3180 -0.4057
  867SOL    HW1 2600   0.422   1.272   0.828  0.3605 -3.4867  0.6890
  867SOL    HW2 2601   0.287   1.375   0.790 -0.1197 -0.1838 -1.1902
  868SOL     OW 2602   0.805   1.931   1.994 -0.1145  0.5446 -0.6403
  868SOL    HW1 2603   0.785   1.869   2.082  2.6424  0.1808  0.8225
  868SOL    HW2 2604   0.762   2.028   1.996  1.7371 -0.9065 -1.7699
  869SOL     OW 2605   2.470   1.986   1.651 -0.6621 -0.0437 -0.1129
  869SOL    HW1 2606   2.553   1.916   1.664  1.4393 -1.3823  0.1071
  869SOL    HW2 2607   2.447   2.002   1.548 -1.9833  2.5513 -0.2034
  870SOL     OW 2608   2.332   2.554   1.252 -0.0804 -0.1003 -0.5229
  870SOL    HW1 2609   2.264   2.480   1.213 -2.4008 -1.6131 -1.2537
  870SOL    HW2 2610   2.403   2.508   1.316 -0.4715  1.8510 -0.2383
  871SOL     OW 2611   2.990   1.977   0.520 -0.3873 -0.0021 -0.1858
  871SOL    HW1 2612   2.923   2.052   0.488 -0.6075 -0.1353 -2.5802
  871SOL    HW2 2613   2.965   1.882   0.489 -2.0767  1.2606 -3.1321
  872SOL     OW 2614   2.208   0.509   1.732 -0.0873 -0.3129  0.9689
  872SOL    HW1 2615   2.195   0.555   1.821 -1.5154 -0.7812 -1.5005
  872SOL    HW2 2616   2.303   0.459   1.717 -0.0996 -2.2243 -1.0283
  873SOL     OW 2617   1.726   2.116   2.897  0.2583 -0.2001  0.3117
  873SOL    HW1 2618   1.737   2.208   2.934 -1.2430 -0.3214 -3.7981
  873SOL    HW2 2619   1.653   2.110   2.828  1.9475  0.9785 -0.3555
  874SOL     OW 2620   0.616   2.458   0.712 -0.4207 -0.0731 -0.1795
  874SOL    HW1 2621   0.615   2.554   0.759  1.4890  0.3405  0.7074
  874SOL    HW2 2622   0.715   2.426   0.717 -1.9847 -1.2117 -2.7068
  875SOL     OW 2623   2.282   1.641   1.472 -0.0087  0.8293 -0.3980
  875SOL    HW1 2624   2.381   1.642   1.511 -1.9370  0.4931  1.7355
  875SOL    HW2 2625   2.268   1.707   1.393  0.8958  2.4528 -1.0114
  876SOL     OW 2626   0.192   2.284   2.772  0.0379  0.5027 -0.6300
  876SOL    HW1 2627   0.181   2.216   2.849  3.8807 -0.5336  0.7996
  876SOL    HW2 2628   0.252   2.366   2.784  1.4360 -1.9101 -1.1360
  877SOL     OW 2629   2.823   2.653   0.637 -0.1878  0.1964 -0.5789
  877SOL    HW1 2630   2.835   2.753   0.642  0.2485 -0.7698  1.5527
  877SOL    HW2 2631   2.905   2.607   0.683  0.6538 -0.2676 -1.8926
  878SOL     OW 2632   2.656   1.484   2.383 -1.0749  0.2049 -0.2238
  878SOL    HW1 2633   2.668   1.587   2.382  2.6017  0.7593  2.4096
  878SOL    HW2 2634   2.749   1.442   2.381  0.6229 -0.0257  1.3462
  879SOL     OW 2635   2.428   3.038   1.210 -0.7512  0.3626 -0.1201
  879SOL    HW1 2636   2.457   2.937   1.216  1.1160 -2.5133  2.2442
  879SOL    HW2 2637   2.325   3.057   1.187 -0.2993  0.9204  0.5727
  880SOL     OW 2638   0.649   0.486   2.202  0.4675 -0.0046 -0.2371
  880SOL    HW1 2639   0.603   0.443   2.284  2.6902 -1.9917 -1.9553
  880SOL    HW2 2640   0.629   0.432   2.118  2.7696 -2.5280 -0.7374
  881SOL     OW 2641   0.919   0.090   0.445  0.0633 -0.2413 -0.0433
  881SOL    HW1 2642   0.960  -0.004   0.434 -0.3847  1.7163 -1.3727
  881SOL    HW2 2643   0.859   0.121   0.362  2.1248  2.5996 -1.7921
  882SOL     OW 2644   2.757   1.766   1.698 -0.0133  0.2110  0.2661
  882SOL    HW1 2645   2.813   1.676   1.689 -0.8099 -1.8896  0.5791
  882SOL    HW2 2646   2.720   1.772   1.794  0.8726 -0.3396  1.4697
  883SOL     OW 2647   0.918   0.573   0.971 -0.1531 -0.1993  0.0898
  883SOL    HW1 2648   0.915   0.659   1.029 -1.1620  1.5401 -1.1634
  883SOL    HW2 2649   1.009   0.522   0.980  1.5383  0.7147  0.4153
  884SOL     OW 2650   1.119   1.902   1.063 -0.1497 -0.3278  0.3038
  884SOL    HW1 2651   1.102   1.856   0.970  0.2265  1.7761 -1.8475
  884SOL    HW2 2652   1.065   1.987   1.080  1.7960 -0.6457  0.9304
  885SOL     OW 2653   2.312   1.807   2.287 -0.2516 -0.0150 -0.1677
  885SOL    HW1 2654   2.229   1.754   2.332 -1.5487  1.3473  0.7644
  885SOL    HW2 2655   2.323   1.906   2.326  1.1709  0.3919  2.8055
  886SOL     OW 2656   2.660   0.466   1.837 -0.6022  0.0751  0.0103
  886SOL    HW1 2657   2.726   0.407   1.891  2.2516 -0.1244 -0.5407
  886SOL    HW2 2658   2.708   0.535   1.785 -0.7111 -0.1543  0.5839
  887SOL     OW 2659   0.223   2.046   1.268 -0.0691  0.1947 -0.2913
  887SOL    HW1 2660   0.155   2.016   1.197 -0.3353  1.7992 -0.3149
  887SOL    HW2 2661   0.213   2.145   1.286  0.6657 -2.0401  3.1386
  888SOL     OW 2662   0.568   1.343   1.453 -0.1756  0.1871 -0.1696
  888SOL    HW1 2663   0.579   1.405   1.373 -0.4573 -1.5371  1.6566
  888SOL    HW2 2664   0.552   1.243   1.421 -0.6499 -0.7215 -3.2314
  889SOL     OW 2665   0.824   2.398   2.174 -0.5431 -0.1922 -0.1001
  889SOL    HW1 2666   0.805   2.301   2.154  2.4113 -0.5718  0.8673
  889SOL    HW2 2667   0.885   2.447   2.110 -0.5801  0.0715  3.0135
  890SOL     OW 2668   2.337   2.440   0.230 -0.0352  0.0634  0.0578
  890SOL    HW1 2669   2.416   2.503   0.200 -0.4319  2.0740 -1.1588
  890SOL    HW2 2670   2.249   2.494   0.236 -0.2988 -0.8894 -1.4995
  891SOL     OW 2671   2.622   1.683   0.713  0.3155  0.1639 -0.0138
  891SOL    HW1 2672   2.583   1.614   0.784  1.9326 -0.7070  0.4719
  891SOL    HW2 2673   2.554   1.686   0.632 -2.9813 -0.0119  1.2336
  892SOL     OW 2674   0.291   0.286   2.249 -0.3590 -0.2583  0.3576
  892SOL    HW1 2675   0.279   0.340   2.159 -1.9791  3.8757 -2.7576
  892SOL    HW2 2676   0.370   0.329   2.306  1.4407  2.1954  0.4572
  893SOL     OW 2677   1.658   0.253   2.753  0.5765  0.0675  0.3236
  893SOL    HW1 2678   1.726   0.325   2.763 -0.2223 -2.6802  0.8333
  893SOL    HW2 2679   1.563   0.289   2.729  0.5201 -2.2302 -1.4845
  894SOL     OW 2680   2.183   2.040   0.037 -0.0505  0.3800 -0.0935
  894SOL    HW1 2681   2.135   1.974  -0.027  0.1215 -1.3797  2.8090
  894SOL    HW2 2682   2.234   1.991   0.114  1.3933  0.8884 -1.7884
  895SOL     OW 2683   2.775   1.378   0.861 -0.1775 -0.0604  0.8139
  895SOL    HW1 2684   2.835   1.327   0.930 -1.4618  0.4662 -0.3863
  895SOL    HW2 2685   2.819   1.459   0.815 -0.3039  3.2063  0.5145
  896SOL     OW 2686   1.748   1.852   1.171  0.5465  0.5615  0.3623
  896SOL    HW1 2687   1.807   1.827   1.088 -0.8264  1.6508 -1.6148
  896SOL    HW2 2688   1.714   1.950   1.163  1.4860  1.1679  0.2871
  897SOL     OW 2689   0.288   0.498   3.084 -0.7905 -0.5597  0.7938
  897SOL    HW1 2690   0.235   0.530   3.000  0.0756  1.9472  4.0185
  897SOL    HW2 2691   0.384   0.549   3.085 -1.0944 -1.4205  0.8595
  898SOL     OW 2692   0.534   2.902   1.000 -0.1047 -0.7247  0.4345
  898SOL    HW1 2693   0.470   2.912   1.083 -2.6958 -0.2299 -0.6446
  898SOL    HW2 2694   0.623   2.952   1.017 -0.7871  0.6368 -0.3091
  899SOL     OW 2695   2.721   0.917   1.299  0.3260 -0.4904  0.8801
  899SOL    HW1 2696   2.659   0.912   1.211  2.4389 -0.8952 -4.6427
  899SOL    HW2 2697   2.795   0.986   1.297  2.9478  0.2365  0.4273
  900SOL     OW 2698   1.002   2.372   2.393 -0.1576 -0.0090  0.5028
  900SOL    HW1 2699   0.950   2.432   2.330 -2.7309 -2.5501  2.0000
  900SOL    HW2 2700   0.947   2.346   2.479 -0.4789  1.0806  2.1992
  901SOL     OW 2701   1.982   2.489   1.337  0.0837 -0.0005  0.3036
  901SOL    HW1 2702   1.952   2.441   1.249 -1.4711 -1.5034 -1.1863
  901SOL    HW2 2703   2.054   2.434   1.387 -1.8853  2.2784 -0.1094
  902SOL     OW 2704   2.580   1.663   1.504 -0.5901 -0.1347  0.3467
  902SOL    HW1 2705   2.639   1.738   1.549  3.1749 -2.1437 -1.5057
  902SOL    HW2 2706   2.609   1.633   1.405  3.4124 -2.6446 -0.2503
  903SOL     OW 2707   0.285   2.486   1.952 -0.1300  0.1778  0.2902
  903SOL    HW1 2708   0.224   2.410   1.962  1.8816 -1.0817 -1.5818
  903SOL    HW2 2709   0.270   2.541   1.860  1.8747 -0.0761 -4.6260
  904SOL     OW 2710   1.989   0.803   2.608  0.1641 -0.0740 -0.1447
  904SOL    HW1 2711   1.898   0.745   2.611 -1.8311  1.5796 -1.9822
  904SOL    HW2 2712   1.996   0.858   2.523  2.2892 -2.5311  4.1473
  905SOL     OW 2713   2.841   0.049   2.592 -0.1458 -0.1113  0.1113
  905SOL    HW1 2714   2.931   0.003   2.623  0.6876  0.7882 -0.5675
  905SOL    HW2 2715   2.866   0.140   2.549  0.2517 -2.9641  2.6276
  906SOL     OW 2716   0.114   1.841   1.896 -0.2280 -0.0625 -0.3512
  906SOL    HW1 2717   0.058   1.803   1.819 -0.0282  0.2860  1.5082
  906SOL    HW2 2718   0.174   1.925   1.876  1.6743 -3.7512 -3.6254
  907SOL     OW 2719   0.175   2.415   1.078 -0.3928  0.3017  0.5100
  907SOL    HW1 2720   0.227   2.494   1.030  0.4169  1.1283 -0.0978
  907SOL    HW2 2721   0.078   2.397   1.045 -0.1688  0.8741  2.0634
  908SOL     OW 2722   2.688   2.798   0.340 -0.0638  0.5685 -0.3130
  908SOL    HW1 2723   2.640   2.861   0.270  0.7981  1.0883 -1.7102
  908SOL    HW2 2724   2.653   2.696   0.336  1.6059 -2.9917 -1.8299
  909SOL     OW 2725   0.662   0.889   2.644  0.2161 -0.4617 -0.0321
  909SOL    HW1 2726   0.641   0.806   2.582  0.3490  1.0005  1.8631
  909SOL    HW2 2727   0.762   0.915   2.628  2.2162 -0.4324 -0.4357
  910SOL     OW 2728   1.699   1.777   2.109 -1.0112  0.7782 -0.2051
  910SOL    HW1 2729   1.766   1.814   2.037  0.8892 -1.4416  0.4479
  910SOL    HW2 2730   1.648   1.848   2.162 -0.4581 -0.9132 -0.9169
  911SOL     OW 2731   1.785   3.024   1.582 -0.0937  0.0237  0.1191
  911SOL    HW1 2732   1.880   3.006   1.551 -0.8304  0.3919  1.6881
  911SOL    HW2 2733   1.758   2.969   1.666 -0.9214  1.8756 -2.9563
  912SOL     OW 2734   2.900   0.943   0.755  0.0699 -0.3905  0.3361
  912SOL    HW1 2735   2.917   0.957   0.856  3.0287 -0.3330  0.3118
  912SOL    HW2 2736   2.829   1.009   0.717  1.3537 -0.6173  0.1784
  913SOL     OW 2737   2.596   1.283   1.525  0.2526 -0.2824 -0.7056
  913SOL    HW1 2738   2.593   1.183   1.544  1.4770 -1.2867 -0.3153
  913SOL    HW2 2739   2.646   1.311   1.435 -0.7385  5.1860 -2.6042
  914SOL     OW 2740   2.752   0.500   1.272 -0.0536  0.0673  0.0084
  914SOL    HW1 2741   2.761   0.407   1.317 -3.0082 -1.1161  3.6735
  914SOL    HW2 2742   2.758   0.569   1.349 -2.6463  1.6927 -2.2489
  915SOL     OW 2743   1.205   0.787   1.038  0.2649  0.0180 -0.0414
  915SOL    HW1 2744   1.260   0.766   1.127  0.0076 -2.6623  0.5552
  915SOL    HW2 2745   1.108   0.815   1.055 -1.5001  1.2546  0.4886
  916SOL     OW 2746   0.576   0.015   0.561 -0.7593  0.1999 -0.5239
  916SOL    HW1 2747   0.576   0.074   0.647  1.2381 -2.6026  1.5008
  916SOL    HW2 2748   0.570   0.069   0.470  1.1128  0.9760 -0.5703
  917SOL     OW 2749   2.754   2.621   1.874 -0.0165  0.3338 -0.1773
  917SOL    HW1 2750   2.700   2.705   1.865  3.0210  1.0446  2.0510
  917SOL    HW2 2751   2.861   2.635   1.869  2.0973  2.2103  1.3710
  918SOL     OW 2752   1.093   2.194   3.058  0.4660  0.3613 -0.1709
  918SOL    HW1 2753   1.053   2.202   3.155  2.7865 -1.5998 -0.5135
  918SOL    HW2 2754   1.176   2.135   3.062 -0.7071  2.8849 -0.8105
  919SOL     OW 2755   0.908   1.554   2.805 -0.0158  0.0456  1.1045
  919SOL    HW1 2756   0.899   1.641   2.749  1.7230  1.4912  1.9698
  919SOL    HW2 2757   0.856   1.473   2.762 -1.7042  1.0369  3.2538
  920SOL     OW 2758   1.201   1.992   2.470 -0.1354 -0.3582  0.2145
  920SOL    HW1 2759   1.126   2.013   2.399 -0.9796 -1.3919 -0.1710
  920SOL    HW2 2760   1.190   1.890   2.498 -0.9375  1.6268  4.0838
  921SOL     OW 2761   1.078   0.094   2.497  0.5136 -0.6261 -0.4647
  921SOL    HW1 2762   1.090   0.014   2.434  0.1300  4.4569 -2.9344
  921SOL    HW2 2763   1.013   0.168   2.459 -2.1646  3.2145  0.4880
  922SOL     OW 2764   2.162   2.392   2.812  0.2452 -0.1294 -0.0682
  922SOL    HW1 2765   2.134   2.291   2.811  0.2378  2.1171  0.0907
  922SOL    HW2 2766   2.123   2.440   2.731  2.9390 -0.1346  0.5636
  923SOL     OW 2767   1.244   2.708   0.201  0.1890  0.3802  0.3623
  923SOL    HW1 2768   1.322   2.761   0.238  1.3842  0.9719 -1.5711
  923SOL    HW2 2769   1.269   2.608   0.194  2.3967 -0.7462 -3.2488
  924SOL     OW 2770   2.942   1.625   0.089  0.4111  0.4123  0.4295
  924SOL    HW1 2771   2.855   1.605   0.035  0.3092 -0.5288  2.8804
  924SOL    HW2 2772   3.028   1.591   0.041 -0.0673 -1.7811 -0.6547
  925SOL     OW 2773   0.052   2.863   1.640 -0.1903 -0.0622  0.2378
  925SOL    HW1 2774   0.001   2.945   1.676  1.8523  0.3161 -2.6982
  925SOL    HW2 2775   0.062   2.869   1.532  0.8913  0.6702  0.5971
  926SOL     OW 2776   1.439   2.886   1.264  0.9716 -0.0014 -0.0703
  926SOL    HW1 2777   1.463   2.890   1.164 -1.3107 -0.6795  2.8596
  926SOL    HW2 2778   1.442   2.982   1.307  1.5468  0.2957  0.7673
  927SOL     OW 2779   0.239   2.588   1.696  0.0202  0.2300 -0.1853
  927SOL    HW1 2780   0.210   2.493   1.655 -1.2737 -0.3739 -1.5348
  927SOL    HW2 2781   0.298   2.647   1.636 -0.8426 -0.5379 -0.3901
  928SOL     OW 2782   1.621   2.045   2.130  0.1342  0.2067 -0.0015
  928SOL    HW1 2783   1.656   2.131   2.090  1.1246 -0.3160  3.6127
  928SOL    HW2 2784   1.522   2.017   2.106  0.0073  0.5040  0.8921
  929SOL     OW 2785   2.447   2.409   2.882 -0.2346  0.4823  0.3024
  929SOL    HW1 2786   2.344   2.398   2.887 -0.5804 -0.2626 -1.5519
  929SOL    HW2 2787   2.476   2.382   2.788  0.8565  1.3031  0.3739
  930SOL     OW 2788   2.101   2.007   1.090 -0.9276  0.4128  0.2537
  930SOL    HW1 2789   2.104   1.988   1.191  0.7310  0.8349 -1.8838
  930SOL    HW2 2790   2.193   2.046   1.071 -0.6636 -1.7756  0.4782
  931SOL     OW 2791   0.556   1.760   2.679  0.4314 -0.0989 -0.0307
  931SOL    HW1 2792   0.611   1.782   2.761 -2.7517  0.5752  0.4064
  931SOL    HW2 2793   0.561   1.665   2.639 -0.7340  2.1536  3.5278
  932SOL     OW 2794   0.540   0.128   2.930  0.4574  0.2540 -0.2596
  932SOL    HW1 2795   0.633   0.153   2.887 -0.1199  1.5325  0.1638
  932SOL    HW2 2796   0.536   0.035   2.971 -0.2027 -0.2373 -2.3542
  933SOL     OW 2797   1.045   0.801   2.970 -0.2869 -0.4497 -0.6274
  933SOL    HW1 2798   1.108   0.831   3.050  0.3513 -1.0341 -0.4068
  933SOL    HW2 2799   1.031   0.880   2.899  0.5027  1.5677  1.5869
  934SOL     OW 2800   0.871   2.955   2.838 -0.1033  0.0217  0.1277
  934SOL    HW1 2801   0.962   2.907   2.824 -0.0372 -0.4248  1.9880
  934SOL    HW2 2802   0.824   2.909   2.927 -0.2190 -2.1540  0.8081
  935SOL     OW 2803   3.036   0.536   0.854 -0.5606 -0.0535  0.3612
  935SOL    HW1 2804   3.032   0.477   0.767  2.8587  2.4670 -0.3117
  935SOL    HW2 2805   2.944   0.581   0.881  1.7597  1.5050  2.5510
  936SOL     OW 2806   1.113   2.975   0.143 -0.2647 -0.6140 -0.4848
  936SOL    HW1 2807   1.135   3.031   0.060 -1.5153  0.5776 -0.4718
  936SOL    HW2 2808   1.152   2.876   0.142 -0.8621 -1.0396  0.6209
  937SOL     OW 2809   1.937   2.712   2.110 -0.6224  0.2104 -0.1140
  937SOL    HW1 2810   1.844   2.714   2.156  1.5906 -1.2080 -0.6947
  937SOL    HW2 2811   1.918   2.720   2.011 -1.3038 -0.8494 -0.1402
  938SOL     OW 2812   2.712   2.191   1.512 -0.5220  0.5408  0.0863
  938SOL    HW1 2813   2.673   2.250   1.587 -1.2282 -2.6359  0.0431
  938SOL    HW2 2814   2.778   2.117   1.548  0.3288 -0.9614  0.9678
  939SOL     OW 2815   2.758   1.004   2.553  0.0840  0.0945  0.3669
  939SOL    HW1 2816   2.829   0.932   2.559 -1.4630  1.9630  3.4986
  939SOL    HW2 2817   2.767   1.082   2.627  1.2253  2.3629  1.3572
  940SOL     OW 2818   1.017   0.475   2.647 -0.0922  0.3207  0.2839
  940SOL    HW1 2819   1.059   0.395   2.698 -0.4420 -0.6842  2.4360
  940SOL    HW2 2820   0.920   0.443   2.616 -2.3035  0.5556 -0.9255
  941SOL     OW 2821   0.025   2.870   2.213  0.3752  0.1823  0.8119
  941SOL    HW1 2822  -0.012   2.773   2.196 -0.3201 -1.1746 -0.6245
  941SOL    HW2 2823   0.108   2.868   2.273  0.1013 -3.9628  0.8006
  942SOL     OW 2824   0.158   0.076   2.557  0.2375 -0.2177  0.4298
  942SOL    HW1 2825   0.222   0.099   2.639  0.5892 -1.0602  1.0953
  942SOL    HW2 2826   0.112   0.168   2.524 -0.7010  0.0743 -0.0921
  943SOL     OW 2827   2.121   1.650   2.394 -0.0656 -0.3262 -0.1159
  943SOL    HW1 2828   2.187   1.575   2.424  0.6254 -1.1958 -4.2809
  943SOL    HW2 2829   2.046   1.616   2.331  5.7594 -2.4617 -1.0530
  944SOL     OW 2830   2.189   2.324   1.421 -0.0557  0.7566  0.1562
  944SOL    HW1 2831   2.230   2.410   1.471 -1.9876  2.7129 -0.9796
  944SOL    HW2 2832   2.144   2.257   1.484  0.4908 -0.2354  1.8701
  945SOL     OW 2833   0.587   1.407   0.331 -0.8124 -0.4527 -0.3365
  945SOL    HW1 2834   0.640   1.452   0.251 -4.7861  2.9404 -1.6990
  945SOL    HW2 2835   0.645   1.336   0.384  2.6588 -0.5814  0.6025
  946SOL     OW 2836   0.314   0.967   2.642  0.0152 -0.3038  0.1755
  946SOL    HW1 2837   0.255   0.931   2.565  0.4769  0.9028 -0.1758
  946SOL    HW2 2838   0.362   1.057   2.625  0.5327  1.8392 -0.3752
  947SOL     OW 2839   1.539   0.454   0.126  0.4911  0.2345 -0.8148
  947SOL    HW1 2840   1.536   0.393   0.209  0.9765 -0.7094  0.5804
  947SOL    HW2 2841   1.462   0.428   0.058 -1.3703 -0.9225  1.1602
  948SOL     OW 2842   2.054   3.037   2.126  0.8811 -0.3170 -0.0853
  948SOL    HW1 2843   1.995   3.036   2.040  0.3146 -2.3943  1.6669
  948SOL    HW2 2844   2.016   2.979   2.200  0.7321  0.4556  0.3021
  949SOL     OW 2845   0.689   2.540   0.426 -0.1331 -0.2754  0.0499
  949SOL    HW1 2846   0.699   2.640   0.398  1.1925 -0.8636  0.4974
  949SOL    HW2 2847   0.725   2.532   0.525  0.5963  1.0415  0.0584
  950SOL     OW 2848   0.195   2.127   3.000 -0.6904  0.1764  0.0333
  950SOL    HW1 2849   0.095   2.166   3.000 -3.5816 -1.7582  3.0160
  950SOL    HW2 2850   0.202   2.040   3.056 -0.1576  1.1132  0.1933
  951SOL     OW 2851   1.115   2.878   2.798 -0.1937  0.7558 -0.6992
  951SOL    HW1 2852   1.122   2.852   2.694 -0.1951  0.1775 -3.9057
  951SOL    HW2 2853   1.195   2.932   2.833  0.7027 -1.6155  3.2730
  952SOL     OW 2854   0.039   1.680   0.487 -0.1831  0.1680  0.3562
  952SOL    HW1 2855   0.127   1.739   0.510 -0.5334 -0.7694  1.1835
  952SOL    HW2 2856  -0.001   1.647   0.578  1.2942 -3.4096  3.3297
  953SOL     OW 2857   2.456   1.772   0.136  0.5819 -0.0074 -0.5213
  953SOL    HW1 2858   2.446   1.667   0.159 -0.1286 -2.2132 -3.1769
  953SOL    HW2 2859   2.461   1.786   0.032  1.6337 -0.8838  0.2660
  954SOL     OW 2860   2.237   0.491   1.057  0.2323  0.0141  0.7421
  954SOL    HW1 2861   2.205   0.527   0.964 -0.6365  0.5892 -2.8277
  954SOL    HW2 2862   2.342   0.469   1.064 -1.6584 -0.6407  0.3860
  955SOL     OW 2863   0.227   2.674   1.225  0.9600 -0.2732 -0.2577
  955SOL    HW1 2864   0.132   2.628   1.225 -0.2860 -2.5199  3.1147
  955SOL    HW2 2865   0.283   2.659   1.140 -2.4727  0.6942 -1.2388
  956SOL     OW 2866   2.777   2.481   2.506  0.3460 -0.2646  0.5926
  956SOL    HW1 2867   2.810   2.381   2.506  1.1676  1.3051 -1.1800
  956SOL    HW2 2868   2.814   2.539   2.427  0.2946  0.8494  1.5601
  957SOL     OW 2869   1.549   2.020   2.694 -0.1090  1.2527  0.7433
  957SOL    HW1 2870   1.520   1.917   2.706 -0.3236  0.7686  1.4157
  957SOL    HW2 2871   1.587   2.044   2.599 -2.1183 -1.6267 -3.1391
  958SOL     OW 2872   2.656   2.261   2.975  0.5837 -0.4498  0.1109
  958SOL    HW1 2873   2.561   2.305   2.954 -1.6248 -0.2226  2.1368
  958SOL    HW2 2874   2.668   2.249   3.077 -1.6403 -2.0495  1.2029
  959SOL     OW 2875   0.257   2.818   0.041 -0.1658  0.2529  0.1788
  959SOL    HW1 2876   0.203   2.812   0.127  0.6242  0.9412  1.3876
  959SOL    HW2 2877   0.278   2.723   0.008  1.3976  0.9210 -0.3366
  960SOL     OW 2878   1.925   0.450   2.075  0.0315 -0.1268  0.8245
  960SOL    HW1 2879   1.889   0.531   2.021  0.6290  0.4362  1.4775
  960SOL    HW2 2880   1.974   0.485   2.165  0.8910  2.0211  0.4637
  961SOL     OW 2881   2.768   2.006   1.053  0.5630  0.3729  0.5866
  961SOL    HW1 2882   2.853   2.066   1.040  1.0964  2.2217  1.8890
  961SOL    HW2 2883   2.709   2.029   1.135  0.3922  1.4352 -1.1814
  962SOL     OW 2884   1.259   0.936   3.089  0.1678 -0.7599  0.2800
  962SOL    HW1 2885   1.279   1.011   3.019  0.5992  1.3197 -0.1167
  962SOL    HW2 2886   1.255   0.985   3.180  1.6034 -0.9620 -0.0229
  963SOL     OW 2887   2.167   2.582   1.902  0.1718 -0.0822 -0.7510
  963SOL    HW1 2888   2.211   2.526   1.981  2.0828 -0.9737 -0.0831
  963SOL    HW2 2889   2.209   2.678   1.890 -0.8998  1.8642  1.0818
  964SOL     OW 2890   2.444   0.362   1.728  0.8763  0.1573  0.0941
  964SOL    HW1 2891   2.532   0.413   1.753 -0.8588  0.3631 -0.1199
  964SOL    HW2 2892   2.457   0.332   1.631  2.4608 -1.0957  1.9072
  965SOL     OW 2893   2.689   3.008   0.140  0.7641 -0.1202  0.1619
  965SOL    HW1 2894   2.752   2.946   0.092 -0.9665  3.5975  1.3656
  965SOL    HW2 2895   2.613   3.048   0.077  2.0096 -0.4249 -0.5515
  966SOL     OW 2896   2.519   2.603   2.229 -0.0380 -0.7230  0.4264
  966SOL    HW1 2897   2.443   2.542   2.196  0.4231 -0.9272 -1.4963
  966SOL    HW2 2898   2.482   2.680   2.290 -0.8608  0.3551  1.0441
  967SOL     OW 2899   2.725   2.872   2.485  0.2395  0.7915  0.2825
  967SOL    HW1 2900   2.775   2.800   2.427 -2.9298 -0.9960 -0.5262
  967SOL    HW2 2901   2.775   2.963   2.492  1.3411  2.7409  0.2660
  968SOL     OW 2902   1.958   1.063   2.732 -0.2207  0.3650  0.1404
  968SOL    HW1 2903   1.894   1.124   2.681 -1.4941  1.8690  5.9395
  968SOL    HW2 2904   1.969   0.972   2.686 -1.9420  1.4061  2.0069
  969SOL     OW 2905   2.732   2.387   1.189 -0.3631 -0.0222  0.4100
  969SOL    HW1 2906   2.666   2.376   1.109 -1.3526  0.4652  0.3323
  969SOL    HW2 2907   2.763   2.301   1.231  1.3482  2.7210 -0.1027
  970SOL     OW 2908   1.094   2.077   1.809 -0.8252 -0.4928  0.8204
  970SOL    HW1 2909   0.995   2.096   1.783  3.7550 -0.1491 -2.9758
  970SOL    HW2 2910   1.121   2.116   1.899 -0.8764 -1.6938  0.1380
  971SOL     OW 2911   2.842   2.145   1.919  0.3269  0.2428  0.0998
  971SOL    HW1 2912   2.806   2.242   1.950 -1.4626 -0.7007 -0.4652
  971SOL    HW2 2913   2.941   2.139   1.881  0.7482 -2.2213 -0.7379
  972SOL     OW 2914   2.054   2.481   0.266  0.0356 -0.1494 -0.2659
  972SOL    HW1 2915   1.998   2.408   0.208 -1.7617 -0.4446 -0.2944
  972SOL    HW2 2916   2.063   2.450   0.365 -0.5737  0.7602 -0.5779
  973SOL     OW 2917   1.300   1.052   1.840 -0.5209  0.5630 -0.3912
  973SOL    HW1 2918   1.231   1.013   1.771 -1.3037  0.2991 -1.7335
  973SOL    HW2 2919   1.305   1.152   1.849  0.8656 -2.7188 -0.7307
  974SOL     OW 2920   1.629   0.577   2.022 -0.5072  1.0238  0.2476
  974SOL    HW1 2921   1.706   0.583   1.949 -2.9638 -0.5431 -1.2655
  974SOL    HW2 2922   1.540   0.631   2.000  0.6987 -2.6293  0.1690
  975SOL     OW 2923   2.459   3.050   3.072 -0.2525  0.3953 -0.2735
  975SOL    HW1 2924   2.400   3.010   3.147  1.6064 -0.6077 -1.8151
  975SOL    HW2 2925   2.431   3.016   2.977 -2.4069 -1.7436 -2.1399
  976SOL     OW 2926   1.975   2.925   2.367 -0.2005  0.3166 -0.0412
  976SOL    HW1 2927   1.885   2.864   2.378 -2.5895 -2.5608 -2.0715
  976SOL    HW2 2928   2.051   2.882   2.426  0.9344 -1.1987 -1.4359
  977SOL     OW 2929   0.467   0.536   0.965 -1.1069 -0.5333 -0.7875
  977SOL    HW1 2930   0.382   0.544   0.909 -0.9270 -2.1278  1.2038
  977SOL    HW2 2931   0.551   0.570   0.905  1.3502  1.9473 -1.6644
   3.10000   3.10000   3.10000
