1000 SPC/Fw water molecules t=   1.69000 step= 1690
 2931
    1SOL     OW    1   2.485   0.383   2.656 -0.3073 -0.1263  0.4012
    1SOL    HW1    2   2.501   0.282   2.621 -0.5621 -0.6136 -2.5793
    1SOL    HW2    3   2.554   0.408   2.727 -1.2888  0.3445  0.2900
    2SOL     OW    4   2.708   2.968   1.382  0.2425 -0.7602 -0.0715
    2SOL    HW1    5   2.800   2.954   1.340 -2.0172  1.0933  1.0557
    2SOL    HW2    6   2.708   2.973   1.488  0.6471  3.1940 -1.4970
    3SOL     OW    7   2.707   2.497   0.370  0.2295 -0.0163 -0.2837
    3SOL    HW1    8   2.621   2.442   0.387 -0.2748 -0.0716  0.0528
    3SOL    HW2    9   2.743   2.552   0.452 -0.2356 -1.4090  0.5511
    4SOL     OW   10   1.326   1.584   2.443 -0.1473 -0.4211  0.0867
    4SOL    HW1   11   1.279   1.552   2.354 -0.5705 -0.4034  1.0814
    4SOL    HW2   12   1.304   1.517   2.519 -0.5179  0.8171  1.5229
    5SOL     OW   13   1.116   1.539   3.026  0.0652  0.6449 -0.1767
    5SOL    HW1   14   1.167   1.615   3.072 -0.1458  1.0782  0.9272
    5SOL    HW2   15   1.045   1.568   2.957  0.6517  3.0634 -0.1842
    6SOL     OW   16   0.261   1.804   3.084 -0.0008 -0.1051  0.2587
    6SOL    HW1   17   0.184   1.851   3.132 -1.7916  0.3041 -1.4164
    6SOL    HW2   18   0.322   1.743   3.134 -0.9301  1.6332 -1.2245
    7SOL     OW   19   2.499   0.914   1.045  0.3384 -0.1299  1.0348
    7SOL    HW1   20   2.396   0.890   1.063  1.8279 -1.4714  0.5660
    7SOL    HW2   21   2.530   0.879   0.955  0.2302  0.4459  2.5743
    8SOL     OW   22   0.419   0.650   1.551  0.0132 -0.1702  0.0790
    8SOL    HW1   23   0.487   0.577   1.581 -0.4339 -0.9617 -0.1452
    8SOL    HW2   24   0.449   0.692   1.461  1.8902 -2.0248 -0.0403
    9SOL     OW   25   1.133   0.892   2.331 -0.3567  0.6199  0.4908
    9SOL    HW1   26   1.222   0.906   2.280 -0.5010 -0.9810 -2.9229
    9SOL    HW2   27   1.108   0.789   2.344 -0.5435 -4.1118 -2.0190
   10SOL     OW   28   0.720   1.408   1.252 -0.9928 -0.3497  0.1611
   10SOL    HW1   29   0.641   1.402   1.188  0.6782  3.6407  0.8575
   10SOL    HW2   30   0.717   1.504   1.305 -1.1980 -0.1520  2.3798
   11SOL     OW   31   2.342   2.882   0.925  0.3700 -0.1696  0.5874
   11SOL    HW1   32   2.284   2.827   0.994 -1.6174 -0.6119  1.1905
   11SOL    HW2   33   2.437   2.892   0.952 -1.9662  0.2770  2.2123
   12SOL     OW   34   1.522   0.865   0.454  0.1124 -0.9898  0.1996
   12SOL    HW1   35   1.420   0.881   0.477 -0.0098  1.2453  2.5079
   12SOL    HW2   36   1.543   0.783   0.390 -0.1975 -0.7496 -2.5009
   13SOL     OW   37   2.463   0.726   1.816 -0.0893  0.0513 -0.2220
   13SOL    HW1   38   2.391   0.667   1.871 -1.6032 -1.5003  0.1323
   13SOL    HW2   39   2.466   0.694   1.719  0.4059 -0.5958 -1.0278
   14SOL     OW   40   1.963   0.024   0.601  0.6796 -0.4055 -0.4105
   14SOL    HW1   41   1.869   0.049   0.568  1.2202 -0.9134  1.2170
   14SOL    HW2   42   1.958  -0.023   0.697 -1.8676 -0.6732 -1.5807
   15SOL     OW   43   1.918   2.094   2.671  0.0678  0.3974 -0.1849
   15SOL    HW1   44   1.856   2.102   2.754  2.0203  0.9154  0.4423
   15SOL    HW2   45   1.896   2.006   2.618 -2.0768  2.5909  2.0557
   16SOL     OW   46   1.598   1.740   3.026 -0.5957  0.4485  0.1757
   16SOL    HW1   47   1.583   1.647   3.068  0.3504  1.5675 -0.8562
   16SOL    HW2   48   1.693   1.771   3.038 -1.7497  0.1665 -0.3782
   17SOL     OW   49   0.118   0.470   0.171  0.0565  0.1539 -0.2108
   17SOL    HW1   50   0.194   0.471   0.103  0.3604 -0.3274 -0.4961
   17SOL    HW2   51   0.027   0.496   0.133 -2.2568  0.9353 -0.4143
   18SOL     OW   52   0.918   2.914   2.134 -0.3051  0.2645  0.1270
   18SOL    HW1   53   0.909   2.846   2.210  0.9280 -1.7751 -0.2801
   18SOL    HW2   54   0.991   2.886   2.062  2.1687 -1.1537  0.4742
   19SOL     OW   55   0.569   0.893   1.917 -0.2896  0.0444 -0.2130
   19SOL    HW1   56   0.608   0.885   2.013 -0.7236  0.6380 -0.2295
   19SOL    HW2   57   0.622   0.962   1.863 -1.2773 -0.6761  1.0642
   20SOL     OW   58   0.210   2.810   0.794  0.0772 -0.4693  0.0836
   20SOL    HW1   59   0.104   2.821   0.786  0.4307  1.4938  1.3425
   20SOL    HW2   60   0.240   2.719   0.767  1.2115  0.6296 -2.1737
   21SOL     OW   61   2.735   0.299   2.044 -0.5693 -0.0627 -0.5288
   21SOL    HW1   62   2.709   0.216   1.987 -1.4103  2.0920 -1.1468
   21SOL    HW2   63   2.828   0.286   2.093  1.0472 -0.3283 -2.3539
   22SOL     OW   64   2.354   0.203   0.127  0.2316 -0.3097 -0.0037
   22SOL    HW1   65   2.403   0.132   0.071  0.3543 -1.1203  1.8610
   22SOL    HW2   66   2.279   0.247   0.066 -2.1725  1.7297 -0.7713
   23SOL     OW   67   2.814   0.539   0.683  0.2845 -0.2977  0.0828
   23SOL    HW1   68   2.865   0.481   0.614 -0.6834 -0.0506  2.1746
   23SOL    HW2   69   2.774   0.630   0.651 -0.5115 -1.3848 -1.3881
   24SOL     OW   70   0.307   1.893   0.456 -0.2193  0.4532  0.1746
   24SOL    HW1   71   0.293   1.971   0.394  0.1987 -0.4095  1.6582
   24SOL    HW2   72   0.404   1.857   0.454 -0.1703 -0.1744  2.3562
   25SOL     OW   73   2.281   0.601   0.199  0.0154 -0.0726  0.7577
   25SOL    HW1   74   2.291   0.571   0.098 -2.6370  1.9395 -1.0566
   25SOL    HW2   75   2.327   0.535   0.263  0.2899 -0.9311 -0.3515
   26SOL     OW   76   2.460   2.128   2.111  0.3340  0.3452  0.3433
   26SOL    HW1   77   2.546   2.176   2.141  0.6255  0.6889  0.2162
   26SOL    HW2   78   2.483   2.054   2.042  0.0961  0.0175  1.4266
   27SOL     OW   79   0.612   3.002   0.145  0.0441  0.6291 -0.7244
   27SOL    HW1   80   0.708   3.042   0.126 -0.3166  0.9435  1.4018
   27SOL    HW2   81   0.555   2.972   0.059  2.2181 -0.7735  0.4688
   28SOL     OW   82   1.570   0.140   0.295 -0.0500  0.3729  0.3223
   28SOL    HW1   83   1.603   0.091   0.208  0.8552 -1.2630 -1.3920
   28SOL    HW2   84   1.629   0.221   0.317 -2.5996 -1.2467  1.6692
   29SOL     OW   85   2.029   0.583   0.288  0.1464 -0.5099  0.1826
   29SOL    HW1   86   2.000   0.656   0.352 -0.5986 -1.8421 -1.1945
   29SOL    HW2   87   2.132   0.585   0.266  1.0050 -0.9063 -1.2422
   30SOL     OW   88   0.183   2.067   0.900 -0.3963 -0.0093  0.0176
   30SOL    HW1   89   0.194   1.989   0.832  0.0687  1.2840  0.7381
   30SOL    HW2   90   0.087   2.084   0.924  1.2868 -0.9682 -0.0434
   31SOL     OW   91   2.126   0.064   2.409 -0.5409  0.4412  0.2726
   31SOL    HW1   92   2.103   0.020   2.501  1.9568  0.5702  1.2599
   31SOL    HW2   93   2.048   0.056   2.343  0.4862  0.3564  1.1389
   32SOL     OW   94   3.061   3.077   0.244 -0.6457  0.0784 -0.6832
   32SOL    HW1   95   3.028   2.992   0.292  0.8357  1.9222  0.2251
   32SOL    HW2   96   3.158   3.074   0.215  0.3443  0.5917  1.7865
   33SOL     OW   97   0.922   0.187   0.648 -0.4584 -0.0664 -0.2326
   33SOL    HW1   98   0.897   0.145   0.557  0.8027  2.7862  2.0887
   33SOL    HW2   99   0.990   0.264   0.631  1.5346 -0.4114 -0.5527
   34SOL     OW  100   0.362   2.702   1.016  0.0107 -0.1393 -0.4165
   34SOL    HW1  101   0.293   2.742   0.947 -0.7324  0.6860  0.0706
   34SOL    HW2  102   0.446   2.763   1.038 -0.5740  3.0709 -0.8069
   35SOL     OW  103   0.053   0.131   1.900 -0.1055 -0.3203  0.0458
   35SOL    HW1  104   0.081   0.037   1.934  0.1447  1.2447  0.6202
   35SOL    HW2  105  -0.007   0.122   1.813  1.2553  1.2644 -1.2736
   36SOL     OW  106   1.941   1.154   1.510 -0.4166  0.6802 -0.1483
   36SOL    HW1  107   2.034   1.106   1.501 -1.3641  0.0674 -1.0975
   36SOL    HW2  108   1.948   1.247   1.469  1.5071 -0.7751 -1.8170
   37SOL     OW  109   1.116   0.255   1.001  0.3071  0.1890  0.3698
   37SOL    HW1  110   1.124   0.360   0.983  0.5355 -0.0436  2.8040
   37SOL    HW2  111   1.190   0.197   0.965 -3.3538  2.2881 -1.8383
   38SOL     OW  112   1.151   2.831   2.426 -0.3069 -0.3469  0.2506
   38SOL    HW1  113   1.057   2.804   2.461  2.3483 -0.9342 -0.7382
   38SOL    HW2  114   1.187   2.928   2.443 -0.5116  2.0728  0.9303
   39SOL     OW  115   2.481   1.428   3.010  0.3622  0.3087 -0.0214
   39SOL    HW1  116   2.549   1.354   3.036 -1.4644 -1.1186 -1.6865
   39SOL    HW2  117   2.400   1.424   3.074 -1.0674 -2.4066 -0.1446
   40SOL     OW  118   2.050   2.536   2.526  0.2102 -0.7513 -0.8318
   40SOL    HW1  119   2.042   2.637   2.519  3.3590  0.8144  0.9019
   40SOL    HW2  120   1.967   2.483   2.508  2.3351  1.2032 -1.4604
   41SOL     OW  121   3.053   0.731   2.775 -0.0799 -0.4862 -0.2927
   41SOL    HW1  122   3.041   0.824   2.815 -1.2696 -1.2959 -1.6644
   41SOL    HW2  123   2.966   0.693   2.729 -4.0913  1.3319  1.0672
   42SOL     OW  124   1.773   1.732   0.523 -0.6174 -0.1010  0.0686
   42SOL    HW1  125   1.736   1.633   0.523  0.8934  0.0289 -0.9513
   42SOL    HW2  126   1.795   1.760   0.425 -0.6330  0.6416 -1.1671
   43SOL     OW  127   0.465   1.674   1.123 -0.1509 -0.0614  0.0866
   43SOL    HW1  128   0.468   1.572   1.101 -2.4658  1.4268 -0.0767
   43SOL    HW2  129   0.388   1.712   1.176  2.2422  0.8959 -0.5602
   44SOL     OW  130   1.665   2.333   2.939  0.1536 -0.2520 -1.0970
   44SOL    HW1  131   1.584   2.377   2.984  2.0234  1.1501  1.2095
   44SOL    HW2  132   1.721   2.398   2.876  0.8245  1.2052  0.1400
   45SOL     OW  133   0.371   1.905   2.605  0.1586  0.2281  1.0643
   45SOL    HW1  134   0.326   1.904   2.509 -2.7566  0.2607 -0.1890
   45SOL    HW2  135   0.442   1.830   2.628  2.7057 -2.0725 -1.3302
   46SOL     OW  136   1.301   0.737   0.250  0.8047 -0.5202 -0.2811
   46SOL    HW1  137   1.274   0.825   0.207  2.2853 -1.0085  0.2486
   46SOL    HW2  138   1.245   0.663   0.218  0.4581  1.9673 -0.7639
   47SOL     OW  139   0.112   2.417   1.589  0.3452 -0.2030  0.4787
   47SOL    HW1  140   0.111   2.331   1.653  0.5326 -0.2422  2.4887
   47SOL    HW2  141   0.138   2.391   1.490 -1.6046  0.3826  0.3333
   48SOL     OW  142   2.633   0.675   0.117 -0.2259  0.4412  0.2507
   48SOL    HW1  143   2.627   0.634   0.217  0.3442 -3.1386  0.5034
   48SOL    HW2  144   2.734   0.701   0.095 -0.3238  0.4784 -2.3281
   49SOL     OW  145   0.352   0.833   1.760 -0.5221  0.0375 -0.5689
   49SOL    HW1  146   0.445   0.842   1.809 -0.2217  2.0135 -1.3582
   49SOL    HW2  147   0.357   0.759   1.689 -0.4690  1.1594 -0.2655
   50SOL     OW  148   1.739   1.091   0.307 -0.3906  0.0541  0.1000
   50SOL    HW1  149   1.763   0.989   0.306  0.8029 -1.6933 -0.9692
   50SOL    HW2  150   1.674   1.113   0.385  0.0777 -0.6452  0.5275
   51SOL     OW  151   2.958   1.762   0.338 -0.2574 -0.9525 -0.0423
   51SOL    HW1  152   2.881   1.702   0.370 -1.6392  1.3803  1.0398
   51SOL    HW2  153   3.049   1.737   0.378 -1.4708 -0.7501 -0.2066
   52SOL     OW  154   0.771   2.171   0.548  0.5453 -0.3519  0.2075
   52SOL    HW1  155   0.676   2.214   0.548 -1.3118 -0.5571  0.3300
   52SOL    HW2  156   0.785   2.102   0.626  3.3039  0.5953 -0.2025
   53SOL     OW  157   0.290   0.420   1.445  0.2617  0.4813 -0.3622
   53SOL    HW1  158   0.307   0.517   1.483  1.3600 -0.1575  0.4169
   53SOL    HW2  159   0.290   0.414   1.342  3.8694 -0.3195 -1.4739
   54SOL     OW  160   1.714   0.423   0.003  0.1914  0.0141  0.1979
   54SOL    HW1  161   1.775   0.387   0.081  1.1725  0.2805 -1.4666
   54SOL    HW2  162   1.615   0.433   0.040 -0.7963  1.8444  0.9540
   55SOL     OW  163   0.757   2.963   0.615  0.7309 -0.3283  0.0123
   55SOL    HW1  164   0.700   3.047   0.602  0.9779 -1.5031  0.9236
   55SOL    HW2  165   0.842   2.963   0.558  1.1593 -1.8057  2.4351
   56SOL     OW  166   0.580   1.524   3.046 -0.0693  0.0990 -0.2026
   56SOL    HW1  167   0.506   1.557   3.111 -2.0173 -0.1770  0.0509
   56SOL    HW2  168   0.540   1.444   2.986 -0.4758 -2.1690 -1.8428
   57SOL     OW  169   1.688   2.469   2.328  0.2497 -0.2094 -0.2253
   57SOL    HW1  170   1.759   2.394   2.349 -0.2089 -1.0277 -0.1304
   57SOL    HW2  171   1.616   2.476   2.401  0.5363  2.2519 -0.9681
   58SOL     OW  172   0.649   0.217   1.072 -0.3614 -0.2696  0.1719
   58SOL    HW1  173   0.569   0.217   1.142  1.1828  1.5585  2.7181
   58SOL    HW2  174   0.708   0.132   1.072 -0.6671 -1.1602  1.4556
   59SOL     OW  175   0.448   2.374   2.650  0.0533 -0.2238 -0.3381
   59SOL    HW1  176   0.464   2.275   2.665  0.0894  2.6610 -0.8534
   59SOL    HW2  177   0.538   2.429   2.667 -0.5232  1.6386  3.3182
   60SOL     OW  178   2.301   2.040   2.308  0.4778 -0.4662 -0.3924
   60SOL    HW1  179   2.357   2.082   2.229  2.0050 -0.1240 -0.3085
   60SOL    HW2  180   2.328   2.078   2.400  1.6824  0.0573 -0.0361
   61SOL     OW  181   1.189   0.636   0.502  0.3894  0.0761 -0.4600
   61SOL    HW1  182   1.098   0.671   0.538 -1.1770 -0.5683  0.1393
   61SOL    HW2  183   1.233   0.686   0.418 -1.3033  2.8722 -0.7917
   62SOL     OW  184   2.803   1.728   2.681  0.5385 -0.3921 -0.0892
   62SOL    HW1  185   2.711   1.680   2.691  1.3928 -0.0358 -0.0585
   62SOL    HW2  186   2.875   1.689   2.740 -1.2466  1.1973 -0.8191
   63SOL     OW  187   0.544   0.917   0.206  0.0173 -0.5533 -0.0739
   63SOL    HW1  188   0.593   0.967   0.130 -0.6340  1.2123 -0.2287
   63SOL    HW2  189   0.545   0.971   0.293  0.7807 -0.9952 -2.5418
   64SOL     OW  190   2.991   0.550   2.338  0.4808 -0.6989 -0.0219
   64SOL    HW1  191   2.926   0.592   2.406 -0.7599 -0.3893  2.3186
   64SOL    HW2  192   3.000   0.612   2.261  1.3155 -1.5118 -0.2269
   65SOL     OW  193   0.241   1.443   0.706 -0.0056  0.2897 -0.5439
   65SOL    HW1  194   0.221   1.531   0.759 -0.4950 -0.5670 -1.6327
   65SOL    HW2  195   0.298   1.464   0.617 -0.9159  2.1178 -2.0744
   66SOL     OW  196   2.574   0.337   0.565  0.2669 -0.0407 -0.2532
   66SOL    HW1  197   2.676   0.350   0.567 -3.3796  0.8961 -0.8814
   66SOL    HW2  198   2.535   0.279   0.639 -0.4331  1.3516  0.2751
   67SOL     OW  199   0.602   2.531   1.453 -0.0519  0.2246 -0.8462
   67SOL    HW1  200   0.676   2.498   1.514  0.5651  1.3566 -3.1726
   67SOL    HW2  201   0.523   2.461   1.440  0.8364 -2.5251 -2.2909
   68SOL     OW  202   0.899   0.982   2.444  0.4216  0.5431 -0.0258
   68SOL    HW1  203   0.977   0.931   2.397  1.8694  1.3398 -2.0907
   68SOL    HW2  204   0.869   1.056   2.380  1.2517 -2.2726 -0.3917
   69SOL     OW  205   0.778   2.651   2.358  0.5047 -0.3684  0.2947
   69SOL    HW1  206   0.827   2.612   2.276 -0.5848 -3.3801  2.0582
   69SOL    HW2  207   0.675   2.629   2.364 -0.3690 -2.1996  0.6648
   70SOL     OW  208   0.460   0.161   2.559  0.2644 -0.0727  0.2690
   70SOL    HW1  209   0.371   0.133   2.600 -0.3980  1.5217  0.0787
   70SOL    HW2  210   0.529   0.088   2.547  1.6454  0.0443  0.2821
   71SOL     OW  211   1.044   1.752   0.309  0.1159 -0.1337  0.0819
   71SOL    HW1  212   1.003   1.677   0.372  1.2409  2.6608  0.4206
   71SOL    HW2  213   0.988   1.775   0.224  0.1843 -2.8078  0.5575
   72SOL     OW  214   1.851   0.267   2.161 -0.1556  0.1982 -0.2124
   72SOL    HW1  215   1.914   0.345   2.193  2.4580  1.5616  1.3328
   72SOL    HW2  216   1.892   0.171   2.180  0.2611 -1.0705 -0.9045
   73SOL     OW  217   2.766   2.199   2.487 -0.2562 -0.1128 -0.4364
   73SOL    HW1  218   2.735   2.104   2.449 -3.3638 -0.9995 -0.3847
   73SOL    HW2  219   2.809   2.199   2.581 -1.2806  1.4037  1.4024
   74SOL     OW  220   2.704   2.917   2.117  0.3202  0.5494 -0.1946
   74SOL    HW1  221   2.621   2.910   2.178 -0.1447 -0.6410 -0.0048
   74SOL    HW2  222   2.780   2.971   2.151 -0.6671 -0.5521 -4.7650
   75SOL     OW  223   0.957   0.812   1.162 -0.2640 -0.1755 -0.2416
   75SOL    HW1  224   0.858   0.847   1.145 -1.0438  2.3649  0.7031
   75SOL    HW2  225   0.988   0.848   1.258  0.7089  1.5374  2.0153
   76SOL     OW  226   1.851   1.288   2.601  0.1264  0.1670  0.7637
   76SOL    HW1  227   1.751   1.280   2.637 -0.8441 -0.9631  5.2174
   76SOL    HW2  228   1.899   1.373   2.637  1.2892  2.1224  1.8636
   77SOL     OW  229   2.905   0.959   1.048 -0.1694 -0.6399  0.3613
   77SOL    HW1  230   2.873   0.859   1.054  0.2162 -1.6071 -2.9592
   77SOL    HW2  231   2.979   0.984   1.123 -0.6178  0.6151  0.8292
   78SOL     OW  232   1.991   1.424   1.343 -0.1929  0.5795  0.4693
   78SOL    HW1  233   2.074   1.394   1.292 -0.0503  2.6586  2.0461
   78SOL    HW2  234   1.908   1.452   1.284 -1.7958  0.8859 -0.7881
   79SOL     OW  235   0.716   1.443   0.824 -0.2749  0.0218 -0.4575
   79SOL    HW1  236   0.619   1.404   0.835 -1.2859  2.4741  0.0944
   79SOL    HW2  237   0.787   1.370   0.843  2.1468 -2.8051 -0.3061
   80SOL     OW  238   0.595   0.459   1.565  0.6656  0.0194  0.0051
   80SOL    HW1  239   0.625   0.487   1.471  3.1859  0.7972  0.5438
   80SOL    HW2  240   0.618   0.361   1.578  0.8969 -1.5942 -2.0332
   81SOL     OW  241   1.081   1.259   2.529  0.2627  0.0576 -0.4015
   81SOL    HW1  242   1.049   1.158   2.539  0.6931 -0.5572  0.7731
   81SOL    HW2  243   1.015   1.323   2.478 -0.8650  0.9458  0.2819
   82SOL     OW  244   0.901   2.945   1.511  0.2034  0.7314  0.5818
   82SOL    HW1  245   0.907   2.853   1.463 -4.4597 -1.2164  1.5942
   82SOL    HW2  246   0.842   3.013   1.464  0.5112  0.4532  2.2768
   83SOL     OW  247   2.639   2.378   0.855  0.3204  0.8751 -0.0639
   83SOL    HW1  248   2.541   2.336   0.844 -0.9089  0.9848 -0.6455
   83SOL    HW2  249   2.647   2.475   0.833  0.0508  0.3079  0.0416
   84SOL     OW  250   0.777   0.007   2.278  0.3911 -0.9411 -0.0491
   84SOL    HW1  251   0.759  -0.039   2.369  0.3950  0.3254  1.8399
   84SOL    HW2  252   0.817  -0.058   2.209 -1.3886 -0.8374  1.6102
   85SOL     OW  253   0.289   1.714   1.360  0.5571  0.3415 -0.1403
   85SOL    HW1  254   0.255   1.804   1.401 -0.6363 -0.4236  3.3107
   85SOL    HW2  255   0.348   1.659   1.430 -0.0418 -0.2342 -0.9965
   86SOL     OW  256   0.427   1.046   1.486  0.6066  0.0194 -0.2483
   86SOL    HW1  257   0.397   0.971   1.423  1.0011 -2.7175  0.1525
   86SOL    HW2  258   0.518   1.021   1.526  0.6962  0.4654 -1.5948
   87SOL     OW  259   1.606   0.660   0.299 -0.4471 -0.5372  0.0489
   87SOL    HW1  260   1.685   0.726   0.278 -0.8342 -0.7515 -0.9633
   87SOL    HW2  261   1.596   0.601   0.219  2.4360  2.0656 -0.2576
   88SOL     OW  262   1.580   1.327   0.260 -0.4881 -0.4876 -0.2596
   88SOL    HW1  263   1.644   1.257   0.226 -2.1751  0.9060  0.6005
   88SOL    HW2  264   1.479   1.311   0.233  1.8827 -0.0494  0.0791
   89SOL     OW  265   0.018   0.402   0.654 -0.3856 -0.1741  0.6556
   89SOL    HW1  266   0.115   0.372   0.642 -1.2604 -0.2625 -0.0958
   89SOL    HW2  267  -0.053   0.330   0.626  1.9076 -0.1334  2.2427
   90SOL     OW  268   0.758   1.540   0.155 -0.2876  0.0040  0.2340
   90SOL    HW1  269   0.834   1.471   0.155  0.2359  1.5322 -1.2541
   90SOL    HW2  270   0.699   1.531   0.068  0.4628 -0.0736  0.0190
   91SOL     OW  271   1.293   1.501   1.740  0.5323  0.2155 -0.5477
   91SOL    HW1  272   1.234   1.554   1.804  0.7048  3.2198 -0.4390
   91SOL    HW2  273   1.331   1.419   1.789  2.3857 -0.9663 -2.2666
   92SOL     OW  274   0.009   1.001   1.221 -0.0602 -0.4150 -0.2427
   92SOL    HW1  275   0.081   1.068   1.185 -0.1811  2.7987  1.5502
   92SOL    HW2  276   0.018   0.991   1.326 -0.4042  0.3436  3.0969
   93SOL     OW  277   3.081   2.646   0.069 -0.5165 -0.7007 -0.3466
   93SOL    HW1  278   3.032   2.652  -0.017  0.4232 -1.3713 -0.4444
   93SOL    HW2  279   3.096   2.551   0.100 -0.4125 -1.1559  0.2953
   94SOL     OW  280   1.497   1.294   1.676 -0.2250  0.3639 -0.1112
   94SOL    HW1  281   1.568   1.217   1.675 -0.2918 -0.5179 -1.9409
   94SOL    HW2  282   1.543   1.384   1.670 -0.9828  0.6657  1.0835
   95SOL     OW  283   1.341   2.470   2.918  0.2309  0.2754  0.0098
   95SOL    HW1  284   1.260   2.474   2.979  1.7982  0.1865 -0.3079
   95SOL    HW2  285   1.347   2.383   2.855  1.5458 -1.7072 -1.8972
   96SOL     OW  286   0.581   2.172   1.323 -0.4647  0.1450 -0.3991
   96SOL    HW1  287   0.514   2.157   1.243  0.4604 -0.7615  0.2206
   96SOL    HW2  288   0.616   2.086   1.368  0.3779 -1.2740 -2.7152
   97SOL     OW  289   0.249   1.613   2.415 -0.0787  0.0116 -0.8180
   97SOL    HW1  290   0.244   1.718   2.403 -0.5423  1.6246 -0.6476
   97SOL    HW2  291   0.251   1.576   2.512 -0.7418  1.0984  1.2424
   98SOL     OW  292   2.163   1.664   1.204  0.0037  0.0311  0.1351
   98SOL    HW1  293   2.106   1.583   1.237 -1.0912 -1.3650 -2.6965
   98SOL    HW2  294   2.253   1.625   1.175 -0.4175  1.2124  4.1764
   99SOL     OW  295   2.623   2.039   1.277 -0.7887 -0.5282  0.8597
   99SOL    HW1  296   2.698   2.067   1.338 -0.2994 -0.1430 -0.8165
   99SOL    HW2  297   2.548   1.982   1.329 -2.1870 -2.0159 -0.6566
  100SOL     OW  298   2.322   0.372   2.133 -0.1466 -0.2199 -0.4306
  100SOL    HW1  299   2.271   0.327   2.207  1.6933  1.4249 -0.1350
  100SOL    HW2  300   2.416   0.406   2.160  0.8222  0.8393 -1.4881
  101SOL     OW  301   0.365   1.483   0.466  0.3315 -0.8039 -0.4818
  101SOL    HW1  302   0.370   1.569   0.524  1.6142 -0.0185 -5.3323
  101SOL    HW2  303   0.457   1.466   0.428 -3.0421  3.0238 -0.3459
  102SOL     OW  304   2.240   1.063   0.817  0.3679  0.3071  0.1975
  102SOL    HW1  305   2.221   0.957   0.802  0.6463 -3.2249 -0.5540
  102SOL    HW2  306   2.305   1.101   0.749 -2.5907  0.9118 -0.3830
  103SOL     OW  307   2.271   0.083   0.380 -0.3474 -0.0721  0.2781
  103SOL    HW1  308   2.303   0.136   0.295 -1.6712  2.4499  0.7001
  103SOL    HW2  309   2.348   0.056   0.439 -0.8983 -0.3480  0.7316
  104SOL     OW  310   3.056   1.782   2.214 -0.0390 -0.2145 -0.6444
  104SOL    HW1  311   3.118   1.770   2.133 -0.4806  2.9837 -1.5716
  104SOL    HW2  312   2.970   1.833   2.176 -2.4835  1.3815 -1.1607
  105SOL     OW  313   1.351   2.093   0.774 -0.3581 -0.1674 -0.0944
  105SOL    HW1  314   1.362   2.148   0.689 -1.5333  0.2253 -0.0376
  105SOL    HW2  315   1.354   1.993   0.751  0.0231  1.4131  1.4847
  106SOL     OW  316   2.134   0.409   1.417  0.2398  0.1554 -0.1280
  106SOL    HW1  317   2.072   0.327   1.406 -0.4116  2.9875  0.8533
  106SOL    HW2  318   2.145   0.439   1.519 -2.1207 -2.5358 -0.1374
  107SOL     OW  319   1.901   2.905   1.162  0.2584  0.4459 -0.2107
  107SOL    HW1  320   1.837   2.977   1.193  2.0968  1.5110 -0.3369
  107SOL    HW2  321   1.860   2.837   1.095  1.1457 -0.3722  2.4262
  108SOL     OW  322   0.832   2.821   1.157  0.2914 -0.0133 -0.7043
  108SOL    HW1  323   0.848   2.734   1.101 -0.0814 -2.1656  2.2035
  108SOL    HW2  324   0.926   2.865   1.184  0.0658  0.3492  0.4645
  109SOL     OW  325   2.166   0.168   0.709 -0.1815 -0.5417 -0.0163
  109SOL    HW1  326   2.084   0.120   0.665 -0.4261  2.0395 -0.2704
  109SOL    HW2  327   2.145   0.193   0.810  0.7537 -0.9856  0.3019
  110SOL     OW  328   0.497   2.799   2.748 -0.2988  0.8593 -0.0778
  110SOL    HW1  329   0.504   2.819   2.648  1.4147 -0.2171  2.1856
  110SOL    HW2  330   0.569   2.736   2.779  0.5838  0.1939 -0.8352
  111SOL     OW  331   1.320   0.558   2.271  0.3139  0.5396  0.0548
  111SOL    HW1  332   1.237   0.573   2.324  1.0964 -0.9126 -2.3776
  111SOL    HW2  333   1.368   0.473   2.311  0.8048 -1.0644 -1.1822
  112SOL     OW  334   1.728   0.446   1.526 -0.2308  0.5724 -0.0136
  112SOL    HW1  335   1.715   0.486   1.434  0.7732 -1.3354  1.4428
  112SOL    HW2  336   1.642   0.447   1.589 -1.3986 -1.3864  1.4985
  113SOL     OW  337   2.369   1.687   1.788 -0.5375 -0.4529 -0.1242
  113SOL    HW1  338   2.409   1.593   1.780  0.1447 -0.8699  0.7798
  113SOL    HW2  339   2.351   1.709   1.890 -0.2843 -1.0066  2.5760
  114SOL     OW  340   0.300   0.411   1.161 -0.9685 -0.1929 -0.1295
  114SOL    HW1  341   0.203   0.414   1.165  1.6156 -1.1847 -1.0188
  114SOL    HW2  342   0.336   0.423   1.064  1.4124  0.1877  1.1588
  115SOL     OW  343   2.698   1.538   1.264 -0.5163 -0.6507  0.3641
  115SOL    HW1  344   2.686   1.436   1.267 -0.9505  0.5175 -0.6524
  115SOL    HW2  345   2.796   1.572   1.262  0.5017  1.2188  0.6186
  116SOL     OW  346   1.916   0.888   0.758  0.2947  0.3893 -0.0050
  116SOL    HW1  347   1.820   0.867   0.731  0.9435  2.5555  2.5048
  116SOL    HW2  348   1.930   0.990   0.760  0.5490 -1.3811 -1.0559
  117SOL     OW  349   1.145   0.367   0.558  0.0395  0.1323 -0.2162
  117SOL    HW1  350   1.142   0.468   0.561  0.1791  0.1940 -0.0390
  117SOL    HW2  351   1.107   0.337   0.467 -3.6640 -1.4623 -2.3210
  118SOL     OW  352   1.146   1.221   1.073  0.4347 -0.0763  0.1312
  118SOL    HW1  353   1.068   1.185   1.131  1.5682  1.1750 -2.8060
  118SOL    HW2  354   1.184   1.310   1.107  0.6678 -0.6193  0.6080
  119SOL     OW  355   1.846   1.573   2.197  0.5562 -0.1634  0.3297
  119SOL    HW1  356   1.800   1.649   2.140  1.1209 -2.0055 -0.1401
  119SOL    HW2  357   1.939   1.556   2.159  0.7253  0.7091 -0.9778
  120SOL     OW  358   2.970   2.812   0.270  0.3658 -0.2373  0.3915
  120SOL    HW1  359   3.007   2.747   0.196 -1.9885 -0.6515  0.1246
  120SOL    HW2  360   2.872   2.792   0.288 -0.4391 -1.2219  1.5890
  121SOL     OW  361   2.008   0.784   2.325  0.1061 -0.7797  0.2274
  121SOL    HW1  362   2.055   0.870   2.289  2.2664  0.6682 -1.0513
  121SOL    HW2  363   2.046   0.698   2.284  0.7439  0.2073  1.0666
  122SOL     OW  364   2.623   2.508   1.324  0.4056 -0.0835  0.2927
  122SOL    HW1  365   2.661   2.446   1.253  1.0008  1.0955  4.5071
  122SOL    HW2  366   2.625   2.457   1.416 -2.7258 -0.3807  0.2399
  123SOL     OW  367   1.658   0.144   1.704  0.0182  0.5098 -0.3633
  123SOL    HW1  368   1.687   0.070   1.640 -1.1180 -0.3923  1.8415
  123SOL    HW2  369   1.736   0.200   1.734 -1.2111  0.6175  0.7670
  124SOL     OW  370   3.046   0.403   1.143 -0.2233  0.6945  0.4502
  124SOL    HW1  371   2.963   0.456   1.182  0.4094 -0.5414  1.4832
  124SOL    HW2  372   3.073   0.443   1.049 -3.3207  1.2999  0.1675
  125SOL     OW  373   0.864   1.995   0.738  0.2085 -0.0628 -0.5347
  125SOL    HW1  374   0.958   1.965   0.766  1.7463 -2.7389 -2.1841
  125SOL    HW2  375   0.804   2.014   0.825 -0.8742 -2.3064  0.1705
  126SOL     OW  376   1.882   2.320   2.449  0.0996 -0.2131 -0.1090
  126SOL    HW1  377   1.935   2.270   2.375  0.1472 -0.0255 -2.4360
  126SOL    HW2  378   1.879   2.270   2.541 -0.7364  3.1654  0.2751
  127SOL     OW  379   0.895   0.977   0.190 -0.1176 -0.2740 -0.6024
  127SOL    HW1  380   0.915   1.009   0.286 -0.2837  2.2666 -0.6897
  127SOL    HW2  381   0.914   0.876   0.178  0.6447  1.7268  0.7427
  128SOL     OW  382   0.938   0.213   1.436  0.0314 -0.6534 -0.4590
  128SOL    HW1  383   0.902   0.293   1.384 -1.9420  1.5472 -2.7820
  128SOL    HW2  384   0.891   0.124   1.412 -3.2759 -2.5906  1.1448
  129SOL     OW  385   1.864   0.712   1.844  0.3097  0.1782  0.0662
  129SOL    HW1  386   1.868   0.705   1.738  0.3258  2.1151  1.4410
  129SOL    HW2  387   1.880   0.802   1.888 -1.2284 -0.3568  2.8849
  130SOL     OW  388   1.356   2.234   1.010  0.1457 -1.1924  0.6731
  130SOL    HW1  389   1.345   2.159   0.939 -2.5425 -1.2214 -0.8161
  130SOL    HW2  390   1.432   2.302   0.984 -2.3001  0.4262 -2.8859
  131SOL     OW  391   3.061   1.411   1.405 -0.0353 -0.6742  0.1458
  131SOL    HW1  392   3.002   1.324   1.413 -3.9231  0.0651  1.7032
  131SOL    HW2  393   3.143   1.389   1.355 -0.9899 -0.4264  1.3939
  132SOL     OW  394   2.067   2.429   0.560 -0.2947 -0.1573 -0.0351
  132SOL    HW1  395   1.963   2.442   0.571 -1.5697  0.5895  1.0410
  132SOL    HW2  396   2.097   2.335   0.589 -1.7430  1.3929 -0.3950
  133SOL     OW  397   1.752   2.516   2.758  0.0936  0.1020  0.1607
  133SOL    HW1  398   1.700   2.496   2.668  0.3779  1.7549 -2.2166
  133SOL    HW2  399   1.727   2.601   2.806 -0.4760  1.3902 -1.0012
  134SOL     OW  400   2.647   2.398   1.602 -0.5136  0.0527  0.4137
  134SOL    HW1  401   2.588   2.356   1.678 -1.9490 -1.1301 -3.2409
  134SOL    HW2  402   2.690   2.491   1.617 -2.0224 -0.6922  1.3991
  135SOL     OW  403   0.821   1.415   2.664  0.2586 -0.6013  0.6746
  135SOL    HW1  404   0.784   1.332   2.710 -0.5256  1.6908 -1.7726
  135SOL    HW2  405   0.788   1.412   2.566  0.0798 -0.0942  0.1060
  136SOL     OW  406   1.164   2.010   0.402 -0.1987 -0.4116 -0.0180
  136SOL    HW1  407   1.111   2.092   0.449 -2.0777  0.7118 -1.6131
  136SOL    HW2  408   1.103   1.925   0.388  0.0881 -0.3894 -0.9003
  137SOL     OW  409   0.414   1.219   2.328 -0.2316  0.1336 -0.4159
  137SOL    HW1  410   0.315   1.208   2.311  1.0637  2.8643 -0.6872
  137SOL    HW2  411   0.455   1.139   2.379 -1.2348 -0.8173 -0.8785
  138SOL     OW  412   2.451   1.496   0.234  0.1406 -0.4117  0.2283
  138SOL    HW1  413   2.380   1.438   0.181  1.9661 -0.1051 -0.8026
  138SOL    HW2  414   2.473   1.448   0.321  1.1010  1.2038 -1.9693
  139SOL     OW  415   1.865   2.663   1.586 -0.3453 -0.2140 -0.5935
  139SOL    HW1  416   1.777   2.705   1.551  1.2700  2.4795  0.1466
  139SOL    HW2  417   1.886   2.568   1.548 -0.1621 -4.0617  1.0257
  140SOL     OW  418   2.986   2.958   2.561  0.7194  0.4308  0.0380
  140SOL    HW1  419   3.037   2.871   2.599 -3.0740 -0.7668 -1.1598
  140SOL    HW2  420   3.049   3.028   2.517 -0.1540 -0.0292 -0.8884
  141SOL     OW  421   1.320   1.645   1.478  0.3181  0.1065 -0.2141
  141SOL    HW1  422   1.249   1.717   1.507 -1.4338 -3.2008 -0.5349
  141SOL    HW2  423   1.315   1.559   1.536  0.6235  0.7815  1.4119
  142SOL     OW  424   1.582   0.686   2.228  0.1970 -0.2412 -0.7827
  142SOL    HW1  425   1.549   0.716   2.135  0.2204 -0.8681 -1.2935
  142SOL    HW2  426   1.500   0.662   2.281 -0.5249 -1.1360 -2.1436
  143SOL     OW  427   2.745   0.803   0.546 -0.0014  0.0298  0.0695
  143SOL    HW1  428   2.811   0.834   0.472  0.3961  0.4543  0.6367
  143SOL    HW2  429   2.755   0.850   0.633  0.3195 -3.0407 -1.5949
  144SOL     OW  430   2.896   1.149   1.432 -0.6981  0.3114 -0.8159
  144SOL    HW1  431   2.863   1.157   1.530 -1.9336 -2.7012 -1.3256
  144SOL    HW2  432   2.979   1.087   1.426  2.7574  1.9746  2.5595
  145SOL     OW  433   0.889   1.760   0.101  0.3410 -0.1075 -0.7055
  145SOL    HW1  434   0.884   1.778  -0.001 -1.4812  0.2351 -1.1267
  145SOL    HW2  435   0.840   1.673   0.128 -2.3825  0.6414  0.6874
  146SOL     OW  436   2.464   0.649   1.510  0.4307 -0.2440  0.1652
  146SOL    HW1  437   2.455   0.555   1.467 -0.1135 -2.7293  0.4736
  146SOL    HW2  438   2.390   0.715   1.475  0.8511 -0.2059  1.3971
  147SOL     OW  439   1.068   2.472   0.566  0.0523 -0.4411  0.1661
  147SOL    HW1  440   1.012   2.539   0.507 -1.0489 -0.5131  1.4088
  147SOL    HW2  441   1.170   2.480   0.546 -0.5098  2.9133 -2.0202
  148SOL     OW  442   1.582   1.445   0.000  0.2333 -0.0393 -0.2100
  148SOL    HW1  443   1.598   1.344  -0.017 -0.0837  0.5983 -1.0710
  148SOL    HW2  444   1.565   1.456   0.100 -0.0479 -2.5049 -0.5209
  149SOL     OW  445   0.668   1.495   1.986  0.3417  0.1117  0.8090
  149SOL    HW1  446   0.576   1.462   2.014 -0.2451  0.1807 -1.5891
  149SOL    HW2  447   0.680   1.474   1.882  2.2490  1.4617  0.1216
  150SOL     OW  448   3.026   1.189   0.936 -0.4956  0.3606  0.1490
  150SOL    HW1  449   3.117   1.194   0.991  1.7604  1.0106  3.4002
  150SOL    HW2  450   2.970   1.108   0.963  0.8407  0.9145  0.8250
  151SOL     OW  451   0.131   0.893   2.098 -0.2866 -0.7496  0.1454
  151SOL    HW1  452   0.152   0.983   2.047  0.9588 -0.5896 -0.8602
  151SOL    HW2  453   0.201   0.824   2.074  0.0496  0.5415 -2.8996
  152SOL     OW  454   1.480   1.873   1.109  0.0040  0.5749  0.2063
  152SOL    HW1  455   1.520   1.965   1.101 -2.3303 -1.4630  1.5061
  152SOL    HW2  456   1.378   1.871   1.098  0.9646 -3.8565  0.2630
  153SOL     OW  457   0.130   1.495   0.260 -0.6459 -0.0780  0.5458
  153SOL    HW1  458   0.109   1.392   0.263  1.6958 -0.5873  2.8920
  153SOL    HW2  459   0.102   1.550   0.344 -0.9344 -0.3549 -1.5809
  154SOL     OW  460   2.347   1.831   2.787 -0.4635  0.6549 -0.0994
  154SOL    HW1  461   2.383   1.735   2.763 -0.0528 -2.2838  0.2673
  154SOL    HW2  462   2.405   1.899   2.739  1.1412 -1.3586  0.4829
  155SOL     OW  463   2.483   1.319   0.439  0.7633 -0.2303  0.2474
  155SOL    HW1  464   2.586   1.295   0.434  0.8648 -1.4410  1.6694
  155SOL    HW2  465   2.427   1.259   0.377  2.8670 -0.2901  0.5294
  156SOL     OW  466   2.453   0.800   0.768  0.1716 -0.6705  0.2694
  156SOL    HW1  467   2.356   0.806   0.739  0.9832 -2.6300  0.0628
  156SOL    HW2  468   2.507   0.867   0.709 -0.8667  0.3362 -0.3711
  157SOL     OW  469   1.273   3.087   3.064  0.0391  0.6901 -0.2744
  157SOL    HW1  470   1.324   3.030   2.988  2.3036 -4.0301  0.6215
  157SOL    HW2  471   1.303   3.186   3.084 -0.3750  1.0934  2.5611
  158SOL     OW  472   1.081   1.922   1.840 -0.8940 -0.5192  0.5692
  158SOL    HW1  473   1.133   2.012   1.822  0.8283  0.5307 -1.9365
  158SOL    HW2  474   0.997   1.940   1.902  2.3108  0.1255  0.5135
  159SOL     OW  475   0.770   0.419   1.267 -0.0531 -0.1357 -0.6148
  159SOL    HW1  476   0.720   0.510   1.289 -1.4626  1.3053  0.1159
  159SOL    HW2  477   0.733   0.372   1.186  1.5342 -0.8895 -0.2052
  160SOL     OW  478   1.427   2.477   1.439 -0.1937  0.3414 -0.5495
  160SOL    HW1  479   1.365   2.403   1.477  1.4640  1.0986  1.9175
  160SOL    HW2  480   1.519   2.435   1.416 -1.5479 -1.7693 -1.0989
  161SOL     OW  481   0.020   2.623   0.434  0.4608  0.3866 -0.2892
  161SOL    HW1  482  -0.035   2.541   0.432  0.0355  1.2475  1.8519
  161SOL    HW2  483  -0.032   2.704   0.396 -0.4285  2.7409 -2.3798
  162SOL     OW  484   2.514   1.889   0.489  0.4260  0.3980 -0.4090
  162SOL    HW1  485   2.565   1.909   0.404  0.6636  4.1412  0.2005
  162SOL    HW2  486   2.466   1.799   0.492 -1.5210  2.2931  2.7612
  163SOL     OW  487   1.980   2.737   0.762  0.3545 -0.3874 -0.1845
  163SOL    HW1  488   1.991   2.771   0.667 -0.9421 -0.3919  2.0578
  163SOL    HW2  489   2.028   2.648   0.784 -0.9564 -0.0270  0.5903
  164SOL     OW  490  -0.001   0.132   1.227  0.0959 -0.1781  0.5423
  164SOL    HW1  491  -0.031   0.224   1.198 -0.0382 -3.2519 -1.5761
  164SOL    HW2  492   0.063   0.136   1.304  0.6283 -0.8505 -1.5514
  165SOL     OW  493   1.108   1.447   0.610 -0.1974 -0.3675 -0.5554
  165SOL    HW1  494   1.093   1.500   0.700 -1.7623 -2.0111  1.1611
  165SOL    HW2  495   1.048   1.494   0.538  2.2112  2.9903  1.4347
  166SOL     OW  496   1.512   1.003   1.837  0.1116 -0.1087  0.3363
  166SOL    HW1  497   1.436   1.061   1.875 -0.1787 -0.7895 -0.7939
  166SOL    HW2  498   1.586   1.049   1.781  1.2735 -0.3458  1.2625
  167SOL     OW  499   0.667   2.014   1.532  0.0740 -0.2743  0.0282
  167SOL    HW1  500   0.631   2.094   1.586  0.4714  0.2950  0.7039
  167SOL    HW2  501   0.650   1.922   1.582 -4.2829 -1.6417  1.8395
  168SOL     OW  502   1.622   2.291   0.138 -0.3345 -0.0893 -0.1344
  168SOL    HW1  503   1.703   2.310   0.079 -3.0118 -0.5151 -0.3949
  168SOL    HW2  504   1.656   2.283   0.236  1.6933  0.8495 -0.8752
  169SOL     OW  505   3.089   2.582   2.168 -0.2607  0.6125  0.3347
  169SOL    HW1  506   3.093   2.506   2.095 -1.7344  0.3324 -1.9692
  169SOL    HW2  507   3.137   2.565   2.259 -1.8300  0.2891 -0.6703
  170SOL     OW  508   1.150   0.130   2.068  0.1314 -0.4390  0.4927
  170SOL    HW1  509   1.233   0.179   2.103 -0.2037 -0.3614  2.3192
  170SOL    HW2  510   1.151   0.132   1.961  2.2631  0.3911 -0.3272
  171SOL     OW  511   0.169   0.862   2.423  0.5984 -0.0558  0.0200
  171SOL    HW1  512   0.072   0.864   2.468 -2.5892  1.3920 -0.7862
  171SOL    HW2  513   0.172   0.941   2.359  0.9765  0.0887  0.2013
  172SOL     OW  514   1.004   0.984   2.829 -0.6925 -0.3646 -0.6099
  172SOL    HW1  515   0.949   1.045   2.894  2.5315  1.7606  1.0820
  172SOL    HW2  516   0.955   0.965   2.742  2.4569  1.1436 -1.0661
  173SOL     OW  517   0.377   2.587   0.030 -0.7678  0.2955  0.0790
  173SOL    HW1  518   0.371   2.545  -0.066  0.6046 -1.2274 -3.8219
  173SOL    HW2  519   0.357   2.516   0.105 -0.4639 -2.5097  3.3629
  174SOL     OW  520   1.465   2.871   1.045  0.1607  0.0474 -0.1991
  174SOL    HW1  521   1.546   2.910   0.994  1.2195 -0.3417 -1.4173
  174SOL    HW2  522   1.425   2.786   1.001 -1.4740  2.6172  0.2413
  175SOL     OW  523   0.482   3.041   1.719  0.3632 -0.1759  0.1958
  175SOL    HW1  524   0.529   3.031   1.814 -0.5000 -1.4084  0.4824
  175SOL    HW2  525   0.436   3.134   1.700  0.4445  0.3970  1.3248
  176SOL     OW  526   2.634   0.464   3.073 -0.5422  0.4225  0.2843
  176SOL    HW1  527   2.630   0.558   3.123 -1.4110  1.0554 -0.1843
  176SOL    HW2  528   2.699   0.392   3.109 -0.8188  1.6366  1.1482
  177SOL     OW  529   0.392   0.255   0.861 -0.2849 -0.2704 -0.5710
  177SOL    HW1  530   0.340   0.162   0.875  0.2438 -1.3966 -2.8673
  177SOL    HW2  531   0.492   0.250   0.833 -1.5241 -2.2012 -2.0416
  178SOL     OW  532   0.000   2.735   2.673 -0.4566 -0.4006  0.1445
  178SOL    HW1  533  -0.026   2.637   2.682  1.2852  0.2042  3.4115
  178SOL    HW2  534   0.065   2.770   2.745 -0.8492 -0.2825  0.8837
  179SOL     OW  535   2.975   1.608   1.206 -0.0531  0.2472  0.2778
  179SOL    HW1  536   3.033   1.614   1.120 -2.1762 -2.7323  0.5762
  179SOL    HW2  537   3.007   1.543   1.279  0.1072  0.0371  1.4251
  180SOL     OW  538   0.267   1.415   1.741  0.2110  0.5285  0.0639
  180SOL    HW1  539   0.322   1.349   1.794  0.9676  0.2387  1.0406
  180SOL    HW2  540   0.194   1.459   1.802  2.7680  2.5243 -0.5983
  181SOL     OW  541   2.985   1.788   2.483  0.3616 -0.5548  0.0949
  181SOL    HW1  542   3.032   1.799   2.390 -1.9391  1.2763 -1.1355
  181SOL    HW2  543   2.882   1.794   2.485 -1.5656  0.5486  0.5009
  182SOL     OW  544   2.233   1.373   1.188 -0.4594 -0.0921 -0.2230
  182SOL    HW1  545   2.238   1.275   1.157 -3.2309  2.0515  0.4838
  182SOL    HW2  546   2.321   1.422   1.167  0.9040  1.1373 -0.0123
  183SOL     OW  547   1.447   2.233   2.412  0.6713 -0.3318  0.1320
  183SOL    HW1  548   1.388   2.175   2.475  0.5954  0.7564 -0.5358
  183SOL    HW2  549   1.538   2.188   2.378 -0.0167 -1.9614 -1.0516
  184SOL     OW  550   2.178   0.793   0.741 -0.2043  0.2436 -0.2762
  184SOL    HW1  551   2.072   0.801   0.730 -1.3783  1.9026 -3.5558
  184SOL    HW2  552   2.210   0.690   0.725  1.8267 -1.8776  0.3725
  185SOL     OW  553   1.581   2.790   1.999  0.1032 -0.1450  0.0008
  185SOL    HW1  554   1.510   2.866   2.007  0.4091  0.9416 -1.0758
  185SOL    HW2  555   1.628   2.763   2.090 -1.0995  0.5562  1.3515
  186SOL     OW  556   0.067   2.200   1.779 -1.1373 -0.3314  0.0527
  186SOL    HW1  557   0.058   2.275   1.855  3.3439 -0.1067  1.8724
  186SOL    HW2  558   0.160   2.150   1.786  2.6767  1.0383 -0.8046
  187SOL     OW  559   1.324   0.698   1.644 -0.1741  0.4066 -0.3001
  187SOL    HW1  560   1.410   0.754   1.642 -4.4394  1.0593  0.6565
  187SOL    HW2  561   1.332   0.597   1.675  0.5328 -1.7708 -2.7632
  188SOL     OW  562   2.699   2.672   1.574 -0.5952  0.4776  0.4455
  188SOL    HW1  563   2.686   2.764   1.611  2.9224 -2.2839  1.0930
  188SOL    HW2  564   2.688   2.666   1.472  0.1356  2.0122 -0.5084
  189SOL     OW  565   0.940   1.212   1.336 -0.3242  0.1958  0.1901
  189SOL    HW1  566   0.961   1.272   1.419 -0.8933  3.0400 -0.3046
  189SOL    HW2  567   0.904   1.269   1.257 -1.0259  0.9949 -0.0230
  190SOL     OW  568   1.460   1.897   1.512 -0.6521 -0.1215  0.4684
  190SOL    HW1  569   1.422   1.811   1.468 -0.4430  0.1186  1.3547
  190SOL    HW2  570   1.451   1.902   1.614 -0.2883 -0.6444 -1.7666
  191SOL     OW  571   0.848   0.785   1.504 -0.0001  0.3471 -0.2475
  191SOL    HW1  572   0.912   0.729   1.564  3.2382 -0.2019  2.0956
  191SOL    HW2  573   0.908   0.844   1.446  1.1191  0.5192  0.9330
  192SOL     OW  574   1.819   2.436   1.103  0.4242 -0.1831  0.3144
  192SOL    HW1  575   1.721   2.415   1.087  2.5722  1.0911 -0.2770
  192SOL    HW2  576   1.893   2.372   1.068 -3.9563  1.3810  3.0209
  193SOL     OW  577   0.538   0.575   0.424 -0.3184 -0.7427 -0.5775
  193SOL    HW1  578   0.486   0.490   0.400 -0.0524  1.2043 -1.6771
  193SOL    HW2  579   0.606   0.592   0.351  0.0903  0.6510  0.1542
  194SOL     OW  580   0.388   0.823   1.295 -0.0102  0.3253 -0.4399
  194SOL    HW1  581   0.302   0.788   1.242 -0.3727 -1.4957 -1.1261
  194SOL    HW2  582   0.467   0.831   1.232  0.8385  0.2661 -2.7926
  195SOL     OW  583   1.037   2.948   0.517  0.3361 -0.2299  0.6804
  195SOL    HW1  584   1.008   2.851   0.500 -0.9693  0.3781 -0.5788
  195SOL    HW2  585   1.138   2.966   0.514  0.4955  0.9036 -1.9380
  196SOL     OW  586   0.239   1.412   1.313 -0.0182 -0.4023 -0.1707
  196SOL    HW1  587   0.289   1.484   1.370  0.8257  0.1449  2.8465
  196SOL    HW2  588   0.221   1.325   1.369 -3.0823 -0.0152 -0.2288
  197SOL     OW  589   0.843   1.958   0.281 -0.4026 -0.9230 -0.4080
  197SOL    HW1  590   0.847   1.908   0.369 -1.8015 -0.6240 -0.8935
  197SOL    HW2  591   0.869   1.900   0.196 -0.3106 -1.1834 -0.8405
  198SOL     OW  592   0.267   1.207   0.346 -0.0947 -0.0079  0.1443
  198SOL    HW1  593   0.173   1.174   0.326  0.9792 -0.2527 -2.4742
  198SOL    HW2  594   0.271   1.302   0.382  0.6220 -0.6215 -0.8818
  199SOL     OW  595   2.225   0.436   2.597  0.2640 -0.6968  0.7049
  199SOL    HW1  596   2.156   0.420   2.674  1.2500  1.1029 -0.2319
  199SOL    HW2  597   2.324   0.407   2.618 -0.4801 -1.3256 -1.2933
  200SOL     OW  598   3.036   2.884   0.800  0.4995  0.0865 -0.2627
  200SOL    HW1  599   3.045   2.972   0.854  0.3050 -1.3357 -1.0456
  200SOL    HW2  600   3.019   2.899   0.698  1.3319  0.8818 -0.9361
  201SOL     OW  601   0.907   0.698   0.518  0.0938  0.0216  0.7579
  201SOL    HW1  602   0.905   0.785   0.571 -1.3060  1.8465  2.1748
  201SOL    HW2  603   0.836   0.631   0.550 -0.6502 -1.0606 -2.8001
  202SOL     OW  604   0.470   1.221   1.877 -0.4191  0.3615  0.8824
  202SOL    HW1  605   0.560   1.172   1.854 -0.4679 -0.3148  0.8812
  202SOL    HW2  606   0.473   1.285   1.960 -0.2735 -1.1144 -0.4311
  203SOL     OW  607   0.687   0.184   1.570 -0.1224 -0.4640 -0.2333
  203SOL    HW1  608   0.700   0.102   1.506 -1.8730  1.6416 -1.1123
  203SOL    HW2  609   0.777   0.233   1.595  1.1680  1.3376 -1.3463
  204SOL     OW  610   2.099   1.827   2.932 -0.5614  0.0747  0.0806
  204SOL    HW1  611   2.053   1.729   2.933  0.5367 -0.8906  1.4307
  204SOL    HW2  612   2.196   1.830   2.883  0.5935 -0.5283  1.7195
  205SOL     OW  613   1.838   1.903   3.055 -0.1779  0.0998 -0.5126
  205SOL    HW1  614   1.928   1.878   3.013  1.4390 -1.4348  0.8656
  205SOL    HW2  615   1.788   1.964   2.991  1.2489  1.1304  0.1155
  206SOL     OW  616   2.360   2.703   0.285  0.1563 -0.4802  0.1084
  206SOL    HW1  617   2.335   2.680   0.384  3.5460 -0.1879 -1.8385
  206SOL    HW2  618   2.439   2.653   0.246  0.6728  3.6305  0.5749
  207SOL     OW  619   0.687   1.746   2.935 -0.1395  0.3084  0.3340
  207SOL    HW1  620   0.774   1.708   2.895 -2.3888 -1.6821  1.1466
  207SOL    HW2  621   0.635   1.669   2.981 -0.8739 -1.4836 -1.6009
  208SOL     OW  622   0.990   1.553   1.271  0.1530  0.1901  0.0146
  208SOL    HW1  623   0.928   1.594   1.198  1.0376 -0.7473 -2.5741
  208SOL    HW2  624   0.949   1.549   1.365 -0.8738 -0.8412 -1.6961
  209SOL     OW  625   0.241   0.979   3.047 -0.5602  0.2374  0.4308
  209SOL    HW1  626   0.287   0.933   2.960  1.7260 -0.8024 -1.3576
  209SOL    HW2  627   0.196   0.919   3.118 -3.1177  3.4948  1.2158
  210SOL     OW  628   1.670   0.561   1.301 -0.3313 -0.0317  0.3898
  210SOL    HW1  629   1.609   0.586   1.216 -1.0978  2.3705  0.7895
  210SOL    HW2  630   1.767   0.591   1.292 -0.1254  0.0202 -0.7321
  211SOL     OW  631   2.196   1.026   1.568  0.3974  0.5093  0.0809
  211SOL    HW1  632   2.217   1.008   1.667 -0.8185 -3.8644  1.4880
  211SOL    HW2  633   2.269   1.089   1.527 -0.3150 -4.0390 -1.6862
  212SOL     OW  634   0.032   1.042   1.495  0.1651 -0.0460  0.0511
  212SOL    HW1  635   0.108   1.114   1.515 -0.4156 -0.0868  0.2683
  212SOL    HW2  636   0.051   0.952   1.550  2.1166  0.8579  1.3136
  213SOL     OW  637   2.832   0.049   0.372  0.0638 -0.4944  0.1683
  213SOL    HW1  638   2.917   0.034   0.318 -1.4895  0.5096 -0.0385
  213SOL    HW2  639   2.749   0.010   0.333  4.2657 -0.2476  0.4611
  214SOL     OW  640   2.163   0.348   2.355 -0.2245  0.0085 -0.1433
  214SOL    HW1  641   2.184   0.395   2.447 -0.2844 -1.4755 -2.7850
  214SOL    HW2  642   2.165   0.248   2.365  1.0448 -0.1610  2.6442
  215SOL     OW  643   1.658   2.258   2.076  0.0381  0.2783  0.6626
  215SOL    HW1  644   1.756   2.292   2.059  2.2717  0.9471 -2.8178
  215SOL    HW2  645   1.581   2.328   2.072 -0.3951  1.4320 -0.8110
  216SOL     OW  646   2.242   0.520   0.753  0.6484 -0.2241  0.4176
  216SOL    HW1  647   2.226   0.482   0.657  1.3867  1.6674  2.0408
  216SOL    HW2  648   2.268   0.442   0.822  2.1265 -1.6074  3.8430
  217SOL     OW  649   0.945   2.743   2.564  0.2157  0.2038  0.2030
  217SOL    HW1  650   0.984   2.673   2.623 -3.5832  2.1556 -2.9855
  217SOL    HW2  651   0.882   2.705   2.488 -1.9139  0.9455  0.1010
  218SOL     OW  652   1.874   1.416   0.023 -0.0450 -0.5752 -0.0512
  218SOL    HW1  653   1.773   1.423   0.004  1.1480 -0.2419 -1.7794
  218SOL    HW2  654   1.907   1.343   0.091  1.0923  1.9524  2.1223
  219SOL     OW  655   2.446   1.282   2.511 -0.4765 -0.4375 -0.6032
  219SOL    HW1  656   2.509   1.254   2.434  0.1777 -1.3014  1.1110
  219SOL    HW2  657   2.420   1.205   2.575 -0.8929 -0.2450  0.7470
  220SOL     OW  658   1.388   1.014   1.331  0.2237 -0.0665  0.1964
  220SOL    HW1  659   1.491   1.010   1.352  1.4922 -1.3618 -1.8507
  220SOL    HW2  660   1.372   1.023   1.227  0.9806  2.0143 -0.6327
  221SOL     OW  661   1.357   0.928   2.198 -0.3657 -0.1574  0.3972
  221SOL    HW1  662   1.320   0.961   2.106 -0.9715 -0.3410 -2.6021
  221SOL    HW2  663   1.440   0.983   2.228 -3.4520 -1.9270  0.5205
  222SOL     OW  664   1.167   0.066   1.214 -0.2687 -0.5586 -0.4414
  222SOL    HW1  665   1.207   0.118   1.294  0.6138 -0.5452  0.1067
  222SOL    HW2  666   1.132   0.128   1.138 -0.9766  1.1336  1.8795
  223SOL     OW  667   2.731   0.938   2.135 -0.2073 -0.0896  0.0803
  223SOL    HW1  668   2.692   1.023   2.087  0.2252  1.6448 -0.1766
  223SOL    HW2  669   2.807   0.963   2.203  1.4801 -0.6690 -0.3667
  224SOL     OW  670   1.522   0.990   2.808 -0.6746 -0.2724  0.7008
  224SOL    HW1  671   1.569   0.948   2.730  1.2422 -0.1604 -0.1835
  224SOL    HW2  672   1.527   1.093   2.795 -0.6388 -2.0900  2.4043
  225SOL     OW  673   2.956   2.682   2.923  0.2584 -0.0734  0.1834
  225SOL    HW1  674   2.896   2.697   2.835 -1.5446  0.5391 -3.2432
  225SOL    HW2  675   3.058   2.692   2.908 -0.2536  0.5481 -1.5816
  226SOL     OW  676   2.425   1.562   2.767 -0.2022  0.7943  0.2269
  226SOL    HW1  677   2.507   1.538   2.711 -0.5427 -0.2674  2.4216
  226SOL    HW2  678   2.443   1.533   2.863  0.4002 -1.2141 -1.2203
  227SOL     OW  679   0.881   0.267   3.066  0.7707 -0.0228 -0.6905
  227SOL    HW1  680   0.903   0.369   3.069 -1.3251 -1.5078 -0.2595
  227SOL    HW2  681   0.822   0.243   2.984  1.1838  0.2477  2.6345
  228SOL     OW  682   2.437   0.667   2.856 -0.2931 -0.3076  0.4186
  228SOL    HW1  683   2.462   0.708   2.767 -1.8034  2.2411  1.4029
  228SOL    HW2  684   2.512   0.601   2.886  1.4284  0.8803  1.2768
  229SOL     OW  685   0.531   0.591   1.826  1.1565  1.1202  0.3834
  229SOL    HW1  686   0.581   0.611   1.910  0.1700 -1.0478 -1.8816
  229SOL    HW2  687   0.583   0.528   1.763  2.3462 -1.0071  0.7436
  230SOL     OW  688   1.874   1.223   1.946  0.4114  0.5173 -0.0421
  230SOL    HW1  689   1.954   1.275   1.901  0.9824 -1.3624  1.8369
  230SOL    HW2  690   1.855   1.263   2.037 -0.9012  1.5377 -1.4101
  231SOL     OW  691   0.617   1.093   3.072  0.4899  0.1610 -0.1113
  231SOL    HW1  692   0.711   1.123   3.093  1.0823 -1.6606 -0.4355
  231SOL    HW2  693   0.538   1.158   3.111 -1.7632  0.5657 -0.7788
  232SOL     OW  694   2.395   3.014   2.799  0.2865 -0.4454  0.1664
  232SOL    HW1  695   2.471   2.944   2.814 -0.8459 -1.1531  2.1139
  232SOL    HW2  696   2.421   3.093   2.734  2.9418 -0.4455  1.6945
  233SOL     OW  697   1.796   1.167   1.088  0.1296  0.1454  0.2027
  233SOL    HW1  698   1.866   1.241   1.073  0.9571  0.5986  0.9096
  233SOL    HW2  699   1.840   1.092   1.145  0.8165 -1.3811  0.7557
  234SOL     OW  700   1.635   2.517   1.835  0.3225 -0.4905 -0.5924
  234SOL    HW1  701   1.625   2.572   1.924 -3.0491 -1.4496  1.2579
  234SOL    HW2  702   1.568   2.442   1.831  1.3630  1.7602  2.3271
  235SOL     OW  703   0.008   2.977   2.829  0.3706  0.7133  0.4562
  235SOL    HW1  704  -0.042   2.992   2.742  0.4536 -2.0150  0.2495
  235SOL    HW2  705  -0.033   3.025   2.910 -0.3420 -0.1352 -0.5302
  236SOL     OW  706   2.916   0.693   0.073 -0.0800  0.2091  0.0244
  236SOL    HW1  707   2.970   0.716   0.160 -0.6562  0.8685  1.7702
  236SOL    HW2  708   2.954   0.607   0.024 -0.0668 -3.5911 -1.0973
  237SOL     OW  709   1.510   1.684   0.882  0.8317  0.1658 -0.0210
  237SOL    HW1  710   1.601   1.630   0.886  0.3886  1.7602 -0.1610
  237SOL    HW2  711   1.496   1.741   0.964  3.5227  0.3191 -0.1103
  238SOL     OW  712   1.885   1.193   0.760 -0.0678 -0.4790 -0.2706
  238SOL    HW1  713   1.944   1.213   0.845  3.0601 -1.8483  3.4126
  238SOL    HW2  714   1.785   1.222   0.777 -0.1494 -0.8346 -0.3226
  239SOL     OW  715   1.996   0.234   2.777 -0.4232  0.5933  0.1658
  239SOL    HW1  716   2.034   0.195   2.861 -1.2174  2.1623  1.5542
  239SOL    HW2  717   1.941   0.319   2.802  1.3943 -0.7960 -0.6701
  240SOL     OW  718   0.946   0.699   0.239 -0.0504  0.1658 -0.1071
  240SOL    HW1  719   1.017   0.637   0.195  1.1067 -1.3256 -2.2006
  240SOL    HW2  720   0.930   0.688   0.343  0.6538 -2.6845  1.3828
  241SOL     OW  721   0.574   0.126   0.312  0.0642 -0.9304  0.3135
  241SOL    HW1  722   0.655   0.182   0.279 -0.1577  3.0763 -1.1934
  241SOL    HW2  723   0.568   0.032   0.271  2.1782  1.4677 -2.6305
  242SOL     OW  724   0.617   2.582   1.178 -0.7213  0.3706  0.3657
  242SOL    HW1  725   0.600   2.548   1.280 -1.4389  0.2012 -0.5071
  242SOL    HW2  726   0.620   2.689   1.168 -1.0646  3.2626 -0.7923
  243SOL     OW  727   1.075   0.635   2.402 -0.0418  0.2722  0.5482
  243SOL    HW1  728   0.988   0.608   2.343  2.0198  0.1765  1.3225
  243SOL    HW2  729   1.088   0.568   2.478  2.9819  0.4145 -0.7979
  244SOL     OW  730   2.684   1.963   2.361  0.5761  0.1003  0.1330
  244SOL    HW1  731   2.728   1.944   2.272 -0.5147 -0.8086  0.4530
  244SOL    HW2  732   2.618   1.891   2.393 -0.5382  0.7542  0.8800
  245SOL     OW  733   2.108   1.021   2.224 -0.4074  0.2690 -0.1013
  245SOL    HW1  734   2.207   1.010   2.247 -0.3901 -0.3113 -0.6548
  245SOL    HW2  735   2.057   1.090   2.285 -1.5517 -0.5644  1.6331
  246SOL     OW  736   0.310   2.837   1.794 -0.2480 -0.0683 -0.3258
  246SOL    HW1  737   0.236   2.824   1.726 -0.7599 -0.0312  1.5465
  246SOL    HW2  738   0.386   2.908   1.770  0.0352 -0.0417 -1.4780
  247SOL     OW  739   2.237   0.573   3.012 -0.1954 -0.0597  0.3947
  247SOL    HW1  740   2.327   0.603   2.961  0.6813 -0.2785 -3.1214
  247SOL    HW2  741   2.163   0.651   3.022  1.9575 -0.2729 -0.0819
  248SOL     OW  742   2.202   1.811   1.601  0.0479  0.2938  0.3136
  248SOL    HW1  743   2.284   1.774   1.665  0.5408  0.0398  3.2864
  248SOL    HW2  744   2.113   1.766   1.615  1.3720  2.8054 -0.8787
  249SOL     OW  745   1.899   1.919   1.804  0.3829  0.4749  0.9563
  249SOL    HW1  746   1.892   1.836   1.741  0.1951 -1.7355  1.6486
  249SOL    HW2  747   1.994   1.932   1.844  0.2786  0.0314  1.6223
  250SOL     OW  748   0.945   0.724   1.868 -0.1755  0.0879  0.2088
  250SOL    HW1  749   1.011   0.678   1.935 -0.0753 -0.5959 -0.0131
  250SOL    HW2  750   0.903   0.657   1.802  1.3420 -4.3824 -1.6439
  251SOL     OW  751   3.025   1.516   2.571  0.4935  0.0013  1.1248
  251SOL    HW1  752   3.012   1.604   2.516 -0.0678  0.5216  0.1209
  251SOL    HW2  753   2.955   1.445   2.537 -0.9306  1.2055 -0.4927
  252SOL     OW  754   1.570   0.845   1.582 -0.3511 -0.3248  0.2395
  252SOL    HW1  755   1.632   0.876   1.503  0.7402 -0.9399  0.1248
  252SOL    HW2  756   1.577   0.896   1.671  0.6328 -0.5317  0.2815
  253SOL     OW  757   0.937   1.516   0.404  0.4223 -0.6739  0.0328
  253SOL    HW1  758   0.947   1.429   0.341  2.0984 -0.7147 -2.6301
  253SOL    HW2  759   0.850   1.526   0.463  0.4551  0.4639  1.4771
  254SOL     OW  760   2.062   2.177   1.641 -0.3645 -0.1854 -0.0694
  254SOL    HW1  761   2.006   2.103   1.594 -0.4561 -0.3390  1.6269
  254SOL    HW2  762   1.999   2.238   1.702 -1.7063  1.8962  1.0336
  255SOL     OW  763   0.117   1.188   2.917 -0.1349  0.3569  0.2732
  255SOL    HW1  764   0.156   1.286   2.925 -1.5577 -1.4470 -0.7179
  255SOL    HW2  765   0.165   1.111   2.964  0.6836 -1.6520 -1.7130
  256SOL     OW  766   2.811   1.421   1.763 -0.1737 -0.5870 -0.0426
  256SOL    HW1  767   2.731   1.478   1.729 -2.3557  0.8726 -1.3098
  256SOL    HW2  768   2.804   1.321   1.741 -1.2978  1.7421 -0.7649
  257SOL     OW  769   0.876   0.240   1.877 -0.3592 -0.3351 -0.0608
  257SOL    HW1  770   0.919   0.301   1.801 -2.6411 -0.5980 -1.2797
  257SOL    HW2  771   0.888   0.146   1.856  0.1968  3.0855 -1.2805
  258SOL     OW  772   2.965   1.168   0.519 -0.0022  0.4124 -0.0666
  258SOL    HW1  773   2.865   1.182   0.555  0.5589 -2.0976  2.3583
  258SOL    HW2  774   3.029   1.214   0.588 -1.3559 -3.1741  0.3844
  259SOL     OW  775   0.474   2.936   3.012  0.0436  0.0411  0.0017
  259SOL    HW1  776   0.390   2.899   3.061 -1.1641 -2.1242  2.3542
  259SOL    HW2  777   0.490   2.882   2.925  3.5894  3.9567 -0.5409
  260SOL     OW  778   2.743   0.755   2.754  0.3431  0.2599  1.0268
  260SOL    HW1  779   2.648   0.761   2.717  0.3073  1.6983  1.9372
  260SOL    HW2  780   2.755   0.669   2.805 -1.1538 -1.6342 -3.3666
  261SOL     OW  781   2.690   1.272   1.314  0.0349 -0.3742  0.0288
  261SOL    HW1  782   2.642   1.195   1.269 -0.6655  0.6832  0.1312
  261SOL    HW2  783   2.775   1.233   1.363  0.5434 -3.4349  0.7777
  262SOL     OW  784   1.364   2.968   2.056  0.6595  0.0345  0.3625
  262SOL    HW1  785   1.387   3.044   1.989  0.0423  2.0865 -0.9462
  262SOL    HW2  786   1.270   2.925   2.033  0.4281  1.5370 -1.7369
  263SOL     OW  787   0.814   0.637   2.299  0.2777 -0.0207 -0.1556
  263SOL    HW1  788   0.749   0.565   2.253 -1.1868 -2.3956  0.0544
  263SOL    HW2  789   0.818   0.725   2.244 -1.0397 -0.9766  0.8163
  264SOL     OW  790   2.277   0.816   0.405  0.1323 -0.1804  0.1719
  264SOL    HW1  791   2.297   0.752   0.327 -3.2244 -0.9764  1.0967
  264SOL    HW2  792   2.362   0.862   0.447 -0.7726  0.3728  0.7967
  265SOL     OW  793   0.920   2.397   2.604 -0.0005 -0.0126  0.6637
  265SOL    HW1  794   0.953   2.445   2.691 -1.9511  0.3453 -1.5266
  265SOL    HW2  795   0.860   2.318   2.630 -2.7933 -1.2663  1.5495
  266SOL     OW  796   1.294   1.786   3.057 -0.2519  0.2228 -0.2267
  266SOL    HW1  797   1.312   1.853   3.139 -1.7379  1.5058  1.1132
  266SOL    HW2  798   1.383   1.755   3.011 -0.6771 -1.6305  2.4795
  267SOL     OW  799   1.084   0.023   2.332  0.3459 -0.5386 -0.3554
  267SOL    HW1  800   0.993  -0.031   2.341 -0.9567 -3.8374  3.8567
  267SOL    HW2  801   1.111   0.054   2.235  1.6078  2.5818  1.2244
  268SOL     OW  802   0.853   1.273   1.060  0.5269  0.2090 -0.0961
  268SOL    HW1  803   0.809   1.346   1.123 -1.2933  0.1978  2.2308
  268SOL    HW2  804   0.925   1.310   0.997 -0.4563  0.4231  2.0503
  269SOL     OW  805   2.376   2.549   1.583  0.1576 -0.1984  0.1838
  269SOL    HW1  806   2.465   2.530   1.535 -1.2545 -0.4210  1.0201
  269SOL    HW2  807   2.388   2.522   1.683  1.4090  1.5794 -1.6317
  270SOL     OW  808   0.163   2.988   1.978 -0.3082 -0.1322  0.1471
  270SOL    HW1  809   0.192   2.950   1.890  1.8717  1.5982  1.6311
  270SOL    HW2  810   0.115   2.919   2.043 -2.0831 -0.5337  1.0172
  271SOL     OW  811   0.460   1.382   1.122 -0.3201 -0.1544 -0.0377
  271SOL    HW1  812   0.472   1.359   1.023  1.4213  0.1081 -1.9167
  271SOL    HW2  813   0.389   1.323   1.170 -1.1170 -1.1110 -0.8653
  272SOL     OW  814   1.888   3.095   1.929 -0.4282 -0.2543  0.2041
  272SOL    HW1  815   1.837   3.018   1.883  1.7633 -0.4408 -2.0272
  272SOL    HW2  816   1.894   3.186   1.877 -1.2995 -1.3625  0.6468
  273SOL     OW  817   1.465   1.473   2.828  0.3772 -0.6947  0.3986
  273SOL    HW1  818   1.366   1.450   2.805 -1.1141  1.4369  0.7797
  273SOL    HW2  819   1.493   1.455   2.927  1.0907  1.5618  0.5335
  274SOL     OW  820   1.105   0.535   2.053  0.1722  0.5172  0.7571
  274SOL    HW1  821   1.043   0.458   2.081  4.1747 -1.2623 -0.8411
  274SOL    HW2  822   1.177   0.565   2.125 -0.6824  1.4064 -1.8814
  275SOL     OW  823   0.649   2.113   1.922  0.2133 -0.4991  0.0651
  275SOL    HW1  824   0.621   2.211   1.942  0.2967 -1.8350  2.0994
  275SOL    HW2  825   0.586   2.067   1.854 -0.3779 -0.0818  2.7621
  276SOL     OW  826   2.218   0.934   2.852 -0.0287  0.2044  0.1485
  276SOL    HW1  827   2.144   0.955   2.778  0.9112 -2.6058  1.1970
  276SOL    HW2  828   2.264   0.843   2.840  1.2212  2.3947  1.3886
  277SOL     OW  829   3.092   0.752   0.264  0.4487 -0.3248  0.2383
  277SOL    HW1  830   3.178   0.801   0.235  0.0390 -2.8118 -1.0977
  277SOL    HW2  831   3.114   0.686   0.340  0.8010 -0.2212  0.5585
  278SOL     OW  832   0.255   0.231   3.028  0.4070 -0.4685 -0.3340
  278SOL    HW1  833   0.350   0.209   2.997  0.2074 -0.2310  1.5991
  278SOL    HW2  834   0.247   0.331   3.051  0.6699  1.4717 -1.2036
  279SOL     OW  835   0.281   3.077   0.916  0.0421 -0.4671  0.5291
  279SOL    HW1  836   0.309   3.079   1.015  1.2684 -1.6803 -0.6056
  279SOL    HW2  837   0.281   2.980   0.871  1.2328  1.1374 -0.3648
  280SOL     OW  838   1.602   2.915   2.427 -0.7307 -0.3189 -0.2475
  280SOL    HW1  839   1.690   2.961   2.459 -2.3589 -1.0748 -1.5766
  280SOL    HW2  840   1.532   2.988   2.403 -0.8008  3.7624  0.0151
  281SOL     OW  841   0.547   0.939   2.309  0.6438  0.0638  0.5735
  281SOL    HW1  842   0.506   0.872   2.238  2.3408 -0.2373 -0.4262
  281SOL    HW2  843   0.575   0.896   2.403  1.3936  0.3784  0.4773
  282SOL     OW  844   1.789   2.460   0.545 -0.3418  0.1413  0.1435
  282SOL    HW1  845   1.749   2.398   0.478  3.5847  0.0839 -0.2666
  282SOL    HW2  846   1.739   2.548   0.560  0.5833 -1.5343 -1.3155
  283SOL     OW  847   1.153   0.913   0.757  0.2106  0.6442  0.7855
  283SOL    HW1  848   1.180   0.866   0.847 -0.1947  0.8571 -0.5001
  283SOL    HW2  849   1.130   1.014   0.776 -0.2683 -1.5463  0.5181
  284SOL     OW  850   2.241   2.809   2.458  0.3335  0.3802  0.3468
  284SOL    HW1  851   2.339   2.815   2.429 -0.9978  2.8049 -1.1221
  284SOL    HW2  852   2.213   2.845   2.552 -1.6664 -0.7824 -1.5630
  285SOL     OW  853   1.320   3.047   2.622 -0.2608 -0.2844  0.0945
  285SOL    HW1  854   1.377   3.047   2.535  0.5232 -1.2214  0.1330
  285SOL    HW2  855   1.278   3.135   2.648  2.3870 -0.6395  0.1614
  286SOL     OW  856   0.301   0.432   0.660 -0.0201 -1.0772 -0.1030
  286SOL    HW1  857   0.322   0.357   0.735 -0.0125 -2.0720  3.0572
  286SOL    HW2  858   0.326   0.411   0.564 -1.7768  2.3184 -0.5912
  287SOL     OW  859   0.090   1.305   2.573  0.1441 -0.3849 -0.8127
  287SOL    HW1  860   0.031   1.236   2.628 -1.5753 -3.2445 -0.1519
  287SOL    HW2  861   0.034   1.391   2.569 -2.0133 -3.5148  0.5923
  288SOL     OW  862   1.532   2.729   1.680  0.0789 -0.7872  0.2067
  288SOL    HW1  863   1.565   2.656   1.745  0.7027  1.8816 -0.5228
  288SOL    HW2  864   1.566   2.708   1.582 -0.6652 -1.9069 -0.4214
  289SOL     OW  865   0.639   2.783   0.802  0.2056  0.4592 -0.2769
  289SOL    HW1  866   0.671   2.840   0.722  1.9084  0.7075  0.6803
  289SOL    HW2  867   0.630   2.850   0.882 -0.9910 -1.4767 -0.9298
  290SOL     OW  868   2.824   1.141   1.710  0.3614  0.5950 -0.0164
  290SOL    HW1  869   2.764   1.051   1.701  1.7318 -1.7501 -2.0215
  290SOL    HW2  870   2.907   1.130   1.773 -0.9676 -2.8843 -0.3964
  291SOL     OW  871   1.938   3.069   0.037 -0.1964 -0.0931  0.3494
  291SOL    HW1  872   1.986   3.079   0.128 -3.8611  0.4184  2.7754
  291SOL    HW2  873   1.986   3.118  -0.042 -2.9046 -2.4640 -1.6014
  292SOL     OW  874   2.991   1.179   3.062 -0.4284  0.7553  0.5209
  292SOL    HW1  875   2.927   1.251   3.029  0.0679  1.9516  0.9410
  292SOL    HW2  876   3.085   1.176   3.011  2.9416 -1.3164 -2.0918
  293SOL     OW  877   0.577   2.075   0.283  0.1587 -0.1684  0.3457
  293SOL    HW1  878   0.560   2.146   0.361 -1.6428  2.0036 -0.6055
  293SOL    HW2  879   0.678   2.042   0.273 -0.7912  0.2315 -0.3039
  294SOL     OW  880   1.874   2.347   1.761 -0.0640  0.0193  0.6092
  294SOL    HW1  881   1.917   2.348   1.853 -0.3585 -0.0934 -1.6548
  294SOL    HW2  882   1.794   2.411   1.758  0.0177  0.4724  2.3992
  295SOL     OW  883   0.937   1.071   0.460 -0.4866 -0.0835  0.3023
  295SOL    HW1  884   1.035   1.063   0.425  1.9490  1.5894 -1.7298
  295SOL    HW2  885   0.921   1.028   0.557 -0.7030  1.1643  0.0443
  296SOL     OW  886   1.098   2.165   2.750  0.0866 -0.0531  0.2437
  296SOL    HW1  887   1.014   2.224   2.764 -0.3991  1.6659 -2.9512
  296SOL    HW2  888   1.102   2.109   2.664  0.5634  0.1077  2.3299
  297SOL     OW  889   1.271   0.537   1.170  0.1402  0.0178  0.3056
  297SOL    HW1  890   1.311   0.482   1.249  0.1836  3.7583  0.7785
  297SOL    HW2  891   1.343   0.604   1.145 -0.5984 -2.6010  0.6353
  298SOL     OW  892   0.468   1.321   2.936  0.2704 -0.1251 -0.0058
  298SOL    HW1  893   0.410   1.281   3.014 -0.8821  2.4101 -2.4900
  298SOL    HW2  894   0.515   1.247   2.878  1.4771 -1.0872  0.6122
  299SOL     OW  895   0.442   0.183   1.249 -0.2073 -0.0641  0.1691
  299SOL    HW1  896   0.411   0.276   1.206 -0.8337 -0.0215 -1.2954
  299SOL    HW2  897   0.439   0.179   1.353  0.8022 -0.1729 -1.0622
  300SOL     OW  898   1.359   1.820   2.583  0.3257 -0.0687 -0.2180
  300SOL    HW1  899   1.363   1.720   2.545 -0.4541  1.5796  1.1044
  300SOL    HW2  900   1.433   1.823   2.660 -0.7786 -1.7807  0.7548
  301SOL     OW  901   0.407   0.318   0.392 -0.7225 -0.6226 -0.4306
  301SOL    HW1  902   0.312   0.284   0.379 -1.1614 -1.2644 -0.8853
  301SOL    HW2  903   0.476   0.246   0.358  0.6435 -0.2001 -0.4924
  302SOL     OW  904   1.260   2.424   2.309 -0.5780 -0.6172 -0.2122
  302SOL    HW1  905   1.162   2.414   2.332 -0.4279  0.6981  2.9971
  302SOL    HW2  906   1.313   2.337   2.330 -0.4606  0.1619  1.2294
  303SOL     OW  907   0.930   2.441   0.816 -0.4791 -0.3923 -0.7757
  303SOL    HW1  908   0.980   2.446   0.723  1.8289  0.5600  1.1166
  303SOL    HW2  909   0.973   2.490   0.898  0.2066 -1.2664  0.6277
  304SOL     OW  910   0.144   1.931   0.679 -0.0628 -0.2094  0.0694
  304SOL    HW1  911   0.219   1.893   0.613  1.1708  0.0533 -3.2814
  304SOL    HW2  912   0.052   1.948   0.637  2.2468 -1.0627  1.4050
  305SOL     OW  913   1.658   0.868   0.694  0.4804 -0.7114  0.1214
  305SOL    HW1  914   1.607   0.900   0.606  0.2272  1.0402 -1.8626
  305SOL    HW2  915   1.654   0.762   0.690 -1.3328  0.0422 -0.4483
  306SOL     OW  916   0.366   1.837   1.957 -0.4098 -0.1816 -0.2248
  306SOL    HW1  917   0.460   1.796   1.946 -0.9024 -1.0410  0.8593
  306SOL    HW2  918   0.356   1.880   2.049 -0.5928 -2.3842  1.3375
  307SOL     OW  919   3.011   0.883   2.518 -0.2219 -0.1184  0.2836
  307SOL    HW1  920   3.017   0.938   2.606  2.6912 -1.4149  0.2217
  307SOL    HW2  921   2.959   0.795   2.521  2.2520 -0.1739  0.7189
  308SOL     OW  922   1.455   2.703   2.819 -0.2398  0.3971  0.5011
  308SOL    HW1  923   1.418   2.712   2.721 -2.1101  1.4641 -2.0457
  308SOL    HW2  924   1.415   2.620   2.872 -0.0836 -0.4958 -0.1180
  309SOL     OW  925   1.228   0.174   1.804 -0.3990  0.1407  0.1897
  309SOL    HW1  926   1.315   0.117   1.808 -2.4677 -1.0678  0.5464
  309SOL    HW2  927   1.195   0.189   1.707  0.6775 -0.0513  0.5523
  310SOL     OW  928   1.489   2.489   0.663 -0.0778 -0.7584 -0.1057
  310SOL    HW1  929   1.446   2.515   0.757  1.3427 -0.3338  0.1431
  310SOL    HW2  930   1.540   2.567   0.618  2.9755  0.8214 -0.4567
  311SOL     OW  931   1.050   0.962   1.769  0.4302 -0.1846  0.1244
  311SOL    HW1  932   1.003   0.874   1.802  2.9829 -1.1197 -0.6074
  311SOL    HW2  933   1.105   0.951   1.680  2.1242 -1.7189  1.7882
  312SOL     OW  934   1.526   0.617   1.047 -0.3770 -0.1358 -0.2069
  312SOL    HW1  935   1.560   0.716   1.039  0.1155  0.9553 -0.4322
  312SOL    HW2  936   1.470   0.584   0.964  0.8363 -0.1988 -0.4371
  313SOL     OW  937   1.621   1.260   0.787  0.2730  0.4222  0.1415
  313SOL    HW1  938   1.544   1.324   0.812 -0.1099  1.5257 -2.1249
  313SOL    HW2  939   1.598   1.177   0.727 -0.6801 -0.8053  0.1699
  314SOL     OW  940   2.995   3.077   3.094  0.1641 -0.5083 -0.0171
  314SOL    HW1  941   3.012   3.084   3.198  0.5629 -0.4654  2.2009
  314SOL    HW2  942   2.912   3.021   3.072  0.5526 -1.1233  0.6507
  315SOL     OW  943   1.192   0.207   2.813  0.1080  0.1521  0.0387
  315SOL    HW1  944   1.131   0.194   2.730  0.4818  2.9128  1.7960
  315SOL    HW2  945   1.158   0.161   2.903  0.0514 -1.4416  0.7973
  316SOL     OW  946   1.782   2.076   0.891  0.3006  0.3509 -0.0608
  316SOL    HW1  947   1.713   2.096   0.958  2.3121 -2.3599 -0.8463
  316SOL    HW2  948   1.814   2.168   0.851  0.0256 -0.8484  0.5003
  317SOL     OW  949   1.167   0.703   2.751  0.0302  0.3971 -0.2410
  317SOL    HW1  950   1.094   0.745   2.814 -2.4644 -1.4551 -1.3594
  317SOL    HW2  951   1.131   0.636   2.681  1.2733  0.1516  0.7413
  318SOL     OW  952   1.405   3.077   2.344 -0.5411 -0.5794 -0.1195
  318SOL    HW1  953   1.384   3.176   2.315  2.0912  1.8103  3.1938
  318SOL    HW2  954   1.385   3.014   2.261 -2.7912 -0.1680  0.2063
  319SOL     OW  955   0.643   2.389   3.032 -0.5478 -0.4015  0.0234
  319SOL    HW1  956   0.606   2.303   3.072  3.8747  0.5423  2.9332
  319SOL    HW2  957   0.704   2.370   2.952 -2.0295 -1.3142 -0.4598
  320SOL     OW  958   1.689   2.236   0.411  0.0134  0.2342  0.6704
  320SOL    HW1  959   1.776   2.187   0.434  1.0398  0.8469 -0.6110
  320SOL    HW2  960   1.612   2.170   0.415  0.3278  1.1842 -0.3743
  321SOL     OW  961   1.651   2.715   0.545 -0.1780  0.0819 -0.4348
  321SOL    HW1  962   1.609   2.746   0.459 -0.0341 -2.5699 -0.3734
  321SOL    HW2  963   1.739   2.762   0.577 -0.9806  0.3915  0.8029
  322SOL     OW  964   2.564   1.127   2.309 -0.2643 -0.4585  0.0335
  322SOL    HW1  965   2.633   1.095   2.375 -0.9891 -0.4649  0.7332
  322SOL    HW2  966   2.518   1.051   2.250 -1.5125  1.9767 -0.7166
  323SOL     OW  967   1.143   2.701   0.772  0.1911  0.0177 -0.3330
  323SOL    HW1  968   1.070   2.684   0.701 -0.2092 -5.2237 -1.9942
  323SOL    HW2  969   1.142   2.801   0.812 -0.3610 -0.2270  1.1249
  324SOL     OW  970   0.104   2.564   2.418 -0.9679  0.1157  0.0588
  324SOL    HW1  971   0.068   2.485   2.476  2.0668  0.4790  0.9815
  324SOL    HW2  972   0.128   2.647   2.476 -2.3172  1.7099  0.5508
  325SOL     OW  973   1.299   3.048   0.448  0.7645 -0.3398  0.0456
  325SOL    HW1  974   1.255   3.095   0.366 -0.6037 -3.2604 -1.0871
  325SOL    HW2  975   1.313   3.117   0.523  2.3135 -1.0572 -0.2599
  326SOL     OW  976   2.467   0.866   0.019 -0.3812 -0.1479 -0.1883
  326SOL    HW1  977   2.368   0.861   0.004 -0.0480  4.0147  2.6099
  326SOL    HW2  978   2.514   0.779   0.060 -1.6458 -1.7540  0.1480
  327SOL     OW  979   2.868   0.285   0.541 -0.2248 -0.2605 -0.6399
  327SOL    HW1  980   2.866   0.234   0.455  0.9616 -0.0719 -0.0343
  327SOL    HW2  981   2.869   0.221   0.623 -2.4792 -1.2526 -1.5544
  328SOL     OW  982   2.603   0.589   0.367  0.4788 -0.2732 -0.3527
  328SOL    HW1  983   2.634   0.631   0.455 -1.2822  0.0930 -0.5339
  328SOL    HW2  984   2.522   0.525   0.371 -0.0865 -0.0246 -0.6615
  329SOL     OW  985   2.916   3.027   2.240 -0.4392  0.2154  0.2005
  329SOL    HW1  986   3.003   2.975   2.230  1.4247  1.5440  0.2994
  329SOL    HW2  987   2.930   3.131   2.234 -0.6393  1.2190  1.9024
  330SOL     OW  988   0.532   0.241   1.892 -0.0455  0.7306  0.4661
  330SOL    HW1  989   0.621   0.250   1.844 -2.6333  0.4786  1.7606
  330SOL    HW2  990   0.543   0.202   1.986  1.0073  1.0929 -0.8243
  331SOL     OW  991   3.101   1.877   1.108  0.4483  0.2063 -0.1407
  331SOL    HW1  992   3.061   1.961   1.059  0.7637  0.7875 -0.9901
  331SOL    HW2  993   3.025   1.842   1.170  0.1494  1.5442  0.0170
  332SOL     OW  994   0.371   1.188   0.060 -0.2092 -0.2525  1.1106
  332SOL    HW1  995   0.326   1.096   0.028 -0.6836 -0.1260 -1.5363
  332SOL    HW2  996   0.346   1.215   0.154 -2.1211 -0.0967 -1.1799
  333SOL     OW  997   2.915   0.940   0.356  0.3818 -0.4207  0.3111
  333SOL    HW1  998   2.948   1.012   0.423 -3.0748 -2.5084 -4.9942
  333SOL    HW2  999   2.990   0.893   0.299 -1.5864 -0.1681 -2.9661
  334SOL     OW 1000   1.728   1.122   1.710 -0.3176 -0.1813 -0.4782
  334SOL    HW1 1001   1.803   1.127   1.633  0.9605  0.0709  0.4097
  334SOL    HW2 1002   1.760   1.160   1.805 -0.7967 -1.3831  1.9522
  335SOL     OW 1003   1.928   2.809   2.605  0.3494  0.1427 -0.4007
  335SOL    HW1 1004   1.861   2.797   2.682 -0.1403 -0.5989  0.5638
  335SOL    HW2 1005   2.014   2.858   2.638 -0.1541  0.2245  1.1296
  336SOL     OW 1006   0.256   0.066   2.751 -0.1844  0.3282  0.2444
  336SOL    HW1 1007   0.343   0.087   2.803 -2.0661 -0.6635  0.6415
  336SOL    HW2 1008   0.181   0.021   2.813 -0.0314  1.1949  0.2503
  337SOL     OW 1009   0.901   2.863   3.021 -0.7615 -0.0089  0.4607
  337SOL    HW1 1010   0.913   2.787   3.082 -1.7343  0.6663 -0.9686
  337SOL    HW2 1011   0.899   2.955   3.075 -0.0225 -0.4506 -3.4925
  338SOL     OW 1012   0.018   0.956   0.730  0.3029  0.1988 -0.3107
  338SOL    HW1 1013  -0.077   0.952   0.767  0.3737 -0.1485  0.3596
  338SOL    HW2 1014   0.040   1.054   0.694 -1.1732  2.6289 -0.0521
  339SOL     OW 1015   1.770   1.315   2.185 -0.0390  0.0484 -0.3357
  339SOL    HW1 1016   1.696   1.306   2.116 -0.6346 -0.1651  2.3858
  339SOL    HW2 1017   1.797   1.410   2.212 -0.0171 -1.6300 -0.3694
  340SOL     OW 1018   2.247   0.824   1.066  0.2121 -0.7601  0.0034
  340SOL    HW1 1019   2.167   0.864   1.125 -2.8803 -0.4897  0.1763
  340SOL    HW2 1020   2.224   0.732   1.020 -0.3431  1.4714 -0.3078
  341SOL     OW 1021   1.915   2.095   0.379 -0.6640 -0.1944 -0.7204
  341SOL    HW1 1022   1.949   2.120   0.287  0.4295 -0.9539 -0.3930
  341SOL    HW2 1023   1.990   2.058   0.438 -2.1775  0.7100 -0.6943
  342SOL     OW 1024   2.193   2.133   2.734  0.1746  0.4113  0.5068
  342SOL    HW1 1025   2.232   2.093   2.818  2.9505  1.6468 -0.7916
  342SOL    HW2 1026   2.093   2.106   2.723 -1.7685 -1.4688  1.8622
  343SOL     OW 1027   0.374   0.887   2.810  0.1080 -0.3345  0.0848
  343SOL    HW1 1028   0.376   0.931   2.713  3.8569  0.9903  0.6099
  343SOL    HW2 1029   0.468   0.865   2.847  0.9144 -0.2001  0.7779
  344SOL     OW 1030   1.941   1.465   0.362  0.1589 -0.0559  0.2005
  344SOL    HW1 1031   1.955   1.395   0.283  0.6802  0.3727 -1.5403
  344SOL    HW2 1032   1.845   1.469   0.398  0.2386 -0.0891 -1.5657
  345SOL     OW 1033   1.350   2.195   2.856  0.3944 -0.1429  0.0204
  345SOL    HW1 1034   1.254   2.182   2.810  3.2288 -0.1902  0.7827
  345SOL    HW2 1035   1.418   2.160   2.788 -0.7781 -1.9970  0.2977
  346SOL     OW 1036   2.291   0.846   1.393 -0.3032  0.2244 -0.0679
  346SOL    HW1 1037   2.251   0.913   1.460 -1.1439 -0.2599 -1.7555
  346SOL    HW2 1038   2.238   0.835   1.308  3.4314  2.2527 -0.5004
  347SOL     OW 1039   0.739   2.784   1.677 -0.0875  0.4651  0.1371
  347SOL    HW1 1040   0.810   2.841   1.630  0.7005  0.6124  0.6703
  347SOL    HW2 1041   0.647   2.783   1.628  1.5412  0.5743  1.7069
  348SOL     OW 1042   0.193   0.653   2.877  0.6359 -0.2701 -0.4989
  348SOL    HW1 1043   0.102   0.665   2.827  0.3943 -0.1811  2.8949
  348SOL    HW2 1044   0.257   0.734   2.854  1.6064 -0.6542 -2.0250
  349SOL     OW 1045   1.789   0.426   2.824 -0.0379 -0.6907 -0.2720
  349SOL    HW1 1046   1.785   0.519   2.774  1.0712  0.7179 -2.2138
  349SOL    HW2 1047   1.764   0.428   2.924 -0.6671  1.4066  0.3949
  350SOL     OW 1048   1.677   0.383   0.373  0.2668  0.1631  0.3417
  350SOL    HW1 1049   1.778   0.381   0.396 -0.9803 -0.0168 -1.0284
  350SOL    HW2 1050   1.654   0.485   0.363 -1.1262 -1.8454  1.5475
  351SOL     OW 1051   0.849   0.841   2.118  0.2315 -0.4138 -0.3822
  351SOL    HW1 1052   0.879   0.939   2.110  1.1405 -1.0765  0.0207
  351SOL    HW2 1053   0.904   0.785   2.045 -0.0818  0.1337  0.2652
  352SOL     OW 1054   2.073   1.334   0.601  0.1501  0.5727 -0.0142
  352SOL    HW1 1055   2.047   1.389   0.519 -0.2505 -2.3655  0.1151
  352SOL    HW2 1056   1.989   1.284   0.637 -1.9589  1.8396  1.0713
  353SOL     OW 1057   2.210   2.705   1.114 -0.4604  0.2269  0.0707
  353SOL    HW1 1058   2.293   2.654   1.158 -0.9690 -2.1147 -0.5682
  353SOL    HW2 1059   2.175   2.783   1.175 -1.5575  0.6350  0.3564
  354SOL     OW 1060   0.226   1.429   2.893 -0.3374  0.5373  0.0919
  354SOL    HW1 1061   0.214   1.504   2.820 -2.0159  1.8572  0.8491
  354SOL    HW2 1062   0.319   1.385   2.881 -0.9536  0.8332  0.0357
  355SOL     OW 1063   0.717   1.580   0.590  0.1554 -0.0156  0.6027
  355SOL    HW1 1064   0.721   1.520   0.676 -1.7303  3.4895  0.6451
  355SOL    HW2 1065   0.668   1.529   0.514  2.5824 -0.1961  2.4063
  356SOL     OW 1066   0.955   0.326   2.127  0.5517  0.5740 -0.2234
  356SOL    HW1 1067   1.027   0.250   2.130  0.0328  3.6434 -3.1553
  356SOL    HW2 1068   0.901   0.315   2.038  1.7995  1.2827 -0.5703
  357SOL     OW 1069   0.990   1.380   0.162 -0.1746  0.6580 -0.0942
  357SOL    HW1 1070   1.016   1.315   0.088  0.1291 -0.0317  3.1969
  357SOL    HW2 1071   1.058   1.453   0.186 -1.5182 -0.4097  2.4101
  358SOL     OW 1072   1.681   1.464   0.495 -0.1088  0.2711 -0.2234
  358SOL    HW1 1073   1.670   1.381   0.555 -1.6515  0.1260  0.5439
  358SOL    HW2 1074   1.626   1.454   0.412  1.9740  0.6152  1.0606
  359SOL     OW 1075   1.612   2.582   0.212  0.4839 -0.1195  0.1627
  359SOL    HW1 1076   1.593   2.501   0.152  1.4005  0.6575 -2.2911
  359SOL    HW2 1077   1.527   2.624   0.253  0.0893 -0.6401 -0.6954
  360SOL     OW 1078   0.740   0.472   0.593 -0.3172  0.4073  0.3233
  360SOL    HW1 1079   0.671   0.504   0.529  0.0084 -1.4537 -1.7944
  360SOL    HW2 1080   0.753   0.372   0.579 -0.4526  2.5994 -0.3335
  361SOL     OW 1081   1.354   1.308   0.630  0.0252  0.6061  0.0007
  361SOL    HW1 1082   1.369   1.344   0.727  2.7365  1.0099  1.6988
  361SOL    HW2 1083   1.261   1.343   0.594 -0.0361 -1.7950  0.1750
  362SOL     OW 1084   1.372   1.841   0.680 -0.3105  0.0513  0.0393
  362SOL    HW1 1085   1.405   1.760   0.736  1.1772 -0.0127 -0.3098
  362SOL    HW2 1086   1.456   1.884   0.635  0.2710 -0.4298 -0.9628
  363SOL     OW 1087   1.294   1.353   2.006 -0.1812  0.2725 -0.5537
  363SOL    HW1 1088   1.399   1.355   2.017  0.5650  0.2782 -1.9660
  363SOL    HW2 1089   1.253   1.448   2.019  0.7492  0.6020 -1.2374
  364SOL     OW 1090   0.556   2.369   1.965  0.3888 -0.0167 -0.1257
  364SOL    HW1 1091   0.453   2.349   1.972  1.0042 -3.0016 -1.2934
  364SOL    HW2 1092   0.573   2.472   1.952  0.1245  0.3390  0.0301
  365SOL     OW 1093   0.933   1.975   1.428 -0.2874  0.1655  0.2537
  365SOL    HW1 1094   0.847   2.003   1.480 -1.6381 -0.0451  0.0508
  365SOL    HW2 1095   0.943   1.998   1.328  0.2147  0.5957  1.5694
  366SOL     OW 1096   2.737   1.917   0.232 -0.0286  0.1432  0.4887
  366SOL    HW1 1097   2.661   1.851   0.220  4.8924  0.8238  0.8419
  366SOL    HW2 1098   2.827   1.867   0.241  0.1445  2.8848 -1.0127
  367SOL     OW 1099   0.910   1.126   3.061  0.8712 -0.4424 -0.3788
  367SOL    HW1 1100   0.920   1.070   3.148 -0.5728  1.0243 -1.7695
  367SOL    HW2 1101   0.991   1.190   3.035  1.5154 -0.3926 -1.9445
  368SOL     OW 1102   1.451   0.554   0.518  0.1237  0.0432 -0.2448
  368SOL    HW1 1103   1.350   0.572   0.496 -0.8978 -1.2700  2.2511
  368SOL    HW2 1104   1.522   0.595   0.455 -0.8779 -0.8539  2.6105
  369SOL     OW 1105   0.406   1.587   0.150 -0.2188  0.7014 -0.4710
  369SOL    HW1 1106   0.462   1.653   0.213 -2.1085 -0.4373  1.9160
  369SOL    HW2 1107   0.322   1.555   0.197  0.0968 -1.9404 -0.3842
  370SOL     OW 1108   0.442   2.199   1.086  0.3152 -0.0765 -0.1718
  370SOL    HW1 1109   0.462   2.293   1.044  0.0855  1.0132  1.1888
  370SOL    HW2 1110   0.351   2.155   1.056 -0.2262  0.3987 -0.7370
  371SOL     OW 1111   2.902   2.211   2.747 -0.1051 -0.4916 -0.2466
  371SOL    HW1 1112   2.970   2.137   2.737  1.0590  1.4568  0.5040
  371SOL    HW2 1113   2.893   2.246   2.843  1.6944  0.2822 -2.1932
  372SOL     OW 1114   1.001   2.040   1.171 -0.1195  0.2398 -0.3149
  372SOL    HW1 1115   0.927   2.072   1.110  0.9131 -2.2471  0.0204
  372SOL    HW2 1116   1.077   2.113   1.189 -0.4355  3.2507 -1.0529
  373SOL     OW 1117   1.951   1.921   1.035  0.0218 -0.2901  0.4520
  373SOL    HW1 1118   2.034   1.977   1.059  0.0094  1.0017 -0.5099
  373SOL    HW2 1119   1.896   1.981   0.966 -0.1599  0.6572 -0.3616
  374SOL     OW 1120   1.912   0.399   0.568  0.2565 -0.0813 -0.5605
  374SOL    HW1 1121   1.897   0.335   0.648 -1.0093 -0.3767  3.0324
  374SOL    HW2 1122   2.008   0.411   0.531 -1.5408  0.9310 -0.5367
  375SOL     OW 1123   2.428   2.180   1.124 -0.3806  0.2922  0.2569
  375SOL    HW1 1124   2.471   2.229   1.047  0.7699  0.1993 -0.2038
  375SOL    HW2 1125   2.494   2.163   1.206  2.2674 -1.2510  2.0449
  376SOL     OW 1126   0.010   0.630   1.436 -0.0549 -0.2300  0.2244
  376SOL    HW1 1127   0.027   0.681   1.522 -3.6316  1.0312  2.3147
  376SOL    HW2 1128  -0.066   0.562   1.457 -2.2502 -1.2554  0.8304
  377SOL     OW 1129   2.197   2.920   0.200  0.4693  0.2754 -0.3342
  377SOL    HW1 1130   2.231   3.012   0.226 -1.1176  0.4700 -0.8023
  377SOL    HW2 1131   2.242   2.842   0.250 -0.6032 -1.0054 -0.0674
  378SOL     OW 1132   1.895   1.893   2.494  0.0211 -0.0939  0.5241
  378SOL    HW1 1133   1.984   1.897   2.442 -0.5807 -2.1968  2.5807
  378SOL    HW2 1134   1.832   1.820   2.452  0.2343  2.1375  0.4865
  379SOL     OW 1135   0.750   0.158   2.807 -0.4773 -0.3282 -0.0038
  379SOL    HW1 1136   0.808   0.079   2.776  1.3065 -1.6751  1.8567
  379SOL    HW2 1137   0.770   0.241   2.740 -0.9252  0.7336  0.5747
  380SOL     OW 1138   1.538   1.139   0.507 -0.3546 -0.2589  0.3910
  380SOL    HW1 1139   1.473   1.213   0.537 -1.1287 -1.6789 -1.6242
  380SOL    HW2 1140   1.496   1.057   0.449  0.3929 -3.4206 -1.8737
  381SOL     OW 1141   1.260   1.298   1.519 -0.5018  0.5797 -0.0226
  381SOL    HW1 1142   1.299   1.220   1.463  3.3419 -0.0884  0.2198
  381SOL    HW2 1143   1.321   1.313   1.599 -2.5489  0.0443 -0.2576
  382SOL     OW 1144   1.835   0.836   0.253  0.2507  0.1004  0.2119
  382SOL    HW1 1145   1.852   0.824   0.150  0.7482  0.8957 -0.1464
  382SOL    HW2 1146   1.923   0.849   0.309  1.7508 -2.5861 -2.5045
  383SOL     OW 1147   2.538   0.976   1.470 -0.6078 -0.1065  0.2446
  383SOL    HW1 1148   2.451   0.936   1.417 -4.3248 -2.2329 -0.3612
  383SOL    HW2 1149   2.619   0.980   1.404 -0.5137  0.3360  0.3951
  384SOL     OW 1150   0.936   2.287   0.246  0.6136 -0.3052  0.4169
  384SOL    HW1 1151   0.880   2.367   0.280  0.8277 -0.6524  0.9662
  384SOL    HW2 1152   0.973   2.228   0.318  0.6385  1.2610 -1.6735
  385SOL     OW 1153   2.963   2.042   1.673 -0.4487 -0.3682  0.0631
  385SOL    HW1 1154   3.040   2.112   1.679  0.0949 -2.2330 -0.1941
  385SOL    HW2 1155   2.998   1.942   1.685  1.6383 -1.1609  2.8178
  386SOL     OW 1156   0.479   1.059   0.456 -0.5876  0.6468  0.0353
  386SOL    HW1 1157   0.475   0.959   0.498  1.4329 -0.3571  1.5780
  386SOL    HW2 1158   0.393   1.102   0.418  2.6452 -3.1499 -0.3775
  387SOL     OW 1159   0.999   0.360   1.654 -0.1245  0.1368 -0.1677
  387SOL    HW1 1160   1.035   0.454   1.628 -1.3022 -0.9290 -0.1345
  387SOL    HW2 1161   0.984   0.304   1.568 -2.0196  1.4644  0.2569
  388SOL     OW 1162   1.220   2.696   1.739  0.0040  0.0268 -0.0116
  388SOL    HW1 1163   1.225   2.714   1.639 -0.3676  2.9234  1.9417
  388SOL    HW2 1164   1.298   2.640   1.779  0.3353  0.3003 -0.4286
  389SOL     OW 1165   0.145   2.912   1.341 -0.4569 -0.2459 -0.6054
  389SOL    HW1 1166   0.046   2.900   1.323  0.3532  0.8740  2.8289
  389SOL    HW2 1167   0.199   2.824   1.343 -2.3384  0.4670 -0.1577
  390SOL     OW 1168   1.023   0.944   1.382 -0.1954 -0.1684  0.2759
  390SOL    HW1 1169   1.110   0.931   1.437 -0.6750  1.2104  1.3422
  390SOL    HW2 1170   0.989   1.041   1.389 -0.8550 -2.1543  1.1327
  391SOL     OW 1171   2.198   1.112   1.119 -0.0357  0.2682  0.4276
  391SOL    HW1 1172   2.128   1.054   1.162  3.4331 -1.2273 -0.7959
  391SOL    HW2 1173   2.242   1.068   1.034  1.6024  0.3715  2.8964
  392SOL     OW 1174   0.883   2.643   0.085  0.1768 -0.2204 -0.1660
  392SOL    HW1 1175   0.961   2.581   0.056 -0.1629  1.1390  1.3887
  392SOL    HW2 1176   0.811   2.595   0.146 -1.6264  0.4675  2.9950
  393SOL     OW 1177   0.274   0.662   1.990 -0.0204  0.5275 -0.2887
  393SOL    HW1 1178   0.218   0.576   1.986  0.1522 -0.6237  1.7117
  393SOL    HW2 1179   0.319   0.687   1.900 -0.1356  0.3437  2.2952
  394SOL     OW 1180   3.041   1.957   2.688  0.2100 -0.2143 -0.5826
  394SOL    HW1 1181   3.126   1.931   2.735 -0.9539  1.2905 -0.8384
  394SOL    HW2 1182   3.004   1.885   2.618 -0.4595 -1.4185 -1.8836
  395SOL     OW 1183   1.614   1.945   0.602 -0.2579  0.2946  0.5959
  395SOL    HW1 1184   1.663   1.867   0.553 -0.4180  0.0971  2.3707
  395SOL    HW2 1185   1.636   1.945   0.703  0.9799 -0.5506  0.3746
  396SOL     OW 1186   2.868   1.838   1.291  0.9340  0.3518 -0.4841
  396SOL    HW1 1187   2.895   1.737   1.273  1.9671 -0.4652  0.0133
  396SOL    HW2 1188   2.778   1.868   1.259  1.4152 -0.4622  0.4611
  397SOL     OW 1189   1.021   2.220   0.494 -0.1540  0.3729 -0.3121
  397SOL    HW1 1190   0.929   2.183   0.520  1.6997 -1.9884  0.3613
  397SOL    HW2 1191   1.036   2.321   0.522  1.5794  0.2878  0.4339
  398SOL     OW 1192   2.139   3.061   1.107  0.0677 -0.5001  0.4382
  398SOL    HW1 1193   2.054   3.018   1.142  0.1114  0.1906 -0.1312
  398SOL    HW2 1194   2.128   3.164   1.090  2.7679  0.0624  0.5874
  399SOL     OW 1195   3.033   2.454   2.636 -0.0928 -0.0702  0.3548
  399SOL    HW1 1196   2.937   2.448   2.593 -3.7316  1.1249  1.4838
  399SOL    HW2 1197   3.069   2.366   2.676  1.0947  0.8829 -2.2145
  400SOL     OW 1198   0.685   1.657   1.372 -0.3353  0.1214 -0.4512
  400SOL    HW1 1199   0.654   1.688   1.464 -0.5042 -0.5227  0.0058
  400SOL    HW2 1200   0.678   1.733   1.303 -2.2613  0.8222  3.1937
  401SOL     OW 1201   1.841   0.256   1.166 -0.3647  0.5660 -0.1039
  401SOL    HW1 1202   1.879   0.281   1.262  0.1947  0.3796 -0.1535
  401SOL    HW2 1203   1.753   0.308   1.150 -1.0115  1.0945 -1.3860
  402SOL     OW 1204   1.352   0.243   3.082 -0.5666 -0.0347 -0.0884
  402SOL    HW1 1205   1.424   0.208   3.016 -0.7699  0.2002 -0.4434
  402SOL    HW2 1206   1.300   0.325   3.042  2.5630 -0.0941 -2.7056
  403SOL     OW 1207   2.245   1.821   0.877 -1.1550 -0.0160 -0.8682
  403SOL    HW1 1208   2.334   1.843   0.827  3.5005  0.5534 -2.0755
  403SOL    HW2 1209   2.229   1.874   0.968 -0.4143  1.7052  0.4062
  404SOL     OW 1210   0.219   2.477   2.751  0.6326 -0.2075 -0.0504
  404SOL    HW1 1211   0.314   2.432   2.730  2.5498  0.5121 -0.6250
  404SOL    HW2 1212   0.227   2.580   2.743  2.9394 -0.1115 -2.1571
  405SOL     OW 1213   0.088   2.411   0.755 -0.0303 -0.9838  0.3333
  405SOL    HW1 1214   0.095   2.346   0.670  0.6199  0.9257 -1.3356
  405SOL    HW2 1215   0.168   2.481   0.753  0.1478 -1.4023 -2.9016
  406SOL     OW 1216   0.065   1.553   3.097  0.1687 -0.7559  0.0904
  406SOL    HW1 1217   0.140   1.539   3.023  0.3882 -1.1428 -0.1386
  406SOL    HW2 1218   0.088   1.525   3.194  0.2007  0.6576 -0.9439
  407SOL     OW 1219   1.571   0.897   0.959  0.3657  0.4268  0.2536
  407SOL    HW1 1220   1.612   0.897   0.862  2.0945 -0.0297  1.3135
  407SOL    HW2 1221   1.495   0.960   0.978 -0.0709 -2.4040 -1.4588
  408SOL     OW 1222   1.559   2.410   0.965 -1.1087  0.2135 -0.4168
  408SOL    HW1 1223   1.636   2.390   0.895 -0.0688 -0.9477  2.9024
  408SOL    HW2 1224   1.516   2.501   0.955  1.3678  0.8053 -0.4506
  409SOL     OW 1225   0.659   0.837   0.762 -0.0019  0.7566 -0.2078
  409SOL    HW1 1226   0.609   0.813   0.672 -1.1746 -1.3667  0.8490
  409SOL    HW2 1227   0.642   0.763   0.829 -0.9794  2.2533 -2.1958
  410SOL     OW 1228   1.262   2.028   1.393  0.1952 -0.0138  0.0854
  410SOL    HW1 1229   1.340   1.977   1.435 -0.8548 -2.0198  1.4800
  410SOL    HW2 1230   1.178   1.964   1.381  2.3897 -1.4752 -2.0718
  411SOL     OW 1231   2.506   1.829   2.987 -0.0836  0.0175  0.1130
  411SOL    HW1 1232   2.563   1.915   2.986  0.7298  0.6504  1.1565
  411SOL    HW2 1233   2.427   1.826   2.918  2.4225 -2.2238 -2.4650
  412SOL     OW 1234   1.477   2.455   2.140 -0.1710  0.1807 -0.2640
  412SOL    HW1 1235   1.557   2.448   2.208 -2.0728 -1.9643  1.6299
  412SOL    HW2 1236   1.386   2.456   2.194  0.9947 -0.7375  1.0167
  413SOL     OW 1237   0.002   0.201   2.960 -0.0319  0.6996  0.4893
  413SOL    HW1 1238  -0.055   0.137   3.014  0.0114 -0.8182  0.7030
  413SOL    HW2 1239   0.101   0.205   2.994  1.5531 -0.9136 -0.7561
  414SOL     OW 1240   1.758   1.487   1.195 -0.2559 -0.0606 -0.7041
  414SOL    HW1 1241   1.741   1.587   1.219 -0.3531 -1.7766  0.5478
  414SOL    HW2 1242   1.740   1.465   1.098 -0.6989 -2.5410  0.4492
  415SOL     OW 1243   0.310   2.204   0.712 -0.5474 -0.4130  0.3732
  415SOL    HW1 1244   0.279   2.177   0.810  0.2565 -2.4693 -3.5093
  415SOL    HW2 1245   0.234   2.201   0.635 -0.5454 -1.5331 -0.5431
  416SOL     OW 1246   0.358   1.069   1.054  0.7278  1.0719  0.3300
  416SOL    HW1 1247   0.317   0.997   0.991 -3.2151  0.3389  1.4977
  416SOL    HW2 1248   0.461   1.062   1.053  0.8962 -1.2838 -0.0616
  417SOL     OW 1249   2.332   2.448   2.066  0.5691  0.6568  0.4989
  417SOL    HW1 1250   2.361   2.351   2.083  0.8752 -0.5050  2.2646
  417SOL    HW2 1251   2.284   2.497   2.141  0.6441 -1.8736  1.0652
  418SOL     OW 1252   1.048   0.486   1.346 -0.1710 -0.3234 -0.0409
  418SOL    HW1 1253   0.958   0.482   1.289 -3.8035 -1.8451  1.8622
  418SOL    HW2 1254   1.124   0.520   1.281 -1.6690  2.0639  1.0372
  419SOL     OW 1255   0.937   0.514   2.971  0.3061  0.4372  0.0882
  419SOL    HW1 1256   0.844   0.501   2.940  0.9990 -1.4494  3.0862
  419SOL    HW2 1257   0.948   0.613   2.998 -2.6305  1.9511 -1.4234
  420SOL     OW 1258   0.121   2.210   0.496  0.1633  0.6132 -0.1615
  420SOL    HW1 1259   0.171   2.175   0.410  1.3522 -1.2892  0.5833
  420SOL    HW2 1260   0.069   2.136   0.548 -0.8541 -2.5394 -1.4336
  421SOL     OW 1261   0.328   2.937   0.571  0.1872  0.8189 -0.5554
  421SOL    HW1 1262   0.286   2.896   0.656  0.4330  1.0729  0.0876
  421SOL    HW2 1263   0.409   3.000   0.595 -0.2164  0.4051  0.3005
  422SOL     OW 1264   1.010   2.622   1.038  0.3117 -0.0941 -0.0034
  422SOL    HW1 1265   1.081   2.665   0.979  0.8950  1.2120 -1.4453
  422SOL    HW2 1266   1.052   2.595   1.134  0.0316 -0.3267  1.2483
  423SOL     OW 1267   0.125   0.749   1.222 -0.0525 -0.3260  0.1568
  423SOL    HW1 1268   0.075   0.695   1.299  0.3559  1.6547  2.7886
  423SOL    HW2 1269   0.089   0.850   1.210  1.2504  0.7505  0.7634
  424SOL     OW 1270   1.188   2.221   2.031  0.0968  0.3319 -0.0122
  424SOL    HW1 1271   1.142   2.313   2.028  1.6328  2.0989  0.9977
  424SOL    HW2 1272   1.153   2.169   2.115 -0.0499 -2.1873 -0.4146
  425SOL     OW 1273   2.012   1.306   0.969  0.2321  0.0273 -0.1505
  425SOL    HW1 1274   2.094   1.312   1.026 -2.2389  2.7595 -1.1611
  425SOL    HW2 1275   1.985   1.400   0.938  0.2645  0.1978 -0.6375
  426SOL     OW 1276   1.425   1.611   1.232  0.0093  0.2074 -0.4321
  426SOL    HW1 1277   1.452   1.705   1.199  1.4011 -4.7413 -1.1352
  426SOL    HW2 1278   1.391   1.615   1.328 -1.6972  0.3166 -0.4781
  427SOL     OW 1279   1.931   2.342   2.071  0.4390 -0.3342  0.1791
  427SOL    HW1 1280   1.983   2.292   2.146 -2.1849 -1.6851 -0.6279
  427SOL    HW2 1281   1.929   2.447   2.078  1.4258  2.7601  2.9666
  428SOL     OW 1282   0.863   0.016   0.105  0.6562  0.0508  0.1580
  428SOL    HW1 1283   0.857   0.108   0.057  0.9638  0.2550  1.6103
  428SOL    HW2 1284   0.954  -0.029   0.127 -0.9686  1.2199  1.8237
  429SOL     OW 1285   1.285   0.165   0.252  0.0562  0.3007  0.2005
  429SOL    HW1 1286   1.381   0.154   0.295  0.2141 -0.9456 -1.0973
  429SOL    HW2 1287   1.297   0.185   0.153 -0.5273 -0.9020  2.6953
  430SOL     OW 1288   2.909   1.400   0.307  0.1270  0.5140  0.2698
  430SOL    HW1 1289   2.874   1.453   0.223 -1.7154  1.8192 -0.5252
  430SOL    HW2 1290   2.889   1.458   0.384 -2.5710  0.6910  0.6913
  431SOL     OW 1291   2.063   1.590   0.930  0.1731 -0.4330  0.0321
  431SOL    HW1 1292   2.117   1.640   1.000 -1.3710 -1.4178  0.5379
  431SOL    HW2 1293   1.970   1.634   0.916  0.4239  0.1493 -1.5889
  432SOL     OW 1294   2.939   2.145   1.218 -0.2308 -0.2959  0.2526
  432SOL    HW1 1295   2.942   2.048   1.256 -0.3865  0.0136  0.0817
  432SOL    HW2 1296   2.949   2.217   1.291 -0.6997  2.1430 -1.1448
  433SOL     OW 1297   1.848   0.187   0.802  0.1283 -0.1216  0.3949
  433SOL    HW1 1298   1.772   0.202   0.875 -1.6048 -1.4328  0.0914
  433SOL    HW2 1299   1.907   0.112   0.835  1.8491 -0.8294  0.9459
  434SOL     OW 1300   1.570   0.329   0.666 -0.7985 -0.3005 -0.3072
  434SOL    HW1 1301   1.557   0.372   0.568 -1.0002  0.3485 -1.2130
  434SOL    HW2 1302   1.633   0.391   0.720  0.2746  2.2076 -0.9098
  435SOL     OW 1303   1.555   1.434   2.055 -0.3321 -0.3292  0.9079
  435SOL    HW1 1304   1.534   1.464   2.153 -1.4292  0.7571 -0.3072
  435SOL    HW2 1305   1.554   1.513   1.982 -1.8432  0.0771 -0.3288
  436SOL     OW 1306   1.702   2.718   2.252 -0.0732 -0.2391  0.5042
  436SOL    HW1 1307   1.650   2.787   2.312 -1.0393  2.6797  1.3065
  436SOL    HW2 1308   1.705   2.621   2.299 -0.4213  1.0775  0.1506
  437SOL     OW 1309   1.082   2.945   0.905 -0.2490  0.9425  0.0731
  437SOL    HW1 1310   1.024   3.024   0.879  0.8461 -0.2642  1.0648
  437SOL    HW2 1311   1.083   2.920   1.005  1.7383 -0.8023 -1.1940
  438SOL     OW 1312   0.999   2.669   1.428 -0.3359  0.2171  0.5723
  438SOL    HW1 1313   1.100   2.661   1.437 -1.1554 -1.2814  0.3368
  438SOL    HW2 1314   0.947   2.577   1.416  3.5716 -1.7649 -0.9135
  439SOL     OW 1315   0.671   1.834   1.071  0.1446  0.4900 -0.0151
  439SOL    HW1 1316   0.664   1.928   1.029  0.9808  0.8496  0.4379
  439SOL    HW2 1317   0.588   1.773   1.055 -0.7089  0.9111 -0.3061
  440SOL     OW 1318   1.083   2.481   1.966  0.2176 -0.2884  0.0659
  440SOL    HW1 1319   1.007   2.534   1.917  0.3958  2.8977  1.3156
  440SOL    HW2 1320   1.177   2.507   1.934  1.9343 -0.6130  0.1202
  441SOL     OW 1321   0.403   2.685   1.552 -0.8073 -0.3614  0.4542
  441SOL    HW1 1322   0.487   2.622   1.536  1.5007  0.3544 -2.2217
  441SOL    HW2 1323   0.337   2.676   1.474  0.0630 -1.3473  2.0695
  442SOL     OW 1324   2.264   0.703   2.543 -0.0289 -0.2555  0.4362
  442SOL    HW1 1325   2.239   0.604   2.557  2.5558 -1.0288  0.3024
  442SOL    HW2 1326   2.183   0.765   2.542 -1.1172  0.6026 -0.5721
  443SOL     OW 1327   1.190   2.708   2.203  0.2834 -0.3553  0.1938
  443SOL    HW1 1328   1.173   2.766   2.287  2.4704  1.8140 -0.0976
  443SOL    HW2 1329   1.249   2.627   2.218 -2.6264 -0.8100  1.9424
  444SOL     OW 1330   1.000   1.325   1.587  0.2856  0.3899 -0.5081
  444SOL    HW1 1331   1.102   1.317   1.569  0.7943  0.1674 -1.5198
  444SOL    HW2 1332   0.966   1.424   1.579 -0.1620  0.4538 -1.1009
  445SOL     OW 1333   3.068   2.389   1.983 -0.1730 -0.2040 -0.6188
  445SOL    HW1 1334   3.079   2.461   1.911  0.5211  1.2844  2.3992
  445SOL    HW2 1335   2.968   2.373   1.998  0.8155 -0.6032  1.4701
  446SOL     OW 1336   0.212   1.915   2.345  0.1633  0.1675  0.0929
  446SOL    HW1 1337   0.156   2.001   2.358 -2.5762 -1.4745  1.2399
  446SOL    HW2 1338   0.149   1.837   2.319 -1.6311 -1.4833  0.8172
  447SOL     OW 1339   1.190   1.661   1.950 -0.0556 -0.5107  0.1028
  447SOL    HW1 1340   1.140   1.745   1.908  1.9418  1.8256  1.4448
  447SOL    HW2 1341   1.290   1.674   1.941  0.1939 -2.2908 -2.0452
  448SOL     OW 1342   0.109   1.478   1.959  0.2460  0.0713 -0.2746
  448SOL    HW1 1343   0.079   1.581   1.967  0.8136  0.0597 -2.5470
  448SOL    HW2 1344   0.139   1.445   2.051  0.2263  1.7065 -0.7967
  449SOL     OW 1345   1.990   3.015   0.861 -0.2224  0.3859 -0.2013
  449SOL    HW1 1346   2.053   3.050   0.940  3.0730  0.2459  1.0282
  449SOL    HW2 1347   1.999   2.914   0.836  0.7509  1.3527  0.5448
  450SOL     OW 1348   2.278   1.371   0.878  0.2533 -0.0322  0.4080
  450SOL    HW1 1349   2.253   1.276   0.854 -2.7928  1.6281 -0.6528
  450SOL    HW2 1350   2.202   1.441   0.889 -0.3433 -2.1109  0.5054
  451SOL     OW 1351   1.433   0.027   1.450 -0.2552 -0.1767 -0.2568
  451SOL    HW1 1352   1.350   0.089   1.451  0.0517  0.7934  1.8921
  451SOL    HW2 1353   1.434  -0.035   1.534  0.9982 -1.7952  0.3349
  452SOL     OW 1354   2.653   2.300   2.258 -0.4349 -0.3518 -0.2463
  452SOL    HW1 1355   2.599   2.384   2.297 -0.6547  1.0273  0.3392
  452SOL    HW2 1356   2.701   2.244   2.329 -0.3727 -1.9135  1.5992
  453SOL     OW 1357   2.436   2.594   3.044  0.2351 -0.1332  0.1533
  453SOL    HW1 1358   2.361   2.664   3.058 -0.0260  0.5319 -1.8624
  453SOL    HW2 1359   2.413   2.536   2.959 -2.0601  0.1448  0.6213
  454SOL     OW 1360   0.954   1.083   2.079  0.2777 -0.3519 -0.2009
  454SOL    HW1 1361   0.930   1.164   2.016  0.0317  0.5986 -1.5174
  454SOL    HW2 1362   1.055   1.053   2.088  0.6539 -0.4070  0.6397
  455SOL     OW 1363   0.716   2.626   2.910 -0.4876 -0.1548  0.2714
  455SOL    HW1 1364   0.764   2.701   2.956  0.2214  1.0466 -1.1779
  455SOL    HW2 1365   0.674   2.554   2.977  0.8228  0.3154  0.0008
  456SOL     OW 1366   0.557   1.788   0.286  0.2998  0.6007  0.2016
  456SOL    HW1 1367   0.650   1.760   0.253  1.9424  1.3012 -0.5539
  456SOL    HW2 1368   0.546   1.885   0.311 -1.2955 -3.5985  1.1208
  457SOL     OW 1369   0.333   2.589   0.691  0.1890 -0.5706 -0.7787
  457SOL    HW1 1370   0.329   2.617   0.593  0.9212  0.7380  2.2318
  457SOL    HW2 1371   0.420   2.534   0.705  1.2428  0.3702 -3.4070
  458SOL     OW 1372   2.965   2.942   1.240 -0.1160 -0.8092 -0.2606
  458SOL    HW1 1373   3.013   3.030   1.221  2.0779 -4.4564  0.4889
  458SOL    HW2 1374   2.914   2.903   1.156 -1.0995  1.5065  1.7398
  459SOL     OW 1375   2.085   2.533   0.925  0.1692  0.3706 -0.2859
  459SOL    HW1 1376   2.073   2.624   0.980  2.5390 -0.6038  0.8592
  459SOL    HW2 1377   2.182   2.529   0.893 -1.3579  0.0312  1.7226
  460SOL     OW 1378   1.069   1.922   2.894 -0.2183 -0.0560  0.2758
  460SOL    HW1 1379   1.055   2.022   2.907  1.9813 -2.6436 -0.9409
  460SOL    HW2 1380   1.130   1.875   2.964 -0.2128 -0.1485 -0.4349
  461SOL     OW 1381   0.516   2.116   2.701  0.4166 -0.1118 -0.2676
  461SOL    HW1 1382   0.468   2.034   2.654 -2.4093 -1.1305  4.1418
  461SOL    HW2 1383   0.554   2.086   2.796  0.9659  0.7025  1.1098
  462SOL     OW 1384   0.955   1.210   1.830  0.2576  0.2908 -0.3125
  462SOL    HW1 1385   0.995   1.122   1.813  0.5397  0.3532  0.5743
  462SOL    HW2 1386   0.955   1.264   1.738 -1.0167 -0.1225 -1.4876
  463SOL     OW 1387   0.449   0.799   0.555 -0.0862  0.1352 -0.3210
  463SOL    HW1 1388   0.485   0.717   0.501 -2.3804  1.9973 -0.1223
  463SOL    HW2 1389   0.350   0.795   0.583 -0.4325  2.4791  0.5975
  464SOL     OW 1390   0.501   2.252   2.214 -0.0407  0.0711 -0.1501
  464SOL    HW1 1391   0.446   2.310   2.282 -1.1837 -0.0712 -0.1402
  464SOL    HW2 1392   0.528   2.304   2.126 -2.8420  1.6915 -0.3028
  465SOL     OW 1393   0.225   0.884   0.875  0.2829 -0.4375 -0.1048
  465SOL    HW1 1394   0.135   0.904   0.827  1.6801 -3.0563  1.1013
  465SOL    HW2 1395   0.232   0.785   0.897 -2.3984  1.6754 -0.3759
  466SOL     OW 1396   1.376   1.079   1.044  0.0507 -0.2401 -0.2190
  466SOL    HW1 1397   1.453   1.146   1.060 -1.4985  1.7742 -0.1883
  466SOL    HW2 1398   1.285   1.131   1.059 -0.5224 -2.3961 -1.3114
  467SOL     OW 1399   0.444   0.387   2.393 -0.2268  0.5271  0.5886
  467SOL    HW1 1400   0.394   0.466   2.434 -1.5513 -2.5589 -0.1864
  467SOL    HW2 1401   0.457   0.306   2.456  0.4950  1.4315  0.8733
  468SOL     OW 1402   0.492   2.244   1.690  0.4533  0.3529  0.0499
  468SOL    HW1 1403   0.480   2.319   1.761  0.2275 -2.1246  1.6750
  468SOL    HW2 1404   0.459   2.275   1.596 -0.7873 -0.9797  1.0987
  469SOL     OW 1405   1.549   1.282   1.108 -0.2304 -0.7038 -0.4283
  469SOL    HW1 1406   1.638   1.233   1.079  1.9247 -0.2071  0.7959
  469SOL    HW2 1407   1.565   1.365   1.163  1.4391 -2.6832 -0.2179
  470SOL     OW 1408   3.037   1.652   0.734  0.7277 -0.3550 -0.2962
  470SOL    HW1 1409   3.118   1.653   0.794 -0.8427  1.6854  0.9124
  470SOL    HW2 1410   2.976   1.729   0.763  0.5868  0.1387  0.4036
  471SOL     OW 1411   2.691   1.296   2.141 -0.2841 -0.0392  0.5324
  471SOL    HW1 1412   2.637   1.239   2.210  1.4068  0.4406  1.0130
  471SOL    HW2 1413   2.730   1.389   2.180 -0.0967  1.9358 -1.7237
  472SOL     OW 1414   1.100   2.468  -0.001  0.1448  0.2361  0.7348
  472SOL    HW1 1415   1.173   2.458   0.074 -0.2669  1.1328  1.2442
  472SOL    HW2 1416   1.043   2.382  -0.018  1.4732 -2.0643 -1.6331
  473SOL     OW 1417   1.074   1.582   0.867 -0.4010  0.3157 -0.5912
  473SOL    HW1 1418   0.985   1.607   0.917 -1.3341 -0.1043  0.3831
  473SOL    HW2 1419   1.148   1.552   0.927 -3.0760  0.5842 -1.9036
  474SOL     OW 1420   0.804   1.210   0.723 -0.3517  0.3051  0.3016
  474SOL    HW1 1421   0.779   1.214   0.622  0.0321 -0.5980 -0.9937
  474SOL    HW2 1422   0.828   1.114   0.750  0.9422  0.7475  2.2457
  475SOL     OW 1423   2.867   0.096   0.736 -0.1640  0.1331  0.7259
  475SOL    HW1 1424   2.947   0.074   0.795 -0.5657 -1.0369 -0.9087
  475SOL    HW2 1425   2.777   0.113   0.785  2.4838 -0.6919 -2.6051
  476SOL     OW 1426   0.874   3.079   1.821 -0.2678 -0.3356  0.2780
  476SOL    HW1 1427   0.931   3.051   1.905  1.8031  0.6711  0.3377
  476SOL    HW2 1428   0.903   3.032   1.733 -0.7442 -0.4831 -0.9116
  477SOL     OW 1429   1.443   0.330   2.420  0.0942  0.3921 -0.1606
  477SOL    HW1 1430   1.417   0.330   2.521  0.0322  2.5008  0.1954
  477SOL    HW2 1431   1.543   0.301   2.408 -1.4244  1.4585  0.5070
  478SOL     OW 1432   2.303   1.820   0.235 -0.4017 -0.0730  0.2440
  478SOL    HW1 1433   2.238   1.741   0.213 -2.8915  1.0680 -1.4673
  478SOL    HW2 1434   2.395   1.813   0.194 -3.7359 -0.9955 -0.8342
  479SOL     OW 1435   1.253   1.102   2.891 -0.5528  0.2958 -1.0891
  479SOL    HW1 1436   1.333   1.077   2.831  1.3615 -2.3118 -2.9598
  479SOL    HW2 1437   1.166   1.048   2.862 -2.0157  1.1584 -1.1002
  480SOL     OW 1438   2.457   2.340   0.383 -0.1184  0.0407 -0.0607
  480SOL    HW1 1439   2.402   2.275   0.439  1.4139 -1.2924 -0.5006
  480SOL    HW2 1440   2.408   2.356   0.289 -1.3828 -0.7161 -2.1690
  481SOL     OW 1441   1.124   1.175   0.806 -0.4444  0.2256  0.4786
  481SOL    HW1 1442   1.085   1.235   0.734  1.0318  2.3875  2.1448
  481SOL    HW2 1443   1.139   1.216   0.899 -2.2423 -0.6279  0.0128
  482SOL     OW 1444   1.613   0.299   2.028  0.1155  0.0216 -0.1003
  482SOL    HW1 1445   1.607   0.388   1.981 -1.0322  0.2274  0.3240
  482SOL    HW2 1446   1.712   0.282   2.067  2.9523 -0.1838 -1.4841
  483SOL     OW 1447   0.146   2.350   1.305 -0.2694  0.3038  0.3100
  483SOL    HW1 1448   0.045   2.352   1.323  1.1155  0.3405  0.0157
  483SOL    HW2 1449   0.170   2.396   1.217  2.0061 -2.4007  0.8028
  484SOL     OW 1450   1.725   0.984   1.378 -0.1449 -0.1407 -0.1434
  484SOL    HW1 1451   1.815   0.929   1.387  2.0283  1.3431 -0.0197
  484SOL    HW2 1452   1.732   1.079   1.421 -0.1841  0.0822 -1.2004
  485SOL     OW 1453   0.694   1.119   1.773 -0.2789  0.0413  0.0191
  485SOL    HW1 1454   0.711   1.088   1.673  1.4186 -1.2733 -0.5713
  485SOL    HW2 1455   0.776   1.164   1.812  1.4396  0.5390 -0.1070
  486SOL     OW 1456   0.903   1.919   2.461 -0.3511 -0.3391 -0.5277
  486SOL    HW1 1457   0.965   1.889   2.535  0.6009  2.4965 -0.2525
  486SOL    HW2 1458   0.819   1.971   2.488 -1.6162 -1.2196  1.7399
  487SOL     OW 1459   1.750   1.492   0.901  0.0673  0.3288  0.0703
  487SOL    HW1 1460   1.723   1.404   0.848 -4.1560 -0.5031 -0.8341
  487SOL    HW2 1461   1.767   1.581   0.845 -2.7480  1.5242 -3.8759
  488SOL     OW 1462   2.960   0.962   2.281 -0.0949  0.4363  0.6659
  488SOL    HW1 1463   3.006   0.905   2.213 -1.7229  1.0417  1.7990
  488SOL    HW2 1464   2.991   0.936   2.381 -0.8187  2.1734  2.2919
  489SOL     OW 1465   2.800   0.230   1.307  0.2972 -0.4383  0.0308
  489SOL    HW1 1466   2.763   0.193   1.395  1.5132 -2.3361 -0.1496
  489SOL    HW2 1467   2.886   0.175   1.280  0.8696 -0.4122  0.0134
  490SOL     OW 1468   1.416   2.965   2.870  0.0853 -0.3162 -0.3640
  490SOL    HW1 1469   1.451   2.868   2.857  0.2885 -3.4147  1.1496
  490SOL    HW2 1470   1.362   2.994   2.788  0.2163  3.4135 -1.2040
  491SOL     OW 1471   1.889   1.564   2.683  0.5715 -0.4611 -0.4932
  491SOL    HW1 1472   1.886   1.657   2.723  1.0729 -2.7809  1.3174
  491SOL    HW2 1473   1.977   1.525   2.725 -0.0655  1.1394  2.5001
  492SOL     OW 1474   0.467   1.958   0.740  0.3095 -0.0860  0.1397
  492SOL    HW1 1475   0.540   2.011   0.783 -1.7835 -0.2700  0.7657
  492SOL    HW2 1476   0.383   2.015   0.720  0.0336  0.4343 -2.2790
  493SOL     OW 1477   0.423   1.404   2.112  0.0066 -0.4113  0.4172
  493SOL    HW1 1478   0.319   1.411   2.116 -1.0368 -0.1335 -1.2222
  493SOL    HW2 1479   0.461   1.358   2.197  0.5868 -1.0659  0.0588
  494SOL     OW 1480   2.638   2.655   0.149 -0.0932  0.2686  0.4052
  494SOL    HW1 1481   2.663   2.576   0.213 -0.7628 -0.8868  3.3242
  494SOL    HW2 1482   2.571   2.630   0.074  1.7477 -1.7047  0.5402
  495SOL     OW 1483   2.757   2.684   2.687  0.6417  0.3046 -0.0459
  495SOL    HW1 1484   2.763   2.591   2.648 -2.2533  0.1775 -0.9718
  495SOL    HW2 1485   2.762   2.762   2.615 -1.0048  0.0142  1.0737
  496SOL     OW 1486   2.090   2.191   0.728 -0.4445 -0.0246 -0.2232
  496SOL    HW1 1487   2.087   2.235   0.825 -1.2704 -2.7085 -2.8323
  496SOL    HW2 1488   2.040   2.098   0.731 -3.2838 -1.6274  0.9412
  497SOL     OW 1489   0.240   2.969   2.419  0.0490 -0.0544  0.2771
  497SOL    HW1 1490   0.207   3.031   2.490  0.3656 -1.7717  1.6927
  497SOL    HW2 1491   0.262   3.018   2.332  0.4693 -1.3557 -0.2359
  498SOL     OW 1492   1.197   1.480   1.112 -0.1159  0.1882 -0.1863
  498SOL    HW1 1493   1.274   1.517   1.169  0.2018 -0.9200  1.2956
  498SOL    HW2 1494   1.109   1.517   1.155  3.1982  1.9918 -3.1890
  499SOL     OW 1495   0.859   1.822   0.526  0.2470  1.0784  0.0766
  499SOL    HW1 1496   0.809   1.737   0.554 -0.2136  1.8935 -0.7420
  499SOL    HW2 1497   0.865   1.892   0.599 -2.7138  1.3057 -3.0856
  500SOL     OW 1498   1.418   2.983   1.711  0.3755  0.2693 -0.9454
  500SOL    HW1 1499   1.461   3.033   1.792 -0.8682 -0.4432 -0.8699
  500SOL    HW2 1500   1.456   2.889   1.691  0.7160  1.2113 -3.6122
  501SOL     OW 1501   0.733   1.143   2.270 -0.4389 -0.2586  0.7011
  501SOL    HW1 1502   0.650   1.080   2.285  1.4976  2.4548  1.0696
  501SOL    HW2 1503   0.782   1.124   2.182 -1.9038 -0.1189  0.0367
  502SOL     OW 1504   2.619   0.973   1.720 -0.1853 -0.1124 -0.0309
  502SOL    HW1 1505   2.575   0.964   1.628 -0.0943 -1.3374 -0.4280
  502SOL    HW2 1506   2.624   0.886   1.767  0.1138  0.9464 -2.4937
  503SOL     OW 1507   1.338   0.179   0.617  0.0354 -0.0722  0.2022
  503SOL    HW1 1508   1.270   0.246   0.573  0.2555 -1.6418 -1.1675
  503SOL    HW2 1509   1.432   0.221   0.643 -0.3855 -1.8330  2.3747
  504SOL     OW 1510   2.962   2.382   1.406  0.0382  0.3280  0.1753
  504SOL    HW1 1511   2.996   2.464   1.447  1.0743 -1.6427  1.1506
  504SOL    HW2 1512   2.868   2.351   1.440  0.6401  1.7670  1.1076
  505SOL     OW 1513   2.306   1.239   1.436  0.1935  0.0743 -0.1320
  505SOL    HW1 1514   2.276   1.301   1.358  2.7355 -1.1703  2.7833
  505SOL    HW2 1515   2.388   1.277   1.489 -0.0188  0.4912  0.1714
  506SOL     OW 1516   1.896   0.239   1.812  0.3540 -0.3856 -0.7264
  506SOL    HW1 1517   1.973   0.224   1.746  0.6964  0.1155  1.9015
  506SOL    HW2 1518   1.898   0.325   1.874 -2.7691  1.5477 -1.6143
  507SOL     OW 1519   0.499   0.674   2.184 -0.5714  0.8369 -0.2253
  507SOL    HW1 1520   0.428   0.687   2.110 -0.1271  2.5422 -0.3261
  507SOL    HW2 1521   0.555   0.588   2.172 -0.4437 -0.2030  0.2610
  508SOL     OW 1522   0.177   1.672   0.852 -0.8935 -0.1381 -0.7556
  508SOL    HW1 1523   0.225   1.763   0.838 -2.1727 -0.0362 -2.7433
  508SOL    HW2 1524   0.193   1.633   0.951 -2.2839  0.9431  2.6571
  509SOL     OW 1525   1.367   1.194   2.565 -0.1932 -0.5861  0.2105
  509SOL    HW1 1526   1.274   1.234   2.594 -0.6848  1.7080  1.2969
  509SOL    HW2 1527   1.360   1.090   2.554  1.3181  3.3647  3.7219
  510SOL     OW 1528   1.333   1.990   2.025 -0.2792  0.5153 -0.5712
  510SOL    HW1 1529   1.282   2.077   2.011 -1.1389 -2.9892  0.0192
  510SOL    HW2 1530   1.303   1.935   2.113 -1.1399  0.5668  2.3419
  511SOL     OW 1531   3.103   2.638   1.305 -0.5379 -0.1734 -0.2030
  511SOL    HW1 1532   3.027   2.595   1.250  0.4176  0.1865  0.0753
  511SOL    HW2 1533   3.079   2.643   1.404 -1.9780  0.9046 -0.0661
  512SOL     OW 1534   2.411   0.428   1.359 -0.0349  0.1261  0.2044
  512SOL    HW1 1535   2.306   0.410   1.365 -1.2990 -1.3473  1.0391
  512SOL    HW2 1536   2.458   0.427   1.265 -0.2084 -1.7269  1.8194
  513SOL     OW 1537   2.495   2.004   0.838  0.0026 -0.2125 -0.2718
  513SOL    HW1 1538   2.455   2.102   0.848  0.3423  0.1781 -1.7427
  513SOL    HW2 1539   2.556   1.990   0.755  0.7128  0.5761  0.1673
  514SOL     OW 1540   0.673   2.801   0.399 -0.1307  0.3986  0.4963
  514SOL    HW1 1541   0.630   2.824   0.310  0.3987  0.8519  1.4514
  514SOL    HW2 1542   0.655   2.865   0.474  0.1111 -0.4686 -1.0297
  515SOL     OW 1543   1.974   1.217   2.348 -0.1590  0.1123  0.1707
  515SOL    HW1 1544   1.907   1.234   2.270  2.8124  0.4738 -2.6724
  515SOL    HW2 1545   1.923   1.221   2.437  2.6633  0.1170  0.5080
  516SOL     OW 1546   0.266   0.303   1.966  0.6054  0.4086  0.3730
  516SOL    HW1 1547   0.358   0.307   1.917 -1.9990  0.8164 -1.3629
  516SOL    HW2 1548   0.193   0.242   1.915 -1.8229 -0.8965  0.0219
  517SOL     OW 1549   0.357   3.049   1.159 -0.0519  0.1276 -0.4027
  517SOL    HW1 1550   0.397   3.143   1.181  0.2878 -1.3004 -0.9575
  517SOL    HW2 1551   0.267   3.031   1.199  0.0719  1.2024  3.2151
  518SOL     OW 1552   2.148   0.168   1.664 -0.2712  0.0780 -0.9221
  518SOL    HW1 1553   2.210   0.213   1.735 -0.4480  1.4538  2.6157
  518SOL    HW2 1554   2.174   0.070   1.636  0.7471  0.8206  0.9026
  519SOL     OW 1555   2.361   2.169   2.534 -0.5164 -0.6948 -0.5244
  519SOL    HW1 1556   2.279   2.153   2.595 -1.9067  2.3660 -0.9516
  519SOL    HW2 1557   2.405   2.257   2.555 -2.3018  0.9499  0.0973
  520SOL     OW 1558   1.770   2.872   1.794 -0.0032 -0.3923  0.3125
  520SOL    HW1 1559   1.704   2.818   1.847  1.4441 -2.3975 -1.6053
  520SOL    HW2 1560   1.836   2.809   1.747 -1.1515 -0.1653  0.7703
  521SOL     OW 1561   0.570   0.147   2.140  0.0710  0.0511  0.4383
  521SOL    HW1 1562   0.479   0.136   2.189  0.7501 -0.8947  1.1005
  521SOL    HW2 1563   0.644   0.102   2.193 -0.8575 -0.8571 -0.2858
  522SOL     OW 1564   0.209   1.896   1.556  0.5166 -0.2006  0.2125
  522SOL    HW1 1565   0.255   1.944   1.635  0.0216 -0.1165 -0.0576
  522SOL    HW2 1566   0.194   1.959   1.475 -1.1789 -0.0195 -0.7493
  523SOL     OW 1567   2.204   2.977   1.618  0.4432  0.9839 -0.0611
  523SOL    HW1 1568   2.235   2.883   1.582  2.6390  1.5386  0.0851
  523SOL    HW2 1569   2.107   2.992   1.596  2.1778  0.1329  0.1235
  524SOL     OW 1570   0.249   2.744   2.825 -0.1382  0.1686 -0.1566
  524SOL    HW1 1571   0.232   2.773   2.921 -2.8913  2.0459 -1.5312
  524SOL    HW2 1572   0.341   2.762   2.785  1.4966 -1.1876  0.3986
  525SOL     OW 1573   2.127   1.935   0.465  0.2480 -0.1685  0.1139
  525SOL    HW1 1574   2.099   1.858   0.532  0.4344 -1.5165  3.9692
  525SOL    HW2 1575   2.191   1.894   0.392 -1.5662 -1.2834 -0.4539
  526SOL     OW 1576   0.414   1.523   1.553  0.1146  0.6886  0.2964
  526SOL    HW1 1577   0.358   1.486   1.631 -0.8667 -0.2168 -1.0093
  526SOL    HW2 1578   0.486   1.459   1.517  2.0619  2.2028  1.2233
  527SOL     OW 1579   1.106   2.886   1.198  0.0466  0.0050  0.1787
  527SOL    HW1 1580   1.134   2.805   1.259  0.4714  1.4239  0.5222
  527SOL    HW2 1581   1.147   2.977   1.220  0.6932  1.2702 -1.6010
  528SOL     OW 1582   1.350   2.396   0.458  0.1009  0.3580 -0.0910
  528SOL    HW1 1583   1.380   2.297   0.446  0.0656 -1.0438 -0.3783
  528SOL    HW2 1584   1.404   2.444   0.533 -0.9357 -1.6008  0.3114
  529SOL     OW 1585   1.827   1.739   0.792 -0.3520 -0.0435 -0.1377
  529SOL    HW1 1586   1.824   1.730   0.685  1.4791 -1.3696 -0.5519
  529SOL    HW2 1587   1.849   1.832   0.824  0.4388 -1.8361 -1.3484
  530SOL     OW 1588   0.332   2.453   0.296  0.3873  0.2051 -0.7259
  530SOL    HW1 1589   0.332   2.532   0.356  2.6748  0.9764 -3.8594
  530SOL    HW2 1590   0.383   2.372   0.339 -4.3685  0.6050 -0.0579
  531SOL     OW 1591   1.851   0.816   1.015  0.4983  0.2074 -0.3230
  531SOL    HW1 1592   1.903   0.843   0.929 -3.8377 -0.1128 -0.0363
  531SOL    HW2 1593   1.753   0.863   1.025 -0.8076  0.1451 -2.3475
  532SOL     OW 1594   0.489   1.092   0.746 -0.0257 -0.0555  0.5196
  532SOL    HW1 1595   0.498   1.113   0.641  0.9889  1.1677 -0.3044
  532SOL    HW2 1596   0.468   0.992   0.762 -0.1322 -0.4680  0.7622
  533SOL     OW 1597   1.773   0.041   2.548 -0.4744 -0.2789  0.0396
  533SOL    HW1 1598   1.872   0.009   2.563  2.3439  0.4244  1.6715
  533SOL    HW2 1599   1.734   0.096   2.627  0.1246 -0.6261  1.7628
  534SOL     OW 1600   0.392   0.170   1.557  0.0962  0.0896  0.1916
  534SOL    HW1 1601   0.496   0.171   1.571  0.4801  2.7017  1.2563
  534SOL    HW2 1602   0.352   0.266   1.548  1.1870  1.5263 -0.2248
  535SOL     OW 1603   1.933   0.342   0.189  0.3431  0.3126 -0.5868
  535SOL    HW1 1604   1.970   0.424   0.242 -0.8299 -1.7367  0.7775
  535SOL    HW2 1605   1.955   0.254   0.249  0.2383 -0.4202 -0.6019
  536SOL     OW 1606   1.370   2.619   0.927  0.1716 -0.6581 -0.3958
  536SOL    HW1 1607   1.342   2.578   1.016 -3.2404 -0.6331 -0.3683
  536SOL    HW2 1608   1.293   2.635   0.857 -0.8970  1.4152 -2.9209
  537SOL     OW 1609   0.841   0.271   2.373  0.1691 -0.3210 -0.3141
  537SOL    HW1 1610   0.892   0.310   2.291  0.3317 -1.1991 -2.2696
  537SOL    HW2 1611   0.789   0.180   2.349 -1.6040 -4.3817 -1.3368
  538SOL     OW 1612   1.655   2.350   1.374 -0.0470  0.3606  0.3031
  538SOL    HW1 1613   1.663   2.247   1.396  0.6934 -1.1499  1.9358
  538SOL    HW2 1614   1.747   2.400   1.382  1.7799  0.4197  0.9565
  539SOL     OW 1615   0.177   1.605   2.697  0.1874 -0.2120  0.1465
  539SOL    HW1 1616   0.076   1.580   2.683  1.5005 -2.0340 -1.2118
  539SOL    HW2 1617   0.195   1.703   2.728 -0.1049  1.7319  0.1414
  540SOL     OW 1618   2.662   1.709   1.909  0.2709 -0.1992  0.0430
  540SOL    HW1 1619   2.607   1.657   1.980 -0.3419  0.6438 -0.4175
  540SOL    HW2 1620   2.615   1.805   1.894  0.7979  0.7387 -1.1189
  541SOL     OW 1621   0.558   2.162   0.027 -0.4410  0.1913 -0.3220
  541SOL    HW1 1622   0.575   2.120   0.124 -0.3130  0.6930 -0.0102
  541SOL    HW2 1623   0.462   2.144  -0.009  0.6566 -1.2927  0.1352
  542SOL     OW 1624   2.237   2.637   0.517  0.4217  1.0656  0.6135
  542SOL    HW1 1625   2.209   2.737   0.529 -2.3016  1.1919  1.5884
  542SOL    HW2 1626   2.158   2.569   0.531 -0.1261 -0.7899  0.2804
  543SOL     OW 1627   1.087   1.807   1.574  0.3075 -0.4385  0.9935
  543SOL    HW1 1628   1.094   1.845   1.668  2.6860 -1.8296 -0.7180
  543SOL    HW2 1629   1.011   1.856   1.515 -0.9081 -0.5209  0.6769
  544SOL     OW 1630   1.158   0.519   0.164  0.9842  0.2444  0.1484
  544SOL    HW1 1631   1.110   0.439   0.211 -2.3651 -1.2525 -3.8551
  544SOL    HW2 1632   1.171   0.501   0.066  0.6554  3.0818  0.0353
  545SOL     OW 1633   1.111   1.851   0.772  0.2894  0.2756  0.0393
  545SOL    HW1 1634   1.193   1.850   0.708  1.0415 -0.2866 -0.3004
  545SOL    HW2 1635   1.078   1.754   0.792  1.3342 -0.8287 -0.4594
  546SOL     OW 1636   2.685   1.596   2.974 -0.2306  0.3472  0.1376
  546SOL    HW1 1637   2.694   1.699   2.965 -2.6483 -0.2210  2.0216
  546SOL    HW2 1638   2.588   1.557   2.990 -3.6125  0.0746  1.3615
  547SOL     OW 1639   0.659   3.037   2.510 -0.1586 -0.0663 -0.2179
  547SOL    HW1 1640   0.704   3.030   2.610  0.1164  1.5922 -0.1002
  547SOL    HW2 1641   0.592   2.964   2.490  1.7530  0.9709  2.1514
  548SOL     OW 1642   2.065   0.765   3.050  0.1664 -0.4835 -0.3968
  548SOL    HW1 1643   1.962   0.749   3.041  0.6386 -0.3125 -0.8363
  548SOL    HW2 1644   2.085   0.868   3.056 -1.2656  1.1150 -1.2578
  549SOL     OW 1645   0.702   0.555   0.207 -0.1104 -0.3810 -0.2628
  549SOL    HW1 1646   0.637   0.606   0.144  0.1636 -0.2766 -2.7685
  549SOL    HW2 1647   0.796   0.597   0.217 -3.0208  2.5083 -0.4407
  550SOL     OW 1648   2.565   2.804   2.847  0.2529 -0.1008  0.4842
  550SOL    HW1 1649   2.522   2.736   2.911 -2.1193 -1.4124 -1.0697
  550SOL    HW2 1650   2.619   2.755   2.772 -0.2424 -2.5819 -2.1038
  551SOL     OW 1651   0.231   0.874   0.267  0.4833  0.0859 -0.3005
  551SOL    HW1 1652   0.326   0.911   0.260 -1.3560 -0.6143  1.2752
  551SOL    HW2 1653   0.207   0.859   0.367 -2.2699 -3.0454 -0.2889
  552SOL     OW 1654   0.593   3.032   1.979  0.5417  0.4169 -0.0504
  552SOL    HW1 1655   0.580   3.117   2.041  1.2722  0.7223  1.5911
  552SOL    HW2 1656   0.688   3.025   1.945 -0.8979 -0.4143 -0.2966
  553SOL     OW 1657   2.983   2.399   0.379  0.2421 -0.1557  0.0939
  553SOL    HW1 1658   2.979   2.300   0.420  2.5279 -1.7504  0.8619
  553SOL    HW2 1659   2.893   2.426   0.343  1.7064  1.4172 -0.4581
  554SOL     OW 1660   2.210   0.380   0.523  0.0681 -0.4558  0.2238
  554SOL    HW1 1661   2.273   0.390   0.437  3.2232 -0.3333 -0.9540
  554SOL    HW2 1662   2.209   0.284   0.567 -0.6331 -0.1188  0.1085
  555SOL     OW 1663   0.481   2.846   2.468  0.0525  0.2364 -0.3953
  555SOL    HW1 1664   0.377   2.871   2.463 -1.5138  0.9480 -0.7734
  555SOL    HW2 1665   0.519   2.777   2.401 -0.8406  0.7926  3.5795
  556SOL     OW 1666   0.812   2.466   1.604  0.3035 -0.3446 -0.1849
  556SOL    HW1 1667   0.853   2.535   1.673 -1.7600 -0.4461  1.2229
  556SOL    HW2 1668   0.879   2.407   1.557  2.0266  1.0308  1.5526
  557SOL     OW 1669   0.248   2.093   0.293  0.5201 -0.1603  0.1719
  557SOL    HW1 1670   0.160   2.035   0.262  1.2188 -1.6690 -1.4979
  557SOL    HW2 1671   0.320   2.119   0.220  1.8398  2.8627 -1.0184
  558SOL     OW 1672   2.837   2.139   0.404  0.4122 -0.6754  0.1050
  558SOL    HW1 1673   2.767   2.199   0.441 -0.4233 -0.0633 -3.1348
  558SOL    HW2 1674   2.791   2.083   0.332 -2.6936 -0.0073 -0.5039
  559SOL     OW 1675   0.402   2.341   1.439 -0.2227 -0.7109  0.1007
  559SOL    HW1 1676   0.314   2.344   1.396  0.2694  2.3727 -0.5010
  559SOL    HW2 1677   0.473   2.283   1.389 -0.9116 -2.5478  2.6249
  560SOL     OW 1678   2.124   1.041   3.096 -0.2568 -0.5547 -0.0091
  560SOL    HW1 1679   2.176   1.061   3.185  2.3371 -0.4548  0.9863
  560SOL    HW2 1680   2.192   1.026   3.012  2.7462 -1.3235 -0.6699
  561SOL     OW 1681   0.033   1.924   0.171 -0.1917  0.4793  0.9907
  561SOL    HW1 1682  -0.022   1.900   0.252 -1.1927 -1.2823 -2.0420
  561SOL    HW2 1683  -0.025   1.938   0.091 -1.0474  0.9961  3.3211
  562SOL     OW 1684   1.102   2.084   2.275 -0.4782 -0.1671 -0.5155
  562SOL    HW1 1685   1.023   2.154   2.297 -0.7684 -0.8952  0.6856
  562SOL    HW2 1686   1.085   1.986   2.298 -1.0709 -0.4195  0.3823
  563SOL     OW 1687   0.661   2.530   2.656 -0.2292 -0.0294  0.3217
  563SOL    HW1 1688   0.734   2.524   2.586 -0.9143  0.2562  1.0921
  563SOL    HW2 1689   0.701   2.563   2.746  1.5002  0.2793 -1.3758
  564SOL     OW 1690   2.855   1.397   2.884 -0.2196  0.2663 -0.2291
  564SOL    HW1 1691   2.787   1.456   2.931  1.0599  0.2755  1.4108
  564SOL    HW2 1692   2.924   1.452   2.825 -1.6285  0.3468 -0.2761
  565SOL     OW 1693   2.528   1.961   2.640  0.0593  0.4549  0.0227
  565SOL    HW1 1694   2.485   2.038   2.583  1.3419 -1.6600 -1.6871
  565SOL    HW2 1695   2.599   1.992   2.711 -0.2043 -1.5480 -0.8869
  566SOL     OW 1696   1.977   2.896   1.450 -0.4529 -0.0837 -0.4655
  566SOL    HW1 1697   1.972   2.804   1.497  0.5470 -3.0981 -2.6845
  566SOL    HW2 1698   2.014   2.888   1.354 -0.0025  0.0145  0.6076
  567SOL     OW 1699   2.388   0.019   2.326 -0.1768  0.1725  0.1543
  567SOL    HW1 1700   2.293   0.032   2.360 -0.4153 -1.3129  0.4524
  567SOL    HW2 1701   2.399   0.046   2.229  0.4718 -1.8056  0.9104
  568SOL     OW 1702   1.499   1.717   0.271  0.1627  0.0187 -0.5593
  568SOL    HW1 1703   1.435   1.793   0.251  1.4150 -2.1568  0.2800
  568SOL    HW2 1704   1.596   1.744   0.264 -1.3653 -0.0694 -2.7025
  569SOL     OW 1705   0.262   0.593   0.894 -0.5926 -0.1216  0.2144
  569SOL    HW1 1706   0.303   0.560   0.803  0.8307 -2.7100 -1.6447
  569SOL    HW2 1707   0.167   0.558   0.917  2.7213 -0.3626  1.4016
  570SOL     OW 1708   0.635   0.871   2.908 -0.0387 -0.5588  0.2948
  570SOL    HW1 1709   0.667   0.891   2.809  0.0709  0.5356 -1.7360
  570SOL    HW2 1710   0.619   0.957   2.959  0.8327  0.2510 -0.4941
  571SOL     OW 1711   0.760   3.068   1.073 -0.0708 -0.1136 -0.1597
  571SOL    HW1 1712   0.802   3.114   0.987  0.5394 -1.1683  0.9781
  571SOL    HW2 1713   0.785   2.967   1.075 -1.0807  1.9646 -2.4289
  572SOL     OW 1714   1.640   2.691   1.420  0.5850  0.5526  0.0559
  572SOL    HW1 1715   1.693   2.622   1.371 -0.4312 -1.1358  3.3244
  572SOL    HW2 1716   1.565   2.740   1.362 -0.1468 -1.9971  1.5168
  573SOL     OW 1717   3.063   0.489   1.941 -0.4585  0.0146 -0.3170
  573SOL    HW1 1718   3.069   0.392   1.972 -0.3294 -1.0549 -3.4869
  573SOL    HW2 1719   3.082   0.502   1.835 -1.9867  1.3790 -3.0113
  574SOL     OW 1720   0.146   1.657   1.116 -0.4686  0.6398 -0.6546
  574SOL    HW1 1721   0.213   1.646   1.194 -3.9834 -1.9657  0.8205
  574SOL    HW2 1722   0.096   1.748   1.114  1.9644  1.3560 -1.5329
  575SOL     OW 1723   0.867   2.232   0.993  0.5381  0.3468 -0.1383
  575SOL    HW1 1724   0.853   2.293   1.078  0.8096 -2.1199 -0.0048
  575SOL    HW2 1725   0.901   2.284   0.911  0.7952  1.2971  0.2517
  576SOL     OW 1726   2.948   3.000   1.726 -0.4169 -0.1857 -0.2853
  576SOL    HW1 1727   2.845   2.993   1.708  2.3071  0.1489  0.1744
  576SOL    HW2 1728   2.987   3.098   1.707  0.5144  1.8037 -0.6186
  577SOL     OW 1729   2.678   1.222  -0.003 -0.2068  0.3866 -0.7869
  577SOL    HW1 1730   2.682   1.128  -0.051  1.4006 -1.1374  0.8130
  577SOL    HW2 1731   2.681   1.225   0.100  2.1579 -1.0945 -2.3685
  578SOL     OW 1732   1.404   2.747   2.545 -0.1014 -0.2593 -0.2617
  578SOL    HW1 1733   1.310   2.746   2.498 -2.4432 -0.8993 -0.8681
  578SOL    HW2 1734   1.476   2.804   2.498 -1.3599 -0.0752 -0.3325
  579SOL     OW 1735   0.081   2.417   0.170  0.4292  0.0176 -0.2994
  579SOL    HW1 1736   0.018   2.376   0.242  1.5843  1.2503  1.5630
  579SOL    HW2 1737   0.166   2.458   0.218  0.0242  0.9984 -2.0402
  580SOL     OW 1738   0.952   2.691   0.411 -0.3933 -0.4274 -0.2729
  580SOL    HW1 1739   1.026   2.704   0.336  1.8797 -2.5052 -0.4128
  580SOL    HW2 1740   0.861   2.711   0.372  0.1151  1.2132  1.0267
  581SOL     OW 1741   1.289   2.704   1.446  0.3107  0.2972  0.5789
  581SOL    HW1 1742   1.363   2.637   1.454  0.1944  1.8673 -0.3309
  581SOL    HW2 1743   1.322   2.788   1.393  0.0621 -0.7490  1.5501
  582SOL     OW 1744   1.510   0.073   1.917  0.2927 -0.1812 -0.6898
  582SOL    HW1 1745   1.547   0.125   1.997  0.5285 -1.0214  0.5332
  582SOL    HW2 1746   1.559   0.100   1.830 -0.6045 -0.4423  3.0699
  583SOL     OW 1747   2.447   3.037   0.539  0.0480 -0.4520 -0.9603
  583SOL    HW1 1748   2.504   2.962   0.488 -0.7503 -1.5491 -1.3579
  583SOL    HW2 1749   2.356   3.003   0.580 -2.0660 -0.8686  0.2748
  584SOL     OW 1750   1.591   1.110   2.261 -0.2048  0.1971 -0.4847
  584SOL    HW1 1751   1.641   1.196   2.238 -3.5992 -1.1666  0.2554
  584SOL    HW2 1752   1.658   1.028   2.285 -2.2388 -0.0145 -1.5743
  585SOL     OW 1753   2.031   2.666   2.880 -0.6963 -0.0963  0.1507
  585SOL    HW1 1754   2.041   2.567   2.845  0.0047  0.9277  0.5007
  585SOL    HW2 1755   1.936   2.698   2.899  1.8842  1.2836  0.0168
  586SOL     OW 1756   2.951   0.380   1.607  0.1147  0.3870  0.2976
  586SOL    HW1 1757   2.929   0.454   1.667  1.6198 -2.3389 -0.5467
  586SOL    HW2 1758   2.873   0.354   1.544 -2.1799 -0.3098 -0.9646
  587SOL     OW 1759   2.152   1.456   2.743  0.3012  0.3532  0.7628
  587SOL    HW1 1760   2.148   1.402   2.653  0.1759  0.3451  1.3081
  587SOL    HW2 1761   2.242   1.505   2.753 -0.9566 -1.8515  0.7014
  588SOL     OW 1762   0.518   2.649   2.305 -0.1756 -0.0232 -0.1204
  588SOL    HW1 1763   0.499   2.672   2.207  0.9698 -0.0847  1.5747
  588SOL    HW2 1764   0.464   2.561   2.343 -4.4454 -2.8625  0.3248
  589SOL     OW 1765   2.180   1.341   2.493  0.3797  0.5517  0.1775
  589SOL    HW1 1766   2.121   1.293   2.419 -1.6016 -0.0419  1.6561
  589SOL    HW2 1767   2.278   1.314   2.490 -3.3034  0.4531 -0.9361
  590SOL     OW 1768   2.307   1.694   2.086 -0.0996 -0.1269  0.3215
  590SOL    HW1 1769   2.375   1.619   2.065 -1.2527  2.2443 -2.3009
  590SOL    HW2 1770   2.312   1.734   2.183 -1.6341  1.1477  0.8007
  591SOL     OW 1771   1.326   2.437   0.169  0.5777  0.7974  0.0090
  591SOL    HW1 1772   1.361   2.344   0.126 -0.1699 -0.8102 -0.9896
  591SOL    HW2 1773   1.319   2.434   0.269 -2.0489 -2.1680  0.3255
  592SOL     OW 1774   1.774   2.359   0.808  0.0596 -0.3112  0.1460
  592SOL    HW1 1775   1.766   2.388   0.708 -0.5636 -0.4391  0.3792
  592SOL    HW2 1776   1.846   2.418   0.858  0.7941 -0.7393 -0.0400
  593SOL     OW 1777   0.753   0.300   0.222 -0.1450  0.2959 -0.1476
  593SOL    HW1 1778   0.840   0.303   0.169 -2.2004 -0.5418 -2.7655
  593SOL    HW2 1779   0.711   0.397   0.231 -1.4840 -0.0535 -0.1023
  594SOL     OW 1780   1.085   1.799   2.665  0.1693  0.0324  0.1513
  594SOL    HW1 1781   1.179   1.833   2.629  3.4175 -3.1752 -1.2564
  594SOL    HW2 1782   1.064   1.836   2.766 -0.5893  0.2045  1.7728
  595SOL     OW 1783   1.518   0.137   0.991  0.4500  0.5574  0.2949
  595SOL    HW1 1784   1.594   0.063   0.972 -0.2687 -2.1619 -1.4263
  595SOL    HW2 1785   1.425   0.089   0.978  0.7766  0.8154 -0.6763
  596SOL     OW 1786   0.147   1.417   2.219  0.2778 -0.8558 -0.1314
  596SOL    HW1 1787   0.073   1.346   2.237  3.2482 -1.2940 -0.9617
  596SOL    HW2 1788   0.172   1.474   2.299  1.9170 -1.6127  0.1347
  597SOL     OW 1789   2.028   2.690   1.823 -0.7156  0.2992  0.3954
  597SOL    HW1 1790   1.991   2.643   1.733 -2.3004 -1.0834 -1.0272
  597SOL    HW2 1791   2.130   2.681   1.833  1.1361  1.0408  0.0431
  598SOL     OW 1792   2.485   2.851   1.297 -0.2208  0.0036 -0.2453
  598SOL    HW1 1793   2.573   2.893   1.335 -4.3987  1.7413  0.2222
  598SOL    HW2 1794   2.497   2.754   1.263  1.9460 -0.7156  3.9548
  599SOL     OW 1795   2.877   0.269   2.521 -0.1893  0.0517  0.5753
  599SOL    HW1 1796   2.954   0.266   2.455  1.4645  0.9979  0.9604
  599SOL    HW2 1797   2.818   0.348   2.493 -1.8012 -1.1151 -0.7157
  600SOL     OW 1798   2.791   1.160   2.774 -0.4416 -0.0047 -0.1625
  600SOL    HW1 1799   2.726   1.111   2.836  0.6319 -0.0589  1.4956
  600SOL    HW2 1800   2.819   1.253   2.811  0.2576 -3.4826  1.1313
  601SOL     OW 1801   2.966   1.337   1.992 -0.0985  0.4161 -0.8540
  601SOL    HW1 1802   2.894   1.374   1.931 -0.0158  0.7573 -0.0024
  601SOL    HW2 1803   3.043   1.410   2.003  1.5116  0.1796  3.4306
  602SOL     OW 1804   1.559   1.545   2.300  0.2972 -0.3046 -0.0395
  602SOL    HW1 1805   1.480   1.563   2.365 -0.9589 -0.1174 -2.0048
  602SOL    HW2 1806   1.649   1.585   2.328 -2.3604  0.6388 -0.7869
  603SOL     OW 1807   0.598   1.213   2.695 -0.1755 -0.3135 -0.2000
  603SOL    HW1 1808   0.507   1.258   2.675  0.4598 -0.7894 -1.4269
  603SOL    HW2 1809   0.611   1.120   2.653 -0.5451  0.7287  0.9136
  604SOL     OW 1810   2.532   1.078   0.219  0.6625  0.1061  0.6084
  604SOL    HW1 1811   2.628   1.118   0.230 -0.5148  0.4453 -2.5698
  604SOL    HW2 1812   2.527   1.011   0.143  2.0741 -0.8731  1.6668
  605SOL     OW 1813   2.574   1.182   1.910  0.2721  0.7428 -0.5254
  605SOL    HW1 1814   2.609   1.103   1.850 -0.4855 -0.8445  2.6980
  605SOL    HW2 1815   2.647   1.238   1.963 -0.6487 -0.4573 -0.5758
  606SOL     OW 1816   1.534   2.464   2.574  0.2914  0.0627  0.7900
  606SOL    HW1 1817   1.479   2.544   2.616 -0.5266  0.2110 -1.8974
  606SOL    HW2 1818   1.471   2.391   2.543  0.1545 -0.6509  1.4978
  607SOL     OW 1819   1.252   1.588   0.254  0.0549  0.2531  0.7498
  607SOL    HW1 1820   1.171   1.647   0.279  0.0117  0.6595 -2.1654
  607SOL    HW2 1821   1.347   1.635   0.254  1.4955 -0.6788 -0.8336
  608SOL     OW 1822   1.370   2.810   0.343 -0.0439  0.1083 -0.0673
  608SOL    HW1 1823   1.436   2.846   0.268  1.9718 -1.0192  0.3808
  608SOL    HW2 1824   1.333   2.892   0.397  0.3898 -1.5187  0.4717
  609SOL     OW 1825   1.307   1.345   0.177 -0.2254 -0.4391  0.2348
  609SOL    HW1 1826   1.283   1.438   0.218 -1.5690 -1.5308 -2.5449
  609SOL    HW2 1827   1.255   1.323   0.094 -0.3349 -1.3492 -1.9631
  610SOL     OW 1828   3.019   1.215   2.219  0.4407  0.0632 -0.6566
  610SOL    HW1 1829   2.977   1.125   2.248 -1.4089 -1.6777  2.7509
  610SOL    HW2 1830   2.969   1.256   2.139 -0.0256 -0.3206 -2.0477
  611SOL     OW 1831   2.561   0.199   1.148 -0.1143 -0.5565  0.0302
  611SOL    HW1 1832   2.504   0.118   1.183  1.9169  0.5818  1.5490
  611SOL    HW2 1833   2.641   0.216   1.211 -0.8345 -1.6987 -2.8018
  612SOL     OW 1834   0.763   2.351   1.226 -0.2073  0.2762  0.8562
  612SOL    HW1 1835   0.693   2.288   1.269 -2.1088 -0.7907  1.6562
  612SOL    HW2 1836   0.729   2.447   1.206  1.3155  1.0368 -0.8568
  613SOL     OW 1837   0.778   1.388   2.380 -0.1792 -0.1135 -0.6252
  613SOL    HW1 1838   0.825   1.443   2.308  0.0463 -1.9354 -1.0241
  613SOL    HW2 1839   0.750   1.297   2.344  1.9260 -0.2495  0.2137
  614SOL     OW 1840   1.510   1.645   1.882 -0.0445  0.0431  0.5453
  614SOL    HW1 1841   1.477   1.717   1.819 -1.3333  1.4214  1.2628
  614SOL    HW2 1842   1.602   1.658   1.913 -1.2879 -1.2028  0.2521
  615SOL     OW 1843   0.726   1.464   1.726 -0.3940  0.0930 -0.5134
  615SOL    HW1 1844   0.693   1.413   1.643  2.1287  1.6755  2.2763
  615SOL    HW2 1845   0.804   1.528   1.709  0.2443  2.7247  0.4940
  616SOL     OW 1846   1.124   1.557   2.207  0.3267  0.4747 -0.4983
  616SOL    HW1 1847   1.021   1.545   2.207  1.5530 -2.2771 -1.6037
  616SOL    HW2 1848   1.153   1.586   2.109  1.4190 -0.4114 -0.8131
  617SOL     OW 1849   3.009   1.572   1.643 -0.6690  0.1397  0.0054
  617SOL    HW1 1850   2.966   1.504   1.711  0.2987 -0.0880  0.5406
  617SOL    HW2 1851   3.041   1.523   1.557 -1.0677  1.9297  0.1165
  618SOL     OW 1852   1.899   1.984   1.474  0.2300  0.7295 -0.6332
  618SOL    HW1 1853   1.978   2.006   1.410 -0.6905 -0.4875  0.8758
  618SOL    HW2 1854   1.900   1.884   1.509 -0.6444 -0.2014  1.3965
  619SOL     OW 1855   1.773   0.533   2.355  0.2771  0.5183 -0.0871
  619SOL    HW1 1856   1.700   0.580   2.302  0.5506  1.2180  3.8097
  619SOL    HW2 1857   1.765   0.431   2.370 -1.0082 -0.1067  1.0937
  620SOL     OW 1858   2.248   2.906   0.675 -0.7911 -0.3406 -0.0765
  620SOL    HW1 1859   2.190   2.992   0.663  0.2982 -2.0862 -1.3107
  620SOL    HW2 1860   2.299   2.906   0.766 -0.7224  1.8971 -0.6764
  621SOL     OW 1861   2.172   1.904   1.347 -0.3323 -0.3539  0.0438
  621SOL    HW1 1862   2.166   1.882   1.452 -0.3113  0.2390  2.2556
  621SOL    HW2 1863   2.135   1.823   1.289 -0.9359  1.3998 -1.6647
  622SOL     OW 1864   2.226   1.010   1.852 -0.0184 -0.1201  0.0085
  622SOL    HW1 1865   2.283   0.928   1.865  0.1080  0.9437 -0.9410
  622SOL    HW2 1866   2.130   0.987   1.887  2.2814  1.1232  0.2656
  623SOL     OW 1867   1.293   0.908   2.569  0.3468  0.5359  0.1312
  623SOL    HW1 1868   1.251   0.832   2.629 -0.9642  0.2709 -3.9393
  623SOL    HW2 1869   1.247   0.920   2.476 -0.9112  1.2997  1.3582
  624SOL     OW 1870   0.537   0.696   0.023  0.4668 -0.0836 -0.7252
  624SOL    HW1 1871   0.589   0.750  -0.041 -4.5790  2.7749  0.6378
  624SOL    HW2 1872   0.521   0.762   0.098  2.5918 -3.2432  0.5063
  625SOL     OW 1873   2.781   1.741   0.800  0.0298 -0.0948 -0.0844
  625SOL    HW1 1874   2.720   1.763   0.881  0.9827  2.9864 -1.8087
  625SOL    HW2 1875   2.732   1.674   0.736  0.9953 -0.3258 -1.6184
  626SOL     OW 1876   0.422   2.771   2.038 -0.9939  0.4816  0.3260
  626SOL    HW1 1877   0.464   2.854   2.080 -0.5316 -0.4516  3.3375
  626SOL    HW2 1878   0.361   2.795   1.960 -0.9331  1.3278  0.7553
  627SOL     OW 1879   0.744   1.030   1.503 -0.1048 -0.2731 -0.6352
  627SOL    HW1 1880   0.764   0.928   1.512 -1.3994 -1.8602 -1.2651
  627SOL    HW2 1881   0.785   1.075   1.426 -4.1061  0.0042  2.4969
  628SOL     OW 1882   2.432   0.147   0.700  0.4021 -0.2697 -0.5227
  628SOL    HW1 1883   2.461   0.064   0.649 -3.4848  0.7718  1.7322
  628SOL    HW2 1884   2.331   0.155   0.706  0.2928 -0.2400 -0.8632
  629SOL     OW 1885   1.976   0.954   1.967 -0.1886  0.0870 -0.5717
  629SOL    HW1 1886   1.996   0.954   2.072  0.4735 -0.0948  0.9207
  629SOL    HW2 1887   1.942   1.045   1.936  2.1470 -0.3135 -3.9985
  630SOL     OW 1888   2.825   2.204   0.748  0.2765  0.2626  0.4118
  630SOL    HW1 1889   2.738   2.251   0.771  2.2974 -2.2529 -2.0224
  630SOL    HW2 1890   2.815   2.104   0.709  2.1832 -0.6908 -0.3983
  631SOL     OW 1891   2.974   0.219   2.134  0.7077 -0.7812  0.6792
  631SOL    HW1 1892   3.011   0.284   2.206  0.3704  2.7587  0.4116
  631SOL    HW2 1893   3.048   0.187   2.065  1.1247 -1.2098 -3.2016
  632SOL     OW 1894   2.349   2.511   0.764  0.8186  0.4350 -0.2290
  632SOL    HW1 1895   2.438   2.563   0.787  2.3100  1.2463  1.6552
  632SOL    HW2 1896   2.301   2.543   0.680 -0.5926 -4.3394  0.8721
  633SOL     OW 1897   1.597   1.276   2.680 -0.1422  0.3242  0.2878
  633SOL    HW1 1898   1.567   1.362   2.730  1.0919 -0.2608  3.1120
  633SOL    HW2 1899   1.516   1.244   2.619 -1.5253  3.2792 -0.3351
  634SOL     OW 1900   0.649   2.092   0.930 -0.0400 -0.0160 -0.9044
  634SOL    HW1 1901   0.551   2.122   0.966 -3.8666 -1.5773 -0.8258
  634SOL    HW2 1902   0.719   2.152   0.970 -0.6446 -1.1450 -1.1005
  635SOL     OW 1903   0.060   2.246   3.019  0.4036 -0.1692  0.1232
  635SOL    HW1 1904  -0.001   2.275   2.937 -0.0203  1.3125  2.0858
  635SOL    HW2 1905   0.044   2.314   3.101  0.5559 -0.2837  1.0291
  636SOL     OW 1906   2.318   2.885   2.038  0.0597  0.0130 -0.3856
  636SOL    HW1 1907   2.292   2.988   2.034 -0.2296 -1.8625 -1.5095
  636SOL    HW2 1908   2.277   2.832   2.122 -2.7578 -0.0811  1.4741
  637SOL     OW 1909   2.611   0.720   2.067  0.0620  0.2627  0.1960
  637SOL    HW1 1910   2.565   0.707   1.978 -1.2967  1.4487  1.7477
  637SOL    HW2 1911   2.661   0.808   2.082 -0.9324 -0.8834 -1.0681
  638SOL     OW 1912   2.447   1.901   1.422 -0.2020  0.3467  0.0765
  638SOL    HW1 1913   2.341   1.896   1.395  0.0531 -2.6479  0.5645
  638SOL    HW2 1914   2.483   1.805   1.428 -3.0515  2.2855 -0.5879
  639SOL     OW 1915   1.303   2.252   1.552 -0.4187 -0.6697 -0.2238
  639SOL    HW1 1916   1.283   2.201   1.464 -2.2377 -0.3563  1.2864
  639SOL    HW2 1917   1.228   2.243   1.622 -1.4566 -0.3517 -0.3083
  640SOL     OW 1918   0.221   1.245   1.503  0.3560 -0.4035  0.0150
  640SOL    HW1 1919   0.210   1.306   1.591 -2.7011 -0.1909 -1.4466
  640SOL    HW2 1920   0.303   1.179   1.508  1.6725  0.9130 -0.9341
  641SOL     OW 1921   1.916   0.252   1.423 -0.5657 -0.1670 -0.3158
  641SOL    HW1 1922   1.844   0.325   1.449 -2.4038  2.5848  1.4198
  641SOL    HW2 1923   1.913   0.170   1.478  0.2638  0.9260 -0.7958
  642SOL     OW 1924   2.007   0.105   0.316  0.5085  0.0055  0.5521
  642SOL    HW1 1925   2.108   0.083   0.337  0.6806  0.8058  0.5004
  642SOL    HW2 1926   1.950   0.072   0.394  1.2390 -1.0702  2.9263
  643SOL     OW 1927   2.809   1.883   2.133 -0.2238  0.5688  0.2778
  643SOL    HW1 1928   2.761   1.815   2.074  0.6375  0.4140  2.6296
  643SOL    HW2 1929   2.836   1.972   2.085  1.2932 -1.8806 -1.9187
  644SOL     OW 1930   2.172   2.263   1.240  0.3983  0.2897 -0.2797
  644SOL    HW1 1931   2.255   2.225   1.195 -0.6414 -1.3890  1.0394
  644SOL    HW2 1932   2.185   2.300   1.335 -1.2729 -1.6967 -1.0236
  645SOL     OW 1933   0.694   0.847   1.144  0.3997 -0.2889 -0.8553
  645SOL    HW1 1934   0.612   0.804   1.094  2.0653 -0.9012 -1.6419
  645SOL    HW2 1935   0.686   0.949   1.123  0.9462 -1.5318  0.4157
  646SOL     OW 1936   1.447   1.927   1.784 -0.1781 -0.6995  0.0583
  646SOL    HW1 1937   1.539   1.977   1.783  1.5348 -1.3219 -0.1730
  646SOL    HW2 1938   1.385   1.949   1.860 -1.2710 -1.1317 -0.5648
  647SOL     OW 1939   0.897   0.921   0.699 -0.1451 -0.2101  0.3739
  647SOL    HW1 1940   0.983   0.897   0.753  1.6017  0.0272 -0.0719
  647SOL    HW2 1941   0.801   0.890   0.731  0.6470  1.8801  0.2342
  648SOL     OW 1942   0.136   0.249   0.327 -0.6795  0.2712  0.0026
  648SOL    HW1 1943   0.069   0.169   0.309 -5.3628 -0.4577 -1.8757
  648SOL    HW2 1944   0.119   0.331   0.272  1.2879 -0.4808 -0.9938
  649SOL     OW 1945   3.089   0.021   0.960  0.0200 -0.1152  0.0229
  649SOL    HW1 1946   3.182   0.004   0.914  2.5714 -0.4010  0.0409
  649SOL    HW2 1947   3.110   0.069   1.049  1.3721 -1.8142 -0.4482
  650SOL     OW 1948   2.719   0.726   1.441 -0.1288 -0.0228  0.0157
  650SOL    HW1 1949   2.625   0.696   1.479  1.3572 -2.8722 -0.4003
  650SOL    HW2 1950   2.711   0.822   1.397  0.0645 -0.3667  0.2360
  651SOL     OW 1951   0.920   1.585   1.536 -0.0480  0.0347 -0.5634
  651SOL    HW1 1952   0.986   1.655   1.561 -0.4915  0.8920 -2.1223
  651SOL    HW2 1953   0.838   1.625   1.492  1.5728 -0.1477  1.9317
  652SOL     OW 1954   2.276   2.518   2.393 -0.6808 -0.1299  0.1537
  652SOL    HW1 1955   2.194   2.501   2.452  1.6585 -0.6314 -2.7635
  652SOL    HW2 1956   2.262   2.598   2.325  2.4595  2.4887 -1.7958
  653SOL     OW 1957   2.772   1.175   0.271  0.4105 -0.3871 -0.1179
  653SOL    HW1 1958   2.843   1.250   0.264 -0.4963  2.4884 -0.1243
  653SOL    HW2 1959   2.820   1.081   0.295  2.2057  0.8253 -0.0800
  654SOL     OW 1960   1.206   2.223   1.223 -0.1776 -0.0275 -0.1848
  654SOL    HW1 1961   1.262   2.166   1.289  0.4891 -1.9070  0.6058
  654SOL    HW2 1962   1.254   2.241   1.132 -2.0454 -1.0222 -1.7727
  655SOL     OW 1963   0.248   1.063   1.868  0.1518  0.4392  0.7747
  655SOL    HW1 1964   0.275   0.971   1.830 -0.1857 -1.0081 -1.7673
  655SOL    HW2 1965   0.337   1.125   1.884  0.4032  2.6912  1.8046
  656SOL     OW 1966   2.489   2.428   2.579 -0.2817 -0.2413  0.0002
  656SOL    HW1 1967   2.590   2.437   2.559 -1.8603  3.6025  2.1945
  656SOL    HW2 1968   2.429   2.471   2.511  0.6758 -2.2399 -0.3019
  657SOL     OW 1969   3.053   1.114   1.866  0.0323 -0.5731  0.2832
  657SOL    HW1 1970   3.016   1.186   1.933 -1.4105 -0.8671  0.4289
  657SOL    HW2 1971   3.156   1.109   1.868 -0.1938 -0.1319  0.3589
  658SOL     OW 1972   1.688   0.234   2.375  0.0988 -0.3113 -0.4619
  658SOL    HW1 1973   1.702   0.160   2.443 -0.2299  0.8705  2.6394
  658SOL    HW2 1974   1.723   0.222   2.275  0.2977  1.0304  0.5090
  659SOL     OW 1975   1.402   0.611   2.852  0.1256  0.5161 -0.2892
  659SOL    HW1 1976   1.470   0.661   2.908 -2.3934  0.2209  1.3068
  659SOL    HW2 1977   1.321   0.667   2.817 -0.9518  0.0851 -2.0071
  660SOL     OW 1978   1.409   0.417   1.386 -0.3739  0.5985 -1.1058
  660SOL    HW1 1979   1.450   0.423   1.485 -1.1664  0.9478  0.6697
  660SOL    HW2 1980   1.480   0.372   1.326  0.0497 -2.8095  2.8855
  661SOL     OW 1981   2.464   1.133   0.668  0.0412 -0.4807 -0.3304
  661SOL    HW1 1982   2.461   1.070   0.586  0.8429  0.6455 -0.2095
  661SOL    HW2 1983   2.465   1.234   0.642 -1.6071 -0.4108  1.3055
  662SOL     OW 1984   1.285   0.451   1.820 -0.1380 -0.2400 -0.0785
  662SOL    HW1 1985   1.272   0.346   1.834 -1.2511  0.8739  1.3027
  662SOL    HW2 1986   1.222   0.513   1.882 -1.0788 -0.3345  0.1866
  663SOL     OW 1987   0.854   1.559   2.179 -0.3194 -0.1085  0.8300
  663SOL    HW1 1988   0.816   1.655   2.201 -1.0191 -2.3700 -2.1039
  663SOL    HW2 1989   0.788   1.509   2.111 -2.0740  0.7778  0.8040
  664SOL     OW 1990   1.658   2.091   1.395  0.1948  0.1266 -0.2058
  664SOL    HW1 1991   1.594   2.018   1.431 -0.1626 -1.4979 -1.5431
  664SOL    HW2 1992   1.758   2.067   1.410 -1.0714 -0.0571 -0.6369
  665SOL     OW 1993   2.307   0.603   1.990  0.2450 -0.1036  0.0951
  665SOL    HW1 1994   2.309   0.508   2.025  2.4627  3.2815 -0.2153
  665SOL    HW2 1995   2.261   0.674   2.048  0.7969 -1.8302  0.8723
  666SOL     OW 1996   0.487   2.265   0.483 -0.6351  0.0432 -0.4350
  666SOL    HW1 1997   0.528   2.361   0.476 -0.5998  0.1237 -0.4972
  666SOL    HW2 1998   0.439   2.248   0.569  1.2952  0.3032 -2.1679
  667SOL     OW 1999   2.091   0.242   0.996  0.0707 -0.4972  0.4047
  667SOL    HW1 2000   2.157   0.312   1.032 -1.8941 -2.6416 -0.0403
  667SOL    HW2 2001   1.990   0.270   0.994 -0.9339  0.6293 -2.2175
  668SOL     OW 2002   1.989   0.593   1.264  0.7543  1.2255  0.1569
  668SOL    HW1 2003   2.026   0.601   1.166  0.6923  3.3603  2.0825
  668SOL    HW2 2004   2.060   0.547   1.327  1.9562  0.4379  1.3189
  669SOL     OW 2005   2.999   2.082   0.953  0.3185  0.5255  0.2563
  669SOL    HW1 2006   2.970   2.109   0.862  2.0495 -1.3365  0.0006
  669SOL    HW2 2007   2.964   2.135   1.027 -0.6908 -2.2727 -1.6524
  670SOL     OW 2008   2.774   2.326   2.012  0.0746 -0.2418  0.1353
  670SOL    HW1 2009   2.738   2.323   2.107  0.1411 -1.4366 -2.1567
  670SOL    HW2 2010   2.754   2.418   1.962 -1.0022  0.6787  0.5316
  671SOL     OW 2011   1.674   1.688   1.466 -0.7190  0.2279 -0.0496
  671SOL    HW1 2012   1.680   1.711   1.362 -1.4871 -0.0842 -0.8542
  671SOL    HW2 2013   1.593   1.735   1.518 -1.7164  2.9486  4.3193
  672SOL     OW 2014   0.397   0.666   2.433 -0.0759 -0.5269 -0.0309
  672SOL    HW1 2015   0.432   0.666   2.337 -2.5742  0.7306 -0.4712
  672SOL    HW2 2016   0.316   0.736   2.448 -1.8722 -1.3784  0.0793
  673SOL     OW 2017   0.150   1.232   1.118  0.3092  0.3895 -1.0848
  673SOL    HW1 2018   0.162   1.330   1.147 -1.9049 -1.1456 -1.8351
  673SOL    HW2 2019   0.240   1.178   1.102 -1.8184  1.8976  0.7017
  674SOL     OW 2020   1.541   2.889   0.151  0.3014  0.0868  0.0183
  674SOL    HW1 2021   1.561   2.974   0.096 -0.0821  0.7055 -0.9083
  674SOL    HW2 2022   1.597   2.809   0.122  0.0908  2.9646  0.2492
  675SOL     OW 2023   1.728   0.874   2.370 -0.6707  0.6434  0.8507
  675SOL    HW1 2024   1.832   0.859   2.354  0.6143 -0.7398 -0.6157
  675SOL    HW2 2025   1.666   0.819   2.306 -1.8840 -0.8004  0.2233
  676SOL     OW 2026   2.497   1.513   2.042  0.0843  0.4857 -0.0606
  676SOL    HW1 2027   2.488   1.482   1.946 -1.0691 -0.0504  2.6761
  676SOL    HW2 2028   2.536   1.435   2.098 -0.4069 -1.5522 -0.5518
  677SOL     OW 2029   1.871   0.560   0.930  0.4497 -0.2916 -0.7906
  677SOL    HW1 2030   1.851   0.657   0.967  1.3487  3.0439  1.0123
  677SOL    HW2 2031   1.804   0.489   0.961 -0.9365  0.8297 -0.0263
  678SOL     OW 2032   0.088   0.827   1.656 -0.0077 -0.5525  0.2147
  678SOL    HW1 2033   0.184   0.851   1.682 -0.7708 -1.4915 -1.7129
  678SOL    HW2 2034   0.018   0.837   1.733  0.9174 -0.4277 -0.7516
  679SOL     OW 2035   2.485   1.192   1.147 -0.9275  0.3413  0.0698
  679SOL    HW1 2036   2.428   1.178   1.229  1.0720  0.5664  1.2751
  679SOL    HW2 2037   2.496   1.110   1.089 -2.1780  1.4669 -0.2553
  680SOL     OW 2038   2.865   0.653   1.686  0.4137 -0.2432  0.4672
  680SOL    HW1 2039   2.849   0.683   1.586 -1.3893  0.2219 -1.0740
  680SOL    HW2 2040   2.923   0.719   1.735  2.6533 -0.5516 -0.5810
  681SOL     OW 2041   3.059   0.143   1.641  0.5142  0.2334 -0.3634
  681SOL    HW1 2042   3.129   0.124   1.563  0.8454  2.0682 -1.6647
  681SOL    HW2 2043   3.032   0.242   1.640  1.6702 -1.0251  2.0137
  682SOL     OW 2044   0.732   3.085   1.376  0.0042 -0.1440 -0.0027
  682SOL    HW1 2045   0.684   3.004   1.417  0.0953 -2.8057 -2.1627
  682SOL    HW2 2046   0.720   3.094   1.277 -0.1147 -1.0226 -0.5955
  683SOL     OW 2047   1.387   0.243   2.175  0.4766  0.1732  0.3652
  683SOL    HW1 2048   1.406   0.276   2.270  0.7394 -1.0525 -1.4587
  683SOL    HW2 2049   1.464   0.265   2.106 -0.8557 -0.9540 -1.5909
  684SOL     OW 2050   1.437   2.114   0.464  0.8481  0.4899  0.2666
  684SOL    HW1 2051   1.499   2.051   0.519  0.1886  0.2073  1.0093
  684SOL    HW2 2052   1.341   2.077   0.454  0.3717  0.5725  0.1468
  685SOL     OW 2053   2.119   1.949   1.958  0.5261  0.1507 -0.2703
  685SOL    HW1 2054   2.182   2.017   1.907  1.0656  1.3410 -1.6251
  685SOL    HW2 2055   2.172   1.868   1.995 -0.7130 -2.3211  0.0255
  686SOL     OW 2056   1.533   1.740   2.779  0.1007 -0.0961  0.0517
  686SOL    HW1 2057   1.518   1.635   2.773 -3.4719 -2.8528 -0.0118
  686SOL    HW2 2058   1.558   1.766   2.880 -0.1341  0.4437  0.0968
  687SOL     OW 2059   1.352   2.515   1.902 -0.2628 -0.0223  0.0296
  687SOL    HW1 2060   1.391   2.418   1.874 -1.6672 -0.5225  0.0725
  687SOL    HW2 2061   1.387   2.545   1.994  0.8285 -1.3495 -2.2604
  688SOL     OW 2062   2.083   1.505   1.598 -0.5420 -0.1309 -0.1793
  688SOL    HW1 2063   2.181   1.536   1.572 -0.5780  4.0393  1.6049
  688SOL    HW2 2064   2.037   1.458   1.518 -2.1952  0.3866 -1.6729
  689SOL     OW 2065   2.433   1.082   2.700  0.1898 -0.5915 -0.4401
  689SOL    HW1 2066   2.335   1.057   2.727 -1.5525 -2.0162  0.2683
  689SOL    HW2 2067   2.505   1.068   2.777 -1.0673  0.8080  0.7066
  690SOL     OW 2068   2.214   2.753   3.072  0.4316  0.2853 -0.0754
  690SOL    HW1 2069   2.135   2.710   3.021 -0.4720 -1.5168 -0.2256
  690SOL    HW2 2070   2.173   2.822   3.144 -3.2529  1.5726  0.3183
  691SOL     OW 2071   2.583   0.472   2.169  0.4871 -0.4296 -0.0665
  691SOL    HW1 2072   2.653   0.410   2.121 -1.8078 -0.4715 -3.9635
  691SOL    HW2 2073   2.588   0.570   2.135 -2.0672 -0.1187 -2.3481
  692SOL     OW 2074   2.743   1.215   0.679  0.2253  0.9455 -0.2260
  692SOL    HW1 2075   2.643   1.195   0.695 -2.7840  2.5064 -1.4599
  692SOL    HW2 2076   2.771   1.309   0.708 -1.2691  0.0903 -0.5341
  693SOL     OW 2077   2.855   2.931   0.599 -0.0813 -0.7000  0.5089
  693SOL    HW1 2078   2.860   3.020   0.648  0.3721  0.0317  0.8307
  693SOL    HW2 2079   2.805   2.937   0.509 -1.5004  0.3960 -0.9131
  694SOL     OW 2080   2.382   2.113   0.077  0.0557  0.2542  0.2430
  694SOL    HW1 2081   2.361   2.206   0.100  0.3390 -2.4805 -3.5822
  694SOL    HW2 2082   2.288   2.065   0.064 -0.8677 -0.2117  0.3016
  695SOL     OW 2083   0.549   2.906   1.478  0.2189 -0.1964 -0.5564
  695SOL    HW1 2084   0.487   2.829   1.490 -0.2919 -0.0356 -1.1135
  695SOL    HW2 2085   0.538   2.977   1.555  0.5908 -1.5841  2.8135
  696SOL     OW 2086   2.728   1.962   0.659  0.1986 -0.0874 -0.5482
  696SOL    HW1 2087   2.772   1.897   0.724 -1.3612  0.6241 -3.7841
  696SOL    HW2 2088   2.677   1.917   0.582 -1.0102  1.3836  1.1833
  697SOL     OW 2089   1.675   2.074   1.731 -0.4263 -0.2701 -0.3737
  697SOL    HW1 2090   1.763   2.040   1.779  0.6560 -0.2827 -0.5001
  697SOL    HW2 2091   1.687   2.124   1.642  2.6448 -1.0991 -1.5957
  698SOL     OW 2092   2.917   0.318   2.785 -0.2976  0.0938  0.0156
  698SOL    HW1 2093   2.918   0.266   2.688 -1.8169 -0.0491 -2.6065
  698SOL    HW2 2094   2.990   0.276   2.847  0.2779 -0.6015 -2.5199
  699SOL     OW 2095   1.528   0.119   2.930 -0.1936  0.0189  0.0251
  699SOL    HW1 2096   1.465   0.044   2.894 -0.1116 -0.7376 -2.3405
  699SOL    HW2 2097   1.594   0.161   2.858  2.4002 -0.4935  0.1717
  700SOL     OW 2098   0.988   2.363   1.407 -0.1589  0.2905  0.0229
  700SOL    HW1 2099   1.074   2.305   1.394  1.7033 -2.1694  0.6878
  700SOL    HW2 2100   0.911   2.336   1.342 -0.4593  3.1522  1.0790
  701SOL     OW 2101   1.868   2.814   0.026  0.1444  0.3001 -0.2818
  701SOL    HW1 2102   1.869   2.748   0.108  1.8240 -2.2646 -2.1212
  701SOL    HW2 2103   1.889   2.911   0.051  0.0636  0.2312  0.2362
  702SOL     OW 2104   2.084   1.389   1.859 -0.4830 -0.3674 -0.6139
  702SOL    HW1 2105   2.174   1.337   1.870  2.1198 -1.6595 -3.7571
  702SOL    HW2 2106   2.079   1.421   1.763  0.1046  0.0598  1.4033
  703SOL     OW 2107   1.999   0.850   1.468  0.4250  0.4753 -0.1119
  703SOL    HW1 2108   1.991   0.746   1.492  1.0573  0.6043 -0.2196
  703SOL    HW2 2109   2.059   0.894   1.538  0.6552 -1.1619 -0.3884
  704SOL     OW 2110   0.311   2.051   1.784 -0.8936  0.5676  0.2507
  704SOL    HW1 2111   0.364   1.985   1.844 -1.2821 -0.3798 -1.5321
  704SOL    HW2 2112   0.367   2.127   1.755  0.8086 -3.2680  2.5096
  705SOL     OW 2113   2.543   1.419   0.834  0.0700  0.0907 -0.2814
  705SOL    HW1 2114   2.439   1.413   0.841 -2.0342  1.7199  0.1296
  705SOL    HW2 2115   2.592   1.390   0.923  1.5645 -0.8052  0.8333
  706SOL     OW 2116   0.647   1.763   1.914 -0.1170  0.1173 -0.5007
  706SOL    HW1 2117   0.664   1.669   1.939  1.4328  1.1338  2.6440
  706SOL    HW2 2118   0.728   1.826   1.941  1.0913  2.0982  2.0931
  707SOL     OW 2119   2.312   1.246   1.951  0.2232  0.1517 -0.0821
  707SOL    HW1 2120   2.417   1.225   1.964  1.2431 -0.0928 -1.3365
  707SOL    HW2 2121   2.263   1.162   1.914 -0.4089 -0.0845  2.2463
  708SOL     OW 2122   3.064   0.506   3.038  0.0689  0.5623  0.3449
  708SOL    HW1 2123   3.138   0.549   2.984  0.4686  2.6908 -0.4482
  708SOL    HW2 2124   3.035   0.422   2.995 -2.9756  0.7612 -1.5868
  709SOL     OW 2125   1.768   1.862   0.277 -0.0700  0.2410 -0.6033
  709SOL    HW1 2126   1.820   1.948   0.309  1.5802 -1.2153 -2.0943
  709SOL    HW2 2127   1.739   1.863   0.182 -1.8332 -0.7995 -0.3363
  710SOL     OW 2128   1.763   1.657   2.454  0.1940  0.5655 -0.0431
  710SOL    HW1 2129   1.817   1.650   2.363  2.7811  0.6999 -3.0375
  710SOL    HW2 2130   1.806   1.603   2.536  0.1573  0.5626  1.3906
  711SOL     OW 2131   2.620   2.943   0.967 -0.8346 -0.4191 -0.0614
  711SOL    HW1 2132   2.618   3.036   0.915 -0.1846  1.0734 -0.7947
  711SOL    HW2 2133   2.717   2.916   1.001  1.1388 -4.5372  0.0018
  712SOL     OW 2134   1.480   2.278   1.779  0.5344  0.2387  0.1070
  712SOL    HW1 2135   1.558   2.211   1.789  1.4128  2.4101  3.4099
  712SOL    HW2 2136   1.423   2.269   1.691  0.1432 -0.7875 -1.0837
  713SOL     OW 2137   2.836   1.363   2.476  0.0025  0.3390 -0.1688
  713SOL    HW1 2138   2.832   1.259   2.468 -1.0317 -1.9629 -1.0418
  713SOL    HW2 2139   2.754   1.400   2.519  1.2806  2.6068 -1.1411
  714SOL     OW 2140   2.669   0.443   2.459  1.4077  0.0708 -0.1650
  714SOL    HW1 2141   2.587   0.440   2.523  1.4340  0.0024  1.1760
  714SOL    HW2 2142   2.645   0.432   2.360 -0.1470 -2.9509  0.1989
  715SOL     OW 2143   1.630   2.132   1.113  0.6716  0.3204 -0.4216
  715SOL    HW1 2144   1.564   2.209   1.101 -0.7373 -1.4402  0.0735
  715SOL    HW2 2145   1.652   2.110   1.214 -1.3049  1.2707  1.2904
  716SOL     OW 2146   1.222   0.214   1.461  0.2469  0.0038 -0.1568
  716SOL    HW1 2147   1.125   0.233   1.429 -0.3416  0.1331  1.8282
  716SOL    HW2 2148   1.285   0.294   1.445 -2.4603  0.3291  1.1183
  717SOL     OW 2149   1.051   0.612   1.597 -0.2824 -0.3160 -0.2841
  717SOL    HW1 2150   1.145   0.653   1.610 -0.9254 -1.9448 -1.8493
  717SOL    HW2 2151   1.040   0.569   1.500 -1.6824  1.7893  0.2455
  718SOL     OW 2152   0.658   1.084   0.988  0.0893 -0.0290  0.4309
  718SOL    HW1 2153   0.627   1.077   0.887 -1.0209 -1.7647  1.8218
  718SOL    HW2 2154   0.733   1.157   1.003 -2.2683  0.4523 -1.0927
  719SOL     OW 2155   0.744   1.834   2.242 -0.3633 -0.2739 -0.0253
  719SOL    HW1 2156   0.797   1.850   2.331 -0.5690 -2.6622 -4.0757
  719SOL    HW2 2157   0.663   1.891   2.234  0.2411 -0.1551 -2.3535
  720SOL     OW 2158   2.257   1.135   0.227  0.0563  0.5783 -0.5460
  720SOL    HW1 2159   2.356   1.117   0.205  0.2915  1.0596 -1.5753
  720SOL    HW2 2160   2.232   1.118   0.325  2.5718  0.0041 -0.0773
  721SOL     OW 2161   2.218   0.031   2.041  0.5244 -0.4694 -0.5205
  721SOL    HW1 2162   2.245   0.108   1.975  2.4264 -0.2258 -0.6467
  721SOL    HW2 2163   2.115   0.019   2.043 -0.2628 -2.1122 -2.7400
  722SOL     OW 2164   2.365   1.667   0.501 -0.0081 -0.4449 -0.0107
  722SOL    HW1 2165   2.355   1.639   0.398  0.3163 -2.7753 -0.5912
  722SOL    HW2 2166   2.271   1.675   0.548  0.1983  1.2895 -0.8699
  723SOL     OW 2167   2.565   2.843   1.895 -0.1934  0.1228 -0.1105
  723SOL    HW1 2168   2.623   2.855   1.981  1.5898  0.2277  2.6531
  723SOL    HW2 2169   2.466   2.855   1.920  1.4906  1.8313 -1.5658
  724SOL     OW 2170   0.361   2.422   2.405 -0.7201 -0.1336 -0.9801
  724SOL    HW1 2171   0.266   2.466   2.399 -0.6837  1.3054 -1.0206
  724SOL    HW2 2172   0.398   2.394   2.503  0.8287  0.2794  0.5153
  725SOL     OW 2173   2.267   2.765   1.452 -0.4989  0.4998  0.1391
  725SOL    HW1 2174   2.353   2.793   1.400 -0.2090 -2.2593  2.8849
  725SOL    HW2 2175   2.287   2.686   1.523  1.9147  1.2366  0.7363
  726SOL     OW 2176   2.383   2.243   0.800  0.2169 -0.6426 -0.0901
  726SOL    HW1 2177   2.352   2.343   0.803  2.1032  2.2451  2.8242
  726SOL    HW2 2178   2.371   2.197   0.708 -3.3957  0.9297  1.2076
  727SOL     OW 2179   0.231   3.075   0.157  0.2599 -0.5475  0.2114
  727SOL    HW1 2180   0.275   2.989   0.129 -1.1981 -0.0949 -0.3840
  727SOL    HW2 2181   0.276   3.161   0.122  1.6881 -1.3814 -1.1859
  728SOL     OW 2182   2.832   0.697   1.037  0.9742 -0.4177 -0.6179
  728SOL    HW1 2183   2.757   0.685   0.966  0.7974  1.2422 -0.4341
  728SOL    HW2 2184   2.832   0.616   1.105 -0.6568  0.1658  1.6149
  729SOL     OW 2185   2.909   2.465   0.757  0.5167 -0.0833 -0.2303
  729SOL    HW1 2186   2.860   2.373   0.749 -1.5268  1.0464 -1.2736
  729SOL    HW2 2187   3.016   2.449   0.761  0.4190 -1.0613 -0.1150
  730SOL     OW 2188   2.613   0.581   0.877  0.0161  0.6015  0.0536
  730SOL    HW1 2189   2.533   0.634   0.831 -2.4572  0.2037 -2.9521
  730SOL    HW2 2190   2.695   0.578   0.807  2.9757  1.1611  0.4261
  731SOL     OW 2191   0.063   2.121   2.462  0.4229 -0.4532 -0.2220
  731SOL    HW1 2192   0.110   2.148   2.548  1.5783  2.4069 -0.6471
  731SOL    HW2 2193  -0.042   2.107   2.482 -3.3142  0.2154 -2.1116
  732SOL     OW 2194   1.123   2.829   1.977 -0.6868 -0.2568 -0.1535
  732SOL    HW1 2195   1.154   2.777   2.061  0.5277  2.5950  0.8163
  732SOL    HW2 2196   1.152   2.782   1.890  0.5929  0.3629  1.1425
  733SOL     OW 2197   3.034   0.719   2.106  0.2161 -0.2964 -0.1055
  733SOL    HW1 2198   3.111   0.790   2.105 -1.0634  1.2451  0.4487
  733SOL    HW2 2199   3.040   0.645   2.035  2.2920 -1.2608  2.4376
  734SOL     OW 2200   1.405   0.360   2.702 -0.2539  0.0466 -0.0099
  734SOL    HW1 2201   1.419   0.446   2.753  2.2369 -2.9897  0.8229
  734SOL    HW2 2202   1.334   0.299   2.754 -0.4320  0.6099  2.2120
  735SOL     OW 2203   2.818   2.598   2.274 -0.0343  0.2636 -0.0856
  735SOL    HW1 2204   2.752   2.575   2.191 -1.4630  2.5708 -2.4528
  735SOL    HW2 2205   2.918   2.602   2.243 -1.5079  0.5110  0.9375
  736SOL     OW 2206   0.786   0.375   2.651 -0.3555  0.8918  0.2654
  736SOL    HW1 2207   0.746   0.472   2.668  0.6773 -0.9291  0.0505
  736SOL    HW2 2208   0.764   0.336   2.556  3.2328 -1.2450 -0.8909
  737SOL     OW 2209   2.706   0.467   2.812  0.7908  0.2390  0.3528
  737SOL    HW1 2210   2.662   0.461   2.904  1.4508  0.3102 -2.4639
  737SOL    HW2 2211   2.789   0.404   2.797 -2.5013 -0.0290 -0.7034
  738SOL     OW 2212   1.655   1.201   3.024 -0.0028 -0.6094 -0.3523
  738SOL    HW1 2213   1.756   1.189   3.030 -0.7066  1.9992  1.0976
  738SOL    HW2 2214   1.615   1.125   2.964 -2.1340 -1.6345  0.1516
  739SOL     OW 2215   1.746   0.613   0.689  0.0530 -0.5428 -0.0313
  739SOL    HW1 2216   1.786   0.582   0.780 -0.7455  0.5014  0.4707
  739SOL    HW2 2217   1.774   0.549   0.613  0.3837 -0.5284 -2.1645
  740SOL     OW 2218   1.914   1.982   2.143 -0.4093  0.5977  0.1342
  740SOL    HW1 2219   1.978   1.968   2.064 -0.4326  0.3286  0.6349
  740SOL    HW2 2220   1.840   1.907   2.145 -1.2279  0.8430 -0.2843
  741SOL     OW 2221   2.494   0.146   2.551  0.1802 -0.3774 -0.1235
  741SOL    HW1 2222   2.581   0.104   2.585  0.0329 -0.1275 -2.3102
  741SOL    HW2 2223   2.460   0.104   2.462 -1.8913 -1.8940 -1.3131
  742SOL     OW 2224   2.262   1.368   0.081 -0.1403 -0.1162 -0.5683
  742SOL    HW1 2225   2.195   1.440   0.056  4.1848 -1.5961 -1.6947
  742SOL    HW2 2226   2.225   1.272   0.092 -2.8168  2.0902 -0.8126
  743SOL     OW 2227   1.752   0.631   2.621  0.0087  0.4913  0.5489
  743SOL    HW1 2228   1.764   0.587   2.525 -0.1708 -1.1360  2.9824
  743SOL    HW2 2229   1.665   0.686   2.633 -0.0560 -1.0442 -0.6289
  744SOL     OW 2230   2.636   2.084   0.011  0.4948 -0.5431 -0.1190
  744SOL    HW1 2231   2.533   2.078   0.037  1.9047 -0.3094 -0.7693
  744SOL    HW2 2232   2.689   2.026   0.076 -0.0402  0.2167 -0.6154
  745SOL     OW 2233   2.191   2.719   2.203  0.6244 -0.1247 -0.3017
  745SOL    HW1 2234   2.104   2.667   2.166 -0.0773 -2.5179  0.8345
  745SOL    HW2 2235   2.166   2.779   2.284  1.9244 -1.9805 -0.1064
  746SOL     OW 2236   0.006   2.613   1.843  0.1711 -0.1197  0.2974
  746SOL    HW1 2237   0.102   2.637   1.817  0.7456  0.7435 -0.0033
  746SOL    HW2 2238  -0.035   2.692   1.895  0.6652  0.6551 -1.0932
  747SOL     OW 2239   0.020   1.816   1.730  0.3259  0.2443  0.0535
  747SOL    HW1 2240  -0.021   1.725   1.696  0.1017 -0.3999  0.4394
  747SOL    HW2 2241   0.084   1.860   1.664 -1.1246  0.7424 -0.9299
  748SOL     OW 2242   1.757   2.760   2.887  0.3172 -0.5150 -0.0582
  748SOL    HW1 2243   1.796   2.791   2.979 -2.8725 -0.0835  0.0326
  748SOL    HW2 2244   1.659   2.801   2.880  1.7815 -0.4660 -1.1019
  749SOL     OW 2245   1.278   0.067   0.870  0.1258 -0.4512  0.5126
  749SOL    HW1 2246   1.231  -0.024   0.868 -1.1240  1.1749  1.2999
  749SOL    HW2 2247   1.317   0.104   0.780  2.5005 -1.3318 -0.9648
  750SOL     OW 2248   2.330   0.234   1.883 -1.1036 -0.0125  0.1879
  750SOL    HW1 2249   2.374   0.292   1.807  0.9617  2.9781 -1.6581
  750SOL    HW2 2250   2.330   0.288   1.976 -2.5900 -0.2137  1.3680
  751SOL     OW 2251   0.828   2.235   2.858 -0.0437 -0.0464  0.3438
  751SOL    HW1 2252   0.877   2.221   2.945  0.6702 -0.0772 -1.9169
  751SOL    HW2 2253   0.763   2.156   2.836 -2.5669  1.5659  0.7771
  752SOL     OW 2254   1.236   0.940   1.537 -0.0063  0.0066 -0.1061
  752SOL    HW1 2255   1.293   0.979   1.456  1.5420 -0.3223 -0.7785
  752SOL    HW2 2256   1.281   0.857   1.583  0.1322  0.2979  0.1041
  753SOL     OW 2257   0.931   2.612   1.810  0.0190  0.1282 -0.0474
  753SOL    HW1 2258   1.023   2.635   1.775 -0.9769  1.6806 -0.1513
  753SOL    HW2 2259   0.857   2.677   1.776  1.8056  1.5593 -2.5453
  754SOL     OW 2260   1.155   1.277   3.054  0.1141  0.3994  0.2067
  754SOL    HW1 2261   1.215   1.222   2.981  0.1285  0.0327 -0.2032
  754SOL    HW2 2262   1.151   1.379   3.032  0.7530  0.8614  0.1335
  755SOL     OW 2263   2.014   0.539   2.206  0.5754 -0.1248 -0.2518
  755SOL    HW1 2264   2.078   0.470   2.247 -1.0967  2.8416  2.3940
  755SOL    HW2 2265   1.930   0.559   2.268  0.0849  1.1227  0.6134
  756SOL     OW 2266   2.633   0.972   2.920  0.0073  0.0646  0.0074
  756SOL    HW1 2267   2.719   0.907   2.916  0.2057  0.5028  0.6105
  756SOL    HW2 2268   2.568   0.946   2.996  0.9720  0.6972 -0.4119
  757SOL     OW 2269   0.096   0.540   1.686 -0.4778 -0.6745 -0.0119
  757SOL    HW1 2270   0.153   0.625   1.691  0.9378  0.4029  0.3946
  757SOL    HW2 2271   0.122   0.480   1.610  0.2419  1.0849  1.6364
  758SOL     OW 2272   2.436   3.097   1.516  0.5753  0.1918 -0.1550
  758SOL    HW1 2273   2.351   3.073   1.570  1.0536 -0.9590 -0.3659
  758SOL    HW2 2274   2.418   3.127   1.416 -0.3712  1.1655 -2.7282
  759SOL     OW 2275   1.661   0.031   0.063 -0.0996  0.8628 -0.3731
  759SOL    HW1 2276   1.622   0.074  -0.026  2.6393  1.0865 -1.0260
  759SOL    HW2 2277   1.767   0.021   0.057  1.1803  1.2148 -1.6050
  760SOL     OW 2278   2.735   2.002   2.818 -0.0833 -0.2014  0.0311
  760SOL    HW1 2279   2.779   1.910   2.824 -1.0370 -2.5814  0.3789
  760SOL    HW2 2280   2.810   2.069   2.786  1.5870 -0.6430 -0.0700
  761SOL     OW 2281   1.908   1.726   1.598  0.0914 -0.5207  0.0188
  761SOL    HW1 2282   1.966   1.640   1.602  1.1213  2.6390  0.0855
  761SOL    HW2 2283   1.815   1.707   1.552 -0.4996 -1.9184 -2.3550
  762SOL     OW 2284   0.537   2.417   0.972 -0.1200  0.3980  1.0251
  762SOL    HW1 2285   0.598   2.418   0.888  0.1513 -0.2512  0.4112
  762SOL    HW2 2286   0.539   2.502   1.030 -0.9302 -1.8838 -2.0769
  763SOL     OW 2287   2.016   1.572   2.945 -0.4494  0.5579 -0.4123
  763SOL    HW1 2288   2.080   1.528   2.879 -0.8287 -0.7720  0.3928
  763SOL    HW2 2289   1.970   1.511   3.015  0.8436 -0.2652  1.5906
  764SOL     OW 2290   0.667   0.537   0.870  0.1681  0.4987 -0.1741
  764SOL    HW1 2291   0.678   0.512   0.771 -0.2781  2.0757 -0.4403
  764SOL    HW2 2292   0.753   0.552   0.924 -2.7561 -0.4784  1.6231
  765SOL     OW 2293   0.652   0.202   0.803  0.2055 -0.1835  0.0922
  765SOL    HW1 2294   0.736   0.173   0.754  0.1954 -0.4679  1.5163
  765SOL    HW2 2295   0.664   0.207   0.907  0.2999 -0.8136  0.3896
  766SOL     OW 2296   2.945   2.028   3.057  0.2945 -0.3108 -0.5311
  766SOL    HW1 2297   2.850   2.066   3.051  0.7114 -1.4036 -0.9862
  766SOL    HW2 2298   3.013   2.102   3.054 -0.5866 -0.4124 -3.2724
  767SOL     OW 2299   2.849   1.575   0.501  0.4348  0.2049  0.0902
  767SOL    HW1 2300   2.763   1.540   0.543 -0.1163 -1.8651 -1.4831
  767SOL    HW2 2301   2.921   1.597   0.572 -0.7256  1.0017 -0.0670
  768SOL     OW 2302   1.058   0.280   0.286 -0.2127 -0.0217  0.3956
  768SOL    HW1 2303   0.997   0.211   0.327  2.6381  2.5081 -0.0734
  768SOL    HW2 2304   1.153   0.234   0.263 -0.8488  0.5420  0.7553
  769SOL     OW 2305   1.236   1.822   2.313  0.2423  0.0132  0.2327
  769SOL    HW1 2306   1.323   1.795   2.368  1.5112  0.3453 -0.3615
  769SOL    HW2 2307   1.164   1.756   2.304 -0.4731  1.5099 -0.0537
  770SOL     OW 2308   0.140   1.140   2.348  0.1756  0.1336 -0.2574
  770SOL    HW1 2309   0.116   1.199   2.434  1.3773  2.0193  1.8401
  770SOL    HW2 2310   0.077   1.168   2.263  0.4295 -1.0848 -1.1847
  771SOL     OW 2311   2.948   2.824   1.938  0.5619 -0.5531 -0.1428
  771SOL    HW1 2312   2.960   2.882   1.854  1.5677 -2.0999  2.4333
  771SOL    HW2 2313   2.891   2.876   2.005 -1.9502  0.1499  2.4416
  772SOL     OW 2314   2.119   0.104   2.991  0.0809  0.2714  0.1828
  772SOL    HW1 2315   2.202   0.043   2.992 -1.6097  0.8859  0.8543
  772SOL    HW2 2316   2.140   0.200   3.024  1.7331 -0.4032  0.4821
  773SOL     OW 2317   0.672   2.110   2.485  0.4615  0.3980 -0.1212
  773SOL    HW1 2318   0.642   2.178   2.416  1.5084  1.2595  1.1386
  773SOL    HW2 2319   0.633   2.118   2.581  0.7443  1.2497  1.1510
  774SOL     OW 2320   2.022   3.078   2.660  0.0856  0.6091  0.6188
  774SOL    HW1 2321   2.010   3.170   2.716 -1.8961  1.0158  0.7275
  774SOL    HW2 2322   2.075   3.002   2.701 -1.5905  0.4549  0.7860
  775SOL     OW 2323   2.489   2.876   2.372 -0.2681  0.3004  0.4293
  775SOL    HW1 2324   2.462   2.976   2.379 -1.9745 -1.7615 -1.1162
  775SOL    HW2 2325   2.584   2.859   2.417 -0.2133  1.4479 -0.1819
  776SOL     OW 2326   0.014   1.213   0.242 -0.0355 -0.4169  0.1890
  776SOL    HW1 2327  -0.025   1.223   0.150 -1.0341  3.1668  2.3013
  776SOL    HW2 2328  -0.045   1.266   0.308 -0.2528 -1.0591  0.2554
  777SOL     OW 2329   0.287   2.692   0.446  0.4724 -0.9573 -0.4613
  777SOL    HW1 2330   0.183   2.683   0.443  0.1153  0.1865  0.7335
  777SOL    HW2 2331   0.320   2.788   0.468 -0.5949 -1.7874 -1.9257
  778SOL     OW 2332   1.328   1.943   0.191 -0.3136 -0.3120 -0.0992
  778SOL    HW1 2333   1.269   1.969   0.271 -0.9141  0.3035 -0.3589
  778SOL    HW2 2334   1.342   2.025   0.131  1.0811 -1.0274  1.1909
  779SOL     OW 2335   0.183   0.815   0.534 -0.3232  0.5051  0.4012
  779SOL    HW1 2336   0.136   0.722   0.513 -0.2335  0.8272 -2.5988
  779SOL    HW2 2337   0.126   0.869   0.606 -0.6156  1.3154 -1.7183
  780SOL     OW 2338   0.009   0.310   2.367 -0.0330  0.1107 -0.7774
  780SOL    HW1 2339  -0.029   0.408   2.363 -0.0445  0.3292  0.3370
  780SOL    HW2 2340   0.095   0.306   2.308 -0.7028 -0.2822  1.2425
  781SOL     OW 2341   0.590   1.757   1.612 -0.0087  0.5248 -0.2270
  781SOL    HW1 2342   0.589   1.750   1.715 -1.2128 -2.2622  1.7957
  781SOL    HW2 2343   0.521   1.689   1.577  0.1878  4.1991 -1.3498
  782SOL     OW 2344   2.644   0.126   0.880  0.2266  0.4133  0.1248
  782SOL    HW1 2345   2.584   0.178   0.812 -0.6539  0.7853 -1.6298
  782SOL    HW2 2346   2.632   0.151   0.983 -1.3560  1.6483  1.8439
  783SOL     OW 2347   2.814   0.669   2.499 -0.3634 -0.0878  0.3137
  783SOL    HW1 2348   2.768   0.711   2.581  1.1178 -1.1496 -0.7801
  783SOL    HW2 2349   2.745   0.594   2.465 -0.8934 -2.3422 -1.2818
  784SOL     OW 2350   1.383   2.186   0.028 -0.0889  0.6718 -0.4201
  784SOL    HW1 2351   1.473   2.217   0.064  1.9857 -0.2758  0.7625
  784SOL    HW2 2352   1.369   2.215  -0.070  1.0271 -1.5396  1.2153
  785SOL     OW 2353   2.147   0.343   0.013  0.2421 -0.2034 -0.0145
  785SOL    HW1 2354   2.065   0.346   0.079  1.7534 -2.6522 -1.0960
  785SOL    HW2 2355   2.167   0.441  -0.033  1.6728 -0.9542 -0.8982
  786SOL     OW 2356   2.045   2.172   2.294 -0.1985  1.0769 -0.5212
  786SOL    HW1 2357   2.002   2.098   2.231 -2.8219 -2.4053 -2.5900
  786SOL    HW2 2358   2.140   2.147   2.326  0.6068 -2.4421 -0.6092
  787SOL     OW 2359   1.426   0.612   0.779 -0.3915  0.0601 -0.7877
  787SOL    HW1 2360   1.395   0.711   0.796  2.2890  3.4729  2.2619
  787SOL    HW2 2361   1.464   0.587   0.687  0.2802 -2.5760  2.1846
  788SOL     OW 2362   1.211   0.472   2.996 -0.1001 -0.1673 -0.6218
  788SOL    HW1 2363   1.127   0.469   2.939  0.6244  0.3578  2.5086
  788SOL    HW2 2364   1.283   0.546   2.963 -1.5888  0.3165 -1.7910
  789SOL     OW 2365   2.667   0.086   1.877  0.2744 -0.1973 -0.0128
  789SOL    HW1 2366   2.572   0.112   1.885  2.5543  0.4393  0.3308
  789SOL    HW2 2367   2.684  -0.019   1.880 -1.9969 -0.7792  1.0038
  790SOL     OW 2368   2.616   2.661   0.817 -0.1159 -0.6380  0.2237
  790SOL    HW1 2369   2.659   2.655   0.726  3.1734  0.6754  1.8292
  790SOL    HW2 2370   2.635   2.755   0.865  0.9478  1.4499 -0.3103
  791SOL     OW 2371   1.962   1.207   0.216 -0.4281 -0.1171 -0.7399
  791SOL    HW1 2372   1.875   1.172   0.263  2.2407 -1.1956 -0.8246
  791SOL    HW2 2373   2.028   1.130   0.196  0.7942 -3.1234  1.6604
  792SOL     OW 2374   0.430   1.967   2.195  0.2989  0.0747  0.4883
  792SOL    HW1 2375   0.455   2.067   2.195 -1.3349  1.6343 -0.6377
  792SOL    HW2 2376   0.344   1.951   2.250  1.0930 -1.3474 -0.5465
  793SOL     OW 2377   2.097   1.490   2.107 -0.0792  0.2251 -0.2139
  793SOL    HW1 2378   2.149   1.577   2.102  1.1792 -4.7120 -3.2385
  793SOL    HW2 2379   2.111   1.446   2.007 -0.6600  0.9661 -1.5621
  794SOL     OW 2380   0.525   1.519   2.452  0.3503  0.2573  0.2899
  794SOL    HW1 2381   0.622   1.482   2.442 -0.2675 -0.2246 -3.7683
  794SOL    HW2 2382   0.470   1.512   2.362  1.5080  0.9789 -2.1957
  795SOL     OW 2383   2.496   2.292   1.801 -0.2806  0.1085  0.2443
  795SOL    HW1 2384   2.512   2.346   1.890 -1.1602 -0.1645 -0.6186
  795SOL    HW2 2385   2.419   2.223   1.804 -0.3066 -3.2885 -1.1215
  796SOL     OW 2386   3.048   1.089   2.711  0.0740  0.1861 -0.4112
  796SOL    HW1 2387   2.949   1.112   2.723 -2.2084  1.0409  0.3427
  796SOL    HW2 2388   3.107   1.112   2.793  2.5449  0.5527 -0.9615
  797SOL     OW 2389   0.655   0.646   1.359  0.3542 -0.0645  0.3309
  797SOL    HW1 2390   0.730   0.694   1.410  1.3612 -1.4292  0.1342
  797SOL    HW2 2391   0.617   0.689   1.273 -2.3751 -1.3861  0.4139
  798SOL     OW 2392   1.184   0.517   0.907  0.1482  0.2075  0.3348
  798SOL    HW1 2393   1.209   0.531   1.005  0.2014 -1.1499 -2.9440
  798SOL    HW2 2394   1.263   0.536   0.841  2.1716 -1.3000 -0.1382
  799SOL     OW 2395   1.835   2.698   0.984  0.0674 -0.2710 -0.2876
  799SOL    HW1 2396   1.837   2.614   1.040 -1.2769  3.0871  0.0420
  799SOL    HW2 2397   1.870   2.684   0.887 -1.4483  1.0403 -1.2749
  800SOL     OW 2398   3.007   0.844   1.857  0.5032 -0.0016 -0.0071
  800SOL    HW1 2399   3.006   0.944   1.877  0.9838 -1.1995  0.4390
  800SOL    HW2 2400   2.976   0.794   1.941  0.8269  2.4410  0.2950
  801SOL     OW 2401   1.956   2.170   0.104 -0.3349 -0.0212 -0.0075
  801SOL    HW1 2402   1.888   2.158   0.029  2.2520 -0.8399 -0.5484
  801SOL    HW2 2403   2.050   2.127   0.082 -0.1895 -2.2083  2.8453
  802SOL     OW 2404   0.680   0.634   2.558 -0.2139  0.4593  0.8169
  802SOL    HW1 2405   0.737   0.624   2.474 -1.4882  1.0964  1.7499
  802SOL    HW2 2406   0.581   0.630   2.532  0.6108  1.0760  1.8920
  803SOL     OW 2407   0.929   0.078   0.895  0.0328 -0.1398 -0.2375
  803SOL    HW1 2408   0.998   0.138   0.944  0.4547  2.4358  0.5602
  803SOL    HW2 2409   0.930   0.093   0.790  2.7235  1.1106 -0.5871
  804SOL     OW 2410   0.282   0.046   2.175 -0.2080  0.8219 -0.1447
  804SOL    HW1 2411   0.228   0.133   2.196 -0.3308 -1.2950 -0.6080
  804SOL    HW2 2412   0.249   0.002   2.088 -1.1151  1.2677  2.5125
  805SOL     OW 2413   2.411   0.389   0.330 -0.0013  0.2861 -0.0914
  805SOL    HW1 2414   2.461   0.366   0.415 -2.8653  0.3580  0.0357
  805SOL    HW2 2415   2.418   0.320   0.255  1.1712 -0.8502 -1.4179
  806SOL     OW 2416   0.567   2.630   1.853  0.2051  0.3527  0.0932
  806SOL    HW1 2417   0.518   2.686   1.924  0.9647  0.2422  2.4605
  806SOL    HW2 2418   0.644   2.679   1.807 -2.8508 -0.0522  0.9273
  807SOL     OW 2419   2.511   0.953   0.470 -0.0155  0.0556  0.3245
  807SOL    HW1 2420   2.601   0.902   0.494  0.3188 -0.5244 -0.9436
  807SOL    HW2 2421   2.523   1.000   0.378 -2.0322  1.4670 -1.8105
  808SOL     OW 2422   0.667   2.022   2.907  0.4971  0.0597  0.0461
  808SOL    HW1 2423   0.633   2.073   2.993 -0.3386 -0.9529  0.2050
  808SOL    HW2 2424   0.681   1.919   2.919  0.1126 -1.0455  3.4868
  809SOL     OW 2425   2.584   1.974   1.919 -0.3021  0.1869 -0.2238
  809SOL    HW1 2426   2.678   2.014   1.920 -1.7289 -0.4960  1.7804
  809SOL    HW2 2427   2.547   1.983   1.826  0.0761  0.4676  3.2879
  810SOL     OW 2428   2.200   1.112   0.501 -0.5004 -0.2503  0.3524
  810SOL    HW1 2429   2.145   1.029   0.484  1.0060  0.1559  1.8248
  810SOL    HW2 2430   2.140   1.186   0.546  0.9559  0.0773 -1.9570
  811SOL     OW 2431   1.291   2.488   1.150 -0.1059 -0.7007 -0.0988
  811SOL    HW1 2432   1.273   2.393   1.121  2.0727  0.7228  1.4125
  811SOL    HW2 2433   1.320   2.510   1.245 -1.2327  0.7629 -1.7168
  812SOL     OW 2434   1.489   0.742   1.964  0.5373 -0.0072  0.8927
  812SOL    HW1 2435   1.405   0.707   1.918  1.2906  0.2909 -0.5970
  812SOL    HW2 2436   1.508   0.832   1.924  1.3751 -3.2222  2.1087
  813SOL     OW 2437   1.676   2.066   2.392  0.4856 -0.0233 -0.0226
  813SOL    HW1 2438   1.750   2.008   2.433 -0.8837 -3.1467 -0.1270
  813SOL    HW2 2439   1.649   2.043   2.294  0.3452 -0.6386  0.0193
  814SOL     OW 2440   2.973   1.667   2.896  0.1070 -0.0033  0.2909
  814SOL    HW1 2441   3.030   1.622   2.968  0.7536  1.8320 -0.4188
  814SOL    HW2 2442   3.018   1.753   2.859 -3.1359 -1.7033 -2.5919
  815SOL     OW 2443   2.177   2.863   2.730 -0.3155 -0.6352 -0.3806
  815SOL    HW1 2444   2.155   2.794   2.803 -2.5582  1.5370 -0.7635
  815SOL    HW2 2445   2.259   2.925   2.755  0.5304  0.6828  0.9328
  816SOL     OW 2446   1.486   0.385   1.636  0.1800  0.2913 -0.2187
  816SOL    HW1 2447   1.533   0.298   1.651 -0.9029  2.2253  0.6107
  816SOL    HW2 2448   1.420   0.398   1.716  1.7917  2.6630  1.0182
  817SOL     OW 2449   0.364   1.310   2.607 -0.0937 -0.5106 -0.0220
  817SOL    HW1 2450   0.259   1.293   2.611 -1.5773  2.3503 -2.6146
  817SOL    HW2 2451   0.384   1.405   2.564 -1.4559  1.0158 -2.0758
  818SOL     OW 2452   2.009   0.862   0.461  0.0657 -0.1526 -0.2378
  818SOL    HW1 2453   2.115   0.850   0.470  1.9089 -0.2143 -0.2413
  818SOL    HW2 2454   1.958   0.888   0.550 -2.0812  0.9203  1.1663
  819SOL     OW 2455   2.798   2.907   2.998  0.0139  0.2471 -0.5437
  819SOL    HW1 2456   2.865   2.832   2.980  1.5917  1.0357 -3.4914
  819SOL    HW2 2457   2.706   2.906   2.946 -1.4821  2.0640 -1.8474
  820SOL     OW 2458   1.250   1.034   0.531 -0.3780 -0.2379 -0.4968
  820SOL    HW1 2459   1.307   1.113   0.573 -1.6199  1.4180  2.3778
  820SOL    HW2 2460   1.208   0.971   0.608  1.4406 -1.8135  3.3756
  821SOL     OW 2461   0.055   1.237   0.697 -0.2401  0.4763  0.2414
  821SOL    HW1 2462  -0.020   1.229   0.767 -2.4797 -3.4095  1.4033
  821SOL    HW2 2463   0.122   1.314   0.710 -0.9436 -3.3884 -0.0293
  822SOL     OW 2464   2.534   1.741   2.470  0.0381  0.6573 -0.2148
  822SOL    HW1 2465   2.526   1.820   2.535 -0.1129 -1.4269  0.6300
  822SOL    HW2 2466   2.440   1.722   2.427 -1.2957  0.7375  1.2742
  823SOL     OW 2467   2.028   0.906   1.209  0.1657 -0.3329 -0.3379
  823SOL    HW1 2468   2.009   0.872   1.306 -2.9600  0.1740 -3.3623
  823SOL    HW2 2469   1.968   0.848   1.139 -0.6900 -1.0871 -0.9469
  824SOL     OW 2470   0.187   1.867   2.815  0.0963 -0.4390  0.2862
  824SOL    HW1 2471   0.222   1.849   2.911  0.3691 -1.5312  1.4379
  824SOL    HW2 2472   0.258   1.892   2.744  2.4694 -0.1828  2.6467
  825SOL     OW 2473   1.300   1.069   0.273  0.0060  0.0283  0.2694
  825SOL    HW1 2474   1.326   1.168   0.254 -1.4900  1.1792 -0.4492
  825SOL    HW2 2475   1.264   1.050   0.372 -0.3933  2.3814 -1.6988
  826SOL     OW 2476   1.946   0.608   1.582  0.0873 -0.0515  0.3433
  826SOL    HW1 2477   2.022   0.555   1.634  0.3557 -1.1260 -1.3764
  826SOL    HW2 2478   1.868   0.542   1.557 -0.8667  0.4289  1.4105
  827SOL     OW 2479   0.712   1.184   0.481 -0.2224  1.1073  0.1442
  827SOL    HW1 2480   0.805   1.138   0.452  1.4085 -1.2880  1.1935
  827SOL    HW2 2481   0.629   1.131   0.444  1.3761  0.0678  1.3742
  828SOL     OW 2482   2.651   0.181   1.548  0.4933  0.7183  0.3734
  828SOL    HW1 2483   2.571   0.114   1.542  2.7994  1.8420  0.2783
  828SOL    HW2 2484   2.671   0.212   1.642  0.4044 -0.4138  0.5482
  829SOL     OW 2485   2.931   2.378   2.965 -0.4983  0.5500 -0.5627
  829SOL    HW1 2486   2.836   2.350   2.985  0.1241 -1.6193 -0.0766
  829SOL    HW2 2487   2.936   2.480   2.947  1.0356 -0.0896 -0.1227
  830SOL     OW 2488   2.924   0.925   3.000  0.2304 -0.1757  0.0643
  830SOL    HW1 2489   2.940   1.026   3.029 -0.3778  0.3914 -1.5195
  830SOL    HW2 2490   2.925   0.854   3.075 -2.5829 -1.0824 -0.6212
  831SOL     OW 2491   0.103   0.572   0.436 -0.7426  0.2519 -0.1501
  831SOL    HW1 2492   0.099   0.508   0.518  0.2902 -0.7846 -0.8773
  831SOL    HW2 2493   0.115   0.529   0.341 -0.4782  1.1339 -0.2443
  832SOL     OW 2494   1.787   0.716   3.077 -0.1244 -0.0003  0.5590
  832SOL    HW1 2495   1.695   0.760   3.055  1.4261 -1.2832  1.3688
  832SOL    HW2 2496   1.771   0.617   3.101  0.4460 -1.9449  0.7201
  833SOL     OW 2497   2.358   2.123   0.535 -0.1170 -0.1086  0.5718
  833SOL    HW1 2498   2.259   2.096   0.536  0.3466  3.4649  1.4092
  833SOL    HW2 2499   2.422   2.042   0.525 -0.6152 -1.9049  1.0107
  834SOL     OW 2500   0.126   0.057   0.553 -0.3335 -0.2506  0.2482
  834SOL    HW1 2501   0.186  -0.024   0.562 -2.3501  2.0174 -0.4160
  834SOL    HW2 2502   0.131   0.104   0.460  0.9450  1.9465  0.7263
  835SOL     OW 2503   2.451   1.636   1.166  0.5421  0.6818  0.1228
  835SOL    HW1 2504   2.531   1.610   1.227  0.4683 -1.0967  0.9185
  835SOL    HW2 2505   2.480   1.703   1.099  0.2718 -1.9623  0.0057
  836SOL     OW 2506   1.549   0.819   2.559 -0.2196  0.3499 -0.4013
  836SOL    HW1 2507   1.467   0.862   2.521  0.1414 -0.0875 -2.3475
  836SOL    HW2 2508   1.637   0.844   2.509 -0.7948  0.4463  0.3359
  837SOL     OW 2509   1.725   0.109   0.535  0.0676 -0.1446 -0.1682
  837SOL    HW1 2510   1.695   0.162   0.621 -1.9461 -3.3743  0.7737
  837SOL    HW2 2511   1.648   0.107   0.467  1.4176 -1.5223  2.5275
  838SOL     OW 2512   1.208   1.472   2.697 -1.0051  0.1631  0.0184
  838SOL    HW1 2513   1.192   1.575   2.703  1.2538  2.1688 -1.4492
  838SOL    HW2 2514   1.131   1.417   2.656  0.2922 -0.5991 -3.2581
  839SOL     OW 2515   1.667   0.379   0.967  0.2210  0.0314 -0.0294
  839SOL    HW1 2516   1.632   0.470   1.004  5.0567 -1.1171  1.0609
  839SOL    HW2 2517   1.599   0.302   0.944 -0.0523 -1.7789 -1.7241
  840SOL     OW 2518   2.644   2.960   1.664 -0.3538 -0.2469  0.2231
  840SOL    HW1 2519   2.581   3.012   1.602 -0.0999  0.7084 -0.5885
  840SOL    HW2 2520   2.597   2.931   1.753  0.4056 -2.6769  1.1227
  841SOL     OW 2521   1.552   0.830   3.031  0.0699  0.5304  0.5048
  841SOL    HW1 2522   1.470   0.830   3.092  1.7102 -3.8727 -0.0107
  841SOL    HW2 2523   1.541   0.869   2.933  2.9761  0.5924  4.5896
  842SOL     OW 2524   0.832   1.611   1.000  0.2830 -0.0486  0.2555
  842SOL    HW1 2525   0.789   1.700   1.036  0.4942 -2.9219 -1.9035
  842SOL    HW2 2526   0.769   1.565   0.933  0.4124 -0.8246 -0.2692
  843SOL     OW 2527   0.160   0.054   1.475 -0.0405  0.3800 -0.0522
  843SOL    HW1 2528   0.245   0.098   1.509 -2.4779  1.2707  0.7085
  843SOL    HW2 2529   0.179  -0.027   1.417 -1.0580 -1.7044  1.8596
  844SOL     OW 2530   0.694   2.480   0.204  0.1194 -0.5010 -0.3411
  844SOL    HW1 2531   0.657   2.459   0.299 -0.4179 -0.6400 -0.9014
  844SOL    HW2 2532   0.633   2.453   0.126 -0.8519 -0.6249  1.1764
  845SOL     OW 2533   1.752   3.091   1.238  0.1388  0.0290  0.3990
  845SOL    HW1 2534   1.741   3.074   1.338  0.5862  2.1807 -2.2452
  845SOL    HW2 2535   1.703   3.177   1.207  0.8430  0.4863 -0.6903
  846SOL     OW 2536   1.703   3.042   0.922 -0.4113  0.4603 -0.0351
  846SOL    HW1 2537   1.684   3.011   0.824 -0.0073 -2.8166 -2.6931
  846SOL    HW2 2538   1.802   3.035   0.950  0.0259 -0.2880  0.1483
  847SOL     OW 2539   2.109   1.636   0.178  0.1738  0.3528 -0.0638
  847SOL    HW1 2540   2.067   1.579   0.254  1.5140 -1.5458 -2.5521
  847SOL    HW2 2541   2.059   1.633   0.088 -0.1156 -0.2836 -3.8327
  848SOL     OW 2542   2.496   0.814   2.629  0.2409 -0.1253  0.1935
  848SOL    HW1 2543   2.510   0.909   2.599 -2.4087 -1.9940 -0.9604
  848SOL    HW2 2544   2.415   0.763   2.587  2.2053  0.1827 -0.8378
  849SOL     OW 2545   2.368   0.826   2.292 -0.0535 -0.0949  0.4508
  849SOL    HW1 2546   2.455   0.781   2.255  2.3282  0.8803 -1.9055
  849SOL    HW2 2547   2.329   0.772   2.373  1.7303  1.8924 -0.1612
  850SOL     OW 2548   1.534   0.220   1.258 -0.5726  0.5352  0.3161
  850SOL    HW1 2549   1.509   0.196   1.158 -0.3895 -0.1373  0.2318
  850SOL    HW2 2550   1.509   0.148   1.327  1.2878  0.0944 -0.1161
  851SOL     OW 2551   0.451   1.671   0.634 -0.1776 -0.6991 -0.1253
  851SOL    HW1 2552   0.461   1.748   0.703 -0.9864 -2.9564  0.2253
  851SOL    HW2 2553   0.544   1.635   0.600 -2.3736 -1.6496 -0.4289
  852SOL     OW 2554   0.827   2.188   1.714 -0.0147  0.0885  0.1504
  852SOL    HW1 2555   0.788   2.266   1.669  3.9701 -0.9454  1.0303
  852SOL    HW2 2556   0.777   2.154   1.801 -1.2640 -1.2679  2.2464
  853SOL     OW 2557   2.629   1.488   2.589  0.3301 -0.1225 -0.2578
  853SOL    HW1 2558   2.560   1.409   2.593  3.9969 -0.1878  1.0316
  853SOL    HW2 2559   2.604   1.570   2.537  0.7631 -3.4010 -1.1486
  854SOL     OW 2560   2.448   1.415   1.776  0.8586 -0.4510 -0.7639
  854SOL    HW1 2561   2.475   1.374   1.686  1.3715 -3.3164  1.9117
  854SOL    HW2 2562   2.403   1.340   1.831 -1.6556  0.4144 -1.1594
  855SOL     OW 2563   2.023   2.271   1.013  0.3181  0.2021  0.3159
  855SOL    HW1 2564   2.059   2.363   0.978 -0.0328 -2.4590  1.4275
  855SOL    HW2 2565   2.071   2.246   1.100  0.0975 -0.7111 -0.4052
  856SOL     OW 2566   1.414   1.407   0.876  0.0604  0.2962  0.2338
  856SOL    HW1 2567   1.419   1.513   0.876  2.1032 -1.1879 -1.0298
  856SOL    HW2 2568   1.394   1.364   0.966  0.3695 -1.3618 -2.1553
  857SOL     OW 2569   2.882   2.541   1.025 -0.0901  0.0116  0.6626
  857SOL    HW1 2570   2.888   2.463   1.088 -1.6636  2.3974  2.0273
  857SOL    HW2 2571   2.872   2.510   0.927  2.6436 -0.6946 -0.2075
  858SOL     OW 2572   2.292   2.094   1.783  0.6216  0.4445  0.3962
  858SOL    HW1 2573   2.211   2.115   1.721  0.3123 -0.8169 -0.6299
  858SOL    HW2 2574   2.366   2.059   1.719  1.1694 -0.9124 -0.2875
  859SOL     OW 2575   2.405   0.384   0.961  0.5299 -0.7075  0.0550
  859SOL    HW1 2576   2.476   0.452   0.941 -0.2331 -4.4275  0.9596
  859SOL    HW2 2577   2.439   0.299   1.016 -0.2623  1.6069 -0.6664
  860SOL     OW 2578   1.951   2.838   0.511 -0.3962  0.1549  0.5029
  860SOL    HW1 2579   1.936   2.790   0.423  0.8767 -1.4137 -0.3620
  860SOL    HW2 2580   1.975   2.935   0.503  0.4703 -1.2322 -1.4741
  861SOL     OW 2581   1.011   2.537   2.804 -0.3569 -0.4729 -0.0933
  861SOL    HW1 2582   1.063   2.624   2.813 -2.8212 -0.6562 -2.1598
  861SOL    HW2 2583   0.955   2.520   2.887 -0.1062 -1.7140 -0.8418
  862SOL     OW 2584   2.981   2.609   1.560  0.2622  0.1739 -0.0826
  862SOL    HW1 2585   3.046   2.604   1.640 -0.0914 -1.1722 -0.2747
  862SOL    HW2 2586   2.889   2.650   1.587 -0.5464 -0.3890 -0.6015
  863SOL     OW 2587   1.869   2.652   0.282 -0.9884  0.5231 -0.1344
  863SOL    HW1 2588   1.938   2.586   0.249 -1.7926  2.2114  1.3501
  863SOL    HW2 2589   1.775   2.614   0.254 -2.4639 -1.5791  1.0024
  864SOL     OW 2590   1.918   1.133   2.949  0.3099 -0.0733 -0.2718
  864SOL    HW1 2591   1.911   1.095   2.853  0.7010  1.3569 -0.4416
  864SOL    HW2 2592   1.994   1.093   3.005 -2.6443  1.3907 -0.3762
  865SOL     OW 2593   2.110   1.708   0.640  0.2048  0.8244 -0.3903
  865SOL    HW1 2594   2.157   1.744   0.724 -2.4615 -0.5027 -0.2467
  865SOL    HW2 2595   2.032   1.646   0.665  3.1483  2.2778 -1.6513
  866SOL     OW 2596   2.888   2.812   1.031  0.3425 -0.4116  0.9632
  866SOL    HW1 2597   2.945   2.849   0.949  1.5445  1.0587 -1.7904
  866SOL    HW2 2598   2.901   2.709   1.048 -0.0489 -0.1392  0.3677
  867SOL     OW 2599   0.460   1.343   0.836 -0.0695  0.5152  0.1617
  867SOL    HW1 2600   0.466   1.244   0.798  1.1382 -0.2986 -3.7141
  867SOL    HW2 2601   0.373   1.385   0.803  3.4551  0.4915 -0.2280
  868SOL     OW 2602   0.847   1.925   1.988  0.0231 -0.5490 -0.3120
  868SOL    HW1 2603   0.845   1.880   2.085  2.1004  0.7267  1.0788
  868SOL    HW2 2604   0.770   1.995   1.982  1.5538 -2.0664  4.9794
  869SOL     OW 2605   2.510   2.027   1.661 -0.0675 -0.6009  0.3516
  869SOL    HW1 2606   2.550   2.126   1.647 -0.6827  2.7305 -2.1593
  869SOL    HW2 2607   2.500   1.972   1.570 -1.5961  0.1274 -1.1853
  870SOL     OW 2608   2.395   2.527   1.181  0.4415 -0.4077  0.1940
  870SOL    HW1 2609   2.336   2.442   1.169 -2.4010 -0.7705 -1.9595
  870SOL    HW2 2610   2.484   2.515   1.233 -0.9487  0.5034  0.7414
  871SOL     OW 2611   3.046   1.996   0.509  0.5072  0.0841 -0.1454
  871SOL    HW1 2612   2.951   2.036   0.512 -2.6662  0.1529  1.5935
  871SOL    HW2 2613   3.043   1.898   0.480  0.7721  0.2421  3.1679
  872SOL     OW 2614   2.170   0.468   1.685 -0.0199 -0.0617  0.7774
  872SOL    HW1 2615   2.141   0.492   1.785 -0.8819 -3.0395 -0.0910
  872SOL    HW2 2616   2.275   0.451   1.674  0.4039  1.4842  0.5187
  873SOL     OW 2617   1.725   2.071   2.867  0.2644 -0.3542 -0.1520
  873SOL    HW1 2618   1.696   2.165   2.894 -0.4156 -0.7059 -0.1778
  873SOL    HW2 2619   1.656   2.045   2.795 -1.8520  1.4555 -1.2499
  874SOL     OW 2620   0.665   2.509   0.744 -0.6443  0.0721 -0.1510
  874SOL    HW1 2621   0.646   2.596   0.804  0.0665  2.1807  1.4835
  874SOL    HW2 2622   0.761   2.483   0.771 -0.3287  3.0548 -0.3596
  875SOL     OW 2623   2.313   1.563   1.428  0.2631  0.6045 -0.2628
  875SOL    HW1 2624   2.409   1.592   1.462 -1.5819  1.0862 -1.4986
  875SOL    HW2 2625   2.275   1.621   1.350  0.8868  2.1212 -0.8351
  876SOL     OW 2626   0.158   2.208   2.698 -0.2169  0.2176  0.4036
  876SOL    HW1 2627   0.198   2.160   2.776  0.5938 -0.0065  0.6652
  876SOL    HW2 2628   0.170   2.309   2.708  0.1415  1.9101  1.2006
  877SOL     OW 2629   2.785   2.660   0.579 -0.5023  0.4196  0.0265
  877SOL    HW1 2630   2.819   2.754   0.595  0.0240  0.2270  3.4571
  877SOL    HW2 2631   2.838   2.597   0.648  1.0952 -1.3382 -1.3486
  878SOL     OW 2632   2.762   1.529   2.268  0.1860 -0.1674  0.4766
  878SOL    HW1 2633   2.739   1.619   2.315  0.3057 -2.7445  0.4789
  878SOL    HW2 2634   2.797   1.461   2.340 -4.0237 -1.4636 -1.6903
  879SOL     OW 2635   2.400   0.009   1.245 -0.2935 -0.3091  0.2826
  879SOL    HW1 2636   2.448  -0.084   1.251  2.4345  0.4197  0.1451
  879SOL    HW2 2637   2.307   0.006   1.198 -0.1978 -0.6447  0.8775
  880SOL     OW 2638   0.628   0.430   2.192 -0.5622  0.6889 -0.0368
  880SOL    HW1 2639   0.581   0.414   2.279 -1.1047 -0.7135 -0.5004
  880SOL    HW2 2640   0.627   0.353   2.131  0.0468 -0.4433  2.4783
  881SOL     OW 2641   0.901   0.073   0.409 -0.7720  0.9389  0.0673
  881SOL    HW1 2642   0.964  -0.007   0.435  1.1154  2.0171  0.4242
  881SOL    HW2 2643   0.861   0.063   0.315 -2.1221 -1.3990 -0.1753
  882SOL     OW 2644   2.747   1.728   1.642 -0.2349  0.8832 -0.0374
  882SOL    HW1 2645   2.848   1.695   1.652 -0.0560  0.0748  2.1378
  882SOL    HW2 2646   2.708   1.739   1.735 -1.3478  1.2372 -3.7666
  883SOL     OW 2647   0.914   0.622   0.964 -0.1283 -0.2684  0.0031
  883SOL    HW1 2648   0.930   0.708   1.025 -0.3689  1.0034 -3.4079
  883SOL    HW2 2649   0.997   0.577   0.919 -0.2731 -1.4208 -0.0141
  884SOL     OW 2650   1.177   1.840   1.075 -0.5899  0.1339  0.3721
  884SOL    HW1 2651   1.155   1.832   0.976 -0.0943  0.3600  0.7238
  884SOL    HW2 2652   1.119   1.907   1.125 -3.0153 -0.9937 -1.2418
  885SOL     OW 2653   2.280   1.753   2.350  0.4389  0.1525 -0.1506
  885SOL    HW1 2654   2.182   1.721   2.368 -0.7547  3.1115  1.1309
  885SOL    HW2 2655   2.285   1.863   2.344  0.8666  2.5480  1.4263
  886SOL     OW 2656   2.673   0.463   1.803  0.2331 -0.1502  0.1918
  886SOL    HW1 2657   2.699   0.413   1.892  0.1595 -3.0129  2.5271
  886SOL    HW2 2658   2.743   0.530   1.776 -0.3066  0.1199  0.7296
  887SOL     OW 2659   0.190   2.013   1.321  0.0287  0.0781 -0.4355
  887SOL    HW1 2660   0.133   1.948   1.267 -0.4361 -0.6613 -0.4763
  887SOL    HW2 2661   0.180   2.109   1.292  0.7976 -1.3738  1.0362
  888SOL     OW 2662   0.592   1.320   1.483  0.4145 -0.6092  0.1418
  888SOL    HW1 2663   0.634   1.304   1.389 -0.4668 -1.3028 -0.4861
  888SOL    HW2 2664   0.535   1.239   1.508 -4.7044 -0.7007  0.0606
  889SOL     OW 2665   0.861   2.485   2.124 -0.5645 -0.3195 -0.1504
  889SOL    HW1 2666   0.794   2.433   2.071  1.1343 -1.1873 -3.2938
  889SOL    HW2 2667   0.952   2.482   2.073  0.1964  0.9200 -1.6536
  890SOL     OW 2668   2.308   2.386   0.111 -0.6632  0.3272  0.1468
  890SOL    HW1 2669   2.353   2.467   0.065  0.8095 -0.0946 -3.3163
  890SOL    HW2 2670   2.216   2.406   0.150  1.2848  0.3924  1.4202
  891SOL     OW 2671   2.612   1.552   0.631  0.2625  0.6288  0.4588
  891SOL    HW1 2672   2.574   1.504   0.719 -1.8034 -0.1144  1.0251
  891SOL    HW2 2673   2.536   1.567   0.560 -1.1634  2.2622  1.4101
  892SOL     OW 2674   0.232   0.313   2.234  0.2166 -0.4603  0.2843
  892SOL    HW1 2675   0.246   0.328   2.132  3.6529  1.8516  0.4180
  892SOL    HW2 2676   0.317   0.345   2.289  1.0915  1.6190 -2.4070
  893SOL     OW 2677   1.638   0.231   2.714 -0.3373 -0.0653  0.1444
  893SOL    HW1 2678   1.711   0.293   2.752 -0.6691 -2.8477  1.2466
  893SOL    HW2 2679   1.548   0.281   2.700 -1.2051 -2.0437 -0.2636
  894SOL     OW 2680   2.142   1.959   0.064  0.3184  0.1812  0.3408
  894SOL    HW1 2681   2.116   1.891  -0.011  1.3858 -1.9986  3.3670
  894SOL    HW2 2682   2.193   1.915   0.146 -1.7681  1.6041  0.6239
  895SOL     OW 2683   2.889   1.431   0.820 -0.2198 -0.2340  0.2810
  895SOL    HW1 2684   2.939   1.367   0.886  1.2688  0.2665 -2.3785
  895SOL    HW2 2685   2.932   1.525   0.811 -1.7765  0.3628 -2.0046
  896SOL     OW 2686   1.761   1.774   1.205  0.4270  0.1281 -0.3742
  896SOL    HW1 2687   1.834   1.828   1.151 -0.4210  1.5175 -0.7176
  896SOL    HW2 2688   1.667   1.804   1.183  1.3517 -3.1881  0.2841
  897SOL     OW 2689   0.309   0.501   3.074 -0.2596  0.0513  0.0555
  897SOL    HW1 2690   0.276   0.524   2.978  0.3695 -0.6940 -0.6869
  897SOL    HW2 2691   0.390   0.562   3.099 -0.7925  1.7941  2.2805
  898SOL     OW 2692   0.549   2.854   1.125  0.4866 -0.0212 -0.2719
  898SOL    HW1 2693   0.478   2.931   1.144 -0.8737 -0.0324  0.3475
  898SOL    HW2 2694   0.647   2.871   1.160  1.8164 -0.3515 -3.7418
  899SOL     OW 2695   2.703   0.932   1.239  0.3066  0.2401  0.1068
  899SOL    HW1 2696   2.623   0.930   1.171 -1.2226  3.5800  0.1908
  899SOL    HW2 2697   2.787   0.951   1.184 -1.3148 -1.9476 -0.1303
  900SOL     OW 2698   0.980   2.338   2.330  0.5237 -0.4622  0.0689
  900SOL    HW1 2699   0.928   2.395   2.260 -0.9712 -0.0775 -0.2967
  900SOL    HW2 2700   0.958   2.363   2.427 -3.9867 -1.3076  2.1550
  901SOL     OW 2701   1.902   2.442   1.392  0.5479  0.6497  0.0691
  901SOL    HW1 2702   1.900   2.463   1.291  1.7527  0.9754 -1.9018
  901SOL    HW2 2703   2.001   2.412   1.419  1.7875 -0.5911 -0.9698
  902SOL     OW 2704   2.564   1.650   1.455  0.3428  0.5980  0.2031
  902SOL    HW1 2705   2.621   1.685   1.536  1.8304  1.3634 -2.8126
  902SOL    HW2 2706   2.621   1.611   1.375  2.1424 -0.6061 -0.8292
  903SOL     OW 2707   0.269   2.346   1.969  0.0621  0.4887  0.6189
  903SOL    HW1 2708   0.194   2.343   2.035  1.1058 -1.2292 -1.3214
  903SOL    HW2 2709   0.260   2.427   1.902 -1.3228  2.4867 -0.8055
  904SOL     OW 2710   1.972   0.791   2.586  0.4694 -0.0812 -0.4770
  904SOL    HW1 2711   1.903   0.716   2.616 -0.3020  0.7108  2.1620
  904SOL    HW2 2712   1.977   0.797   2.481  0.9451 -0.1102  3.3133
  905SOL     OW 2713   2.750   0.045   2.629  0.2479  0.5853 -0.8358
  905SOL    HW1 2714   2.825  -0.029   2.614  1.8195 -0.3116  0.5359
  905SOL    HW2 2715   2.787   0.138   2.610  0.1880 -1.9504  1.8286
  906SOL     OW 2716   0.105   1.769   1.972  0.0277  0.7118  0.4044
  906SOL    HW1 2717   0.062   1.799   1.885  1.5013  0.1465 -1.6747
  906SOL    HW2 2718   0.207   1.793   1.971  2.2474  1.5396 -0.1677
  907SOL     OW 2719   0.190   2.453   1.045  0.1864 -0.4190 -0.2178
  907SOL    HW1 2720   0.263   2.525   1.036 -2.3972  1.8131 -1.9931
  907SOL    HW2 2721   0.142   2.434   0.957  0.1971 -1.3926  2.9580
  908SOL     OW 2722   2.627   2.859   0.411 -0.0565 -0.0611 -0.3328
  908SOL    HW1 2723   2.622   2.854   0.308  0.4403 -1.9755  1.3466
  908SOL    HW2 2724   2.615   2.767   0.456  0.6839 -0.4274 -3.7112
  909SOL     OW 2725   0.704   0.905   2.604 -0.5540 -0.2692 -0.3800
  909SOL    HW1 2726   0.696   0.801   2.601  0.7322  0.2659  1.9331
  909SOL    HW2 2727   0.780   0.932   2.540 -1.2369  4.1060  0.2620
  910SOL     OW 2728   1.750   1.769   2.021 -0.7238  0.4564 -0.3273
  910SOL    HW1 2729   1.808   1.819   1.952  0.8144 -1.7366 -0.3079
  910SOL    HW2 2730   1.670   1.829   2.051 -0.6956  1.5630  0.0854
  911SOL     OW 2731   1.746   3.023   1.577 -0.5559  0.0742  0.2093
  911SOL    HW1 2732   1.815   2.974   1.523 -0.8372  0.0589  2.7461
  911SOL    HW2 2733   1.736   2.969   1.665 -0.2087  0.1959 -0.5579
  912SOL     OW 2734   2.807   0.967   0.777  0.3193 -0.7089 -0.5020
  912SOL    HW1 2735   2.813   0.959   0.882 -0.5679 -1.4169  0.0820
  912SOL    HW2 2736   2.759   1.052   0.744  0.0727 -0.6968 -0.6359
  913SOL     OW 2737   2.542   1.285   1.556 -0.1635  0.3941  0.6156
  913SOL    HW1 2738   2.581   1.210   1.612 -0.6941  1.3950 -0.8071
  913SOL    HW2 2739   2.584   1.293   1.459  0.2117  2.3401 -0.8563
  914SOL     OW 2740   2.805   0.533   1.263  0.3879 -0.3504  0.3465
  914SOL    HW1 2741   2.788   0.441   1.293 -0.6447  1.2003  1.5358
  914SOL    HW2 2742   2.796   0.609   1.330  2.5012 -0.4927 -0.1730
  915SOL     OW 2743   1.199   0.858   1.028 -0.5924 -0.1897  0.6030
  915SOL    HW1 2744   1.260   0.941   1.053  1.0887 -0.6067  1.0214
  915SOL    HW2 2745   1.113   0.855   1.081 -0.1988  1.0598 -1.0539
  916SOL     OW 2746   0.545   0.058   0.602 -0.3246  0.4472 -0.1216
  916SOL    HW1 2747   0.553   0.124   0.680 -1.2048  0.6995 -2.3522
  916SOL    HW2 2748   0.545   0.107   0.511  1.6225  0.5824  0.7632
  917SOL     OW 2749   2.773   2.598   1.903 -0.3442  0.2312 -0.5657
  917SOL    HW1 2750   2.683   2.648   1.905 -0.1730 -2.2072  1.6504
  917SOL    HW2 2751   2.851   2.663   1.883  2.8566  2.6387  0.3253
  918SOL     OW 2752   0.986   2.208  -0.002  0.1624 -0.3356  0.5492
  918SOL    HW1 2753   0.949   2.242   0.089 -1.0324  0.2525 -1.2020
  918SOL    HW2 2754   1.065   2.146   0.017  0.5118  1.3664  1.2652
  919SOL     OW 2755   0.913   1.622   2.806 -0.2451 -0.9323 -0.9066
  919SOL    HW1 2756   0.965   1.669   2.726  1.3710  1.9520  0.0345
  919SOL    HW2 2757   0.872   1.530   2.776 -2.3651 -1.2516  0.0118
  920SOL     OW 2758   1.241   2.053   2.510 -0.5810  0.0909 -0.2209
  920SOL    HW1 2759   1.191   2.066   2.424 -0.6746  2.4216  0.9970
  920SOL    HW2 2760   1.281   1.959   2.520 -0.2124  3.0738  0.1805
  921SOL     OW 2761   1.040   0.142   2.590  0.1659 -0.0260 -0.2164
  921SOL    HW1 2762   1.070   0.116   2.492 -1.7171  1.5491  1.0227
  921SOL    HW2 2763   0.943   0.160   2.595  0.5135 -3.6118  1.0793
  922SOL     OW 2764   2.091   2.409   2.770 -0.4969  0.0437  0.1069
  922SOL    HW1 2765   2.081   2.307   2.773  1.8930  0.3608  0.6729
  922SOL    HW2 2766   2.080   2.453   2.680  2.5472  1.9959  2.0501
  923SOL     OW 2767   1.147   2.691   0.222  0.1591 -0.4012 -0.5875
  923SOL    HW1 2768   1.222   2.710   0.285 -2.8419 -2.2525  0.1521
  923SOL    HW2 2769   1.171   2.617   0.154  1.2240 -0.5231 -2.5044
  924SOL     OW 2770   2.862   1.565   0.100 -0.2089 -0.0848 -0.2083
  924SOL    HW1 2771   2.813   1.546   0.011  0.1976  1.3271 -0.9220
  924SOL    HW2 2772   2.936   1.637   0.096 -0.5034  2.0721  0.6637
  925SOL     OW 2773   0.081   2.860   1.640  0.6281  0.0903 -0.5017
  925SOL    HW1 2774  -0.008   2.901   1.678  1.9197  1.2041 -1.1829
  925SOL    HW2 2775   0.099   2.898   1.543 -0.9297  1.2785 -1.3811
  926SOL     OW 2776   1.447   2.876   1.310  0.3664  0.5879 -0.4069
  926SOL    HW1 2777   1.458   2.890   1.208 -0.9214 -0.9943  1.2712
  926SOL    HW2 2778   1.437   2.968   1.358 -0.4542  0.0952  1.9365
  927SOL     OW 2779   0.262   2.535   1.780 -0.8523  0.1532 -0.2599
  927SOL    HW1 2780   0.213   2.504   1.694 -0.2244  1.0100 -1.5126
  927SOL    HW2 2781   0.339   2.603   1.767 -1.4713 -0.9954 -0.6407
  928SOL     OW 2782   1.605   1.998   2.101 -0.1403  0.6547 -0.2770
  928SOL    HW1 2783   1.627   2.097   2.080  2.1650  0.5637 -0.6210
  928SOL    HW2 2784   1.501   1.984   2.094  0.1944 -1.0931 -0.9434
  929SOL     OW 2785   2.367   2.464   2.826 -0.3659 -0.4905 -0.3085
  929SOL    HW1 2786   2.267   2.432   2.818 -3.8272 -1.5598 -0.2618
  929SOL    HW2 2787   2.419   2.450   2.740  0.4780  0.6985 -0.0250
  930SOL     OW 2788   2.201   2.007   1.086 -0.1754 -0.1927  0.0277
  930SOL    HW1 2789   2.194   1.977   1.187  0.1264 -0.7135 -2.4306
  930SOL    HW2 2790   2.290   2.059   1.067 -1.8086  0.2380 -0.8564
  931SOL     OW 2791   0.579   1.735   2.635  0.1614  0.2649  0.5065
  931SOL    HW1 2792   0.645   1.707   2.707 -2.1526 -1.0422 -1.9673
  931SOL    HW2 2793   0.561   1.673   2.553  2.2702  1.8491  2.0766
  932SOL     OW 2794   0.495   0.114   2.912  0.4180 -0.0283 -0.3761
  932SOL    HW1 2795   0.592   0.152   2.900 -0.6078 -0.7075  1.1398
  932SOL    HW2 2796   0.489   0.013   2.929  2.1983  0.5046 -1.1902
  933SOL     OW 2797   1.068   0.781   3.019  0.1008 -0.6455 -0.0491
  933SOL    HW1 2798   1.143   0.815   3.082  1.2929  0.6423  1.0250
  933SOL    HW2 2799   1.031   0.860   2.963  1.4208  1.6064 -1.4088
  934SOL     OW 2800   0.802   2.944   2.753  0.4896 -0.7978  0.0772
  934SOL    HW1 2801   0.846   2.863   2.705  1.6682  2.3723  1.4908
  934SOL    HW2 2802   0.830   2.938   2.856 -0.8459 -0.4016  2.4710
  935SOL     OW 2803   3.083   0.528   0.893  0.2538  0.7770  0.2552
  935SOL    HW1 2804   3.085   0.485   0.800 -1.0246  1.2591  3.7919
  935SOL    HW2 2805   2.997   0.589   0.905  0.1526 -1.7218 -0.1421
  936SOL     OW 2806   1.102   2.953   0.127 -0.2399  0.6581 -0.1297
  936SOL    HW1 2807   1.177   3.005   0.076  0.7943  2.8692 -1.7284
  936SOL    HW2 2808   1.118   2.850   0.143  1.0642  1.5399 -0.4280
  937SOL     OW 2809   1.942   2.621   2.079 -0.0710  0.5261  0.0235
  937SOL    HW1 2810   1.879   2.689   2.124  1.7656 -0.6023  0.1785
  937SOL    HW2 2811   1.968   2.644   1.983  0.3015  1.5779  0.3080
  938SOL     OW 2812   2.783   2.178   1.498 -0.0883  0.0341  0.6108
  938SOL    HW1 2813   2.736   2.259   1.545 -0.7034  0.6652 -1.9707
  938SOL    HW2 2814   2.820   2.108   1.569  0.1665  0.0911  2.8995
  939SOL     OW 2815   2.738   1.072   2.514 -0.3593 -0.9279  0.1414
  939SOL    HW1 2816   2.807   0.996   2.517 -0.3216  0.8969  0.5808
  939SOL    HW2 2817   2.723   1.112   2.609 -0.9097  2.2130  0.8884
  940SOL     OW 2818   1.067   0.457   2.620 -0.0439 -0.2000  0.0757
  940SOL    HW1 2819   1.140   0.405   2.662 -1.4225  0.2347  0.4606
  940SOL    HW2 2820   0.980   0.409   2.611 -2.2370 -0.3249  0.2918
  941SOL     OW 2821   0.067   2.845   2.212  0.3092  0.4197  0.1053
  941SOL    HW1 2822   0.044   2.745   2.183  0.0872 -1.0369 -1.0675
  941SOL    HW2 2823   0.143   2.848   2.281  2.8500 -0.1771  0.0659
  942SOL     OW 2824   0.061   0.076   2.561  0.1307 -0.4286  0.2712
  942SOL    HW1 2825   0.129   0.065   2.639 -2.1575 -1.9799 -1.1132
  942SOL    HW2 2826   0.056   0.177   2.531  0.6030 -0.1681 -1.4322
  943SOL     OW 2827   2.057   1.595   2.430  0.0332  0.0398  0.0910
  943SOL    HW1 2828   2.062   1.515   2.371  0.6560 -0.6952  2.9923
  943SOL    HW2 2829   2.074   1.571   2.528 -0.8128 -0.3455 -1.9424
  944SOL     OW 2830   2.156   2.387   1.474  0.1870 -0.8268  0.2756
  944SOL    HW1 2831   2.205   2.469   1.515 -0.8282 -0.3754 -0.1404
  944SOL    HW2 2832   2.138   2.315   1.536 -0.7249  1.3126  0.0654
  945SOL     OW 2833   0.616   1.444   0.390  0.1061 -0.3453  0.1434
  945SOL    HW1 2834   0.651   1.490   0.304  0.2654 -1.8145  0.5221
  945SOL    HW2 2835   0.650   1.347   0.407 -0.3438 -0.1949  2.9248
  946SOL     OW 2836   0.360   1.011   2.578 -0.4048 -0.0254  0.5468
  946SOL    HW1 2837   0.291   0.979   2.504 -1.0475  0.7134  0.5088
  946SOL    HW2 2838   0.373   1.113   2.579 -1.0696  1.3695 -1.4979
  947SOL     OW 2839   1.470   0.450   0.113  0.0291  0.2509  0.5301
  947SOL    HW1 2840   1.402   0.483   0.178  0.5167 -2.4076 -0.3534
  947SOL    HW2 2841   1.435   0.365   0.059  1.0602 -0.1582 -1.1869
  948SOL     OW 2842   1.951   0.006   2.186  0.2980  0.0767  0.0481
  948SOL    HW1 2843   1.933  -0.005   2.081 -0.6076  1.5924  2.8833
  948SOL    HW2 2844   1.945  -0.081   2.242  0.4349 -1.6643 -1.1699
  949SOL     OW 2845   0.611   2.506   0.472 -0.6124  0.0763 -0.2256
  949SOL    HW1 2846   0.640   2.599   0.440  0.5149 -1.1682  1.3996
  949SOL    HW2 2847   0.641   2.499   0.571  0.0958 -2.2662 -0.2399
  950SOL     OW 2848   0.311   2.114   3.018  0.1269  0.1592 -0.2500
  950SOL    HW1 2849   0.218   2.160   2.997 -0.6403 -0.9345  0.6283
  950SOL    HW2 2850   0.298   2.021   3.062 -0.3938  0.2145 -0.2643
  951SOL     OW 2851   1.168   2.772   2.766 -0.3157  0.4628  0.0198
  951SOL    HW1 2852   1.190   2.804   2.674  1.2746 -0.1199 -0.6987
  951SOL    HW2 2853   1.246   2.755   2.828 -1.7515 -1.2107 -1.0422
  952SOL     OW 2854   0.074   1.657   0.484 -0.1563  0.1456  0.0413
  952SOL    HW1 2855   0.172   1.702   0.471  2.9397  2.4291 -2.1256
  952SOL    HW2 2856   0.046   1.674   0.583  0.1487  1.9903  0.4958
  953SOL     OW 2857   2.570   1.732   0.171 -0.3322 -0.0620  0.0251
  953SOL    HW1 2858   2.540   1.635   0.195 -2.4470 -1.1185 -1.8609
  953SOL    HW2 2859   2.575   1.741   0.067 -2.7286 -0.1194  1.4788
  954SOL     OW 2860   2.182   0.553   1.024  0.2951  0.3105  0.5260
  954SOL    HW1 2861   2.108   0.539   0.956 -1.8724  1.2229 -0.2726
  954SOL    HW2 2862   2.270   0.500   1.000 -2.9998 -1.5029 -0.1405
  955SOL     OW 2863   0.282   2.662   1.305 -0.3991 -0.1788  0.1343
  955SOL    HW1 2864   0.185   2.632   1.315 -1.5887 -1.7699 -1.2044
  955SOL    HW2 2865   0.310   2.647   1.207  1.8959 -0.8388  1.4671
  956SOL     OW 2866   2.800   2.468   2.524  0.2241 -0.0720  0.6489
  956SOL    HW1 2867   2.783   2.364   2.516  1.8607  1.5047 -1.0698
  956SOL    HW2 2868   2.800   2.514   2.428 -0.6146  1.7580 -1.8600
  957SOL     OW 2869   1.551   2.076   2.655  0.3487  0.3787  0.7103
  957SOL    HW1 2870   1.479   2.011   2.611 -1.2677 -0.0739 -0.2205
  957SOL    HW2 2871   1.611   2.117   2.584 -0.3612 -1.2917 -3.0983
  958SOL     OW 2872   2.667   2.334   3.011 -0.3605 -0.5143  0.1514
  958SOL    HW1 2873   2.587   2.387   2.971 -0.2864  2.6987  0.8283
  958SOL    HW2 2874   2.654   2.234   3.031  2.1743  1.8001 -1.9481
  959SOL     OW 2875   0.251   2.819   0.002  0.4036  0.3040  0.2039
  959SOL    HW1 2876   0.151   2.828   0.026 -0.4968 -0.0366 -0.1753
  959SOL    HW2 2877   0.297   2.732   0.039  1.0790 -0.4427  0.2550
  960SOL     OW 2878   2.020   0.514   1.937 -0.0230  0.0963  0.1834
  960SOL    HW1 2879   1.981   0.600   1.898  0.1802 -2.8847 -2.9043
  960SOL    HW2 2880   2.029   0.519   2.044 -0.7539  0.4677 -0.5187
  961SOL     OW 2881   2.606   1.860   1.043  0.5485  0.3135 -0.2475
  961SOL    HW1 2882   2.562   1.926   0.970 -0.6524  2.4735  0.9182
  961SOL    HW2 2883   2.619   1.899   1.141 -1.8837 -2.2174  1.7877
  962SOL     OW 2884   1.247   0.950   0.035 -0.0229 -0.5446  0.5817
  962SOL    HW1 2885   1.246   1.018  -0.044  0.1213  1.6547 -0.0153
  962SOL    HW2 2886   1.245   1.009   0.120 -0.4972 -0.6677 -1.1840
  963SOL     OW 2887   2.306   2.644   1.883  0.2804  0.3255 -0.0345
  963SOL    HW1 2888   2.303   2.565   1.954  0.2443 -0.4346  1.5345
  963SOL    HW2 2889   2.310   2.736   1.936  3.7701  0.4644 -0.2454
  964SOL     OW 2890   2.437   0.385   1.680  0.6326  0.2414 -0.3871
  964SOL    HW1 2891   2.530   0.392   1.728 -0.6483  2.1045  2.7652
  964SOL    HW2 2892   2.445   0.393   1.578 -0.2957 -1.3214  1.6067
  965SOL     OW 2893   2.643   3.010   0.114  0.3861  0.0362 -0.1523
  965SOL    HW1 2894   2.678   2.930   0.064 -5.3426  4.7620  0.0765
  965SOL    HW2 2895   2.567   3.056   0.065  0.4472 -1.0362 -0.8702
  966SOL     OW 2896   2.557   2.589   2.159 -0.2741  0.0926 -0.4572
  966SOL    HW1 2897   2.471   2.543   2.122 -0.4391 -1.5784  1.2837
  966SOL    HW2 2898   2.540   2.650   2.241  0.5806  0.8217 -0.2354
  967SOL     OW 2899   2.763   2.840   2.447  0.5780  0.1749  0.2415
  967SOL    HW1 2900   2.775   2.767   2.377  0.4529  1.1547  3.2948
  967SOL    HW2 2901   2.851   2.888   2.471  2.1548  0.2745 -0.7834
  968SOL     OW 2902   2.036   1.026   2.693 -0.6501  0.1011  0.1077
  968SOL    HW1 2903   2.003   1.098   2.635  2.2664 -0.8533  3.5728
  968SOL    HW2 2904   2.014   0.931   2.660  0.3347  0.4262  1.2778
  969SOL     OW 2905   2.742   2.337   1.148  0.0515 -0.2505  0.3272
  969SOL    HW1 2906   2.705   2.334   1.052  0.0995  1.9720  0.1002
  969SOL    HW2 2907   2.809   2.260   1.168 -1.3198 -0.8364 -0.2061
  970SOL     OW 2908   1.122   2.228   1.750 -0.1216  0.0953  0.4390
  970SOL    HW1 2909   1.022   2.207   1.742  2.1157  0.9618 -0.9467
  970SOL    HW2 2910   1.156   2.266   1.838 -0.1595  0.5592 -0.9970
  971SOL     OW 2911   2.839   2.069   1.941  0.5795 -0.1775 -0.3347
  971SOL    HW1 2912   2.810   2.166   1.965  1.9882 -2.5837 -0.3627
  971SOL    HW2 2913   2.913   2.062   1.871 -2.0717  0.1737  0.1210
  972SOL     OW 2914   2.041   2.402   0.248  0.6950  0.2692 -0.0470
  972SOL    HW1 2915   2.017   2.318   0.185 -0.2149 -1.1974 -0.6497
  972SOL    HW2 2916   2.017   2.384   0.348  1.8185  1.4974 -0.9896
  973SOL     OW 2917   1.258   1.073   1.961  0.4088  0.0199 -0.3526
  973SOL    HW1 2918   1.172   1.069   1.905 -1.3120 -1.6761  0.1398
  973SOL    HW2 2919   1.283   1.166   1.981  1.2237 -1.9931  0.4518
  974SOL     OW 2920   1.663   0.541   1.895 -0.5595  0.0408  0.2813
  974SOL    HW1 2921   1.753   0.580   1.853 -0.5157 -0.5593  0.9170
  974SOL    HW2 2922   1.599   0.617   1.922  2.7699 -0.0503 -3.2267
  975SOL     OW 2923   2.363   3.050   3.068  0.8171  0.1485 -0.2643
  975SOL    HW1 2924   2.300   2.980   3.118 -0.3287  0.4526  1.7761
  975SOL    HW2 2925   2.374   3.024   2.967 -1.8396 -1.2345 -4.1911
  976SOL     OW 2926   1.910   2.879   2.328  0.0393  0.4372 -0.2548
  976SOL    HW1 2927   1.851   2.806   2.286 -0.2504 -3.1291 -2.7221
  976SOL    HW2 2928   1.928   2.864   2.429 -0.4793  0.2883 -2.3419
  977SOL     OW 2929   0.497   0.685   1.021 -0.2529 -0.2668 -0.3305
  977SOL    HW1 2930   0.399   0.661   1.001  1.6347  0.0770  0.4592
  977SOL    HW2 2931   0.560   0.621   0.960  0.2429 -1.2488 -0.6788
   3.10000   3.10000   3.10000
