1000 SPC/Fw water molecules t=   0.11000 step= 110
 2931
    1SOL     OW    1   2.523   0.361   2.590  0.4344 -0.7653 -0.2867
    1SOL    HW1    2   2.546   0.258   2.593 -0.0037 -2.8921  0.1300
    1SOL    HW2    3   2.584   0.415   2.649  1.1326 -2.2216  1.3921
    2SOL     OW    4   2.734   3.015   1.423 -0.2519 -0.2288 -0.3485
    2SOL    HW1    5   2.804   3.069   1.370 -1.2489 -1.9769  0.5078
    2SOL    HW2    6   2.693   3.071   1.505  0.8217  3.5613  0.3726
    3SOL     OW    7   2.702   2.599   0.436  0.3570 -0.8751  0.1138
    3SOL    HW1    8   2.627   2.541   0.476 -0.0968 -0.6462 -1.3921
    3SOL    HW2    9   2.784   2.621   0.496  0.7052 -0.0654  1.0055
    4SOL     OW   10   1.321   1.451   2.322 -0.0351  0.3077  0.1591
    4SOL    HW1   11   1.248   1.509   2.364  0.3592 -2.2116  0.0682
    4SOL    HW2   12   1.312   1.350   2.351  1.6536  1.3668 -2.1259
    5SOL     OW   13   1.196   1.489   3.059  0.0328  0.0305  0.1251
    5SOL    HW1   14   1.255   1.566   3.095  0.2123 -2.8636 -0.4715
    5SOL    HW2   15   1.098   1.508   3.073  1.5385  1.0401 -0.0238
    6SOL     OW   16   0.135   1.876   2.950 -0.3174 -0.1846 -0.2341
    6SOL    HW1   17   0.129   1.916   3.047 -2.1402 -1.0978  0.6398
    6SOL    HW2   18   0.095   1.778   2.950  0.8972  2.3153  1.0451
    7SOL     OW   19   2.606   0.808   1.172  0.2239 -0.2142 -0.0192
    7SOL    HW1   20   2.526   0.754   1.209  0.2842 -0.7657 -4.1196
    7SOL    HW2   21   2.623   0.773   1.074 -1.3622 -0.9038 -1.6139
    8SOL     OW   22   0.452   0.681   1.549  0.3156  0.0875 -0.0838
    8SOL    HW1   23   0.520   0.601   1.554 -1.8148  1.3080 -1.7441
    8SOL    HW2   24   0.406   0.674   1.459  0.7000  0.0496  0.9415
    9SOL     OW   25   1.156   0.906   2.272  0.6417  0.4958  0.0326
    9SOL    HW1   26   1.239   0.951   2.228 -0.6295 -0.3640 -3.8413
    9SOL    HW2   27   1.073   0.897   2.203  0.4846 -1.4137  2.8706
   10SOL     OW   28   0.626   1.352   1.310  0.1313 -0.5093 -0.3144
   10SOL    HW1   29   0.543   1.339   1.248  4.9265 -0.0092 -0.8053
   10SOL    HW2   30   0.674   1.446   1.303  2.7856  0.5679  1.6000
   11SOL     OW   31   2.302   2.562   0.914 -0.2689  0.1685  0.0688
   11SOL    HW1   32   2.316   2.619   1.000 -1.8199 -1.9247  3.6888
   11SOL    HW2   33   2.362   2.477   0.914 -0.7050  2.5111  0.0553
   12SOL     OW   34   1.420   0.896   0.482  0.6368  0.0418 -0.0161
   12SOL    HW1   35   1.356   0.938   0.410 -2.8600  0.3712  0.3622
   12SOL    HW2   36   1.422   0.794   0.468  1.2469 -0.7902 -2.0087
   13SOL     OW   37   2.459   0.660   1.783  0.4697  0.0629  0.4697
   13SOL    HW1   38   2.377   0.621   1.834  0.9114 -0.1520  0.3653
   13SOL    HW2   39   2.475   0.607   1.697 -0.4262 -0.2551 -0.8454
   14SOL     OW   40   1.813   3.097   0.541  0.6780 -0.6024  0.0299
   14SOL    HW1   41   1.723   3.151   0.547  1.8426  0.0340  0.2569
   14SOL    HW2   42   1.851   3.077   0.637  0.3537  0.0709 -1.0390
   15SOL     OW   43   1.964   2.063   2.822 -0.1784  0.4225  0.5363
   15SOL    HW1   44   1.902   2.143   2.814 -0.0769 -1.1682 -1.0866
   15SOL    HW2   45   1.934   1.987   2.754  1.3755 -0.0756 -2.4073
   16SOL     OW   46   1.557   1.706   0.035 -0.0582  0.5081  0.4063
   16SOL    HW1   47   1.585   1.620  -0.010  0.4981  2.9532 -0.0641
   16SOL    HW2   48   1.589   1.705   0.135  0.4477 -0.3526 -0.4648
   17SOL     OW   49   0.113   0.417   0.174  0.5005 -1.0256  0.3534
   17SOL    HW1   50   0.204   0.460   0.144  1.8523  1.9147  2.0213
   17SOL    HW2   51   0.041   0.457   0.108 -0.4285  0.3297 -1.8367
   18SOL     OW   52   1.100   2.891   2.155  0.3434 -0.1675 -0.0909
   18SOL    HW1   53   1.006   2.863   2.112 -3.2734  1.3130 -0.7912
   18SOL    HW2   54   1.178   2.868   2.091 -1.0940 -1.0689 -0.8415
   19SOL     OW   55   0.570   0.998   1.953 -0.9475  0.1262  0.1106
   19SOL    HW1   56   0.492   1.028   2.012 -0.8130 -1.4326  0.8323
   19SOL    HW2   57   0.620   0.913   1.980  0.9011  0.0751  0.4288
   20SOL     OW   58   0.266   2.760   0.850 -0.1233  0.3644  0.0293
   20SOL    HW1   59   0.179   2.810   0.840  0.3888 -1.2456 -0.8667
   20SOL    HW2   60   0.310   2.724   0.764  1.6282  0.6403  1.0101
   21SOL     OW   61   2.809   0.221   2.158 -0.7383  0.5780  0.4700
   21SOL    HW1   62   2.885   0.184   2.100 -4.1284  1.3423 -0.8190
   21SOL    HW2   63   2.782   0.162   2.237  1.4428 -0.4502 -2.8284
   22SOL     OW   64   2.361   0.211   0.064  0.7684  0.5385 -0.1566
   22SOL    HW1   65   2.380   0.106   0.062  0.5694 -2.0407 -3.5202
   22SOL    HW2   66   2.261   0.233   0.043 -2.0073 -0.5388 -2.3340
   23SOL     OW   67   2.767   0.661   0.704  0.2507 -0.0068  0.3583
   23SOL    HW1   68   2.754   0.561   0.667 -1.3293 -0.7410 -1.0152
   23SOL    HW2   69   2.774   0.736   0.632  0.0383  0.8911  0.8848
   24SOL     OW   70   0.162   1.891   0.446 -0.1186  0.4831 -0.5123
   24SOL    HW1   71   0.069   1.910   0.405  1.7099 -2.4307  0.4607
   24SOL    HW2   72   0.237   1.911   0.378  1.3766 -2.8168  1.5983
   25SOL     OW   73   2.265   0.505   0.180  0.1685 -0.1301 -0.5639
   25SOL    HW1   74   2.332   0.437   0.215 -5.8553  2.5006 -0.2095
   25SOL    HW2   75   2.237   0.492   0.081  2.2967 -1.0453  2.7184
   26SOL     OW   76   2.570   2.184   2.079 -0.0273  0.3218  0.2944
   26SOL    HW1   77   2.634   2.214   2.157  2.5261 -0.0440  0.0784
   26SOL    HW2   78   2.613   2.129   2.005 -0.4093  0.6958  0.2250
   27SOL     OW   79   0.678   2.984   0.108  0.0531 -0.0683 -0.6170
   27SOL    HW1   80   0.775   3.028   0.098  0.2127  0.8251 -0.4378
   27SOL    HW2   81   0.633   2.954   0.019 -3.7340 -0.7708 -0.6747
   28SOL     OW   82   1.462   0.235   0.195  0.1845 -0.2290 -0.1495
   28SOL    HW1   83   1.548   0.186   0.151 -1.2913  0.2031 -1.7478
   28SOL    HW2   84   1.484   0.295   0.275  0.5428 -1.4740  0.3714
   29SOL     OW   85   2.011   0.611   0.295 -0.4849  0.5002 -0.5460
   29SOL    HW1   86   2.023   0.680   0.372  0.5992  0.0099  0.3444
   29SOL    HW2   87   2.099   0.598   0.245  0.7104 -1.0996 -1.1950
   30SOL     OW   88   0.215   2.058   0.914 -0.1337 -0.3185  0.2867
   30SOL    HW1   89   0.187   1.999   0.833 -1.3240  0.5479  2.7361
   30SOL    HW2   90   0.142   2.113   0.958  4.1673 -0.8344  0.0327
   31SOL     OW   91   2.057   0.041   2.326 -0.9846 -0.2948  0.3669
   31SOL    HW1   92   2.075   0.016   2.425  2.1536  0.2831 -0.6791
   31SOL    HW2   93   2.014  -0.030   2.264  1.0381  0.5389 -0.6925
   32SOL     OW   94   2.988   0.117   0.240 -0.3432 -0.3604  0.1701
   32SOL    HW1   95   2.925   0.040   0.257 -0.7749  0.3911 -2.1452
   32SOL    HW2   96   3.077   0.078   0.201  0.2920 -0.2870  0.6601
   33SOL     OW   97   0.963   0.321   0.438 -0.3006 -0.3101 -0.1970
   33SOL    HW1   98   0.913   0.232   0.444  3.7360  1.6633 -1.5674
   33SOL    HW2   99   1.021   0.337   0.527  1.7890  0.5164  0.1814
   34SOL     OW  100   0.404   2.882   1.063  0.3378  0.5401  0.1204
   34SOL    HW1  101   0.367   2.840   0.974  1.9315 -1.9387  2.9674
   34SOL    HW2  102   0.506   2.858   1.069  0.1686 -0.6631  1.3314
   35SOL     OW  103   0.040   3.101   1.811  0.3361  0.2112 -0.1602
   35SOL    HW1  104   0.022   3.001   1.834  1.8391 -4.3913  0.5789
   35SOL    HW2  105   0.006   3.131   1.716 -3.0396 -0.6519 -1.4741
   36SOL     OW  106   1.904   1.153   1.789 -0.0695 -0.1989  0.6228
   36SOL    HW1  107   1.978   1.125   1.717  1.7087 -1.1722 -2.0866
   36SOL    HW2  108   1.925   1.252   1.826  1.6970  2.3958 -0.6213
   37SOL     OW  109   1.120   0.321   1.008  0.3538 -0.0601 -0.0734
   37SOL    HW1  110   1.162   0.394   1.066  0.7371  2.7776 -2.3034
   37SOL    HW2  111   1.184   0.241   1.005 -0.3712  2.0522  1.1367
   38SOL     OW  112   1.147   2.713   2.383  0.1371 -0.1115  0.9354
   38SOL    HW1  113   1.073   2.650   2.410  1.0143  0.7350 -2.2085
   38SOL    HW2  114   1.113   2.789   2.314 -1.2736 -1.0407  1.9592
   39SOL     OW  115   2.395   1.491   3.065 -0.9110 -0.3627 -0.0483
   39SOL    HW1  116   2.439   1.399   3.063  1.0912 -1.3904 -0.5335
   39SOL    HW2  117   2.338   1.500   3.148 -0.2924 -1.4794  0.5095
   40SOL     OW  118   2.053   2.509   2.574  0.8554  1.0897 -0.1298
   40SOL    HW1  119   2.015   2.605   2.576 -1.6628  4.2919  0.9877
   40SOL    HW2  120   1.993   2.452   2.512 -1.8533 -1.9319 -0.9721
   41SOL     OW  121   2.915   0.701   2.757 -0.6130 -0.7092  0.0420
   41SOL    HW1  122   2.829   0.738   2.717  1.9149  1.0723 -0.2471
   41SOL    HW2  123   2.911   0.603   2.777 -0.1965  1.9647  0.7263
   42SOL     OW  124   1.704   1.752   0.590 -0.1187  0.1137 -0.2585
   42SOL    HW1  125   1.664   1.668   0.543  2.6949 -0.7512  0.5167
   42SOL    HW2  126   1.751   1.810   0.519  1.7526 -0.8785 -0.1742
   43SOL     OW  127   0.477   1.744   1.207 -0.4410 -0.2842  0.4302
   43SOL    HW1  128   0.473   1.715   1.307  0.5496 -0.0195 -0.3869
   43SOL    HW2  129   0.390   1.720   1.152  0.0070 -0.2749 -1.6405
   44SOL     OW  130   1.744   2.482   0.017 -0.7835  0.9761 -0.6762
   44SOL    HW1  131   1.788   2.553  -0.048  2.0299  2.3380  0.9426
   44SOL    HW2  132   1.807   2.472   0.096  2.6742  3.3682 -1.4113
   45SOL     OW  133   0.386   1.883   2.523  0.1535  0.0979 -0.2731
   45SOL    HW1  134   0.325   1.879   2.437 -1.2699  1.4342 -3.8802
   45SOL    HW2  135   0.399   1.790   2.566  0.9847 -1.7580 -1.6143
   46SOL     OW  136   1.163   0.660   0.189 -0.4095 -0.6108 -0.1147
   46SOL    HW1  137   1.225   0.730   0.140 -2.0950  2.6470 -1.6899
   46SOL    HW2  138   1.069   0.704   0.211  0.1843  1.0458  1.5519
   47SOL     OW  139   0.241   2.452   1.602  0.2406  0.3386  0.1259
   47SOL    HW1  140   0.331   2.390   1.601  1.4307  0.1119  0.5997
   47SOL    HW2  141   0.218   2.494   1.514 -0.8236 -1.1463  1.2995
   48SOL     OW  142   2.619   0.549   0.098 -0.4043  0.2846  0.6353
   48SOL    HW1  143   2.588   0.551   0.197  1.9962  3.2634 -2.2580
   48SOL    HW2  144   2.692   0.623   0.070  0.1620  1.2074  0.6090
   49SOL     OW  145   0.362   0.831   1.767  0.3073 -0.3141 -0.1306
   49SOL    HW1  146   0.457   0.835   1.812  1.9107 -0.7988  0.3778
   49SOL    HW2  147   0.365   0.765   1.689  0.5779 -1.6699 -0.9908
   50SOL     OW  148   1.760   1.078   0.309  0.6057 -0.6446  0.6315
   50SOL    HW1  149   1.745   0.987   0.273  0.8250  0.9217  2.5441
   50SOL    HW2  150   1.694   1.113   0.381 -1.2113  1.2288  0.7801
   51SOL     OW  151   3.000   1.885   0.363  0.7150 -0.1398  0.5467
   51SOL    HW1  152   2.958   1.948   0.291 -0.2664  0.9196 -0.5558
   51SOL    HW2  153   2.984   1.787   0.334 -0.3444 -0.8126 -0.1112
   52SOL     OW  154   0.826   1.931   0.486  0.4448  0.5191 -0.3512
   52SOL    HW1  155   0.776   2.006   0.533  0.3798 -1.0116 -0.5252
   52SOL    HW2  156   0.852   1.854   0.554  0.4402 -2.4141  0.3135
   53SOL     OW  157   3.087   0.382   1.520 -0.2387 -0.2443 -0.3068
   53SOL    HW1  158   3.105   0.386   1.622  1.0834  0.4828  0.5969
   53SOL    HW2  159   3.069   0.472   1.479  2.4274 -2.3494 -0.0312
   54SOL     OW  160   1.770   0.491   3.002  0.0594  0.2099 -0.2603
   54SOL    HW1  161   1.834   0.465   3.082 -0.9172 -1.6875  1.4858
   54SOL    HW2  162   1.670   0.462   3.018 -3.1514 -3.0649  0.4146
   55SOL     OW  163   0.707   2.932   0.661  0.2375  0.3804  0.0687
   55SOL    HW1  164   0.671   3.029   0.677  1.5425 -3.2863 -0.3058
   55SOL    HW2  165   0.804   2.920   0.626  0.4429 -2.1660 -3.1669
   56SOL     OW  166   0.510   1.538   3.090  0.3318 -0.4741 -0.5133
   56SOL    HW1  167   0.430   1.586   3.134  0.1447  0.9149 -0.4693
   56SOL    HW2  168   0.487   1.442   3.048 -1.0113 -1.8876  3.1733
   57SOL     OW  169   1.768   2.386   2.661  0.0154 -0.1504 -0.1901
   57SOL    HW1  170   1.789   2.397   2.559 -0.0626 -0.2844  0.9973
   57SOL    HW2  171   1.691   2.325   2.691 -1.7870  0.3297  0.4323
   58SOL     OW  172   0.634   0.496   1.095 -0.5113  0.4415 -0.1634
   58SOL    HW1  173   0.579   0.571   1.060  2.7021 -2.6754  1.9214
   58SOL    HW2  174   0.602   0.399   1.092 -2.4382  2.8594  0.1174
   59SOL     OW  175   0.470   2.379   2.658  0.1857 -0.0689 -0.7742
   59SOL    HW1  176   0.477   2.277   2.676  0.2078 -2.7351  1.5290
   59SOL    HW2  177   0.536   2.435   2.717  2.7823  1.9267  1.5104
   60SOL     OW  178   2.328   2.184   2.249 -0.1424  0.3065 -0.1940
   60SOL    HW1  179   2.413   2.184   2.193  1.3340 -0.7103  1.2050
   60SOL    HW2  180   2.352   2.183   2.349  1.4738  1.4444  0.8930
   61SOL     OW  181   1.350   0.630   0.415  0.6516 -1.1844  0.2432
   61SOL    HW1  182   1.254   0.647   0.451 -0.2157  0.7717  0.7108
   61SOL    HW2  183   1.357   0.626   0.311 -0.7168  0.2884 -1.0672
   62SOL     OW  184   2.698   1.901   0.008 -0.7413  0.0749  0.4857
   62SOL    HW1  185   2.707   1.800   0.032 -1.5305 -0.0190  1.4586
   62SOL    HW2  186   2.719   1.928  -0.089 -2.4194  2.7627  0.6379
   63SOL     OW  187   0.528   0.802   0.133 -0.4330 -0.2030 -0.4759
   63SOL    HW1  188   0.508   0.899   0.106  1.1259 -0.2141  0.7110
   63SOL    HW2  189   0.616   0.795   0.187 -2.1606  0.2278  1.3579
   64SOL     OW  190   0.070   0.563   2.514  0.1725 -0.0990  0.3110
   64SOL    HW1  191   0.029   0.630   2.578 -1.5988  0.2912  0.1951
   64SOL    HW2  192   0.058   0.605   2.417 -1.1459  0.3323 -0.3884
   65SOL     OW  193   0.178   1.474   0.608  0.2890 -0.8244  0.9292
   65SOL    HW1  194   0.203   1.549   0.675 -0.2781  0.5443 -2.7821
   65SOL    HW2  195   0.269   1.430   0.575  1.7737  1.3131 -2.3382
   66SOL     OW  196   2.458   0.328   0.668 -0.1443  0.0965  0.6480
   66SOL    HW1  197   2.386   0.404   0.656  0.5204 -1.2945  0.4048
   66SOL    HW2  198   2.420   0.247   0.716  0.3263  2.0316  0.6573
   67SOL     OW  199   0.472   2.585   1.314  0.4321  0.0266  0.2536
   67SOL    HW1  200   0.573   2.606   1.319 -2.2955 -0.6050  0.2732
   67SOL    HW2  201   0.452   2.481   1.293 -1.3278  0.7912  0.9479
   68SOL     OW  202   1.013   1.101   2.406  0.4959  0.1646  0.3974
   68SOL    HW1  203   1.074   1.025   2.362  1.3563 -2.0443  2.6280
   68SOL    HW2  204   0.950   1.157   2.343 -1.7809  0.7589  0.8818
   69SOL     OW  205   0.766   2.707   2.155  0.0699 -0.6777  0.0173
   69SOL    HW1  206   0.791   2.610   2.171  1.9898  1.2253  1.5287
   69SOL    HW2  207   0.661   2.720   2.183 -2.0181 -0.1379  2.9493
   70SOL     OW  208   0.596   0.222   2.709  0.6068  0.0329  0.1334
   70SOL    HW1  209   0.543   0.263   2.789  0.5317  2.0695 -0.2529
   70SOL    HW2  210   0.586   0.120   2.707  0.8156  0.4334 -0.1828
   71SOL     OW  211   1.111   1.819   0.362 -0.4567  0.3410  0.1944
   71SOL    HW1  212   1.084   1.724   0.382  0.2966  1.7397 -1.6065
   71SOL    HW2  213   1.078   1.844   0.264  1.2101  1.1491  0.8503
   72SOL     OW  214   1.771   0.068   2.092  0.0171 -0.0360 -0.0948
   72SOL    HW1  215   1.839   0.097   2.023 -1.5134 -1.3456  2.7084
   72SOL    HW2  216   1.764  -0.034   2.101  1.0842 -1.5351 -0.5919
   73SOL     OW  217   2.851   2.233   2.520 -0.3029  0.3022  0.2363
   73SOL    HW1  218   2.847   2.130   2.487  2.0290 -0.3531  0.9166
   73SOL    HW2  219   2.878   2.235   2.621 -1.0917 -0.2273  1.7017
   74SOL     OW  220   2.714   2.998   2.073 -0.4726  0.9405 -0.6326
   74SOL    HW1  221   2.663   2.973   2.157  1.5435  0.2945  1.3661
   74SOL    HW2  222   2.818   2.972   2.081  1.5459 -0.9335  1.1311
   75SOL     OW  223   0.920   0.742   0.960 -0.3583 -0.3351  0.3564
   75SOL    HW1  224   0.831   0.785   0.951  4.3844 -0.7023  1.1339
   75SOL    HW2  225   0.970   0.781   1.046  1.4488  1.7882 -1.4761
   76SOL     OW  226   1.738   1.233   2.583  0.0079 -0.2079 -0.0865
   76SOL    HW1  227   1.636   1.236   2.583  1.9339 -1.3876  0.7509
   76SOL    HW2  228   1.777   1.312   2.637  1.2330  0.3231 -2.4288
   77SOL     OW  229   2.997   1.013   0.984  0.2342 -0.1339 -0.1450
   77SOL    HW1  230   2.956   0.916   0.987  2.9224 -0.4564  0.1164
   77SOL    HW2  231   3.073   1.021   1.053  0.3548 -1.3552  0.0527
   78SOL     OW  232   1.981   1.402   1.462  0.2362 -0.0738  0.6507
   78SOL    HW1  233   2.001   1.416   1.362 -1.1202  1.8173 -0.2393
   78SOL    HW2  234   1.876   1.401   1.476 -0.4547  0.0545 -2.2939
   79SOL     OW  235   0.642   1.288   0.858  0.2838  0.8298  0.2790
   79SOL    HW1  236   0.556   1.326   0.896  3.4474 -1.2962  0.2759
   79SOL    HW2  237   0.627   1.230   0.772  0.0909  0.1176  0.9952
   80SOL     OW  238   0.638   0.474   1.609  0.0358  0.0756 -0.1513
   80SOL    HW1  239   0.703   0.545   1.569 -0.8222  0.1783 -2.3680
   80SOL    HW2  240   0.644   0.388   1.556  1.4260 -0.1489 -0.2954
   81SOL     OW  241   1.096   1.438   2.584 -0.6603 -0.3847 -0.2672
   81SOL    HW1  242   1.056   1.367   2.648  1.5493 -0.8657  1.0154
   81SOL    HW2  243   1.059   1.423   2.489  1.6929 -0.2655 -0.1155
   82SOL     OW  244   0.903   3.025   1.529  0.0026  0.0052  0.0064
   82SOL    HW1  245   0.965   2.946   1.532 -0.6385  0.2430 -1.7169
   82SOL    HW2  246   0.815   3.006   1.485  1.4537  0.7044 -1.8010
   83SOL     OW  247   2.756   2.415   0.821 -0.0369 -0.0635 -0.4098
   83SOL    HW1  248   2.661   2.392   0.798  1.5436 -1.5903  0.5719
   83SOL    HW2  249   2.791   2.498   0.765  3.4478  1.2970  1.3674
   84SOL     OW  250   0.661   0.016   2.416  0.2529 -0.0402  0.2337
   84SOL    HW1  251   0.558  -0.001   2.412 -0.5529 -1.3570 -1.9583
   84SOL    HW2  252   0.711  -0.063   2.459 -1.2752  1.3513 -1.8352
   85SOL     OW  253   0.370   1.658   1.466  0.9491 -0.1053  0.2704
   85SOL    HW1  254   0.332   1.754   1.472  0.3170 -1.4980 -2.4138
   85SOL    HW2  255   0.369   1.603   1.560  1.8934 -1.6733 -0.9490
   86SOL     OW  256   0.357   1.042   1.485 -0.0123  0.4276 -0.2198
   86SOL    HW1  257   0.351   0.975   1.407  2.1336 -1.0838 -0.0909
   86SOL    HW2  258   0.398   0.997   1.568 -1.4183  0.5262  1.4432
   87SOL     OW  259   1.563   0.583   0.188  0.3397  0.2951 -0.1407
   87SOL    HW1  260   1.623   0.665   0.212 -0.6603 -0.3772  0.3820
   87SOL    HW2  261   1.519   0.587   0.093 -2.2254 -1.2041  1.4151
   88SOL     OW  262   1.607   1.300   0.175 -0.5621 -0.5136 -1.0151
   88SOL    HW1  263   1.658   1.219   0.209  0.6989  1.1077  0.0554
   88SOL    HW2  264   1.504   1.298   0.192  1.0958  1.9116  1.7606
   89SOL     OW  265   2.972   0.419   0.580 -0.2898  0.2891 -0.1016
   89SOL    HW1  266   3.027   0.337   0.614 -3.2619  1.3029  0.7271
   89SOL    HW2  267   2.873   0.395   0.541  0.1870 -2.5300 -0.8319
   90SOL     OW  268   0.906   1.638   3.053  0.9921  0.1838 -0.2496
   90SOL    HW1  269   0.840   1.615   3.131  0.4020  0.7084  0.2796
   90SOL    HW2  270   0.875   1.611   2.957  0.2181  1.9535 -0.1491
   91SOL     OW  271   1.249   1.392   1.794  0.3469  0.8391 -0.6200
   91SOL    HW1  272   1.270   1.479   1.844  0.5083  1.5089 -1.1522
   91SOL    HW2  273   1.333   1.328   1.798  1.0234 -0.5612 -1.3856
   92SOL     OW  274   0.066   1.072   1.186 -0.4330 -0.4113 -0.4925
   92SOL    HW1  275   0.166   1.090   1.154  0.9024  0.3940  1.5130
   92SOL    HW2  276   0.064   1.036   1.289 -0.2929 -2.8183  1.1266
   93SOL     OW  277   0.103   2.839   3.088 -0.1698 -0.1637  1.0170
   93SOL    HW1  278   0.010   2.833   3.045 -1.2512  0.7203  1.5425
   93SOL    HW2  279   0.122   2.754   3.140  1.2478 -1.3198 -0.0708
   94SOL     OW  280   1.514   1.298   1.668 -0.1299  0.1298 -0.1090
   94SOL    HW1  281   1.534   1.213   1.723 -2.7947 -1.3899 -0.4261
   94SOL    HW2  282   1.589   1.366   1.672 -1.7130  0.6712 -0.7946
   95SOL     OW  283   1.394   2.467   2.909 -0.3106  0.3430 -0.2470
   95SOL    HW1  284   1.342   2.449   2.998 -1.0041  0.0097  2.2328
   95SOL    HW2  285   1.436   2.376   2.876  1.4899 -1.1543 -2.1289
   96SOL     OW  286   0.507   2.020   1.226 -0.2314  0.0475 -0.2588
   96SOL    HW1  287   0.498   2.065   1.133 -0.5785  1.7085 -0.6820
   96SOL    HW2  288   0.480   1.919   1.225  0.6772 -1.3022  2.2393
   97SOL     OW  289   0.293   1.443   2.468  0.1642  0.3924  0.0489
   97SOL    HW1  290   0.201   1.390   2.485 -1.7999  0.1749  1.6473
   97SOL    HW2  291   0.323   1.514   2.543 -0.1991  2.0128 -0.1308
   98SOL     OW  292   2.084   1.647   1.256 -0.0980 -0.2864 -0.1302
   98SOL    HW1  293   2.074   1.556   1.212 -0.2267  2.4561  2.4632
   98SOL    HW2  294   2.152   1.651   1.336 -1.6819  3.2967  3.6101
   99SOL     OW  295   2.489   2.169   1.345 -0.8483 -0.1933 -0.1969
   99SOL    HW1  296   2.458   2.156   1.444  4.2444  1.3882  1.0866
   99SOL    HW2  297   2.515   2.075   1.305 -1.5457 -0.5951 -2.8336
  100SOL     OW  298   2.299   0.408   2.068  0.3666 -0.0237 -0.1311
  100SOL    HW1  299   2.238   0.373   2.144 -0.9001  1.4352  1.5852
  100SOL    HW2  300   2.406   0.389   2.079  0.5027 -1.0782 -0.3975
  101SOL     OW  301   0.423   1.419   0.276  0.3645 -0.0082  0.0499
  101SOL    HW1  302   0.421   1.470   0.366  1.2635 -1.8035  1.3569
  101SOL    HW2  303   0.479   1.469   0.204  0.6878  2.3667  3.5169
  102SOL     OW  304   2.248   1.082   0.848  0.5092 -0.3426 -0.5699
  102SOL    HW1  305   2.177   1.017   0.813  0.5903 -0.7979 -0.7071
  102SOL    HW2  306   2.281   1.149   0.772  1.6173 -0.7298 -1.1293
  103SOL     OW  307   2.288   0.074   0.396  0.4203 -0.2752  0.1765
  103SOL    HW1  308   2.342   0.162   0.367 -2.2201  0.8881 -0.0109
  103SOL    HW2  309   2.341   0.013   0.461 -1.4980 -1.3572  0.8448
  104SOL     OW  310   0.082   1.860   2.152 -0.0895  0.3271  0.4006
  104SOL    HW1  311   0.114   1.813   2.070 -2.5377  0.5250  1.3413
  104SOL    HW2  312  -0.022   1.863   2.148  0.7582 -1.9138 -1.9699
  105SOL     OW  313   1.096   1.961   0.817  0.4456 -0.0113  0.2482
  105SOL    HW1  314   1.025   2.017   0.766  0.2872  1.3186  2.2545
  105SOL    HW2  315   1.152   1.899   0.753 -1.2528 -0.8980 -1.5574
  106SOL     OW  316   2.050   0.486   1.338 -0.0513 -0.4462  0.3442
  106SOL    HW1  317   2.012   0.408   1.394 -1.4189 -1.0036  0.4840
  106SOL    HW2  318   2.052   0.579   1.382 -0.7280  0.2721  0.0668
  107SOL     OW  319   1.821   3.004   1.131 -0.5097 -0.0861 -0.0190
  107SOL    HW1  320   1.853   3.078   1.194 -1.7621  1.0361 -0.9800
  107SOL    HW2  321   1.765   2.934   1.183 -1.2114  2.3855 -1.7622
  108SOL     OW  322   0.741   2.624   1.308 -0.1227 -0.0829 -0.5940
  108SOL    HW1  323   0.721   2.684   1.390  0.0748 -2.1557  0.5654
  108SOL    HW2  324   0.846   2.604   1.301 -0.0726 -1.0472 -1.0065
  109SOL     OW  325   2.048   0.131   0.679  0.8826 -0.3469  0.2271
  109SOL    HW1  326   2.073   0.029   0.690 -2.1328 -0.4028 -5.2257
  109SOL    HW2  327   1.971   0.158   0.743 -0.4242 -0.0145 -1.3318
  110SOL     OW  328   0.497   2.711   2.757 -0.4541  0.9845 -0.7782
  110SOL    HW1  329   0.496   2.763   2.665 -1.3149 -0.2820  2.3562
  110SOL    HW2  330   0.596   2.696   2.786  0.5863 -0.4958 -3.2991
  111SOL     OW  331   1.290   0.532   2.338  0.0126  0.0177 -0.2640
  111SOL    HW1  332   1.209   0.562   2.392 -1.8270 -1.3514 -1.9349
  111SOL    HW2  333   1.343   0.465   2.390  0.9643  1.6113 -1.6610
  112SOL     OW  334   1.689   0.502   1.461 -0.0299  0.0859  0.4104
  112SOL    HW1  335   1.691   0.483   1.358 -1.6434 -2.9302  1.1908
  112SOL    HW2  336   1.707   0.414   1.513  0.0759 -1.9174 -2.5511
  113SOL     OW  337   2.289   1.654   1.733 -0.0311  0.8435 -0.3510
  113SOL    HW1  338   2.336   1.559   1.750  2.1107 -1.7470 -1.3584
  113SOL    HW2  339   2.296   1.712   1.817  1.4279 -3.6357 -1.0749
  114SOL     OW  340   0.396   0.568   1.298 -0.3587 -0.3098 -0.1468
  114SOL    HW1  341   0.338   0.655   1.283  2.0093  2.2477 -0.6240
  114SOL    HW2  342   0.464   0.555   1.224  0.0434 -1.4403  0.0217
  115SOL     OW  343   2.683   1.561   1.271 -0.4184  0.3202 -0.3869
  115SOL    HW1  344   2.710   1.463   1.296 -0.2559 -0.9875  0.1658
  115SOL    HW2  345   2.724   1.596   1.180 -2.6949  1.3361 -2.0369
  116SOL     OW  346   1.825   1.067   0.764 -0.0495  0.4077 -0.3107
  116SOL    HW1  347   1.758   1.004   0.714  0.7697 -0.6911 -0.3724
  116SOL    HW2  348   1.790   1.167   0.760  0.7908 -0.5104  1.7088
  117SOL     OW  349   1.100   0.415   0.663  0.4899 -0.5490 -0.2325
  117SOL    HW1  350   1.105   0.397   0.762 -0.3437  0.1326 -2.3228
  117SOL    HW2  351   1.110   0.517   0.638  1.6946 -0.9464 -1.8531
  118SOL     OW  352   1.071   1.102   1.016 -0.3211  0.5051  0.3006
  118SOL    HW1  353   1.069   1.016   1.067 -0.5849  3.9071 -0.2756
  118SOL    HW2  354   1.086   1.188   1.072 -1.6168 -0.1205  0.4245
  119SOL     OW  355   1.831   1.624   1.999  0.0988 -0.5242  0.3568
  119SOL    HW1  356   1.776   1.713   2.015  0.7078 -1.2300 -0.1171
  119SOL    HW2  357   1.918   1.629   2.048  0.1970 -1.3846 -0.8258
  120SOL     OW  358   2.937   2.767   0.254 -0.0260 -0.2240  0.8161
  120SOL    HW1  359   2.889   2.733   0.171 -0.7466  1.2751 -0.9104
  120SOL    HW2  360   3.004   2.703   0.293  0.7455  2.8288  1.3949
  121SOL     OW  361   2.069   0.728   2.232 -0.8043  0.1477 -0.2638
  121SOL    HW1  362   2.144   0.730   2.165 -1.1378  2.7066 -0.4638
  121SOL    HW2  363   2.012   0.640   2.222  2.5437 -0.7114 -0.1640
  122SOL     OW  364   2.702   2.537   1.342  0.1881  0.1433  0.0250
  122SOL    HW1  365   2.729   2.543   1.238 -0.4328 -0.9053  0.8118
  122SOL    HW2  366   2.677   2.444   1.375 -1.5159 -2.7867  1.3875
  123SOL     OW  367   1.732   0.039   1.690  0.2445  0.0231 -0.4349
  123SOL    HW1  368   1.722  -0.046   1.630  1.3530 -3.3746 -0.1131
  123SOL    HW2  369   1.820   0.093   1.669  0.3710 -0.7843 -0.3344
  124SOL     OW  370   0.193   0.491   0.986  0.4274  0.2536  0.7131
  124SOL    HW1  371   0.171   0.533   1.079 -3.5235  2.8090  2.4364
  124SOL    HW2  372   0.125   0.520   0.915 -5.0013  0.0712  0.3750
  125SOL     OW  373   0.872   1.740   0.666  0.4978  0.6997 -0.1027
  125SOL    HW1  374   0.976   1.733   0.667 -1.9849 -0.1761 -0.6129
  125SOL    HW2  375   0.825   1.661   0.710  0.5298  0.6055 -0.7502
  126SOL     OW  376   1.880   2.387   2.392 -0.7285  0.0456 -0.8434
  126SOL    HW1  377   1.943   2.309   2.370 -1.8113 -1.4997 -0.0482
  126SOL    HW2  378   1.781   2.373   2.359 -1.5799 -0.6478 -2.2129
  127SOL     OW  379   0.953   0.981   0.181 -0.7571 -0.3370  0.2537
  127SOL    HW1  380   1.052   1.001   0.200 -0.1492 -2.5626  0.3471
  127SOL    HW2  381   0.920   0.882   0.199  0.3581  0.7291 -0.1161
  128SOL     OW  382   1.005   0.193   1.470  0.6128 -0.0149  0.6254
  128SOL    HW1  383   0.968   0.260   1.397 -1.0885  1.4574 -1.5685
  128SOL    HW2  384   0.937   0.113   1.481  0.1320 -1.6786  2.7108
  129SOL     OW  385   1.765   0.723   1.822  0.7917  0.4561 -0.1104
  129SOL    HW1  386   1.769   0.736   1.722 -2.7663 -0.1495  0.4776
  129SOL    HW2  387   1.825   0.788   1.885 -2.6439 -0.6027  2.1779
  130SOL     OW  388   1.278   2.092   0.990  0.3081  0.0549 -0.1359
  130SOL    HW1  389   1.232   2.045   0.909  1.0495 -0.5783  0.3365
  130SOL    HW2  390   1.342   2.167   0.959  2.1220  0.8362 -3.1821
  131SOL     OW  391   3.055   1.513   1.326  0.4006  0.2050 -0.0792
  131SOL    HW1  392   2.994   1.425   1.318  0.2411  0.1788 -0.9154
  131SOL    HW2  393   3.156   1.486   1.339 -0.3209  0.4317 -0.5610
  132SOL     OW  394   1.927   2.490   0.516  0.1797  0.4801  0.3905
  132SOL    HW1  395   1.828   2.483   0.540  1.0919 -1.0005  0.0660
  132SOL    HW2  396   1.988   2.451   0.588 -0.6104  0.6877  0.6556
  133SOL     OW  397   1.794   2.288   2.912  0.2217  0.2835 -0.5852
  133SOL    HW1  398   1.770   2.364   2.975  1.5734 -2.0852 -1.0827
  133SOL    HW2  399   1.814   2.329   2.818  1.2809  0.5324 -1.3487
  134SOL     OW  400   2.616   2.384   1.620  0.1681  0.5578  0.3905
  134SOL    HW1  401   2.558   2.324   1.681  0.5301 -0.5003 -2.5215
  134SOL    HW2  402   2.702   2.426   1.666  0.3099 -2.4309 -1.1165
  135SOL     OW  403   0.760   1.505   2.553 -0.2410  0.4241 -0.1736
  135SOL    HW1  404   0.764   1.414   2.597 -1.2888 -0.5709  3.2592
  135SOL    HW2  405   0.832   1.519   2.475 -2.1877 -2.0301  0.6253
  136SOL     OW  406   1.153   2.080   0.458  0.0782 -0.2108 -0.3077
  136SOL    HW1  407   1.081   2.113   0.526  0.4355  0.0679 -0.6092
  136SOL    HW2  408   1.126   1.997   0.402 -0.0148  0.7170  0.7048
  137SOL     OW  409   0.375   1.026   2.149  0.3219 -0.0400  0.3349
  137SOL    HW1  410   0.288   1.046   2.196  0.9913  0.1825 -2.1594
  137SOL    HW2  411   0.401   0.923   2.152 -0.2025 -0.7831 -1.1034
  138SOL     OW  412   2.441   1.469   0.331  0.2440  0.1185 -0.6373
  138SOL    HW1  413   2.353   1.468   0.278 -0.1847  0.3758 -0.7638
  138SOL    HW2  414   2.450   1.375   0.370  0.1581  1.2588  0.3502
  139SOL     OW  415   1.767   2.522   1.223  0.0982  0.7571  0.2047
  139SOL    HW1  416   1.667   2.514   1.217  1.2343 -0.9228  2.9699
  139SOL    HW2  417   1.811   2.464   1.299  1.5391 -1.3295 -1.0908
  140SOL     OW  418   2.983   3.008   2.514 -0.2407  0.2738  0.3706
  140SOL    HW1  419   3.004   2.940   2.589  3.5350  2.3257 -1.2527
  140SOL    HW2  420   3.066   3.062   2.485 -0.2754 -0.6957  0.4352
  141SOL     OW  421   1.149   1.560   1.602  0.2454  0.6726  0.4276
  141SOL    HW1  422   1.142   1.651   1.650 -1.6291 -3.0403 -0.1535
  141SOL    HW2  423   1.202   1.493   1.659 -2.3404  2.4607  0.6240
  142SOL     OW  424   1.538   0.592   2.249 -0.0908  0.1471 -0.2512
  142SOL    HW1  425   1.545   0.583   2.145  1.9517 -0.1321  0.3113
  142SOL    HW2  426   1.443   0.578   2.276  1.7161 -0.0573  0.3918
  143SOL     OW  427   2.777   0.855   0.486 -0.0387  0.4150  0.2241
  143SOL    HW1  428   2.791   0.892   0.393 -0.4514  0.7810  1.3039
  143SOL    HW2  429   2.812   0.925   0.556 -0.1969  1.2379 -0.7917
  144SOL     OW  430   2.965   1.244   1.367  0.3911  0.3304 -0.0259
  144SOL    HW1  431   2.999   1.220   1.462  1.3036  0.6969 -2.1503
  144SOL    HW2  432   3.019   1.194   1.293 -0.6378 -0.4219  4.0342
  145SOL     OW  433   1.019   1.871   0.110  0.6146 -0.2030 -0.1996
  145SOL    HW1  434   1.045   1.951   0.046  1.5686  0.9782  2.3398
  145SOL    HW2  435   0.981   1.789   0.059  1.5376  1.3461  0.7290
  146SOL     OW  436   2.515   0.633   1.489  0.1794  0.6248 -0.3955
  146SOL    HW1  437   2.461   0.555   1.446  1.1807  0.2835 -0.7132
  146SOL    HW2  438   2.471   0.725   1.495  0.4274 -1.1234 -2.5081
  147SOL     OW  439   1.054   2.602   0.619 -0.5594 -0.1011  0.0700
  147SOL    HW1  440   1.009   2.632   0.532 -0.0105 -0.7739  0.4776
  147SOL    HW2  441   1.132   2.534   0.598 -0.0387  0.7269  0.6613
  148SOL     OW  442   1.652   1.417   3.047 -0.3728 -0.1311  0.7845
  148SOL    HW1  443   1.696   1.342   2.986 -3.5847 -0.6259  2.7837
  148SOL    HW2  444   1.622   1.379   3.139 -2.8608  1.5624  1.0407
  149SOL     OW  445   0.641   1.403   1.939  0.1100  0.0872  0.2757
  149SOL    HW1  446   0.561   1.349   1.981  1.0647 -1.8977  0.0522
  149SOL    HW2  447   0.696   1.340   1.876  0.8683  1.6215 -0.5302
  150SOL     OW  448   2.958   1.276   0.941  0.0371  0.1409  0.3609
  150SOL    HW1  449   3.025   1.339   0.986 -0.0935  0.4858 -0.9227
  150SOL    HW2  450   2.976   1.173   0.966 -1.1482  0.1532  0.3026
  151SOL     OW  451   0.182   0.765   2.083 -0.3006 -0.2970 -0.0126
  151SOL    HW1  452   0.170   0.863   2.036  3.1608 -0.5836 -0.8217
  151SOL    HW2  453   0.239   0.703   2.023  0.2077 -0.1437  0.5758
  152SOL     OW  454   1.412   1.772   1.271  0.0182 -0.2420  0.3581
  152SOL    HW1  455   1.431   1.846   1.340 -0.3928  0.8353  1.5270
  152SOL    HW2  456   1.316   1.767   1.233  0.5975  0.0659 -1.2084
  153SOL     OW  457   0.045   1.501   0.165 -0.2169 -0.0004 -0.5046
  153SOL    HW1  458   0.057   1.400   0.159  0.1948 -1.9222 -0.6908
  153SOL    HW2  459   0.042   1.543   0.264  3.4645  0.2491 -0.9735
  154SOL     OW  460   2.406   1.961   2.837 -0.2438 -0.1756  0.0884
  154SOL    HW1  461   2.404   1.860   2.868  1.3470 -2.5066  1.2159
  154SOL    HW2  462   2.443   1.977   2.742  0.0335 -0.6907 -2.0209
  155SOL     OW  463   2.524   1.220   0.413 -0.2614  0.9226 -0.0909
  155SOL    HW1  464   2.610   1.223   0.355 -0.9250 -0.4443 -2.0719
  155SOL    HW2  465   2.499   1.118   0.433  1.6953  0.2127 -0.3610
  156SOL     OW  466   2.516   0.997   0.887  0.2346  0.0235 -0.1797
  156SOL    HW1  467   2.414   1.015   0.870  0.5538  2.4384  0.4307
  156SOL    HW2  468   2.574   1.076   0.861  2.9218  1.5637 -2.2412
  157SOL     OW  469   1.378   2.986   0.008 -0.2220  0.2190  0.2508
  157SOL    HW1  470   1.443   2.943  -0.060  2.2460  1.4757  0.6751
  157SOL    HW2  471   1.340   3.083  -0.019  1.5496  0.9857 -0.9403
  158SOL     OW  472   1.066   1.850   2.023 -0.1451 -0.1011  0.2254
  158SOL    HW1  473   1.088   1.845   2.127 -2.1334  0.1429  0.6131
  158SOL    HW2  474   0.959   1.845   2.011 -1.9859 -0.0149 -0.4038
  159SOL     OW  475   0.872   0.415   1.322 -0.0953 -1.0188  0.2469
  159SOL    HW1  476   0.841   0.506   1.358  0.9505  0.9949 -2.4648
  159SOL    HW2  477   0.834   0.391   1.229  1.1913 -0.6153 -0.3597
  160SOL     OW  478   1.483   2.362   1.638 -0.0641  0.7084 -0.4992
  160SOL    HW1  479   1.511   2.428   1.563  1.4961  0.3183  0.3639
  160SOL    HW2  480   1.561   2.294   1.663 -1.4344  0.8807  2.4863
  161SOL     OW  481   0.131   2.950   0.372 -0.5671  0.0975 -0.5527
  161SOL    HW1  482   0.071   2.871   0.370  4.0132  2.4641 -0.7762
  161SOL    HW2  483   0.111   3.016   0.295  0.6228 -0.5634 -0.6840
  162SOL     OW  484   2.604   1.890   0.506 -0.5276 -0.4640 -0.1159
  162SOL    HW1  485   2.557   1.871   0.412  0.1390  0.0298 -1.8712
  162SOL    HW2  486   2.596   1.810   0.572 -0.0173 -0.9788 -0.6148
  163SOL     OW  487   1.972   2.763   0.761  0.2299 -0.1308  0.0637
  163SOL    HW1  488   1.945   2.780   0.661  1.9354 -1.0735  0.6068
  163SOL    HW2  489   2.008   2.665   0.773 -0.7807 -0.5106 -0.2289
  164SOL     OW  490   0.015   0.245   1.227 -0.6284  0.0684  0.4588
  164SOL    HW1  491   0.090   0.181   1.198 -1.5910  0.1630  1.7795
  164SOL    HW2  492   0.046   0.324   1.286 -1.7601 -1.5735  0.5389
  165SOL     OW  493   0.994   1.370   0.647 -0.2907 -0.6157 -0.3374
  165SOL    HW1  494   0.962   1.457   0.689 -0.7918  0.0386  1.0698
  165SOL    HW2  495   0.979   1.378   0.547 -0.6596 -0.9520  1.1502
  166SOL     OW  496   1.377   1.028   1.783  0.2835  0.4145 -0.1154
  166SOL    HW1  497   1.285   1.003   1.826  0.4233  1.2445  2.7192
  166SOL    HW2  498   1.443   1.043   1.862 -1.2023  0.5330 -3.0616
  167SOL     OW  499   0.889   1.840   1.582 -0.3678  0.4323 -0.2708
  167SOL    HW1  500   0.878   1.938   1.621 -2.8253  0.8074 -2.9136
  167SOL    HW2  501   0.802   1.789   1.569  1.1387 -1.3089 -0.3373
  168SOL     OW  502   1.533   2.370   0.171 -0.2842  0.1250  0.0509
  168SOL    HW1  503   1.604   2.404   0.103 -0.3787  0.5645 -0.2808
  168SOL    HW2  504   1.576   2.343   0.264  0.4183  0.2199  0.8712
  169SOL     OW  505   0.168   2.554   2.172 -0.0693 -0.2438  0.1298
  169SOL    HW1  506   0.217   2.495   2.105  0.8922  0.5432  0.0474
  169SOL    HW2  507   0.123   2.503   2.251  0.1046 -1.8393 -0.3009
  170SOL     OW  508   1.276   0.306   1.924  0.1860 -0.3368 -0.0571
  170SOL    HW1  509   1.298   0.290   2.024 -1.8972 -0.7313 -0.8294
  170SOL    HW2  510   1.232   0.218   1.883  2.2214 -2.6863 -1.8566
  171SOL     OW  511   0.245   0.828   2.415  0.3413  0.0382 -0.3630
  171SOL    HW1  512   0.140   0.837   2.418  1.6289  0.5479 -0.6030
  171SOL    HW2  513   0.271   0.782   2.332 -2.6152  0.6939  3.0961
  172SOL     OW  514   0.896   1.122   2.924  0.2103 -0.1228  0.1718
  172SOL    HW1  515   0.996   1.140   2.929 -1.0919  0.3241  0.9902
  172SOL    HW2  516   0.880   1.084   2.828 -0.8836  1.3006 -0.5750
  173SOL     OW  517   0.684   2.704   0.169 -0.3934 -0.4770  0.2711
  173SOL    HW1  518   0.676   2.807   0.162  0.9358  0.8170  1.5507
  173SOL    HW2  519   0.594   2.656   0.154 -1.8019  1.3129 -0.8378
  174SOL     OW  520   1.306   2.751   1.044  0.1795  0.1167  0.1445
  174SOL    HW1  521   1.327   2.822   0.967  0.3692  0.6418 -0.9773
  174SOL    HW2  522   1.251   2.671   1.005  2.7673 -2.6357 -1.9301
  175SOL     OW  523   0.381   0.021   1.694  0.6339 -0.3870  0.2598
  175SOL    HW1  524   0.443   0.096   1.728 -3.0879 -0.4247 -0.4956
  175SOL    HW2  525   0.306   0.059   1.634  1.2352 -0.9403 -1.8387
  176SOL     OW  526   2.631   0.360   3.020 -0.1680  0.3871 -0.1189
  176SOL    HW1  527   2.627   0.426   3.098 -1.5305 -3.8319  0.9975
  176SOL    HW2  528   2.539   0.317   3.013  0.1297 -2.0063  1.0308
  177SOL     OW  529   0.369   0.328   0.857  0.2919  0.6310  0.0474
  177SOL    HW1  530   0.443   0.289   0.921  0.2456  1.9308  1.1847
  177SOL    HW2  531   0.298   0.389   0.902 -1.8658 -2.7544 -0.5363
  178SOL     OW  532   3.084   2.696   2.609  0.2691  0.0269  0.4011
  178SOL    HW1  533   2.997   2.670   2.660 -1.0260  2.0260  0.6294
  178SOL    HW2  534   3.169   2.713   2.668  4.9903  3.3809 -1.3390
  179SOL     OW  535   3.092   1.766   1.182 -0.1219 -0.5996  0.1564
  179SOL    HW1  536   3.010   1.826   1.159  1.6611 -1.8913 -2.1206
  179SOL    HW2  537   3.070   1.707   1.259  0.6889 -0.3577  1.9645
  180SOL     OW  538   0.178   1.257   1.832  0.1809 -0.3278  0.0021
  180SOL    HW1  539   0.278   1.250   1.810  4.3506  4.7526 -0.0068
  180SOL    HW2  540   0.156   1.340   1.896  0.8308  0.7080 -0.5360
  181SOL     OW  541   2.999   1.820   2.531  0.2019 -0.4178 -0.2244
  181SOL    HW1  542   3.061   1.899   2.485  1.5224 -0.3742  1.0034
  181SOL    HW2  543   2.917   1.808   2.474 -3.7472  1.7011 -1.4588
  182SOL     OW  544   2.303   1.224   1.247 -0.9311 -0.4845 -0.2758
  182SOL    HW1  545   2.224   1.206   1.182 -0.3900 -2.2829 -1.2934
  182SOL    HW2  546   2.340   1.322   1.239  2.7090  1.6451 -1.0276
  183SOL     OW  547   1.515   2.252   2.513  0.2777 -0.3910  0.0250
  183SOL    HW1  548   1.421   2.210   2.514  1.1352  1.5964  0.9043
  183SOL    HW2  549   1.590   2.181   2.522  0.8959 -0.6318  0.7338
  184SOL     OW  550   2.059   0.928   0.726 -0.3533 -0.2329  0.1474
  184SOL    HW1  551   1.974   0.991   0.748 -0.6703 -1.9373  0.5861
  184SOL    HW2  552   2.028   0.827   0.728 -0.5717 -2.0681 -0.6286
  185SOL     OW  553   1.654   2.751   2.159  0.0679 -0.0566 -0.6047
  185SOL    HW1  554   1.598   2.834   2.126  2.3277  1.4412  0.2695
  185SOL    HW2  555   1.648   2.731   2.259  0.4596  0.6154  0.5880
  186SOL     OW  556   0.108   2.232   1.701  0.2113  0.2296  0.5668
  186SOL    HW1  557   0.157   2.320   1.683  2.4952 -1.1486  2.3838
  186SOL    HW2  558   0.173   2.149   1.720 -2.6106 -0.7930 -1.1734
  187SOL     OW  559   1.421   0.649   1.741 -0.0119 -0.3607  0.1637
  187SOL    HW1  560   1.485   0.707   1.678 -0.6205 -0.0490 -2.6877
  187SOL    HW2  561   1.395   0.699   1.831  0.2831  0.2603 -1.4730
  188SOL     OW  562   2.753   2.741   1.525 -0.0552 -0.1101 -0.2170
  188SOL    HW1  563   2.742   2.832   1.481 -0.9718 -1.0414  2.2029
  188SOL    HW2  564   2.719   2.663   1.465  1.6717  0.6168 -1.1627
  189SOL     OW  565   0.712   1.009   1.485 -0.1389  0.6403 -0.0755
  189SOL    HW1  566   0.790   1.075   1.468 -0.2640 -2.3281  0.9727
  189SOL    HW2  567   0.721   0.928   1.421  1.5255 -1.4878  1.0521
  190SOL     OW  568   1.472   1.773   1.660  0.0356  0.1153  0.2826
  190SOL    HW1  569   1.423   1.843   1.606 -0.1949 -0.2102 -0.9343
  190SOL    HW2  570   1.533   1.818   1.732  1.1692  1.0242  0.3208
  191SOL     OW  571   1.032   0.808   1.535  0.6081 -0.4433  0.2867
  191SOL    HW1  572   1.077   0.737   1.598 -0.8949 -0.9616 -0.5259
  191SOL    HW2  573   1.104   0.880   1.499 -1.7711  1.1018 -0.6275
  192SOL     OW  574   1.894   2.203   1.210  0.3565  0.3673 -0.0002
  192SOL    HW1  575   1.797   2.196   1.175  1.3247  2.7590  0.0354
  192SOL    HW2  576   1.952   2.271   1.164  0.6366  1.8172 -1.7884
  193SOL     OW  577   0.508   0.554   0.348 -0.0778 -0.8352  0.5777
  193SOL    HW1  578   0.452   0.469   0.375 -0.2090 -1.3091 -0.3211
  193SOL    HW2  579   0.536   0.546   0.248  0.4757  1.4676 -3.8315
  194SOL     OW  580   0.295   0.815   1.246  0.2087  0.3629 -0.0750
  194SOL    HW1  581   0.192   0.796   1.249  0.9939  2.9295 -0.4444
  194SOL    HW2  582   0.330   0.876   1.170  1.1542  0.2633  0.9842
  195SOL     OW  583   0.928   2.938   0.499  0.2737  0.0649 -0.0232
  195SOL    HW1  584   0.922   2.837   0.477 -1.5083 -0.1068 -0.4403
  195SOL    HW2  585   1.023   2.972   0.496  1.6761 -0.1969 -1.9775
  196SOL     OW  586   0.226   1.460   1.343  0.5713 -0.0979 -0.2378
  196SOL    HW1  587   0.291   1.534   1.385  2.4697 -2.9253 -3.2561
  196SOL    HW2  588   0.211   1.377   1.402  2.3802  1.1440  1.6463
  197SOL     OW  589   0.804   2.001   0.205  0.4734 -0.1909  0.2294
  197SOL    HW1  590   0.821   1.994   0.307  1.1409  1.5957 -1.5073
  197SOL    HW2  591   0.880   1.957   0.146  0.8347 -0.8613 -1.0026
  198SOL     OW  592   0.288   1.189   0.225  0.5954 -0.2383  0.1508
  198SOL    HW1  593   0.183   1.189   0.226 -1.2339 -0.7440 -0.4998
  198SOL    HW2  594   0.329   1.282   0.249 -1.3057 -0.5415  1.0419
  199SOL     OW  595   2.269   0.424   2.477 -0.1128 -0.2670  0.5751
  199SOL    HW1  596   2.204   0.363   2.524 -0.1698 -1.2351 -1.2526
  199SOL    HW2  597   2.371   0.413   2.501  1.5974 -2.3212 -0.5079
  200SOL     OW  598   0.036   2.891   0.814 -0.4540 -0.0910 -0.2338
  200SOL    HW1  599  -0.045   2.868   0.751 -1.8479  0.6905  0.3047
  200SOL    HW2  600   0.069   2.987   0.824 -1.6548  0.6982 -0.5227
  201SOL     OW  601   1.116   0.676   0.549  0.6694  0.4993 -0.0049
  201SOL    HW1  602   1.124   0.755   0.622 -0.1054  0.3176  2.8449
  201SOL    HW2  603   1.019   0.653   0.518  4.4878  0.6826 -1.1382
  202SOL     OW  604   0.430   1.219   1.775 -0.1266 -0.2736  0.0164
  202SOL    HW1  605   0.492   1.255   1.699  0.3745 -0.5251  0.8445
  202SOL    HW2  606   0.474   1.134   1.821  0.1320  1.6133 -2.7497
  203SOL     OW  607   0.590   0.228   1.534  0.2210 -0.5063  0.0602
  203SOL    HW1  608   0.614   0.169   1.452 -0.9091  2.8408 -0.8277
  203SOL    HW2  609   0.617   0.182   1.622 -0.3087  1.5391 -1.5151
  204SOL     OW  610   2.078   1.888   3.013 -0.2719 -0.3066  0.7430
  204SOL    HW1  611   2.062   1.788   2.996 -1.2052  2.7344 -2.7129
  204SOL    HW2  612   2.019   1.950   2.951  0.5330 -1.4339  0.1973
  205SOL     OW  613   1.891   1.857   0.131 -0.1444  0.4614 -0.5049
  205SOL    HW1  614   1.971   1.890   0.076 -0.0448  0.1220  0.9118
  205SOL    HW2  615   1.801   1.908   0.108  1.9241 -1.5226  0.2844
  206SOL     OW  616   2.507   2.800   0.392 -0.1347 -0.0904  0.0725
  206SOL    HW1  617   2.564   2.716   0.407 -1.2509  0.1405  1.0735
  206SOL    HW2  618   2.555   2.857   0.319 -0.2190 -0.8462  0.5972
  207SOL     OW  619   0.534   1.736   2.863  0.6173  0.0239 -0.6400
  207SOL    HW1  620   0.634   1.707   2.854  0.7038 -0.8487  0.8762
  207SOL    HW2  621   0.484   1.679   2.930 -1.5352  3.9714 -1.7628
  208SOL     OW  622   1.052   1.432   1.355 -0.1186  0.3561  0.5049
  208SOL    HW1  623   0.960   1.472   1.325 -1.6352 -0.4390 -1.6600
  208SOL    HW2  624   1.094   1.481   1.438 -0.3071  0.4874  0.5330
  209SOL     OW  625   0.152   0.902   3.088 -0.1862  0.5479  0.2709
  209SOL    HW1  626   0.210   0.877   3.000  2.8153  1.5409 -0.6865
  209SOL    HW2  627   0.198   0.875   3.178  0.1032  1.7373  0.5333
  210SOL     OW  628   1.721   0.438   1.162 -0.3227  0.6147 -0.1769
  210SOL    HW1  629   1.668   0.524   1.128  0.9841  3.2387  0.7556
  210SOL    HW2  630   1.813   0.438   1.121  1.2609  1.0491 -0.5437
  211SOL     OW  631   2.110   1.051   1.652 -0.3720  0.6345  0.3358
  211SOL    HW1  632   2.143   1.002   1.733  0.3697 -0.6461 -0.5308
  211SOL    HW2  633   2.186   1.100   1.603 -0.9446 -2.7303  3.5417
  212SOL     OW  634   0.042   1.012   1.448 -0.1165 -0.0469 -0.5820
  212SOL    HW1  635   0.103   1.091   1.478 -1.0548 -0.2218 -0.7231
  212SOL    HW2  636   0.042   0.937   1.519 -1.2654 -3.0253 -0.8464
  213SOL     OW  637   2.751   0.283   0.289 -0.7092  0.1719 -0.4867
  213SOL    HW1  638   2.839   0.233   0.281  0.8655 -1.1526 -0.3405
  213SOL    HW2  639   2.712   0.318   0.198 -0.3599 -0.0536 -0.5197
  214SOL     OW  640   2.144   0.297   2.255  0.9391  0.3183 -0.1314
  214SOL    HW1  641   2.215   0.324   2.330 -0.3337  0.6643  0.2705
  214SOL    HW2  642   2.105   0.203   2.273  1.1460  1.5298 -0.8236
  215SOL     OW  643   1.700   2.287   2.043  0.0383  0.5893  0.4731
  215SOL    HW1  644   1.802   2.282   2.044  2.2247  0.3305 -0.2498
  215SOL    HW2  645   1.660   2.374   2.081 -3.0282  0.8259  0.5665
  216SOL     OW  646   2.250   0.539   0.652 -0.0665 -0.0469  0.0388
  216SOL    HW1  647   2.203   0.477   0.592  0.6725  0.5457  2.5863
  216SOL    HW2  648   2.272   0.627   0.600 -0.4472  2.4072 -0.8153
  217SOL     OW  649   0.793   2.788   2.439 -0.5551 -0.5839 -0.1386
  217SOL    HW1  650   0.763   2.697   2.472  0.8663 -0.1497 -0.5285
  217SOL    HW2  651   0.800   2.801   2.340 -0.4082  0.7008  0.3780
  218SOL     OW  652   1.933   1.431   3.092 -0.0567  0.5203  0.4571
  218SOL    HW1  653   1.838   1.470   3.069 -0.5739  2.8804 -1.4390
  218SOL    HW2  654   1.931   1.336   3.142  2.4372 -2.0759 -0.1277
  219SOL     OW  655   2.373   1.294   2.587 -0.0251  0.4795 -0.0683
  219SOL    HW1  656   2.452   1.268   2.527  0.7491 -1.2956 -2.9631
  219SOL    HW2  657   2.358   1.231   2.674 -0.2926  0.5468 -2.0360
  220SOL     OW  658   1.448   1.023   1.254 -0.7030  0.5181 -0.7875
  220SOL    HW1  659   1.550   1.009   1.269  1.0324 -1.7807  3.2959
  220SOL    HW2  660   1.417   1.113   1.300 -1.0247  3.8691 -0.8884
  221SOL     OW  661   1.297   1.105   2.157  0.0468 -0.0651 -0.0086
  221SOL    HW1  662   1.247   1.188   2.115  1.3532  0.4004  0.5482
  221SOL    HW2  663   1.389   1.082   2.110 -0.1998 -0.0816 -0.7692
  222SOL     OW  664   1.325   0.157   1.132 -0.4284 -0.2943  0.2544
  222SOL    HW1  665   1.409   0.128   1.084  0.1032  1.6899  1.0727
  222SOL    HW2  666   1.332   0.244   1.189 -0.0640 -1.2105  0.5922
  223SOL     OW  667   2.871   0.791   1.986 -0.0546  0.5935 -0.5771
  223SOL    HW1  668   2.881   0.810   2.087  0.9184  0.4828 -1.5881
  223SOL    HW2  669   2.892   0.876   1.932  0.3864  0.4553  2.0454
  224SOL     OW  670   1.564   1.038   2.788  0.1009 -0.4571 -0.2681
  224SOL    HW1  671   1.563   0.962   2.720  2.1283 -1.7917  0.2146
  224SOL    HW2  672   1.538   1.135   2.739 -0.4960 -0.6743 -3.0649
  225SOL     OW  673   2.964   2.816   2.937 -0.0531 -0.6559 -0.4407
  225SOL    HW1  674   2.912   2.739   2.886 -0.8933  1.1809  2.2116
  225SOL    HW2  675   2.993   2.902   2.881 -0.5793  1.0905 -0.4897
  226SOL     OW  676   2.456   1.683   2.846 -0.1326  1.0674 -0.2850
  226SOL    HW1  677   2.499   1.637   2.765 -1.0550 -0.3028 -1.8889
  226SOL    HW2  678   2.420   1.623   2.922  0.3769 -0.8532 -0.0509
  227SOL     OW  679   0.772   0.137   2.962 -0.3106  0.0224  0.8716
  227SOL    HW1  680   0.817   0.066   3.022  0.2136  1.4862  0.8981
  227SOL    HW2  681   0.801   0.135   2.860 -0.6804 -0.2591 -1.3203
  228SOL     OW  682   2.360   0.542   2.783  0.2031  0.4288  0.1125
  228SOL    HW1  683   2.320   0.613   2.717  0.0210 -1.4166  0.5656
  228SOL    HW2  684   2.442   0.490   2.746 -0.2594 -2.0180 -0.3437
  229SOL     OW  685   0.602   0.503   1.873 -0.5282  0.2359  0.3753
  229SOL    HW1  686   0.609   0.495   1.769 -0.8442 -3.1875 -0.5334
  229SOL    HW2  687   0.689   0.495   1.929  4.7558  0.2107  2.8368
  230SOL     OW  688   1.925   1.221   2.135  0.2915 -0.2759  0.5349
  230SOL    HW1  689   1.997   1.264   2.075 -1.7859 -0.5938  0.9968
  230SOL    HW2  690   1.841   1.281   2.159 -2.1302  1.3681 -0.8494
  231SOL     OW  691   0.633   1.089   2.946  0.0913 -0.6061 -0.1660
  231SOL    HW1  692   0.725   1.138   2.929  0.4000 -1.8441 -1.8881
  231SOL    HW2  693   0.599   1.079   3.048  1.7372  1.0489 -0.3476
  232SOL     OW  694   2.534   0.024   2.731  0.1017  0.2253  0.3298
  232SOL    HW1  695   2.536  -0.071   2.772  0.6396  0.5607  0.0654
  232SOL    HW2  696   2.519   0.026   2.629 -0.3238  2.5112  0.8620
  233SOL     OW  697   1.733   1.290   1.058 -0.1360 -0.1625 -0.7588
  233SOL    HW1  698   1.735   1.337   0.967  0.5956  2.7855  1.2499
  233SOL    HW2  699   1.791   1.207   1.060  2.4742  0.8286  1.9036
  234SOL     OW  700   1.623   2.588   1.918 -0.2003  0.5309 -0.4283
  234SOL    HW1  701   1.632   2.642   2.004  1.2612 -0.2543 -1.7671
  234SOL    HW2  702   1.544   2.520   1.919  2.0952 -2.6985  3.2829
  235SOL     OW  703   0.001   3.014   2.823  0.2262 -0.6261 -0.0516
  235SOL    HW1  704   0.078   3.056   2.771  0.4579  1.0593  0.6427
  235SOL    HW2  705  -0.032   3.074   2.903  0.1629 -0.4987 -0.1251
  236SOL     OW  706   2.856   0.707   0.044 -0.4046  0.2280  0.0166
  236SOL    HW1  707   2.919   0.769   0.100 -0.0048 -0.3918  1.3713
  236SOL    HW2  708   2.907   0.645  -0.025 -2.2126  0.5122  0.3427
  237SOL     OW  709   1.483   1.645   1.009 -0.1089  0.7799 -0.3810
  237SOL    HW1  710   1.586   1.625   1.020  1.7383 -0.5359  1.2299
  237SOL    HW2  711   1.444   1.693   1.091  0.5838 -0.4014 -0.5738
  238SOL     OW  712   1.780   1.349   0.755 -0.2098 -0.3949  0.4174
  238SOL    HW1  713   1.854   1.374   0.690 -0.1712 -1.7347  0.2524
  238SOL    HW2  714   1.696   1.404   0.748  1.3076 -2.1285  1.5104
  239SOL     OW  715   2.141   0.283   2.686 -0.2353  0.1689  0.2506
  239SOL    HW1  716   2.226   0.266   2.742  1.0781  1.6574  1.5838
  239SOL    HW2  717   2.071   0.338   2.737  0.5455 -1.9088  0.3157
  240SOL     OW  718   0.873   0.722   0.234 -0.0966 -0.4460 -0.4685
  240SOL    HW1  719   0.855   0.645   0.166  1.4793  1.2778 -1.8139
  240SOL    HW2  720   0.859   0.698   0.333 -1.4448  0.9564  3.1886
  241SOL     OW  721   0.567   0.025   0.352 -0.6486  0.2977 -0.0236
  241SOL    HW1  722   0.598  -0.029   0.273 -1.4411 -2.1457 -1.3045
  241SOL    HW2  723   0.480  -0.019   0.393  1.5430  0.4744  0.7380
  242SOL     OW  724   0.693   2.424   1.145  0.6812 -0.6548 -0.2355
  242SOL    HW1  725   0.690   2.493   1.223 -0.5061 -1.5467  0.6579
  242SOL    HW2  726   0.759   2.449   1.071 -2.6944 -0.9892  0.8881
  243SOL     OW  727   1.074   0.622   2.496 -0.0399  0.1929 -0.3209
  243SOL    HW1  728   1.011   0.689   2.443  0.9832  0.8208  1.0622
  243SOL    HW2  729   1.020   0.539   2.530  0.1004 -1.7862 -2.9348
  244SOL     OW  730   2.826   2.002   2.355 -0.2643  0.0734  0.5715
  244SOL    HW1  731   2.858   1.985   2.259 -0.5621  1.5386  4.1537
  244SOL    HW2  732   2.743   1.945   2.384 -1.1103  0.8008  0.2937
  245SOL     OW  733   2.479   0.710   2.181 -0.0066 -0.1832 -0.5016
  245SOL    HW1  734   2.469   0.777   2.258 -2.8652 -0.2379 -0.4922
  245SOL    HW2  735   2.521   0.621   2.205  1.0968  0.5716  0.1771
  246SOL     OW  736   0.269   2.856   1.763 -1.2386  0.3721 -0.2321
  246SOL    HW1  737   0.173   2.842   1.725 -2.3229 -1.2339 -0.8934
  246SOL    HW2  738   0.326   2.936   1.725 -0.6328 -0.3876 -0.7696
  247SOL     OW  739   2.203   0.515   2.999 -0.1739  0.7659  0.4519
  247SOL    HW1  740   2.281   0.517   2.927  1.2453  1.0849  0.0021
  247SOL    HW2  741   2.139   0.591   2.978 -1.5223 -2.7887 -0.5205
  248SOL     OW  742   2.186   1.875   1.610  0.0512  0.0462  0.5927
  248SOL    HW1  743   2.241   1.790   1.634  0.9149  0.1176 -0.5217
  248SOL    HW2  744   2.086   1.851   1.598 -0.8831 -0.0516 -0.6378
  249SOL     OW  745   2.004   1.944   1.930  0.3662 -0.5361  0.2868
  249SOL    HW1  746   1.984   1.905   1.833 -2.0966 -0.0484  0.2149
  249SOL    HW2  747   2.092   1.999   1.932 -1.2122  1.2929  1.2209
  250SOL     OW  748   1.011   0.648   1.887 -0.1465  0.0066 -0.2879
  250SOL    HW1  749   1.085   0.615   1.948 -3.3367  3.3603  2.3059
  250SOL    HW2  750   1.025   0.609   1.789  1.6823  0.2209 -0.8240
  251SOL     OW  751   3.043   1.554   2.596  0.2299  0.0786 -0.1895
  251SOL    HW1  752   3.051   1.652   2.558 -1.0659  2.6502  0.3719
  251SOL    HW2  753   2.943   1.525   2.603 -0.5256 -0.6011 -1.4832
  252SOL     OW  754   1.546   0.885   1.608  0.0196 -0.6258 -0.3367
  252SOL    HW1  755   1.609   0.950   1.556  1.4158 -1.9516 -0.4373
  252SOL    HW2  756   1.491   0.931   1.682  0.4230 -2.3373 -1.9235
  253SOL     OW  757   1.003   1.526   0.374  0.1605  0.1042  0.3594
  253SOL    HW1  758   1.074   1.488   0.303 -2.6656  0.4337  0.8304
  253SOL    HW2  759   0.915   1.490   0.351  2.5994  0.4855  1.3321
  254SOL     OW  760   1.998   2.130   1.609 -0.1945  0.6299  0.1426
  254SOL    HW1  761   1.967   2.068   1.534  2.6154 -0.6489 -1.3049
  254SOL    HW2  762   1.930   2.136   1.690 -2.5369 -0.3992 -0.2069
  255SOL     OW  763   0.116   1.158   2.944 -0.3204 -0.9603 -0.4470
  255SOL    HW1  764   0.193   1.233   2.939 -1.3488  2.0308 -1.0646
  255SOL    HW2  765   0.131   1.078   3.004  1.8671 -0.8646 -2.9382
  256SOL     OW  766   2.719   1.308   1.839  0.7427  0.4195 -0.2032
  256SOL    HW1  767   2.666   1.318   1.754 -0.5255  2.1575  1.5009
  256SOL    HW2  768   2.681   1.228   1.892 -0.6086 -0.2571 -0.1689
  257SOL     OW  769   0.846   0.238   1.865  0.3986  0.4680 -0.0196
  257SOL    HW1  770   0.905   0.281   1.790 -1.2054  1.4259 -0.6021
  257SOL    HW2  771   0.853   0.135   1.864 -0.5707  0.2781 -0.3723
  258SOL     OW  772   2.940   1.284   0.401 -0.1889  0.1800  0.0783
  258SOL    HW1  773   2.872   1.357   0.387 -1.0470 -0.4782  0.6704
  258SOL    HW2  774   2.980   1.284   0.495 -0.8038  0.1549 -1.1394
  259SOL     OW  775   0.512   2.869   2.998  0.1909 -0.3733  0.3157
  259SOL    HW1  776   0.482   2.845   3.097  2.7108  1.0230  0.6406
  259SOL    HW2  777   0.478   2.810   2.919  1.4905  1.3829 -1.7455
  260SOL     OW  778   2.658   0.740   2.691 -0.7047  0.3322 -0.4651
  260SOL    HW1  779   2.566   0.783   2.690  1.0455  2.5535  0.8256
  260SOL    HW2  780   2.665   0.656   2.750  1.3911 -0.0357 -1.5312
  261SOL     OW  781   2.716   1.298   1.316 -0.2306 -0.4123 -0.4312
  261SOL    HW1  782   2.668   1.212   1.281  0.7372 -2.0291  1.3453
  261SOL    HW2  783   2.811   1.282   1.354  0.8760  1.6801 -0.9752
  262SOL     OW  784   1.499   2.954   2.042  0.0149 -0.2106  0.1040
  262SOL    HW1  785   1.498   3.023   1.968 -0.0444 -1.3053 -1.5777
  262SOL    HW2  786   1.444   2.867   2.020  3.1852 -0.9106 -0.7155
  263SOL     OW  787   0.886   0.745   2.343  0.4148  0.0728 -0.1840
  263SOL    HW1  788   0.857   0.662   2.288  1.4502  1.1292  0.6676
  263SOL    HW2  789   0.884   0.834   2.289  0.1665 -0.5276  2.8708
  264SOL     OW  790   2.291   0.758   0.495 -0.3728  0.1390  0.6206
  264SOL    HW1  791   2.206   0.790   0.444 -1.4309 -1.5898 -0.9457
  264SOL    HW2  792   2.362   0.828   0.488 -2.6488  2.1427 -0.4057
  265SOL     OW  793   0.910   2.317   2.698 -0.2053  0.0606 -0.1722
  265SOL    HW1  794   0.972   2.388   2.751 -1.8557  2.7026 -0.0868
  265SOL    HW2  795   0.862   2.254   2.761 -0.6712  2.6892  0.7003
  266SOL     OW  796   1.283   1.740   0.025  0.1674  0.2213  0.0582
  266SOL    HW1  797   1.240   1.796   0.105 -0.5122 -0.4102  0.8125
  266SOL    HW2  798   1.388   1.742   0.028 -1.6546 -0.9905 -1.1175
  267SOL     OW  799   1.101   0.017   2.310  0.1392 -0.0904 -0.2378
  267SOL    HW1  800   1.096  -0.063   2.243  0.2463 -0.0767  0.2921
  267SOL    HW2  801   1.190   0.064   2.306 -2.7445  2.6442  0.4460
  268SOL     OW  802   0.631   1.150   1.086 -0.6639 -0.0651 -0.0973
  268SOL    HW1  803   0.652   1.210   1.169 -0.1845 -1.3411  0.3277
  268SOL    HW2  804   0.679   1.191   1.010 -1.9365 -1.7400  0.3591
  269SOL     OW  805   2.436   2.567   1.573  0.6853  0.8663 -0.5153
  269SOL    HW1  806   2.495   2.482   1.573  1.0020 -0.6416 -1.6562
  269SOL    HW2  807   2.389   2.587   1.664 -0.6749 -0.0312 -0.2139
  270SOL     OW  808   0.308   2.763   2.046  0.3838  0.0913 -0.6537
  270SOL    HW1  809   0.287   2.773   1.944  1.0874 -1.5219 -1.5000
  270SOL    HW2  810   0.234   2.712   2.096  0.0549  0.9109  0.4579
  271SOL     OW  811   0.412   1.370   1.147 -0.8838  0.0536 -0.5837
  271SOL    HW1  812   0.397   1.391   1.050  1.7514 -1.2634 -0.1272
  271SOL    HW2  813   0.324   1.374   1.204  1.7579  1.1392  1.2252
  272SOL     OW  814   1.976   2.817   1.884  0.4125  0.2402  0.0240
  272SOL    HW1  815   1.905   2.812   1.807 -0.7939  0.5064  1.5419
  272SOL    HW2  816   2.053   2.877   1.858 -2.9995  0.3048  0.6354
  273SOL     OW  817   1.402   1.426   2.885 -0.4683  0.2978  0.8761
  273SOL    HW1  818   1.484   1.448   2.943  1.1892 -0.1974 -1.5068
  273SOL    HW2  819   1.312   1.445   2.930  0.6698  1.6501 -1.6260
  274SOL     OW  820   1.118   0.486   2.087  0.3585  0.1693 -0.3899
  274SOL    HW1  821   1.162   0.420   2.023  2.1944 -1.7809 -1.7372
  274SOL    HW2  822   1.180   0.506   2.172 -0.1153  2.1200  0.2543
  275SOL     OW  823   0.649   2.092   1.910 -0.6257 -0.2312  0.5823
  275SOL    HW1  824   0.634   2.187   1.949  1.0446 -1.5514  1.4887
  275SOL    HW2  825   0.566   2.028   1.910  0.8898  0.3602 -3.2721
  276SOL     OW  826   2.162   0.916   2.763  0.0744  0.4651  0.2781
  276SOL    HW1  827   2.086   0.975   2.726 -1.8779  1.6375 -0.2218
  276SOL    HW2  828   2.142   0.815   2.774 -0.1253  1.6489  1.9053
  277SOL     OW  829   3.020   0.831   0.216 -1.0485 -0.6376 -0.0622
  277SOL    HW1  830   3.088   0.848   0.145  2.1245 -1.0126  0.3202
  277SOL    HW2  831   3.051   0.751   0.269  2.6115 -3.4480 -1.3364
  278SOL     OW  832   0.225   0.289   2.926 -0.4928  0.3002  0.2983
  278SOL    HW1  833   0.331   0.286   2.933 -0.7631 -1.5357  0.0830
  278SOL    HW2  834   0.186   0.368   2.977 -1.8311 -0.0076 -2.2456
  279SOL     OW  835   0.127   0.033   0.882  0.4833 -0.6059 -0.2091
  279SOL    HW1  836   0.155   0.020   0.980  1.0744  0.6846 -0.3297
  279SOL    HW2  837   0.215   0.050   0.822  0.9636 -0.8937 -1.8782
  280SOL     OW  838   1.661   2.937   2.491  0.2377 -0.1584  0.0315
  280SOL    HW1  839   1.721   2.998   2.545 -0.4758 -2.1776 -1.2326
  280SOL    HW2  840   1.567   2.985   2.490  2.2039  2.3947  2.5125
  281SOL     OW  841   0.653   1.005   2.335 -0.0757 -0.4818 -0.2019
  281SOL    HW1  842   0.661   0.994   2.234 -0.0087  0.7051  0.7334
  281SOL    HW2  843   0.611   0.926   2.383 -0.9914 -0.1594 -0.7183
  282SOL     OW  844   1.647   2.493   0.580 -0.1857 -0.1463  0.1261
  282SOL    HW1  845   1.622   2.435   0.499  0.4348  2.2189 -0.3674
  282SOL    HW2  846   1.623   2.593   0.561  0.4071 -0.4528 -0.9086
  283SOL     OW  847   1.091   0.898   0.702 -0.5856  0.6313 -0.5724
  283SOL    HW1  848   1.116   0.857   0.793  1.0690  0.8108 -0.0309
  283SOL    HW2  849   1.029   0.975   0.712  4.2385  0.0618 -0.1008
  284SOL     OW  850   2.215   2.835   2.425  0.2996  0.3467 -0.7584
  284SOL    HW1  851   2.221   2.901   2.503  0.2093 -0.7455  0.6201
  284SOL    HW2  852   2.244   2.876   2.333  0.4123 -0.8953  3.6491
  285SOL     OW  853   1.377   3.061   2.531  0.0766 -0.2191  0.0728
  285SOL    HW1  854   1.391   3.061   2.425 -1.4559  1.8647 -0.3316
  285SOL    HW2  855   1.294   3.110   2.559  1.1902  1.7812  1.1319
  286SOL     OW  856   0.417   0.473   0.638  0.0139  0.4541 -0.0995
  286SOL    HW1  857   0.383   0.417   0.727 -1.7066 -0.2642 -0.4496
  286SOL    HW2  858   0.420   0.402   0.557 -1.2789  0.4150 -0.6872
  287SOL     OW  859   0.066   1.292   2.531 -0.5764 -0.2117  0.1227
  287SOL    HW1  860   0.053   1.203   2.592 -2.2880  0.9800  0.3094
  287SOL    HW2  861  -0.002   1.367   2.556  2.2291 -0.7526 -0.7540
  288SOL     OW  862   1.578   2.568   1.492 -0.3887 -0.0428  0.9010
  288SOL    HW1  863   1.650   2.584   1.567 -0.8435 -2.1877 -1.0144
  288SOL    HW2  864   1.615   2.585   1.392  1.9554 -0.2376 -3.6989
  289SOL     OW  865   0.627   2.741   0.827  0.0695 -0.0702 -0.4089
  289SOL    HW1  866   0.639   2.825   0.770 -1.4436 -1.0371 -1.4668
  289SOL    HW2  867   0.662   2.750   0.926  0.3741 -1.8253 -1.3669
  290SOL     OW  868   2.958   1.265   1.677 -0.2064 -0.6714  0.2937
  290SOL    HW1  869   2.876   1.245   1.738 -1.9588  2.8817  2.1430
  290SOL    HW2  870   3.034   1.203   1.699 -2.5429 -0.6863  2.3654
  291SOL     OW  871   1.993   0.029   0.095 -0.0973 -0.0129  0.0255
  291SOL    HW1  872   2.028  -0.006   0.190  0.2686  0.5742  1.5100
  291SOL    HW2  873   2.037   0.114   0.055  2.2066 -1.9911 -1.5695
  292SOL     OW  874   2.977   1.181   3.063  0.4987 -0.2915 -0.0093
  292SOL    HW1  875   2.893   1.208   3.005  0.0273 -2.4364 -2.1642
  292SOL    HW2  876   3.062   1.157   3.009  2.0672  0.9590  0.7006
  293SOL     OW  877   0.549   2.071   0.156 -0.5068 -0.3717  0.2388
  293SOL    HW1  878   0.503   2.116   0.239 -2.1274 -0.3027 -0.7311
  293SOL    HW2  879   0.653   2.049   0.169  0.6475 -0.8242 -0.9614
  294SOL     OW  880   1.627   2.113   1.859  0.5239 -0.1747  0.1555
  294SOL    HW1  881   1.655   2.176   1.942 -1.5616 -1.5219  1.3950
  294SOL    HW2  882   1.664   2.149   1.768  0.7140  0.2233 -2.0883
  295SOL     OW  883   0.967   1.192   0.394  0.0653  0.0936  0.3780
  295SOL    HW1  884   1.034   1.188   0.466 -1.5574  3.3114 -0.3822
  295SOL    HW2  885   0.884   1.144   0.427 -1.0450  0.4632  0.8279
  296SOL     OW  886   1.290   2.100   2.537 -0.0397 -0.3952  0.3340
  296SOL    HW1  887   1.236   2.164   2.478 -2.0310  1.2737 -1.5344
  296SOL    HW2  888   1.304   2.013   2.481  0.2338 -1.6043  0.1255
  297SOL     OW  889   1.525   0.707   1.371  0.3450 -0.1856 -0.1294
  297SOL    HW1  890   1.572   0.642   1.438  0.9490  1.1481  0.9606
  297SOL    HW2  891   1.519   0.803   1.406  1.3515  0.9726 -0.5465
  298SOL     OW  892   0.553   1.319   2.824  0.5073 -0.4317 -0.3257
  298SOL    HW1  893   0.562   1.225   2.873 -0.5125 -1.8874 -1.0994
  298SOL    HW2  894   0.595   1.314   2.731 -1.6856 -0.6910 -1.7958
  299SOL     OW  895   0.357   0.381   1.496  0.1082 -0.0770 -0.6539
  299SOL    HW1  896   0.358   0.440   1.410  1.3862  0.2358 -0.0413
  299SOL    HW2  897   0.448   0.334   1.512 -0.0014  0.0027  2.3210
  300SOL     OW  898   1.270   1.806   2.840 -0.8915 -0.0105  0.2776
  300SOL    HW1  899   1.283   1.736   2.764 -0.0208 -1.6733  0.4652
  300SOL    HW2  900   1.250   1.761   2.931  2.1037  0.0740 -1.1789
  301SOL     OW  901   0.430   0.288   0.420 -0.0419  0.4143 -0.3125
  301SOL    HW1  902   0.333   0.281   0.391  1.1037 -0.8009  0.4121
  301SOL    HW2  903   0.491   0.210   0.389  1.6417  0.7591 -2.0345
  302SOL     OW  904   1.181   2.298   2.359 -0.3350 -0.4364 -0.1919
  302SOL    HW1  905   1.120   2.357   2.425  0.7044 -0.9332 -1.9376
  302SOL    HW2  906   1.122   2.237   2.304 -1.0564  1.3418  0.0859
  303SOL     OW  907   0.942   2.406   0.757  0.3476 -0.0745  0.3399
  303SOL    HW1  908   0.993   2.477   0.700 -0.3654 -1.0736 -1.0186
  303SOL    HW2  909   0.918   2.437   0.852  1.4645  1.7020 -0.7381
  304SOL     OW  910   0.072   2.005   0.684 -0.3588  0.6865  0.4508
  304SOL    HW1  911   0.138   1.966   0.615  1.1427 -1.2990 -2.8134
  304SOL    HW2  912   0.007   2.070   0.638  2.9291  0.1697 -2.1378
  305SOL     OW  913   1.619   0.881   0.687  0.2868 -0.3038  0.3172
  305SOL    HW1  914   1.539   0.906   0.626  2.5318 -0.4290  0.6060
  305SOL    HW2  915   1.690   0.821   0.642 -0.4575  2.2963 -1.3610
  306SOL     OW  916   0.431   1.912   1.940  0.0713 -0.5374 -0.3649
  306SOL    HW1  917   0.481   1.842   1.884  2.1175  3.5577 -1.5777
  306SOL    HW2  918   0.423   1.887   2.042  1.8462  1.2314 -1.0738
  307SOL     OW  919   3.095   0.861   2.534 -0.0455 -0.3773 -0.2616
  307SOL    HW1  920   3.108   0.955   2.577 -0.4592  1.3054 -0.4512
  307SOL    HW2  921   2.992   0.842   2.525 -0.7649 -1.6297 -1.7294
  308SOL     OW  922   1.573   2.676   2.816  0.0720 -0.3558  0.5883
  308SOL    HW1  923   1.618   2.646   2.728  1.5092  2.4101 -3.2444
  308SOL    HW2  924   1.525   2.597   2.867  1.9335 -1.5930 -1.3046
  309SOL     OW  925   1.241   0.015   1.802 -0.2955  0.4459 -0.5053
  309SOL    HW1  926   1.336  -0.002   1.833  0.7572 -0.0181 -1.4999
  309SOL    HW2  927   1.226   0.052   1.710  0.6190 -2.8465  1.5828
  310SOL     OW  928   1.408   2.668   0.696 -1.5040 -0.2377  0.4719
  310SOL    HW1  929   1.362   2.753   0.739 -4.1669  2.6564 -1.2518
  310SOL    HW2  930   1.502   2.686   0.654  0.9107  2.0422  1.5672
  311SOL     OW  931   1.215   0.981   1.458  0.0148 -0.0579 -0.0403
  311SOL    HW1  932   1.294   0.976   1.391  1.2332 -1.9988 -3.8417
  311SOL    HW2  933   1.232   1.049   1.534 -2.1816 -0.9205 -0.0557
  312SOL     OW  934   1.625   0.646   1.016 -0.8312  0.3501  0.4010
  312SOL    HW1  935   1.599   0.742   1.041 -0.7597  0.6603  0.7059
  312SOL    HW2  936   1.550   0.602   0.963 -0.7252  0.2192  0.2725
  313SOL     OW  937   1.587   1.446   0.488  0.2797  0.2579  0.3012
  313SOL    HW1  938   1.497   1.407   0.467  0.6861  0.0040  1.3252
  313SOL    HW2  939   1.670   1.398   0.446  0.0377 -1.1672 -1.8364
  314SOL     OW  940   2.918   0.087   3.040  0.1539  0.6163 -1.0475
  314SOL    HW1  941   2.948   0.109   3.136  1.0889  0.6320  0.4104
  314SOL    HW2  942   2.847   0.010   3.037  0.6445 -0.8561  0.0500
  315SOL     OW  943   1.274   0.238   2.772 -0.4900  0.0260  0.4196
  315SOL    HW1  944   1.219   0.169   2.714 -0.6325  1.9510  0.5345
  315SOL    HW2  945   1.288   0.208   2.870 -0.2357 -0.7123  0.0933
  316SOL     OW  946   1.709   2.082   0.911 -0.4430 -0.4395  0.0175
  316SOL    HW1  947   1.677   2.078   1.013 -2.4049  1.2517  0.0526
  316SOL    HW2  948   1.718   2.176   0.884  2.2935 -0.1771  0.9825
  317SOL     OW  949   1.161   0.712   2.818  0.1040  0.3048  0.0255
  317SOL    HW1  950   1.103   0.737   2.900  0.5870 -2.4732 -0.0859
  317SOL    HW2  951   1.135   0.619   2.776 -1.2855  2.0119 -0.1455
  318SOL     OW  952   1.405   3.088   2.267 -0.1581 -0.4679 -0.0257
  318SOL    HW1  953   1.374   3.180   2.243 -0.4254 -0.8997  2.4436
  318SOL    HW2  954   1.450   3.032   2.189 -0.7003 -0.9585  0.8235
  319SOL     OW  955   0.642   2.382   2.939 -0.3490 -0.4962  0.1322
  319SOL    HW1  956   0.551   2.353   2.975  2.1901  0.3592 -0.8671
  319SOL    HW2  957   0.722   2.324   2.965 -1.5753 -0.0672  0.5478
  320SOL     OW  958   1.619   2.270   0.406  0.0673  0.0745 -0.8670
  320SOL    HW1  959   1.717   2.231   0.428 -0.4894 -2.3741 -1.7001
  320SOL    HW2  960   1.546   2.216   0.455 -0.4506 -0.9319  0.2509
  321SOL     OW  961   1.609   2.762   0.545  0.1203  0.1540 -0.3156
  321SOL    HW1  962   1.525   2.803   0.502 -1.6340 -1.2480  0.7594
  321SOL    HW2  963   1.678   2.835   0.569  2.0026  1.5183  2.0899
  322SOL     OW  964   2.677   1.082   2.245 -0.0949 -0.2242 -0.7219
  322SOL    HW1  965   2.759   1.128   2.287  0.7759 -1.7701  0.6311
  322SOL    HW2  966   2.628   1.012   2.305 -1.7450 -2.1438  1.2506
  323SOL     OW  967   1.009   2.713   0.865  0.3420 -0.4762 -0.1791
  323SOL    HW1  968   1.026   2.688   0.768  0.9944 -0.2978 -0.9341
  323SOL    HW2  969   1.018   2.818   0.873  0.8965 -0.1343 -2.5917
  324SOL     OW  970   0.099   2.498   2.428  0.6421  0.2482  0.1102
  324SOL    HW1  971   0.083   2.395   2.453 -1.4837 -0.6428 -0.2158
  324SOL    HW2  972   0.051   2.569   2.488 -1.1315  0.5894  0.6606
  325SOL     OW  973   1.183   3.065   0.479 -0.1873  0.2457  0.0798
  325SOL    HW1  974   1.205   3.109   0.389 -2.5329 -1.9648  1.4847
  325SOL    HW2  975   1.210   3.125   0.562 -4.3369 -1.1502 -0.0799
  326SOL     OW  976   2.304   0.788   0.058 -0.0997 -0.2163 -0.5096
  326SOL    HW1  977   2.218   0.774  -0.001  1.4369 -2.7646 -1.6225
  326SOL    HW2  978   2.347   0.697   0.088  2.7025  0.8207  1.4970
  327SOL     OW  979   2.710   0.428   0.531  0.2570 -0.4217 -0.0041
  327SOL    HW1  980   2.722   0.368   0.446  1.1602 -0.3616 -0.4730
  327SOL    HW2  981   2.631   0.399   0.591  0.5276 -0.0310 -0.0945
  328SOL     OW  982   2.526   0.626   0.353 -0.2591  0.2818  0.1205
  328SOL    HW1  983   2.431   0.654   0.394 -2.0599  1.6174 -2.7110
  328SOL    HW2  984   2.606   0.621   0.423  1.4670 -2.0439 -1.1488
  329SOL     OW  985   2.975   2.939   2.129 -0.4320  0.0687  0.1092
  329SOL    HW1  986   3.026   2.878   2.202  0.3470  0.7083  2.0594
  329SOL    HW2  987   3.004   3.038   2.139  1.5093 -1.5748  3.5081
  330SOL     OW  988   0.515   0.225   1.834  0.6830 -0.3067 -0.3905
  330SOL    HW1  989   0.532   0.324   1.821  0.1775 -1.0456 -1.6237
  330SOL    HW2  990   0.579   0.183   1.904  0.1029  2.9034  0.9998
  331SOL     OW  991   2.898   1.918   1.095  0.5219 -0.0007  0.1441
  331SOL    HW1  992   2.949   1.998   1.045  0.6300 -0.3450  0.6710
  331SOL    HW2  993   2.818   1.950   1.149  2.2758  0.6968 -1.7644
  332SOL     OW  994   0.438   1.037   0.040 -0.3179  0.2261  0.3670
  332SOL    HW1  995   0.359   1.016  -0.025  3.1518 -0.9848  2.1766
  332SOL    HW2  996   0.420   1.113   0.109  0.7471 -0.6423  2.1847
  333SOL     OW  997   2.851   1.032   0.290 -0.4096  0.8849 -0.8815
  333SOL    HW1  998   2.896   1.110   0.339  1.0952 -1.9790  1.7719
  333SOL    HW2  999   2.918   0.962   0.251  0.7920 -2.7509  1.3104
  334SOL     OW 1000   1.645   1.165   1.910 -0.0312  0.3479  0.3812
  334SOL    HW1 1001   1.738   1.162   1.855  3.3101 -1.7755 -3.7435
  334SOL    HW2 1002   1.638   1.237   1.987  1.5121  1.8786  0.2871
  335SOL     OW 1003   1.981   2.790   2.612  0.4208 -0.5788 -0.4510
  335SOL    HW1 1004   2.038   2.774   2.695  0.4329 -0.4593  0.8527
  335SOL    HW2 1005   1.936   2.881   2.602  2.8414  1.4309 -1.5127
  336SOL     OW 1006   0.219   0.066   2.698  0.4345  0.1537  0.3400
  336SOL    HW1 1007   0.309   0.027   2.669  1.3454  0.1813 -1.4749
  336SOL    HW2 1008   0.222   0.146   2.765 -1.6186 -0.8427  0.5177
  337SOL     OW 1009   0.992   2.803   2.839 -0.4059 -0.3214  0.8512
  337SOL    HW1 1010   0.932   2.788   2.927 -1.8316 -1.2443  1.3218
  337SOL    HW2 1011   1.081   2.743   2.836  0.3932  0.8152  0.5375
  338SOL     OW 1012   3.100   1.003   0.603 -0.0499 -0.1706 -0.1199
  338SOL    HW1 1013   3.011   0.959   0.629 -0.3741  1.4049  2.5039
  338SOL    HW2 1014   3.103   1.106   0.595  0.3855  2.2912  1.2746
  339SOL     OW 1015   1.708   1.390   2.066 -0.6057  0.0774  0.0493
  339SOL    HW1 1016   1.605   1.402   2.069 -1.4520 -0.1299  1.7793
  339SOL    HW2 1017   1.759   1.474   2.044 -0.9347 -1.6399  0.8614
  340SOL     OW 1018   2.285   0.772   1.266  0.1470 -0.5691 -0.8223
  340SOL    HW1 1019   2.194   0.826   1.249 -0.2675 -0.0329  1.0493
  340SOL    HW2 1020   2.299   0.692   1.200 -0.7112 -3.7179 -0.7452
  341SOL     OW 1021   1.867   2.204   0.460  0.1563  0.3143 -0.7631
  341SOL    HW1 1022   1.880   2.216   0.355 -0.3970  0.4274  2.5762
  341SOL    HW2 1023   1.959   2.212   0.510  0.3147  3.4191  0.5831
  342SOL     OW 1024   2.223   2.186   2.818 -0.3036 -0.7759  0.2255
  342SOL    HW1 1025   2.293   2.117   2.837  0.7620 -0.4154  0.1276
  342SOL    HW2 1026   2.121   2.151   2.824  0.1510 -1.2786 -1.3520
  343SOL     OW 1027   0.315   0.902   2.864  0.0275 -0.0461  0.2037
  343SOL    HW1 1028   0.317   0.945   2.767 -0.7729 -1.2657 -0.7010
  343SOL    HW2 1029   0.405   0.856   2.880  3.0731 -0.4109  1.5511
  344SOL     OW 1030   1.857   1.473   0.326 -0.6350  0.2416  0.2981
  344SOL    HW1 1031   1.838   1.390   0.266 -0.0965 -0.4770  2.8846
  344SOL    HW2 1032   1.789   1.549   0.310 -0.6715 -0.5762  3.6048
  345SOL     OW 1033   1.425   2.216   2.856 -0.6461 -0.1184  0.1308
  345SOL    HW1 1034   1.337   2.165   2.834  0.1146  0.1705 -0.6290
  345SOL    HW2 1035   1.507   2.161   2.820 -0.2099 -0.0792  0.9240
  346SOL     OW 1036   2.436   0.895   1.464  0.5554  0.2191 -0.9021
  346SOL    HW1 1037   2.396   0.987   1.491  1.1349  2.3440 -0.6211
  346SOL    HW2 1038   2.384   0.852   1.382 -2.5061 -0.2897  1.4516
  347SOL     OW 1039   0.679   2.781   1.517  0.0317  0.5725 -0.0488
  347SOL    HW1 1040   0.672   2.727   1.609 -0.8471 -0.4385 -0.7768
  347SOL    HW2 1041   0.613   2.863   1.511 -1.1749 -1.5810  0.2469
  348SOL     OW 1042   0.081   0.687   2.799 -0.2083 -0.0110 -0.0893
  348SOL    HW1 1043  -0.016   0.717   2.787 -0.5050 -0.1580  1.1515
  348SOL    HW2 1044   0.153   0.759   2.791 -0.2313  1.2007 -0.7774
  349SOL     OW 1045   1.921   0.462   2.764  0.1073 -0.0092  0.5432
  349SOL    HW1 1046   1.888   0.538   2.700 -1.9141 -1.4902  2.0755
  349SOL    HW2 1047   1.895   0.478   2.864 -1.2673  0.1706  1.0335
  350SOL     OW 1048   1.658   0.362   0.365 -0.1009  0.5275  0.3477
  350SOL    HW1 1049   1.736   0.358   0.432  0.3031 -5.3569  0.0118
  350SOL    HW2 1050   1.641   0.461   0.326 -0.8878  0.5229  0.5380
  351SOL     OW 1051   0.928   0.904   2.126  0.2146  0.5669  0.5168
  351SOL    HW1 1052   0.931   0.999   2.091  1.6664  0.0456  2.8521
  351SOL    HW2 1053   0.866   0.841   2.069  1.8792  0.5567  2.0389
  352SOL     OW 1054   1.973   1.386   0.569  0.6192  0.4907 -0.0764
  352SOL    HW1 1055   1.938   1.414   0.469  0.0046  2.0454  1.1531
  352SOL    HW2 1056   2.065   1.425   0.598 -1.2649 -0.6226 -0.2702
  353SOL     OW 1057   2.140   2.820   1.187 -0.3222  0.1017 -0.1994
  353SOL    HW1 1058   2.229   2.774   1.192  0.5162  0.3583 -2.1454
  353SOL    HW2 1059   2.064   2.759   1.149 -0.3989  1.0473 -1.4395
  354SOL     OW 1060   0.293   1.358   2.926 -0.3181  0.1842  0.1660
  354SOL    HW1 1061   0.231   1.416   2.868 -0.1895  2.1681 -2.1607
  354SOL    HW2 1062   0.388   1.355   2.889 -0.8471 -2.6797 -0.1900
  355SOL     OW 1063   0.446   1.474   0.540 -0.2853 -0.0351  0.5241
  355SOL    HW1 1064   0.475   1.562   0.590  2.2201 -1.9246  2.7989
  355SOL    HW2 1065   0.528   1.410   0.514  0.8086 -0.1211  1.7959
  356SOL     OW 1066   0.826   0.408   2.072  0.6728  0.3770 -0.2352
  356SOL    HW1 1067   0.917   0.451   2.059  0.1982 -0.9583  0.0697
  356SOL    HW2 1068   0.809   0.333   2.002 -1.1604  3.0889  1.6340
  357SOL     OW 1069   1.058   1.289   0.167 -0.2195 -0.5682 -0.3872
  357SOL    HW1 1070   0.979   1.275   0.103 -1.6194 -0.7144  0.7461
  357SOL    HW2 1071   1.028   1.239   0.257 -1.6553  0.1007 -0.4869
  358SOL     OW 1072   1.617   1.657   0.311  0.1363  0.4599  0.9174
  358SOL    HW1 1073   1.590   1.572   0.367 -1.2053 -2.3441 -0.2605
  358SOL    HW2 1074   1.562   1.742   0.342 -0.5993  1.3844 -0.4830
  359SOL     OW 1075   1.568   2.706   0.131 -0.1837 -0.0934  0.2101
  359SOL    HW1 1076   1.577   2.648   0.049 -0.6962 -0.8290  2.1683
  359SOL    HW2 1077   1.476   2.697   0.182  1.9027 -0.4739 -0.9622
  360SOL     OW 1078   0.875   0.575   0.465 -0.1905 -0.1349 -0.0149
  360SOL    HW1 1079   0.801   0.581   0.534  1.3615 -1.6975 -3.5545
  360SOL    HW2 1080   0.884   0.473   0.432 -0.2215  0.1961  1.1874
  361SOL     OW 1081   1.286   1.365   0.651 -0.4042 -0.0152  0.0156
  361SOL    HW1 1082   1.324   1.392   0.745  1.3119 -1.5564  1.4703
  361SOL    HW2 1083   1.183   1.382   0.637  0.2413 -1.7851 -0.4502
  362SOL     OW 1084   1.383   1.726   0.783 -0.2332 -0.1956 -0.2312
  362SOL    HW1 1085   1.416   1.680   0.870  0.8826 -0.6644  1.1256
  362SOL    HW2 1086   1.458   1.783   0.743  0.7259  2.5705  2.5293
  363SOL     OW 1087   1.123   1.312   2.039  0.2424  0.4236 -0.0114
  363SOL    HW1 1088   1.109   1.403   2.088 -0.7272  0.0401  1.6978
  363SOL    HW2 1089   1.131   1.329   1.935 -2.0993  1.1725 -1.8643
  364SOL     OW 1090   0.588   2.327   2.011  0.3518 -0.5125 -0.1780
  364SOL    HW1 1091   0.487   2.345   1.988  1.3458 -0.6122  1.3264
  364SOL    HW2 1092   0.653   2.407   2.006 -2.3999 -0.4912 -1.2535
  365SOL     OW 1093   1.150   1.803   1.447  0.1838  1.1255  0.1857
  365SOL    HW1 1094   1.050   1.819   1.458 -0.1880  1.9982  0.3698
  365SOL    HW2 1095   1.176   1.702   1.457  0.7537 -0.6542 -2.5180
  366SOL     OW 1096   2.825   2.069   0.470 -0.1249  0.1292 -0.2758
  366SOL    HW1 1097   2.747   1.997   0.471 -0.4111  0.3250 -0.8846
  366SOL    HW2 1098   2.916   2.028   0.455 -1.5862  2.3602  0.0220
  367SOL     OW 1099   0.813   1.189   0.076 -0.5735  1.2264  0.0091
  367SOL    HW1 1100   0.826   1.099   0.130 -2.5210 -3.6461 -0.3979
  367SOL    HW2 1101   0.852   1.169  -0.019 -0.2315  0.3769 -2.2298
  368SOL     OW 1102   1.513   0.484   0.624  0.0091  1.0000  0.0041
  368SOL    HW1 1103   1.433   0.517   0.562 -0.1712 -0.5516  0.1250
  368SOL    HW2 1104   1.607   0.495   0.579  1.9721 -1.0386 -0.4000
  369SOL     OW 1105   0.298   1.675   0.096 -0.0268  0.2802 -0.1247
  369SOL    HW1 1106   0.309   1.752   0.169  0.7072  2.4715 -0.2845
  369SOL    HW2 1107   0.204   1.642   0.104 -0.4523 -1.6740  0.9247
  370SOL     OW 1108   0.463   2.131   0.982  0.3732  0.4471  0.0896
  370SOL    HW1 1109   0.475   2.233   0.962 -0.7669  1.1806 -2.2752
  370SOL    HW2 1110   0.367   2.099   0.957  0.1303  1.5486  0.6114
  371SOL     OW 1111   2.944   2.204   2.772 -0.5029  0.5306 -0.5570
  371SOL    HW1 1112   2.949   2.218   2.879 -2.0906  0.6133 -0.7590
  371SOL    HW2 1113   3.025   2.237   2.723 -1.8186  0.5584  0.9677
  372SOL     OW 1114   0.872   1.889   1.021  0.2795 -0.3010  0.0907
  372SOL    HW1 1115   0.857   1.989   1.005  0.3062 -0.4575 -2.6596
  372SOL    HW2 1116   0.941   1.854   0.949 -0.1884 -0.5294 -0.6240
  373SOL     OW 1117   1.945   1.945   0.938  0.2795  0.0821 -0.1563
  373SOL    HW1 1118   1.994   2.001   1.010  0.0366 -0.9479 -0.7531
  373SOL    HW2 1119   1.847   1.980   0.932 -0.7794 -0.9874  2.4321
  374SOL     OW 1120   1.843   0.438   0.573  0.3536 -0.6960 -0.6103
  374SOL    HW1 1121   1.830   0.398   0.669  3.4552 -2.4807  3.5446
  374SOL    HW2 1122   1.932   0.408   0.536  0.0236  0.0169  1.8840
  375SOL     OW 1123   2.476   2.290   1.111 -0.0918 -0.4501 -0.6412
  375SOL    HW1 1124   2.494   2.244   1.020 -0.9510  0.4047  1.1702
  375SOL    HW2 1125   2.499   2.240   1.197  1.9260  0.4591 -0.5974
  376SOL     OW 1126   3.068   0.647   1.463  0.0655 -0.1682 -0.0194
  376SOL    HW1 1127   3.133   0.720   1.506  0.6917  0.9115 -1.6050
  376SOL    HW2 1128   2.969   0.667   1.483 -1.9367  0.4000 -0.6508
  377SOL     OW 1129   2.195   2.821   0.329  0.6272  0.2980  0.2612
  377SOL    HW1 1130   2.138   2.903   0.303  0.2585  2.9768  0.3897
  377SOL    HW2 1131   2.289   2.851   0.360 -0.3062 -0.4908  2.1659
  378SOL     OW 1132   1.871   1.844   2.659  0.0739  0.2807 -0.2959
  378SOL    HW1 1133   1.926   1.768   2.694 -1.4808 -0.3765 -0.8175
  378SOL    HW2 1134   1.795   1.805   2.602 -0.6402  1.0756 -1.0222
  379SOL     OW 1135   0.876   0.126   2.703 -0.1618  0.2289 -0.0020
  379SOL    HW1 1136   0.887   0.032   2.660  2.9101  0.9197 -0.1430
  379SOL    HW2 1137   0.809   0.188   2.655  1.8702 -0.3874 -1.4177
  380SOL     OW 1138   1.574   1.161   0.545 -0.1778  0.5027  0.1313
  380SOL    HW1 1139   1.510   1.082   0.530  1.4418  1.2253 -0.1862
  380SOL    HW2 1140   1.541   1.212   0.626 -2.2891  0.2168  0.3487
  381SOL     OW 1141   1.289   1.246   1.504 -0.0872 -0.4047  0.1266
  381SOL    HW1 1142   1.297   1.261   1.403  0.6315 -1.9771 -2.3889
  381SOL    HW2 1143   1.370   1.287   1.555 -0.6852 -0.0711  0.0260
  382SOL     OW 1144   1.735   0.791   0.256  0.4740  0.0504 -0.2894
  382SOL    HW1 1145   1.791   0.774   0.169 -1.8267  0.3327  0.6868
  382SOL    HW2 1146   1.785   0.783   0.345  1.9484  1.4698  0.9271
  383SOL     OW 1147   2.676   1.008   1.544  0.2677 -0.0097  0.3262
  383SOL    HW1 1148   2.596   0.971   1.487  1.5576  1.8253 -0.4716
  383SOL    HW2 1149   2.760   0.979   1.501  1.6313 -2.3829 -0.4416
  384SOL     OW 1150   1.014   2.300   0.138  0.4225 -0.4101  0.4351
  384SOL    HW1 1151   0.956   2.386   0.160 -3.8118  0.6521  1.4747
  384SOL    HW2 1152   1.003   2.230   0.212 -0.6885  1.2720 -2.5382
  385SOL     OW 1153   2.984   2.060   1.696  0.9168 -0.0350  0.4524
  385SOL    HW1 1154   3.071   2.114   1.677 -0.8787  3.5132 -0.4626
  385SOL    HW2 1155   3.009   1.954   1.689 -0.0856 -0.9019 -0.7936
  386SOL     OW 1156   0.435   1.046   0.459  0.0322  0.4987  0.0007
  386SOL    HW1 1157   0.447   0.942   0.474  1.1079  0.1845 -1.2852
  386SOL    HW2 1158   0.370   1.072   0.378  2.7786  0.2693  0.6685
  387SOL     OW 1159   1.001   0.360   1.681 -0.2337  0.2877 -0.1984
  387SOL    HW1 1160   1.069   0.436   1.669 -1.3560 -2.8163  0.0308
  387SOL    HW2 1161   0.998   0.305   1.592  1.8839 -1.3913 -2.9473
  388SOL     OW 1162   1.263   2.561   1.742 -0.4280  0.3154 -0.4714
  388SOL    HW1 1163   1.251   2.532   1.642  1.6652 -1.0318  0.1918
  388SOL    HW2 1164   1.335   2.507   1.795 -0.2920 -1.7357  0.5468
  389SOL     OW 1165   0.240   0.014   1.136  0.2031  0.3479 -0.2755
  389SOL    HW1 1166   0.231  -0.015   1.240  1.7774  0.6431 -1.2268
  389SOL    HW2 1167   0.302  -0.048   1.082 -1.5378  0.9460 -0.6368
  390SOL     OW 1168   1.081   0.842   1.165  0.3962 -0.0864  0.2801
  390SOL    HW1 1169   1.185   0.824   1.177 -0.3309 -0.6276 -0.2062
  390SOL    HW2 1170   1.038   0.857   1.256 -1.6178 -2.7821  2.2518
  391SOL     OW 1171   2.088   1.153   1.063  0.7043  0.2019 -0.5986
  391SOL    HW1 1172   2.049   1.065   1.099  0.7808  0.3375 -0.3724
  391SOL    HW2 1173   2.133   1.140   0.972 -1.2920  1.0828  1.1892
  392SOL     OW 1174   0.910   2.703  -0.002  0.0828 -0.2345 -0.0842
  392SOL    HW1 1175   0.824   2.698   0.058  0.6640 -0.4203  2.7725
  392SOL    HW2 1176   0.976   2.779   0.024 -0.6526  2.8106  0.7238
  393SOL     OW 1177   0.361   0.574   1.981 -0.0029 -0.0530 -0.2583
  393SOL    HW1 1178   0.277   0.516   1.960  0.1234  0.0210 -1.3117
  393SOL    HW2 1179   0.448   0.536   1.941 -0.5687 -0.2359 -1.3713
  394SOL     OW 1180   2.825   1.790   2.751 -0.0093  0.0849  0.1209
  394SOL    HW1 1181   2.896   1.799   2.675 -2.4753  0.0133  0.2125
  394SOL    HW2 1182   2.784   1.875   2.789  3.0551 -4.0316  0.6583
  395SOL     OW 1183   1.564   1.954   0.703  0.5021 -0.0887 -0.2741
  395SOL    HW1 1184   1.642   1.895   0.679  1.0707 -0.2764  2.1016
  395SOL    HW2 1185   1.592   2.021   0.773 -0.5919  3.5037 -0.2656
  396SOL     OW 1186   2.742   1.971   1.306  0.5568  0.4988 -0.4113
  396SOL    HW1 1187   2.746   2.044   1.383 -1.1479  1.2525  0.1234
  396SOL    HW2 1188   2.655   1.914   1.311  2.1829 -0.1825 -0.1854
  397SOL     OW 1189   0.975   2.162   0.656  0.2810  0.0669  0.3564
  397SOL    HW1 1190   0.877   2.124   0.651 -2.3901 -1.5796  2.5174
  397SOL    HW2 1191   0.972   2.252   0.705 -0.4686  1.1372 -0.3961
  398SOL     OW 1192   2.210   3.078   1.083 -0.3501 -0.1542 -0.4434
  398SOL    HW1 1193   2.151   3.000   1.104 -1.4432  1.9490 -0.0492
  398SOL    HW2 1194   2.160   3.172   1.100  0.8256  1.9162 -1.4853
  399SOL     OW 1195   2.881   2.585   2.785 -0.4252  0.0251  0.3792
  399SOL    HW1 1196   2.822   2.571   2.703 -1.1187 -0.6528  3.0927
  399SOL    HW2 1197   2.845   2.528   2.862  1.5379  1.2881 -1.1184
  400SOL     OW 1198   0.796   1.577   1.290  0.0818  0.3907 -0.2121
  400SOL    HW1 1199   0.774   1.637   1.373  1.7659  0.0581 -1.1924
  400SOL    HW2 1200   0.781   1.632   1.205 -0.8834 -0.1495  0.8021
  401SOL     OW 1201   1.848   0.145   1.293 -0.1217 -0.3267  0.3398
  401SOL    HW1 1202   1.903   0.194   1.366  0.0049  1.0647  1.6337
  401SOL    HW2 1203   1.758   0.114   1.335  0.5978 -1.1850  1.1284
  402SOL     OW 1204   1.339   0.142   3.015 -0.0760  0.6055 -0.0709
  402SOL    HW1 1205   1.444   0.152   3.011  0.6517 -3.9363  1.2632
  402SOL    HW2 1206   1.295   0.236   3.043 -4.3771  2.0948  2.5002
  403SOL     OW 1207   2.244   1.864   0.960  0.0345 -0.1975  0.3914
  403SOL    HW1 1208   2.344   1.870   0.993 -1.1200 -0.6868  4.3998
  403SOL    HW2 1209   2.189   1.942   0.995 -0.4772  0.2351 -2.4880
  404SOL     OW 1210   0.225   2.474   2.775 -0.0704  0.2049  0.0654
  404SOL    HW1 1211   0.321   2.446   2.748 -2.3171 -1.0650 -3.5731
  404SOL    HW2 1212   0.215   2.577   2.779 -1.1749  0.7215 -0.6491
  405SOL     OW 1213   0.192   2.524   0.562 -0.1798  0.4367 -0.1344
  405SOL    HW1 1214   0.193   2.424   0.592  0.1689 -2.5742 -2.0068
  405SOL    HW2 1215   0.286   2.570   0.580  2.1149 -0.5182 -2.3645
  406SOL     OW 1216   0.029   1.623   3.010 -0.2151 -0.8302  0.0456
  406SOL    HW1 1217   0.071   1.575   2.930 -1.6493 -1.1808 -0.4963
  406SOL    HW2 1218   0.028   1.570   3.101  0.5762  0.9693 -1.9757
  407SOL     OW 1219   1.569   0.957   0.970  0.2149  0.5857  0.3585
  407SOL    HW1 1220   1.578   0.931   0.868 -0.2002  1.4978 -0.5769
  407SOL    HW2 1221   1.503   1.038   0.979 -2.7569 -0.2437 -0.8115
  408SOL     OW 1222   1.458   2.309   0.926 -0.2012 -0.2582  0.3598
  408SOL    HW1 1223   1.536   2.297   0.856  0.5656 -0.5467  0.0842
  408SOL    HW2 1224   1.455   2.404   0.970  0.3815 -2.2131  2.9813
  409SOL     OW 1225   0.612   0.857   0.683  0.0661  0.2378 -0.1947
  409SOL    HW1 1226   0.528   0.827   0.631 -1.7438  0.2592 -0.4580
  409SOL    HW2 1227   0.689   0.787   0.676  0.4906 -4.4693  0.8120
  410SOL     OW 1228   1.369   1.960   1.492  0.2785  0.0165  0.1465
  410SOL    HW1 1229   1.343   2.054   1.519 -1.9148  0.7556  1.0713
  410SOL    HW2 1230   1.281   1.908   1.477 -0.5261  1.3069 -1.4776
  411SOL     OW 1231   2.392   1.846   0.072  0.4727 -0.1270  0.0663
  411SOL    HW1 1232   2.308   1.835   0.011  1.0251 -1.4017  2.7115
  411SOL    HW2 1233   2.475   1.887   0.022  1.7173 -0.1997 -2.2433
  412SOL     OW 1234   1.627   2.437   2.272  0.3238 -0.5896  0.1073
  412SOL    HW1 1235   1.629   2.540   2.285  1.2553  1.3975  0.2833
  412SOL    HW2 1236   1.565   2.379   2.330  0.1596  0.0393  3.0675
  413SOL     OW 1237   3.064   0.287   2.877 -0.4711 -0.2181 -0.2085
  413SOL    HW1 1238   3.012   0.209   2.919 -0.5713  1.1188  0.1179
  413SOL    HW2 1239   3.164   0.291   2.893 -1.3217  0.3590  1.5520
  414SOL     OW 1240   1.713   1.348   1.350  0.3375 -0.3881 -0.8529
  414SOL    HW1 1241   1.640   1.417   1.369 -2.4921  0.2452 -1.4353
  414SOL    HW2 1242   1.723   1.320   1.250  1.6772 -2.5772  4.1228
  415SOL     OW 1243   0.225   2.265   0.685  0.2861 -0.7436  0.4778
  415SOL    HW1 1244   0.305   2.213   0.723  0.1651  2.6209  1.0582
  415SOL    HW2 1245   0.147   2.210   0.647  3.6812  1.9838  2.6824
  416SOL     OW 1246   0.332   1.047   1.067 -0.1290 -0.6896 -0.1231
  416SOL    HW1 1247   0.310   1.034   0.966  3.0738 -1.9813  0.1884
  416SOL    HW2 1248   0.411   1.117   1.081  2.6472  0.2123 -0.3507
  417SOL     OW 1249   2.194   2.342   1.872 -0.2246  0.1552 -0.0640
  417SOL    HW1 1250   2.245   2.255   1.888 -1.0977  0.1589  2.1224
  417SOL    HW2 1251   2.103   2.334   1.919 -1.3386 -1.6299  1.4477
  418SOL     OW 1252   1.135   0.538   1.352  0.1032 -0.1190  0.2491
  418SOL    HW1 1253   1.055   0.480   1.324 -2.3958 -5.2373 -1.5262
  418SOL    HW2 1254   1.223   0.517   1.297  2.9934 -0.3560  2.3720
  419SOL     OW 1255   0.960   0.375   2.985 -0.1932 -0.3208 -0.1804
  419SOL    HW1 1256   0.983   0.394   2.885  0.2048  1.1304  0.3795
  419SOL    HW2 1257   0.893   0.297   3.000  0.4088 -1.1481  0.2074
  420SOL     OW 1258   0.171   2.260   0.372  0.0239  0.2083  0.2385
  420SOL    HW1 1259   0.129   2.230   0.285  0.0964  4.4235  1.3462
  420SOL    HW2 1260   0.087   2.280   0.436 -0.9612  1.5462 -3.5179
  421SOL     OW 1261   0.326   0.074   0.713 -0.3441 -0.1812 -0.1276
  421SOL    HW1 1262   0.341   0.018   0.628  3.3426 -2.5667 -0.5603
  421SOL    HW2 1263   0.409   0.128   0.740  0.4624 -0.7717  0.9679
  422SOL     OW 1264   0.924   2.517   1.031  0.0558 -0.3490  0.0983
  422SOL    HW1 1265   0.969   2.591   0.975  0.1512  0.0872 -1.9621
  422SOL    HW2 1266   0.944   2.522   1.129 -1.3506  0.5907  0.9961
  423SOL     OW 1267   0.047   0.695   1.198 -0.1284  0.2803 -1.3162
  423SOL    HW1 1268  -0.008   0.663   1.278  0.1473 -1.1965  1.6474
  423SOL    HW2 1269  -0.008   0.752   1.134 -0.8809 -0.2727  0.9089
  424SOL     OW 1270   0.987   2.147   2.233 -0.0086 -0.0918  0.0728
  424SOL    HW1 1271   0.941   2.169   2.143  0.1193  0.1835  2.1078
  424SOL    HW2 1272   0.921   2.131   2.311  1.7898  0.7415  1.4791
  425SOL     OW 1273   2.044   1.423   1.131 -0.5940  0.4378 -0.0423
  425SOL    HW1 1274   2.074   1.321   1.126  0.8392  2.7870 -1.4978
  425SOL    HW2 1275   2.066   1.487   1.049 -0.0202  2.7732 -1.2849
  426SOL     OW 1276   1.505   1.535   1.406  0.6751  0.3075 -0.5197
  426SOL    HW1 1277   1.493   1.626   1.359  1.0237 -2.5909  0.7414
  426SOL    HW2 1278   1.481   1.536   1.507  0.2667  0.3099 -0.4762
  427SOL     OW 1279   1.960   2.324   2.045 -0.6350 -0.2103  0.3805
  427SOL    HW1 1280   2.003   2.274   2.129  2.0786 -0.2228  4.1169
  427SOL    HW2 1281   1.954   2.426   2.058 -1.3138  0.6139  0.8765
  428SOL     OW 1282   0.915   3.093   0.043  0.3246 -0.3846  0.2288
  428SOL    HW1 1283   0.946   3.181   0.085 -0.2298 -3.2019 -1.0037
  428SOL    HW2 1284   0.991   3.022   0.038  1.7429  0.7558 -1.4774
  429SOL     OW 1285   1.255   0.057   0.214  0.2960 -0.3366 -0.1764
  429SOL    HW1 1286   1.311   0.144   0.196  3.7450 -1.1644  0.2307
  429SOL    HW2 1287   1.304  -0.024   0.173  0.0793  3.3155 -0.4665
  430SOL     OW 1288   2.768   1.482   0.315 -0.0784 -0.2464  0.4557
  430SOL    HW1 1289   2.778   1.552   0.239  1.3078  3.5724 -1.6850
  430SOL    HW2 1290   2.799   1.528   0.404  0.1917 -0.9214  0.1379
  431SOL     OW 1291   2.081   1.626   0.933 -0.3399  0.1155  0.1461
  431SOL    HW1 1292   2.158   1.695   0.936 -0.1058 -1.6712 -1.7899
  431SOL    HW2 1293   1.990   1.662   0.893 -1.0562  0.6692 -1.5692
  432SOL     OW 1294   2.923   2.219   1.257 -0.2211  1.0332  0.0386
  432SOL    HW1 1295   2.854   2.141   1.268 -0.2441 -2.5909 -3.1784
  432SOL    HW2 1296   2.937   2.279   1.343 -0.0485  2.0598 -0.0434
  433SOL     OW 1297   1.843   0.269   0.825 -0.1426 -0.2613 -0.4468
  433SOL    HW1 1298   1.749   0.255   0.870 -3.5283  0.6026  1.0007
  433SOL    HW2 1299   1.912   0.313   0.891 -1.4162 -1.3460  2.4708
  434SOL     OW 1300   1.485   0.247   0.727  0.2198 -0.1499  0.5244
  434SOL    HW1 1301   1.498   0.336   0.682  0.7113 -0.1777 -0.4144
  434SOL    HW2 1302   1.525   0.243   0.825  0.3136 -2.4317 -1.3002
  435SOL     OW 1303   1.427   1.429   2.067 -0.0240  0.5469 -0.0272
  435SOL    HW1 1304   1.403   1.428   2.170  3.7788  1.7880  1.7017
  435SOL    HW2 1305   1.378   1.510   2.017  0.2174  2.5304 -1.1798
  436SOL     OW 1306   1.670   2.676   2.435 -0.1993 -0.1810 -0.6144
  436SOL    HW1 1307   1.653   2.776   2.457 -1.8771 -1.7818 -1.8624
  436SOL    HW2 1308   1.595   2.621   2.479  1.4428  1.6767  3.5115
  437SOL     OW 1309   0.992   2.989   0.878 -0.6119 -0.7299  0.0337
  437SOL    HW1 1310   0.952   3.075   0.833  1.0472  0.3324  2.3579
  437SOL    HW2 1311   1.040   3.013   0.968  1.2586  1.2380 -0.2226
  438SOL     OW 1312   0.996   2.531   1.312 -0.3514 -0.6356  0.4465
  438SOL    HW1 1313   1.076   2.562   1.368  1.3907 -1.2985 -1.0543
  438SOL    HW2 1314   0.998   2.425   1.321  0.7590 -1.0176  0.4991
  439SOL     OW 1315   0.703   1.689   1.058  0.1878 -0.2044 -0.0555
  439SOL    HW1 1316   0.772   1.769   1.048 -0.1372 -0.0696 -0.6823
  439SOL    HW2 1317   0.615   1.718   1.104 -1.1346  0.9595 -2.2826
  440SOL     OW 1318   0.961   2.336   1.971  0.0130  0.4262  0.0469
  440SOL    HW1 1319   0.977   2.421   1.911 -0.9787  0.0580 -1.2600
  440SOL    HW2 1320   1.035   2.266   1.960  0.3593  0.9275 -0.0467
  441SOL     OW 1321   0.357   2.827   1.322 -0.6611 -0.4548 -0.1731
  441SOL    HW1 1322   0.401   2.733   1.340 -0.6012 -1.7018  2.4296
  441SOL    HW2 1323   0.385   2.860   1.228  3.5766 -3.1998  1.4766
  442SOL     OW 1324   2.232   0.686   2.562  0.1213  0.2044 -0.2341
  442SOL    HW1 1325   2.240   0.586   2.531  0.3530  0.7214  1.8090
  442SOL    HW2 1326   2.141   0.722   2.529 -1.3187 -0.3952  0.3445
  443SOL     OW 1327   1.308   2.518   2.214 -0.5174  0.8441 -0.2692
  443SOL    HW1 1328   1.282   2.421   2.241  0.8586 -1.0503 -0.6379
  443SOL    HW2 1329   1.256   2.585   2.275 -1.0107  1.4230 -0.1068
  444SOL     OW 1330   0.962   1.195   1.445  0.0300  0.1972  0.2541
  444SOL    HW1 1331   1.029   1.172   1.518 -0.1650  1.6629  1.6031
  444SOL    HW2 1332   0.973   1.286   1.405 -0.3467 -0.7589  1.4556
  445SOL     OW 1333   0.154   2.158   2.054  0.0198  1.0146  0.5419
  445SOL    HW1 1334   0.180   2.063   2.031 -0.5730  1.4603  1.4612
  445SOL    HW2 1335   0.101   2.173   2.145  0.7844  1.5358 -0.0837
  446SOL     OW 1336   0.113   1.984   2.411 -0.3370 -0.5722  0.1040
  446SOL    HW1 1337   0.084   2.080   2.390  0.0278 -2.2694 -0.3883
  446SOL    HW2 1338   0.128   1.923   2.328 -0.2706 -1.1356  3.5691
  447SOL     OW 1339   1.296   1.641   1.935  0.4353  0.3856  0.2358
  447SOL    HW1 1340   1.220   1.706   1.905 -0.3676 -0.2145  0.1297
  447SOL    HW2 1341   1.383   1.690   1.973  0.0831 -0.5023  1.6257
  448SOL     OW 1342   0.155   1.480   2.001 -0.0971  0.3154 -0.2095
  448SOL    HW1 1343   0.159   1.581   1.966  1.0563  0.5878  0.1895
  448SOL    HW2 1344   0.096   1.469   2.084 -1.5354 -1.0972  0.8527
  449SOL     OW 1345   1.882   3.026   0.844  0.0994 -0.5751 -0.0323
  449SOL    HW1 1346   1.861   3.038   0.941 -3.7934 -1.6703  2.1506
  449SOL    HW2 1347   1.914   2.932   0.824 -0.1171  0.3662  2.6575
  450SOL     OW 1348   2.202   1.495   0.682  0.2521 -0.4082 -0.1172
  450SOL    HW1 1349   2.143   1.537   0.753  0.0645 -0.6004  0.6136
  450SOL    HW2 1350   2.271   1.562   0.648  1.0434  0.7560  0.8717
  451SOL     OW 1351   1.385   2.976   1.469 -0.0532 -0.1963  0.4767
  451SOL    HW1 1352   1.333   3.059   1.493  0.8261  0.0280 -3.4845
  451SOL    HW2 1353   1.422   2.915   1.547  2.8287  1.9794  1.8204
  452SOL     OW 1354   2.691   2.295   2.294  0.6708 -0.0473  0.3063
  452SOL    HW1 1355   2.616   2.366   2.302  1.0652 -2.9307  0.7408
  452SOL    HW2 1356   2.729   2.269   2.387 -2.0633 -0.3790  0.7771
  453SOL     OW 1357   2.485   2.684   3.092 -0.3326 -0.1751  0.1016
  453SOL    HW1 1358   2.392   2.713   3.137 -1.3570  0.8668 -1.9050
  453SOL    HW2 1359   2.465   2.610   3.015  1.5477 -0.6651 -2.6753
  454SOL     OW 1360   0.894   1.169   2.033 -0.0725  0.1238  0.0401
  454SOL    HW1 1361   0.849   1.158   1.939  2.9097  1.1880 -2.2108
  454SOL    HW2 1362   0.985   1.220   2.031 -2.0894 -0.1269  1.5150
  455SOL     OW 1363   0.742   2.619   2.805 -0.4652  0.1617  0.2852
  455SOL    HW1 1364   0.842   2.628   2.811 -3.2941 -2.4730  1.4576
  455SOL    HW2 1365   0.705   2.541   2.855  0.8555  1.7006 -0.3281
  456SOL     OW 1366   0.310   1.937   0.226  0.0924  0.1075  0.2495
  456SOL    HW1 1367   0.406   1.958   0.191  0.7378  0.5626 -0.6590
  456SOL    HW2 1368   0.234   2.002   0.196  0.7480  1.4967  2.1822
  457SOL     OW 1369   0.423   2.647   0.643  0.2902 -0.2746  0.3757
  457SOL    HW1 1370   0.479   2.645   0.557  1.0687 -1.7334 -0.7767
  457SOL    HW2 1371   0.482   2.623   0.726  1.5989 -0.5565 -1.8002
  458SOL     OW 1372   2.928   0.022   1.289  0.2548  0.4671 -0.5526
  458SOL    HW1 1373   2.990   0.105   1.297 -1.0718 -0.2325  2.2044
  458SOL    HW2 1374   2.943  -0.038   1.205 -0.3171  1.2376 -1.1146
  459SOL     OW 1375   2.100   2.503   0.731  0.2104 -0.3436  0.2046
  459SOL    HW1 1376   2.159   2.516   0.812  1.2509  1.0049  0.8853
  459SOL    HW2 1377   2.151   2.544   0.650  2.0825  1.5954  0.3184
  460SOL     OW 1378   1.214   2.067   2.792 -0.3790 -0.4301  0.0077
  460SOL    HW1 1379   1.227   2.063   2.687 -3.2134  0.4684 -0.5045
  460SOL    HW2 1380   1.227   1.973   2.833  1.1306 -0.0658  0.1326
  461SOL     OW 1381   0.474   2.133   2.776 -0.2863  0.8364 -0.5800
  461SOL    HW1 1382   0.484   2.074   2.693  0.5128  1.1867  0.4664
  461SOL    HW2 1383   0.498   2.086   2.863 -0.0447 -1.9583  0.1365
  462SOL     OW 1384   0.954   1.021   1.722 -0.2175 -0.0935  0.0773
  462SOL    HW1 1385   0.944   0.947   1.650 -0.7403 -0.1256 -1.6651
  462SOL    HW2 1386   0.893   1.103   1.709 -1.6831  1.0144  1.2809
  463SOL     OW 1387   0.425   0.774   0.473  0.2854  0.3910  0.1506
  463SOL    HW1 1388   0.451   0.684   0.424 -2.4391 -0.1003  0.7826
  463SOL    HW2 1389   0.322   0.791   0.475 -1.0767 -1.8132  0.6951
  464SOL     OW 1390   0.539   2.330   2.274  0.4154 -0.1438 -0.0064
  464SOL    HW1 1391   0.468   2.395   2.309  1.6008 -0.4727  0.2763
  464SOL    HW2 1392   0.550   2.340   2.173 -1.6002  0.3010  1.3747
  465SOL     OW 1393   0.247   1.008   0.804 -0.1876 -0.1035 -0.2668
  465SOL    HW1 1394   0.159   1.034   0.754  0.3988  2.4103 -1.5485
  465SOL    HW2 1395   0.267   0.907   0.788  1.9037  1.5094 -1.6059
  466SOL     OW 1396   1.327   1.149   0.882 -0.1348 -0.2033  0.7704
  466SOL    HW1 1397   1.311   1.251   0.887  0.3222 -0.0968  0.1959
  466SOL    HW2 1398   1.239   1.095   0.872 -1.7790  0.3601  1.6402
  467SOL     OW 1399   0.637   0.470   2.571  0.2227  0.5477  0.0696
  467SOL    HW1 1400   0.595   0.560   2.589  0.0843  1.2274 -1.9546
  467SOL    HW2 1401   0.602   0.394   2.634  0.5771 -2.4768  1.0219
  468SOL     OW 1402   0.473   2.278   1.584 -0.5414  0.2590 -0.4426
  468SOL    HW1 1403   0.554   2.323   1.630 -1.1897  0.7439 -0.5626
  468SOL    HW2 1404   0.476   2.292   1.482 -0.0022 -0.1013 -0.7717
  469SOL     OW 1405   1.430   1.320   1.258  0.2188 -0.4313  0.4127
  469SOL    HW1 1406   1.474   1.341   1.169 -1.0313 -1.3879  0.3834
  469SOL    HW2 1407   1.460   1.380   1.340 -0.6035 -0.1715  2.0254
  470SOL     OW 1408   2.979   1.843   0.804  0.0862 -0.2696  0.1941
  470SOL    HW1 1409   3.052   1.904   0.759  1.1040 -0.1083  2.6256
  470SOL    HW2 1410   3.009   1.798   0.894 -0.2041 -3.0190  1.3934
  471SOL     OW 1411   2.683   1.397   2.186 -0.1250 -0.1130  0.1376
  471SOL    HW1 1412   2.691   1.294   2.195  2.1933 -1.4022  0.0007
  471SOL    HW2 1413   2.758   1.452   2.239 -0.6590 -1.1921  2.8027
  472SOL     OW 1414   1.283   2.410   0.029 -0.6301  0.3950 -0.3240
  472SOL    HW1 1415   1.367   2.374   0.077 -1.9520 -0.0225 -1.4640
  472SOL    HW2 1416   1.197   2.392   0.086  0.6161  0.5576  1.2032
  473SOL     OW 1417   1.072   1.491   0.995 -0.0340  0.1235  0.7376
  473SOL    HW1 1418   0.974   1.513   0.967 -0.1659 -0.1268 -1.5181
  473SOL    HW2 1419   1.084   1.398   1.041 -0.1511  1.2093  0.0901
  474SOL     OW 1420   0.624   1.295   0.458 -0.2581  0.3347  0.1276
  474SOL    HW1 1421   0.534   1.248   0.439  0.7961 -1.0521  5.3495
  474SOL    HW2 1422   0.688   1.222   0.496  1.2382 -1.4041 -0.6695
  475SOL     OW 1423   2.885   0.031   0.823 -0.3085 -0.0303 -0.6540
  475SOL    HW1 1424   2.939   0.121   0.823  0.8445 -0.2427 -3.5600
  475SOL    HW2 1425   2.785   0.038   0.852 -1.2327 -0.7758  1.6456
  476SOL     OW 1426   0.985   3.044   1.806 -0.3429 -0.0071  0.0358
  476SOL    HW1 1427   1.079   3.076   1.827 -1.0760 -2.2548  0.6594
  476SOL    HW2 1428   0.970   3.008   1.713 -0.4676 -0.7110  0.1520
  477SOL     OW 1429   1.430   0.323   2.444 -0.1016  0.1400  0.1073
  477SOL    HW1 1430   1.467   0.325   2.543 -1.8853 -2.0642  2.3091
  477SOL    HW2 1431   1.492   0.263   2.385 -0.6469 -0.6234 -0.0773
  478SOL     OW 1432   2.263   1.950   0.309 -0.0180 -0.3073 -0.2389
  478SOL    HW1 1433   2.190   1.885   0.349 -0.6735  1.0839 -1.7606
  478SOL    HW2 1434   2.319   1.915   0.231  0.5042 -0.5201 -1.9846
  479SOL     OW 1435   1.276   0.984   2.859  0.1167 -0.7224 -0.2985
  479SOL    HW1 1436   1.381   0.974   2.838 -1.5529 -1.2022 -1.9052
  479SOL    HW2 1437   1.219   0.901   2.826  0.7813 -1.7428  0.1688
  480SOL     OW 1438   2.662   2.293   0.431  0.5628  0.3703 -0.0440
  480SOL    HW1 1439   2.738   2.223   0.445 -1.8030 -0.9513  0.6822
  480SOL    HW2 1440   2.570   2.243   0.450  0.3496  2.7837 -0.1526
  481SOL     OW 1441   0.963   1.144   0.776 -0.2036  0.3187  0.4012
  481SOL    HW1 1442   0.982   1.238   0.725  0.7782  2.7167 -0.4923
  481SOL    HW2 1443   0.990   1.147   0.875 -0.9641  1.5565  2.4869
  482SOL     OW 1444   1.589   0.285   2.034  0.6992  0.0067 -0.0176
  482SOL    HW1 1445   1.617   0.386   2.028  2.8180  0.8260  0.6034
  482SOL    HW2 1446   1.668   0.221   2.050  0.5050  1.1018  0.1817
  483SOL     OW 1447   0.141   2.387   1.225 -1.2034  0.1757 -0.1176
  483SOL    HW1 1448   0.167   2.473   1.283 -0.6177 -1.3192  1.9573
  483SOL    HW2 1449   0.143   2.399   1.123 -1.8455  0.9670 -3.0337
  484SOL     OW 1450   1.724   1.051   1.475 -0.2046  0.4048  0.3184
  484SOL    HW1 1451   1.810   1.002   1.460  0.5160  1.5010  0.2565
  484SOL    HW2 1452   1.729   1.152   1.455  0.0809 -0.4147  0.1527
  485SOL     OW 1453   0.776   0.752   1.975 -0.7482 -0.3142  0.2243
  485SOL    HW1 1454   0.713   0.755   1.893 -2.0092 -2.6923 -0.6147
  485SOL    HW2 1455   0.862   0.693   1.954  2.1915 -0.1330  0.5124
  486SOL     OW 1456   0.907   1.867   2.448 -0.0227  0.0746 -0.5241
  486SOL    HW1 1457   0.946   1.840   2.538 -2.2784  0.6309 -0.1736
  486SOL    HW2 1458   0.875   1.969   2.451 -0.5643 -0.0924 -2.5391
  487SOL     OW 1459   1.746   1.582   1.044 -0.0231  0.0932  0.5415
  487SOL    HW1 1460   1.767   1.483   1.068  1.2024  1.3248  1.4408
  487SOL    HW2 1461   1.788   1.601   0.950  0.3417 -1.5249  0.6171
  488SOL     OW 1462   2.938   0.834   2.263 -0.1029 -0.3754  0.3168
  488SOL    HW1 1463   3.015   0.762   2.263 -0.2377 -0.4844  0.7000
  488SOL    HW2 1464   2.853   0.801   2.308  0.0554  1.7679  2.7528
  489SOL     OW 1465   2.840   0.335   1.294 -0.2655  0.3923 -0.0887
  489SOL    HW1 1466   2.849   0.338   1.398  0.9073 -0.6215  1.3565
  489SOL    HW2 1467   2.915   0.277   1.247 -0.9692 -1.1557  0.7326
  490SOL     OW 1468   1.484   3.000   2.804 -0.2411 -0.4801  0.2608
  490SOL    HW1 1469   1.496   2.898   2.789 -1.0979  0.1291 -0.9312
  490SOL    HW2 1470   1.430   3.043   2.726 -0.1201 -0.8673  0.7032
  491SOL     OW 1471   1.790   1.468   2.723  0.4538 -0.7446 -0.4284
  491SOL    HW1 1472   1.765   1.405   2.804 -3.7968  1.5178 -2.9095
  491SOL    HW2 1473   1.861   1.541   2.750 -3.1870  1.1142 -2.4046
  492SOL     OW 1474   0.656   2.091   0.595 -0.7752 -0.1370  0.1582
  492SOL    HW1 1475   0.642   2.103   0.695  0.2758 -0.6554 -2.0822
  492SOL    HW2 1476   0.575   2.135   0.538 -0.8151  0.6812  2.2744
  493SOL     OW 1477   0.393   1.328   2.090  0.4217  0.0576 -0.2341
  493SOL    HW1 1478   0.323   1.398   2.062  0.2132 -0.2336 -1.6392
  493SOL    HW2 1479   0.348   1.253   2.147  1.2638 -1.1652 -0.1326
  494SOL     OW 1480   2.722   2.645   0.143 -0.0992 -0.4530 -0.6640
  494SOL    HW1 1481   2.708   2.621   0.245 -0.7471  2.0989 -3.0060
  494SOL    HW2 1482   2.637   2.696   0.104  0.8240  0.3350 -0.1887
  495SOL     OW 1483   2.527   2.802   2.644 -0.2598 -0.1634 -0.0724
  495SOL    HW1 1484   2.529   2.694   2.641 -1.0477 -2.2414  0.9504
  495SOL    HW2 1485   2.593   2.843   2.575 -0.1458  3.3131 -1.3472
  496SOL     OW 1486   1.950   2.293   0.817 -0.2252  0.7906 -0.9027
  496SOL    HW1 1487   2.003   2.212   0.849  0.2095  0.6544  3.1385
  496SOL    HW2 1488   2.012   2.363   0.780 -0.9238 -0.0484 -0.7842
  497SOL     OW 1489   0.324   2.982   2.354 -0.9680  0.1599  0.4407
  497SOL    HW1 1490   0.242   3.035   2.400 -1.6335  2.3651  1.4712
  497SOL    HW2 1491   0.351   3.021   2.257  1.6762  3.3626 -1.0172
  498SOL     OW 1492   1.167   1.293   1.147  0.0585 -0.0135  0.0745
  498SOL    HW1 1493   1.268   1.294   1.163 -1.2220  2.0776 -0.4308
  498SOL    HW2 1494   1.128   1.344   1.229 -0.7356  0.2037  1.0836
  499SOL     OW 1495   0.609   1.748   0.424 -0.3978  0.9745 -0.1473
  499SOL    HW1 1496   0.633   1.702   0.334 -0.1907 -1.8768  0.9941
  499SOL    HW2 1497   0.673   1.829   0.447  0.6388 -0.5284 -3.4941
  500SOL     OW 1498   1.476   2.763   1.659  0.5397  0.0978 -0.3235
  500SOL    HW1 1499   1.525   2.728   1.745  1.0960  0.3919  0.2266
  500SOL    HW2 1500   1.476   2.694   1.582 -2.3914 -2.1977 -3.2204
  501SOL     OW 1501   0.784   1.253   2.268 -0.4226 -0.5808 -0.1098
  501SOL    HW1 1502   0.735   1.174   2.314 -1.8594  0.2064  0.4470
  501SOL    HW2 1503   0.824   1.235   2.171  2.0265 -2.0425 -2.1282
  502SOL     OW 1504   2.549   0.912   1.801  0.0781 -0.3839  0.1307
  502SOL    HW1 1505   2.588   0.961   1.715  3.1395  0.5778  1.0070
  502SOL    HW2 1506   2.528   0.818   1.783  0.7532  2.3354  0.1577
  503SOL     OW 1507   1.235   0.129   0.713  0.5473 -0.2179 -0.1290
  503SOL    HW1 1508   1.182   0.211   0.677  0.8448  2.2947  1.3097
  503SOL    HW2 1509   1.333   0.148   0.731 -2.1421  0.8778  0.1096
  504SOL     OW 1510   2.957   2.364   1.493  0.2227 -0.5361 -0.7103
  504SOL    HW1 1511   2.884   2.399   1.562  1.5942  0.1744  0.5255
  504SOL    HW2 1512   3.053   2.359   1.529  2.9292  2.0715 -0.8066
  505SOL     OW 1513   2.336   1.154   1.525 -0.0763 -0.3683  0.3029
  505SOL    HW1 1514   2.301   1.152   1.428  3.9991  2.9436 -0.7293
  505SOL    HW2 1515   2.413   1.219   1.536 -1.4847 -1.2647 -0.8095
  506SOL     OW 1516   1.942   0.244   1.865  0.1880 -0.7391 -0.2255
  506SOL    HW1 1517   2.036   0.222   1.885 -0.2513  0.2674  0.9315
  506SOL    HW2 1518   1.921   0.342   1.893 -1.6043  1.1045 -0.9060
  507SOL     OW 1519   0.483   0.765   2.157  0.2650 -0.0348  0.2244
  507SOL    HW1 1520   0.415   0.735   2.087 -0.9782  0.3496  1.3900
  507SOL    HW2 1521   0.546   0.684   2.187  0.3548 -3.5897 -0.1749
  508SOL     OW 1522   0.327   1.642   0.785 -0.1648  0.0182  0.0560
  508SOL    HW1 1523   0.419   1.680   0.748 -2.1827  1.1813  3.9734
  508SOL    HW2 1524   0.290   1.701   0.861 -0.8406  0.4528 -0.7454
  509SOL     OW 1525   1.275   1.200   2.478  0.2447  0.3416 -0.1683
  509SOL    HW1 1526   1.319   1.115   2.439 -0.5679 -2.5176  3.0676
  509SOL    HW2 1527   1.174   1.204   2.458 -1.6515  3.0359  4.3791
  510SOL     OW 1528   1.387   2.047   2.203 -0.9499  0.2387  0.4240
  510SOL    HW1 1529   1.357   2.074   2.108  1.5915 -2.5985 -3.5439
  510SOL    HW2 1530   1.311   2.001   2.256  1.6001 -0.0009 -0.8547
  511SOL     OW 1531   3.023   2.643   1.362  0.4937  0.0093 -0.0534
  511SOL    HW1 1532   2.974   2.689   1.285  1.4795  0.5276 -0.0964
  511SOL    HW2 1533   2.974   2.563   1.406  0.0558 -1.1158 -0.2912
  512SOL     OW 1534   2.359   0.430   1.395 -0.5577  0.1913  0.2445
  512SOL    HW1 1535   2.272   0.454   1.348 -0.6207  0.2978  2.2357
  512SOL    HW2 1536   2.426   0.385   1.328  0.2314 -2.4889  2.0556
  513SOL     OW 1537   2.546   2.123   0.891 -0.5213 -0.4056 -0.5165
  513SOL    HW1 1538   2.516   2.208   0.831 -0.8386  0.7911 -0.8214
  513SOL    HW2 1539   2.632   2.082   0.850  2.5644  0.6670  0.2711
  514SOL     OW 1540   0.567   2.766   0.433  0.1466 -0.4150 -0.1568
  514SOL    HW1 1541   0.622   2.783   0.347  0.6592  0.6529  1.3235
  514SOL    HW2 1542   0.627   2.787   0.518  2.9032 -0.0928  1.0392
  515SOL     OW 1543   1.960   1.335   2.389 -0.2237 -0.0643 -0.0637
  515SOL    HW1 1544   1.959   1.286   2.295  0.5507 -2.5077 -2.1054
  515SOL    HW2 1545   1.894   1.293   2.459  0.4255 -1.0112  0.2229
  516SOL     OW 1546   0.251   0.170   1.965  0.3342  0.2948  0.4202
  516SOL    HW1 1547   0.339   0.201   1.925 -0.1573  0.7396  2.0077
  516SOL    HW2 1548   0.195   0.100   1.910  0.6344 -0.8231 -1.3289
  517SOL     OW 1549   0.495   0.253   1.095 -0.4101 -0.1006 -0.2186
  517SOL    HW1 1550   0.541   0.187   1.159  2.6350 -2.0698 -0.9738
  517SOL    HW2 1551   0.391   0.247   1.101 -2.9097  0.8470  0.6124
  518SOL     OW 1552   2.204   3.023   1.833 -0.4889  0.1086 -0.1490
  518SOL    HW1 1553   2.222   3.124   1.850 -1.0347  0.3937 -0.6485
  518SOL    HW2 1554   2.228   2.987   1.734  0.6993  0.5509 -1.5697
  519SOL     OW 1555   2.343   2.240   2.539 -0.7567  0.2425  0.0158
  519SOL    HW1 1556   2.286   2.220   2.624 -0.9185 -0.2739 -0.1712
  519SOL    HW2 1557   2.371   2.339   2.531  1.6183 -0.9424  1.6348
  520SOL     OW 1558   1.779   2.641   1.671 -0.1542  0.3187 -0.3952
  520SOL    HW1 1559   1.755   2.612   1.767  0.4399  1.4217 -1.7115
  520SOL    HW2 1560   1.861   2.584   1.631  0.7383  0.3341 -2.7002
  521SOL     OW 1561   0.654   0.072   2.135  0.0173 -0.1416 -0.5473
  521SOL    HW1 1562   0.569   0.014   2.117  1.4752 -0.7876  3.0225
  521SOL    HW2 1563   0.679   0.092   2.236  0.7648  0.1027  2.3627
  522SOL     OW 1564   0.248   1.889   1.515 -0.0803  0.3700 -0.4062
  522SOL    HW1 1565   0.275   1.951   1.597 -0.5359  2.7675 -0.8907
  522SOL    HW2 1566   0.204   1.947   1.442 -1.0321  0.7855 -1.4749
  523SOL     OW 1567   2.248   2.940   1.581  0.4991 -0.7241 -0.3619
  523SOL    HW1 1568   2.318   2.893   1.524 -0.5589 -1.5002 -1.5052
  523SOL    HW2 1569   2.155   2.930   1.534  3.9556 -2.7589 -2.1075
  524SOL     OW 1570   0.223   2.755   2.777 -0.1457 -0.2950 -0.4170
  524SOL    HW1 1571   0.204   2.842   2.830  3.0865 -1.2677 -2.9247
  524SOL    HW2 1572   0.325   2.743   2.768  2.0194 -1.5416 -2.5440
  525SOL     OW 1573   2.154   2.110   0.514  0.4767 -0.2544  0.1283
  525SOL    HW1 1574   2.143   2.040   0.597  0.1915  0.0560  1.1238
  525SOL    HW2 1575   2.187   2.065   0.428  0.9603 -1.7215  1.9777
  526SOL     OW 1576   0.391   1.513   1.706 -0.3006  0.4201  0.2597
  526SOL    HW1 1577   0.423   1.588   1.768  1.4587  1.2083  2.7116
  526SOL    HW2 1578   0.372   1.426   1.763 -1.0485  0.2823 -0.2931
  527SOL     OW 1579   1.156   3.020   1.098  0.2096 -0.7060  0.1785
  527SOL    HW1 1580   1.177   2.937   1.155 -1.4412 -3.1247  0.6080
  527SOL    HW2 1581   1.209   3.108   1.124  0.6419  1.3241 -2.6986
  528SOL     OW 1582   1.282   2.426   0.606 -0.0980  0.0463  0.1424
  528SOL    HW1 1583   1.322   2.337   0.600  0.4841  2.5526  3.2921
  528SOL    HW2 1584   1.351   2.502   0.638  0.2515  2.1183 -1.9925
  529SOL     OW 1585   1.848   1.706   0.810  0.1031  0.5697  0.2153
  529SOL    HW1 1586   1.823   1.742   0.716  0.2111  0.0054 -0.3207
  529SOL    HW2 1587   1.871   1.782   0.881  0.9831 -0.1154  1.3534
  530SOL     OW 1588   0.429   2.525   0.157 -0.6232 -0.6249  0.5302
  530SOL    HW1 1589   0.418   2.481   0.252 -1.9237  0.4972  0.5546
  530SOL    HW2 1590   0.436   2.453   0.084  0.0044 -1.2718  0.6510
  531SOL     OW 1591   1.824   1.008   1.043  0.5549  0.3104  0.5394
  531SOL    HW1 1592   1.858   1.031   0.947 -3.5264  1.8292 -1.1309
  531SOL    HW2 1593   1.733   0.959   1.032 -0.0897  1.4853 -0.4446
  532SOL     OW 1594   0.401   1.201   0.685 -0.0710 -0.0436 -0.5124
  532SOL    HW1 1595   0.417   1.157   0.594 -0.8808  0.0567 -1.5020
  532SOL    HW2 1596   0.372   1.130   0.759 -0.5427  1.7229  2.1283
  533SOL     OW 1597   1.829   0.008   2.634 -0.0125  0.5622 -0.4177
  533SOL    HW1 1598   1.934   0.005   2.615  1.7375  2.5588  1.1388
  533SOL    HW2 1599   1.803   0.100   2.667  1.1635 -0.0957  0.0464
  534SOL     OW 1600   0.196   0.178   1.551  0.0113  0.0224 -0.0803
  534SOL    HW1 1601   0.261   0.255   1.542  0.9009  1.5927  2.1381
  534SOL    HW2 1602   0.101   0.215   1.532 -1.6369  0.8065 -1.4978
  535SOL     OW 1603   1.881   0.384   0.153 -0.0276  0.3379 -0.3076
  535SOL    HW1 1604   1.917   0.468   0.206 -2.2128 -2.4099  0.9022
  535SOL    HW2 1605   1.793   0.352   0.178  2.2372  2.3333 -0.8733
  536SOL     OW 1606   1.231   2.490   0.944 -0.1372  0.1928  0.5358
  536SOL    HW1 1607   1.286   2.456   0.861 -2.0846 -0.7788  0.0185
  536SOL    HW2 1608   1.139   2.530   0.920 -2.5608 -0.7699  1.7527
  537SOL     OW 1609   0.872   0.250   2.314 -0.0302  0.1091 -0.2266
  537SOL    HW1 1610   0.847   0.279   2.215  0.0023  2.3929  1.8920
  537SOL    HW2 1611   0.936   0.169   2.323 -3.5960 -1.2892 -3.4444
  538SOL     OW 1612   1.722   2.255   1.640 -0.4129  0.2577 -0.0185
  538SOL    HW1 1613   1.686   2.187   1.567  2.4906  0.2923 -3.0772
  538SOL    HW2 1614   1.788   2.318   1.599 -0.5214 -0.0399 -1.7446
  539SOL     OW 1615   0.142   1.552   2.780 -0.1004 -0.0311 -0.0808
  539SOL    HW1 1616   0.060   1.529   2.719 -1.0726  0.1667 -2.2993
  539SOL    HW2 1617   0.198   1.633   2.757  1.7393  1.0158  1.2672
  540SOL     OW 1618   2.641   1.791   2.134  0.1390  0.2293  0.3773
  540SOL    HW1 1619   2.617   1.693   2.110 -3.3787 -1.7322  1.1453
  540SOL    HW2 1620   2.612   1.863   2.066  0.5444 -2.5359 -3.1773
  541SOL     OW 1621   0.421   2.311   3.079 -0.0078 -0.0570 -0.6700
  541SOL    HW1 1622   0.435   2.241   3.154  2.1075  0.3638  0.7965
  541SOL    HW2 1623   0.337   2.277   3.025 -0.7396 -0.8718 -0.0164
  542SOL     OW 1624   2.185   2.568   0.459  0.3912 -0.0216 -0.1885
  542SOL    HW1 1625   2.185   2.661   0.421 -0.8686 -1.1974 -0.3815
  542SOL    HW2 1626   2.089   2.528   0.468 -1.0083 -1.8955 -3.4838
  543SOL     OW 1627   1.114   1.788   1.770  0.0785  0.5568 -0.3655
  543SOL    HW1 1628   1.082   1.815   1.864 -1.3654 -0.9955 -1.8769
  543SOL    HW2 1629   1.053   1.831   1.695 -0.2455  1.7042 -3.8659
  544SOL     OW 1630   0.843   0.466   0.130  0.0973 -0.1862  0.1268
  544SOL    HW1 1631   0.904   0.408   0.192  0.0008 -1.9524  1.1644
  544SOL    HW2 1632   0.868   0.459   0.031 -0.8829  0.9144  0.7520
  545SOL     OW 1633   1.147   1.739   0.662 -0.1869  0.5037  0.4280
  545SOL    HW1 1634   1.229   1.703   0.712  0.6924  0.2197  0.9303
  545SOL    HW2 1635   1.170   1.769   0.564  0.2313  0.5395 -1.0261
  546SOL     OW 1636   2.729   1.588   0.038  0.0572 -0.2422  0.0353
  546SOL    HW1 1637   2.777   1.551  -0.048  1.6543  0.6692  1.1537
  546SOL    HW2 1638   2.653   1.524   0.050  0.9563 -0.6603 -1.4193
  547SOL     OW 1639   0.476   3.050   2.712  0.2016 -0.6152 -0.2907
  547SOL    HW1 1640   0.495   2.985   2.637 -0.3193  1.9588 -1.1643
  547SOL    HW2 1641   0.497   3.017   2.809 -1.2271  0.1352  2.9229
  548SOL     OW 1642   2.067   0.776   3.018  0.1669 -0.2884  0.9094
  548SOL    HW1 1643   1.967   0.755   3.026  3.7105  1.1082  0.0142
  548SOL    HW2 1644   2.084   0.881   2.999 -2.6767  0.0011  2.5769
  549SOL     OW 1645   0.559   0.456   0.083 -0.2040 -0.2440 -0.4961
  549SOL    HW1 1646   0.542   0.527   0.010  1.7484  3.4313 -0.6652
  549SOL    HW2 1647   0.656   0.454   0.117  0.3223  0.6743  0.1688
  550SOL     OW 1648   2.524   2.871   2.917  0.1144 -0.3206  0.1238
  550SOL    HW1 1649   2.511   2.796   2.990  0.8204 -2.9735 -1.7986
  550SOL    HW2 1650   2.525   2.833   2.818 -0.0141 -0.9903 -0.4152
  551SOL     OW 1651   0.259   0.831   0.223 -0.4253  0.0942 -0.6582
  551SOL    HW1 1652   0.357   0.795   0.210  1.6354 -0.8123  0.9148
  551SOL    HW2 1653   0.229   0.834   0.323 -0.5984 -1.4668 -2.5500
  552SOL     OW 1654   0.863   2.801   1.916  0.0737 -0.5288 -0.3892
  552SOL    HW1 1655   0.819   2.780   2.009 -0.4925 -0.0065 -0.4368
  552SOL    HW2 1656   0.847   2.902   1.881  1.4729 -0.3919 -2.5726
  553SOL     OW 1657   3.094   2.562   0.360  0.1169 -0.1943  0.2575
  553SOL    HW1 1658   3.030   2.482   0.354 -0.2224  0.3794  1.6374
  553SOL    HW2 1659   3.152   2.562   0.449 -2.2707  1.0759  0.9526
  554SOL     OW 1660   2.086   0.328   0.497 -0.4081 -0.5085  0.4471
  554SOL    HW1 1661   2.089   0.301   0.399 -1.3686  0.8951 -1.2853
  554SOL    HW2 1662   2.112   0.252   0.569  1.6358 -1.0316  1.1169
  555SOL     OW 1663   0.521   2.858   2.527 -0.3961  0.2767  0.1126
  555SOL    HW1 1664   0.449   2.898   2.461 -0.6174 -0.6789  1.4796
  555SOL    HW2 1665   0.599   2.823   2.474 -0.7073  0.6305  0.8344
  556SOL     OW 1666   0.971   2.356   1.644  0.4236  0.0246 -0.0394
  556SOL    HW1 1667   0.996   2.441   1.699  0.7123 -0.0006 -1.3417
  556SOL    HW2 1668   1.031   2.343   1.557 -0.6875  1.7973 -0.5695
  557SOL     OW 1669   0.141   2.120   0.110  0.1561 -0.2044  0.1117
  557SOL    HW1 1670   0.059   2.052   0.099  2.0501 -0.0229 -0.7053
  557SOL    HW2 1671   0.134   2.187   0.029 -1.6941  0.0519 -0.5931
  558SOL     OW 1672   2.977   2.309   0.264 -0.8091  0.1777 -0.3098
  558SOL    HW1 1673   2.875   2.288   0.249 -0.4538  1.4563 -0.2763
  558SOL    HW2 1674   3.021   2.343   0.173 -0.0769  0.8919 -2.5801
  559SOL     OW 1675   0.395   2.286   1.303  0.7071 -0.0644 -0.1293
  559SOL    HW1 1676   0.300   2.325   1.284  1.4812 -0.3199  0.9579
  559SOL    HW2 1677   0.404   2.191   1.260 -0.8505 -0.4331 -1.1062
  560SOL     OW 1678   2.042   1.050   3.019 -0.1096 -0.3912 -0.1306
  560SOL    HW1 1679   2.043   1.112   2.935 -0.2666  0.2922 -0.9170
  560SOL    HW2 1680   1.998   1.093   3.105 -3.0241 -1.3802  1.4710
  561SOL     OW 1681   3.018   1.965   0.096  0.4760  0.6228  0.4956
  561SOL    HW1 1682   2.971   1.878   0.067 -0.1557  0.1156 -0.8376
  561SOL    HW2 1683   2.973   2.050   0.059  1.9467 -0.0763 -0.7856
  562SOL     OW 1684   0.840   2.162   2.460 -0.1604  0.4535  0.0282
  562SOL    HW1 1685   0.736   2.146   2.464 -1.1532  1.0265 -2.3812
  562SOL    HW2 1686   0.864   2.224   2.549 -1.6520  2.3535  2.4701
  563SOL     OW 1687   0.660   2.565   2.549  0.7751  0.0087 -0.3234
  563SOL    HW1 1688   0.583   2.499   2.552  1.0088  0.7726 -0.9467
  563SOL    HW2 1689   0.700   2.598   2.639 -3.7382  0.0277  1.0337
  564SOL     OW 1690   2.760   1.301   2.912 -0.3234 -0.1228 -0.5886
  564SOL    HW1 1691   2.669   1.304   2.962  2.1538 -0.5407 -0.9942
  564SOL    HW2 1692   2.807   1.395   2.904 -1.0152 -0.4872  0.7140
  565SOL     OW 1693   2.545   2.026   2.573 -0.0120 -0.0923  0.5106
  565SOL    HW1 1694   2.488   2.106   2.543  1.7293  1.3163  0.3254
  565SOL    HW2 1695   2.608   2.052   2.648 -0.9949  0.8460 -1.8392
  566SOL     OW 1696   2.019   2.818   1.441 -0.6945  0.3747 -0.2324
  566SOL    HW1 1697   2.026   2.733   1.497  1.4815 -1.2307  1.3537
  566SOL    HW2 1698   2.055   2.808   1.344  0.8421 -0.5381  0.2340
  567SOL     OW 1699   2.401   0.119   2.219  0.4743  0.4809  0.1076
  567SOL    HW1 1700   2.438   0.148   2.128  0.6983 -2.6605 -1.4539
  567SOL    HW2 1701   2.325   0.051   2.218 -1.9368  2.0165 -0.4225
  568SOL     OW 1702   1.448   1.808   0.479  0.6434 -0.0553 -0.3167
  568SOL    HW1 1703   1.434   1.874   0.395 -0.4449  0.4489 -0.6382
  568SOL    HW2 1704   1.494   1.848   0.557 -3.3165  1.4213  1.1017
  569SOL     OW 1705   0.294   0.690   0.756  0.0391  0.1901  0.2645
  569SOL    HW1 1706   0.356   0.619   0.697  0.5864 -0.2393 -0.3878
  569SOL    HW2 1707   0.195   0.655   0.779 -4.0967  4.0478  2.8237
  570SOL     OW 1708   0.596   0.841   2.829  0.0753 -0.7711  0.6440
  570SOL    HW1 1709   0.645   0.837   2.734  1.1770  0.8857  0.9115
  570SOL    HW2 1710   0.618   0.930   2.877 -0.2814  0.7007 -0.0473
  571SOL     OW 1711   0.833   3.083   1.165  0.3538 -0.2584 -0.8912
  571SOL    HW1 1712   0.837   3.162   1.096 -0.5160 -1.1400 -1.1070
  571SOL    HW2 1713   0.928   3.053   1.185 -0.1726  1.3349  0.7250
  572SOL     OW 1714   1.473   2.572   1.185 -0.1525 -0.1482  0.2097
  572SOL    HW1 1715   1.411   2.490   1.212  1.9403  2.4575 -2.8426
  572SOL    HW2 1716   1.424   2.643   1.123 -0.9307 -1.2195  1.0173
  573SOL     OW 1717   2.941   0.486   2.073  0.2185 -0.3689  0.1679
  573SOL    HW1 1718   2.928   0.396   2.119 -1.1156 -1.6297 -1.2586
  573SOL    HW2 1719   2.853   0.519   2.018 -1.2555  0.4281 -0.0453
  574SOL     OW 1720   0.229   1.764   1.022 -0.1822  0.6527  0.2219
  574SOL    HW1 1721   0.235   1.856   0.976 -0.9482 -2.8453 -1.0971
  574SOL    HW2 1722   0.151   1.761   1.093  0.0357  0.0117 -2.0037
  575SOL     OW 1723   0.935   2.220   1.018 -0.5622 -0.0662 -0.2321
  575SOL    HW1 1724   0.880   2.186   1.099 -2.7763  4.0991  0.1022
  575SOL    HW2 1725   1.036   2.232   1.045 -0.3381 -0.1387  2.7446
  576SOL     OW 1726   2.886   2.924   1.742  0.3367 -0.1724 -0.2518
  576SOL    HW1 1727   2.837   2.870   1.667  0.0668  1.2435 -2.7951
  576SOL    HW2 1728   2.843   3.014   1.757  0.7923  1.8610 -0.3606
  577SOL     OW 1729   2.516   1.244   3.076 -0.2257 -0.3474  0.1509
  577SOL    HW1 1730   2.521   1.148   3.031  2.8113  0.1630  1.0785
  577SOL    HW2 1731   2.572   1.251   3.161  0.3728 -0.3280 -3.2175
  578SOL     OW 1732   1.333   2.785   2.565 -0.3353  0.2414  0.2158
  578SOL    HW1 1733   1.265   2.740   2.499  1.0221 -0.5749 -1.5495
  578SOL    HW2 1734   1.340   2.883   2.549  0.7778 -0.4865 -2.0604
  579SOL     OW 1735   0.130   2.586   0.130  0.0823  0.5530  0.0137
  579SOL    HW1 1736   0.077   2.572   0.221 -0.0369  0.0714 -0.5954
  579SOL    HW2 1737   0.228   2.555   0.135  3.1370  0.6077  0.0410
  580SOL     OW 1738   0.943   2.692   0.397  0.7779 -0.1354 -0.5134
  580SOL    HW1 1739   1.029   2.734   0.351 -0.0091 -0.7799  0.5145
  580SOL    HW2 1740   0.903   2.613   0.345 -2.3919  0.4516  0.5268
  581SOL     OW 1741   1.250   2.527   1.463  1.0342  0.5337  1.0903
  581SOL    HW1 1742   1.275   2.465   1.381  1.9380  0.9312 -1.3797
  581SOL    HW2 1743   1.258   2.625   1.433  1.3691  1.8754 -0.3163
  582SOL     OW 1744   1.527   0.068   1.867 -0.1320  0.2654  0.1465
  582SOL    HW1 1745   1.553   0.146   1.930  1.1035 -0.1183  0.5566
  582SOL    HW2 1746   1.585   0.055   1.789 -0.4522  0.3154  4.2778
  583SOL     OW 1747   2.380   2.966   0.571  0.0351  0.6618  0.4650
  583SOL    HW1 1748   2.444   2.910   0.514 -1.0969  0.4920  0.5336
  583SOL    HW2 1749   2.328   2.900   0.632 -1.1961 -0.0112 -1.8589
  584SOL     OW 1750   1.526   0.968   2.079 -0.0767 -0.0179  0.1349
  584SOL    HW1 1751   1.590   1.019   2.011 -1.2107  0.7899  1.4243
  584SOL    HW2 1752   1.577   0.930   2.164 -0.5627  2.4386  0.0007
  585SOL     OW 1753   2.087   2.706   2.859  0.4200 -0.5803  0.4575
  585SOL    HW1 1754   2.116   2.607   2.848 -1.4436  2.7952  2.7476
  585SOL    HW2 1755   1.986   2.713   2.878  1.7946  0.0791  3.2659
  586SOL     OW 1756   2.778   0.265   1.566 -0.1872 -0.9316 -0.2853
  586SOL    HW1 1757   2.786   0.347   1.631 -1.5835 -0.0131  2.0745
  586SOL    HW2 1758   2.692   0.208   1.579 -1.4992  1.5167  0.7280
  587SOL     OW 1759   2.028   1.615   2.742 -0.5078  0.1964  0.0559
  587SOL    HW1 1760   2.090   1.597   2.662  2.4540 -0.5542  1.8471
  587SOL    HW2 1761   2.079   1.596   2.831  3.9647 -1.0231  2.8505
  588SOL     OW 1762   0.523   2.693   2.241 -0.2078  0.0759 -0.4514
  588SOL    HW1 1763   0.441   2.705   2.178  1.0979  0.8093  0.5593
  588SOL    HW2 1764   0.496   2.641   2.328  0.5902 -0.1690  0.1765
  589SOL     OW 1765   2.175   1.476   2.523  0.0191 -0.2282  0.3615
  589SOL    HW1 1766   2.094   1.431   2.477  0.3009 -0.5854 -0.6968
  589SOL    HW2 1767   2.251   1.408   2.533 -1.0302 -2.9090 -0.2458
  590SOL     OW 1768   2.358   1.773   2.022  0.4767 -0.2612 -0.5001
  590SOL    HW1 1769   2.438   1.707   2.014  0.9230  1.4453 -0.7488
  590SOL    HW2 1770   2.354   1.819   2.112 -1.0304 -2.1304 -2.0919
  591SOL     OW 1771   1.312   2.465   0.348  0.4526 -0.5076 -0.1543
  591SOL    HW1 1772   1.392   2.421   0.301 -2.3580  0.5732 -0.7991
  591SOL    HW2 1773   1.309   2.450   0.450 -0.4620  1.1499  0.0189
  592SOL     OW 1774   1.699   2.321   0.775 -0.3278 -0.1237 -0.0768
  592SOL    HW1 1775   1.669   2.389   0.703  1.0698  2.1207  2.8614
  592SOL    HW2 1776   1.807   2.314   0.783 -2.8768  0.3771  0.4879
  593SOL     OW 1777   0.525   0.252   2.996  0.3994 -0.4946  0.3124
  593SOL    HW1 1778   0.613   0.201   2.992 -0.2070 -1.1226 -3.0056
  593SOL    HW2 1779   0.511   0.330   3.065 -1.5354 -0.3433  2.1151
  594SOL     OW 1780   0.927   1.876   2.757 -0.0879  0.2464  0.3564
  594SOL    HW1 1781   1.012   1.891   2.811 -0.7836 -1.0747 -1.7416
  594SOL    HW2 1782   0.865   1.960   2.744 -2.4253 -1.0382  0.8049
  595SOL     OW 1783   1.558   3.077   1.025  0.1521  0.3402  0.0247
  595SOL    HW1 1784   1.630   3.005   1.046 -0.1801  3.6196 -0.1982
  595SOL    HW2 1785   1.496   3.054   0.946  1.3252 -1.0511 -0.8233
  596SOL     OW 1786   3.083   1.473   2.224  0.3467 -0.2206 -0.5656
  596SOL    HW1 1787   3.003   1.548   2.233 -1.1006  1.5342  2.3849
  596SOL    HW2 1788   3.082   1.414   2.311 -0.8564 -2.0842  3.3240
  597SOL     OW 1789   2.046   2.579   1.596  0.3447 -0.0339 -0.0006
  597SOL    HW1 1790   2.116   2.515   1.554  3.3404 -1.6043  0.6223
  597SOL    HW2 1791   2.068   2.616   1.687 -0.6780  1.4817  0.8197
  598SOL     OW 1792   2.601   2.867   1.226  0.1711  0.6883 -0.1498
  598SOL    HW1 1793   2.673   2.887   1.299  0.6008 -1.0504 -0.9796
  598SOL    HW2 1794   2.636   2.858   1.127 -2.3230 -0.9624  0.2844
  599SOL     OW 1795   2.930   0.343   2.415 -0.6051 -0.2816 -0.4109
  599SOL    HW1 1796   3.027   0.327   2.382  1.2472  0.7630  1.7098
  599SOL    HW2 1797   2.884   0.407   2.351  1.9624 -0.4870 -0.5253
  600SOL     OW 1798   2.801   1.082   2.753  0.5097 -0.4024 -0.3126
  600SOL    HW1 1799   2.788   0.988   2.791  2.2181 -0.7449 -0.7844
  600SOL    HW2 1800   2.744   1.156   2.804  0.1086  0.9294  1.4455
  601SOL     OW 1801   2.947   1.296   2.036 -0.4636 -0.3109 -0.1929
  601SOL    HW1 1802   2.858   1.319   1.995  3.8706 -0.5923  0.0560
  601SOL    HW2 1803   2.979   1.371   2.102 -1.2996 -2.2048 -0.0709
  602SOL     OW 1804   1.542   1.678   2.295  0.0114  0.3744  1.1132
  602SOL    HW1 1805   1.469   1.599   2.294 -2.4374 -2.1604 -3.2183
  602SOL    HW2 1806   1.623   1.661   2.362  2.0170  0.3881  1.0681
  603SOL     OW 1807   0.710   1.248   2.613 -0.0984  0.2562  0.6056
  603SOL    HW1 1808   0.642   1.214   2.544 -0.6694 -0.6104 -1.7438
  603SOL    HW2 1809   0.775   1.172   2.649  0.9434 -0.7367  1.0852
  604SOL     OW 1810   2.408   1.031   0.178 -0.1816 -0.5175 -0.5387
  604SOL    HW1 1811   2.418   1.109   0.108 -1.0557 -2.7161 -1.0778
  604SOL    HW2 1812   2.396   0.937   0.135 -1.4191  0.2365 -0.4910
  605SOL     OW 1813   2.596   1.115   1.981 -0.3997 -0.5251  0.5341
  605SOL    HW1 1814   2.585   1.033   1.915  0.3798  2.1043 -1.9911
  605SOL    HW2 1815   2.636   1.090   2.073  1.8577 -0.2924  0.7080
  606SOL     OW 1816   1.491   2.525   2.567  0.6840 -0.2795  0.4704
  606SOL    HW1 1817   1.399   2.569   2.568 -1.8130 -1.4451  0.4952
  606SOL    HW2 1818   1.489   2.424   2.565 -0.5354  2.1714 -1.7992
  607SOL     OW 1819   1.316   1.546   0.434  0.2278 -0.0700 -0.4585
  607SOL    HW1 1820   1.309   1.486   0.517  0.2536  1.9077  0.0551
  607SOL    HW2 1821   1.360   1.636   0.446  0.0114 -0.6688  0.7491
  608SOL     OW 1822   1.383   2.882   0.390  0.2216  0.3065  0.4394
  608SOL    HW1 1823   1.455   2.928   0.334 -1.8635  1.3439 -2.2948
  608SOL    HW2 1824   1.313   2.950   0.421  1.0197 -0.7457  1.1165
  609SOL     OW 1825   1.330   1.327   0.206  0.2921 -0.3462  0.0772
  609SOL    HW1 1826   1.322   1.398   0.280  0.3650  0.1088  2.2421
  609SOL    HW2 1827   1.251   1.324   0.141  0.4035  2.7251  1.2868
  610SOL     OW 1828   3.015   1.084   2.281  0.4636 -0.4813  0.1054
  610SOL    HW1 1829   2.998   0.982   2.263  0.1374  0.1950 -0.2327
  610SOL    HW2 1830   2.987   1.136   2.198 -2.0998 -1.7577  0.2439
  611SOL     OW 1831   2.542   0.309   1.236 -0.5240 -0.1913  0.0126
  611SOL    HW1 1832   2.521   0.210   1.208 -1.9645 -0.5533 -1.2305
  611SOL    HW2 1833   2.635   0.326   1.276 -1.7908 -0.1477  2.2997
  612SOL     OW 1834   0.760   2.172   1.252  0.3195 -0.1679 -0.3327
  612SOL    HW1 1835   0.679   2.123   1.285  0.0120 -2.1585  0.2048
  612SOL    HW2 1836   0.741   2.269   1.214 -0.3517  0.3476  0.6817
  613SOL     OW 1837   0.990   1.431   2.356  0.4558 -0.2136  0.3401
  613SOL    HW1 1838   1.017   1.491   2.270  0.3515  1.1491  1.3127
  613SOL    HW2 1839   0.898   1.378   2.350 -2.1506 -0.4843 -1.2042
  614SOL     OW 1840   1.640   1.526   1.741  0.8083  0.2852  0.3506
  614SOL    HW1 1841   1.562   1.596   1.753  0.4835  1.3552 -2.3471
  614SOL    HW2 1842   1.696   1.511   1.827  0.7993  0.3095  1.5969
  615SOL     OW 1843   0.790   1.273   1.741 -0.1816 -0.2873 -0.2039
  615SOL    HW1 1844   0.724   1.251   1.661 -3.2222 -0.0058 -1.5215
  615SOL    HW2 1845   0.820   1.369   1.738  1.0483  2.1286 -1.1210
  616SOL     OW 1846   1.049   1.564   2.135 -0.7195  0.0554  0.8745
  616SOL    HW1 1847   0.982   1.611   2.076 -2.2138 -1.5503  0.1399
  616SOL    HW2 1848   1.100   1.631   2.199  0.0168  0.3993  2.2119
  617SOL     OW 1849   2.960   1.546   1.596 -0.0939 -0.0253  0.0596
  617SOL    HW1 1850   2.978   1.453   1.638 -1.2985 -1.9010 -1.3283
  617SOL    HW2 1851   2.965   1.544   1.492 -0.8535 -1.3899 -0.5879
  618SOL     OW 1852   1.871   1.996   1.375  0.4277  0.3465  0.0306
  618SOL    HW1 1853   1.904   2.077   1.311  0.3031  1.9930 -0.1128
  618SOL    HW2 1854   1.867   1.905   1.326 -2.9312  0.8061 -0.4440
  619SOL     OW 1855   1.740   0.446   2.370 -0.0941  0.2749  0.7765
  619SOL    HW1 1856   1.673   0.497   2.314  1.2409  1.0675 -1.2632
  619SOL    HW2 1857   1.718   0.349   2.387  1.8388  3.3223  2.4330
  620SOL     OW 1858   2.252   2.818   0.764 -0.0715  0.0367 -0.3076
  620SOL    HW1 1859   2.148   2.825   0.773  1.7133  1.0365  1.3769
  620SOL    HW2 1860   2.295   2.760   0.836  0.2585 -1.4838 -0.4299
  621SOL     OW 1861   2.183   1.933   1.331 -0.1358  0.2990  0.6975
  621SOL    HW1 1862   2.178   1.947   1.434  0.6075 -0.5567  1.6421
  621SOL    HW2 1863   2.165   1.835   1.300 -0.3415  0.7719 -0.6239
  622SOL     OW 1864   2.246   0.927   1.873  0.7316 -0.2076  0.3054
  622SOL    HW1 1865   2.348   0.935   1.853  0.1537  0.4732  0.7206
  622SOL    HW2 1866   2.225   0.846   1.929 -2.7584 -2.3542 -3.3183
  623SOL     OW 1867   1.264   0.846   2.511 -0.3044 -0.0174 -0.0010
  623SOL    HW1 1868   1.220   0.762   2.551 -0.4297 -0.9723  0.5223
  623SOL    HW2 1869   1.223   0.861   2.417 -1.1817 -2.1980 -4.3844
  624SOL     OW 1870   0.493   0.659   3.007  0.4336  0.1016  0.2079
  624SOL    HW1 1871   0.552   0.697   2.928 -1.0335  2.1181 -0.3218
  624SOL    HW2 1872   0.497   0.714   3.093 -1.3707 -0.9475  0.2031
  625SOL     OW 1873   2.732   1.716   1.002 -0.2925 -0.1076 -0.1643
  625SOL    HW1 1874   2.645   1.775   1.004  1.3998  0.1837 -0.6871
  625SOL    HW2 1875   2.816   1.775   1.029 -1.1291  0.0926  0.2272
  626SOL     OW 1876   0.637   2.685   1.755 -0.5082  0.4819  0.6840
  626SOL    HW1 1877   0.703   2.705   1.835 -0.4551 -0.8581 -2.2523
  626SOL    HW2 1878   0.547   2.644   1.784  1.1561  2.2302 -0.5836
  627SOL     OW 1879   0.647   0.828   1.714 -0.1728 -0.2405 -0.5495
  627SOL    HW1 1880   0.584   0.768   1.656 -1.1215  0.1510 -3.2417
  627SOL    HW2 1881   0.694   0.906   1.659 -0.6497  1.7117 -0.5676
  628SOL     OW 1882   2.361   0.092   0.749  0.0862  0.7253  0.0765
  628SOL    HW1 1883   2.367   0.018   0.674  2.1102 -0.3269  1.3782
  628SOL    HW2 1884   2.269   0.099   0.799 -3.9780 -0.3861  0.8750
  629SOL     OW 1885   1.875   0.927   1.979  0.2005 -0.1201  0.2792
  629SOL    HW1 1886   1.877   0.997   1.902  2.1971  1.0243  0.4005
  629SOL    HW2 1887   1.942   0.958   2.050  2.2862  0.5932 -2.3723
  630SOL     OW 1888   2.922   2.205   0.794  0.4070 -0.1035 -0.0401
  630SOL    HW1 1889   2.861   2.283   0.820  0.2637  1.4617 -1.1082
  630SOL    HW2 1890   2.863   2.120   0.772  0.3125  1.1426 -2.7032
  631SOL     OW 1891   3.035   0.102   2.030 -0.0649  0.0952  0.4474
  631SOL    HW1 1892   3.102   0.157   2.086  1.7383 -0.2190  1.2173
  631SOL    HW2 1893   3.062   0.092   1.926  0.7124  1.2964 -0.9831
  632SOL     OW 1894   2.488   2.581   0.600 -0.5089  0.1577  0.0720
  632SOL    HW1 1895   2.551   2.660   0.626  0.0526  1.8056 -2.3440
  632SOL    HW2 1896   2.395   2.622   0.571 -0.1939 -0.5539  1.2521
  633SOL     OW 1897   1.464   1.265   2.669  0.1000 -0.0553 -0.7231
  633SOL    HW1 1898   1.444   1.332   2.744  1.7391  0.8112  0.6472
  633SOL    HW2 1899   1.384   1.252   2.603  0.2397 -0.7693 -1.6020
  634SOL     OW 1900   0.719   2.147   0.864  0.0076 -0.8042 -0.1037
  634SOL    HW1 1901   0.637   2.129   0.924  0.2763 -0.0270  0.2201
  634SOL    HW2 1902   0.797   2.202   0.905 -2.6249  1.9322 -0.0299
  635SOL     OW 1903   3.040   2.426   3.099  0.4405 -0.5118 -0.0707
  635SOL    HW1 1904   2.943   2.458   3.070 -1.4550 -0.9193  3.0182
  635SOL    HW2 1905   3.102   2.506   3.120  0.9468 -1.6688  1.0316
  636SOL     OW 1906   2.376   2.713   2.059 -0.1690  0.9522  0.3625
  636SOL    HW1 1907   2.331   2.802   2.091 -0.3083  0.9454 -1.2830
  636SOL    HW2 1908   2.328   2.625   2.094  1.9185 -2.9055 -0.0851
  637SOL     OW 1909   2.678   0.609   1.951 -0.0020 -0.8722  0.1049
  637SOL    HW1 1910   2.585   0.649   1.919 -0.1857  0.8006  0.3691
  637SOL    HW2 1911   2.754   0.682   1.946 -3.1281 -0.1813 -1.3294
  638SOL     OW 1912   2.484   1.882   1.345 -0.1008 -0.0502 -0.1119
  638SOL    HW1 1913   2.404   1.940   1.378  0.4414 -2.0543  1.9054
  638SOL    HW2 1914   2.479   1.787   1.387 -1.5405  0.6144 -0.1750
  639SOL     OW 1915   1.262   2.206   1.576  0.1357  0.6270  0.9048
  639SOL    HW1 1916   1.342   2.271   1.592 -3.2417  1.9825 -2.6335
  639SOL    HW2 1917   1.203   2.179   1.662  1.7144 -2.3373  2.9170
  640SOL     OW 1918   0.179   1.230   1.541  0.0435  0.0951  0.4488
  640SOL    HW1 1919   0.188   1.268   1.639 -0.0213 -1.6025  2.1429
  640SOL    HW2 1920   0.267   1.182   1.516  1.6318  0.1723  0.4985
  641SOL     OW 1921   1.978   0.266   1.515  0.0372 -0.3888  0.3133
  641SOL    HW1 1922   1.921   0.322   1.579 -0.5634 -0.3127  0.5454
  641SOL    HW2 1923   2.080   0.258   1.545  0.7206  0.5507 -3.8610
  642SOL     OW 1924   2.027   3.063   0.355 -0.0498  0.1276 -0.6017
  642SOL    HW1 1925   2.114   3.118   0.377 -2.7377  0.5415 -2.5227
  642SOL    HW2 1926   1.947   3.096   0.414  1.6407 -0.4272 -2.2867
  643SOL     OW 1927   2.925   1.934   2.080 -0.5317  0.1375 -0.1191
  643SOL    HW1 1928   2.850   1.890   2.026  0.3005 -1.8609 -1.9928
  643SOL    HW2 1929   2.940   2.034   2.056 -1.0140  1.3442 -1.7631
  644SOL     OW 1930   2.283   2.415   1.280  0.2241 -0.4513 -0.5422
  644SOL    HW1 1931   2.369   2.373   1.235  0.7372  0.1429  2.5027
  644SOL    HW2 1932   2.269   2.371   1.376  1.7447 -0.5475 -0.7356
  645SOL     OW 1933   0.677   0.807   1.268  0.7516  0.6750 -0.0896
  645SOL    HW1 1934   0.583   0.776   1.246 -0.1014  0.6508  0.5496
  645SOL    HW2 1935   0.705   0.870   1.190 -2.0174 -0.0975 -0.7676
  646SOL     OW 1936   1.519   1.753   2.029 -0.4017  0.1854 -0.4140
  646SOL    HW1 1937   1.594   1.796   1.970 -2.2591  1.1905  0.9584
  646SOL    HW2 1938   1.545   1.725   2.129  1.9097  0.3144 -1.3182
  647SOL     OW 1939   0.760   1.077   0.599  0.4682  0.4384  0.7807
  647SOL    HW1 1940   0.823   1.111   0.674 -0.2488 -0.8804  0.7428
  647SOL    HW2 1941   0.706   0.994   0.626 -0.2522  0.6296 -0.7970
  648SOL     OW 1942   0.173   0.239   0.375  0.8927  0.0950  0.2635
  648SOL    HW1 1943   0.110   0.159   0.385 -1.2130 -0.4082 -3.2645
  648SOL    HW2 1944   0.135   0.309   0.306 -1.7011  2.5182 -0.9034
  649SOL     OW 1945   3.003   0.270   0.936 -0.2302  0.3129 -0.3259
  649SOL    HW1 1946   3.058   0.264   0.852 -1.0429 -0.7263  0.3936
  649SOL    HW2 1947   3.056   0.269   1.023 -0.1048  0.3158  0.0895
  650SOL     OW 1948   2.800   0.706   1.437  0.5932  0.0681  0.4023
  650SOL    HW1 1949   2.698   0.679   1.433  2.0854 -1.9641  1.1404
  650SOL    HW2 1950   2.818   0.798   1.383  1.1980 -0.4785  0.2520
  651SOL     OW 1951   0.873   1.528   1.697  0.2465  0.4499 -0.0409
  651SOL    HW1 1952   0.859   1.594   1.776  0.3952  1.1994 -1.7741
  651SOL    HW2 1953   0.973   1.522   1.666  0.3332  0.2238  0.4299
  652SOL     OW 1954   2.325   2.552   2.509  0.5114 -0.5674 -0.2923
  652SOL    HW1 1955   2.226   2.550   2.535 -0.3542  0.5326 -1.3530
  652SOL    HW2 1956   2.350   2.638   2.463  0.3082  0.2071  0.9850
  653SOL     OW 1957   2.695   1.242   0.181  0.5623  0.2210  0.0480
  653SOL    HW1 1958   2.728   1.325   0.237 -3.1104 -0.3705 -0.4692
  653SOL    HW2 1959   2.747   1.154   0.199  2.0435  1.4989  0.7525
  654SOL     OW 1960   1.195   2.084   1.254  0.0853  0.5879 -0.1839
  654SOL    HW1 1961   1.172   1.995   1.305 -1.6875  1.5698 -0.4739
  654SOL    HW2 1962   1.232   2.070   1.160  2.3147  2.3219  3.3497
  655SOL     OW 1963   0.182   0.985   1.908  0.5594  0.1594  0.5527
  655SOL    HW1 1964   0.266   0.932   1.879 -0.8501  0.4852 -1.2759
  655SOL    HW2 1965   0.184   1.088   1.890 -2.8242 -0.6502  1.5547
  656SOL     OW 1966   2.557   2.534   2.637  0.3489 -0.0852  0.1505
  656SOL    HW1 1967   2.633   2.510   2.572 -0.1202 -1.9863  1.1243
  656SOL    HW2 1968   2.460   2.524   2.597  0.9547 -0.4509 -1.3375
  657SOL     OW 1969   3.011   1.039   1.953  0.1581  0.8746 -0.0507
  657SOL    HW1 1970   2.999   1.143   1.972 -0.0940 -0.0529 -0.7933
  657SOL    HW2 1971   3.109   1.018   1.931  0.0989  2.5022 -0.1161
  658SOL     OW 1972   1.670   0.155   2.330 -0.5840  0.0498 -0.3255
  658SOL    HW1 1973   1.679   0.102   2.417  2.1400 -0.4035  3.5208
  658SOL    HW2 1974   1.719   0.117   2.248  1.5767 -0.4479  0.3543
  659SOL     OW 1975   1.432   0.687   2.812  0.1503  0.0320  0.2169
  659SOL    HW1 1976   1.472   0.744   2.739  2.2635  1.3501  0.0769
  659SOL    HW2 1977   1.325   0.698   2.820 -2.5085 -0.8495 -0.8372
  660SOL     OW 1978   1.436   0.283   1.403 -0.1798  0.4385 -0.0006
  660SOL    HW1 1979   1.460   0.312   1.500 -3.6187  1.4853  0.5770
  660SOL    HW2 1980   1.516   0.225   1.358  0.3573  0.2679  0.6475
  661SOL     OW 1981   2.387   1.277   0.672  0.2838 -0.4348 -0.3007
  661SOL    HW1 1982   2.402   1.250   0.575 -0.4600  4.4061  1.3038
  661SOL    HW2 1983   2.315   1.356   0.689  0.9882 -1.9418  2.4959
  662SOL     OW 1984   1.470   0.389   1.675 -0.0572 -0.0262  0.3291
  662SOL    HW1 1985   1.407   0.344   1.744 -0.1536  0.3830 -1.0902
  662SOL    HW2 1986   1.461   0.490   1.680  0.2154  1.4802 -1.8988
  663SOL     OW 1987   0.796   1.621   1.934  0.3271 -0.3077  0.1029
  663SOL    HW1 1988   0.776   1.710   1.990  0.1394 -3.2137 -1.2513
  663SOL    HW2 1989   0.748   1.535   1.969  3.3125  0.0951  1.7216
  664SOL     OW 1990   1.611   2.081   1.429 -0.4175  0.8273 -0.0694
  664SOL    HW1 1991   1.542   2.011   1.461  0.5584  1.2043  1.2299
  664SOL    HW2 1992   1.709   2.038   1.419  1.7537 -0.2896 -3.0949
  665SOL     OW 1993   2.248   0.675   2.007 -0.0090  0.1776 -0.4792
  665SOL    HW1 1994   2.247   0.572   2.016 -2.5777  2.4201  0.8897
  665SOL    HW2 1995   2.334   0.714   2.057 -0.0690  1.8138  1.3934
  666SOL     OW 1996   0.460   2.241   0.377  0.3968 -0.2462 -0.2783
  666SOL    HW1 1997   0.508   2.328   0.403  0.0458 -0.6881  0.0965
  666SOL    HW2 1998   0.354   2.246   0.381 -0.2717 -2.2586 -3.6628
  667SOL     OW 1999   2.037   0.205   1.090 -0.1045  0.2687  0.0935
  667SOL    HW1 2000   2.062   0.303   1.102 -0.7899  0.6828  0.9736
  667SOL    HW2 2001   1.949   0.180   1.133 -1.3493  1.6854  0.9363
  668SOL     OW 2002   1.982   0.495   1.072  0.0133  0.0396 -0.4797
  668SOL    HW1 2003   2.067   0.502   1.007 -0.6904  2.7840 -0.1236
  668SOL    HW2 2004   2.000   0.498   1.171 -0.5998  1.9350 -1.2629
  669SOL     OW 2005   3.046   2.137   1.020 -0.3742  0.1286  0.0122
  669SOL    HW1 2006   3.021   2.175   0.926 -1.1796 -0.6810 -2.1502
  669SOL    HW2 2007   2.987   2.178   1.098  0.9686  0.5674  0.2014
  670SOL     OW 2008   2.942   2.381   2.159  0.0941 -0.7237 -0.5674
  670SOL    HW1 2009   2.859   2.342   2.208 -2.3181 -1.4879  0.6178
  670SOL    HW2 2010   2.929   2.471   2.109  1.6664  2.1194 -1.3421
  671SOL     OW 2011   1.782   1.645   1.530 -0.7527 -0.0344 -0.4399
  671SOL    HW1 2012   1.760   1.677   1.432 -1.9966  0.1944 -2.5640
  671SOL    HW2 2013   1.701   1.586   1.567 -2.2463 -0.8326  0.1838
  672SOL     OW 2014   0.479   0.708   2.589 -0.5619 -0.3724  0.5255
  672SOL    HW1 2015   0.405   0.716   2.519 -1.4414  1.2518  0.9070
  672SOL    HW2 2016   0.454   0.757   2.675 -0.2777 -6.0893 -1.9759
  673SOL     OW 2017   0.077   1.407   1.054  0.1889 -0.4336  0.7971
  673SOL    HW1 2018   0.050   1.502   1.084 -2.1245 -1.4079  0.1326
  673SOL    HW2 2019   0.141   1.409   0.967 -1.4154 -0.1940 -2.5757
  674SOL     OW 2020   1.559   3.013   0.232  0.2588 -0.1839 -0.2753
  674SOL    HW1 2021   1.638   3.074   0.219 -1.2322  3.5680  1.1562
  674SOL    HW2 2022   1.539   2.951   0.151  0.4294 -2.5730  0.0471
  675SOL     OW 2023   1.639   0.854   2.310  0.0305  0.1519  0.1871
  675SOL    HW1 2024   1.739   0.857   2.321 -0.0690  0.6053  1.6441
  675SOL    HW2 2025   1.599   0.759   2.293 -0.6917 -2.1353  1.6484
  676SOL     OW 2026   2.560   1.555   2.007 -0.0449  0.0576 -0.1908
  676SOL    HW1 2027   2.509   1.492   1.934  3.7793 -0.4321 -1.3564
  676SOL    HW2 2028   2.609   1.492   2.073 -0.2147 -0.8018  0.3588
  677SOL     OW 2029   1.841   0.713   0.884 -0.0690  0.3007  0.0494
  677SOL    HW1 2030   1.765   0.688   0.950  0.6963 -0.3587  0.5366
  677SOL    HW2 2031   1.932   0.692   0.927  1.1213  1.9992  0.7047
  678SOL     OW 2032   0.080   0.823   1.647 -0.5161  0.2029  0.1743
  678SOL    HW1 2033   0.158   0.865   1.699 -0.9493 -1.2336 -0.0907
  678SOL    HW2 2034   0.037   0.748   1.705  1.1016  0.0386  1.5429
  679SOL     OW 2035   2.569   1.109   1.223 -0.2485  0.0813 -0.0137
  679SOL    HW1 2036   2.473   1.139   1.242  1.7149 -0.8866 -0.6875
  679SOL    HW2 2037   2.572   1.016   1.171  0.4041 -2.3849  0.7036
  680SOL     OW 2038   2.815   0.539   1.687 -0.1012  0.4654  0.4059
  680SOL    HW1 2039   2.775   0.588   1.606 -0.7389 -0.9060 -1.0490
  680SOL    HW2 2040   2.917   0.551   1.701 -1.0080  1.3836  0.4348
  681SOL     OW 2041   3.005   0.038   1.562 -0.2434 -1.1552  0.0005
  681SOL    HW1 2042   2.995  -0.017   1.474 -0.2232  0.2968 -1.3605
  681SOL    HW2 2043   2.946   0.120   1.572  2.2091  3.4341 -1.1286
  682SOL     OW 2044   0.622   0.075   1.282 -0.0255 -0.3979  0.1807
  682SOL    HW1 2045   0.564   0.012   1.341 -0.7255  0.9293 -2.1509
  682SOL    HW2 2046   0.700   0.025   1.228  0.9276  1.2976  0.4043
  683SOL     OW 2047   1.351   0.275   2.189  0.0898  0.2927 -0.4971
  683SOL    HW1 2048   1.344   0.326   2.283  0.2564  1.4862 -1.7920
  683SOL    HW2 2049   1.447   0.280   2.153 -3.4391  0.8913  0.8067
  684SOL     OW 2050   1.387   2.156   0.579  0.6243 -0.2423  0.0774
  684SOL    HW1 2051   1.433   2.101   0.656  0.3368  0.7034  2.1486
  684SOL    HW2 2052   1.301   2.108   0.544 -0.3395  0.1725 -0.5527
  685SOL     OW 2053   2.247   2.080   1.974 -0.1704 -0.1072 -0.0523
  685SOL    HW1 2054   2.292   1.987   1.968 -3.0162 -2.1998  0.7559
  685SOL    HW2 2055   2.259   2.117   2.068  1.6435  0.6011 -0.3183
  686SOL     OW 2056   1.555   1.867   2.905  0.4632  0.5559  0.2246
  686SOL    HW1 2057   1.566   1.800   2.985  1.0238  0.9462  1.5803
  686SOL    HW2 2058   1.456   1.872   2.869  1.0713  3.1672  0.4782
  687SOL     OW 2059   1.398   2.445   1.972 -0.3616 -0.3783 -0.4202
  687SOL    HW1 2060   1.399   2.342   1.957 -0.5645  1.3907  2.3655
  687SOL    HW2 2061   1.365   2.475   2.064 -0.8719  0.3135 -0.4632
  688SOL     OW 2062   2.053   1.500   1.718  0.3212 -0.5787 -0.0507
  688SOL    HW1 2063   2.128   1.569   1.709 -1.7124 -0.9745  0.7272
  688SOL    HW2 2064   2.019   1.473   1.623 -2.9490  0.1983  0.6588
  689SOL     OW 2065   2.352   1.119   2.801  0.4089  0.1260 -0.1257
  689SOL    HW1 2066   2.263   1.065   2.798 -2.2565  2.1306 -1.8177
  689SOL    HW2 2067   2.419   1.080   2.871  1.9404 -2.3356  1.5477
  690SOL     OW 2068   2.216   2.755   0.032 -0.4251 -0.8212 -0.1680
  690SOL    HW1 2069   2.151   2.744  -0.053 -0.8076 -0.4549 -0.6117
  690SOL    HW2 2070   2.173   2.747   0.129  0.2814  5.2645  5.9303
  691SOL     OW 2071   2.568   0.395   2.092 -0.1252 -0.4240  0.2563
  691SOL    HW1 2072   2.621   0.309   2.070 -0.5637  1.1537 -0.7078
  691SOL    HW2 2073   2.604   0.483   2.042  0.3595  0.3508  2.3175
  692SOL     OW 2074   2.676   1.199   0.740  0.3681 -0.5846  0.3946
  692SOL    HW1 2075   2.599   1.208   0.670 -0.4851 -2.6868  1.2883
  692SOL    HW2 2076   2.706   1.290   0.780 -1.5640 -2.6075 -0.4748
  693SOL     OW 2077   2.887   2.920   0.656 -0.0525  0.7538 -0.2661
  693SOL    HW1 2078   2.874   2.996   0.725 -2.4197 -0.5281  0.8524
  693SOL    HW2 2079   2.870   2.947   0.560 -0.4254  1.5036  1.6445
  694SOL     OW 2080   2.379   2.250   0.120 -0.4801 -0.7523  0.2626
  694SOL    HW1 2081   2.382   2.319   0.198  0.0132 -0.6161 -3.0557
  694SOL    HW2 2082   2.287   2.239   0.088  0.3706 -0.9080 -0.5108
  695SOL     OW 2083   0.495   3.019   1.459  0.1506  0.0507  0.4915
  695SOL    HW1 2084   0.446   2.945   1.399  0.2465 -0.4348  0.7069
  695SOL    HW2 2085   0.444   3.046   1.551  0.9108  2.8110  1.2792
  696SOL     OW 2086   2.750   1.981   0.774 -0.1749 -0.2770  0.2493
  696SOL    HW1 2087   2.817   1.905   0.798 -1.1918  0.8997 -1.5429
  696SOL    HW2 2088   2.694   1.962   0.693  2.7991  0.7743  1.1668
  697SOL     OW 2089   1.699   1.844   1.831 -0.5097  0.0384 -0.7812
  697SOL    HW1 2090   1.785   1.813   1.785  1.5536 -1.2229 -0.1649
  697SOL    HW2 2091   1.696   1.949   1.846 -0.5109  0.7785 -1.8968
  698SOL     OW 2092   2.908   0.401   2.676 -0.1276  0.4497 -0.3454
  698SOL    HW1 2093   2.921   0.374   2.576  0.8723  1.5071  0.4277
  698SOL    HW2 2094   2.962   0.343   2.741 -1.0618  1.2137  0.3347
  699SOL     OW 2095   1.656   0.102   2.924 -0.2156 -0.3928 -0.0836
  699SOL    HW1 2096   1.615   0.017   2.877 -1.4362  1.4172 -0.2366
  699SOL    HW2 2097   1.685   0.178   2.860 -2.0526 -0.3056 -1.1389
  700SOL     OW 2098   1.014   2.270   1.343  0.5655 -0.5709 -0.4092
  700SOL    HW1 2099   1.093   2.201   1.326 -1.2180  0.1230 -0.9105
  700SOL    HW2 2100   0.932   2.211   1.329 -0.9544 -0.1156 -0.2151
  701SOL     OW 2101   1.894   2.889   0.015  0.4632 -0.1388 -0.0858
  701SOL    HW1 2102   1.870   2.837   0.104 -3.3146 -2.7749  1.5492
  701SOL    HW2 2103   1.952   2.978   0.016  1.4928  0.1649 -1.0122
  702SOL     OW 2104   2.109   1.373   1.951 -0.0219 -0.2098 -0.0883
  702SOL    HW1 2105   2.195   1.316   1.935 -2.8987 -1.2310  1.1572
  702SOL    HW2 2106   2.069   1.413   1.862  0.7699 -0.3603  1.2070
  703SOL     OW 2107   1.987   0.918   1.452 -0.3793 -0.7407  0.0550
  703SOL    HW1 2108   1.954   0.823   1.476 -0.7599 -0.1669 -1.4354
  703SOL    HW2 2109   2.049   0.960   1.525 -0.7167 -0.9732 -0.0380
  704SOL     OW 2110   0.329   2.076   1.738  0.0068  0.1365  0.3240
  704SOL    HW1 2111   0.379   2.042   1.824  0.5319 -0.5987  2.1052
  704SOL    HW2 2112   0.388   2.136   1.677 -0.7940 -0.9335  1.5907
  705SOL     OW 2113   2.483   1.411   0.901 -0.1009  0.0217 -0.6032
  705SOL    HW1 2114   2.451   1.343   0.828 -1.6511 -0.5907  1.1312
  705SOL    HW2 2115   2.581   1.396   0.932  1.1274  0.0530 -0.9847
  706SOL     OW 2116   0.557   1.727   1.789  0.4867 -0.1560  0.0098
  706SOL    HW1 2117   0.578   1.714   1.685 -1.5046  0.8995  1.2310
  706SOL    HW2 2118   0.632   1.682   1.849  3.9758 -1.3917 -0.0584
  707SOL     OW 2119   2.330   1.208   1.919  0.3787  0.5239  1.1907
  707SOL    HW1 2120   2.412   1.206   1.984 -1.3775 -0.1886  1.7483
  707SOL    HW2 2121   2.283   1.118   1.910  1.5926  0.7412 -0.4865
  708SOL     OW 2122   3.035   0.512   3.014 -0.2992 -0.1056  0.8575
  708SOL    HW1 2123   3.082   0.581   2.950 -2.0823 -2.5319  2.4176
  708SOL    HW2 2124   3.023   0.420   2.965  1.7596  1.1617  0.7389
  709SOL     OW 2125   1.859   1.903   0.412  0.1240 -0.1843 -0.6307
  709SOL    HW1 2126   1.856   2.004   0.437  0.8160 -0.4987 -1.6223
  709SOL    HW2 2127   1.876   1.890   0.311 -1.9233 -0.8667 -2.2218
  710SOL     OW 2128   1.758   1.537   2.461  0.1774 -0.0806  0.5385
  710SOL    HW1 2129   1.838   1.485   2.418 -0.6550  1.3368  0.4060
  710SOL    HW2 2130   1.752   1.509   2.559  1.4854 -0.6536  2.4529
  711SOL     OW 2131   2.705   2.863   0.967  0.3944  0.2143 -0.0950
  711SOL    HW1 2132   2.668   2.954   0.928  1.1027 -1.0189  1.5205
  711SOL    HW2 2133   2.799   2.877   1.011 -3.2746  1.8776  0.5822
  712SOL     OW 2134   1.372   2.129   1.943  0.4629 -0.8345  0.4493
  712SOL    HW1 2135   1.456   2.099   1.896 -0.3270  1.6559 -0.7414
  712SOL    HW2 2136   1.289   2.140   1.885  2.0640  1.1818  2.4300
  713SOL     OW 2137   2.782   1.437   2.527 -0.2399 -0.3400 -0.3467
  713SOL    HW1 2138   2.788   1.334   2.525  1.2924 -1.6559  0.2108
  713SOL    HW2 2139   2.713   1.482   2.590  0.7641  0.1014 -0.2000
  714SOL     OW 2140   2.672   0.459   2.358  0.2353  0.3042  0.1172
  714SOL    HW1 2141   2.646   0.400   2.436  0.9396 -3.3632  1.6103
  714SOL    HW2 2142   2.627   0.440   2.266 -0.7666  0.0921  0.4576
  715SOL     OW 2143   1.624   2.161   1.169 -0.6795 -0.2762 -0.5934
  715SOL    HW1 2144   1.541   2.201   1.128 -1.9147  0.7885 -0.5043
  715SOL    HW2 2145   1.619   2.136   1.272  1.5724 -1.2713  0.0187
  716SOL     OW 2146   1.250   0.106   1.555 -0.2829  0.0424 -0.0858
  716SOL    HW1 2147   1.151   0.116   1.534  2.5557 -0.5253  1.9589
  716SOL    HW2 2148   1.305   0.169   1.498 -0.5044 -1.1471  3.4826
  717SOL     OW 2149   1.167   0.582   1.627 -0.2157 -0.2332  0.1979
  717SOL    HW1 2150   1.267   0.603   1.657 -0.3854  0.4369 -1.6671
  717SOL    HW2 2151   1.152   0.573   1.523 -0.6563 -1.2030 -2.2055
  718SOL     OW 2152   0.650   0.902   0.955 -0.0753  0.2240 -0.2488
  718SOL    HW1 2153   0.629   0.892   0.854 -1.0981  1.7482 -0.0259
  718SOL    HW2 2154   0.624   0.992   1.002  1.6107 -1.2247  0.8629
  719SOL     OW 2155   0.724   1.711   2.276  0.0981  0.0300  0.1445
  719SOL    HW1 2156   0.782   1.764   2.344 -2.6069 -1.6719 -0.4163
  719SOL    HW2 2157   0.655   1.647   2.317 -2.0327 -1.1073 -0.6004
  720SOL     OW 2158   2.146   1.170   0.283 -0.3829 -0.6548 -0.1289
  720SOL    HW1 2159   2.231   1.121   0.250  0.0935  1.3252 -2.1648
  720SOL    HW2 2160   2.139   1.165   0.389  0.1388  1.0994 -1.6049
  721SOL     OW 2161   2.250   2.938   2.146  0.3698  0.6864  0.1032
  721SOL    HW1 2162   2.259   2.989   2.052  2.1714 -1.3424  0.9085
  721SOL    HW2 2163   2.153   2.913   2.172  1.2281  1.4491  2.3215
  722SOL     OW 2164   2.338   1.696   0.539  0.4864 -0.0308 -0.5576
  722SOL    HW1 2165   2.403   1.692   0.463 -0.3640  2.3096 -0.2964
  722SOL    HW2 2166   2.256   1.756   0.521 -1.2971  0.8911  1.3312
  723SOL     OW 2167   2.637   2.759   1.942  0.5392 -0.1603 -0.3080
  723SOL    HW1 2168   2.692   2.842   1.973 -0.7687  1.0361  1.0132
  723SOL    HW2 2169   2.555   2.743   2.000 -0.0792  1.3948  0.3081
  724SOL     OW 2170   0.368   2.523   2.411 -0.6231 -0.3029  0.1393
  724SOL    HW1 2171   0.267   2.528   2.416 -0.2511  1.3062  0.4816
  724SOL    HW2 2172   0.407   2.500   2.507 -0.9095  0.8000  0.3040
  725SOL     OW 2173   2.453   2.824   1.451  0.0384 -0.2237 -0.4002
  725SOL    HW1 2174   2.527   2.837   1.371 -1.2396  0.1408 -0.2766
  725SOL    HW2 2175   2.452   2.726   1.487 -0.1236 -1.2334  1.9450
  726SOL     OW 2176   2.498   2.332   0.724  0.2574 -0.1145 -0.4508
  726SOL    HW1 2177   2.492   2.434   0.694  0.2204  0.4064 -0.2921
  726SOL    HW2 2178   2.451   2.274   0.656  1.4840  1.0358  3.0345
  727SOL     OW 2179   0.116   3.076   0.121 -0.1660 -0.3750  0.0553
  727SOL    HW1 2180   0.199   3.126   0.087  2.3235  0.5817 -1.7904
  727SOL    HW2 2181   0.078   3.020   0.044 -1.5063  1.5379  0.1760
  728SOL     OW 2182   2.917   0.742   0.959 -0.5802  0.0818  0.4021
  728SOL    HW1 2183   2.854   0.708   0.882 -0.3467 -1.9551  1.5533
  728SOL    HW2 2184   2.902   0.688   1.048 -0.2961 -1.4144 -2.2498
  729SOL     OW 2185   0.017   2.556   0.780 -0.1836  0.5907 -0.2037
  729SOL    HW1 2186   0.043   2.498   0.859  1.7964 -1.0183  0.0210
  729SOL    HW2 2187   0.078   2.542   0.701  1.6130  2.1886  0.2445
  730SOL     OW 2188   2.561   0.724   0.899 -0.0502 -0.2306 -0.6516
  730SOL    HW1 2189   2.566   0.827   0.909  0.8885 -0.6730  0.2933
  730SOL    HW2 2190   2.585   0.693   0.804  0.9508 -0.2186  0.1027
  731SOL     OW 2191   3.080   2.235   2.349 -0.2167 -0.1664 -0.1398
  731SOL    HW1 2192   3.002   2.240   2.421  0.9135  1.1199  1.3071
  731SOL    HW2 2193   3.063   2.297   2.268 -0.1051 -2.5599 -3.3929
  732SOL     OW 2194   1.322   2.752   1.976 -0.5639  0.1369 -0.0975
  732SOL    HW1 2195   1.306   2.687   2.054  0.6574  0.5896 -1.3233
  732SOL    HW2 2196   1.301   2.706   1.886 -1.5435 -1.0863  0.6521
  733SOL     OW 2197   0.018   0.620   2.244  0.5324 -0.5686  0.2313
  733SOL    HW1 2198   0.096   0.671   2.195  1.1757 -0.9427 -0.1564
  733SOL    HW2 2199  -0.047   0.575   2.178  0.5352 -2.2229  1.5284
  734SOL     OW 2200   1.489   0.389   2.706 -0.2987 -0.1066 -0.2953
  734SOL    HW1 2201   1.514   0.467   2.770 -0.4941  1.8734 -0.5104
  734SOL    HW2 2202   1.399   0.345   2.736 -0.9841  1.9899  3.5418
  735SOL     OW 2203   2.918   2.642   2.314  0.9820 -0.2669 -0.6213
  735SOL    HW1 2204   2.898   2.654   2.214  1.9324 -0.4110 -2.3553
  735SOL    HW2 2205   3.017   2.625   2.343  0.8355 -1.6126  0.6157
  736SOL     OW 2206   0.903   0.398   2.533 -0.2202 -0.3572  0.3755
  736SOL    HW1 2207   0.803   0.419   2.552  1.1651  1.0547  0.4220
  736SOL    HW2 2208   0.904   0.350   2.441  1.6494  1.9164  0.0248
  737SOL     OW 2209   2.672   0.489   2.785 -0.1383 -0.3108  0.0700
  737SOL    HW1 2210   2.665   0.431   2.874 -0.4155 -1.7949 -1.4201
  737SOL    HW2 2211   2.750   0.449   2.729  0.5539 -4.0932 -2.0512
  738SOL     OW 2212   1.772   1.220   2.890 -0.0141 -0.2269  0.8644
  738SOL    HW1 2213   1.865   1.189   2.861 -0.1605 -1.5589  1.6197
  738SOL    HW2 2214   1.701   1.147   2.864  0.6299  0.6967 -0.3877
  739SOL     OW 2215   1.842   0.715   0.613 -0.1230  0.0825 -0.5020
  739SOL    HW1 2216   1.835   0.714   0.714 -3.2445  1.4105  0.3502
  739SOL    HW2 2217   1.851   0.615   0.571  1.5264  1.4775 -0.0266
  740SOL     OW 2218   1.960   1.947   2.345 -0.3006 -0.0208 -0.2770
  740SOL    HW1 2219   2.028   1.877   2.377  0.0952 -0.5523  1.1369
  740SOL    HW2 2220   1.892   1.913   2.269  0.2100  1.5463  3.0170
  741SOL     OW 2221   2.538   0.111   2.457  0.0121 -0.0645  0.0392
  741SOL    HW1 2222   2.640   0.087   2.444 -0.7203 -2.2914  1.1848
  741SOL    HW2 2223   2.485   0.110   2.366 -1.3471 -1.7915 -0.3978
  742SOL     OW 2224   2.212   1.462   0.182  0.3270 -0.3302 -0.0657
  742SOL    HW1 2225   2.132   1.521   0.198 -1.1630 -0.5088 -0.0120
  742SOL    HW2 2226   2.192   1.362   0.193  0.0668  1.5828  0.7072
  743SOL     OW 2227   1.802   0.628   2.555  0.7642 -0.2506 -0.0365
  743SOL    HW1 2228   1.796   0.568   2.468  0.5449 -1.1737 -0.0586
  743SOL    HW2 2229   1.717   0.688   2.565  0.8680  1.5152  0.5418
  744SOL     OW 2230   2.663   2.132   0.147 -0.3610  0.3199 -0.2568
  744SOL    HW1 2231   2.584   2.145   0.212 -1.5073 -1.8167 -1.0770
  744SOL    HW2 2232   2.655   2.035   0.101  0.6865 -2.5820 -2.5936
  745SOL     OW 2233   2.184   2.497   2.215 -0.4303 -0.0404  0.0031
  745SOL    HW1 2234   2.105   2.535   2.153 -0.5609  1.4504 -0.5753
  745SOL    HW2 2235   2.156   2.503   2.312 -2.9685  0.8041 -0.9525
  746SOL     OW 2236   3.089   2.552   1.782  0.0076  0.2088 -0.3357
  746SOL    HW1 2237   3.176   2.530   1.729  0.4097  0.7246  1.4522
  746SOL    HW2 2238   3.095   2.645   1.828  0.6293 -0.2197 -0.0589
  747SOL     OW 2239   3.095   1.781   1.673  0.3058  0.3261  0.0333
  747SOL    HW1 2240   3.009   1.721   1.665 -0.3947 -2.8081  1.3986
  747SOL    HW2 2241   3.171   1.771   1.606 -0.0350 -2.1658  0.0170
  748SOL     OW 2242   1.816   2.701   2.946 -0.1404 -0.0196  0.1243
  748SOL    HW1 2243   1.829   2.788   3.009  3.3042  2.4209  0.0288
  748SOL    HW2 2244   1.740   2.707   2.868 -4.5577 -0.6329 -1.9002
  749SOL     OW 2245   1.286   2.916   0.815  0.0382  0.2935  0.2647
  749SOL    HW1 2246   1.186   2.951   0.812  4.0956 -0.7645 -1.1511
  749SOL    HW2 2247   1.354   2.972   0.761  1.0229  2.0585  0.2195
  750SOL     OW 2248   2.274   0.220   1.869 -0.2009 -0.2097  0.0800
  750SOL    HW1 2249   2.298   0.266   1.784 -0.4203 -3.2076  2.0669
  750SOL    HW2 2250   2.257   0.280   1.952  0.0120 -1.0748 -0.7973
  751SOL     OW 2251   0.809   2.150   2.913 -0.3753  0.6086 -0.1902
  751SOL    HW1 2252   0.885   2.132   2.979  1.2254 -1.9445 -0.4620
  751SOL    HW2 2253   0.721   2.098   2.937 -0.1933  2.5967 -0.0631
  752SOL     OW 2254   1.360   0.806   1.137 -0.1096  0.1569  0.0572
  752SOL    HW1 2255   1.378   0.901   1.174 -1.3813  1.2672  0.4896
  752SOL    HW2 2256   1.408   0.733   1.193 -0.7313  3.0265  1.5241
  753SOL     OW 2257   1.000   2.598   1.810 -0.1009  0.7985 -0.2794
  753SOL    HW1 2258   1.099   2.609   1.783 -4.4636 -2.1289  1.1859
  753SOL    HW2 2259   0.954   2.687   1.839  2.0552 -2.3542 -1.9864
  754SOL     OW 2260   1.144   1.182   2.996  0.3848 -0.3331 -0.0187
  754SOL    HW1 2261   1.214   1.124   2.943  1.2187 -1.1079 -0.3032
  754SOL    HW2 2262   1.184   1.242   3.070  0.6348 -0.3540  2.3288
  755SOL     OW 2263   1.950   0.482   2.197  0.4902  0.1129  0.3354
  755SOL    HW1 2264   2.022   0.414   2.220  2.6979 -3.4299 -2.5231
  755SOL    HW2 2265   1.873   0.477   2.272  1.0271  0.9471  2.0503
  756SOL     OW 2266   2.509   0.983   2.975  0.1751 -0.0356  0.5143
  756SOL    HW1 2267   2.609   0.952   2.982  2.2472 -0.0618  0.3294
  756SOL    HW2 2268   2.434   0.910   2.989 -1.1617  0.9965 -0.4756
  757SOL     OW 2269   0.119   0.424   1.966 -0.3452 -0.0162  0.0866
  757SOL    HW1 2270   0.175   0.334   1.977 -1.3733  3.0214 -0.3472
  757SOL    HW2 2271   0.030   0.409   2.015  0.4951 -0.9358  3.2659
  758SOL     OW 2272   2.312   0.074   1.436  0.0285 -0.1830  0.8934
  758SOL    HW1 2273   2.281  -0.014   1.481 -0.9512  2.4458 -0.9141
  758SOL    HW2 2274   2.289   0.079   1.336 -0.7134 -0.9936  0.5799
  759SOL     OW 2275   1.715   0.121   0.088 -0.4754  0.0219  0.1727
  759SOL    HW1 2276   1.683   0.102  -0.007  1.3269 -2.1343  0.4162
  759SOL    HW2 2277   1.806   0.080   0.113 -0.2693 -1.7527  1.8090
  760SOL     OW 2278   2.715   2.048   2.838 -0.2539 -1.1585  0.1115
  760SOL    HW1 2279   2.655   2.098   2.905 -1.5416  1.1010 -0.1115
  760SOL    HW2 2280   2.794   2.112   2.805  2.1233 -2.6325 -1.2388
  761SOL     OW 2281   1.942   1.785   1.711 -0.1069  0.5262  0.2585
  761SOL    HW1 2282   1.952   1.706   1.778  0.7067 -1.3056 -2.4906
  761SOL    HW2 2283   1.899   1.743   1.624 -3.9013 -0.1222  1.6490
  762SOL     OW 2284   0.506   2.391   0.937 -0.0632  0.0829  0.1737
  762SOL    HW1 2285   0.559   2.427   0.853 -0.9660 -1.9215 -0.5682
  762SOL    HW2 2286   0.553   2.416   1.026 -1.2356 -0.1532 -1.8236
  763SOL     OW 2287   2.124   1.603   3.008  0.0007 -0.0770  0.0854
  763SOL    HW1 2288   2.209   1.552   3.006  0.4216  0.5590 -0.2830
  763SOL    HW2 2289   2.045   1.544   3.049  0.3139 -1.7220 -0.0591
  764SOL     OW 2290   0.677   0.582   0.632  0.3953  0.2658  0.4098
  764SOL    HW1 2291   0.575   0.558   0.610 -0.8285  0.6570 -2.0507
  764SOL    HW2 2292   0.699   0.567   0.732 -0.4943 -0.1498  4.5595
  765SOL     OW 2293   0.812   0.277   0.709 -0.2577  0.3272 -0.2595
  765SOL    HW1 2294   0.888   0.281   0.636 -1.8281 -0.6945  2.2430
  765SOL    HW2 2295   0.789   0.367   0.751 -1.6537  2.8011  0.2756
  766SOL     OW 2296   2.907   2.174   3.060  0.5139 -0.3881  0.3104
  766SOL    HW1 2297   2.803   2.185   3.057 -1.8882 -1.2592 -2.1576
  766SOL    HW2 2298   2.949   2.264   3.085 -1.4318 -1.0117  1.0286
  767SOL     OW 2299   2.832   1.618   0.552  0.0014 -0.0264  0.1995
  767SOL    HW1 2300   2.760   1.673   0.601 -0.4968  0.6907 -0.7754
  767SOL    HW2 2301   2.926   1.636   0.585 -0.9769 -2.5957  4.7945
  768SOL     OW 2302   1.022   0.225   0.177 -0.3145 -0.3541 -0.1472
  768SOL    HW1 2303   0.998   0.256   0.273 -0.7743  2.6297 -1.3518
  768SOL    HW2 2304   1.107   0.163   0.176  3.6096  1.4021  1.4694
  769SOL     OW 2305   1.128   1.809   2.294  0.1336  0.0886  0.0626
  769SOL    HW1 2306   1.039   1.845   2.349  0.0135  1.4667 -0.1611
  769SOL    HW2 2307   1.208   1.801   2.360 -2.4031 -1.3713  2.6080
  770SOL     OW 2308   0.179   1.155   2.300 -0.7377  0.0832  0.7017
  770SOL    HW1 2309   0.213   1.170   2.394  2.5860  0.8909 -0.2593
  770SOL    HW2 2310   0.077   1.123   2.299 -1.2585 -1.4953  1.2971
  771SOL     OW 2311   3.064   2.797   1.911 -0.2609 -0.0231 -0.0484
  771SOL    HW1 2312   3.017   2.844   1.832 -0.8727  1.1434  0.1933
  771SOL    HW2 2313   3.044   2.835   2.004  2.4476 -0.2700  1.4484
  772SOL     OW 2314   2.366   0.205   2.828  0.1252 -0.1238  0.3047
  772SOL    HW1 2315   2.443   0.144   2.792  2.7868 -0.0830 -1.8680
  772SOL    HW2 2316   2.360   0.193   2.930  0.6656  0.7672 -1.2213
  773SOL     OW 2317   0.572   2.104   2.408 -0.3006  0.1455 -0.3811
  773SOL    HW1 2318   0.567   2.172   2.331 -3.4753 -0.9369  0.0220
  773SOL    HW2 2319   0.487   2.046   2.421  4.1472 -0.2298 -0.5360
  774SOL     OW 2320   2.092   0.009   2.620 -0.2392 -0.1606 -0.7814
  774SOL    HW1 2321   2.100   0.110   2.638  2.4856 -0.0551 -0.4513
  774SOL    HW2 2322   2.132  -0.047   2.699 -0.2705  3.3427  0.5737
  775SOL     OW 2323   2.552   2.878   2.269  0.3562  0.0699 -0.2524
  775SOL    HW1 2324   2.454   2.900   2.293  3.7040 -0.3029 -2.7271
  775SOL    HW2 2325   2.615   2.867   2.350  0.4042  3.6587  1.6250
  776SOL     OW 2326   0.015   1.218   0.203 -0.1091  0.1633  0.3326
  776SOL    HW1 2327  -0.027   1.208   0.107 -0.9376  1.0923 -0.7052
  776SOL    HW2 2328  -0.045   1.247   0.281  0.6722  0.6496 -1.9781
  777SOL     OW 2329   0.352   2.989   0.490  0.5754  0.2338  0.0663
  777SOL    HW1 2330   0.258   2.995   0.453  0.3310 -1.5319 -1.6449
  777SOL    HW2 2331   0.399   2.902   0.469 -0.1592 -2.5270  2.4599
  778SOL     OW 2332   1.374   1.987   0.294  0.3582 -0.3594  0.2808
  778SOL    HW1 2333   1.289   2.020   0.336  3.5961  0.3123  1.9979
  778SOL    HW2 2334   1.386   2.028   0.201  2.6125  1.4529  1.1474
  779SOL     OW 2335   0.153   0.818   0.466  0.0544  0.0310 -0.4336
  779SOL    HW1 2336   0.101   0.730   0.467  1.5847 -0.9092 -1.5824
  779SOL    HW2 2337   0.106   0.896   0.521  1.1677 -2.6454 -1.2213
  780SOL     OW 2338   0.102   0.334   2.342 -0.2592 -0.3823 -0.1740
  780SOL    HW1 2339   0.102   0.404   2.421  1.5535 -0.5959  0.6867
  780SOL    HW2 2340   0.185   0.347   2.281  1.4074 -0.6592 -0.6709
  781SOL     OW 2341   0.681   1.658   1.549 -0.5745 -0.3251 -0.0038
  781SOL    HW1 2342   0.748   1.596   1.597 -1.1817  0.3273  1.6322
  781SOL    HW2 2343   0.604   1.603   1.508  0.5987 -0.4419 -0.9275
  782SOL     OW 2344   2.598   0.002   0.905 -0.5679  0.6271  0.0802
  782SOL    HW1 2345   2.514   0.013   0.845  2.0388 -0.2869 -0.0897
  782SOL    HW2 2346   2.581   0.022   1.004 -1.3400 -0.7257 -0.7692
  783SOL     OW 2347   2.714   0.712   2.423  0.5257  0.6730  0.5039
  783SOL    HW1 2348   2.702   0.727   2.525  1.5913  0.9956  0.0722
  783SOL    HW2 2349   2.700   0.614   2.386 -2.2065  2.5512  0.6232
  784SOL     OW 2350   1.428   2.104   0.029 -0.0376 -0.2040 -0.4069
  784SOL    HW1 2351   1.486   2.177   0.070 -2.5109 -0.1175 -1.1198
  784SOL    HW2 2352   1.398   2.124  -0.073 -0.2663  0.1161 -0.1866
  785SOL     OW 2353   2.100   0.275   0.007 -0.5748 -0.2432 -0.3182
  785SOL    HW1 2354   2.014   0.317   0.051 -0.1674  0.1732 -3.4401
  785SOL    HW2 2355   2.157   0.349  -0.033 -0.2921 -0.4144  2.2191
  786SOL     OW 2356   2.042   2.193   2.274  0.0945  0.0743 -0.5100
  786SOL    HW1 2357   2.002   2.098   2.296  0.4919  3.9425 -0.7644
  786SOL    HW2 2358   2.142   2.203   2.285  1.7923  2.1407 -0.1564
  787SOL     OW 2359   1.416   0.530   0.889 -0.6393  0.0565 -0.1782
  787SOL    HW1 2360   1.325   0.578   0.881  0.8267  0.8284 -2.6014
  787SOL    HW2 2361   1.453   0.500   0.801 -0.3103 -0.2671 -0.3907
  788SOL     OW 2362   1.205   0.445   0.017 -0.3191 -0.0873  0.1599
  788SOL    HW1 2363   1.114   0.417  -0.024  0.1947 -1.2166  0.0722
  788SOL    HW2 2364   1.203   0.522   0.087 -0.7434  2.5217  0.0729
  789SOL     OW 2365   2.572   0.125   1.958 -0.1159  0.0272  0.0416
  789SOL    HW1 2366   2.503   0.104   1.890  0.4727 -0.3717  0.2259
  789SOL    HW2 2367   2.636   0.049   1.978 -0.9243  2.0223  0.2105
  790SOL     OW 2368   2.631   2.793   0.712  0.1625 -0.7328 -0.2668
  790SOL    HW1 2369   2.676   2.870   0.657 -0.0397 -2.1757  0.2037
  790SOL    HW2 2370   2.664   2.796   0.810  1.9824 -0.4795  1.9603
  791SOL     OW 2371   1.924   1.193   0.118  0.0882  0.0787  0.4993
  791SOL    HW1 2372   1.858   1.139   0.181 -0.7608 -1.2630  3.8449
  791SOL    HW2 2373   2.024   1.177   0.160  2.5120 -2.6681  2.4516
  792SOL     OW 2374   0.435   1.835   2.196 -0.2095 -0.7389 -0.0312
  792SOL    HW1 2375   0.501   1.893   2.247  0.0543 -5.1031  2.0015
  792SOL    HW2 2376   0.436   1.738   2.227 -1.8256 -1.0731  0.7370
  793SOL     OW 2377   2.092   1.615   2.078 -0.0430  0.1433 -0.1029
  793SOL    HW1 2378   2.156   1.692   2.048 -0.2744  0.3779  0.0581
  793SOL    HW2 2379   2.103   1.524   2.026  0.5753 -1.0384 -3.4582
  794SOL     OW 2380   0.473   1.562   2.259  0.2581 -0.4897  0.4405
  794SOL    HW1 2381   0.506   1.491   2.192  0.4007 -0.3847  0.9333
  794SOL    HW2 2382   0.419   1.510   2.330  2.8776 -0.7185 -1.0203
  795SOL     OW 2383   2.475   2.240   1.801  0.0864  0.1294 -0.1563
  795SOL    HW1 2384   2.485   2.218   1.903  0.9113 -0.1842  2.7740
  795SOL    HW2 2385   2.448   2.154   1.742  2.5010 -1.6190 -0.0421
  796SOL     OW 2386   3.085   1.092   2.716 -0.0456  0.4480  0.1615
  796SOL    HW1 2387   2.981   1.098   2.735 -0.5449  5.1451  0.8926
  796SOL    HW2 2388   3.141   1.111   2.806  1.7852  0.1269 -1.1732
  797SOL     OW 2389   0.807   0.644   1.461 -0.1436 -0.0420 -0.2175
  797SOL    HW1 2390   0.890   0.705   1.478 -1.4448 -1.0895 -1.7639
  797SOL    HW2 2391   0.742   0.689   1.394 -0.5623 -2.8882  0.9814
  798SOL     OW 2392   1.343   0.458   1.189 -0.9258 -0.5616  0.0335
  798SOL    HW1 2393   1.407   0.440   1.269  0.8656 -0.5808  1.5124
  798SOL    HW2 2394   1.392   0.481   1.102  0.2355 -0.0842  0.2404
  799SOL     OW 2395   1.951   2.648   1.051  0.3116  0.3799 -0.2188
  799SOL    HW1 2396   1.887   2.594   1.112  4.2519 -1.6723  1.1553
  799SOL    HW2 2397   1.905   2.684   0.963 -0.6643 -0.4659  0.3335
  800SOL     OW 2398   3.076   0.630   1.796 -0.1037  0.1806 -0.3703
  800SOL    HW1 2399   3.017   0.694   1.852  0.4068 -3.8076  0.8236
  800SOL    HW2 2400   3.138   0.573   1.856  1.6740  2.6132 -0.4330
  801SOL     OW 2401   1.895   2.162   0.182 -0.0900 -0.4808 -0.1616
  801SOL    HW1 2402   1.817   2.137   0.113  0.2783 -2.0145 -0.1630
  801SOL    HW2 2403   1.990   2.139   0.151  0.1798  1.0938 -2.5718
  802SOL     OW 2404   0.737   0.810   2.578  0.5948  0.0465  0.0562
  802SOL    HW1 2405   0.807   0.806   2.503  2.0322  1.1535  1.1567
  802SOL    HW2 2406   0.654   0.744   2.563 -0.6565 -2.8657  1.7459
  803SOL     OW 2407   0.905   0.153   0.976 -0.3379 -0.0094 -0.2785
  803SOL    HW1 2408   0.985   0.214   1.000 -0.7912 -1.6450 -0.9392
  803SOL    HW2 2409   0.853   0.190   0.896 -0.2040 -1.2682  1.7304
  804SOL     OW 2410   0.415   3.028   2.078  0.0874 -0.8531  0.0358
  804SOL    HW1 2411   0.348   3.097   2.039  2.4703 -1.3295  0.3484
  804SOL    HW2 2412   0.389   2.930   2.057  0.8031  0.4297 -1.4872
  805SOL     OW 2413   2.455   0.316   0.299 -0.5399 -0.0277 -0.2675
  805SOL    HW1 2414   2.554   0.310   0.338  2.8364 -3.0615 -1.1335
  805SOL    HW2 2415   2.445   0.264   0.207  2.9046 -1.0614  0.0392
  806SOL     OW 2416   0.697   2.393   1.669 -0.4349 -0.3889 -0.1394
  806SOL    HW1 2417   0.672   2.491   1.680 -1.6388  0.0560 -0.4303
  806SOL    HW2 2418   0.799   2.377   1.676 -0.2244 -1.4010  2.7188
  807SOL     OW 2419   2.524   0.941   0.438  0.4924 -1.0848 -0.1073
  807SOL    HW1 2420   2.617   0.916   0.482  0.0883  1.1556  1.8574
  807SOL    HW2 2421   2.520   0.929   0.333 -2.0848 -0.2345 -1.7264
  808SOL     OW 2422   0.559   1.990   2.979 -0.0498 -0.0047  0.3154
  808SOL    HW1 2423   0.531   2.005   3.081  0.4019  0.2497  2.2293
  808SOL    HW2 2424   0.528   1.902   2.936 -0.1552 -1.4119  0.4717
  809SOL     OW 2425   2.691   1.987   1.908  0.1055 -0.1468 -0.2236
  809SOL    HW1 2426   2.756   2.066   1.893 -1.9847  0.6198  0.3917
  809SOL    HW2 2427   2.658   1.944   1.820  0.4492 -0.8309  0.4808
  810SOL     OW 2428   2.102   1.126   0.548 -0.2877 -0.1202  0.0089
  810SOL    HW1 2429   2.086   1.030   0.595  0.7881  2.7520 -0.1664
  810SOL    HW2 2430   2.031   1.198   0.573  0.5836 -0.6617 -0.9523
  811SOL     OW 2431   1.304   2.354   1.217 -0.8318  0.7827  0.0012
  811SOL    HW1 2432   1.270   2.264   1.254 -0.4534  2.4998  0.5584
  811SOL    HW2 2433   1.258   2.373   1.127  2.1209  0.2922 -0.3316
  812SOL     OW 2434   1.369   0.765   1.975 -0.0076  0.4457  0.0353
  812SOL    HW1 2435   1.442   0.824   2.022 -1.7223 -0.4890 -0.4388
  812SOL    HW2 2436   1.285   0.814   1.940  0.8550  0.4911 -1.3166
  813SOL     OW 2437   1.718   2.022   2.489  0.3794  0.0784 -0.1045
  813SOL    HW1 2438   1.819   1.977   2.487  2.2280 -0.6005 -0.4715
  813SOL    HW2 2439   1.684   2.050   2.394  1.7026  0.9321  1.5177
  814SOL     OW 2440   2.885   1.578   2.895 -0.1505 -0.1963  0.0652
  814SOL    HW1 2441   2.984   1.584   2.929  1.5199  0.6282 -0.9353
  814SOL    HW2 2442   2.862   1.658   2.834  1.4762 -0.8183 -0.8812
  815SOL     OW 2443   2.255   2.882   2.708 -0.5694 -0.0635  0.7436
  815SOL    HW1 2444   2.227   2.812   2.777 -0.6585  1.4295 -1.0897
  815SOL    HW2 2445   2.355   2.870   2.674 -0.2213 -0.5738 -1.5342
  816SOL     OW 2446   1.752   0.343   1.673  0.1523  0.4162  0.3551
  816SOL    HW1 2447   1.652   0.352   1.698 -1.3945 -0.2064  0.4616
  816SOL    HW2 2448   1.799   0.268   1.732  2.2346  2.0961  0.0570
  817SOL     OW 2449   0.474   1.237   2.473 -0.1862 -0.1020 -0.2387
  817SOL    HW1 2450   0.415   1.320   2.462 -0.0963  0.2383  2.2934
  817SOL    HW2 2451   0.475   1.169   2.392  0.3840 -1.3479  0.7487
  818SOL     OW 2452   2.017   0.854   0.430 -0.0248  0.1040 -0.2991
  818SOL    HW1 2453   2.012   0.958   0.425  1.0614  2.9298  0.0807
  818SOL    HW2 2454   1.974   0.821   0.519  0.7585  0.0951  0.1385
  819SOL     OW 2455   2.744   2.945   3.050  0.0929 -0.6507 -0.6601
  819SOL    HW1 2456   2.821   2.873   3.028 -1.0015 -2.0387 -1.2012
  819SOL    HW2 2457   2.655   2.934   2.998 -0.5198 -0.1930  1.5746
  820SOL     OW 2458   1.206   1.107   0.534 -0.0396  0.4122 -0.5184
  820SOL    HW1 2459   1.247   1.186   0.584 -1.6325 -0.4326  0.9615
  820SOL    HW2 2460   1.182   1.025   0.597  0.0629  2.5693 -0.6151
  821SOL     OW 2461   3.078   1.281   0.664  0.2550 -0.1263 -0.0204
  821SOL    HW1 2462   3.032   1.282   0.754 -0.2763  2.6887 -0.2654
  821SOL    HW2 2463   3.153   1.350   0.657 -3.0399 -2.0822  0.7347
  822SOL     OW 2464   2.559   1.760   2.452 -0.3685 -0.1980 -0.3044
  822SOL    HW1 2465   2.574   1.843   2.515 -2.0271 -0.5898  0.0178
  822SOL    HW2 2466   2.492   1.775   2.377  2.5729 -1.4357 -0.7283
  823SOL     OW 2467   2.051   0.887   1.190  0.1281 -0.0871  0.3397
  823SOL    HW1 2468   2.037   0.915   1.291  1.8330 -0.5710  1.2988
  823SOL    HW2 2469   1.959   0.883   1.141 -0.5076 -0.2068  0.9807
  824SOL     OW 2470   0.188   2.034   2.709 -0.1342 -0.6796  0.0201
  824SOL    HW1 2471   0.183   1.983   2.798  0.3061  0.1727  0.1587
  824SOL    HW2 2472   0.241   1.994   2.632  0.3528  2.5174 -1.1287
  825SOL     OW 2473   1.243   1.043   0.272 -0.2057  0.3741  0.3908
  825SOL    HW1 2474   1.184   1.050   0.359 -1.4795 -1.0861 -1.2177
  825SOL    HW2 2475   1.293   1.127   0.243  2.0195 -1.9562  0.1801
  826SOL     OW 2476   1.919   0.659   1.550  0.1553 -0.4819 -0.0190
  826SOL    HW1 2477   1.987   0.598   1.604  1.5922 -0.9885  0.9355
  826SOL    HW2 2478   1.827   0.609   1.536 -1.5292 -1.7670 -0.6738
  827SOL     OW 2479   0.768   1.396   0.238 -0.2929 -0.7174 -0.0534
  827SOL    HW1 2480   0.796   1.322   0.166  2.4133 -0.5828  1.2607
  827SOL    HW2 2481   0.705   1.356   0.309  1.0399 -0.1821  1.6085
  828SOL     OW 2482   2.569   0.076   1.589 -0.2304  0.5787 -0.1264
  828SOL    HW1 2483   2.483   0.100   1.536 -3.4108 -0.1669 -0.3157
  828SOL    HW2 2484   2.550  -0.007   1.651 -3.4432  0.1158  1.4722
  829SOL     OW 2485   2.794   2.500   3.030  0.9332  0.3805 -0.1399
  829SOL    HW1 2486   2.733   2.417   3.021  0.0928  0.6242 -0.1692
  829SOL    HW2 2487   2.755   2.567   3.105 -2.4874 -1.3548  2.0477
  830SOL     OW 2488   2.772   0.923   3.010 -0.1275  0.3387  0.3022
  830SOL    HW1 2489   2.836   0.998   3.047 -0.8388 -0.5382  4.4649
  830SOL    HW2 2490   2.790   0.827   3.049 -1.2305 -2.3846  0.9425
  831SOL     OW 2491   3.077   0.594   0.373  0.0489  0.5936 -0.1756
  831SOL    HW1 2492   3.034   0.554   0.461  1.8881  0.4181 -2.0320
  831SOL    HW2 2493   3.118   0.521   0.313 -0.7509  0.3249 -0.8519
  832SOL     OW 2494   1.801   0.757   3.064  0.2306 -0.0063  0.4319
  832SOL    HW1 2495   1.725   0.833   3.062 -0.4623  0.9817  2.5457
  832SOL    HW2 2496   1.770   0.662   3.032 -0.5204 -0.4457  2.6310
  833SOL     OW 2497   2.456   2.127   0.523  0.6368  0.1590 -0.7808
  833SOL    HW1 2498   2.356   2.113   0.502 -1.8088  2.6536  2.4170
  833SOL    HW2 2499   2.511   2.043   0.512  0.2200 -1.0018 -0.8987
  834SOL     OW 2500   0.075   0.236   0.649  0.1109  0.2026 -0.6435
  834SOL    HW1 2501   0.100   0.160   0.719  0.7868 -0.7939 -0.7325
  834SOL    HW2 2502   0.145   0.263   0.583  2.8412  0.8565  1.1214
  835SOL     OW 2503   2.430   1.496   1.194 -0.3402  0.7247  0.3349
  835SOL    HW1 2504   2.520   1.532   1.237 -0.4822  0.3417 -0.2362
  835SOL    HW2 2505   2.436   1.492   1.092  3.7895  1.6086 -0.2529
  836SOL     OW 2506   1.525   0.857   2.597 -0.2072 -0.2941 -0.2310
  836SOL    HW1 2507   1.419   0.867   2.593 -0.3197  0.1652  0.7971
  836SOL    HW2 2508   1.568   0.880   2.503 -0.1512  0.8121 -0.7328
  837SOL     OW 2509   1.532   0.029   0.499 -0.0127 -0.2660  0.5618
  837SOL    HW1 2510   1.506   0.120   0.537  2.4852 -2.0131 -0.5448
  837SOL    HW2 2511   1.532   0.034   0.395  0.3949 -0.9103  0.4704
  838SOL     OW 2512   1.302   1.596   2.679 -0.3465 -0.1530 -0.4941
  838SOL    HW1 2513   1.355   1.533   2.745 -0.3434 -1.7543 -0.1812
  838SOL    HW2 2514   1.230   1.535   2.632  1.1087 -1.7636  1.0754
  839SOL     OW 2515   1.603   0.238   0.976  0.2563 -0.2423 -0.2498
  839SOL    HW1 2516   1.639   0.308   1.043 -0.5592 -2.2886  1.1579
  839SOL    HW2 2517   1.601   0.146   1.018  0.3316 -1.0600 -0.5763
  840SOL     OW 2518   2.548   2.941   1.733 -0.2472  0.2022 -0.0386
  840SOL    HW1 2519   2.510   2.880   1.656  0.6790  3.4580 -0.5920
  840SOL    HW2 2520   2.581   2.895   1.818  1.0089  3.4291  0.5722
  841SOL     OW 2521   1.593   0.920   3.047 -0.2737  0.2547  0.0156
  841SOL    HW1 2522   1.502   0.878   3.076 -0.8141 -3.8758  1.8878
  841SOL    HW2 2523   1.594   0.959   2.956 -0.0516 -1.3930  2.2193
  842SOL     OW 2524   0.820   1.526   0.861 -0.2687  0.0382 -0.3261
  842SOL    HW1 2525   0.770   1.581   0.939 -0.9002 -1.8472 -0.7005
  842SOL    HW2 2526   0.763   1.442   0.838  0.4220  1.2545  0.5264
  843SOL     OW 2527   0.188   3.057   1.390  0.4926 -0.3801  0.0700
  843SOL    HW1 2528   0.189   3.142   1.448 -0.2497  0.6535  2.6304
  843SOL    HW2 2529   0.134   2.979   1.435 -1.0707  0.2821  1.6712
  844SOL     OW 2530   0.801   2.479   0.250  0.3350  0.6647  0.4233
  844SOL    HW1 2531   0.741   2.416   0.307  0.4354 -1.1919 -1.7639
  844SOL    HW2 2532   0.743   2.557   0.211  0.3038 -0.4747 -2.9960
  845SOL     OW 2533   1.654   2.829   1.250 -0.2193 -0.2355 -0.2152
  845SOL    HW1 2534   1.593   2.747   1.231  1.5948  3.3426 -2.5023
  845SOL    HW2 2535   1.681   2.843   1.349  2.8100  0.2392 -1.3254
  846SOL     OW 2536   1.532   3.005   0.738  0.2024 -0.1913 -0.0638
  846SOL    HW1 2537   1.542   3.025   0.637  2.3696 -0.7984  0.0713
  846SOL    HW2 2538   1.620   2.977   0.781  2.0122 -0.1916 -0.8954
  847SOL     OW 2539   2.082   1.754   0.469  0.5252 -0.6131  0.1930
  847SOL    HW1 2540   2.079   1.648   0.485 -1.4890 -1.4869  0.2905
  847SOL    HW2 2541   1.990   1.804   0.463 -3.4867  3.1464 -0.6265
  848SOL     OW 2542   2.416   0.885   2.656  0.2097 -0.4287  0.3749
  848SOL    HW1 2543   2.392   0.979   2.691 -0.6198  1.4795 -3.3199
  848SOL    HW2 2544   2.333   0.834   2.616  0.0817  0.4197 -1.3357
  849SOL     OW 2545   2.521   0.901   2.390  0.5382  0.1711 -0.0404
  849SOL    HW1 2546   2.599   0.832   2.384 -1.8003  1.8457 -0.0629
  849SOL    HW2 2547   2.487   0.900   2.485 -0.1641 -0.0466  0.1203
  850SOL     OW 2548   1.584   0.072   1.299  0.7461 -0.3549 -0.9427
  850SOL    HW1 2549   1.578   0.039   1.199 -1.7772 -1.3414 -1.5735
  850SOL    HW2 2550   1.528   0.004   1.350 -0.8214 -1.0770 -4.6077
  851SOL     OW 2551   0.569   1.721   0.691 -0.4507  0.4134 -0.7817
  851SOL    HW1 2552   0.652   1.751   0.744 -2.4235 -1.0470 -0.6531
  851SOL    HW2 2553   0.583   1.720   0.588  0.2110  0.8007  3.9307
  852SOL     OW 2554   0.869   2.101   1.677  0.1757  0.0434  0.7339
  852SOL    HW1 2555   0.919   2.185   1.637  1.3751  0.2691  0.7967
  852SOL    HW2 2556   0.784   2.124   1.733 -3.1042 -0.9217  0.1716
  853SOL     OW 2557   2.539   1.533   2.620  0.0115  0.4946 -0.4390
  853SOL    HW1 2558   2.457   1.469   2.613  1.8310 -2.5011  1.2602
  853SOL    HW2 2559   2.545   1.604   2.542 -1.2348  0.3211 -0.4964
  854SOL     OW 2560   2.429   1.426   1.788  0.5791 -0.3599  0.1407
  854SOL    HW1 2561   2.479   1.409   1.697  1.5582  2.3499 -1.9221
  854SOL    HW2 2562   2.373   1.341   1.818  2.6044 -0.6434 -1.6900
  855SOL     OW 2563   2.070   2.390   1.109  0.2026  0.2333 -0.3550
  855SOL    HW1 2564   2.051   2.486   1.076  0.8547 -1.0106  0.7259
  855SOL    HW2 2565   2.153   2.388   1.171  0.1401 -0.7035 -0.8631
  856SOL     OW 2566   1.336   1.437   0.901  0.3482  0.1169 -0.2403
  856SOL    HW1 2567   1.410   1.499   0.946  1.0896  1.4340 -0.1259
  856SOL    HW2 2568   1.241   1.470   0.920 -0.6404  0.3519  1.2179
  857SOL     OW 2569   0.003   2.732   1.096 -0.1350  0.0453  0.0873
  857SOL    HW1 2570   0.028   2.732   0.994 -1.2038  0.3038  0.2052
  857SOL    HW2 2571   0.062   2.676   1.155  0.4246 -0.9100  0.3466
  858SOL     OW 2572   2.387   2.040   1.579 -0.1917  0.5404 -0.2896
  858SOL    HW1 2573   2.300   1.989   1.587  3.2661  1.4783 -1.9200
  858SOL    HW2 2574   2.462   1.971   1.607 -1.4186  0.0442 -3.5829
  859SOL     OW 2575   2.456   0.544   1.087 -0.2637 -0.1871 -0.2893
  859SOL    HW1 2576   2.514   0.595   1.023  1.7611 -0.4550 -0.1179
  859SOL    HW2 2577   2.503   0.459   1.121 -0.8898 -0.9130  3.2063
  860SOL     OW 2578   1.906   2.832   0.505  0.1079 -0.2597 -0.0862
  860SOL    HW1 2579   1.880   2.784   0.415 -0.4763 -0.2302  0.9240
  860SOL    HW2 2580   1.902   2.933   0.495 -1.1692  1.0369  3.2316
  861SOL     OW 2581   1.020   2.500   2.858 -0.5371  0.0563 -0.0215
  861SOL    HW1 2582   1.104   2.556   2.830 -0.3167 -1.7345  1.2445
  861SOL    HW2 2583   1.009   2.507   2.959  1.1738 -0.0388 -1.8098
  862SOL     OW 2584   2.823   2.539   1.691 -0.2533 -0.1930  0.2579
  862SOL    HW1 2585   2.921   2.552   1.719  2.5659  1.2665 -2.8014
  862SOL    HW2 2586   2.784   2.631   1.656  1.6543  1.7586  1.4132
  863SOL     OW 2587   1.825   2.718   0.244  0.0116 -0.3358  0.8077
  863SOL    HW1 2588   1.862   2.621   0.254 -0.6412  2.2407 -0.3499
  863SOL    HW2 2589   1.728   2.715   0.201  0.6849 -1.8959 -2.3895
  864SOL     OW 2590   2.025   1.234   2.801 -0.0855  0.5433 -0.4163
  864SOL    HW1 2591   2.042   1.182   2.713 -0.3545 -1.7537  1.5278
  864SOL    HW2 2592   2.074   1.327   2.799 -1.4740  0.1379  0.2393
  865SOL     OW 2593   2.132   1.952   0.738  0.1729 -0.2513  0.2316
  865SOL    HW1 2594   2.210   1.907   0.794 -0.1752  0.3491  3.4280
  865SOL    HW2 2595   2.041   1.958   0.788  0.5442  0.4790  0.8206
  866SOL     OW 2596   2.943   2.958   1.055 -0.5697  0.5208 -0.3884
  866SOL    HW1 2597   2.960   3.019   0.977 -0.7031 -1.5180 -2.1634
  866SOL    HW2 2598   3.012   2.876   1.061 -0.4415  1.6610 -0.1306
  867SOL     OW 2599   0.311   1.388   0.869 -0.0381  0.4537  0.4873
  867SOL    HW1 2600   0.345   1.314   0.801 -0.4319 -0.5724  0.3776
  867SOL    HW2 2601   0.325   1.487   0.831  3.1261  1.8558 -0.1269
  868SOL     OW 2602   0.803   1.867   2.041 -0.0609  0.0671 -0.3776
  868SOL    HW1 2603   0.765   1.820   2.130 -2.0518 -3.4428 -1.2102
  868SOL    HW2 2604   0.751   1.953   2.017  3.4277 -1.8151  0.2250
  869SOL     OW 2605   2.615   1.904   1.656 -0.0121  0.0291  0.3268
  869SOL    HW1 2606   2.662   1.986   1.615  2.7330  0.9811 -1.7261
  869SOL    HW2 2607   2.671   1.817   1.637  1.7379  0.5383  2.6558
  870SOL     OW 2608   2.393   2.705   1.141  0.5450 -0.0681  0.3512
  870SOL    HW1 2609   2.406   2.621   1.197 -0.8888 -1.2506 -1.1270
  870SOL    HW2 2610   2.470   2.770   1.164 -4.9703 -0.1581  0.2105
  871SOL     OW 2611   3.051   2.264   0.537 -0.6986 -0.3194  0.2702
  871SOL    HW1 2612   2.988   2.281   0.618  0.0208  0.3382  2.4477
  871SOL    HW2 2613   2.996   2.225   0.456 -2.2110 -2.1602 -1.5157
  872SOL     OW 2614   2.090   0.467   1.704  0.0605  0.1942 -0.4199
  872SOL    HW1 2615   2.056   0.486   1.798  2.7020 -2.2431  1.0745
  872SOL    HW2 2616   2.194   0.447   1.708  0.7566  1.0376  1.7090
  873SOL     OW 2617   1.714   2.087   3.085  0.2774 -0.2112  0.9562
  873SOL    HW1 2618   1.629   2.036   3.050  0.9835 -0.9738 -0.5233
  873SOL    HW2 2619   1.749   2.155   3.016  0.3422 -1.8011 -0.4016
  874SOL     OW 2620   0.676   2.482   0.714 -0.1338 -0.0473  0.0778
  874SOL    HW1 2621   0.686   2.580   0.743  2.3622  1.2865 -0.3265
  874SOL    HW2 2622   0.769   2.431   0.715 -2.1575  0.5180  1.9170
  875SOL     OW 2623   2.289   1.598   1.417 -0.4172 -0.8154  0.6248
  875SOL    HW1 2624   2.371   1.605   1.481  2.4499 -0.8818 -0.3286
  875SOL    HW2 2625   2.322   1.559   1.323 -1.6895 -1.3463 -0.7580
  876SOL     OW 2626   0.073   2.275   2.624  0.2253 -0.4379 -0.0915
  876SOL    HW1 2627   0.115   2.178   2.641 -0.3394  0.1151  0.3084
  876SOL    HW2 2628   0.124   2.357   2.668  1.0336  2.2291  3.4994
  877SOL     OW 2629   2.874   2.630   0.674  0.0243 -0.0318 -0.2965
  877SOL    HW1 2630   2.889   2.730   0.659  0.9024 -1.7931 -1.9064
  877SOL    HW2 2631   2.962   2.596   0.718 -0.1214 -1.1829  3.3157
  878SOL     OW 2632   2.838   1.620   2.314 -0.1275  0.1503  0.1373
  878SOL    HW1 2633   2.773   1.684   2.262 -0.6848  0.5676 -1.6563
  878SOL    HW2 2634   2.798   1.566   2.395  2.9824  0.3056  2.4809
  879SOL     OW 2635   2.483   0.035   1.163  0.0931  0.4099  0.5548
  879SOL    HW1 2636   2.508  -0.018   1.249 -2.5555  1.6930  0.4926
  879SOL    HW2 2637   2.398  -0.003   1.118  2.1733  2.6542 -0.7520
  880SOL     OW 2638   0.636   0.542   2.261  0.4433  0.0279  0.2222
  880SOL    HW1 2639   0.628   0.494   2.351  2.3175  0.4181 -1.0434
  880SOL    HW2 2640   0.716   0.511   2.203 -0.0722  2.3699  1.1260
  881SOL     OW 2641   0.849   0.090   0.414  0.4080  0.2490 -0.6929
  881SOL    HW1 2642   0.894   0.008   0.465  1.5623  2.0853  0.1605
  881SOL    HW2 2643   0.756   0.070   0.373  0.9800  2.0974 -2.8546
  882SOL     OW 2644   2.734   1.599   1.717 -0.5074 -0.2819  0.3551
  882SOL    HW1 2645   2.824   1.571   1.664  0.6746 -0.2251 -0.4788
  882SOL    HW2 2646   2.726   1.549   1.804 -2.0064 -1.4387 -1.6265
  883SOL     OW 2647   0.794   0.508   0.882 -0.4169 -0.1269  0.1022
  883SOL    HW1 2648   0.869   0.573   0.909 -2.7103  1.3971  2.1815
  883SOL    HW2 2649   0.729   0.495   0.961  0.8745 -0.8714 -0.3430
  884SOL     OW 2650   1.202   1.713   1.103  0.1036  0.1886 -0.0207
  884SOL    HW1 2651   1.151   1.630   1.086 -0.4134 -0.6499 -0.1196
  884SOL    HW2 2652   1.181   1.788   1.037 -1.5026 -2.6660  2.5361
  885SOL     OW 2653   2.313   1.898   2.278  0.1338  0.0753  0.0743
  885SOL    HW1 2654   2.234   1.834   2.304 -2.8856  2.9660 -1.7920
  885SOL    HW2 2655   2.282   1.998   2.278  0.5158  1.9302  0.2565
  886SOL     OW 2656   2.605   0.337   1.796 -0.0244 -0.2151 -0.0403
  886SOL    HW1 2657   2.611   0.256   1.864  1.5207 -1.4413 -2.6131
  886SOL    HW2 2658   2.666   0.412   1.824 -0.6294  1.3080  0.5611
  887SOL     OW 2659   0.137   2.069   1.294  0.5592  0.0523 -0.6121
  887SOL    HW1 2660   0.133   2.042   1.197 -1.2492 -0.2206 -1.5713
  887SOL    HW2 2661   0.111   2.169   1.302 -0.1093  0.3765  0.6786
  888SOL     OW 2662   0.584   1.231   1.538  0.0521 -0.0414 -0.0164
  888SOL    HW1 2663   0.615   1.280   1.454  1.3233  0.3085 -2.1095
  888SOL    HW2 2664   0.607   1.126   1.528  1.6415 -0.9511 -1.0164
  889SOL     OW 2665   0.827   2.446   2.242 -0.0345  0.1577  0.1022
  889SOL    HW1 2666   0.752   2.386   2.275  1.5376 -1.7409  0.8921
  889SOL    HW2 2667   0.878   2.412   2.157  0.1128  1.6171  1.6702
  890SOL     OW 2668   2.385   2.492   0.283 -0.4739  0.6985 -0.1284
  890SOL    HW1 2669   2.410   2.583   0.237 -0.8990  0.2950 -0.4403
  890SOL    HW2 2670   2.324   2.515   0.362 -0.2841  2.7306  0.1560
  891SOL     OW 2671   2.620   1.693   0.703  0.0565 -0.5256  0.1869
  891SOL    HW1 2672   2.672   1.662   0.787 -0.2665  1.5335 -1.3939
  891SOL    HW2 2673   2.545   1.623   0.675 -0.8995  2.2246 -0.9412
  892SOL     OW 2674   0.374   0.320   2.219 -0.2442  0.0337 -0.4567
  892SOL    HW1 2675   0.452   0.390   2.236 -0.2081  4.1127 -1.1255
  892SOL    HW2 2676   0.393   0.254   2.145  2.0200  0.3526 -0.1834
  893SOL     OW 2677   1.738   0.260   2.695 -0.5229 -0.0957  0.2901
  893SOL    HW1 2678   1.809   0.331   2.685  1.6380 -3.9434  1.9165
  893SOL    HW2 2679   1.644   0.292   2.691  1.2679 -0.3612 -0.7332
  894SOL     OW 2680   2.136   2.062   0.101 -0.2260  0.4193 -0.1170
  894SOL    HW1 2681   2.134   1.991   0.026 -0.6918 -1.7634 -0.8009
  894SOL    HW2 2682   2.199   2.038   0.180 -0.9743  0.3095  1.2878
  895SOL     OW 2683   2.753   1.445   0.876 -0.6210  0.2499  0.6545
  895SOL    HW1 2684   2.836   1.383   0.902  0.8022  2.5521 -0.6233
  895SOL    HW2 2685   2.750   1.529   0.931  0.6702 -0.2230  1.5671
  896SOL     OW 2686   1.841   1.757   1.246 -1.1870  0.6845 -0.3660
  896SOL    HW1 2687   1.937   1.712   1.252  0.9258  1.4422 -1.2671
  896SOL    HW2 2688   1.784   1.700   1.180 -0.5237 -0.5166  1.8528
  897SOL     OW 2689   0.227   0.555   3.013  0.0506  0.0651  0.3322
  897SOL    HW1 2690   0.157   0.571   2.944  1.4785 -0.7301  1.3827
  897SOL    HW2 2691   0.318   0.601   2.999  0.2376 -1.6395 -0.7353
  898SOL     OW 2692   0.667   2.827   1.099  0.0708 -0.2339 -0.0244
  898SOL    HW1 2693   0.740   2.894   1.061  1.7970  0.7232  0.1652
  898SOL    HW2 2694   0.706   2.773   1.178 -0.1547 -0.5115  0.2700
  899SOL     OW 2695   2.881   0.954   1.338  0.2539  0.1442 -0.3348
  899SOL    HW1 2696   2.846   1.008   1.258 -3.5149  0.2604  2.3831
  899SOL    HW2 2697   2.969   0.988   1.368 -1.4949 -0.3435 -0.9140
  900SOL     OW 2698   0.987   2.488   2.472  0.6117 -0.3836  0.0188
  900SOL    HW1 2699   0.906   2.493   2.402 -0.7711 -1.4341  0.6120
  900SOL    HW2 2700   0.965   2.436   2.559  0.1434 -1.3809  0.2177
  901SOL     OW 2701   1.879   2.382   1.434 -0.1878 -0.1481  0.3683
  901SOL    HW1 2702   1.894   2.304   1.369 -1.5488  2.7697  1.9828
  901SOL    HW2 2703   1.965   2.437   1.459 -0.3551  1.1632 -0.3768
  902SOL     OW 2704   2.554   1.629   1.497 -0.6670 -0.0095 -0.0688
  902SOL    HW1 2705   2.606   1.618   1.589 -1.5461 -2.3188 -1.3481
  902SOL    HW2 2706   2.606   1.591   1.417 -0.0144  2.5216  0.2214
  903SOL     OW 2707   0.311   2.374   1.981  0.1526  0.2833 -0.0595
  903SOL    HW1 2708   0.243   2.299   1.961 -0.8253 -0.1819 -1.9742
  903SOL    HW2 2709   0.314   2.458   1.918 -1.3016  2.1333  0.6261
  904SOL     OW 2710   1.975   0.817   2.456 -0.1335 -0.5656  0.1876
  904SOL    HW1 2711   1.926   0.737   2.500  1.8375  1.0933 -1.2625
  904SOL    HW2 2712   2.014   0.793   2.361 -1.5884  1.8777  0.1518
  905SOL     OW 2713   2.820   0.091   2.407 -0.1641 -0.7812  0.2743
  905SOL    HW1 2714   2.872   0.020   2.464  1.8797  1.2359  2.2055
  905SOL    HW2 2715   2.865   0.187   2.415  3.2425 -2.6137 -0.7597
  906SOL     OW 2716   0.147   1.738   1.887  0.4717 -0.3052 -0.5499
  906SOL    HW1 2717   0.078   1.759   1.808  0.0149 -1.2861  0.3869
  906SOL    HW2 2718   0.231   1.801   1.890 -2.5908  2.2910  0.6021
  907SOL     OW 2719   0.223   2.486   0.956 -0.2704 -0.2629 -0.1192
  907SOL    HW1 2720   0.311   2.430   0.954  1.9272  1.6548  1.6706
  907SOL    HW2 2721   0.233   2.580   0.919  0.7436 -0.7222 -0.0502
  908SOL     OW 2722   2.855   2.997   0.388 -0.3068  0.5493 -0.4553
  908SOL    HW1 2723   2.757   3.007   0.367  0.8139  1.9978 -0.5732
  908SOL    HW2 2724   2.894   2.917   0.328 -0.6546  1.6036 -1.3272
  909SOL     OW 2725   0.886   1.025   2.669 -0.4361 -0.0196  0.2874
  909SOL    HW1 2726   0.838   0.943   2.635  0.3911 -0.6394  0.4144
  909SOL    HW2 2727   0.959   1.065   2.604  1.7397 -0.4272  0.0780
  910SOL     OW 2728   1.819   1.874   2.121 -0.0054  0.5048 -0.0539
  910SOL    HW1 2729   1.889   1.913   2.052  2.7584 -1.2127 -2.1696
  910SOL    HW2 2730   1.751   1.938   2.167 -2.9349 -1.0464  0.1305
  911SOL     OW 2731   1.758   2.902   1.529  0.4597  0.4025 -0.4835
  911SOL    HW1 2732   1.855   2.896   1.495 -0.4008  1.2605  1.2140
  911SOL    HW2 2733   1.729   2.819   1.584 -1.3900  2.5519  0.1671
  912SOL     OW 2734   2.865   1.013   0.755  0.1821  0.3102  0.0915
  912SOL    HW1 2735   2.926   1.010   0.839 -1.7602  0.0844  0.9147
  912SOL    HW2 2736   2.799   1.096   0.763  1.3605  1.8538  1.1489
  913SOL     OW 2737   2.572   1.257   1.567  0.0791  0.0940 -0.1335
  913SOL    HW1 2738   2.616   1.166   1.591  0.7260 -1.5847 -0.7517
  913SOL    HW2 2739   2.606   1.293   1.478  0.2825 -1.3544 -0.1328
  914SOL     OW 2740   2.864   0.609   1.194 -0.5356  0.5648  0.3003
  914SOL    HW1 2741   2.874   0.508   1.190  1.4877 -0.5786  0.1666
  914SOL    HW2 2742   2.805   0.632   1.276 -0.4370  1.9975  1.8256
  915SOL     OW 2743   1.209   0.727   0.919  0.3084  0.2528  0.0048
  915SOL    HW1 2744   1.276   0.772   0.986  1.6816 -2.0110 -0.6719
  915SOL    HW2 2745   1.113   0.734   0.954 -1.2147  1.4136 -0.2826
  916SOL     OW 2746   0.627   0.085   0.681  0.6268  0.5008 -0.1247
  916SOL    HW1 2747   0.694   0.162   0.702 -0.9938 -3.1270  1.5801
  916SOL    HW2 2748   0.557   0.109   0.610  2.3694  2.1709  0.4391
  917SOL     OW 2749   2.859   2.621   2.041  0.5013 -0.1082  0.4714
  917SOL    HW1 2750   2.767   2.656   2.010 -1.0129 -1.3143 -2.7178
  917SOL    HW2 2751   2.917   2.580   1.966  0.2778 -1.3677 -1.3864
  918SOL     OW 2752   1.063   2.091   3.044 -0.6465  0.0400  0.1803
  918SOL    HW1 2753   1.086   2.173   3.104  1.4396  0.8221 -2.7271
  918SOL    HW2 2754   1.114   2.092   2.952 -1.0105 -2.5896 -2.0440
  919SOL     OW 2755   0.790   1.632   2.799  0.3210 -0.0346  0.4939
  919SOL    HW1 2756   0.833   1.729   2.793  1.6524  2.0306 -0.3661
  919SOL    HW2 2757   0.770   1.593   2.703  0.2019 -2.3927 -1.6948
  920SOL     OW 2758   1.337   1.822   2.458  0.1886  0.0714 -0.1719
  920SOL    HW1 2759   1.421   1.800   2.403 -3.4416 -2.0789 -0.6573
  920SOL    HW2 2760   1.323   1.757   2.536  0.7438  0.9150 -1.5434
  921SOL     OW 2761   1.140   0.078   2.587 -0.2194 -0.7763  0.5750
  921SOL    HW1 2762   1.108   0.045   2.495  1.8667 -0.8582 -2.2073
  921SOL    HW2 2763   1.062   0.124   2.640  0.8270 -2.4249 -1.7020
  922SOL     OW 2764   2.192   2.455   2.808  0.1006 -0.1209 -0.6414
  922SOL    HW1 2765   2.213   2.350   2.832  0.3851  0.9880  2.8616
  922SOL    HW2 2766   2.138   2.460   2.720 -0.3002 -2.4283  0.5657
  923SOL     OW 2767   1.190   2.727   0.284 -0.3885  1.0884 -0.2118
  923SOL    HW1 2768   1.271   2.781   0.325  0.8408 -1.2299  3.8441
  923SOL    HW2 2769   1.207   2.622   0.278 -2.0540 -1.3293 -1.0972
  924SOL     OW 2770   2.946   1.698   0.153  0.0696 -0.4666  0.1722
  924SOL    HW1 2771   2.857   1.665   0.106 -0.6391  2.3813  0.0367
  924SOL    HW2 2772   3.023   1.631   0.150 -1.8375  2.5151  1.1349
  925SOL     OW 2773   0.034   2.868   1.551  0.2244 -0.9022 -0.7490
  925SOL    HW1 2774  -0.042   2.901   1.612  0.5533  1.3537 -0.3198
  925SOL    HW2 2775  -0.003   2.801   1.479  0.6568  0.7756  2.7828
  926SOL     OW 2776   1.270   2.772   1.344  0.0919  0.1468 -0.0647
  926SOL    HW1 2777   1.296   2.751   1.245 -0.1162 -0.1250 -2.2006
  926SOL    HW2 2778   1.326   2.855   1.379  1.1584  2.4188 -0.8591
  927SOL     OW 2779   0.356   2.593   1.786  0.4689  0.1210  0.3395
  927SOL    HW1 2780   0.315   2.538   1.709 -0.5284  2.1774  0.6448
  927SOL    HW2 2781   0.329   2.694   1.781  0.1744 -0.6632  0.0023
  928SOL     OW 2782   1.661   2.091   2.231 -0.7264  0.3600  0.3373
  928SOL    HW1 2783   1.694   2.162   2.160  0.4597  0.0320 -1.3308
  928SOL    HW2 2784   1.559   2.079   2.233 -1.4032  0.0960 -1.3462
  929SOL     OW 2785   2.465   2.503   2.884  0.4936 -0.1080 -0.2191
  929SOL    HW1 2786   2.369   2.471   2.846  0.9657 -2.3557 -0.0405
  929SOL    HW2 2787   2.531   2.523   2.812  1.0409  2.0368  3.8744
  930SOL     OW 2788   2.134   2.083   1.078  0.6618 -0.3086  0.1597
  930SOL    HW1 2789   2.139   2.022   1.160 -0.3396 -0.9754 -0.4156
  930SOL    HW2 2790   2.131   2.188   1.101  0.8083  1.5540  0.5880
  931SOL     OW 2791   0.467   1.612   2.617 -0.2989  0.2852 -0.3142
  931SOL    HW1 2792   0.470   1.658   2.710  0.5682  1.1978  0.8600
  931SOL    HW2 2793   0.550   1.559   2.585  0.9835  0.3604 -0.2072
  932SOL     OW 2794   0.359   0.062   3.102 -0.0390  0.0531  0.5061
  932SOL    HW1 2795   0.431   0.135   3.081  0.6579  2.7752 -2.0888
  932SOL    HW2 2796   0.386  -0.035   3.070  2.7969  0.2060  0.9329
  933SOL     OW 2797   1.023   0.823   3.020  0.0702 -0.0435  0.5119
  933SOL    HW1 2798   1.084   0.900   3.056 -0.4356 -1.0591  2.2640
  933SOL    HW2 2799   0.925   0.828   3.051 -0.4000  2.3665  1.3220
  934SOL     OW 2800   0.895   2.957   2.627 -0.0692  0.4701  0.1313
  934SOL    HW1 2801   0.857   2.888   2.557  0.1690  1.5420  0.7016
  934SOL    HW2 2802   0.944   2.916   2.704 -0.9620  1.0729 -3.0635
  935SOL     OW 2803   0.023   0.584   0.776  0.4875 -0.9327  0.3549
  935SOL    HW1 2804   0.003   0.528   0.687  2.4616  1.0987  2.1684
  935SOL    HW2 2805  -0.062   0.629   0.814  0.7875  2.0548 -0.7786
  936SOL     OW 2806   1.114   2.889   0.084 -0.0059  0.0642 -0.0694
  936SOL    HW1 2807   1.204   2.922   0.042 -0.8467  0.4107 -1.6386
  936SOL    HW2 2808   1.127   2.820   0.160  1.7547  0.2985 -0.5570
  937SOL     OW 2809   1.959   2.593   2.080 -0.5719  0.1771  0.1947
  937SOL    HW1 2810   1.918   2.628   2.171  0.1519 -0.6020 -0.4527
  937SOL    HW2 2811   1.962   2.667   2.008  0.3116  1.5367 -0.4832
  938SOL     OW 2812   2.763   2.115   1.554 -0.2220  0.1787  0.2291
  938SOL    HW1 2813   2.717   2.212   1.563 -1.5299  0.0870 -0.4270
  938SOL    HW2 2814   2.847   2.095   1.618  1.0682 -0.6387  0.1478
  939SOL     OW 2815   2.825   1.151   2.493 -0.4418 -0.6694 -0.0206
  939SOL    HW1 2816   2.919   1.136   2.450  0.9570  0.8465  1.8932
  939SOL    HW2 2817   2.815   1.110   2.588  3.4340 -3.1555 -0.6364
  940SOL     OW 2818   1.067   0.458   2.737  0.5993  0.1820  0.4230
  940SOL    HW1 2819   1.155   0.405   2.736  2.5077 -0.5470 -2.8876
  940SOL    HW2 2820   0.989   0.420   2.675 -0.6044 -0.3139  1.9975
  941SOL     OW 2821   0.081   2.816   2.283 -0.0577  0.1273  0.0106
  941SOL    HW1 2822   0.101   2.714   2.277 -0.5336 -0.8680 -1.0076
  941SOL    HW2 2823   0.168   2.865   2.311  0.2715  1.8950  0.0373
  942SOL     OW 2824   0.107   0.070   2.438 -0.1446  0.3310  0.0579
  942SOL    HW1 2825   0.128   0.086   2.540 -2.8292  0.3416 -1.5405
  942SOL    HW2 2826   0.097   0.161   2.391 -0.7980 -0.0032  1.6595
  943SOL     OW 2827   2.144   1.697   2.339  0.0834  0.6468  0.0657
  943SOL    HW1 2828   2.130   1.668   2.244 -0.2792 -3.3687  0.3181
  943SOL    HW2 2829   2.167   1.614   2.400 -0.9474 -1.2534  1.0280
  944SOL     OW 2830   2.185   2.325   1.575 -0.4653  0.7056 -0.1865
  944SOL    HW1 2831   2.223   2.337   1.672 -0.2731 -0.5877  0.2603
  944SOL    HW2 2832   2.129   2.240   1.578  1.0025  2.3933  1.0126
  945SOL     OW 2833   0.680   1.636   0.159  0.3588  0.0796 -0.7365
  945SOL    HW1 2834   0.617   1.606   0.084  2.3213  0.7247 -0.7474
  945SOL    HW2 2835   0.733   1.554   0.198  1.5686 -0.2301 -0.0896
  946SOL     OW 2836   0.345   0.998   2.620 -0.3194  0.4505  0.1376
  946SOL    HW1 2837   0.294   0.965   2.534  1.3425  0.6241 -1.0252
  946SOL    HW2 2838   0.406   1.080   2.604 -1.3096 -0.9877 -2.5948
  947SOL     OW 2839   1.471   0.530   3.036  0.4590 -0.3672  0.1915
  947SOL    HW1 2840   1.455   0.588   2.950  0.5196  0.8987 -0.6261
  947SOL    HW2 2841   1.381   0.488   3.068 -1.0848  1.3534  2.0855
  948SOL     OW 2842   1.954   2.939   2.169 -0.4854 -0.4180  0.1930
  948SOL    HW1 2843   1.951   2.900   2.068 -2.9756  0.7103 -1.8646
  948SOL    HW2 2844   1.918   2.869   2.235  0.7657 -3.3832 -0.6065
  949SOL     OW 2845   0.576   2.483   0.423  0.2676  0.1635  0.1738
  949SOL    HW1 2846   0.570   2.589   0.428  0.2930 -1.5854 -0.8439
  949SOL    HW2 2847   0.603   2.441   0.513 -1.9542 -2.7744  0.2672
  950SOL     OW 2848   0.181   2.253   2.927 -0.4869 -0.2079 -0.1324
  950SOL    HW1 2849   0.190   2.342   2.885 -0.7934 -0.6533 -0.8399
  950SOL    HW2 2850   0.197   2.182   2.850 -2.5233 -0.3024 -2.0909
  951SOL     OW 2851   1.223   2.668   2.808 -0.1546 -0.1574 -0.0721
  951SOL    HW1 2852   1.305   2.615   2.849 -1.0215  1.9692 -0.7740
  951SOL    HW2 2853   1.253   2.728   2.728  0.4308  1.1545 -1.9328
  952SOL     OW 2854   0.035   1.621   0.434 -0.0292  0.3547  0.1616
  952SOL    HW1 2855   0.078   1.716   0.436 -0.5580  0.2835  1.5297
  952SOL    HW2 2856   0.076   1.548   0.492 -1.5575 -4.0252 -2.9515
  953SOL     OW 2857   2.497   1.735   0.296  0.5828  0.1679 -0.1275
  953SOL    HW1 2858   2.514   1.632   0.303 -0.7647  0.4877 -0.7135
  953SOL    HW2 2859   2.475   1.766   0.200 -1.6650  0.5108 -2.8971
  954SOL     OW 2860   2.210   0.524   0.932  0.1466  0.2114  0.2085
  954SOL    HW1 2861   2.228   0.530   0.832 -0.6356 -0.0912 -0.8224
  954SOL    HW2 2862   2.305   0.539   0.975  1.2160 -0.4581 -2.8875
  955SOL     OW 2863   0.180   2.595   1.386 -0.0960  0.2349  0.0888
  955SOL    HW1 2864   0.080   2.620   1.377 -0.1058 -3.8817  0.6975
  955SOL    HW2 2865   0.245   2.672   1.374 -0.2399  1.0246  1.0673
  956SOL     OW 2866   2.804   2.494   2.507  0.3754 -0.7109 -0.4725
  956SOL    HW1 2867   2.838   2.395   2.520 -0.5975  0.7263  0.6491
  956SOL    HW2 2868   2.854   2.552   2.435 -0.7520  1.7086 -0.9511
  957SOL     OW 2869   1.618   2.067   2.750 -0.2073  0.2834  0.3008
  957SOL    HW1 2870   1.630   1.981   2.812  0.6806 -2.3495 -0.7281
  957SOL    HW2 2871   1.646   2.046   2.655  1.4566  0.1019  3.0344
  958SOL     OW 2872   2.611   2.278   3.026  0.4813  0.5149 -0.6610
  958SOL    HW1 2873   2.526   2.329   2.995 -2.6693  1.4670 -1.1684
  958SOL    HW2 2874   2.598   2.235   3.122 -1.6612 -1.0054 -3.5432
  959SOL     OW 2875   0.398   2.812   0.138  0.0382 -0.0635  0.3284
  959SOL    HW1 2876   0.316   2.859   0.174 -0.4882  0.4670  0.3086
  959SOL    HW2 2877   0.397   2.704   0.147  1.3708  0.3174  0.0095
  960SOL     OW 2878   1.906   0.505   1.932  0.2868 -0.4244 -0.1241
  960SOL    HW1 2879   1.848   0.577   1.889 -0.6064 -0.3915  0.3609
  960SOL    HW2 2880   1.911   0.516   2.036 -0.3754 -0.3246 -1.2966
  961SOL     OW 2881   2.518   1.891   1.066  0.4373 -0.1583 -0.3831
  961SOL    HW1 2882   2.523   1.981   1.014 -1.2766 -0.4446 -0.3995
  961SOL    HW2 2883   2.502   1.903   1.168  0.6370 -1.6031  1.4865
  962SOL     OW 2884   1.308   0.894   0.040  0.0081 -0.8447 -0.1760
  962SOL    HW1 2885   1.288   0.941  -0.047 -0.9059 -0.8055  0.6799
  962SOL    HW2 2886   1.305   0.954   0.124 -0.4943  2.3146  1.7050
  963SOL     OW 2887   2.323   2.580   1.817 -0.1475 -0.0978 -0.3999
  963SOL    HW1 2888   2.276   2.494   1.847  0.7658  0.4118 -1.1748
  963SOL    HW2 2889   2.369   2.631   1.894 -0.1702 -0.4382  2.0572
  964SOL     OW 2890   2.382   0.419   1.662  0.2169 -0.4486 -0.1007
  964SOL    HW1 2891   2.472   0.384   1.690 -0.1560 -1.0091 -1.0595
  964SOL    HW2 2892   2.369   0.424   1.562 -1.5519 -3.0754  2.9907
  965SOL     OW 2893   2.621   3.015   0.186 -0.7996  0.0108  0.1214
  965SOL    HW1 2894   2.669   2.985   0.099 -1.0165  2.4035  0.2665
  965SOL    HW2 2895   2.522   3.033   0.165 -0.3248 -0.5493 -0.2756
  966SOL     OW 2896   2.467   2.497   2.252 -0.0003  0.0321  0.2067
  966SOL    HW1 2897   2.493   2.578   2.190 -1.5753 -1.4614 -0.0518
  966SOL    HW2 2898   2.369   2.470   2.243  0.8431  0.1554  2.0069
  967SOL     OW 2899   2.740   2.848   2.461 -0.1734  0.9165 -0.7217
  967SOL    HW1 2900   2.814   2.780   2.425  0.5906 -2.0758  1.6829
  967SOL    HW2 2901   2.788   2.939   2.483  1.4465 -1.4275  2.0863
  968SOL     OW 2902   1.974   1.062   2.591 -0.1704  0.2642  0.5978
  968SOL    HW1 2903   1.881   1.109   2.587 -0.1167  3.7772  0.5337
  968SOL    HW2 2904   1.997   0.993   2.515  2.2878 -1.6251 -1.5285
  969SOL     OW 2905   2.772   2.557   1.063  0.8862  0.2022  0.8563
  969SOL    HW1 2906   2.776   2.658   1.039 -0.3345 -0.9313  2.1183
  969SOL    HW2 2907   2.798   2.491   0.986  1.6166  0.0793 -0.7823
  970SOL     OW 2908   1.078   2.105   1.842  0.4482 -0.1857 -0.2150
  970SOL    HW1 2909   1.108   2.012   1.873  1.0065 -2.3044 -1.6981
  970SOL    HW2 2910   0.981   2.108   1.801  0.2603 -1.0793  0.1291
  971SOL     OW 2911   2.899   2.172   1.942 -0.2573 -0.1095 -0.1364
  971SOL    HW1 2912   2.912   2.259   1.998 -1.4713  0.2137 -1.0312
  971SOL    HW2 2913   2.949   2.168   1.853 -0.0891 -2.5882  1.6553
  972SOL     OW 2914   1.908   2.452   0.240  0.6102  0.0632 -0.0503
  972SOL    HW1 2915   1.894   2.345   0.222  4.2548 -1.0328  0.5627
  972SOL    HW2 2916   1.930   2.477   0.336 -0.0742 -2.5243 -0.0094
  973SOL     OW 2917   1.145   0.910   1.885 -0.2979 -0.0947  0.1409
  973SOL    HW1 2918   1.091   0.825   1.907 -2.3600 -0.5781 -2.4906
  973SOL    HW2 2919   1.080   0.973   1.832 -1.1723 -1.9349  0.6569
  974SOL     OW 2920   1.596   0.567   1.972  0.0233 -0.4908  0.3557
  974SOL    HW1 2921   1.668   0.609   1.908  2.0667 -0.1193  1.3793
  974SOL    HW2 2922   1.499   0.592   1.948 -0.4509  3.7679  1.5824
  975SOL     OW 2923   2.373   3.028   0.031  0.3349  0.2698 -0.1673
  975SOL    HW1 2924   2.290   2.964   0.024  1.4722 -0.9326 -2.2691
  975SOL    HW2 2925   2.425   3.022  -0.055  0.0761 -0.9962  2.0251
  976SOL     OW 2926   1.926   2.707   2.344  0.6134 -0.3774 -0.0025
  976SOL    HW1 2927   1.827   2.683   2.363  0.6144 -1.0873  0.8293
  976SOL    HW2 2928   1.968   2.740   2.435 -1.2069  2.1604  2.1977
  977SOL     OW 2929   0.464   0.679   1.002 -0.3319 -0.4390  0.6447
  977SOL    HW1 2930   0.397   0.652   0.926 -2.4590  0.1334 -2.3588
  977SOL    HW2 2931   0.515   0.769   0.982 -1.3314  1.5047  1.1669
   3.10000   3.10000   3.10000
