1000 SPC/Fw water molecules t=   0.22000 step= 220
 2931
    1SOL     OW    1   2.548   0.326   2.538  0.1643 -0.2780 -0.2040
    1SOL    HW1    2   2.550   0.226   2.516  1.9989 -0.3985 -3.0944
    1SOL    HW2    3   2.579   0.344   2.637  3.0037  0.4611  1.7185
    2SOL     OW    4   2.713   3.017   1.407 -0.1983 -0.4993 -0.0469
    2SOL    HW1    5   2.790   3.064   1.348 -1.6702  3.9026 -3.0301
    2SOL    HW2    6   2.661   3.091   1.460  0.6719 -1.2096 -0.4613
    3SOL     OW    7   2.744   2.589   0.408 -0.2938  0.0667  0.4935
    3SOL    HW1    8   2.736   2.487   0.416  0.4972  0.4029  2.8050
    3SOL    HW2    9   2.809   2.629   0.476  1.0740 -2.5809  0.0330
    4SOL     OW   10   1.343   1.473   2.367 -0.1968  0.2376  0.5615
    4SOL    HW1   11   1.266   1.538   2.391  0.7929  0.7534  0.0369
    4SOL    HW2   12   1.329   1.380   2.408  2.2669  1.4544  3.3801
    5SOL     OW   13   1.198   1.499   3.053  0.2539 -0.1090 -0.5697
    5SOL    HW1   14   1.242   1.565   3.116  1.2328 -0.5921 -2.1051
    5SOL    HW2   15   1.096   1.510   3.048  1.1527 -1.1254  0.0774
    6SOL     OW   16   0.075   1.844   2.943 -0.7131 -0.3736  0.0732
    6SOL    HW1   17   0.067   1.895   3.034 -1.7038 -1.8837 -2.4531
    6SOL    HW2   18   0.056   1.743   2.954 -1.0079  1.3579  2.7318
    7SOL     OW   19   2.605   0.799   1.153  0.4133 -0.1612 -0.3026
    7SOL    HW1   20   2.514   0.771   1.203 -0.2490 -1.8349  0.3858
    7SOL    HW2   21   2.618   0.735   1.070  0.9323 -0.3063  2.8147
    8SOL     OW   22   0.459   0.673   1.537 -0.0333 -0.1630  0.4617
    8SOL    HW1   23   0.510   0.596   1.576  0.2441  2.0376 -1.2489
    8SOL    HW2   24   0.408   0.640   1.453  1.3072  0.0811  0.6681
    9SOL     OW   25   1.181   0.950   2.279 -0.0293  0.8145  0.3815
    9SOL    HW1   26   1.202   1.044   2.232  0.5216 -0.0032 -1.2069
    9SOL    HW2   27   1.152   0.885   2.209  0.5229  1.5013 -0.4698
   10SOL     OW   28   0.670   1.344   1.262  1.1196  0.1041  0.0942
   10SOL    HW1   29   0.577   1.364   1.217  0.9433  0.6984  0.1978
   10SOL    HW2   30   0.733   1.426   1.267 -2.7336 -2.4904  0.8303
   11SOL     OW   31   2.332   2.579   0.940  0.2308  0.1002  0.1287
   11SOL    HW1   32   2.335   2.639   1.025  1.6014 -1.2486 -0.9579
   11SOL    HW2   33   2.415   2.518   0.935  3.9860  0.9545  0.6008
   12SOL     OW   34   1.470   0.901   0.474 -0.1399 -0.1806 -0.4495
   12SOL    HW1   35   1.386   0.930   0.422  0.2691  0.7039 -0.9265
   12SOL    HW2   36   1.499   0.806   0.441  0.4285 -0.4586 -2.0943
   13SOL     OW   37   2.488   0.646   1.816  0.7786 -0.1102  0.2780
   13SOL    HW1   38   2.399   0.631   1.869 -1.3089  1.9996 -1.1487
   13SOL    HW2   39   2.491   0.585   1.732 -0.2496 -0.6980  0.6526
   14SOL     OW   40   1.881   3.079   0.586  0.1986  0.1810 -0.0066
   14SOL    HW1   41   1.791   3.101   0.540  2.5355  0.0289  0.9054
   14SOL    HW2   42   1.865   3.047   0.683  1.8546  1.6743 -1.1713
   15SOL     OW   43   1.953   2.035   2.861 -0.0572 -0.2053  0.2249
   15SOL    HW1   44   1.888   2.118   2.875 -1.9947 -0.6542  3.2494
   15SOL    HW2   45   1.922   1.976   2.781  0.7953  1.2915  0.4886
   16SOL     OW   46   1.598   1.701   0.057  0.3379 -0.2058 -0.2766
   16SOL    HW1   47   1.640   1.625  -0.001 -0.6826 -2.2555  0.8784
   16SOL    HW2   48   1.637   1.702   0.151  0.1768  0.3390 -1.0186
   17SOL     OW   49   0.131   0.431   0.164 -0.0918  0.2909 -0.3490
   17SOL    HW1   50   0.207   0.484   0.118  1.5074 -0.0018  1.8658
   17SOL    HW2   51   0.044   0.447   0.108  0.9075 -1.4676 -1.1482
   18SOL     OW   52   1.090   2.886   2.159 -1.1222  0.4644  0.6711
   18SOL    HW1   53   1.012   2.826   2.136  1.7687 -0.1429  2.3761
   18SOL    HW2   54   1.176   2.866   2.097  1.3747  1.4823 -0.4921
   19SOL     OW   55   0.502   0.984   1.936 -0.2440 -0.5517  0.1530
   19SOL    HW1   56   0.455   1.000   2.026 -1.4315 -0.7978  0.8463
   19SOL    HW2   57   0.584   0.921   1.938 -1.0155 -1.6791  1.2521
   20SOL     OW   58   0.243   2.766   0.881 -0.2407  0.4574  0.1697
   20SOL    HW1   59   0.144   2.756   0.858 -1.2049  1.5355 -0.3495
   20SOL    HW2   60   0.303   2.750   0.802 -2.6112  1.0284  1.0341
   21SOL     OW   61   2.791   0.190   2.145  0.3495 -0.7484 -0.0170
   21SOL    HW1   62   2.858   0.136   2.095 -2.9454 -3.0832 -1.1768
   21SOL    HW2   63   2.771   0.145   2.234 -0.9999 -1.7597 -0.8888
   22SOL     OW   64   2.357   0.198   0.018 -1.0340 -0.0253 -0.3652
   22SOL    HW1   65   2.367   0.093   0.014 -0.3405 -2.5155  1.1725
   22SOL    HW2   66   2.253   0.228   0.028 -3.7215 -2.0341  0.4345
   23SOL     OW   67   2.781   0.652   0.692 -0.2197 -0.2935 -0.2805
   23SOL    HW1   68   2.757   0.563   0.649 -2.0736  1.8195 -0.6847
   23SOL    HW2   69   2.793   0.734   0.626  1.4868 -2.1408 -1.6287
   24SOL     OW   70   0.181   1.882   0.482  0.0335 -0.4626 -0.3824
   24SOL    HW1   71   0.076   1.883   0.467 -0.7717 -0.0443  2.2966
   24SOL    HW2   72   0.245   1.881   0.397  1.6895  0.4647  1.0112
   25SOL     OW   73   2.256   0.520   0.187  0.1215 -0.1742 -0.1220
   25SOL    HW1   74   2.304   0.460   0.254  2.3100 -0.5932 -2.3719
   25SOL    HW2   75   2.276   0.493   0.096 -2.1816 -1.3472  4.3651
   26SOL     OW   76   2.531   2.184   2.099 -0.4128  0.1406  0.5948
   26SOL    HW1   77   2.608   2.233   2.148  0.5298 -1.0396 -0.0551
   26SOL    HW2   78   2.569   2.103   2.043  0.9437 -0.5726 -1.7461
   27SOL     OW   79   0.669   2.980   0.109 -0.4415 -0.3053  0.1591
   27SOL    HW1   80   0.767   3.012   0.096  0.0858 -2.1269 -2.5428
   27SOL    HW2   81   0.609   2.961   0.023 -1.9588  2.4636 -0.1667
   28SOL     OW   82   1.509   0.214   0.225  0.5447 -0.8738  0.2671
   28SOL    HW1   83   1.587   0.179   0.169 -1.5865  0.9171 -0.0611
   28SOL    HW2   84   1.536   0.300   0.285  0.2585  0.7490 -0.7025
   29SOL     OW   85   2.016   0.642   0.240  0.3144  0.3864  0.1713
   29SOL    HW1   86   2.041   0.727   0.296  0.5488  1.3644  1.9770
   29SOL    HW2   87   2.103   0.586   0.212 -0.4613 -0.1744 -0.1842
   30SOL     OW   88   0.189   2.058   0.936  0.2191 -0.0008 -0.3380
   30SOL    HW1   89   0.148   2.053   0.845 -0.8857 -0.5054  2.1692
   30SOL    HW2   90   0.141   2.125   0.994  0.6420  1.6016 -3.4309
   31SOL     OW   91   2.043   0.051   2.318  0.7583  0.0578 -0.1359
   31SOL    HW1   92   2.073   0.008   2.406  0.7974  0.5393 -2.0000
   31SOL    HW2   93   1.985  -0.008   2.255  0.6267  0.1074  1.6847
   32SOL     OW   94   2.943   0.119   0.174 -0.5494  0.2376 -0.9721
   32SOL    HW1   95   2.895   0.074   0.255 -2.6576  2.3870  0.3996
   32SOL    HW2   96   3.025   0.070   0.146 -0.3315 -0.5412  0.2561
   33SOL     OW   97   0.963   0.311   0.425 -0.2526 -0.3137  0.4473
   33SOL    HW1   98   0.912   0.216   0.417 -3.3088 -2.0722 -1.8500
   33SOL    HW2   99   1.033   0.317   0.499 -2.2104  1.3301 -2.3161
   34SOL     OW  100   0.411   2.915   1.060  0.0844 -0.3467 -0.3773
   34SOL    HW1  101   0.347   2.860   1.001 -0.6224  1.1383  1.2982
   34SOL    HW2  102   0.510   2.895   1.037 -1.2424 -1.5113  3.0901
   35SOL     OW  103   0.069   0.015   1.817 -0.3072  0.5236  0.5171
   35SOL    HW1  104   0.124  -0.077   1.815 -0.2507 -1.8461  1.5535
   35SOL    HW2  105   0.017   0.028   1.724 -0.9435 -0.6894 -3.7976
   36SOL     OW  106   1.910   1.169   1.830  0.3246  0.0312  0.1247
   36SOL    HW1  107   1.963   1.114   1.754 -1.6678 -2.2500 -3.1746
   36SOL    HW2  108   1.975   1.239   1.872  1.5873  1.1887  0.6047
   37SOL     OW  109   1.129   0.299   0.970  0.0936 -0.4893 -0.2173
   37SOL    HW1  110   1.136   0.393   1.009  0.0536 -1.6684 -1.4748
   37SOL    HW2  111   1.203   0.240   1.009  2.1413  0.3809 -0.7525
   38SOL     OW  112   1.138   2.698   2.409 -0.0545  0.0955 -0.0644
   38SOL    HW1  113   1.084   2.609   2.438 -2.5545  0.5147 -0.1436
   38SOL    HW2  114   1.079   2.756   2.356  0.0801 -0.6501  2.6982
   39SOL     OW  115   2.349   1.439   3.045 -0.2489 -0.3076 -0.3084
   39SOL    HW1  116   2.409   1.357   3.036 -0.4575 -0.2057 -0.1959
   39SOL    HW2  117   2.296   1.437   3.131  0.3794  0.9248  2.7929
   40SOL     OW  118   2.069   2.522   2.544  0.3783  0.0673  0.2134
   40SOL    HW1  119   2.023   2.602   2.591  0.3418  1.5391  4.8988
   40SOL    HW2  120   1.999   2.473   2.485 -1.5842  0.1888 -1.8011
   41SOL     OW  121   2.928   0.686   2.760  0.4220  0.1883 -0.0891
   41SOL    HW1  122   2.847   0.712   2.815  1.8731  2.0007 -0.4806
   41SOL    HW2  123   2.914   0.607   2.699 -0.5973  2.9298  1.0975
   42SOL     OW  124   1.786   1.746   0.590  0.5116  0.1925 -0.0597
   42SOL    HW1  125   1.757   1.664   0.542 -0.6698  0.1452  0.5737
   42SOL    HW2  126   1.809   1.821   0.523  1.1069 -1.7910  0.1342
   43SOL     OW  127   0.472   1.746   1.194  1.2356 -0.1106  0.0716
   43SOL    HW1  128   0.444   1.695   1.283  2.1510 -1.7662  1.2892
   43SOL    HW2  129   0.397   1.749   1.121  1.7376 -0.3339  2.0332
   44SOL     OW  130   1.725   2.509   0.027  0.2976 -0.1794  0.2940
   44SOL    HW1  131   1.737   2.579  -0.046 -1.1077 -0.4042  1.1296
   44SOL    HW2  132   1.818   2.508   0.078  0.1350 -0.9152 -0.5160
   45SOL     OW  133   0.361   1.918   2.506  0.0314  0.3165  0.4820
   45SOL    HW1  134   0.274   1.918   2.445  0.1264 -1.2088 -0.1548
   45SOL    HW2  135   0.394   1.820   2.533  1.4069 -1.2589  1.4208
   46SOL     OW  136   1.153   0.630   0.167  0.2487 -0.5161 -0.0711
   46SOL    HW1  137   1.204   0.710   0.121  2.1546 -1.2542  1.0845
   46SOL    HW2  138   1.063   0.666   0.206  0.1035 -0.0814 -1.1953
   47SOL     OW  139   0.239   2.465   1.619  0.4167 -0.5276 -0.3375
   47SOL    HW1  140   0.319   2.410   1.594 -2.4544  1.7764 -1.6526
   47SOL    HW2  141   0.194   2.513   1.533 -3.1862 -0.5682 -2.2677
   48SOL     OW  142   2.579   0.555   0.148 -0.4983  0.2232  0.1585
   48SOL    HW1  143   2.538   0.575   0.247 -1.4611  1.8584  3.9403
   48SOL    HW2  144   2.654   0.627   0.130 -1.2131 -0.2580  5.2924
   49SOL     OW  145   0.338   0.869   1.737  0.0769  0.4264 -0.7487
   49SOL    HW1  146   0.411   0.904   1.802  0.4710  1.2168  0.3954
   49SOL    HW2  147   0.378   0.791   1.678 -0.1207 -0.7198 -0.0012
   50SOL     OW  148   1.745   1.074   0.360 -0.0582  0.5516  0.1133
   50SOL    HW1  149   1.758   0.975   0.340 -2.0608 -1.9072 -0.7792
   50SOL    HW2  150   1.689   1.098   0.439 -0.5700  0.0798 -2.3724
   51SOL     OW  151   3.010   1.905   0.391  0.4543 -0.0788 -0.2260
   51SOL    HW1  152   3.024   1.939   0.293  1.3724 -1.6454 -0.8517
   51SOL    HW2  153   2.989   1.802   0.395 -0.1261 -0.0079  1.2564
   52SOL     OW  154   0.819   1.963   0.505  0.2339 -0.0564  0.2380
   52SOL    HW1  155   0.737   2.022   0.538 -1.1402  1.0794  0.9665
   52SOL    HW2  156   0.839   1.878   0.563 -0.8083  0.0926 -1.3242
   53SOL     OW  157   3.067   0.353   1.523 -0.6522 -0.1084  0.5054
   53SOL    HW1  158   2.973   0.319   1.533  1.7292  1.0858  4.1703
   53SOL    HW2  159   3.078   0.456   1.513 -0.0619  0.9402 -1.5224
   54SOL     OW  160   1.738   0.475   3.005  0.0530 -0.3620 -0.3662
   54SOL    HW1  161   1.781   0.428   3.089 -0.3843 -1.8937  2.4826
   54SOL    HW2  162   1.632   0.484   3.018 -1.5115  0.3771  0.6596
   55SOL     OW  163   0.712   2.929   0.623  0.0398  0.0186 -0.2442
   55SOL    HW1  164   0.673   3.021   0.641  2.0819 -0.4333  1.2796
   55SOL    HW2  165   0.813   2.932   0.595 -2.1913  2.3194  0.2446
   56SOL     OW  166   0.490   1.556   3.054 -0.2732  0.2394  0.1315
   56SOL    HW1  167   0.403   1.601   3.094 -0.5666 -2.6627  0.5883
   56SOL    HW2  168   0.474   1.466   3.017  0.2633  0.3854  1.5786
   57SOL     OW  169   1.778   2.379   2.640  0.2807  0.1035  0.9566
   57SOL    HW1  170   1.835   2.355   2.559 -1.2731  0.4217 -0.0720
   57SOL    HW2  171   1.690   2.428   2.617  2.0961 -0.8133 -0.6851
   58SOL     OW  172   0.589   0.448   1.102 -0.1944 -0.5037 -0.0865
   58SOL    HW1  173   0.526   0.526   1.109 -3.0925 -2.4766  1.4761
   58SOL    HW2  174   0.530   0.370   1.127 -1.7711  4.3260 -0.0244
   59SOL     OW  175   0.473   2.415   2.670  0.2677  0.1586  0.1686
   59SOL    HW1  176   0.480   2.309   2.683  0.8888 -3.7063  1.3972
   59SOL    HW2  177   0.560   2.467   2.684  0.4123 -0.8487  2.2152
   60SOL     OW  178   2.328   2.185   2.268 -0.4706 -0.4112  0.6672
   60SOL    HW1  179   2.412   2.186   2.208  0.1602 -3.2818 -0.4250
   60SOL    HW2  180   2.358   2.198   2.367  0.0887 -0.1377  0.7670
   61SOL     OW  181   1.388   0.578   0.441  0.7321  0.0139  0.6289
   61SOL    HW1  182   1.297   0.617   0.479 -1.2939  0.4318  0.8407
   61SOL    HW2  183   1.395   0.575   0.338 -0.3176  0.6369 -0.3831
   62SOL     OW  184   2.659   1.866   3.089 -0.1797  0.0080 -0.2619
   62SOL    HW1  185   2.656   1.763   3.087 -0.6658  0.0064  0.5070
   62SOL    HW2  186   2.735   1.915   3.033  2.6396  0.2175  1.2369
   63SOL     OW  187   0.528   0.810   0.160  0.3661  0.5034 -0.2436
   63SOL    HW1  188   0.508   0.910   0.176 -0.2130  0.1049  0.9903
   63SOL    HW2  189   0.580   0.768   0.237 -2.3420 -0.8813  1.3074
   64SOL     OW  190   0.098   0.497   2.522  0.1795 -0.3796  0.0381
   64SOL    HW1  191   0.049   0.528   2.608  0.3672 -1.4000 -1.5189
   64SOL    HW2  192   0.089   0.572   2.455  0.9752 -0.7054  1.2936
   65SOL     OW  193   0.187   1.471   0.632  0.4844 -0.0634  0.4181
   65SOL    HW1  194   0.202   1.551   0.699 -0.1279  0.8175 -0.0699
   65SOL    HW2  195   0.273   1.452   0.576 -2.3518  2.5958 -0.4982
   66SOL     OW  196   2.469   0.385   0.707 -0.2041  0.3562  0.2731
   66SOL    HW1  197   2.393   0.447   0.692  2.3916 -1.8065 -0.1541
   66SOL    HW2  198   2.435   0.286   0.718  0.4665  0.5248  1.0970
   67SOL     OW  199   0.500   2.537   1.339  0.2512 -0.0225  0.0724
   67SOL    HW1  200   0.604   2.558   1.350  0.3419 -0.1342  0.7991
   67SOL    HW2  201   0.476   2.440   1.310 -1.3674  2.9926  0.0128
   68SOL     OW  202   1.022   1.096   2.441  0.1996 -0.1045 -0.4672
   68SOL    HW1  203   1.079   1.033   2.375 -0.5400 -0.2336 -0.2067
   68SOL    HW2  204   0.931   1.127   2.396 -1.1956 -1.9255  2.0434
   69SOL     OW  205   0.773   2.700   2.157 -0.7501  0.0596 -0.1588
   69SOL    HW1  206   0.812   2.602   2.179  0.3299 -3.2176  0.2658
   69SOL    HW2  207   0.671   2.708   2.167  1.2433 -0.0250  1.6025
   70SOL     OW  208   0.606   0.255   2.712 -0.0886 -0.1057  0.2565
   70SOL    HW1  209   0.586   0.291   2.807  2.3865  0.1643  0.9609
   70SOL    HW2  210   0.564   0.160   2.696 -1.5251 -0.5156 -2.0299
   71SOL     OW  211   1.073   1.783   0.359  0.0184 -0.1346 -0.8903
   71SOL    HW1  212   1.049   1.680   0.372  0.4479  0.7643  0.6677
   71SOL    HW2  213   1.062   1.810   0.262  0.0333  0.3478  1.5984
   72SOL     OW  214   1.814   0.080   2.083 -0.0231  0.6115  0.1013
   72SOL    HW1  215   1.867   0.099   1.999  1.9361 -1.3394 -0.3938
   72SOL    HW2  216   1.838  -0.013   2.119  0.2482  3.4491  0.8372
   73SOL     OW  217   2.819   2.225   2.519 -0.4807 -0.0895 -0.3415
   73SOL    HW1  218   2.817   2.131   2.478 -0.6910  1.6010 -0.2968
   73SOL    HW2  219   2.851   2.216   2.624  1.8277  2.1841  1.0192
   74SOL     OW  220   2.748   3.013   2.042  0.2142 -0.3255 -0.2794
   74SOL    HW1  221   2.677   3.015   2.121 -1.3654  0.3994  0.2754
   74SOL    HW2  222   2.844   3.016   2.082 -0.0960  0.9086 -0.4552
   75SOL     OW  223   0.919   0.761   0.996  0.6670  0.3622  0.4461
   75SOL    HW1  224   0.836   0.824   0.984 -1.1749 -0.5357 -1.8878
   75SOL    HW2  225   0.954   0.767   1.091 -3.0020  2.3205 -2.5131
   76SOL     OW  226   1.747   1.236   2.562 -0.1883  0.6482  0.5156
   76SOL    HW1  227   1.647   1.215   2.571 -2.1925 -1.3067 -1.9058
   76SOL    HW2  228   1.765   1.333   2.584 -0.0097 -1.4017 -1.5462
   77SOL     OW  229   2.992   0.978   0.989  0.0367 -0.2162  0.5998
   77SOL    HW1  230   2.972   0.878   0.991 -0.2398  1.0028  0.1829
   77SOL    HW2  231   3.066   1.004   1.061 -0.0147  2.6473  0.6464
   78SOL     OW  232   1.971   1.403   1.481  0.1263  0.2346  0.4349
   78SOL    HW1  233   2.075   1.401   1.450  0.9682  0.5240  1.0953
   78SOL    HW2  234   1.910   1.342   1.420  2.3998  0.3475 -3.7001
   79SOL     OW  235   0.600   1.322   0.849 -0.6046 -0.1166 -0.3202
   79SOL    HW1  236   0.519   1.362   0.900  0.1947  1.8851  0.0936
   79SOL    HW2  237   0.570   1.272   0.769 -1.8042  1.0314  2.6092
   80SOL     OW  238   0.662   0.487   1.611  0.2968  0.0337  0.0292
   80SOL    HW1  239   0.723   0.537   1.548 -2.2240  1.0612  0.7045
   80SOL    HW2  240   0.652   0.388   1.582  2.3540 -0.5355  0.7973
   81SOL     OW  241   1.066   1.391   2.636 -0.3526 -0.2188  0.3060
   81SOL    HW1  242   0.998   1.354   2.700 -0.0392  0.2965  0.3894
   81SOL    HW2  243   1.040   1.380   2.535  0.7805  0.8857 -2.3800
   82SOL     OW  244   0.902   2.995   1.520  0.2380 -0.1651  0.2735
   82SOL    HW1  245   0.925   2.962   1.427  0.1396 -3.3730 -1.2491
   82SOL    HW2  246   0.825   2.937   1.559 -1.1041 -0.3751  1.6288
   83SOL     OW  247   2.757   2.447   0.794  0.2542  0.6101 -0.3322
   83SOL    HW1  248   2.664   2.409   0.755 -1.6102 -1.6612  0.5178
   83SOL    HW2  249   2.801   2.525   0.746 -2.5679  2.6296  2.4750
   84SOL     OW  250   0.699   0.008   2.403  0.4137 -0.3789  0.1177
   84SOL    HW1  251   0.604  -0.025   2.421  1.9370  3.7486  0.0935
   84SOL    HW2  252   0.764  -0.022   2.479  0.0820 -1.3317  1.4568
   85SOL     OW  253   0.392   1.649   1.483 -0.3189  0.3429  0.4910
   85SOL    HW1  254   0.361   1.752   1.477 -0.7935  0.1466 -0.1791
   85SOL    HW2  255   0.386   1.606   1.579 -1.1030  1.6867 -0.8655
   86SOL     OW  256   0.349   1.007   1.481 -0.0388 -0.2106  0.3740
   86SOL    HW1  257   0.334   0.929   1.413 -0.5522  0.5962 -0.4678
   86SOL    HW2  258   0.320   0.976   1.576 -2.9981 -1.2664 -0.1832
   87SOL     OW  259   1.587   0.599   0.200 -0.1329  0.3396 -0.3074
   87SOL    HW1  260   1.638   0.689   0.223  0.0910 -0.0700  2.7632
   87SOL    HW2  261   1.537   0.599   0.109 -1.7967  0.4772  1.3574
   88SOL     OW  262   1.579   1.246   0.192 -0.3281  0.0761  0.0929
   88SOL    HW1  263   1.627   1.161   0.225  0.7805  2.1590 -1.0573
   88SOL    HW2  264   1.497   1.277   0.245  0.8109 -0.0904  0.9579
   89SOL     OW  265   3.006   0.452   0.576 -0.4364 -0.3426  0.2183
   89SOL    HW1  266   3.066   0.367   0.610 -1.7035 -1.8118 -0.2473
   89SOL    HW2  267   2.908   0.422   0.560  3.2657 -1.7728 -1.2479
   90SOL     OW  268   0.971   1.659   3.061  0.5841  0.1392 -0.3378
   90SOL    HW1  269   0.885   1.634   3.113  1.0432  1.0431 -1.7768
   90SOL    HW2  270   0.955   1.668   2.959 -1.0936 -0.9692 -1.3124
   91SOL     OW  271   1.276   1.447   1.781 -0.0300  0.7311  0.2321
   91SOL    HW1  272   1.291   1.545   1.817  0.0465  2.4999 -0.3701
   91SOL    HW2  273   1.364   1.401   1.753 -1.7053 -0.6767 -2.3522
   92SOL     OW  274   0.090   1.046   1.167 -0.1518 -0.3332 -0.2302
   92SOL    HW1  275   0.183   1.053   1.112  1.1661 -0.9875 -1.4869
   92SOL    HW2  276   0.110   1.038   1.271 -1.2588  1.3325 -0.5003
   93SOL     OW  277   0.046   2.845   0.055 -0.2009  0.0267  0.7914
   93SOL    HW1  278  -0.006   2.825  -0.031 -2.3182  0.8869  1.2749
   93SOL    HW2  279   0.065   2.755   0.101 -0.8602 -1.7141  0.5764
   94SOL     OW  280   1.515   1.339   1.686  0.4309  0.1083  0.1053
   94SOL    HW1  281   1.565   1.249   1.700  1.7427  0.4610  0.4597
   94SOL    HW2  282   1.570   1.424   1.713  0.0753  3.6960 -2.1586
   95SOL     OW  283   1.355   2.474   2.925 -0.3948 -0.0838 -0.0579
   95SOL    HW1  284   1.290   2.469   3.011 -0.2306 -0.0721  3.7135
   95SOL    HW2  285   1.373   2.378   2.888  0.0224 -1.3797 -1.2562
   96SOL     OW  286   0.505   2.002   1.223 -0.5026 -0.6156 -0.2746
   96SOL    HW1  287   0.470   2.044   1.132  0.3825  0.9557 -2.5138
   96SOL    HW2  288   0.498   1.897   1.231  0.2519 -2.1943 -1.0655
   97SOL     OW  289   0.330   1.445   2.485  1.3507 -0.1389 -0.1272
   97SOL    HW1  290   0.232   1.402   2.488  2.1393 -1.5263  1.7762
   97SOL    HW2  291   0.344   1.522   2.557 -3.1255  0.0973  2.6687
   98SOL     OW  292   2.029   1.702   1.309 -0.7172 -0.2628  0.3692
   98SOL    HW1  293   2.061   1.654   1.223  1.8445 -1.2921 -0.8764
   98SOL    HW2  294   2.051   1.654   1.397 -3.4970  1.8694 -1.2346
   99SOL     OW  295   2.465   2.137   1.321  0.1032 -0.5453  0.1246
   99SOL    HW1  296   2.501   2.180   1.408 -0.7464  2.1514  0.2780
   99SOL    HW2  297   2.444   2.035   1.330 -0.5739 -0.2106 -0.7237
  100SOL     OW  298   2.282   0.383   2.033 -0.2305 -0.7267  0.2325
  100SOL    HW1  299   2.219   0.344   2.113 -0.7688  1.7893  0.2425
  100SOL    HW2  300   2.372   0.422   2.068 -0.3341 -1.7334  2.4297
  101SOL     OW  301   0.416   1.445   0.278 -0.0973  0.3452 -0.0558
  101SOL    HW1  302   0.426   1.470   0.379 -1.6363  0.1351 -0.5481
  101SOL    HW2  303   0.496   1.478   0.224  0.9147  3.6081  2.3362
  102SOL     OW  304   2.283   1.062   0.797  0.4314  0.3342 -0.2689
  102SOL    HW1  305   2.209   0.990   0.763  0.2234 -2.6626  0.4962
  102SOL    HW2  306   2.333   1.110   0.721  1.5277 -2.7548  0.8073
  103SOL     OW  307   2.300   0.087   0.417 -0.1399 -0.2352  0.4991
  103SOL    HW1  308   2.365   0.151   0.363 -0.5372  0.9863 -1.8751
  103SOL    HW2  309   2.343   0.028   0.497 -0.8296 -0.4654  1.6733
  104SOL     OW  310   0.083   1.876   2.132  0.3953 -0.1483 -0.7041
  104SOL    HW1  311   0.111   1.795   2.067 -0.9795 -1.7417  0.9741
  104SOL    HW2  312  -0.020   1.876   2.138  1.5999  0.9219 -0.5755
  105SOL     OW  313   1.120   1.956   0.840  0.1076 -0.8293 -0.3178
  105SOL    HW1  314   1.066   2.032   0.793  0.5471 -1.1615 -0.3055
  105SOL    HW2  315   1.146   1.884   0.768  3.0671  2.6117 -1.0344
  106SOL     OW  316   2.053   0.445   1.342  0.3095 -0.6815  0.3505
  106SOL    HW1  317   2.016   0.357   1.380  0.3581  0.4538  0.5272
  106SOL    HW2  318   2.048   0.529   1.403  1.2997 -0.3100  0.1043
  107SOL     OW  319   1.817   3.018   1.091  0.1118 -0.4349 -0.2558
  107SOL    HW1  320   1.872   3.077   1.158  0.4406 -0.1414 -2.0594
  107SOL    HW2  321   1.755   2.951   1.139 -1.6491  0.4091 -1.7098
  108SOL     OW  322   0.749   2.640   1.308  0.2528 -0.4280 -0.2647
  108SOL    HW1  323   0.729   2.732   1.359 -1.6752  1.5021 -0.2344
  108SOL    HW2  324   0.840   2.595   1.334 -0.8825  0.1515  2.6019
  109SOL     OW  325   2.096   0.095   0.710 -0.0653 -0.0399  0.6334
  109SOL    HW1  326   2.026   0.054   0.645  0.6436  0.1753 -0.2749
  109SOL    HW2  327   2.082   0.067   0.810  2.4749 -0.1400  0.4138
  110SOL     OW  328   0.486   2.784   2.722  0.0124  0.5712 -0.8598
  110SOL    HW1  329   0.493   2.825   2.628 -1.3844  1.1036  0.3009
  110SOL    HW2  330   0.561   2.710   2.739 -1.0528  1.6844 -0.8030
  111SOL     OW  331   1.299   0.516   2.296 -0.1327  0.1142 -0.2181
  111SOL    HW1  332   1.217   0.557   2.341  0.5080 -0.2464 -1.8187
  111SOL    HW2  333   1.342   0.442   2.348  1.6501 -0.2902 -0.4356
  112SOL     OW  334   1.712   0.488   1.428 -0.0705  0.0820 -0.4164
  112SOL    HW1  335   1.709   0.435   1.337  2.0753 -1.0439 -1.7250
  112SOL    HW2  336   1.735   0.422   1.508 -0.2766 -0.9086 -1.0841
  113SOL     OW  337   2.311   1.659   1.738 -0.0494 -0.5340 -0.4273
  113SOL    HW1  338   2.364   1.570   1.738  0.8112  3.6353 -0.2067
  113SOL    HW2  339   2.333   1.711   1.827  0.8906  1.6500 -0.5954
  114SOL     OW  340   0.356   0.583   1.288 -0.6719 -0.0432  0.3114
  114SOL    HW1  341   0.379   0.679   1.261 -1.3457 -0.0250 -0.9501
  114SOL    HW2  342   0.311   0.535   1.205 -1.8768 -0.3016 -1.1384
  115SOL     OW  343   2.636   1.587   1.239 -0.7251 -0.1944 -0.0088
  115SOL    HW1  344   2.675   1.488   1.254 -1.9726 -3.0097 -2.2038
  115SOL    HW2  345   2.678   1.637   1.156 -1.2057  0.3980 -0.3520
  116SOL     OW  346   1.826   1.061   0.772 -0.1052  0.5712 -0.1841
  116SOL    HW1  347   1.753   1.006   0.717  0.1531 -1.6289  1.6502
  116SOL    HW2  348   1.814   1.164   0.766 -0.0910  1.5414  3.0234
  117SOL     OW  349   1.150   0.360   0.654  0.0154 -0.0519  0.1229
  117SOL    HW1  350   1.170   0.386   0.754  1.0379  0.7058  1.1220
  117SOL    HW2  351   1.140   0.442   0.593 -0.2186 -2.2265 -0.3864
  118SOL     OW  352   1.067   1.090   1.109  0.4321  0.2736  0.6402
  118SOL    HW1  353   1.035   1.001   1.143 -0.2289  0.1146  3.2316
  118SOL    HW2  354   1.061   1.159   1.181 -0.6379 -1.3239 -1.6760
  119SOL     OW  355   1.821   1.616   2.024  0.1394  0.4566  0.3486
  119SOL    HW1  356   1.809   1.700   2.074 -0.6659  0.5218  1.9680
  119SOL    HW2  357   1.921   1.584   2.020 -0.6335 -0.7671 -1.4799
  120SOL     OW  358   2.957   2.787   0.324  0.1794  0.1578  0.0504
  120SOL    HW1  359   2.877   2.764   0.263  2.1664 -1.0195  0.4483
  120SOL    HW2  360   2.995   2.710   0.385  2.0724 -0.0847  1.7674
  121SOL     OW  361   2.017   0.754   2.182 -0.3380 -0.3221  0.1659
  121SOL    HW1  362   2.078   0.753   2.096  0.4243  0.3222  1.3511
  121SOL    HW2  363   2.004   0.660   2.217  0.3243 -1.3231  0.2888
  122SOL     OW  364   2.739   2.544   1.371  0.2750 -0.3165  0.2000
  122SOL    HW1  365   2.756   2.559   1.269  0.7436  0.4748 -1.8782
  122SOL    HW2  366   2.694   2.450   1.394  0.6953  1.5025 -1.1903
  123SOL     OW  367   1.714   0.034   1.692 -0.2637 -0.0838 -0.0583
  123SOL    HW1  368   1.727  -0.032   1.611  0.2354  0.8617  0.9992
  123SOL    HW2  369   1.797   0.046   1.751 -0.9492 -0.6773  2.0914
  124SOL     OW  370   0.178   0.482   1.048 -0.0614 -0.4234  0.3930
  124SOL    HW1  371   0.147   0.565   1.102 -1.9682  1.3613  2.3963
  124SOL    HW2  372   0.131   0.498   0.953 -0.1676  0.1362 -2.5222
  125SOL     OW  373   0.873   1.773   0.676  0.1430  0.3580 -0.1108
  125SOL    HW1  374   0.971   1.764   0.651  0.0523  0.1329 -0.6960
  125SOL    HW2  375   0.843   1.702   0.746  1.8789  0.5534 -1.4085
  126SOL     OW  376   1.914   2.371   2.391  0.3261 -0.0596 -0.0398
  126SOL    HW1  377   1.969   2.309   2.327 -0.6862 -0.6144 -1.4306
  126SOL    HW2  378   1.824   2.398   2.351  0.1094  0.1393  0.9156
  127SOL     OW  379   0.871   0.983   0.182 -0.6579  0.0015 -0.1137
  127SOL    HW1  380   0.865   1.028   0.275 -1.8982 -0.8252 -0.0662
  127SOL    HW2  381   0.845   0.883   0.185 -3.5505 -0.1170  1.3441
  128SOL     OW  382   0.995   0.161   1.482 -0.2066  0.1950  0.2337
  128SOL    HW1  383   0.942   0.221   1.414  0.0157  1.3437  0.9194
  128SOL    HW2  384   0.952   0.065   1.493  2.5863 -3.7925 -0.8972
  129SOL     OW  385   1.814   0.703   1.871  0.8827 -0.1174  0.2787
  129SOL    HW1  386   1.825   0.693   1.766  0.4264  0.6816  2.7148
  129SOL    HW2  387   1.839   0.795   1.912 -0.4425 -2.9595 -0.3679
  130SOL     OW  388   1.326   2.070   0.995  0.4925 -0.1976  0.2735
  130SOL    HW1  389   1.252   2.031   0.934 -1.8787 -2.0091  0.9288
  130SOL    HW2  390   1.344   2.172   0.972 -0.1660 -0.4199  0.2891
  131SOL     OW  391   0.009   1.519   1.367  0.1122  0.0763  0.6129
  131SOL    HW1  392  -0.048   1.434   1.343 -1.1877  2.6863  0.2988
  131SOL    HW2  393   0.106   1.496   1.402 -0.1362 -0.4820  2.1091
  132SOL     OW  394   1.938   2.505   0.526  0.4921 -0.1225 -0.2633
  132SOL    HW1  395   1.839   2.489   0.537  1.6786 -3.0290  0.5898
  132SOL    HW2  396   1.980   2.493   0.620  1.0148 -1.1752 -0.1353
  133SOL     OW  397   1.819   2.278   2.911  0.2015 -0.1104 -0.4053
  133SOL    HW1  398   1.767   2.343   2.972 -1.3364  1.3539  0.5089
  133SOL    HW2  399   1.829   2.314   2.816 -0.0280 -3.5452  0.1537
  134SOL     OW  400   2.652   2.355   1.613  0.4383  0.0688 -0.0106
  134SOL    HW1  401   2.612   2.306   1.698  1.7719 -1.6947  0.0142
  134SOL    HW2  402   2.736   2.408   1.637  0.4995 -1.5630 -0.5906
  135SOL     OW  403   0.720   1.535   2.558 -0.1823  0.3508  0.0808
  135SOL    HW1  404   0.704   1.432   2.590 -1.2343  1.1756  1.2402
  135SOL    HW2  405   0.791   1.549   2.489  2.0339  0.8980  0.0120
  136SOL     OW  406   1.188   2.059   0.475  0.5191 -0.2273  0.4275
  136SOL    HW1  407   1.114   2.096   0.535 -0.3089 -0.7367 -2.4484
  136SOL    HW2  408   1.183   1.958   0.467 -1.2754  0.3516  1.4445
  137SOL     OW  409   0.380   1.065   2.209  0.0613  0.6131  0.2245
  137SOL    HW1  410   0.292   1.103   2.253 -1.5644  0.3513 -0.5356
  137SOL    HW2  411   0.425   0.994   2.263  0.7000  2.4974 -1.9197
  138SOL     OW  412   2.446   1.471   0.264 -0.4288 -0.2815 -0.5300
  138SOL    HW1  413   2.351   1.445   0.242 -0.0211  0.6769 -0.6588
  138SOL    HW2  414   2.496   1.391   0.301  0.6933  0.7708  0.6761
  139SOL     OW  415   1.789   2.590   1.224  0.2985  0.7027 -0.1036
  139SOL    HW1  416   1.694   2.552   1.192 -0.8954 -3.5941  0.9873
  139SOL    HW2  417   1.816   2.552   1.315  1.0423  1.2118 -1.4141
  140SOL     OW  418   3.001   2.978   2.538 -0.2797 -0.1522 -0.3683
  140SOL    HW1  419   3.032   2.878   2.538  4.0931 -0.7912 -1.1352
  140SOL    HW2  420   3.087   3.038   2.549 -0.7369 -0.3104  0.2757
  141SOL     OW  421   1.167   1.624   1.568  0.9986  0.5084 -0.3335
  141SOL    HW1  422   1.146   1.709   1.621  1.2441 -2.0448 -0.1578
  141SOL    HW2  423   1.220   1.559   1.623 -3.3014 -0.4068 -1.0957
  142SOL     OW  424   1.550   0.614   2.267 -0.1629  0.0674 -0.2902
  142SOL    HW1  425   1.577   0.608   2.170  1.4399  1.4302  1.0137
  142SOL    HW2  426   1.453   0.585   2.291 -0.5321 -0.7278  1.3425
  143SOL     OW  427   2.780   0.865   0.507 -0.5276 -0.2880 -0.3859
  143SOL    HW1  428   2.808   0.897   0.411  0.6434  0.8003 -0.6245
  143SOL    HW2  429   2.805   0.942   0.572 -0.9882 -0.8790 -1.0701
  144SOL     OW  430   2.981   1.257   1.360 -0.8623  0.0575 -0.2850
  144SOL    HW1  431   2.988   1.245   1.462 -1.3904 -2.5737 -1.2903
  144SOL    HW2  432   3.056   1.203   1.313  1.9718  0.3709  3.2352
  145SOL     OW  433   1.076   1.887   0.081  0.1049  0.2841  0.0711
  145SOL    HW1  434   1.077   1.972   0.018  0.7672  0.5301  1.9840
  145SOL    HW2  435   1.052   1.796   0.031  0.0142 -0.4323 -0.6736
  146SOL     OW  436   2.535   0.653   1.460 -0.2115 -0.5712  0.2126
  146SOL    HW1  437   2.473   0.576   1.446  0.2921  0.8166 -1.9821
  146SOL    HW2  438   2.492   0.742   1.435 -1.5430 -0.1693 -1.6317
  147SOL     OW  439   1.042   2.556   0.609 -0.2227 -0.8907  0.1994
  147SOL    HW1  440   1.030   2.616   0.524 -1.1341 -1.2037  0.5136
  147SOL    HW2  441   1.125   2.500   0.603 -1.8323  0.1341  0.8406
  148SOL     OW  442   1.625   1.439   3.074 -0.0380 -0.0210  0.9803
  148SOL    HW1  443   1.660   1.364   3.014 -0.2415 -0.3513  2.8470
  148SOL    HW2  444   1.580   1.397   3.161 -1.1688 -1.2778 -1.2673
  149SOL     OW  445   0.668   1.407   1.966  0.2047 -0.0524  0.2594
  149SOL    HW1  446   0.577   1.375   2.002 -0.4294  2.2430 -0.4235
  149SOL    HW2  447   0.720   1.332   1.916  0.3707 -0.5391 -0.6547
  150SOL     OW  448   2.976   1.282   0.928  0.1695 -0.4252 -0.3196
  150SOL    HW1  449   3.050   1.335   0.986 -1.9143  2.2908  1.0423
  150SOL    HW2  450   2.980   1.181   0.942  2.6155  0.3117  2.2914
  151SOL     OW  451   0.168   0.766   2.096 -0.0036 -0.0092  0.3942
  151SOL    HW1  452   0.158   0.868   2.081 -0.2552 -1.7690  1.7113
  151SOL    HW2  453   0.257   0.728   2.049  0.7849  0.7817  0.7549
  152SOL     OW  454   1.406   1.756   1.280  0.2273  0.0101 -0.1993
  152SOL    HW1  455   1.428   1.844   1.330 -0.4690 -0.7309 -0.0369
  152SOL    HW2  456   1.324   1.758   1.220 -0.1506  1.2197  2.3602
  153SOL     OW  457   0.080   1.527   0.167  0.1228  0.3886 -0.6943
  153SOL    HW1  458   0.075   1.421   0.169  1.4209  0.9655  0.3404
  153SOL    HW2  459   0.073   1.565   0.262 -0.3065 -3.1922  1.0662
  154SOL     OW  460   2.406   1.934   2.832  0.0600 -0.5389  0.4324
  154SOL    HW1  461   2.397   1.837   2.862  0.8875 -1.7590 -0.6358
  154SOL    HW2  462   2.445   1.946   2.739  1.3469 -1.7319 -0.3206
  155SOL     OW  463   2.517   1.210   0.393 -0.0366  0.0895 -0.4864
  155SOL    HW1  464   2.583   1.217   0.308 -1.3177  0.4013 -0.1700
  155SOL    HW2  465   2.530   1.117   0.440  3.3331  1.7244  0.4994
  156SOL     OW  466   2.539   0.954   0.876  0.0205 -0.5265  0.1274
  156SOL    HW1  467   2.459   1.020   0.857 -2.0970  0.9448 -5.1360
  156SOL    HW2  468   2.626   1.007   0.900  0.0421  0.4265 -0.4640
  157SOL     OW  469   1.325   3.030   3.049 -0.7168  0.3748 -0.7865
  157SOL    HW1  470   1.386   2.969   2.993  1.3710  1.6575  0.1665
  157SOL    HW2  471   1.344   3.130   3.036  1.0662  0.1018 -4.5333
  158SOL     OW  472   1.048   1.900   2.014 -0.0428  0.4338  0.5476
  158SOL    HW1  473   1.102   1.873   2.101 -0.5310 -0.0568  2.3661
  158SOL    HW2  474   0.945   1.898   2.036 -0.1241 -3.6955 -2.9367
  159SOL     OW  475   0.870   0.363   1.317 -0.0815  0.2255 -0.3526
  159SOL    HW1  476   0.841   0.458   1.351 -2.1366  0.5233  2.6450
  159SOL    HW2  477   0.800   0.325   1.252 -3.0796 -0.2147 -0.4296
  160SOL     OW  478   1.470   2.393   1.663  0.4332  0.3662 -0.2236
  160SOL    HW1  479   1.444   2.476   1.601 -0.9493  0.0309  1.5285
  160SOL    HW2  480   1.560   2.349   1.645 -0.3900 -0.6032  0.4884
  161SOL     OW  481   0.119   2.935   0.343  0.2413  0.0102 -0.4309
  161SOL    HW1  482   0.039   2.875   0.359  0.1620 -2.0503  0.0518
  161SOL    HW2  483   0.113   2.990   0.264  2.2651 -2.4187  3.2387
  162SOL     OW  484   2.584   1.891   0.518 -0.3156 -0.0725  0.0499
  162SOL    HW1  485   2.554   1.847   0.427 -4.3558  0.6709  1.3394
  162SOL    HW2  486   2.603   1.817   0.593  0.6592 -1.6319 -1.0200
  163SOL     OW  487   1.979   2.725   0.767 -0.2781 -0.2754  0.0299
  163SOL    HW1  488   1.935   2.747   0.674  0.1050 -0.6154  1.5183
  163SOL    HW2  489   2.043   2.642   0.753 -3.2855  0.0821  0.6669
  164SOL     OW  490   3.074   0.283   1.247 -0.2797  0.1610 -0.3972
  164SOL    HW1  491   3.162   0.272   1.193 -1.6608 -0.2796 -0.9151
  164SOL    HW2  492   3.086   0.305   1.347 -0.3494  3.0262 -2.9369
  165SOL     OW  493   0.981   1.444   0.667  0.1217  0.8249  0.1386
  165SOL    HW1  494   0.906   1.492   0.721  1.7153  0.1803  0.1986
  165SOL    HW2  495   0.981   1.482   0.571 -1.5197 -1.6495 -2.4940
  166SOL     OW  496   1.431   1.044   1.761  0.0719  0.0319 -0.1900
  166SOL    HW1  497   1.342   1.026   1.808  3.8244 -0.1661 -3.0904
  166SOL    HW2  498   1.493   1.096   1.823 -1.7822  0.7865 -0.6519
  167SOL     OW  499   0.882   1.902   1.556  0.1140  0.5952 -0.1173
  167SOL    HW1  500   0.866   1.978   1.623  0.1029 -0.3634  1.0382
  167SOL    HW2  501   0.799   1.843   1.538 -0.4538  1.1805 -0.4222
  168SOL     OW  502   1.502   2.368   0.136  0.2720 -0.0586  0.2615
  168SOL    HW1  503   1.580   2.415   0.084  0.1481  1.5850 -1.4211
  168SOL    HW2  504   1.533   2.331   0.229  2.2950  2.5884  1.2716
  169SOL     OW  505   0.177   2.572   2.177  0.1208 -0.0197 -0.1367
  169SOL    HW1  506   0.246   2.512   2.127  1.3448 -1.8646  1.4937
  169SOL    HW2  507   0.121   2.521   2.245  1.9668  1.3829  2.4620
  170SOL     OW  508   1.261   0.300   1.882  0.0019 -0.1381  0.2578
  170SOL    HW1  509   1.308   0.272   1.973 -0.2875  1.1582  1.3234
  170SOL    HW2  510   1.213   0.220   1.841 -1.4525  3.1229  1.3470
  171SOL     OW  511   0.266   0.808   2.430 -0.2978 -0.3876  0.3768
  171SOL    HW1  512   0.171   0.821   2.461  3.3835 -2.3827 -1.2853
  171SOL    HW2  513   0.268   0.783   2.328  1.3061  1.8924 -1.0072
  172SOL     OW  514   0.910   1.124   2.925 -0.1853  0.1929  0.1588
  172SOL    HW1  515   1.008   1.134   2.951  0.8513  1.1437  1.8150
  172SOL    HW2  516   0.895   1.084   2.835 -0.4548 -1.5443  2.3420
  173SOL     OW  517   0.672   2.709   0.151  0.2339 -0.0756  0.0835
  173SOL    HW1  518   0.677   2.813   0.148  1.1985  1.0609  1.7639
  173SOL    HW2  519   0.577   2.673   0.133 -1.2006 -0.3344 -0.9129
  174SOL     OW  520   1.340   2.757   1.042  0.4960  0.3585 -0.0646
  174SOL    HW1  521   1.316   2.847   0.995 -0.0388  0.7648 -0.6050
  174SOL    HW2  522   1.284   2.673   1.004 -1.6116 -0.8621 -0.5982
  175SOL     OW  523   0.367   0.006   1.703  0.1752 -0.5055 -0.4847
  175SOL    HW1  524   0.436   0.056   1.761 -1.1592  1.7583  0.8124
  175SOL    HW2  525   0.314   0.076   1.647 -0.2711 -1.2020  1.5885
  176SOL     OW  526   2.576   0.368   3.049 -0.5348  0.0402 -0.1390
  176SOL    HW1  527   2.566   0.444   3.120  0.2468 -0.7664  0.7140
  176SOL    HW2  528   2.516   0.293   3.085  0.2223  1.3174 -1.8964
  177SOL     OW  529   0.380   0.396   0.889  0.0114  0.5757  0.3944
  177SOL    HW1  530   0.438   0.343   0.956 -0.4773  0.0181  0.9162
  177SOL    HW2  531   0.308   0.448   0.941 -0.0462  2.0697  1.0943
  178SOL     OW  532   3.075   2.718   2.607  0.3437  0.7796 -0.5832
  178SOL    HW1  533   2.990   2.699   2.666  1.2002 -0.2523  3.0961
  178SOL    HW2  534   3.168   2.720   2.656  0.4071  1.2770 -1.7079
  179SOL     OW  535   0.018   1.707   1.158  0.0176 -0.5564 -0.1438
  179SOL    HW1  536  -0.052   1.781   1.158 -1.8110  0.1848 -2.6318
  179SOL    HW2  537   0.020   1.637   1.240  2.2511  0.4270  2.2542
  180SOL     OW  538   0.189   1.249   1.838 -0.3460 -0.2000  0.0273
  180SOL    HW1  539   0.295   1.249   1.811  1.7443  0.2427 -2.5862
  180SOL    HW2  540   0.173   1.338   1.884 -1.9620  1.7525 -0.3951
  181SOL     OW  541   2.992   1.817   2.532  0.3233  0.2503  0.1866
  181SOL    HW1  542   3.087   1.833   2.501  1.4054  0.2721 -2.1003
  181SOL    HW2  543   2.931   1.897   2.489 -2.6550 -2.5564  2.6317
  182SOL     OW  544   2.314   1.237   1.234  0.4945  0.4175 -0.7147
  182SOL    HW1  545   2.248   1.188   1.166 -0.5795 -0.2839 -3.2365
  182SOL    HW2  546   2.331   1.339   1.209 -1.5553  1.4418  1.0092
  183SOL     OW  547   1.501   2.250   2.513 -0.7337 -0.1593  0.4540
  183SOL    HW1  548   1.408   2.214   2.540 -1.6562  1.6412  3.4991
  183SOL    HW2  549   1.579   2.182   2.506 -0.5073  2.5144 -0.5469
  184SOL     OW  550   2.059   0.921   0.754  0.2385  0.1971  0.1877
  184SOL    HW1  551   1.971   0.981   0.776 -0.1839 -0.1792 -0.3520
  184SOL    HW2  552   2.047   0.829   0.802  1.4690  1.1285 -2.9650
  185SOL     OW  553   1.676   2.735   2.103 -0.3104 -0.1519 -0.1170
  185SOL    HW1  554   1.605   2.804   2.076  0.9187  1.3794  0.5188
  185SOL    HW2  555   1.674   2.716   2.207 -0.6800  0.9133 -0.9962
  186SOL     OW  556   0.112   2.244   1.744 -0.4311 -0.2781  0.4468
  186SOL    HW1  557   0.152   2.339   1.724  1.4431 -1.4520  0.6138
  186SOL    HW2  558   0.184   2.173   1.733 -2.0727 -0.8491 -0.4627
  187SOL     OW  559   1.418   0.660   1.709  0.4768  0.0155 -0.2549
  187SOL    HW1  560   1.480   0.729   1.658 -1.4383 -0.6358  0.6864
  187SOL    HW2  561   1.390   0.698   1.805  1.2246 -0.3615  0.7516
  188SOL     OW  562   2.748   2.757   1.528 -0.6539  0.3784  0.3437
  188SOL    HW1  563   2.724   2.850   1.490  3.2165  0.5946 -2.1020
  188SOL    HW2  564   2.732   2.680   1.461  3.6718  1.7892 -0.7600
  189SOL     OW  565   0.758   0.997   1.480  0.1259 -0.0778 -0.2564
  189SOL    HW1  566   0.830   1.069   1.469 -1.0807  0.9825 -0.5968
  189SOL    HW2  567   0.744   0.941   1.393 -0.2263 -0.1801  2.2157
  190SOL     OW  568   1.462   1.719   1.635  0.2414 -0.4413 -0.3253
  190SOL    HW1  569   1.365   1.748   1.613 -2.1910 -2.8477 -1.6198
  190SOL    HW2  570   1.508   1.781   1.701 -0.1896  2.1337 -1.0845
  191SOL     OW  571   1.014   0.804   1.542 -0.2281 -0.1157  0.1028
  191SOL    HW1  572   1.053   0.733   1.611  0.2420 -0.3880  1.2292
  191SOL    HW2  573   1.088   0.870   1.503 -2.2689  2.6210  0.3983
  192SOL     OW  574   1.877   2.266   1.228 -0.4169  0.4249  0.0769
  192SOL    HW1  575   1.795   2.253   1.168 -1.8272  0.4648 -2.5491
  192SOL    HW2  576   1.958   2.297   1.172  0.0981  0.0540 -0.5931
  193SOL     OW  577   0.527   0.562   0.320  0.1399  0.1006  0.0898
  193SOL    HW1  578   0.507   0.484   0.384 -0.0124 -0.5416  2.8040
  193SOL    HW2  579   0.541   0.528   0.221  0.8289 -0.3535  1.0682
  194SOL     OW  580   0.284   0.846   1.269 -0.3523  0.0022 -0.1307
  194SOL    HW1  581   0.204   0.786   1.251 -0.5695  1.3783 -1.7603
  194SOL    HW2  582   0.309   0.900   1.184 -2.3879  0.7517  0.4945
  195SOL     OW  583   0.949   2.944   0.480  0.0150  0.4672  0.0075
  195SOL    HW1  584   0.938   2.853   0.434 -1.4789 -0.6763 -1.6456
  195SOL    HW2  585   1.047   2.983   0.471  2.8466  0.9362 -0.1719
  196SOL     OW  586   0.267   1.431   1.386  0.5667 -0.2214  0.0278
  196SOL    HW1  587   0.327   1.508   1.420  1.0143 -1.1445 -0.3060
  196SOL    HW2  588   0.255   1.355   1.459  0.6611  1.4180  1.5337
  197SOL     OW  589   0.852   2.003   0.198  0.7164 -0.2048  0.2910
  197SOL    HW1  590   0.865   1.985   0.299  2.5744 -0.1147  1.0479
  197SOL    HW2  591   0.926   1.959   0.139  0.4184  2.1210  0.8577
  198SOL     OW  592   0.281   1.219   0.242  0.2683 -0.0662 -0.2542
  198SOL    HW1  593   0.181   1.209   0.210  1.2239 -1.1686  1.0702
  198SOL    HW2  594   0.316   1.320   0.232 -0.6029  2.4232 -0.7132
  199SOL     OW  595   2.268   0.394   2.525 -0.4330  0.4139  0.1878
  199SOL    HW1  596   2.202   0.337   2.582 -1.2578 -1.9357 -1.2041
  199SOL    HW2  597   2.365   0.379   2.546 -2.3087 -2.5666  1.0196
  200SOL     OW  598   3.093   2.876   0.789  0.0507 -0.2104 -0.3594
  200SOL    HW1  599   3.016   2.904   0.733  0.4174  1.6547  1.7722
  200SOL    HW2  600   3.146   2.960   0.821 -0.6090  1.3678 -0.8539
  201SOL     OW  601   1.144   0.694   0.535  0.0993  0.4458 -0.0401
  201SOL    HW1  602   1.147   0.793   0.562  1.2165 -3.0322 -0.9130
  201SOL    HW2  603   1.046   0.656   0.526 -0.0423  1.2698  0.0760
  202SOL     OW  604   0.442   1.239   1.751  0.4695  0.9875 -0.7593
  202SOL    HW1  605   0.495   1.236   1.658 -1.8289  0.2383 -0.3323
  202SOL    HW2  606   0.476   1.165   1.809  0.0714  0.0075 -4.2347
  203SOL     OW  607   0.631   0.236   1.514  0.6222 -0.1833 -0.1941
  203SOL    HW1  608   0.654   0.188   1.425  1.5401  2.6155 -0.8237
  203SOL    HW2  609   0.666   0.194   1.602  1.6735  3.1935  3.4201
  204SOL     OW  610   2.081   1.876   3.031  0.2973  0.0863  0.4448
  204SOL    HW1  611   2.101   1.780   2.995 -0.9942  1.3618 -2.6181
  204SOL    HW2  612   2.040   1.930   2.951  1.5106 -1.4219 -0.7449
  205SOL     OW  613   1.852   1.853   0.103 -0.0373 -0.0792 -0.2399
  205SOL    HW1  614   1.926   1.836   0.032 -1.0816  1.2000  3.4554
  205SOL    HW2  615   1.791   1.929   0.076  0.7600 -0.6655  0.4302
  206SOL     OW  616   2.510   2.822   0.403  0.6777 -0.1423  0.6094
  206SOL    HW1  617   2.572   2.744   0.430 -0.1571 -0.9160 -0.2502
  206SOL    HW2  618   2.545   2.871   0.322 -2.6740 -1.1313  1.3982
  207SOL     OW  619   0.573   1.723   2.866  0.6563  0.0719 -0.0626
  207SOL    HW1  620   0.665   1.690   2.841 -0.1904  1.5835 -2.0586
  207SOL    HW2  621   0.527   1.661   2.937  2.0770  0.5109  2.4346
  208SOL     OW  622   1.011   1.460   1.414 -0.6422 -0.1284  0.5137
  208SOL    HW1  623   0.933   1.502   1.354  0.1949 -0.8456  0.1276
  208SOL    HW2  624   1.076   1.531   1.457 -0.9608  0.4042  0.1846
  209SOL     OW  625   0.158   0.931   3.070  0.4415 -0.0318 -0.6066
  209SOL    HW1  626   0.207   0.884   2.993  2.7714 -0.1078  1.8920
  209SOL    HW2  627   0.162   0.871   3.158 -0.0083 -0.8433  0.7443
  210SOL     OW  628   1.709   0.488   1.144  0.0105  0.4719  0.0347
  210SOL    HW1  629   1.646   0.559   1.111 -0.3214 -0.4188 -2.0156
  210SOL    HW2  630   1.811   0.520   1.135  1.2259  1.9689 -0.4343
  211SOL     OW  631   2.108   1.029   1.681 -0.3164 -0.1011 -0.0387
  211SOL    HW1  632   2.186   0.992   1.740 -1.2610 -1.5458 -1.7913
  211SOL    HW2  633   2.152   1.082   1.608  4.1216  1.0604  1.2814
  212SOL     OW  634   0.029   1.020   1.451 -0.2719 -0.1296  0.1478
  212SOL    HW1  635   0.073   1.108   1.482  1.8752  0.3427 -0.2716
  212SOL    HW2  636   0.026   0.941   1.520  0.4849 -0.0096  0.1188
  213SOL     OW  637   2.698   0.318   0.254 -0.3057  0.2086  0.0698
  213SOL    HW1  638   2.780   0.257   0.227  0.9337  0.4189  0.6414
  213SOL    HW2  639   2.662   0.382   0.182  0.8192  2.6420 -2.2324
  214SOL     OW  640   2.188   0.270   2.284  0.1725 -0.1435 -0.1761
  214SOL    HW1  641   2.215   0.313   2.371  0.4233 -0.4807 -2.4088
  214SOL    HW2  642   2.118   0.192   2.292  0.9030 -0.7433 -0.1632
  215SOL     OW  643   1.660   2.312   2.062 -0.3600  0.3501  0.4826
  215SOL    HW1  644   1.765   2.314   2.057 -0.3499 -0.2847  2.1819
  215SOL    HW2  645   1.611   2.346   2.146  0.6923 -0.0649 -0.4306
  216SOL     OW  646   2.243   0.526   0.642  0.1431  0.6884  0.0617
  216SOL    HW1  647   2.207   0.459   0.569 -2.3550 -0.1103 -2.5837
  216SOL    HW2  648   2.245   0.620   0.606  0.8233 -0.8206  1.8516
  217SOL     OW  649   0.761   2.807   2.417  0.2754 -0.4292  0.1828
  217SOL    HW1  650   0.748   2.715   2.452 -1.1078  0.9433 -1.4571
  217SOL    HW2  651   0.749   2.819   2.315  1.8305  0.9392  0.8276
  218SOL     OW  652   1.924   1.448   0.058  0.0917  0.1015  0.5236
  218SOL    HW1  653   1.822   1.475   0.039 -0.4163 -0.3619  0.5758
  218SOL    HW2  654   1.940   1.344   0.083  0.6809 -1.8511 -0.1977
  219SOL     OW  655   2.383   1.322   2.558 -0.1440  0.2998 -0.3078
  219SOL    HW1  656   2.475   1.311   2.509 -2.3606  1.2791  1.7234
  219SOL    HW2  657   2.379   1.274   2.649  1.0879 -0.0630  0.8919
  220SOL     OW  658   1.419   1.043   1.266  0.2878  0.1788  0.1164
  220SOL    HW1  659   1.524   1.039   1.244  2.0856 -1.4581  1.1358
  220SOL    HW2  660   1.379   1.133   1.228 -0.3641  0.9602 -2.6115
  221SOL     OW  661   1.299   1.167   2.137 -0.2228  0.3471  0.1588
  221SOL    HW1  662   1.263   1.242   2.072 -0.9839  0.5628 -0.3449
  221SOL    HW2  663   1.380   1.114   2.100 -0.3771  1.0024  0.5615
  222SOL     OW  664   1.278   0.087   1.143  0.0803 -0.4941 -0.3446
  222SOL    HW1  665   1.373   0.051   1.124  1.2003 -0.8995  3.7566
  222SOL    HW2  666   1.278   0.170   1.202 -0.4072  0.6703 -0.8476
  223SOL     OW  667   2.901   0.803   1.971 -0.0276  0.2856 -0.5778
  223SOL    HW1  668   2.902   0.818   2.074 -0.5174 -1.5543 -1.1332
  223SOL    HW2  669   2.913   0.894   1.921 -2.6401  0.1749  0.4069
  224SOL     OW  670   1.565   0.998   2.788 -0.2078 -0.5921 -0.0210
  224SOL    HW1  671   1.560   0.929   2.703 -3.2748  0.1424 -0.0370
  224SOL    HW2  672   1.565   1.095   2.756 -0.2034 -1.0141  2.1256
  225SOL     OW  673   2.991   2.799   2.923 -0.2335  0.0049 -0.2163
  225SOL    HW1  674   2.953   2.726   2.861  2.7108  0.4964 -1.7241
  225SOL    HW2  675   3.037   2.879   2.870 -3.0865 -0.9285 -2.4589
  226SOL     OW  676   2.452   1.653   2.861 -0.0354 -0.5920  0.3109
  226SOL    HW1  677   2.499   1.607   2.780  0.9354 -2.6888  0.1355
  226SOL    HW2  678   2.428   1.597   2.942 -1.2139 -0.4806  0.8583
  227SOL     OW  679   0.798   0.134   2.977 -0.1821 -0.1389  0.1124
  227SOL    HW1  680   0.840   0.081   3.057  1.9449  1.5728  1.6007
  227SOL    HW2  681   0.837   0.107   2.883  1.8052  0.5807  2.3451
  228SOL     OW  682   2.359   0.570   2.794  0.2920  0.2370  0.2136
  228SOL    HW1  683   2.322   0.606   2.703 -0.9560 -3.9817 -1.6103
  228SOL    HW2  684   2.444   0.510   2.781 -2.4061 -0.1843  0.1359
  229SOL     OW  685   0.589   0.500   1.872 -0.2324  0.0277 -0.2334
  229SOL    HW1  686   0.614   0.487   1.773  2.7100  2.0416 -2.9100
  229SOL    HW2  687   0.652   0.552   1.934 -0.3399 -1.8822 -0.4585
  230SOL     OW  688   1.919   1.244   2.150 -0.2553  0.0803  0.3432
  230SOL    HW1  689   1.993   1.298   2.101 -0.2995  1.7364 -2.0438
  230SOL    HW2  690   1.824   1.282   2.129  1.1983  3.7304  1.3560
  231SOL     OW  691   0.631   1.035   2.951  0.4381 -0.5419  0.0006
  231SOL    HW1  692   0.734   1.057   2.961 -2.3559  2.2066 -0.1877
  231SOL    HW2  693   0.575   1.058   3.036  2.1855  0.5763 -0.8798
  232SOL     OW  694   2.537   0.047   2.752 -0.1894  0.2612  0.1084
  232SOL    HW1  695   2.579  -0.030   2.803 -0.0678  0.9888  1.9608
  232SOL    HW2  696   2.518   0.025   2.653 -3.8290 -1.2811  0.5965
  233SOL     OW  697   1.736   1.274   1.049 -0.3572 -0.0008 -0.1455
  233SOL    HW1  698   1.745   1.333   0.967  2.5952  0.9908  0.7664
  233SOL    HW2  699   1.771   1.175   1.041  0.3075 -0.1127  2.0854
  234SOL     OW  700   1.623   2.641   1.848 -0.0166 -0.1686 -0.4224
  234SOL    HW1  701   1.641   2.656   1.947 -0.6852 -0.2123 -0.6973
  234SOL    HW2  702   1.552   2.572   1.830 -0.5315  1.7717  0.6793
  235SOL     OW  703   0.043   3.000   2.827  0.4299  0.0714  0.4834
  235SOL    HW1  704   0.119   3.066   2.794  1.9699  0.1614  1.6073
  235SOL    HW2  705  -0.021   3.053   2.887 -0.2348  0.2644  0.6024
  236SOL     OW  706   2.813   0.708   0.039 -0.2709  0.0381  0.2062
  236SOL    HW1  707   2.876   0.754   0.114  0.6868  3.1535 -0.1984
  236SOL    HW2  708   2.844   0.613   0.010 -0.1514  0.6062 -0.2756
  237SOL     OW  709   1.496   1.646   1.026  0.0995 -0.6995 -0.1627
  237SOL    HW1  710   1.594   1.616   1.045 -0.5693  1.4817  1.9011
  237SOL    HW2  711   1.460   1.706   1.102 -2.5834  1.0731  0.8482
  238SOL     OW  712   1.767   1.357   0.761  0.0390  0.2059 -0.2069
  238SOL    HW1  713   1.852   1.356   0.701 -1.2671 -3.2057 -0.4014
  238SOL    HW2  714   1.699   1.432   0.744 -1.2301  0.5743 -1.5487
  239SOL     OW  715   2.111   0.257   2.717 -0.3331 -0.5463 -0.0927
  239SOL    HW1  716   2.202   0.272   2.762 -1.5416 -2.0953  0.5419
  239SOL    HW2  717   2.039   0.309   2.766 -0.3921 -1.2009  1.6432
  240SOL     OW  718   0.856   0.694   0.204 -0.0792  0.3331  0.2637
  240SOL    HW1  719   0.863   0.621   0.132 -0.8765 -1.7847  0.4996
  240SOL    HW2  720   0.844   0.667   0.305 -1.1882 -0.3866 -1.6187
  241SOL     OW  721   0.573   0.027   0.307  0.0559 -0.3050 -0.3280
  241SOL    HW1  722   0.619  -0.033   0.229  0.0527  1.2193 -0.7897
  241SOL    HW2  723   0.530  -0.028   0.377 -1.9856 -0.8008 -0.0028
  242SOL     OW  724   0.693   2.398   1.105 -0.0729  0.2813  0.5003
  242SOL    HW1  725   0.676   2.473   1.173 -1.8027 -2.3440 -1.5033
  242SOL    HW2  726   0.781   2.408   1.054  0.0715  0.0528 -0.6813
  243SOL     OW  727   1.081   0.612   2.449 -0.1598  0.3003 -1.1018
  243SOL    HW1  728   1.005   0.674   2.414  1.2781  0.1954  1.5723
  243SOL    HW2  729   1.040   0.524   2.492  1.0289  1.3101  1.1461
  244SOL     OW  730   2.786   1.944   2.386 -0.8690 -0.6059  0.5745
  244SOL    HW1  731   2.831   1.970   2.296 -0.4762 -0.8980 -0.6282
  244SOL    HW2  732   2.722   1.867   2.376  1.0673  1.7844  2.0366
  245SOL     OW  733   2.461   0.742   2.163 -0.1662  0.4778 -0.5239
  245SOL    HW1  734   2.462   0.792   2.254  2.4643 -1.2179  0.8251
  245SOL    HW2  735   2.557   0.718   2.128  0.6567 -2.5967 -2.4828
  246SOL     OW  736   0.212   2.877   1.731  0.1930  0.1359 -0.0713
  246SOL    HW1  737   0.167   2.855   1.638  1.1679  2.4760 -0.3796
  246SOL    HW2  738   0.285   2.949   1.723  0.6106  0.5488 -1.7898
  247SOL     OW  739   2.192   0.529   3.000  0.0469  0.1661 -0.2813
  247SOL    HW1  740   2.265   0.543   2.927 -0.0155  0.7861  1.5849
  247SOL    HW2  741   2.147   0.618   3.034 -3.5945  0.3257  1.4150
  248SOL     OW  742   2.178   1.902   1.629  0.2231 -0.1955  0.5308
  248SOL    HW1  743   2.234   1.819   1.659 -0.3196 -1.5532  1.3224
  248SOL    HW2  744   2.077   1.889   1.648  0.1370  1.0773  1.2924
  249SOL     OW  745   1.996   1.920   1.943 -0.2352  0.0875 -0.0849
  249SOL    HW1  746   1.982   1.855   1.862 -3.4083 -1.4920  1.8894
  249SOL    HW2  747   2.095   1.957   1.955  1.2548  0.9088 -1.1212
  250SOL     OW  748   0.998   0.636   1.874 -0.3732 -0.3447  0.2043
  250SOL    HW1  749   1.065   0.589   1.942  2.4408  0.7678  2.1121
  250SOL    HW2  750   0.994   0.594   1.782  1.4387  0.7662  0.0013
  251SOL     OW  751   3.013   1.551   2.569  0.0771  0.0339  0.1352
  251SOL    HW1  752   3.008   1.655   2.553  0.9223  1.4451 -0.1682
  251SOL    HW2  753   2.921   1.508   2.591 -0.3437 -0.6011  1.5998
  252SOL     OW  754   1.548   0.888   1.586 -0.0425  0.4324 -0.3266
  252SOL    HW1  755   1.626   0.938   1.539 -2.2352  0.8515 -0.1843
  252SOL    HW2  756   1.492   0.948   1.654 -0.3036 -1.0360  1.8596
  253SOL     OW  757   0.994   1.518   0.385  0.0203 -0.3807  0.0874
  253SOL    HW1  758   1.035   1.452   0.325 -3.5650 -0.8510  0.6822
  253SOL    HW2  759   0.889   1.497   0.379  1.2441 -0.3039 -2.9152
  254SOL     OW  760   1.990   2.150   1.599  0.1826  0.2059  0.0516
  254SOL    HW1  761   1.937   2.107   1.518 -1.1641  0.4946 -0.8685
  254SOL    HW2  762   1.945   2.133   1.688  2.2339 -0.5069  1.2105
  255SOL     OW  763   0.094   1.157   2.888 -0.8787  0.2018 -0.5311
  255SOL    HW1  764   0.160   1.232   2.896 -3.1671 -0.6076  4.2433
  255SOL    HW2  765   0.116   1.077   2.951  0.8861 -1.2183  0.7528
  256SOL     OW  766   2.750   1.324   1.864  0.8874  0.3708  0.0841
  256SOL    HW1  767   2.692   1.394   1.817  0.8919  2.9743  0.0974
  256SOL    HW2  768   2.693   1.251   1.909  2.0863  1.1330 -0.4047
  257SOL     OW  769   0.840   0.238   1.889  0.3576 -0.1100  0.4241
  257SOL    HW1  770   0.889   0.286   1.810  0.3327 -0.2279  1.4015
  257SOL    HW2  771   0.883   0.151   1.920 -0.9527  0.4059  1.4064
  258SOL     OW  772   2.951   1.247   0.416  0.1408 -0.0027  0.0765
  258SOL    HW1  773   2.907   1.337   0.391  0.1027  0.2778 -0.0922
  258SOL    HW2  774   2.978   1.244   0.511 -0.8049 -0.3280 -2.4923
  259SOL     OW  775   0.501   2.894   2.994 -0.4470  0.5566  0.1537
  259SOL    HW1  776   0.427   2.847   3.051  0.4957  1.0902 -0.2943
  259SOL    HW2  777   0.534   2.843   2.909 -1.9802  1.4074  1.8107
  260SOL     OW  778   2.642   0.721   2.731 -0.0621 -0.6036  0.8275
  260SOL    HW1  779   2.557   0.778   2.731  1.3084  2.0425 -0.3989
  260SOL    HW2  780   2.631   0.621   2.755 -2.0639  0.0633  1.2048
  261SOL     OW  781   2.705   1.318   1.300  0.2926  0.3467  0.0280
  261SOL    HW1  782   2.646   1.243   1.257 -0.6927 -1.1946  1.1531
  261SOL    HW2  783   2.801   1.286   1.316 -0.0115 -0.2306 -0.3692
  262SOL     OW  784   1.476   2.931   2.033 -0.1339 -0.2201  0.0802
  262SOL    HW1  785   1.511   3.012   1.976 -1.7665  0.0110  0.5026
  262SOL    HW2  786   1.390   2.888   1.999  1.4084 -1.6352 -1.6097
  263SOL     OW  787   0.862   0.762   2.351  0.6665  0.8680 -0.2185
  263SOL    HW1  788   0.807   0.685   2.310  1.3309  1.8456  3.6609
  263SOL    HW2  789   0.896   0.831   2.281 -1.9373  0.8012  0.5708
  264SOL     OW  790   2.269   0.764   0.519 -0.1112 -0.4487  0.0872
  264SOL    HW1  791   2.180   0.804   0.495 -0.1378 -1.3628 -0.1863
  264SOL    HW2  792   2.339   0.841   0.506  1.9665  1.4867  0.5516
  265SOL     OW  793   0.856   2.332   2.703 -0.1037  0.2326  0.1466
  265SOL    HW1  794   0.892   2.402   2.770 -1.1695 -1.3459  0.6934
  265SOL    HW2  795   0.817   2.248   2.757 -0.3083 -2.8784  2.6830
  266SOL     OW  796   1.324   1.731   0.027  0.5677  0.2153  0.3408
  266SOL    HW1  797   1.286   1.814   0.076  2.2440 -1.4718 -1.1083
  266SOL    HW2  798   1.429   1.723   0.026 -1.2028 -3.8810 -1.6185
  267SOL     OW  799   1.082   0.032   2.337 -0.6662  0.2507  0.3094
  267SOL    HW1  800   1.089  -0.047   2.270  2.6409 -1.7242  1.3107
  267SOL    HW2  801   1.016   0.109   2.314 -0.6193  0.6918 -1.0682
  268SOL     OW  802   0.598   1.125   1.059  0.4928 -0.0153 -0.6799
  268SOL    HW1  803   0.620   1.168   1.146 -0.8913 -0.0617 -1.7717
  268SOL    HW2  804   0.610   1.193   0.980  2.4103 -1.7460 -3.4743
  269SOL     OW  805   2.465   2.564   1.575  0.0325  0.1250 -0.0911
  269SOL    HW1  806   2.535   2.487   1.573 -0.1474 -0.6587  0.2749
  269SOL    HW2  807   2.398   2.556   1.651  0.2369 -0.8823  1.6627
  270SOL     OW  808   0.262   2.796   2.029 -0.9817  0.7823  0.1396
  270SOL    HW1  809   0.231   2.817   1.933  0.5446 -0.9915 -0.7456
  270SOL    HW2  810   0.205   2.721   2.074 -2.2292  2.0591  2.5938
  271SOL     OW  811   0.410   1.382   1.160 -0.2076  0.2291  0.3106
  271SOL    HW1  812   0.370   1.388   1.061 -0.4693  0.2439  0.4390
  271SOL    HW2  813   0.350   1.383   1.240  1.4579  2.7430 -1.9866
  272SOL     OW  814   1.974   2.854   1.917 -0.4697  0.2471 -0.1655
  272SOL    HW1  815   1.908   2.829   1.846 -0.4726  0.2831  2.4534
  272SOL    HW2  816   2.053   2.911   1.877  1.5632 -1.7119 -1.1384
  273SOL     OW  817   1.407   1.451   2.867  0.1852  0.1158 -0.3320
  273SOL    HW1  818   1.496   1.456   2.920 -0.6558 -0.6979 -1.6266
  273SOL    HW2  819   1.322   1.446   2.927  1.2739 -0.3934  0.6789
  274SOL     OW  820   1.161   0.490   2.043  0.4162  0.3748 -0.4017
  274SOL    HW1  821   1.215   0.435   1.964 -0.0634 -2.7871 -0.4343
  274SOL    HW2  822   1.210   0.487   2.132 -0.6773 -1.6392  1.4208
  275SOL     OW  823   0.638   2.078   1.923 -0.3853 -0.0360  0.0912
  275SOL    HW1  824   0.633   2.182   1.937 -0.0627 -2.3983  1.1953
  275SOL    HW2  825   0.563   2.024   1.965  2.2571  0.1553 -0.3026
  276SOL     OW  826   2.157   0.995   2.794  0.4293  0.0935  0.3057
  276SOL    HW1  827   2.093   0.975   2.716  1.8927  1.6089  0.3407
  276SOL    HW2  828   2.114   0.978   2.885 -2.1641 -0.9108  1.6279
  277SOL     OW  829   2.992   0.821   0.204  0.3183  0.0336 -0.2280
  277SOL    HW1  830   3.079   0.857   0.157  1.0843 -0.2337  1.9828
  277SOL    HW2  831   3.033   0.756   0.274 -0.7748 -0.2607 -0.2692
  278SOL     OW  832   0.199   0.275   2.926  0.1581  0.0044  0.1642
  278SOL    HW1  833   0.241   0.240   3.011 -2.6899 -3.1886 -1.8691
  278SOL    HW2  834   0.212   0.380   2.911 -1.1511 -1.1221  0.2327
  279SOL     OW  835   0.144   3.090   0.878  0.4424 -0.3484  0.0702
  279SOL    HW1  836   0.159   3.114   0.979 -0.3494 -0.3653  0.6727
  279SOL    HW2  837   0.220   3.114   0.814 -1.1662  0.9307 -1.4651
  280SOL     OW  838   1.646   2.932   2.509 -0.0188  0.4828  0.4278
  280SOL    HW1  839   1.713   3.006   2.540 -3.1900 -0.0694 -0.1382
  280SOL    HW2  840   1.555   2.977   2.505  3.0053 -3.0166 -2.3538
  281SOL     OW  841   0.635   0.942   2.340  0.1836 -1.0471  0.6347
  281SOL    HW1  842   0.583   0.888   2.271 -0.7363 -0.5162 -0.0486
  281SOL    HW2  843   0.695   0.887   2.401 -0.4798 -0.1434  0.1448
  282SOL     OW  844   1.635   2.479   0.555 -0.0235 -0.0019  0.2086
  282SOL    HW1  845   1.617   2.413   0.475  1.5736 -0.1811  0.1293
  282SOL    HW2  846   1.624   2.576   0.526  0.7300 -1.6840 -0.8685
  283SOL     OW  847   1.136   0.937   0.701  0.8799  0.3092 -0.1607
  283SOL    HW1  848   1.169   0.872   0.772 -1.7687  2.8658 -0.2506
  283SOL    HW2  849   1.061   0.998   0.738 -1.9332  1.8859 -0.9914
  284SOL     OW  850   2.264   2.819   2.410  0.4229 -0.1829  0.0352
  284SOL    HW1  851   2.333   2.875   2.459 -1.2483 -2.9534 -1.8692
  284SOL    HW2  852   2.286   2.811   2.312 -0.0968 -0.7545 -0.4404
  285SOL     OW  853   1.406   3.057   2.543 -0.0174 -0.0907 -0.1758
  285SOL    HW1  854   1.411   3.068   2.442  0.8188  0.7673  1.1833
  285SOL    HW2  855   1.315   3.100   2.578 -0.5185  3.2108  0.3929
  286SOL     OW  856   0.421   0.495   0.639  0.0212 -0.3811  0.2474
  286SOL    HW1  857   0.397   0.446   0.731  0.9496  1.5059  0.5302
  286SOL    HW2  858   0.439   0.424   0.562 -0.4246  1.3281 -1.4588
  287SOL     OW  859   0.077   1.339   2.515 -0.2477  0.0799 -0.0996
  287SOL    HW1  860   0.040   1.252   2.558  1.1721  2.5660  0.6841
  287SOL    HW2  861   0.014   1.422   2.535 -0.6374  1.3025  0.1520
  288SOL     OW  862   1.584   2.618   1.463 -0.5690  0.6839  0.2139
  288SOL    HW1  863   1.685   2.640   1.496  2.5946  1.2417  2.8032
  288SOL    HW2  864   1.575   2.582   1.363  2.8262 -0.2264  2.7355
  289SOL     OW  865   0.669   2.722   0.824  0.5376 -0.1696 -0.2904
  289SOL    HW1  866   0.675   2.790   0.744 -0.2654  0.0329  0.7009
  289SOL    HW2  867   0.693   2.760   0.917  3.4582 -2.3838 -0.4055
  290SOL     OW  868   2.969   1.229   1.671 -0.1351  0.1937 -0.4786
  290SOL    HW1  869   2.887   1.265   1.716 -0.5681 -0.4698 -0.7741
  290SOL    HW2  870   2.993   1.134   1.708  2.0098 -2.4877 -2.1026
  291SOL     OW  871   1.968   0.048   0.062  0.1251 -0.1057  0.1742
  291SOL    HW1  872   1.997   0.041   0.163  0.0882  0.4355 -0.3408
  291SOL    HW2  873   2.011   0.128   0.009  2.3335  0.3258  0.4743
  292SOL     OW  874   2.969   1.170   3.057  0.0110  0.4916 -0.3487
  292SOL    HW1  875   2.886   1.199   3.003  0.6081  1.7083  0.5039
  292SOL    HW2  876   3.051   1.145   2.997  0.0997  0.2488 -1.6428
  293SOL     OW  877   0.575   2.057   0.162 -0.1305  0.0755 -0.4283
  293SOL    HW1  878   0.543   2.106   0.251 -0.4746  0.2194  0.6223
  293SOL    HW2  879   0.680   2.038   0.154 -0.3104 -0.3060  0.1540
  294SOL     OW  880   1.683   2.135   1.842  0.0768  0.3090 -0.1876
  294SOL    HW1  881   1.678   2.193   1.927  1.5484 -0.0186 -1.1574
  294SOL    HW2  882   1.711   2.185   1.751  0.2559 -0.2466 -0.7382
  295SOL     OW  883   0.947   1.172   0.411 -0.4606 -1.1762 -0.0760
  295SOL    HW1  884   1.044   1.158   0.438  1.5190  1.4216  1.4854
  295SOL    HW2  885   0.888   1.132   0.480  0.0998  2.2705 -0.0333
  296SOL     OW  886   1.279   2.079   2.537  0.0377 -0.3220 -0.1511
  296SOL    HW1  887   1.248   2.124   2.448 -1.0392 -0.3007  1.8208
  296SOL    HW2  888   1.293   1.983   2.513  2.5392  0.5896  0.0931
  297SOL     OW  889   1.523   0.705   1.343 -0.0210 -0.1715  0.3123
  297SOL    HW1  890   1.595   0.630   1.347  1.4067  0.7292 -2.0862
  297SOL    HW2  891   1.534   0.776   1.420  1.2374 -2.1875  1.1261
  298SOL     OW  892   0.529   1.268   2.837  0.2138 -0.6650 -0.1942
  298SOL    HW1  893   0.547   1.179   2.886 -0.1229  0.4370  0.4034
  298SOL    HW2  894   0.581   1.276   2.745  1.4326 -0.6180  0.1355
  299SOL     OW  895   0.387   0.344   1.451  0.1007 -0.2087 -0.6055
  299SOL    HW1  896   0.371   0.419   1.383 -1.9101 -0.5632 -1.1657
  299SOL    HW2  897   0.485   0.313   1.463 -1.4162 -1.0029  0.6782
  300SOL     OW  898   1.220   1.789   2.857 -0.1435  0.2465 -0.0711
  300SOL    HW1  899   1.235   1.724   2.775  0.8824  1.3886 -0.5215
  300SOL    HW2  900   1.234   1.737   2.944 -1.6193 -2.1454  0.2886
  301SOL     OW  901   0.460   0.276   0.445  0.2212  0.1713  0.7828
  301SOL    HW1  902   0.358   0.259   0.444 -2.4432  1.6847 -2.5734
  301SOL    HW2  903   0.507   0.224   0.371 -0.4399  1.1898  1.3269
  302SOL     OW  904   1.212   2.295   2.338  0.5440  0.1060 -0.4501
  302SOL    HW1  905   1.144   2.332   2.399  1.6086  0.4135 -3.2370
  302SOL    HW2  906   1.171   2.217   2.279 -0.6710  0.5829  0.3067
  303SOL     OW  907   0.926   2.385   0.797  0.1525 -0.2055  0.0292
  303SOL    HW1  908   0.991   2.431   0.732 -0.5870 -0.9379  1.5564
  303SOL    HW2  909   0.931   2.427   0.891  1.1857  1.5129 -0.8048
  304SOL     OW  910   0.093   2.052   0.682  0.7715  0.0310  0.2438
  304SOL    HW1  911   0.144   1.996   0.606  0.0141  0.6432  0.2329
  304SOL    HW2  912   0.008   2.089   0.636 -1.7011  4.5327 -0.0275
  305SOL     OW  913   1.628   0.881   0.696  0.1249  0.0344  0.2075
  305SOL    HW1  914   1.562   0.894   0.615 -1.3155 -3.6486 -1.9075
  305SOL    HW2  915   1.669   0.787   0.686 -0.7236  0.0254 -1.0132
  306SOL     OW  916   0.434   1.854   1.923  0.7312 -0.3455 -0.2401
  306SOL    HW1  917   0.518   1.807   1.876  0.7276  0.4906 -0.5545
  306SOL    HW2  918   0.422   1.840   2.025 -0.4869  0.1350 -0.8546
  307SOL     OW  919   0.026   0.858   2.534  0.3706 -0.3989  0.2879
  307SOL    HW1  920   0.013   0.953   2.579  2.2255  0.5001 -2.1882
  307SOL    HW2  921  -0.037   0.793   2.582  0.2616  0.5642 -1.3577
  308SOL     OW  922   1.569   2.691   2.816  0.2343 -0.5552 -0.1306
  308SOL    HW1  923   1.584   2.666   2.716  2.1008 -0.0069  1.8302
  308SOL    HW2  924   1.544   2.608   2.876 -0.6278 -4.3423  1.5822
  309SOL     OW  925   1.240   0.020   1.783 -0.2803 -0.0820 -0.6277
  309SOL    HW1  926   1.332   0.026   1.824 -2.2679  1.1830 -2.3484
  309SOL    HW2  927   1.242   0.051   1.688  2.1169 -0.9959 -1.3315
  310SOL     OW  928   1.311   2.681   0.731  0.1624 -0.3565  0.0124
  310SOL    HW1  929   1.273   2.763   0.786 -2.3656  1.3322 -3.1779
  310SOL    HW2  930   1.387   2.704   0.659  1.2934  2.5503 -1.1068
  311SOL     OW  931   1.209   0.943   1.440 -0.1152 -0.3924  0.0687
  311SOL    HW1  932   1.281   0.906   1.370  0.0105 -1.1968  1.0752
  311SOL    HW2  933   1.221   1.044   1.468 -1.1343  3.7782  0.2014
  312SOL     OW  934   1.567   0.685   1.013  0.3584  0.0587 -0.5416
  312SOL    HW1  935   1.557   0.787   1.004  0.4776  0.1932  0.1769
  312SOL    HW2  936   1.498   0.635   0.958 -0.0526  0.2133 -0.3982
  313SOL     OW  937   1.572   1.449   0.562 -0.1457 -0.2299  0.7502
  313SOL    HW1  938   1.476   1.490   0.556 -2.0079 -1.0766 -0.8686
  313SOL    HW2  939   1.579   1.351   0.536  0.2869  0.1213  0.7279
  314SOL     OW  940   2.939   0.052   3.000  0.8429 -0.0084 -0.3629
  314SOL    HW1  941   2.948   0.083   3.101 -2.1196  0.5977 -0.6673
  314SOL    HW2  942   2.859  -0.015   2.985  2.1364 -2.3945 -1.9689
  315SOL     OW  943   1.250   0.227   2.778  0.4071  0.0682  0.3996
  315SOL    HW1  944   1.209   0.158   2.716  0.5073  2.0490  0.2849
  315SOL    HW2  945   1.251   0.196   2.878 -3.8750 -0.8307  1.1119
  316SOL     OW  946   1.672   2.069   0.908 -0.3040  0.3855 -0.1943
  316SOL    HW1  947   1.624   2.087   0.993 -0.0138 -0.2928 -0.7130
  316SOL    HW2  948   1.657   2.154   0.846  0.7053  0.7561 -0.3895
  317SOL     OW  949   1.149   0.712   2.836  0.3271 -0.1474  0.1536
  317SOL    HW1  950   1.071   0.746   2.898  0.7827 -0.3166  1.1008
  317SOL    HW2  951   1.127   0.615   2.806 -0.7350  0.5204  0.3734
  318SOL     OW  952   1.407   3.069   2.278  0.0968 -0.3116  0.3220
  318SOL    HW1  953   1.348   3.155   2.257  2.3739 -1.1658  0.1068
  318SOL    HW2  954   1.428   3.005   2.201 -0.0264  0.8123  2.5883
  319SOL     OW  955   0.626   2.372   2.941 -0.1144 -0.2367  0.2716
  319SOL    HW1  956   0.553   2.350   3.009  2.2358 -1.7344  0.3834
  319SOL    HW2  957   0.663   2.289   2.897 -1.9667  1.6709  0.8117
  320SOL     OW  958   1.606   2.272   0.377  0.1708 -0.0466 -0.9216
  320SOL    HW1  959   1.697   2.222   0.369  0.6703 -0.1144  1.1202
  320SOL    HW2  960   1.542   2.222   0.449 -0.6169  0.7301  0.3004
  321SOL     OW  961   1.590   2.745   0.526 -0.1455 -0.8199 -0.1223
  321SOL    HW1  962   1.528   2.825   0.499 -2.5148  1.4189  0.6226
  321SOL    HW2  963   1.679   2.775   0.572 -0.4324 -2.0312  0.9369
  322SOL     OW  964   2.665   1.094   2.240 -0.9655  0.4544 -0.3163
  322SOL    HW1  965   2.741   1.133   2.298  2.0311  0.9757  0.2762
  322SOL    HW2  966   2.612   1.015   2.281  0.8981  0.2918  1.5909
  323SOL     OW  967   1.029   2.698   0.856 -0.1528  0.1392 -0.0894
  323SOL    HW1  968   1.055   2.661   0.761 -1.1158 -1.1673 -0.6743
  323SOL    HW2  969   1.004   2.795   0.848 -0.6492 -1.0652  1.2398
  324SOL     OW  970   0.107   2.495   2.447  0.6444 -0.4703 -0.0890
  324SOL    HW1  971   0.087   2.407   2.496 -2.2960  0.3391  1.3952
  324SOL    HW2  972   0.063   2.579   2.491 -2.5268  0.0249 -0.7594
  325SOL     OW  973   1.192   3.068   0.468 -0.2578  0.1974  0.0632
  325SOL    HW1  974   1.228   3.103   0.373 -1.6059 -2.2010 -0.3835
  325SOL    HW2  975   1.220   3.115   0.556 -1.9213 -2.6530 -1.1051
  326SOL     OW  976   2.368   0.754   0.018  0.8262 -0.2373 -0.1812
  326SOL    HW1  977   2.263   0.736   0.016 -0.0049  1.2839 -0.8115
  326SOL    HW2  978   2.427   0.669   0.028 -0.2341 -0.7460 -1.2451
  327SOL     OW  979   2.711   0.406   0.534  0.9304  0.5481  0.0760
  327SOL    HW1  980   2.712   0.375   0.435  0.5504  1.1262  0.0999
  327SOL    HW2  981   2.625   0.381   0.591  0.4551 -0.5906  0.1663
  328SOL     OW  982   2.478   0.616   0.403 -0.2847 -0.4735  0.7860
  328SOL    HW1  983   2.383   0.649   0.438 -1.1978 -0.3106 -1.7629
  328SOL    HW2  984   2.551   0.611   0.478  1.1969 -1.2463 -0.5795
  329SOL     OW  985   2.989   2.968   2.159  0.3663 -0.2896  0.1961
  329SOL    HW1  986   3.075   2.919   2.193  0.5957  1.8231  0.0720
  329SOL    HW2  987   3.015   3.070   2.134 -0.4073  2.3015 -0.5531
  330SOL     OW  988   0.562   0.184   1.859 -0.2822 -0.3781  0.2437
  330SOL    HW1  989   0.556   0.286   1.861  2.1307 -0.5561 -0.4178
  330SOL    HW2  990   0.622   0.152   1.935 -1.3498  0.8385  1.5614
  331SOL     OW  991   2.935   1.907   1.116  0.2298  0.6644  0.3128
  331SOL    HW1  992   2.965   1.988   1.060 -0.2871 -3.0415 -0.2461
  331SOL    HW2  993   2.865   1.937   1.190  0.0007  0.6509 -0.0206
  332SOL     OW  994   0.435   1.050   0.060 -0.7792  0.3790  0.5031
  332SOL    HW1  995   0.372   1.012  -0.013 -0.7956  0.0186  0.1209
  332SOL    HW2  996   0.391   1.117   0.125  1.7998 -1.3399 -1.1282
  333SOL     OW  997   2.853   1.056   0.262 -0.4521 -0.1859  0.0971
  333SOL    HW1  998   2.896   1.127   0.324  0.7199 -0.5063  1.7952
  333SOL    HW2  999   2.907   0.969   0.252 -0.0685 -0.0410 -1.1028
  334SOL     OW 1000   1.634   1.151   1.899  0.3069 -0.2395 -0.4199
  334SOL    HW1 1001   1.735   1.158   1.861  0.6342  0.7941  1.3171
  334SOL    HW2 1002   1.607   1.229   1.964  1.1987  1.9586  1.1061
  335SOL     OW 1003   1.973   2.804   2.618 -0.1920  0.0454 -0.3530
  335SOL    HW1 1004   1.902   2.836   2.683 -2.0675 -0.5203  1.2145
  335SOL    HW2 1005   2.071   2.831   2.638  1.5584 -2.1399  3.0455
  336SOL     OW 1006   0.230   0.093   2.734  0.1446  0.3312  0.4200
  336SOL    HW1 1007   0.328   0.052   2.740  0.8937  3.2885 -0.9817
  336SOL    HW2 1008   0.205   0.169   2.799  0.0701 -0.4641  0.1794
  337SOL     OW 1009   0.942   2.818   2.839 -0.2774 -0.1135  0.0275
  337SOL    HW1 1010   0.916   2.829   2.940 -0.7608  0.5362 -1.5770
  337SOL    HW2 1011   1.039   2.777   2.825 -0.6570 -0.7219 -0.6048
  338SOL     OW 1012   0.041   1.015   0.607 -0.0296  0.2863  0.0160
  338SOL    HW1 1013  -0.038   0.966   0.652 -3.3347  0.8597  0.2687
  338SOL    HW2 1014   0.025   1.117   0.592  0.6261  0.8358  1.9214
  339SOL     OW 1015   1.683   1.361   2.079 -0.2568  0.0188  0.0324
  339SOL    HW1 1016   1.585   1.381   2.106  0.2923  0.5297  0.0369
  339SOL    HW2 1017   1.736   1.444   2.055 -0.2698  0.0172 -1.2238
  340SOL     OW 1018   2.332   0.744   1.203 -0.0124  0.4659 -0.2809
  340SOL    HW1 1019   2.235   0.774   1.183 -0.2249 -0.0177  0.9842
  340SOL    HW2 1020   2.363   0.658   1.150 -2.1912 -0.2110 -1.9616
  341SOL     OW 1021   1.885   2.156   0.448  0.2664 -0.4078 -0.2168
  341SOL    HW1 1022   1.895   2.190   0.352 -0.2065 -1.4129  0.4276
  341SOL    HW2 1023   1.951   2.203   0.514 -3.2192 -2.0681 -1.1067
  342SOL     OW 1024   2.202   2.156   2.777 -0.2477 -0.1401 -0.9337
  342SOL    HW1 1025   2.283   2.099   2.818  0.8284 -0.8211 -0.1964
  342SOL    HW2 1026   2.114   2.115   2.802  2.3013 -1.0507  1.4100
  343SOL     OW 1027   0.341   0.892   2.848  0.0463  0.0256 -0.3589
  343SOL    HW1 1028   0.304   0.936   2.762 -2.6819  0.5998 -1.6673
  343SOL    HW2 1029   0.443   0.867   2.832  0.7514 -0.6720 -0.2673
  344SOL     OW 1030   1.905   1.505   0.359  1.0497  0.0706  0.1828
  344SOL    HW1 1031   1.890   1.423   0.298  3.9112 -0.0430 -0.3032
  344SOL    HW2 1032   1.860   1.594   0.322  1.5103  1.2564  0.9259
  345SOL     OW 1033   1.403   2.192   2.841 -0.0009 -0.1397 -0.5395
  345SOL    HW1 1034   1.326   2.136   2.799  0.0192 -0.5810 -0.6491
  345SOL    HW2 1035   1.498   2.152   2.819  0.2184 -0.0001  1.3609
  346SOL     OW 1036   2.416   0.898   1.414 -0.5487 -0.1363  0.4989
  346SOL    HW1 1037   2.351   0.978   1.436  1.7509  1.5153  1.5356
  346SOL    HW2 1038   2.386   0.847   1.329  1.2569  3.6693 -2.2514
  347SOL     OW 1039   0.712   2.816   1.519  0.2206 -0.1157  0.3627
  347SOL    HW1 1040   0.688   2.748   1.594 -1.9702  0.6302 -1.1186
  347SOL    HW2 1041   0.628   2.875   1.491 -0.5794  1.6446  2.8600
  348SOL     OW 1042   0.082   0.701   2.846 -0.0823  0.3417  0.2506
  348SOL    HW1 1043  -0.018   0.695   2.831  1.2783  2.7558 -0.1139
  348SOL    HW2 1044   0.134   0.769   2.788  1.8735 -1.9560 -0.6993
  349SOL     OW 1045   1.914   0.418   2.817 -0.3131 -0.4641  0.4509
  349SOL    HW1 1046   1.897   0.483   2.738  0.1204  2.4697  2.6722
  349SOL    HW2 1047   1.862   0.451   2.901 -0.7117 -0.7223 -0.8610
  350SOL     OW 1048   1.645   0.379   0.382  0.0249  0.0928 -0.1690
  350SOL    HW1 1049   1.718   0.386   0.461  0.8551 -1.7387  3.5881
  350SOL    HW2 1050   1.630   0.461   0.321 -0.7492  1.2886  0.5670
  351SOL     OW 1051   0.894   0.931   2.133 -0.3848 -0.4036 -0.7880
  351SOL    HW1 1052   0.932   1.028   2.113 -0.3318 -0.3103  1.3554
  351SOL    HW2 1053   0.840   0.888   2.057  0.4985 -2.6927  0.0807
  352SOL     OW 1054   1.981   1.379   0.592 -0.0974  0.1032  0.3682
  352SOL    HW1 1055   1.958   1.429   0.504  2.6029 -0.9123  3.4873
  352SOL    HW2 1056   2.049   1.436   0.652  0.8802  1.2716 -0.0257
  353SOL     OW 1057   2.135   2.834   1.164  0.2394  0.0066 -0.4201
  353SOL    HW1 1058   2.222   2.782   1.192 -0.0368 -0.7043 -0.0388
  353SOL    HW2 1059   2.083   2.784   1.092  0.8293  0.7699 -1.5863
  354SOL     OW 1060   0.275   1.376   2.904 -0.2017  0.8083 -0.4523
  354SOL    HW1 1061   0.237   1.431   2.825  0.1134 -0.7529 -0.9186
  354SOL    HW2 1062   0.365   1.332   2.880  1.1801 -2.2331  0.3774
  355SOL     OW 1063   0.464   1.493   0.579 -0.3434  0.1445  0.0631
  355SOL    HW1 1064   0.519   1.575   0.621  1.7609  0.1784 -0.6073
  355SOL    HW2 1065   0.528   1.414   0.550  0.0807 -1.1291  1.8878
  356SOL     OW 1066   0.886   0.453   2.086  0.2803 -0.0824 -0.0420
  356SOL    HW1 1067   0.986   0.483   2.093 -1.2614  0.5614 -0.9599
  356SOL    HW2 1068   0.868   0.386   2.011  0.8689  1.5143 -0.3324
  357SOL     OW 1069   1.051   1.286   0.197 -0.6566  0.0297  0.4898
  357SOL    HW1 1070   1.026   1.250   0.101 -0.7013  3.0138  1.1529
  357SOL    HW2 1071   1.003   1.232   0.268  1.7560  0.8529 -1.7365
  358SOL     OW 1072   1.643   1.639   0.345  0.3043 -0.4466  0.7481
  358SOL    HW1 1073   1.614   1.552   0.399 -3.6342 -0.5062 -0.6580
  358SOL    HW2 1074   1.598   1.729   0.380 -0.1170  0.9107 -1.4807
  359SOL     OW 1075   1.564   2.719   0.174 -0.0512  0.3148  0.5434
  359SOL    HW1 1076   1.584   2.632   0.119 -1.3136 -0.0137  0.9762
  359SOL    HW2 1077   1.467   2.730   0.195 -1.1849 -1.3579 -0.5898
  360SOL     OW 1078   0.895   0.602   0.489 -0.0328 -0.3376  0.1801
  360SOL    HW1 1079   0.816   0.606   0.560 -2.3302 -0.0674 -0.5283
  360SOL    HW2 1080   0.898   0.512   0.444 -0.9516  2.9098  2.2708
  361SOL     OW 1081   1.251   1.393   0.650 -0.1079  0.5322  0.4061
  361SOL    HW1 1082   1.300   1.414   0.742  0.4110 -0.1155 -0.9606
  361SOL    HW2 1083   1.148   1.400   0.653  0.4652 -0.5175  1.4615
  362SOL     OW 1084   1.389   1.763   0.791 -0.0404  0.1041  0.5200
  362SOL    HW1 1085   1.442   1.713   0.865  0.0910 -1.8264  1.7616
  362SOL    HW2 1086   1.446   1.836   0.751  1.4428 -0.9201 -0.0689
  363SOL     OW 1087   1.140   1.369   2.002  0.0754  0.2930 -0.5021
  363SOL    HW1 1088   1.132   1.447   2.073  0.0443  1.2040  1.2897
  363SOL    HW2 1089   1.181   1.402   1.911 -2.8242  0.3900 -1.8620
  364SOL     OW 1090   0.596   2.339   1.968  0.1345  0.5839 -0.3953
  364SOL    HW1 1091   0.505   2.375   2.000  0.3862  0.1717 -2.8389
  364SOL    HW2 1092   0.617   2.376   1.873 -2.3337 -0.0707 -1.0390
  365SOL     OW 1093   1.128   1.886   1.413 -0.3370  0.1557 -0.6567
  365SOL    HW1 1094   1.031   1.908   1.449 -0.7394 -0.4577  0.8708
  365SOL    HW2 1095   1.132   1.818   1.337 -0.7128  1.3608 -0.2702
  366SOL     OW 1096   2.799   2.059   0.469 -0.0129  0.2667  0.3316
  366SOL    HW1 1097   2.716   1.998   0.476  2.3538  1.3352 -0.1186
  366SOL    HW2 1098   2.889   2.007   0.449  2.3448 -0.2338  1.2043
  367SOL     OW 1099   0.781   1.219   0.072  0.2869  0.2304  0.5134
  367SOL    HW1 1100   0.805   1.119   0.084 -3.2211  0.0869  1.3905
  367SOL    HW2 1101   0.789   1.236  -0.031 -2.3697  3.2818 -0.4363
  368SOL     OW 1102   1.560   0.516   0.669  0.4562  0.0035 -0.0027
  368SOL    HW1 1103   1.518   0.517   0.574 -0.6961  0.0023  0.3826
  368SOL    HW2 1104   1.664   0.521   0.673 -0.0724 -1.8566  0.3228
  369SOL     OW 1105   0.294   1.675   0.094 -0.3562 -0.1199  0.0584
  369SOL    HW1 1106   0.297   1.755   0.152  2.7599  1.9396 -1.2853
  369SOL    HW2 1107   0.237   1.595   0.132 -1.2275 -2.5911  1.1287
  370SOL     OW 1108   0.449   2.128   0.970 -0.5062 -0.0182 -0.0288
  370SOL    HW1 1109   0.447   2.233   0.960  0.8808 -0.2691 -0.8506
  370SOL    HW2 1110   0.358   2.091   0.935 -0.5592  1.1732 -1.2947
  371SOL     OW 1111   2.918   2.224   2.777 -0.1423 -0.2813 -0.2476
  371SOL    HW1 1112   2.926   2.187   2.869 -1.1593  0.8264 -2.4752
  371SOL    HW2 1113   3.012   2.251   2.736  1.9555  0.9115  0.5023
  372SOL     OW 1114   0.894   1.876   0.990 -0.1296 -0.5493 -0.2403
  372SOL    HW1 1115   0.832   1.959   0.972  0.1151 -0.8132  0.6596
  372SOL    HW2 1116   0.990   1.895   0.956 -0.2410  1.5906 -0.1562
  373SOL     OW 1117   1.953   1.991   0.939  0.3564  0.6362  0.0007
  373SOL    HW1 1118   2.016   2.038   1.005  0.3119 -1.3533  2.3811
  373SOL    HW2 1119   1.859   2.035   0.933  0.9442  0.4808 -2.2322
  374SOL     OW 1120   1.824   0.410   0.582  0.3372  0.2994  0.4671
  374SOL    HW1 1121   1.835   0.350   0.666 -0.3836  0.1804 -0.6434
  374SOL    HW2 1122   1.913   0.390   0.529  3.5507 -0.8669 -1.6320
  375SOL     OW 1123   2.463   2.281   1.074 -0.1633  0.1534  0.0761
  375SOL    HW1 1124   2.505   2.225   1.000  0.2208 -3.1835  1.3712
  375SOL    HW2 1125   2.483   2.245   1.168 -2.5265 -1.0800 -1.0770
  376SOL     OW 1126   3.080   0.635   1.422 -0.1592  0.1674  0.0535
  376SOL    HW1 1127   3.135   0.681   1.495  0.4417 -2.3816  1.8855
  376SOL    HW2 1128   2.975   0.648   1.441 -1.0396 -0.5494  0.7417
  377SOL     OW 1129   2.245   2.851   0.353  0.0367  0.8023 -0.1422
  377SOL    HW1 1130   2.230   2.919   0.278  0.2584  1.0995  2.8369
  377SOL    HW2 1131   2.346   2.836   0.364  0.5925 -0.0402  0.4022
  378SOL     OW 1132   1.900   1.852   2.669  0.0738  0.2157  0.0124
  378SOL    HW1 1133   1.948   1.760   2.673  0.7599 -1.4013 -0.8255
  378SOL    HW2 1134   1.891   1.879   2.573  0.0070 -1.0452  0.3827
  379SOL     OW 1135   0.877   0.103   2.720 -0.0916 -0.7160 -0.8785
  379SOL    HW1 1136   0.862   0.010   2.672 -2.0994  0.0847  2.2904
  379SOL    HW2 1137   0.808   0.176   2.695 -0.1199 -1.1805 -0.4738
  380SOL     OW 1138   1.542   1.180   0.547 -0.3065  0.2052  0.2582
  380SOL    HW1 1139   1.496   1.090   0.532 -2.8202  0.5498  3.0836
  380SOL    HW2 1140   1.516   1.214   0.641  2.6473  0.7930 -1.2041
  381SOL     OW 1141   1.273   1.217   1.489 -0.1394 -0.1080 -0.1174
  381SOL    HW1 1142   1.343   1.233   1.414 -0.6702 -0.8810  0.0961
  381SOL    HW2 1143   1.318   1.221   1.581 -0.6155  0.0507  2.9188
  382SOL     OW 1144   1.780   0.802   0.276 -0.2994 -0.1384  0.4415
  382SOL    HW1 1145   1.829   0.782   0.190  0.6833  2.9016  0.7196
  382SOL    HW2 1146   1.831   0.785   0.364 -2.4580  0.7366 -1.0461
  383SOL     OW 1147   2.658   0.999   1.553 -0.6499  0.1134 -0.6698
  383SOL    HW1 1148   2.578   0.965   1.500 -2.5565 -0.1328 -1.6451
  383SOL    HW2 1149   2.740   1.014   1.487 -2.2325  1.8148 -1.3385
  384SOL     OW 1150   1.018   2.283   0.162 -0.1973  0.1157 -0.0437
  384SOL    HW1 1151   0.952   2.330   0.228  0.8100 -3.2475 -1.9319
  384SOL    HW2 1152   1.059   2.195   0.206 -0.0165 -3.2849  1.1874
  385SOL     OW 1153   3.015   2.060   1.697 -0.0038 -0.2481 -0.3017
  385SOL    HW1 1154   3.099   2.120   1.734  0.3496  6.0943 -1.6529
  385SOL    HW2 1155   3.029   1.959   1.693 -0.2633 -2.8698  1.0352
  386SOL     OW 1156   0.460   1.076   0.428 -0.1037 -0.0537  0.0145
  386SOL    HW1 1157   0.449   0.971   0.447 -1.1440  1.7174 -0.3699
  386SOL    HW2 1158   0.400   1.108   0.350  1.4899 -1.2455 -0.2975
  387SOL     OW 1159   0.968   0.372   1.674 -0.2757 -0.3468 -0.1497
  387SOL    HW1 1160   1.032   0.442   1.645  0.8711  1.3428  0.9628
  387SOL    HW2 1161   0.975   0.290   1.609 -0.0415  1.2276  1.3826
  388SOL     OW 1162   1.253   2.585   1.773 -0.3243 -0.2339 -0.0844
  388SOL    HW1 1163   1.257   2.590   1.667 -0.5753 -0.9538 -1.8961
  388SOL    HW2 1164   1.298   2.495   1.810 -0.3152 -1.9899 -2.6176
  389SOL     OW 1165   0.262   0.033   1.149 -0.7948 -0.5257  0.0694
  389SOL    HW1 1166   0.230   0.003   1.242  1.1245 -0.7732 -1.1791
  389SOL    HW2 1167   0.327  -0.042   1.108 -1.3820 -1.0239  1.9741
  390SOL     OW 1168   1.046   0.832   1.223 -0.5956 -0.1350  0.9855
  390SOL    HW1 1169   1.142   0.807   1.195 -0.0028  0.4057 -0.5766
  390SOL    HW2 1170   1.039   0.824   1.330 -2.1564 -0.8080 -0.4999
  391SOL     OW 1171   2.140   1.182   1.014  0.0011  0.0027  0.0255
  391SOL    HW1 1172   2.087   1.097   1.029  0.5044  2.1172 -1.1547
  391SOL    HW2 1173   2.208   1.170   0.938  1.3211  0.0846  0.9924
  392SOL     OW 1174   0.913   2.681   0.013 -0.1972 -0.5533 -0.3356
  392SOL    HW1 1175   0.819   2.708   0.050 -2.2387  0.6388 -0.6710
  392SOL    HW2 1176   0.988   2.755   0.031  0.7974  1.7462 -1.2179
  393SOL     OW 1177   0.348   0.564   1.986 -0.2241  0.0113  0.3406
  393SOL    HW1 1178   0.263   0.506   1.983  1.9379 -1.9946  1.3497
  393SOL    HW2 1179   0.419   0.530   1.918  0.3968  0.0812 -1.0282
  394SOL     OW 1180   2.838   1.754   2.752 -0.2215  0.0495 -0.0257
  394SOL    HW1 1181   2.889   1.772   2.667 -0.6826 -0.7733  4.1998
  394SOL    HW2 1182   2.789   1.837   2.786  1.3605  0.6890 -1.8610
  395SOL     OW 1183   1.593   1.942   0.673  0.5531  0.2503 -0.5407
  395SOL    HW1 1184   1.665   1.873   0.654  1.8231 -2.0615  1.2380
  395SOL    HW2 1185   1.614   1.982   0.765  0.6883  0.9661 -0.3155
  396SOL     OW 1186   2.775   2.029   1.300  0.1055  0.1087 -0.0294
  396SOL    HW1 1187   2.802   2.047   1.400  1.6135 -3.3251 -1.3873
  396SOL    HW2 1188   2.688   1.971   1.290 -1.8321  0.8642 -0.9375
  397SOL     OW 1189   0.991   2.131   0.670  0.0764 -0.4447 -0.5011
  397SOL    HW1 1190   0.923   2.078   0.614  0.8557  0.1849  0.3629
  397SOL    HW2 1191   0.944   2.218   0.713  0.4943  4.3089 -1.4920
  398SOL     OW 1192   2.179   0.017   1.083 -1.0211  0.3025  0.1653
  398SOL    HW1 1193   2.156  -0.085   1.109 -0.8362 -1.6649 -2.4044
  398SOL    HW2 1194   2.100   0.074   1.060  1.0006  1.0662  2.6583
  399SOL     OW 1195   2.874   2.603   2.751 -0.3433  0.0236  0.0910
  399SOL    HW1 1196   2.868   2.547   2.664  1.4226 -0.2327  3.0292
  399SOL    HW2 1197   2.833   2.551   2.827  0.9823  0.3061  0.1726
  400SOL     OW 1198   0.797   1.586   1.277 -0.3836  0.0637 -0.6706
  400SOL    HW1 1199   0.768   1.648   1.352  1.6572 -1.2332 -0.2467
  400SOL    HW2 1200   0.789   1.634   1.185  2.2744  1.1699 -0.1920
  401SOL     OW 1201   1.865   0.095   1.299 -0.0648 -0.2089  0.3827
  401SOL    HW1 1202   1.899   0.141   1.387  0.5541 -1.3558  0.5619
  401SOL    HW2 1203   1.764   0.081   1.309 -1.2240  0.3542 -0.4497
  402SOL     OW 1204   1.351   0.192   3.031 -0.1917  0.1249  0.0893
  402SOL    HW1 1205   1.456   0.190   3.009  4.0235 -1.0834 -4.5100
  402SOL    HW2 1206   1.326   0.284   3.073 -3.9333  0.9728  0.4584
  403SOL     OW 1207   2.262   1.794   1.008 -0.1483 -0.0818  0.2575
  403SOL    HW1 1208   2.352   1.751   1.019 -0.7453 -0.5822 -1.3291
  403SOL    HW2 1209   2.250   1.886   1.058 -0.7204 -0.3797  1.9841
  404SOL     OW 1210   0.218   2.449   2.748 -0.4164  0.0393  0.1749
  404SOL    HW1 1211   0.305   2.435   2.697  0.2660 -1.2276 -2.1108
  404SOL    HW2 1212   0.214   2.533   2.806 -0.2599  0.4197 -1.7206
  405SOL     OW 1213   0.218   2.506   0.573  0.4582 -0.4919 -0.0304
  405SOL    HW1 1214   0.250   2.455   0.487 -1.7728 -0.8788 -0.2074
  405SOL    HW2 1215   0.284   2.584   0.603  2.1683  0.0935 -0.5208
  406SOL     OW 1216   0.011   1.568   2.985 -0.1924 -0.5126 -0.2556
  406SOL    HW1 1217   0.084   1.537   2.917  0.2796  0.0350  1.1128
  406SOL    HW2 1218   0.048   1.580   3.079  0.6883 -0.8609 -1.4848
  407SOL     OW 1219   1.558   0.971   0.952  0.1537 -0.4452 -0.1176
  407SOL    HW1 1220   1.583   0.957   0.851 -2.2600  2.6607 -0.5907
  407SOL    HW2 1221   1.477   1.039   0.964  0.1390 -1.0361  3.2717
  408SOL     OW 1222   1.444   2.346   0.941  0.4840  0.7510 -0.3319
  408SOL    HW1 1223   1.513   2.340   0.860 -0.7996  1.0269  0.1518
  408SOL    HW2 1224   1.436   2.440   0.986 -2.1268  2.8760 -0.9631
  409SOL     OW 1225   0.622   0.867   0.677 -0.2015 -0.0925  0.3121
  409SOL    HW1 1226   0.534   0.899   0.630 -3.4255 -1.7612 -0.5507
  409SOL    HW2 1227   0.631   0.761   0.678  0.8765 -2.3710  0.0136
  410SOL     OW 1228   1.348   1.995   1.497 -0.6992  0.0679 -0.1516
  410SOL    HW1 1229   1.329   2.083   1.550  2.2362  1.3264 -1.2089
  410SOL    HW2 1230   1.263   1.948   1.478  0.0624 -0.3983 -0.0549
  411SOL     OW 1231   2.371   1.850   0.061 -0.4936  0.3113 -0.1672
  411SOL    HW1 1232   2.281   1.866   0.013 -2.8532 -0.6719  0.0464
  411SOL    HW2 1233   2.456   1.872   0.006 -1.6690 -0.7247  0.6297
  412SOL     OW 1234   1.565   2.409   2.285 -0.3011 -0.0965 -0.7699
  412SOL    HW1 1235   1.537   2.497   2.325 -0.7130 -0.6010 -2.0022
  412SOL    HW2 1236   1.533   2.322   2.331 -2.4802  0.6573  1.0496
  413SOL     OW 1237   3.032   0.293   2.869 -0.0249 -0.1552  0.4973
  413SOL    HW1 1238   2.985   0.205   2.884 -0.3212 -0.2187  1.5331
  413SOL    HW2 1239   3.135   0.284   2.872 -0.2680 -2.2199  0.2945
  414SOL     OW 1240   1.765   1.304   1.320 -0.0013 -0.0415  0.3280
  414SOL    HW1 1241   1.716   1.387   1.358  1.7588 -3.9682  0.0586
  414SOL    HW2 1242   1.759   1.298   1.218 -0.9184  0.7974 -0.4415
  415SOL     OW 1243   0.291   2.265   0.721  0.2211  0.3839  0.0687
  415SOL    HW1 1244   0.255   2.358   0.705  4.5858 -2.9486 -2.2845
  415SOL    HW2 1245   0.224   2.188   0.724  1.9442 -1.0407  0.2712
  416SOL     OW 1246   0.322   1.022   1.032 -0.3316 -0.1925  0.1162
  416SOL    HW1 1247   0.298   1.020   0.927 -0.7976 -0.6428 -2.3584
  416SOL    HW2 1248   0.422   1.046   1.044 -2.8918  2.3570  0.9677
  417SOL     OW 1249   2.179   2.338   1.879  0.3206 -0.2931 -0.1078
  417SOL    HW1 1250   2.196   2.237   1.883 -0.6336 -0.4398 -0.7517
  417SOL    HW2 1251   2.086   2.351   1.925 -0.4069 -0.9980 -1.5446
  418SOL     OW 1252   1.117   0.481   1.379 -0.0681 -0.5397  0.2411
  418SOL    HW1 1253   1.021   0.436   1.375 -1.1520  0.1515 -1.2154
  418SOL    HW2 1254   1.179   0.460   1.300  2.9846 -1.9426 -3.3011
  419SOL     OW 1255   0.962   0.363   2.975  0.0426 -0.2655  0.0302
  419SOL    HW1 1256   0.988   0.408   2.885  3.5002 -1.1758  0.3608
  419SOL    HW2 1257   0.897   0.283   2.969 -0.6104  1.4967  0.4741
  420SOL     OW 1258   0.181   2.277   0.359 -0.1045 -0.0141  0.0006
  420SOL    HW1 1259   0.182   2.217   0.270 -1.8633  0.1039  1.9593
  420SOL    HW2 1260   0.116   2.236   0.426  1.9780  2.8377  0.1910
  421SOL     OW 1261   0.330   0.071   0.686 -0.0649 -0.0107 -0.0443
  421SOL    HW1 1262   0.348   0.012   0.602  0.5473 -0.7006 -1.3526
  421SOL    HW2 1263   0.420   0.091   0.734  0.8009  0.6880  0.4558
  422SOL     OW 1264   0.941   2.522   1.052  0.0253 -0.1310 -0.3100
  422SOL    HW1 1265   0.949   2.598   0.985 -1.2086 -1.1917 -0.8923
  422SOL    HW2 1266   0.973   2.536   1.151  1.7202  0.7377  0.4105
  423SOL     OW 1267   0.049   0.727   1.174  0.4265  0.0099  0.6174
  423SOL    HW1 1268   0.026   0.700   1.272  0.5490  1.7863  1.0174
  423SOL    HW2 1269  -0.019   0.793   1.133 -2.3719  2.0919 -0.9567
  424SOL     OW 1270   0.972   2.133   2.225  0.1330  0.1492 -0.3225
  424SOL    HW1 1271   0.923   2.169   2.145 -0.2854 -1.6601 -1.0061
  424SOL    HW2 1272   0.923   2.151   2.314  0.0959 -0.0568 -1.4986
  425SOL     OW 1273   2.001   1.437   1.087  0.1409  0.4123 -0.3706
  425SOL    HW1 1274   1.995   1.336   1.101  1.4442 -1.6275 -1.8070
  425SOL    HW2 1275   2.067   1.467   1.012  1.7263 -3.4611  0.3040
  426SOL     OW 1276   1.564   1.544   1.394  0.3854 -0.1663  0.4201
  426SOL    HW1 1277   1.516   1.624   1.349  0.4067 -0.8944  0.1806
  426SOL    HW2 1278   1.547   1.542   1.495  0.1910  0.9516 -1.3675
  427SOL     OW 1279   1.926   2.345   2.034 -0.4896 -0.3754  0.0619
  427SOL    HW1 1280   1.961   2.294   2.115 -0.1645 -0.4757 -0.9952
  427SOL    HW2 1281   1.949   2.446   2.043  1.2254  2.8162  0.0628
  428SOL     OW 1282   0.923   3.079   0.075  0.7228 -0.3358  0.2709
  428SOL    HW1 1283   0.956   3.164   0.123 -1.3224 -1.2607  3.3580
  428SOL    HW2 1284   0.999   3.011   0.066 -1.0426  1.8185  1.7847
  429SOL     OW 1285   1.297   0.060   0.236  0.9917  0.0619 -0.0340
  429SOL    HW1 1286   1.380   0.127   0.252  0.4699 -1.0787  0.2519
  429SOL    HW2 1287   1.319   0.002   0.152  3.1804  0.9159 -3.1622
  430SOL     OW 1288   2.784   1.493   0.340  0.0247  0.1554  0.0537
  430SOL    HW1 1289   2.738   1.567   0.285  2.9724 -2.0982 -0.0907
  430SOL    HW2 1290   2.807   1.530   0.434  0.0882 -1.2973  2.4863
  431SOL     OW 1291   2.117   1.603   0.881 -0.0525 -0.4664 -0.6771
  431SOL    HW1 1292   2.168   1.680   0.930 -0.4223  1.1312  0.1461
  431SOL    HW2 1293   2.021   1.635   0.854 -0.2026 -0.6444  1.1135
  432SOL     OW 1294   2.884   2.289   1.215 -0.2960  0.9803  0.0221
  432SOL    HW1 1295   2.833   2.195   1.213 -2.9964  2.4376  0.1011
  432SOL    HW2 1296   2.925   2.319   1.310  0.2674  1.5184  2.4989
  433SOL     OW 1297   1.858   0.260   0.812  0.0817  0.4317 -0.1163
  433SOL    HW1 1298   1.775   0.260   0.881 -1.4027 -0.8472  0.3224
  433SOL    HW2 1299   1.944   0.249   0.869  0.8007 -2.9968  2.4307
  434SOL     OW 1300   1.514   0.246   0.714  0.5761  0.1288 -0.0193
  434SOL    HW1 1301   1.489   0.332   0.655  0.3443 -0.6813 -0.3720
  434SOL    HW2 1302   1.567   0.266   0.796  0.0769 -0.9990 -1.4075
  435SOL     OW 1303   1.423   1.470   2.093  0.1228  0.0836 -0.0227
  435SOL    HW1 1304   1.393   1.475   2.195  0.4974 -0.0298  1.3501
  435SOL    HW2 1305   1.389   1.552   2.033  1.0917  1.1429  0.7323
  436SOL     OW 1306   1.641   2.689   2.387 -0.2318  0.0018 -0.0672
  436SOL    HW1 1307   1.636   2.784   2.426  0.2295 -1.2057 -2.4754
  436SOL    HW2 1308   1.623   2.617   2.457  4.3364 -1.2184 -0.5276
  437SOL     OW 1309   0.989   2.970   0.874  0.1099  0.3301 -0.7633
  437SOL    HW1 1310   0.967   3.069   0.852 -0.3759  1.0842 -0.9338
  437SOL    HW2 1311   1.047   2.961   0.963  2.5345  1.9602 -1.7251
  438SOL     OW 1312   0.998   2.520   1.322  0.3021 -0.0244  0.2309
  438SOL    HW1 1313   1.089   2.555   1.357 -1.0306 -1.1011  1.7906
  438SOL    HW2 1314   1.002   2.419   1.330 -2.0783  1.6393 -1.2094
  439SOL     OW 1315   0.714   1.698   1.042  0.0853  0.3475  0.2159
  439SOL    HW1 1316   0.780   1.778   1.025  0.9828  0.8838 -0.4998
  439SOL    HW2 1317   0.615   1.724   1.069 -0.3232  1.4602  0.7579
  440SOL     OW 1318   0.951   2.372   1.995  0.3658 -0.2506 -0.4691
  440SOL    HW1 1319   0.958   2.441   1.919  0.1271 -1.0949  1.3225
  440SOL    HW2 1320   1.045   2.352   2.041 -0.2398  2.5283  2.9976
  441SOL     OW 1321   0.373   2.773   1.313  0.5208 -0.6406 -0.3574
  441SOL    HW1 1322   0.429   2.684   1.328 -0.7581 -1.1892  0.8062
  441SOL    HW2 1323   0.403   2.821   1.224  0.7904 -2.7699 -4.1704
  442SOL     OW 1324   2.237   0.673   2.557 -0.0908 -0.3612 -0.0550
  442SOL    HW1 1325   2.215   0.573   2.545 -0.1547 -1.1231 -0.1140
  442SOL    HW2 1326   2.165   0.737   2.518  2.9631  0.4370  0.9598
  443SOL     OW 1327   1.253   2.556   2.182 -0.2641 -0.7583  0.0958
  443SOL    HW1 1328   1.273   2.456   2.210  0.3106 -1.0943  0.1376
  443SOL    HW2 1329   1.225   2.614   2.263  0.6420  1.1600  1.0374
  444SOL     OW 1330   0.969   1.203   1.482  0.6825  0.3147 -0.0205
  444SOL    HW1 1331   1.065   1.177   1.502  1.1527  1.1949  0.1059
  444SOL    HW2 1332   0.958   1.300   1.452  0.7594  0.8489 -1.6623
  445SOL     OW 1333   0.155   2.239   2.113  0.3683  0.2084  0.2531
  445SOL    HW1 1334   0.171   2.156   2.053 -2.7391  0.5522  0.3000
  445SOL    HW2 1335   0.087   2.227   2.184  1.2763  1.4148 -0.5920
  446SOL     OW 1336   0.115   1.949   2.403 -0.2578  0.1351 -0.4310
  446SOL    HW1 1337   0.057   2.037   2.399 -0.0384 -0.6395 -0.9196
  446SOL    HW2 1338   0.131   1.911   2.310 -1.8454  2.0104  1.5221
  447SOL     OW 1339   1.310   1.699   1.907  0.2314  0.7259  0.1335
  447SOL    HW1 1340   1.235   1.747   1.854  0.3202 -0.9107 -1.8142
  447SOL    HW2 1341   1.386   1.757   1.951 -1.0994  3.3729 -1.0381
  448SOL     OW 1342   0.176   1.470   2.004  0.2819 -0.0047  0.3582
  448SOL    HW1 1343   0.194   1.556   1.954  0.5985 -1.7428 -1.6048
  448SOL    HW2 1344   0.098   1.477   2.080 -1.9605  1.7451  2.4528
  449SOL     OW 1345   1.842   2.949   0.819 -0.4747 -0.5685  0.0543
  449SOL    HW1 1346   1.849   2.958   0.923  0.0679 -0.6703  0.3006
  449SOL    HW2 1347   1.892   2.865   0.795  1.6160 -2.2945 -0.1057
  450SOL     OW 1348   2.240   1.478   0.686 -0.0394 -0.6688  0.0518
  450SOL    HW1 1349   2.191   1.519   0.769 -3.6796 -1.7116 -0.9084
  450SOL    HW2 1350   2.274   1.554   0.625 -0.8691  0.9692 -1.0837
  451SOL     OW 1351   1.421   2.981   1.461 -0.0349 -0.0881 -0.0798
  451SOL    HW1 1352   1.349   3.053   1.477  0.4997  0.6741  1.3716
  451SOL    HW2 1353   1.455   2.938   1.544 -2.7069  0.4499 -0.6603
  452SOL     OW 1354   2.700   2.303   2.271  0.2390 -0.2396  0.0907
  452SOL    HW1 1355   2.623   2.368   2.290  1.2347 -1.0277 -0.3329
  452SOL    HW2 1356   2.750   2.281   2.360 -0.6051 -0.6619 -0.7826
  453SOL     OW 1357   2.449   2.652   0.004  0.0080  0.0036 -0.6576
  453SOL    HW1 1358   2.346   2.684   0.024 -3.3416  1.5452  1.1181
  453SOL    HW2 1359   2.457   2.592  -0.083  0.9500 -2.4870  1.4263
  454SOL     OW 1360   0.928   1.196   2.002  0.4274  0.0945  0.3169
  454SOL    HW1 1361   0.887   1.183   1.908  0.1253  0.5877  0.7495
  454SOL    HW2 1362   1.014   1.253   1.994  0.5090  0.9565 -2.4768
  455SOL     OW 1363   0.705   2.619   2.812 -0.0518 -0.0815 -0.4203
  455SOL    HW1 1364   0.794   2.654   2.855  0.1313 -0.7226  4.5149
  455SOL    HW2 1365   0.679   2.538   2.868  1.6650  0.1580 -1.1608
  456SOL     OW 1366   0.303   1.932   0.218  0.0938 -0.1264  0.1618
  456SOL    HW1 1367   0.403   1.956   0.235 -0.7636  3.5148  1.0451
  456SOL    HW2 1368   0.249   2.010   0.173 -1.9397 -0.4767  0.4535
  457SOL     OW 1369   0.404   2.693   0.661 -0.5800  0.6198  0.4636
  457SOL    HW1 1370   0.447   2.761   0.592 -1.4237  0.4272 -0.3435
  457SOL    HW2 1371   0.470   2.671   0.738  1.3486  2.2654 -0.9413
  458SOL     OW 1372   2.929   0.023   1.275  0.4535  0.3042 -0.4403
  458SOL    HW1 1373   2.978   0.114   1.278 -1.1730 -1.0642  1.0478
  458SOL    HW2 1374   2.919  -0.022   1.179  0.7659  0.6259 -0.0911
  459SOL     OW 1375   2.141   2.524   0.719 -0.2370 -0.2914  0.1918
  459SOL    HW1 1376   2.220   2.541   0.786  0.6987 -1.1779 -0.2820
  459SOL    HW2 1377   2.186   2.527   0.628 -0.2852 -3.3559  0.1550
  460SOL     OW 1378   1.153   2.031   2.768  0.1131 -0.0932 -0.3351
  460SOL    HW1 1379   1.190   2.054   2.674  0.2026  0.0130  0.2999
  460SOL    HW2 1380   1.173   1.932   2.799 -0.7417 -0.9041  2.1400
  461SOL     OW 1381   0.471   2.137   2.717  0.0552  0.3917 -0.3025
  461SOL    HW1 1382   0.397   2.081   2.676 -0.8514 -4.0977 -1.5969
  461SOL    HW2 1383   0.496   2.100   2.810  1.0297 -1.3132  0.4248
  462SOL     OW 1384   0.937   1.025   1.746  0.2772 -0.1370  0.3303
  462SOL    HW1 1385   0.955   0.941   1.687 -0.9978 -1.6303  0.1285
  462SOL    HW2 1386   0.900   1.107   1.695 -2.2281  0.0782 -1.5054
  463SOL     OW 1387   0.421   0.807   0.472  0.3942  0.3564 -0.1252
  463SOL    HW1 1388   0.466   0.727   0.421  0.2068 -1.9108 -1.3956
  463SOL    HW2 1389   0.316   0.787   0.482 -0.3747  0.2164 -0.6431
  464SOL     OW 1390   0.601   2.368   2.279  0.3913 -0.0406 -0.5330
  464SOL    HW1 1391   0.512   2.411   2.308  1.7638 -0.2493 -0.7155
  464SOL    HW2 1392   0.590   2.310   2.197  0.6435 -2.2779  2.4924
  465SOL     OW 1393   0.233   0.978   0.790 -0.2159  0.1302  0.0148
  465SOL    HW1 1394   0.152   1.011   0.734  0.3340  0.4987 -1.2269
  465SOL    HW2 1395   0.257   0.874   0.780  1.0885 -1.9349  2.1000
  466SOL     OW 1396   1.329   1.142   0.981 -0.0989  0.1649  0.6547
  466SOL    HW1 1397   1.341   1.244   0.954 -0.1369  1.7462  0.9306
  466SOL    HW2 1398   1.235   1.129   1.022  1.7257  2.2166  3.5394
  467SOL     OW 1399   0.632   0.470   2.542 -0.1617 -0.1202 -0.3900
  467SOL    HW1 1400   0.544   0.529   2.543 -2.2900  0.6324 -0.4529
  467SOL    HW2 1401   0.625   0.378   2.593  0.8611 -1.5569 -2.7538
  468SOL     OW 1402   0.458   2.263   1.578  0.4512 -0.1690  0.6629
  468SOL    HW1 1403   0.546   2.308   1.612  1.0228  0.5780  0.6328
  468SOL    HW2 1404   0.459   2.252   1.475 -1.3274  2.8048  0.3350
  469SOL     OW 1405   1.444   1.346   1.232 -0.3918  0.2113 -0.3587
  469SOL    HW1 1406   1.487   1.353   1.135 -0.1912 -0.0868 -1.7028
  469SOL    HW2 1407   1.486   1.405   1.303  1.4297 -2.3811 -3.0186
  470SOL     OW 1408   3.001   1.813   0.802 -0.0005  0.0803 -0.2571
  470SOL    HW1 1409   3.081   1.883   0.799  2.9473 -0.9185  1.9986
  470SOL    HW2 1410   3.003   1.749   0.881  1.2520 -0.7493 -3.7258
  471SOL     OW 1411   2.653   1.380   2.195 -0.5806 -0.0286 -0.1576
  471SOL    HW1 1412   2.632   1.276   2.202  1.5772 -0.1973  0.7620
  471SOL    HW2 1413   2.743   1.407   2.237  0.2611  0.3185 -0.1612
  472SOL     OW 1414   1.196   2.456   0.030 -1.1383  0.5240  0.2146
  472SOL    HW1 1415   1.245   2.500   0.109 -1.2660  0.5631  0.8814
  472SOL    HW2 1416   1.126   2.388   0.064  0.1050  1.5403  0.3559
  473SOL     OW 1417   1.086   1.524   0.998  0.1481  0.1028 -0.0817
  473SOL    HW1 1418   0.997   1.527   0.945  1.1240  0.1561  1.2819
  473SOL    HW2 1419   1.089   1.456   1.075  1.0639  1.4957  1.8881
  474SOL     OW 1420   0.628   1.288   0.498  0.2717  0.1245  0.3931
  474SOL    HW1 1421   0.573   1.211   0.449 -1.1682  0.1982  0.6004
  474SOL    HW2 1422   0.693   1.238   0.562  0.2122 -0.1812 -1.0660
  475SOL     OW 1423   2.822   0.060   0.824 -0.1919 -0.0404 -0.0584
  475SOL    HW1 1424   2.888   0.131   0.864  0.0690  1.2265 -2.9399
  475SOL    HW2 1425   2.720   0.078   0.837  1.0308  0.3723  0.8214
  476SOL     OW 1426   0.949   3.063   1.821  0.1393  0.4114 -0.2166
  476SOL    HW1 1427   1.047   3.088   1.830  1.1882 -1.7367  0.6425
  476SOL    HW2 1428   0.926   3.014   1.734  0.4176  0.5115  0.5317
  477SOL     OW 1429   1.433   0.331   2.426  0.0589  0.0324 -0.2057
  477SOL    HW1 1430   1.435   0.367   2.524 -1.8596  0.2806 -1.0244
  477SOL    HW2 1431   1.510   0.263   2.412 -0.6576 -1.9702 -0.5273
  478SOL     OW 1432   2.214   1.898   0.286 -0.4097 -0.0641 -0.4016
  478SOL    HW1 1433   2.174   1.817   0.331  1.2276 -2.6401 -0.3845
  478SOL    HW2 1434   2.294   1.876   0.221 -1.3713 -0.0305  0.9946
  479SOL     OW 1435   1.320   0.939   2.888  0.4237 -0.5092  0.5385
  479SOL    HW1 1436   1.405   0.951   2.828 -1.6671  1.0211 -2.1048
  479SOL    HW2 1437   1.258   0.860   2.854  2.6352  0.1986  0.4503
  480SOL     OW 1438   2.688   2.297   0.410 -0.2889 -0.3329 -0.2030
  480SOL    HW1 1439   2.740   2.217   0.455  1.1170  2.4748 -0.5372
  480SOL    HW2 1440   2.588   2.285   0.425  0.0105  0.8517 -3.1179
  481SOL     OW 1441   0.975   1.153   0.839  0.4925  0.0765  0.7988
  481SOL    HW1 1442   0.979   1.252   0.818  2.3987 -1.0594  0.5568
  481SOL    HW2 1443   0.988   1.135   0.944  0.0308  0.9579  2.1223
  482SOL     OW 1444   1.626   0.300   2.028  0.2157 -0.0357 -0.3928
  482SOL    HW1 1445   1.638   0.404   2.018  1.0522 -0.3339 -0.5528
  482SOL    HW2 1446   1.718   0.251   2.049  1.2915  0.1927 -0.1400
  483SOL     OW 1447   0.142   2.350   1.193  1.0062 -0.5025 -0.2355
  483SOL    HW1 1448   0.111   2.415   1.265 -0.7439  0.1170 -1.5092
  483SOL    HW2 1449   0.162   2.392   1.095  0.2323  0.0787 -0.1131
  484SOL     OW 1450   1.713   1.058   1.461  0.1958 -0.1312 -0.7095
  484SOL    HW1 1451   1.797   0.996   1.463  1.0375 -0.1325  1.0745
  484SOL    HW2 1452   1.729   1.147   1.415  0.9701  0.0531 -2.6330
  485SOL     OW 1453   0.752   0.759   1.917  0.1249  0.3631 -0.7308
  485SOL    HW1 1454   0.717   0.784   1.818  0.3665  1.3511 -4.1801
  485SOL    HW2 1455   0.849   0.721   1.911  1.2890  0.5767  0.5211
  486SOL     OW 1456   0.878   1.892   2.444  0.0564  0.0279  0.2398
  486SOL    HW1 1457   0.922   1.882   2.541 -0.5056  0.4393  0.2741
  486SOL    HW2 1458   0.833   1.983   2.435 -1.2595 -2.3695 -1.7340
  487SOL     OW 1459   1.768   1.586   1.070  0.0968  0.1378  0.2638
  487SOL    HW1 1460   1.844   1.518   1.091 -1.0027 -0.4685  3.4527
  487SOL    HW2 1461   1.797   1.650   0.995 -1.3550 -1.4570 -0.2559
  488SOL     OW 1462   2.931   0.800   2.234 -0.3856  0.0068  0.5748
  488SOL    HW1 1463   3.001   0.725   2.231 -0.4446  0.0438  0.3787
  488SOL    HW2 1464   2.865   0.791   2.315  0.9221  0.7780  1.9863
  489SOL     OW 1465   2.780   0.349   1.311 -0.5152  0.0594 -0.2716
  489SOL    HW1 1466   2.790   0.305   1.406 -0.4123 -2.0565 -0.9711
  489SOL    HW2 1467   2.840   0.302   1.242  1.7269  0.2399  0.4303
  490SOL     OW 1468   1.482   2.944   2.822 -0.5077  0.3103  0.1856
  490SOL    HW1 1469   1.515   2.850   2.849  0.2225  1.1332 -0.9694
  490SOL    HW2 1470   1.454   2.948   2.723  2.4055  0.2606  0.6645
  491SOL     OW 1471   1.794   1.446   2.722 -0.0796  0.2447  0.1179
  491SOL    HW1 1472   1.793   1.377   2.798 -2.4032 -1.7763 -2.3230
  491SOL    HW2 1473   1.870   1.519   2.725 -1.3081  0.2442 -0.9090
  492SOL     OW 1474   0.592   2.095   0.586 -1.0280  0.3480  0.3181
  492SOL    HW1 1475   0.613   2.084   0.690 -1.1944  0.2321 -1.8642
  492SOL    HW2 1476   0.501   2.127   0.572  2.6611 -0.4754  1.0113
  493SOL     OW 1477   0.402   1.326   2.084  0.0651 -0.3348  0.3321
  493SOL    HW1 1478   0.305   1.369   2.081 -1.2032  1.8886  1.7168
  493SOL    HW2 1479   0.399   1.225   2.106  0.6805 -1.6012 -3.4468
  494SOL     OW 1480   2.704   2.649   0.135  0.2415  0.1725 -0.7340
  494SOL    HW1 1481   2.714   2.611   0.232  0.9440  0.8692 -1.3135
  494SOL    HW2 1482   2.604   2.648   0.101  2.5628 -0.1707 -2.1208
  495SOL     OW 1483   2.529   2.810   2.632  0.3749  0.5130  0.2032
  495SOL    HW1 1484   2.537   2.705   2.640 -0.4093 -1.1851  1.3523
  495SOL    HW2 1485   2.602   2.853   2.563  1.7934  0.9951 -1.8169
  496SOL     OW 1486   1.948   2.321   0.829 -0.0025 -0.0013  0.9161
  496SOL    HW1 1487   1.996   2.368   0.907  0.3058  2.1328 -1.8290
  496SOL    HW2 1488   2.010   2.248   0.786  2.0642 -2.5997  0.1985
  497SOL     OW 1489   0.258   2.994   2.350 -0.5707  0.1299 -0.1996
  497SOL    HW1 1490   0.179   3.064   2.374 -2.5553  0.4326 -0.7061
  497SOL    HW2 1491   0.300   3.006   2.250 -3.0630 -0.5432 -2.0625
  498SOL     OW 1492   1.152   1.339   1.211 -0.1785  0.1554  0.0467
  498SOL    HW1 1493   1.248   1.316   1.219 -0.2933 -0.3319 -1.5980
  498SOL    HW2 1494   1.113   1.372   1.301 -1.8563 -0.5523 -1.9518
  499SOL     OW 1495   0.595   1.826   0.360 -0.0722  0.4885 -0.5395
  499SOL    HW1 1496   0.604   1.794   0.262  1.2578 -0.0199  1.4392
  499SOL    HW2 1497   0.669   1.892   0.389  0.0549  1.6923 -3.4841
  500SOL     OW 1498   1.533   2.810   1.660  0.4853  0.3862 -0.5216
  500SOL    HW1 1499   1.565   2.772   1.751  0.1072 -0.9740  2.2732
  500SOL    HW2 1500   1.525   2.735   1.581  0.5701 -0.9714 -1.3965
  501SOL     OW 1501   0.793   1.175   2.262  0.5424 -0.1459 -0.0973
  501SOL    HW1 1502   0.725   1.101   2.289 -2.3646 -1.9219 -3.2619
  501SOL    HW2 1503   0.822   1.182   2.164  1.2089 -0.3481  0.7846
  502SOL     OW 1504   2.579   0.918   1.801  0.4829 -0.0227 -0.0414
  502SOL    HW1 1505   2.619   0.958   1.719 -1.8413 -2.1845  3.4402
  502SOL    HW2 1506   2.571   0.814   1.797 -0.0246 -0.9116  1.3713
  503SOL     OW 1507   1.262   0.118   0.688  0.3432 -0.2490  0.1934
  503SOL    HW1 1508   1.197   0.196   0.669  2.1370 -0.4989 -0.2663
  503SOL    HW2 1509   1.359   0.156   0.695  1.2504  1.5390 -2.5997
  504SOL     OW 1510   2.995   2.366   1.493  0.4628 -0.4971 -0.4114
  504SOL    HW1 1511   2.950   2.441   1.549 -0.5812  0.5766  1.2172
  504SOL    HW2 1512   3.063   2.308   1.548 -1.3548  1.2732  1.3657
  505SOL     OW 1513   2.313   1.137   1.498 -0.4042 -0.3475  0.1845
  505SOL    HW1 1514   2.306   1.191   1.405  1.2328  0.8100 -0.0851
  505SOL    HW2 1515   2.371   1.197   1.558  1.0363  1.8513 -1.3820
  506SOL     OW 1516   1.956   0.166   1.882  0.0724 -0.2928 -0.0107
  506SOL    HW1 1517   2.050   0.158   1.837  1.2284 -1.4032 -0.7175
  506SOL    HW2 1518   1.932   0.263   1.891 -0.8697 -0.5762 -0.5606
  507SOL     OW 1519   0.504   0.754   2.215  0.1802  0.1184  0.5973
  507SOL    HW1 1520   0.461   0.709   2.128 -1.0396 -2.6102  0.1899
  507SOL    HW2 1521   0.559   0.688   2.272  0.4425  1.5310  0.0711
  508SOL     OW 1522   0.272   1.659   0.814 -0.3271 -0.3341 -0.2592
  508SOL    HW1 1523   0.340   1.711   0.756  0.5610 -0.0817  2.0001
  508SOL    HW2 1524   0.255   1.715   0.906 -1.2649  0.0405 -1.5531
  509SOL     OW 1525   1.301   1.221   2.466  0.4965 -0.2768  0.0615
  509SOL    HW1 1526   1.321   1.172   2.374 -0.3296  4.3694 -4.2095
  509SOL    HW2 1527   1.207   1.194   2.509 -1.4617  1.2950 -0.1795
  510SOL     OW 1528   1.301   2.029   2.237 -0.4974 -0.0578 -0.3356
  510SOL    HW1 1529   1.331   2.063   2.143 -1.1336 -1.1444  0.3382
  510SOL    HW2 1530   1.238   1.949   2.237 -1.4822 -1.5525  1.3017
  511SOL     OW 1531   2.999   2.672   1.336 -0.0450  0.6260 -0.7186
  511SOL    HW1 1532   3.021   2.695   1.236 -0.3470  2.4942 -0.6211
  511SOL    HW2 1533   2.904   2.636   1.355  1.0147  1.7951  0.5752
  512SOL     OW 1534   2.330   0.447   1.423  0.5165  0.1865  0.1350
  512SOL    HW1 1535   2.231   0.446   1.391 -0.9636 -1.0772  1.7683
  512SOL    HW2 1536   2.400   0.430   1.348  2.0977  1.4034  1.5746
  513SOL     OW 1537   2.530   2.078   0.859  0.4296 -0.0626 -0.7676
  513SOL    HW1 1538   2.518   2.166   0.805 -0.6446 -0.7982 -0.8833
  513SOL    HW2 1539   2.617   2.025   0.825  1.0846 -1.6282  0.2574
  514SOL     OW 1540   0.613   2.734   0.464  0.3149 -0.3867  0.0528
  514SOL    HW1 1541   0.693   2.721   0.395  2.2876 -0.7030 -0.5669
  514SOL    HW2 1542   0.643   2.802   0.539 -0.4435 -0.5911 -1.6695
  515SOL     OW 1543   1.942   1.337   2.393 -0.0406  0.2245 -0.6793
  515SOL    HW1 1544   1.944   1.283   2.301  0.2277 -1.4090  1.2352
  515SOL    HW2 1545   1.869   1.296   2.457 -0.8232 -2.1743 -0.8593
  516SOL     OW 1546   0.268   0.147   1.939 -0.0841 -0.2235  0.1212
  516SOL    HW1 1547   0.348   0.185   1.884 -1.3372  1.4870 -1.2419
  516SOL    HW2 1548   0.198   0.095   1.887  1.8635 -0.7504  0.5683
  517SOL     OW 1549   0.467   0.217   1.140  0.6469  0.2627  0.4956
  517SOL    HW1 1550   0.539   0.158   1.194  1.0097 -1.4016  3.4632
  517SOL    HW2 1551   0.372   0.167   1.132 -1.1901 -0.1665 -1.8116
  518SOL     OW 1552   2.169   3.009   1.823  0.2372 -0.6641  0.0198
  518SOL    HW1 1553   2.187   3.115   1.832 -1.9857  0.2341 -2.3257
  518SOL    HW2 1554   2.196   2.974   1.727 -1.9799  0.3196 -0.9416
  519SOL     OW 1555   2.334   2.239   2.540  0.5885 -0.4515  0.0006
  519SOL    HW1 1556   2.274   2.206   2.615  0.9374 -0.1436 -0.7967
  519SOL    HW2 1557   2.335   2.342   2.525 -1.4323 -1.2690 -1.4289
  520SOL     OW 1558   1.820   2.693   1.648  0.7790  0.8392 -0.3564
  520SOL    HW1 1559   1.763   2.670   1.736 -0.9025  0.3047  0.0608
  520SOL    HW2 1560   1.918   2.666   1.652 -1.4783  3.6824 -0.9971
  521SOL     OW 1561   0.645   0.068   2.152  0.1732  0.3986  0.5666
  521SOL    HW1 1562   0.558   0.019   2.121 -1.4168 -3.2679  0.7084
  521SOL    HW2 1563   0.678   0.031   2.245 -0.5400 -1.8505 -1.3022
  522SOL     OW 1564   0.230   1.935   1.478  0.0299 -0.1121 -0.2852
  522SOL    HW1 1565   0.259   1.987   1.562 -1.3038 -1.7198  0.8696
  522SOL    HW2 1566   0.196   2.003   1.405 -1.8985 -0.5843 -0.3505
  523SOL     OW 1567   2.211   2.921   1.578 -0.3206  0.3992  0.5500
  523SOL    HW1 1568   2.299   2.886   1.523 -0.1964 -0.6700  2.4771
  523SOL    HW2 1569   2.135   2.863   1.546  1.5863  0.2091  1.0921
  524SOL     OW 1570   0.212   2.758   2.790 -0.0266  0.1488  0.5745
  524SOL    HW1 1571   0.159   2.844   2.801 -3.0037  1.1049 -0.3515
  524SOL    HW2 1572   0.306   2.780   2.752 -2.4724 -0.7634  0.3270
  525SOL     OW 1573   2.204   2.082   0.499 -0.1334 -0.3986  0.0223
  525SOL    HW1 1574   2.193   2.024   0.584 -0.6453  0.2288 -2.1520
  525SOL    HW2 1575   2.195   2.025   0.408 -0.1649 -1.1766 -1.7127
  526SOL     OW 1576   0.403   1.532   1.736  0.7017 -0.2196  0.2687
  526SOL    HW1 1577   0.498   1.559   1.780  1.1182  0.5190 -1.0804
  526SOL    HW2 1578   0.394   1.429   1.743 -0.8145 -1.4460 -0.3781
  527SOL     OW 1579   1.108   2.970   1.125 -0.8357 -0.9608  0.7079
  527SOL    HW1 1580   1.156   2.894   1.186 -1.8918 -1.1212  3.4662
  527SOL    HW2 1581   1.153   3.067   1.129 -0.5882  2.1477 -1.9415
  528SOL     OW 1582   1.283   2.411   0.621 -0.0248 -0.0627 -0.3016
  528SOL    HW1 1583   1.340   2.320   0.624  2.8721 -1.1358 -1.7691
  528SOL    HW2 1584   1.331   2.487   0.665 -1.1077 -0.3168 -2.4812
  529SOL     OW 1585   1.856   1.739   0.853  0.6781  0.6745  0.1529
  529SOL    HW1 1586   1.839   1.764   0.749  1.6268  0.0763 -0.8671
  529SOL    HW2 1587   1.897   1.819   0.908  1.0579  0.1517  0.1330
  530SOL     OW 1588   0.406   2.470   0.195  0.1816 -0.5132 -0.0351
  530SOL    HW1 1589   0.428   2.386   0.249  2.0753 -1.1372 -1.2098
  530SOL    HW2 1590   0.411   2.444   0.093  0.7561  1.5256 -0.6877
  531SOL     OW 1591   1.842   1.019   1.028 -0.1431 -0.5053 -0.3654
  531SOL    HW1 1592   1.847   1.014   0.923 -0.9438 -1.5576 -0.7335
  531SOL    HW2 1593   1.742   1.009   1.057 -1.1998 -0.1090 -1.9887
  532SOL     OW 1594   0.387   1.181   0.717 -0.0604 -0.2472  0.0738
  532SOL    HW1 1595   0.422   1.172   0.616  0.0376  0.3878 -1.0404
  532SOL    HW2 1596   0.307   1.121   0.745  0.7626 -1.7559 -0.6424
  533SOL     OW 1597   1.814   0.071   2.560  0.0522  0.9275 -0.3929
  533SOL    HW1 1598   1.916   0.067   2.560 -2.1241 -1.1270  0.6163
  533SOL    HW2 1599   1.782   0.128   2.642 -0.0348  0.5070  0.8816
  534SOL     OW 1600   0.206   0.176   1.575  0.0752  0.0734  0.1334
  534SOL    HW1 1601   0.287   0.231   1.539  3.1044  1.7064  0.7210
  534SOL    HW2 1602   0.120   0.227   1.559 -0.7949  0.4661 -0.9428
  535SOL     OW 1603   1.867   0.400   0.137 -0.0359 -0.3794 -0.1251
  535SOL    HW1 1604   1.903   0.492   0.136 -1.2681 -0.2446  1.6684
  535SOL    HW2 1605   1.812   0.390   0.228  1.7041  3.0997  2.1722
  536SOL     OW 1606   1.211   2.503   0.988  0.0265  0.2165  0.4892
  536SOL    HW1 1607   1.215   2.487   0.887  1.1257  0.0268 -0.4336
  536SOL    HW2 1608   1.114   2.520   1.024  0.1229 -1.3028 -1.1700
  537SOL     OW 1609   0.871   0.256   2.291  0.0811 -0.4329  0.4178
  537SOL    HW1 1610   0.926   0.310   2.226 -4.1800 -0.7715  0.8497
  537SOL    HW2 1611   0.807   0.188   2.248  3.7269 -1.6348  0.3665
  538SOL     OW 1612   1.703   2.282   1.609 -0.5892  0.9941 -0.1022
  538SOL    HW1 1613   1.641   2.240   1.536 -1.9616  0.3097 -1.4667
  538SOL    HW2 1614   1.765   2.354   1.558  1.3930  0.8001 -2.4918
  539SOL     OW 1615   0.166   1.558   2.728  0.0277  0.2410 -0.4577
  539SOL    HW1 1616   0.072   1.571   2.690 -0.1724  0.2262 -1.3933
  539SOL    HW2 1617   0.232   1.637   2.740 -0.5445  0.3207  0.7250
  540SOL     OW 1618   2.669   1.784   2.143  0.3722 -0.4522 -0.1759
  540SOL    HW1 1619   2.609   1.700   2.122 -2.0183 -1.6628 -2.4611
  540SOL    HW2 1620   2.641   1.864   2.082 -0.8249  1.8805 -2.0631
  541SOL     OW 1621   0.414   2.282   3.089  0.1602 -0.1572  0.4090
  541SOL    HW1 1622   0.437   2.195   3.139  2.0187  1.6401  0.9072
  541SOL    HW2 1623   0.353   2.257   3.014  1.3921  0.1846  1.2166
  542SOL     OW 1624   2.181   2.603   0.449 -0.3797 -0.3110  0.0908
  542SOL    HW1 1625   2.198   2.704   0.427 -0.0512  1.4203 -1.3153
  542SOL    HW2 1626   2.082   2.582   0.455  1.2815  2.1466  2.1329
  543SOL     OW 1627   1.071   1.808   1.740 -0.8835 -0.0886 -0.2895
  543SOL    HW1 1628   1.045   1.847   1.836  1.0472  2.0110  3.0377
  543SOL    HW2 1629   1.004   1.838   1.668  1.0835 -0.5018  0.5400
  544SOL     OW 1630   0.850   0.425   0.119  0.4574 -0.5286  0.4817
  544SOL    HW1 1631   0.873   0.366   0.199 -0.5315  1.2195  0.3281
  544SOL    HW2 1632   0.911   0.415   0.035  1.8182  0.1818  0.8303
  545SOL     OW 1633   1.157   1.772   0.633 -0.5686  0.3353  0.0417
  545SOL    HW1 1634   1.240   1.730   0.683  0.3807  0.3468  2.0075
  545SOL    HW2 1635   1.156   1.761   0.531  0.4119 -1.7762  0.9916
  546SOL     OW 1636   2.688   1.605   0.046 -0.5269 -0.1445 -0.0686
  546SOL    HW1 1637   2.717   1.547  -0.028 -1.5063  0.1380  1.3656
  546SOL    HW2 1638   2.596   1.571   0.084  0.9932  1.0603  2.4594
  547SOL     OW 1639   0.485   3.088   2.745  0.1924  0.5542  0.5213
  547SOL    HW1 1640   0.499   3.028   2.658  1.9663  1.6199 -2.9850
  547SOL    HW2 1641   0.477   3.044   2.838 -0.5084  1.4652 -1.7999
  548SOL     OW 1642   2.069   0.784   3.091  0.3288  0.3149  0.3837
  548SOL    HW1 1643   1.970   0.750   3.111 -1.6027 -0.1599 -1.6026
  548SOL    HW2 1644   2.067   0.886   3.093 -3.5507 -2.4523  2.3333
  549SOL     OW 1645   0.563   0.435   0.072 -0.4789 -0.2838 -0.0025
  549SOL    HW1 1646   0.542   0.519   0.016 -1.9101 -0.3212 -2.1858
  549SOL    HW2 1647   0.665   0.430   0.076  1.9052  1.1287 -1.3535
  550SOL     OW 1648   2.532   2.866   2.911  0.7928 -0.0507 -0.0090
  550SOL    HW1 1649   2.512   2.788   2.980 -1.1972 -1.5965  0.6131
  550SOL    HW2 1650   2.535   2.827   2.816 -1.3291 -2.5643 -0.0936
  551SOL     OW 1651   0.232   0.788   0.203 -0.1830 -0.5607 -0.1651
  551SOL    HW1 1652   0.331   0.755   0.209 -1.4435  0.3783  0.4156
  551SOL    HW2 1653   0.187   0.777   0.296  0.4710 -0.7095  1.0377
  552SOL     OW 1654   0.842   2.796   1.908 -0.0360  0.1071 -0.0206
  552SOL    HW1 1655   0.810   2.758   2.006 -0.7458 -1.9813  0.3660
  552SOL    HW2 1656   0.873   2.896   1.909 -1.1875 -0.9757 -0.4161
  553SOL     OW 1657   3.076   2.538   0.372 -0.2818 -0.1241  0.6223
  553SOL    HW1 1658   3.016   2.457   0.340 -0.1166 -0.1527  2.1437
  553SOL    HW2 1659   3.138   2.507   0.447 -1.0850  0.6178  0.5071
  554SOL     OW 1660   2.146   0.316   0.503  0.5710 -0.4159  0.0399
  554SOL    HW1 1661   2.168   0.241   0.430 -0.5934 -1.3675  1.7189
  554SOL    HW2 1662   2.168   0.286   0.597 -1.2994  0.4388 -1.0089
  555SOL     OW 1663   0.481   2.902   2.469 -0.6497  0.3841 -0.0602
  555SOL    HW1 1664   0.393   2.947   2.441  0.7576 -0.1678 -1.4024
  555SOL    HW2 1665   0.521   2.848   2.390  1.9703  0.2363  2.1698
  556SOL     OW 1666   0.931   2.313   1.627 -1.2540 -0.7941 -0.2154
  556SOL    HW1 1667   0.979   2.403   1.652 -1.9102 -2.0212 -0.3219
  556SOL    HW2 1668   0.950   2.285   1.529 -0.4101  1.8556 -0.9417
  557SOL     OW 1669   0.159   2.146   0.116 -0.3330 -0.2550 -0.0338
  557SOL    HW1 1670   0.062   2.126   0.140  1.8124 -0.8209  2.8613
  557SOL    HW2 1671   0.164   2.170   0.014 -1.7599 -0.0382  2.9615
  558SOL     OW 1672   2.922   2.351   0.279 -0.1027  0.0390  0.4844
  558SOL    HW1 1673   2.830   2.326   0.327 -1.0668 -0.2074  2.0013
  558SOL    HW2 1674   2.911   2.360   0.174  1.8444  0.7253  1.0592
  559SOL     OW 1675   0.426   2.273   1.282 -0.0357 -0.4455 -0.0083
  559SOL    HW1 1676   0.341   2.269   1.220 -0.3001  0.1418 -1.6710
  559SOL    HW2 1677   0.473   2.180   1.283 -0.9774 -0.5059  0.2714
  560SOL     OW 1678   2.020   1.080   3.031 -0.2378  0.4538  0.7786
  560SOL    HW1 1679   2.028   1.147   2.949  0.6481  2.6809  2.0602
  560SOL    HW2 1680   1.960   1.115   3.111 -0.9227  1.6582  0.1619
  561SOL     OW 1681   3.046   1.959   0.106  0.3969  0.3605 -0.1123
  561SOL    HW1 1682   3.001   1.864   0.107  0.4889  0.8057 -0.1044
  561SOL    HW2 1683   2.989   2.026   0.049 -1.6312 -0.1084 -2.7100
  562SOL     OW 1684   0.822   2.186   2.449  0.1670  0.0812  0.6251
  562SOL    HW1 1685   0.731   2.128   2.440 -0.6435 -2.5885 -3.6727
  562SOL    HW2 1686   0.825   2.234   2.539  2.2864  1.1009 -0.6871
  563SOL     OW 1687   0.742   2.537   2.528  0.0332  0.6584 -0.1599
  563SOL    HW1 1688   0.797   2.462   2.483  1.9170  0.3425  0.5092
  563SOL    HW2 1689   0.756   2.540   2.628 -0.0359 -2.7743  0.4658
  564SOL     OW 1690   2.755   1.278   2.876  0.3204 -0.2189 -0.1428
  564SOL    HW1 1691   2.669   1.259   2.932  0.2010 -0.9609 -1.7600
  564SOL    HW2 1692   2.781   1.380   2.874 -1.7990 -0.5564  1.6572
  565SOL     OW 1693   2.524   2.019   2.586 -0.2757 -0.1401 -0.5989
  565SOL    HW1 1694   2.483   2.107   2.553 -0.3381 -1.6394 -0.4633
  565SOL    HW2 1695   2.618   2.031   2.626  0.9071  1.4915 -0.4675
  566SOL     OW 1696   2.017   2.811   1.405 -0.2869  0.1610 -0.6830
  566SOL    HW1 1697   1.997   2.715   1.443 -0.4909 -0.3185 -0.3111
  566SOL    HW2 1698   2.047   2.811   1.307 -1.0640 -0.0590 -0.9301
  567SOL     OW 1699   2.461   0.148   2.235  0.3078  0.1863  0.6495
  567SOL    HW1 1700   2.498   0.136   2.139 -0.7790 -1.5539 -0.9927
  567SOL    HW2 1701   2.360   0.171   2.229  0.8760  0.7569 -0.7651
  568SOL     OW 1702   1.411   1.803   0.433 -0.1965  0.3614 -0.9822
  568SOL    HW1 1703   1.408   1.871   0.361  0.3978 -0.1621  0.9362
  568SOL    HW2 1704   1.406   1.843   0.532  0.1066 -0.2018  0.3205
  569SOL     OW 1705   0.280   0.695   0.795 -0.1416 -1.1559  0.0697
  569SOL    HW1 1706   0.335   0.622   0.735  2.1187 -1.6280 -0.2638
  569SOL    HW2 1707   0.172   0.671   0.800  0.2579 -0.4428 -0.5713
  570SOL     OW 1708   0.631   0.790   2.835 -0.0965 -0.1024  0.3074
  570SOL    HW1 1709   0.673   0.782   2.741  0.3152 -0.3858 -0.5639
  570SOL    HW2 1710   0.615   0.893   2.865  0.8765  1.1988  2.1598
  571SOL     OW 1711   0.850   3.049   1.137 -0.3198  0.5208  0.0543
  571SOL    HW1 1712   0.837   3.110   1.057 -3.2519  1.1495  1.9220
  571SOL    HW2 1713   0.952   3.024   1.143 -0.2005 -2.0920 -1.0684
  572SOL     OW 1714   1.513   2.552   1.190  0.1363 -0.2073 -0.2158
  572SOL    HW1 1715   1.431   2.496   1.223 -0.2606  0.6351 -1.5336
  572SOL    HW2 1716   1.478   2.639   1.139 -2.1051 -3.8925 -0.2818
  573SOL     OW 1717   2.949   0.428   2.110  0.1172 -0.0057  0.4578
  573SOL    HW1 1718   2.896   0.336   2.130 -0.8615 -1.3346 -3.7410
  573SOL    HW2 1719   2.897   0.495   2.054 -0.3620 -1.2218  0.3939
  574SOL     OW 1720   0.246   1.813   1.049 -0.3037  0.5635 -0.1627
  574SOL    HW1 1721   0.238   1.914   1.023  1.8714 -0.8740 -0.8157
  574SOL    HW2 1722   0.155   1.773   1.083  0.8196  1.4584 -2.4225
  575SOL     OW 1723   0.916   2.154   1.008  0.1747 -0.5507 -0.4043
  575SOL    HW1 1724   0.884   2.153   1.109 -2.3604 -0.5025 -1.2578
  575SOL    HW2 1725   1.011   2.187   0.992 -0.2132 -0.6694  1.6581
  576SOL     OW 1726   2.916   2.897   1.706  0.8744 -0.2855  0.1867
  576SOL    HW1 1727   2.850   2.829   1.664 -2.4450  0.0500  1.6499
  576SOL    HW2 1728   2.882   2.997   1.693  1.1667  0.6564 -0.6332
  577SOL     OW 1729   2.550   1.260   3.044  0.2757  0.0887 -0.4713
  577SOL    HW1 1730   2.531   1.161   3.025  2.3590  2.0477 -0.2371
  577SOL    HW2 1731   2.614   1.266   3.129 -0.6498 -2.2373  1.1362
  578SOL     OW 1732   1.338   2.769   2.569 -0.0174 -0.9735 -0.1649
  578SOL    HW1 1733   1.263   2.726   2.516  0.3854  0.0508  0.5106
  578SOL    HW2 1734   1.356   2.865   2.538  1.0373  1.7957 -1.1936
  579SOL     OW 1735   0.124   2.564   0.152  0.0306 -0.1553  0.1007
  579SOL    HW1 1736   0.060   2.574   0.233 -1.3423  0.6102 -0.0862
  579SOL    HW2 1737   0.211   2.510   0.181 -1.5291 -4.4122 -0.2213
  580SOL     OW 1738   0.985   2.694   0.357  0.8215 -0.5292 -0.3546
  580SOL    HW1 1739   1.074   2.711   0.310 -0.7355  0.5380 -0.7112
  580SOL    HW2 1740   0.931   2.611   0.323 -0.2836  2.0935 -2.1882
  581SOL     OW 1741   1.270   2.577   1.483 -0.6295  0.3113  0.1530
  581SOL    HW1 1742   1.292   2.492   1.431 -2.0287 -0.8313  2.5697
  581SOL    HW2 1743   1.294   2.657   1.418  0.8753 -0.4345 -0.5348
  582SOL     OW 1744   1.522   0.057   1.870 -0.3189 -0.2048  0.2053
  582SOL    HW1 1745   1.555   0.134   1.921  0.2560 -2.7420 -0.4124
  582SOL    HW2 1746   1.581   0.041   1.788  1.7330  0.0193 -0.7878
  583SOL     OW 1747   2.413   2.991   0.595  0.5319 -0.0370 -0.0736
  583SOL    HW1 1748   2.476   2.940   0.530  1.9630  1.6744 -0.6614
  583SOL    HW2 1749   2.347   2.927   0.640  1.7399 -0.0239  0.9133
  584SOL     OW 1750   1.542   0.970   2.103 -0.0698 -0.5087  0.1001
  584SOL    HW1 1751   1.601   1.022   2.031  1.3367 -0.1117  2.8194
  584SOL    HW2 1752   1.597   0.938   2.184 -2.4679  1.4797  0.0658
  585SOL     OW 1753   2.129   2.660   2.918  0.6449 -0.5056  0.5640
  585SOL    HW1 1754   2.141   2.567   2.887  0.9255  0.8534  1.3161
  585SOL    HW2 1755   2.030   2.693   2.914  2.8627 -0.1678 -0.9556
  586SOL     OW 1756   2.794   0.224   1.549  0.9430  0.2731  0.4468
  586SOL    HW1 1757   2.790   0.303   1.615 -2.7735  0.8127 -0.9256
  586SOL    HW2 1758   2.711   0.162   1.563 -2.9808 -0.7742  1.9361
  587SOL     OW 1759   2.008   1.622   2.734 -0.2953  0.3094  0.1059
  587SOL    HW1 1760   2.067   1.566   2.667  1.9656 -2.3264 -0.7624
  587SOL    HW2 1761   2.053   1.609   2.829 -2.3578  1.8359  1.3240
  588SOL     OW 1762   0.485   2.696   2.229  0.3066  0.2653 -0.1631
  588SOL    HW1 1763   0.436   2.711   2.139 -0.3737 -0.5075 -1.2001
  588SOL    HW2 1764   0.429   2.642   2.300  3.7010 -0.4787  0.6006
  589SOL     OW 1765   2.127   1.468   2.548  0.3457 -0.1335 -0.1849
  589SOL    HW1 1766   2.052   1.424   2.493  0.2909 -0.4584 -0.9396
  589SOL    HW2 1767   2.213   1.411   2.531  0.4956 -0.7428  1.5112
  590SOL     OW 1768   2.353   1.741   1.999  0.1913 -0.8851 -0.3476
  590SOL    HW1 1769   2.407   1.657   2.008 -1.6137  1.5964 -2.6755
  590SOL    HW2 1770   2.378   1.811   2.072  2.2436 -2.1291  0.2541
  591SOL     OW 1771   1.334   2.493   0.313  0.2610 -0.3351  0.2278
  591SOL    HW1 1772   1.383   2.446   0.233  1.4696  2.3006 -1.8783
  591SOL    HW2 1773   1.317   2.437   0.398  2.5403  0.2852  0.0643
  592SOL     OW 1774   1.681   2.317   0.775  0.0108 -0.3227 -0.0449
  592SOL    HW1 1775   1.680   2.369   0.681  1.7007  2.2470  1.9533
  592SOL    HW2 1776   1.777   2.316   0.807 -2.1120  2.4265 -1.1525
  593SOL     OW 1777   0.541   0.214   3.010  0.4564 -0.3482  0.1798
  593SOL    HW1 1778   0.634   0.169   3.001  1.8021  1.9342  1.7191
  593SOL    HW2 1779   0.531   0.288   3.078 -1.8759 -3.6109  0.0451
  594SOL     OW 1780   0.898   1.923   2.734 -0.6661  0.6181 -0.5184
  594SOL    HW1 1781   0.980   1.980   2.765  1.0140  1.0288 -3.1125
  594SOL    HW2 1782   0.808   1.969   2.741  0.3508 -0.5478 -2.6291
  595SOL     OW 1783   1.554   0.006   1.026 -0.0843  0.8569  0.7525
  595SOL    HW1 1784   1.646  -0.040   1.031 -1.2680  1.3577 -2.2668
  595SOL    HW2 1785   1.501  -0.026   0.943 -0.3736 -0.5918  2.6287
  596SOL     OW 1786   3.070   1.472   2.213  0.1484  0.0739  0.2975
  596SOL    HW1 1787   2.987   1.530   2.248 -2.2274  0.6082 -1.8778
  596SOL    HW2 1788   3.105   1.412   2.296  1.1320  2.5480 -0.9514
  597SOL     OW 1789   2.081   2.633   1.627  0.3995  0.1139  0.2442
  597SOL    HW1 1790   2.110   2.567   1.556  1.9451 -0.9269 -1.1642
  597SOL    HW2 1791   2.140   2.638   1.713  2.7928 -1.0220  1.5771
  598SOL     OW 1792   2.581   2.907   1.192 -0.5976  0.1638 -0.0922
  598SOL    HW1 1793   2.657   2.954   1.249 -0.8639  0.9715 -1.0229
  598SOL    HW2 1794   2.614   2.866   1.100  1.1902  1.7453  1.8411
  599SOL     OW 1795   2.932   0.342   2.399  0.4545  0.3322 -0.4453
  599SOL    HW1 1796   3.025   0.355   2.359 -0.6901 -0.3727 -0.1205
  599SOL    HW2 1797   2.867   0.416   2.371 -0.2298  2.0703  2.3888
  600SOL     OW 1798   2.819   1.042   2.762  0.3465 -0.0081 -0.6620
  600SOL    HW1 1799   2.815   0.984   2.852 -0.7249 -2.4554  1.0697
  600SOL    HW2 1800   2.805   1.143   2.779 -1.5751 -0.3574  0.7995
  601SOL     OW 1801   2.932   1.261   2.062  0.3964 -0.8049  0.1091
  601SOL    HW1 1802   2.871   1.289   1.984 -2.5023 -1.8852  1.5824
  601SOL    HW2 1803   2.987   1.341   2.100 -2.4581 -2.3833 -0.1202
  602SOL     OW 1804   1.529   1.669   2.361 -0.4111 -0.0900 -0.0552
  602SOL    HW1 1805   1.468   1.582   2.380  0.0528  0.9500  0.4452
  602SOL    HW2 1806   1.635   1.657   2.386  2.6515  1.0381  0.1531
  603SOL     OW 1807   0.690   1.269   2.598 -0.7211  0.2324  0.2660
  603SOL    HW1 1808   0.626   1.231   2.521 -1.7355  1.2145 -2.4939
  603SOL    HW2 1809   0.764   1.204   2.624  0.3426 -1.7214  1.4538
  604SOL     OW 1810   2.389   0.980   0.174  0.2814 -0.6579  0.0689
  604SOL    HW1 1811   2.400   1.041   0.094  1.0060 -1.5398 -1.2283
  604SOL    HW2 1812   2.372   0.880   0.142  1.5970 -0.4882 -1.4520
  605SOL     OW 1813   2.617   1.133   1.976  0.5595 -0.3185  0.0576
  605SOL    HW1 1814   2.607   1.055   1.911  0.9696  0.3469  1.2485
  605SOL    HW2 1815   2.632   1.107   2.078 -2.2354 -0.2043  0.0544
  606SOL     OW 1816   1.534   2.519   2.588  0.1035  0.6851 -0.1675
  606SOL    HW1 1817   1.455   2.586   2.598 -0.5723 -1.7727 -1.0077
  606SOL    HW2 1818   1.496   2.423   2.579 -1.4395 -1.1750  0.1858
  607SOL     OW 1819   1.347   1.541   0.440  0.0767  0.1064  0.8555
  607SOL    HW1 1820   1.288   1.512   0.514  0.7930  0.4195  1.4232
  607SOL    HW2 1821   1.360   1.644   0.434 -4.3203  1.5132 -0.2332
  608SOL     OW 1822   1.397   2.901   0.427  0.3854  0.0005  0.0163
  608SOL    HW1 1823   1.454   2.947   0.356 -1.0252 -0.3812 -1.7285
  608SOL    HW2 1824   1.342   2.967   0.480  1.4194  0.1167 -0.1908
  609SOL     OW 1825   1.320   1.332   0.254  0.8042 -0.1191  0.0805
  609SOL    HW1 1826   1.322   1.417   0.313 -0.0843 -1.1803  0.4068
  609SOL    HW2 1827   1.235   1.330   0.197  0.2067  2.2161 -1.5883
  610SOL     OW 1828   2.992   1.063   2.252  0.1119  0.5312 -0.2923
  610SOL    HW1 1829   2.968   0.965   2.234 -0.4530  1.2316 -0.5051
  610SOL    HW2 1830   2.961   1.122   2.173  0.6238  0.1881  0.4253
  611SOL     OW 1831   2.513   0.340   1.239 -0.3327 -0.0683  0.0956
  611SOL    HW1 1832   2.487   0.241   1.228  0.9606  1.0101 -1.4734
  611SOL    HW2 1833   2.614   0.356   1.265  0.4569 -0.4173  1.0912
  612SOL     OW 1834   0.752   2.131   1.260  0.2643  0.3144  0.2164
  612SOL    HW1 1835   0.681   2.052   1.253 -0.4278 -0.1531 -1.0718
  612SOL    HW2 1836   0.711   2.221   1.240  0.2503  0.7891 -0.8093
  613SOL     OW 1837   0.909   1.409   2.394 -0.7002  0.4777  0.5675
  613SOL    HW1 1838   0.971   1.445   2.320  0.7864 -2.0000 -1.8450
  613SOL    HW2 1839   0.836   1.343   2.356 -1.0001  1.7080 -2.3636
  614SOL     OW 1840   1.664   1.531   1.786  0.0608 -0.3122  0.6244
  614SOL    HW1 1841   1.608   1.611   1.753  0.3899  0.3177 -0.0459
  614SOL    HW2 1842   1.734   1.557   1.861  1.0210 -0.6891 -0.3101
  615SOL     OW 1843   0.788   1.273   1.755 -0.0529 -0.1500  0.3212
  615SOL    HW1 1844   0.712   1.244   1.695 -2.5101 -1.7706 -1.1479
  615SOL    HW2 1845   0.839   1.360   1.713  0.8482  3.0131 -1.5510
  616SOL     OW 1846   1.025   1.566   2.184  0.4023 -0.6590  0.7723
  616SOL    HW1 1847   0.934   1.568   2.129 -1.3139  0.2457 -0.1709
  616SOL    HW2 1848   1.070   1.660   2.196  3.1760  0.1249  2.6805
  617SOL     OW 1849   2.956   1.514   1.607 -0.1883  0.2536  0.3361
  617SOL    HW1 1850   2.968   1.418   1.651  1.5753 -1.0516  2.9794
  617SOL    HW2 1851   3.019   1.525   1.523 -1.0166 -2.8086 -1.9485
  618SOL     OW 1852   1.862   2.040   1.379 -0.1315  0.7786 -0.1560
  618SOL    HW1 1853   1.853   2.129   1.329 -1.7223  0.6114  1.7593
  618SOL    HW2 1854   1.850   1.953   1.319 -0.2166 -0.5483 -1.4013
  619SOL     OW 1855   1.750   0.446   2.378  0.1655  0.5073  0.1468
  619SOL    HW1 1856   1.670   0.502   2.345  4.2337 -0.5066 -1.7938
  619SOL    HW2 1857   1.744   0.344   2.382  1.9437  0.3300  0.2326
  620SOL     OW 1858   2.260   2.816   0.756  0.0241  0.2671  0.4527
  620SOL    HW1 1859   2.159   2.819   0.774 -1.0491 -0.7415  0.3468
  620SOL    HW2 1860   2.307   2.738   0.807 -0.7824  0.6262 -1.2463
  621SOL     OW 1861   2.201   1.920   1.345 -0.4368 -0.3585  0.1295
  621SOL    HW1 1862   2.203   1.957   1.443  2.2984 -0.3976  0.9846
  621SOL    HW2 1863   2.129   1.848   1.330 -1.0843 -0.2388  1.2255
  622SOL     OW 1864   2.316   0.958   1.861  0.2920  0.2916  0.3065
  622SOL    HW1 1865   2.415   0.949   1.837  0.3852  0.7338 -2.6867
  622SOL    HW2 1866   2.271   0.873   1.908 -0.0317  1.0253  2.2757
  623SOL     OW 1867   1.245   0.832   2.531  0.1029  0.2046 -0.1014
  623SOL    HW1 1868   1.193   0.742   2.536  0.4928 -3.2231  0.7421
  623SOL    HW2 1869   1.219   0.872   2.438 -1.5410  0.2360 -1.4254
  624SOL     OW 1870   0.496   0.663   3.033 -0.1188  0.2104  0.5325
  624SOL    HW1 1871   0.556   0.699   2.955  2.9049 -2.2005  3.7697
  624SOL    HW2 1872   0.504   0.722   3.118 -2.6708  0.2763 -0.0034
  625SOL     OW 1873   2.746   1.715   0.996  0.4329  0.2033  0.1000
  625SOL    HW1 1874   2.656   1.769   1.006  1.3857  0.3875  0.2510
  625SOL    HW2 1875   2.825   1.775   1.027 -1.4819 -0.3361  1.2472
  626SOL     OW 1876   0.654   2.675   1.731  0.0566 -0.1528 -0.4885
  626SOL    HW1 1877   0.705   2.709   1.812 -0.2289 -0.2367 -2.6185
  626SOL    HW2 1878   0.550   2.669   1.742  0.8354  4.2414 -4.1221
  627SOL     OW 1879   0.683   0.832   1.674  0.1727  0.0922  0.0079
  627SOL    HW1 1880   0.622   0.761   1.622  0.0621  0.7222 -0.5882
  627SOL    HW2 1881   0.736   0.897   1.610  0.6622 -0.2086 -2.1337
  628SOL     OW 1882   2.383   0.128   0.743  0.4809  0.5729 -0.5244
  628SOL    HW1 1883   2.418   0.051   0.679  0.8886 -0.3643 -1.2747
  628SOL    HW2 1884   2.279   0.117   0.763  1.5723 -2.3539 -0.9378
  629SOL     OW 1885   1.913   0.932   1.982 -0.0578 -0.0265 -0.2912
  629SOL    HW1 1886   1.931   1.033   1.955  1.1234 -0.3033  0.3311
  629SOL    HW2 1887   1.919   0.926   2.088 -0.4779  0.6789 -0.3507
  630SOL     OW 1888   2.901   2.210   0.810 -0.0238  0.2963  0.3589
  630SOL    HW1 1889   2.840   2.292   0.835 -0.5536  0.6499  1.9771
  630SOL    HW2 1890   2.855   2.120   0.800  2.9396 -0.3902  1.8433
  631SOL     OW 1891   3.065   0.116   2.081  0.9204  0.8331  0.0097
  631SOL    HW1 1892   3.126   0.174   2.146  0.8037 -0.4209  0.9888
  631SOL    HW2 1893   3.112   0.083   1.994  0.9958 -0.1861 -0.5677
  632SOL     OW 1894   2.405   2.574   0.646  0.8332 -0.1288 -0.5176
  632SOL    HW1 1895   2.482   2.643   0.673 -0.3136 -0.9875  2.5978
  632SOL    HW2 1896   2.356   2.606   0.565 -0.6420  0.3103  0.6229
  633SOL     OW 1897   1.495   1.261   2.674 -0.2990  0.0713  0.5412
  633SOL    HW1 1898   1.482   1.339   2.746  0.1725  0.7921  1.1698
  633SOL    HW2 1899   1.427   1.258   2.594 -1.6275 -2.0483 -1.1097
  634SOL     OW 1900   0.696   2.077   0.845 -0.4930 -0.3311 -0.0512
  634SOL    HW1 1901   0.607   2.085   0.900  0.3718 -0.8321  2.4632
  634SOL    HW2 1902   0.768   2.137   0.889 -0.8774  1.5113  1.1596
  635SOL     OW 1903   3.075   2.383   0.020 -0.1589 -0.3363 -0.3142
  635SOL    HW1 1904   2.991   2.425  -0.026 -0.2889  1.2792 -0.6695
  635SOL    HW2 1905   3.131   2.452   0.074  0.8565  0.5332 -0.8226
  636SOL     OW 1906   2.367   2.687   2.067 -0.1284 -0.4562 -0.2967
  636SOL    HW1 1907   2.338   2.791   2.066  2.9514  2.6837  0.1492
  636SOL    HW2 1908   2.306   2.623   2.127 -0.0057  0.1051  1.5274
  637SOL     OW 1909   2.716   0.614   1.989  0.4461  0.7210  0.4514
  637SOL    HW1 1910   2.640   0.620   1.913  1.1708  1.7483  0.9544
  637SOL    HW2 1911   2.785   0.696   1.975  2.0551  1.4497 -1.7562
  638SOL     OW 1912   2.454   1.869   1.312  0.2984  0.0278 -0.2759
  638SOL    HW1 1913   2.350   1.865   1.325  0.7158  0.9098  1.4748
  638SOL    HW2 1914   2.495   1.787   1.363 -1.4487  0.6047  2.4651
  639SOL     OW 1915   1.255   2.211   1.645  0.4709  0.2492  0.3553
  639SOL    HW1 1916   1.324   2.287   1.669 -0.9500  1.0152 -0.7706
  639SOL    HW2 1917   1.208   2.168   1.727  3.8731  0.7614 -0.5347
  640SOL     OW 1918   0.182   1.218   1.543  0.2017 -0.8834  0.0837
  640SOL    HW1 1919   0.178   1.235   1.644  1.3600  0.7890  0.6729
  640SOL    HW2 1920   0.256   1.147   1.521  0.0315 -2.1987  1.3749
  641SOL     OW 1921   1.968   0.238   1.529 -0.4367 -0.3928  0.0231
  641SOL    HW1 1922   1.909   0.262   1.614  0.8516  0.6344  0.1230
  641SOL    HW2 1923   2.063   0.205   1.548  0.8176  0.3068 -2.5601
  642SOL     OW 1924   2.039   0.005   0.329 -0.0672  0.5187 -0.3469
  642SOL    HW1 1925   2.141   0.015   0.346 -1.2073 -0.8091 -1.1380
  642SOL    HW2 1926   1.990  -0.020   0.415 -1.4562  2.7708 -3.1574
  643SOL     OW 1927   2.895   1.945   2.149 -0.2576  0.4757  0.2793
  643SOL    HW1 1928   2.856   1.847   2.145  1.3972 -1.1773  1.3719
  643SOL    HW2 1929   2.869   2.004   2.067 -0.4765 -1.6823 -2.3901
  644SOL     OW 1930   2.289   2.424   1.239 -0.2755  0.3610 -0.2186
  644SOL    HW1 1931   2.358   2.369   1.179  0.1742  1.2306  1.5118
  644SOL    HW2 1932   2.291   2.394   1.339  1.8321  0.4992 -1.9498
  645SOL     OW 1933   0.686   0.850   1.251 -0.2247  0.0480 -0.0214
  645SOL    HW1 1934   0.581   0.860   1.258  0.9762  0.7711 -0.8687
  645SOL    HW2 1935   0.706   0.813   1.156 -1.4455 -0.6134 -0.2426
  646SOL     OW 1936   1.517   1.804   2.038 -0.4686  0.1597  0.1159
  646SOL    HW1 1937   1.586   1.826   1.964  0.6749  1.3809  0.9133
  646SOL    HW2 1938   1.560   1.791   2.130  0.6931  0.3954 -1.4383
  647SOL     OW 1939   0.781   1.094   0.645  0.6413  0.5566  0.3174
  647SOL    HW1 1940   0.847   1.105   0.722  0.2821  1.0945  0.4650
  647SOL    HW2 1941   0.729   1.005   0.649  1.5370 -0.1472  0.7903
  648SOL     OW 1942   0.182   0.213   0.369  0.1006 -0.0609 -0.2374
  648SOL    HW1 1943   0.178   0.115   0.331  0.1241 -2.6315 -1.7904
  648SOL    HW2 1944   0.169   0.280   0.290 -1.7930 -0.0405 -1.6440
  649SOL     OW 1945   2.992   0.271   0.887 -0.2757 -0.0468 -0.6680
  649SOL    HW1 1946   3.048   0.244   0.804  1.0922 -2.6684 -0.3249
  649SOL    HW2 1947   3.016   0.362   0.926  0.7850  0.3351 -1.6831
  650SOL     OW 1948   2.816   0.712   1.507  0.0828 -0.1490  0.3626
  650SOL    HW1 1949   2.721   0.673   1.473  0.7080 -3.9415  0.4459
  650SOL    HW2 1950   2.832   0.813   1.488  1.1171 -1.9068  0.6602
  651SOL     OW 1951   0.870   1.507   1.679 -0.0863 -0.1569  0.4185
  651SOL    HW1 1952   0.879   1.531   1.781 -1.0012  2.0989 -0.8001
  651SOL    HW2 1953   0.957   1.531   1.629 -1.3334  0.4341  0.2243
  652SOL     OW 1954   2.360   2.507   2.494  0.2842 -0.5848 -0.4792
  652SOL    HW1 1955   2.282   2.573   2.501 -0.4837  1.1177 -1.4623
  652SOL    HW2 1956   2.407   2.520   2.402 -0.8519 -0.1116 -1.3185
  653SOL     OW 1957   2.693   1.271   0.191  0.1361 -0.3155  0.2417
  653SOL    HW1 1958   2.727   1.350   0.245  0.1716 -0.9510 -1.4866
  653SOL    HW2 1959   2.768   1.200   0.176 -0.1481  1.9996 -1.2678
  654SOL     OW 1960   1.236   2.138   1.267  0.2798  0.9939  0.4406
  654SOL    HW1 1961   1.255   2.071   1.338 -0.8646  3.0972 -2.0065
  654SOL    HW2 1962   1.267   2.104   1.173  2.2069  0.1898  2.7849
  655SOL     OW 1963   0.180   0.992   1.937 -0.5441  0.2180  0.0858
  655SOL    HW1 1964   0.232   0.925   1.880 -2.5284  1.4633  0.1012
  655SOL    HW2 1965   0.183   1.090   1.903  0.9855 -1.1966 -1.7280
  656SOL     OW 1966   2.583   2.539   2.633  0.3797  0.2266  0.1159
  656SOL    HW1 1967   2.676   2.530   2.585  0.8533  1.1120 -0.9957
  656SOL    HW2 1968   2.508   2.514   2.570  2.4556 -1.3879 -0.1419
  657SOL     OW 1969   3.025   1.057   1.879  0.1221  0.1075 -0.5498
  657SOL    HW1 1970   3.010   1.129   1.949 -2.3198 -4.2490  0.3666
  657SOL    HW2 1971   3.122   1.011   1.889  0.2309 -0.6365 -1.5604
  658SOL     OW 1972   1.662   0.179   2.384  0.3790  0.0787  0.4202
  658SOL    HW1 1973   1.730   0.133   2.449  1.1971  0.0420 -1.5093
  658SOL    HW2 1974   1.632   0.121   2.302 -2.1853 -2.8673 -0.5495
  659SOL     OW 1975   1.444   0.659   2.800 -0.8019 -0.2341  0.2418
  659SOL    HW1 1976   1.504   0.714   2.730  1.8076 -1.3949 -3.1197
  659SOL    HW2 1977   1.350   0.700   2.807 -0.7513  2.6567  0.4199
  660SOL     OW 1978   1.452   0.308   1.411  0.8042  0.0506  0.2325
  660SOL    HW1 1979   1.465   0.363   1.500  0.0004  1.3918 -0.3399
  660SOL    HW2 1980   1.497   0.217   1.418 -2.9433 -1.7623 -3.3004
  661SOL     OW 1981   2.404   1.274   0.640  0.1663  0.0576  0.0037
  661SOL    HW1 1982   2.424   1.265   0.535 -0.6255  0.8537 -0.1190
  661SOL    HW2 1983   2.346   1.354   0.661  2.0923 -2.6921 -2.4890
  662SOL     OW 1984   1.464   0.377   1.709  0.1125  0.5346 -0.1903
  662SOL    HW1 1985   1.411   0.325   1.776 -1.2549 -0.7959 -0.9913
  662SOL    HW2 1986   1.446   0.482   1.706  0.9955  2.0768  0.8481
  663SOL     OW 1987   0.852   1.593   1.944  0.3364 -0.1701 -0.3817
  663SOL    HW1 1988   0.835   1.686   1.982  0.3985 -3.1053  2.9078
  663SOL    HW2 1989   0.773   1.523   1.969  0.6464  0.9510 -1.3995
  664SOL     OW 1990   1.585   2.102   1.418 -0.2952 -0.3171  0.4371
  664SOL    HW1 1991   1.497   2.059   1.456 -2.4335  0.0785  1.4370
  664SOL    HW2 1992   1.671   2.061   1.459 -1.4949 -0.7564 -1.6578
  665SOL     OW 1993   2.258   0.682   1.979  0.0674  0.0895 -0.2260
  665SOL    HW1 1994   2.214   0.586   1.985 -2.3603 -0.9825 -0.1824
  665SOL    HW2 1995   2.329   0.704   2.052 -1.8257  1.1168 -1.3152
  666SOL     OW 1996   0.451   2.233   0.349  0.0508  0.1118 -0.1900
  666SOL    HW1 1997   0.529   2.275   0.408  1.2106  0.8448 -0.3275
  666SOL    HW2 1998   0.353   2.267   0.365  1.0345  0.1141 -0.7409
  667SOL     OW 1999   1.990   0.215   1.068 -0.3113 -0.1644 -0.7348
  667SOL    HW1 2000   1.961   0.313   1.079 -2.0065  0.3863 -0.2232
  667SOL    HW2 2001   1.970   0.163   1.157 -1.7155 -1.2351  0.5209
  668SOL     OW 2002   1.985   0.507   1.088 -0.3798  0.2748 -0.4140
  668SOL    HW1 2003   2.063   0.531   1.030 -0.7022 -2.4912  4.1026
  668SOL    HW2 2004   2.019   0.483   1.185  0.1330  1.9334  0.8203
  669SOL     OW 2005   3.051   2.151   1.027 -0.5338  0.0132 -0.1778
  669SOL    HW1 2006   3.005   2.178   0.933 -1.6442 -0.0487  0.1396
  669SOL    HW2 2007   3.044   2.228   1.098 -2.0432  0.3274  1.4886
  670SOL     OW 2008   2.921   2.329   2.106  0.2025 -0.1178 -0.2529
  670SOL    HW1 2009   2.829   2.319   2.153 -0.5413  1.5021 -0.4229
  670SOL    HW2 2010   2.946   2.418   2.060 -1.0069  0.3167 -1.5060
  671SOL     OW 2011   1.782   1.703   1.492  0.6776  0.6618 -0.3307
  671SOL    HW1 2012   1.796   1.764   1.406  1.4224 -0.4811 -0.0086
  671SOL    HW2 2013   1.726   1.619   1.462 -3.2714  2.0946  1.9775
  672SOL     OW 2014   0.429   0.658   2.584 -0.0399 -0.2939 -0.5135
  672SOL    HW1 2015   0.361   0.711   2.530  2.1768 -2.3366  1.7999
  672SOL    HW2 2016   0.428   0.682   2.682 -0.1215  1.1649  1.2619
  673SOL     OW 2017   0.101   1.380   1.072  0.4285 -0.1980 -0.3164
  673SOL    HW1 2018   0.133   1.398   1.172 -0.1450 -0.3736  0.6445
  673SOL    HW2 2019   0.165   1.421   1.002  1.2475 -1.1600  2.2691
  674SOL     OW 2020   1.601   2.979   0.255  0.5165 -0.3723  0.0885
  674SOL    HW1 2021   1.641   3.049   0.186 -0.1548  0.3958 -2.1784
  674SOL    HW2 2022   1.622   2.881   0.238  0.1050 -0.0793  1.1358
  675SOL     OW 2023   1.673   0.866   2.334  0.4791  0.0645  0.0113
  675SOL    HW1 2024   1.776   0.877   2.310  2.4833  1.5408 -0.5869
  675SOL    HW2 2025   1.632   0.773   2.314  1.4726 -0.9562  0.8820
  676SOL     OW 2026   2.554   1.547   1.999 -0.0516 -0.3242 -0.1122
  676SOL    HW1 2027   2.527   1.516   1.907  1.3693  1.8553 -0.4125
  676SOL    HW2 2028   2.573   1.465   2.068 -2.4851  0.8495  2.1433
  677SOL     OW 2029   1.865   0.718   0.888  0.3180 -0.4951 -0.0445
  677SOL    HW1 2030   1.778   0.741   0.938 -1.4279 -1.1987  0.2479
  677SOL    HW2 2031   1.903   0.631   0.929  1.7078  1.4862  1.6245
  678SOL     OW 2032   0.082   0.804   1.645 -0.0932 -0.9244 -0.1053
  678SOL    HW1 2033   0.181   0.805   1.668  0.4950 -2.6645 -0.5199
  678SOL    HW2 2034   0.031   0.748   1.715 -0.4498  0.5909 -0.6526
  679SOL     OW 2035   2.577   1.109   1.200  0.6540  0.6001 -0.4629
  679SOL    HW1 2036   2.478   1.146   1.206 -0.7636  2.8739  1.3956
  679SOL    HW2 2037   2.581   1.007   1.187 -0.4981  2.7454  0.5131
  680SOL     OW 2038   2.838   0.504   1.685  0.1600 -1.1443 -0.0320
  680SOL    HW1 2039   2.827   0.585   1.616  3.8095 -0.3261  0.6402
  680SOL    HW2 2040   2.885   0.536   1.771  0.8867 -0.2650  0.5545
  681SOL     OW 2041   2.992   0.022   1.562  0.2721  0.5545  0.5515
  681SOL    HW1 2042   2.981  -0.040   1.480 -1.2531 -2.2527  0.0058
  681SOL    HW2 2043   2.932   0.106   1.567 -1.7506  0.2874  0.6864
  682SOL     OW 2044   0.647   0.046   1.278  0.5886 -0.7483  0.0546
  682SOL    HW1 2045   0.607  -0.017   1.355 -0.0533  0.4229  1.3873
  682SOL    HW2 2046   0.725   0.006   1.224 -0.9681  0.2099  0.2708
  683SOL     OW 2047   1.381   0.237   2.138 -0.0540 -0.3799 -0.1436
  683SOL    HW1 2048   1.377   0.246   2.238  0.2272 -0.0822 -3.9110
  683SOL    HW2 2049   1.480   0.249   2.105 -0.9037 -1.5600  0.1699
  684SOL     OW 2050   1.421   2.174   0.576 -0.0877 -0.4299 -0.0466
  684SOL    HW1 2051   1.487   2.114   0.626 -0.7072  0.7790  1.5756
  684SOL    HW2 2052   1.332   2.122   0.554 -1.7032 -0.1137  0.4552
  685SOL     OW 2053   2.261   2.078   1.977 -0.2209  0.2805 -0.1761
  685SOL    HW1 2054   2.348   2.023   1.970  0.1281  1.1911 -1.0897
  685SOL    HW2 2055   2.262   2.130   2.064  2.3220  0.3915 -0.1264
  686SOL     OW 2056   1.544   1.882   2.944 -0.4632 -0.0399 -0.2954
  686SOL    HW1 2057   1.581   1.841   3.034  0.3439  0.6175 -0.1051
  686SOL    HW2 2058   1.441   1.871   2.930 -0.9582  0.1397 -0.3077
  687SOL     OW 2059   1.356   2.393   1.953 -0.4284  0.1131  0.0032
  687SOL    HW1 2060   1.393   2.304   1.977 -1.0948  0.4013  0.8272
  687SOL    HW2 2061   1.375   2.465   2.026 -1.1127 -1.2384  0.9153
  688SOL     OW 2062   2.092   1.486   1.734  0.3275  0.2404 -0.0142
  688SOL    HW1 2063   2.166   1.559   1.728  1.7925  0.6975  0.1906
  688SOL    HW2 2064   2.050   1.455   1.643 -1.5894  0.3113  0.7832
  689SOL     OW 2065   2.379   1.128   2.771  0.5303  0.1586 -0.5198
  689SOL    HW1 2066   2.284   1.092   2.799 -1.7726  0.5014  0.4429
  689SOL    HW2 2067   2.460   1.090   2.825  1.3895  2.0874  1.7848
  690SOL     OW 2068   2.199   2.751   0.067 -0.2460  0.4038 -0.1365
  690SOL    HW1 2069   2.174   2.710  -0.030  1.3115 -0.9874 -1.7762
  690SOL    HW2 2070   2.118   2.769   0.135  0.0787 -1.3136 -3.2237
  691SOL     OW 2071   2.569   0.416   2.125  0.1401  0.7089 -0.2908
  691SOL    HW1 2072   2.592   0.316   2.149  0.7903  1.1260  0.4504
  691SOL    HW2 2073   2.636   0.468   2.063 -1.4916 -0.5548  0.0457
  692SOL     OW 2074   2.669   1.223   0.774 -0.0746 -0.2100  0.1125
  692SOL    HW1 2075   2.572   1.220   0.741  1.7164  1.8109  1.0660
  692SOL    HW2 2076   2.694   1.312   0.822  2.2849 -0.9573 -0.4598
  693SOL     OW 2077   2.855   2.931   0.608 -0.6716  0.2944  0.4147
  693SOL    HW1 2078   2.861   3.008   0.676  2.8781 -1.6471  0.2749
  693SOL    HW2 2079   2.864   2.970   0.513 -0.3797  1.8088  0.9501
  694SOL     OW 2080   2.386   2.241   0.161  0.1092 -0.2289  0.3001
  694SOL    HW1 2081   2.369   2.335   0.188  0.4478 -1.5778 -2.0239
  694SOL    HW2 2082   2.305   2.196   0.117  1.9329 -1.6686  0.4797
  695SOL     OW 2083   0.474   2.999   1.461 -0.1227  0.0924 -0.2321
  695SOL    HW1 2084   0.415   2.948   1.389  0.3640 -0.5821  1.1382
  695SOL    HW2 2085   0.419   3.018   1.548  0.4142 -0.4531 -1.7402
  696SOL     OW 2086   2.767   1.974   0.748  0.0669 -0.1372 -0.3278
  696SOL    HW1 2087   2.835   1.914   0.791 -0.3813  0.5832 -1.9260
  696SOL    HW2 2088   2.780   1.973   0.645  1.5086 -0.7484 -0.4147
  697SOL     OW 2089   1.679   1.870   1.814 -0.2161 -0.1964  0.0849
  697SOL    HW1 2090   1.772   1.832   1.778  1.1591 -0.4973  0.2802
  697SOL    HW2 2091   1.679   1.973   1.823  0.9954  1.0390 -0.2114
  698SOL     OW 2092   2.909   0.433   2.655 -0.5588 -0.0349  0.2880
  698SOL    HW1 2093   2.911   0.401   2.558  3.2450  3.8173  0.1266
  698SOL    HW2 2094   2.957   0.369   2.722 -2.4058  0.8384 -0.3415
  699SOL     OW 2095   1.565   0.083   2.920 -0.4871  0.0423 -0.4429
  699SOL    HW1 2096   1.526   0.001   2.872  0.1318  1.5377 -1.1806
  699SOL    HW2 2097   1.614   0.148   2.855 -0.0073 -1.4374  0.5782
  700SOL     OW 2098   0.994   2.234   1.353 -0.1375 -0.2105  0.0792
  700SOL    HW1 2099   1.082   2.195   1.324  2.6374  4.2727  2.5849
  700SOL    HW2 2100   0.907   2.179   1.330 -1.2079 -0.7873  2.2395
  701SOL     OW 2101   1.909   2.848   0.056 -0.3271 -0.4849 -0.0952
  701SOL    HW1 2102   1.887   2.801   0.145  3.1229  1.7169 -0.6853
  701SOL    HW2 2103   1.930   2.948   0.058  0.1864 -0.0679  4.5394
  702SOL     OW 2104   2.104   1.357   1.960  0.1511  0.2064 -0.0258
  702SOL    HW1 2105   2.189   1.299   1.975 -1.2770  0.6903  0.0834
  702SOL    HW2 2106   2.097   1.401   1.866 -0.0608 -1.8302  1.6775
  703SOL     OW 2107   1.931   0.906   1.514 -0.4884  0.5320  0.7251
  703SOL    HW1 2108   1.939   0.801   1.517  3.3012  0.2242 -0.8815
  703SOL    HW2 2109   1.984   0.950   1.589 -1.5441  0.1463 -0.8427
  704SOL     OW 2110   0.317   2.057   1.707  0.1226 -0.4143 -0.3923
  704SOL    HW1 2111   0.358   1.982   1.768 -0.1265  1.9343 -0.2039
  704SOL    HW2 2112   0.390   2.120   1.665  1.5847 -0.6452 -2.4321
  705SOL     OW 2113   2.433   1.447   0.924 -0.0917  0.5593  0.2472
  705SOL    HW1 2114   2.377   1.381   0.869 -0.4184 -0.4525 -0.1994
  705SOL    HW2 2115   2.536   1.425   0.930 -0.6027 -1.2990  2.5636
  706SOL     OW 2116   0.624   1.705   1.814  0.3468 -0.1907 -0.1064
  706SOL    HW1 2117   0.649   1.766   1.733  1.5702  1.3048 -1.6001
  706SOL    HW2 2118   0.698   1.632   1.836 -2.7933  0.6185 -0.6531
  707SOL     OW 2119   2.332   1.219   1.989 -0.1070 -0.2398 -0.1398
  707SOL    HW1 2120   2.383   1.197   2.074 -3.0982  0.0807  0.8299
  707SOL    HW2 2121   2.312   1.131   1.935  1.4167 -0.3228  1.3004
  708SOL     OW 2122   3.022   0.475   3.077  0.3626 -0.5776 -0.1049
  708SOL    HW1 2123   3.071   0.555   3.040 -2.0477 -1.2178  1.0860
  708SOL    HW2 2124   3.009   0.401   3.005  1.5898  1.3491  3.2411
  709SOL     OW 2125   1.881   1.899   0.382  0.1034 -0.2994  0.2504
  709SOL    HW1 2126   1.878   2.001   0.396 -0.2966  1.8235 -0.6375
  709SOL    HW2 2127   1.866   1.870   0.282  1.9253 -1.6278 -0.6291
  710SOL     OW 2128   1.798   1.573   2.456  0.8568  0.2169  0.2801
  710SOL    HW1 2129   1.853   1.499   2.415  1.2174 -1.9156 -0.0625
  710SOL    HW2 2130   1.775   1.549   2.555 -1.4567  1.1211 -0.0841
  711SOL     OW 2131   2.700   2.888   0.938 -0.0898  0.6504 -0.5440
  711SOL    HW1 2132   2.664   2.976   0.898  2.2843 -0.6718  0.7142
  711SOL    HW2 2133   2.800   2.901   0.963 -0.6819  1.8040 -1.9683
  712SOL     OW 2134   1.403   2.118   1.982  0.1842  0.1239  0.6015
  712SOL    HW1 2135   1.476   2.135   1.911  0.7910 -0.6405  1.7281
  712SOL    HW2 2136   1.314   2.098   1.944  1.7402  1.0082 -0.7691
  713SOL     OW 2137   2.782   1.411   2.507 -0.4316  0.1300 -0.3917
  713SOL    HW1 2138   2.803   1.310   2.500  0.4910  0.6984  1.4640
  713SOL    HW2 2139   2.710   1.442   2.572 -0.4504 -0.8951  0.7012
  714SOL     OW 2140   2.689   0.497   2.373  0.0923  0.0559  0.1519
  714SOL    HW1 2141   2.634   0.447   2.447 -0.2526 -3.2420 -1.9725
  714SOL    HW2 2142   2.660   0.470   2.279  0.2691 -1.8325 -2.2364
  715SOL     OW 2143   1.581   2.165   1.148  0.3815  0.4329 -0.1803
  715SOL    HW1 2144   1.487   2.211   1.135 -0.0512 -2.7646 -1.1002
  715SOL    HW2 2145   1.598   2.124   1.241 -1.2017 -0.7445 -0.0969
  716SOL     OW 2146   1.267   0.116   1.522 -0.3097 -0.0356 -0.3186
  716SOL    HW1 2147   1.166   0.123   1.506 -0.0882 -5.1464  4.0639
  716SOL    HW2 2148   1.329   0.187   1.481 -1.1540 -0.9470  1.3975
  717SOL     OW 2149   1.158   0.578   1.630 -0.6944  0.0789 -0.1277
  717SOL    HW1 2150   1.254   0.613   1.647  0.2595 -1.1036 -2.5303
  717SOL    HW2 2151   1.148   0.541   1.531  1.2341 -2.8834 -1.1596
  718SOL     OW 2152   0.668   0.873   0.963  0.4969  0.1612 -0.0139
  718SOL    HW1 2153   0.650   0.866   0.860  0.2526  3.9727  0.1328
  718SOL    HW2 2154   0.664   0.969   0.991  0.4895 -2.5603  0.0267
  719SOL     OW 2155   0.682   1.728   2.286 -0.1960 -0.1279  0.6773
  719SOL    HW1 2156   0.738   1.746   2.371  1.3698  0.8318  3.2189
  719SOL    HW2 2157   0.638   1.633   2.278 -0.8077  2.5583  2.0588
  720SOL     OW 2158   2.186   1.164   0.286 -0.2518 -0.4989  0.8011
  720SOL    HW1 2159   2.268   1.099   0.259  0.5262  0.1843  0.5598
  720SOL    HW2 2160   2.151   1.151   0.384 -1.3065 -0.5985  0.1189
  721SOL     OW 2161   2.246   3.020   2.122 -0.5336  0.4589 -0.4475
  721SOL    HW1 2162   2.195   3.018   2.033  0.3397 -0.9489  0.3219
  721SOL    HW2 2163   2.193   3.066   2.203  2.8580 -2.0833  1.1210
  722SOL     OW 2164   2.356   1.684   0.544 -0.0677  0.1234 -0.1961
  722SOL    HW1 2165   2.417   1.667   0.464  1.6585 -0.1188 -1.0548
  722SOL    HW2 2166   2.257   1.701   0.521 -0.4884  0.3386 -1.1395
  723SOL     OW 2167   2.644   2.777   1.946 -0.2517 -0.0378 -0.1873
  723SOL    HW1 2168   2.687   2.865   1.977  0.3536  1.3482  0.7405
  723SOL    HW2 2169   2.560   2.756   2.003 -0.9736 -0.6662  1.4494
  724SOL     OW 2170   0.378   2.518   2.405  0.1343  0.0739  0.0129
  724SOL    HW1 2171   0.273   2.522   2.424 -0.9212 -0.9488 -1.8914
  724SOL    HW2 2172   0.424   2.478   2.484 -0.6866  0.7562 -0.4815
  725SOL     OW 2173   2.448   2.850   1.473 -0.3325 -0.2030  1.1605
  725SOL    HW1 2174   2.498   2.867   1.384 -2.8962  0.6586 -0.6525
  725SOL    HW2 2175   2.439   2.747   1.507 -0.0109 -0.6509  0.4270
  726SOL     OW 2176   2.535   2.335   0.690 -0.3368  0.2527  0.3860
  726SOL    HW1 2177   2.471   2.414   0.679  3.8584 -1.7887  0.6337
  726SOL    HW2 2178   2.509   2.255   0.632  0.5236 -0.6878 -1.5144
  727SOL     OW 2179   0.106   0.005   0.099  0.0057  0.1898  0.2226
  727SOL    HW1 2180   0.207   0.029   0.082 -0.5951  1.9303  0.9110
  727SOL    HW2 2181   0.082  -0.081   0.052 -0.2179 -0.5528 -0.4620
  728SOL     OW 2182   2.915   0.702   0.940  0.9306 -0.5460 -0.5536
  728SOL    HW1 2183   2.865   0.681   0.849  0.4718 -0.6731  1.4746
  728SOL    HW2 2184   2.870   0.648   1.018  0.4196 -0.1244 -0.5736
  729SOL     OW 2185   0.033   2.548   0.784  0.0285 -0.5150  0.3120
  729SOL    HW1 2186   0.094   2.517   0.860 -1.7980 -1.7967  1.4369
  729SOL    HW2 2187   0.089   2.544   0.698  4.2182 -0.8812 -0.8608
  730SOL     OW 2188   2.576   0.691   0.897  0.4885 -0.5895  0.2371
  730SOL    HW1 2189   2.545   0.787   0.882 -0.6126 -0.8913 -1.4210
  730SOL    HW2 2190   2.637   0.658   0.821 -1.3298  0.3600 -1.3388
  731SOL     OW 2191   3.087   2.191   2.336 -0.2765 -0.5425  0.4125
  731SOL    HW1 2192   3.057   2.238   2.423  0.3133 -0.6405  0.2480
  731SOL    HW2 2193   3.031   2.222   2.250  1.8747  1.9665 -0.7539
  732SOL     OW 2194   1.281   2.746   2.002  0.1579  0.2437  0.4689
  732SOL    HW1 2195   1.276   2.672   2.073 -0.5371  1.2995 -0.0620
  732SOL    HW2 2196   1.262   2.706   1.908  0.1352  0.0354  0.9115
  733SOL     OW 2197   0.030   0.594   2.259  0.0242 -0.2021  0.3391
  733SOL    HW1 2198   0.087   0.654   2.192  0.9726 -0.4691 -0.1079
  733SOL    HW2 2199  -0.025   0.521   2.209  1.3282 -1.6617 -0.6746
  734SOL     OW 2200   1.462   0.396   2.715 -0.0130 -0.7446 -0.3715
  734SOL    HW1 2201   1.455   0.499   2.738  1.6228 -0.3374  1.1270
  734SOL    HW2 2202   1.373   0.346   2.743 -1.8910  1.3009 -3.6290
  735SOL     OW 2203   2.955   2.647   2.295 -0.4850  0.4824 -0.2900
  735SOL    HW1 2204   2.925   2.641   2.195  1.2945 -2.2908 -1.3306
  735SOL    HW2 2205   3.042   2.692   2.313 -0.8407  1.1007 -0.3247
  736SOL     OW 2206   0.922   0.412   2.550 -0.4714 -0.2622 -0.2352
  736SOL    HW1 2207   0.833   0.462   2.554 -0.7020  1.6028  0.2903
  736SOL    HW2 2208   0.914   0.317   2.510  2.6103  0.5470 -2.0436
  737SOL     OW 2209   2.621   0.443   2.780 -0.4506 -0.2846  0.2907
  737SOL    HW1 2210   2.624   0.422   2.879 -2.8761  1.2458  1.1410
  737SOL    HW2 2211   2.717   0.432   2.738 -1.3983  1.7655  0.3739
  738SOL     OW 2212   1.744   1.228   2.944  0.1495 -0.0484 -0.1976
  738SOL    HW1 2213   1.826   1.204   2.884  0.3498  0.9633  2.1054
  738SOL    HW2 2214   1.719   1.143   2.997 -0.1530  1.7284  1.2255
  739SOL     OW 2215   1.840   0.691   0.606  0.1351 -0.5508  0.4133
  739SOL    HW1 2216   1.857   0.692   0.712 -0.5461 -1.0339  0.0304
  739SOL    HW2 2217   1.840   0.599   0.567 -0.0252  0.6456  0.0495
  740SOL     OW 2218   1.966   1.943   2.335 -0.2704 -0.1256 -0.2195
  740SOL    HW1 2219   2.030   1.859   2.362 -1.4540  2.0411  2.0678
  740SOL    HW2 2220   1.887   1.917   2.274  0.9017 -1.4587  0.3234
  741SOL     OW 2221   2.527   0.010   2.464 -0.1737 -0.8148  0.3997
  741SOL    HW1 2222   2.628   0.033   2.456  0.1006 -1.1135 -2.1388
  741SOL    HW2 2223   2.469   0.060   2.391  0.9811 -2.5654 -1.8124
  742SOL     OW 2224   2.183   1.412   0.181  0.0281  0.7986 -0.7224
  742SOL    HW1 2225   2.094   1.448   0.142 -0.1966 -2.0570 -0.7287
  742SOL    HW2 2226   2.164   1.323   0.225 -0.1850  2.2809  0.9129
  743SOL     OW 2227   1.833   0.614   2.616 -0.1858 -0.0337 -0.0915
  743SOL    HW1 2228   1.781   0.540   2.564  1.2773 -0.7980 -0.7185
  743SOL    HW2 2229   1.770   0.692   2.646  1.2580 -1.1444  0.6140
  744SOL     OW 2230   2.651   2.170   0.076  0.3505 -0.1035 -0.7071
  744SOL    HW1 2231   2.593   2.216   0.151  0.8806  2.6551  0.9841
  744SOL    HW2 2232   2.685   2.077   0.104  1.5579  0.5897 -3.6947
  745SOL     OW 2233   2.202   2.549   2.217  0.3013  0.4295 -0.2377
  745SOL    HW1 2234   2.126   2.573   2.151  0.5796  1.2944  0.7190
  745SOL    HW2 2235   2.163   2.551   2.317 -0.9513  1.8888  1.2591
  746SOL     OW 2236   0.024   2.589   1.753  0.2194  0.5388 -0.1826
  746SOL    HW1 2237   0.102   2.551   1.698 -0.1884 -0.6392  2.2723
  746SOL    HW2 2238   0.040   2.686   1.783  0.2662 -0.0808  0.1719
  747SOL     OW 2239   0.038   1.793   1.643  0.6461  0.1257  0.0698
  747SOL    HW1 2240  -0.007   1.710   1.611  1.9643  0.3215 -2.7960
  747SOL    HW2 2241   0.098   1.848   1.579  0.8237  0.9895 -0.3199
  748SOL     OW 2242   1.836   2.724   2.910  0.1009  0.0624 -0.1973
  748SOL    HW1 2243   1.864   2.791   2.993  0.1450  4.1514  1.4751
  748SOL    HW2 2244   1.735   2.732   2.878 -1.4425  2.8593  0.0725
  749SOL     OW 2245   1.316   2.961   0.854  0.6610  0.2289  0.6365
  749SOL    HW1 2246   1.257   3.027   0.805  0.9628  3.2616 -1.0769
  749SOL    HW2 2247   1.401   2.932   0.801 -2.6019  1.0742  0.6371
  750SOL     OW 2248   2.222   0.178   1.856  0.0303  0.2361  0.0269
  750SOL    HW1 2249   2.260   0.199   1.763 -1.9985 -0.4016 -0.0034
  750SOL    HW2 2250   2.239   0.248   1.925 -3.1627 -1.8437 -1.1817
  751SOL     OW 2251   0.784   2.140   2.878  0.2683  0.0057 -0.7921
  751SOL    HW1 2252   0.874   2.115   2.926 -0.8483 -1.7341  0.3063
  751SOL    HW2 2253   0.704   2.087   2.915 -1.6207  2.1289 -0.4258
  752SOL     OW 2254   1.314   0.799   1.165 -0.7719 -0.0110 -0.3784
  752SOL    HW1 2255   1.361   0.891   1.189 -0.0507 -0.9187  0.4526
  752SOL    HW2 2256   1.362   0.724   1.216 -1.7360 -0.0371  2.0255
  753SOL     OW 2257   0.962   2.568   1.790  0.0131  0.5267  0.5855
  753SOL    HW1 2258   1.060   2.595   1.788 -3.4057 -2.1699 -2.7587
  753SOL    HW2 2259   0.897   2.647   1.802  2.0395 -1.6996 -1.9364
  754SOL     OW 2260   1.178   1.151   2.990 -0.1880  0.2677  0.2135
  754SOL    HW1 2261   1.240   1.079   2.940  0.6042 -0.4120 -1.4274
  754SOL    HW2 2262   1.223   1.243   3.004  0.2731  0.4787  1.0661
  755SOL     OW 2263   1.964   0.464   2.212  0.0167 -0.0810 -0.0567
  755SOL    HW1 2264   2.050   0.413   2.251  1.8588  0.8892 -1.5992
  755SOL    HW2 2265   1.880   0.443   2.265 -0.8885 -1.5584  0.2817
  756SOL     OW 2266   2.498   0.976   3.004  0.2637  0.5874  0.0770
  756SOL    HW1 2267   2.602   0.960   3.016 -0.7134 -0.8479  1.0770
  756SOL    HW2 2268   2.435   0.898   3.030  0.7999 -0.9396 -1.4346
  757SOL     OW 2269   0.086   0.418   1.965 -0.4636 -0.3136 -0.0650
  757SOL    HW1 2270   0.121   0.332   1.929  2.7713  0.2989 -0.4542
  757SOL    HW2 2271  -0.008   0.407   2.013  2.0845 -0.9187 -0.8862
  758SOL     OW 2272   2.253   0.083   1.500 -0.6492  0.3768  0.3372
  758SOL    HW1 2273   2.242  -0.010   1.541 -2.1301 -0.9169 -2.7074
  758SOL    HW2 2274   2.302   0.078   1.411 -1.5519  0.7574  2.0506
  759SOL     OW 2275   1.694   0.064   0.062 -0.4615 -0.6003  0.4212
  759SOL    HW1 2276   1.635   0.070  -0.023 -1.7290 -1.8275 -1.3928
  759SOL    HW2 2277   1.791   0.037   0.041 -0.8137 -2.4691 -0.4151
  760SOL     OW 2278   2.698   2.012   2.840 -0.4068 -0.1116 -0.2831
  760SOL    HW1 2279   2.596   1.990   2.858 -0.3463 -2.9583 -3.0054
  760SOL    HW2 2280   2.717   2.107   2.876 -1.0962  0.8060 -0.3681
  761SOL     OW 2281   1.920   1.753   1.722  0.2861 -0.4052  0.4863
  761SOL    HW1 2282   1.960   1.660   1.746  0.7293 -0.1534 -0.7948
  761SOL    HW2 2283   1.873   1.740   1.626  1.3200  0.5649 -0.0045
  762SOL     OW 2284   0.487   2.413   0.928 -0.0325 -0.3661 -0.1075
  762SOL    HW1 2285   0.532   2.411   0.833 -2.6716 -0.2200  0.5958
  762SOL    HW2 2286   0.556   2.411   1.006 -1.3724 -2.0613  0.4933
  763SOL     OW 2287   2.115   1.589   2.980 -0.5166 -0.5067 -0.0584
  763SOL    HW1 2288   2.206   1.538   2.988  1.1757 -1.5166  0.9502
  763SOL    HW2 2289   2.042   1.538   3.027 -0.8325 -0.1451 -0.2599
  764SOL     OW 2290   0.676   0.603   0.674  0.5198  0.1118  0.2537
  764SOL    HW1 2291   0.582   0.566   0.649 -1.7073 -2.0245 -0.6890
  764SOL    HW2 2292   0.699   0.591   0.776  1.5238  2.7935  1.3271
  765SOL     OW 2293   0.811   0.334   0.706 -0.2727  0.0535  0.1855
  765SOL    HW1 2294   0.885   0.351   0.639  2.8928  0.9001 -0.7163
  765SOL    HW2 2295   0.806   0.409   0.782 -0.2389 -2.3904 -1.3572
  766SOL     OW 2296   2.923   2.156   3.066  0.2898 -0.2461  0.2800
  766SOL    HW1 2297   2.824   2.184   3.083  2.4262 -2.0820  2.6406
  766SOL    HW2 2298   2.986   2.238   3.069  1.5310 -0.0948 -0.3807
  767SOL     OW 2299   2.831   1.605   0.591 -0.2350  0.2958  0.6276
  767SOL    HW1 2300   2.739   1.617   0.634 -0.0645  0.3986  0.8730
  767SOL    HW2 2301   2.907   1.615   0.661  0.4007 -0.6443  1.5666
  768SOL     OW 2302   1.065   0.196   0.184  0.3658  0.2291 -0.1344
  768SOL    HW1 2303   1.035   0.240   0.273 -0.4250  0.1481  0.6268
  768SOL    HW2 2304   1.163   0.160   0.180 -1.5306 -0.6766  2.9334
  769SOL     OW 2305   1.133   1.823   2.288 -0.3572  0.1877  0.1564
  769SOL    HW1 2306   1.047   1.860   2.330  1.9850  1.2172 -1.9124
  769SOL    HW2 2307   1.212   1.816   2.363  0.3624  0.1974  0.3730
  770SOL     OW 2308   0.164   1.149   2.338 -0.7524 -0.1996 -0.3167
  770SOL    HW1 2309   0.131   1.230   2.400 -0.9336 -0.7958  1.5373
  770SOL    HW2 2310   0.087   1.087   2.313  0.0903 -2.6887  0.7816
  771SOL     OW 2311   3.036   2.823   1.932 -0.2562  0.1075  0.2019
  771SOL    HW1 2312   2.996   2.867   1.850 -0.4666  1.4419  0.6244
  771SOL    HW2 2313   3.000   2.857   2.022 -2.2296  0.7566  0.3269
  772SOL     OW 2314   2.358   0.239   2.822  0.5150  0.2283 -0.8094
  772SOL    HW1 2315   2.447   0.192   2.799 -1.1212 -0.7727 -2.5776
  772SOL    HW2 2316   2.338   0.242   2.923  0.3100  0.0818  2.9314
  773SOL     OW 2317   0.586   2.057   2.416 -0.0361  0.0331 -0.3348
  773SOL    HW1 2318   0.561   2.149   2.384  0.5947 -1.8569  1.4659
  773SOL    HW2 2319   0.505   2.004   2.447 -0.6346  2.3557  1.8524
  774SOL     OW 2320   2.130   0.023   2.583 -0.2013  0.2306 -0.3395
  774SOL    HW1 2321   2.117   0.096   2.661  0.6703  0.1838 -0.0252
  774SOL    HW2 2322   2.180  -0.057   2.627 -0.8649  0.0705  0.3476
  775SOL     OW 2323   2.546   2.934   2.239 -0.0185  0.5507  0.1183
  775SOL    HW1 2324   2.495   3.021   2.247 -1.3689  2.1568  0.0526
  775SOL    HW2 2325   2.604   2.911   2.319 -2.0521  2.6176 -1.7899
  776SOL     OW 2326   0.013   1.248   0.198 -0.3809  0.4811 -0.4649
  776SOL    HW1 2327  -0.035   1.234   0.109 -0.9451 -0.2220  0.5943
  776SOL    HW2 2328  -0.048   1.222   0.277 -4.6975 -0.0071 -0.6691
  777SOL     OW 2329   0.395   2.958   0.474 -0.0563 -0.2820 -0.7278
  777SOL    HW1 2330   0.293   2.966   0.456 -2.7686  0.4528 -1.8062
  777SOL    HW2 2331   0.437   2.882   0.419 -2.1556 -3.5550 -0.4572
  778SOL     OW 2332   1.381   2.009   0.269 -0.4181 -0.0289 -0.0052
  778SOL    HW1 2333   1.310   2.056   0.329 -0.3826 -0.5688  2.9162
  778SOL    HW2 2334   1.402   2.053   0.177  1.0950  0.3326  0.1846
  779SOL     OW 2335   0.156   0.801   0.473 -0.0359 -0.3393  0.2388
  779SOL    HW1 2336   0.093   0.730   0.427  1.2586  3.1048 -0.8247
  779SOL    HW2 2337   0.111   0.883   0.511 -0.0430 -0.9959 -1.1466
  780SOL     OW 2338   0.117   0.305   2.334 -0.2844 -0.7988  0.0059
  780SOL    HW1 2339   0.089   0.375   2.405 -1.0830  0.4336 -0.1098
  780SOL    HW2 2340   0.203   0.340   2.282  0.4386  0.1629 -1.5931
  781SOL     OW 2341   0.709   1.680   1.514  0.4291  0.7500  0.0231
  781SOL    HW1 2342   0.753   1.609   1.575  1.8369  1.8998 -1.2417
  781SOL    HW2 2343   0.609   1.659   1.499 -0.3104  0.5033  1.4212
  782SOL     OW 2344   2.570   0.056   0.922 -0.2574  0.1429  0.3552
  782SOL    HW1 2345   2.518   0.118   0.858  0.4205  1.2576  0.7306
  782SOL    HW2 2346   2.520   0.037   1.010 -0.3254  1.2206 -0.9634
  783SOL     OW 2347   2.755   0.734   2.464  0.3085  0.7328  0.0870
  783SOL    HW1 2348   2.723   0.756   2.558  0.4673 -2.2814 -1.9628
  783SOL    HW2 2349   2.734   0.635   2.441 -1.0437  1.4330  2.8686
  784SOL     OW 2350   1.428   2.139   0.020  0.0326  0.3531 -0.5260
  784SOL    HW1 2351   1.443   2.230   0.077 -2.7349  0.5247  1.4965
  784SOL    HW2 2352   1.408   2.162  -0.077  0.8950  2.7876  2.6234
  785SOL     OW 2353   2.087   0.302   3.090 -0.0711  0.1280  0.4101
  785SOL    HW1 2354   2.011   0.333   3.146  2.8858  1.4845 -0.6385
  785SOL    HW2 2355   2.131   0.381   3.036  0.2714 -0.3087 -0.4045
  786SOL     OW 2356   2.059   2.184   2.267  0.1819 -0.1963 -0.3874
  786SOL    HW1 2357   2.027   2.091   2.290 -0.4209 -0.5984 -2.3760
  786SOL    HW2 2358   2.164   2.202   2.271 -2.0873  0.2238  1.9544
  787SOL     OW 2359   1.371   0.550   0.874 -0.3838  0.3101  0.2381
  787SOL    HW1 2360   1.304   0.622   0.865  0.0730  0.6910  1.1149
  787SOL    HW2 2361   1.420   0.534   0.785 -1.6107  0.0914  0.3614
  788SOL     OW 2362   1.233   0.419   0.013  0.0700 -0.0548  0.2808
  788SOL    HW1 2363   1.139   0.383  -0.013 -1.2621 -0.4216 -0.8459
  788SOL    HW2 2364   1.233   0.494   0.085 -2.2845  1.2548  0.0775
  789SOL     OW 2365   2.525   0.119   1.954 -0.2802  0.0090 -0.3269
  789SOL    HW1 2366   2.464   0.103   1.873 -0.7330 -1.2966  1.3861
  789SOL    HW2 2367   2.607   0.065   1.951  0.4607 -0.2654 -0.0166
  790SOL     OW 2368   2.611   2.763   0.693 -0.5871 -0.1856 -0.2546
  790SOL    HW1 2369   2.669   2.823   0.631  2.2715  0.6224 -1.5121
  790SOL    HW2 2370   2.616   2.803   0.791 -2.0399  0.2140 -1.2767
  791SOL     OW 2371   1.934   1.200   0.184  0.3438  0.0320  0.3390
  791SOL    HW1 2372   1.863   1.172   0.258 -3.4317  1.7622  1.0181
  791SOL    HW2 2373   2.026   1.158   0.216  2.3660  0.2983  1.5182
  792SOL     OW 2374   0.418   1.761   2.170 -0.7480 -0.5131 -0.4608
  792SOL    HW1 2375   0.484   1.788   2.248  2.5825 -2.6209  1.1670
  792SOL    HW2 2376   0.403   1.658   2.174 -0.6201 -0.5124 -0.0535
  793SOL     OW 2377   2.124   1.601   2.082 -0.2881 -0.3426  0.7863
  793SOL    HW1 2378   2.203   1.662   2.056  1.0912 -0.2846 -1.7642
  793SOL    HW2 2379   2.129   1.503   2.043 -0.7018  0.2238 -0.3095
  794SOL     OW 2380   0.506   1.491   2.283  0.4799 -0.0972 -0.2392
  794SOL    HW1 2381   0.485   1.413   2.222 -0.8505  1.4280  0.8101
  794SOL    HW2 2382   0.449   1.485   2.370  1.1419  1.0566 -0.9530
  795SOL     OW 2383   2.498   2.255   1.805  0.0011  0.7110 -0.0358
  795SOL    HW1 2384   2.483   2.254   1.911  3.6592 -0.3824  0.1326
  795SOL    HW2 2385   2.455   2.172   1.754 -0.1976 -0.3990 -0.2209
  796SOL     OW 2386   3.080   1.099   2.645 -0.0032  0.2618 -0.4883
  796SOL    HW1 2387   2.990   1.054   2.684 -0.8254  1.2654  1.3975
  796SOL    HW2 2388   3.150   1.122   2.721  1.5958 -1.8848 -1.1391
  797SOL     OW 2389   0.826   0.634   1.412  0.4041 -0.0332 -0.5654
  797SOL    HW1 2390   0.892   0.681   1.474 -1.2869 -0.3694 -0.1855
  797SOL    HW2 2391   0.785   0.699   1.347 -0.7971 -2.0468  0.5409
  798SOL     OW 2392   1.314   0.438   1.186 -0.2769 -0.0629  0.1101
  798SOL    HW1 2393   1.368   0.404   1.269  1.2977 -0.8782 -0.1651
  798SOL    HW2 2394   1.372   0.504   1.132  0.3437  2.3191 -0.7683
  799SOL     OW 2395   1.962   2.644   1.034  0.0741  0.1300 -0.3498
  799SOL    HW1 2396   1.877   2.623   1.094  0.5017  0.6350  0.2161
  799SOL    HW2 2397   1.944   2.687   0.943  3.1111  0.6236  0.1710
  800SOL     OW 2398   3.039   0.631   1.849  0.1759 -0.0825 -0.0000
  800SOL    HW1 2399   2.988   0.692   1.917  1.4693 -0.8924  1.9032
  800SOL    HW2 2400   3.110   0.570   1.895 -1.2913  0.7177 -0.7026
  801SOL     OW 2401   1.901   2.219   0.147 -0.1150  0.8879 -0.2991
  801SOL    HW1 2402   1.829   2.184   0.081  1.3029  1.9566 -2.8303
  801SOL    HW2 2403   1.999   2.209   0.108  0.8738 -2.0833 -0.5815
  802SOL     OW 2404   0.734   0.773   2.582 -0.4488 -0.5214 -0.4242
  802SOL    HW1 2405   0.808   0.773   2.502  1.4425 -2.8085 -1.3886
  802SOL    HW2 2406   0.655   0.710   2.568  0.5525  1.4281  1.0499
  803SOL     OW 2407   0.902   0.153   0.929  0.4263 -0.4708 -0.2028
  803SOL    HW1 2408   0.983   0.209   0.957 -2.3905 -1.9441  0.3906
  803SOL    HW2 2409   0.833   0.207   0.875 -0.5146 -1.0875  0.9186
  804SOL     OW 2410   0.400   3.047   2.119 -0.7540  0.8516 -0.0415
  804SOL    HW1 2411   0.365   3.131   2.071  0.8873  2.1394  2.2584
  804SOL    HW2 2412   0.361   2.960   2.083 -3.1945  3.3108  0.5157
  805SOL     OW 2413   2.437   0.255   0.262  0.3479 -0.0746  0.0496
  805SOL    HW1 2414   2.538   0.283   0.283  0.4472  0.7492 -0.4108
  805SOL    HW2 2415   2.425   0.230   0.158  1.0051 -1.5401 -3.7799
  806SOL     OW 2416   0.666   2.418   1.685 -0.1486 -0.1570  0.1302
  806SOL    HW1 2417   0.656   2.519   1.710 -1.2715  0.5966  1.2634
  806SOL    HW2 2418   0.763   2.382   1.676  1.2016 -0.9544  0.2113
  807SOL     OW 2419   2.458   0.960   0.435 -0.5030  0.3592  0.2300
  807SOL    HW1 2420   2.541   0.894   0.441  0.5691  0.0622  1.6620
  807SOL    HW2 2421   2.435   0.982   0.333 -2.7329  0.8238  1.2339
  808SOL     OW 2422   0.561   2.006   2.980 -0.5627 -0.3621 -0.1157
  808SOL    HW1 2423   0.558   1.996   3.083  0.1362 -2.2836  0.1461
  808SOL    HW2 2424   0.587   1.918   2.927 -0.8426 -1.1138 -0.9646
  809SOL     OW 2425   2.630   1.972   1.953 -0.8849 -0.0966 -0.1186
  809SOL    HW1 2426   2.710   2.032   1.933 -0.6839 -3.4935  0.3549
  809SOL    HW2 2427   2.599   1.920   1.870 -0.6718 -3.9643  1.3129
  810SOL     OW 2428   2.059   1.120   0.508 -0.2941 -0.3116 -0.3197
  810SOL    HW1 2429   2.077   1.056   0.585 -2.2853  0.5085 -0.9368
  810SOL    HW2 2430   2.033   1.220   0.543  1.8985 -1.5245  0.2018
  811SOL     OW 2431   1.280   2.418   1.254  0.2550  0.1642  0.4190
  811SOL    HW1 2432   1.272   2.319   1.285  3.6475 -0.6294  1.5020
  811SOL    HW2 2433   1.250   2.435   1.156  1.1232  0.8553  1.0320
  812SOL     OW 2434   1.382   0.783   1.944  0.2570  0.2274 -0.2239
  812SOL    HW1 2435   1.451   0.848   1.985 -1.0273  0.4588  0.6461
  812SOL    HW2 2436   1.288   0.825   1.941  1.0547 -0.7061 -0.9351
  813SOL     OW 2437   1.756   2.084   2.465  0.4941  0.4808 -0.4602
  813SOL    HW1 2438   1.852   2.062   2.439 -2.7157  1.5258  0.6799
  813SOL    HW2 2439   1.689   2.075   2.380  0.1183  0.9302 -1.3997
  814SOL     OW 2440   2.848   1.537   2.905  0.0217 -0.1491  0.3729
  814SOL    HW1 2441   2.950   1.528   2.934 -0.3475 -0.3439 -0.5922
  814SOL    HW2 2442   2.840   1.626   2.843  0.0962  0.1585  0.0095
  815SOL     OW 2443   2.247   2.908   2.723  0.4188  0.0976 -0.0840
  815SOL    HW1 2444   2.226   2.886   2.822  0.0028  2.0553  1.2446
  815SOL    HW2 2445   2.337   2.870   2.688 -2.2119 -1.3031 -2.7497
  816SOL     OW 2446   1.751   0.356   1.694  0.0744 -0.1289 -0.1961
  816SOL    HW1 2447   1.669   0.291   1.691  0.8550 -1.3386 -1.0363
  816SOL    HW2 2448   1.736   0.431   1.761 -1.5048  2.5939 -0.8853
  817SOL     OW 2449   0.478   1.198   2.450  0.2023 -0.2000 -0.3564
  817SOL    HW1 2450   0.443   1.299   2.456 -1.1061  0.3618  1.4753
  817SOL    HW2 2451   0.461   1.147   2.363  1.2293 -2.1360 -0.2202
  818SOL     OW 2452   2.036   0.851   0.424  0.0241 -0.2780  0.0681
  818SOL    HW1 2453   2.025   0.955   0.424  1.5985 -2.0635  2.9669
  818SOL    HW2 2454   1.974   0.813   0.499  0.9823 -3.3999  0.6655
  819SOL     OW 2455   2.761   2.940   3.049 -0.3172 -0.4746  0.4035
  819SOL    HW1 2456   2.852   2.899   3.029 -2.2127 -0.5383 -0.6185
  819SOL    HW2 2457   2.684   2.903   2.986 -0.3938 -1.8748 -1.3319
  820SOL     OW 2458   1.223   1.115   0.506  0.4834 -0.3447 -0.7120
  820SOL    HW1 2459   1.267   1.210   0.529 -2.0579 -0.8648 -0.2750
  820SOL    HW2 2460   1.212   1.060   0.591  1.9753  2.8725 -0.8719
  821SOL     OW 2461   3.062   1.282   0.668  0.2340  0.1791  0.2729
  821SOL    HW1 2462   3.023   1.286   0.766  0.3902 -0.5631 -1.5838
  821SOL    HW2 2463   3.129   1.357   0.655 -3.3022  1.2296  1.9425
  822SOL     OW 2464   2.524   1.783   2.423  0.0003  0.6531  0.3341
  822SOL    HW1 2465   2.524   1.864   2.483  0.2705 -0.9283 -1.6926
  822SOL    HW2 2466   2.475   1.795   2.331 -1.5466 -0.2374  0.7691
  823SOL     OW 2467   2.039   0.892   1.218  0.0185 -0.2013  0.3678
  823SOL    HW1 2468   2.002   0.866   1.313  2.8245  0.7011  1.4771
  823SOL    HW2 2469   1.970   0.948   1.162 -0.0316  1.6095  1.2445
  824SOL     OW 2470   0.156   2.017   2.730 -0.6016 -0.0080  0.1626
  824SOL    HW1 2471   0.126   1.950   2.803  0.8487 -0.6618 -1.9365
  824SOL    HW2 2472   0.186   1.979   2.637  2.2380  0.7392  0.5176
  825SOL     OW 2473   1.235   1.039   0.239 -0.0836 -0.2094  0.0389
  825SOL    HW1 2474   1.220   1.059   0.338 -0.2269  0.7141 -3.0526
  825SOL    HW2 2475   1.238   1.120   0.174  0.8717 -0.4941  0.7581
  826SOL     OW 2476   1.939   0.626   1.519 -0.0922  0.4614 -0.3110
  826SOL    HW1 2477   1.999   0.586   1.598  2.1797  0.9444  0.2716
  826SOL    HW2 2478   1.859   0.561   1.495  0.1834 -2.0542 -0.8338
  827SOL     OW 2479   0.759   1.427   0.298 -0.1264  0.1410 -0.1621
  827SOL    HW1 2480   0.789   1.357   0.229  0.3895 -0.2818  0.9406
  827SOL    HW2 2481   0.711   1.386   0.383  1.2517  0.4105  1.1765
  828SOL     OW 2482   2.555   0.083   1.569 -0.0458 -0.0105 -0.3727
  828SOL    HW1 2483   2.454   0.111   1.550 -1.3711  1.1335 -0.8016
  828SOL    HW2 2484   2.549   0.007   1.642  0.4824 -0.1978  2.2384
  829SOL     OW 2485   2.848   2.481   3.038  0.2092  0.1873  0.4156
  829SOL    HW1 2486   2.773   2.425   2.987 -0.4544 -0.4348 -2.8258
  829SOL    HW2 2487   2.798   2.545   3.106 -0.1068 -0.2800 -0.5133
  830SOL     OW 2488   2.775   0.960   3.044 -0.5249 -0.4699 -0.0780
  830SOL    HW1 2489   2.836   1.020   3.103  1.2034 -0.0236  1.4617
  830SOL    HW2 2490   2.777   0.859   3.073 -2.3691  0.3193  4.5219
  831SOL     OW 2491   0.014   0.590   0.347  0.3985  0.5422 -0.6137
  831SOL    HW1 2492  -0.038   0.538   0.418  1.5635 -0.0143  0.2572
  831SOL    HW2 2493   0.066   0.520   0.284 -2.1602 -0.8346 -0.1426
  832SOL     OW 2494   1.771   0.739   3.087  0.2342  0.0276  0.0991
  832SOL    HW1 2495   1.693   0.809   3.081  1.0468 -1.5193  0.1605
  832SOL    HW2 2496   1.746   0.647   3.042 -2.8852  0.2449  1.0062
  833SOL     OW 2497   2.470   2.159   0.492 -0.2089  0.2208 -0.2620
  833SOL    HW1 2498   2.368   2.163   0.492 -0.6166 -1.1367 -1.0666
  833SOL    HW2 2499   2.510   2.071   0.452  2.6987 -1.3812  1.1673
  834SOL     OW 2500   0.075   0.256   0.639  0.0933  0.0373  0.0892
  834SOL    HW1 2501   0.133   0.209   0.704  0.5684  0.4854  0.8133
  834SOL    HW2 2502   0.098   0.242   0.538  2.5427 -1.5615 -1.1612
  835SOL     OW 2503   2.356   1.487   1.172 -0.5964 -0.3644  0.3308
  835SOL    HW1 2504   2.438   1.534   1.214  1.7034  0.5496 -1.0293
  835SOL    HW2 2505   2.376   1.480   1.065 -0.3307  0.8126 -2.0922
  836SOL     OW 2506   1.520   0.801   2.584  0.3549 -0.1926  0.2930
  836SOL    HW1 2507   1.420   0.814   2.557  0.4138 -1.5767 -0.6526
  836SOL    HW2 2508   1.584   0.819   2.506  0.3590  1.3276  1.4787
  837SOL     OW 2509   1.609   0.054   0.528  1.1210  0.4985  0.7347
  837SOL    HW1 2510   1.569   0.138   0.573  2.6159  1.7236  0.2993
  837SOL    HW2 2511   1.609   0.063   0.428  0.4210 -0.9284  2.6753
  838SOL     OW 2512   1.282   1.593   2.675 -0.5831 -0.5180  0.1755
  838SOL    HW1 2513   1.350   1.550   2.743 -0.2377  2.8408 -1.5927
  838SOL    HW2 2514   1.201   1.526   2.665 -0.9836  0.8333  2.3440
  839SOL     OW 2515   1.640   0.277   0.982  0.1184  0.1474 -0.2782
  839SOL    HW1 2516   1.648   0.353   1.049 -0.9122  0.3764 -0.6325
  839SOL    HW2 2517   1.598   0.195   1.030  0.4035  1.2868  0.0866
  840SOL     OW 2518   2.542   2.957   1.724  0.1561 -0.7196  0.0012
  840SOL    HW1 2519   2.514   2.918   1.632 -1.4046  1.6592  0.5729
  840SOL    HW2 2520   2.574   2.889   1.799 -0.8923  1.3614  0.3325
  841SOL     OW 2521   1.564   0.898   3.049 -0.4332 -0.2766  0.1576
  841SOL    HW1 2522   1.475   0.880   3.092  0.9108  0.6723 -1.5252
  841SOL    HW2 2523   1.566   0.947   2.954  0.9518 -0.8686 -4.2708
  842SOL     OW 2524   0.824   1.545   0.859 -0.7239  0.1256  1.0728
  842SOL    HW1 2525   0.787   1.614   0.930 -1.0400  0.1368 -1.3366
  842SOL    HW2 2526   0.759   1.462   0.854  1.3416  0.2619  0.3409
  843SOL     OW 2527   0.191   3.060   1.388 -0.4106  0.0156 -0.0288
  843SOL    HW1 2528   0.178   3.142   1.453 -1.8426  2.2999  0.3703
  843SOL    HW2 2529   0.123   2.989   1.421 -2.3892  1.3529 -0.9831
  844SOL     OW 2530   0.812   2.455   0.254 -0.3860 -0.3112  0.0594
  844SOL    HW1 2531   0.734   2.425   0.316 -0.0341 -1.5802  1.2090
  844SOL    HW2 2532   0.779   2.524   0.183 -0.1344  1.0028  0.0398
  845SOL     OW 2533   1.667   2.836   1.243  0.7630  0.2356 -0.1783
  845SOL    HW1 2534   1.708   2.740   1.242 -0.5598 -0.8063 -2.8093
  845SOL    HW2 2535   1.672   2.889   1.336 -1.4414 -0.3522 -1.9264
  846SOL     OW 2536   1.568   2.966   0.731 -0.0812 -0.2479 -0.7415
  846SOL    HW1 2537   1.560   3.034   0.651 -0.3541  0.8743 -2.3408
  846SOL    HW2 2538   1.661   2.984   0.777  0.5544  2.5683 -0.0646
  847SOL     OW 2539   2.095   1.716   0.436  0.0839 -0.5128 -0.2907
  847SOL    HW1 2540   2.081   1.645   0.363 -2.8121 -1.3096 -2.6716
  847SOL    HW2 2541   2.023   1.796   0.441  3.8171  0.4256 -2.6429
  848SOL     OW 2542   2.404   0.890   2.609  0.0273 -0.0634 -0.5555
  848SOL    HW1 2543   2.372   0.974   2.661 -1.2172  0.4599  0.2959
  848SOL    HW2 2544   2.330   0.818   2.599 -0.1295  0.2239  0.1651
  849SOL     OW 2545   2.540   0.880   2.372  0.7083 -0.3112  0.2784
  849SOL    HW1 2546   2.621   0.824   2.382 -0.8263 -0.8504  0.5169
  849SOL    HW2 2547   2.489   0.891   2.464 -0.5887  1.2452 -1.1357
  850SOL     OW 2548   1.557   0.048   1.323 -0.0462  0.3544  0.2617
  850SOL    HW1 2549   1.537   0.015   1.226 -0.0332  3.2695  2.2677
  850SOL    HW2 2550   1.517  -0.028   1.390  0.2338  0.3884 -0.1379
  851SOL     OW 2551   0.510   1.760   0.633 -0.5699  0.4534 -0.6196
  851SOL    HW1 2552   0.588   1.810   0.672 -3.4406 -0.9207 -1.7753
  851SOL    HW2 2553   0.492   1.789   0.537  1.5348  2.2667  1.8175
  852SOL     OW 2554   0.855   2.085   1.746  0.0859 -0.7587  0.7170
  852SOL    HW1 2555   0.845   2.175   1.691 -0.1283  0.5056  0.5287
  852SOL    HW2 2556   0.781   2.067   1.822 -1.1306  0.2399  0.2760
  853SOL     OW 2557   2.549   1.557   2.605  0.1324  0.2351 -0.2797
  853SOL    HW1 2558   2.465   1.493   2.605  1.6729 -1.8150 -0.5948
  853SOL    HW2 2559   2.544   1.636   2.538 -0.0493  0.5969  1.4284
  854SOL     OW 2560   2.459   1.397   1.767 -0.5208 -0.1039  0.0615
  854SOL    HW1 2561   2.523   1.336   1.706 -0.7139  0.9700  0.5635
  854SOL    HW2 2562   2.407   1.343   1.840  0.8005  0.1304  1.9935
  855SOL     OW 2563   2.075   2.397   1.050 -0.1525 -0.0875 -0.4099
  855SOL    HW1 2564   2.043   2.494   1.038 -2.7602 -0.4313  1.0300
  855SOL    HW2 2565   2.150   2.391   1.121 -1.4610 -0.4802 -0.7869
  856SOL     OW 2566   1.329   1.427   0.921 -0.0578 -0.3400  0.0916
  856SOL    HW1 2567   1.384   1.513   0.939 -0.6648  1.6655  0.9199
  856SOL    HW2 2568   1.224   1.441   0.937 -2.0732 -0.0532 -1.4546
  857SOL     OW 2569  -0.001   2.751   1.062  0.2563  0.0441 -0.3155
  857SOL    HW1 2570  -0.006   2.705   0.971 -0.6770 -0.3278 -0.9143
  857SOL    HW2 2571   0.085   2.808   1.084 -1.2498 -0.0522 -1.1743
  858SOL     OW 2572   2.401   2.076   1.641 -0.4132 -0.2679  0.6672
  858SOL    HW1 2573   2.312   2.025   1.627  1.0428 -0.4299 -0.9392
  858SOL    HW2 2574   2.478   2.019   1.620 -0.7712  3.8083  4.4301
  859SOL     OW 2575   2.436   0.524   1.053 -0.3835 -0.1546 -0.7648
  859SOL    HW1 2576   2.499   0.582   0.993  0.9557  1.1358 -1.8681
  859SOL    HW2 2577   2.481   0.440   1.087 -1.1731 -1.6599 -0.4164
  860SOL     OW 2578   1.891   2.802   0.528 -0.4015  0.1453  0.1213
  860SOL    HW1 2579   1.855   2.779   0.434  0.1664  1.2961 -0.6678
  860SOL    HW2 2580   1.914   2.905   0.543 -0.2939  0.8389  2.3292
  861SOL     OW 2581   0.976   2.507   2.879 -0.6489 -0.0619  0.1740
  861SOL    HW1 2582   1.033   2.586   2.847 -1.3123 -1.0253  1.4875
  861SOL    HW2 2583   0.950   2.520   2.978 -0.3030  0.9199 -0.1596
  862SOL     OW 2584   2.859   2.524   1.660  0.3083  0.1112 -0.2509
  862SOL    HW1 2585   2.938   2.531   1.731  0.6049  0.5187 -1.2615
  862SOL    HW2 2586   2.840   2.619   1.627 -0.5536 -1.1515 -3.2035
  863SOL     OW 2587   1.824   2.711   0.272 -0.3814  0.2454  0.4299
  863SOL    HW1 2588   1.877   2.621   0.283  1.2819  1.1887 -0.1207
  863SOL    HW2 2589   1.722   2.696   0.259  2.8455  0.2301 -2.6575
  864SOL     OW 2590   2.024   1.248   2.825 -0.2454  0.2275  0.1150
  864SOL    HW1 2591   2.048   1.181   2.748 -1.2523 -3.2903  2.2544
  864SOL    HW2 2592   2.085   1.329   2.829 -0.3761  1.7439  2.2655
  865SOL     OW 2593   2.151   1.939   0.743  0.3042  0.0278 -0.2183
  865SOL    HW1 2594   2.226   1.889   0.791 -0.0373 -0.3230  1.8825
  865SOL    HW2 2595   2.070   1.961   0.804 -0.5588 -1.0251  2.4893
  866SOL     OW 2596   2.941   2.996   1.018 -0.5269  0.1608 -0.1861
  866SOL    HW1 2597   2.956   3.065   0.937  0.2389 -0.3848 -1.1815
  866SOL    HW2 2598   2.983   2.905   1.005  2.4450  0.4640  1.0722
  867SOL     OW 2599   0.343   1.400   0.897  0.3402  0.4399  0.9080
  867SOL    HW1 2600   0.355   1.313   0.837  0.0565 -2.6878  1.3645
  867SOL    HW2 2601   0.312   1.486   0.842  1.1361 -0.9462 -2.7090
  868SOL     OW 2602   0.791   1.838   2.046 -0.0987 -0.1586  0.1431
  868SOL    HW1 2603   0.740   1.791   2.126  0.5567 -0.3478 -2.6121
  868SOL    HW2 2604   0.741   1.923   2.005  1.2716  1.9598 -0.0042
  869SOL     OW 2605   2.618   1.907   1.671 -0.1970  0.4316  0.3130
  869SOL    HW1 2606   2.683   1.976   1.619  0.7109  0.9399  1.5010
  869SOL    HW2 2607   2.629   1.813   1.632  0.9765 -1.5660 -0.2962
  870SOL     OW 2608   2.359   2.686   1.205 -0.6277 -0.0521  0.9219
  870SOL    HW1 2609   2.333   2.586   1.219 -2.9866  1.4158 -1.3049
  870SOL    HW2 2610   2.441   2.721   1.253  3.1999  2.3308  1.2068
  871SOL     OW 2611   3.055   2.238   0.504  0.0851 -0.0727 -0.6923
  871SOL    HW1 2612   3.010   2.275   0.592 -0.2471  0.8863  0.9719
  871SOL    HW2 2613   2.996   2.264   0.421  2.4731  1.1946 -1.3194
  872SOL     OW 2614   2.106   0.494   1.703  0.1323 -0.1205  0.2981
  872SOL    HW1 2615   2.060   0.482   1.800 -1.3579  0.2882  0.7169
  872SOL    HW2 2616   2.197   0.448   1.704 -0.7533  1.1861  0.8922
  873SOL     OW 2617   1.707   2.092   3.098 -0.1733  0.5187  0.1173
  873SOL    HW1 2618   1.605   2.076   3.114  0.2426  1.2206 -0.7938
  873SOL    HW2 2619   1.727   2.116   2.997 -1.3674  1.6887  0.3995
  874SOL     OW 2620   0.667   2.449   0.729 -0.3077  0.0016  0.0584
  874SOL    HW1 2621   0.686   2.546   0.774 -0.1818  0.1147  1.4191
  874SOL    HW2 2622   0.755   2.397   0.728  0.6167  1.3416 -0.4281
  875SOL     OW 2623   2.241   1.502   1.421 -0.5415 -0.5599 -0.6663
  875SOL    HW1 2624   2.325   1.550   1.466 -1.4787  0.6422  1.6198
  875SOL    HW2 2625   2.264   1.480   1.322  0.1469 -0.6581 -1.1687
  876SOL     OW 2626   0.049   2.254   2.636 -0.2776  0.1956 -0.3087
  876SOL    HW1 2627   0.073   2.154   2.658 -1.5250 -2.3992  0.9887
  876SOL    HW2 2628   0.112   2.327   2.685 -2.6663 -1.3165  2.3808
  877SOL     OW 2629   2.909   2.645   0.626  0.6979  0.4281 -0.6068
  877SOL    HW1 2630   2.919   2.747   0.625 -1.2917  2.6440  0.3964
  877SOL    HW2 2631   2.986   2.595   0.669 -1.0091 -0.6289  1.0173
  878SOL     OW 2632   2.845   1.600   2.294  0.0221 -0.7131 -0.3142
  878SOL    HW1 2633   2.766   1.663   2.262  0.9467  0.8083 -0.8745
  878SOL    HW2 2634   2.829   1.546   2.384 -0.2337 -0.4044  0.6981
  879SOL     OW 2635   2.450   0.048   1.186 -0.0396  0.0394  0.5303
  879SOL    HW1 2636   2.482  -0.051   1.195  1.1211  1.5091  2.1880
  879SOL    HW2 2637   2.348   0.060   1.172  1.4854  1.4902  0.9964
  880SOL     OW 2638   0.707   0.557   2.287 -0.0301 -0.4819 -0.0924
  880SOL    HW1 2639   0.674   0.498   2.365 -0.3584 -1.9751 -2.0842
  880SOL    HW2 2640   0.752   0.505   2.210  3.4785  1.2056  2.0058
  881SOL     OW 2641   0.825   0.076   0.390  0.1211  0.1661  0.3159
  881SOL    HW1 2642   0.879  -0.006   0.422  1.6082  2.9486  1.1747
  881SOL    HW2 2643   0.724   0.058   0.356 -0.1730  1.8217  1.1148
  882SOL     OW 2644   2.707   1.622   1.705  0.6351  0.2674 -0.3964
  882SOL    HW1 2645   2.790   1.574   1.669 -1.4937 -1.5217  0.2104
  882SOL    HW2 2646   2.723   1.670   1.799  1.4351  0.9255  0.6539
  883SOL     OW 2647   0.790   0.523   0.935  0.0029 -0.1542 -0.0673
  883SOL    HW1 2648   0.842   0.597   0.987 -1.4894  1.6328 -0.5639
  883SOL    HW2 2649   0.717   0.483   0.992  2.5263 -0.9055  1.2441
  884SOL     OW 2650   1.178   1.765   1.123 -0.5708  0.3151  0.2033
  884SOL    HW1 2651   1.144   1.700   1.051 -0.3778  2.5710  0.8874
  884SOL    HW2 2652   1.122   1.848   1.124 -2.8247  2.4507 -0.8144
  885SOL     OW 2653   2.361   1.900   2.214  0.2561  0.4475  0.2958
  885SOL    HW1 2654   2.271   1.858   2.248 -0.6365  0.9767  0.2222
  885SOL    HW2 2655   2.374   1.992   2.261 -1.6739 -1.4295  0.7882
  886SOL     OW 2656   2.615   0.373   1.770 -0.1835  0.4243 -0.3860
  886SOL    HW1 2657   2.614   0.325   1.858 -2.9783  1.2469  0.8898
  886SOL    HW2 2658   2.709   0.412   1.741  0.4108 -1.7675 -1.4117
  887SOL     OW 2659   0.160   2.092   1.254 -0.0382  0.2205  0.1404
  887SOL    HW1 2660   0.087   2.048   1.195  0.5665 -0.1646 -2.8469
  887SOL    HW2 2661   0.149   2.194   1.249  0.3970  2.2342  1.2608
  888SOL     OW 2662   0.594   1.246   1.501  0.0093 -0.3159 -0.3459
  888SOL    HW1 2663   0.617   1.306   1.412  1.3390 -0.3258 -2.6476
  888SOL    HW2 2664   0.642   1.156   1.491  2.3755 -1.2727  3.3706
  889SOL     OW 2665   0.857   2.425   2.240  0.3423  0.2530  0.3409
  889SOL    HW1 2666   0.759   2.407   2.271  1.4431  2.1186 -0.0436
  889SOL    HW2 2667   0.873   2.414   2.138 -1.4762  1.2896  0.0528
  890SOL     OW 2668   2.355   2.485   0.212 -0.4101  0.3763 -0.0550
  890SOL    HW1 2669   2.406   2.539   0.143 -0.4422 -1.8708  1.4829
  890SOL    HW2 2670   2.337   2.541   0.296 -0.6515 -1.2524 -1.9550
  891SOL     OW 2671   2.575   1.688   0.707 -0.6726 -0.2821  0.0581
  891SOL    HW1 2672   2.577   1.635   0.797  2.5149  1.4787 -0.1205
  891SOL    HW2 2673   2.483   1.692   0.660  1.0749  0.5831 -1.4795
  892SOL     OW 2674   0.352   0.384   2.195 -0.1267  0.8248 -0.1230
  892SOL    HW1 2675   0.329   0.464   2.135 -1.0778  0.3492  0.4605
  892SOL    HW2 2676   0.454   0.355   2.186  1.7489  0.4319 -2.3779
  893SOL     OW 2677   1.693   0.254   2.756 -0.4184 -0.0800  0.4953
  893SOL    HW1 2678   1.778   0.304   2.787 -0.3965 -1.5692 -1.3605
  893SOL    HW2 2679   1.608   0.302   2.726 -0.5916 -2.5979  0.0926
  894SOL     OW 2680   2.154   2.078   0.094  0.0808 -0.1509  0.1237
  894SOL    HW1 2681   2.099   2.029   0.021  1.6070 -1.2976 -2.2048
  894SOL    HW2 2682   2.185   2.011   0.165  0.8897 -0.6405  0.4391
  895SOL     OW 2683   2.722   1.429   0.928 -0.3543 -0.1628  0.3972
  895SOL    HW1 2684   2.808   1.377   0.939 -0.7970  0.3239 -2.0003
  895SOL    HW2 2685   2.743   1.534   0.935 -0.2312  0.9529  2.6481
  896SOL     OW 2686   1.787   1.820   1.247  0.4937  0.0500 -0.1785
  896SOL    HW1 2687   1.873   1.760   1.256 -0.8512 -0.6423  0.4828
  896SOL    HW2 2688   1.722   1.783   1.177 -4.0673  1.1593  1.0967
  897SOL     OW 2689   0.229   0.542   3.001 -0.0316 -0.6361 -0.0375
  897SOL    HW1 2690   0.171   0.589   2.930  0.3935  3.8502  0.7373
  897SOL    HW2 2691   0.313   0.593   3.015 -1.2285 -2.5656  0.1278
  898SOL     OW 2692   0.701   2.818   1.075  0.0879  0.2244 -0.1691
  898SOL    HW1 2693   0.765   2.897   1.101 -1.6981  1.2054 -0.3487
  898SOL    HW2 2694   0.728   2.730   1.127  0.7762 -0.0690  1.0959
  899SOL     OW 2695   2.868   0.950   1.363  0.3012 -0.0759  0.5536
  899SOL    HW1 2696   2.834   0.958   1.269 -1.5813  3.3191  0.0670
  899SOL    HW2 2697   2.966   0.975   1.372  1.3487  1.8793  1.8816
  900SOL     OW 2698   1.004   2.445   2.461  0.1449 -0.2140 -0.1691
  900SOL    HW1 2699   0.956   2.420   2.369  0.3860 -2.1305  0.8228
  900SOL    HW2 2700   0.970   2.384   2.542 -1.1754 -1.0588  0.1714
  901SOL     OW 2701   1.884   2.436   1.439  0.5384  0.8290 -0.3366
  901SOL    HW1 2702   1.892   2.370   1.362  1.1303  0.0364  1.8067
  901SOL    HW2 2703   1.964   2.439   1.498 -3.5178 -1.0367 -1.2135
  902SOL     OW 2704   2.534   1.657   1.473 -0.1347  0.1375 -0.6344
  902SOL    HW1 2705   2.592   1.630   1.552 -0.3219  1.4941 -1.8124
  902SOL    HW2 2706   2.580   1.630   1.381  0.5583  2.0356 -0.8295
  903SOL     OW 2707   0.327   2.419   2.002  0.2935  0.6272  0.0399
  903SOL    HW1 2708   0.263   2.343   2.042  0.1048  1.2274  2.6853
  903SOL    HW2 2709   0.286   2.479   1.930 -3.2199  0.7434  1.0777
  904SOL     OW 2710   2.013   0.805   2.455  0.1792 -0.9814 -0.6522
  904SOL    HW1 2711   1.964   0.736   2.514  0.0341 -0.0288  0.0382
  904SOL    HW2 2712   2.002   0.796   2.352  2.0430 -0.4841  0.7753
  905SOL     OW 2713   2.812   0.085   2.405  0.2609 -0.2161  0.0977
  905SOL    HW1 2714   2.875   0.015   2.455 -0.3745 -0.2462 -1.1582
  905SOL    HW2 2715   2.852   0.182   2.419  2.3968 -1.6392 -0.6294
  906SOL     OW 2716   0.179   1.738   1.905 -0.5405 -0.0991  0.0554
  906SOL    HW1 2717   0.122   1.765   1.824  0.5698 -0.8070  2.1576
  906SOL    HW2 2718   0.283   1.747   1.888 -2.7981 -0.0095 -0.9483
  907SOL     OW 2719   0.233   2.510   0.986 -0.1295  0.1769  0.2492
  907SOL    HW1 2720   0.328   2.477   0.964 -0.8795  0.9000 -0.2158
  907SOL    HW2 2721   0.231   2.614   0.989  1.5287  2.1302  1.6283
  908SOL     OW 2722   2.809   3.017   0.348  0.2642 -0.1264 -0.2094
  908SOL    HW1 2723   2.719   3.005   0.294  0.4333  1.7413 -1.1673
  908SOL    HW2 2724   2.878   2.943   0.334  1.2184  3.2884  0.1748
  909SOL     OW 2725   0.852   1.029   2.671 -0.3709  0.0961  0.0854
  909SOL    HW1 2726   0.809   0.935   2.653 -2.8200 -1.5756 -0.2900
  909SOL    HW2 2727   0.927   1.051   2.605 -0.9807 -2.0228 -1.1759
  910SOL     OW 2728   1.780   1.899   2.144  0.1341 -0.1522  0.4722
  910SOL    HW1 2729   1.839   1.931   2.060 -2.1054  0.0600  0.0324
  910SOL    HW2 2730   1.701   1.961   2.182 -1.2344 -0.1752 -1.6234
  911SOL     OW 2731   1.758   2.917   1.482  0.1495  0.1984  0.3179
  911SOL    HW1 2732   1.842   2.888   1.432 -1.1317 -1.3092 -1.6325
  911SOL    HW2 2733   1.719   2.851   1.551 -0.4692  1.3609 -0.1261
  912SOL     OW 2734   2.868   1.030   0.740 -0.5425  0.8465 -0.3174
  912SOL    HW1 2735   2.909   0.998   0.832 -0.2595  1.4956  1.0629
  912SOL    HW2 2736   2.790   1.098   0.759  0.5548 -0.7268 -3.3952
  913SOL     OW 2737   2.625   1.276   1.570 -0.0083  0.1192 -0.0476
  913SOL    HW1 2738   2.659   1.180   1.554  1.6477 -0.1768 -0.9840
  913SOL    HW2 2739   2.651   1.336   1.490  1.8109  1.0555 -0.5327
  914SOL     OW 2740   2.801   0.608   1.177 -1.1761  0.2573 -0.4892
  914SOL    HW1 2741   2.785   0.526   1.241  1.0815 -2.4495  1.3338
  914SOL    HW2 2742   2.734   0.684   1.194 -0.9403  2.4513  0.9081
  915SOL     OW 2743   1.179   0.774   0.900 -0.7670 -0.0196  0.7796
  915SOL    HW1 2744   1.223   0.823   0.980  0.7946  1.5927  1.3040
  915SOL    HW2 2745   1.074   0.769   0.909  0.5174  0.2644 -0.4747
  916SOL     OW 2746   0.627   0.109   0.629 -0.1481  0.6920 -0.6763
  916SOL    HW1 2747   0.693   0.169   0.679 -1.0090 -1.1261 -2.7761
  916SOL    HW2 2748   0.575   0.162   0.558 -0.2008 -1.9061  2.3636
  917SOL     OW 2749   2.908   2.594   2.011  0.3142 -0.3665  0.0999
  917SOL    HW1 2750   2.810   2.607   1.976 -2.1606  1.7690 -2.9240
  917SOL    HW2 2751   2.974   2.656   1.965  1.8223  0.8023 -0.6418
  918SOL     OW 2752   1.013   2.114   3.027 -0.0655  0.1891 -0.3442
  918SOL    HW1 2753   0.989   2.193   3.094 -0.4895  0.2587  2.9689
  918SOL    HW2 2754   1.070   2.144   2.945 -0.9190  3.2674  0.1010
  919SOL     OW 2755   0.855   1.650   2.801  0.6305  0.3159 -0.2604
  919SOL    HW1 2756   0.896   1.748   2.788  1.3606  2.4887 -0.2972
  919SOL    HW2 2757   0.831   1.607   2.707 -1.6965 -0.9258 -0.7634
  920SOL     OW 2758   1.322   1.798   2.496 -0.8344 -0.2578  0.5213
  920SOL    HW1 2759   1.416   1.780   2.459 -0.3370 -0.4429  1.4339
  920SOL    HW2 2760   1.302   1.725   2.566  0.5821  0.4751 -0.7073
  921SOL     OW 2761   1.150   0.043   2.602  0.1871 -0.1341 -0.0814
  921SOL    HW1 2762   1.122   0.044   2.499  0.8866 -1.7111  1.6123
  921SOL    HW2 2763   1.074   0.024   2.665  0.8005 -1.2420  0.4554
  922SOL     OW 2764   2.201   2.425   2.784 -0.6463 -0.0696 -0.4733
  922SOL    HW1 2765   2.212   2.324   2.774 -1.1574  2.7085  1.0554
  922SOL    HW2 2766   2.125   2.463   2.717 -0.6839  0.5313  0.1938
  923SOL     OW 2767   1.243   2.740   0.271  0.5182  0.4481 -0.1846
  923SOL    HW1 2768   1.309   2.804   0.324  1.1848 -0.5599  1.0107
  923SOL    HW2 2769   1.272   2.637   0.274  0.9264  0.7172 -0.8832
  924SOL     OW 2770   2.943   1.702   0.150 -0.3106 -0.2621 -0.1821
  924SOL    HW1 2771   2.855   1.662   0.117  3.7637  1.3394  0.2894
  924SOL    HW2 2772   3.017   1.631   0.172  0.7533 -0.4255 -0.7275
  925SOL     OW 2773   0.032   2.848   1.507 -0.5271  0.4110 -0.0508
  925SOL    HW1 2774  -0.023   2.861   1.595  1.3024  1.7185 -1.7933
  925SOL    HW2 2775  -0.016   2.790   1.437 -0.6257  2.0456 -2.7735
  926SOL     OW 2776   1.282   2.806   1.308  0.1369  0.5358  0.0152
  926SOL    HW1 2777   1.323   2.787   1.216  0.0876  0.3865 -1.3424
  926SOL    HW2 2778   1.329   2.884   1.360  1.0881 -0.0381  2.6633
  927SOL     OW 2779   0.367   2.643   1.782  0.4970  0.4701  0.0053
  927SOL    HW1 2780   0.329   2.576   1.710 -0.9023  1.4364 -0.1169
  927SOL    HW2 2781   0.308   2.728   1.783  1.5564  0.2742 -0.8280
  928SOL     OW 2782   1.593   2.078   2.229 -0.3064 -0.3274 -0.0816
  928SOL    HW1 2783   1.603   2.156   2.164 -0.1460 -0.0241 -0.2392
  928SOL    HW2 2784   1.496   2.040   2.238 -1.2223 -0.0504  0.5037
  929SOL     OW 2785   2.450   2.485   2.875 -0.1489 -0.1972  0.1159
  929SOL    HW1 2786   2.348   2.468   2.868  0.7899  1.3177 -0.4327
  929SOL    HW2 2787   2.499   2.493   2.779  0.9249  5.0292 -0.9480
  930SOL     OW 2788   2.184   2.058   1.114  0.0627 -0.0630 -0.3864
  930SOL    HW1 2789   2.176   2.020   1.215  3.2734 -1.2391  0.4851
  930SOL    HW2 2790   2.248   2.136   1.105  1.0114 -3.5897 -1.1886
  931SOL     OW 2791   0.484   1.687   2.591  0.1239  0.7685  0.0096
  931SOL    HW1 2792   0.485   1.720   2.687  0.7284  0.0551  0.5553
  931SOL    HW2 2793   0.572   1.647   2.558  0.1946 -0.8894  1.5373
  932SOL     OW 2794   0.383   0.027   0.046  0.0439 -0.4635  0.0871
  932SOL    HW1 2795   0.452   0.101   0.011  0.5788  0.2107 -0.9946
  932SOL    HW2 2796   0.397  -0.064  -0.001  1.9677 -1.1605 -0.6449
  933SOL     OW 2797   1.017   0.826   3.045 -0.4479  0.1750 -0.0533
  933SOL    HW1 2798   1.112   0.808   3.079 -0.0623  2.4906  1.2151
  933SOL    HW2 2799   0.966   0.895   3.102  0.9081 -0.1735 -1.2691
  934SOL     OW 2800   0.827   2.956   2.631 -1.0175  0.4691 -0.3674
  934SOL    HW1 2801   0.811   2.899   2.552 -1.8143  1.0095  3.9971
  934SOL    HW2 2802   0.863   2.899   2.712 -0.1693 -1.0025 -0.9733
  935SOL     OW 2803   0.029   0.559   0.816 -0.4405  0.3346  0.7248
  935SOL    HW1 2804  -0.000   0.529   0.724 -0.5109  3.3200 -1.2799
  935SOL    HW2 2805  -0.034   0.631   0.860  2.0401 -0.2586  1.5968
  936SOL     OW 2806   1.121   2.853   0.066 -0.1040 -0.4461  0.1307
  936SOL    HW1 2807   1.177   2.917   0.009 -1.4793  1.3365  2.0616
  936SOL    HW2 2808   1.174   2.802   0.139  2.0508 -0.3494  0.4460
  937SOL     OW 2809   1.969   2.620   2.051  0.8575  0.3320 -0.4983
  937SOL    HW1 2810   1.899   2.647   2.120  0.7203 -2.0115  0.0184
  937SOL    HW2 2811   1.990   2.698   1.984 -0.5725  0.0682 -0.1393
  938SOL     OW 2812   2.782   2.109   1.576  0.3947 -0.6620  0.2500
  938SOL    HW1 2813   2.733   2.199   1.600  2.0548 -0.1231  0.2645
  938SOL    HW2 2814   2.884   2.102   1.613  1.9768  1.2246 -1.0991
  939SOL     OW 2815   2.834   1.144   2.482  0.2784  0.3954  0.3825
  939SOL    HW1 2816   2.902   1.106   2.415  0.4689 -0.4176  0.8722
  939SOL    HW2 2817   2.831   1.083   2.568 -0.5195 -2.0373 -0.3536
  940SOL     OW 2818   1.087   0.457   2.758  0.2555  0.1161 -0.3453
  940SOL    HW1 2819   1.144   0.373   2.791 -0.8020 -1.5909  0.0855
  940SOL    HW2 2820   1.026   0.434   2.679  0.6284 -2.9057 -0.1140
  941SOL     OW 2821   0.074   2.807   2.251 -0.0222  0.0220 -0.0635
  941SOL    HW1 2822   0.119   2.717   2.224 -2.1795 -2.3192  0.1279
  941SOL    HW2 2823   0.133   2.868   2.316  0.6171  1.3132  3.1298
  942SOL     OW 2824   0.097   0.082   2.504 -0.0023 -0.0297  0.5598
  942SOL    HW1 2825   0.163   0.104   2.581 -2.4201  0.5678  0.9295
  942SOL    HW2 2826   0.100   0.157   2.431  2.0010 -0.1631  1.2078
  943SOL     OW 2827   2.120   1.711   2.362  0.3456  0.1219 -0.0332
  943SOL    HW1 2828   2.113   1.648   2.273 -1.8970 -1.0348 -3.3442
  943SOL    HW2 2829   2.126   1.649   2.442 -0.5131 -2.7502 -0.2005
  944SOL     OW 2830   2.167   2.349   1.543 -0.4389  0.1565 -0.3767
  944SOL    HW1 2831   2.230   2.363   1.620 -1.0581  0.3383 -3.1038
  944SOL    HW2 2832   2.106   2.268   1.569  2.9623 -1.6614  1.0308
  945SOL     OW 2833   0.732   1.606   0.091 -0.4925 -0.5745 -0.3045
  945SOL    HW1 2834   0.652   1.593   0.025 -3.0961 -0.2472 -0.6374
  945SOL    HW2 2835   0.729   1.543   0.174  0.0873  1.0227 -0.5632
  946SOL     OW 2836   0.311   1.024   2.621 -0.1010 -0.3432  0.4207
  946SOL    HW1 2837   0.304   0.971   2.532 -0.4414  2.3498 -0.3499
  946SOL    HW2 2838   0.371   1.110   2.605 -1.8156  1.2407 -2.0884
  947SOL     OW 2839   1.468   0.515   3.052  0.1471  0.3961  0.0563
  947SOL    HW1 2840   1.477   0.555   2.956  2.1485  1.3497 -1.8640
  947SOL    HW2 2841   1.377   0.468   3.063 -0.3218 -1.2188  0.8316
  948SOL     OW 2842   1.928   2.955   2.169  0.0845  0.5735  0.0804
  948SOL    HW1 2843   1.940   2.912   2.075 -2.0665  1.7825  0.7938
  948SOL    HW2 2844   1.913   2.877   2.243 -2.9885 -0.9325  0.7545
  949SOL     OW 2845   0.602   2.440   0.465  0.3866 -0.1576  0.3311
  949SOL    HW1 2846   0.562   2.533   0.453 -1.9492  0.0902 -0.3142
  949SOL    HW2 2847   0.632   2.422   0.566  0.9044 -3.7337 -0.3592
  950SOL     OW 2848   0.191   2.194   2.943  0.6450 -0.3968  0.2136
  950SOL    HW1 2849   0.174   2.292   2.909 -0.8007 -1.2678 -1.9025
  950SOL    HW2 2850   0.191   2.135   2.861 -0.0164 -0.6913  2.6684
  951SOL     OW 2851   1.174   2.675   2.801 -0.3723  0.1089  0.0869
  951SOL    HW1 2852   1.235   2.602   2.842  1.3147 -0.8492 -0.1669
  951SOL    HW2 2853   1.223   2.725   2.722 -0.8587 -1.3084  0.6632
  952SOL     OW 2854   0.099   1.615   0.439  0.5582  0.6868  0.3135
  952SOL    HW1 2855   0.117   1.705   0.482  1.4176  1.3913 -2.4046
  952SOL    HW2 2856   0.120   1.527   0.498  3.2295  2.0832  0.0561
  953SOL     OW 2857   2.548   1.744   0.282  0.2815 -0.1379  0.1763
  953SOL    HW1 2858   2.509   1.651   0.270 -0.3568 -0.7728 -0.6883
  953SOL    HW2 2859   2.561   1.790   0.187  0.6050 -1.3326  0.4896
  954SOL     OW 2860   2.181   0.555   0.911 -0.2377  0.1628 -0.3537
  954SOL    HW1 2861   2.191   0.559   0.808 -3.2063  1.2058  0.8825
  954SOL    HW2 2862   2.268   0.535   0.955 -3.3066  1.2997  0.1109
  955SOL     OW 2863   0.130   2.560   1.389 -0.4601 -0.5841 -0.6860
  955SOL    HW1 2864   0.033   2.597   1.377 -2.1402 -2.4665  1.1081
  955SOL    HW2 2865   0.210   2.616   1.357 -2.0096 -0.8964  0.1786
  956SOL     OW 2866   2.839   2.505   2.501 -0.0422 -0.1982  0.1492
  956SOL    HW1 2867   2.847   2.401   2.503  2.0093  0.1746  0.1270
  956SOL    HW2 2868   2.892   2.552   2.424  0.4401 -1.6485  2.5670
  957SOL     OW 2869   1.640   2.080   2.756 -0.1540 -0.2881  0.3861
  957SOL    HW1 2870   1.641   1.987   2.801 -0.8658  0.5801 -0.8155
  957SOL    HW2 2871   1.689   2.071   2.662  0.0336 -1.1882 -1.8814
  958SOL     OW 2872   2.651   2.277   2.948  0.1457  0.0705 -0.4514
  958SOL    HW1 2873   2.582   2.356   2.930  0.5580 -0.4210  1.7890
  958SOL    HW2 2874   2.633   2.234   3.041 -1.9667 -3.0240  0.2002
  959SOL     OW 2875   0.351   2.767   0.152 -0.3421 -0.4795 -0.2715
  959SOL    HW1 2876   0.270   2.837   0.158 -0.2479 -0.4751 -0.5711
  959SOL    HW2 2877   0.323   2.671   0.136 -1.6993  0.7543  0.7921
  960SOL     OW 2878   1.958   0.470   1.930  0.0331 -0.3267  0.5353
  960SOL    HW1 2879   1.909   0.560   1.912  0.4937 -1.4140  0.3136
  960SOL    HW2 2880   1.976   0.459   2.028  2.8932 -0.8794  0.6054
  961SOL     OW 2881   2.526   1.875   1.052  0.2612 -0.2252 -0.1681
  961SOL    HW1 2882   2.508   1.952   0.983  0.9822  1.2615 -1.8674
  961SOL    HW2 2883   2.471   1.888   1.139  0.6972 -0.0078 -0.1553
  962SOL     OW 2884   1.278   0.859   0.054 -0.1023 -0.2249  0.2058
  962SOL    HW1 2885   1.279   0.906  -0.041  0.4939  2.1818 -3.5855
  962SOL    HW2 2886   1.272   0.930   0.131  0.9475  1.1593  0.2183
  963SOL     OW 2887   2.282   2.578   1.798 -0.1980  0.0587  0.5014
  963SOL    HW1 2888   2.260   2.483   1.823 -0.4272 -1.2771 -0.2542
  963SOL    HW2 2889   2.320   2.629   1.880 -0.6458 -1.2469  0.0621
  964SOL     OW 2890   2.346   0.332   1.662  0.5341 -0.3123 -0.3886
  964SOL    HW1 2891   2.431   0.358   1.709 -1.4976 -0.1120 -2.9855
  964SOL    HW2 2892   2.343   0.363   1.566 -1.3091 -2.8188 -0.1195
  965SOL     OW 2893   2.597   2.972   0.168  0.2007 -0.2832 -1.4965
  965SOL    HW1 2894   2.656   2.954   0.085 -0.2119 -0.3658 -0.5831
  965SOL    HW2 2895   2.502   2.997   0.137  1.5026 -1.2518 -1.1264
  966SOL     OW 2896   2.496   2.486   2.240 -0.4153  0.5717 -0.4435
  966SOL    HW1 2897   2.502   2.579   2.199 -1.2932 -0.3660 -0.1068
  966SOL    HW2 2898   2.434   2.426   2.182 -0.0558  2.5854 -1.2758
  967SOL     OW 2899   2.758   2.862   2.465 -0.2221 -0.6498 -0.0684
  967SOL    HW1 2900   2.779   2.798   2.387 -1.1832  1.2590  0.5683
  967SOL    HW2 2901   2.846   2.900   2.508 -0.7055  0.1720  0.7298
  968SOL     OW 2902   1.948   1.043   2.618 -0.1840 -0.0836  0.2211
  968SOL    HW1 2903   1.861   1.100   2.604 -2.8356 -0.1313 -1.5508
  968SOL    HW2 2904   1.955   0.958   2.559 -1.9074  1.5763 -2.3084
  969SOL     OW 2905   2.826   2.579   1.107 -0.0653 -0.4627  0.0340
  969SOL    HW1 2906   2.784   2.597   1.015  2.0454 -0.4281 -0.6529
  969SOL    HW2 2907   2.881   2.491   1.111  0.8481  2.6183  0.8081
  970SOL     OW 2908   1.141   2.091   1.865 -0.0935  0.6169  0.1113
  970SOL    HW1 2909   1.108   1.996   1.906  0.1649 -0.1048  0.4655
  970SOL    HW2 2910   1.061   2.153   1.841 -3.1768  1.3793  3.6637
  971SOL     OW 2911   2.853   2.116   1.917 -0.0315 -1.0332  0.1454
  971SOL    HW1 2912   2.884   2.197   1.972 -4.3147 -0.8707 -0.0035
  971SOL    HW2 2913   2.901   2.105   1.825 -2.1754  1.4031 -0.2129
  972SOL     OW 2914   1.929   2.471   0.223 -0.1504  0.4021 -0.5583
  972SOL    HW1 2915   1.923   2.379   0.181 -1.2818 -1.7332  2.7374
  972SOL    HW2 2916   1.972   2.459   0.320 -1.8887 -2.8388  1.3963
  973SOL     OW 2917   1.143   0.896   1.876  0.4290 -0.3515  0.0629
  973SOL    HW1 2918   1.095   0.802   1.881  0.3713  0.8623 -1.2214
  973SOL    HW2 2919   1.072   0.963   1.842  1.4221  0.8782  0.7665
  974SOL     OW 2920   1.595   0.585   1.981 -0.1323  0.0922  0.5150
  974SOL    HW1 2921   1.685   0.631   1.948  0.3834  0.3504 -0.2266
  974SOL    HW2 2922   1.510   0.650   1.980 -0.0959  1.7820 -1.6014
  975SOL     OW 2923   2.396   3.027   3.084 -0.5164 -0.0428 -0.0998
  975SOL    HW1 2924   2.306   2.981   3.080  0.4217  0.7204 -0.8036
  975SOL    HW2 2925   2.454   2.994   3.004 -0.3195 -1.7497 -0.6119
  976SOL     OW 2926   1.931   2.699   2.326 -0.6200  0.7031  0.2841
  976SOL    HW1 2927   1.832   2.686   2.356 -1.3465 -0.5382 -0.0005
  976SOL    HW2 2928   1.992   2.710   2.410 -0.9703 -1.5798 -0.0734
  977SOL     OW 2929   0.460   0.709   1.016  0.3656 -0.2203  0.4828
  977SOL    HW1 2930   0.390   0.704   0.931 -1.8656  1.1654 -0.1673
  977SOL    HW2 2931   0.545   0.766   0.991 -0.3954  2.4254 -1.9398
   3.10000   3.10000   3.10000
