1000 SPC/Fw water molecules t=   1.83000 step= 1830
 2931
    1SOL     OW    1   2.515   0.337   2.657 -0.3407 -0.6472  0.2138
    1SOL    HW1    2   2.504   0.238   2.678 -1.1520 -0.0682 -0.3918
    1SOL    HW2    3   2.569   0.386   2.735 -1.6561  1.6522  3.0638
    2SOL     OW    4   2.726   2.864   1.361  0.9211 -0.8431 -0.6373
    2SOL    HW1    5   2.818   2.889   1.312 -0.9644 -0.8809 -2.2392
    2SOL    HW2    6   2.695   2.935   1.431  2.2471  0.1925 -2.1400
    3SOL     OW    7   2.734   2.440   0.418  0.4154  0.0862  0.6959
    3SOL    HW1    8   2.639   2.417   0.385 -0.4124  0.4608  1.3129
    3SOL    HW2    9   2.732   2.528   0.471 -3.3614 -0.5997  0.7846
    4SOL     OW   10   1.259   1.541   2.446 -0.5672  0.6106 -0.4488
    4SOL    HW1   11   1.194   1.532   2.366 -1.9852 -1.2950  0.5072
    4SOL    HW2   12   1.209   1.521   2.538  1.6469  2.0878  2.5769
    5SOL     OW   13   1.139   1.583   2.930  0.5531  0.2678 -0.3910
    5SOL    HW1   14   1.196   1.657   2.972  0.7282  1.7408 -3.3371
    5SOL    HW2   15   1.058   1.618   2.883  1.2868 -0.2161 -2.6412
    6SOL     OW   16   0.179   1.846   0.035 -0.9606 -0.3490  0.6645
    6SOL    HW1   17   0.093   1.866   0.091  2.2864  1.1142  0.3106
    6SOL    HW2   18   0.251   1.781   0.077  0.9835  0.7868 -2.6397
    7SOL     OW   19   2.525   0.911   1.051  0.4748 -0.8288 -0.4957
    7SOL    HW1   20   2.455   0.844   1.088  0.0818 -0.9592 -2.4561
    7SOL    HW2   21   2.550   0.889   0.950 -2.1807 -2.2747 -1.5589
    8SOL     OW   22   0.425   0.712   1.503  0.4698  0.5453  0.3613
    8SOL    HW1   23   0.520   0.690   1.536  1.5944  1.5170 -1.5868
    8SOL    HW2   24   0.425   0.749   1.405  0.9148  0.2621  0.6598
    9SOL     OW   25   1.091   0.905   2.346 -0.9241  0.1686  0.4586
    9SOL    HW1   26   1.164   0.921   2.279  1.2725  1.5845 -1.2084
    9SOL    HW2   27   1.077   0.804   2.342  2.5346  0.3900 -0.1920
   10SOL     OW   28   0.640   1.445   1.275 -0.6807  1.5074  0.2638
   10SOL    HW1   29   0.545   1.446   1.225 -2.7705  2.0236 -0.9280
   10SOL    HW2   30   0.668   1.540   1.302 -2.5753 -0.7397 -0.7222
   11SOL     OW   31   2.318   2.833   0.934 -0.0306 -0.4317  0.6139
   11SOL    HW1   32   2.260   2.792   1.003  1.4827  0.2236 -2.5816
   11SOL    HW2   33   2.417   2.843   0.957  2.5711 -0.1048  0.6813
   12SOL     OW   34   1.477   0.840   0.485 -0.1954 -0.2054  0.0807
   12SOL    HW1   35   1.380   0.860   0.515 -0.4099 -2.1785  1.6985
   12SOL    HW2   36   1.496   0.775   0.402 -0.1000 -0.1152 -0.8902
   13SOL     OW   37   2.442   0.750   1.803 -0.3515  0.0436  0.5191
   13SOL    HW1   38   2.385   0.692   1.870  0.4987  1.7094 -0.8427
   13SOL    HW2   39   2.447   0.704   1.708 -0.4543  0.4465 -2.3084
   14SOL     OW   40   1.940   3.052   0.602  0.0584 -0.4611  0.7521
   14SOL    HW1   41   1.848   3.108   0.588 -1.0656  1.3612  0.5377
   14SOL    HW2   42   1.951   3.030   0.704  0.2407  2.7027 -0.1886
   15SOL     OW   43   1.908   2.132   2.674 -0.0821 -0.1833 -0.2136
   15SOL    HW1   44   1.848   2.110   2.762  0.6400 -1.5365  0.8439
   15SOL    HW2   45   1.908   2.050   2.607  2.2303  0.5882  0.8517
   16SOL     OW   46   1.549   1.775   3.026  0.2664 -0.4250 -0.6279
   16SOL    HW1   47   1.545   1.693   3.084 -1.7917  0.1742 -2.3051
   16SOL    HW2   48   1.633   1.832   3.044 -3.0970  0.4264 -0.3191
   17SOL     OW   49   0.096   0.465   0.176 -0.5775  0.0285  0.0832
   17SOL    HW1   50   0.190   0.499   0.159 -0.5765 -2.5756 -0.5697
   17SOL    HW2   51   0.023   0.496   0.113 -0.3117 -0.3381  4.0201
   18SOL     OW   52   0.875   2.849   2.181 -0.4400 -0.3187  0.6281
   18SOL    HW1   53   0.856   2.761   2.235 -1.3143 -2.4948  0.7659
   18SOL    HW2   54   0.943   2.833   2.105 -0.4270 -2.4001 -0.1046
   19SOL     OW   55   0.516   0.957   1.922 -0.1323 -0.2529  0.4814
   19SOL    HW1   56   0.543   0.904   2.006 -1.9851 -0.0263 -1.5289
   19SOL    HW2   57   0.599   0.995   1.869 -0.6357 -1.7462  0.3369
   20SOL     OW   58   0.247   2.782   0.720 -0.2928 -0.2343 -0.2323
   20SOL    HW1   59   0.147   2.787   0.735  0.7609  0.3240 -1.3811
   20SOL    HW2   60   0.287   2.685   0.689  2.0412 -2.6875 -1.4248
   21SOL     OW   61   2.782   0.285   2.002 -0.0583 -0.1572 -0.5373
   21SOL    HW1   62   2.717   0.215   1.960  2.2731 -1.2304 -0.2161
   21SOL    HW2   63   2.848   0.244   2.070  0.0767  2.1289 -1.5979
   22SOL     OW   64   2.409   0.180   0.120  0.1042  0.3925 -0.6583
   22SOL    HW1   65   2.441   0.112   0.055  1.1753 -1.0897  1.4539
   22SOL    HW2   66   2.323   0.222   0.091  1.8667  0.3121  1.5082
   23SOL     OW   67   2.818   0.510   0.667  0.0119 -0.6828 -0.2536
   23SOL    HW1   68   2.882   0.432   0.686  0.8153  1.3736 -0.8912
   23SOL    HW2   69   2.852   0.583   0.605 -1.6898 -0.1197  4.9616
   24SOL     OW   70   0.298   1.917   0.448 -0.4802  0.5405 -0.0169
   24SOL    HW1   71   0.273   1.978   0.365  0.3899  2.4837 -1.6814
   24SOL    HW2   72   0.382   1.862   0.435 -0.5282  1.8192  2.7828
   25SOL     OW   73   2.294   0.603   0.243 -0.5774 -0.1256  0.5159
   25SOL    HW1   74   2.279   0.616   0.141 -0.0158  0.6476  1.0473
   25SOL    HW2   75   2.344   0.514   0.263  0.9673  0.9429 -0.0590
   26SOL     OW   76   2.446   2.153   2.101  0.1695 -0.2397  1.0709
   26SOL    HW1   77   2.522   2.217   2.131 -1.2589  0.8964  1.8705
   26SOL    HW2   78   2.473   2.090   2.024 -0.8197  0.8854  2.4396
   27SOL     OW   79   0.643   3.011   0.132 -0.0061 -0.3994  0.3995
   27SOL    HW1   80   0.721   3.083   0.101 -0.1667  2.1180  1.3613
   27SOL    HW2   81   0.581   2.982   0.051  1.4760 -0.3052 -0.6992
   28SOL     OW   82   1.568   0.175   0.336 -0.5762  0.5047 -0.2919
   28SOL    HW1   83   1.599   0.131   0.243  1.9880 -3.3748  0.9485
   28SOL    HW2   84   1.629   0.251   0.370  1.4243 -1.8152  1.6458
   29SOL     OW   85   2.020   0.553   0.317  0.6064  0.3455 -0.2399
   29SOL    HW1   86   1.999   0.642   0.368  0.0854  0.0098  3.4061
   29SOL    HW2   87   2.117   0.560   0.289 -1.2201 -0.6605  0.3878
   30SOL     OW   88   0.187   2.131   0.891  0.3221  0.5180 -0.2857
   30SOL    HW1   89   0.163   2.036   0.853  1.2997  1.7934  0.8441
   30SOL    HW2   90   0.096   2.185   0.905  1.1932  1.3743 -3.3692
   31SOL     OW   91   2.092   0.098   2.394  0.1024  0.2261 -0.2443
   31SOL    HW1   92   2.045   0.056   2.477  1.3932  0.0262  0.2162
   31SOL    HW2   93   2.040   0.089   2.304  0.6097  1.3319 -2.4688
   32SOL     OW   94   3.072   3.066   0.248 -0.1673  0.2555 -0.3180
   32SOL    HW1   95   3.041   2.968   0.264  1.2637  1.0214 -0.9963
   32SOL    HW2   96   3.174   3.069   0.222 -1.0575 -0.4615  1.5089
   33SOL     OW   97   0.856   0.288   0.630 -0.3631  0.5969 -0.0573
   33SOL    HW1   98   0.845   0.199   0.576  0.2946  1.6888  0.4501
   33SOL    HW2   99   0.958   0.315   0.636 -3.8041  0.2146 -0.2199
   34SOL     OW  100   0.322   2.660   1.038  0.1509 -0.1234  0.0409
   34SOL    HW1  101   0.291   2.679   0.941  0.2108 -0.0248 -1.2244
   34SOL    HW2  102   0.411   2.713   1.059  1.6907  0.5563 -2.7546
   35SOL     OW  103   0.091   0.203   1.887  0.2454  0.6841 -0.4662
   35SOL    HW1  104   0.129   0.111   1.917  2.6516  0.0828  2.2831
   35SOL    HW2  105   0.037   0.203   1.799  0.9560  1.5250 -0.1301
   36SOL     OW  106   1.882   1.211   1.496  0.1833 -0.2058 -0.6597
   36SOL    HW1  107   1.981   1.192   1.512 -0.5671 -0.4348  0.0880
   36SOL    HW2  108   1.867   1.291   1.429  1.0430  1.5296  0.9402
   37SOL     OW  109   1.157   0.268   1.014  0.1888 -0.0813  0.1755
   37SOL    HW1  110   1.170   0.360   0.967  1.3680 -2.7592  2.4418
   37SOL    HW2  111   1.225   0.197   0.975  1.2398  0.7642 -1.7495
   38SOL     OW  112   1.135   2.800   2.450 -0.2426 -0.6836 -0.4439
   38SOL    HW1  113   1.053   2.764   2.503  1.0536 -0.3598 -0.2707
   38SOL    HW2  114   1.115   2.883   2.389 -2.4960 -1.7923  0.0672
   39SOL     OW  115   2.463   1.394   2.986 -0.2466  0.0041  0.0427
   39SOL    HW1  116   2.518   1.312   3.013 -0.5092  0.7934  2.1260
   39SOL    HW2  117   2.385   1.411   3.053  0.8318  0.4301 -0.1444
   40SOL     OW  118   2.054   2.507   2.511  0.1368 -0.2575  0.0274
   40SOL    HW1  119   2.032   2.603   2.547  2.9151 -1.7328 -0.2765
   40SOL    HW2  120   1.977   2.452   2.473  0.2118 -3.4812  2.3305
   41SOL     OW  121   3.025   0.705   2.821 -0.1361 -0.2087 -0.4919
   41SOL    HW1  122   3.012   0.795   2.870 -0.4823  1.0236  1.1938
   41SOL    HW2  123   2.939   0.654   2.806  0.4520  1.2342  1.7540
   42SOL     OW  124   1.704   1.770   0.487 -0.0667  0.2305  0.0688
   42SOL    HW1  125   1.672   1.673   0.468  0.0170 -0.5131  0.9711
   42SOL    HW2  126   1.753   1.808   0.401 -0.2970 -0.2244 -0.4975
   43SOL     OW  127   0.476   1.697   1.118 -0.5632  0.8278 -0.1789
   43SOL    HW1  128   0.450   1.600   1.096 -0.9060  3.8281  1.1646
   43SOL    HW2  129   0.413   1.737   1.192 -2.7876 -2.0643 -0.9493
   44SOL     OW  130   1.686   2.354   2.936  0.2870  0.1176  0.0295
   44SOL    HW1  131   1.607   2.403   2.985  0.4082  0.4467  1.3166
   44SOL    HW2  132   1.731   2.414   2.863  0.4928  1.5557  1.9011
   45SOL     OW  133   0.353   1.916   2.644 -0.0125  0.8048 -0.2117
   45SOL    HW1  134   0.306   1.933   2.556  1.6590  0.5497 -1.2948
   45SOL    HW2  135   0.445   1.871   2.642 -1.4840  1.0414 -1.4072
   46SOL     OW  136   1.332   0.718   0.237 -0.2377 -0.1503  0.0262
   46SOL    HW1  137   1.336   0.808   0.190 -0.3460 -3.5020  1.5324
   46SOL    HW2  138   1.280   0.652   0.175  2.2885  1.1670 -0.6049
   47SOL     OW  139   0.140   2.369   1.598 -0.0162 -0.2474 -0.4791
   47SOL    HW1  140   0.111   2.276   1.636  0.9110 -1.3804  2.4914
   47SOL    HW2  141   0.120   2.373   1.495  0.5767 -0.9659 -1.4158
   48SOL     OW  142   2.632   0.736   0.140  0.0877 -0.3525 -0.2212
   48SOL    HW1  143   2.629   0.695   0.239 -1.9494 -2.7956  0.6524
   48SOL    HW2  144   2.730   0.744   0.105  1.7910 -0.2999 -0.4764
   49SOL     OW  145   0.324   0.845   1.738 -0.2701 -0.1858 -0.2227
   49SOL    HW1  146   0.410   0.869   1.790 -0.8262 -3.3101 -2.4267
   49SOL    HW2  147   0.340   0.819   1.639 -2.4314  1.0102 -0.9870
   50SOL     OW  148   1.693   1.098   0.318 -0.1075 -0.2863 -0.0961
   50SOL    HW1  149   1.719   0.999   0.302 -0.2040 -0.2694  1.2423
   50SOL    HW2  150   1.636   1.114   0.401  1.6728  1.6661  1.9702
   51SOL     OW  151   2.993   1.758   0.304 -0.3231  0.2708 -0.1067
   51SOL    HW1  152   2.970   1.684   0.237 -0.5414  2.7833  0.0271
   51SOL    HW2  153   3.076   1.733   0.366 -1.2143 -2.6376  0.2001
   52SOL     OW  154   0.781   2.158   0.580  0.1241  0.4797 -0.1575
   52SOL    HW1  155   0.680   2.154   0.571  1.3570 -1.4734 -1.4276
   52SOL    HW2  156   0.817   2.104   0.661  2.0771 -0.4693 -0.5087
   53SOL     OW  157   0.291   0.459   1.451 -0.2198  0.3383  0.5260
   53SOL    HW1  158   0.314   0.556   1.478 -2.1210 -0.4552  1.0881
   53SOL    HW2  159   0.297   0.438   1.349  1.0887  0.1769  1.6119
   54SOL     OW  160   1.726   0.417   0.006 -0.1687  0.1668  0.2257
   54SOL    HW1  161   1.807   0.373   0.052  0.8707 -0.4558 -1.0080
   54SOL    HW2  162   1.646   0.424   0.072 -0.2011  0.1079  0.0236
   55SOL     OW  163   0.789   2.942   0.623  0.3088 -0.7664  0.3175
   55SOL    HW1  164   0.734   3.029   0.603 -4.0462 -3.2092  0.8284
   55SOL    HW2  165   0.891   2.949   0.610 -0.5005 -0.3347 -1.1845
   56SOL     OW  166   0.528   1.555   3.017  0.3215  0.6306 -0.3972
   56SOL    HW1  167   0.463   1.600   3.085 -2.2893  1.5007  1.9630
   56SOL    HW2  168   0.503   1.455   3.010 -1.7341  1.0292 -1.5936
   57SOL     OW  169   1.702   2.465   2.353  0.6433 -0.3049  0.2120
   57SOL    HW1  170   1.791   2.411   2.362 -0.3290 -1.3944 -1.6474
   57SOL    HW2  171   1.627   2.435   2.420  0.5602 -0.0854  1.4269
   58SOL     OW  172   0.623   0.198   1.086  0.1794 -0.1904 -0.8774
   58SOL    HW1  173   0.536   0.197   1.140  1.1739  1.6953  2.3844
   58SOL    HW2  174   0.687   0.121   1.112 -1.4282 -2.4197  0.0876
   59SOL     OW  175   0.464   2.381   2.557  0.2508  0.3777  0.0750
   59SOL    HW1  176   0.466   2.295   2.616 -1.0959 -1.2690  1.8519
   59SOL    HW2  177   0.552   2.437   2.564 -1.2112 -1.3223 -0.8704
   60SOL     OW  178   2.307   2.050   2.311  0.4910  0.1258  0.2335
   60SOL    HW1  179   2.366   2.087   2.236  1.5811 -1.8750  2.3096
   60SOL    HW2  180   2.339   2.088   2.402  0.0189  1.7298  0.6987
   61SOL     OW  181   1.209   0.639   0.485  0.3461 -0.0789  0.3209
   61SOL    HW1  182   1.108   0.662   0.502 -1.1766  0.8649  0.5526
   61SOL    HW2  183   1.243   0.671   0.395 -2.3506 -0.6939  0.5311
   62SOL     OW  184   2.802   1.677   2.702  0.1533 -0.3067 -0.2805
   62SOL    HW1  185   2.762   1.585   2.701 -0.5383  2.9651  1.6332
   62SOL    HW2  186   2.878   1.687   2.775  2.9571 -0.9716 -2.3860
   63SOL     OW  187   0.551   0.858   0.165  0.1313 -1.0816  0.2110
   63SOL    HW1  188   0.602   0.938   0.115 -0.0313 -0.8156  1.7718
   63SOL    HW2  189   0.595   0.836   0.256 -0.2034  0.7659  1.7826
   64SOL     OW  190   3.015   0.544   2.379 -0.1587  0.3680  0.1972
   64SOL    HW1  191   2.945   0.583   2.441  3.2426  0.7633 -0.4227
   64SOL    HW2  192   3.008   0.582   2.286  0.8920  0.3595  0.3159
   65SOL     OW  193   0.190   1.423   0.638 -0.5870  0.2450 -0.4668
   65SOL    HW1  194   0.175   1.502   0.709 -1.9869  0.9626  2.0115
   65SOL    HW2  195   0.247   1.453   0.554 -1.5523 -0.5415  0.3406
   66SOL     OW  196   2.590   0.322   0.507 -0.2437 -0.4058 -0.1802
   66SOL    HW1  197   2.691   0.316   0.531 -1.5645  2.0662 -1.3611
   66SOL    HW2  198   2.529   0.256   0.567  0.8111  1.7480 -1.6170
   67SOL     OW  199   0.580   2.498   1.513 -0.5846  0.2988  0.4117
   67SOL    HW1  200   0.670   2.470   1.561  2.3947 -0.2584  0.1687
   67SOL    HW2  201   0.525   2.417   1.480  2.5692  1.5116 -0.9422
   68SOL     OW  202   0.916   1.039   2.502  0.4979 -0.7329 -0.3550
   68SOL    HW1  203   0.988   0.988   2.447 -2.0110  0.2715 -1.2170
   68SOL    HW2  204   0.836   1.057   2.438  0.1403 -0.4277  0.5452
   69SOL     OW  205   0.772   2.596   2.352 -0.6275  0.4145 -0.2579
   69SOL    HW1  206   0.796   2.523   2.286  0.8168  0.1399 -0.6339
   69SOL    HW2  207   0.673   2.610   2.371 -0.2466 -3.4222 -1.4368
   70SOL     OW  208   0.512   0.154   2.583  0.7415  0.4155 -0.4962
   70SOL    HW1  209   0.416   0.139   2.622 -0.3049  0.5900  0.2529
   70SOL    HW2  210   0.577   0.073   2.580  1.9140  0.9758 -0.7005
   71SOL     OW  211   1.066   1.754   0.296  0.3031 -0.2184  0.3716
   71SOL    HW1  212   0.991   1.758   0.368  1.5845 -0.6988 -1.0053
   71SOL    HW2  213   1.028   1.767   0.197 -1.6718 -0.2455  1.5693
   72SOL     OW  214   1.859   0.249   2.151 -0.1658 -0.2791  0.3451
   72SOL    HW1  215   1.875   0.309   2.066 -0.8482  0.3180 -1.3473
   72SOL    HW2  216   1.916   0.158   2.143  0.2958 -4.6265 -0.0556
   73SOL     OW  217   2.744   2.198   2.479  0.3730 -0.2125 -0.5166
   73SOL    HW1  218   2.759   2.107   2.433  0.6555 -0.2378  3.2811
   73SOL    HW2  219   2.792   2.206   2.572 -2.4030 -1.0828  0.2803
   74SOL     OW  220   2.687   2.967   2.149 -0.8573  0.0117  0.3267
   74SOL    HW1  221   2.620   2.930   2.222  0.9384 -0.5088 -2.5990
   74SOL    HW2  222   2.780   3.001   2.183 -1.9983  1.8069 -0.9069
   75SOL     OW  223   0.929   0.783   1.170 -0.0100 -0.0882 -0.0884
   75SOL    HW1  224   0.835   0.821   1.148 -1.4761 -0.4436  0.6563
   75SOL    HW2  225   0.966   0.845   1.248  1.4397  0.6949  0.4626
   76SOL     OW  226   1.843   1.264   2.627  0.1064 -0.0290 -0.5893
   76SOL    HW1  227   1.742   1.267   2.653 -1.5149 -0.4363  3.9943
   76SOL    HW2  228   1.899   1.343   2.661 -0.4142  1.1987  0.1846
   77SOL     OW  229   2.930   0.907   1.028  0.2061 -0.3774  0.0226
   77SOL    HW1  230   2.902   0.808   1.051  0.1103 -0.4463  0.9725
   77SOL    HW2  231   3.001   0.943   1.093  1.2408 -0.1953 -1.1518
   78SOL     OW  232   1.949   1.438   1.339  0.0580  0.6290 -0.3168
   78SOL    HW1  233   2.033   1.422   1.284  1.1256 -1.6806  0.3208
   78SOL    HW2  234   1.869   1.466   1.279  2.4283 -0.5843 -0.1120
   79SOL     OW  235   0.673   1.466   0.836 -0.6839  0.2603 -0.0770
   79SOL    HW1  236   0.572   1.465   0.856 -3.1481  0.6329  2.4374
   79SOL    HW2  237   0.710   1.371   0.809 -1.0991 -0.8234 -1.6437
   80SOL     OW  238   0.686   0.482   1.599  0.2392  0.0748 -0.4055
   80SOL    HW1  239   0.693   0.510   1.500  0.3313 -0.7256 -0.7839
   80SOL    HW2  240   0.667   0.378   1.596 -0.0636  0.2529 -2.2298
   81SOL     OW  241   1.064   1.300   2.493 -0.5077  0.2778 -0.4836
   81SOL    HW1  242   0.990   1.236   2.534 -2.4324 -0.2021 -1.0524
   81SOL    HW2  243   1.088   1.277   2.393  2.9865 -1.8776  0.0963
   82SOL     OW  244   0.944   2.943   1.617  0.0747 -0.5088  0.1721
   82SOL    HW1  245   0.969   2.856   1.568 -1.7244  1.2696 -0.6414
   82SOL    HW2  246   0.958   3.030   1.566  2.2628  1.7030  1.0948
   83SOL     OW  247   2.620   2.340   0.911 -0.3415 -0.0247  0.1672
   83SOL    HW1  248   2.547   2.310   0.847  1.6747  2.0350  2.5734
   83SOL    HW2  249   2.629   2.445   0.912 -0.3291  1.3653  0.9409
   84SOL     OW  250   0.756   3.074   2.327 -0.4716 -0.0650  0.4758
   84SOL    HW1  251   0.706   3.061   2.419  0.6460  0.8425 -0.4372
   84SOL    HW2  252   0.781   2.986   2.286  0.1821 -0.1312  0.3680
   85SOL     OW  253   0.305   1.691   1.350 -0.2833 -0.3999  0.1071
   85SOL    HW1  254   0.287   1.793   1.380 -3.4286 -0.7275 -0.0642
   85SOL    HW2  255   0.344   1.634   1.431  0.0185  0.9281  1.7823
   86SOL     OW  256   0.466   1.054   1.404  0.6477  0.3647  0.1143
   86SOL    HW1  257   0.428   0.998   1.325  1.1804 -0.1667 -0.5512
   86SOL    HW2  258   0.554   1.015   1.429 -1.7380 -0.4656 -1.2259
   87SOL     OW  259   1.641   0.642   0.339 -0.5901  0.5925  0.9861
   87SOL    HW1  260   1.698   0.725   0.307 -1.5698  0.3036  0.7883
   87SOL    HW2  261   1.589   0.601   0.256  0.5737  0.4915 -0.2501
   88SOL     OW  262   1.560   1.324   0.245 -0.7718  0.1415  0.0846
   88SOL    HW1  263   1.614   1.230   0.258 -1.9405 -0.5736  1.7094
   88SOL    HW2  264   1.464   1.307   0.212  4.0314 -0.3116  0.0861
   89SOL     OW  265   3.087   0.373   0.693 -0.1901 -0.4068 -0.3578
   89SOL    HW1  266   3.193   0.368   0.690 -0.7649 -4.2071 -1.1303
   89SOL    HW2  267   3.050   0.291   0.644 -0.4480 -0.2382 -0.3892
   90SOL     OW  268   0.751   1.551   0.115 -0.1892  0.5117 -0.1774
   90SOL    HW1  269   0.843   1.501   0.113  0.2384  2.0064  1.9343
   90SOL    HW2  270   0.687   1.522   0.039  1.6151 -0.4197 -0.5557
   91SOL     OW  271   1.304   1.510   1.697 -0.4384  0.4670 -0.2599
   91SOL    HW1  272   1.293   1.559   1.785 -1.3682 -0.8235  1.4182
   91SOL    HW2  273   1.396   1.467   1.685 -0.7422 -1.4971 -0.6245
   92SOL     OW  274   0.061   0.991   1.184  0.3177 -0.8226 -0.5840
   92SOL    HW1  275   0.131   1.054   1.141  1.1634  2.4746 -1.4425
   92SOL    HW2  276   0.061   1.000   1.288  0.7773 -0.4977  2.9351
   93SOL     OW  277   3.040   2.646   0.059 -0.1065  0.2087 -0.1658
   93SOL    HW1  278   3.025   2.657  -0.041  1.5964 -0.5912 -0.1323
   93SOL    HW2  279   3.062   2.552   0.082  1.2532  2.7462 -0.5669
   94SOL     OW  280   1.526   1.369   1.666  0.3545  0.6919 -0.6943
   94SOL    HW1  281   1.568   1.279   1.686  1.2107  2.7847  1.9084
   94SOL    HW2  282   1.584   1.419   1.598  1.1459  2.4074  0.5016
   95SOL     OW  283   1.368   2.471   2.937  0.6191  0.3350 -0.0729
   95SOL    HW1  284   1.279   2.463   2.993 -2.8290 -0.0678 -0.0877
   95SOL    HW2  285   1.407   2.383   2.900 -1.3376  0.8693  1.0358
   96SOL     OW  286   0.575   2.163   1.269  0.2591  0.1477 -0.3158
   96SOL    HW1  287   0.518   2.127   1.190  1.8580 -1.0529 -0.2977
   96SOL    HW2  288   0.616   2.087   1.328  0.1366  0.0177 -0.8002
   97SOL     OW  289   0.260   1.593   2.392  0.2389  0.3161 -0.0484
   97SOL    HW1  290   0.243   1.691   2.382  2.3935  0.1065  3.2737
   97SOL    HW2  291   0.234   1.553   2.483 -0.1142  1.9241  1.2100
   98SOL     OW  292   2.231   1.677   1.193  0.7782  0.1255  0.2180
   98SOL    HW1  293   2.210   1.572   1.189  0.3043  2.0295  1.2546
   98SOL    HW2  294   2.320   1.697   1.145 -0.1363  1.9989  2.1762
   99SOL     OW  295   2.634   2.068   1.298  0.1955  0.3025 -0.9661
   99SOL    HW1  296   2.672   2.123   1.377  0.9866  4.3318  0.1776
   99SOL    HW2  297   2.548   2.015   1.319  3.8829 -2.8789  1.7826
  100SOL     OW  298   2.330   0.362   2.115  0.2465  0.5397 -0.3993
  100SOL    HW1  299   2.276   0.346   2.203  0.8222  0.6616  0.1243
  100SOL    HW2  300   2.429   0.382   2.137 -2.4061  0.5089 -1.2203
  101SOL     OW  301   0.340   1.519   0.423 -0.5747  0.1493 -0.5910
  101SOL    HW1  302   0.386   1.581   0.500  2.0233  0.2425 -2.1656
  101SOL    HW2  303   0.419   1.485   0.362  0.3045  2.0924 -2.1275
  102SOL     OW  304   2.282   1.060   0.885  0.2479 -0.6636  0.3029
  102SOL    HW1  305   2.240   0.966   0.884  0.3924  1.4416  0.4082
  102SOL    HW2  306   2.347   1.074   0.801  1.3917  1.0115 -3.2012
  103SOL     OW  307   2.259   0.068   0.378  0.2501 -0.4559 -0.3793
  103SOL    HW1  308   2.305   0.146   0.342 -0.0832 -2.1707  3.1870
  103SOL    HW2  309   2.323  -0.001   0.425 -0.5280 -0.7623  2.5917
  104SOL     OW  310   3.074   1.812   2.202  0.0355 -0.0738 -0.6432
  104SOL    HW1  311   3.130   1.813   2.116  2.6860  2.7887 -0.8257
  104SOL    HW2  312   2.974   1.827   2.179  3.1193 -0.6384  2.0729
  105SOL     OW  313   1.288   2.093   0.778 -0.0988 -0.1154  0.3463
  105SOL    HW1  314   1.274   2.151   0.694 -0.5452 -0.1795  2.3406
  105SOL    HW2  315   1.316   1.999   0.753 -3.4106 -0.3114  0.9397
  106SOL     OW  316   2.127   0.412   1.438  0.3278  0.5033 -0.0582
  106SOL    HW1  317   2.055   0.342   1.411 -1.9886 -0.8579  0.1755
  106SOL    HW2  318   2.143   0.417   1.539  0.5706 -3.8301 -0.0694
  107SOL     OW  319   1.917   2.921   1.162 -0.2537 -0.2872 -0.1226
  107SOL    HW1  320   1.854   3.002   1.196  1.8441  2.8498 -0.7847
  107SOL    HW2  321   1.873   2.844   1.107  1.9872 -0.4486  1.2153
  108SOL     OW  322   0.870   2.786   1.087  0.3026 -0.3522 -0.4770
  108SOL    HW1  323   0.891   2.706   1.021  1.0813 -1.2649 -0.9566
  108SOL    HW2  324   0.949   2.797   1.155 -0.4555  0.8532  1.3505
  109SOL     OW  325   2.189   0.148   0.737  0.0798 -0.3976  0.2878
  109SOL    HW1  326   2.118   0.084   0.693  0.3893 -0.7943 -0.6962
  109SOL    HW2  327   2.158   0.182   0.829  0.8318 -0.6557 -0.2841
  110SOL     OW  328   0.500   2.823   2.743  0.2449  0.3937 -0.5194
  110SOL    HW1  329   0.499   2.824   2.640  0.0212 -0.4511  1.0421
  110SOL    HW2  330   0.552   2.737   2.780 -0.9540 -0.1731 -0.0695
  111SOL     OW  331   1.331   0.616   2.327  0.2900  0.3814  1.0039
  111SOL    HW1  332   1.235   0.631   2.367 -1.2872  1.7066 -1.0671
  111SOL    HW2  333   1.379   0.535   2.372 -1.6187 -0.0888 -2.2759
  112SOL     OW  334   1.742   0.527   1.532  0.1976  0.6627  0.2186
  112SOL    HW1  335   1.719   0.532   1.429  0.8054  1.7161 -1.5006
  112SOL    HW2  336   1.665   0.545   1.594  1.9753 -2.4893 -4.2394
  113SOL     OW  337   2.257   1.689   1.797 -0.2351  0.0995 -0.0590
  113SOL    HW1  338   2.327   1.633   1.743  1.1385 -2.6049 -1.1921
  113SOL    HW2  339   2.288   1.694   1.896 -1.3898  0.6228 -0.4560
  114SOL     OW  340   0.280   0.405   1.158  0.5580  0.7900 -0.1465
  114SOL    HW1  341   0.178   0.417   1.144 -1.1240  0.2803 -0.9926
  114SOL    HW2  342   0.337   0.449   1.089  1.4034 -1.4912  1.8455
  115SOL     OW  343   2.671   1.534   1.253  0.6509 -0.4442  0.3792
  115SOL    HW1  344   2.654   1.432   1.253 -0.5060 -0.2402  1.5224
  115SOL    HW2  345   2.770   1.563   1.250 -1.5352 -1.2812 -2.4051
  116SOL     OW  346   1.904   0.920   0.680 -0.4026  0.2813 -0.9582
  116SOL    HW1  347   1.802   0.904   0.687  0.9202  1.7721  0.1642
  116SOL    HW2  348   1.918   1.021   0.678 -2.0446 -1.9566  2.0116
  117SOL     OW  349   1.133   0.363   0.575 -0.4384  0.0465 -0.0457
  117SOL    HW1  350   1.173   0.457   0.566  0.2561  2.1984 -2.6202
  117SOL    HW2  351   1.124   0.328   0.478  1.5822  0.6585 -0.4251
  118SOL     OW  352   1.140   1.223   1.083  0.1249  0.5843  0.2409
  118SOL    HW1  353   1.056   1.229   1.140  0.0651 -0.8487  1.2369
  118SOL    HW2  354   1.182   1.318   1.063 -1.1099 -1.7995  2.1799
  119SOL     OW  355   1.886   1.611   2.179 -0.1836  0.1707  0.2808
  119SOL    HW1  356   1.816   1.673   2.139  0.2048 -0.4847 -0.6465
  119SOL    HW2  357   1.953   1.580   2.101  1.4988  0.2836  1.7432
  120SOL     OW  358   2.957   2.814   0.281  0.0708 -0.0913  0.2389
  120SOL    HW1  359   2.961   2.750   0.200 -2.0070 -0.6742  2.1466
  120SOL    HW2  360   2.855   2.833   0.311  0.6658 -0.1607  0.9678
  121SOL     OW  361   1.985   0.790   2.334  0.3439  0.4856 -0.1478
  121SOL    HW1  362   2.037   0.864   2.283  1.1862 -0.9836  0.7857
  121SOL    HW2  363   2.002   0.698   2.292  2.3702 -0.9479  0.5053
  122SOL     OW  364   2.616   2.487   1.371 -0.5464 -0.1136  0.4358
  122SOL    HW1  365   2.645   2.432   1.285 -0.5568 -0.7825 -0.6832
  122SOL    HW2  366   2.620   2.429   1.457 -0.3610  1.2120 -1.8261
  123SOL     OW  367   1.642   0.192   1.642 -0.2901  0.5284 -0.4354
  123SOL    HW1  368   1.669   0.100   1.599 -0.7692  1.2384  1.3225
  123SOL    HW2  369   1.719   0.231   1.702 -2.7986  0.7472  2.1041
  124SOL     OW  370   3.045   0.399   1.155 -0.3488  0.0148 -0.5171
  124SOL    HW1  371   2.955   0.420   1.200 -0.1374 -0.9666 -3.0278
  124SOL    HW2  372   3.052   0.446   1.056  1.8134  0.5432 -1.0098
  125SOL     OW  373   0.891   1.978   0.747  0.3274 -0.9546 -0.0725
  125SOL    HW1  374   0.977   1.931   0.785  1.7956 -0.0153  0.5083
  125SOL    HW2  375   0.823   1.995   0.818  0.5275  1.8095 -1.9758
  126SOL     OW  376   1.896   2.297   2.416  0.1230  0.4245 -0.3965
  126SOL    HW1  377   1.972   2.272   2.345 -0.9608  0.1877 -1.8953
  126SOL    HW2  378   1.902   2.251   2.510  0.1507  0.0415 -1.4788
  127SOL     OW  379   0.917   0.958   0.172  0.3249 -0.2701  0.0249
  127SOL    HW1  380   0.948   0.998   0.264  0.0273  1.1431 -2.2982
  127SOL    HW2  381   0.906   0.856   0.175  1.9066 -0.8881  1.6333
  128SOL     OW  382   0.912   0.182   1.376 -0.5284 -0.0909  0.0938
  128SOL    HW1  383   0.888   0.264   1.319 -0.3645  0.2727 -0.9814
  128SOL    HW2  384   0.867   0.093   1.357 -0.9554 -1.2494 -0.4353
  129SOL     OW  385   1.892   0.705   1.874 -0.0578 -0.2909  0.0700
  129SOL    HW1  386   1.914   0.717   1.777 -1.6196 -1.4322  0.4824
  129SOL    HW2  387   1.920   0.787   1.936 -0.3174  0.9635 -0.3574
  130SOL     OW  388   1.389   2.161   1.018 -0.1815  0.2986 -0.2355
  130SOL    HW1  389   1.338   2.126   0.932 -0.5398  1.7386 -0.7014
  130SOL    HW2  390   1.450   2.243   1.000 -0.7864  0.5929  2.2060
  131SOL     OW  391   3.037   1.389   1.442  0.3426 -0.4968 -0.2237
  131SOL    HW1  392   2.996   1.302   1.432  1.4250  1.2525 -1.2569
  131SOL    HW2  393   3.140   1.385   1.452  2.6550  2.3389  0.5326
  132SOL     OW  394   2.065   2.434   0.551 -0.0964  0.3732  0.2318
  132SOL    HW1  395   1.966   2.468   0.541  1.9184  0.6229 -2.0266
  132SOL    HW2  396   2.072   2.345   0.608 -0.3102 -1.6091  2.8084
  133SOL     OW  397   1.767   2.492   2.707 -0.4288 -0.3315 -0.2667
  133SOL    HW1  398   1.692   2.456   2.647 -1.7417  1.2687 -0.0484
  133SOL    HW2  399   1.737   2.581   2.754 -2.1325  0.8214  1.5619
  134SOL     OW  400   2.607   2.414   1.648 -0.2560 -0.4544 -0.1026
  134SOL    HW1  401   2.555   2.370   1.730 -0.1047  0.4661 -0.2060
  134SOL    HW2  402   2.663   2.501   1.673 -0.4745 -0.9121 -0.1339
  135SOL     OW  403   0.812   1.339   2.688 -0.0628 -0.0190 -0.2715
  135SOL    HW1  404   0.738   1.276   2.720  0.3581  1.2983  0.8081
  135SOL    HW2  405   0.805   1.350   2.584 -0.5079 -1.0151  2.7611
  136SOL     OW  406   1.213   2.002   0.425 -0.1343 -0.0297  0.1106
  136SOL    HW1  407   1.144   2.077   0.455 -0.8498  1.6438  0.1560
  136SOL    HW2  408   1.170   1.906   0.420 -1.8795 -1.2294 -1.6605
  137SOL     OW  409   0.468   1.168   2.286 -0.1954  0.0460 -0.5639
  137SOL    HW1  410   0.367   1.176   2.297 -0.7119  0.6705 -0.3095
  137SOL    HW2  411   0.503   1.079   2.321 -0.6343  1.3463 -2.5743
  138SOL     OW  412   2.427   1.483   0.276 -0.4420 -0.0502 -0.4417
  138SOL    HW1  413   2.353   1.455   0.210 -1.3829  3.4625  2.1598
  138SOL    HW2  414   2.478   1.403   0.326  1.4362 -0.4903  2.3781
  139SOL     OW  415   1.900   2.648   1.559  0.0907 -0.2268  0.3206
  139SOL    HW1  416   1.804   2.664   1.522 -1.1907 -0.0553 -2.0480
  139SOL    HW2  417   1.965   2.598   1.493  2.8885  1.0807  0.2926
  140SOL     OW  418   3.023   2.978   2.627  0.5653  0.8525  0.5050
  140SOL    HW1  419   3.049   2.878   2.601 -0.1856 -1.7200  0.3386
  140SOL    HW2  420   3.099   3.053   2.607  3.5994  1.7978  2.5693
  141SOL     OW  421   1.283   1.639   1.421 -0.0921  0.0345  0.0556
  141SOL    HW1  422   1.201   1.687   1.382 -2.0279  0.3984 -0.1588
  141SOL    HW2  423   1.258   1.601   1.515 -3.3173 -0.5112 -0.5627
  142SOL     OW  424   1.588   0.649   2.246 -0.2068 -0.4739  0.0217
  142SOL    HW1  425   1.561   0.697   2.161  0.6738 -1.2540  1.4306
  142SOL    HW2  426   1.500   0.628   2.296  0.0188 -0.9880 -1.2316
  143SOL     OW  427   2.795   0.778   0.559  0.5466  0.2112  0.1633
  143SOL    HW1  428   2.848   0.837   0.490 -2.3071  0.7446  2.3585
  143SOL    HW2  429   2.812   0.811   0.657  2.0409  0.5268  1.3752
  144SOL     OW  430   2.913   1.121   1.431  0.1280 -0.3167 -0.2116
  144SOL    HW1  431   2.894   1.127   1.534 -0.9390 -3.1962  2.0262
  144SOL    HW2  432   2.999   1.063   1.417  0.0646 -0.5324 -0.0082
  145SOL     OW  433   0.945   1.793   0.058  0.5517  0.6180 -0.3030
  145SOL    HW1  434   0.954   1.834  -0.035 -0.4417  1.9649 -0.4892
  145SOL    HW2  435   0.875   1.714   0.062  0.8777 -1.9703 -0.5393
  146SOL     OW  436   2.491   0.644   1.526  0.4037 -0.5294  0.1566
  146SOL    HW1  437   2.479   0.550   1.475  2.2855 -0.5329 -1.6325
  146SOL    HW2  438   2.449   0.724   1.485  0.1450  0.0619  3.8476
  147SOL     OW  439   1.113   2.521   0.543 -0.2283 -0.2510  0.2921
  147SOL    HW1  440   1.068   2.583   0.475 -0.9661 -0.0602  0.5704
  147SOL    HW2  441   1.208   2.486   0.511  0.5042  2.3508 -1.8904
  148SOL     OW  442   1.584   1.404   3.090 -0.4204  0.0738  0.0054
  148SOL    HW1  443   1.608   1.310   3.053 -0.7598  0.8388  1.2161
  148SOL    HW2  444   1.555   1.391   3.192 -1.7534  0.1351 -0.4268
  149SOL     OW  445   0.702   1.492   1.989  0.6596 -0.2526  0.4533
  149SOL    HW1  446   0.618   1.449   2.035  1.4851 -1.1406  2.6219
  149SOL    HW2  447   0.704   1.477   1.888 -2.2692 -0.1188  3.1190
  150SOL     OW  448   2.964   1.206   1.016 -0.2211  0.3784  0.3394
  150SOL    HW1  449   3.061   1.231   1.051  0.7063 -1.8331 -0.4295
  150SOL    HW2  450   2.956   1.104   1.007 -1.9340 -3.4353 -3.6925
  151SOL     OW  451   0.158   0.835   2.097  0.4070 -0.6633 -0.0166
  151SOL    HW1  452   0.180   0.927   2.057  0.7942 -0.7142  0.5521
  151SOL    HW2  453   0.212   0.764   2.038 -0.0675 -0.1346 -1.5605
  152SOL     OW  454   1.444   1.875   1.106 -0.1401  0.3494  0.1552
  152SOL    HW1  455   1.498   1.960   1.080  2.1587 -1.2800 -0.1392
  152SOL    HW2  456   1.341   1.884   1.097  2.2641  0.6670  2.6207
  153SOL     OW  457   0.056   1.500   0.261 -0.3570  0.4489  0.0940
  153SOL    HW1  458  -0.023   1.435   0.279  2.9953  0.7648  1.3632
  153SOL    HW2  459   0.099   1.541   0.347  1.0819 -2.5574  1.2014
  154SOL     OW  460   2.263   1.856   2.781 -0.1764 -0.1236  0.1977
  154SOL    HW1  461   2.301   1.763   2.803 -0.8411  1.2916 -0.2777
  154SOL    HW2  462   2.340   1.907   2.734  0.4478  1.3461 -0.6885
  155SOL     OW  463   2.615   1.305   0.372  0.3634  0.4535 -0.6593
  155SOL    HW1  464   2.635   1.345   0.464  2.2687  1.0591 -2.5004
  155SOL    HW2  465   2.672   1.219   0.351  3.1161  1.5175  0.3934
  156SOL     OW  466   2.484   0.809   0.772  0.6061  0.2213  0.1048
  156SOL    HW1  467   2.381   0.796   0.779  1.1004 -0.0659 -1.2195
  156SOL    HW2  468   2.500   0.860   0.688 -0.6387 -1.4236  3.1806
  157SOL     OW  469   1.225   3.086   3.021 -0.1351 -0.1459 -0.2347
  157SOL    HW1  470   1.278   3.039   2.945 -1.7360  2.1736  0.4278
  157SOL    HW2  471   1.269   3.168   3.071 -0.4213  0.6956 -0.2143
  158SOL     OW  472   1.091   1.888   1.868 -0.2963  0.2336 -0.3043
  158SOL    HW1  473   1.127   1.984   1.839 -0.1674 -0.9953  1.4348
  158SOL    HW2  474   0.994   1.894   1.908 -2.2907 -1.3636  1.5552
  159SOL     OW  475   0.806   0.387   1.239 -0.3104  0.5076 -0.0624
  159SOL    HW1  476   0.773   0.482   1.252  1.5937  0.0121 -0.8979
  159SOL    HW2  477   0.740   0.322   1.194  0.1227 -1.8348 -1.8806
  160SOL     OW  478   1.378   2.465   1.419 -0.2169  0.2266  0.3462
  160SOL    HW1  479   1.329   2.402   1.485  1.8968  1.2562  1.3024
  160SOL    HW2  480   1.482   2.449   1.419 -0.8653 -0.7644 -0.6458
  161SOL     OW  481   0.064   2.643   0.420  0.0220  0.3084 -0.4013
  161SOL    HW1  482   0.017   2.555   0.409 -1.0338  0.4962  1.7277
  161SOL    HW2  483  -0.001   2.717   0.400  1.2055 -1.1180  0.2828
  162SOL     OW  484   2.526   1.939   0.442  0.2255  0.2614  0.3722
  162SOL    HW1  485   2.587   1.937   0.356  1.1271 -0.2031 -1.2540
  162SOL    HW2  486   2.464   1.853   0.459 -3.1054 -1.6401  3.3728
  163SOL     OW  487   1.945   2.726   0.799 -0.3402 -0.8616  0.2362
  163SOL    HW1  488   1.912   2.744   0.702 -0.1379  0.6835  2.5752
  163SOL    HW2  489   2.025   2.658   0.808 -0.4356  2.1024  1.5169
  164SOL     OW  490   3.042   0.145   1.242  0.0884  0.3118  0.1165
  164SOL    HW1  491   3.026   0.238   1.192 -3.4738  1.2523  0.0936
  164SOL    HW2  492   3.127   0.139   1.303 -1.3208 -0.8975  1.7731
  165SOL     OW  493   1.110   1.410   0.656  0.0011  0.1120  0.2409
  165SOL    HW1  494   1.055   1.460   0.727  3.2946 -1.9938  1.5188
  165SOL    HW2  495   1.068   1.421   0.562  1.2631  0.6167 -1.1793
  166SOL     OW  496   1.559   0.981   1.821 -0.2082 -1.0040  0.1185
  166SOL    HW1  497   1.466   1.018   1.842  1.8572 -2.2225 -1.5938
  166SOL    HW2  498   1.622   1.045   1.765 -0.9491 -0.5702  1.0643
  167SOL     OW  499   0.671   2.026   1.516  0.0326 -0.2221  0.0504
  167SOL    HW1  500   0.703   2.091   1.592  1.5600  0.9772  0.2200
  167SOL    HW2  501   0.599   1.962   1.555 -1.9768  1.8887  0.7828
  168SOL     OW  502   1.642   2.295   0.125  0.3481  0.0703  0.2779
  168SOL    HW1  503   1.718   2.284   0.055 -0.2071  1.2778 -0.8873
  168SOL    HW2  504   1.678   2.297   0.222  0.1693  0.3109 -3.6699
  169SOL     OW  505   3.055   2.609   2.177 -0.0552 -0.5706 -0.6957
  169SOL    HW1  506   3.072   2.582   2.076 -1.8427  0.3150 -0.0001
  169SOL    HW2  507   3.087   2.540   2.249 -0.5678 -1.1098  0.3173
  170SOL     OW  508   1.186   0.137   2.097 -0.1358  0.1989 -0.0421
  170SOL    HW1  509   1.275   0.170   2.143  1.8841  0.5498  0.9510
  170SOL    HW2  510   1.185   0.157   1.996 -1.8419 -0.4640  0.8667
  171SOL     OW  511   0.197   0.859   2.451  0.2281  0.1102  0.0112
  171SOL    HW1  512   0.100   0.866   2.486  1.4903 -1.8847 -0.2851
  171SOL    HW2  513   0.200   0.902   2.353  1.9099  1.9191 -2.0220
  172SOL     OW  514   0.965   0.966   2.773  0.7884  0.8603  0.1150
  172SOL    HW1  515   0.901   1.013   2.842  2.0775 -0.5598  3.0874
  172SOL    HW2  516   0.944   0.980   2.672 -0.4011 -0.2968 -2.5273
  173SOL     OW  517   0.364   2.562   3.047  0.2720 -0.2422 -0.4592
  173SOL    HW1  518   0.402   2.486   2.988 -0.4599 -2.5467 -1.4025
  173SOL    HW2  519   0.368   2.529   3.144  0.7309 -0.5850  1.4461
  174SOL     OW  520   1.466   2.855   1.012 -0.0177 -0.2707 -0.5736
  174SOL    HW1  521   1.525   2.914   0.950 -2.3509 -0.5797 -0.1665
  174SOL    HW2  522   1.452   2.761   0.974 -0.1028  0.0847 -1.3897
  175SOL     OW  523   0.480   3.055   1.722 -0.5302  0.5993 -0.0480
  175SOL    HW1  524   0.544   3.050   1.809 -0.4138  1.4002  0.7147
  175SOL    HW2  525   0.414   3.138   1.718 -0.0628  1.1112  0.3348
  176SOL     OW  526   2.532   0.486   0.011 -0.5336  0.4176  0.9685
  176SOL    HW1  527   2.555   0.576   0.055 -1.4578 -1.6527  0.8199
  176SOL    HW2  528   2.551   0.399   0.065  1.3129  1.3253 -0.2129
  177SOL     OW  529   0.378   0.164   0.801 -0.2280 -0.3647  0.0063
  177SOL    HW1  530   0.343   0.076   0.832 -0.6639 -1.0001 -1.1670
  177SOL    HW2  531   0.481   0.174   0.801  3.2019 -4.3442  0.3901
  178SOL     OW  532   0.033   2.718   2.647  0.5203  0.0752  0.1255
  178SOL    HW1  533   0.039   2.615   2.632  1.1512 -1.6658  0.3748
  178SOL    HW2  534   0.121   2.750   2.693 -0.8135 -1.5537 -0.1221
  179SOL     OW  535   2.967   1.614   1.240  0.2369  0.3721 -0.0211
  179SOL    HW1  536   3.036   1.618   1.165 -2.1560 -0.8665 -0.6511
  179SOL    HW2  537   2.988   1.538   1.307  0.0220 -1.1825 -3.7401
  180SOL     OW  538   0.270   1.411   1.750  0.0045  0.0082  0.3581
  180SOL    HW1  539   0.345   1.359   1.803  0.1900 -1.4795 -0.5159
  180SOL    HW2  540   0.225   1.484   1.804 -3.7929 -1.9257  0.7140
  181SOL     OW  541   3.007   1.743   2.495 -0.3585  0.1002 -0.0014
  181SOL    HW1  542   3.047   1.783   2.410  1.5117  2.3224  1.2290
  181SOL    HW2  543   2.906   1.756   2.516  0.9246 -0.6048 -0.7158
  182SOL     OW  544   2.181   1.422   1.173  0.5440 -0.2440 -0.5193
  182SOL    HW1  545   2.213   1.328   1.206 -0.7065 -1.0409  2.8748
  182SOL    HW2  546   2.219   1.443   1.078  0.1203 -0.9633  1.3999
  183SOL     OW  547   1.431   2.239   2.444 -0.3711 -0.4255  0.0002
  183SOL    HW1  548   1.345   2.178   2.455  0.1649 -2.9711 -0.8213
  183SOL    HW2  549   1.521   2.182   2.441 -0.7685  0.7906  0.5428
  184SOL     OW  550   2.214   0.778   0.799  0.4952  0.3836  0.9797
  184SOL    HW1  551   2.117   0.789   0.762 -1.8905 -0.2346  0.6709
  184SOL    HW2  552   2.240   0.675   0.799  3.1885 -2.4326  1.6057
  185SOL     OW  553   1.578   2.725   2.004 -0.0013 -0.0622  0.1120
  185SOL    HW1  554   1.502   2.796   1.991 -0.6284  0.7155  0.9571
  185SOL    HW2  555   1.617   2.725   2.099 -1.2254  0.1288  1.1306
  186SOL     OW  556   0.027   2.161   1.785  0.1661 -0.5603  0.3230
  186SOL    HW1  557   0.026   2.237   1.856 -0.6951  1.7433 -0.3579
  186SOL    HW2  558   0.126   2.123   1.792  1.8567 -1.1372  1.6952
  187SOL     OW  559   1.317   0.665   1.645  0.1449  0.0013  0.3555
  187SOL    HW1  560   1.398   0.723   1.612 -0.0438 -0.2255 -1.5718
  187SOL    HW2  561   1.347   0.579   1.694  1.3359  4.4765  0.5455
  188SOL     OW  562   2.697   2.667   1.578 -0.2227  0.1309 -0.2959
  188SOL    HW1  563   2.682   2.767   1.586 -0.3150  1.3788 -1.9938
  188SOL    HW2  564   2.668   2.630   1.485 -0.9214 -1.7618  4.2431
  189SOL     OW  565   0.852   1.200   1.387 -0.0261 -0.3615  0.3116
  189SOL    HW1  566   0.876   1.273   1.458  1.6980 -0.6706  0.3584
  189SOL    HW2  567   0.844   1.243   1.292  1.4262  2.0447  1.0124
  190SOL     OW  568   1.443   1.858   1.517 -0.3614 -0.7438 -0.2338
  190SOL    HW1  569   1.394   1.772   1.490  2.2725  1.1279 -1.0617
  190SOL    HW2  570   1.427   1.877   1.617  0.4218 -0.6848  0.0066
  191SOL     OW  571   0.876   0.778   1.507  0.3080 -0.4848  0.1906
  191SOL    HW1  572   0.923   0.692   1.544 -0.7567  1.2724 -0.8144
  191SOL    HW2  573   0.943   0.821   1.442 -1.4594 -0.8025 -2.5068
  192SOL     OW  574   1.832   2.443   1.123 -0.0022 -0.0156 -0.0872
  192SOL    HW1  575   1.737   2.404   1.120  4.7071 -1.9413 -1.9986
  192SOL    HW2  576   1.896   2.396   1.064 -2.0662 -0.2025  2.2606
  193SOL     OW  577   0.498   0.498   0.384 -0.4136 -0.2763  0.0378
  193SOL    HW1  578   0.445   0.412   0.378  1.4401  2.8190 -0.8652
  193SOL    HW2  579   0.566   0.509   0.305 -1.5090  2.1855  0.6581
  194SOL     OW  580   0.404   0.791   1.250  0.3131 -0.6457 -0.8830
  194SOL    HW1  581   0.304   0.776   1.241 -0.0293 -0.2278 -2.0568
  194SOL    HW2  582   0.454   0.755   1.164  1.0699 -1.7201 -1.4725
  195SOL     OW  583   1.054   2.907   0.516 -0.5233 -0.5385 -0.1389
  195SOL    HW1  584   1.009   2.821   0.478 -0.6570 -0.1535  1.4699
  195SOL    HW2  585   1.149   2.927   0.479 -1.5583  0.0027 -0.6939
  196SOL     OW  586   0.221   1.372   1.327 -0.1941 -0.3237  0.5180
  196SOL    HW1  587   0.265   1.466   1.323  0.9605 -0.0533  0.8846
  196SOL    HW2  588   0.264   1.304   1.393 -1.2037 -1.3764  1.9769
  197SOL     OW  589   0.776   1.965   0.235 -0.4741  0.3121 -0.0071
  197SOL    HW1  590   0.826   1.946   0.326  0.9616  2.7083  0.3077
  197SOL    HW2  591   0.820   1.911   0.161  1.3862  3.6243  1.3630
  198SOL     OW  592   0.280   1.219   0.333  0.2291  0.1821 -0.6066
  198SOL    HW1  593   0.195   1.163   0.311  1.7945 -0.0315  1.0986
  198SOL    HW2  594   0.258   1.305   0.383  1.8884 -1.8950 -0.4649
  199SOL     OW  595   2.237   0.405   2.639  1.1418  0.0205  0.2690
  199SOL    HW1  596   2.173   0.363   2.712  1.2942  1.6332 -0.1144
  199SOL    HW2  597   2.338   0.369   2.640 -0.8355 -1.6967 -0.5544
  200SOL     OW  598   3.082   2.880   0.794  0.0251  0.0815 -0.5214
  200SOL    HW1  599   3.137   2.967   0.785  0.2424  1.1453 -1.6416
  200SOL    HW2  600   2.987   2.890   0.751  0.1896  0.6113  0.3842
  201SOL     OW  601   0.931   0.676   0.526 -0.1618 -0.4473 -0.2335
  201SOL    HW1  602   0.923   0.754   0.596 -1.1810 -0.5096 -1.3401
  201SOL    HW2  603   0.866   0.600   0.536  0.4671  0.3883 -1.5958
  202SOL     OW  604   0.460   1.252   1.903  0.2439  0.4685  0.1920
  202SOL    HW1  605   0.534   1.187   1.862 -1.3207 -0.1095 -1.6552
  202SOL    HW2  606   0.466   1.262   2.006  1.3868  0.7811  0.1814
  203SOL     OW  607   0.655   0.164   1.551 -0.3733 -0.0082  0.3186
  203SOL    HW1  608   0.679   0.103   1.468 -0.9809 -0.8844  0.8583
  203SOL    HW2  609   0.693   0.132   1.642 -1.2421  1.9691 -0.7235
  204SOL     OW  610   2.079   1.849   2.973 -0.4965  0.3992  0.4601
  204SOL    HW1  611   2.067   1.746   2.994  3.0805 -1.6355 -0.4009
  204SOL    HW2  612   2.155   1.865   2.900  1.0733  0.6046 -1.7665
  205SOL     OW  613   1.809   1.875   3.025  0.1732  0.3788 -0.8434
  205SOL    HW1  614   1.911   1.876   3.010 -0.2196 -1.0839  2.5773
  205SOL    HW2  615   1.761   1.944   2.968  1.8153 -0.3953 -2.1322
  206SOL     OW  616   2.349   2.719   0.303 -0.0679  0.4567  0.0431
  206SOL    HW1  617   2.316   2.675   0.391  2.6198 -0.0682 -1.0068
  206SOL    HW2  618   2.448   2.688   0.286 -1.1124 -0.8703  1.3538
  207SOL     OW  619   0.719   1.730   2.911 -0.3548 -0.3673 -0.1032
  207SOL    HW1  620   0.774   1.669   2.848 -0.3344 -1.5235  2.1612
  207SOL    HW2  621   0.643   1.668   2.952  2.1215 -0.5950  0.6072
  208SOL     OW  622   1.018   1.565   1.220  0.1736  0.2202  0.0375
  208SOL    HW1  623   0.947   1.588   1.144  0.7057  2.1662  1.3245
  208SOL    HW2  624   0.986   1.578   1.318  1.3147 -0.9011  0.6916
  209SOL     OW  625   0.228   1.011   3.059 -0.3377  0.9136 -0.0872
  209SOL    HW1  626   0.264   0.943   2.988  4.3368  0.8687  2.6994
  209SOL    HW2  627   0.207   0.970   3.157  0.2751 -1.1254  1.9740
  210SOL     OW  628   1.722   0.608   1.271  0.3061  0.5071 -0.3180
  210SOL    HW1  629   1.626   0.628   1.245  0.6680  0.8831  0.2506
  210SOL    HW2  630   1.793   0.681   1.245  0.6125 -0.3637 -2.0986
  211SOL     OW  631   2.123   1.110   1.567 -0.3355  0.8185 -0.0920
  211SOL    HW1  632   2.165   1.057   1.650 -2.7331 -0.3604  1.2489
  211SOL    HW2  633   2.189   1.161   1.503  0.1984  3.6045 -2.4268
  212SOL     OW  634   0.091   0.988   1.450  0.3484 -0.1583 -0.6467
  212SOL    HW1  635   0.146   1.068   1.494  3.0677  1.0667 -1.3090
  212SOL    HW2  636   0.092   0.904   1.514 -0.0446  0.1258  0.0393
  213SOL     OW  637   2.811   0.038   0.331  0.7083  0.5260 -0.0631
  213SOL    HW1  638   2.906   0.008   0.322 -3.8231 -0.2084 -2.8580
  213SOL    HW2  639   2.748  -0.010   0.263  1.3668  0.7208  1.0724
  214SOL     OW  640   2.212   0.352   2.370  0.3517  0.2687 -0.1557
  214SOL    HW1  641   2.199   0.388   2.465 -2.0316 -1.9107 -0.0870
  214SOL    HW2  642   2.176   0.250   2.371 -0.8036  0.4047  0.2714
  215SOL     OW  643   1.694   2.292   2.075  0.0171  0.1251 -0.0198
  215SOL    HW1  644   1.790   2.324   2.085 -0.7940 -0.8806  0.8851
  215SOL    HW2  645   1.622   2.362   2.083  0.5737  0.4544 -0.3767
  216SOL     OW  646   2.304   0.525   0.761 -0.0125  0.1402  0.1857
  216SOL    HW1  647   2.270   0.467   0.681  0.0418 -0.8927 -4.5410
  216SOL    HW2  648   2.384   0.479   0.811 -0.9182  1.0119  0.5740
  217SOL     OW  649   0.920   2.714   2.580 -0.2770 -0.5261  0.0626
  217SOL    HW1  650   0.948   2.639   2.649  1.3743 -2.0753 -0.3124
  217SOL    HW2  651   0.836   2.690   2.528  3.1013  1.1028  4.3372
  218SOL     OW  652   1.871   1.431   0.029 -0.3335 -0.2854 -0.2942
  218SOL    HW1  653   1.767   1.450   0.035 -0.2766  0.1080  1.6363
  218SOL    HW2  654   1.898   1.331   0.027  1.4363  1.0329 -0.6647
  219SOL     OW  655   2.415   1.264   2.512 -0.0217 -0.0865 -0.2392
  219SOL    HW1  656   2.441   1.207   2.429  0.4846 -1.7756  1.1170
  219SOL    HW2  657   2.455   1.228   2.604 -2.7656  0.6204  1.0535
  220SOL     OW  658   1.459   1.036   1.369 -0.2788  0.5202  0.4910
  220SOL    HW1  659   1.553   0.997   1.397  2.7935  0.6229 -0.9624
  220SOL    HW2  660   1.438   1.028   1.267 -1.2689 -0.2023 -0.4484
  221SOL     OW  661   1.305   0.952   2.165  0.0190  0.0722 -0.3846
  221SOL    HW1  662   1.298   0.988   2.066 -0.8453 -1.0620  1.5696
  221SOL    HW2  663   1.380   1.000   2.217  0.6315  0.2161 -0.7577
  222SOL     OW  664   1.157   0.053   1.208 -0.0544 -0.4215 -0.4193
  222SOL    HW1  665   1.174   0.091   1.305  1.5713  1.2520 -0.6981
  222SOL    HW2  666   1.126   0.129   1.145 -0.3409 -0.4543 -0.3307
  223SOL     OW  667   2.714   0.974   2.111  0.0224 -0.0631  0.1933
  223SOL    HW1  668   2.638   1.026   2.161  0.5229  0.3893  0.3012
  223SOL    HW2  669   2.808   0.988   2.158  1.6501 -0.1877 -0.2689
  224SOL     OW  670   1.495   0.986   2.857 -0.1911 -0.2122 -0.8499
  224SOL    HW1  671   1.488   0.954   2.756  0.0275  0.4129  0.7516
  224SOL    HW2  672   1.543   1.075   2.852 -1.2441  1.1371 -1.0033
  225SOL     OW  673   2.950   2.686   2.890 -0.0233 -0.1604 -0.0956
  225SOL    HW1  674   2.850   2.673   2.864  1.9929  2.4900  0.7185
  225SOL    HW2  675   3.014   2.707   2.810  0.7648 -0.3803 -1.5846
  226SOL     OW  676   2.423   1.634   2.788 -0.2749  0.5667  0.3794
  226SOL    HW1  677   2.484   1.591   2.712 -2.3037  0.2307 -0.7818
  226SOL    HW2  678   2.437   1.574   2.873  1.5361 -0.0313 -2.1796
  227SOL     OW  679   0.932   0.269   3.012  0.1094  0.7875 -0.1251
  227SOL    HW1  680   0.933   0.373   2.992 -0.2959 -0.7388 -3.7357
  227SOL    HW2  681   0.894   0.213   2.931  1.1131  1.6777 -0.5434
  228SOL     OW  682   2.441   0.654   2.902 -0.2090  0.0394  0.4166
  228SOL    HW1  683   2.452   0.663   2.801  0.1680  2.4898 -1.5080
  228SOL    HW2  684   2.510   0.598   2.950 -0.7913  0.5731  1.0842
  229SOL     OW  685   0.679   0.647   1.820  0.8644  0.6107 -0.2749
  229SOL    HW1  686   0.764   0.661   1.877  2.8143 -1.9556  2.9423
  229SOL    HW2  687   0.697   0.576   1.746  2.8897  2.1783  1.6187
  230SOL     OW  688   1.874   1.234   1.915  0.2387 -0.0267  0.1803
  230SOL    HW1  689   1.957   1.285   1.884 -2.0170 -0.3098 -1.1429
  230SOL    HW2  690   1.841   1.273   2.009  2.6605  0.3122 -0.0069
  231SOL     OW  691   0.670   1.045   0.005  0.6818 -0.2051  0.1054
  231SOL    HW1  692   0.768   1.088   0.023  2.9567  2.3534 -0.7908
  231SOL    HW2  693   0.593   1.106   0.032 -0.7501 -1.6646  1.0086
  232SOL     OW  694   2.416   2.954   2.799 -0.0915 -0.0248 -0.2967
  232SOL    HW1  695   2.474   2.874   2.831  0.1392  0.5581 -0.4769
  232SOL    HW2  696   2.449   3.000   2.716  1.0423 -0.9370  1.5477
  233SOL     OW  697   1.805   1.116   1.161 -0.6229  0.4190  0.5386
  233SOL    HW1  698   1.854   1.193   1.112  2.2281 -0.0710  2.1785
  233SOL    HW2  699   1.868   1.032   1.169 -1.3015 -0.8378 -0.0262
  234SOL     OW  700   1.659   2.537   1.828 -0.1399  0.0482 -0.3784
  234SOL    HW1  701   1.620   2.606   1.898 -0.8911 -0.6425 -0.2012
  234SOL    HW2  702   1.611   2.443   1.842 -3.3840 -2.6010  2.5151
  235SOL     OW  703   0.069   2.997   2.860 -0.2587  0.2417  0.6480
  235SOL    HW1  704   0.007   3.014   2.778  3.1683 -0.0104 -2.2274
  235SOL    HW2  705   0.017   3.006   2.949 -1.7216  0.0678 -0.5085
  236SOL     OW  706   2.916   0.729   0.060  0.0004  0.5016 -0.0126
  236SOL    HW1  707   2.975   0.766   0.134  0.0238 -0.5019  0.9031
  236SOL    HW2  708   2.950   0.640   0.024 -0.8942  0.6111  1.7186
  237SOL     OW  709   1.536   1.697   0.917  0.1994 -0.2117 -0.0640
  237SOL    HW1  710   1.590   1.625   0.959 -2.5629 -0.0110  0.7877
  237SOL    HW2  711   1.517   1.777   0.987  1.1518 -0.0656  2.3401
  238SOL     OW  712   1.920   1.197   0.740  0.1173 -0.2949 -0.3694
  238SOL    HW1  713   1.938   1.233   0.839 -0.4485  1.0799  0.3937
  238SOL    HW2  714   1.829   1.225   0.708 -0.9958 -0.3637 -1.7822
  239SOL     OW  715   2.043   0.320   2.828  0.1409  0.4190  0.3541
  239SOL    HW1  716   2.045   0.266   2.920  0.8842  1.2924 -0.3515
  239SOL    HW2  717   1.951   0.363   2.816 -0.3533 -1.6572  0.8232
  240SOL     OW  718   0.950   0.685   0.256 -0.4906 -0.2530 -0.3416
  240SOL    HW1  719   1.033   0.651   0.204 -1.2248  0.5032 -0.0567
  240SOL    HW2  720   0.958   0.697   0.357  2.5071 -1.4859 -1.5098
  241SOL     OW  721   0.557   0.143   0.308 -0.3035  0.7476 -0.1124
  241SOL    HW1  722   0.618   0.208   0.255 -2.9032  0.4220 -2.7339
  241SOL    HW2  723   0.531   0.059   0.254 -0.9766 -1.8954  0.7111
  242SOL     OW  724   0.608   2.598   1.239  0.3646 -0.4230  0.6635
  242SOL    HW1  725   0.573   2.591   1.338 -1.3028  0.5342  2.2880
  242SOL    HW2  726   0.666   2.686   1.213  0.8941  0.6077  1.2154
  243SOL     OW  727   1.056   0.604   2.395 -0.5305 -0.5197 -0.0318
  243SOL    HW1  728   0.959   0.615   2.362  3.4444  0.2222 -2.3649
  243SOL    HW2  729   1.065   0.537   2.477 -1.9847  0.0662  0.0233
  244SOL     OW  730   2.760   1.944   2.390  0.4670 -0.0865  0.7492
  244SOL    HW1  731   2.794   1.940   2.294 -1.3859  1.3983  1.0101
  244SOL    HW2  732   2.685   1.876   2.408  1.7665  1.8740 -0.8244
  245SOL     OW  733   2.101   1.024   2.219 -0.1147  0.0996  0.4660
  245SOL    HW1  734   2.204   1.025   2.238  1.3927 -1.0356  0.5118
  245SOL    HW2  735   2.056   1.109   2.253  0.3458 -0.4277  2.5257
  246SOL     OW  736   0.272   2.897   1.816  0.1123  0.5416  0.0578
  246SOL    HW1  737   0.195   2.868   1.750 -2.9640  2.2105  2.0930
  246SOL    HW2  738   0.347   2.946   1.772 -3.6228 -0.6918 -2.5979
  247SOL     OW  739   2.244   0.591   3.069 -0.2670 -0.2448  0.2402
  247SOL    HW1  740   2.321   0.618   3.001  0.1881 -0.5099 -0.9815
  247SOL    HW2  741   2.154   0.635   3.039 -2.4661  0.3334 -2.6049
  248SOL     OW  742   2.147   1.880   1.629  0.5568  0.5464 -0.0923
  248SOL    HW1  743   2.205   1.844   1.705 -1.9173  1.3318 -1.1723
  248SOL    HW2  744   2.055   1.834   1.624 -1.7898  0.7146 -0.4172
  249SOL     OW  745   1.904   1.905   1.868 -0.1732 -0.2283  0.7824
  249SOL    HW1  746   1.910   1.829   1.799 -1.5307  1.4169  0.1107
  249SOL    HW2  747   1.996   1.919   1.913  1.5106 -0.2623 -0.8842
  250SOL     OW  748   1.022   0.684   1.844  0.2527  0.7721 -0.0867
  250SOL    HW1  749   1.093   0.649   1.912  2.6243  0.3959  1.5839
  250SOL    HW2  750   1.016   0.619   1.760  1.3546 -2.2541 -0.5616
  251SOL     OW  751   3.050   1.506   2.614  0.5323 -0.1290 -0.1476
  251SOL    HW1  752   3.028   1.607   2.589 -0.0995 -0.8116  3.2138
  251SOL    HW2  753   2.972   1.446   2.581  2.2316  0.1114 -0.8178
  252SOL     OW  754   1.546   0.816   1.592  0.0582 -0.5614 -0.3089
  252SOL    HW1  755   1.625   0.834   1.527 -0.9073 -1.1724 -0.4850
  252SOL    HW2  756   1.546   0.871   1.682  2.3712 -0.2286  0.2764
  253SOL     OW  757   0.937   1.475   0.451  0.1564 -0.2762 -0.1931
  253SOL    HW1  758   0.958   1.488   0.349  0.7103 -0.8205 -0.4605
  253SOL    HW2  759   0.865   1.545   0.494 -3.1138  1.8722 -0.8222
  254SOL     OW  760   2.015   2.176   1.651 -0.0575  0.4274 -0.1328
  254SOL    HW1  761   1.969   2.088   1.616 -3.2703 -0.2981  0.3448
  254SOL    HW2  762   1.944   2.241   1.696  1.6690  1.3702 -0.1513
  255SOL     OW  763   0.075   1.199   2.953 -0.0692  0.3866  0.4230
  255SOL    HW1  764   0.131   1.277   2.929 -2.4485 -2.1405  0.3187
  255SOL    HW2  765   0.131   1.120   3.001  0.3424  0.0270 -0.7248
  256SOL     OW  766   2.753   1.425   1.774  0.1738  0.4887  0.8379
  256SOL    HW1  767   2.650   1.446   1.768  0.9774 -0.7187  2.3124
  256SOL    HW2  768   2.770   1.325   1.761  0.6006 -3.2235  1.5888
  257SOL     OW  769   0.812   0.221   1.858  0.1792 -0.2962 -0.4761
  257SOL    HW1  770   0.856   0.239   1.767 -0.1522 -1.1981  4.5536
  257SOL    HW2  771   0.840   0.122   1.891  1.8827 -3.7275 -1.3088
  258SOL     OW  772   2.961   1.190   0.525 -0.4519  0.2998  0.1830
  258SOL    HW1  773   2.859   1.196   0.552  1.9697 -1.1610  1.7088
  258SOL    HW2  774   3.022   1.208   0.613  3.6322  0.3544 -0.9598
  259SOL     OW  775   0.462   2.936   3.021 -0.6719  0.2959  0.4982
  259SOL    HW1  776   0.374   2.894   3.066 -0.3187 -1.8311  1.2709
  259SOL    HW2  777   0.494   2.889   2.937  0.5886  0.2826 -1.0947
  260SOL     OW  778   2.718   0.735   2.785 -0.2370 -0.7129  0.1853
  260SOL    HW1  779   2.641   0.787   2.737  2.6629 -0.7581 -0.9951
  260SOL    HW2  780   2.694   0.638   2.817 -1.1824 -1.0655 -2.8938
  261SOL     OW  781   2.671   1.272   1.294  0.0628  0.4705  0.1997
  261SOL    HW1  782   2.597   1.223   1.239  0.6144  2.4324 -0.4751
  261SOL    HW2  783   2.751   1.208   1.313 -0.3769  0.8571 -2.4338
  262SOL     OW  784   1.397   2.950   2.034  0.4292 -0.4233 -0.6109
  262SOL    HW1  785   1.422   3.010   1.951 -0.2815  2.6140 -0.2942
  262SOL    HW2  786   1.296   2.925   2.032 -0.3972 -0.2676 -0.6447
  263SOL     OW  787   0.801   0.650   2.313 -0.0738  0.5024 -0.5192
  263SOL    HW1  788   0.714   0.591   2.306  1.0074  2.1882  0.7705
  263SOL    HW2  789   0.813   0.711   2.223 -0.4826  2.6552 -3.3320
  264SOL     OW  790   2.270   0.800   0.423 -0.4183  0.1420  0.5311
  264SOL    HW1  791   2.274   0.721   0.354 -0.4427  2.3888 -2.3210
  264SOL    HW2  792   2.359   0.826   0.469 -0.0304  1.0271 -1.3554
  265SOL     OW  793   0.866   2.343   2.633 -0.0693 -0.7300 -0.0701
  265SOL    HW1  794   0.853   2.337   2.734 -2.0690 -0.7941  0.2301
  265SOL    HW2  795   0.832   2.255   2.587  2.3404  0.7963  1.2726
  266SOL     OW  796   1.279   1.804   3.035 -0.7313  0.2368  0.0007
  266SOL    HW1  797   1.267   1.847   3.133 -0.6501 -0.7786  1.1093
  266SOL    HW2  798   1.383   1.800   3.012  0.7023  0.2171 -0.9232
  267SOL     OW  799   1.039   3.060   2.315 -0.1793 -0.6206 -0.5560
  267SOL    HW1  800   0.953   3.044   2.254 -2.0671 -0.7945 -0.8456
  267SOL    HW2  801   1.116   3.112   2.259  5.0824  0.9957 -2.3436
  268SOL     OW  802   0.847   1.321   1.134 -0.1867 -0.4126  0.6787
  268SOL    HW1  803   0.768   1.376   1.178 -0.5941  0.4174  0.8506
  268SOL    HW2  804   0.882   1.364   1.048  0.9241 -0.7862 -1.4695
  269SOL     OW  805   2.331   2.537   1.586 -0.0184  0.0333  0.1122
  269SOL    HW1  806   2.415   2.472   1.580 -1.9075 -1.1050  0.4367
  269SOL    HW2  807   2.307   2.551   1.689  1.5235 -1.4884 -0.0871
  270SOL     OW  808   0.135   3.046   2.027 -0.3132  0.2637  0.3963
  270SOL    HW1  809   0.186   2.996   1.948  1.2570  1.4045 -1.9287
  270SOL    HW2  810   0.097   2.986   2.101  1.0342  0.3653 -1.5139
  271SOL     OW  811   0.410   1.439   1.100 -0.5922 -0.3980  0.2333
  271SOL    HW1  812   0.453   1.403   1.011  0.1115 -0.7167 -0.5634
  271SOL    HW2  813   0.329   1.387   1.130 -0.0347 -1.2786 -1.1669
  272SOL     OW  814   1.874   0.029   1.907 -0.0182  0.4070 -0.5871
  272SOL    HW1  815   1.817  -0.054   1.882 -0.2141  1.2662 -2.8091
  272SOL    HW2  816   1.852   0.117   1.855 -2.1912 -0.0830 -0.4604
  273SOL     OW  817   1.436   1.449   2.881 -0.1121 -0.3652 -0.2684
  273SOL    HW1  818   1.334   1.467   2.887 -0.3175 -1.1389 -1.5274
  273SOL    HW2  819   1.487   1.433   2.970  1.6610  0.9503 -0.0541
  274SOL     OW  820   1.188   0.602   2.064  0.1104 -0.2911  0.4357
  274SOL    HW1  821   1.105   0.544   2.099  0.5709 -0.9361 -0.8620
  274SOL    HW2  822   1.263   0.616   2.134 -2.6875  0.0862  0.3187
  275SOL     OW  823   0.641   2.103   1.965 -0.3877  0.1635  0.2038
  275SOL    HW1  824   0.565   2.030   1.970  1.5935 -0.6755  2.7888
  275SOL    HW2  825   0.601   2.198   1.970 -0.8025  0.4685 -1.5080
  276SOL     OW  826   2.245   0.950   2.850  0.5289 -0.2734  0.3722
  276SOL    HW1  827   2.158   0.978   2.801  0.8648 -0.7962  2.1111
  276SOL    HW2  828   2.237   0.854   2.890  1.5995  0.2513  1.8944
  277SOL     OW  829   0.005   0.779   0.253 -0.4380 -0.0239 -0.0142
  277SOL    HW1  830   0.100   0.811   0.226  0.4608 -2.6451 -0.3803
  277SOL    HW2  831   0.013   0.691   0.308 -1.5664 -0.1829 -0.6382
  278SOL     OW  832   0.290   0.244   0.005  0.3638 -0.4528  0.6796
  278SOL    HW1  833   0.353   0.185  -0.047 -0.5751 -0.8387  1.0289
  278SOL    HW2  834   0.306   0.346  -0.017  1.1412 -1.3664  0.3830
  279SOL     OW  835   0.269   2.997   0.921 -0.2361 -0.5076  0.5196
  279SOL    HW1  836   0.341   2.998   0.999  2.8582  0.1706 -1.6988
  279SOL    HW2  837   0.276   2.914   0.861  0.5945 -0.4110  2.7918
  280SOL     OW  838   1.571   2.889   2.441  0.0493 -0.3518 -0.0852
  280SOL    HW1  839   1.629   2.957   2.487 -1.3556  2.3437 -2.5926
  280SOL    HW2  840   1.498   2.945   2.390  1.9693 -1.6004 -2.1104
  281SOL     OW  841   0.556   0.927   2.378  0.5910  0.0350  0.3732
  281SOL    HW1  842   0.527   0.873   2.288 -1.0348 -0.0720  0.9874
  281SOL    HW2  843   0.529   0.884   2.469 -1.0347 -2.1844 -0.8027
  282SOL     OW  844   1.792   2.477   0.549 -0.1814 -0.2579 -0.4583
  282SOL    HW1  845   1.749   2.399   0.492  0.9007 -0.6829 -0.1532
  282SOL    HW2  846   1.739   2.565   0.549  2.8183 -2.2958 -0.1095
  283SOL     OW  847   1.179   0.951   0.808  0.0241 -0.5497 -0.4111
  283SOL    HW1  848   1.204   0.896   0.896  0.4496  0.0942 -0.3896
  283SOL    HW2  849   1.150   1.050   0.827  0.4299 -0.1221 -0.3472
  284SOL     OW  850   2.265   2.823   2.455  0.3258  0.2889  0.0293
  284SOL    HW1  851   2.363   2.857   2.430 -0.3424  2.3272  1.6719
  284SOL    HW2  852   2.239   2.825   2.556 -1.1552 -0.0081 -2.0767
  285SOL     OW  853   1.304   3.074   2.597  0.5143  0.0833 -0.8799
  285SOL    HW1  854   1.353   3.075   2.508  0.4626 -1.4421  2.9537
  285SOL    HW2  855   1.201   3.093   2.588  0.7638 -2.5517 -1.1015
  286SOL     OW  856   0.261   0.350   0.657 -0.2279  0.0734  0.3645
  286SOL    HW1  857   0.301   0.282   0.725 -2.2430  0.6525 -1.1028
  286SOL    HW2  858   0.284   0.337   0.554  1.6349 -1.2516 -2.7951
  287SOL     OW  859   0.092   1.269   2.534  0.2858 -0.6259 -0.1775
  287SOL    HW1  860   0.032   1.219   2.600  1.3693  1.1075 -2.0542
  287SOL    HW2  861   0.058   1.366   2.535 -0.7403 -0.1017  0.3537
  288SOL     OW  862   1.510   2.685   1.660  0.2581 -0.4688 -0.1528
  288SOL    HW1  863   1.544   2.618   1.731 -1.8095 -2.3673  1.5118
  288SOL    HW2  864   1.563   2.672   1.570 -0.2662 -1.0005  1.0175
  289SOL     OW  865   0.637   2.777   0.813 -0.0059 -0.3767 -0.5402
  289SOL    HW1  866   0.706   2.836   0.759 -2.1713 -1.8627 -1.9193
  289SOL    HW2  867   0.582   2.835   0.875  1.2738 -3.3235  0.3324
  290SOL     OW  868   2.841   1.108   1.692 -0.2214 -0.0090 -0.3816
  290SOL    HW1  869   2.760   1.044   1.687  1.7762  0.9254  2.2688
  290SOL    HW2  870   2.899   1.087   1.778  0.8938 -0.6843  1.3866
  291SOL     OW  871   1.922   0.001   0.071 -0.2104 -0.0151 -0.1249
  291SOL    HW1  872   1.952   0.033   0.167 -0.8445  0.1877  2.8386
  291SOL    HW2  873   1.986   0.020  -0.009  0.8623 -0.4801 -1.1380
  292SOL     OW  874   2.984   1.292   0.019  0.2300  0.1789  0.3525
  292SOL    HW1  875   2.898   1.318  -0.035 -2.7800  0.3022 -1.5755
  292SOL    HW2  876   3.062   1.250  -0.033  1.3694  1.3820  0.7984
  293SOL     OW  877   0.535   2.065   0.282 -0.2699 -0.2187 -0.5899
  293SOL    HW1  878   0.510   2.140   0.356  0.7854 -0.9749  2.5449
  293SOL    HW2  879   0.640   2.044   0.274  1.5000 -2.5930  0.3388
  294SOL     OW  880   1.861   2.346   1.822 -0.2208  0.2229  0.1991
  294SOL    HW1  881   1.921   2.348   1.903 -0.9458  0.6897 -0.6585
  294SOL    HW2  882   1.794   2.425   1.826  0.1070 -0.4212  0.2998
  295SOL     OW  883   0.960   1.022   0.435  0.0622 -0.3391  0.4179
  295SOL    HW1  884   1.062   1.052   0.449  2.9046 -0.5728 -1.5014
  295SOL    HW2  885   0.924   0.960   0.512 -0.4438 -1.1022  2.5453
  296SOL     OW  886   1.152   2.127   2.749  0.1570 -0.2126 -0.5788
  296SOL    HW1  887   1.100   2.208   2.788  1.1965 -2.1079 -1.1172
  296SOL    HW2  888   1.154   2.121   2.644 -1.2368  1.2525 -0.9061
  297SOL     OW  889   1.285   0.577   1.241  0.5215  0.0963  0.2750
  297SOL    HW1  890   1.308   0.497   1.306 -1.1711  1.4609 -1.6762
  297SOL    HW2  891   1.364   0.599   1.177  0.4054  0.6901  1.2413
  298SOL     OW  892   0.467   1.296   2.958  0.1687  0.3923  0.3656
  298SOL    HW1  893   0.453   1.243   3.046 -2.5271  1.0529  2.0122
  298SOL    HW2  894   0.518   1.239   2.885 -1.0223  0.5820  1.6221
  299SOL     OW  895   0.396   0.170   1.246  0.1603 -0.1848 -0.3665
  299SOL    HW1  896   0.342   0.247   1.197  0.5862 -1.5813  2.2393
  299SOL    HW2  897   0.401   0.181   1.353 -0.3213 -2.6987  1.2808
  300SOL     OW  898   1.339   1.811   2.576 -0.5683 -0.7130 -0.0487
  300SOL    HW1  899   1.308   1.733   2.519 -3.2842 -0.4436  3.0870
  300SOL    HW2  900   1.407   1.769   2.649 -0.8961  1.1474  2.0785
  301SOL     OW  901   0.309   0.272   0.390 -0.3354 -0.1518 -0.0755
  301SOL    HW1  902   0.218   0.270   0.344  2.1397 -1.3714 -1.1450
  301SOL    HW2  903   0.376   0.210   0.347 -1.0138  0.5569  2.7942
  302SOL     OW  904   1.241   2.387   2.296 -0.2958 -0.0597  0.0043
  302SOL    HW1  905   1.146   2.375   2.335  0.2082  0.9376  2.1903
  302SOL    HW2  906   1.308   2.319   2.334 -1.1150  1.7827 -1.0134
  303SOL     OW  907   0.859   2.461   0.771 -0.5490 -0.3102 -0.6398
  303SOL    HW1  908   0.894   2.477   0.678 -1.6727  3.2515 -0.3171
  303SOL    HW2  909   0.934   2.483   0.842  0.6786  3.5096 -2.8680
  304SOL     OW  910   0.138   1.932   0.722  0.5063 -0.2470 -0.1949
  304SOL    HW1  911   0.216   1.968   0.663 -4.0888  0.3811 -2.0691
  304SOL    HW2  912   0.045   1.939   0.674 -2.0211 -0.5565  0.0729
  305SOL     OW  913   1.656   0.795   0.702 -0.1924 -0.3468 -0.4988
  305SOL    HW1  914   1.579   0.793   0.630 -0.1819  0.6267 -1.0273
  305SOL    HW2  915   1.710   0.707   0.706  0.6562 -0.4899  1.9670
  306SOL     OW  916   0.405   1.908   1.963  0.6843  0.4561  0.0772
  306SOL    HW1  917   0.465   1.826   1.946 -1.2558  0.0350  0.5844
  306SOL    HW2  918   0.410   1.934   2.065  0.2439 -0.5521 -1.4818
  307SOL     OW  919   3.055   0.896   2.577 -0.5200  0.3480  0.7057
  307SOL    HW1  920   3.056   0.987   2.623  0.2566 -1.9051 -0.1394
  307SOL    HW2  921   3.028   0.818   2.640 -1.4480  1.2960  0.5451
  308SOL     OW  922   1.475   2.689   2.813 -0.0331 -0.0724 -0.0681
  308SOL    HW1  923   1.434   2.706   2.718  1.2120 -2.3385 -1.5279
  308SOL    HW2  924   1.434   2.608   2.860  0.2910  0.5367  2.2356
  309SOL     OW  925   1.165   0.179   1.826 -0.6099  0.2591  0.1409
  309SOL    HW1  926   1.244   0.122   1.790 -0.2748  1.7929 -0.4269
  309SOL    HW2  927   1.091   0.205   1.756 -0.7748  0.3024  0.7760
  310SOL     OW  928   1.444   2.549   0.649 -0.6810  0.9513  0.3192
  310SOL    HW1  929   1.432   2.584   0.743  1.0841 -0.0203  0.1014
  310SOL    HW2  930   1.516   2.602   0.589  0.7748 -0.4505 -0.7433
  311SOL     OW  931   1.118   0.932   1.757 -0.0374 -0.3624 -0.6116
  311SOL    HW1  932   1.077   0.842   1.788  1.5234 -1.7318 -1.8643
  311SOL    HW2  933   1.166   0.923   1.666  0.6567 -0.2663  1.3776
  312SOL     OW  934   1.486   0.631   1.023 -0.3354 -0.0103  0.0509
  312SOL    HW1  935   1.549   0.716   1.029 -0.1795 -0.5846 -1.6776
  312SOL    HW2  936   1.433   0.630   0.931  0.9991 -2.1318 -2.0542
  313SOL     OW  937   1.658   1.290   0.722  0.2255  0.3967 -0.1090
  313SOL    HW1  938   1.593   1.308   0.800 -2.0134 -0.7584 -2.4074
  313SOL    HW2  939   1.626   1.212   0.665  1.8476 -1.3335  2.5708
  314SOL     OW  940   3.007   3.102   3.079  0.4120  0.7032  0.4079
  314SOL    HW1  941   3.032   3.093   3.177  0.4256 -3.1058 -2.1861
  314SOL    HW2  942   2.913   3.062   3.060 -0.1691 -0.5753 -1.2452
  315SOL     OW  943   1.199   0.206   2.805 -0.1505  0.5278  0.1484
  315SOL    HW1  944   1.162   0.141   2.730 -2.0404  0.5544 -0.7819
  315SOL    HW2  945   1.174   0.179   2.902  0.1616  0.1580 -1.5463
  316SOL     OW  946   1.756   2.057   0.865 -0.3943  0.1604 -0.0443
  316SOL    HW1  947   1.706   2.073   0.956  0.2946 -0.8245  1.2399
  316SOL    HW2  948   1.781   2.140   0.814 -0.1660 -3.6024 -0.1578
  317SOL     OW  949   1.171   0.709   2.724  0.3584 -0.1183  0.2148
  317SOL    HW1  950   1.126   0.759   2.804 -0.1612  2.5359 -2.1701
  317SOL    HW2  951   1.116   0.625   2.699 -1.9755  2.3189  1.7274
  318SOL     OW  952   1.404   3.062   2.318  0.4190  0.1903 -0.0699
  318SOL    HW1  953   1.401   3.159   2.278  0.4536  0.9070  0.5856
  318SOL    HW2  954   1.364   2.995   2.252  1.4515 -3.2979  0.2710
  319SOL     OW  955   0.612   2.382   3.033  0.1102  0.2554  0.2085
  319SOL    HW1  956   0.560   2.294   3.056  1.3004 -0.8220  0.6581
  319SOL    HW2  957   0.697   2.364   2.982 -3.5822 -0.1300 -1.7286
  320SOL     OW  958   1.697   2.251   0.405  0.1493 -0.4964  0.2759
  320SOL    HW1  959   1.765   2.182   0.373 -0.2799  0.2382  1.2772
  320SOL    HW2  960   1.609   2.208   0.434 -0.2491  2.0939 -0.5331
  321SOL     OW  961   1.608   2.704   0.507  0.1305  0.2279  0.2405
  321SOL    HW1  962   1.538   2.742   0.432 -0.1392 -1.6217 -1.8846
  321SOL    HW2  963   1.705   2.732   0.496 -0.6521 -1.8447  1.5080
  322SOL     OW  964   2.545   1.063   2.329 -0.1761  0.3388  0.1207
  322SOL    HW1  965   2.629   1.047   2.395  2.0679  0.8004 -1.2080
  322SOL    HW2  966   2.488   0.981   2.306  0.9823  2.2638 -0.0800
  323SOL     OW  967   1.147   2.708   0.756  0.5397  0.0483 -0.1893
  323SOL    HW1  968   1.103   2.659   0.672 -1.0747 -1.0111 -1.9918
  323SOL    HW2  969   1.149   2.808   0.743  3.5124  2.3149  0.0683
  324SOL     OW  970   0.070   2.547   2.417  0.1548 -0.3396 -0.1617
  324SOL    HW1  971  -0.002   2.496   2.474 -0.6309 -1.2913 -0.2511
  324SOL    HW2  972   0.050   2.648   2.417 -2.1307 -1.6311  0.6138
  325SOL     OW  973   1.296   3.027   0.430 -0.3050 -0.0095 -0.6840
  325SOL    HW1  974   1.270   3.098   0.363  1.5733  0.2734 -1.1245
  325SOL    HW2  975   1.304   3.067   0.525  0.4520 -1.9001  1.2601
  326SOL     OW  976   2.436   0.902   0.020  0.4508 -0.3294 -0.2259
  326SOL    HW1  977   2.340   0.867  -0.000 -1.0131 -0.4103  2.5082
  326SOL    HW2  978   2.502   0.833   0.055 -1.1152 -0.8626 -2.2017
  327SOL     OW  979   2.832   0.185   0.565  0.0060 -0.2334 -0.1954
  327SOL    HW1  980   2.828   0.131   0.475 -1.4465 -1.9083  0.3608
  327SOL    HW2  981   2.869   0.131   0.647  0.4680 -1.2648 -1.1970
  328SOL     OW  982   2.649   0.604   0.375  0.0801 -0.2265  0.3644
  328SOL    HW1  983   2.696   0.664   0.443  1.7363  0.5965 -1.1759
  328SOL    HW2  984   2.615   0.514   0.414  0.3139  0.5343  2.0721
  329SOL     OW  985   2.933   3.047   2.252 -0.2224  0.5047  0.1188
  329SOL    HW1  986   3.014   2.983   2.238 -0.0645  1.0339 -0.5915
  329SOL    HW2  987   2.960   3.143   2.229 -1.5084  0.0416  0.5878
  330SOL     OW  988   0.539   0.312   1.973 -0.1612  0.7184  0.6288
  330SOL    HW1  989   0.629   0.326   1.927 -1.2887  1.2028  2.2823
  330SOL    HW2  990   0.546   0.230   2.037  2.2336  3.2950  0.1412
  331SOL     OW  991   0.021   1.927   1.110 -0.5036  0.3880  0.3075
  331SOL    HW1  992   0.008   2.019   1.070  0.3491 -1.5114  0.3745
  331SOL    HW2  993  -0.042   1.912   1.190  0.4212 -1.9794 -0.0034
  332SOL     OW  994   0.432   1.156   0.072  0.2870 -0.1702  0.0186
  332SOL    HW1  995   0.360   1.093   0.029  3.1669 -1.7205  0.7430
  332SOL    HW2  996   0.405   1.190   0.168 -0.8106 -0.4140  1.6891
  333SOL     OW  997   2.921   0.945   0.373 -0.0497  0.2941 -0.4343
  333SOL    HW1  998   2.980   1.024   0.417 -0.0227  2.0727  1.5136
  333SOL    HW2  999   2.981   0.870   0.318  0.1945  0.9895  1.3072
  334SOL     OW 1000   1.719   1.152   1.698 -0.4566  0.1043  0.5077
  334SOL    HW1 1001   1.778   1.158   1.611  1.4702  0.1906 -0.3657
  334SOL    HW2 1002   1.767   1.188   1.787  1.5202  2.0751  0.8901
  335SOL     OW 1003   1.938   2.754   2.593 -0.0835 -0.2221  0.2452
  335SOL    HW1 1004   1.857   2.755   2.661  2.2920  0.3266  2.7996
  335SOL    HW2 1005   2.017   2.811   2.628  1.4320  0.3854 -1.5026
  336SOL     OW 1006   0.288   0.107   2.730 -0.3787  0.1986 -0.1601
  336SOL    HW1 1007   0.367   0.137   2.798  0.5479 -1.7849  3.0722
  336SOL    HW2 1008   0.221   0.044   2.779  1.5455  0.0401  0.0237
  337SOL     OW 1009   0.789   2.852   3.048 -0.4994 -0.4466  0.3847
  337SOL    HW1 1010   0.851   2.771   3.089  0.2728 -2.7480 -1.8096
  337SOL    HW2 1011   0.728   2.905   3.109  0.3042  2.9267 -1.9794
  338SOL     OW 1012   0.051   0.950   0.702  0.9030 -0.4149  0.0676
  338SOL    HW1 1013  -0.047   0.923   0.722 -0.4633 -1.3304  0.7514
  338SOL    HW2 1014   0.060   1.049   0.727  1.6312 -0.8784  0.6713
  339SOL     OW 1015   1.771   1.349   2.141 -0.1625  0.5997 -0.1395
  339SOL    HW1 1016   1.669   1.333   2.126  0.6842  1.4440  3.3442
  339SOL    HW2 1017   1.796   1.447   2.161  1.0097 -2.2064 -0.3405
  340SOL     OW 1018   2.256   0.767   1.096  0.1509  0.0550  0.0820
  340SOL    HW1 1019   2.171   0.823   1.130 -0.5010 -0.8577 -0.8018
  340SOL    HW2 1020   2.238   0.677   1.049  0.0175 -1.6303 -1.5287
  341SOL     OW 1021   1.870   2.054   0.325  0.0004  0.4853 -0.7826
  341SOL    HW1 1022   1.910   2.120   0.255  0.9562 -2.2782 -0.2402
  341SOL    HW2 1023   1.943   2.013   0.385 -2.5064  0.7436 -0.4513
  342SOL     OW 1024   2.169   2.152   2.769 -0.6477 -0.3846 -0.3385
  342SOL    HW1 1025   2.214   2.070   2.812  1.7873 -0.8107  0.4011
  342SOL    HW2 1026   2.075   2.132   2.734  0.2435 -0.8170 -0.2657
  343SOL     OW 1027   0.355   0.859   2.873  0.0198 -0.5795  0.5576
  343SOL    HW1 1028   0.351   0.911   2.785  0.3973 -1.0971 -0.2957
  343SOL    HW2 1029   0.447   0.808   2.873  0.5301 -2.0407 -0.6897
  344SOL     OW 1030   1.940   1.421   0.344  0.0446 -0.0442  0.0538
  344SOL    HW1 1031   1.948   1.345   0.274 -1.9314  0.9348  1.3591
  344SOL    HW2 1032   1.840   1.445   0.369 -0.9849 -0.6854  0.0316
  345SOL     OW 1033   1.404   2.190   2.854  0.2682 -0.0606  0.1032
  345SOL    HW1 1034   1.306   2.167   2.824  0.5830  2.4935  2.4105
  345SOL    HW2 1035   1.472   2.141   2.787  0.2116 -2.1805  2.8452
  346SOL     OW 1036   2.294   0.815   1.381 -0.4358 -0.0510  0.4463
  346SOL    HW1 1037   2.199   0.804   1.414  0.1514  3.2077 -1.5840
  346SOL    HW2 1038   2.298   0.803   1.280 -1.0593  0.8348  1.0834
  347SOL     OW 1039   0.707   2.794   1.707  0.2596 -0.0242 -0.0110
  347SOL    HW1 1040   0.785   2.863   1.716 -0.8524 -3.6223 -0.4470
  347SOL    HW2 1041   0.657   2.799   1.618  1.8114 -0.1852  0.8875
  348SOL     OW 1042   0.190   0.609   2.837 -0.0590  0.1038 -0.0974
  348SOL    HW1 1043   0.100   0.626   2.788 -1.1961 -0.2687  1.1853
  348SOL    HW2 1044   0.246   0.696   2.847  0.5102 -1.8334 -0.8167
  349SOL     OW 1045   1.767   0.423   2.826  0.5011 -0.1265 -0.1507
  349SOL    HW1 1046   1.755   0.514   2.777  2.2573  0.1660  0.8844
  349SOL    HW2 1047   1.750   0.422   2.929 -0.6687  0.3743  1.1476
  350SOL     OW 1048   1.736   0.378   0.381  0.6772 -0.2661  0.1995
  350SOL    HW1 1049   1.822   0.335   0.427  0.9558 -5.1209 -1.1974
  350SOL    HW2 1050   1.723   0.481   0.390 -3.0001  1.6181 -1.2487
  351SOL     OW 1051   0.847   0.792   2.081  0.4507 -0.1501 -0.1984
  351SOL    HW1 1052   0.853   0.893   2.049  0.4225 -0.6313 -0.0820
  351SOL    HW2 1053   0.905   0.735   2.022  0.1513 -0.6391  1.2137
  352SOL     OW 1054   2.077   1.395   0.596  0.1295  0.9227 -0.3781
  352SOL    HW1 1055   2.039   1.412   0.500 -1.6789  0.8686  1.0418
  352SOL    HW2 1056   2.026   1.314   0.639  3.5137  1.9348  0.3904
  353SOL     OW 1057   2.176   2.694   1.127  0.1167  0.2906  0.3778
  353SOL    HW1 1058   2.264   2.641   1.155  1.0402 -2.4357  1.3836
  353SOL    HW2 1059   2.131   2.723   1.218 -1.9240  0.0732  0.5909
  354SOL     OW 1060   0.234   1.427   2.889 -0.4088 -0.2321 -0.2852
  354SOL    HW1 1061   0.216   1.451   2.789 -2.8683  0.7737  0.5721
  354SOL    HW2 1062   0.334   1.406   2.906  1.0191  1.6857  1.4913
  355SOL     OW 1063   0.718   1.611   0.611  0.2192 -0.3134  0.0423
  355SOL    HW1 1064   0.734   1.575   0.708 -1.4587  3.5900  1.6929
  355SOL    HW2 1065   0.691   1.532   0.543  1.0371 -0.9399 -1.0015
  356SOL     OW 1066   0.994   0.351   2.095 -0.0410  0.3009  0.1008
  356SOL    HW1 1067   1.056   0.266   2.103 -1.7730 -0.9388 -1.7297
  356SOL    HW2 1068   0.910   0.332   2.035  0.9670  0.0360  0.9602
  357SOL     OW 1069   1.027   1.466   0.134  0.6529  0.8108 -0.3490
  357SOL    HW1 1070   1.053   1.416   0.046 -2.0534 -1.1821  0.7048
  357SOL    HW2 1071   1.106   1.520   0.179  0.2053  0.7368  0.6515
  358SOL     OW 1072   1.694   1.491   0.453  0.4613  0.2661  0.1723
  358SOL    HW1 1073   1.683   1.440   0.539 -1.5046  2.8196 -0.6756
  358SOL    HW2 1074   1.635   1.451   0.377 -1.3166  2.2750  0.5153
  359SOL     OW 1075   1.628   2.568   0.200  0.2481 -0.1070 -0.3873
  359SOL    HW1 1076   1.618   2.468   0.174 -1.3262  0.2825 -0.6367
  359SOL    HW2 1077   1.539   2.619   0.216  0.3182  1.0781  1.7471
  360SOL     OW 1078   0.724   0.510   0.561  0.3380 -0.0190 -0.0725
  360SOL    HW1 1079   0.646   0.497   0.489  3.3452 -1.7238 -0.3155
  360SOL    HW2 1080   0.771   0.417   0.573 -0.6959  0.5824 -0.5865
  361SOL     OW 1081   1.368   1.306   0.616 -0.2934 -0.3881 -0.8168
  361SOL    HW1 1082   1.409   1.334   0.709  1.0895 -1.0950  0.5566
  361SOL    HW2 1083   1.298   1.373   0.585 -2.5370 -0.4857 -1.0157
  362SOL     OW 1084   1.398   1.822   0.724  0.5048  0.4269  0.0820
  362SOL    HW1 1085   1.449   1.766   0.797  0.2133 -0.1579 -1.4909
  362SOL    HW2 1086   1.472   1.866   0.664  0.3796  0.6919  1.6346
  363SOL     OW 1087   1.256   1.340   1.927 -0.1155 -0.1139 -0.2389
  363SOL    HW1 1088   1.305   1.399   1.999 -0.5867 -1.0280 -1.0933
  363SOL    HW2 1089   1.271   1.375   1.831 -0.9568  1.2321  0.7048
  364SOL     OW 1090   0.553   2.384   1.969 -0.0273  0.0711  0.2853
  364SOL    HW1 1091   0.451   2.397   1.998 -0.2157 -0.5118  2.5995
  364SOL    HW2 1092   0.598   2.478   1.944  0.6654  1.2301  1.6705
  365SOL     OW 1093   0.937   1.946   1.416 -0.4018 -0.1324  0.3077
  365SOL    HW1 1094   0.843   1.967   1.449  0.5749 -1.5565 -1.9443
  365SOL    HW2 1095   0.955   1.986   1.322 -1.6558  0.7819  0.6979
  366SOL     OW 1096   2.739   1.874   0.254 -0.1101 -0.1166  0.0634
  366SOL    HW1 1097   2.665   1.808   0.224 -1.3038  1.9022  1.4742
  366SOL    HW2 1098   2.825   1.825   0.287 -1.1130  2.6668 -3.3734
  367SOL     OW 1099   0.949   1.084   3.034 -0.4143 -0.0657  0.1429
  367SOL    HW1 1100   0.966   1.025   3.118 -2.2798  1.0588  1.9668
  367SOL    HW2 1101   1.003   1.173   3.026 -1.2491 -1.0558  0.2329
  368SOL     OW 1102   1.447   0.499   0.481  0.8168 -0.9254  0.4890
  368SOL    HW1 1103   1.349   0.540   0.470  1.7046 -2.7122 -0.9610
  368SOL    HW2 1104   1.528   0.557   0.445 -1.6352  1.7484 -4.3711
  369SOL     OW 1105   0.334   1.643   0.148 -0.5498 -0.4053  0.1854
  369SOL    HW1 1106   0.404   1.676   0.214 -2.1748 -1.4582 -0.1807
  369SOL    HW2 1107   0.259   1.582   0.196 -0.8347 -1.4297 -0.1997
  370SOL     OW 1108   0.454   2.138   1.031 -0.3514 -0.1444  0.2297
  370SOL    HW1 1109   0.486   2.241   1.022 -1.2894  2.4746 -1.3782
  370SOL    HW2 1110   0.354   2.127   1.001 -0.2565 -1.4898 -0.8131
  371SOL     OW 1111   2.917   2.158   2.692 -0.3144 -0.1449 -0.3476
  371SOL    HW1 1112   2.997   2.092   2.696 -1.4569  1.7754 -3.8129
  371SOL    HW2 1113   2.932   2.242   2.745  0.3432 -2.9638  0.7771
  372SOL     OW 1114   0.969   2.060   1.177  0.3756  0.5890 -0.7042
  372SOL    HW1 1115   0.883   2.095   1.128 -0.2201  2.5428 -1.1016
  372SOL    HW2 1116   1.036   2.135   1.197 -1.2259 -1.1124  0.9412
  373SOL     OW 1117   1.908   1.884   1.031 -0.5817 -0.4688 -0.3458
  373SOL    HW1 1118   1.995   1.928   1.075 -0.0341 -2.0931  3.0163
  373SOL    HW2 1119   1.865   1.954   0.968  2.5750 -1.1271 -0.4444
  374SOL     OW 1120   1.930   0.303   0.565 -0.0245 -0.7990 -0.2764
  374SOL    HW1 1121   1.884   0.280   0.660  0.3089  0.0915 -1.1299
  374SOL    HW2 1122   2.029   0.330   0.565  0.9616 -1.2723  0.7441
  375SOL     OW 1123   2.428   2.164   1.113 -0.4694 -0.6898 -0.2677
  375SOL    HW1 1124   2.459   2.244   1.053  1.7147  0.4590 -2.8846
  375SOL    HW2 1125   2.500   2.137   1.181  1.6051 -1.7984 -1.1769
  376SOL     OW 1126   3.061   0.620   1.435  0.1147 -0.3181  0.2145
  376SOL    HW1 1127   3.088   0.662   1.528  0.6676 -1.4520 -0.1266
  376SOL    HW2 1128   3.031   0.525   1.458 -1.2055  1.5799 -0.8003
  377SOL     OW 1129   2.264   2.941   0.167  0.2001 -0.0676  0.4439
  377SOL    HW1 1130   2.211   3.010   0.226 -3.3928 -0.2029 -0.2312
  377SOL    HW2 1131   2.285   2.849   0.212  2.1659  0.2499 -0.1680
  378SOL     OW 1132   1.907   1.914   2.514 -0.0866 -0.4238 -0.3897
  378SOL    HW1 1133   2.002   1.874   2.507 -1.2479  1.2104  0.6727
  378SOL    HW2 1134   1.834   1.839   2.510  0.8217  0.4846 -3.2991
  379SOL     OW 1135   0.775   0.154   2.776  0.3362  0.0479 -0.8986
  379SOL    HW1 1136   0.796   0.057   2.751  0.2642 -0.7068  0.4235
  379SOL    HW2 1137   0.759   0.210   2.695 -1.7548  1.6807  0.4298
  380SOL     OW 1138   1.556   1.091   0.548  0.0649 -0.3879 -0.1340
  380SOL    HW1 1139   1.480   1.162   0.562 -2.5164 -0.1328  2.2860
  380SOL    HW2 1140   1.525   0.997   0.516 -0.7415  2.3642  0.4419
  381SOL     OW 1141   1.265   1.293   1.447 -0.2412 -0.3454 -0.6473
  381SOL    HW1 1142   1.330   1.255   1.378  1.2254 -0.3155  1.9979
  381SOL    HW2 1143   1.309   1.302   1.541  2.1005  1.0390  0.8290
  382SOL     OW 1144   1.804   0.863   0.288 -0.4630  0.4289 -0.0365
  382SOL    HW1 1145   1.798   0.842   0.187  1.1064 -0.7300 -0.4263
  382SOL    HW2 1146   1.899   0.839   0.328  2.8457 -0.2976 -0.1852
  383SOL     OW 1147   2.505   1.008   1.486 -0.4613 -0.5653 -0.0431
  383SOL    HW1 1148   2.427   0.942   1.466 -0.2812  0.8421 -1.1892
  383SOL    HW2 1149   2.585   0.995   1.419  2.6684  0.6310 -2.0268
  384SOL     OW 1150   0.967   2.293   0.217 -0.0480 -0.1727  0.5345
  384SOL    HW1 1151   0.873   2.330   0.237  2.6902 -2.1673 -0.4042
  384SOL    HW2 1152   1.022   2.269   0.301 -1.7167  0.0149  1.5986
  385SOL     OW 1153   2.919   2.032   1.630 -0.5077  0.1812 -0.5618
  385SOL    HW1 1154   3.002   2.071   1.682  0.9713  0.4842  3.1820
  385SOL    HW2 1155   2.880   1.946   1.675 -0.8063  1.6046 -0.7081
  386SOL     OW 1156   0.477   1.061   0.491  0.5167 -0.4992  0.1643
  386SOL    HW1 1157   0.460   0.958   0.473 -2.5276  2.2406  0.6333
  386SOL    HW2 1158   0.394   1.120   0.459 -4.1468 -1.1212  2.3921
  387SOL     OW 1159   0.948   0.277   1.637  0.0499 -0.3909  0.1350
  387SOL    HW1 1160   0.987   0.372   1.622 -2.8885 -1.0615  0.9406
  387SOL    HW2 1161   0.938   0.230   1.544 -1.3952 -0.9895  0.2571
  388SOL     OW 1162   1.221   2.719   1.761  0.5242  0.0392  0.8082
  388SOL    HW1 1163   1.237   2.764   1.669 -2.1011  1.0889  1.1074
  388SOL    HW2 1164   1.285   2.641   1.782  0.1652  1.5111  0.2611
  389SOL     OW 1165   0.150   2.917   1.331 -0.3466  0.1620  0.5212
  389SOL    HW1 1166   0.055   2.931   1.287  1.5405 -2.1505 -0.9510
  389SOL    HW2 1167   0.179   2.818   1.332  0.0244  2.1842 -0.1088
  390SOL     OW 1168   1.031   0.963   1.358  0.4317  0.0139 -0.0873
  390SOL    HW1 1169   1.110   0.956   1.422 -1.2047  1.9377 -1.3512
  390SOL    HW2 1170   0.990   1.057   1.361 -0.2864 -1.1737  1.5717
  391SOL     OW 1171   2.148   1.146   1.119 -0.2431  0.0185  0.2963
  391SOL    HW1 1172   2.073   1.089   1.166  2.3458 -3.5131 -0.4085
  391SOL    HW2 1173   2.180   1.096   1.034 -1.1770 -0.6496  2.0894
  392SOL     OW 1174   0.903   2.599   0.062  0.2989 -0.3378 -0.1763
  392SOL    HW1 1175   0.995   2.558   0.050  0.8917 -0.1971 -1.7571
  392SOL    HW2 1176   0.837   2.543   0.122  1.4184  1.1200  1.4203
  393SOL     OW 1177   0.306   0.669   1.962  0.2159  0.6640  0.4036
  393SOL    HW1 1178   0.298   0.564   1.982  2.1498  1.3859  2.0323
  393SOL    HW2 1179   0.325   0.693   1.864  1.1082  1.2853  0.1083
  394SOL     OW 1180   3.070   1.932   2.686 -0.0287 -0.1405 -0.1315
  394SOL    HW1 1181   3.147   1.887   2.739  0.6438 -1.5616 -1.7228
  394SOL    HW2 1182   3.022   1.867   2.624  1.2694  1.4232  3.3537
  395SOL     OW 1183   1.615   1.994   0.631 -0.3788  0.1821 -0.8100
  395SOL    HW1 1184   1.659   1.925   0.566  0.9693 -2.3449  1.3930
  395SOL    HW2 1185   1.674   2.006   0.718 -0.4827  1.8824 -1.2447
  396SOL     OW 1186   2.905   1.863   1.295 -0.0512  0.0422  0.0706
  396SOL    HW1 1187   2.919   1.761   1.277 -0.1623  1.6306  3.1035
  396SOL    HW2 1188   2.858   1.887   1.388  0.4510  2.8309  1.6160
  397SOL     OW 1189   1.041   2.208   0.506  0.1229  0.2201 -0.3207
  397SOL    HW1 1190   0.938   2.196   0.530 -1.0530  0.1017 -0.3066
  397SOL    HW2 1191   1.087   2.295   0.537  1.0749 -1.5477 -1.7726
  398SOL     OW 1192   2.165   3.037   1.158  0.5974  0.0301  0.2146
  398SOL    HW1 1193   2.079   2.981   1.185  0.6483 -2.1195  2.6370
  398SOL    HW2 1194   2.149   3.133   1.124  2.0246 -0.2024  1.9268
  399SOL     OW 1195   3.047   2.452   2.650  0.0299 -0.0729 -0.2065
  399SOL    HW1 1196   2.975   2.483   2.718 -0.5065  0.5802 -3.6648
  399SOL    HW2 1197   3.090   2.360   2.669  1.7331 -1.5474  0.2964
  400SOL     OW 1198   0.656   1.710   1.346  0.3314  0.2432 -0.2435
  400SOL    HW1 1199   0.627   1.758   1.436 -0.1780  0.6689 -1.5296
  400SOL    HW2 1200   0.600   1.745   1.265 -2.5644  0.6451  0.2994
  401SOL     OW 1201   1.854   0.293   1.147 -0.5304  0.4300  0.1464
  401SOL    HW1 1202   1.870   0.282   1.247  2.1835 -0.3272 -0.5704
  401SOL    HW2 1203   1.784   0.370   1.137 -0.9343 -0.0494  0.5021
  402SOL     OW 1204   1.356   0.257   3.084 -0.2768 -0.2450  0.1923
  402SOL    HW1 1205   1.415   0.214   3.008 -0.7956 -1.5220 -0.4598
  402SOL    HW2 1206   1.290   0.330   3.042  1.0203  1.7663  0.6250
  403SOL     OW 1207   2.236   1.891   0.825 -0.2526  0.3084 -0.6124
  403SOL    HW1 1208   2.341   1.897   0.813  1.9195 -3.0005  2.6878
  403SOL    HW2 1209   2.200   1.900   0.920 -1.2804 -1.6525  1.2412
  404SOL     OW 1210   0.271   2.485   2.758  0.4195 -0.1193  0.0461
  404SOL    HW1 1211   0.346   2.460   2.691 -1.1388 -0.3193  0.2283
  404SOL    HW2 1212   0.271   2.589   2.776  1.1620  0.8440 -1.5822
  405SOL     OW 1213   0.141   2.376   0.734 -0.1571  0.2580  0.0275
  405SOL    HW1 1214   0.126   2.317   0.648  3.6511 -0.9928 -3.9487
  405SOL    HW2 1215   0.221   2.448   0.721  3.8776  0.0789 -1.3629
  406SOL     OW 1216   0.048   1.539   3.080  0.1070  0.4401 -0.5730
  406SOL    HW1 1217   0.125   1.503   3.021 -0.7856 -4.4322  0.6805
  406SOL    HW2 1218   0.047   1.495   3.174  0.3621 -1.7197 -1.0356
  407SOL     OW 1219   1.593   0.886   0.958  0.3254 -0.2389 -0.0437
  407SOL    HW1 1220   1.606   0.857   0.861  0.6937  0.2529  2.2253
  407SOL    HW2 1221   1.521   0.959   0.979  2.5208  3.0616 -1.5437
  408SOL     OW 1222   1.570   2.370   0.964  0.4525 -0.0476  0.0243
  408SOL    HW1 1223   1.660   2.371   0.911 -0.6771  0.5843  2.4547
  408SOL    HW2 1224   1.505   2.447   0.934  0.2170 -0.8268 -0.8274
  409SOL     OW 1225   0.618   0.837   0.724 -0.2179  0.5921 -0.7774
  409SOL    HW1 1226   0.530   0.820   0.670  2.1779 -0.8340 -0.2020
  409SOL    HW2 1227   0.637   0.750   0.783  1.2908 -1.4632 -1.8619
  410SOL     OW 1228   1.224   2.022   1.408 -0.3452  0.3613  0.9902
  410SOL    HW1 1229   1.285   1.934   1.412 -1.3967  1.1505 -0.0314
  410SOL    HW2 1230   1.125   1.994   1.407 -0.5796  0.9954 -0.2058
  411SOL     OW 1231   2.516   1.845   3.007  0.3816 -0.4450 -0.0477
  411SOL    HW1 1232   2.558   1.937   3.035 -1.7534 -0.5220 -0.2045
  411SOL    HW2 1233   2.478   1.840   2.912 -2.8196  1.8507  1.0174
  412SOL     OW 1234   1.495   2.460   2.153  0.3170 -0.5483 -0.1555
  412SOL    HW1 1235   1.568   2.482   2.227  0.4116  1.4697  0.9795
  412SOL    HW2 1236   1.404   2.438   2.199 -0.3285  2.2113 -0.2439
  413SOL     OW 1237   0.028   0.266   3.031  0.2366  0.1934  0.3215
  413SOL    HW1 1238  -0.030   0.190   3.067  0.6615 -0.8160 -1.2014
  413SOL    HW2 1239   0.124   0.259   3.059 -1.8451  0.8423 -0.5150
  414SOL     OW 1240   1.760   1.507   1.134 -0.8506  0.3117 -0.0657
  414SOL    HW1 1241   1.736   1.598   1.178  2.1535 -1.7996  1.3074
  414SOL    HW2 1242   1.760   1.503   1.027 -0.0959  0.7115 -1.1159
  415SOL     OW 1243   0.348   2.148   0.665  0.3812  0.2146 -0.3212
  415SOL    HW1 1244   0.307   2.153   0.761 -2.1743  0.6049  0.6000
  415SOL    HW2 1245   0.275   2.161   0.588 -3.4993 -2.0000  2.8172
  416SOL     OW 1246   0.362   1.096   1.075 -0.0898  0.1263  0.3657
  416SOL    HW1 1247   0.333   1.017   1.012 -1.3853 -0.4773 -0.6605
  416SOL    HW2 1248   0.461   1.125   1.055  2.2532 -0.6149  1.0450
  417SOL     OW 1249   2.370   2.421   2.114  0.1221  0.5414 -0.1002
  417SOL    HW1 1250   2.362   2.321   2.126 -0.1885  1.3036  0.3339
  417SOL    HW2 1251   2.334   2.470   2.196 -0.3234  0.0812  1.6737
  418SOL     OW 1252   1.039   0.521   1.330  0.0156  0.2456 -0.3196
  418SOL    HW1 1253   0.981   0.479   1.255  0.8109 -1.6263 -0.3434
  418SOL    HW2 1254   1.129   0.555   1.291  2.1059  2.9777 -0.0507
  419SOL     OW 1255   0.889   0.540   2.972 -0.1832  0.0718  0.2341
  419SOL    HW1 1256   0.802   0.532   2.912  0.2299  0.4670 -1.2451
  419SOL    HW2 1257   0.901   0.640   2.993 -3.2331 -1.6407 -2.9950
  420SOL     OW 1258   0.127   2.188   0.503  0.1319  0.0672  0.2332
  420SOL    HW1 1259   0.166   2.207   0.408  2.2508  1.0153 -2.5382
  420SOL    HW2 1260   0.061   2.107   0.498  1.1199 -5.4597 -3.2822
  421SOL     OW 1261   0.308   2.976   0.534 -0.0336 -0.2791 -0.1067
  421SOL    HW1 1262   0.291   2.900   0.605 -0.3812 -0.8717  0.5532
  421SOL    HW2 1263   0.405   3.013   0.541 -0.8807  0.2360  0.6061
  422SOL     OW 1264   1.038   2.559   0.960 -0.3983 -0.1488  0.1190
  422SOL    HW1 1265   1.081   2.623   0.886 -0.2090 -2.5061 -5.0136
  422SOL    HW2 1266   1.105   2.549   1.035 -1.5528  0.4003 -0.9468
  423SOL     OW 1267   0.138   0.736   1.263 -0.3076  0.0870 -0.1634
  423SOL    HW1 1268   0.088   0.677   1.334 -0.4164 -1.0029  1.0224
  423SOL    HW2 1269   0.087   0.821   1.238 -2.5019 -0.1587  3.4546
  424SOL     OW 1270   1.152   2.217   2.052 -0.7283  0.0807  0.2426
  424SOL    HW1 1271   1.135   2.319   2.047  0.6254  0.6785 -1.1208
  424SOL    HW2 1272   1.096   2.160   2.120 -1.1786 -0.5103 -0.9263
  425SOL     OW 1273   1.953   1.310   0.989 -0.9727 -0.0401 -0.2970
  425SOL    HW1 1274   2.032   1.274   1.047  0.9615  2.5546  0.8404
  425SOL    HW2 1275   1.968   1.411   0.978 -0.6028 -0.7145  1.5200
  426SOL     OW 1276   1.433   1.589   1.199  0.1988  0.0472  0.3074
  426SOL    HW1 1277   1.446   1.685   1.168  0.3100 -1.0572 -2.9452
  426SOL    HW2 1278   1.379   1.579   1.291 -1.5886 -1.9572 -0.2619
  427SOL     OW 1279   1.955   2.387   2.100 -0.3402  0.2151 -0.0169
  427SOL    HW1 1280   2.017   2.318   2.142 -0.3832  0.8054  0.2734
  427SOL    HW2 1281   1.983   2.487   2.117  0.5487 -2.6445 -0.3184
  428SOL     OW 1282   0.896   0.043   0.097 -0.7075  0.4533 -0.5556
  428SOL    HW1 1283   0.921   0.108   0.018 -0.1011  0.9213  1.4069
  428SOL    HW2 1284   0.976  -0.012   0.133  1.0855  1.8688 -1.8932
  429SOL     OW 1285   1.297   0.169   0.245 -0.2254 -0.1368  0.0818
  429SOL    HW1 1286   1.387   0.179   0.302 -1.4010  0.8598 -0.2041
  429SOL    HW2 1287   1.314   0.212   0.150  1.5775  1.4428  0.0639
  430SOL     OW 1288   2.898   1.389   0.280 -0.4261 -0.3616 -0.3131
  430SOL    HW1 1289   2.888   1.456   0.203  2.8757 -2.9622  4.2941
  430SOL    HW2 1290   2.833   1.426   0.354  0.2432  2.2219 -2.5788
  431SOL     OW 1291   2.066   1.577   0.901 -0.0738  0.0207 -0.0643
  431SOL    HW1 1292   2.067   1.628   0.992 -0.9790 -1.5906  1.2475
  431SOL    HW2 1293   1.982   1.600   0.846  0.5701 -0.7197  0.4586
  432SOL     OW 1294   2.909   2.157   1.217 -0.1881 -0.3087  0.2446
  432SOL    HW1 1295   2.880   2.059   1.235  0.7791 -0.1713 -0.4043
  432SOL    HW2 1296   2.968   2.197   1.296  0.0691  1.7127 -1.8780
  433SOL     OW 1297   1.844   0.248   0.805 -0.4835  0.5277  0.5460
  433SOL    HW1 1298   1.770   0.283   0.865  2.2408  2.0554  1.2849
  433SOL    HW2 1299   1.935   0.266   0.859  1.0468  0.1363  1.1489
  434SOL     OW 1300   1.543   0.297   0.665 -0.1362 -0.1089 -0.0811
  434SOL    HW1 1301   1.518   0.372   0.593 -0.5930 -0.5330 -3.2835
  434SOL    HW2 1302   1.629   0.334   0.721  0.9121  1.4375  1.9997
  435SOL     OW 1303   1.490   1.410   2.115 -0.2452 -0.3012  0.1525
  435SOL    HW1 1304   1.479   1.453   2.212 -1.5547  1.3521  1.9952
  435SOL    HW2 1305   1.491   1.484   2.041 -2.3350 -0.4959  1.4431
  436SOL     OW 1306   1.722   2.731   2.271 -0.0074  0.2935  0.1576
  436SOL    HW1 1307   1.672   2.791   2.344  0.9130  1.6183  0.2388
  436SOL    HW2 1308   1.741   2.637   2.307  0.1698 -0.3777  0.3986
  437SOL     OW 1309   1.119   2.964   0.918  0.0289  0.1080 -0.0361
  437SOL    HW1 1310   1.041   3.033   0.909 -0.1684 -0.4080 -1.9051
  437SOL    HW2 1311   1.140   2.927   1.014  2.7972  1.4554 -2.3379
  438SOL     OW 1312   1.020   2.700   1.502 -0.2363  0.4944  0.7353
  438SOL    HW1 1313   1.121   2.722   1.498  1.7923  1.3930 -1.7293
  438SOL    HW2 1314   0.997   2.615   1.452  2.8890  0.2828 -1.5485
  439SOL     OW 1315   0.691   1.867   1.066  0.4726  0.1917  0.5706
  439SOL    HW1 1316   0.680   1.949   0.998 -1.1825 -0.4917 -2.6141
  439SOL    HW2 1317   0.602   1.814   1.081  1.4215  0.5964  3.0711
  440SOL     OW 1318   1.046   2.498   1.972  0.3097 -0.0819  0.5613
  440SOL    HW1 1319   0.985   2.536   1.901  1.0262 -2.7115 -1.5611
  440SOL    HW2 1320   1.144   2.525   1.950 -0.0747 -1.4240 -2.8478
  441SOL     OW 1321   0.375   2.693   1.507 -0.0704  0.0168 -0.5663
  441SOL    HW1 1322   0.462   2.634   1.506 -1.4600  1.5847 -3.9017
  441SOL    HW2 1323   0.311   2.666   1.431 -0.9904  0.9332  0.3745
  442SOL     OW 1324   2.274   0.658   2.552 -0.6487 -0.1826 -0.1317
  442SOL    HW1 1325   2.267   0.562   2.593  0.1345 -2.7603 -1.0496
  442SOL    HW2 1326   2.194   0.720   2.572 -1.2881 -0.6008 -0.5085
  443SOL     OW 1327   1.204   2.665   2.223 -0.0928 -0.1605  0.8884
  443SOL    HW1 1328   1.179   2.704   2.315 -2.1915  0.0878 -2.2940
  443SOL    HW2 1329   1.236   2.568   2.227  3.8578  1.4160  2.7379
  444SOL     OW 1330   1.006   1.362   1.550  0.2330 -0.6300 -0.3123
  444SOL    HW1 1331   1.095   1.341   1.497  1.2823 -0.0921 -0.0177
  444SOL    HW2 1332   0.966   1.454   1.523  0.7317 -0.9166  3.3321
  445SOL     OW 1333   3.081   2.379   1.988  0.0253  0.3829  0.0712
  445SOL    HW1 1334   3.074   2.450   1.915  0.9110 -1.7753  1.5613
  445SOL    HW2 1335   2.991   2.340   2.019  0.8377  1.2919  0.6752
  446SOL     OW 1336   0.208   1.892   2.348  0.2760  0.6662  0.4909
  446SOL    HW1 1337   0.167   1.976   2.392 -1.3878 -0.7053  1.6220
  446SOL    HW2 1338   0.135   1.853   2.284  2.7358  0.9882  0.5839
  447SOL     OW 1339   1.219   1.635   1.941  0.0106 -0.2480  0.1767
  447SOL    HW1 1340   1.175   1.730   1.936 -0.1775 -1.4158 -3.0145
  447SOL    HW2 1341   1.311   1.640   1.987  0.4248 -0.6293 -0.8026
  448SOL     OW 1342   0.119   1.552   1.920  0.3801  0.7198 -0.4168
  448SOL    HW1 1343   0.098   1.654   1.918 -2.1764 -1.6721 -1.2182
  448SOL    HW2 1344   0.150   1.517   2.019  2.5381 -0.4120  0.0431
  449SOL     OW 1345   2.010   2.989   0.864  0.0085 -0.2520  0.1069
  449SOL    HW1 1346   2.076   3.043   0.921 -1.1109 -0.6226 -0.7924
  449SOL    HW2 1347   2.006   2.888   0.885  1.6515 -1.0444  2.5588
  450SOL     OW 1348   2.271   1.358   0.917  0.1479 -0.3789  0.6701
  450SOL    HW1 1349   2.278   1.257   0.902 -2.1353 -0.7286 -3.0327
  450SOL    HW2 1350   2.216   1.401   0.850 -0.7965 -0.8717  1.1555
  451SOL     OW 1351   1.412   0.029   1.443 -0.1440  0.3769 -0.0151
  451SOL    HW1 1352   1.319   0.067   1.463  1.1084  2.2468 -0.6561
  451SOL    HW2 1353   1.446  -0.036   1.518 -0.7158 -1.2651 -0.0287
  452SOL     OW 1354   2.661   2.351   2.241 -0.4465  0.2804  0.0198
  452SOL    HW1 1355   2.634   2.440   2.276 -0.8876 -0.7548  1.3161
  452SOL    HW2 1356   2.703   2.285   2.314  0.8408 -1.2973  1.2671
  453SOL     OW 1357   2.430   2.581   3.051  0.0798 -0.0411 -0.1100
  453SOL    HW1 1358   2.372   2.668   3.035  0.3665  0.2878 -2.1645
  453SOL    HW2 1359   2.418   2.520   2.970  2.4605  1.0286  1.7799
  454SOL     OW 1360   0.966   1.080   2.055  0.2942 -0.4068 -0.9675
  454SOL    HW1 1361   0.939   1.116   1.961  1.0089  0.0067  1.4281
  454SOL    HW2 1362   1.058   1.107   2.091 -0.7932  1.7895 -1.1815
  455SOL     OW 1363   0.633   2.658   2.905 -0.1141 -0.8993  0.2078
  455SOL    HW1 1364   0.695   2.733   2.950  0.1964  0.3961  0.4040
  455SOL    HW2 1365   0.598   2.589   2.970  0.2650 -0.6695 -1.0431
  456SOL     OW 1366   0.523   1.777   0.336  0.3472 -0.2996  0.3489
  456SOL    HW1 1367   0.609   1.726   0.361 -2.7676  0.8617 -1.2470
  456SOL    HW2 1368   0.533   1.881   0.327 -1.6140  0.9698 -0.8495
  457SOL     OW 1369   0.357   2.551   0.642  0.1873  0.5637 -0.6732
  457SOL    HW1 1370   0.343   2.585   0.544  2.7711  2.0171 -0.5191
  457SOL    HW2 1371   0.460   2.537   0.659 -1.1585  0.1660 -0.3603
  458SOL     OW 1372   2.991   2.980   1.235  0.0193 -0.0919 -0.7065
  458SOL    HW1 1373   3.012   3.084   1.229  0.1211 -0.8472 -1.3309
  458SOL    HW2 1374   2.971   2.933   1.144 -1.5565  2.0761  0.7877
  459SOL     OW 1375   2.159   2.566   0.895 -0.3877  0.7971 -0.5120
  459SOL    HW1 1376   2.146   2.614   0.988  3.4379 -0.8810 -0.3329
  459SOL    HW2 1377   2.261   2.580   0.864  0.5893  1.0815 -2.6321
  460SOL     OW 1378   1.068   1.924   2.917  0.0062 -0.3942  0.1615
  460SOL    HW1 1379   1.107   2.004   2.865  0.4561 -0.1654  0.3370
  460SOL    HW2 1380   1.141   1.862   2.960 -0.8836 -0.5693 -2.8484
  461SOL     OW 1381   0.566   2.113   2.681 -0.0935 -0.1517 -0.6183
  461SOL    HW1 1382   0.487   2.047   2.657 -1.1492 -0.1649  0.6537
  461SOL    HW2 1383   0.614   2.089   2.768  0.2546  0.4470 -0.9666
  462SOL     OW 1384   0.968   1.175   1.788  0.1924 -0.2857 -0.3455
  462SOL    HW1 1385   1.038   1.101   1.774  0.8871 -0.4153 -0.1257
  462SOL    HW2 1386   0.967   1.236   1.713  1.8748 -0.8841  3.9242
  463SOL     OW 1387   0.449   0.762   0.504  0.3112 -0.6679 -0.5300
  463SOL    HW1 1388   0.446   0.667   0.463  0.9586 -0.8621 -1.0684
  463SOL    HW2 1389   0.353   0.801   0.527 -0.5726  0.1342 -2.5259
  464SOL     OW 1390   0.503   2.258   2.228  0.0749  0.2345  0.1397
  464SOL    HW1 1391   0.420   2.303   2.274 -1.7941  1.6854 -1.9835
  464SOL    HW2 1392   0.536   2.310   2.145  0.2771 -0.0291 -0.1323
  465SOL     OW 1393   0.307   0.913   0.883  0.0258  0.0384  0.0069
  465SOL    HW1 1394   0.217   0.912   0.830  0.6712 -2.0674 -2.4467
  465SOL    HW2 1395   0.327   0.815   0.917 -1.8978 -1.6392 -3.3948
  466SOL     OW 1396   1.396   1.079   1.104  0.0328  0.5818  0.7730
  466SOL    HW1 1397   1.461   1.162   1.110 -0.0173  0.1243 -0.0796
  466SOL    HW2 1398   1.303   1.106   1.071  0.1292 -1.8853  2.6119
  467SOL     OW 1399   0.464   0.379   2.445  0.1860  0.0429 -0.3052
  467SOL    HW1 1400   0.407   0.437   2.508 -1.0140 -2.9261  1.1606
  467SOL    HW2 1401   0.502   0.296   2.495 -1.0959  3.3749 -0.7100
  468SOL     OW 1402   0.493   2.216   1.729  0.0816  0.3519  0.0463
  468SOL    HW1 1403   0.523   2.292   1.795 -0.9882 -0.1133  0.7744
  468SOL    HW2 1404   0.475   2.247   1.631  1.6924 -1.1943 -0.4469
  469SOL     OW 1405   1.582   1.268   1.103  0.2234  0.0178 -0.0182
  469SOL    HW1 1406   1.645   1.191   1.124 -0.7810  0.5796  0.8102
  469SOL    HW2 1407   1.624   1.358   1.133  3.4069 -0.0087  1.7111
  470SOL     OW 1408   3.013   1.626   0.742 -0.8100 -0.2217  0.5095
  470SOL    HW1 1409   3.116   1.632   0.755 -0.9793  0.1609 -2.0828
  470SOL    HW2 1410   2.969   1.706   0.788  2.2647 -0.7484 -3.3818
  471SOL     OW 1411   2.629   1.297   2.179 -0.6168 -0.1416  0.0579
  471SOL    HW1 1412   2.573   1.239   2.249 -1.4135 -2.0598  3.0269
  471SOL    HW2 1413   2.680   1.383   2.220  0.2562  0.1956  1.3812
  472SOL     OW 1414   1.133   2.462  -0.003  0.3342 -0.1137 -0.4914
  472SOL    HW1 1415   1.207   2.474   0.068 -0.8550 -1.4023  0.7536
  472SOL    HW2 1416   1.102   2.363  -0.013  2.7429  0.4320 -1.3185
  473SOL     OW 1417   1.040   1.559   0.881 -0.1315 -0.2973 -0.2194
  473SOL    HW1 1418   0.955   1.603   0.924  1.9934 -1.9165  0.8454
  473SOL    HW2 1419   1.111   1.536   0.954  0.5170 -1.1049 -0.5270
  474SOL     OW 1420   0.801   1.243   0.780  0.0302  0.2857 -0.1495
  474SOL    HW1 1421   0.778   1.220   0.682  0.3180 -0.5101 -1.0013
  474SOL    HW2 1422   0.894   1.214   0.806 -0.6198  2.3843  0.8940
  475SOL     OW 1423   2.895   0.061   0.797 -0.0375 -0.5906  0.7585
  475SOL    HW1 1424   2.985   0.073   0.859  0.3185  2.0789 -1.2678
  475SOL    HW2 1425   2.803   0.070   0.848  0.2881  0.1714 -1.7325
  476SOL     OW 1426   0.922   3.059   1.894  0.9036  0.2053  0.9105
  476SOL    HW1 1427   0.985   3.048   1.974 -0.6199  3.0787  2.2719
  476SOL    HW2 1428   0.940   2.994   1.818  0.7454 -0.0895  2.2777
  477SOL     OW 1429   1.476   0.404   2.436  0.5317  0.6302  0.3596
  477SOL    HW1 1430   1.444   0.406   2.538 -1.3836  0.4501 -0.8258
  477SOL    HW2 1431   1.567   0.354   2.423  0.4838  0.4061 -0.2332
  478SOL     OW 1432   2.207   1.806   0.245 -1.0629  0.2283 -0.2193
  478SOL    HW1 1433   2.138   1.734   0.222  0.0182  2.5559  0.1897
  478SOL    HW2 1434   2.302   1.766   0.243 -0.7068 -0.0537 -1.0785
  479SOL     OW 1435   1.180   1.128   2.855 -0.1543 -0.0795 -0.0440
  479SOL    HW1 1436   1.270   1.141   2.800  0.2675  2.8008 -2.0991
  479SOL    HW2 1437   1.111   1.067   2.807 -1.8904 -0.4452 -3.5603
  480SOL     OW 1438   2.484   2.343   0.373  0.3194 -0.1991  0.2486
  480SOL    HW1 1439   2.429   2.269   0.423 -2.8692 -0.0343  2.4723
  480SOL    HW2 1440   2.442   2.370   0.283  1.8141  1.0782  1.6007
  481SOL     OW 1441   1.063   1.190   0.837 -0.6854 -0.2815  0.2722
  481SOL    HW1 1442   1.089   1.272   0.778 -2.0451  0.1650  0.3447
  481SOL    HW2 1443   1.097   1.205   0.934  1.8766  2.6327 -1.2732
  482SOL     OW 1444   1.627   0.275   2.002 -0.3820 -0.3842 -0.5005
  482SOL    HW1 1445   1.652   0.364   1.954 -0.0927  2.0745 -0.3434
  482SOL    HW2 1446   1.701   0.236   2.057 -0.6071 -0.2802 -0.4811
  483SOL     OW 1447   0.134   2.331   1.317 -0.5417  1.0041 -0.2520
  483SOL    HW1 1448   0.043   2.366   1.345  1.5596 -1.7731  1.8691
  483SOL    HW2 1449   0.180   2.381   1.235  1.7158  1.3197  1.3049
  484SOL     OW 1450   1.710   0.940   1.399 -0.5330 -0.3943  0.1999
  484SOL    HW1 1451   1.804   0.897   1.423  0.9985 -0.1512  0.6709
  484SOL    HW2 1452   1.719   1.037   1.360  1.5580  0.3895 -1.2727
  485SOL     OW 1453   0.684   1.128   1.778 -0.4541  0.5286  0.3214
  485SOL    HW1 1454   0.686   1.103   1.679  1.0937 -2.5046  1.5461
  485SOL    HW2 1455   0.782   1.155   1.808  0.8654  2.2392 -0.5106
  486SOL     OW 1456   0.899   1.913   2.426 -0.1177 -0.0094  0.4213
  486SOL    HW1 1457   0.942   1.869   2.508  1.4321 -0.6078  0.8148
  486SOL    HW2 1458   0.848   1.997   2.448  1.2630 -1.1921  2.5309
  487SOL     OW 1459   1.742   1.504   0.863  0.3324  0.5919 -0.6312
  487SOL    HW1 1460   1.717   1.425   0.805 -0.1855  0.9943  0.3264
  487SOL    HW2 1461   1.788   1.582   0.817 -0.2117 -0.6040 -2.4254
  488SOL     OW 1462   2.980   0.947   2.260  0.3862 -0.2130 -0.4864
  488SOL    HW1 1463   2.966   0.864   2.193 -2.3257 -2.1068 -2.2394
  488SOL    HW2 1464   3.045   0.932   2.335 -0.8583  1.5556 -1.2918
  489SOL     OW 1465   2.779   0.197   1.321 -0.2536  0.1914  0.6230
  489SOL    HW1 1466   2.763   0.161   1.420  0.6673 -2.9130 -0.2069
  489SOL    HW2 1467   2.875   0.172   1.291 -1.4686  3.0863 -0.6263
  490SOL     OW 1468   1.407   2.981   2.832 -0.3464  0.5692  0.0256
  490SOL    HW1 1469   1.450   2.888   2.830  0.5239  0.7278  2.3462
  490SOL    HW2 1470   1.373   3.025   2.747  1.1892  1.1788  1.9045
  491SOL     OW 1471   1.907   1.559   2.666 -0.0465 -0.1651  0.3155
  491SOL    HW1 1472   1.905   1.556   2.773 -0.4009  1.3787  0.0439
  491SOL    HW2 1473   1.989   1.614   2.631 -1.9523 -0.4163  2.9318
  492SOL     OW 1474   0.484   1.907   0.719  0.2462  0.2081  0.0959
  492SOL    HW1 1475   0.568   1.926   0.776  2.4547 -0.4955  2.2869
  492SOL    HW2 1476   0.442   1.991   0.680  1.5535  0.2457  2.7461
  493SOL     OW 1477   0.473   1.401   2.166  0.2546 -0.2527 -0.0068
  493SOL    HW1 1478   0.373   1.432   2.174  0.1551 -1.8079  0.8383
  493SOL    HW2 1479   0.490   1.310   2.215  3.7642  0.8118  1.7894
  494SOL     OW 1480   2.603   2.624   0.170 -0.2050 -0.8935  0.0987
  494SOL    HW1 1481   2.679   2.554   0.164 -0.0991  0.4483 -1.4804
  494SOL    HW2 1482   2.540   2.625   0.087 -3.1471 -0.5690 -0.8500
  495SOL     OW 1483   2.744   2.682   2.685 -0.0783  0.1473  0.3798
  495SOL    HW1 1484   2.748   2.589   2.634 -2.9474 -1.3208  0.1136
  495SOL    HW2 1485   2.750   2.758   2.620 -0.3333 -3.3329  0.3198
  496SOL     OW 1486   2.034   2.207   0.709  0.3640  0.1502 -0.1900
  496SOL    HW1 1487   2.038   2.218   0.816 -1.1934 -0.8985  2.3715
  496SOL    HW2 1488   2.032   2.105   0.675  0.1452  2.8650  1.5966
  497SOL     OW 1489   0.247   2.960   2.407  0.1782 -0.0057 -0.0703
  497SOL    HW1 1490   0.176   3.016   2.458 -2.3734 -1.9901  0.7926
  497SOL    HW2 1491   0.303   3.006   2.333  1.0833 -0.7420 -0.2708
  498SOL     OW 1492   1.239   1.498   1.060  0.6530 -0.2808  0.4931
  498SOL    HW1 1493   1.330   1.535   1.109  1.5318 -1.3476 -2.0124
  498SOL    HW2 1494   1.159   1.497   1.124 -0.1848 -0.4074 -1.4126
  499SOL     OW 1495   0.872   1.841   0.474  0.1738  0.0527  0.1647
  499SOL    HW1 1496   0.794   1.794   0.522  2.9079  0.9474 -2.6341
  499SOL    HW2 1497   0.920   1.913   0.532 -1.2365  1.1612 -0.4523
  500SOL     OW 1498   1.454   2.957   1.656 -0.1452  0.0988  0.1820
  500SOL    HW1 1499   1.449   3.002   1.746  2.4385  0.2319 -1.8388
  500SOL    HW2 1500   1.474   2.851   1.655 -2.2130 -1.5873  1.3626
  501SOL     OW 1501   0.787   1.119   2.276  0.2690  0.0615  0.6588
  501SOL    HW1 1502   0.701   1.063   2.280  0.0964  0.4790  1.0772
  501SOL    HW2 1503   0.849   1.102   2.188  0.8915  0.4212  0.9963
  502SOL     OW 1504   2.610   0.971   1.737 -0.4067 -0.4618  0.3145
  502SOL    HW1 1505   2.551   0.977   1.653 -0.2384 -0.7933  1.3744
  502SOL    HW2 1506   2.579   0.890   1.789 -2.3192 -0.1302 -1.2072
  503SOL     OW 1507   1.310   0.157   0.639  0.0779 -0.0628 -0.1558
  503SOL    HW1 1508   1.225   0.218   0.637  0.7790  0.7447  0.8720
  503SOL    HW2 1509   1.402   0.210   0.640 -0.1228 -0.2322 -0.8782
  504SOL     OW 1510   2.965   2.321   1.444 -0.1587 -0.3083  0.3950
  504SOL    HW1 1511   2.979   2.421   1.474  1.8863 -0.8816  1.1619
  504SOL    HW2 1512   2.890   2.277   1.490  1.5014  3.2498  1.1127
  505SOL     OW 1513   2.309   1.277   1.460 -0.1416  0.3746  0.8349
  505SOL    HW1 1514   2.300   1.379   1.473  1.5340  0.1886  1.3255
  505SOL    HW2 1515   2.405   1.242   1.481 -1.8454  1.7790 -2.0540
  506SOL     OW 1516   1.872   0.263   1.785  0.0383  0.7721  0.1636
  506SOL    HW1 1517   1.954   0.229   1.726  0.5439  0.1243  0.4126
  506SOL    HW2 1518   1.895   0.337   1.853 -2.1972 -0.1728 -2.0685
  507SOL     OW 1519   0.473   0.750   2.172 -0.1203 -0.1855 -0.2986
  507SOL    HW1 1520   0.417   0.741   2.084  0.1376  2.7419 -0.3459
  507SOL    HW2 1521   0.529   0.666   2.191  1.1147 -0.5161 -2.2164
  508SOL     OW 1522   0.190   1.629   0.844  0.0555 -0.4253  0.7164
  508SOL    HW1 1523   0.261   1.701   0.820  3.1307 -1.1742 -0.5002
  508SOL    HW2 1524   0.162   1.636   0.945 -1.0264 -0.7354 -0.3419
  509SOL     OW 1525   1.340   1.195   2.586 -0.1148  0.3243  0.0716
  509SOL    HW1 1526   1.252   1.255   2.572  0.7550  0.6554  2.0394
  509SOL    HW2 1527   1.324   1.094   2.566  1.8754 -1.3228 -1.6031
  510SOL     OW 1528   1.324   2.001   2.040  0.7036  0.1780 -0.1076
  510SOL    HW1 1529   1.262   2.085   2.057  0.4111  2.4383  0.6110
  510SOL    HW2 1530   1.324   1.935   2.122 -0.3463  3.4970 -1.8769
  511SOL     OW 1531   3.049   2.631   1.298 -0.0039  0.1334  0.3931
  511SOL    HW1 1532   2.993   2.589   1.224  0.8211  1.4709  1.1903
  511SOL    HW2 1533   3.002   2.628   1.394  1.3337 -0.3423  0.0530
  512SOL     OW 1534   2.418   0.383   1.439 -0.4892 -0.2839  0.5994
  512SOL    HW1 1535   2.316   0.391   1.417  2.2512  1.2541 -2.0804
  512SOL    HW2 1536   2.472   0.321   1.379 -1.1120 -2.3527  0.1417
  513SOL     OW 1537   2.495   1.980   0.819  0.0147  0.4821  0.3534
  513SOL    HW1 1538   2.478   2.078   0.850  2.7114  0.7629  2.2236
  513SOL    HW2 1539   2.560   1.977   0.738 -0.7742  1.3375 -0.5263
  514SOL     OW 1540   0.685   2.797   0.419  0.1962  0.2790 -0.2456
  514SOL    HW1 1541   0.641   2.848   0.341  0.2180 -0.3702  1.4107
  514SOL    HW2 1542   0.728   2.857   0.491 -1.0771 -1.2011 -2.0855
  515SOL     OW 1543   1.941   1.221   2.347 -0.2156 -0.2583 -1.0773
  515SOL    HW1 1544   1.899   1.270   2.265  1.0476  0.6920 -0.6536
  515SOL    HW2 1545   1.892   1.223   2.441  1.4348  2.0638  4.3225
  516SOL     OW 1546   0.291   0.396   1.979  0.2354  0.3151  0.4370
  516SOL    HW1 1547   0.388   0.355   1.965  3.1396 -0.6951 -1.3085
  516SOL    HW2 1548   0.225   0.372   1.901  0.9076  0.3896  0.4893
  517SOL     OW 1549   0.387   3.022   1.197 -0.0671 -0.5433 -0.3796
  517SOL    HW1 1550   0.381   3.119   1.226  0.6774 -1.6976  0.4412
  517SOL    HW2 1551   0.322   2.955   1.244  0.4297  0.8499 -0.5402
  518SOL     OW 1552   2.124   0.185   1.628 -0.2870 -0.1618  0.6874
  518SOL    HW1 1553   2.161   0.204   1.724  2.4070 -0.8577 -0.5425
  518SOL    HW2 1554   2.151   0.093   1.591 -0.0638 -0.4581  0.2480
  519SOL     OW 1555   2.337   2.167   2.558  0.2463  0.1773  0.6197
  519SOL    HW1 1556   2.263   2.169   2.630 -0.9148  1.0296  0.6505
  519SOL    HW2 1557   2.384   2.259   2.565 -2.4139  0.8226  2.0458
  520SOL     OW 1558   1.762   2.877   1.832 -0.1793  0.4284  0.0472
  520SOL    HW1 1559   1.687   2.816   1.872  1.4047 -1.5831 -0.7195
  520SOL    HW2 1560   1.846   2.818   1.820 -1.1716 -0.8688  0.6686
  521SOL     OW 1561   0.583   0.116   2.148  0.6819 -0.5966  0.2177
  521SOL    HW1 1562   0.481   0.107   2.176  0.8407 -2.1049  1.8137
  521SOL    HW2 1563   0.644   0.053   2.205  1.1621 -1.7306 -1.5805
  522SOL     OW 1564   0.220   1.919   1.533 -0.3350 -0.2117 -0.0426
  522SOL    HW1 1565   0.252   1.959   1.621 -0.1409 -2.2533 -0.6246
  522SOL    HW2 1566   0.194   1.990   1.458 -0.0199  0.9875  0.6685
  523SOL     OW 1567   2.251   3.034   1.595  0.2689  0.0617  0.3492
  523SOL    HW1 1568   2.274   2.962   1.525  1.1826  2.5554  0.3424
  523SOL    HW2 1569   2.187   3.002   1.671 -1.6786  0.6638  0.0724
  524SOL     OW 1570   0.245   2.797   2.792 -0.4116 -0.1222 -0.2237
  524SOL    HW1 1571   0.194   2.878   2.832  1.9230 -2.6150 -1.4222
  524SOL    HW2 1572   0.347   2.808   2.770 -4.1992  0.6622 -0.4943
  525SOL     OW 1573   2.125   1.978   0.463 -0.3650 -0.6850  0.4303
  525SOL    HW1 1574   2.133   1.899   0.534 -1.6896 -0.3524 -1.0733
  525SOL    HW2 1575   2.175   1.950   0.378  1.0724  0.4825 -0.3515
  526SOL     OW 1576   0.423   1.548   1.543 -0.8030  0.0467 -0.3129
  526SOL    HW1 1577   0.355   1.531   1.618 -0.1679  2.7205 -1.6904
  526SOL    HW2 1578   0.479   1.466   1.515 -2.0620  0.2400  0.5724
  527SOL     OW 1579   1.134   2.886   1.197  0.1790  0.1968  0.1375
  527SOL    HW1 1580   1.170   2.821   1.265  0.0468 -1.0651 -1.5351
  527SOL    HW2 1581   1.160   2.989   1.213  2.7920  0.2750  1.0159
  528SOL     OW 1582   1.341   2.382   0.473 -0.0925 -0.2004  0.0322
  528SOL    HW1 1583   1.381   2.287   0.459  0.6652  1.2833  3.0970
  528SOL    HW2 1584   1.392   2.437   0.542 -1.6757 -0.0633 -0.6490
  529SOL     OW 1585   1.871   1.722   0.735  0.1878  0.2509 -0.8068
  529SOL    HW1 1586   1.828   1.735   0.643  2.3884 -1.2885  0.1714
  529SOL    HW2 1587   1.863   1.807   0.796  0.1706  0.8935 -0.0575
  530SOL     OW 1588   0.363   2.434   0.233  0.0360  0.3013 -0.4996
  530SOL    HW1 1589   0.374   2.521   0.286 -3.2971 -1.3189 -1.7733
  530SOL    HW2 1590   0.429   2.366   0.255 -0.8655  2.4531 -0.6369
  531SOL     OW 1591   1.882   0.810   0.947  0.0509 -0.2974  0.0789
  531SOL    HW1 1592   1.903   0.838   0.846 -0.1564  1.5123 -4.6672
  531SOL    HW2 1593   1.786   0.845   0.973 -1.0185  1.3061 -1.6064
  532SOL     OW 1594   0.446   1.100   0.755  0.1754  0.4521 -0.5947
  532SOL    HW1 1595   0.465   1.084   0.652 -0.1172  1.6575 -2.2141
  532SOL    HW2 1596   0.392   1.016   0.794 -2.4353 -0.5745  0.9568
  533SOL     OW 1597   1.718   3.094   2.565 -0.1629  0.4052  0.3603
  533SOL    HW1 1598   1.811   3.093   2.612 -0.5925  1.6886  2.3365
  533SOL    HW2 1599   1.657   3.162   2.608 -2.0509 -0.0731  0.4541
  534SOL     OW 1600   0.383   0.192   1.549 -0.4013 -0.0789 -0.4131
  534SOL    HW1 1601   0.487   0.179   1.552  1.0523 -0.2092 -0.2370
  534SOL    HW2 1602   0.363   0.294   1.536  0.9141  2.0314 -0.4923
  535SOL     OW 1603   1.956   0.330   0.170  0.3248 -0.1547  0.2943
  535SOL    HW1 1604   1.977   0.417   0.227 -0.9277  3.2526 -2.1543
  535SOL    HW2 1605   1.957   0.246   0.230  0.7768  0.7925 -2.4806
  536SOL     OW 1606   1.367   2.590   0.910 -0.2312  0.0576  0.3105
  536SOL    HW1 1607   1.343   2.577   1.008  0.9972 -0.4600 -0.3213
  536SOL    HW2 1608   1.289   2.602   0.846  2.2282  0.7767  1.0460
  537SOL     OW 1609   0.871   0.270   2.348  0.2892 -0.0803 -0.3766
  537SOL    HW1 1610   0.900   0.312   2.256  4.1241  1.1308 -4.4614
  537SOL    HW2 1611   0.844   0.171   2.346  1.4604 -1.3640 -1.5924
  538SOL     OW 1612   1.657   2.403   1.411 -0.3470 -0.0424  0.0805
  538SOL    HW1 1613   1.651   2.301   1.427  0.5045 -1.5130  0.9284
  538SOL    HW2 1614   1.753   2.441   1.412  0.7257  1.4515 -0.2546
  539SOL     OW 1615   0.200   1.603   2.666 -0.3200 -0.4967  0.4521
  539SOL    HW1 1616   0.103   1.568   2.659 -1.5279  0.2349  0.6589
  539SOL    HW2 1617   0.214   1.686   2.729  0.7036 -1.9772  0.0157
  540SOL     OW 1618   2.658   1.742   1.927 -0.6970  0.6579  0.1067
  540SOL    HW1 1619   2.611   1.656   1.971  1.2284 -3.2483 -1.1471
  540SOL    HW2 1620   2.617   1.830   1.963  2.1768  0.0858  1.7507
  541SOL     OW 1621   0.502   2.150   0.006 -0.4025  0.1725 -0.3723
  541SOL    HW1 1622   0.509   2.107   0.102  0.2886  0.1292  0.1342
  541SOL    HW2 1623   0.417   2.114  -0.044 -2.1161  0.3349 -0.5257
  542SOL     OW 1624   2.271   2.623   0.539 -0.1503 -0.6925  0.0290
  542SOL    HW1 1625   2.224   2.700   0.591  0.1176 -0.6524  1.0986
  542SOL    HW2 1626   2.212   2.536   0.523 -2.2892 -0.8695 -1.6923
  543SOL     OW 1627   1.081   1.790   1.582 -0.2168  0.0669 -0.1921
  543SOL    HW1 1628   1.099   1.795   1.688  2.8653 -1.7366  2.5003
  543SOL    HW2 1629   1.015   1.860   1.541  1.1850  0.4265  1.8062
  544SOL     OW 1630   1.146   0.548   0.128 -0.5477  0.4499 -0.3585
  544SOL    HW1 1631   1.096   0.475   0.181  1.5568  1.6690 -0.4247
  544SOL    HW2 1632   1.188   0.510   0.040  0.0635 -2.5511 -0.9235
  545SOL     OW 1633   1.133   1.810   0.814 -0.4412 -0.5503  0.0509
  545SOL    HW1 1634   1.228   1.837   0.774  1.7013 -1.0277  1.0669
  545SOL    HW2 1635   1.119   1.710   0.804  1.0912  0.4720  1.0204
  546SOL     OW 1636   2.668   1.599   2.985 -0.0702 -0.1706  0.1282
  546SOL    HW1 1637   2.627   1.690   3.001 -1.6124  1.0114 -0.4048
  546SOL    HW2 1638   2.601   1.520   2.986 -0.1461  0.9702 -0.7398
  547SOL     OW 1639   0.656   3.038   2.569 -0.1870 -0.3541  0.1394
  547SOL    HW1 1640   0.705   3.010   2.657 -1.3621 -3.7442 -3.4233
  547SOL    HW2 1641   0.587   2.960   2.537 -0.1969 -4.7696 -3.0404
  548SOL     OW 1642   2.035   0.771   3.025 -0.1840  0.2466  0.0863
  548SOL    HW1 1643   1.939   0.743   3.046 -0.0220  0.3721  2.7876
  548SOL    HW2 1644   2.047   0.870   3.057  1.0596  0.8644  0.4204
  549SOL     OW 1645   0.686   0.568   0.180 -0.3568 -0.0092 -0.2687
  549SOL    HW1 1646   0.651   0.619   0.095  1.5175 -0.8837  1.5599
  549SOL    HW2 1647   0.774   0.610   0.213  0.4652  0.5641 -0.3044
  550SOL     OW 1648   2.580   2.763   2.884  0.2549  0.3357 -0.1608
  550SOL    HW1 1649   2.541   2.686   2.941 -0.9485 -0.1445  1.3328
  550SOL    HW2 1650   2.635   2.725   2.805 -2.3383 -0.5241 -0.8681
  551SOL     OW 1651   0.253   0.870   0.195 -0.1052 -0.2427  0.3012
  551SOL    HW1 1652   0.348   0.833   0.187  2.3318  2.2313 -0.4255
  551SOL    HW2 1653   0.244   0.926   0.279 -2.0800  0.6846 -3.2843
  552SOL     OW 1654   0.624   3.047   1.950 -0.3830  0.0517 -0.1261
  552SOL    HW1 1655   0.598   3.104   2.031  0.5536 -1.0801 -1.4420
  552SOL    HW2 1656   0.726   3.028   1.950  1.3088 -0.2975 -0.8052
  553SOL     OW 1657   3.002   2.425   0.365  0.3071  0.0206  0.4134
  553SOL    HW1 1658   3.020   2.331   0.390 -1.2390  1.5159  0.2047
  553SOL    HW2 1659   2.906   2.453   0.399 -1.5706  1.1671 -2.7761
  554SOL     OW 1660   2.210   0.358   0.545  0.5121 -0.0370  0.2637
  554SOL    HW1 1661   2.256   0.412   0.469  0.3366 -0.3727  1.5410
  554SOL    HW2 1662   2.242   0.258   0.552  1.0991 -1.3816 -0.9467
  555SOL     OW 1663   0.477   2.838   2.472  0.2503 -0.1262 -0.0872
  555SOL    HW1 1664   0.390   2.897   2.464  2.6171 -4.0297 -2.0374
  555SOL    HW2 1665   0.469   2.752   2.411 -1.2330 -1.8210  0.8664
  556SOL     OW 1666   0.831   2.409   1.601  0.4782 -0.6267 -0.1388
  556SOL    HW1 1667   0.848   2.484   1.666 -0.1032 -3.5717 -2.9834
  556SOL    HW2 1668   0.913   2.392   1.538  0.9926 -0.3782  0.2019
  557SOL     OW 1669   0.219   2.089   0.262 -0.8057  0.3455  0.3188
  557SOL    HW1 1670   0.122   2.066   0.239  0.3540  0.6029 -2.7909
  557SOL    HW2 1671   0.284   2.111   0.183 -3.7097  2.2004 -0.1332
  558SOL     OW 1672   2.841   2.184   0.398  0.1173 -0.0872  0.0028
  558SOL    HW1 1673   2.774   2.267   0.416  0.8927 -0.4255  0.6053
  558SOL    HW2 1674   2.806   2.141   0.311  0.4815  3.5869  1.9589
  559SOL     OW 1675   0.409   2.291   1.457  0.1500 -0.8780  0.0745
  559SOL    HW1 1676   0.311   2.316   1.425 -0.4266  1.3702  1.1444
  559SOL    HW2 1677   0.453   2.213   1.410  0.2621  1.4389 -0.4899
  560SOL     OW 1678   2.133   1.018   0.017 -0.3318  0.1783 -0.4615
  560SOL    HW1 1679   2.173   1.065   0.103 -0.2488  2.5406  3.0415
  560SOL    HW2 1680   2.193   1.043  -0.066  2.6004  0.0078 -0.6392
  561SOL     OW 1681   3.095   1.969   0.183 -0.4123 -0.0107 -0.0257
  561SOL    HW1 1682   3.047   1.895   0.240  0.4545 -1.8001 -1.0346
  561SOL    HW2 1683   3.035   1.982   0.098 -3.1827 -1.1680  1.9831
  562SOL     OW 1684   1.017   2.088   2.252 -0.0966  0.5203  0.2315
  562SOL    HW1 1685   1.007   2.180   2.295 -1.5209 -2.2809  1.5047
  562SOL    HW2 1686   0.967   2.012   2.308 -2.5778  0.8839 -0.4643
  563SOL     OW 1687   0.664   2.531   2.646 -0.5071  0.3561 -0.2065
  563SOL    HW1 1688   0.754   2.478   2.625 -0.3443 -2.9373  2.9409
  563SOL    HW2 1689   0.675   2.583   2.735 -0.8224 -0.6785 -0.6736
  564SOL     OW 1690   2.853   1.432   2.835  0.1140 -0.0989 -0.3554
  564SOL    HW1 1691   2.816   1.487   2.918  2.0116 -2.7336  1.6889
  564SOL    HW2 1692   2.930   1.479   2.791 -1.6965  1.1940  1.7761
  565SOL     OW 1693   2.489   1.953   2.662  0.2524  0.0569  0.4433
  565SOL    HW1 1694   2.478   2.040   2.605 -0.6252 -2.5015 -0.7584
  565SOL    HW2 1695   2.589   1.942   2.702 -0.5200 -1.2948 -0.2492
  566SOL     OW 1696   1.922   2.898   1.458  0.7266  0.2605  0.3982
  566SOL    HW1 1697   1.929   2.818   1.524  0.6766 -2.2915 -1.0733
  566SOL    HW2 1698   1.912   2.870   1.359 -1.4949 -1.1518  0.0285
  567SOL     OW 1699   2.351   0.030   2.305  0.0835 -0.1193  0.0029
  567SOL    HW1 1700   2.256   0.048   2.340  1.5353  1.0781  0.4254
  567SOL    HW2 1701   2.367   0.039   2.204  3.0736  0.1772 -0.4796
  568SOL     OW 1702   1.480   1.767   0.215 -0.2297  0.5660 -0.2690
  568SOL    HW1 1703   1.425   1.851   0.189  0.8107 -1.1183  0.0711
  568SOL    HW2 1704   1.577   1.791   0.249 -3.1948  0.3622  0.3435
  569SOL     OW 1705   0.264   0.544   0.849  0.4458 -0.5552 -0.4559
  569SOL    HW1 1706   0.286   0.491   0.761 -1.7912 -0.1330  0.9510
  569SOL    HW2 1707   0.168   0.533   0.884  0.2569 -2.4796 -0.2122
  570SOL     OW 1708   0.668   0.865   2.900  0.0291 -0.0762 -0.2071
  570SOL    HW1 1709   0.704   0.890   2.808  0.2994 -0.6350  2.4744
  570SOL    HW2 1710   0.649   0.949   2.960  0.4952  1.9792  0.0568
  571SOL     OW 1711   0.801   3.054   1.074 -0.1070 -0.4067  0.2381
  571SOL    HW1 1712   0.838   3.121   1.004  0.2727 -0.5645  1.4294
  571SOL    HW2 1713   0.852   2.961   1.073 -0.5112  0.3726 -2.8504
  572SOL     OW 1714   1.675   2.735   1.440  0.1116  0.3834 -0.0155
  572SOL    HW1 1715   1.644   2.702   1.344 -0.4548 -2.2506  1.3592
  572SOL    HW2 1716   1.654   2.832   1.454  0.7646  0.3999 -0.6447
  573SOL     OW 1717   3.023   0.453   1.926  0.2745 -0.0758  0.0683
  573SOL    HW1 1718   2.936   0.393   1.943 -1.5915 -2.5222  0.7911
  573SOL    HW2 1719   3.086   0.417   1.852 -0.5768 -0.5384  0.6545
  574SOL     OW 1720   0.112   1.660   1.114  0.0574  0.2147  0.4188
  574SOL    HW1 1721   0.191   1.670   1.181  1.4001 -0.5886 -1.0126
  574SOL    HW2 1722   0.075   1.754   1.087  1.3843 -0.2744  0.6984
  575SOL     OW 1723   0.826   2.272   0.994  0.1061  0.5890 -0.4816
  575SOL    HW1 1724   0.790   2.333   1.068  1.7810 -2.2322  1.3177
  575SOL    HW2 1725   0.853   2.320   0.904 -3.3798 -0.1420  0.1636
  576SOL     OW 1726   2.939   3.001   1.687  0.5827  0.9340 -0.4440
  576SOL    HW1 1727   2.842   2.984   1.649 -0.8065 -1.6592 -1.9989
  576SOL    HW2 1728   2.957   3.103   1.712 -1.6823 -2.1070 -0.8368
  577SOL     OW 1729   2.676   1.223   3.067 -0.3420  0.0707  0.1949
  577SOL    HW1 1730   2.622   1.146   3.031  3.2292 -0.7002  0.8536
  577SOL    HW2 1731   2.719   1.200   3.159  0.5294 -3.5151  1.5064
  578SOL     OW 1732   1.384   2.721   2.539 -0.3979  0.2104  0.0955
  578SOL    HW1 1733   1.281   2.730   2.517  0.5798 -0.5312  0.8474
  578SOL    HW2 1734   1.443   2.794   2.498 -1.7452  1.5674 -0.9122
  579SOL     OW 1735   0.086   2.414   0.157  0.0656  0.3572 -1.0054
  579SOL    HW1 1736   0.024   2.434   0.244  0.3575 -0.7405  2.4959
  579SOL    HW2 1737   0.186   2.404   0.183 -1.5459 -1.8437 -1.5925
  580SOL     OW 1738   0.953   2.690   0.381  0.3838  0.4154 -0.9162
  580SOL    HW1 1739   1.020   2.711   0.307  1.7537  0.3859  1.3396
  580SOL    HW2 1740   0.856   2.717   0.357  0.3545  3.8681 -0.5925
  581SOL     OW 1741   1.298   2.757   1.449  0.2788 -0.3802 -0.6385
  581SOL    HW1 1742   1.361   2.679   1.478 -0.9798  0.1083 -0.5374
  581SOL    HW2 1743   1.346   2.819   1.385  0.5611 -4.6257  0.1370
  582SOL     OW 1744   1.499   0.079   1.857 -0.4869  0.5180  0.0837
  582SOL    HW1 1745   1.532   0.151   1.927  0.0804 -1.0294 -1.6159
  582SOL    HW2 1746   1.534   0.103   1.763  1.0136 -1.1336  1.3828
  583SOL     OW 1747   2.431   2.988   0.487  0.1845  0.5358 -0.3071
  583SOL    HW1 1748   2.489   2.918   0.440  0.3437 -0.2969 -1.0366
  583SOL    HW2 1749   2.351   2.950   0.549  1.5959 -2.2849  1.0536
  584SOL     OW 1750   1.542   1.081   2.255 -0.3064 -0.2395  0.2303
  584SOL    HW1 1751   1.562   1.186   2.263 -1.3844  1.0277  0.6114
  584SOL    HW2 1752   1.631   1.025   2.264 -2.1145 -2.4877 -1.8390
  585SOL     OW 1753   2.030   2.669   2.913 -0.2320  0.3327  0.0996
  585SOL    HW1 1754   2.043   2.583   2.855  0.4555  1.2463  2.0718
  585SOL    HW2 1755   1.929   2.705   2.925 -0.3842 -1.3356  0.1111
  586SOL     OW 1756   2.922   0.390   1.566  0.0715 -0.1314 -0.2020
  586SOL    HW1 1757   2.909   0.486   1.598 -0.3878  2.1038 -0.7577
  586SOL    HW2 1758   2.836   0.334   1.580  2.7885  4.1796  0.0352
  587SOL     OW 1759   2.186   1.482   2.782  0.6882 -0.1143 -0.2413
  587SOL    HW1 1760   2.186   1.429   2.690 -1.9625  1.0972  1.0462
  587SOL    HW2 1761   2.260   1.556   2.787 -0.3157  0.4453 -2.2076
  588SOL     OW 1762   0.457   2.647   2.288 -0.3757 -0.0520  0.5754
  588SOL    HW1 1763   0.439   2.705   2.205 -1.1146  1.6319 -1.8265
  588SOL    HW2 1764   0.396   2.561   2.297 -0.6127  2.3682 -0.3525
  589SOL     OW 1765   2.167   1.393   2.512 -0.0480 -0.2978 -0.3801
  589SOL    HW1 1766   2.103   1.361   2.439  0.6462  1.0869  2.9945
  589SOL    HW2 1767   2.257   1.339   2.515  0.7932 -0.3133  0.2836
  590SOL     OW 1768   2.340   1.680   2.065  0.2014 -0.2708 -0.4283
  590SOL    HW1 1769   2.420   1.612   2.060  0.6797 -0.3068  1.5257
  590SOL    HW2 1770   2.333   1.731   2.158  0.1857 -2.4001  0.2359
  591SOL     OW 1771   1.316   2.436   0.207 -0.5847 -0.4283 -0.0094
  591SOL    HW1 1772   1.344   2.362   0.147 -1.1018  1.3698  1.7811
  591SOL    HW2 1773   1.317   2.407   0.310 -0.2731 -1.9030  2.0744
  592SOL     OW 1774   1.790   2.366   0.827  0.1874  0.0224  0.0460
  592SOL    HW1 1775   1.775   2.402   0.726 -2.8085  1.8841  1.1630
  592SOL    HW2 1776   1.894   2.363   0.849  1.8155 -1.6332 -0.4035
  593SOL     OW 1777   0.753   0.308   0.176  0.1171  0.0143 -0.1156
  593SOL    HW1 1778   0.807   0.292   0.088  1.4913 -1.7313  0.6662
  593SOL    HW2 1779   0.738   0.408   0.193  1.5502 -0.7993 -0.9628
  594SOL     OW 1780   1.045   1.809   2.661 -0.8493  0.4012 -0.2048
  594SOL    HW1 1781   1.140   1.830   2.617  2.3531  0.7607 -2.7609
  594SOL    HW2 1782   1.034   1.852   2.755 -0.6864  2.5993  1.4592
  595SOL     OW 1783   1.555   0.152   1.007  0.4671 -0.1882  0.1612
  595SOL    HW1 1784   1.613   0.064   1.005  0.6683 -1.0352  1.9249
  595SOL    HW2 1785   1.467   0.130   0.954 -1.2190  0.9881 -0.6460
  596SOL     OW 1786   0.186   1.440   2.175  0.0922  0.3108 -0.2211
  596SOL    HW1 1787   0.121   1.364   2.189  1.3905  0.8954 -1.0864
  596SOL    HW2 1788   0.193   1.509   2.254  1.4665 -1.5381 -1.7010
  597SOL     OW 1789   1.994   2.686   1.833 -0.4324  0.0205 -0.0472
  597SOL    HW1 1790   1.975   2.665   1.735  2.4781  0.3232 -0.4975
  597SOL    HW2 1791   2.080   2.633   1.867  2.4363 -0.0492  1.6805
  598SOL     OW 1792   2.485   2.779   1.263 -0.2223 -0.6216 -0.7137
  598SOL    HW1 1793   2.587   2.776   1.288 -0.6993  0.2267  1.4448
  598SOL    HW2 1794   2.447   2.686   1.231  1.0017 -1.1762  0.1989
  599SOL     OW 1795   2.892   0.279   2.526 -0.3477  0.8206  0.0594
  599SOL    HW1 1796   2.968   0.293   2.460 -1.7096 -2.4519  2.4688
  599SOL    HW2 1797   2.812   0.333   2.497  0.6114 -0.6519  0.9207
  600SOL     OW 1798   2.752   1.195   2.756 -0.2277  0.4033 -0.0105
  600SOL    HW1 1799   2.722   1.132   2.835 -1.9460  3.2394  1.6367
  600SOL    HW2 1800   2.779   1.288   2.794 -0.6692  0.0069  0.6342
  601SOL     OW 1801   3.004   1.371   1.899  0.2283 -0.0790 -0.3861
  601SOL    HW1 1802   2.922   1.413   1.845 -2.7535 -1.5011 -1.0457
  601SOL    HW2 1803   3.088   1.430   1.903 -1.1382  0.1650  0.3174
  602SOL     OW 1804   1.505   1.553   2.332 -0.2455  0.2411  0.4571
  602SOL    HW1 1805   1.430   1.535   2.402  0.0147  0.0833 -2.7647
  602SOL    HW2 1806   1.578   1.621   2.359 -1.8955  3.1865  0.3040
  603SOL     OW 1807   0.567   1.175   2.733 -0.1358 -0.1340  0.1938
  603SOL    HW1 1808   0.540   1.230   2.649  1.5972 -0.6806  0.9889
  603SOL    HW2 1809   0.577   1.075   2.716 -1.0554  0.8915 -1.2978
  604SOL     OW 1810   2.528   1.050   0.249 -0.1641 -0.6886  0.2319
  604SOL    HW1 1811   2.628   1.078   0.236 -1.1580 -2.2282  0.8686
  604SOL    HW2 1812   2.509   0.978   0.177 -0.1516  0.1593  1.9602
  605SOL     OW 1813   2.598   1.203   1.905 -0.1227  0.3652  0.2381
  605SOL    HW1 1814   2.633   1.114   1.861  1.6476  0.6912  0.9363
  605SOL    HW2 1815   2.638   1.223   2.001  0.2182 -0.4574  1.0439
  606SOL     OW 1816   1.517   2.453   2.592  0.0064  0.1504  0.4088
  606SOL    HW1 1817   1.465   2.540   2.587  1.6504 -1.0677  0.4926
  606SOL    HW2 1818   1.464   2.375   2.540 -0.1517 -1.5235  1.0983
  607SOL     OW 1819   1.290   1.583   0.301 -0.2069 -0.2308  0.1168
  607SOL    HW1 1820   1.195   1.631   0.303 -0.1127  1.2919 -1.9810
  607SOL    HW2 1821   1.371   1.645   0.273 -2.6538  0.9183 -0.2511
  608SOL     OW 1822   1.444   2.807   0.318 -0.1220  0.7828 -0.1982
  608SOL    HW1 1823   1.517   2.858   0.258  0.5033 -0.7432 -0.6827
  608SOL    HW2 1824   1.381   2.875   0.363 -0.4870  0.2543  0.1824
  609SOL     OW 1825   1.296   1.286   0.186  0.2213 -0.2244  0.1601
  609SOL    HW1 1826   1.282   1.383   0.215 -1.9616  0.2951 -1.5486
  609SOL    HW2 1827   1.240   1.267   0.097  0.0874  0.2728 -1.6435
  610SOL     OW 1828   3.078   1.250   2.157  0.3655  0.0747 -0.4819
  610SOL    HW1 1829   3.031   1.161   2.173  2.1623  0.4250  1.8490
  610SOL    HW2 1830   3.052   1.278   2.064 -2.4301 -2.4463 -0.6260
  611SOL     OW 1831   2.541   0.200   1.167 -0.1591  0.4811 -0.2587
  611SOL    HW1 1832   2.490   0.110   1.191  0.3035 -0.3640 -1.4516
  611SOL    HW2 1833   2.634   0.207   1.220  0.1173  2.2541  1.2570
  612SOL     OW 1834   0.752   2.376   1.226 -0.3773  0.6286  0.1861
  612SOL    HW1 1835   0.701   2.289   1.249  2.7945 -1.1577 -1.5117
  612SOL    HW2 1836   0.702   2.467   1.230 -2.1751  0.1006  1.3013
  613SOL     OW 1837   0.773   1.370   2.380  0.0945 -0.2665  0.0064
  613SOL    HW1 1838   0.806   1.440   2.312 -1.7804 -0.1863  0.1452
  613SOL    HW2 1839   0.760   1.280   2.331 -0.6527 -0.0438  0.4406
  614SOL     OW 1840   1.507   1.668   1.949  0.2715  0.3869 -0.3629
  614SOL    HW1 1841   1.474   1.740   1.885 -1.2179 -0.7547  4.4947
  614SOL    HW2 1842   1.602   1.678   1.986  0.3682  0.8105  1.1585
  615SOL     OW 1843   0.699   1.466   1.723  0.4735 -0.0504 -0.0681
  615SOL    HW1 1844   0.637   1.396   1.680 -1.0416  1.5890 -1.5146
  615SOL    HW2 1845   0.769   1.505   1.657 -1.5857 -2.3471  2.4416
  616SOL     OW 1846   1.127   1.609   2.197  0.1354  0.2700 -0.0041
  616SOL    HW1 1847   1.027   1.601   2.227 -1.2510  1.8293  3.2914
  616SOL    HW2 1848   1.133   1.594   2.095  0.1182 -1.9775  1.1119
  617SOL     OW 1849   2.904   1.575   1.602 -0.5519  0.3807 -0.3608
  617SOL    HW1 1850   2.833   1.519   1.660 -2.1114  0.3640 -1.6763
  617SOL    HW2 1851   2.953   1.513   1.534  2.0263  1.1703 -0.5529
  618SOL     OW 1852   1.887   2.004   1.485  0.0017 -0.5845  0.6252
  618SOL    HW1 1853   1.965   2.000   1.417  0.6894  1.1475 -1.7516
  618SOL    HW2 1854   1.859   1.909   1.520 -1.1115  1.0588 -1.7087
  619SOL     OW 1855   1.790   0.518   2.396 -0.1000  0.5455  0.1515
  619SOL    HW1 1856   1.720   0.567   2.336  0.9748  0.8438  0.6167
  619SOL    HW2 1857   1.781   0.411   2.400  1.4290  1.7669  0.1609
  620SOL     OW 1858   2.242   2.910   0.656 -0.0817 -0.3239 -0.5528
  620SOL    HW1 1859   2.148   2.949   0.652  0.5175 -1.6637  1.5288
  620SOL    HW2 1860   2.261   2.866   0.750  0.5541 -0.6229 -3.0236
  621SOL     OW 1861   2.134   1.858   1.356 -0.0514  0.4827  0.1607
  621SOL    HW1 1862   2.137   1.832   1.458 -0.4600  1.0391  4.1492
  621SOL    HW2 1863   2.162   1.780   1.294  0.7512 -0.8945 -2.0706
  622SOL     OW 1864   2.258   0.959   1.822 -0.2540 -0.5722 -0.7132
  622SOL    HW1 1865   2.319   0.876   1.836  2.5629  3.4329  0.6720
  622SOL    HW2 1866   2.168   0.949   1.861  2.0718 -1.1376 -2.6107
  623SOL     OW 1867   1.271   0.924   2.584  0.0389 -0.1972  0.0067
  623SOL    HW1 1868   1.240   0.850   2.650  0.0895 -1.3034 -1.3143
  623SOL    HW2 1869   1.198   0.923   2.506 -0.7106 -5.2412 -0.4852
  624SOL     OW 1870   0.553   0.691   3.066  0.5185 -0.3199  0.1400
  624SOL    HW1 1871   0.598   0.752   2.995 -3.3754 -2.0398  2.8392
  624SOL    HW2 1872   0.533   0.752   3.146  1.5042 -2.5351 -3.4191
  625SOL     OW 1873   2.805   1.781   0.826  0.2627  0.0121 -0.0135
  625SOL    HW1 1874   2.782   1.824   0.917  3.5370  2.9736  1.4114
  625SOL    HW2 1875   2.737   1.708   0.796 -0.2697  0.2214 -0.8085
  626SOL     OW 1876   0.411   2.827   2.059  0.3595  0.5578 -0.2957
  626SOL    HW1 1877   0.440   2.923   2.069  1.0261  0.3114 -2.0397
  626SOL    HW2 1878   0.345   2.811   1.983  2.7154 -1.9997 -1.5681
  627SOL     OW 1879   0.704   1.018   1.530 -0.6608 -0.6150  0.3295
  627SOL    HW1 1880   0.745   0.925   1.544 -3.4080  3.7940 -1.2107
  627SOL    HW2 1881   0.766   1.086   1.483 -0.0036 -0.6405 -1.0195
  628SOL     OW 1882   2.459   0.109   0.651  0.2490  0.1231  0.0950
  628SOL    HW1 1883   2.485   0.020   0.604 -2.4058 -1.3058 -2.3111
  628SOL    HW2 1884   2.355   0.108   0.661  0.9272  0.0081 -0.7168
  629SOL     OW 1885   1.995   0.958   1.946  0.2693 -0.1995  0.2796
  629SOL    HW1 1886   2.017   0.988   2.042  0.4712  0.8713 -0.3433
  629SOL    HW2 1887   1.946   1.034   1.888 -0.8850 -0.2073 -2.7551
  630SOL     OW 1888   2.853   2.229   0.757  0.3494  0.0365 -0.0222
  630SOL    HW1 1889   2.768   2.269   0.806 -2.0604 -0.0899  0.7686
  630SOL    HW2 1890   2.834   2.132   0.717  1.7593  3.0195  0.3549
  631SOL     OW 1891   3.028   0.191   2.138  0.6245  0.4123  0.4325
  631SOL    HW1 1892   3.060   0.253   2.218  3.0550  1.3765  2.6037
  631SOL    HW2 1893   3.088   0.198   2.055  1.4607 -0.6775 -0.5837
  632SOL     OW 1894   2.414   2.510   0.753  0.1174 -0.5408 -0.3821
  632SOL    HW1 1895   2.473   2.580   0.801 -0.0804 -2.5665 -0.1324
  632SOL    HW2 1896   2.371   2.538   0.660  0.2057  2.1500 -3.9693
  633SOL     OW 1897   1.574   1.247   2.713 -1.1603 -0.0480  0.4091
  633SOL    HW1 1898   1.534   1.317   2.777 -1.0291 -0.5970  1.6213
  633SOL    HW2 1899   1.509   1.235   2.633  0.3051 -0.2701 -0.5026
  634SOL     OW 1900   0.684   2.063   0.903  0.1867 -0.4761 -0.6066
  634SOL    HW1 1901   0.589   2.088   0.932  1.6704 -1.0691 -1.1022
  634SOL    HW2 1902   0.754   2.135   0.935  3.0456  2.2967 -2.2255
  635SOL     OW 1903   0.025   2.235   3.042 -0.3971  0.3447 -0.0364
  635SOL    HW1 1904  -0.074   2.246   3.010 -1.5463  1.5550 -0.8192
  635SOL    HW2 1905   0.057   2.315   3.108 -1.1559  1.8600  0.0621
  636SOL     OW 1906   2.345   2.839   1.995  0.4479 -0.3225 -0.4533
  636SOL    HW1 1907   2.323   2.941   1.988 -1.6396  1.6794 -2.4662
  636SOL    HW2 1908   2.301   2.798   2.084 -0.0976  2.7442  1.1070
  637SOL     OW 1909   2.565   0.742   2.114 -0.5300  0.0829  0.4549
  637SOL    HW1 1910   2.554   0.714   2.016  2.0724  0.9283  0.5255
  637SOL    HW2 1911   2.621   0.827   2.116  1.0604 -2.0486 -0.8165
  638SOL     OW 1912   2.422   1.938   1.394 -0.1247  0.2040 -0.3160
  638SOL    HW1 1913   2.319   1.936   1.393  1.7138  1.4083  0.9836
  638SOL    HW2 1914   2.460   1.836   1.398 -1.2174 -2.8976 -3.1827
  639SOL     OW 1915   1.285   2.231   1.571 -0.1331 -0.2103 -0.2195
  639SOL    HW1 1916   1.275   2.154   1.501 -1.7067  0.4347 -0.8389
  639SOL    HW2 1917   1.242   2.200   1.664 -0.2077 -1.0118  0.2063
  640SOL     OW 1918   0.252   1.174   1.549 -0.2444 -0.5595 -0.5432
  640SOL    HW1 1919   0.248   1.234   1.633 -3.1332  0.9364 -1.1988
  640SOL    HW2 1920   0.348   1.130   1.531  1.3510  0.6831 -0.2225
  641SOL     OW 1921   1.875   0.279   1.415 -0.3542  0.6279 -0.1298
  641SOL    HW1 1922   1.826   0.353   1.460  1.8169 -0.4125  0.1882
  641SOL    HW2 1923   1.899   0.196   1.475  2.0384 -2.3754  1.5775
  642SOL     OW 1924   2.000   0.121   0.345 -0.4465  0.0619  0.3309
  642SOL    HW1 1925   2.093   0.092   0.374 -0.6619  0.1090  1.2981
  642SOL    HW2 1926   1.954   0.169   0.429 -0.2927  1.2286 -0.6954
  643SOL     OW 1927   2.825   1.872   2.134  0.9920  0.1991 -0.3124
  643SOL    HW1 1928   2.775   1.794   2.084 -0.8037  1.4777 -0.4427
  643SOL    HW2 1929   2.836   1.960   2.078  0.5863 -1.7249 -0.2735
  644SOL     OW 1930   2.222   2.299   1.213  0.2505  0.4794 -0.7463
  644SOL    HW1 1931   2.290   2.227   1.178 -0.0836  0.1896  1.0160
  644SOL    HW2 1932   2.210   2.294   1.316  4.1376  1.4290 -3.9472
  645SOL     OW 1933   0.666   0.844   1.093  0.0280  0.5280  0.0092
  645SOL    HW1 1934   0.638   0.761   1.037 -0.3380 -2.0142  1.2715
  645SOL    HW2 1935   0.652   0.941   1.050 -0.5179  3.7429  0.7226
  646SOL     OW 1936   1.446   1.897   1.812 -0.0870  0.0073 -0.2188
  646SOL    HW1 1937   1.536   1.941   1.788 -4.3161 -0.9209  0.2653
  646SOL    HW2 1938   1.385   1.944   1.881  1.9990  0.5595 -0.6649
  647SOL     OW 1939   0.879   0.891   0.678 -0.1838 -0.0900 -0.2171
  647SOL    HW1 1940   0.934   0.929   0.758 -1.7805 -1.3766 -2.0843
  647SOL    HW2 1941   0.776   0.881   0.691  1.0463 -3.4514  1.5677
  648SOL     OW 1942   0.030   0.217   0.323 -0.3485 -0.3464  0.0642
  648SOL    HW1 1943  -0.001   0.128   0.286  2.6032  3.0470 -0.9710
  648SOL    HW2 1944   0.020   0.296   0.259 -1.2247  1.3352 -1.0126
  649SOL     OW 1945   0.010   0.043   0.961  0.7755  0.2126  0.5047
  649SOL    HW1 1946   0.099  -0.013   0.951 -0.1425  0.4410  1.2469
  649SOL    HW2 1947   0.004   0.078   1.060 -0.6828 -0.2879  2.4021
  650SOL     OW 1948   2.736   0.718   1.461 -0.3811  0.0321 -0.2019
  650SOL    HW1 1949   2.637   0.688   1.487 -0.7968 -2.9446  1.7342
  650SOL    HW2 1950   2.744   0.785   1.379  1.6139  2.2032  0.1328
  651SOL     OW 1951   0.878   1.601   1.480  0.1362 -0.2530 -0.4408
  651SOL    HW1 1952   0.933   1.673   1.534 -3.3729  0.6488 -1.5305
  651SOL    HW2 1953   0.820   1.649   1.414 -0.3541 -1.0612  1.2583
  652SOL     OW 1954   2.270   2.515   2.358 -0.7137  0.1532 -0.0879
  652SOL    HW1 1955   2.185   2.491   2.417 -1.3833 -3.3463  1.8814
  652SOL    HW2 1956   2.256   2.605   2.301  1.8373 -1.0223  1.9250
  653SOL     OW 1957   2.785   1.144   0.200  0.4653 -0.4334 -0.3696
  653SOL    HW1 1958   2.845   1.234   0.196 -0.1587  1.1864  1.6170
  653SOL    HW2 1959   2.832   1.078   0.263 -0.7444 -1.1138 -0.8717
  654SOL     OW 1960   1.196   2.224   1.227  0.2967 -0.1465 -0.6985
  654SOL    HW1 1961   1.208   2.161   1.310 -1.1920  0.5372  0.1894
  654SOL    HW2 1962   1.260   2.207   1.145  2.5537 -0.8866  0.6381
  655SOL     OW 1963   0.228   1.053   1.918 -0.5234 -0.0993 -0.1515
  655SOL    HW1 1964   0.253   0.968   1.852  2.9581 -3.3185 -2.3016
  655SOL    HW2 1965   0.311   1.107   1.947 -1.0623  1.3214  3.1510
  656SOL     OW 1966   2.479   2.407   2.587 -0.8033  0.0215 -0.3263
  656SOL    HW1 1967   2.575   2.438   2.574 -3.8387 -1.5284  0.7334
  656SOL    HW2 1968   2.424   2.430   2.503  3.1891  2.0208  0.2792
  657SOL     OW 1969   3.047   1.098   1.876  0.3112 -0.1582 -0.0208
  657SOL    HW1 1970   3.026   1.199   1.868 -0.5038 -1.3749 -1.3488
  657SOL    HW2 1971   3.148   1.079   1.889  1.1641  0.8145  2.2821
  658SOL     OW 1972   1.710   0.266   2.379  0.2291 -0.5949  0.0611
  658SOL    HW1 1973   1.693   0.184   2.448  0.4507  0.4249 -0.0286
  658SOL    HW2 1974   1.753   0.247   2.288  1.4149  0.0392  2.3849
  659SOL     OW 1975   1.404   0.625   2.824 -0.0417  0.0451 -0.3016
  659SOL    HW1 1976   1.500   0.665   2.818  0.3860  0.1919 -0.9729
  659SOL    HW2 1977   1.329   0.671   2.768  1.0413  0.5150  1.1130
  660SOL     OW 1978   1.362   0.408   1.428  0.0557 -0.7386  0.9794
  660SOL    HW1 1979   1.405   0.416   1.522 -2.4625  0.7646 -0.2443
  660SOL    HW2 1980   1.425   0.352   1.359  3.6940 -0.3320  0.0509
  661SOL     OW 1981   2.439   1.120   0.666 -0.0725  0.3230 -0.5371
  661SOL    HW1 1982   2.479   1.052   0.600 -0.1047  2.2247 -1.7025
  661SOL    HW2 1983   2.374   1.182   0.621 -1.2960 -2.9233  1.5044
  662SOL     OW 1984   1.278   0.448   1.847  0.5638 -0.3130 -0.3842
  662SOL    HW1 1985   1.223   0.359   1.860 -1.6006 -2.4660  1.8749
  662SOL    HW2 1986   1.291   0.514   1.929 -1.4602 -1.6480  3.3431
  663SOL     OW 1987   0.846   1.567   2.201 -0.7857 -0.1617 -0.5303
  663SOL    HW1 1988   0.799   1.660   2.223 -2.1180  2.1586 -0.8764
  663SOL    HW2 1989   0.792   1.520   2.117 -1.8624  1.3973 -0.3965
  664SOL     OW 1990   1.643   2.066   1.393 -0.8472  0.1309  0.4506
  664SOL    HW1 1991   1.561   2.011   1.423  0.5895  1.5828 -0.9487
  664SOL    HW2 1992   1.735   2.032   1.430 -0.2339  0.2208  1.6327
  665SOL     OW 1993   2.281   0.610   1.982 -0.4419 -0.4029  0.0651
  665SOL    HW1 1994   2.293   0.526   2.037 -2.7746  1.2363 -0.5409
  665SOL    HW2 1995   2.192   0.656   1.992  1.3172 -2.8435 -0.7839
  666SOL     OW 1996   0.505   2.287   0.468  0.8181 -0.1907 -0.2144
  666SOL    HW1 1997   0.510   2.390   0.472 -1.0788 -2.7048  1.5005
  666SOL    HW2 1998   0.471   2.250   0.560 -0.7533 -1.0073  1.0681
  667SOL     OW 1999   2.087   0.223   0.998  0.0019  0.1875 -0.5732
  667SOL    HW1 2000   2.156   0.297   1.018  0.7989  2.7485  0.1625
  667SOL    HW2 2001   2.005   0.221   1.065  1.7901 -0.0084 -0.4236
  668SOL     OW 2002   2.067   0.633   1.284  0.4813 -0.4899  0.1192
  668SOL    HW1 2003   2.106   0.561   1.218  0.8315 -1.0399 -1.3922
  668SOL    HW2 2004   2.064   0.600   1.383  0.3135  0.2517 -0.9930
  669SOL     OW 2005   3.046   2.195   0.969 -0.2406  1.0998 -0.0429
  669SOL    HW1 2006   2.980   2.198   0.889  3.8107  1.7684  1.0715
  669SOL    HW2 2007   3.008   2.212   1.063  1.2725 -0.2562  0.4793
  670SOL     OW 2008   2.798   2.355   2.017  0.4451  0.4579 -0.0869
  670SOL    HW1 2009   2.732   2.352   2.100 -0.5471  1.4393  0.2796
  670SOL    HW2 2010   2.767   2.427   1.947  1.6176 -2.3024 -0.2180
  671SOL     OW 2011   1.689   1.750   1.456 -0.2664  0.3260 -0.3213
  671SOL    HW1 2012   1.704   1.764   1.353 -0.7625  2.0000 -4.1796
  671SOL    HW2 2013   1.594   1.777   1.494 -0.2343  2.8457 -0.3045
  672SOL     OW 2014   0.394   0.684   2.446 -0.0336 -0.1481 -0.2552
  672SOL    HW1 2015   0.406   0.673   2.340 -2.8383  0.9123 -2.2693
  672SOL    HW2 2016   0.329   0.763   2.465 -0.2433 -1.1761 -1.3168
  673SOL     OW 2017   0.130   1.250   1.078 -0.2402  0.1527  0.3199
  673SOL    HW1 2018   0.139   1.294   1.175 -0.6940 -0.2997  0.8636
  673SOL    HW2 2019   0.222   1.225   1.038 -1.6922  1.4624  1.8968
  674SOL     OW 2020   1.604   2.926   0.151 -0.1895  0.8565  0.1029
  674SOL    HW1 2021   1.590   3.022   0.114  1.4870 -0.1133  1.3355
  674SOL    HW2 2022   1.673   2.877   0.093 -0.2185  0.3484 -0.2403
  675SOL     OW 2023   1.733   0.872   2.338 -0.2427  0.1406  0.5169
  675SOL    HW1 2024   1.832   0.848   2.321 -0.3540  0.6208 -2.4460
  675SOL    HW2 2025   1.659   0.819   2.285 -1.2638 -0.3693  0.2453
  676SOL     OW 2026   2.537   1.513   2.015  0.3805 -0.6569 -0.3431
  676SOL    HW1 2027   2.527   1.485   1.914 -0.2812 -1.1823 -0.7327
  676SOL    HW2 2028   2.580   1.432   2.066 -3.3234 -2.4099 -2.3702
  677SOL     OW 2029   1.946   0.556   0.928  0.0265 -0.0218  0.3297
  677SOL    HW1 2030   1.922   0.652   0.951  1.7505 -1.1276  0.0415
  677SOL    HW2 2031   1.888   0.496   0.988 -1.5513 -0.5597  2.1747
  678SOL     OW 2032   0.077   0.746   1.667 -0.1982 -0.2207  0.5358
  678SOL    HW1 2033   0.174   0.775   1.697  0.1421 -1.5557  0.7860
  678SOL    HW2 2034   0.003   0.781   1.734  0.4842 -2.4612  0.9871
  679SOL     OW 2035   2.456   1.164   1.144  0.3487 -0.1440  0.2562
  679SOL    HW1 2036   2.359   1.193   1.126  1.3426  0.7759  0.4152
  679SOL    HW2 2037   2.479   1.070   1.113  1.2783  2.0794 -2.3874
  680SOL     OW 2038   2.858   0.647   1.692 -0.4027  0.0845 -0.2004
  680SOL    HW1 2039   2.825   0.688   1.606  2.9479 -1.4400  0.9204
  680SOL    HW2 2040   2.918   0.711   1.745  2.9446 -4.3083  0.3925
  681SOL     OW 2041   3.056   0.158   1.638  0.1943  0.0555 -0.5281
  681SOL    HW1 2042   3.119   0.141   1.557 -1.2994 -0.1093 -0.1864
  681SOL    HW2 2043   2.998   0.244   1.621 -1.4762  1.0808 -0.1593
  682SOL     OW 2044   0.722   3.083   1.346  0.2351 -0.0538  0.3004
  682SOL    HW1 2045   0.649   3.025   1.384  1.1851 -1.3111 -0.6783
  682SOL    HW2 2046   0.740   3.048   1.252 -0.7973 -1.9479  2.2017
  683SOL     OW 2047   1.423   0.218   2.232  0.0576 -0.5181 -0.0671
  683SOL    HW1 2048   1.437   0.282   2.312  0.1202 -1.8018  0.9682
  683SOL    HW2 2049   1.483   0.241   2.152 -2.5842  1.1523  1.8032
  684SOL     OW 2050   1.450   2.138   0.489  1.0327  0.0193  0.3197
  684SOL    HW1 2051   1.507   2.092   0.563 -0.7454  0.2017  1.8532
  684SOL    HW2 2052   1.370   2.076   0.460  0.7975 -0.6763  0.7060
  685SOL     OW 2053   2.131   1.912   2.001 -0.5702  0.3326  0.5353
  685SOL    HW1 2054   2.177   1.999   1.971  0.5488  0.1313 -0.4473
  685SOL    HW2 2055   2.194   1.844   2.049 -0.3632 -1.8242 -0.0272
  686SOL     OW 2056   1.524   1.714   2.752 -0.6547 -0.0377 -0.6443
  686SOL    HW1 2057   1.499   1.611   2.767 -2.7793 -1.5113  1.3620
  686SOL    HW2 2058   1.562   1.756   2.838  3.7286  1.2371 -0.5757
  687SOL     OW 2059   1.331   2.498   1.912 -0.4391 -0.0742  0.0396
  687SOL    HW1 2060   1.369   2.427   1.846 -2.8377 -0.4532  2.7782
  687SOL    HW2 2061   1.393   2.500   1.999  0.2345  3.6164  1.2204
  688SOL     OW 2062   2.042   1.527   1.577 -0.6662  0.1909 -0.1684
  688SOL    HW1 2063   2.143   1.549   1.575 -0.2909 -0.7638  1.8834
  688SOL    HW2 2064   1.996   1.484   1.489 -1.2221 -0.9114 -0.3783
  689SOL     OW 2065   2.482   1.072   2.739  0.0831  0.4314  0.5695
  689SOL    HW1 2066   2.382   1.049   2.768  0.9664 -3.1966  0.9067
  689SOL    HW2 2067   2.555   1.025   2.795  0.7660 -0.9596  0.5283
  690SOL     OW 2068   2.248   2.788   3.022  0.0904  0.2779 -0.1014
  690SOL    HW1 2069   2.160   2.743   2.980 -1.8032 -2.2655 -0.2690
  690SOL    HW2 2070   2.220   2.831   3.110  0.3282  1.8386 -0.8189
  691SOL     OW 2071   2.603   0.448   2.132  0.0557  0.0214 -0.3593
  691SOL    HW1 2072   2.671   0.394   2.074  0.4886  1.5598 -0.3455
  691SOL    HW2 2073   2.620   0.549   2.135 -1.5857 -1.0051 -1.1489
  692SOL     OW 2074   2.726   1.234   0.654  0.0351 -0.7417 -0.0322
  692SOL    HW1 2075   2.632   1.207   0.688  1.3767  0.0717  0.9536
  692SOL    HW2 2076   2.770   1.306   0.714 -0.1976  3.1202  0.3272
  693SOL     OW 2077   2.812   2.953   0.635  0.0073 -0.5959  0.1754
  693SOL    HW1 2078   2.849   3.041   0.675  1.2244  0.1850  0.2857
  693SOL    HW2 2079   2.771   2.958   0.542  1.9182 -1.2827  0.8520
  694SOL     OW 2080   2.406   2.165   0.060 -0.5443  0.2166 -0.2006
  694SOL    HW1 2081   2.382   2.261   0.090  2.1017  2.1410  1.2886
  694SOL    HW2 2082   2.332   2.117   0.010  4.6503  1.8062  0.2144
  695SOL     OW 2083   0.540   2.898   1.475  0.0998  0.4475  0.1265
  695SOL    HW1 2084   0.467   2.824   1.464 -1.3608  0.2081 -0.8116
  695SOL    HW2 2085   0.529   2.944   1.564 -1.2739 -0.9195 -0.8649
  696SOL     OW 2086   2.730   1.988   0.657 -0.1635  0.1900 -0.0369
  696SOL    HW1 2087   2.751   1.922   0.734  0.0105 -0.0344 -0.5418
  696SOL    HW2 2088   2.710   1.943   0.567 -0.4478 -0.7768  2.8782
  697SOL     OW 2089   1.687   2.042   1.743  0.3516  0.4717  0.4570
  697SOL    HW1 2090   1.761   2.023   1.811  1.4969 -0.4159  0.6496
  697SOL    HW2 2091   1.722   2.068   1.648  0.9975 -1.8974 -0.6983
  698SOL     OW 2092   2.940   0.338   2.799  0.1862 -0.0495 -0.5427
  698SOL    HW1 2093   2.925   0.316   2.698  0.5144  2.4018  0.3363
  698SOL    HW2 2094   3.029   0.289   2.833  2.3443 -1.9013  1.7164
  699SOL     OW 2095   1.539   0.125   2.928  0.2494 -0.3823 -0.4119
  699SOL    HW1 2096   1.490   0.047   2.884 -0.1790 -0.7051 -0.0420
  699SOL    HW2 2097   1.600   0.176   2.862  1.9701 -0.0933  1.2533
  700SOL     OW 2098   1.002   2.432   1.358 -0.1563  0.2369 -0.5439
  700SOL    HW1 2099   1.092   2.382   1.338 -0.4027  1.3000  1.3871
  700SOL    HW2 2100   0.923   2.404   1.298 -3.0672 -0.4543  0.2746
  701SOL     OW 2101   1.817   2.862   0.008 -0.0180  0.0593 -0.5683
  701SOL    HW1 2102   1.849   2.785   0.066  0.2885  2.1652 -0.2060
  701SOL    HW2 2103   1.853   2.956   0.041  1.1718  1.5465 -3.4142
  702SOL     OW 2104   2.094   1.352   1.812  0.4067 -0.2367 -0.2240
  702SOL    HW1 2105   2.175   1.289   1.793 -1.3038  0.1950 -0.5789
  702SOL    HW2 2106   2.074   1.408   1.727  0.2261  3.4336 -1.3187
  703SOL     OW 2107   1.962   0.906   1.479  0.0158  0.2448 -0.2271
  703SOL    HW1 2108   1.980   0.818   1.529  0.9314  0.2707 -2.9879
  703SOL    HW2 2109   2.025   0.985   1.511 -1.5915  2.6024  1.2494
  704SOL     OW 2110   0.278   2.066   1.792 -0.4201 -0.2917 -0.2430
  704SOL    HW1 2111   0.320   1.983   1.835 -0.3957  1.6544 -1.6310
  704SOL    HW2 2112   0.363   2.129   1.776  2.5538 -2.8004 -0.5436
  705SOL     OW 2113   2.550   1.420   0.865  0.2059 -0.1729  0.4519
  705SOL    HW1 2114   2.461   1.403   0.918 -1.9999  0.7192 -1.6159
  705SOL    HW2 2115   2.640   1.398   0.908  0.0962  0.3368  0.8265
  706SOL     OW 2116   0.636   1.763   1.883 -0.6784  0.5793 -0.5282
  706SOL    HW1 2117   0.652   1.661   1.884  1.9717 -1.5429 -0.3548
  706SOL    HW2 2118   0.724   1.804   1.917 -1.2813  0.8662 -1.1822
  707SOL     OW 2119   2.343   1.215   1.817  0.2417 -0.0332 -1.3156
  707SOL    HW1 2120   2.444   1.229   1.853  2.2661 -1.0711 -1.0840
  707SOL    HW2 2121   2.325   1.113   1.795 -1.1092 -2.0738 -3.0884
  708SOL     OW 2122   3.040   0.516   3.042  0.0410 -0.3166  0.7785
  708SOL    HW1 2123   3.067   0.562   2.960 -1.6352 -0.4316  0.4627
  708SOL    HW2 2124   3.071   0.420   3.036 -0.7751  0.4489 -1.2069
  709SOL     OW 2125   1.759   1.831   0.212  0.1344 -0.0520  0.5419
  709SOL    HW1 2126   1.802   1.911   0.258  0.2318 -1.6016 -1.3984
  709SOL    HW2 2127   1.791   1.817   0.110 -0.5720  0.0335 -0.5099
  710SOL     OW 2128   1.763   1.672   2.455 -0.5380  0.1655  0.0817
  710SOL    HW1 2129   1.790   1.662   2.353  0.0608  2.0008 -1.6412
  710SOL    HW2 2130   1.818   1.626   2.532  3.4463  0.1431 -0.3137
  711SOL     OW 2131   2.620   2.924   0.971 -0.2868  0.5330  0.0613
  711SOL    HW1 2132   2.593   3.008   0.919 -1.1683  0.6305 -2.0122
  711SOL    HW2 2133   2.722   2.924   0.994  1.3635  0.5120  0.7499
  712SOL     OW 2134   1.504   2.301   1.743  0.2339  0.5421  0.0674
  712SOL    HW1 2135   1.565   2.218   1.770  1.7041 -0.3568  2.5579
  712SOL    HW2 2136   1.428   2.283   1.672  2.0993  0.9728 -1.7842
  713SOL     OW 2137   2.844   1.317   2.517 -0.1467 -0.3393  0.0735
  713SOL    HW1 2138   2.872   1.262   2.438 -2.6043  1.1988 -0.2210
  713SOL    HW2 2139   2.796   1.261   2.591 -1.5525 -1.6921  1.9830
  714SOL     OW 2140   2.672   0.439   2.457  0.1831 -0.1352  0.1472
  714SOL    HW1 2141   2.612   0.395   2.529  0.3195  0.5303 -0.0192
  714SOL    HW2 2142   2.646   0.415   2.361 -1.0186  0.6457  0.3715
  715SOL     OW 2143   1.660   2.067   1.115  0.1386 -0.6518 -0.1838
  715SOL    HW1 2144   1.598   2.141   1.075 -1.4466  1.0404  2.0410
  715SOL    HW2 2145   1.678   2.086   1.215 -2.3165 -0.1777 -1.5393
  716SOL     OW 2146   1.182   0.207   1.447  0.0073 -0.1798  0.1412
  716SOL    HW1 2147   1.101   0.236   1.395  1.7890 -0.5723  2.7043
  716SOL    HW2 2148   1.244   0.288   1.463 -1.3927 -0.3183  1.2307
  717SOL     OW 2149   1.044   0.558   1.596 -0.3616 -0.9114  0.2054
  717SOL    HW1 2150   1.136   0.576   1.647  1.6241 -0.2569  0.0048
  717SOL    HW2 2151   1.062   0.549   1.493  1.4449 -0.2041  0.0187
  718SOL     OW 2152   0.657   1.107   1.004 -0.2325  0.1058  0.1538
  718SOL    HW1 2153   0.661   1.148   0.908  1.3558 -0.8550  1.7468
  718SOL    HW2 2154   0.726   1.153   1.068 -2.0196  1.4263  0.5934
  719SOL     OW 2155   0.681   1.812   2.254  0.2625 -0.3515  0.3295
  719SOL    HW1 2156   0.749   1.838   2.327  0.2415 -1.3912  0.7276
  719SOL    HW2 2157   0.591   1.876   2.241  0.1557  0.6494 -2.5704
  720SOL     OW 2158   2.274   1.157   0.216 -0.0386  0.4238 -0.4075
  720SOL    HW1 2159   2.375   1.137   0.232 -0.0308  2.9486  1.3523
  720SOL    HW2 2160   2.234   1.171   0.310  0.5284  1.2134  0.0307
  721SOL     OW 2161   2.239   0.004   2.006 -0.0532 -0.4754  0.4000
  721SOL    HW1 2162   2.240   0.085   1.944  3.0221 -0.5001  0.3332
  721SOL    HW2 2163   2.153   0.000   2.065  0.1275  0.4790  0.3335
  722SOL     OW 2164   2.409   1.672   0.485  0.4723  0.7215  0.1013
  722SOL    HW1 2165   2.433   1.604   0.408  1.9558  1.1566  1.0237
  722SOL    HW2 2166   2.311   1.657   0.522 -0.2381  0.3565  1.7788
  723SOL     OW 2167   2.618   2.857   1.899  0.1477  0.2969  0.2171
  723SOL    HW1 2168   2.662   2.857   1.994  0.7317  0.6270 -1.6829
  723SOL    HW2 2169   2.518   2.864   1.907 -0.5003  1.8336 -1.5851
  724SOL     OW 2170   0.301   2.409   2.356  0.6308 -0.2090 -0.4697
  724SOL    HW1 2171   0.207   2.449   2.384 -1.2017 -0.3276  1.5244
  724SOL    HW2 2172   0.369   2.391   2.432 -1.1826 -0.6124 -1.1410
  725SOL     OW 2173   2.306   2.788   1.469  0.2576  0.3455 -0.0069
  725SOL    HW1 2174   2.362   2.781   1.376  2.3765 -1.6403 -4.5371
  725SOL    HW2 2175   2.298   2.695   1.518  0.9587 -2.5624 -0.5231
  726SOL     OW 2176   2.400   2.238   0.800 -0.1263 -0.3331 -0.5863
  726SOL    HW1 2177   2.393   2.336   0.764  0.0359 -0.8754  0.6083
  726SOL    HW2 2178   2.365   2.167   0.735 -1.5916  0.6902 -0.4633
  727SOL     OW 2179   0.245   3.094   0.153 -0.0946  0.5175 -0.2441
  727SOL    HW1 2180   0.261   2.997   0.127 -0.2603  1.7824 -0.6246
  727SOL    HW2 2181   0.259   3.160   0.077 -0.9447 -1.7491 -0.3993
  728SOL     OW 2182   2.826   0.654   1.079 -0.1916  0.5764  0.2354
  728SOL    HW1 2183   2.751   0.638   1.006 -1.8717  0.5453 -0.4936
  728SOL    HW2 2184   2.822   0.579   1.150  0.7601  0.3839 -0.6278
  729SOL     OW 2185   2.973   2.469   0.726  0.2390 -0.0734 -0.1981
  729SOL    HW1 2186   2.916   2.378   0.707 -3.1581 -1.7042 -0.9437
  729SOL    HW2 2187   3.075   2.449   0.740  0.9199 -1.4611 -0.1216
  730SOL     OW 2188   2.623   0.566   0.853  0.1190  0.1446 -0.7735
  730SOL    HW1 2189   2.576   0.648   0.809 -1.4218  2.8872  1.0926
  730SOL    HW2 2190   2.692   0.529   0.789  2.3158 -0.5031  0.4507
  731SOL     OW 2191   0.127   2.126   2.472  0.5490 -0.2704 -0.0387
  731SOL    HW1 2192   0.129   2.146   2.575  2.8103  1.0099  2.3453
  731SOL    HW2 2193   0.071   2.192   2.426  3.8201 -0.7531  0.5266
  732SOL     OW 2194   1.152   2.844   2.025  0.0753  0.0527 -0.0267
  732SOL    HW1 2195   1.165   2.795   2.117 -3.6276  0.6738 -0.0036
  732SOL    HW2 2196   1.181   2.785   1.945 -0.4595  0.1744  1.5688
  733SOL     OW 2197   3.033   0.690   2.125 -0.0988  0.0255  0.4845
  733SOL    HW1 2198   3.123   0.743   2.115 -1.3764 -3.1008 -2.9928
  733SOL    HW2 2199   3.031   0.602   2.069 -1.0842 -0.1296  2.1715
  734SOL     OW 2200   1.379   0.375   2.689 -0.3012 -0.2466 -0.2485
  734SOL    HW1 2201   1.384   0.459   2.750  0.7383  0.2014  2.5583
  734SOL    HW2 2202   1.302   0.312   2.723  1.7333 -0.1108 -2.2123
  735SOL     OW 2203   2.805   2.629   2.291 -0.3094 -0.0867 -0.0556
  735SOL    HW1 2204   2.720   2.657   2.236  0.5083  1.5905  0.5419
  735SOL    HW2 2205   2.894   2.621   2.232  1.7743 -0.2009 -1.1122
  736SOL     OW 2206   0.803   0.380   2.587  0.1634 -0.0546 -0.0261
  736SOL    HW1 2207   0.730   0.453   2.574 -0.6613 -0.2067  2.0911
  736SOL    HW2 2208   0.839   0.333   2.496  0.6616 -1.4170 -0.5077
  737SOL     OW 2209   2.681   0.467   2.870 -0.4511 -0.0860  0.4789
  737SOL    HW1 2210   2.640   0.427   2.959  1.6754 -2.0105  0.0534
  737SOL    HW2 2211   2.783   0.436   2.860 -0.9918 -0.5940  1.3156
  738SOL     OW 2212   1.658   1.148   3.042  0.6608 -0.5362  0.7795
  738SOL    HW1 2213   1.761   1.126   3.028  3.7696  1.4751  2.2109
  738SOL    HW2 2214   1.597   1.070   3.018  0.2102 -0.5491  1.0581
  739SOL     OW 2215   1.791   0.534   0.686  0.6257 -0.2735  0.2317
  739SOL    HW1 2216   1.858   0.553   0.760  1.3141 -1.9705  1.4189
  739SOL    HW2 2217   1.824   0.452   0.630 -1.6844 -0.7155 -0.2527
  740SOL     OW 2218   1.900   2.039   2.138 -0.1487  0.2027 -0.3109
  740SOL    HW1 2219   1.972   1.986   2.083 -0.6223 -1.2708 -0.1713
  740SOL    HW2 2220   1.810   2.042   2.096  0.7582  1.0449  0.8928
  741SOL     OW 2221   2.508   0.060   2.595  0.2213 -0.8403  0.4206
  741SOL    HW1 2222   2.611   0.061   2.580  1.0217  2.0250  0.0564
  741SOL    HW2 2223   2.455   0.118   2.529 -0.0622 -2.2893  1.7460
  742SOL     OW 2224   2.252   1.396   0.066  0.6114 -0.4155  0.8163
  742SOL    HW1 2225   2.175   1.458   0.096  2.8602 -0.0497  2.4556
  742SOL    HW2 2226   2.262   1.311   0.121 -2.0312  2.2547 -1.6563
  743SOL     OW 2227   1.747   0.647   2.643  0.2902  0.0825  0.0549
  743SOL    HW1 2228   1.756   0.616   2.545 -0.8679  0.1618  0.2638
  743SOL    HW2 2229   1.670   0.717   2.660 -0.3716 -0.4718 -2.7994
  744SOL     OW 2230   2.673   2.082   0.073  0.2372  0.0727  0.9493
  744SOL    HW1 2231   2.573   2.112   0.077  0.3694  0.6730 -0.3885
  744SOL    HW2 2232   2.693   1.997   0.135  4.7770 -2.2555 -0.6454
  745SOL     OW 2233   2.194   2.729   2.202 -0.0396  0.1978 -0.3998
  745SOL    HW1 2234   2.100   2.729   2.156 -0.0439  1.3589  0.0088
  745SOL    HW2 2235   2.194   2.790   2.291  1.4003  2.3773  3.0779
  746SOL     OW 2236   3.071   2.605   1.823  0.3016  0.0519 -0.4840
  746SOL    HW1 2237   3.168   2.598   1.785 -0.9404  1.8969  0.1171
  746SOL    HW2 2238   3.044   2.705   1.840 -0.1817 -1.4640  0.4911
  747SOL     OW 2239   0.026   1.789   1.680  0.0496 -0.1398 -0.3186
  747SOL    HW1 2240  -0.036   1.726   1.630  1.3385  1.1956 -0.9698
  747SOL    HW2 2241   0.080   1.849   1.614  0.5360 -0.9550 -0.0220
  748SOL     OW 2242   1.737   2.737   2.866  0.2647 -0.3652 -0.1949
  748SOL    HW1 2243   1.759   2.809   2.943  0.3033 -0.6042 -1.2705
  748SOL    HW2 2244   1.635   2.719   2.864  2.0630 -2.3411  0.2761
  749SOL     OW 2245   1.301   0.062   0.899  0.3938 -0.0782 -0.1351
  749SOL    HW1 2246   1.241  -0.021   0.920 -1.4718 -0.6291  0.6440
  749SOL    HW2 2247   1.308   0.084   0.796  0.4414  0.5437  0.0917
  750SOL     OW 2248   2.266   0.245   1.875 -0.0636 -0.1561  0.2127
  750SOL    HW1 2249   2.304   0.302   1.796  0.6349  0.7904 -0.5288
  750SOL    HW2 2250   2.288   0.287   1.965 -0.6287 -1.7821  2.0775
  751SOL     OW 2251   0.851   2.256   2.903  0.1333  0.1073  0.2189
  751SOL    HW1 2252   0.939   2.239   2.958  0.2643  1.4640  0.1617
  751SOL    HW2 2253   0.784   2.180   2.915  2.2904  1.7872  0.9563
  752SOL     OW 2254   1.263   0.924   1.518 -0.0388 -0.6169 -0.5755
  752SOL    HW1 2255   1.336   0.976   1.460  3.0891 -1.1160  0.3487
  752SOL    HW2 2256   1.299   0.835   1.561 -1.1853 -1.0182  0.9118
  753SOL     OW 2257   0.923   2.613   1.763 -0.6060  0.0158 -0.0641
  753SOL    HW1 2258   0.971   2.663   1.685 -1.3340  0.7511 -1.9320
  753SOL    HW2 2259   0.850   2.672   1.804  0.3301  1.4484 -1.8558
  754SOL     OW 2260   1.138   1.324   3.030 -0.1272  0.0931  0.5762
  754SOL    HW1 2261   1.155   1.257   2.954 -0.5314  0.8654  1.5347
  754SOL    HW2 2262   1.135   1.424   2.995 -1.9170  1.5950  0.4862
  755SOL     OW 2263   2.019   0.525   2.237 -0.1235  0.0276  0.5533
  755SOL    HW1 2264   2.083   0.453   2.278  1.0910 -1.2164  1.6950
  755SOL    HW2 2265   1.926   0.525   2.286  1.9707 -0.3252  1.8782
  756SOL     OW 2266   2.635   0.961   2.925  0.0216  0.0172 -0.6008
  756SOL    HW1 2267   2.709   0.890   2.904 -1.2300 -0.7206  2.0482
  756SOL    HW2 2268   2.564   0.924   2.996 -0.8155  1.3608 -0.3932
  757SOL     OW 2269   0.157   0.477   1.717  0.2538 -0.3799  0.0908
  757SOL    HW1 2270   0.142   0.578   1.729  1.0690 -1.9368  2.1178
  757SOL    HW2 2271   0.204   0.451   1.628 -0.0517  0.2901 -4.5443
  758SOL     OW 2272   2.503   0.066   1.514  0.3381  0.3135 -0.3901
  758SOL    HW1 2273   2.417   0.068   1.571 -1.3343 -2.9824  0.5618
  758SOL    HW2 2274   2.490   0.030   1.417  0.7438  1.3831 -0.2681
  759SOL     OW 2275   1.665   0.086   0.080 -0.0073 -0.0696  0.2254
  759SOL    HW1 2276   1.642   0.143  -0.003 -2.0544  2.4424  0.0415
  759SOL    HW2 2277   1.766   0.054   0.072  1.0037 -0.3851 -0.1937
  760SOL     OW 2278   2.737   1.941   2.768 -0.3030  0.7113 -0.4508
  760SOL    HW1 2279   2.760   1.841   2.738 -3.1759 -0.5869  1.6467
  760SOL    HW2 2280   2.804   2.003   2.722 -0.6578 -2.1816 -2.5881
  761SOL     OW 2281   1.899   1.742   1.623 -0.1136 -0.8545  0.1711
  761SOL    HW1 2282   1.947   1.652   1.618  0.6150 -1.5218  1.5435
  761SOL    HW2 2283   1.818   1.751   1.558  0.5253 -1.3480  0.5169
  762SOL     OW 2284   0.516   2.392   0.991 -0.0782 -0.1355 -0.4363
  762SOL    HW1 2285   0.531   2.420   0.893  0.9886 -0.8906  2.6553
  762SOL    HW2 2286   0.520   2.472   1.057  0.5469 -0.4727  1.8374
  763SOL     OW 2287   2.012   1.584   2.967 -0.5799  0.0054 -0.0509
  763SOL    HW1 2288   2.078   1.530   2.912 -1.3240 -1.5225  1.0140
  763SOL    HW2 2289   1.955   1.518   3.021  1.7330  0.3481  2.8237
  764SOL     OW 2290   0.690   0.591   0.842 -0.3142 -0.2147 -0.2073
  764SOL    HW1 2291   0.688   0.537   0.754  1.2736  0.6113  0.2553
  764SOL    HW2 2292   0.782   0.588   0.894  0.9507 -0.5580 -1.5209
  765SOL     OW 2293   0.637   0.229   0.799 -0.5323  0.2874  0.1914
  765SOL    HW1 2294   0.716   0.271   0.746  1.0559  0.0097  0.5407
  765SOL    HW2 2295   0.649   0.232   0.900  0.5494  0.3021 -1.1249
  766SOL     OW 2296   3.027   1.973   3.022  0.1340 -0.5278 -0.7124
  766SOL    HW1 2297   2.944   1.992   2.970  2.3320 -0.8423 -1.1720
  766SOL    HW2 2298   3.074   2.062   3.052  0.7189 -0.5636 -1.7520
  767SOL     OW 2299   2.765   1.569   0.483 -0.7972  0.1350  0.0083
  767SOL    HW1 2300   2.679   1.587   0.539  0.6543  0.0243  0.7702
  767SOL    HW2 2301   2.847   1.610   0.523 -1.6996 -1.1754 -2.8531
  768SOL     OW 2302   1.052   0.301   0.271  0.4498 -0.5218  0.1330
  768SOL    HW1 2303   0.956   0.263   0.244  0.2466  0.0457 -1.8296
  768SOL    HW2 2304   1.126   0.229   0.267 -2.7992  1.4728  1.8816
  769SOL     OW 2305   1.306   1.833   2.251  1.0490 -0.8327  0.1033
  769SOL    HW1 2306   1.389   1.787   2.281  0.0877  1.1350 -1.0405
  769SOL    HW2 2307   1.223   1.767   2.229 -0.7815 -1.1691  0.2162
  770SOL     OW 2308   0.183   1.106   2.303  0.4016  0.5928 -0.2600
  770SOL    HW1 2309   0.163   1.161   2.394 -0.0895 -0.2679  1.5752
  770SOL    HW2 2310   0.125   1.143   2.228 -0.3001  1.3110 -0.8071
  771SOL     OW 2311   2.964   2.837   1.908 -0.1034  0.2207 -0.1250
  771SOL    HW1 2312   2.946   2.889   1.824 -1.3932 -0.7920 -0.4304
  771SOL    HW2 2313   2.937   2.892   1.989  2.0760 -2.8080 -1.4959
  772SOL     OW 2314   2.128   0.069   3.006  0.2598  0.1166 -0.0110
  772SOL    HW1 2315   2.191  -0.011   3.008  1.1831  0.1967  0.3722
  772SOL    HW2 2316   2.165   0.160   3.035 -0.7839 -0.8997  0.1662
  773SOL     OW 2317   0.731   2.141   2.480 -0.0075  0.2338  0.2571
  773SOL    HW1 2318   0.674   2.158   2.397 -1.9093 -3.7665 -0.0120
  773SOL    HW2 2319   0.680   2.127   2.568  1.7677 -1.1060 -0.5735
  774SOL     OW 2320   1.975   0.019   2.670 -0.6025 -0.0702 -0.0398
  774SOL    HW1 2321   1.952   0.102   2.723  0.0503 -2.2921 -0.3998
  774SOL    HW2 2322   2.057  -0.041   2.706  0.9353 -0.8088  0.2139
  775SOL     OW 2323   2.510   2.907   2.355 -0.1586  0.3346 -0.7137
  775SOL    HW1 2324   2.461   2.999   2.335 -3.3687 -0.2696  0.4959
  775SOL    HW2 2325   2.580   2.917   2.434 -1.2706 -0.5065  0.0442
  776SOL     OW 2326   3.105   1.147   0.256  0.0724 -0.1406 -0.1845
  776SOL    HW1 2327   3.050   1.195   0.181 -1.2471 -0.5814  0.5264
  776SOL    HW2 2328   3.064   1.175   0.348 -0.7957 -3.3193 -1.2119
  777SOL     OW 2329   0.328   2.708   0.406 -0.2207  0.0356  0.2181
  777SOL    HW1 2330   0.231   2.674   0.389  0.1176  3.8572 -0.8749
  777SOL    HW2 2331   0.326   2.810   0.424 -1.7001  0.4427 -0.7918
  778SOL     OW 2332   1.334   1.986   0.168 -0.3267  0.1726  0.3294
  778SOL    HW1 2333   1.279   2.005   0.254 -0.7263 -0.4007 -0.6679
  778SOL    HW2 2334   1.366   2.073   0.125  0.2705 -0.8219  0.3861
  779SOL     OW 2335   0.161   0.807   0.499 -0.0878 -0.4485 -0.2361
  779SOL    HW1 2336   0.110   0.719   0.474  1.4584 -2.0861 -1.6746
  779SOL    HW2 2337   0.115   0.857   0.578 -0.8095  2.0170  0.6892
  780SOL     OW 2338   0.035   0.316   2.360 -0.0563  0.1950 -0.3824
  780SOL    HW1 2339  -0.005   0.413   2.375  2.5024 -2.4775  2.7842
  780SOL    HW2 2340   0.127   0.318   2.311  1.0452 -0.9724  1.4960
  781SOL     OW 2341   0.553   1.785   1.606  0.1552  0.1940  0.0630
  781SOL    HW1 2342   0.574   1.779   1.707  0.4811 -0.1048 -2.6268
  781SOL    HW2 2343   0.521   1.693   1.573 -0.3776  0.5204  0.8589
  782SOL     OW 2344   2.642   0.081   0.893 -0.4140 -0.7629  0.1258
  782SOL    HW1 2345   2.577   0.088   0.811 -2.3407 -0.0050  0.4833
  782SOL    HW2 2346   2.609   0.124   0.982 -1.4059  0.7941  1.9356
  783SOL     OW 2347   2.821   0.637   2.549  0.1789 -0.5355  0.3932
  783SOL    HW1 2348   2.790   0.678   2.636  0.6424  0.6973  0.2404
  783SOL    HW2 2349   2.748   0.575   2.506  2.6537  1.8052 -2.6847
  784SOL     OW 2350   1.416   2.210   0.033  0.8581  0.4708 -0.6905
  784SOL    HW1 2351   1.519   2.235   0.056  0.1683  1.1079  0.3597
  784SOL    HW2 2352   1.389   2.217  -0.064 -0.3261 -1.3987 -0.3569
  785SOL     OW 2353   2.184   0.318   0.022  0.1512  0.1989 -0.1956
  785SOL    HW1 2354   2.100   0.322   0.087 -2.4700 -2.0907  2.0730
  785SOL    HW2 2355   2.208   0.415  -0.008  1.4351  1.5920 -1.2373
  786SOL     OW 2356   2.079   2.194   2.236  0.3117  0.2290  0.3195
  786SOL    HW1 2357   1.996   2.136   2.213  0.9562 -1.2252  0.6710
  786SOL    HW2 2358   2.158   2.138   2.266  1.2194 -0.5733  0.0790
  787SOL     OW 2359   1.366   0.632   0.733 -1.0380  0.3281 -0.5518
  787SOL    HW1 2360   1.310   0.707   0.685  1.0332  0.6903 -0.0266
  787SOL    HW2 2361   1.427   0.564   0.670  0.4678 -3.9073 -1.1195
  788SOL     OW 2362   1.230   0.479   2.974  0.2749  0.1367  0.3694
  788SOL    HW1 2363   1.140   0.523   2.938 -0.8358 -0.7148 -0.0537
  788SOL    HW2 2364   1.313   0.516   2.924 -4.0437  2.1317  0.9743
  789SOL     OW 2365   2.637   0.066   1.882 -0.1097  0.4158  0.5326
  789SOL    HW1 2366   2.552   0.129   1.872 -1.0489  0.7540  1.8441
  789SOL    HW2 2367   2.621  -0.024   1.921  0.4398  2.6928 -0.3946
  790SOL     OW 2368   2.634   2.670   0.837  0.3623 -0.1664  0.1813
  790SOL    HW1 2369   2.710   2.673   0.765  3.1736 -0.3846 -0.5249
  790SOL    HW2 2370   2.632   2.754   0.893  3.8598 -1.0534  1.2734
  791SOL     OW 2371   1.931   1.178   0.212  0.0043 -0.1343  0.2033
  791SOL    HW1 2372   1.838   1.132   0.223 -2.0169 -2.1732  1.3176
  791SOL    HW2 2373   2.010   1.109   0.211 -1.1146 -0.3647 -0.7868
  792SOL     OW 2374   0.454   1.962   2.247 -0.2545  0.0860  0.5113
  792SOL    HW1 2375   0.480   2.061   2.241 -2.5104  0.0906  1.6352
  792SOL    HW2 2376   0.378   1.943   2.311 -1.3018 -1.4948 -0.5297
  793SOL     OW 2377   2.092   1.526   2.034  0.2416  0.3173 -0.6766
  793SOL    HW1 2378   2.184   1.581   2.047  0.4415  3.1459 -0.6487
  793SOL    HW2 2379   2.103   1.452   1.962 -3.7447  1.8647  1.8600
  794SOL     OW 2380   0.570   1.544   2.473  0.2340  0.1097  0.1691
  794SOL    HW1 2381   0.634   1.479   2.418  1.4395 -2.1667 -0.1797
  794SOL    HW2 2382   0.482   1.572   2.428 -0.3215 -3.3231 -1.1653
  795SOL     OW 2383   2.442   2.345   1.854 -0.8727  0.5100  0.0004
  795SOL    HW1 2384   2.422   2.383   1.946  1.0196  0.0325  1.0305
  795SOL    HW2 2385   2.394   2.249   1.833  0.8934 -1.1947  1.9479
  796SOL     OW 2386   3.034   1.132   2.721  0.6564  0.5232 -0.0443
  796SOL    HW1 2387   2.935   1.160   2.742 -0.5035 -0.2338 -1.0994
  796SOL    HW2 2388   3.098   1.143   2.800  0.9756  1.2252  0.5871
  797SOL     OW 2389   0.683   0.600   1.336  0.3434 -0.1633 -0.1852
  797SOL    HW1 2390   0.766   0.652   1.374  1.6349 -3.8074  1.6199
  797SOL    HW2 2391   0.614   0.654   1.278  1.3376 -1.9466  0.7539
  798SOL     OW 2392   1.214   0.518   0.909  0.3332  0.1793  0.2680
  798SOL    HW1 2393   1.218   0.563   1.004  1.3402  2.0344  1.7168
  798SOL    HW2 2394   1.283   0.568   0.843 -0.0489 -0.2910 -0.4068
  799SOL     OW 2395   1.793   2.711   1.038 -0.0638  0.0244  0.1961
  799SOL    HW1 2396   1.828   2.616   1.068 -0.3998 -1.1136  2.5738
  799SOL    HW2 2397   1.780   2.718   0.933 -1.3648  2.9058  0.1102
  800SOL     OW 2398   2.993   0.833   1.860 -0.2037  0.5373 -0.1043
  800SOL    HW1 2399   3.006   0.937   1.872 -1.9081 -1.1331  0.9152
  800SOL    HW2 2400   2.968   0.791   1.953 -1.2251  0.7603 -2.1409
  801SOL     OW 2401   1.972   2.230   0.105  0.4970  0.2653  0.3807
  801SOL    HW1 2402   1.939   2.272   0.015  1.0598  3.0742  0.0938
  801SOL    HW2 2403   2.057   2.172   0.097  0.2203  1.2714 -1.1249
  802SOL     OW 2404   0.664   0.660   2.540  0.7793  0.0171 -0.0969
  802SOL    HW1 2405   0.724   0.663   2.455 -0.8408 -0.2474  0.1459
  802SOL    HW2 2406   0.562   0.673   2.520  2.2060  0.4513  0.5791
  803SOL     OW 2407   0.956   0.115   0.889 -0.1108 -0.3343  0.1149
  803SOL    HW1 2408   1.022   0.184   0.935  2.2377  2.6664 -0.8191
  803SOL    HW2 2409   0.930   0.148   0.795 -0.3075  0.3599 -2.3369
  804SOL     OW 2410   0.326   0.028   2.178  0.0344 -0.3944 -0.1128
  804SOL    HW1 2411   0.300   0.129   2.201  1.2997  0.1124 -2.5098
  804SOL    HW2 2412   0.250  -0.012   2.115 -0.3040  0.9927  0.8678
  805SOL     OW 2413   2.395   0.359   0.337  0.3133 -0.5923  0.3826
  805SOL    HW1 2414   2.473   0.359   0.402 -1.1083 -0.6991 -2.0716
  805SOL    HW2 2415   2.416   0.320   0.245 -0.3571  1.1650  1.6921
  806SOL     OW 2416   0.625   2.662   1.951  0.4278  0.2990  0.8755
  806SOL    HW1 2417   0.575   2.733   2.008  0.6480 -0.9378 -0.7403
  806SOL    HW2 2418   0.617   2.681   1.852 -0.4669 -1.1926  0.6608
  807SOL     OW 2419   2.530   0.907   0.505  0.7299 -0.1176  0.3167
  807SOL    HW1 2420   2.625   0.871   0.513  1.0187  0.7890  0.9727
  807SOL    HW2 2421   2.518   0.966   0.416 -1.8010  1.2396 -0.2613
  808SOL     OW 2422   0.701   2.025   2.923  0.1893  0.0827 -0.6499
  808SOL    HW1 2423   0.661   2.037   3.018 -1.7086 -1.7947  0.9217
  808SOL    HW2 2424   0.704   1.923   2.900 -0.9145 -2.3912 -0.5686
  809SOL     OW 2425   2.560   2.003   1.907 -0.0041  0.0928 -0.3939
  809SOL    HW1 2426   2.654   2.046   1.922 -0.9752 -2.6706  0.2966
  809SOL    HW2 2427   2.531   1.983   1.808 -3.8911 -1.1500  0.5128
  810SOL     OW 2428   2.187   1.173   0.476  0.0116  0.6804  0.3412
  810SOL    HW1 2429   2.187   1.108   0.557  0.9320  0.1100 -1.8704
  810SOL    HW2 2430   2.150   1.263   0.502  0.1521 -1.9336 -1.1414
  811SOL     OW 2431   1.246   2.513   1.144  0.0510  0.0884  0.6213
  811SOL    HW1 2432   1.282   2.421   1.141 -1.7992  3.0521  0.8856
  811SOL    HW2 2433   1.227   2.545   1.237  0.5713 -0.4079 -3.9625
  812SOL     OW 2434   1.454   0.753   1.994 -0.4083  0.6500  0.1203
  812SOL    HW1 2435   1.365   0.791   2.029  0.9751 -3.8253 -1.5287
  812SOL    HW2 2436   1.499   0.816   1.928  0.2914  0.2932  2.5429
  813SOL     OW 2437   1.642   2.051   2.398 -0.9258 -0.0099  0.0569
  813SOL    HW1 2438   1.742   2.028   2.408 -0.1448  2.0356 -0.8076
  813SOL    HW2 2439   1.607   2.041   2.304 -0.8558 -1.3522  0.0125
  814SOL     OW 2440   3.002   1.708   2.904 -0.6552  0.0930 -0.0019
  814SOL    HW1 2441   3.067   1.636   2.947 -0.0654 -0.1003 -1.9203
  814SOL    HW2 2442   3.031   1.803   2.925 -3.4090 -0.0869 -0.1394
  815SOL     OW 2443   2.170   2.861   2.711 -0.0130  0.4790  0.0901
  815SOL    HW1 2444   2.133   2.817   2.801 -0.3531 -1.0413  1.5480
  815SOL    HW2 2445   2.266   2.900   2.726 -0.7541  1.5835  0.3519
  816SOL     OW 2446   1.479   0.409   1.675  0.1119 -0.1347  0.0444
  816SOL    HW1 2447   1.525   0.319   1.649  2.4859 -0.4183  0.3549
  816SOL    HW2 2448   1.404   0.402   1.746  0.1340  2.4510 -2.1287
  817SOL     OW 2449   0.365   1.259   2.555  0.2705 -0.4312 -0.0320
  817SOL    HW1 2450   0.261   1.249   2.559 -2.7808 -0.1317 -0.4171
  817SOL    HW2 2451   0.398   1.345   2.505 -1.2024  0.9347 -1.6232
  818SOL     OW 2452   2.006   0.793   0.450 -0.2193 -0.8129 -0.1681
  818SOL    HW1 2453   2.110   0.806   0.463  3.0424 -2.4910  0.5075
  818SOL    HW2 2454   1.948   0.842   0.523  0.1473  1.6592  0.0559
  819SOL     OW 2455   2.787   2.906   2.999  0.0695 -0.4247  0.6089
  819SOL    HW1 2456   2.864   2.837   2.990 -0.5530  0.8916 -1.0497
  819SOL    HW2 2457   2.703   2.893   2.948  3.7230  0.4098  4.0777
  820SOL     OW 2458   1.212   1.088   0.566 -0.3894  0.4630  0.0043
  820SOL    HW1 2459   1.282   1.168   0.579  4.9649  1.7380  1.4629
  820SOL    HW2 2460   1.192   1.029   0.652 -1.1702 -0.3354  3.9198
  821SOL     OW 2461   0.015   1.237   0.739 -0.2883 -0.2077  0.6554
  821SOL    HW1 2462  -0.007   1.267   0.837  2.1815 -0.4602 -0.5185
  821SOL    HW2 2463   0.082   1.293   0.684  0.1310 -0.6535 -1.4539
  822SOL     OW 2464   2.563   1.772   2.460  0.3678  0.2264 -0.3273
  822SOL    HW1 2465   2.548   1.802   2.560  1.3633 -0.2591  0.7328
  822SOL    HW2 2466   2.479   1.793   2.403  0.2345 -0.1177 -0.4116
  823SOL     OW 2467   1.988   0.921   1.192  0.2862 -0.4334  0.0320
  823SOL    HW1 2468   2.004   0.888   1.292 -0.3165 -0.5461  3.9724
  823SOL    HW2 2469   1.955   0.843   1.128  1.1133 -1.7358  0.7137
  824SOL     OW 2470   0.200   1.829   2.844  0.4883 -0.2176  0.4621
  824SOL    HW1 2471   0.215   1.818   2.944  0.7040  1.0846 -1.4230
  824SOL    HW2 2472   0.281   1.867   2.794  1.3227 -2.3353  0.6087
  825SOL     OW 2473   1.271   1.033   0.286 -0.1051 -0.4080 -0.2900
  825SOL    HW1 2474   1.273   1.136   0.254 -1.4502  1.0096 -0.8999
  825SOL    HW2 2475   1.247   1.033   0.386 -2.1840  1.3490 -1.1668
  826SOL     OW 2476   1.972   0.661   1.596 -0.1213  0.1841 -0.0087
  826SOL    HW1 2477   2.055   0.604   1.631  2.4529  1.8221  1.7975
  826SOL    HW2 2478   1.896   0.592   1.568 -1.2999 -0.5593  1.3509
  827SOL     OW 2479   0.731   1.202   0.514  0.1186  0.4250  0.3462
  827SOL    HW1 2480   0.811   1.167   0.455  0.7763  0.8563 -1.6905
  827SOL    HW2 2481   0.653   1.135   0.515 -1.8483  0.4825 -0.7388
  828SOL     OW 2482   2.716   0.181   1.621  0.0266 -0.8088  0.4752
  828SOL    HW1 2483   2.627   0.155   1.574 -1.2589  2.1470  3.0537
  828SOL    HW2 2484   2.726   0.130   1.713  0.1201 -0.9601 -0.6302
  829SOL     OW 2485   2.892   2.367   2.880  0.2460  0.1172 -0.0619
  829SOL    HW1 2486   2.806   2.310   2.904 -0.7897 -1.1270 -2.7791
  829SOL    HW2 2487   2.909   2.447   2.941  0.7264 -0.4768  0.5693
  830SOL     OW 2488   2.962   0.928   2.965  0.7089  0.4085 -0.0583
  830SOL    HW1 2489   2.987   1.028   2.971 -1.3430  0.0922 -2.1047
  830SOL    HW2 2490   2.927   0.881   3.051 -0.6405 -0.5600 -0.7918
  831SOL     OW 2491   0.017   0.583   0.461 -0.4886  0.3990 -0.3718
  831SOL    HW1 2492   0.001   0.548   0.558 -1.2316  0.4628 -0.4217
  831SOL    HW2 2493   0.019   0.509   0.388 -1.5424 -0.2867  0.5396
  832SOL     OW 2494   1.781   0.728   0.033  0.4388 -0.2807 -0.0956
  832SOL    HW1 2495   1.694   0.769  -0.002  1.1384  1.8129  1.1181
  832SOL    HW2 2496   1.765   0.627   0.046  0.4631  1.0019  1.5917
  833SOL     OW 2497   2.353   2.122   0.558  0.6530 -0.3103 -0.5661
  833SOL    HW1 2498   2.254   2.091   0.548 -0.2467  3.5897 -0.8459
  833SOL    HW2 2499   2.426   2.061   0.518 -0.3288  1.1117  0.3501
  834SOL     OW 2500   0.080   0.071   0.573 -0.4064  0.2839  0.0108
  834SOL    HW1 2501   0.153  -0.005   0.575  0.8691  0.2584 -0.3196
  834SOL    HW2 2502   0.079   0.126   0.486 -2.2338 -1.8771  2.4484
  835SOL     OW 2503   2.492   1.692   1.118  0.3960 -0.0601 -0.4325
  835SOL    HW1 2504   2.565   1.627   1.145 -2.1114  1.0564 -1.8739
  835SOL    HW2 2505   2.522   1.780   1.069 -1.5906  2.6906 -0.6222
  836SOL     OW 2506   1.543   0.852   2.610  0.2903  0.6107 -0.1006
  836SOL    HW1 2507   1.453   0.880   2.567 -0.3201 -1.1463  0.7610
  836SOL    HW2 2508   1.620   0.871   2.552  0.4720 -0.3121 -0.4565
  837SOL     OW 2509   1.687   0.073   0.561 -0.7059 -0.0987  0.7615
  837SOL    HW1 2510   1.635   0.150   0.605  0.7808 -0.7071 -2.4306
  837SOL    HW2 2511   1.672   0.078   0.459  0.3317 -1.4973  1.2214
  838SOL     OW 2512   1.164   1.450   2.697  0.5129 -0.4772  0.1810
  838SOL    HW1 2513   1.123   1.486   2.785  1.6049 -0.1987  0.1079
  838SOL    HW2 2514   1.118   1.376   2.639  0.7013 -1.4670  0.1166
  839SOL     OW 2515   1.661   0.404   0.952  0.3844 -0.3278 -0.0047
  839SOL    HW1 2516   1.598   0.484   0.970 -0.4361 -1.9017  0.8322
  839SOL    HW2 2517   1.624   0.305   0.975  2.3631  1.5759 -1.0820
  840SOL     OW 2518   2.670   2.953   1.633 -0.4084  0.0778  0.4265
  840SOL    HW1 2519   2.611   3.026   1.587  1.4382  2.0808  0.7234
  840SOL    HW2 2520   2.647   2.932   1.731 -1.8127 -2.0326 -1.2384
  841SOL     OW 2521   1.553   0.837   3.076 -0.5707  0.0129 -0.0075
  841SOL    HW1 2522   1.464   0.841   3.138  0.8196 -1.4662  1.0072
  841SOL    HW2 2523   1.530   0.876   2.979  1.8508 -0.9093  0.2960
  842SOL     OW 2524   0.818   1.621   1.012 -0.6513 -0.0340  0.0355
  842SOL    HW1 2525   0.776   1.707   1.047  1.6226 -1.1107  1.2485
  842SOL    HW2 2526   0.752   1.565   0.949 -0.9591  0.9593 -0.5446
  843SOL     OW 2527   0.148   0.086   1.433 -0.8624  0.1422  0.3140
  843SOL    HW1 2528   0.225   0.136   1.478  0.3850  0.9328 -1.3968
  843SOL    HW2 2529   0.158  -0.017   1.431 -2.5439  1.7474  0.9225
  844SOL     OW 2530   0.706   2.443   0.208  0.1948  0.0765  0.0161
  844SOL    HW1 2531   0.660   2.457   0.300 -0.4631  0.8311 -0.5840
  844SOL    HW2 2532   0.644   2.404   0.134 -1.5684 -0.1389  0.7924
  845SOL     OW 2533   1.760   3.096   1.278 -0.4430  0.3369  0.3282
  845SOL    HW1 2534   1.728   3.086   1.376 -0.1483  0.0822  0.7595
  845SOL    HW2 2535   1.714   3.170   1.229  0.9701 -2.1442  2.2246
  846SOL     OW 2536   1.681   3.008   0.893  0.3308  0.0895 -0.1075
  846SOL    HW1 2537   1.714   3.069   0.816  0.0693 -2.3932 -3.4362
  846SOL    HW2 2538   1.748   2.931   0.921  2.1277 -3.4545  1.5647
  847SOL     OW 2539   2.076   1.590   0.162  0.0797 -0.0144  0.6480
  847SOL    HW1 2540   2.034   1.547   0.246 -1.2480 -1.2004  2.2732
  847SOL    HW2 2541   2.006   1.612   0.089  1.7569 -2.0326  2.0521
  848SOL     OW 2542   2.484   0.795   2.645 -0.2196 -0.0465 -0.0376
  848SOL    HW1 2543   2.480   0.900   2.640 -2.6876 -0.7268  1.8626
  848SOL    HW2 2544   2.398   0.762   2.596  1.6085  3.5509 -2.0739
  849SOL     OW 2545   2.373   0.844   2.284 -0.2195 -0.4150 -0.2740
  849SOL    HW1 2546   2.448   0.790   2.231 -0.5900  2.9646 -0.7611
  849SOL    HW2 2547   2.315   0.781   2.343 -1.1812 -3.2317  0.9958
  850SOL     OW 2548   1.500   0.251   1.256  0.0105  0.1232 -0.1912
  850SOL    HW1 2549   1.531   0.211   1.167 -1.6640 -0.1104  1.3918
  850SOL    HW2 2550   1.465   0.183   1.327  0.4758  0.6723  1.2675
  851SOL     OW 2551   0.445   1.667   0.607  0.1478  0.2524  0.0354
  851SOL    HW1 2552   0.439   1.766   0.648  1.6235 -0.9129  2.6885
  851SOL    HW2 2553   0.546   1.637   0.609 -1.9603 -1.4097  3.3352
  852SOL     OW 2554   0.845   2.181   1.786  0.1913 -0.4060  0.5661
  852SOL    HW1 2555   0.842   2.283   1.754 -0.2957  2.5448 -2.2229
  852SOL    HW2 2556   0.763   2.149   1.843  2.7850 -0.2245 -1.7313
  853SOL     OW 2557   2.536   1.506   2.593 -0.4989 -0.3804  0.3384
  853SOL    HW1 2558   2.502   1.413   2.564  2.3137  2.5449  0.2137
  853SOL    HW2 2559   2.533   1.582   2.518  0.4755 -1.1694  2.1811
  854SOL     OW 2560   2.458   1.453   1.740 -0.5940  0.4594 -0.0669
  854SOL    HW1 2561   2.488   1.413   1.648 -0.9472 -0.2481  1.3925
  854SOL    HW2 2562   2.388   1.388   1.778  0.7537  1.4979 -1.7695
  855SOL     OW 2563   2.040   2.332   0.958  0.0469  0.2505 -0.2466
  855SOL    HW1 2564   2.080   2.424   0.921 -2.1650  0.8660 -0.3153
  855SOL    HW2 2565   2.106   2.290   1.032 -1.3950 -0.2208 -0.1822
  856SOL     OW 2566   1.417   1.450   0.831 -0.0615  0.3594 -0.0985
  856SOL    HW1 2567   1.470   1.531   0.797 -0.6855 -0.4011 -1.6685
  856SOL    HW2 2568   1.355   1.475   0.914 -2.2194 -2.2755  0.8263
  857SOL     OW 2569   2.923   2.513   1.066 -0.0259 -0.2076 -0.3957
  857SOL    HW1 2570   2.827   2.487   1.089 -0.0149  0.0350  0.4813
  857SOL    HW2 2571   2.984   2.436   1.042  0.3400  1.8666 -1.0528
  858SOL     OW 2572   2.274   2.136   1.777  0.4935 -0.0696 -0.0535
  858SOL    HW1 2573   2.183   2.129   1.735  3.7666 -0.5801  0.3598
  858SOL    HW2 2574   2.337   2.078   1.719  0.4872 -0.5785  0.4190
  859SOL     OW 2575   2.445   0.414   1.018 -0.5788 -0.0147  0.6746
  859SOL    HW1 2576   2.519   0.487   0.996  1.5582  2.4094  3.4611
  859SOL    HW2 2577   2.479   0.349   1.091  1.6339  2.4953 -0.4255
  860SOL     OW 2578   1.863   2.785   0.537 -0.5051 -0.4483  0.0689
  860SOL    HW1 2579   1.887   2.756   0.442  2.2831  0.8817  2.0861
  860SOL    HW2 2580   1.883   2.886   0.549 -1.6180 -0.0214 -2.2885
  861SOL     OW 2581   0.987   2.573   2.801 -0.0842  0.4186  0.2108
  861SOL    HW1 2582   1.065   2.638   2.797 -3.7294  1.2207 -0.4822
  861SOL    HW2 2583   0.966   2.538   2.897 -1.3428 -1.1918 -2.1084
  862SOL     OW 2584   2.966   2.589   1.539 -0.0612 -0.9985  0.0238
  862SOL    HW1 2585   3.022   2.556   1.620 -0.0262 -1.9615 -0.9172
  862SOL    HW2 2586   2.880   2.638   1.568  2.6523 -0.2558 -0.8813
  863SOL     OW 2587   1.873   2.652   0.231  0.4996 -0.5436 -0.6185
  863SOL    HW1 2588   1.951   2.586   0.222  2.6727 -0.6953 -0.3076
  863SOL    HW2 2589   1.782   2.607   0.239  1.7074  3.4161  2.5280
  864SOL     OW 2590   1.920   1.117   2.984  0.1279 -0.4845  0.3654
  864SOL    HW1 2591   1.955   1.095   2.888 -2.6987  0.2226  2.1200
  864SOL    HW2 2592   1.983   1.083   3.059 -1.6631 -0.6341  2.3186
  865SOL     OW 2593   2.157   1.695   0.589  0.5805  0.2279 -0.1133
  865SOL    HW1 2594   2.203   1.739   0.670 -0.8204 -3.3184  1.1229
  865SOL    HW2 2595   2.134   1.599   0.612  1.8408 -0.2770  0.7407
  866SOL     OW 2596   2.903   2.824   1.022  0.8317 -0.0378  0.4835
  866SOL    HW1 2597   2.968   2.850   0.943 -0.2257 -1.4888 -1.8061
  866SOL    HW2 2598   2.894   2.722   1.040 -0.3544 -2.5151  1.6584
  867SOL     OW 2599   0.421   1.370   0.829  0.0953 -0.1732 -0.0087
  867SOL    HW1 2600   0.432   1.271   0.803 -0.2468  1.7407  1.8977
  867SOL    HW2 2601   0.349   1.415   0.773 -1.0047  0.5108 -1.2479
  868SOL     OW 2602   0.842   1.884   2.009  0.2732  0.0876  0.0219
  868SOL    HW1 2603   0.803   1.823   2.088  0.2814  0.4482 -0.2815
  868SOL    HW2 2604   0.796   1.981   2.010 -2.1162  2.1629  3.3772
  869SOL     OW 2605   2.540   1.973   1.646  0.2330 -0.5450 -0.1558
  869SOL    HW1 2606   2.639   1.944   1.650  0.0741 -1.1668 -1.8937
  869SOL    HW2 2607   2.490   1.959   1.555  0.5995 -2.0731 -3.4832
  870SOL     OW 2608   2.388   2.536   1.234 -0.5554  0.0708  0.3555
  870SOL    HW1 2609   2.322   2.454   1.226 -1.1335  0.2508  0.8563
  870SOL    HW2 2610   2.483   2.514   1.278  1.3704 -0.3604  3.8316
  871SOL     OW 2611   3.025   1.993   0.530 -0.6878  0.2242  0.0456
  871SOL    HW1 2612   2.951   2.052   0.488 -0.4024 -1.0839 -0.6946
  871SOL    HW2 2613   3.004   1.895   0.514 -2.6528 -1.2492  0.1114
  872SOL     OW 2614   2.190   0.514   1.699  0.3156  0.3247 -0.1334
  872SOL    HW1 2615   2.136   0.482   1.786  0.1293  1.0599  3.2441
  872SOL    HW2 2616   2.292   0.482   1.696 -0.4999  0.2682  0.7376
  873SOL     OW 2617   1.713   2.076   2.863 -1.0228  0.2206  0.2716
  873SOL    HW1 2618   1.682   2.172   2.889  2.0810 -1.0626 -1.5127
  873SOL    HW2 2619   1.662   2.053   2.774 -1.3159  2.2236  2.6056
  874SOL     OW 2620   0.608   2.523   0.749  0.0078  0.3390  0.2791
  874SOL    HW1 2621   0.600   2.622   0.785 -1.7934 -2.1621 -1.2674
  874SOL    HW2 2622   0.711   2.501   0.758  0.9649 -2.1699  0.2055
  875SOL     OW 2623   2.337   1.555   1.455  0.1629 -0.3988 -0.4851
  875SOL    HW1 2624   2.423   1.608   1.482 -0.4550  1.8137  1.0457
  875SOL    HW2 2625   2.296   1.587   1.362  2.0767  0.9807 -0.0616
  876SOL     OW 2626   0.135   2.231   2.743  0.1656  0.1828  0.1550
  876SOL    HW1 2627   0.161   2.161   2.812  3.1661  1.5534  0.2229
  876SOL    HW2 2628   0.182   2.315   2.763  0.8142 -1.1818 -1.4784
  877SOL     OW 2629   2.789   2.666   0.609  0.6041  0.2668  0.2822
  877SOL    HW1 2630   2.824   2.761   0.623 -1.0467  0.4727 -3.7453
  877SOL    HW2 2631   2.849   2.598   0.655 -0.1651  3.0937 -3.3265
  878SOL     OW 2632   2.748   1.516   2.290  0.1550 -0.0302  0.8105
  878SOL    HW1 2633   2.739   1.618   2.301  0.2023 -1.8633 -0.3201
  878SOL    HW2 2634   2.815   1.478   2.358 -2.5829 -0.6763  0.4371
  879SOL     OW 2635   2.432   3.051   1.267  0.1427 -0.3389  0.3815
  879SOL    HW1 2636   2.477   2.954   1.254  0.0924 -0.9968 -0.8623
  879SOL    HW2 2637   2.334   3.056   1.231  0.1998  0.4907 -2.5414
  880SOL     OW 2638   0.579   0.505   2.230 -0.0536 -0.1148  0.1152
  880SOL    HW1 2639   0.563   0.457   2.315  0.4893 -0.8812 -2.4670
  880SOL    HW2 2640   0.592   0.433   2.157  0.6447 -0.5837  1.2432
  881SOL     OW 2641   0.853   0.080   0.459  0.0578  0.0466  0.4345
  881SOL    HW1 2642   0.941   0.025   0.453  0.2741 -1.0321  1.4633
  881SOL    HW2 2643   0.802   0.086   0.367  1.0169 -0.0135  0.0725
  882SOL     OW 2644   2.759   1.785   1.681 -0.1967 -0.4927 -0.4535
  882SOL    HW1 2645   2.823   1.707   1.652 -0.4513  2.8617 -0.5136
  882SOL    HW2 2646   2.713   1.762   1.775 -1.8773  0.6526  1.4521
  883SOL     OW 2647   0.929   0.597   0.979  0.2078 -0.2027  0.1965
  883SOL    HW1 2648   0.923   0.679   1.043  2.4001  0.3944 -0.6127
  883SOL    HW2 2649   1.016   0.589   0.921 -0.7299 -0.8938 -0.9344
  884SOL     OW 2650   1.181   1.909   1.067 -0.3528  0.4348 -0.1996
  884SOL    HW1 2651   1.172   1.877   0.970 -2.3466  1.9160  1.2459
  884SOL    HW2 2652   1.093   1.949   1.101 -0.5735  1.0549 -0.1898
  885SOL     OW 2653   2.328   1.791   2.317  0.0902  0.8445 -0.4000
  885SOL    HW1 2654   2.264   1.727   2.374 -3.4873 -2.4049 -0.7624
  885SOL    HW2 2655   2.299   1.892   2.331 -0.4274  1.7814  0.3990
  886SOL     OW 2656   2.691   0.456   1.809 -0.0383 -0.3572  0.3225
  886SOL    HW1 2657   2.748   0.401   1.870 -0.6775  1.2883 -0.9253
  886SOL    HW2 2658   2.746   0.528   1.761  0.7798  0.4235 -2.3545
  887SOL     OW 2659   0.191   2.078   1.314  0.2922 -0.5794 -0.3402
  887SOL    HW1 2660   0.148   2.021   1.240  0.3076  0.5451 -0.2918
  887SOL    HW2 2661   0.175   2.181   1.311  0.7039 -0.3810  3.7255
  888SOL     OW 2662   0.587   1.298   1.508  0.1654 -0.4860 -0.6415
  888SOL    HW1 2663   0.608   1.332   1.414  1.1473 -1.9359 -0.8809
  888SOL    HW2 2664   0.575   1.194   1.501 -1.5410  1.3717  1.1212
  889SOL     OW 2665   0.840   2.409   2.133 -0.1071 -0.4544 -0.2458
  889SOL    HW1 2666   0.752   2.402   2.078 -0.1416  1.6792  0.1760
  889SOL    HW2 2667   0.914   2.437   2.068 -2.9694 -0.6823 -0.8751
  890SOL     OW 2668   2.341   2.433   0.150 -0.2066  0.0363  0.4357
  890SOL    HW1 2669   2.355   2.501   0.073  1.4344  0.8089  2.8662
  890SOL    HW2 2670   2.249   2.443   0.197 -0.4813  1.0541  3.3396
  891SOL     OW 2671   2.580   1.640   0.714 -0.0304  0.6043  0.1108
  891SOL    HW1 2672   2.556   1.555   0.770 -1.0255 -0.5657  0.2914
  891SOL    HW2 2673   2.500   1.669   0.654 -0.2050  2.3738 -0.7681
  892SOL     OW 2674   0.303   0.293   2.234  0.5545 -0.2657  0.2004
  892SOL    HW1 2675   0.295   0.363   2.151  0.4628  1.4253 -2.8625
  892SOL    HW2 2676   0.372   0.336   2.300  1.1450  1.1173  1.0880
  893SOL     OW 2677   1.617   0.243   2.685 -0.0458  0.1368 -0.4899
  893SOL    HW1 2678   1.689   0.308   2.726  0.4558  0.1328  3.1325
  893SOL    HW2 2679   1.520   0.281   2.672  0.0100 -4.3366  0.1241
  894SOL     OW 2680   2.176   2.005   0.078 -0.0168  0.8317  0.0267
  894SOL    HW1 2681   2.138   1.955  -0.010  0.8555 -0.1495 -2.5547
  894SOL    HW2 2682   2.222   1.934   0.140  1.1511 -0.8624 -0.7626
  895SOL     OW 2683   2.852   1.414   0.821 -0.3689 -0.1938  0.0974
  895SOL    HW1 2684   2.880   1.363   0.905 -1.3652  1.6616 -0.2803
  895SOL    HW2 2685   2.923   1.486   0.786 -1.1808 -0.6066  0.3542
  896SOL     OW 2686   1.690   1.790   1.191 -0.2483  0.7135 -0.2695
  896SOL    HW1 2687   1.774   1.822   1.138 -0.3553 -0.3064  0.9968
  896SOL    HW2 2688   1.618   1.865   1.190 -0.9916  1.0978 -1.7761
  897SOL     OW 2689   0.331   0.516   3.047  0.1099  0.2226 -0.1852
  897SOL    HW1 2690   0.270   0.546   2.966 -1.4911  1.5799 -0.6454
  897SOL    HW2 2691   0.424   0.562   3.047 -0.9787 -0.7655  1.0442
  898SOL     OW 2692   0.541   2.910   1.029  0.0479  0.6513 -0.5283
  898SOL    HW1 2693   0.479   2.962   1.096  0.3058  0.0571  0.8129
  898SOL    HW2 2694   0.644   2.933   1.037  1.5023  1.1649  0.1342
  899SOL     OW 2695   2.723   0.927   1.285 -0.2062 -0.3565 -0.3579
  899SOL    HW1 2696   2.698   0.894   1.193  2.7739 -0.7869  2.2244
  899SOL    HW2 2697   2.783   1.008   1.274  1.1802  0.4452  1.3207
  900SOL     OW 2698   0.974   2.323   2.370  0.8373  0.0571  0.2146
  900SOL    HW1 2699   0.905   2.336   2.294 -1.0134 -0.3945  0.5141
  900SOL    HW2 2700   0.939   2.374   2.454  0.4060  1.0110 -0.3071
  901SOL     OW 2701   1.999   2.484   1.362  0.4895 -0.1793 -0.4418
  901SOL    HW1 2702   1.968   2.467   1.263 -0.1050 -0.7979 -0.5034
  901SOL    HW2 2703   2.052   2.405   1.396 -0.2117 -1.1798  1.3794
  902SOL     OW 2704   2.579   1.694   1.482 -0.4801  0.3501  0.5535
  902SOL    HW1 2705   2.656   1.721   1.547  4.1726  0.0369 -1.1306
  902SOL    HW2 2706   2.613   1.637   1.403  0.0411 -1.2387  0.2319
  903SOL     OW 2707   0.285   2.423   2.007 -0.0838  0.5327 -0.3104
  903SOL    HW1 2708   0.206   2.380   2.053 -1.3419  0.6291  1.7956
  903SOL    HW2 2709   0.256   2.473   1.924 -0.3390 -0.8308  2.4064
  904SOL     OW 2710   2.019   0.774   2.600 -0.1804 -0.4925  0.0119
  904SOL    HW1 2711   1.944   0.702   2.633  1.3136 -0.6984  0.5510
  904SOL    HW2 2712   2.012   0.794   2.496  0.5792  1.0534 -1.9171
  905SOL     OW 2713   2.787   0.026   2.532  0.0299  0.1073 -0.1885
  905SOL    HW1 2714   2.857  -0.045   2.573 -1.5912  1.2177  0.0202
  905SOL    HW2 2715   2.833   0.119   2.522 -0.9440  0.0382 -1.1771
  906SOL     OW 2716   0.132   1.826   1.947  0.0089  0.4024 -0.1249
  906SOL    HW1 2717   0.094   1.841   1.852  1.1667  1.5737 -0.4169
  906SOL    HW2 2718   0.218   1.880   1.956 -2.6003  0.2013 -0.7186
  907SOL     OW 2719   0.196   2.395   1.050 -0.3632 -0.4754  0.1282
  907SOL    HW1 2720   0.245   2.481   1.023  0.2832 -3.3476  0.1631
  907SOL    HW2 2721   0.182   2.330   0.973 -0.5229  0.1740 -0.6874
  908SOL     OW 2722   2.697   2.850   0.386  0.2892 -0.6181  0.2068
  908SOL    HW1 2723   2.678   2.871   0.287  1.4168 -0.7792 -1.2249
  908SOL    HW2 2724   2.675   2.754   0.417 -1.0007 -0.9621 -2.2143
  909SOL     OW 2725   0.702   0.902   2.628 -0.4483 -0.8070 -0.2785
  909SOL    HW1 2726   0.692   0.805   2.601  0.1833 -1.1653 -1.4252
  909SOL    HW2 2727   0.793   0.945   2.595 -0.3151  4.3033  2.9361
  910SOL     OW 2728   1.735   1.789   2.060  0.4411  0.3731  0.9121
  910SOL    HW1 2729   1.787   1.828   1.978 -0.6120 -1.1802  0.5549
  910SOL    HW2 2730   1.668   1.855   2.104 -0.5307 -1.9946  0.3061
  911SOL     OW 2731   1.744   3.044   1.584  0.0200  0.0031  0.0447
  911SOL    HW1 2732   1.830   3.006   1.531 -1.6225 -0.6942 -0.0402
  911SOL    HW2 2733   1.728   2.981   1.664  2.9411  2.7938 -1.1911
  912SOL     OW 2734   2.852   0.944   0.768  0.1117  0.2480  0.3064
  912SOL    HW1 2735   2.872   0.924   0.869  1.3578 -0.8665 -0.8949
  912SOL    HW2 2736   2.846   1.044   0.745 -1.4666  0.3272  0.3611
  913SOL     OW 2737   2.571   1.282   1.571  0.0093  0.2409 -0.6410
  913SOL    HW1 2738   2.549   1.186   1.605 -0.6518 -2.0679 -2.2089
  913SOL    HW2 2739   2.621   1.291   1.481 -1.5203  0.0578  0.6674
  914SOL     OW 2740   2.826   0.490   1.291 -0.7992 -0.3253  0.6605
  914SOL    HW1 2741   2.769   0.411   1.322  0.7820 -1.1612  0.9130
  914SOL    HW2 2742   2.846   0.563   1.356  1.0669 -0.8209 -1.3230
  915SOL     OW 2743   1.198   0.817   1.041 -0.1222 -0.0208  0.0082
  915SOL    HW1 2744   1.265   0.827   1.114 -1.9621  0.3496 -1.7727
  915SOL    HW2 2745   1.101   0.802   1.076 -2.7922  0.2871 -0.9986
  916SOL     OW 2746   0.590   0.033   0.601  0.6068 -0.1047 -0.2246
  916SOL    HW1 2747   0.602   0.109   0.672 -2.1320  0.0279 -0.3356
  916SOL    HW2 2748   0.567   0.068   0.507  2.2065  0.8023  0.8409
  917SOL     OW 2749   2.734   2.586   1.885  0.0291  0.1619 -0.2908
  917SOL    HW1 2750   2.655   2.644   1.913 -1.7529  4.0515  3.3952
  917SOL    HW2 2751   2.804   2.647   1.838  0.5184 -1.4923 -0.9187
  918SOL     OW 2752   1.052   2.177   3.093  0.8241 -0.0522  0.1277
  918SOL    HW1 2753   1.017   2.213   3.186  2.1726  1.4370 -2.2318
  918SOL    HW2 2754   1.090   2.082   3.100 -0.4336  0.1960 -1.1517
  919SOL     OW 2755   0.907   1.566   2.770 -0.5630 -0.2526  0.0852
  919SOL    HW1 2756   0.935   1.633   2.693 -1.1838  1.1460 -2.1571
  919SOL    HW2 2757   0.867   1.472   2.740  0.0959 -1.8239  0.9969
  920SOL     OW 2758   1.225   2.059   2.469 -0.1696 -0.9147 -0.1738
  920SOL    HW1 2759   1.146   2.053   2.402  0.5311  2.0729 -1.7715
  920SOL    HW2 2760   1.275   1.972   2.479  1.2491  0.8038  0.7812
  921SOL     OW 2761   1.050   0.084   2.559 -0.6227  0.0809 -0.0118
  921SOL    HW1 2762   1.027   0.020   2.486  1.1860  2.7687 -0.5152
  921SOL    HW2 2763   1.015   0.180   2.535  1.6096 -0.3746 -0.8339
  922SOL     OW 2764   2.091   2.423   2.779  0.6022  0.0583  0.0164
  922SOL    HW1 2765   2.115   2.324   2.799  1.2379  2.1628  0.7642
  922SOL    HW2 2766   2.065   2.445   2.678  0.6323  1.2759 -0.3350
  923SOL     OW 2767   1.189   2.725   0.216  0.3533  0.0517  0.1519
  923SOL    HW1 2768   1.275   2.712   0.269  0.7107  1.3277  0.2568
  923SOL    HW2 2769   1.191   2.674   0.127  0.1423 -0.2019  2.7895
  924SOL     OW 2770   2.868   1.577   0.076  0.6904  0.0836 -0.1616
  924SOL    HW1 2771   2.788   1.565   0.012  0.5877  0.5880 -0.2510
  924SOL    HW2 2772   2.956   1.604   0.025 -0.0166 -0.8446 -2.3698
  925SOL     OW 2773   0.082   2.895   1.611  0.2019 -0.0292  0.0581
  925SOL    HW1 2774  -0.016   2.935   1.630 -1.0986  1.7602  1.4632
  925SOL    HW2 2775   0.089   2.861   1.511 -2.2739 -0.4857  1.1383
  926SOL     OW 2776   1.420   2.900   1.275 -0.4465  0.2547 -0.2325
  926SOL    HW1 2777   1.426   2.895   1.171 -2.9560 -0.9260 -1.0915
  926SOL    HW2 2778   1.430   2.996   1.320 -1.2710 -0.2562  1.4334
  927SOL     OW 2779   0.244   2.557   1.761 -0.4331  0.4970  0.0256
  927SOL    HW1 2780   0.223   2.478   1.698  2.3517  1.5405 -1.1283
  927SOL    HW2 2781   0.269   2.641   1.711 -0.1015  0.3029 -1.0361
  928SOL     OW 2782   1.594   2.034   2.113  0.1959  0.2346  0.5708
  928SOL    HW1 2783   1.635   2.130   2.093  2.5684 -0.0640 -1.6756
  928SOL    HW2 2784   1.496   2.016   2.086  2.2567 -0.5656  1.8676
  929SOL     OW 2785   2.379   2.426   2.829  0.1498  0.0115  0.4334
  929SOL    HW1 2786   2.278   2.442   2.816  0.7378 -2.1127  0.0562
  929SOL    HW2 2787   2.429   2.413   2.739  1.1276 -1.1070 -0.1129
  930SOL     OW 2788   2.202   1.975   1.111  0.0881  0.1685  0.0152
  930SOL    HW1 2789   2.172   1.941   1.204 -2.1672  0.8785 -1.2722
  930SOL    HW2 2790   2.298   2.012   1.106 -2.2188  1.6038 -1.2161
  931SOL     OW 2791   0.570   1.754   2.676 -0.2805  0.0337  0.1615
  931SOL    HW1 2792   0.621   1.750   2.766  0.8779 -1.1386 -1.6245
  931SOL    HW2 2793   0.574   1.666   2.628  3.9559  1.9665  3.2490
  932SOL     OW 2794   0.499   0.103   2.907  0.2130  0.2663  0.6554
  932SOL    HW1 2795   0.593   0.116   2.867 -0.7483 -1.2152  1.4441
  932SOL    HW2 2796   0.489   0.005   2.943  1.2621 -0.5586 -1.3699
  933SOL     OW 2797   1.082   0.796   2.967  0.0005 -0.8512  0.1485
  933SOL    HW1 2798   1.123   0.841   3.051 -0.0786  0.5163  1.3085
  933SOL    HW2 2799   1.048   0.870   2.902 -1.0054  1.1018 -0.1933
  934SOL     OW 2800   0.870   2.970   2.782  0.1633  0.2305  0.8772
  934SOL    HW1 2801   0.905   2.908   2.704  4.7601  0.8659 -3.2680
  934SOL    HW2 2802   0.848   2.913   2.868 -0.3121  1.7006  0.7454
  935SOL     OW 2803   3.068   0.531   0.924 -0.7154 -0.1640  0.5304
  935SOL    HW1 2804   3.062   0.467   0.837 -2.1268 -2.8129  0.7545
  935SOL    HW2 2805   2.979   0.584   0.946 -0.1917 -1.1559 -2.0298
  936SOL     OW 2806   1.111   2.996   0.160  0.6524  0.1370  0.3938
  936SOL    HW1 2807   1.156   3.022   0.066  1.5409 -0.3343 -0.1464
  936SOL    HW2 2808   1.133   2.904   0.195  1.1150  1.3628 -0.6689
  937SOL     OW 2809   1.944   2.682   2.104 -0.3696  0.8968  0.0818
  937SOL    HW1 2810   1.851   2.691   2.140  1.6709  0.6525 -0.5729
  937SOL    HW2 2811   1.954   2.683   2.001  2.1860 -1.1628 -0.0728
  938SOL     OW 2812   2.732   2.190   1.514 -0.2686  0.6011  0.4330
  938SOL    HW1 2813   2.706   2.274   1.570 -0.4642  0.1272  2.4183
  938SOL    HW2 2814   2.799   2.125   1.566  2.7870  1.0855 -2.7146
  939SOL     OW 2815   2.729   0.988   2.513  0.2653 -0.5087  0.2298
  939SOL    HW1 2816   2.813   0.935   2.494  2.0272 -1.7018  0.3421
  939SOL    HW2 2817   2.742   1.056   2.590 -0.2019 -0.2667 -1.8464
  940SOL     OW 2818   1.062   0.464   2.659 -0.2211 -0.4924 -0.0062
  940SOL    HW1 2819   1.094   0.428   2.745  0.2067 -0.4608  1.1807
  940SOL    HW2 2820   0.976   0.426   2.625 -0.6529  1.6512  0.0210
  941SOL     OW 2821   0.060   2.855   2.219  0.4945 -0.1877 -0.1571
  941SOL    HW1 2822   0.017   2.762   2.205 -1.4937  0.8986  0.1405
  941SOL    HW2 2823   0.125   2.851   2.299  1.5888 -1.2280  0.2178
  942SOL     OW 2824   0.100   0.086   2.520  0.0615  0.2516 -0.3457
  942SOL    HW1 2825   0.165   0.116   2.598  0.7480  0.0613  3.0369
  942SOL    HW2 2826   0.063   0.166   2.466 -1.3120 -2.0336 -1.8009
  943SOL     OW 2827   2.102   1.652   2.467  0.4345  0.7758 -0.1781
  943SOL    HW1 2828   2.154   1.563   2.492 -1.7376 -2.1576 -1.1927
  943SOL    HW2 2829   2.025   1.620   2.408 -0.2103 -2.6967 -0.5946
  944SOL     OW 2830   2.193   2.310   1.488 -0.1491 -0.4808 -0.2907
  944SOL    HW1 2831   2.226   2.391   1.535 -1.9915 -4.9595 -1.2400
  944SOL    HW2 2832   2.133   2.249   1.550 -1.3842 -0.9047  0.1493
  945SOL     OW 2833   0.643   1.456   0.366  0.3082 -0.5944 -0.3894
  945SOL    HW1 2834   0.656   1.504   0.275  0.1322 -1.6864 -0.2648
  945SOL    HW2 2835   0.697   1.365   0.380  1.0854 -1.1597 -1.1836
  946SOL     OW 2836   0.320   0.998   2.637 -0.3033 -0.2798  0.0972
  946SOL    HW1 2837   0.277   0.951   2.557 -0.1412 -0.6098  0.1587
  946SOL    HW2 2838   0.349   1.097   2.610  0.8630  0.7332 -2.0543
  947SOL     OW 2839   1.514   0.423   0.163  0.8101 -0.5546 -0.0064
  947SOL    HW1 2840   1.543   0.378   0.254  0.4517 -1.4361  2.7470
  947SOL    HW2 2841   1.451   0.365   0.108  0.8096  2.2823  1.0222
  948SOL     OW 2842   1.998   3.099   2.142  0.6402 -0.1449 -1.0446
  948SOL    HW1 2843   1.948   3.086   2.052 -0.4386 -1.2832  2.3235
  948SOL    HW2 2844   1.972   3.018   2.208  1.3369 -0.2827  0.6459
  949SOL     OW 2845   0.594   2.535   0.453  0.8845  0.3716  0.2655
  949SOL    HW1 2846   0.623   2.631   0.428 -2.2639  0.1570 -0.4660
  949SOL    HW2 2847   0.628   2.512   0.548  2.0598 -1.8872 -2.1436
  950SOL     OW 2848   0.261   2.095   3.013 -0.3941  0.7309 -0.1502
  950SOL    HW1 2849   0.180   2.163   3.010 -2.4207  0.0182  1.4735
  950SOL    HW2 2850   0.223   1.999   3.027 -0.5099 -0.3393  0.9338
  951SOL     OW 2851   1.173   2.810   2.784  0.4042  0.2878  0.0689
  951SOL    HW1 2852   1.190   2.893   2.728  0.2347 -1.8589  0.6759
  951SOL    HW2 2853   1.195   2.817   2.881 -1.7559  1.7293  0.9662
  952SOL     OW 2854   0.101   1.719   0.458  0.4149 -0.0095  0.3715
  952SOL    HW1 2855   0.172   1.790   0.462 -3.3739 -1.6787 -1.0216
  952SOL    HW2 2856   0.117   1.651   0.537 -1.8589 -3.5979 -0.1112
  953SOL     OW 2857   2.492   1.739   0.189 -0.5729 -0.6723 -0.5712
  953SOL    HW1 2858   2.481   1.636   0.216  1.7379  1.0788  0.9397
  953SOL    HW2 2859   2.471   1.748   0.088  0.1601 -1.0850  0.1709
  954SOL     OW 2860   2.188   0.470   1.061  0.5598 -0.2793  0.0514
  954SOL    HW1 2861   2.118   0.491   0.981  2.2922  0.5063 -2.2509
  954SOL    HW2 2862   2.283   0.451   1.029  0.1051 -1.3462  1.2524
  955SOL     OW 2863   0.207   2.650   1.283 -0.5233  0.0728  0.2822
  955SOL    HW1 2864   0.103   2.639   1.287  1.6306  1.7388 -0.3018
  955SOL    HW2 2865   0.241   2.651   1.187  0.7837 -1.8808  0.5174
  956SOL     OW 2866   2.725   2.473   2.501  0.2145 -0.2648 -0.7606
  956SOL    HW1 2867   2.749   2.373   2.498 -0.8574 -0.7486  0.5590
  956SOL    HW2 2868   2.782   2.531   2.431  2.6346  0.6706  0.0183
  957SOL     OW 2869   1.542   2.000   2.653  0.4855  0.1741  0.4477
  957SOL    HW1 2870   1.475   1.923   2.646  2.2617 -3.4139 -2.1976
  957SOL    HW2 2871   1.578   2.024   2.555 -0.1512  1.9699 -3.2781
  958SOL     OW 2872   2.666   2.312   3.007 -0.3651 -0.4724 -0.1189
  958SOL    HW1 2873   2.566   2.322   2.980  2.3370  3.6904 -1.1672
  958SOL    HW2 2874   2.680   2.241   3.083 -0.8727 -0.4352  1.5692
  959SOL     OW 2875   0.231   2.805   0.029 -0.0385 -0.1515 -0.1817
  959SOL    HW1 2876   0.144   2.794   0.081  2.3533  1.3338  2.1631
  959SOL    HW2 2877   0.262   2.719  -0.016  0.0979 -0.6973  1.1974
  960SOL     OW 2878   1.961   0.447   1.961 -0.3948 -0.6280  0.6149
  960SOL    HW1 2879   1.903   0.522   1.911  0.1768  2.2947 -1.7742
  960SOL    HW2 2880   1.997   0.481   2.053  0.5350 -2.3661  0.6729
  961SOL     OW 2881   2.663   1.900   1.029  0.4908  1.0636 -0.1265
  961SOL    HW1 2882   2.597   1.936   0.955 -1.2018  2.1053  1.0201
  961SOL    HW2 2883   2.682   1.967   1.105 -1.2762  3.1845 -0.1953
  962SOL     OW 2884   1.284   0.928   0.031  0.0781  1.0346 -0.2151
  962SOL    HW1 2885   1.300   0.994  -0.048 -0.5356 -0.4437  1.0108
  962SOL    HW2 2886   1.260   0.980   0.117 -0.3638 -1.6230 -0.2621
  963SOL     OW 2887   2.247   2.600   1.891 -0.8799 -0.7150  0.5627
  963SOL    HW1 2888   2.281   2.529   1.956 -2.9086 -0.7544  2.4671
  963SOL    HW2 2889   2.274   2.696   1.924 -0.2441  2.2043 -0.9103
  964SOL     OW 2890   2.454   0.392   1.699 -0.2558 -0.0797  0.0903
  964SOL    HW1 2891   2.549   0.409   1.735 -2.9175  2.1377  4.5725
  964SOL    HW2 2892   2.443   0.402   1.596  0.3870  1.5421 -0.7922
  965SOL     OW 2893   2.686   3.003   0.122  0.4823 -0.0203  0.3969
  965SOL    HW1 2894   2.731   2.950   0.044 -0.5928  0.1074 -4.1179
  965SOL    HW2 2895   2.585   3.021   0.094  0.0975 -5.5686  0.7871
  966SOL     OW 2896   2.543   2.639   2.164 -0.4096  0.1537  0.3755
  966SOL    HW1 2897   2.483   2.568   2.118 -0.3189 -2.2074  1.1767
  966SOL    HW2 2898   2.500   2.689   2.245  0.8700  0.3342  1.0238
  967SOL     OW 2899   2.760   2.857   2.475 -0.6027  0.1369  0.0356
  967SOL    HW1 2900   2.795   2.801   2.396 -0.4356  1.1870 -1.2666
  967SOL    HW2 2901   2.785   2.960   2.470 -0.7436 -0.8174 -0.2654
  968SOL     OW 2902   2.017   1.030   2.722 -0.6528  0.4454 -0.2006
  968SOL    HW1 2903   1.986   1.118   2.672 -1.4076  2.5270  0.5156
  968SOL    HW2 2904   2.004   0.936   2.674  1.5419  0.6248  1.0063
  969SOL     OW 2905   2.709   2.341   1.157  0.0450  0.2166  0.1479
  969SOL    HW1 2906   2.683   2.314   1.058  2.0728 -0.9841  0.8464
  969SOL    HW2 2907   2.775   2.274   1.201 -0.0793  1.6016  1.3371
  970SOL     OW 2908   1.118   2.150   1.789 -0.2002 -1.0372  0.0300
  970SOL    HW1 2909   1.019   2.162   1.759  2.0029 -0.6166 -0.7692
  970SOL    HW2 2910   1.141   2.177   1.889  0.3826 -3.1265 -0.7694
  971SOL     OW 2911   2.823   2.100   1.938 -0.2244 -0.0683 -0.0146
  971SOL    HW1 2912   2.806   2.197   1.979  2.5490 -1.0469  0.4098
  971SOL    HW2 2913   2.917   2.091   1.893 -0.6689  2.4465  0.2699
  972SOL     OW 2914   2.048   2.452   0.267 -0.1483  0.1393 -0.5442
  972SOL    HW1 2915   2.009   2.370   0.215  0.7084  2.4914 -1.7643
  972SOL    HW2 2916   2.074   2.429   0.367  1.2681  0.1615  1.4501
  973SOL     OW 2917   1.320   1.069   1.897  0.0108 -0.1304 -0.6963
  973SOL    HW1 2918   1.241   1.029   1.847  1.5822  1.9453  2.0686
  973SOL    HW2 2919   1.316   1.170   1.913  1.8346  1.2200 -0.6744
  974SOL     OW 2920   1.663   0.546   1.905  0.0965 -0.0177  0.3978
  974SOL    HW1 2921   1.745   0.610   1.891 -2.1319  2.2930  0.9759
  974SOL    HW2 2922   1.573   0.600   1.911  0.9396  4.3715  0.8494
  975SOL     OW 2923   2.429   3.044   3.058  0.5852 -0.1142 -0.7187
  975SOL    HW1 2924   2.365   3.003   3.126  1.8541 -1.3421 -0.5175
  975SOL    HW2 2925   2.396   3.021   2.960  0.8342 -0.3428 -0.7358
  976SOL     OW 2926   1.936   2.894   2.318  0.3330 -0.0741  0.2263
  976SOL    HW1 2927   1.861   2.830   2.288  0.4503  0.2326  0.0641
  976SOL    HW2 2928   1.957   2.890   2.414 -0.6887  0.5426  1.7661
  977SOL     OW 2929   0.485   0.631   1.030  0.2229 -0.4720 -0.0464
  977SOL    HW1 2930   0.392   0.617   0.985 -3.5100 -1.6433 -1.3701
  977SOL    HW2 2931   0.562   0.608   0.963  1.9819  2.4860  2.9885
   3.10000   3.10000   3.10000
