1000 SPC/Fw water molecules t=   0.95000 step= 950
 2931
    1SOL     OW    1   2.529   0.319   2.660  0.9084 -0.3073 -0.1690
    1SOL    HW1    2   2.531   0.213   2.656 -0.6840 -1.8908  0.2452
    1SOL    HW2    3   2.567   0.354   2.750  0.5060 -4.3564  2.6973
    2SOL     OW    4   2.698   3.046   1.435 -0.4523 -0.2211 -0.2583
    2SOL    HW1    5   2.782   3.068   1.374  2.9806 -0.5928  0.4103
    2SOL    HW2    6   2.685   3.122   1.506  0.5807  0.2893 -1.3067
    3SOL     OW    7   2.682   2.613   0.431  0.2349  0.1902  0.7080
    3SOL    HW1    8   2.685   2.509   0.423 -1.1285  0.6949  3.3376
    3SOL    HW2    9   2.760   2.649   0.494 -0.8614 -0.6332 -0.0738
    4SOL     OW   10   1.247   1.540   2.307 -0.1316  0.0810  0.1322
    4SOL    HW1   11   1.165   1.577   2.244 -0.7538  2.1577 -1.7119
    4SOL    HW2   12   1.221   1.456   2.362  1.3076 -0.9318  2.0837
    5SOL     OW   13   1.162   1.491   3.074  0.2832 -0.2554 -0.2308
    5SOL    HW1   14   1.229   1.569   3.084 -1.7133 -0.6399 -0.9255
    5SOL    HW2   15   1.068   1.516   3.114 -1.4118 -0.4731 -1.0592
    6SOL     OW   16   0.138   1.783   2.959  0.1577 -0.6217  0.4506
    6SOL    HW1   17   0.051   1.828   3.004 -2.1533  1.6911 -0.2444
    6SOL    HW2   18   0.214   1.744   3.020 -2.2720  0.3737  0.5883
    7SOL     OW   19   2.610   0.915   1.100 -0.2742 -0.4396 -0.2455
    7SOL    HW1   20   2.527   0.859   1.130  0.3244  0.3956  0.8759
    7SOL    HW2   21   2.620   0.913   0.994 -2.7805  0.5839  0.6929
    8SOL     OW   22   0.374   0.643   1.568  0.4603  0.4623 -0.4756
    8SOL    HW1   23   0.468   0.623   1.607 -1.1438  1.8447 -0.9914
    8SOL    HW2   24   0.381   0.664   1.465 -1.0007  0.0479 -1.6672
    9SOL     OW   25   1.192   0.894   2.415  0.0608  0.4224 -0.0781
    9SOL    HW1   26   1.258   0.920   2.332 -0.5581  0.5470 -0.3719
    9SOL    HW2   27   1.143   0.802   2.392 -0.2627 -0.1092 -1.5120
   10SOL     OW   28   0.665   1.356   1.273 -0.0885  0.0369 -0.2122
   10SOL    HW1   29   0.566   1.371   1.271  1.3574  1.5229  1.3642
   10SOL    HW2   30   0.722   1.443   1.279 -0.7960  0.1363  1.0263
   11SOL     OW   31   2.326   2.758   0.843 -0.1832  0.7178 -0.3583
   11SOL    HW1   32   2.280   2.791   0.930 -0.5043  1.3533  1.1979
   11SOL    HW2   33   2.427   2.751   0.848 -0.3340  0.3957  2.3077
   12SOL     OW   34   1.489   0.895   0.336  0.1680 -0.3474 -0.1756
   12SOL    HW1   35   1.427   0.962   0.283 -0.5136  0.4272 -0.3891
   12SOL    HW2   36   1.495   0.802   0.288  1.4419  0.2661 -3.4254
   13SOL     OW   37   2.497   0.703   1.780 -0.1073  0.4694 -0.3424
   13SOL    HW1   38   2.404   0.691   1.819  1.6084 -0.9940 -1.7056
   13SOL    HW2   39   2.501   0.668   1.682  2.0027  2.0406  0.4365
   14SOL     OW   40   1.882   0.099   0.691  0.2042  0.5358 -0.4290
   14SOL    HW1   41   1.820   0.104   0.606 -0.4855  1.2500 -1.2641
   14SOL    HW2   42   1.838   0.058   0.774  0.0674 -0.2681 -0.2395
   15SOL     OW   43   1.994   2.086   2.720 -0.0130  0.2506 -0.1127
   15SOL    HW1   44   1.935   2.157   2.764  0.5399  2.0926  0.8111
   15SOL    HW2   45   1.947   1.992   2.705 -1.0007 -0.5793  1.2472
   16SOL     OW   46   1.604   1.727   2.977  0.3752 -0.1988 -0.1253
   16SOL    HW1   47   1.590   1.650   3.047 -3.0164 -1.6299  1.5143
   16SOL    HW2   48   1.697   1.773   2.988  1.7672 -3.0346  1.2073
   17SOL     OW   49   0.116   0.507   0.207  0.0018 -0.4733 -0.4567
   17SOL    HW1   50   0.210   0.501   0.162 -1.0452  1.2911 -0.4246
   17SOL    HW2   51   0.050   0.534   0.135 -0.4669  0.9734  0.4502
   18SOL     OW   52   0.954   2.890   2.145  0.1709 -0.1948  0.1059
   18SOL    HW1   53   0.878   2.820   2.123 -0.0156  2.0513 -1.2574
   18SOL    HW2   54   1.043   2.885   2.089  4.1898  0.2423 -1.1587
   19SOL     OW   55   0.530   0.819   1.897  0.5084  0.1340  0.3106
   19SOL    HW1   56   0.568   0.750   1.966  3.1781 -3.6455  1.2217
   19SOL    HW2   57   0.612   0.873   1.860  0.7724  0.2817 -0.9339
   20SOL     OW   58   0.183   2.699   0.817  0.2373 -0.2758 -0.1677
   20SOL    HW1   59   0.133   2.777   0.772  1.0510 -0.3251 -0.1709
   20SOL    HW2   60   0.250   2.648   0.757 -1.2298 -0.0729  0.0237
   21SOL     OW   61   2.678   0.245   2.060 -0.2781 -0.0181 -0.7866
   21SOL    HW1   62   2.621   0.214   1.978  0.9312 -0.3579 -1.5422
   21SOL    HW2   63   2.759   0.181   2.075  2.9304 -1.4315  0.0842
   22SOL     OW   64   2.373   0.249   0.169 -0.2000  0.3212 -0.1394
   22SOL    HW1   65   2.381   0.146   0.149 -1.9458  1.7666  4.4211
   22SOL    HW2   66   2.289   0.289   0.124 -0.6207  0.2997 -0.6338
   23SOL     OW   67   2.791   0.627   0.637  0.0314 -0.2940 -0.3865
   23SOL    HW1   68   2.806   0.531   0.625 -2.3003 -1.0462  1.7937
   23SOL    HW2   69   2.788   0.683   0.552  0.5363 -2.5600 -1.4864
   24SOL     OW   70   0.218   1.916   0.382  0.0611 -0.0899  0.0775
   24SOL    HW1   71   0.170   1.974   0.313  0.9257 -0.7374  4.2617
   24SOL    HW2   72   0.316   1.911   0.356  0.3289  0.5357  0.6484
   25SOL     OW   73   2.213   0.612   0.242  0.6503  0.4393 -0.0691
   25SOL    HW1   74   2.237   0.634   0.144  0.2024  0.4149  0.7842
   25SOL    HW2   75   2.240   0.520   0.266 -2.8703  1.9577  1.8499
   26SOL     OW   76   2.507   2.111   2.073 -0.1973  0.4663 -0.0130
   26SOL    HW1   77   2.575   2.181   2.112  0.0438  1.8997  2.1053
   26SOL    HW2   78   2.544   2.066   1.992 -0.7299 -0.7299 -0.6506
   27SOL     OW   79   0.609   2.946   0.196 -0.2050 -0.6372 -0.1247
   27SOL    HW1   80   0.714   2.962   0.183 -1.1416 -0.8488 -0.6036
   27SOL    HW2   81   0.565   2.941   0.103 -1.6059  0.8572  0.8117
   28SOL     OW   82   1.591   0.188   0.288 -0.1191  0.7396  0.3043
   28SOL    HW1   83   1.651   0.161   0.205 -1.5137 -0.2323 -1.4299
   28SOL    HW2   84   1.602   0.285   0.316 -1.0244 -0.8633 -1.0328
   29SOL     OW   85   1.980   0.644   0.397  0.0708 -0.0089 -0.6453
   29SOL    HW1   86   1.945   0.739   0.414  2.2015 -1.2213  2.0443
   29SOL    HW2   87   2.062   0.655   0.333  1.3420  0.8096  1.2199
   30SOL     OW   88   0.154   1.971   0.884 -0.0345  0.1391  0.0418
   30SOL    HW1   89   0.137   1.961   0.780 -3.2612 -0.8170 -2.3493
   30SOL    HW2   90   0.098   2.042   0.933 -1.1422 -1.4235  1.6408
   31SOL     OW   91   2.106   3.088   2.369  0.0922 -0.0476  0.4758
   31SOL    HW1   92   2.085   3.090   2.472  2.4295 -2.4980  2.4750
   31SOL    HW2   93   2.040   3.023   2.317 -0.4326 -0.3058 -2.6068
   32SOL     OW   94   2.970   0.040   0.206 -0.1616  0.2059  1.0302
   32SOL    HW1   95   2.970  -0.058   0.163  0.7699 -3.7823  0.9479
   32SOL    HW2   96   3.065   0.077   0.204  0.3726 -1.5574 -1.3616
   33SOL     OW   97   0.941   0.295   0.578 -0.2043 -0.0129 -0.4029
   33SOL    HW1   98   0.915   0.207   0.522  3.1758 -2.7408 -0.8165
   33SOL    HW2   99   1.045   0.302   0.598  0.3639  1.6940  1.5432
   34SOL     OW  100   0.300   2.748   1.102  0.5869  0.4036  0.2553
   34SOL    HW1  101   0.260   2.717   1.007  2.0457 -1.3835 -1.4382
   34SOL    HW2  102   0.397   2.785   1.087  4.3942  0.2101 -0.7386
   35SOL     OW  103   0.021   0.071   1.909 -0.0106  0.1595 -0.0775
   35SOL    HW1  104   0.058  -0.029   1.914  1.3695  0.1991  1.3562
   35SOL    HW2  105  -0.021   0.100   1.815 -0.6673 -0.9387 -0.6052
   36SOL     OW  106   1.916   1.219   1.709  0.0230  0.9981 -0.3460
   36SOL    HW1  107   1.975   1.143   1.666  1.1117  4.0494  1.3571
   36SOL    HW2  108   1.968   1.299   1.745  1.6705  1.1195 -0.6171
   37SOL     OW  109   1.171   0.204   0.973 -0.1689  0.3940  0.5112
   37SOL    HW1  110   1.228   0.271   1.030  0.3761  0.4651 -0.9972
   37SOL    HW2  111   1.227   0.165   0.898 -1.7772  0.8634  2.1088
   38SOL     OW  112   1.083   2.818   2.496  0.2197  0.3508 -0.0928
   38SOL    HW1  113   1.000   2.758   2.519 -2.2550  0.8331 -0.5296
   38SOL    HW2  114   1.058   2.911   2.468  2.4127 -1.4457  0.2899
   39SOL     OW  115   2.323   1.418   3.049 -0.4719  0.7421  0.4045
   39SOL    HW1  116   2.404   1.359   3.072 -0.1312 -0.0621 -1.3605
   39SOL    HW2  117   2.286   1.467   3.132  1.5689  1.7341  3.1157
   40SOL     OW  118   2.030   2.425   2.536 -0.5214  0.1974 -0.1052
   40SOL    HW1  119   1.973   2.506   2.569 -1.7099 -1.8949  0.7703
   40SOL    HW2  120   1.978   2.354   2.484  0.8771  0.9739  1.1172
   41SOL     OW  121   3.047   0.684   2.846  0.0364 -0.1964 -0.0620
   41SOL    HW1  122   3.000   0.775   2.872  2.9713  1.4095 -1.1315
   41SOL    HW2  123   2.991   0.600   2.821  1.7783  0.4185  1.2785
   42SOL     OW  124   1.790   1.736   0.493 -0.1154  0.1021  0.4517
   42SOL    HW1  125   1.756   1.632   0.492 -0.2275 -0.4136  0.5732
   42SOL    HW2  126   1.786   1.776   0.395  0.4838 -0.3208  1.6493
   43SOL     OW  127   0.461   1.656   1.136 -0.0630  0.4103 -0.3421
   43SOL    HW1  128   0.466   1.606   1.229  0.3230  0.2130  2.5940
   43SOL    HW2  129   0.367   1.675   1.104  2.4609  0.1827  0.9503
   44SOL     OW  130   1.749   2.490   3.015 -0.2259 -0.4842 -0.0242
   44SOL    HW1  131   1.767   2.583   2.980 -1.3416  0.5422  2.4182
   44SOL    HW2  132   1.777   2.419   2.945  0.3455 -1.8284 -0.0113
   45SOL     OW  133   0.396   1.932   2.614 -0.2254 -0.5235  0.5178
   45SOL    HW1  134   0.352   1.924   2.520 -2.2266  0.7224  0.6904
   45SOL    HW2  135   0.439   1.844   2.649 -1.1802  2.1661  0.6240
   46SOL     OW  136   1.241   0.674   0.181 -0.2370 -0.4095 -0.2162
   46SOL    HW1  137   1.284   0.753   0.128  0.6582  2.4812 -0.6470
   46SOL    HW2  138   1.137   0.663   0.170  0.2604 -0.1087 -0.9419
   47SOL     OW  139   0.213   2.509   1.545 -0.5075 -0.2894 -0.0254
   47SOL    HW1  140   0.187   2.414   1.561  4.3091  1.0025 -0.6166
   47SOL    HW2  141   0.190   2.547   1.449 -3.7866 -2.1817 -1.5153
   48SOL     OW  142   2.645   0.639   0.122 -0.1925 -0.3801 -0.3094
   48SOL    HW1  143   2.649   0.612   0.223 -2.6906 -0.4525  2.1352
   48SOL    HW2  144   2.735   0.687   0.092 -1.4363  0.8642  3.4335
   49SOL     OW  145   0.287   0.797   1.766 -0.1294 -0.1128  0.3563
   49SOL    HW1  146   0.358   0.819   1.841  0.7509  1.1570  0.4786
   49SOL    HW2  147   0.323   0.732   1.693 -0.2237 -1.1101  1.4570
   50SOL     OW  148   1.679   1.136   0.346  0.0159  0.1222 -0.2813
   50SOL    HW1  149   1.663   1.041   0.312 -1.0585 -0.1621  1.4820
   50SOL    HW2  150   1.630   1.169   0.430  1.5726 -2.2569  1.1395
   51SOL     OW  151   2.867   1.778   0.255  0.2082 -0.5197 -0.4655
   51SOL    HW1  152   2.819   1.703   0.210  0.3345  0.5782 -2.5814
   51SOL    HW2  153   2.928   1.754   0.339  1.3775 -1.3298  1.0112
   52SOL     OW  154   0.768   2.023   0.526 -0.0221  0.4638  0.2721
   52SOL    HW1  155   0.683   2.068   0.560  1.3305  1.3496  1.7133
   52SOL    HW2  156   0.811   1.947   0.587 -0.9379 -2.5165  3.2025
   53SOL     OW  157   0.190   0.428   1.587 -0.0455 -0.0029  0.4100
   53SOL    HW1  158   0.269   0.493   1.606  0.4532 -0.1936  1.0846
   53SOL    HW2  159   0.109   0.479   1.544 -0.6854 -3.1930 -2.4643
   54SOL     OW  160   1.788   0.514   3.080  0.1284  0.3095  0.0596
   54SOL    HW1  161   1.842   0.454   3.143 -2.9346 -0.6005 -0.8356
   54SOL    HW2  162   1.690   0.481   3.088 -2.1513 -0.0736  2.2962
   55SOL     OW  163   0.735   2.861   0.679  0.1479  0.4364 -0.1506
   55SOL    HW1  164   0.703   2.954   0.703 -0.9262 -2.1090 -2.4770
   55SOL    HW2  165   0.831   2.865   0.642  0.6949 -1.4907  4.6107
   56SOL     OW  166   0.574   1.569   0.019  0.1460 -0.5274 -0.1922
   56SOL    HW1  167   0.479   1.613   0.025 -0.2359  0.3875 -1.3165
   56SOL    HW2  168   0.573   1.486  -0.038  0.5031 -0.2505  0.9210
   57SOL     OW  169   1.747   2.514   2.436  0.2864  0.4012 -0.4161
   57SOL    HW1  170   1.793   2.428   2.386  1.6439 -1.4510 -1.5899
   57SOL    HW2  171   1.662   2.499   2.487  1.7696 -2.1726 -1.4631
   58SOL     OW  172   0.673   0.280   1.062  0.2548  0.4983 -0.1819
   58SOL    HW1  173   0.575   0.283   1.102 -2.8639  1.3487  2.0820
   58SOL    HW2  174   0.714   0.180   1.064  2.4837 -1.4730  0.3199
   59SOL     OW  175   0.452   2.411   2.724 -0.2227 -0.7592  0.1356
   59SOL    HW1  176   0.484   2.310   2.698  2.1339 -1.7670  3.0714
   59SOL    HW2  177   0.518   2.444   2.795 -1.2897 -1.3726  2.2481
   60SOL     OW  178   2.297   2.055   2.234  0.1128 -0.0221  0.1557
   60SOL    HW1  179   2.375   2.071   2.159  2.4943  0.6174 -3.0692
   60SOL    HW2  180   2.324   2.085   2.331 -0.2827  1.3237  4.0518
   61SOL     OW  181   1.328   0.655   0.503  0.1095  0.0196 -0.4321
   61SOL    HW1  182   1.253   0.711   0.544  2.0679 -0.2338 -2.9197
   61SOL    HW2  183   1.327   0.670   0.400  2.0832  1.8164 -0.1430
   62SOL     OW  184   2.740   1.816   2.930 -0.9554 -0.0899  0.1251
   62SOL    HW1  185   2.704   1.722   2.926  0.1316 -0.9565  1.1379
   62SOL    HW2  186   2.834   1.819   2.882  1.2180  1.6177  1.0875
   63SOL     OW  187   0.554   0.830   0.192 -0.0063 -0.5771 -0.0252
   63SOL    HW1  188   0.583   0.917   0.142 -1.2114 -2.7593 -1.1270
   63SOL    HW2  189   0.595   0.816   0.286 -2.4426 -0.3044 -1.4990
   64SOL     OW  190   0.074   0.474   2.449 -0.0607 -0.4723  0.3508
   64SOL    HW1  191   0.174   0.482   2.451  0.1436 -0.6929 -0.4180
   64SOL    HW2  192   0.022   0.537   2.380 -0.4058  2.0348 -2.5997
   65SOL     OW  193   0.139   1.525   0.552 -0.3126 -0.1844  0.6760
   65SOL    HW1  194   0.176   1.562   0.643  0.5170  2.7611  0.7290
   65SOL    HW2  195   0.213   1.485   0.489 -0.1168 -2.9782 -2.1330
   66SOL     OW  196   2.555   0.359   0.609 -0.1411  0.3320 -0.2508
   66SOL    HW1  197   2.654   0.357   0.638 -2.6502 -1.9865 -0.2408
   66SOL    HW2  198   2.491   0.299   0.669  2.5711 -1.4805 -0.2475
   67SOL     OW  199   0.555   2.521   1.412  0.6201  0.0081  0.4464
   67SOL    HW1  200   0.626   2.485   1.483  2.2684 -2.9710 -1.4791
   67SOL    HW2  201   0.486   2.442   1.394 -2.1585 -0.2910  0.5703
   68SOL     OW  202   0.986   1.076   2.470  0.3885  0.1967  0.0844
   68SOL    HW1  203   1.059   1.005   2.459  0.3144  0.8444 -2.9293
   68SOL    HW2  204   0.913   1.077   2.398  0.6740  2.7793  0.4625
   69SOL     OW  205   0.714   2.727   2.144  0.1930 -0.0597 -0.4919
   69SOL    HW1  206   0.756   2.631   2.142  2.5653 -1.9987 -2.5048
   69SOL    HW2  207   0.614   2.732   2.187 -1.0925 -0.9932  0.6368
   70SOL     OW  208   0.523   0.281   2.663 -0.3466 -0.4563  0.0256
   70SOL    HW1  209   0.433   0.314   2.707 -2.0354 -1.1149  0.0983
   70SOL    HW2  210   0.533   0.177   2.665 -2.9593 -0.1595  0.0888
   71SOL     OW  211   1.107   1.775   0.455  0.1580  0.7917 -0.7876
   71SOL    HW1  212   1.082   1.696   0.523 -3.4235 -0.7771  1.3561
   71SOL    HW2  213   1.031   1.789   0.390 -0.4490  1.1831  0.5521
   72SOL     OW  214   1.832   0.203   2.155  0.0828 -0.3921 -0.1381
   72SOL    HW1  215   1.903   0.263   2.186 -1.0364  1.0253 -1.2111
   72SOL    HW2  216   1.857   0.102   2.170  0.9298  1.1989 -1.9633
   73SOL     OW  217   2.808   2.147   2.400  0.3068 -0.5612  0.0700
   73SOL    HW1  218   2.811   2.043   2.376 -2.4625  2.4386 -0.0775
   73SOL    HW2  219   2.839   2.162   2.500  0.6089  1.1104  2.5126
   74SOL     OW  220   2.683   2.879   2.123  0.8751 -0.0177  0.1908
   74SOL    HW1  221   2.618   2.889   2.198  0.5494  0.0867  2.0739
   74SOL    HW2  222   2.783   2.876   2.148 -0.1673  0.4313 -0.4157
   75SOL     OW  223   0.902   0.827   1.095  0.6281  0.5948  0.2998
   75SOL    HW1  224   0.807   0.845   1.058  1.5894 -2.4831 -0.9559
   75SOL    HW2  225   0.932   0.881   1.176  0.3132  0.2610 -0.1706
   76SOL     OW  226   1.710   1.182   2.509  0.4440  0.6631  0.3751
   76SOL    HW1  227   1.615   1.144   2.493  1.7832 -0.2310 -3.3594
   76SOL    HW2  228   1.717   1.272   2.565 -0.0266  0.5211 -3.5821
   77SOL     OW  229   2.957   0.936   0.958 -0.0700  0.6458  0.2611
   77SOL    HW1  230   2.895   0.852   0.975 -1.4588  1.0264 -3.1176
   77SOL    HW2  231   3.038   0.933   1.025  1.3527 -1.0784  0.4226
   78SOL     OW  232   2.031   1.481   1.487 -0.1215 -0.3245 -0.1618
   78SOL    HW1  233   2.115   1.535   1.453 -1.5349  4.1937 -0.1374
   78SOL    HW2  234   1.951   1.480   1.420 -0.9800 -0.4264  1.0434
   79SOL     OW  235   0.614   1.378   0.830  0.6189 -0.1550  0.1142
   79SOL    HW1  236   0.523   1.376   0.881  1.7385  3.2110 -1.1975
   79SOL    HW2  237   0.606   1.345   0.736 -0.0286 -2.2869  1.3929
   80SOL     OW  238   0.605   0.500   1.578  0.0840 -0.2166 -0.3940
   80SOL    HW1  239   0.685   0.545   1.532  0.5956 -2.3825  1.0406
   80SOL    HW2  240   0.590   0.402   1.542 -1.5253 -0.8875 -2.2717
   81SOL     OW  241   1.036   1.373   2.642 -0.1989 -0.4982 -0.0344
   81SOL    HW1  242   1.030   1.271   2.640 -1.7326  0.3452 -1.9274
   81SOL    HW2  243   0.980   1.414   2.564  0.7814 -3.2975 -0.7343
   82SOL     OW  244   0.992   2.982   1.505 -0.6279  0.4178 -0.2029
   82SOL    HW1  245   0.940   3.031   1.430  1.0107  0.5090 -2.5707
   82SOL    HW2  246   0.992   2.878   1.490  2.3707 -0.0161 -1.2348
   83SOL     OW  247   2.711   2.426   0.848 -0.7417 -0.3296 -0.4766
   83SOL    HW1  248   2.628   2.382   0.807  0.8943 -2.5783 -0.7288
   83SOL    HW2  249   2.708   2.532   0.839 -0.7151 -1.5692  0.3238
   84SOL     OW  250   0.651   3.032   2.353 -0.2764  0.0327 -0.0284
   84SOL    HW1  251   0.597   3.052   2.434 -0.2887  2.8678 -2.2991
   84SOL    HW2  252   0.703   2.941   2.360  1.4634  0.6579 -1.6729
   85SOL     OW  253   0.268   1.580   1.483  0.0263  0.8622 -0.0521
   85SOL    HW1  254   0.283   1.682   1.482  1.0652  2.1969  0.3049
   85SOL    HW2  255   0.335   1.521   1.538  2.2128 -0.9505 -0.7037
   86SOL     OW  256   0.412   0.986   1.541  0.2076 -0.1111  0.1914
   86SOL    HW1  257   0.394   0.955   1.442  2.0102  0.9923  0.4887
   86SOL    HW2  258   0.409   0.913   1.615  2.5384 -0.1540  0.6149
   87SOL     OW  259   1.557   0.641   0.212 -0.0689 -0.3320 -0.1802
   87SOL    HW1  260   1.645   0.696   0.207 -1.6124  0.7273  0.5392
   87SOL    HW2  261   1.547   0.573   0.134  0.4867  2.1491  2.1080
   88SOL     OW  262   1.572   1.391   0.245  0.3098 -0.3324  0.2816
   88SOL    HW1  263   1.634   1.312   0.275 -0.2267  1.2043  1.7022
   88SOL    HW2  264   1.471   1.366   0.242 -0.1702  1.2709  2.9778
   89SOL     OW  265   3.090   0.460   0.580 -0.0457 -0.0919  0.1677
   89SOL    HW1  266   3.157   0.382   0.550 -0.0759 -0.3464 -4.1560
   89SOL    HW2  267   2.990   0.421   0.584 -2.4546  0.3308  1.4319
   90SOL     OW  268   0.911   1.563   0.079 -0.0276 -0.2668  0.6011
   90SOL    HW1  269   0.830   1.547   0.142 -0.8273  3.2706 -1.0630
   90SOL    HW2  270   0.880   1.567  -0.019  0.0340  0.4574 -0.7126
   91SOL     OW  271   1.241   1.434   1.853  0.4860 -0.0304  0.1370
   91SOL    HW1  272   1.220   1.521   1.904 -0.3091  1.3158  1.8376
   91SOL    HW2  273   1.331   1.450   1.801  1.5312  1.5290 -0.9475
   92SOL     OW  274   3.079   0.957   1.229 -0.1434 -0.1729 -0.1236
   92SOL    HW1  275   3.143   1.033   1.196  0.3063  0.5150  1.8365
   92SOL    HW2  276   3.079   0.954   1.334 -0.6585 -1.3674 -0.7727
   93SOL     OW  277   0.033   2.719   3.047 -0.0090  0.1754  0.2803
   93SOL    HW1  278  -0.047   2.714   2.978 -1.1202  0.7710  0.4621
   93SOL    HW2  279   0.037   2.639   3.114 -2.7022  1.1930  1.5303
   94SOL     OW  280   1.497   1.485   1.734 -0.6980 -0.2339 -0.1834
   94SOL    HW1  281   1.567   1.407   1.735 -0.1483 -0.0137  0.7362
   94SOL    HW2  282   1.511   1.549   1.812  2.5256 -2.2455  0.5597
   95SOL     OW  283   1.406   2.518   2.975  0.4978 -0.3290  0.0798
   95SOL    HW1  284   1.336   2.509   3.049  3.8807  0.1561  0.2580
   95SOL    HW2  285   1.434   2.425   2.944  1.8958  0.1716  1.1070
   96SOL     OW  286   0.549   2.121   1.236 -0.2908  0.5095 -0.0041
   96SOL    HW1  287   0.509   2.092   1.143  0.4810 -1.6744 -2.5997
   96SOL    HW2  288   0.604   2.048   1.282  0.6491  0.1068  0.0861
   97SOL     OW  289   0.451   1.626   2.480 -0.0179  0.6438 -0.4526
   97SOL    HW1  290   0.361   1.655   2.445  1.6310  1.9117 -0.7529
   97SOL    HW2  291   0.461   1.632   2.587  2.1822 -0.5203  0.4977
   98SOL     OW  292   2.024   1.602   1.199  0.2420  0.4357 -0.1005
   98SOL    HW1  293   1.956   1.536   1.246  2.6294 -0.3959  1.4412
   98SOL    HW2  294   2.100   1.550   1.149 -0.8937  2.1201  0.2970
   99SOL     OW  295   2.502   2.045   1.314 -0.1193 -0.1951 -0.6208
   99SOL    HW1  296   2.495   2.071   1.415  0.7992 -1.9513 -0.0919
   99SOL    HW2  297   2.458   1.952   1.299  1.6764 -0.3594 -1.4402
  100SOL     OW  298   2.384   0.308   2.127 -0.2985  0.3643  0.5057
  100SOL    HW1  299   2.307   0.268   2.181  0.5491 -3.2756 -2.9439
  100SOL    HW2  300   2.444   0.374   2.173 -0.9413 -1.4318 -0.3301
  101SOL     OW  301   0.396   1.465   0.434  0.1292 -0.4526  0.0437
  101SOL    HW1  302   0.396   1.502   0.530 -0.8789  0.3706 -1.2453
  101SOL    HW2  303   0.493   1.444   0.400 -0.8408 -2.1098  2.4937
  102SOL     OW  304   2.243   1.034   0.855 -0.1015  0.2672 -0.1690
  102SOL    HW1  305   2.178   0.953   0.835 -1.9205 -3.2688 -0.2256
  102SOL    HW2  306   2.292   1.061   0.767 -1.2049  0.3413  1.2615
  103SOL     OW  307   2.259   0.082   0.413 -0.1055  0.4325  0.1198
  103SOL    HW1  308   2.280   0.184   0.402  1.2658 -1.3423  0.6742
  103SOL    HW2  309   2.345   0.040   0.458  0.7331 -2.4252  1.4648
  104SOL     OW  310   0.079   1.768   2.193  0.5796  0.2711 -0.1556
  104SOL    HW1  311   0.134   1.723   2.120  0.5947  1.8950 -0.6832
  104SOL    HW2  312  -0.020   1.794   2.162  1.7465 -1.0910 -1.3066
  105SOL     OW  313   1.255   2.086   0.785  0.6513  0.1412 -0.1084
  105SOL    HW1  314   1.158   2.082   0.748  0.5124 -2.8671  1.1184
  105SOL    HW2  315   1.301   1.991   0.790  0.7817 -0.8393  0.4938
  106SOL     OW  316   2.089   0.419   1.404 -0.0401 -0.0002  0.2823
  106SOL    HW1  317   2.032   0.333   1.397  1.7214  0.0228 -1.3252
  106SOL    HW2  318   2.089   0.458   1.502 -0.5139  2.4184 -0.9475
  107SOL     OW  319   1.817   2.974   1.195  0.0551 -0.8884  0.8132
  107SOL    HW1  320   1.834   3.064   1.243  1.1920 -1.5953 -0.5684
  107SOL    HW2  321   1.730   2.931   1.219  1.5079  0.3957  1.2890
  108SOL     OW  322   0.761   2.761   1.268  0.0746  0.0405  0.0802
  108SOL    HW1  323   0.735   2.735   1.364  1.9510 -0.6979  1.7049
  108SOL    HW2  324   0.865   2.774   1.261  1.6948  0.8842 -0.4240
  109SOL     OW  325   2.135   0.097   0.806  0.2455 -0.1024  0.2393
  109SOL    HW1  326   2.045   0.101   0.751  1.2150  0.1520 -0.3598
  109SOL    HW2  327   2.127   0.056   0.899 -1.7050 -0.2144 -0.5504
  110SOL     OW  328   0.452   2.843   2.782  0.3355  0.5254 -0.3506
  110SOL    HW1  329   0.438   2.821   2.682 -1.6585 -0.7628 -0.4481
  110SOL    HW2  330   0.520   2.777   2.824  2.5215 -2.5120  0.2186
  111SOL     OW  331   1.306   0.520   2.314 -0.3576 -0.8456  0.2919
  111SOL    HW1  332   1.237   0.576   2.368 -0.2833  0.4694  1.5188
  111SOL    HW2  333   1.345   0.441   2.370 -0.9393  0.3664 -1.2836
  112SOL     OW  334   1.664   0.513   1.447  0.1164 -0.2605  0.0758
  112SOL    HW1  335   1.699   0.503   1.351  0.8947  0.1512  0.5920
  112SOL    HW2  336   1.638   0.428   1.504 -0.2493 -1.8537  0.4466
  113SOL     OW  337   2.308   1.681   1.765 -0.2076  0.3965  0.2889
  113SOL    HW1  338   2.362   1.596   1.734  0.7464  1.7040 -0.4083
  113SOL    HW2  339   2.310   1.692   1.870  0.9402  3.1035  0.8720
  114SOL     OW  340   0.406   0.554   1.266  0.0036 -0.1286  0.5977
  114SOL    HW1  341   0.424   0.595   1.170 -1.1253  0.8827 -1.1294
  114SOL    HW2  342   0.307   0.540   1.291 -3.3178 -0.3884 -0.1197
  115SOL     OW  343   2.726   1.611   1.205 -0.2087  0.3462 -0.1805
  115SOL    HW1  344   2.729   1.510   1.206 -2.5485  2.9558 -0.2849
  115SOL    HW2  345   2.795   1.648   1.131  1.2102 -1.9898 -1.6298
  116SOL     OW  346   1.801   1.065   0.657 -0.2422  0.0122 -0.7083
  116SOL    HW1  347   1.724   0.997   0.633  1.3398 -1.5971 -1.2870
  116SOL    HW2  348   1.770   1.149   0.714  3.1771  0.6892  0.5938
  117SOL     OW  349   1.213   0.347   0.570 -0.3147 -0.7780  0.1047
  117SOL    HW1  350   1.242   0.435   0.619  0.4961 -0.9623  1.6682
  117SOL    HW2  351   1.231   0.358   0.475 -0.4236 -1.4435  1.1055
  118SOL     OW  352   1.173   1.083   1.119  0.0645 -0.5921  0.4573
  118SOL    HW1  353   1.125   1.034   1.194  1.8418 -1.9336 -2.7288
  118SOL    HW2  354   1.188   1.190   1.140 -1.2308  1.2035 -2.0279
  119SOL     OW  355   1.821   1.611   2.175  0.0486  0.7340  0.0918
  119SOL    HW1  356   1.777   1.702   2.160  0.2533 -0.8980 -3.9133
  119SOL    HW2  357   1.925   1.617   2.176  0.5782  0.6776  0.9756
  120SOL     OW  358   2.956   2.875   0.121  0.0579 -0.5954  0.0177
  120SOL    HW1  359   3.023   2.839   0.053  2.1173 -0.3097  2.8599
  120SOL    HW2  360   2.861   2.825   0.127 -3.5124 -0.5818  0.8036
  121SOL     OW  361   2.004   0.748   2.216  0.1502  0.0190  0.8913
  121SOL    HW1  362   2.001   0.792   2.118 -0.8117 -0.0371 -0.1988
  121SOL    HW2  363   2.034   0.651   2.213 -0.6733 -0.3196 -0.4421
  122SOL     OW  364   2.579   2.624   1.279 -0.4338 -0.4203  0.5539
  122SOL    HW1  365   2.615   2.535   1.241 -0.5878 -2.5321 -1.7961
  122SOL    HW2  366   2.485   2.643   1.241  0.5497 -0.6760  0.2616
  123SOL     OW  367   1.739   0.080   1.687  0.2411  0.0879 -0.0504
  123SOL    HW1  368   1.768   0.001   1.621  3.1704 -1.5510  0.1215
  123SOL    HW2  369   1.821   0.122   1.731 -3.0297 -1.3093 -0.0136
  124SOL     OW  370   0.077   0.472   1.098 -0.2391 -0.2469  0.4550
  124SOL    HW1  371   0.070   0.539   1.169  0.6229 -3.8367  0.1292
  124SOL    HW2  372   0.059   0.503   0.999 -0.7573  0.6398 -1.9737
  125SOL     OW  373   0.863   1.836   0.694 -0.0175  0.2434  0.0378
  125SOL    HW1  374   0.957   1.819   0.733 -0.0089  0.5111 -1.2607
  125SOL    HW2  375   0.796   1.878   0.765  0.1307  0.9912  2.8391
  126SOL     OW  376   1.853   2.275   2.377 -0.2983 -0.0687 -0.7913
  126SOL    HW1  377   1.909   2.247   2.294  2.3875  1.8557 -0.5605
  126SOL    HW2  378   1.797   2.194   2.417 -1.9714 -0.9550 -0.1420
  127SOL     OW  379   1.029   0.900   0.250 -0.1938  0.1135 -0.2987
  127SOL    HW1  380   1.015   0.956   0.335 -0.2600  0.1642 -0.5019
  127SOL    HW2  381   0.975   0.808   0.262 -0.3255 -1.0940 -0.3615
  128SOL     OW  382   0.953   0.211   1.392  0.8811 -0.2014  0.0090
  128SOL    HW1  383   0.950   0.291   1.317  4.3172 -0.5436 -0.0168
  128SOL    HW2  384   0.910   0.118   1.364 -0.6318 -3.2463 -0.6966
  129SOL     OW  385   1.836   0.663   1.880  0.0517 -0.5379  0.0574
  129SOL    HW1  386   1.843   0.667   1.774 -0.6355 -2.1513 -4.0675
  129SOL    HW2  387   1.862   0.751   1.926 -1.0867 -0.2328 -1.6215
  130SOL     OW  388   1.384   2.176   1.003 -0.0362 -0.3590 -0.2644
  130SOL    HW1  389   1.333   2.157   0.913  2.1467  2.2886 -3.5547
  130SOL    HW2  390   1.461   2.249   0.996 -0.8965  2.4867  1.3258
  131SOL     OW  391   3.025   1.440   1.396 -0.6012 -0.4422 -0.2313
  131SOL    HW1  392   2.970   1.356   1.424 -0.5892 -1.9035 -0.6351
  131SOL    HW2  393   3.127   1.428   1.393  0.0913 -3.1520  0.1725
  132SOL     OW  394   2.052   2.432   0.523 -0.0429 -0.1080 -0.4333
  132SOL    HW1  395   1.956   2.470   0.556 -1.8211  0.8304 -0.7727
  132SOL    HW2  396   2.075   2.345   0.566  0.9764  2.0992  1.2069
  133SOL     OW  397   1.844   2.331   2.791 -0.8210 -0.0379 -0.6279
  133SOL    HW1  398   1.793   2.298   2.706  2.1321  0.2605 -3.5737
  133SOL    HW2  399   1.943   2.355   2.781 -0.3858 -0.8877 -0.8447
  134SOL     OW  400   2.651   2.344   1.587 -0.0189 -0.3670 -0.3748
  134SOL    HW1  401   2.591   2.320   1.668  1.0760 -2.4893  0.0998
  134SOL    HW2  402   2.721   2.421   1.602  0.3164 -0.8484  1.2793
  135SOL     OW  403   0.664   1.463   2.633  0.8328 -0.0415 -0.5555
  135SOL    HW1  404   0.601   1.394   2.681  1.4854 -0.0598  1.7613
  135SOL    HW2  405   0.707   1.428   2.548 -2.9899  3.3715  1.4971
  136SOL     OW  406   1.212   2.024   0.425 -0.8206 -0.1807  0.1782
  136SOL    HW1  407   1.132   2.086   0.462 -1.5502  1.1368  1.5899
  136SOL    HW2  408   1.190   1.921   0.431 -0.8082 -1.7962  1.3346
  137SOL     OW  409   0.401   1.196   2.154 -0.2991 -0.2848  0.4829
  137SOL    HW1  410   0.312   1.169   2.202  0.2717  1.6458 -1.9565
  137SOL    HW2  411   0.481   1.125   2.163  1.2672  0.7859  0.1303
  138SOL     OW  412   2.498   1.485   0.239  0.3278 -0.2170  0.3920
  138SOL    HW1  413   2.405   1.442   0.213 -0.5011  0.0602 -2.2254
  138SOL    HW2  414   2.561   1.432   0.303  0.3093  1.2517  0.7822
  139SOL     OW  415   1.849   2.597   1.318  0.8113  0.2954  0.3957
  139SOL    HW1  416   1.748   2.604   1.343 -0.3340  0.1917  2.0663
  139SOL    HW2  417   1.874   2.493   1.321 -0.2712 -1.9478 -1.5219
  140SOL     OW  418   3.044   3.011   2.551 -0.4732 -0.2085 -0.2211
  140SOL    HW1  419   3.100   2.920   2.539 -1.1569 -0.6203  0.9019
  140SOL    HW2  420   3.099   3.101   2.544 -1.3607  0.4537 -2.7645
  141SOL     OW  421   1.341   1.660   1.611 -0.1062  0.2820  0.1930
  141SOL    HW1  422   1.245   1.681   1.647  0.2455  0.2085  0.3790
  141SOL    HW2  423   1.385   1.572   1.644 -1.7333 -1.3839 -1.5093
  142SOL     OW  424   1.566   0.616   2.259  0.1008  0.4576  0.1168
  142SOL    HW1  425   1.580   0.587   2.158 -0.7696 -1.8552 -1.4421
  142SOL    HW2  426   1.467   0.617   2.283 -2.2231 -2.1819 -2.7477
  143SOL     OW  427   2.686   0.885   0.503  0.0605 -0.1724 -0.0088
  143SOL    HW1  428   2.743   0.917   0.418  0.3450 -0.9886  0.4731
  143SOL    HW2  429   2.741   0.892   0.591 -2.4150  0.2049 -2.0892
  144SOL     OW  430   2.917   1.185   1.467  0.4029  0.5759  0.1516
  144SOL    HW1  431   2.842   1.184   1.537 -0.9389  2.8130  0.6084
  144SOL    HW2  432   2.984   1.113   1.490  1.4571 -0.1809 -0.3730
  145SOL     OW  433   0.975   1.830   0.217  0.2417  0.0864  0.6137
  145SOL    HW1  434   1.038   1.893   0.164 -0.5268  0.2276 -0.4410
  145SOL    HW2  435   0.947   1.740   0.170 -0.6313  1.2675 -1.3797
  146SOL     OW  436   2.515   0.633   1.487  0.1238 -0.1078 -0.0464
  146SOL    HW1  437   2.476   0.535   1.479 -4.9927 -1.1203  0.8423
  146SOL    HW2  438   2.448   0.699   1.442 -2.4891  1.2283 -0.8799
  147SOL     OW  439   1.121   2.481   0.612  0.1903 -0.2558 -0.4684
  147SOL    HW1  440   1.107   2.557   0.543  3.2118 -3.4149 -2.5461
  147SOL    HW2  441   1.208   2.421   0.592 -1.1003  1.2264 -3.0512
  148SOL     OW  442   1.626   1.468   3.090  0.3589  0.2971  0.4102
  148SOL    HW1  443   1.630   1.395   3.014  0.1647 -2.1231  1.6157
  148SOL    HW2  444   1.585   1.439   3.184  1.1748 -2.0530  2.2377
  149SOL     OW  445   0.704   1.394   1.991 -0.2571  0.3393  0.3150
  149SOL    HW1  446   0.601   1.397   1.995  0.0316  3.2980  1.5282
  149SOL    HW2  447   0.738   1.368   1.898 -0.6455  0.3164 -0.6271
  150SOL     OW  448   3.012   1.223   0.940  0.2907  0.2623 -0.0033
  150SOL    HW1  449   3.067   1.252   1.023 -1.0297 -1.4296 -1.1024
  150SOL    HW2  450   2.961   1.135   0.963 -3.0224  3.5201 -0.2156
  151SOL     OW  451   0.146   0.693   2.085 -0.1011 -0.6229 -0.7420
  151SOL    HW1  452   0.163   0.778   2.028  3.1903 -0.3616  1.5044
  151SOL    HW2  453   0.181   0.609   2.036 -0.2265  0.5436  0.1010
  152SOL     OW  454   1.468   1.780   1.271  0.3625  0.0542 -0.8813
  152SOL    HW1  455   1.526   1.870   1.269  0.4289  0.8412 -0.0542
  152SOL    HW2  456   1.368   1.796   1.252 -0.7033 -0.1362 -0.1071
  153SOL     OW  457   0.086   1.567   0.152  0.4870  0.5093  0.0912
  153SOL    HW1  458   0.058   1.476   0.194  1.6225  1.3725  1.1450
  153SOL    HW2  459   0.058   1.638   0.222  3.2893  2.6962  1.0643
  154SOL     OW  460   2.383   1.821   2.830 -0.2065  0.2021  0.1317
  154SOL    HW1  461   2.429   1.728   2.853  2.2677 -2.3047  0.6614
  154SOL    HW2  462   2.431   1.867   2.751 -0.1133  2.2182 -0.6479
  155SOL     OW  463   2.467   1.197   0.397  0.0570  0.2064 -0.1006
  155SOL    HW1  464   2.529   1.119   0.371 -0.6272  0.4275 -0.7730
  155SOL    HW2  465   2.372   1.192   0.348 -0.0054 -4.2563 -1.0935
  156SOL     OW  466   2.551   0.967   0.829 -0.2135 -0.6368 -0.1517
  156SOL    HW1  467   2.459   0.998   0.874 -2.4431  0.4999 -2.2126
  156SOL    HW2  468   2.566   1.013   0.738  0.8518  1.2084  2.5669
  157SOL     OW  469   1.246   2.938   2.998 -0.4933  0.3536 -0.4679
  157SOL    HW1  470   1.336   2.901   2.980  0.4926  0.1115  0.8331
  157SOL    HW2  471   1.249   3.040   3.005 -0.1169 -1.5771 -1.1872
  158SOL     OW  472   0.970   1.849   1.908 -0.1792  0.3337 -0.3199
  158SOL    HW1  473   0.997   1.946   1.875  0.6536 -0.2974 -0.3488
  158SOL    HW2  474   0.883   1.850   1.963  2.6410  0.3573 -1.1648
  159SOL     OW  475   0.874   0.392   1.215  0.6768  0.4426 -0.4496
  159SOL    HW1  476   0.836   0.477   1.270 -2.1155  2.3108  1.8053
  159SOL    HW2  477   0.802   0.334   1.170  0.0980 -0.8709  0.4573
  160SOL     OW  478   1.409   2.380   1.586 -0.6006  0.6946  0.1171
  160SOL    HW1  479   1.352   2.307   1.628  3.7800  2.4214  1.6526
  160SOL    HW2  480   1.502   2.349   1.553  0.8802  2.4190  1.6462
  161SOL     OW  481   0.080   2.951   0.391 -0.1835  0.4104  0.4750
  161SOL    HW1  482   0.002   2.884   0.371 -0.4890 -2.9568  0.9789
  161SOL    HW2  483   0.091   3.034   0.332  1.1656 -0.3640  1.3655
  162SOL     OW  484   2.578   1.882   0.489 -0.0168  0.0302  0.6026
  162SOL    HW1  485   2.554   1.835   0.396 -1.2276 -1.4141  1.7394
  162SOL    HW2  486   2.546   1.820   0.572  0.2339 -0.5557  2.4985
  163SOL     OW  487   1.922   2.811   0.717  0.4037 -0.4994 -0.0920
  163SOL    HW1  488   1.917   2.820   0.613 -1.8016 -1.2988  0.2197
  163SOL    HW2  489   1.977   2.728   0.750 -0.2130 -3.5716  1.0945
  164SOL     OW  490   3.049   0.230   1.252  0.0254 -0.2444  0.1568
  164SOL    HW1  491   3.091   0.315   1.219  0.2699 -2.2181  4.0925
  164SOL    HW2  492   3.109   0.176   1.312 -3.6269 -2.0601 -0.7117
  165SOL     OW  493   0.957   1.379   0.727 -0.4459 -0.9412 -0.0121
  165SOL    HW1  494   0.924   1.432   0.809 -2.2798 -0.1605 -3.6006
  165SOL    HW2  495   0.969   1.435   0.634 -1.2636  1.8969 -1.5636
  166SOL     OW  496   1.539   1.071   1.740 -0.2338  0.2753 -0.3060
  166SOL    HW1  497   1.466   1.036   1.806 -1.9678 -1.3103  0.8955
  166SOL    HW2  498   1.590   1.157   1.774  3.3947 -0.1113  1.2707
  167SOL     OW  499   0.732   2.003   1.431  0.1277 -0.2905  0.5977
  167SOL    HW1  500   0.749   2.085   1.488  0.4171 -0.6925 -0.3199
  167SOL    HW2  501   0.713   1.918   1.488  3.4389 -1.8142  1.3247
  168SOL     OW  502   1.651   2.360   0.156 -0.7453  0.2117 -0.0223
  168SOL    HW1  503   1.689   2.396   0.065 -2.3515  2.0236 -5.2186
  168SOL    HW2  504   1.715   2.360   0.238  1.3433 -0.4889  2.1343
  169SOL     OW  505   0.225   2.556   2.230 -0.0332 -0.1965 -0.5223
  169SOL    HW1  506   0.224   2.522   2.133  1.1787  0.5277 -2.5066
  169SOL    HW2  507   0.193   2.489   2.301  1.7399  0.0976  1.3353
  170SOL     OW  508   1.118   0.202   2.045 -0.8494  0.2304 -0.1237
  170SOL    HW1  509   1.190   0.184   2.113 -0.2222 -1.4138 -0.5270
  170SOL    HW2  510   1.143   0.174   1.948  1.1892 -1.7611 -1.8716
  171SOL     OW  511   0.186   0.781   2.362  0.1625  0.2089 -0.2384
  171SOL    HW1  512   0.101   0.790   2.417  0.7460 -2.8071 -3.0248
  171SOL    HW2  513   0.165   0.745   2.267 -2.4540 -0.6668  0.9309
  172SOL     OW  514   0.951   1.021   2.861  0.2705 -0.0451  0.0762
  172SOL    HW1  515   0.992   1.113   2.895 -0.3518 -0.0719  1.0494
  172SOL    HW2  516   0.903   1.025   2.769  1.2066  0.3785 -0.1453
  173SOL     OW  517   0.666   2.671   0.120 -0.2935 -0.4405  0.1318
  173SOL    HW1  518   0.655   2.771   0.161  2.4530  0.4124 -0.4427
  173SOL    HW2  519   0.587   2.647   0.052 -2.6405 -1.4736 -0.9829
  174SOL     OW  520   1.512   2.825   1.053  0.3348 -0.1354  0.0874
  174SOL    HW1  521   1.515   2.894   0.977 -0.6385 -1.3016  1.7197
  174SOL    HW2  522   1.497   2.723   1.021 -0.5289 -5.3827  1.7542
  175SOL     OW  523   0.448   3.061   1.675  0.1732 -0.7365  0.2354
  175SOL    HW1  524   0.516   3.105   1.738  0.0099 -2.5194 -0.7635
  175SOL    HW2  525   0.394   3.133   1.624  1.0415  1.9249  0.3030
  176SOL     OW  526   2.598   0.384   0.005 -0.2306 -0.0466  0.0050
  176SOL    HW1  527   2.613   0.473   0.055  0.2655  1.1185  0.5037
  176SOL    HW2  528   2.519   0.327   0.052 -3.4040  2.1876  1.3626
  177SOL     OW  529   0.329   0.313   0.934 -0.2731  0.3343 -0.0512
  177SOL    HW1  530   0.323   0.220   0.887  1.3500 -2.2571 -1.0053
  177SOL    HW2  531   0.240   0.342   0.982 -3.0862 -0.7420 -0.6929
  178SOL     OW  532   0.024   2.737   2.576  0.0524 -0.3632 -0.0901
  178SOL    HW1  533  -0.044   2.661   2.590  1.3630 -1.8168 -0.3426
  178SOL    HW2  534   0.097   2.734   2.651 -0.5451 -0.7874 -0.8264
  179SOL     OW  535   3.061   1.564   1.129  0.3528 -0.3683 -0.0851
  179SOL    HW1  536   3.016   1.652   1.145 -2.6471  0.9304 -0.6290
  179SOL    HW2  537   3.042   1.492   1.202 -2.2800  0.7218  0.7939
  180SOL     OW  538   0.181   1.227   1.847  0.1049  0.4738 -0.2947
  180SOL    HW1  539   0.272   1.177   1.866  1.7966 -2.0454  1.1390
  180SOL    HW2  540   0.147   1.287   1.928 -0.2285 -1.0799 -0.0249
  181SOL     OW  541   3.027   1.844   2.490 -0.2203  0.2658  0.4761
  181SOL    HW1  542   3.076   1.936   2.477 -1.8460  1.0610 -0.3789
  181SOL    HW2  543   2.943   1.840   2.431  1.6559  1.4297  1.4643
  182SOL     OW  544   2.323   1.280   1.156  0.0454 -0.5910 -0.8251
  182SOL    HW1  545   2.243   1.243   1.099  1.3886  0.1503  2.1116
  182SOL    HW2  546   2.329   1.379   1.147 -0.3905 -3.5170  0.5085
  183SOL     OW  547   1.440   2.249   2.598 -0.4057  0.1558 -0.0102
  183SOL    HW1  548   1.347   2.211   2.580  1.2977  0.9055 -0.4658
  183SOL    HW2  549   1.524   2.181   2.591  0.7193  0.7995 -2.0977
  184SOL     OW  550   1.987   0.872   0.733  0.3426  0.5120 -0.5515
  184SOL    HW1  551   1.914   0.948   0.725 -1.2398  3.6221  1.2926
  184SOL    HW2  552   1.960   0.793   0.799  1.5793 -0.9736  0.9308
  185SOL     OW  553   1.627   2.790   1.997 -0.1048  0.5609 -0.9409
  185SOL    HW1  554   1.557   2.867   2.005 -0.9472 -0.2683 -1.9752
  185SOL    HW2  555   1.661   2.766   2.094 -0.5921  1.8712 -0.6439
  186SOL     OW  556   0.111   2.253   1.650  0.0442  0.5948 -0.8386
  186SOL    HW1  557   0.066   2.277   1.745  0.1742  0.0419  1.1822
  186SOL    HW2  558   0.190   2.189   1.665 -0.4178 -1.0827  2.5656
  187SOL     OW  559   1.307   0.704   1.668  0.6616 -0.3172 -0.4047
  187SOL    HW1  560   1.377   0.731   1.597 -1.2408  0.4442  1.8447
  187SOL    HW2  561   1.352   0.704   1.763 -1.9584 -2.6426  0.2784
  188SOL     OW  562   2.772   2.762   1.425 -0.0122  0.4830  0.3651
  188SOL    HW1  563   2.754   2.867   1.428  0.7532 -0.7528 -0.4908
  188SOL    HW2  564   2.687   2.717   1.388  0.3183  1.1961 -0.4089
  189SOL     OW  565   0.948   1.202   1.442 -0.0271  0.0119  0.2292
  189SOL    HW1  566   1.030   1.245   1.488  1.4020  0.5500  2.6681
  189SOL    HW2  567   0.879   1.267   1.411  0.2125 -1.2516 -1.6504
  190SOL     OW  568   1.447   1.925   1.621 -0.6202  0.3841  0.1731
  190SOL    HW1  569   1.445   1.819   1.602  1.7654  0.3049 -1.1086
  190SOL    HW2  570   1.494   1.961   1.708 -1.2397  1.6781  1.8623
  191SOL     OW  571   0.950   0.714   1.571  0.0704 -0.1839 -0.4396
  191SOL    HW1  572   1.041   0.667   1.580 -1.0477  0.7124  1.7279
  191SOL    HW2  573   0.917   0.760   1.655  1.1727 -0.9552 -0.6066
  192SOL     OW  574   1.857   2.270   1.091 -0.1801  0.7556 -0.3967
  192SOL    HW1  575   1.768   2.281   1.042 -0.6000 -0.6730 -0.5337
  192SOL    HW2  576   1.934   2.313   1.040 -0.4593  0.8345 -1.3516
  193SOL     OW  577   0.578   0.582   0.453 -0.5259 -0.1770 -0.6440
  193SOL    HW1  578   0.531   0.492   0.489 -1.8719 -0.9952  2.0909
  193SOL    HW2  579   0.616   0.579   0.359  0.0419  1.0425  1.9814
  194SOL     OW  580   0.324   0.910   1.284 -0.1135 -0.1922  0.3227
  194SOL    HW1  581   0.242   0.847   1.275  1.1085 -1.9980  0.0018
  194SOL    HW2  582   0.336   0.973   1.198  1.3325  0.1764 -0.2620
  195SOL     OW  583   0.996   2.938   0.535 -0.3141  0.5513 -0.2028
  195SOL    HW1  584   1.025   2.842   0.497 -1.9020 -0.8894  0.3909
  195SOL    HW2  585   1.087   2.990   0.557  2.2161  1.7471 -1.0115
  196SOL     OW  586   0.216   1.318   1.370 -0.5955 -0.1230 -0.0890
  196SOL    HW1  587   0.227   1.419   1.390 -0.5212  0.3186  1.3758
  196SOL    HW2  588   0.209   1.259   1.455  0.3220 -0.2094 -1.6322
  197SOL     OW  589   0.842   2.064   0.264  0.7525 -0.5621  0.2760
  197SOL    HW1  590   0.831   2.074   0.364  0.0649  0.7636 -1.0200
  197SOL    HW2  591   0.861   1.966   0.239 -0.1705 -0.3171 -1.6650
  198SOL     OW  592   0.290   1.275   0.276 -0.3481  0.3953  0.3913
  198SOL    HW1  593   0.183   1.271   0.252 -0.4922  1.3486 -0.2188
  198SOL    HW2  594   0.316   1.348   0.346  1.3716 -0.3977  0.5722
  199SOL     OW  595   2.284   0.356   2.496  0.1900 -0.1768 -0.3476
  199SOL    HW1  596   2.199   0.316   2.542 -1.6378 -1.4999  0.3633
  199SOL    HW2  597   2.366   0.353   2.552 -2.5613  0.9729 -1.8400
  200SOL     OW  598   0.010   2.939   0.731 -0.1323  0.3254 -0.5285
  200SOL    HW1  599  -0.054   2.942   0.651  0.9959 -0.0927 -1.8017
  200SOL    HW2  600   0.096   2.984   0.704 -1.3557  3.5258 -0.1141
  201SOL     OW  601   1.084   0.751   0.597 -0.7146 -0.2592 -0.3730
  201SOL    HW1  602   1.115   0.791   0.687  0.3663  1.9140  0.8361
  201SOL    HW2  603   1.024   0.665   0.608 -0.2181 -3.4153 -5.1698
  202SOL     OW  604   0.425   1.086   1.901 -0.2330 -0.3285  0.5624
  202SOL    HW1  605   0.476   0.998   1.907 -3.0618  2.5231 -1.5025
  202SOL    HW2  606   0.424   1.143   1.986  2.4093 -0.3862 -2.0703
  203SOL     OW  607   0.655   0.222   1.507  0.2993  0.3491 -0.4612
  203SOL    HW1  608   0.732   0.227   1.440 -1.6516  0.8701  0.3124
  203SOL    HW2  609   0.684   0.189   1.601 -0.3140  1.4048 -0.7683
  204SOL     OW  610   2.087   1.803   2.878  0.0676  0.0250  0.0681
  204SOL    HW1  611   2.054   1.710   2.902  1.9121  0.7349 -0.5878
  204SOL    HW2  612   2.180   1.803   2.829  2.2863 -1.9099 -0.9889
  205SOL     OW  613   1.837   1.885   3.025  0.2425 -0.1073 -0.3251
  205SOL    HW1  614   1.919   1.891   2.958 -0.5603  2.2043 -0.1159
  205SOL    HW2  615   1.790   1.978   3.046 -0.1263  1.8628 -1.2214
  206SOL     OW  616   2.496   2.824   0.328 -0.2657 -0.0237 -0.2074
  206SOL    HW1  617   2.526   2.734   0.367  0.3861  0.3425  1.1793
  206SOL    HW2  618   2.568   2.864   0.268  0.4637  0.3283  2.7596
  207SOL     OW  619   0.676   1.827   3.007  0.5552  0.1382 -0.2392
  207SOL    HW1  620   0.735   1.762   2.954  1.3118  1.0407  2.8926
  207SOL    HW2  621   0.627   1.774   3.078  0.4810  1.1899 -0.3444
  208SOL     OW  622   1.092   1.576   1.386  0.1812  0.3469  0.0060
  208SOL    HW1  623   1.066   1.668   1.354  1.0051 -1.6118  2.1351
  208SOL    HW2  624   1.175   1.580   1.448  0.9025 -0.2237 -0.2244
  209SOL     OW  625   0.223   0.928   3.033  0.6208  0.3108  0.2630
  209SOL    HW1  626   0.232   0.829   2.995 -3.2979 -0.7092  1.0891
  209SOL    HW2  627   0.200   0.931   3.136 -2.5883  1.3015 -0.9212
  210SOL     OW  628   1.777   0.478   1.193 -0.3900 -0.2505 -0.0807
  210SOL    HW1  629   1.740   0.570   1.156 -2.0458  0.6427  1.3229
  210SOL    HW2  630   1.876   0.469   1.173  0.7984  0.7790  0.0953
  211SOL     OW  631   2.110   1.091   1.577 -0.4003 -0.1200  0.4936
  211SOL    HW1  632   2.167   1.031   1.641 -0.8375  1.3445  1.5697
  211SOL    HW2  633   2.163   1.151   1.509 -1.0488 -0.1614 -2.1801
  212SOL     OW  634   0.024   0.957   1.494 -0.5098  0.0376  0.4605
  212SOL    HW1  635   0.075   1.033   1.545  0.2298 -0.8332 -0.9852
  212SOL    HW2  636   0.020   0.874   1.555 -0.9554  0.3308  1.1071
  213SOL     OW  637   2.823   0.234   0.373  0.1059 -0.4898  0.0512
  213SOL    HW1  638   2.872   0.161   0.325 -4.0570  0.4323  0.9056
  213SOL    HW2  639   2.728   0.238   0.329 -0.3259 -3.9002 -1.5518
  214SOL     OW  640   2.176   0.240   2.279  0.7559  0.2568  0.0952
  214SOL    HW1  641   2.216   0.303   2.352  1.3606  0.9294  1.2089
  214SOL    HW2  642   2.151   0.145   2.318 -1.0735 -2.8901 -3.4811
  215SOL     OW  643   1.609   2.267   2.122 -0.4652  0.7939 -0.0537
  215SOL    HW1  644   1.702   2.292   2.077  2.0947 -0.1345  0.5803
  215SOL    HW2  645   1.553   2.350   2.154 -0.7726 -1.1777 -0.3139
  216SOL     OW  646   2.185   0.615   0.688 -0.4199  0.1742  0.3923
  216SOL    HW1  647   2.148   0.526   0.649 -0.5903 -1.0036  1.5749
  216SOL    HW2  648   2.145   0.691   0.633  1.4078 -1.6996  0.4946
  217SOL     OW  649   0.759   2.774   2.423  0.1454  0.2210 -0.2114
  217SOL    HW1  650   0.742   2.698   2.494 -1.2545 -0.6678 -0.9212
  217SOL    HW2  651   0.728   2.744   2.330 -2.4452 -0.8864  1.2471
  218SOL     OW  652   1.901   1.423   0.016 -0.0515  0.1607 -0.1861
  218SOL    HW1  653   1.813   1.463  -0.008  1.4297 -3.2804 -0.6781
  218SOL    HW2  654   1.889   1.346   0.081 -0.0018 -0.6130 -1.2065
  219SOL     OW  655   2.423   1.276   2.528  0.4248  0.2029 -0.6851
  219SOL    HW1  656   2.485   1.222   2.462 -1.7647 -1.1460 -0.6391
  219SOL    HW2  657   2.414   1.226   2.619  0.8776  1.2867  1.9441
  220SOL     OW  658   1.500   1.050   1.248 -0.0472  0.0304  0.0416
  220SOL    HW1  659   1.602   1.063   1.261  1.3339 -1.6034 -2.4667
  220SOL    HW2  660   1.472   1.095   1.159  0.9145  0.9532 -0.1698
  221SOL     OW  661   1.312   1.004   2.196 -0.7284  0.0228 -0.3339
  221SOL    HW1  662   1.265   1.005   2.105 -2.0403 -1.8116  0.5456
  221SOL    HW2  663   1.416   1.000   2.186 -1.2652 -1.2015  1.0561
  222SOL     OW  664   1.101   0.021   1.166  0.1695  0.6176  0.1073
  222SOL    HW1  665   1.147   0.042   1.250 -1.7917 -1.1008 -1.5518
  222SOL    HW2  666   1.110   0.091   1.090  0.4136  1.5007  2.7442
  223SOL     OW  667   2.744   0.941   2.075 -0.0131  0.1962  0.9916
  223SOL    HW1  668   2.698   1.030   2.105  0.2565  3.5456 -2.1650
  223SOL    HW2  669   2.835   0.927   2.124 -1.2147  0.8042  2.1863
  224SOL     OW  670   1.520   1.050   2.772  0.0071 -0.0044 -0.1531
  224SOL    HW1  671   1.570   0.976   2.725  0.9003  1.7962  0.5019
  224SOL    HW2  672   1.476   1.115   2.700 -0.6677  1.5734 -3.3235
  225SOL     OW  673   2.929   2.767   2.871  0.0095 -0.1453  0.3458
  225SOL    HW1  674   2.877   2.685   2.836  0.1555  2.7336 -1.4353
  225SOL    HW2  675   2.979   2.814   2.791 -1.4301  0.8074 -3.1802
  226SOL     OW  676   2.503   1.577   2.875  0.0032  0.1877  0.7513
  226SOL    HW1  677   2.512   1.569   2.769  2.4389 -1.1464 -1.3641
  226SOL    HW2  678   2.417   1.536   2.920  0.4972  2.4434 -1.3849
  227SOL     OW  679   0.863   0.136   0.036  0.1502 -0.3920 -0.0531
  227SOL    HW1  680   0.939   0.068   0.043  0.6422  1.8799 -1.5394
  227SOL    HW2  681   0.807   0.141  -0.050  0.0938  2.3404  1.3193
  228SOL     OW  682   2.408   0.616   2.847  0.3765 -0.6340 -0.3260
  228SOL    HW1  683   2.386   0.646   2.752  1.7832 -0.1407  1.2953
  228SOL    HW2  684   2.508   0.578   2.856 -0.1537  2.7796  0.6147
  229SOL     OW  685   0.580   0.471   1.877 -0.1945 -0.0237  0.0792
  229SOL    HW1  686   0.559   0.367   1.867 -0.8953  0.2998  1.7751
  229SOL    HW2  687   0.629   0.494   1.788  2.0392  2.8786  0.5735
  230SOL     OW  688   1.888   1.145   2.062 -0.5932  0.4220  0.1162
  230SOL    HW1  689   1.968   1.206   2.052  0.7480 -4.2206  1.0133
  230SOL    HW2  690   1.804   1.188   2.104  1.1804 -0.9945 -0.3131
  231SOL     OW  691   0.623   1.020   0.010 -0.1853 -0.1374  0.7342
  231SOL    HW1  692   0.723   1.032   0.026 -1.3051  0.0702 -1.2121
  231SOL    HW2  693   0.567   1.105   0.033 -1.6290 -1.3997  1.8082
  232SOL     OW  694   2.360   3.087   2.886  0.6932 -0.2602 -0.3056
  232SOL    HW1  695   2.395   2.988   2.889  0.1836  0.3049 -0.2307
  232SOL    HW2  696   2.412   3.146   2.821 -0.6994  0.5665  0.6504
  233SOL     OW  697   1.703   1.280   1.137 -0.2242 -0.6215 -0.8281
  233SOL    HW1  698   1.744   1.275   1.045  3.4721 -0.6604 -0.1468
  233SOL    HW2  699   1.723   1.196   1.194 -1.5936 -0.8293 -0.1708
  234SOL     OW  700   1.560   2.545   1.868 -0.1756 -0.2918 -0.1145
  234SOL    HW1  701   1.594   2.624   1.929  0.4617 -0.6779  0.1339
  234SOL    HW2  702   1.481   2.491   1.904  0.2546  2.8507 -1.5807
  235SOL     OW  703   3.103   3.011   2.806  0.1773  0.1733  0.0025
  235SOL    HW1  704   3.063   3.032   2.714 -0.0817  0.5327 -0.6934
  235SOL    HW2  705   3.038   3.053   2.880 -2.6807  2.9455  0.1011
  236SOL     OW  706   2.902   0.738   0.087  0.2985 -0.0633  0.1219
  236SOL    HW1  707   2.976   0.784   0.144 -0.8222  2.2306  0.6637
  236SOL    HW2  708   2.933   0.648   0.038  2.8806  1.7434 -2.8225
  237SOL     OW  709   1.525   1.676   1.005  0.4339 -0.2698 -0.0500
  237SOL    HW1  710   1.629   1.667   0.989 -1.1027  1.3770  1.3589
  237SOL    HW2  711   1.502   1.707   1.104  0.3264 -0.3242  3.3118
  238SOL     OW  712   1.783   1.276   0.852 -0.3507  0.1458  0.2120
  238SOL    HW1  713   1.865   1.330   0.889  0.8477  2.1394  0.7256
  238SOL    HW2  714   1.708   1.333   0.814 -0.4223 -0.5818  0.4683
  239SOL     OW  715   2.072   0.277   2.649  0.8036  0.5552 -0.2636
  239SOL    HW1  716   2.129   0.258   2.732 -0.3166 -0.2671  0.4744
  239SOL    HW2  717   1.988   0.331   2.679 -1.8290 -2.6403  1.2751
  240SOL     OW  718   0.917   0.643   0.310  0.0062  0.2227  0.1517
  240SOL    HW1  719   0.966   0.562   0.265 -1.0898  0.0347  2.8440
  240SOL    HW2  720   0.909   0.636   0.413  1.6921 -1.6778  0.3436
  241SOL     OW  721   0.549   0.045   0.384  0.1626 -0.5378  0.4321
  241SOL    HW1  722   0.583   0.130   0.331  0.5790 -1.7368 -2.0045
  241SOL    HW2  723   0.552  -0.030   0.319  2.0649  3.2592  2.5394
  242SOL     OW  724   0.652   2.538   1.144 -0.5296 -0.5304  0.0908
  242SOL    HW1  725   0.624   2.543   1.241 -0.8548  0.9976 -1.3142
  242SOL    HW2  726   0.711   2.617   1.124 -1.5220 -0.5574  1.2511
  243SOL     OW  727   1.078   0.613   2.488 -0.0819  0.6398 -0.5855
  243SOL    HW1  728   0.990   0.660   2.461  3.2544 -0.4468 -1.0826
  243SOL    HW2  729   1.074   0.525   2.544 -1.1004  0.1484  1.2345
  244SOL     OW  730   2.838   1.898   2.317  0.2423  0.1997  0.5189
  244SOL    HW1  731   2.880   1.892   2.218 -0.6239 -2.8354 -1.4917
  244SOL    HW2  732   2.761   1.825   2.339  1.8534  1.7211  1.5997
  245SOL     OW  733   2.322   0.716   2.194 -0.3714  0.7519 -0.0032
  245SOL    HW1  734   2.400   0.709   2.253  0.2120  0.3885  0.3644
  245SOL    HW2  735   2.272   0.808   2.195  0.8123  1.7027  0.6844
  246SOL     OW  736   0.225   2.908   1.734  0.4519 -0.0044 -0.0714
  246SOL    HW1  737   0.158   2.893   1.654 -1.9708  0.9877  3.5091
  246SOL    HW2  738   0.308   2.964   1.702  2.1734  0.3010  0.1621
  247SOL     OW  739   2.234   0.594   3.063  0.8748  0.8186 -0.2772
  247SOL    HW1  740   2.311   0.586   2.999 -1.4595 -0.0725  3.1682
  247SOL    HW2  741   2.173   0.674   3.038  5.1872 -0.7106 -3.7028
  248SOL     OW  742   2.137   1.816   1.590  0.2499 -0.2250  0.2448
  248SOL    HW1  743   2.195   1.763   1.659  1.5863 -0.1836 -2.1522
  248SOL    HW2  744   2.041   1.828   1.615  3.4669 -0.6517 -1.0621
  249SOL     OW  745   1.848   1.945   1.921 -0.4010  0.4500  0.6299
  249SOL    HW1  746   1.865   1.903   1.824  1.6189  2.6484 -0.4251
  249SOL    HW2  747   1.933   1.993   1.954 -0.3995 -0.9904  1.6546
  250SOL     OW  748   1.132   0.716   1.920 -0.3491 -0.4900 -0.5357
  250SOL    HW1  749   1.159   0.624   1.966  0.4563 -0.5484  1.7603
  250SOL    HW2  750   1.162   0.726   1.823  0.9561 -1.4821 -0.9286
  251SOL     OW  751   0.060   1.583   2.470  0.0654 -0.0326  0.3731
  251SOL    HW1  752   0.066   1.680   2.430  1.2559 -1.5139 -2.0093
  251SOL    HW2  753  -0.043   1.563   2.495  1.7540  0.0134 -0.0573
  252SOL     OW  754   1.528   0.842   1.567  0.3243 -0.2834  0.0806
  252SOL    HW1  755   1.584   0.839   1.480 -1.7856 -0.3480  2.4151
  252SOL    HW2  756   1.551   0.922   1.636 -1.2402 -0.9384  0.8182
  253SOL     OW  757   0.962   1.548   0.503  0.0634  1.2214  0.8232
  253SOL    HW1  758   0.966   1.485   0.420  0.8113  0.2564 -0.7479
  253SOL    HW2  759   0.876   1.595   0.512  2.2285 -3.9207  1.0524
  254SOL     OW  760   2.042   2.152   1.622  0.6447  0.7075  0.7196
  254SOL    HW1  761   1.987   2.089   1.559  0.0387  1.5901  0.6966
  254SOL    HW2  762   1.978   2.187   1.696 -1.9076  0.9409 -0.4401
  255SOL     OW  763   0.139   1.131   2.881 -0.0409 -0.4093  0.6495
  255SOL    HW1  764   0.178   1.223   2.902 -0.7497 -1.0308 -3.0754
  255SOL    HW2  765   0.176   1.051   2.929 -0.2227 -0.4743 -2.9662
  256SOL     OW  766   2.788   1.362   1.777 -0.4183 -0.2416 -0.1094
  256SOL    HW1  767   2.692   1.399   1.775 -0.3051 -2.7816  1.8499
  256SOL    HW2  768   2.790   1.257   1.756  0.0113  0.2551  1.4366
  257SOL     OW  769   0.774   0.206   1.761 -0.2342 -0.2049  0.0704
  257SOL    HW1  770   0.833   0.279   1.718  0.6824 -2.0930 -0.7554
  257SOL    HW2  771   0.819   0.120   1.783 -2.3044  1.4751 -1.5582
  258SOL     OW  772   2.975   1.276   0.440  0.0933 -0.5444  0.2751
  258SOL    HW1  773   2.890   1.339   0.427 -1.0370  0.9883  0.4351
  258SOL    HW2  774   3.012   1.261   0.536 -2.8795 -1.8247 -2.1448
  259SOL     OW  775   0.468   2.959   3.044  0.2483  0.0812 -0.7012
  259SOL    HW1  776   0.383   2.934   3.091 -1.7714  0.1098 -0.6446
  259SOL    HW2  777   0.466   2.941   2.942  1.1153  1.1000  1.2471
  260SOL     OW  778   2.708   0.829   2.814 -0.0712 -0.2693  0.0945
  260SOL    HW1  779   2.613   0.824   2.761  1.2994  2.2307 -1.9364
  260SOL    HW2  780   2.696   0.843   2.917  2.0279  0.5247  0.6736
  261SOL     OW  781   2.749   1.340   1.231  0.4116  0.4046  0.1255
  261SOL    HW1  782   2.689   1.278   1.175  2.4335 -1.4825 -2.1900
  261SOL    HW2  783   2.839   1.301   1.258 -0.4755  1.6221 -1.3271
  262SOL     OW  784   1.420   2.964   2.040  0.4914 -0.1326  0.1273
  262SOL    HW1  785   1.445   3.044   1.977 -2.6680  0.3533  0.1873
  262SOL    HW2  786   1.331   2.916   2.016  0.3485 -0.0017 -1.4157
  263SOL     OW  787   0.843   0.714   2.354  0.1759 -0.7470  0.7309
  263SOL    HW1  788   0.812   0.618   2.319 -0.8197  0.4469 -4.3996
  263SOL    HW2  789   0.888   0.764   2.273 -0.3618 -1.9413 -1.5446
  264SOL     OW  790   2.202   0.825   0.398  0.3386 -0.3371  0.5661
  264SOL    HW1  791   2.218   0.735   0.336 -1.6052 -2.5671 -1.1669
  264SOL    HW2  792   2.300   0.863   0.407  2.2154 -0.4303  1.1032
  265SOL     OW  793   0.915   2.384   2.633  0.2526 -0.0948 -0.2357
  265SOL    HW1  794   0.994   2.422   2.695 -2.2911 -2.8500  0.1236
  265SOL    HW2  795   0.895   2.287   2.662 -1.0419  0.6574 -1.8873
  266SOL     OW  796   1.328   1.706   0.016 -0.4397  0.7936  0.5787
  266SOL    HW1  797   1.314   1.787   0.084 -1.3806  2.6916  1.5345
  266SOL    HW2  798   1.425   1.702  -0.030  1.1323 -0.6406 -0.9449
  267SOL     OW  799   0.988   3.072   2.359  0.3355  0.8015 -0.1456
  267SOL    HW1  800   0.985   3.000   2.287 -1.5762 -1.3706  1.7255
  267SOL    HW2  801   0.924   3.151   2.339 -0.4416  0.8362 -1.0539
  268SOL     OW  802   0.608   1.208   1.054 -0.6246  0.0290 -0.2514
  268SOL    HW1  803   0.648   1.249   1.139 -3.0106  0.9435 -3.8516
  268SOL    HW2  804   0.628   1.260   0.964 -0.1784  3.8383 -0.8582
  269SOL     OW  805   2.350   2.528   1.609  0.1853  0.3911 -0.1483
  269SOL    HW1  806   2.403   2.435   1.607 -0.5327 -1.5549  2.2952
  269SOL    HW2  807   2.324   2.552   1.709 -0.1431  0.7658  1.5825
  270SOL     OW  808   0.191   2.931   1.998  0.2206 -0.5095  0.4244
  270SOL    HW1  809   0.209   2.894   1.900 -1.3837  0.0364 -1.0195
  270SOL    HW2  810   0.194   2.858   2.074 -2.5710 -1.7327 -0.1131
  271SOL     OW  811   0.399   1.366   1.189  0.3701  0.0064  0.0984
  271SOL    HW1  812   0.377   1.380   1.086 -1.4262  3.0708 -1.2868
  271SOL    HW2  813   0.325   1.311   1.241  0.8772 -1.7329  1.1323
  272SOL     OW  814   1.991   2.878   1.964  0.0472 -0.4655 -0.4414
  272SOL    HW1  815   1.936   2.810   1.909  0.7647  0.8103 -1.3316
  272SOL    HW2  816   2.064   2.927   1.902  3.2995  6.1191 -3.0173
  273SOL     OW  817   1.468   1.441   2.733  0.3282 -0.1588 -0.4544
  273SOL    HW1  818   1.378   1.475   2.766 -0.4478  0.8308 -1.6216
  273SOL    HW2  819   1.528   1.396   2.804 -1.0696 -0.0891  1.0461
  274SOL     OW  820   1.218   0.478   2.055 -0.1686  0.2989  0.3312
  274SOL    HW1  821   1.173   0.386   2.044 -2.3130  0.3798  0.7262
  274SOL    HW2  822   1.273   0.478   2.144 -3.0777  2.8315 -0.5717
  275SOL     OW  823   0.591   2.099   1.904  0.0238 -0.1722  0.1516
  275SOL    HW1  824   0.535   2.162   1.968  0.0661  0.9885 -0.0285
  275SOL    HW2  825   0.547   2.007   1.910  0.8311  1.8464 -1.7294
  276SOL     OW  826   2.195   0.934   2.747 -0.0575  0.3980 -0.2194
  276SOL    HW1  827   2.114   0.913   2.689 -0.6485  0.3396  3.3076
  276SOL    HW2  828   2.173   0.908   2.849  0.7344  1.4121  2.0484
  277SOL     OW  829   3.081   0.885   0.228  0.3131 -0.3262 -0.2707
  277SOL    HW1  830   3.170   0.943   0.233  1.8335  0.1196  0.8966
  277SOL    HW2  831   3.080   0.803   0.296 -0.1119 -0.1992  2.5657
  278SOL     OW  832   0.240   0.281   3.068 -0.1722 -0.6100  0.2849
  278SOL    HW1  833   0.314   0.224   3.015  2.4044  0.8920  2.7171
  278SOL    HW2  834   0.272   0.375   3.097 -0.2926  0.1372 -0.7462
  279SOL     OW  835   0.207   0.085   0.867  0.5135 -0.3616  0.1923
  279SOL    HW1  836   0.180   0.021   0.947  0.5461 -0.4119  0.0023
  279SOL    HW2  837   0.242   0.029   0.787 -1.2682  0.6899 -2.0655
  280SOL     OW  838   1.591   2.940   2.420  0.5568 -0.4408 -0.0692
  280SOL    HW1  839   1.663   2.991   2.475 -1.0388  1.6785 -0.5235
  280SOL    HW2  840   1.516   3.001   2.385  1.2139  1.0617  0.1926
  281SOL     OW  841   0.578   0.986   2.226 -0.0041  0.1946 -0.2307
  281SOL    HW1  842   0.581   0.893   2.181  1.9421  0.4637  1.2416
  281SOL    HW2  843   0.527   0.990   2.319 -0.2085  0.0453  0.8193
  282SOL     OW  844   1.782   2.494   0.528 -0.1395  0.1890 -0.1734
  282SOL    HW1  845   1.715   2.424   0.487  0.3705 -0.5728  2.4817
  282SOL    HW2  846   1.740   2.584   0.555 -0.5642 -0.7216  0.8750
  283SOL     OW  847   1.143   0.882   0.812  0.6308  0.4406 -0.2119
  283SOL    HW1  848   1.208   0.879   0.897 -0.2935  2.8214  2.9618
  283SOL    HW2  849   1.057   0.933   0.842 -0.2946  0.1351  2.4830
  284SOL     OW  850   2.281   2.745   2.544 -0.0096  0.8731  0.4928
  284SOL    HW1  851   2.361   2.766   2.483 -2.3137 -0.6381  4.6335
  284SOL    HW2  852   2.246   2.831   2.595  1.1491  3.8459 -0.7388
  285SOL     OW  853   1.309   3.044   2.600  0.2983  0.1759 -0.4683
  285SOL    HW1  854   1.326   3.062   2.495  0.5508 -3.0986  0.7077
  285SOL    HW2  855   1.211   3.069   2.628 -2.6061 -0.1653  2.0684
  286SOL     OW  856   0.439   0.458   0.743  0.3503  0.2076 -0.3958
  286SOL    HW1  857   0.393   0.413   0.823 -0.5331 -0.0230  0.0422
  286SOL    HW2  858   0.435   0.399   0.659 -0.2638  0.7099  0.3845
  287SOL     OW  859   0.097   1.301   2.506  0.2596 -0.5647 -0.5541
  287SOL    HW1  860   0.032   1.252   2.567 -1.8406  3.8255 -1.1943
  287SOL    HW2  861   0.100   1.402   2.530 -1.2919  3.6710  2.1136
  288SOL     OW  862   1.575   2.634   1.585 -0.3157 -0.5125  0.9919
  288SOL    HW1  863   1.588   2.587   1.681  3.4640 -0.7954 -0.8419
  288SOL    HW2  864   1.549   2.575   1.509  1.3215  2.2197 -3.4855
  289SOL     OW  865   0.669   2.694   0.873 -0.1243 -0.0645  0.5384
  289SOL    HW1  866   0.699   2.760   0.800  0.5019 -0.3436 -0.5173
  289SOL    HW2  867   0.631   2.738   0.961  0.5853  1.5899 -0.3393
  290SOL     OW  868   2.818   1.090   1.721  0.0220  0.2188  0.3651
  290SOL    HW1  869   2.731   1.032   1.707 -0.0803 -0.1295 -1.0167
  290SOL    HW2  870   2.883   1.049   1.792  1.2060  2.9669 -1.5990
  291SOL     OW  871   1.978   0.050   0.034  0.5965  0.1410 -0.0395
  291SOL    HW1  872   2.000   0.073   0.133  0.5599 -0.9357 -1.8666
  291SOL    HW2  873   2.039   0.114  -0.028  0.4615 -0.8589  0.2179
  292SOL     OW  874   3.001   1.149   3.010  0.2604 -0.0740  0.7346
  292SOL    HW1  875   2.925   1.208   2.966 -1.0518  1.4884 -1.0462
  292SOL    HW2  876   3.093   1.149   2.958  1.4283  0.0743 -0.7171
  293SOL     OW  877   0.564   2.140   0.209 -0.3962  0.2386  0.5303
  293SOL    HW1  878   0.515   2.216   0.256 -1.2555 -2.5416 -1.9460
  293SOL    HW2  879   0.661   2.116   0.250 -1.0165 -3.6123  3.5392
  294SOL     OW  880   1.819   2.267   1.799  0.1828 -0.0033  0.2290
  294SOL    HW1  881   1.807   2.329   1.887  0.4310 -0.5983  0.7112
  294SOL    HW2  882   1.774   2.314   1.719  0.9502 -0.6650 -1.7167
  295SOL     OW  883   0.981   1.073   0.472 -0.6073 -0.0921  0.5385
  295SOL    HW1  884   1.082   1.070   0.512  0.0511 -0.2937  0.0189
  295SOL    HW2  885   0.911   1.079   0.546  1.0747 -1.5041 -3.5512
  296SOL     OW  886   1.206   2.143   2.562 -0.4462 -0.2429  0.0674
  296SOL    HW1  887   1.146   2.221   2.536  1.6815 -2.7189  4.3181
  296SOL    HW2  888   1.175   2.056   2.512 -0.4440 -1.4249 -0.0691
  297SOL     OW  889   1.436   0.617   1.345 -0.2812 -0.0954 -0.2340
  297SOL    HW1  890   1.392   0.518   1.353  0.4699 -0.7333  2.6260
  297SOL    HW2  891   1.525   0.612   1.396  0.3549  2.8979  0.3832
  298SOL     OW  892   0.540   1.333   2.974 -0.3575 -0.1794  0.7068
  298SOL    HW1  893   0.482   1.261   3.021 -3.4313 -0.3878  1.3591
  298SOL    HW2  894   0.595   1.286   2.892 -1.1922 -0.0166  1.4136
  299SOL     OW  895   0.480   0.266   1.298  0.1424  0.0271 -0.4152
  299SOL    HW1  896   0.456   0.369   1.301 -0.8415 -0.4170  3.8045
  299SOL    HW2  897   0.552   0.240   1.371 -4.5853 -0.5451 -1.3984
  300SOL     OW  898   1.253   1.797   2.737  0.0652 -0.2699 -0.2480
  300SOL    HW1  899   1.224   1.701   2.778  2.6883  0.1612 -0.1599
  300SOL    HW2  900   1.354   1.790   2.715 -0.1034 -0.6270  1.2228
  301SOL     OW  901   0.438   0.309   0.506  0.1308 -0.8368 -0.4577
  301SOL    HW1  902   0.339   0.314   0.475 -1.0440  0.7553  1.2630
  301SOL    HW2  903   0.498   0.235   0.469  0.8567 -0.5804 -0.0355
  302SOL     OW  904   1.273   2.468   2.344  0.0967 -0.3378  0.0173
  302SOL    HW1  905   1.199   2.523   2.383  0.9083  1.4941 -0.8997
  302SOL    HW2  906   1.239   2.375   2.302 -0.6254 -0.4299 -0.4482
  303SOL     OW  907   0.938   2.398   0.833  0.1124  0.0599 -0.1690
  303SOL    HW1  908   0.989   2.428   0.746  0.6743 -0.3074  0.4102
  303SOL    HW2  909   0.945   2.471   0.909  1.1649  3.4922 -1.4115
  304SOL     OW  910   0.073   1.955   0.610 -0.6608 -0.6048  1.0193
  304SOL    HW1  911   0.158   1.938   0.548  0.2422  0.1346 -0.4749
  304SOL    HW2  912   0.029   2.046   0.579  0.6865  0.9828  0.9759
  305SOL     OW  913   1.613   0.879   0.583 -0.7845  0.1365  0.1632
  305SOL    HW1  914   1.573   0.875   0.489  0.6400 -0.2472  0.7770
  305SOL    HW2  915   1.659   0.786   0.608 -2.0002 -0.2398  0.6047
  306SOL     OW  916   0.415   1.844   1.924  0.0608 -0.0762  0.2842
  306SOL    HW1  917   0.494   1.784   1.888  1.4158  1.7840 -1.6862
  306SOL    HW2  918   0.428   1.898   2.013 -3.4528 -0.1274 -2.5602
  307SOL     OW  919   3.057   0.897   2.473 -0.1678 -0.0640 -0.2267
  307SOL    HW1  920   3.058   0.992   2.518 -1.5919  1.5044  0.2819
  307SOL    HW2  921   2.991   0.829   2.523 -2.3147 -1.5689 -2.3925
  308SOL     OW  922   1.544   2.674   2.799  0.0151  0.3992  0.7440
  308SOL    HW1  923   1.511   2.610   2.722  0.5222  1.5914  1.1026
  308SOL    HW2  924   1.514   2.639   2.896 -0.3135 -4.9023  0.8789
  309SOL     OW  925   1.269   0.187   1.733  0.3254  0.3799 -0.1071
  309SOL    HW1  926   1.357   0.139   1.764  0.5836  0.9682  0.0327
  309SOL    HW2  927   1.242   0.172   1.632  0.1866  1.4833 -2.5626
  310SOL     OW  928   1.514   2.579   0.696 -0.2628  0.0839  0.3667
  310SOL    HW1  929   1.459   2.592   0.787 -0.3342 -1.4104  1.6455
  310SOL    HW2  930   1.550   2.663   0.648  0.9817 -0.4622 -0.2039
  311SOL     OW  931   1.184   0.979   1.649 -0.0332 -0.8364  0.2725
  311SOL    HW1  932   1.222   0.885   1.633  1.1514  2.4734  0.7621
  311SOL    HW2  933   1.238   1.054   1.603 -1.1651  0.4800  2.5699
  312SOL     OW  934   1.653   0.734   1.104  0.4153  0.2146  0.5186
  312SOL    HW1  935   1.652   0.797   1.019  1.0120 -0.7353  0.2043
  312SOL    HW2  936   1.558   0.686   1.119 -1.1747 -0.2109  0.6876
  313SOL     OW  937   1.551   1.360   0.718  0.4124  0.1715  0.1778
  313SOL    HW1  938   1.484   1.416   0.775 -0.8169 -4.3631 -2.6091
  313SOL    HW2  939   1.511   1.283   0.660  1.5791  0.2057 -2.3223
  314SOL     OW  940   2.947   0.044   2.997  0.1132 -0.2557 -0.3580
  314SOL    HW1  941   2.965   0.055   3.099 -1.5996 -2.0862 -0.0331
  314SOL    HW2  942   2.848   0.021   2.972  0.0261 -2.3739  1.3093
  315SOL     OW  943   1.214   0.194   2.756 -0.6789 -0.2035  0.0204
  315SOL    HW1  944   1.140   0.137   2.709  2.2516  0.2367  2.5562
  315SOL    HW2  945   1.292   0.130   2.787  0.2151 -0.7249 -0.4474
  316SOL     OW  946   1.747   2.039   0.875 -0.3813 -0.4796  0.1943
  316SOL    HW1  947   1.676   2.050   0.951  2.1424  0.9777  1.2424
  316SOL    HW2  948   1.761   2.123   0.821  1.2939 -0.2779  0.2264
  317SOL     OW  949   1.137   0.614   2.874  0.4434 -0.1424 -0.1021
  317SOL    HW1  950   1.066   0.674   2.908  1.2722 -0.5059 -1.5129
  317SOL    HW2  951   1.090   0.530   2.824  1.1796  0.3371 -1.8357
  318SOL     OW  952   1.349   3.063   2.293 -0.0912 -0.6247 -0.2573
  318SOL    HW1  953   1.323   3.165   2.277 -0.9632 -0.1790  3.2011
  318SOL    HW2  954   1.355   3.005   2.208  2.1355  0.4969 -1.2894
  319SOL     OW  955   0.648   2.414   2.927 -0.5930  0.8217 -0.0593
  319SOL    HW1  956   0.576   2.384   3.000 -0.8740 -1.3545  1.5700
  319SOL    HW2  957   0.730   2.348   2.925 -1.5067  0.4114  0.0281
  320SOL     OW  958   1.690   2.256   0.423  0.1207 -0.6951  0.2207
  320SOL    HW1  959   1.767   2.197   0.398 -0.8773 -0.5310 -0.4777
  320SOL    HW2  960   1.601   2.199   0.450 -1.9509  0.8055  0.8947
  321SOL     OW  961   1.615   2.761   0.515  0.1431  0.5724 -0.2608
  321SOL    HW1  962   1.541   2.787   0.447  1.4660  3.2412 -0.2519
  321SOL    HW2  963   1.710   2.790   0.494  0.2209  4.0849  0.3804
  322SOL     OW  964   2.599   1.118   2.368  0.2811 -0.2036 -0.4428
  322SOL    HW1  965   2.682   1.150   2.422 -0.3997 -2.8903 -1.4928
  322SOL    HW2  966   2.608   1.016   2.347 -1.4787 -1.2532  2.6494
  323SOL     OW  967   1.192   2.657   0.830  0.0739  0.4146  0.0815
  323SOL    HW1  968   1.170   2.606   0.742 -1.3907  1.4892 -0.8704
  323SOL    HW2  969   1.156   2.755   0.835 -1.3884  2.7941 -0.1745
  324SOL     OW  970   0.263   2.459   2.523 -0.0630 -0.1889 -0.5246
  324SOL    HW1  971   0.331   2.439   2.599  2.8445  0.5149  0.8946
  324SOL    HW2  972   0.169   2.476   2.566 -2.7681 -0.7222 -1.3528
  325SOL     OW  973   1.294   3.062   0.490 -0.2318  0.0320 -0.1818
  325SOL    HW1  974   1.340   3.117   0.415  1.2863  0.3701 -1.2464
  325SOL    HW2  975   1.310   3.106   0.585 -0.3052  2.1789  1.2886
  326SOL     OW  976   2.474   0.808   3.082 -0.1517  0.3595  0.3525
  326SOL    HW1  977   2.417   0.750   3.021  0.9406 -0.3405 -1.7020
  326SOL    HW2  978   2.538   0.755   3.146 -0.3888  0.0283  3.9508
  327SOL     OW  979   2.853   0.337   0.667  0.1394 -0.4294 -0.0893
  327SOL    HW1  980   2.847   0.253   0.607  1.4631  0.7700  1.1443
  327SOL    HW2  981   2.910   0.311   0.756 -0.2812  3.9125  0.6081
  328SOL     OW  982   2.593   0.580   0.413  0.4536 -0.1208 -0.0153
  328SOL    HW1  983   2.533   0.660   0.399 -0.1884 -1.3074  0.9340
  328SOL    HW2  984   2.559   0.528   0.495  0.2000 -2.1344 -0.1996
  329SOL     OW  985   2.944   2.974   2.146 -0.1244  0.6241 -0.0884
  329SOL    HW1  986   3.010   2.945   2.217 -0.3724  1.5353 -0.5796
  329SOL    HW2  987   2.945   3.077   2.137 -2.8129  2.6038  2.1284
  330SOL     OW  988   0.536   0.158   1.858 -0.0708  0.1372  0.4097
  330SOL    HW1  989   0.628   0.189   1.825 -1.0646 -1.9500  1.5138
  330SOL    HW2  990   0.547   0.086   1.930  0.8999  3.3170 -0.4099
  331SOL     OW  991   2.993   1.919   1.164 -0.1614  0.1735 -0.0452
  331SOL    HW1  992   2.984   1.994   1.091 -2.8004  1.0166 -0.6245
  331SOL    HW2  993   2.906   1.898   1.217 -0.4597  1.5798 -1.3735
  332SOL     OW  994   0.387   1.165   0.040 -0.3279 -0.0532  0.5670
  332SOL    HW1  995   0.363   1.065   0.012  1.0630  1.2842 -0.3441
  332SOL    HW2  996   0.328   1.211   0.111 -1.9264 -3.2231  1.8121
  333SOL     OW  997   2.858   1.037   0.298  0.4869  0.5214 -0.3034
  333SOL    HW1  998   2.899   1.098   0.374  0.3242  2.0164  0.5427
  333SOL    HW2  999   2.929   0.967   0.264 -2.8896 -1.9907  0.6817
  334SOL     OW 1000   1.679   1.267   1.844  0.4593 -0.2774  0.4126
  334SOL    HW1 1001   1.762   1.249   1.786 -1.1723 -0.8870  0.0728
  334SOL    HW2 1002   1.694   1.303   1.938  2.2429  0.3074 -2.3927
  335SOL     OW 1003   1.985   2.735   2.603  0.0587  0.0991 -0.2711
  335SOL    HW1 1004   1.929   2.709   2.688 -3.1966  0.9878 -2.7177
  335SOL    HW2 1005   2.078   2.777   2.626  0.6473 -1.9930 -1.7361
  336SOL     OW 1006   0.229   0.155   2.771  0.0607 -0.2462 -0.2523
  336SOL    HW1 1007   0.320   0.145   2.821  0.0252 -1.3627 -2.1090
  336SOL    HW2 1008   0.152   0.123   2.830  1.3466 -2.8642 -1.2102
  337SOL     OW 1009   0.912   2.864   2.844  0.2410  0.6187  0.2281
  337SOL    HW1 1010   0.902   2.812   2.935  0.1393 -1.6305  1.3265
  337SOL    HW2 1011   1.008   2.861   2.805  1.2114 -1.4648  0.2980
  338SOL     OW 1012   0.014   1.014   0.619  0.3232  0.0998  0.3267
  338SOL    HW1 1013  -0.085   1.005   0.640  0.1540  0.0617  3.1571
  338SOL    HW2 1014   0.045   1.109   0.638 -1.5854  0.7516 -0.4340
  339SOL     OW 1015   1.684   1.353   2.117 -0.2258 -0.1488 -0.2783
  339SOL    HW1 1016   1.585   1.381   2.135  0.5042 -0.6060 -3.2528
  339SOL    HW2 1017   1.744   1.432   2.153 -2.8695 -2.2259 -0.8838
  340SOL     OW 1018   2.341   0.791   1.108 -0.0802  0.5968 -0.2777
  340SOL    HW1 1019   2.239   0.802   1.085  0.2160 -3.0385 -0.2150
  340SOL    HW2 1020   2.385   0.711   1.060 -0.2374 -0.8549 -1.5509
  341SOL     OW 1021   1.902   2.108   0.328 -0.9599  0.3927 -0.2589
  341SOL    HW1 1022   1.910   2.170   0.246 -1.4044 -2.1050  0.5020
  341SOL    HW2 1023   2.000   2.085   0.366 -0.7060  0.0759 -0.7586
  342SOL     OW 1024   2.250   2.131   2.734  0.0432  0.2180  0.7398
  342SOL    HW1 1025   2.283   2.075   2.816 -0.0621 -2.0122  1.7044
  342SOL    HW2 1026   2.148   2.116   2.716 -0.6552  2.2647 -4.0778
  343SOL     OW 1027   0.345   0.857   2.728  0.5551 -0.4664  0.0352
  343SOL    HW1 1028   0.319   0.929   2.660  1.2211  0.6711  1.5821
  343SOL    HW2 1029   0.442   0.870   2.775 -1.2725 -0.9917  0.4488
  344SOL     OW 1030   1.908   1.421   0.420  0.4105 -0.0103  0.3817
  344SOL    HW1 1031   1.897   1.364   0.333 -0.3762  1.0066  0.1464
  344SOL    HW2 1032   1.812   1.452   0.451 -0.2672 -0.4784  1.6153
  345SOL     OW 1033   1.416   2.252   2.920 -0.5524  0.1729  0.3132
  345SOL    HW1 1034   1.325   2.203   2.907 -2.6431  0.3717 -0.5839
  345SOL    HW2 1035   1.488   2.204   2.860 -0.2586 -2.0905  1.3318
  346SOL     OW 1036   2.379   0.877   1.360 -0.5327  0.3492 -0.0160
  346SOL    HW1 1037   2.302   0.940   1.379 -0.5204 -0.7723 -0.4993
  346SOL    HW2 1038   2.359   0.825   1.272  1.9423 -0.0972  1.8357
  347SOL     OW 1039   0.749   2.772   1.559 -0.3446 -0.5104  0.2869
  347SOL    HW1 1040   0.674   2.728   1.617 -0.2455  0.9764  0.6606
  347SOL    HW2 1041   0.719   2.862   1.511  1.3228  2.4311 -0.1760
  348SOL     OW 1042   0.210   0.691   2.908 -0.4599 -0.1698  0.5964
  348SOL    HW1 1043   0.119   0.685   2.861 -0.4253  1.4309  2.0815
  348SOL    HW2 1044   0.286   0.709   2.835  3.9862 -0.6500 -1.3264
  349SOL     OW 1045   1.888   0.466   2.810 -0.1562  0.3033  0.4562
  349SOL    HW1 1046   1.883   0.552   2.756 -2.2045  0.5751  0.1832
  349SOL    HW2 1047   1.854   0.470   2.908  0.8482  2.7298 -0.1991
  350SOL     OW 1048   1.654   0.448   0.373  0.3467  0.2562  0.4316
  350SOL    HW1 1049   1.702   0.442   0.462  0.0287  0.1586 -0.4756
  350SOL    HW2 1050   1.603   0.538   0.361 -0.1227  0.1845  1.0649
  351SOL     OW 1051   1.004   0.842   2.153  0.3798 -0.7006  0.1306
  351SOL    HW1 1052   0.994   0.946   2.157  1.2325 -1.6287 -1.0617
  351SOL    HW2 1053   1.017   0.814   2.055 -3.1429  0.9335 -0.9383
  352SOL     OW 1054   2.002   1.310   0.670 -0.8235 -0.3087 -0.4782
  352SOL    HW1 1055   1.979   1.340   0.572  0.0245 -0.7410  0.3464
  352SOL    HW2 1056   1.928   1.287   0.734 -0.7059  2.5795  4.0136
  353SOL     OW 1057   2.153   2.804   1.075 -0.2855 -0.1012  0.4077
  353SOL    HW1 1058   2.203   2.749   1.151 -0.4650 -0.6144  1.7548
  353SOL    HW2 1059   2.067   2.768   1.029 -1.1272  0.0257 -0.8084
  354SOL     OW 1060   0.282   1.380   2.912 -0.1059 -0.3150  0.2448
  354SOL    HW1 1061   0.270   1.439   2.824 -0.2792 -1.0355  0.8751
  354SOL    HW2 1062   0.384   1.379   2.937 -0.1986  2.0735  0.0281
  355SOL     OW 1063   0.651   1.555   0.591  0.9776  0.5118 -0.2879
  355SOL    HW1 1064   0.663   1.545   0.693 -0.0136  2.0139 -1.4064
  355SOL    HW2 1065   0.645   1.464   0.545 -1.7835 -1.0495  0.9288
  356SOL     OW 1066   0.848   0.324   2.074 -0.0065  0.4830 -0.1752
  356SOL    HW1 1067   0.943   0.282   2.054 -2.4980  1.1090  0.6320
  356SOL    HW2 1068   0.819   0.383   1.997  0.8096 -1.5795  0.9632
  357SOL     OW 1069   1.011   1.309   0.329  0.3826  0.1400 -0.5578
  357SOL    HW1 1070   0.997   1.284   0.229 -0.5043 -0.2793 -0.3347
  357SOL    HW2 1071   0.999   1.225   0.391 -0.6084  2.7682  0.1535
  358SOL     OW 1072   1.656   1.506   0.498  0.6483  0.2929 -0.3362
  358SOL    HW1 1073   1.615   1.479   0.593 -1.1779 -2.0864 -0.1859
  358SOL    HW2 1074   1.593   1.487   0.417 -1.1080 -0.0641  1.1321
  359SOL     OW 1075   1.577   2.630   0.194  0.2188 -0.6166  0.0434
  359SOL    HW1 1076   1.568   2.535   0.155  0.4538  1.1568 -0.1560
  359SOL    HW2 1077   1.492   2.692   0.179 -1.0527  2.9625 -0.8777
  360SOL     OW 1078   0.855   0.570   0.571 -0.2867  0.3517 -0.7633
  360SOL    HW1 1079   0.755   0.568   0.550 -1.6219 -0.0415 -1.5756
  360SOL    HW2 1080   0.897   0.473   0.580  0.0977 -2.1036  1.3529
  361SOL     OW 1081   1.241   1.307   0.728  0.1404 -0.0897 -0.3222
  361SOL    HW1 1082   1.305   1.383   0.767  1.5513 -0.6949  1.0279
  361SOL    HW2 1083   1.145   1.343   0.711 -0.7075 -0.5693 -0.6846
  362SOL     OW 1084   1.391   1.840   0.810  0.0230  0.2676  0.1647
  362SOL    HW1 1085   1.433   1.823   0.902  1.2092  0.1307  0.4970
  362SOL    HW2 1086   1.454   1.877   0.737 -0.5006 -0.8603 -1.0111
  363SOL     OW 1087   1.220   1.250   2.046  0.5258  0.2692 -0.2159
  363SOL    HW1 1088   1.318   1.259   2.069  1.3917 -2.5831 -1.0568
  363SOL    HW2 1089   1.189   1.329   1.991  0.2284  0.6938 -0.5086
  364SOL     OW 1090   0.494   2.340   1.990  0.0027 -0.3665  0.7558
  364SOL    HW1 1091   0.423   2.415   1.985  1.0820 -0.3008  0.5819
  364SOL    HW2 1092   0.558   2.346   1.911  1.1697 -0.4227  0.0199
  365SOL     OW 1093   1.001   1.904   1.410 -0.2561  0.6596 -0.4204
  365SOL    HW1 1094   0.904   1.942   1.414 -0.7969  2.9338 -3.1622
  365SOL    HW2 1095   1.054   1.923   1.321 -0.7819 -0.2810 -0.1291
  366SOL     OW 1096   2.809   2.036   0.424  0.2369 -0.2925 -0.6870
  366SOL    HW1 1097   2.726   1.983   0.459 -0.0698  2.8744 -1.2766
  366SOL    HW2 1098   2.862   1.979   0.362  2.8412 -0.7203  0.2317
  367SOL     OW 1099   0.921   1.114   0.121 -0.4277 -0.3600 -0.3278
  367SOL    HW1 1100   0.976   1.030   0.157 -1.0048 -2.3314 -3.0607
  367SOL    HW2 1101   0.961   1.153   0.033 -1.6969  0.9410 -1.8409
  368SOL     OW 1102   1.438   0.542   0.708 -0.0706  0.1293 -0.3339
  368SOL    HW1 1103   1.382   0.602   0.642  2.5649  1.3731 -3.0220
  368SOL    HW2 1104   1.538   0.557   0.675  2.4356  3.9886 -2.7959
  369SOL     OW 1105   0.330   1.710   0.071 -0.1876 -0.5176  0.0823
  369SOL    HW1 1106   0.375   1.762   0.147 -0.4200  0.1817 -1.0487
  369SOL    HW2 1107   0.246   1.653   0.100  2.7898 -2.9962 -1.5705
  370SOL     OW 1108   0.457   2.083   0.978 -0.2983 -0.2397  0.3006
  370SOL    HW1 1109   0.455   2.183   0.978  1.8094 -1.6610 -1.0949
  370SOL    HW2 1110   0.365   2.045   0.952  0.0244  1.6876  0.8126
  371SOL     OW 1111   2.925   2.183   2.657 -0.7066  0.1000 -0.0162
  371SOL    HW1 1112   2.853   2.158   2.729 -1.2405  0.1054 -2.5162
  371SOL    HW2 1113   3.018   2.198   2.701  2.0286  0.5914  0.3254
  372SOL     OW 1114   1.128   2.026   1.095 -0.0113  0.5303  0.1274
  372SOL    HW1 1115   1.058   2.070   1.031 -0.0040 -0.6949  0.3238
  372SOL    HW2 1116   1.219   2.073   1.076 -1.3005  1.0252 -3.1115
  373SOL     OW 1117   2.008   1.990   0.851  0.2470 -0.0331  0.5120
  373SOL    HW1 1118   2.078   2.000   0.929  1.4348 -0.3045 -1.5268
  373SOL    HW2 1119   1.911   2.002   0.884  0.2890  1.6318 -2.8878
  374SOL     OW 1120   1.842   0.391   0.575 -0.0969 -0.2775 -0.0584
  374SOL    HW1 1121   1.831   0.354   0.669  0.1087 -1.8969 -4.4636
  374SOL    HW2 1122   1.949   0.391   0.567  3.5420 -0.6582  0.7757
  375SOL     OW 1123   2.431   2.174   1.096 -0.3318 -0.0895 -0.5937
  375SOL    HW1 1124   2.499   2.177   1.019 -1.4494  0.0766 -2.7520
  375SOL    HW2 1125   2.465   2.122   1.182  0.6117  0.9223  0.2545
  376SOL     OW 1126   3.067   0.560   1.466 -0.4512  0.4059 -0.2425
  376SOL    HW1 1127   3.064   0.647   1.528  0.0307 -0.9886  3.8733
  376SOL    HW2 1128   2.978   0.509   1.461  0.0282 -0.3542 -1.5988
  377SOL     OW 1129   2.227   2.871   0.326 -0.5906  0.6396 -0.0758
  377SOL    HW1 1130   2.213   2.969   0.355  2.6877 -0.2389 -1.5977
  377SOL    HW2 1131   2.331   2.842   0.329  1.1026  0.5546  1.1109
  378SOL     OW 1132   1.859   1.852   2.590 -0.1425 -0.0884  0.1882
  378SOL    HW1 1133   1.952   1.813   2.624 -0.5595  0.5425  0.9327
  378SOL    HW2 1134   1.815   1.774   2.528 -3.5287 -0.1446 -0.2737
  379SOL     OW 1135   0.745   0.155   2.872 -0.3279 -0.4600  1.1285
  379SOL    HW1 1136   0.739   0.061   2.832  1.8516  2.1363 -0.2754
  379SOL    HW2 1137   0.811   0.214   2.825  0.6315 -0.7250  0.6553
  380SOL     OW 1138   1.485   1.140   0.569 -0.0336 -0.0118  0.3870
  380SOL    HW1 1139   1.378   1.139   0.579 -3.2877  0.8177  1.1724
  380SOL    HW2 1140   1.528   1.046   0.580 -2.3497 -1.3679  2.8642
  381SOL     OW 1141   1.383   1.176   1.519 -0.4620  0.0444  1.2071
  381SOL    HW1 1142   1.414   1.171   1.422  0.7971  1.7324  1.4575
  381SOL    HW2 1143   1.448   1.136   1.591  0.6033 -1.0713  2.1663
  382SOL     OW 1144   1.779   0.830   0.175 -0.0316 -0.0650  0.0171
  382SOL    HW1 1145   1.795   0.824   0.075 -0.9151  2.1159  2.4216
  382SOL    HW2 1146   1.861   0.866   0.223 -1.1883  1.0001  0.2033
  383SOL     OW 1147   2.601   0.986   1.448  0.4414  0.1215  0.5115
  383SOL    HW1 1148   2.512   0.956   1.396 -0.0367 -3.0579 -2.7290
  383SOL    HW2 1149   2.684   0.968   1.387 -2.0992 -0.3188  0.4884
  384SOL     OW 1150   0.896   2.309   0.123 -0.0628 -0.0271  0.1953
  384SOL    HW1 1151   0.872   2.367   0.208  2.3251 -0.6896  0.4121
  384SOL    HW2 1152   0.859   2.213   0.142  0.7102  0.6155  1.4938
  385SOL     OW 1153   3.049   2.026   1.667  0.4806  0.8129 -0.4930
  385SOL    HW1 1154   3.130   2.084   1.644 -2.0920  2.5326  0.0119
  385SOL    HW2 1155   3.070   1.922   1.677 -0.3580 -2.0845 -0.5681
  386SOL     OW 1156   0.479   1.101   0.403  0.0670 -0.2041 -0.5152
  386SOL    HW1 1157   0.465   1.000   0.428 -0.0407 -3.5108 -1.2879
  386SOL    HW2 1158   0.398   1.137   0.348 -0.3294  0.6104  3.7878
  387SOL     OW 1159   0.921   0.374   1.616  0.0006 -0.2409  0.5165
  387SOL    HW1 1160   1.000   0.440   1.631  1.1264 -3.0478  0.3745
  387SOL    HW2 1161   0.945   0.310   1.535  0.1772 -2.4426 -1.3958
  388SOL     OW 1162   1.192   2.592   1.766 -0.2982 -0.0135  0.3461
  388SOL    HW1 1163   1.227   2.586   1.668  1.0240  1.2189 -1.8703
  388SOL    HW2 1164   1.266   2.549   1.830  1.8481 -2.5434 -0.0681
  389SOL     OW 1165   0.156   3.011   1.082 -0.1376  0.0270  0.0774
  389SOL    HW1 1166   0.055   3.009   1.105  0.2299 -2.8646 -2.9670
  389SOL    HW2 1167   0.194   2.914   1.094 -1.1360 -2.4830 -0.6017
  390SOL     OW 1168   1.020   0.941   1.334  0.1486 -0.1204  0.6095
  390SOL    HW1 1169   1.085   0.870   1.374  2.4446  1.2822 -3.7243
  390SOL    HW2 1170   1.010   1.032   1.391  1.0508  0.9972  0.0982
  391SOL     OW 1171   2.088   1.177   1.035  0.1846 -0.9710  1.1147
  391SOL    HW1 1172   2.020   1.112   1.072  2.0758 -1.1223 -1.8947
  391SOL    HW2 1173   2.155   1.133   0.964  0.2260 -1.3458 -2.5906
  392SOL     OW 1174   0.875   2.672   3.053  0.4205  0.2550  0.2021
  392SOL    HW1 1175   0.799   2.681   3.128 -1.7654  0.0150  2.7728
  392SOL    HW2 1176   0.973   2.676   3.089 -0.8176  0.8832  2.9251
  393SOL     OW 1177   0.316   0.500   1.988 -1.2466  0.3550  0.0817
  393SOL    HW1 1178   0.265   0.413   1.969 -1.5952  2.0478  0.1835
  393SOL    HW2 1179   0.382   0.512   1.905 -1.2797  1.8243 -2.5179
  394SOL     OW 1180   2.989   1.865   2.762  1.2482  0.1709 -0.7489
  394SOL    HW1 1181   3.079   1.897   2.807 -0.6993  1.6721 -0.5772
  394SOL    HW2 1182   2.993   1.859   2.659  2.1009 -1.3111 -2.0773
  395SOL     OW 1183   1.605   1.934   0.629 -0.1493  0.7073  0.7329
  395SOL    HW1 1184   1.642   1.857   0.570 -2.3181  1.9660  0.2390
  395SOL    HW2 1185   1.644   1.950   0.724  0.9575  0.3386  0.2913
  396SOL     OW 1186   2.756   1.959   1.333  0.5981 -0.3062  0.6203
  396SOL    HW1 1187   2.661   1.988   1.320  1.4550 -2.2353  1.2352
  396SOL    HW2 1188   2.784   1.941   1.431  0.8112 -3.1146  2.7733
  397SOL     OW 1189   0.986   2.196   0.508  0.3195  0.0146 -0.2407
  397SOL    HW1 1190   0.904   2.142   0.529  3.3546  1.0967 -1.7326
  397SOL    HW2 1191   0.964   2.298   0.504 -0.3331  2.4431 -0.9338
  398SOL     OW 1192   2.121   3.078   1.075 -0.3352 -0.8168  0.1250
  398SOL    HW1 1193   2.104   2.980   1.068 -0.6514 -2.4001 -0.3758
  398SOL    HW2 1194   2.056   3.136   1.138 -2.5458 -0.5390 -0.0121
  399SOL     OW 1195   2.961   2.516   2.692  0.5422  0.2955 -1.5117
  399SOL    HW1 1196   2.894   2.485   2.615  1.0009  1.4729  1.0580
  399SOL    HW2 1197   3.000   2.443   2.749  0.1505  0.9548 -0.7858
  400SOL     OW 1198   0.795   1.598   1.313  0.2630  0.2092  0.2312
  400SOL    HW1 1199   0.789   1.642   1.407  0.8243  0.1992 -2.7657
  400SOL    HW2 1200   0.773   1.662   1.234 -2.2912  1.8900 -0.1418
  401SOL     OW 1201   1.824   0.104   1.371 -0.3636  0.0526 -0.2119
  401SOL    HW1 1202   1.886   0.126   1.455 -1.0071  4.1169  0.0169
  401SOL    HW2 1203   1.723   0.099   1.387 -2.0132 -0.6058 -0.3547
  402SOL     OW 1204   1.330   0.130   3.039 -0.0547  0.7762 -0.3927
  402SOL    HW1 1205   1.435   0.110   3.018  0.2787  0.5857  0.8222
  402SOL    HW2 1206   1.305   0.227   3.057  0.7646 -1.3027  0.0879
  403SOL     OW 1207   2.313   1.821   0.890  0.1521 -0.1465 -0.1083
  403SOL    HW1 1208   2.405   1.794   0.923 -1.2199  0.1156 -4.9883
  403SOL    HW2 1209   2.284   1.907   0.939 -0.8081 -1.2636  0.5398
  404SOL     OW 1210   0.178   2.502   2.808 -0.0881  0.1620  0.2149
  404SOL    HW1 1211   0.263   2.469   2.849  0.1393  2.4616 -0.2965
  404SOL    HW2 1212   0.180   2.606   2.818  1.9869 -0.2145 -0.6011
  405SOL     OW 1213   0.147   2.422   0.619  0.6011  0.3516  0.4373
  405SOL    HW1 1214   0.107   2.392   0.528 -1.0525 -0.9680  3.0424
  405SOL    HW2 1215   0.229   2.491   0.614  0.0109 -1.5611 -3.2053
  406SOL     OW 1216   0.032   1.481   3.003 -0.0930  0.0540  0.0619
  406SOL    HW1 1217   0.112   1.434   2.961 -1.7746  1.6658 -2.4974
  406SOL    HW2 1218   0.059   1.524   3.099 -0.1858  0.4569 -2.2179
  407SOL     OW 1219   1.572   0.928   0.905  0.4407  0.1232 -0.1351
  407SOL    HW1 1220   1.525   0.867   0.839 -1.3499 -2.7993  0.9782
  407SOL    HW2 1221   1.519   1.015   0.926 -1.2530 -1.5109  2.0144
  408SOL     OW 1222   1.608   2.342   0.936 -0.1866 -1.1269  0.3018
  408SOL    HW1 1223   1.682   2.347   0.862 -1.4794 -0.9383  2.0917
  408SOL    HW2 1224   1.560   2.431   0.955 -1.1323  2.3523  2.5861
  409SOL     OW 1225   0.639   0.868   0.726  0.5262 -0.1713 -0.4838
  409SOL    HW1 1226   0.589   0.859   0.632 -0.1176 -2.6574  2.5864
  409SOL    HW2 1227   0.667   0.775   0.761  1.9807  0.5279  2.1255
  410SOL     OW 1228   1.262   2.018   1.427 -0.4581  0.2576  0.3650
  410SOL    HW1 1229   1.348   1.968   1.475  1.3659  0.2516 -1.4630
  410SOL    HW2 1230   1.174   1.971   1.444  3.8087  1.0109  0.0362
  411SOL     OW 1231   2.506   1.863   3.103 -0.2197 -0.4788  0.9438
  411SOL    HW1 1232   2.426   1.875   3.037 -0.8850  0.2445  0.8038
  411SOL    HW2 1233   2.597   1.858   3.055 -0.0369  0.7935 -0.3560
  412SOL     OW 1234   1.498   2.546   2.172 -0.0989 -0.4009 -0.1164
  412SOL    HW1 1235   1.562   2.620   2.201  0.2576 -1.6102 -0.2828
  412SOL    HW2 1236   1.436   2.511   2.246 -2.6619  1.5873 -0.4952
  413SOL     OW 1237   3.093   0.262   2.924 -0.0553  0.0952 -0.2462
  413SOL    HW1 1238   3.048   0.170   2.940  2.4574 -1.0626 -1.7484
  413SOL    HW2 1239   3.180   0.272   2.986 -0.4388  1.8360  1.7203
  414SOL     OW 1240   1.808   1.479   1.287  0.6010 -0.5142 -0.9923
  414SOL    HW1 1241   1.727   1.509   1.343  0.0256 -1.3618 -2.2801
  414SOL    HW2 1242   1.776   1.399   1.228  2.0902  3.6616 -1.2956
  415SOL     OW 1243   0.298   2.182   0.724 -0.2381 -0.1181  0.3813
  415SOL    HW1 1244   0.228   2.249   0.679 -3.7405 -1.5260 -0.3865
  415SOL    HW2 1245   0.254   2.122   0.790  1.1708 -0.9087  1.6433
  416SOL     OW 1246   0.369   1.063   1.054  0.5141  0.1371  0.1449
  416SOL    HW1 1247   0.341   1.042   0.955 -1.2460  1.7883 -1.0957
  416SOL    HW2 1248   0.450   1.123   1.066 -1.7349  1.5915 -2.3586
  417SOL     OW 1249   2.137   2.309   1.904  0.4088  0.0698  0.0462
  417SOL    HW1 1250   2.129   2.207   1.925  1.3453  0.5347  0.6660
  417SOL    HW2 1251   2.045   2.352   1.882 -1.0480  0.9732  0.2720
  418SOL     OW 1252   1.135   0.494   1.311 -0.3106 -0.0292 -0.1137
  418SOL    HW1 1253   1.053   0.459   1.262  3.4091  1.1692  2.1632
  418SOL    HW2 1254   1.188   0.557   1.251  0.1791  0.3216  0.7640
  419SOL     OW 1255   0.996   0.369   3.026  0.2463  0.0609  0.0108
  419SOL    HW1 1256   0.942   0.415   2.954 -3.0112 -1.3187  2.2422
  419SOL    HW2 1257   0.938   0.298   3.073 -0.3974  3.7090 -0.4183
  420SOL     OW 1258   0.139   2.272   0.379 -0.2997  0.1811  0.3470
  420SOL    HW1 1259   0.157   2.218   0.290 -0.2216  0.4938 -1.2489
  420SOL    HW2 1260   0.056   2.235   0.431 -0.9017 -0.9709  0.9702
  421SOL     OW 1261   0.320   3.005   0.709 -0.3590 -1.1033  0.2924
  421SOL    HW1 1262   0.309   2.913   0.671 -2.5695 -0.1624 -0.1059
  421SOL    HW2 1263   0.421   3.032   0.725  0.4119  0.9351  1.0509
  422SOL     OW 1264   0.987   2.589   1.033  0.1096 -0.4766 -0.1566
  422SOL    HW1 1265   1.072   2.617   0.973  1.8764  1.6802  1.4556
  422SOL    HW2 1266   1.001   2.596   1.138 -1.7695 -2.0681  0.7031
  423SOL     OW 1267   0.102   0.708   1.275  0.0916 -0.6046  0.1201
  423SOL    HW1 1268   0.057   0.655   1.348  1.1634  2.0353 -4.4269
  423SOL    HW2 1269   0.037   0.774   1.229  1.2878  1.0079  0.1645
  424SOL     OW 1270   1.021   2.259   2.066  0.1737 -0.0400 -0.0268
  424SOL    HW1 1271   0.990   2.353   2.038 -0.0786  0.3172 -0.4255
  424SOL    HW2 1272   1.053   2.256   2.164  1.0026  1.2318 -0.3744
  425SOL     OW 1273   1.981   1.429   0.961 -0.0885  0.2656 -0.1142
  425SOL    HW1 1274   2.030   1.340   0.983  3.0900  4.6588  2.8752
  425SOL    HW2 1275   2.039   1.494   0.911 -2.8633 -1.5251  1.4510
  426SOL     OW 1276   1.522   1.532   1.391  0.3163  0.3437 -0.1219
  426SOL    HW1 1277   1.496   1.626   1.358 -0.4257  0.4252  0.1655
  426SOL    HW2 1278   1.475   1.504   1.474  1.4152  3.4249 -0.3322
  427SOL     OW 1279   1.857   2.350   2.051 -0.2692  0.2288  0.2140
  427SOL    HW1 1280   1.923   2.280   2.094 -1.1394  0.6134 -0.6954
  427SOL    HW2 1281   1.888   2.449   2.062 -1.3007 -1.7874  2.6419
  428SOL     OW 1282   0.866   2.960   0.193 -0.2807  0.3337  0.0349
  428SOL    HW1 1283   0.892   3.053   0.221 -1.4531  0.7539 -1.0020
  428SOL    HW2 1284   0.934   2.908   0.132  3.5030  1.2483  1.3666
  429SOL     OW 1285   1.323   0.084   0.223  0.0329  0.2237 -0.3086
  429SOL    HW1 1286   1.415   0.128   0.246 -0.2346 -0.1787  1.7475
  429SOL    HW2 1287   1.317   0.072   0.119  2.4912 -0.0193 -1.7920
  430SOL     OW 1288   2.753   1.446   0.391  1.2013 -0.1435  0.3771
  430SOL    HW1 1289   2.807   1.483   0.308  0.2592 -3.3425 -2.6558
  430SOL    HW2 1290   2.769   1.499   0.478  0.6654  1.0999  0.2343
  431SOL     OW 1291   2.170   1.589   0.811  0.3024 -0.5615 -0.1131
  431SOL    HW1 1292   2.235   1.659   0.858 -0.7485 -0.0305  0.3376
  431SOL    HW2 1293   2.084   1.636   0.774  0.0896 -1.7904  0.3529
  432SOL     OW 1294   2.859   2.206   1.274  0.1500  0.4883 -0.6810
  432SOL    HW1 1295   2.828   2.108   1.302  0.4166 -2.2864 -0.1622
  432SOL    HW2 1296   2.893   2.252   1.360  0.0464  0.7330  1.8901
  433SOL     OW 1297   1.924   0.382   0.860  0.3677  0.6806  0.0917
  433SOL    HW1 1298   1.853   0.321   0.906 -2.4274  1.9092 -0.0292
  433SOL    HW2 1299   2.020   0.372   0.899  0.0474  0.5512 -0.4958
  434SOL     OW 1300   1.532   0.294   0.789 -0.3026  0.1319 -0.0092
  434SOL    HW1 1301   1.495   0.398   0.775 -0.4035  2.8424 -1.3721
  434SOL    HW2 1302   1.579   0.276   0.879 -0.7862  0.9018 -1.1787
  435SOL     OW 1303   1.409   1.436   2.121  0.2354  0.0541  0.1049
  435SOL    HW1 1304   1.344   1.488   2.176  0.0062  1.2287 -1.1250
  435SOL    HW2 1305   1.445   1.495   2.040 -0.1473  2.7078 -1.9425
  436SOL     OW 1306   1.683   2.738   2.279  0.1305  0.1748 -0.2433
  436SOL    HW1 1307   1.634   2.813   2.337 -0.0049 -0.9643  0.3486
  436SOL    HW2 1308   1.706   2.652   2.328  0.7210  2.1427 -3.5694
  437SOL     OW 1309   1.071   2.907   0.918 -0.7426  0.0652 -0.1190
  437SOL    HW1 1310   1.024   2.983   0.869  1.1117  1.0547  2.5773
  437SOL    HW2 1311   1.041   2.896   1.013 -0.0364  3.3824 -2.1560
  438SOL     OW 1312   1.052   2.580   1.315 -0.5767 -0.0498 -0.1471
  438SOL    HW1 1313   1.139   2.596   1.368 -0.7616  0.2054  0.9790
  438SOL    HW2 1314   1.017   2.480   1.307 -0.5886  1.4152 -1.8811
  439SOL     OW 1315   0.701   1.746   1.066 -0.5056 -0.4852 -0.1290
  439SOL    HW1 1316   0.711   1.847   1.040  1.5701 -0.1595 -2.4499
  439SOL    HW2 1317   0.601   1.715   1.085 -0.5885 -0.9436 -0.3284
  440SOL     OW 1318   0.971   2.481   1.917  0.1666 -0.0146  0.1825
  440SOL    HW1 1319   0.939   2.521   1.824  0.6915  3.6978 -1.4289
  440SOL    HW2 1320   1.070   2.513   1.932 -0.3769 -1.4299  2.2191
  441SOL     OW 1321   0.401   2.782   1.388 -0.0434 -0.1281  0.4511
  441SOL    HW1 1322   0.457   2.695   1.395  0.6512 -1.4632  1.6125
  441SOL    HW2 1323   0.305   2.758   1.347  2.6497  0.4193 -3.5003
  442SOL     OW 1324   2.290   0.647   2.525  0.2051  0.5613 -0.6972
  442SOL    HW1 1325   2.274   0.546   2.501  1.6061  0.9476 -1.6606
  442SOL    HW2 1326   2.208   0.705   2.511  2.0101 -0.0315 -0.4114
  443SOL     OW 1327   1.213   2.725   2.192  0.1046 -0.1314  0.1001
  443SOL    HW1 1328   1.294   2.733   2.258 -1.6988  2.6829 -0.2833
  443SOL    HW2 1329   1.131   2.736   2.253 -2.0108 -2.1983  1.9588
  444SOL     OW 1330   1.152   1.298   1.594  0.2434 -0.0990 -0.2383
  444SOL    HW1 1331   1.249   1.263   1.565  1.7625  0.0930  0.1042
  444SOL    HW2 1332   1.162   1.354   1.681 -0.2637  1.4776 -2.1368
  445SOL     OW 1333   0.013   2.389   1.882  0.2177  0.6861  0.5710
  445SOL    HW1 1334   0.002   2.473   1.815  0.2758  1.0444  0.7784
  445SOL    HW2 1335  -0.077   2.360   1.927 -0.7000 -1.4467  1.9735
  446SOL     OW 1336   0.263   1.908   2.347  0.2451 -0.1100 -0.9163
  446SOL    HW1 1337   0.206   1.972   2.415  0.3282  4.8534  2.5946
  446SOL    HW2 1338   0.201   1.843   2.294  1.6705 -1.0581  1.7389
  447SOL     OW 1339   1.219   1.718   1.908  0.0685 -0.1088 -0.3472
  447SOL    HW1 1340   1.123   1.746   1.940 -2.1791  0.9510 -1.2093
  447SOL    HW2 1341   1.299   1.752   1.965  1.4606 -0.3936 -0.3059
  448SOL     OW 1342   0.115   1.448   2.013  0.0766  0.0104  0.5138
  448SOL    HW1 1343   0.094   1.550   1.985 -1.5808  1.3590 -0.6766
  448SOL    HW2 1344   0.102   1.438   2.116 -2.3430  1.6906  2.0557
  449SOL     OW 1345   1.807   2.982   0.873  1.1706  0.4064 -0.6933
  449SOL    HW1 1346   1.843   2.971   0.969 -1.8487 -1.6287 -0.0324
  449SOL    HW2 1347   1.855   2.918   0.806 -2.1917 -0.3323  1.2010
  450SOL     OW 1348   2.376   1.434   0.719  0.2711  0.7272  0.4741
  450SOL    HW1 1349   2.288   1.459   0.769 -0.3499 -0.1948 -0.9586
  450SOL    HW2 1350   2.373   1.480   0.623  1.3693 -0.3973 -3.6902
  451SOL     OW 1351   1.351   3.023   1.435  0.9133 -0.6109  0.1288
  451SOL    HW1 1352   1.278   3.094   1.462  0.0431  0.0556 -2.1165
  451SOL    HW2 1353   1.370   2.951   1.511 -1.9185 -1.1160  0.9499
  452SOL     OW 1354   2.693   2.289   2.178 -0.0268 -0.2912 -0.1584
  452SOL    HW1 1355   2.650   2.377   2.210  0.9887 -0.2066  0.2321
  452SOL    HW2 1356   2.744   2.232   2.254  2.4478 -1.1979  0.9397
  453SOL     OW 1357   2.475   2.629   3.092 -0.0012 -0.1286 -0.6092
  453SOL    HW1 1358   2.390   2.678   3.124 -3.1025  0.6863  3.7417
  453SOL    HW2 1359   2.454   2.578   3.000 -2.6905 -1.2274 -0.6050
  454SOL     OW 1360   0.967   1.137   2.083 -0.6569  0.2576  0.2053
  454SOL    HW1 1361   0.957   1.139   1.980 -2.8764 -0.0547  0.3980
  454SOL    HW2 1362   1.049   1.190   2.114 -0.3231  1.7933 -0.1649
  455SOL     OW 1363   0.676   2.678   2.864 -0.5035 -0.2834  0.7384
  455SOL    HW1 1364   0.773   2.718   2.889 -3.4791  0.8430  2.8439
  455SOL    HW2 1365   0.675   2.576   2.881 -0.4696  1.1435 -3.9535
  456SOL     OW 1366   0.457   1.894   0.265  0.1136 -0.3319  0.1157
  456SOL    HW1 1367   0.532   1.837   0.309  1.3696 -0.4615 -0.2250
  456SOL    HW2 1368   0.488   1.995   0.255  2.9493 -0.2816  0.5235
  457SOL     OW 1369   0.333   2.645   0.593 -0.1536  0.1441 -0.2119
  457SOL    HW1 1370   0.329   2.729   0.526  4.5514  2.2678 -1.7813
  457SOL    HW2 1371   0.424   2.598   0.587 -0.7575  0.9325  0.3684
  458SOL     OW 1372   2.907   3.093   1.271 -0.1496  0.0497  0.2673
  458SOL    HW1 1373   2.959   3.183   1.269  2.3619  0.4015 -0.4886
  458SOL    HW2 1374   2.934   3.035   1.185  3.0512 -1.0922 -0.4597
  459SOL     OW 1375   2.110   2.609   0.746  0.1616 -0.2497  0.5704
  459SOL    HW1 1376   2.194   2.666   0.767  1.2150  2.1684  0.2157
  459SOL    HW2 1377   2.135   2.535   0.675  1.7539 -1.4846  0.5111
  460SOL     OW 1378   1.226   2.070   2.824  0.4059 -0.5196 -0.0755
  460SOL    HW1 1379   1.217   2.130   2.743  2.3267 -1.3539 -0.7032
  460SOL    HW2 1380   1.216   1.972   2.802 -0.0116  0.2912  3.4689
  461SOL     OW 1381   0.545   2.157   2.641 -0.0201 -0.5472 -0.7904
  461SOL    HW1 1382   0.486   2.074   2.615  3.6329 -0.3694 -1.0707
  461SOL    HW2 1383   0.603   2.129   2.723 -2.3658 -1.7327  0.7500
  462SOL     OW 1384   0.973   1.156   1.807  0.3443 -0.1157  0.5348
  462SOL    HW1 1385   1.027   1.096   1.742  0.6306  2.1376  0.6513
  462SOL    HW2 1386   0.903   1.224   1.774 -0.2867 -0.5593  1.0177
  463SOL     OW 1387   0.466   0.838   0.511  0.6620  0.6939 -0.4075
  463SOL    HW1 1388   0.488   0.736   0.501  0.0822  1.4637  1.9130
  463SOL    HW2 1389   0.362   0.844   0.501 -2.9997 -1.2033  1.0233
  464SOL     OW 1390   0.602   2.290   2.241  0.4189  0.0725 -0.0068
  464SOL    HW1 1391   0.573   2.356   2.314 -0.4177  2.7606 -0.8076
  464SOL    HW2 1392   0.538   2.305   2.157 -0.6519  3.5553 -1.6317
  465SOL     OW 1393   0.235   0.954   0.828  0.3728 -0.4391 -0.6787
  465SOL    HW1 1394   0.141   0.992   0.807 -2.1123  2.4152 -0.1106
  465SOL    HW2 1395   0.263   0.862   0.777 -0.4580 -0.5125 -0.2086
  466SOL     OW 1396   1.397   1.148   0.984  0.2417  0.6263  0.5213
  466SOL    HW1 1397   1.411   1.249   1.005 -3.2943  2.5488 -0.2312
  466SOL    HW2 1398   1.304   1.115   1.022 -2.6907 -3.2355 -1.8051
  467SOL     OW 1399   0.523   0.371   2.421 -0.2142  0.0813 -0.5404
  467SOL    HW1 1400   0.484   0.468   2.411 -1.4886  1.5234 -1.5329
  467SOL    HW2 1401   0.526   0.336   2.523 -0.4054 -3.1415  2.2110
  468SOL     OW 1402   0.473   2.276   1.656  0.0609  0.2246  0.2569
  468SOL    HW1 1403   0.535   2.359   1.687  1.9619  0.8259 -0.2604
  468SOL    HW2 1404   0.442   2.290   1.559 -0.5814 -0.9870 -0.4828
  469SOL     OW 1405   1.439   1.373   1.164  0.3522  0.3276  0.0584
  469SOL    HW1 1406   1.527   1.347   1.112  0.0987  0.1215 -5.7400
  469SOL    HW2 1407   1.459   1.428   1.248  1.2717 -0.3220 -3.0568
  470SOL     OW 1408   3.002   1.754   0.727  0.0059 -0.7442 -0.4676
  470SOL    HW1 1409   3.052   1.838   0.692 -1.2198 -2.7559 -2.6880
  470SOL    HW2 1410   3.061   1.674   0.724 -0.0760 -0.1570  0.2951
  471SOL     OW 1411   2.692   1.256   2.122 -0.1030 -0.0552  0.2326
  471SOL    HW1 1412   2.658   1.228   2.213  4.0622  0.3546 -0.8673
  471SOL    HW2 1413   2.764   1.331   2.130  0.0802  2.1555 -0.5728
  472SOL     OW 1414   1.127   2.453   0.046  0.4508  0.0946 -0.3476
  472SOL    HW1 1415   1.188   2.439   0.128 -0.3957 -0.1299  1.7021
  472SOL    HW2 1416   1.043   2.396   0.058  1.2140 -1.0665 -0.4773
  473SOL     OW 1417   1.100   1.554   1.008 -0.3188  0.0007  0.4124
  473SOL    HW1 1418   1.001   1.563   0.974 -2.7771 -0.5724 -3.0481
  473SOL    HW2 1419   1.117   1.474   1.075  0.5080  0.0761 -1.5064
  474SOL     OW 1420   0.650   1.276   0.535  0.4329  0.4489  0.6390
  474SOL    HW1 1421   0.600   1.200   0.486  0.0325  1.6871 -0.4121
  474SOL    HW2 1422   0.714   1.240   0.606  1.0287 -0.4987 -0.3389
  475SOL     OW 1423   2.840   0.047   0.799 -0.4600  0.4501 -0.4494
  475SOL    HW1 1424   2.916   0.105   0.839  0.0684 -0.5288  2.8248
  475SOL    HW2 1425   2.745   0.073   0.824 -1.4102 -0.8009  1.4029
  476SOL     OW 1426   0.986   3.072   1.799 -0.0678 -0.1921  0.7329
  476SOL    HW1 1427   1.048   3.010   1.852 -0.2301 -0.5782 -0.4894
  476SOL    HW2 1428   1.005   3.070   1.696 -1.4244  0.6524  1.2459
  477SOL     OW 1429   1.412   0.326   2.469  0.3191  0.1323  0.1673
  477SOL    HW1 1430   1.401   0.350   2.569 -2.4238  1.2506  2.8161
  477SOL    HW2 1431   1.493   0.266   2.450 -0.4823 -0.1088 -2.0723
  478SOL     OW 1432   2.238   1.838   0.170  0.0918  0.3349  0.7595
  478SOL    HW1 1433   2.181   1.754   0.170  0.4066 -0.0838 -1.1667
  478SOL    HW2 1434   2.329   1.829   0.216 -3.6055 -0.7943 -0.0410
  479SOL     OW 1435   1.253   1.006   2.902  0.2454  0.4671  0.1270
  479SOL    HW1 1436   1.319   1.000   2.827 -0.7220  0.5084  3.8866
  479SOL    HW2 1437   1.202   0.920   2.917  0.1595 -0.2395 -1.1079
  480SOL     OW 1438   2.649   2.344   0.370 -0.9146  0.4257  0.5189
  480SOL    HW1 1439   2.621   2.288   0.451 -0.5714 -0.9783  0.1490
  480SOL    HW2 1440   2.574   2.356   0.301  1.5714 -0.5774 -2.3249
  481SOL     OW 1441   0.973   1.152   0.907  0.2941  0.0678 -0.2707
  481SOL    HW1 1442   1.006   1.233   0.855  1.5522 -1.8035 -0.2308
  481SOL    HW2 1443   1.031   1.123   0.987 -2.2663  1.4438  1.4291
  482SOL     OW 1444   1.578   0.313   2.038 -0.1013  0.1891 -0.4065
  482SOL    HW1 1445   1.580   0.406   1.997 -0.6815 -0.4565  0.6779
  482SOL    HW2 1446   1.674   0.286   2.077  4.1646 -0.1935  1.4695
  483SOL     OW 1447   0.118   2.320   1.270  0.3940  0.4986  0.2461
  483SOL    HW1 1448   0.034   2.319   1.334 -0.1030 -0.5662 -0.1261
  483SOL    HW2 1449   0.166   2.415   1.269  1.5896  0.2378 -2.6881
  484SOL     OW 1450   1.765   1.096   1.342  0.0265 -0.2761  0.1798
  484SOL    HW1 1451   1.820   1.010   1.356 -1.9457  0.3686 -1.5249
  484SOL    HW2 1452   1.767   1.162   1.418  0.0381 -1.0538 -0.8339
  485SOL     OW 1453   0.727   1.016   1.792 -0.0941  0.3111  0.5118
  485SOL    HW1 1454   0.707   1.032   1.691 -1.5802  1.9848 -1.2023
  485SOL    HW2 1455   0.798   1.079   1.832 -1.5552  1.2733 -2.7544
  486SOL     OW 1456   0.819   1.904   2.427  0.0876  0.4683  0.2698
  486SOL    HW1 1457   0.885   1.863   2.499  1.4714 -0.7827 -0.7041
  486SOL    HW2 1458   0.791   1.994   2.462  0.2126 -1.8184 -0.9079
  487SOL     OW 1459   1.803   1.655   0.962  0.2857  0.1676 -0.6326
  487SOL    HW1 1460   1.855   1.566   0.977  1.3587 -0.3384  5.4384
  487SOL    HW2 1461   1.853   1.716   0.896 -1.8378  0.8751  1.9574
  488SOL     OW 1462   2.999   0.879   2.215 -0.3610  0.2830 -0.1169
  488SOL    HW1 1463   3.013   0.780   2.186 -2.7966 -0.5552 -0.0340
  488SOL    HW2 1464   3.038   0.899   2.310  0.2594  0.5301 -0.0907
  489SOL     OW 1465   2.776   0.313   1.272  0.2077  0.6159 -0.0529
  489SOL    HW1 1466   2.792   0.339   1.366 -0.7173 -0.5360 -1.8019
  489SOL    HW2 1467   2.850   0.251   1.242 -1.0290  1.1001 -0.9629
  490SOL     OW 1468   1.524   2.961   2.770  0.0748  0.2611  0.0640
  490SOL    HW1 1469   1.557   2.862   2.768  2.1928  0.0859  0.6533
  490SOL    HW2 1470   1.457   2.981   2.694  2.8740  0.1891  1.0879
  491SOL     OW 1471   1.746   1.418   2.619  0.2303 -0.2075  0.3910
  491SOL    HW1 1472   1.653   1.456   2.646 -2.1294  1.7420 -1.3504
  491SOL    HW2 1473   1.823   1.463   2.668 -0.0551  0.5292 -0.6333
  492SOL     OW 1474   0.557   2.112   0.660  0.1018 -0.9512 -0.1841
  492SOL    HW1 1475   0.617   2.070   0.733  3.5040 -0.0622  1.1201
  492SOL    HW2 1476   0.467   2.158   0.693  2.0008 -0.5666  0.2739
  493SOL     OW 1477   0.417   1.439   2.018  0.3055  0.0397 -0.2559
  493SOL    HW1 1478   0.332   1.482   1.982 -2.4573  1.2720  1.7182
  493SOL    HW2 1479   0.398   1.351   2.078  0.7048  0.0312  1.1880
  494SOL     OW 1480   2.720   2.707   0.152  0.3768 -0.1563 -0.0621
  494SOL    HW1 1481   2.740   2.655   0.242 -1.4685 -0.5950  1.6756
  494SOL    HW2 1482   2.637   2.678   0.099  1.2035 -3.5839  1.0743
  495SOL     OW 1483   2.683   2.723   2.729  0.5508 -0.3097  0.3773
  495SOL    HW1 1484   2.683   2.618   2.732  2.5430  2.1674  0.3729
  495SOL    HW2 1485   2.734   2.753   2.645  0.3732 -2.1931  2.6197
  496SOL     OW 1486   2.079   2.224   0.708  0.1109 -0.1361 -0.4236
  496SOL    HW1 1487   2.111   2.285   0.785  0.6745  0.1360  1.7431
  496SOL    HW2 1488   2.053   2.126   0.738 -0.6125 -1.7911 -1.9001
  497SOL     OW 1489   0.215   2.985   2.399  0.5620 -0.1650  0.3317
  497SOL    HW1 1490   0.175   3.061   2.458  0.0715 -0.8985  2.1892
  497SOL    HW2 1491   0.250   3.015   2.309  0.8315 -0.1588 -1.7936
  498SOL     OW 1492   1.171   1.351   1.184  0.1752 -0.2559  0.4641
  498SOL    HW1 1493   1.272   1.372   1.169 -1.5821  0.9672 -0.1975
  498SOL    HW2 1494   1.140   1.394   1.273  1.5803  0.2678  0.1630
  499SOL     OW 1495   0.657   1.762   0.378 -0.0470  0.8500  0.3542
  499SOL    HW1 1496   0.654   1.666   0.340  2.2008  1.5106  3.5452
  499SOL    HW2 1497   0.741   1.774   0.440  1.0173  1.3409  2.3977
  500SOL     OW 1498   1.421   2.836   1.630 -0.1307 -0.0719 -0.4359
  500SOL    HW1 1499   1.424   2.838   1.738 -1.2456 -2.6124  2.2295
  500SOL    HW2 1500   1.486   2.758   1.611  3.2896  1.5831  2.3107
  501SOL     OW 1501   0.801   1.114   2.299  0.0751  0.4915  0.1592
  501SOL    HW1 1502   0.713   1.068   2.292 -1.6258  0.7696  0.4317
  501SOL    HW2 1503   0.841   1.123   2.199 -1.4898  1.9319 -0.5254
  502SOL     OW 1504   2.570   0.965   1.720  0.2193  0.1842  0.0592
  502SOL    HW1 1505   2.573   0.968   1.613  1.0624  0.1884 -0.6562
  502SOL    HW2 1506   2.559   0.869   1.755 -3.0836  4.1289 -0.1668
  503SOL     OW 1507   1.341   0.128   0.699 -0.1243 -0.0413  0.0963
  503SOL    HW1 1508   1.284   0.201   0.659  0.1416 -1.9947  1.0751
  503SOL    HW2 1509   1.422   0.173   0.750  0.7197  0.6792 -1.6269
  504SOL     OW 1510   3.014   2.346   1.463 -0.5506  0.0682  0.3919
  504SOL    HW1 1511   2.959   2.433   1.482 -2.6135  1.2542  2.4662
  504SOL    HW2 1512   3.063   2.303   1.544  3.2373 -2.7232  0.7726
  505SOL     OW 1513   2.321   1.192   1.424  0.2684  0.1166  0.3375
  505SOL    HW1 1514   2.314   1.221   1.325  0.9547  0.7903  1.8136
  505SOL    HW2 1515   2.410   1.212   1.458 -4.3143 -0.9603 -1.1870
  506SOL     OW 1516   1.958   0.201   1.820 -0.2749 -0.2419 -0.2362
  506SOL    HW1 1517   1.988   0.136   1.895  1.1096  0.4921 -2.8564
  506SOL    HW2 1518   1.961   0.301   1.845  0.8063 -3.2196 -0.1884
  507SOL     OW 1519   0.523   0.668   2.140 -0.0256  0.5645 -0.4447
  507SOL    HW1 1520   0.451   0.602   2.108 -2.4792 -0.6814  0.2562
  507SOL    HW2 1521   0.606   0.629   2.169 -2.4012  2.2758  0.4149
  508SOL     OW 1522   0.297   1.600   0.755 -0.0370  0.1381  0.6470
  508SOL    HW1 1523   0.355   1.666   0.695  2.9045 -1.6647  0.1807
  508SOL    HW2 1524   0.265   1.643   0.848  1.2785  3.1147  2.8780
  509SOL     OW 1525   1.189   1.248   2.352 -0.3382  0.4388 -0.4411
  509SOL    HW1 1526   1.225   1.200   2.262 -0.9427  0.4004  3.6557
  509SOL    HW2 1527   1.113   1.190   2.395 -1.4139  0.1678  2.5324
  510SOL     OW 1528   1.257   2.086   2.220  0.1883 -0.6555  0.1812
  510SOL    HW1 1529   1.284   2.130   2.132  1.4470 -1.9808  1.7335
  510SOL    HW2 1530   1.163   2.054   2.213 -0.7860  0.8408  0.3563
  511SOL     OW 1531   3.013   2.711   1.323 -0.0892  0.3277 -0.5253
  511SOL    HW1 1532   3.006   2.695   1.216 -1.4911  0.2637 -0.7228
  511SOL    HW2 1533   2.920   2.725   1.368  1.8235  0.5260 -1.8380
  512SOL     OW 1534   2.374   0.428   1.376 -0.0069 -0.5632 -0.0455
  512SOL    HW1 1535   2.267   0.441   1.368  0.6831 -1.4929  2.2530
  512SOL    HW2 1536   2.425   0.402   1.289  3.8005  1.4444  0.4664
  513SOL     OW 1537   2.599   2.097   0.908 -0.5222 -0.1994  0.3131
  513SOL    HW1 1538   2.550   2.159   0.837 -1.0616 -0.6758 -1.7262
  513SOL    HW2 1539   2.674   2.043   0.869  0.2995  1.4470 -1.0146
  514SOL     OW 1540   0.622   2.740   0.477  0.0911 -0.2263 -0.4362
  514SOL    HW1 1541   0.616   2.814   0.403 -1.7148  2.2400 -0.7480
  514SOL    HW2 1542   0.672   2.770   0.563  0.1203 -0.3870 -1.1223
  515SOL     OW 1543   1.958   1.247   2.372  0.3443 -0.3146 -0.0161
  515SOL    HW1 1544   1.948   1.195   2.279 -3.9296 -0.4525  1.9566
  515SOL    HW2 1545   1.873   1.229   2.436  0.2384 -1.4051  0.0133
  516SOL     OW 1546   0.265   0.235   1.918 -0.2335  0.3411 -0.3262
  516SOL    HW1 1547   0.357   0.197   1.875  1.0684 -0.2277 -2.5941
  516SOL    HW2 1548   0.180   0.177   1.912 -0.9274  2.0185  1.0327
  517SOL     OW 1549   0.414   0.024   1.128 -0.8135 -0.3400 -0.3897
  517SOL    HW1 1550   0.439   0.095   1.200 -3.7400  0.0614 -3.2175
  517SOL    HW2 1551   0.312  -0.004   1.125  0.0002  3.0134 -3.0034
  518SOL     OW 1552   2.177   3.038   1.803  0.2338  0.0784  0.1718
  518SOL    HW1 1553   2.209   3.135   1.824 -2.7678 -2.9954  1.9102
  518SOL    HW2 1554   2.190   3.016   1.704  1.1853  1.2586  0.8674
  519SOL     OW 1555   2.393   2.136   2.488 -0.1062 -0.2959  0.6532
  519SOL    HW1 1556   2.359   2.121   2.584 -1.0633  0.1971  0.9295
  519SOL    HW2 1557   2.368   2.234   2.458  0.1867 -0.7086  0.7377
  520SOL     OW 1558   1.855   2.736   1.780 -0.2791  0.1591  0.6352
  520SOL    HW1 1559   1.754   2.728   1.788 -1.3291  1.1190  0.2972
  520SOL    HW2 1560   1.902   2.655   1.734 -2.0804 -0.3323 -0.5762
  521SOL     OW 1561   0.562   3.050   2.059  0.2196  0.2781 -0.3414
  521SOL    HW1 1562   0.465   3.059   2.100 -1.3771 -2.2165 -1.0662
  521SOL    HW2 1563   0.630   3.042   2.137  0.3535 -0.6649 -2.3836
  522SOL     OW 1564   0.245   1.872   1.475 -0.1597  0.2457 -0.3324
  522SOL    HW1 1565   0.290   1.940   1.537  2.3348 -1.4159  0.1881
  522SOL    HW2 1566   0.183   1.915   1.402 -0.8092  2.1463 -1.8825
  523SOL     OW 1567   2.222   2.932   1.546 -0.4604  0.0255  0.2004
  523SOL    HW1 1568   2.310   2.889   1.515  0.3778  0.1383 -1.9823
  523SOL    HW2 1569   2.135   2.894   1.509 -1.1951  0.7535 -0.7343
  524SOL     OW 1570   0.186   2.785   2.807 -0.2943  0.1631  0.5416
  524SOL    HW1 1571   0.124   2.861   2.820 -1.0613 -1.6904 -0.1271
  524SOL    HW2 1572   0.285   2.809   2.811 -1.1885  1.5857  0.1629
  525SOL     OW 1573   2.154   2.024   0.382  0.5286  0.3499  0.0099
  525SOL    HW1 1574   2.174   1.991   0.482  1.9548  1.8274  2.4925
  525SOL    HW2 1575   2.171   1.956   0.310  0.6978  0.7247 -0.3831
  526SOL     OW 1576   0.478   1.488   1.653  0.0096 -0.0671  0.0387
  526SOL    HW1 1577   0.529   1.537   1.730 -1.1105 -1.3954 -0.6269
  526SOL    HW2 1578   0.519   1.397   1.621  1.3576 -2.5364  3.1618
  527SOL     OW 1579   1.016   2.863   1.219 -0.3037  0.1170  0.8123
  527SOL    HW1 1580   1.099   2.797   1.229  1.9506  1.0179  1.4846
  527SOL    HW2 1581   1.053   2.960   1.205  1.2594  1.3185  0.4652
  528SOL     OW 1582   1.356   2.365   0.542  0.1719  0.4233 -0.1612
  528SOL    HW1 1583   1.383   2.263   0.546 -1.1510 -3.1155  1.3856
  528SOL    HW2 1584   1.408   2.425   0.610 -1.4898 -1.2360  2.4698
  529SOL     OW 1585   1.963   1.766   0.714  0.2215 -0.2913  0.4968
  529SOL    HW1 1586   1.884   1.775   0.643  0.7778  3.4319 -2.0288
  529SOL    HW2 1587   2.005   1.855   0.750 -1.0660 -1.4327 -0.3554
  530SOL     OW 1588   0.328   2.620   0.248 -0.1823  0.1933  0.3478
  530SOL    HW1 1589   0.303   2.686   0.320 -3.4820  1.3849 -0.6626
  530SOL    HW2 1590   0.396   2.542   0.271  0.4153  0.2312  2.8850
  531SOL     OW 1591   1.829   1.022   1.031  0.0757  0.1817  0.2009
  531SOL    HW1 1592   1.836   1.050   0.930 -1.2431 -0.5020 -0.8459
  531SOL    HW2 1593   1.729   1.001   1.045 -1.7672 -0.6761 -3.2574
  532SOL     OW 1594   0.383   1.199   0.682  0.0487 -0.1944 -0.1013
  532SOL    HW1 1595   0.418   1.186   0.588 -0.2501  0.5486 -2.2549
  532SOL    HW2 1596   0.332   1.113   0.705 -0.9998 -0.2335 -0.9277
  533SOL     OW 1597   1.780   0.039   2.564  0.0896 -0.3653  0.2287
  533SOL    HW1 1598   1.882   0.010   2.589  0.0496 -0.6047  1.2235
  533SOL    HW2 1599   1.724   0.063   2.651  0.4766 -1.8180  3.1757
  534SOL     OW 1600   0.321   0.167   1.561 -0.0936 -0.0815  0.8762
  534SOL    HW1 1601   0.413   0.194   1.529  0.0172  0.4548  1.4413
  534SOL    HW2 1602   0.256   0.244   1.565  0.0702 -1.7267 -2.4181
  535SOL     OW 1603   1.922   0.426   0.243 -0.1508 -0.3398  0.0317
  535SOL    HW1 1604   1.940   0.513   0.304  1.3187  2.9095  0.3129
  535SOL    HW2 1605   1.840   0.375   0.274 -1.6940 -0.6517 -0.3348
  536SOL     OW 1606   1.403   2.570   0.963  0.2672 -0.2044  0.5521
  536SOL    HW1 1607   1.379   2.549   1.064 -0.0650 -0.9489  2.1714
  536SOL    HW2 1608   1.318   2.609   0.912  1.5382 -1.5610 -1.3305
  537SOL     OW 1609   0.822   0.176   2.329  0.1960  0.3002 -0.4039
  537SOL    HW1 1610   0.822   0.218   2.234 -2.7102 -2.7150 -0.6790
  537SOL    HW2 1611   0.752   0.099   2.336  0.7755  0.3416  5.7419
  538SOL     OW 1612   1.701   2.342   1.522 -0.1277  0.5899 -0.0806
  538SOL    HW1 1613   1.672   2.247   1.486  3.6408 -1.2694 -3.0339
  538SOL    HW2 1614   1.793   2.361   1.479  1.0549  1.8285 -1.5985
  539SOL     OW 1615   0.191   1.563   2.709  0.0816 -0.2211 -0.2883
  539SOL    HW1 1616   0.138   1.574   2.624  0.0614 -2.0280  0.8186
  539SOL    HW2 1617   0.163   1.631   2.780  1.1104 -0.6083 -1.6951
  540SOL     OW 1618   2.731   1.699   1.985  0.3434 -0.7253  0.1681
  540SOL    HW1 1619   2.724   1.612   2.039 -1.8370 -0.2346  0.9150
  540SOL    HW2 1620   2.648   1.756   1.999 -1.0369  0.0955 -1.7149
  541SOL     OW 1621   0.455   2.300   3.071 -0.1544  0.2466  0.0832
  541SOL    HW1 1622   0.504   2.244   3.147 -1.5556 -0.1101  0.2325
  541SOL    HW2 1623   0.359   2.266   3.060  4.5096 -1.2930  2.4443
  542SOL     OW 1624   2.266   2.576   0.389 -0.0702 -0.4994  0.2745
  542SOL    HW1 1625   2.224   2.657   0.338  1.0910  0.5004  0.6106
  542SOL    HW2 1626   2.195   2.521   0.441  1.4905 -0.3138  1.3303
  543SOL     OW 1627   1.095   1.763   1.656  0.0993 -0.1509  0.1077
  543SOL    HW1 1628   1.065   1.805   1.749  0.7943  1.3769  1.4064
  543SOL    HW2 1629   1.066   1.817   1.575 -0.6171 -0.7012 -0.6409
  544SOL     OW 1630   1.016   0.424   0.220  0.3761 -0.3149 -0.0059
  544SOL    HW1 1631   1.009   0.333   0.278  0.0447 -1.4102 -1.2813
  544SOL    HW2 1632   1.028   0.407   0.114 -1.3333 -2.0396 -0.4564
  545SOL     OW 1633   1.096   1.798   0.835  0.1242  0.5809 -0.5101
  545SOL    HW1 1634   1.199   1.804   0.828  0.3733 -1.8759  0.2971
  545SOL    HW2 1635   1.073   1.729   0.905 -2.4526  0.8045 -2.2791
  546SOL     OW 1636   2.646   1.530   3.096  0.0988 -0.8943  0.4432
  546SOL    HW1 1637   2.601   1.562   3.011 -2.5793  2.5700  0.6716
  546SOL    HW2 1638   2.575   1.526   3.171  0.6277 -1.1675 -0.2323
  547SOL     OW 1639   0.558   3.098   2.684  0.0254 -0.5517  0.1434
  547SOL    HW1 1640   0.642   3.042   2.671 -0.5937 -1.6828  0.4089
  547SOL    HW2 1641   0.482   3.039   2.709 -0.4746 -0.3648  2.8079
  548SOL     OW 1642   2.097   0.837   3.006  0.2663 -0.2341 -0.9583
  548SOL    HW1 1643   2.000   0.798   3.006 -0.5022  1.5428  1.1583
  548SOL    HW2 1644   2.101   0.927   3.066  1.0503 -0.3664  0.5653
  549SOL     OW 1645   0.680   0.517   0.209  0.0735  0.1474  0.6015
  549SOL    HW1 1646   0.652   0.540   0.115 -0.0628 -3.4485  0.3094
  549SOL    HW2 1647   0.775   0.556   0.244  2.9459  1.0931 -1.8666
  550SOL     OW 1648   2.469   2.842   2.888  0.3611  0.1640  0.4650
  550SOL    HW1 1649   2.444   2.774   2.968 -1.9480 -1.3294  2.2121
  550SOL    HW2 1650   2.540   2.803   2.821 -0.8046 -2.0276  0.3463
  551SOL     OW 1651   0.271   0.910   0.216 -0.5965  0.4967 -0.4516
  551SOL    HW1 1652   0.366   0.868   0.201 -0.7095  3.1153  1.6518
  551SOL    HW2 1653   0.241   0.903   0.312  0.6978 -1.6819 -1.4036
  552SOL     OW 1654   0.728   2.981   1.840  0.4663 -0.0981 -0.0155
  552SOL    HW1 1655   0.684   3.006   1.929 -0.9861 -0.1557 -0.8219
  552SOL    HW2 1656   0.828   3.000   1.831 -2.7538 -4.3249  4.3008
  553SOL     OW 1657   3.006   2.554   0.326  0.0783 -0.1248 -0.1273
  553SOL    HW1 1658   2.988   2.453   0.310 -1.4214  1.3725 -0.7312
  553SOL    HW2 1659   2.991   2.582   0.426 -3.9333 -0.4730 -3.1316
  554SOL     OW 1660   2.127   0.367   0.596  0.5104 -0.6867 -0.2652
  554SOL    HW1 1661   2.204   0.356   0.524  0.8423  2.1085 -1.7859
  554SOL    HW2 1662   2.132   0.296   0.673  2.8545  0.9862  1.0689
  555SOL     OW 1663   0.413   2.799   2.527 -0.0654 -0.8963  0.2485
  555SOL    HW1 1664   0.318   2.844   2.503 -1.5606  1.1724  0.6402
  555SOL    HW2 1665   0.447   2.736   2.455  0.1808  0.5507  1.3048
  556SOL     OW 1666   0.781   2.405   1.516 -0.0161 -0.1766 -0.5076
  556SOL    HW1 1667   0.834   2.481   1.567  1.0428  0.5891  0.2956
  556SOL    HW2 1668   0.838   2.366   1.441  3.5746  2.2579  1.2566
  557SOL     OW 1669   0.109   2.055   0.150  0.0801  0.4892 -0.3141
  557SOL    HW1 1670   0.026   1.998   0.134  1.0835  1.7967 -2.9058
  557SOL    HW2 1671   0.137   2.112   0.067 -1.3774  0.4273 -0.1349
  558SOL     OW 1672   2.934   2.290   0.287 -0.2670 -0.5381 -0.2343
  558SOL    HW1 1673   2.836   2.292   0.322  0.0705  1.3178  0.2015
  558SOL    HW2 1674   2.944   2.278   0.187  2.0052 -2.1741  1.1580
  559SOL     OW 1675   0.403   2.303   1.362  0.5106 -0.3286  0.3182
  559SOL    HW1 1676   0.307   2.305   1.332 -0.5862 -2.5901 -1.9519
  559SOL    HW2 1677   0.448   2.222   1.318 -1.2911 -0.0590  1.6202
  560SOL     OW 1678   2.092   1.144   3.074 -0.1056  0.1126 -0.0276
  560SOL    HW1 1679   2.002   1.187   3.102 -0.3451  1.1172  1.6523
  560SOL    HW2 1680   2.168   1.210   3.057 -0.2020  1.2289 -0.3614
  561SOL     OW 1681   3.006   1.881   0.007  0.1647 -0.3586  0.0532
  561SOL    HW1 1682   2.985   1.829   0.096  3.3905 -0.1607 -1.1851
  561SOL    HW2 1683   2.945   1.968  -0.001  1.4553 -1.8606  1.5561
  562SOL     OW 1684   1.040   2.271   2.332 -0.0159  0.1133 -0.3430
  562SOL    HW1 1685   0.945   2.233   2.359 -5.6087 -4.0525 -1.3589
  562SOL    HW2 1686   1.043   2.377   2.346 -0.5765 -0.2307 -0.6398
  563SOL     OW 1687   0.714   2.556   2.617 -0.2829 -0.1176  0.8889
  563SOL    HW1 1688   0.789   2.483   2.629  1.8785 -1.4185  1.6765
  563SOL    HW2 1689   0.708   2.619   2.697 -0.2551  1.5913  0.9952
  564SOL     OW 1690   2.742   1.318   2.961  0.2364 -0.0791 -0.2138
  564SOL    HW1 1691   2.722   1.343   3.059  1.7736 -1.6954 -1.4749
  564SOL    HW2 1692   2.800   1.392   2.917  0.1136  2.9438  1.5406
  565SOL     OW 1693   2.559   1.975   2.610 -0.5295  0.3256  0.2283
  565SOL    HW1 1694   2.519   2.036   2.534 -0.1214  0.4440 -0.7012
  565SOL    HW2 1695   2.603   2.034   2.681 -0.6110  1.3960 -0.7521
  566SOL     OW 1696   2.015   2.820   1.396  1.0517 -0.1633 -0.1893
  566SOL    HW1 1697   1.968   2.728   1.390 -2.3967 -1.5438  1.6281
  566SOL    HW2 1698   2.012   2.869   1.304  2.0345 -1.0764  0.3386
  567SOL     OW 1699   2.481   0.090   2.275 -0.7945  0.1847  0.4819
  567SOL    HW1 1700   2.543   0.151   2.217  1.5598 -0.9598  5.1404
  567SOL    HW2 1701   2.401   0.051   2.228  1.7612 -1.9633 -3.7865
  568SOL     OW 1702   1.526   1.792   0.309 -0.6472  0.0904 -0.2953
  568SOL    HW1 1703   1.456   1.861   0.279  0.5881  0.7828  1.3559
  568SOL    HW2 1704   1.606   1.782   0.245 -2.7130  0.6880 -1.0918
  569SOL     OW 1705   0.276   0.673   0.777 -0.2743  0.1346  0.2103
  569SOL    HW1 1706   0.326   0.585   0.756 -2.6455 -1.7305 -0.6211
  569SOL    HW2 1707   0.176   0.655   0.804  0.1941 -1.6149 -0.7615
  570SOL     OW 1708   0.595   0.854   2.862 -0.1813  0.7474  0.5477
  570SOL    HW1 1709   0.654   0.853   2.778 -2.9104  0.0349 -1.6024
  570SOL    HW2 1710   0.607   0.929   2.936 -0.4417 -0.8770 -0.0731
  571SOL     OW 1711   0.775   3.084   1.015 -0.4609 -0.6204 -0.3912
  571SOL    HW1 1712   0.825   3.096   0.925  2.3923 -0.8074 -1.6480
  571SOL    HW2 1713   0.691   3.027   1.004 -0.3038  0.9464 -0.6520
  572SOL     OW 1714   1.578   2.621   1.288  0.2148  0.2397  0.1123
  572SOL    HW1 1715   1.493   2.556   1.283 -0.4755  0.7012  2.3363
  572SOL    HW2 1716   1.555   2.722   1.268 -2.4005  2.3759  1.4787
  573SOL     OW 1717   2.888   0.459   2.058  0.3929  0.0597  0.0651
  573SOL    HW1 1718   2.830   0.372   2.071 -0.7406  1.5868 -1.9616
  573SOL    HW2 1719   2.826   0.543   2.051 -0.8387  2.3057  0.8981
  574SOL     OW 1720   0.198   1.702   1.028 -0.3275 -0.2267  0.1059
  574SOL    HW1 1721   0.165   1.799   1.012  0.8108  1.3440 -0.9429
  574SOL    HW2 1722   0.130   1.641   1.071 -0.6385  0.7829  1.5434
  575SOL     OW 1723   0.912   2.156   0.964 -0.5568 -0.2561 -0.4804
  575SOL    HW1 1724   0.858   2.175   1.053 -2.3563 -0.8108 -0.2408
  575SOL    HW2 1725   0.920   2.239   0.900 -1.3382  0.3829 -0.3646
  576SOL     OW 1726   2.885   3.012   1.699  0.7725  0.5795  0.3177
  576SOL    HW1 1727   2.785   2.994   1.721  1.6407 -0.9200 -1.6616
  576SOL    HW2 1728   2.910   3.111   1.681  0.0106  0.5625 -0.1688
  577SOL     OW 1729   2.506   1.247   0.024 -0.2626 -0.5789 -0.0053
  577SOL    HW1 1730   2.529   1.198  -0.067 -1.2812  1.9283 -3.6960
  577SOL    HW2 1731   2.582   1.228   0.093 -1.8961  1.0597 -0.7261
  578SOL     OW 1732   1.348   2.774   2.459  0.7223 -0.2179 -0.4587
  578SOL    HW1 1733   1.243   2.795   2.465 -1.3410  0.9563  1.4777
  578SOL    HW2 1734   1.403   2.862   2.460  0.8863  1.0840 -0.7359
  579SOL     OW 1735   0.088   2.514   0.125  0.0891  0.3712 -0.1056
  579SOL    HW1 1736   0.017   2.541   0.197  0.1897 -0.3151  1.9231
  579SOL    HW2 1737   0.184   2.499   0.163  1.9457 -0.8604  0.7459
  580SOL     OW 1738   1.027   2.647   0.417 -0.6459  0.5252 -0.2085
  580SOL    HW1 1739   1.097   2.665   0.338  3.2001  0.5121 -1.5667
  580SOL    HW2 1740   0.936   2.614   0.381  2.8365  0.6256  0.2766
  581SOL     OW 1741   1.267   2.616   1.491  0.3662  0.6976 -0.2479
  581SOL    HW1 1742   1.333   2.534   1.506 -0.0011 -1.8917 -0.0044
  581SOL    HW2 1743   1.304   2.710   1.512  1.4361  2.9390 -0.9153
  582SOL     OW 1744   1.499   0.093   1.863  0.0387 -0.1827 -0.2457
  582SOL    HW1 1745   1.528   0.181   1.910 -0.8963 -0.3919  2.2608
  582SOL    HW2 1746   1.573   0.059   1.799  1.8299  1.9446  2.7894
  583SOL     OW 1747   2.493   3.085   0.522 -0.5533  0.3955  0.5701
  583SOL    HW1 1748   2.586   3.057   0.483  0.2448 -2.2536 -0.3478
  583SOL    HW2 1749   2.442   2.999   0.542  0.8315  1.6195  0.2007
  584SOL     OW 1750   1.579   0.897   2.092 -0.2393 -0.3820 -0.0273
  584SOL    HW1 1751   1.625   0.991   2.078 -0.1076  1.5157  1.4455
  584SOL    HW2 1752   1.632   0.837   2.154  3.5597  0.3827 -0.1283
  585SOL     OW 1753   2.108   2.656   2.892  0.2618 -0.1105 -0.1830
  585SOL    HW1 1754   2.142   2.566   2.865 -0.6181  1.1375  0.0254
  585SOL    HW2 1755   2.003   2.662   2.881 -0.0631 -1.8871  0.4326
  586SOL     OW 1756   2.826   0.388   1.534  0.5776 -0.0577 -0.3215
  586SOL    HW1 1757   2.839   0.460   1.611  1.2596  2.3356  0.9812
  586SOL    HW2 1758   2.740   0.334   1.536 -0.5287  1.4715  0.8391
  587SOL     OW 1759   1.980   1.558   2.694  0.1739  0.0338 -0.2223
  587SOL    HW1 1760   2.042   1.503   2.634 -0.3478 -1.9400  1.2487
  587SOL    HW2 1761   2.019   1.546   2.788  1.2513 -0.7451 -2.9988
  588SOL     OW 1762   0.473   2.706   2.253 -0.3014  0.0667  0.1325
  588SOL    HW1 1763   0.372   2.711   2.219 -2.3876  0.3545  0.0786
  588SOL    HW2 1764   0.495   2.616   2.299 -0.6935  0.4201  1.9366
  589SOL     OW 1765   2.142   1.415   2.517  0.0294 -0.4691  0.3245
  589SOL    HW1 1766   2.081   1.354   2.462  1.8333  0.4938  0.4933
  589SOL    HW2 1767   2.239   1.377   2.515  1.1986 -0.2250 -3.3231
  590SOL     OW 1768   2.338   1.673   2.039  0.1319  0.1624 -0.3838
  590SOL    HW1 1769   2.386   1.583   2.022 -0.3700  1.0198  0.9730
  590SOL    HW2 1770   2.374   1.733   2.116  1.1341 -1.0673 -2.0684
  591SOL     OW 1771   1.317   2.375   0.269 -0.4482  0.2369 -0.0786
  591SOL    HW1 1772   1.359   2.295   0.220 -1.6932 -1.0110 -0.1580
  591SOL    HW2 1773   1.322   2.364   0.371  1.0934  1.8544 -1.5775
  592SOL     OW 1774   1.806   2.286   0.731  0.2718 -0.1534 -0.5627
  592SOL    HW1 1775   1.763   2.342   0.652 -2.0311  0.9330 -0.6563
  592SOL    HW2 1776   1.908   2.290   0.730  0.6067  0.8635 -2.0789
  593SOL     OW 1777   0.707   0.239   0.245 -0.2864 -0.3471  0.3681
  593SOL    HW1 1778   0.795   0.206   0.197  2.2811  0.0367  1.0994
  593SOL    HW2 1779   0.687   0.337   0.220 -0.9849 -0.8765 -1.0083
  594SOL     OW 1780   0.955   1.880   2.705  0.1250  0.0849  0.2131
  594SOL    HW1 1781   1.050   1.837   2.707  1.7551 -1.0865  1.3064
  594SOL    HW2 1782   0.953   1.983   2.732  0.9875  0.9524  0.4321
  595SOL     OW 1783   1.559   0.067   1.076 -0.4072  0.3117 -0.1017
  595SOL    HW1 1784   1.618  -0.007   1.034 -2.2229 -0.3812  2.4279
  595SOL    HW2 1785   1.457   0.052   1.055 -1.3378  0.7483 -2.9690
  596SOL     OW 1786   0.004   1.428   2.245 -0.2829  0.5758 -0.1480
  596SOL    HW1 1787  -0.012   1.322   2.253  2.4431 -1.6811  0.7743
  596SOL    HW2 1788   0.043   1.477   2.330  0.6139 -0.6909 -0.7658
  597SOL     OW 1789   2.000   2.545   1.638  0.3144 -0.0719  0.2971
  597SOL    HW1 1790   1.975   2.477   1.570 -0.5854  2.4016  2.5195
  597SOL    HW2 1791   2.099   2.553   1.663 -4.1176  2.8902  2.2276
  598SOL     OW 1792   2.517   2.959   1.260  0.0469  0.0279 -0.6723
  598SOL    HW1 1793   2.575   3.012   1.330 -1.5091 -0.7004  1.2315
  598SOL    HW2 1794   2.566   2.924   1.178 -0.5781 -0.2340  0.5292
  599SOL     OW 1795   2.938   0.324   2.497 -0.6333 -0.1238 -0.0764
  599SOL    HW1 1796   3.031   0.357   2.460  0.2961  1.7930  1.0265
  599SOL    HW2 1797   2.862   0.395   2.469 -1.1334 -1.4087 -1.0254
  600SOL     OW 1798   2.813   1.128   2.773  0.1472 -0.2562 -0.0755
  600SOL    HW1 1799   2.759   1.037   2.767  2.5185 -0.0557 -0.8592
  600SOL    HW2 1800   2.777   1.197   2.846 -3.2808 -1.8199 -0.0813
  601SOL     OW 1801   2.980   1.296   1.973 -0.0426  0.5744 -0.1941
  601SOL    HW1 1802   2.895   1.329   1.923 -0.6637 -2.3795  4.8155
  601SOL    HW2 1803   3.063   1.359   1.964  0.7973  0.5776  0.2749
  602SOL     OW 1804   1.448   1.750   2.373  0.7591 -0.1376 -0.5501
  602SOL    HW1 1805   1.390   1.664   2.363  0.1994 -2.3457  1.9580
  602SOL    HW2 1806   1.544   1.724   2.371  0.3024 -0.4115  2.5558
  603SOL     OW 1807   0.594   1.204   2.730 -0.0450 -0.0806 -0.4961
  603SOL    HW1 1808   0.499   1.186   2.688  0.8351  2.1829  1.4681
  603SOL    HW2 1809   0.672   1.147   2.691 -2.0974 -0.0978 -1.5907
  604SOL     OW 1810   2.390   1.013   0.155  0.1474  0.2529  0.0657
  604SOL    HW1 1811   2.434   1.089   0.098 -1.5083  2.1730 -0.5190
  604SOL    HW2 1812   2.391   0.919   0.100  1.3415  0.4959  1.2243
  605SOL     OW 1813   2.533   1.139   1.943  0.2650 -0.0468  0.7316
  605SOL    HW1 1814   2.586   1.098   1.864  0.6524  0.7520 -4.5588
  605SOL    HW2 1815   2.592   1.172   2.019  1.6901 -3.4305 -0.2968
  606SOL     OW 1816   1.491   2.530   2.574  0.2156 -0.3680 -0.8201
  606SOL    HW1 1817   1.415   2.591   2.529  1.1860  0.8391 -1.0890
  606SOL    HW2 1818   1.449   2.438   2.601 -1.7020  1.1821  0.6436
  607SOL     OW 1819   1.344   1.586   0.328 -0.2804 -0.1396 -0.5275
  607SOL    HW1 1820   1.250   1.621   0.342  2.2118 -1.8151  0.1371
  607SOL    HW2 1821   1.414   1.665   0.334  0.6425 -0.7879 -0.2193
  608SOL     OW 1822   1.422   2.883   0.331  0.1881 -0.9111  0.2205
  608SOL    HW1 1823   1.516   2.908   0.292 -1.5764  1.0399  0.3795
  608SOL    HW2 1824   1.376   2.960   0.384 -0.1060 -1.3911  1.2655
  609SOL     OW 1825   1.295   1.358   0.186 -0.9178 -0.4217  0.3510
  609SOL    HW1 1826   1.280   1.433   0.257 -1.2567 -3.0363 -2.5011
  609SOL    HW2 1827   1.247   1.386   0.104  1.6040 -0.7547  0.7523
  610SOL     OW 1828   3.014   1.156   2.203 -0.0284 -0.1132 -0.0599
  610SOL    HW1 1829   3.008   1.053   2.191  0.2214  1.5524  0.5834
  610SOL    HW2 1830   2.985   1.208   2.119 -1.1126  0.2176  1.8123
  611SOL     OW 1831   2.536   0.295   1.120  0.2890  0.1226  0.2987
  611SOL    HW1 1832   2.464   0.218   1.138 -0.0760 -0.9977 -3.0571
  611SOL    HW2 1833   2.613   0.294   1.189 -2.1344 -0.2987  1.7506
  612SOL     OW 1834   0.751   2.276   1.166 -0.0163  0.1072  0.4560
  612SOL    HW1 1835   0.674   2.211   1.190 -0.6138 -0.1110  0.0477
  612SOL    HW2 1836   0.718   2.370   1.126 -1.0883 -0.1573 -4.1085
  613SOL     OW 1837   0.825   1.369   2.422  0.1930  0.2227 -0.2258
  613SOL    HW1 1838   0.798   1.444   2.358 -2.5243 -2.4609  1.4792
  613SOL    HW2 1839   0.816   1.276   2.379 -2.6292 -1.4961  3.1855
  614SOL     OW 1840   1.549   1.616   1.987 -0.4906  0.0815  0.6656
  614SOL    HW1 1841   1.515   1.713   1.965  1.8527  0.0262 -0.1581
  614SOL    HW2 1842   1.643   1.623   2.031  0.2721  1.6938 -0.3730
  615SOL     OW 1843   0.766   1.353   1.729  0.3896  0.3950  0.6646
  615SOL    HW1 1844   0.708   1.316   1.650 -0.8804  2.3147 -0.2680
  615SOL    HW2 1845   0.831   1.418   1.687  0.6437  0.4112 -1.2619
  616SOL     OW 1846   1.004   1.637   2.171  0.0123 -0.4646 -0.7152
  616SOL    HW1 1847   0.913   1.584   2.187 -1.9235  0.8681  0.0282
  616SOL    HW2 1848   0.995   1.740   2.195  0.6896 -0.1902  1.6585
  617SOL     OW 1849   2.947   1.564   1.639  0.6136 -0.3402 -0.2241
  617SOL    HW1 1850   2.916   1.491   1.708 -0.5287 -0.0360  3.0393
  617SOL    HW2 1851   2.973   1.522   1.546 -2.5795  0.7305  1.2675
  618SOL     OW 1852   1.884   1.993   1.451  0.0594 -0.3003  0.0516
  618SOL    HW1 1853   1.899   2.001   1.349 -0.4123 -1.3562  0.5002
  618SOL    HW2 1854   1.879   1.893   1.489  0.1322 -1.9944  1.9393
  619SOL     OW 1855   1.768   0.463   2.414 -0.0945  0.6639  0.5004
  619SOL    HW1 1856   1.693   0.524   2.373  1.8038  2.4302  2.6973
  619SOL    HW2 1857   1.737   0.363   2.408  1.2674  1.0362 -0.8451
  620SOL     OW 1858   2.246   2.973   0.628 -0.3251  0.0374  0.2577
  620SOL    HW1 1859   2.179   3.053   0.655 -5.3585  2.0492  1.1811
  620SOL    HW2 1860   2.251   2.897   0.694  1.6078  0.2210 -1.0703
  621SOL     OW 1861   2.172   1.831   1.311 -0.0034 -0.1485 -0.2682
  621SOL    HW1 1862   2.160   1.815   1.415 -2.0877 -1.4003 -0.7155
  621SOL    HW2 1863   2.114   1.765   1.262  0.4106  2.1973  1.2000
  622SOL     OW 1864   2.247   0.935   1.818 -0.4137 -0.3972 -0.1103
  622SOL    HW1 1865   2.338   0.953   1.775  0.6784  0.3396  2.0261
  622SOL    HW2 1866   2.245   0.834   1.848  1.9020 -0.5362  0.2130
  623SOL     OW 1867   1.329   0.842   2.644  0.2687  0.2133  0.0909
  623SOL    HW1 1868   1.307   0.744   2.670  0.2050  0.6413  2.3297
  623SOL    HW2 1869   1.274   0.883   2.567  0.7511 -1.8208 -1.4207
  624SOL     OW 1870   0.591   0.675   3.078  0.2022 -0.0985 -0.5138
  624SOL    HW1 1871   0.605   0.728   2.989  0.8496  0.9171  1.9020
  624SOL    HW2 1872   0.592   0.740   3.163 -1.5949  0.7936  2.3959
  625SOL     OW 1873   2.824   1.694   0.961  0.3940  0.0730 -0.3800
  625SOL    HW1 1874   2.741   1.750   0.994 -0.0135 -0.8591 -2.9230
  625SOL    HW2 1875   2.892   1.744   0.904  2.1064  1.9204  3.0972
  626SOL     OW 1876   0.598   2.745   1.790 -0.2080  0.3452  0.8244
  626SOL    HW1 1877   0.645   2.841   1.789  1.9430  1.2150 -2.0202
  626SOL    HW2 1878   0.496   2.748   1.770 -2.0275  0.0270  1.4383
  627SOL     OW 1879   0.761   1.010   1.520 -0.5391  0.4332  0.3397
  627SOL    HW1 1880   0.778   0.918   1.470 -2.4566 -0.7792  5.0562
  627SOL    HW2 1881   0.808   1.090   1.475 -0.6745  0.4111  0.0623
  628SOL     OW 1882   2.380   0.163   0.711  0.0236 -0.0369 -0.0366
  628SOL    HW1 1883   2.397   0.081   0.650 -1.1087 -1.3647  2.7223
  628SOL    HW2 1884   2.303   0.130   0.776 -1.8679 -2.7493  2.9610
  629SOL     OW 1885   1.963   0.888   1.976  0.5309 -0.2241 -0.2655
  629SOL    HW1 1886   2.000   0.916   1.883 -0.7660  0.4992 -1.2839
  629SOL    HW2 1887   1.912   0.973   2.016 -1.6296  1.4247  1.2233
  630SOL     OW 1888   2.917   2.249   0.845 -0.0090  0.4192 -0.1724
  630SOL    HW1 1889   2.837   2.319   0.855 -0.6671  0.5685  0.9696
  630SOL    HW2 1890   2.892   2.151   0.814  0.9693 -1.3963  0.3245
  631SOL     OW 1891   2.969   0.147   2.118 -0.4629 -0.1139  0.1263
  631SOL    HW1 1892   3.016   0.198   2.196 -0.1989 -2.7357 -0.3352
  631SOL    HW2 1893   3.033   0.136   2.040  1.1992 -0.7167  0.1681
  632SOL     OW 1894   2.377   2.526   0.653  0.6276 -0.3167 -0.3071
  632SOL    HW1 1895   2.421   2.607   0.697 -2.4155  0.1648  0.1179
  632SOL    HW2 1896   2.337   2.554   0.566  2.0652 -1.4229  3.0518
  633SOL     OW 1897   1.423   1.212   2.563 -0.2493  0.1396 -0.5623
  633SOL    HW1 1898   1.431   1.303   2.608  0.0533  0.8621 -1.8393
  633SOL    HW2 1899   1.336   1.214   2.506 -0.0575 -2.1217  1.0249
  634SOL     OW 1900   0.718   1.973   0.873  0.3368 -0.6754  0.2182
  634SOL    HW1 1901   0.630   2.003   0.920 -1.5733 -2.5905 -0.5364
  634SOL    HW2 1902   0.801   2.035   0.892  0.0984 -0.0020  0.7946
  635SOL     OW 1903   3.021   2.331  -0.000  0.3709 -0.1926  0.2187
  635SOL    HW1 1904   2.955   2.387  -0.056 -0.0775 -0.4724 -1.6679
  635SOL    HW2 1905   3.076   2.390   0.064 -0.4199  0.3208 -0.8144
  636SOL     OW 1906   2.274   2.721   2.080 -0.7264 -0.4257  0.3623
  636SOL    HW1 1907   2.257   2.825   2.097 -0.5705  1.3300  1.2068
  636SOL    HW2 1908   2.246   2.661   2.156  0.5378  3.1909 -0.8614
  637SOL     OW 1909   2.638   0.687   2.048  0.1029  0.3192  0.7369
  637SOL    HW1 1910   2.568   0.683   1.968 -1.8298 -0.5715  0.6286
  637SOL    HW2 1911   2.676   0.780   2.065  0.5088  1.1550 -1.2600
  638SOL     OW 1912   2.431   1.779   1.253  0.1126  0.0083  0.1460
  638SOL    HW1 1913   2.334   1.801   1.290 -0.4374  0.7005 -0.6484
  638SOL    HW2 1914   2.488   1.732   1.324 -0.7359  0.0564  1.2176
  639SOL     OW 1915   1.284   2.172   1.728  0.1773  0.2746 -0.2580
  639SOL    HW1 1916   1.329   2.096   1.669  0.1124 -1.3043  0.0394
  639SOL    HW2 1917   1.185   2.152   1.752  1.7327  0.2269  1.0642
  640SOL     OW 1918   0.188   1.160   1.582  0.4606  0.1224  0.3784
  640SOL    HW1 1919   0.166   1.191   1.680 -2.0400  0.5379 -0.3479
  640SOL    HW2 1920   0.268   1.097   1.565 -0.7789  1.6978 -0.3755
  641SOL     OW 1921   2.044   0.180   1.537 -0.1037  0.0230  0.5102
  641SOL    HW1 1922   2.016   0.203   1.635 -0.2286 -0.8497  0.2080
  641SOL    HW2 1923   2.140   0.142   1.534  1.5906 -1.3939 -2.4305
  642SOL     OW 1924   1.994   0.068   0.317 -0.5773  0.7062 -0.3522
  642SOL    HW1 1925   2.099   0.062   0.331  2.2896 -0.2069 -2.3669
  642SOL    HW2 1926   1.941   0.084   0.405 -1.0430 -0.9540  1.0623
  643SOL     OW 1927   2.948   1.849   2.069 -0.4006 -0.0306 -0.0561
  643SOL    HW1 1928   2.863   1.789   2.042 -2.5643  1.1246 -1.0333
  643SOL    HW2 1929   2.979   1.907   1.989 -1.4303  0.6924  1.7805
  644SOL     OW 1930   2.239   2.373   1.199  0.2786  0.6589  0.2891
  644SOL    HW1 1931   2.322   2.335   1.152  1.9018 -0.5822 -3.0236
  644SOL    HW2 1932   2.238   2.334   1.298  2.7640  0.2634  2.5958
  645SOL     OW 1933   0.626   0.803   1.268  0.3312  0.2707 -0.2304
  645SOL    HW1 1934   0.552   0.838   1.325  1.8062  0.1622 -2.1347
  645SOL    HW2 1935   0.609   0.820   1.167 -1.7958  3.0547  0.0710
  646SOL     OW 1936   1.455   1.885   2.033  0.0408  0.5215 -0.8267
  646SOL    HW1 1937   1.469   1.955   1.958  1.2006  0.3743  1.2773
  646SOL    HW2 1938   1.402   1.922   2.112 -0.5581 -0.7378 -1.1607
  647SOL     OW 1939   0.810   1.081   0.688  0.4825  0.2658 -0.5815
  647SOL    HW1 1940   0.854   1.097   0.775  1.1091 -1.0898 -2.0093
  647SOL    HW2 1941   0.750   0.997   0.697 -0.7380  0.4278 -1.8956
  648SOL     OW 1942   0.086   0.212   0.202  0.5265 -0.2942  0.0389
  648SOL    HW1 1943   0.154   0.182   0.131  2.3579 -0.2031 -2.6854
  648SOL    HW2 1944   0.089   0.314   0.210 -0.9352 -1.0510 -0.4278
  649SOL     OW 1945   3.023   0.255   0.886  0.0683  0.0781  0.3022
  649SOL    HW1 1946   3.114   0.211   0.862 -0.6278  1.8273 -0.2590
  649SOL    HW2 1947   3.020   0.281   0.984 -2.0503  0.4265 -1.1599
  650SOL     OW 1948   2.777   0.706   1.460 -0.4378 -0.1628 -0.3888
  650SOL    HW1 1949   2.679   0.672   1.478  0.8688 -0.8193  0.4260
  650SOL    HW2 1950   2.774   0.798   1.410 -0.1020 -0.6968 -0.4162
  651SOL     OW 1951   0.910   1.546   1.606  0.0486  0.7415 -0.0581
  651SOL    HW1 1952   0.978   1.612   1.653  0.4966  0.0938  3.0890
  651SOL    HW2 1953   0.934   1.530   1.512  0.5895 -1.0628  1.7778
  652SOL     OW 1954   2.318   2.414   2.500  0.6175 -0.0350  0.2157
  652SOL    HW1 1955   2.211   2.423   2.496 -2.0751 -1.5748  0.5365
  652SOL    HW2 1956   2.365   2.505   2.479  1.3417  0.2721 -1.0354
  653SOL     OW 1957   2.713   1.234   0.191  0.6901  0.2102  0.1522
  653SOL    HW1 1958   2.750   1.312   0.244 -0.1883 -3.0382  1.2583
  653SOL    HW2 1959   2.758   1.144   0.217 -1.5518 -0.4094 -0.7743
  654SOL     OW 1960   1.223   2.238   1.258  0.0461 -0.1927  0.1009
  654SOL    HW1 1961   1.234   2.157   1.328 -0.4076 -2.1805  0.7845
  654SOL    HW2 1962   1.285   2.228   1.176  1.7853 -0.2567 -0.7908
  655SOL     OW 1963   0.152   0.952   1.962  0.1090 -0.2982 -0.4843
  655SOL    HW1 1964   0.196   0.903   1.880 -0.8878  2.0864 -3.1977
  655SOL    HW2 1965   0.177   1.051   1.966  3.1123 -1.0654 -0.2567
  656SOL     OW 1966   2.573   2.439   2.643 -0.0072  0.3907 -0.2115
  656SOL    HW1 1967   2.651   2.467   2.573 -1.0472  3.5003 -2.4508
  656SOL    HW2 1968   2.491   2.400   2.596  1.6254 -0.1357 -2.9120
  657SOL     OW 1969   3.002   1.013   1.903 -0.2113  0.5679  0.4246
  657SOL    HW1 1970   2.978   1.116   1.914 -1.2890  0.3779  1.0304
  657SOL    HW2 1971   3.100   0.989   1.922 -0.0141 -2.4466  0.1426
  658SOL     OW 1972   1.646   0.197   2.385  0.2693  0.3482 -0.1765
  658SOL    HW1 1973   1.702   0.138   2.453  2.5799 -0.5918  0.3410
  658SOL    HW2 1974   1.687   0.205   2.291  0.7012 -0.3503 -1.9897
  659SOL     OW 1975   1.425   0.608   2.859  0.3117 -0.1551  0.5804
  659SOL    HW1 1976   1.470   0.704   2.876 -1.5336  2.0708 -1.5083
  659SOL    HW2 1977   1.323   0.607   2.872 -0.8250  0.9771  0.4133
  660SOL     OW 1978   1.388   0.338   1.417  0.5976 -0.1924  0.2823
  660SOL    HW1 1979   1.427   0.367   1.506 -1.6716  1.1705  1.8593
  660SOL    HW2 1980   1.445   0.257   1.376  0.2186  0.2574 -1.0250
  661SOL     OW 1981   2.477   1.193   0.652 -0.2394 -0.2843 -0.2714
  661SOL    HW1 1982   2.482   1.187   0.551  0.2542  1.1340  1.4658
  661SOL    HW2 1983   2.437   1.286   0.682  1.5152  0.5568 -0.2436
  662SOL     OW 1984   1.416   0.421   1.751  0.1658  0.3162  0.2371
  662SOL    HW1 1985   1.326   0.366   1.752 -0.8672 -0.4080 -0.1900
  662SOL    HW2 1986   1.454   0.449   1.844 -1.6261  1.5650  1.0866
  663SOL     OW 1987   0.750   1.541   2.227 -0.8158 -0.1283 -0.5479
  663SOL    HW1 1988   0.715   1.630   2.249  0.5363 -3.0217  1.9284
  663SOL    HW2 1989   0.730   1.488   2.139 -1.3164  1.1466  0.3286
  664SOL     OW 1990   1.641   2.083   1.445  0.0632  0.0179  0.2299
  664SOL    HW1 1991   1.576   2.005   1.466  0.1195 -2.5253  0.1463
  664SOL    HW2 1992   1.738   2.057   1.457 -0.1807  2.4600 -0.2057
  665SOL     OW 1993   2.269   0.669   1.921  0.3173 -0.0328 -0.2861
  665SOL    HW1 1994   2.214   0.579   1.909 -2.8638 -1.7012 -0.4652
  665SOL    HW2 1995   2.315   0.678   2.016  1.0341  0.4221 -0.4383
  666SOL     OW 1996   0.415   2.308   0.356 -0.7962  0.0815 -0.4739
  666SOL    HW1 1997   0.478   2.351   0.430 -0.3872  1.7534  2.4084
  666SOL    HW2 1998   0.316   2.292   0.389 -0.4914 -1.0131 -1.0661
  667SOL     OW 1999   2.009   0.207   1.191 -0.8221  0.0874  0.1695
  667SOL    HW1 2000   2.025   0.307   1.163 -1.8770  1.8925 -1.8912
  667SOL    HW2 2001   1.933   0.181   1.259 -1.9304 -1.2895  0.5416
  668SOL     OW 2002   2.061   0.468   1.124 -0.2453  0.5283 -0.4704
  668SOL    HW1 2003   2.131   0.512   1.054 -0.3678 -1.9224  2.3166
  668SOL    HW2 2004   2.091   0.483   1.223 -0.2546 -3.4772  0.3431
  669SOL     OW 2005   0.011   2.166   1.020  0.1525  0.4287 -0.4994
  669SOL    HW1 2006  -0.054   2.211   0.957  0.9736 -1.9851  0.5391
  669SOL    HW2 2007   0.024   2.211   1.106 -1.6109 -0.5614 -3.1987
  670SOL     OW 2008   2.862   2.349   1.961 -0.1707  0.1585 -0.4040
  670SOL    HW1 2009   2.812   2.322   2.043  2.6303  0.0655 -1.0653
  670SOL    HW2 2010   2.846   2.449   1.934 -1.0872 -0.6033 -0.1054
  671SOL     OW 2011   1.744   1.711   1.480  0.2306  0.2982 -0.1453
  671SOL    HW1 2012   1.743   1.743   1.383  0.1103  1.6025 -0.9029
  671SOL    HW2 2013   1.686   1.627   1.500  1.1803 -1.3309 -0.3527
  672SOL     OW 2014   0.414   0.621   2.389  0.0535 -0.3266  0.0738
  672SOL    HW1 2015   0.467   0.679   2.324 -2.6952 -0.5655  0.0493
  672SOL    HW2 2016   0.329   0.671   2.423 -1.4337 -0.4737  2.0001
  673SOL     OW 2017   0.133   1.175   1.153  0.1933 -0.7414 -0.0431
  673SOL    HW1 2018   0.147   1.240   1.233 -0.8086  0.4440  0.5991
  673SOL    HW2 2019   0.222   1.139   1.114 -2.8820  0.0169 -1.6151
  674SOL     OW 2020   1.672   2.946   0.227 -0.5378  0.6579 -0.4865
  674SOL    HW1 2021   1.697   3.040   0.188  0.3372 -0.9584  1.7978
  674SOL    HW2 2022   1.749   2.879   0.244  1.1257  1.6366  1.1246
  675SOL     OW 2023   1.739   0.821   2.346 -0.3387  0.3139  0.4563
  675SOL    HW1 2024   1.839   0.799   2.334  1.5946 -1.2769 -2.6637
  675SOL    HW2 2025   1.679   0.740   2.322  1.6342 -0.7174  1.0907
  676SOL     OW 2026   2.515   1.460   1.971 -0.1158 -0.2710  0.1873
  676SOL    HW1 2027   2.476   1.435   1.881 -1.4315  1.1313  3.5286
  676SOL    HW2 2028   2.581   1.392   2.014  2.1469 -1.0882  1.9442
  677SOL     OW 2029   1.894   0.653   0.882  1.0810 -0.2329 -0.6296
  677SOL    HW1 2030   1.894   0.673   0.985  0.6952 -0.1844 -2.2711
  677SOL    HW2 2031   1.926   0.558   0.858 -0.1125  1.8694  0.0297
  678SOL     OW 2032   0.027   0.764   1.683 -0.2678  0.3147 -0.0131
  678SOL    HW1 2033   0.120   0.763   1.726 -1.9847 -0.7576 -1.1627
  678SOL    HW2 2034  -0.053   0.769   1.752  0.1079 -0.4402  2.0806
  679SOL     OW 2035   2.574   1.202   1.098  0.0871 -0.1053 -0.3174
  679SOL    HW1 2036   2.475   1.222   1.113 -2.3110  0.5511  1.2982
  679SOL    HW2 2037   2.603   1.102   1.086  2.3149 -0.3437  0.4496
  680SOL     OW 2038   2.825   0.603   1.711 -0.5205  0.3448  0.4081
  680SOL    HW1 2039   2.820   0.656   1.619 -1.6503 -0.8272  0.0216
  680SOL    HW2 2040   2.862   0.668   1.783 -2.3243  1.6796  0.7623
  681SOL     OW 2041   3.008   0.183   1.647 -0.2690  0.6158  0.2311
  681SOL    HW1 2042   3.089   0.161   1.577  1.3716 -0.2405 -2.8099
  681SOL    HW2 2043   2.940   0.248   1.598 -0.1804  0.6285  4.2687
  682SOL     OW 2044   0.824   3.086   1.307  0.1584 -0.2866  0.5767
  682SOL    HW1 2045   0.730   3.044   1.337 -4.5679 -1.6767  0.4286
  682SOL    HW2 2046   0.851   3.059   1.209 -2.7805 -1.6684 -1.6357
  683SOL     OW 2047   1.344   0.225   2.203  0.1355 -0.4847  0.4696
  683SOL    HW1 2048   1.342   0.280   2.290 -3.7112  1.8726 -0.3037
  683SOL    HW2 2049   1.424   0.242   2.133  2.0631  1.0762  0.2330
  684SOL     OW 2050   1.459   2.107   0.508  0.3334  0.0255  0.8652
  684SOL    HW1 2051   1.526   2.040   0.555  0.8093  1.1871 -0.0532
  684SOL    HW2 2052   1.375   2.060   0.469  0.8833 -2.6150 -0.6335
  685SOL     OW 2053   2.113   2.022   1.960 -0.1396 -0.6288  0.0772
  685SOL    HW1 2054   2.182   2.037   1.883  0.2582  0.5691 -1.2199
  685SOL    HW2 2055   2.151   2.016   2.051 -1.0478 -0.3856 -1.5936
  686SOL     OW 2056   1.516   1.800   2.708 -0.4978 -0.1915  0.1933
  686SOL    HW1 2057   1.551   1.733   2.781 -0.8656 -1.7855  0.8442
  686SOL    HW2 2058   1.575   1.814   2.624 -0.9268 -0.2014 -0.8926
  687SOL     OW 2059   1.286   2.479   1.979 -0.1833  0.1011  0.4523
  687SOL    HW1 2060   1.268   2.374   1.969  0.9950 -1.8611 -0.8860
  687SOL    HW2 2061   1.320   2.503   2.077  0.6255  1.0113 -1.5140
  688SOL     OW 2062   2.077   1.508   1.739 -0.3833  0.2915 -0.7966
  688SOL    HW1 2063   2.156   1.572   1.756 -0.4509  1.3051 -3.1150
  688SOL    HW2 2064   2.057   1.493   1.637  0.8248  1.4554  1.9751
  689SOL     OW 2065   2.420   1.073   2.711  0.7312 -0.3735 -0.0743
  689SOL    HW1 2066   2.323   1.041   2.718 -2.0066  0.6554 -0.3476
  689SOL    HW2 2067   2.475   1.060   2.798  2.4719 -0.3858 -1.1057
  690SOL     OW 2068   2.229   2.815   0.018  0.4932  0.1483 -0.2422
  690SOL    HW1 2069   2.164   2.772  -0.053  1.5453 -4.1523  2.0062
  690SOL    HW2 2070   2.191   2.806   0.112 -1.2912 -0.7050 -2.0170
  691SOL     OW 2071   2.596   0.467   2.202 -0.3419  0.4503  0.1509
  691SOL    HW1 2072   2.627   0.375   2.159 -0.5430 -0.4429 -2.5940
  691SOL    HW2 2073   2.609   0.546   2.140 -1.8962  2.3737 -1.6153
  692SOL     OW 2074   2.724   1.231   0.744  0.7888  0.1737 -0.3425
  692SOL    HW1 2075   2.627   1.219   0.700 -2.2324 -0.2455  0.0114
  692SOL    HW2 2076   2.722   1.303   0.817  1.1418 -1.0028 -0.4043
  693SOL     OW 2077   2.858   2.932   0.624 -0.7911 -0.4742 -0.1872
  693SOL    HW1 2078   2.831   3.006   0.694 -2.0884  3.2506 -1.6372
  693SOL    HW2 2079   2.807   2.959   0.535 -1.2255  0.8700  0.0025
  694SOL     OW 2080   2.356   2.181   0.078  0.0186  0.1896 -0.0323
  694SOL    HW1 2081   2.374   2.267   0.134 -2.9495  2.4648 -1.6369
  694SOL    HW2 2082   2.258   2.148   0.077 -2.2125 -0.1963 -0.6308
  695SOL     OW 2083   0.579   2.986   1.432  0.0891 -0.6461  0.2793
  695SOL    HW1 2084   0.515   2.916   1.390 -3.1827  0.9813 -0.8809
  695SOL    HW2 2085   0.540   3.019   1.524  0.1114  0.0041  3.6551
  696SOL     OW 2086   2.779   1.946   0.742  0.5579 -0.0588  0.5698
  696SOL    HW1 2087   2.852   1.875   0.763  0.5185  1.0281  1.1588
  696SOL    HW2 2088   2.719   1.920   0.663 -1.8036 -2.0232  2.7396
  697SOL     OW 2089   1.607   2.026   1.825  0.5871  0.1183 -0.0691
  697SOL    HW1 2090   1.697   1.979   1.855  1.5408  1.8371  0.2824
  697SOL    HW2 2091   1.631   2.119   1.794 -2.0301 -2.9195  1.3764
  698SOL     OW 2092   2.943   0.438   2.771 -0.0835 -0.0312 -0.4130
  698SOL    HW1 2093   2.934   0.410   2.673  2.7338 -1.4768 -2.6568
  698SOL    HW2 2094   2.987   0.372   2.835  0.0470  4.7143  1.7627
  699SOL     OW 2095   1.577   0.074   2.915  0.1551 -0.1089  0.3287
  699SOL    HW1 2096   1.550   0.000   2.849 -1.6510 -0.3616 -0.3453
  699SOL    HW2 2097   1.611   0.162   2.863  1.1129  0.4998 -3.3064
  700SOL     OW 2098   0.969   2.305   1.320  0.4939 -0.2984 -0.1795
  700SOL    HW1 2099   1.047   2.247   1.286 -1.1915 -0.4164  0.5878
  700SOL    HW2 2100   0.885   2.298   1.256 -1.4436  1.4940  0.0074
  701SOL     OW 2101   1.919   2.860   3.061  0.5384 -0.6898 -0.1157
  701SOL    HW1 2102   1.856   2.815   3.130  0.1083 -1.2626 -0.9853
  701SOL    HW2 2103   1.948   2.950   3.101 -0.8995 -2.1240 -1.2407
  702SOL     OW 2104   2.070   1.332   2.008  0.4404  0.6851 -0.2756
  702SOL    HW1 2105   2.146   1.280   1.964  0.6861 -0.3874  1.4086
  702SOL    HW2 2106   2.033   1.413   1.949 -1.9250 -0.9948 -0.2114
  703SOL     OW 2107   1.927   0.889   1.423 -0.0356  0.2892 -0.2232
  703SOL    HW1 2108   1.897   0.809   1.483 -0.9023  1.3071 -2.4303
  703SOL    HW2 2109   1.976   0.965   1.469  1.0611 -1.6476  0.9316
  704SOL     OW 2110   0.311   2.058   1.686  0.4371  0.2499 -0.7228
  704SOL    HW1 2111   0.318   1.996   1.769 -2.7005 -3.0842 -0.8124
  704SOL    HW2 2112   0.389   2.124   1.672 -0.9061 -2.3063 -1.8385
  705SOL     OW 2113   2.512   1.492   0.970 -0.6950 -0.5472 -0.0799
  705SOL    HW1 2114   2.462   1.437   0.901  0.1790  0.5094  0.1564
  705SOL    HW2 2115   2.616   1.476   0.968  0.0644 -1.5072  2.1937
  706SOL     OW 2116   0.638   1.634   1.827  0.0501  0.5376 -0.6036
  706SOL    HW1 2117   0.652   1.537   1.857 -0.4557  0.0643  0.9689
  706SOL    HW2 2118   0.677   1.703   1.897  0.8087  0.8974  2.3674
  707SOL     OW 2119   2.271   1.212   1.881  0.1910 -0.1014  0.1896
  707SOL    HW1 2120   2.367   1.223   1.921  1.3981  0.5865 -0.4512
  707SOL    HW2 2121   2.249   1.112   1.868 -0.0097  3.2362  0.5749
  708SOL     OW 2122   3.068   0.539   3.061 -0.5911  0.3346 -0.0310
  708SOL    HW1 2123   3.078   0.599   2.974 -3.3106  4.3335  0.1977
  708SOL    HW2 2124   3.075   0.438   3.034  1.6637  0.6300  1.9969
  709SOL     OW 2125   1.822   1.848   0.231 -0.1134  0.2932 -0.6884
  709SOL    HW1 2126   1.864   1.932   0.269 -1.1062  0.0457  0.1210
  709SOL    HW2 2127   1.830   1.830   0.129  0.7895 -1.3697  1.0936
  710SOL     OW 2128   1.762   1.663   2.442  0.1370 -0.4736  0.2134
  710SOL    HW1 2129   1.798   1.650   2.347  0.0434  0.8758  0.4086
  710SOL    HW2 2130   1.762   1.577   2.497 -3.9965  3.0600 -0.7298
  711SOL     OW 2131   2.641   2.975   0.981  0.6093  0.0500 -0.6877
  711SOL    HW1 2132   2.616   3.075   0.957 -0.8254  2.0103  0.3008
  711SOL    HW2 2133   2.739   2.969   1.021  2.6283 -0.8674 -3.1065
  712SOL     OW 2134   1.355   2.219   1.986 -0.6617  0.0524 -0.0690
  712SOL    HW1 2135   1.442   2.256   2.027 -2.3122 -0.7355 -1.4239
  712SOL    HW2 2136   1.362   2.203   1.884 -1.1497  1.2330  1.6315
  713SOL     OW 2137   2.911   1.460   2.535  0.5931 -0.4128 -0.0657
  713SOL    HW1 2138   2.864   1.383   2.481  0.2756 -0.0024  0.2557
  713SOL    HW2 2139   2.915   1.443   2.638  2.6532  2.5009  0.7791
  714SOL     OW 2140   2.728   0.503   2.471 -0.0797 -0.2597  0.4165
  714SOL    HW1 2141   2.669   0.456   2.543  0.0733 -0.7669 -1.0364
  714SOL    HW2 2142   2.690   0.497   2.376  1.6163  1.6709  1.9239
  715SOL     OW 2143   1.585   2.013   1.120  0.6836 -0.2732  0.4364
  715SOL    HW1 2144   1.507   2.037   1.052 -0.1186  0.9345  1.9193
  715SOL    HW2 2145   1.611   2.094   1.173 -0.3796 -1.1420  1.1205
  716SOL     OW 2146   1.214   0.152   1.463 -0.4435 -0.6439  0.0501
  716SOL    HW1 2147   1.112   0.175   1.457  2.6617 -1.5033 -0.3788
  716SOL    HW2 2148   1.278   0.233   1.430 -2.9028  0.9093  0.2821
  717SOL     OW 2149   1.151   0.503   1.580 -0.3429  0.2230  0.7874
  717SOL    HW1 2150   1.210   0.577   1.620 -2.1925  0.4295 -2.5104
  717SOL    HW2 2151   1.155   0.487   1.478 -0.0044  0.3936  1.9020
  718SOL     OW 2152   0.686   0.950   0.975 -0.2001  0.1559 -0.2947
  718SOL    HW1 2153   0.661   0.939   0.873 -1.4006 -0.6534 -0.2167
  718SOL    HW2 2154   0.648   1.045   1.010 -2.0030 -0.5171 -1.4401
  719SOL     OW 2155   0.625   1.785   2.271  0.1885 -0.3746  0.0199
  719SOL    HW1 2156   0.698   1.839   2.322 -0.1502  0.6002 -0.2848
  719SOL    HW2 2157   0.543   1.744   2.326  0.3477  2.1776  0.7948
  720SOL     OW 2158   2.190   1.157   0.297  0.1028 -0.2976 -0.4516
  720SOL    HW1 2159   2.233   1.093   0.227 -3.6387  1.4678  0.6651
  720SOL    HW2 2160   2.160   1.108   0.385  1.4985  1.0068 -2.2884
  721SOL     OW 2161   2.256   3.003   2.129 -0.3718 -0.3833  0.0506
  721SOL    HW1 2162   2.246   3.033   2.031  1.0701  0.3516 -2.2531
  721SOL    HW2 2163   2.176   3.035   2.186  0.8611  1.8628  1.7388
  722SOL     OW 2164   2.391   1.575   0.482  0.5143  0.0799 -0.4329
  722SOL    HW1 2165   2.400   1.535   0.387  0.0992  1.5995 -2.8821
  722SOL    HW2 2166   2.410   1.675   0.487  0.2657 -0.9693 -1.6433
  723SOL     OW 2167   2.549   2.720   1.967 -0.8318 -0.3549 -0.1882
  723SOL    HW1 2168   2.582   2.796   2.031  0.1713 -0.3880  1.4635
  723SOL    HW2 2169   2.448   2.708   1.971  0.6926 -0.1350 -0.7450
  724SOL     OW 2170   0.529   2.483   2.425  0.0538 -0.3355 -0.4234
  724SOL    HW1 2171   0.443   2.459   2.475 -0.2634 -0.2508  0.4196
  724SOL    HW2 2172   0.610   2.487   2.485 -0.8162 -1.3340  0.7729
  725SOL     OW 2173   2.480   2.831   1.513  0.3233 -0.8121  0.0690
  725SOL    HW1 2174   2.506   2.844   1.410  0.2846  2.1403 -0.3151
  725SOL    HW2 2175   2.465   2.733   1.539  1.1534 -0.6655  0.4308
  726SOL     OW 2176   2.513   2.270   0.708 -0.3649 -0.6691 -0.4775
  726SOL    HW1 2177   2.457   2.359   0.702 -1.4026  1.3825 -1.3057
  726SOL    HW2 2178   2.487   2.197   0.637  1.0244  2.0600  1.9011
  727SOL     OW 2179   0.157   3.083   0.044  0.0241 -0.6463 -0.1406
  727SOL    HW1 2180   0.186   2.990   0.084  1.1244  1.3584  1.6207
  727SOL    HW2 2181   0.144   3.090  -0.058  2.3321  1.0403 -2.0889
  728SOL     OW 2182   2.874   0.648   0.975 -0.4452 -0.0143 -0.1952
  728SOL    HW1 2183   2.790   0.637   0.913 -0.9633  0.9766 -1.4010
  728SOL    HW2 2184   2.856   0.604   1.066 -0.4759 -1.8192  0.9469
  729SOL     OW 2185   3.032   2.464   0.764 -0.9404 -0.4080 -0.3994
  729SOL    HW1 2186   3.003   2.365   0.794 -2.1298  2.2470  2.8812
  729SOL    HW2 2187   3.125   2.455   0.720  0.9265  1.4629 -0.0282
  730SOL     OW 2188   2.624   0.704   0.846  0.1030 -0.6968 -0.1378
  730SOL    HW1 2189   2.596   0.800   0.837  2.3247 -3.7239  0.9922
  730SOL    HW2 2190   2.675   0.673   0.763  0.4338 -3.6705  1.3974
  731SOL     OW 2191   0.110   2.095   2.510  0.3275  0.5312 -0.0703
  731SOL    HW1 2192   0.069   2.112   2.605 -2.5082 -0.3525 -1.5657
  731SOL    HW2 2193   0.129   2.187   2.471  0.0033  0.1994  2.2951
  732SOL     OW 2194   1.147   2.814   1.939 -0.6608  0.1796 -0.4156
  732SOL    HW1 2195   1.174   2.763   2.027  0.9907 -0.7404  1.2382
  732SOL    HW2 2196   1.149   2.752   1.856 -0.4126 -0.0780 -1.3822
  733SOL     OW 2197   3.062   0.579   2.247 -0.4682 -0.2158 -0.1449
  733SOL    HW1 2198   3.153   0.599   2.198  2.3020  1.3129 -3.2420
  733SOL    HW2 2199   2.996   0.539   2.181  0.5218 -2.1229  2.8510
  734SOL     OW 2200   1.418   0.370   2.729 -0.3505  0.1704  1.0347
  734SOL    HW1 2201   1.427   0.464   2.772  0.6312 -0.6820  0.9253
  734SOL    HW2 2202   1.327   0.324   2.752 -0.9825 -0.1603  0.7157
  735SOL     OW 2203   2.899   2.646   2.283 -0.4035 -0.4439  0.2317
  735SOL    HW1 2204   2.844   2.617   2.199  1.6697 -1.7084 -0.0236
  735SOL    HW2 2205   2.985   2.699   2.263  0.9795  0.5896 -1.1551
  736SOL     OW 2206   0.801   0.306   2.622 -0.1031  0.0222  0.4057
  736SOL    HW1 2207   0.701   0.281   2.647  0.7171 -0.7449 -0.5526
  736SOL    HW2 2208   0.812   0.336   2.523  0.3429 -0.6382  4.6368
  737SOL     OW 2209   2.680   0.504   2.876 -0.4753  0.2825  0.2497
  737SOL    HW1 2210   2.647   0.457   2.962  1.0822 -1.2421 -0.1743
  737SOL    HW2 2211   2.774   0.470   2.852 -1.9384 -1.4730 -0.5170
  738SOL     OW 2212   1.644   1.257   2.895 -0.1072  0.3763  0.3238
  738SOL    HW1 2213   1.748   1.242   2.901 -1.5766 -0.2799 -1.6542
  738SOL    HW2 2214   1.594   1.166   2.872 -0.6858 -0.8379  0.6869
  739SOL     OW 2215   1.724   0.653   0.656 -0.3742 -0.2976  0.3046
  739SOL    HW1 2216   1.761   0.663   0.750 -1.0497  1.6035  0.6384
  739SOL    HW2 2217   1.777   0.582   0.600  2.0748 -1.2648 -1.1384
  740SOL     OW 2218   1.982   1.909   2.251 -0.4308 -0.4399 -0.5520
  740SOL    HW1 2219   2.011   1.865   2.345  1.9100  0.4788 -0.9181
  740SOL    HW2 2220   1.882   1.897   2.223 -2.2620 -0.5693 -1.1562
  741SOL     OW 2221   2.553   0.045   2.584 -0.3823  0.0594  0.5164
  741SOL    HW1 2222   2.656   0.059   2.584 -0.8276 -1.5552  0.7078
  741SOL    HW2 2223   2.503   0.044   2.490 -2.1048  2.2272  1.2445
  742SOL     OW 2224   2.228   1.443   0.220  0.3030  0.1086  0.0461
  742SOL    HW1 2225   2.190   1.518   0.275  0.6042 -2.8266  0.2822
  742SOL    HW2 2226   2.178   1.358   0.242 -0.6097  1.9068  0.6512
  743SOL     OW 2227   1.857   0.669   2.618 -0.2138 -0.0399 -0.6787
  743SOL    HW1 2228   1.817   0.590   2.562  1.1732 -1.8183 -3.9970
  743SOL    HW2 2229   1.792   0.749   2.643  3.0641 -0.7642  1.6343
  744SOL     OW 2230   2.615   2.123   0.156 -0.1825 -0.1407 -0.3344
  744SOL    HW1 2231   2.515   2.158   0.150  1.5257 -1.1598  0.2185
  744SOL    HW2 2232   2.640   2.047   0.214  0.2560  0.5091 -2.7939
  745SOL     OW 2233   2.160   2.615   2.296  0.1014  0.1027  0.2765
  745SOL    HW1 2234   2.061   2.602   2.326 -0.5727 -3.0998 -0.8318
  745SOL    HW2 2235   2.216   2.675   2.360  1.6559  0.3200  0.8682
  746SOL     OW 2236  -0.000   2.619   1.727  0.3305  0.2719 -0.3932
  746SOL    HW1 2237   0.080   2.616   1.661 -1.2659 -2.1613 -0.7159
  746SOL    HW2 2238  -0.018   2.708   1.783  0.2322  0.9904 -1.4539
  747SOL     OW 2239   0.057   1.757   1.673  0.3172  0.2086 -0.1743
  747SOL    HW1 2240  -0.017   1.689   1.645 -0.5268  0.3505  0.6673
  747SOL    HW2 2241   0.129   1.778   1.595 -2.9232 -1.0414 -0.1815
  748SOL     OW 2242   1.829   2.746   2.826 -0.4195  0.0688  0.0926
  748SOL    HW1 2243   1.861   2.797   2.910 -1.9194  1.1853 -0.5573
  748SOL    HW2 2244   1.728   2.747   2.839  0.6543  0.5804 -0.4142
  749SOL     OW 2245   1.349   3.051   0.966  0.0976 -0.0124  0.1570
  749SOL    HW1 2246   1.268   2.995   0.977  1.7951 -0.4395  0.1381
  749SOL    HW2 2247   1.402   3.026   0.877  0.1859 -1.0159  2.8789
  750SOL     OW 2248   2.294   0.178   1.902  0.3271 -0.1117 -0.3599
  750SOL    HW1 2249   2.313   0.240   1.821  0.7749  0.1167 -1.7132
  750SOL    HW2 2250   2.321   0.220   1.998 -0.3412  2.0018  1.3521
  751SOL     OW 2251   0.896   2.166   2.801  0.7382  0.1422 -0.1213
  751SOL    HW1 2252   0.971   2.178   2.871 -0.6115 -0.1774  0.2429
  751SOL    HW2 2253   0.814   2.111   2.837 -0.8333  1.3111  0.0888
  752SOL     OW 2254   1.306   0.854   1.350 -0.2350 -0.0374  0.7417
  752SOL    HW1 2255   1.369   0.931   1.318 -2.9205  3.7366 -1.3674
  752SOL    HW2 2256   1.359   0.763   1.347 -0.2346 -1.6408  3.1045
  753SOL     OW 2257   0.930   2.592   1.669  0.0970 -0.5570  0.3848
  753SOL    HW1 2258   1.029   2.623   1.668 -2.4156 -2.4631 -0.2208
  753SOL    HW2 2259   0.863   2.669   1.651  0.3843 -0.5046  0.9953
  754SOL     OW 2260   1.082   1.207   2.989 -0.0275 -0.0787  0.2481
  754SOL    HW1 2261   1.155   1.148   2.945 -0.8305 -1.5556  2.7619
  754SOL    HW2 2262   1.098   1.307   3.004 -0.5206 -2.3665 -0.4884
  755SOL     OW 2263   1.988   0.468   2.239 -0.5311  0.2797 -0.0753
  755SOL    HW1 2264   2.071   0.418   2.273 -1.7871 -1.4258 -1.6429
  755SOL    HW2 2265   1.909   0.472   2.304  2.0506  1.5707  2.2157
  756SOL     OW 2266   2.549   1.045   2.944 -0.3160 -0.2493 -0.2833
  756SOL    HW1 2267   2.648   1.032   2.980  1.1594 -2.8958  2.5813
  756SOL    HW2 2268   2.485   0.979   2.989  1.0556  2.6359  2.3062
  757SOL     OW 2269   0.041   0.518   1.870 -0.1683 -0.6362 -0.9135
  757SOL    HW1 2270   0.096   0.441   1.837  1.0059  0.8040  1.5904
  757SOL    HW2 2271  -0.061   0.518   1.849 -0.3684  0.8007  0.5459
  758SOL     OW 2272   2.373   0.090   1.490  0.4758  0.1940 -0.2652
  758SOL    HW1 2273   2.323   0.008   1.521  1.0418  0.1022 -2.5544
  758SOL    HW2 2274   2.355   0.107   1.394  1.0891 -1.4145  3.4481
  759SOL     OW 2275   1.709   0.092   0.058 -0.1989 -0.8367  0.1379
  759SOL    HW1 2276   1.648   0.072  -0.027 -0.0189  0.9199 -1.1943
  759SOL    HW2 2277   1.810   0.082   0.039 -1.6632 -1.1044  0.2581
  760SOL     OW 2278   2.701   2.109   2.820  0.4466  0.1676 -0.2292
  760SOL    HW1 2279   2.717   2.025   2.875  0.9163  1.6018 -0.7836
  760SOL    HW2 2280   2.661   2.188   2.878  1.3201  1.8124  1.2687
  761SOL     OW 2281   1.891   1.754   1.699 -0.1566  0.1027  0.1728
  761SOL    HW1 2282   1.949   1.679   1.745  3.0787  0.2026  1.2197
  761SOL    HW2 2283   1.847   1.721   1.611 -1.8883 -1.2758 -2.5370
  762SOL     OW 2284   0.487   2.366   0.975 -0.6141  0.1514  0.5849
  762SOL    HW1 2285   0.526   2.387   0.877 -0.1688  0.9236  2.9455
  762SOL    HW2 2286   0.490   2.447   1.042 -1.2088  0.3457  2.0878
  763SOL     OW 2287   2.093   1.537   2.945 -0.7242 -0.6956 -0.5062
  763SOL    HW1 2288   2.191   1.493   2.961  0.8019 -3.8971  3.0423
  763SOL    HW2 2289   2.019   1.483   3.003 -2.4324 -2.4299 -1.6301
  764SOL     OW 2290   0.666   0.617   0.828 -0.0893 -0.4877  0.4271
  764SOL    HW1 2291   0.593   0.554   0.791 -0.2468 -0.5820 -0.9272
  764SOL    HW2 2292   0.758   0.582   0.865 -0.3015  0.4667 -0.2714
  765SOL     OW 2293   0.714   0.260   0.750  0.0753  0.5574  0.4545
  765SOL    HW1 2294   0.793   0.297   0.697 -0.6240 -1.8005 -0.7554
  765SOL    HW2 2295   0.683   0.329   0.822  0.6620 -1.7999 -2.8321
  766SOL     OW 2296   2.865   2.094   0.023  0.1014  0.0173 -0.2672
  766SOL    HW1 2297   2.783   2.123   0.081 -1.4363  0.0606  0.8362
  766SOL    HW2 2298   2.907   2.173  -0.022  1.9676 -2.1292  0.3724
  767SOL     OW 2299   2.813   1.583   0.621 -0.0614 -0.4486 -0.1597
  767SOL    HW1 2300   2.721   1.568   0.669 -0.0210 -1.3965 -0.7019
  767SOL    HW2 2301   2.862   1.674   0.637  5.8814  0.7123 -2.4976
  768SOL     OW 2302   1.040   0.120   0.260  0.7093  1.0633  0.0700
  768SOL    HW1 2303   0.974   0.108   0.342 -2.2546  2.6990  0.2175
  768SOL    HW2 2304   1.127   0.067   0.256 -1.3414  1.2212 -0.9846
  769SOL     OW 2305   1.011   1.914   2.232 -0.9846 -0.0097 -0.5829
  769SOL    HW1 2306   0.921   1.926   2.271 -0.0492 -0.6130 -1.3190
  769SOL    HW2 2307   1.089   1.923   2.301  1.5155 -1.4609 -1.3231
  770SOL     OW 2308   0.190   1.114   2.307  0.0356  0.3354  0.2659
  770SOL    HW1 2309   0.183   1.181   2.387 -0.5955  0.4397 -2.8062
  770SOL    HW2 2310   0.108   1.047   2.302 -0.1900 -1.7878  0.3561
  771SOL     OW 2311   2.992   2.831   1.885  0.5953 -0.4274  0.4138
  771SOL    HW1 2312   2.943   2.898   1.818  0.9359  1.1644  0.9511
  771SOL    HW2 2313   3.006   2.868   1.980 -1.6702  1.5606  0.8191
  772SOL     OW 2314   2.206   0.223   2.895 -0.0844  0.3155  0.4423
  772SOL    HW1 2315   2.251   0.132   2.916 -1.4596  0.7073 -1.6717
  772SOL    HW2 2316   2.191   0.288   2.969  2.8931 -1.3192 -2.9609
  773SOL     OW 2317   0.737   2.161   2.448  0.0226  0.8516  0.2932
  773SOL    HW1 2318   0.696   2.209   2.370  1.5684 -3.2089  1.2043
  773SOL    HW2 2319   0.675   2.149   2.531  1.8447 -0.4318  1.0780
  774SOL     OW 2320   2.033   3.090   2.625 -0.0749 -0.3590  0.2083
  774SOL    HW1 2321   2.060   3.191   2.652 -0.8344  0.6603 -1.6427
  774SOL    HW2 2322   2.072   3.018   2.683 -2.4650  2.4824 -0.7933
  775SOL     OW 2323   2.530   2.847   2.397 -0.0401 -0.0378  0.4320
  775SOL    HW1 2324   2.465   2.919   2.363  0.9546  0.1024 -1.4679
  775SOL    HW2 2325   2.617   2.873   2.446  1.1504 -3.3205 -1.2748
  776SOL     OW 2326   0.006   1.306   0.202  0.4552  0.6067 -0.5198
  776SOL    HW1 2327  -0.011   1.228   0.141  2.7992  0.7841  2.4329
  776SOL    HW2 2328  -0.042   1.301   0.294  1.1570 -0.4640  0.8281
  777SOL     OW 2329   0.312   2.842   0.414 -0.7081 -0.6126  0.0247
  777SOL    HW1 2330   0.209   2.866   0.401  0.1232 -1.0873  0.1072
  777SOL    HW2 2331   0.371   2.933   0.417 -1.4955  0.8268  0.9775
  778SOL     OW 2332   1.330   1.953   0.180 -0.1866 -0.2058 -0.2090
  778SOL    HW1 2333   1.288   1.991   0.269  2.6907 -0.1250  0.8342
  778SOL    HW2 2334   1.381   2.021   0.127 -2.1045 -1.5157  0.5028
  779SOL     OW 2335   0.189   0.841   0.476  0.1269  0.2638 -0.4618
  779SOL    HW1 2336   0.134   0.754   0.460  1.3431 -1.9329 -2.4084
  779SOL    HW2 2337   0.139   0.910   0.535 -0.7275 -2.6211  0.1839
  780SOL     OW 2338   0.126   0.199   2.269 -0.3846  0.0387 -0.2459
  780SOL    HW1 2339   0.176   0.285   2.243  0.4434  1.5262 -1.3920
  780SOL    HW2 2340   0.195   0.120   2.280  1.2211 -1.6715  0.6163
  781SOL     OW 2341   0.663   1.754   1.560 -0.0279  0.5575  0.3919
  781SOL    HW1 2342   0.684   1.708   1.647  1.2634  1.5494 -1.2747
  781SOL    HW2 2343   0.568   1.729   1.531 -1.1175  2.8418 -0.6705
  782SOL     OW 2344   2.609   0.144   0.881  0.1636  1.0666 -0.0934
  782SOL    HW1 2345   2.537   0.145   0.802 -0.7549 -0.6156 -0.5598
  782SOL    HW2 2346   2.584   0.197   0.963 -0.0699 -0.6440  1.7673
  783SOL     OW 2347   2.846   0.763   2.598 -0.3800 -0.1806  0.4865
  783SOL    HW1 2348   2.795   0.771   2.689 -0.2137 -1.7682  1.5007
  783SOL    HW2 2349   2.829   0.678   2.553 -0.3112  0.7814 -0.5177
  784SOL     OW 2350   1.474   2.171   0.090  0.1147  0.2223 -0.3806
  784SOL    HW1 2351   1.539   2.233   0.148 -0.8174  0.8532  0.1738
  784SOL    HW2 2352   1.443   2.219   0.003  0.6545 -1.6505  1.8435
  785SOL     OW 2353   2.130   0.355   0.057  0.0279 -0.2833 -0.1926
  785SOL    HW1 2354   2.053   0.364   0.129 -0.9092  0.4128 -1.8389
  785SOL    HW2 2355   2.160   0.455   0.034 -0.0222  2.0054 -1.7540
  786SOL     OW 2356   2.000   2.164   2.176  0.4049  0.3601  0.3424
  786SOL    HW1 2357   1.985   2.064   2.193  4.6439  1.8033 -0.2192
  786SOL    HW2 2358   2.094   2.185   2.214 -2.4792 -1.2243 -2.2513
  787SOL     OW 2359   1.404   0.610   1.006 -0.4155  0.3042  0.0432
  787SOL    HW1 2360   1.324   0.664   1.042  0.9389 -0.3730 -3.3301
  787SOL    HW2 2361   1.397   0.586   0.904  1.1657  1.5180  1.1224
  788SOL     OW 2362   1.252   0.417   0.018 -0.9944 -0.1025 -0.4548
  788SOL    HW1 2363   1.170   0.414  -0.046 -0.2644 -1.3437 -1.9273
  788SOL    HW2 2364   1.244   0.473   0.101 -0.2482  0.8272  1.3919
  789SOL     OW 2365   2.558   0.121   1.865  0.0740  0.2366  0.0066
  789SOL    HW1 2366   2.458   0.132   1.864  4.4517 -0.9827  0.0381
  789SOL    HW2 2367   2.588   0.034   1.817 -0.9154 -3.1434 -0.8573
  790SOL     OW 2368   2.643   2.763   0.808 -0.6569 -0.4558  0.4964
  790SOL    HW1 2369   2.703   2.776   0.719  1.6747 -0.8930 -0.7619
  790SOL    HW2 2370   2.677   2.830   0.879 -0.2622  1.2853 -2.1330
  791SOL     OW 2371   1.909   1.231   0.211 -0.1823  0.4379  0.2682
  791SOL    HW1 2372   1.830   1.170   0.245  1.5973 -1.7876  1.2044
  791SOL    HW2 2373   2.005   1.191   0.210  1.2044  0.1890  0.6890
  792SOL     OW 2374   0.445   1.998   2.143 -0.0067 -0.3082 -0.0042
  792SOL    HW1 2375   0.521   2.048   2.200  0.7302  2.9990 -0.5524
  792SOL    HW2 2376   0.359   1.987   2.202  0.5333 -1.5650  1.1870
  793SOL     OW 2377   2.105   1.555   2.161 -0.1618 -0.0245  0.0555
  793SOL    HW1 2378   2.186   1.586   2.111 -1.6163 -0.6637  1.7881
  793SOL    HW2 2379   2.089   1.456   2.148 -0.6934 -2.0839 -0.5355
  794SOL     OW 2380   0.445   1.333   2.421 -0.1973  0.0524  0.1585
  794SOL    HW1 2381   0.441   1.326   2.316 -0.4349 -2.0869  0.0585
  794SOL    HW2 2382   0.495   1.415   2.461 -0.3268  0.7201 -0.5755
  795SOL     OW 2383   2.409   2.292   1.739 -0.3639 -0.1236 -1.0427
  795SOL    HW1 2384   2.354   2.351   1.803 -2.0321  0.5019 -1.1575
  795SOL    HW2 2385   2.374   2.192   1.746 -2.7506 -0.2802  1.0783
  796SOL     OW 2386   3.067   1.123   2.672  0.4076  0.0391 -0.4773
  796SOL    HW1 2387   2.966   1.121   2.695 -2.5155 -2.7915 -0.0343
  796SOL    HW2 2388   3.128   1.113   2.754  0.0980  0.7660  0.6385
  797SOL     OW 2389   0.796   0.608   1.364 -0.1479 -0.3776 -0.6298
  797SOL    HW1 2390   0.861   0.668   1.419 -0.0697  2.4064 -0.7208
  797SOL    HW2 2391   0.724   0.663   1.311 -0.7689  0.6270 -1.6584
  798SOL     OW 2392   1.364   0.359   1.118  0.1408  0.9245 -0.1661
  798SOL    HW1 2393   1.341   0.354   1.221 -1.4453  0.2837  0.8850
  798SOL    HW2 2394   1.386   0.449   1.084 -0.5490  0.3971 -0.4517
  799SOL     OW 2395   1.905   2.671   1.034  0.0789 -0.6296  0.0842
  799SOL    HW1 2396   1.884   2.681   1.136  1.5324 -0.9487 -0.1700
  799SOL    HW2 2397   1.829   2.675   0.970 -0.3031 -1.2706 -1.4146
  800SOL     OW 2398   2.949   0.742   1.890  0.3750 -0.0718  0.2134
  800SOL    HW1 2399   2.954   0.842   1.924 -2.1862 -0.9515  0.4185
  800SOL    HW2 2400   3.018   0.677   1.935 -1.4170  0.9055 -1.2725
  801SOL     OW 2401   1.943   2.229   0.078  0.8410 -0.2027 -0.4804
  801SOL    HW1 2402   1.857   2.201   0.021 -3.1612 -3.8839  0.7868
  801SOL    HW2 2403   2.008   2.150   0.069 -1.1588 -2.0524  0.0667
  802SOL     OW 2404   0.664   0.802   2.551 -1.2419  0.1460  0.4471
  802SOL    HW1 2405   0.726   0.752   2.484  0.3184 -0.8319  0.6155
  802SOL    HW2 2406   0.565   0.802   2.517  0.0123 -1.8538  2.1657
  803SOL     OW 2407   0.976   0.031   0.788  0.0688  0.2089 -0.1900
  803SOL    HW1 2408   0.995   0.104   0.856 -1.4906  1.7139 -2.4214
  803SOL    HW2 2409   0.953   0.073   0.697  0.4156  0.1857 -0.5139
  804SOL     OW 2410   0.317   0.043   2.145 -0.2209 -0.3423  0.0070
  804SOL    HW1 2411   0.336   0.143   2.129  1.8197 -1.2763 -0.3083
  804SOL    HW2 2412   0.247   0.009   2.077  0.1548 -1.0562  0.9141
  805SOL     OW 2413   2.345   0.338   0.429 -0.6134  0.1263 -0.1288
  805SOL    HW1 2414   2.423   0.345   0.502  1.1102  0.6894  1.3762
  805SOL    HW2 2415   2.376   0.322   0.331 -0.5122 -0.5806 -1.5143
  806SOL     OW 2416   0.647   2.456   1.782  0.2016 -0.0068 -0.1473
  806SOL    HW1 2417   0.628   2.557   1.794  1.2259 -1.1853  0.2325
  806SOL    HW2 2418   0.743   2.443   1.748 -0.5844 -1.1848 -3.5512
  807SOL     OW 2419   2.462   0.815   0.353 -0.0659 -0.1517  0.1285
  807SOL    HW1 2420   2.545   0.852   0.402 -0.2245 -0.0933 -1.2412
  807SOL    HW2 2421   2.440   0.865   0.264  3.6271 -1.4710  0.1044
  808SOL     OW 2422   0.653   2.062   2.877  0.6653  0.3602  0.2509
  808SOL    HW1 2423   0.586   2.115   2.938 -0.3491 -1.0287  0.9442
  808SOL    HW2 2424   0.671   1.966   2.921 -2.2501 -2.2076 -0.3639
  809SOL     OW 2425   2.636   1.959   1.877 -0.2824  0.2908 -0.1374
  809SOL    HW1 2426   2.732   2.002   1.889 -0.9586 -2.1717 -1.7054
  809SOL    HW2 2427   2.581   2.014   1.810 -0.4892  0.0584  3.2235
  810SOL     OW 2428   2.122   1.081   0.578  0.4673  0.6157  0.0586
  810SOL    HW1 2429   2.062   1.002   0.615 -3.0975  0.3559  0.5425
  810SOL    HW2 2430   2.099   1.173   0.627  0.2944 -1.0571  2.0844
  811SOL     OW 2431   1.340   2.510   1.218  0.2378 -0.1338 -0.3230
  811SOL    HW1 2432   1.280   2.430   1.254 -2.4856 -0.9750 -1.0123
  811SOL    HW2 2433   1.308   2.602   1.248  0.8086 -0.2401 -0.0995
  812SOL     OW 2434   1.410   0.751   1.929  0.6202  0.0467  0.3520
  812SOL    HW1 2435   1.455   0.824   1.988 -0.2474  2.6496 -0.3408
  812SOL    HW2 2436   1.310   0.770   1.937 -0.9796  0.5075 -1.6986
  813SOL     OW 2437   1.667   2.048   2.521 -0.5053 -0.5281 -0.2266
  813SOL    HW1 2438   1.739   1.971   2.521 -0.5569 -0.2469  1.4413
  813SOL    HW2 2439   1.608   2.049   2.431  1.4624  0.4376 -0.8919
  814SOL     OW 2440   2.921   1.511   2.828  0.3005  0.2644 -0.0135
  814SOL    HW1 2441   3.009   1.491   2.881  1.8583  0.3386  0.0683
  814SOL    HW2 2442   2.916   1.612   2.796  1.5670  1.6652 -2.2279
  815SOL     OW 2443   2.177   2.890   2.768 -0.0689 -0.0910 -0.5707
  815SOL    HW1 2444   2.151   2.798   2.819  0.4563  0.2098  1.2780
  815SOL    HW2 2445   2.251   2.942   2.814  0.0055 -1.5506  0.3345
  816SOL     OW 2446   1.626   0.317   1.625 -0.4945  0.0916  0.5038
  816SOL    HW1 2447   1.673   0.234   1.660  0.0527 -1.9850 -1.7376
  816SOL    HW2 2448   1.554   0.362   1.687  0.4332  0.8911 -0.1009
  817SOL     OW 2449   0.336   1.153   2.604 -0.4041 -0.2409  0.6535
  817SOL    HW1 2450   0.246   1.173   2.649 -0.5087  1.6809 -2.8747
  817SOL    HW2 2451   0.364   1.228   2.538 -2.9074  0.3426 -1.0048
  818SOL     OW 2452   1.965   0.939   0.351 -0.1926  1.0378 -0.7261
  818SOL    HW1 2453   2.065   0.897   0.354 -0.0526 -0.7511  1.5623
  818SOL    HW2 2454   1.942   0.997   0.429 -1.3562 -0.6209 -2.5822
  819SOL     OW 2455   2.731   2.986   2.961 -0.8170 -0.5381 -0.1380
  819SOL    HW1 2456   2.809   2.927   2.939 -1.7300  3.0710  0.7354
  819SOL    HW2 2457   2.645   2.950   2.917  1.9691  0.6914  0.4264
  820SOL     OW 2458   1.226   1.072   0.600  0.1526 -0.4037 -0.0003
  820SOL    HW1 2459   1.229   1.170   0.641  2.5081  1.7871 -0.6984
  820SOL    HW2 2460   1.211   1.003   0.672 -0.4200  1.2572 -2.6556
  821SOL     OW 2461   0.035   1.284   0.673  0.2093  0.4264 -0.3105
  821SOL    HW1 2462  -0.027   1.277   0.758 -0.2711 -1.1440 -0.5550
  821SOL    HW2 2463   0.093   1.367   0.655  0.1315 -3.0623 -0.5678
  822SOL     OW 2464   2.599   1.754   2.416  0.6156  0.6243 -0.0361
  822SOL    HW1 2465   2.611   1.835   2.483  0.8390  0.7456 -0.6702
  822SOL    HW2 2466   2.511   1.768   2.359  0.0425 -0.5218 -2.8312
  823SOL     OW 2467   2.051   0.877   1.169 -0.3057 -0.5674 -0.3692
  823SOL    HW1 2468   2.026   0.857   1.265  2.4235  1.6297 -3.2961
  823SOL    HW2 2469   1.968   0.907   1.117 -1.9874 -2.1340  0.0004
  824SOL     OW 2470   0.283   2.008   2.864  0.1124 -0.9462 -0.0143
  824SOL    HW1 2471   0.253   1.925   2.920  0.4268  0.8976  2.3044
  824SOL    HW2 2472   0.318   1.982   2.768  1.6710 -0.3429 -0.2957
  825SOL     OW 2473   1.285   1.098   0.292 -0.2812  0.3649  0.2787
  825SOL    HW1 2474   1.301   1.196   0.258  1.0807  3.0320 -1.3242
  825SOL    HW2 2475   1.209   1.093   0.361  0.6538  1.9631  0.2095
  826SOL     OW 2476   1.890   0.647   1.582 -0.0513 -0.6554 -0.7664
  826SOL    HW1 2477   1.964   0.578   1.603 -0.2898 -0.3476  1.4606
  826SOL    HW2 2478   1.807   0.611   1.535 -0.3260  2.7461 -2.8179
  827SOL     OW 2479   0.703   1.250   0.209  0.6785 -0.2464  0.5520
  827SOL    HW1 2480   0.793   1.200   0.181 -1.4519  2.4127 -1.8972
  827SOL    HW2 2481   0.653   1.213   0.293  0.1804 -0.0278 -1.3972
  828SOL     OW 2482   2.623   0.190   1.554  0.1012 -0.0651 -0.0773
  828SOL    HW1 2483   2.543   0.131   1.518 -2.4564  0.5362 -1.6358
  828SOL    HW2 2484   2.612   0.218   1.652  2.4505  2.4676 -1.5783
  829SOL     OW 2485   2.812   2.462   2.976  0.8093 -0.2428 -0.2563
  829SOL    HW1 2486   2.742   2.387   2.974  0.5661 -0.9764  0.8830
  829SOL    HW2 2487   2.801   2.530   3.055 -0.5355  0.3092 -0.9618
  830SOL     OW 2488   2.782   0.946   3.067 -0.0486 -0.3661 -0.2578
  830SOL    HW1 2489   2.856   1.020   3.056 -2.5250  0.0801 -1.5094
  830SOL    HW2 2490   2.817   0.867   3.125 -2.7199  2.3398  0.5408
  831SOL     OW 2491   3.071   0.664   0.368  0.1243 -0.3848 -0.2226
  831SOL    HW1 2492   3.038   0.629   0.459 -1.3501 -0.6409 -0.0511
  831SOL    HW2 2493   3.135   0.595   0.319  0.7360  2.7961 -1.3340
  832SOL     OW 2494   1.825   0.769   2.992 -0.2680  0.2645  0.4968
  832SOL    HW1 2495   1.745   0.823   2.950  0.8372 -0.2775  0.4626
  832SOL    HW2 2496   1.787   0.685   3.039  0.1034  0.8899  1.6269
  833SOL     OW 2497   2.405   2.099   0.490 -0.1853 -0.3049 -0.0676
  833SOL    HW1 2498   2.316   2.135   0.449  0.4276 -0.4129 -0.5642
  833SOL    HW2 2499   2.423   1.998   0.477  2.0862 -1.9841 -0.8053
  834SOL     OW 2500   0.151   0.233   0.482 -0.8933  0.3669  0.2662
  834SOL    HW1 2501   0.171   0.151   0.532  1.3952  0.9951 -3.7221
  834SOL    HW2 2502   0.109   0.218   0.386 -5.0927 -1.2844  1.2179
  835SOL     OW 2503   2.284   1.554   1.093 -0.3083 -0.3445  0.6847
  835SOL    HW1 2504   2.276   1.650   1.118  2.8063 -0.6856  2.2643
  835SOL    HW2 2505   2.371   1.528   1.039  0.0245  0.8572 -0.9002
  836SOL     OW 2506   1.593   0.854   2.612 -0.0554  0.0936  0.0093
  836SOL    HW1 2507   1.485   0.846   2.612 -1.8575 -1.3067  0.4678
  836SOL    HW2 2508   1.634   0.869   2.513  1.8449  1.1662 -1.5840
  837SOL     OW 2509   1.663   0.104   0.535 -0.5712 -0.4192  0.3907
  837SOL    HW1 2510   1.620   0.171   0.601 -0.3944  0.8033 -0.3784
  837SOL    HW2 2511   1.638   0.125   0.437  0.4983 -2.0835  3.0370
  838SOL     OW 2512   1.211   1.531   2.816  1.0604  0.1495 -0.6368
  838SOL    HW1 2513   1.199   1.508   2.918 -1.0405 -0.2843 -0.4365
  838SOL    HW2 2514   1.147   1.477   2.755  1.3930 -1.0157  1.3976
  839SOL     OW 2515   1.740   0.258   1.018 -0.0389 -0.6931  0.4910
  839SOL    HW1 2516   1.748   0.338   1.085  1.4070  0.0256 -0.2794
  839SOL    HW2 2517   1.687   0.176   1.051  0.6085 -2.1586 -2.2387
  840SOL     OW 2518   2.637   2.940   1.725 -0.6741 -0.4992 -0.3851
  840SOL    HW1 2519   2.580   2.912   1.640 -1.2348  0.4644 -0.1251
  840SOL    HW2 2520   2.623   2.875   1.811 -0.2172 -2.1691  0.5232
  841SOL     OW 2521   1.531   0.841   2.974  0.2523  0.5320 -0.5057
  841SOL    HW1 2522   1.482   0.849   3.068  4.8900 -0.6596  1.7193
  841SOL    HW2 2523   1.527   0.934   2.920 -0.7870  2.3000 -0.5980
  842SOL     OW 2524   0.828   1.530   0.937 -0.1516 -0.2130 -0.4536
  842SOL    HW1 2525   0.797   1.585   1.018 -1.4186 -2.1098  1.8197
  842SOL    HW2 2526   0.753   1.472   0.896 -2.3807 -1.8037  0.3356
  843SOL     OW 2527   0.098   0.076   1.444 -0.0960  0.3688 -0.0930
  843SOL    HW1 2528   0.193   0.110   1.463  0.1684 -0.3024  1.1654
  843SOL    HW2 2529   0.068   0.002   1.513  2.2692  0.3671 -1.2173
  844SOL     OW 2530   0.795   2.492   0.304  0.4137  0.1023 -0.2271
  844SOL    HW1 2531   0.715   2.470   0.365 -1.7168 -0.9845 -1.9687
  844SOL    HW2 2532   0.754   2.547   0.224 -3.3955 -0.6007 -0.4263
  845SOL     OW 2533   1.611   2.898   1.359 -0.0922 -0.0788 -0.1909
  845SOL    HW1 2534   1.677   2.893   1.438 -2.6970 -1.9052  0.4438
  845SOL    HW2 2535   1.542   2.974   1.368  0.2602 -1.0014  0.6168
  846SOL     OW 2536   1.539   2.944   0.782 -0.2878  0.4189  0.8027
  846SOL    HW1 2537   1.534   2.879   0.700 -1.4395 -1.4353 -0.4799
  846SOL    HW2 2538   1.630   2.993   0.780  2.0398  0.9567 -0.3207
  847SOL     OW 2539   2.038   1.628   0.283 -0.3641 -0.2984 -0.4041
  847SOL    HW1 2540   2.004   1.554   0.346 -1.9644 -0.7613  1.3209
  847SOL    HW2 2541   1.972   1.703   0.263  1.4976 -1.3750  1.3184
  848SOL     OW 2542   2.494   0.826   2.608  0.1967 -0.4955  0.1335
  848SOL    HW1 2543   2.473   0.931   2.618 -1.1085 -2.4848 -1.5236
  848SOL    HW2 2544   2.417   0.757   2.587  2.0075 -3.0505  1.8453
  849SOL     OW 2545   2.579   0.846   2.341 -0.1016  0.4946 -0.0256
  849SOL    HW1 2546   2.653   0.780   2.312 -1.2483  1.1694 -1.1037
  849SOL    HW2 2547   2.545   0.825   2.437 -0.4374 -1.7746  0.8695
  850SOL     OW 2548   1.543   0.102   1.357  0.2629  0.1556 -0.0197
  850SOL    HW1 2549   1.571   0.102   1.254 -1.1159 -0.6082 -1.0976
  850SOL    HW2 2550   1.471   0.038   1.393  1.3376 -0.8374 -1.3354
  851SOL     OW 2551   0.447   1.783   0.619 -0.0545 -0.5822  0.2939
  851SOL    HW1 2552   0.432   1.883   0.602  0.4010 -0.5959 -0.2392
  851SOL    HW2 2553   0.526   1.744   0.561  1.1135 -0.1213 -1.7250
  852SOL     OW 2554   0.775   2.141   1.690  0.1059  0.5855 -0.3105
  852SOL    HW1 2555   0.753   2.217   1.628  2.0828 -0.2154 -1.4865
  852SOL    HW2 2556   0.706   2.131   1.768  0.0129  1.1489  4.3538
  853SOL     OW 2557   2.532   1.550   2.621 -0.4970  0.4981 -0.2551
  853SOL    HW1 2558   2.515   1.443   2.620  0.0769  0.3280 -1.6419
  853SOL    HW2 2559   2.541   1.597   2.530 -0.5419 -0.4123  1.7284
  854SOL     OW 2560   2.437   1.429   1.694  0.7176 -0.8824  0.1814
  854SOL    HW1 2561   2.503   1.397   1.617  0.8121  0.3066 -1.3626
  854SOL    HW2 2562   2.354   1.372   1.710 -0.0011  1.1674 -0.5159
  855SOL     OW 2563   2.099   2.371   0.960  0.5482 -0.6026  0.5876
  855SOL    HW1 2564   2.085   2.474   0.929  0.6121  0.5115 -0.7497
  855SOL    HW2 2565   2.144   2.369   1.057 -0.2060  2.2755  2.7361
  856SOL     OW 2566   1.353   1.498   0.861  0.2133 -0.1596 -0.9576
  856SOL    HW1 2567   1.418   1.567   0.906  3.1305  1.8022  1.8092
  856SOL    HW2 2568   1.255   1.516   0.894  0.9692 -1.9578  0.1943
  857SOL     OW 2569   3.086   2.655   1.040 -0.4858 -0.0669  0.5572
  857SOL    HW1 2570   2.999   2.597   1.051 -2.6290 -1.9794 -1.2996
  857SOL    HW2 2571   3.141   2.628   0.956 -1.9993  1.5059  1.5700
  858SOL     OW 2572   2.318   2.016   1.771 -0.0544  0.2218  0.4074
  858SOL    HW1 2573   2.236   1.986   1.715 -0.5541 -1.5362  1.5431
  858SOL    HW2 2574   2.395   1.956   1.752 -2.0333  0.5286 -1.8535
  859SOL     OW 2575   2.489   0.567   1.045  0.0129  0.0026 -0.0479
  859SOL    HW1 2576   2.540   0.620   0.968  1.5750 -1.1993 -0.3302
  859SOL    HW2 2577   2.518   0.467   1.059  3.1197 -1.0547 -1.1279
  860SOL     OW 2578   1.937   2.812   0.448 -0.4462 -0.2846 -0.6911
  860SOL    HW1 2579   1.914   2.750   0.375  0.8905  0.9074  4.2501
  860SOL    HW2 2580   2.032   2.861   0.438  0.0525  0.9440  2.3332
  861SOL     OW 2581   1.096   2.502   2.823 -0.4403  0.1933 -0.2911
  861SOL    HW1 2582   1.169   2.567   2.787 -1.0089  3.6452 -1.6778
  861SOL    HW2 2583   1.088   2.509   2.926  0.7110  0.7394  2.1043
  862SOL     OW 2584   2.843   2.553   1.611  0.6152 -0.4429  0.2623
  862SOL    HW1 2585   2.938   2.574   1.643 -0.5018 -3.4452  2.3769
  862SOL    HW2 2586   2.802   2.617   1.543  1.0954 -0.5886 -2.2691
  863SOL     OW 2587   1.832   2.701   0.168 -0.2763 -0.1396  0.1927
  863SOL    HW1 2588   1.893   2.617   0.165 -0.5872  0.8545 -1.0359
  863SOL    HW2 2589   1.730   2.680   0.186 -1.4740 -1.0170  4.4219
  864SOL     OW 2590   1.905   1.186   2.863  0.1335 -0.2491 -0.2788
  864SOL    HW1 2591   1.909   1.141   2.770 -1.5280 -0.5048 -1.1324
  864SOL    HW2 2592   1.997   1.212   2.897  1.4478 -1.3701 -0.7625
  865SOL     OW 2593   2.249   1.859   0.590  0.0429  0.3765 -0.2338
  865SOL    HW1 2594   2.317   1.852   0.667  1.3508 -0.7513 -0.2747
  865SOL    HW2 2595   2.170   1.795   0.603  1.9596 -1.7040  1.6625
  866SOL     OW 2596   2.958   2.938   1.027  0.5097  0.1017  0.2604
  866SOL    HW1 2597   2.961   2.979   0.931  1.2184  1.5353 -0.7396
  866SOL    HW2 2598   2.996   2.842   1.033  0.4646  2.9148  2.3171
  867SOL     OW 2599   0.323   1.367   0.916  0.0778  0.4016  0.2318
  867SOL    HW1 2600   0.343   1.297   0.846  0.7768  0.4869  0.2090
  867SOL    HW2 2601   0.291   1.460   0.872  2.9427  2.0977  0.5807
  868SOL     OW 2602   0.722   1.847   2.038 -0.3832 -0.4450  0.6830
  868SOL    HW1 2603   0.670   1.812   2.125  0.7792 -1.5965  1.6998
  868SOL    HW2 2604   0.743   1.945   2.049 -0.6217 -0.7557  0.7151
  869SOL     OW 2605   2.572   1.949   1.593 -0.6256 -0.1213 -0.0492
  869SOL    HW1 2606   2.661   2.011   1.593  1.4057  1.0566  0.0662
  869SOL    HW2 2607   2.591   1.848   1.602  0.4840 -1.2124  0.2825
  870SOL     OW 2608   2.288   2.658   1.272  0.7997 -0.6899  0.0578
  870SOL    HW1 2609   2.275   2.557   1.267 -0.6675  1.0467  0.9015
  870SOL    HW2 2610   2.227   2.695   1.354  2.6691  3.9078  1.5358
  871SOL     OW 2611   3.030   2.194   0.562  0.0274 -0.5728  0.6099
  871SOL    HW1 2612   2.998   2.242   0.645 -0.8512  1.7802 -0.3832
  871SOL    HW2 2613   2.951   2.175   0.495 -0.1776 -1.5951 -0.4439
  872SOL     OW 2614   2.108   0.485   1.670  0.0802 -0.0218  0.4296
  872SOL    HW1 2615   2.066   0.486   1.765  0.4233 -2.3790  0.6986
  872SOL    HW2 2616   2.192   0.420   1.674 -1.2399 -0.9770  1.2107
  873SOL     OW 2617   1.721   2.122   3.064 -0.1474 -0.3816 -0.0671
  873SOL    HW1 2618   1.638   2.132   3.123  0.1501 -0.6113  0.0949
  873SOL    HW2 2619   1.689   2.117   2.966 -0.8369  0.2772 -0.2093
  874SOL     OW 2620   0.646   2.460   0.775  0.1681 -0.4571 -0.2924
  874SOL    HW1 2621   0.648   2.553   0.825 -1.5891  1.4232  1.9009
  874SOL    HW2 2622   0.738   2.416   0.766 -0.7827  2.5601 -0.0276
  875SOL     OW 2623   2.309   1.565   1.420 -0.6524  0.5010 -0.1579
  875SOL    HW1 2624   2.398   1.588   1.475 -2.2922 -0.5287  0.1235
  875SOL    HW2 2625   2.326   1.520   1.334 -0.7924  1.4660  2.0437
  876SOL     OW 2626   0.095   2.222   2.755 -0.0777 -0.3261 -0.6031
  876SOL    HW1 2627   0.172   2.153   2.773 -0.5392 -2.0063 -1.6426
  876SOL    HW2 2628   0.127   2.322   2.768  0.9430  4.1945  2.1763
  877SOL     OW 2629   2.909   2.657   0.589  0.0137  0.0540  0.3417
  877SOL    HW1 2630   2.917   2.755   0.613  0.6450 -1.7890 -0.0604
  877SOL    HW2 2631   2.938   2.589   0.667 -1.5776 -1.0597  0.9683
  878SOL     OW 2632   2.792   1.510   2.214  0.7977  0.4862 -0.5320
  878SOL    HW1 2633   2.894   1.519   2.205  0.9031 -0.6706 -0.3219
  878SOL    HW2 2634   2.749   1.564   2.292 -0.7239  0.6382  1.2645
  879SOL     OW 2635   2.366   0.090   1.187 -0.1881 -0.3452 -0.8691
  879SOL    HW1 2636   2.407  -0.005   1.200  0.5884  0.5247 -0.8585
  879SOL    HW2 2637   2.275   0.082   1.139 -0.4295 -2.7097  2.4766
  880SOL     OW 2638   0.729   0.482   2.279  0.0776 -0.3398  0.2096
  880SOL    HW1 2639   0.657   0.437   2.340 -0.4465 -2.4540  0.3600
  880SOL    HW2 2640   0.765   0.414   2.211 -1.5257  1.5915 -0.7103
  881SOL     OW 2641   0.854   0.056   0.481  0.0387  0.4200  0.0187
  881SOL    HW1 2642   0.899  -0.037   0.486 -0.6519  1.2068 -1.5991
  881SOL    HW2 2643   0.757   0.063   0.449  3.0223 -4.3269  1.3519
  882SOL     OW 2644   2.716   1.709   1.700  0.1004  0.3835 -0.2416
  882SOL    HW1 2645   2.804   1.664   1.685 -1.5973 -3.4629 -0.1299
  882SOL    HW2 2646   2.698   1.728   1.800 -1.9669  1.8569 -0.4079
  883SOL     OW 2647   0.906   0.567   0.990 -0.6613 -0.1342  0.2877
  883SOL    HW1 2648   0.893   0.662   1.032  2.0846 -1.0608 -0.3054
  883SOL    HW2 2649   0.893   0.490   1.056 -1.7978  2.5382  0.3612
  884SOL     OW 2650   1.199   1.759   1.155  0.3555  0.1626  0.3788
  884SOL    HW1 2651   1.164   1.673   1.099  0.3225  1.5844  0.2533
  884SOL    HW2 2652   1.175   1.849   1.113 -1.8976 -3.2508  1.6077
  885SOL     OW 2653   2.354   1.794   2.303  0.5244  0.2274  0.2116
  885SOL    HW1 2654   2.281   1.737   2.346 -1.9279  2.5623 -0.3436
  885SOL    HW2 2655   2.307   1.885   2.279 -2.0251  2.2575 -0.4400
  886SOL     OW 2656   2.625   0.421   1.789  0.6100  0.1638  0.0891
  886SOL    HW1 2657   2.620   0.401   1.892 -2.0565  2.6297  0.8589
  886SOL    HW2 2658   2.696   0.493   1.766 -1.3254  1.4099 -0.4550
  887SOL     OW 2659   0.094   2.046   1.323  0.2207  0.1699  0.0512
  887SOL    HW1 2660   0.007   2.026   1.275  0.7193  1.5066  1.1819
  887SOL    HW2 2661   0.135   2.131   1.282  1.1662 -0.8954 -1.7693
  888SOL     OW 2662   0.567   1.255   1.541 -0.2989  0.4223 -0.0393
  888SOL    HW1 2663   0.593   1.253   1.439  1.4493  1.2748 -1.9394
  888SOL    HW2 2664   0.518   1.167   1.569 -1.8358  2.2907  0.5607
  889SOL     OW 2665   0.828   2.480   2.163 -0.3032  0.1881  0.0884
  889SOL    HW1 2666   0.754   2.404   2.153  1.2176 -0.8383 -3.9115
  889SOL    HW2 2667   0.877   2.495   2.072 -1.9244 -0.3303 -1.4785
  890SOL     OW 2668   2.421   2.421   0.187  0.0148  0.4392 -0.0044
  890SOL    HW1 2669   2.446   2.464   0.096  0.7795 -0.8742  0.7370
  890SOL    HW2 2670   2.383   2.488   0.259  0.1042  1.0714 -1.5015
  891SOL     OW 2671   2.545   1.692   0.721  0.0263 -0.3674 -0.1851
  891SOL    HW1 2672   2.565   1.741   0.808  0.4200  1.4297 -0.0556
  891SOL    HW2 2673   2.482   1.609   0.721 -1.1324 -2.7951 -1.6567
  892SOL     OW 2674   0.370   0.322   2.186 -0.0662 -0.3833 -0.6311
  892SOL    HW1 2675   0.376   0.400   2.117  0.1730  0.0888  0.0026
  892SOL    HW2 2676   0.446   0.324   2.261  2.9696  0.1060  0.4197
  893SOL     OW 2677   1.658   0.271   2.756 -0.3033  0.0838  0.0936
  893SOL    HW1 2678   1.734   0.344   2.762  0.3861 -0.1900 -1.7324
  893SOL    HW2 2679   1.567   0.312   2.731 -0.0395 -2.4482 -2.0646
  894SOL     OW 2680   2.120   2.029   3.093  0.0134  0.0023 -0.4803
  894SOL    HW1 2681   2.087   1.974   3.012  0.4750  2.5042 -1.5371
  894SOL    HW2 2682   2.163   1.965   3.168  2.6160 -2.2078  1.6170
  895SOL     OW 2683   2.787   1.423   0.924  0.4532  0.0082  0.2908
  895SOL    HW1 2684   2.878   1.371   0.939 -1.8013  0.7436 -0.0988
  895SOL    HW2 2685   2.795   1.524   0.938  2.1546  0.8835  0.3803
  896SOL     OW 2686   1.772   1.814   1.228 -0.1279 -0.0441 -0.0030
  896SOL    HW1 2687   1.797   1.733   1.172 -0.6120  1.1442  1.4347
  896SOL    HW2 2688   1.716   1.882   1.171 -2.0290 -1.5485 -0.5030
  897SOL     OW 2689   0.336   0.536   0.021 -0.0431  0.9517  0.7061
  897SOL    HW1 2690   0.275   0.579  -0.050 -1.3141  2.2941 -2.4700
  897SOL    HW2 2691   0.435   0.562   0.001  0.1024  1.6235 -2.8392
  898SOL     OW 2692   0.556   2.875   1.085  0.2219  0.5061  0.1159
  898SOL    HW1 2693   0.501   2.963   1.108 -1.4254 -0.8043  1.2621
  898SOL    HW2 2694   0.625   2.845   1.159  2.0028 -2.4210  0.5497
  899SOL     OW 2695   2.805   0.908   1.287 -0.4917 -0.1717  0.0836
  899SOL    HW1 2696   2.740   0.923   1.205 -0.1557 -1.9250 -0.5315
  899SOL    HW2 2697   2.902   0.937   1.257 -0.8010  3.0314  2.6041
  900SOL     OW 2698   0.985   2.549   2.408  0.9364  0.3567 -0.7820
  900SOL    HW1 2699   0.900   2.572   2.351  1.5051  2.7267  2.8845
  900SOL    HW2 2700   0.964   2.492   2.490  0.2379  2.0963  0.7412
  901SOL     OW 2701   1.923   2.340   1.349  0.2146  0.0164 -0.3290
  901SOL    HW1 2702   1.881   2.300   1.267 -0.4499 -0.3988 -0.2443
  901SOL    HW2 2703   2.024   2.317   1.360  1.0547 -0.6625 -0.1313
  902SOL     OW 2704   2.577   1.651   1.467  0.2048 -0.1281 -0.3094
  902SOL    HW1 2705   2.635   1.658   1.557 -0.5403  1.5010  0.8072
  902SOL    HW2 2706   2.639   1.650   1.383 -0.9970  1.3011  0.9960
  903SOL     OW 2707   0.261   2.487   1.978 -0.4506  0.5102 -0.0377
  903SOL    HW1 2708   0.168   2.438   1.967  1.6349  1.5490 -0.9322
  903SOL    HW2 2709   0.277   2.546   1.892 -1.2387  0.7144  0.2299
  904SOL     OW 2710   2.048   0.806   2.473  0.3499 -0.4954 -0.6611
  904SOL    HW1 2711   1.991   0.738   2.527  0.0104  0.8913  3.0226
  904SOL    HW2 2712   2.052   0.786   2.367  0.2091 -0.5327 -0.2077
  905SOL     OW 2713   2.824   0.081   2.558  0.5170 -0.0186  0.0052
  905SOL    HW1 2714   2.877  -0.009   2.545 -0.7441 -0.1510  0.3854
  905SOL    HW2 2715   2.871   0.169   2.525 -1.7871  0.6165 -0.0221
  906SOL     OW 2716   0.154   1.716   1.933 -0.8902 -0.0984 -0.1841
  906SOL    HW1 2717   0.097   1.742   1.852  1.7800  0.9374  0.2011
  906SOL    HW2 2718   0.242   1.771   1.930 -2.9128  2.4340 -1.3504
  907SOL     OW 2719   0.239   2.461   1.005 -0.4859 -0.3937 -0.3798
  907SOL    HW1 2720   0.334   2.419   0.980  1.5576  2.0425 -1.7647
  907SOL    HW2 2721   0.190   2.410   1.078 -0.5687  0.2375  1.3704
  908SOL     OW 2722   2.728   2.989   0.370 -0.0315  0.3491 -0.0206
  908SOL    HW1 2723   2.693   3.046   0.294  2.0067  1.7344  1.9600
  908SOL    HW2 2724   2.797   2.921   0.332 -1.6972 -0.1426  0.8946
  909SOL     OW 2725   0.803   1.025   2.645  0.1615  0.0986  0.1637
  909SOL    HW1 2726   0.744   0.942   2.616 -3.6194 -0.2899 -0.5168
  909SOL    HW2 2727   0.882   1.046   2.578  1.3282 -2.3419 -1.7672
  910SOL     OW 2728   1.717   1.871   2.161 -0.2320 -0.3491 -0.3393
  910SOL    HW1 2729   1.751   1.899   2.064  1.8855 -0.8128 -1.4489
  910SOL    HW2 2730   1.625   1.923   2.187 -1.0903 -1.5685  0.7293
  911SOL     OW 2731   1.801   2.937   1.562 -0.0056 -0.2540 -0.1478
  911SOL    HW1 2732   1.866   2.919   1.485  1.4189  0.5026  0.4125
  911SOL    HW2 2733   1.832   2.890   1.648 -2.1496 -0.4674 -2.6005
  912SOL     OW 2734   2.849   0.988   0.694  0.4848 -0.0934  0.2014
  912SOL    HW1 2735   2.893   0.963   0.785  0.8851 -3.5092  0.2431
  912SOL    HW2 2736   2.818   1.085   0.688 -1.4953 -2.3222  0.5188
  913SOL     OW 2737   2.601   1.248   1.481  0.1380  0.1186 -0.3545
  913SOL    HW1 2738   2.590   1.146   1.469 -1.4872  1.7975  1.5265
  913SOL    HW2 2739   2.626   1.302   1.395 -1.0342 -0.0564 -0.7959
  914SOL     OW 2740   2.853   0.570   1.229  0.7460 -1.3732 -0.0622
  914SOL    HW1 2741   2.836   0.469   1.236  0.9663  0.4071  2.6221
  914SOL    HW2 2742   2.840   0.623   1.316 -0.8125 -2.9816  0.7681
  915SOL     OW 2743   1.209   0.778   1.093  0.1414 -0.1300 -0.2256
  915SOL    HW1 2744   1.237   0.820   1.183 -0.7112 -0.0884 -0.7217
  915SOL    HW2 2745   1.105   0.784   1.074  2.5474  1.8223  1.6274
  916SOL     OW 2746   0.577   0.012   0.669  0.0950  0.4504 -0.3628
  916SOL    HW1 2747   0.602   0.101   0.714  0.9201  0.0663  0.6781
  916SOL    HW2 2748   0.567   0.028   0.568  0.5364  1.3966  1.0284
  917SOL     OW 2749   2.809   2.635   1.963  0.4820  0.0874 -0.3965
  917SOL    HW1 2750   2.712   2.661   1.935  0.4983 -0.4035  2.8085
  917SOL    HW2 2751   2.880   2.696   1.925 -3.2992 -0.2193 -2.2295
  918SOL     OW 2752   1.031   2.174   3.030 -0.1490  0.2565 -1.1394
  918SOL    HW1 2753   0.976   2.212   3.108  2.8007 -3.0048  2.3737
  918SOL    HW2 2754   1.127   2.156   3.051 -0.1439  1.3984 -0.2607
  919SOL     OW 2755   0.841   1.671   2.860  0.1052  0.6396 -0.9563
  919SOL    HW1 2756   0.871   1.754   2.806  0.5034 -0.4989  0.6582
  919SOL    HW2 2757   0.844   1.580   2.811 -2.3788 -0.8754  1.8859
  920SOL     OW 2758   1.212   1.869   2.428  0.2562  0.9428 -0.3223
  920SOL    HW1 2759   1.307   1.828   2.413 -0.1553  0.5740  1.6443
  920SOL    HW2 2760   1.162   1.830   2.510  1.1349 -2.7694  0.0096
  921SOL     OW 2761   1.023   0.028   2.645 -0.3528  0.0204  0.2303
  921SOL    HW1 2762   1.046   0.041   2.539 -1.1814  0.2018 -2.3127
  921SOL    HW2 2763   0.930  -0.017   2.656  2.1242 -0.2490  1.2494
  922SOL     OW 2764   2.142   2.403   2.792  0.7591 -0.1826  0.2507
  922SOL    HW1 2765   2.178   2.310   2.811 -0.6790  2.1927 -0.6063
  922SOL    HW2 2766   2.112   2.415   2.693  0.9071 -0.1899  2.3923
  923SOL     OW 2767   1.247   2.693   0.276 -0.4588 -0.1656 -0.2047
  923SOL    HW1 2768   1.315   2.755   0.319 -2.0767 -0.7847 -1.5587
  923SOL    HW2 2769   1.275   2.596   0.280 -0.9961  1.7094  1.2996
  924SOL     OW 2770   2.849   1.524   0.153  0.4430 -0.0714  0.1159
  924SOL    HW1 2771   2.791   1.550   0.070 -0.9405 -3.9446  0.0070
  924SOL    HW2 2772   2.944   1.492   0.129 -1.3868 -0.5151  0.6052
  925SOL     OW 2773   0.015   2.924   1.543  0.5513  0.7130  0.1800
  925SOL    HW1 2774  -0.071   2.913   1.599  3.8677  1.8528  2.5607
  925SOL    HW2 2775  -0.004   2.917   1.438  0.1656  0.8581  0.2583
  926SOL     OW 2776   1.305   2.814   1.239  0.1143  0.3245 -0.2451
  926SOL    HW1 2777   1.376   2.827   1.164 -0.6584  2.8209 -0.6742
  926SOL    HW2 2778   1.324   2.886   1.310 -0.8528 -1.2788 -1.0998
  927SOL     OW 2779   0.321   2.658   1.756  0.1152 -0.1906  0.3039
  927SOL    HW1 2780   0.285   2.601   1.678  2.2110  2.7326 -1.7584
  927SOL    HW2 2781   0.290   2.761   1.751  0.3180 -0.4626  3.1642
  928SOL     OW 2782   1.520   2.066   2.279 -0.2126  0.0094  0.2645
  928SOL    HW1 2783   1.565   2.127   2.204 -0.2878  1.4238 -2.3208
  928SOL    HW2 2784   1.415   2.061   2.280  1.7798 -0.4922 -2.7586
  929SOL     OW 2785   2.396   2.497   2.873 -0.2754  0.2510  0.7089
  929SOL    HW1 2786   2.310   2.443   2.854  0.5007 -0.0935 -2.9081
  929SOL    HW2 2787   2.453   2.504   2.785 -1.5681  0.3768  0.5138
  930SOL     OW 2788   2.200   2.009   1.071 -0.5886 -0.4219 -0.4505
  930SOL    HW1 2789   2.197   1.955   1.162  0.8081 -1.9342  1.9171
  930SOL    HW2 2790   2.277   2.077   1.067 -2.1994 -0.5553  0.4649
  931SOL     OW 2791   0.546   1.716   2.717  0.0043 -0.0170 -0.2361
  931SOL    HW1 2792   0.589   1.747   2.810  1.8863  0.5792 -2.5057
  931SOL    HW2 2793   0.613   1.644   2.675 -1.6364  0.3562 -0.1045
  932SOL     OW 2794   0.441   0.121   2.956 -0.2709 -0.4771 -0.4459
  932SOL    HW1 2795   0.535   0.137   2.907  0.9156  0.1940 -2.8158
  932SOL    HW2 2796   0.451   0.042   3.019 -1.8246 -3.2818  0.2287
  933SOL     OW 2797   0.992   0.824   3.055 -0.0863  0.0565 -0.2380
  933SOL    HW1 2798   1.026   0.867   3.141  2.7860  0.4052  0.0131
  933SOL    HW2 2799   0.976   0.892   2.978 -0.1793  0.2392  1.4846
  934SOL     OW 2800   0.786   2.965   2.633  0.0620 -0.0114 -0.2583
  934SOL    HW1 2801   0.784   2.903   2.546 -1.2704  0.8136  1.7295
  934SOL    HW2 2802   0.830   2.924   2.719 -1.5071 -0.3127 -1.1070
  935SOL     OW 2803   0.030   0.570   0.850 -0.0076 -0.2321 -0.3720
  935SOL    HW1 2804   0.019   0.527   0.753 -2.4084  2.7440  1.9597
  935SOL    HW2 2805  -0.054   0.628   0.877  0.7659  1.8327  1.8738
  936SOL     OW 2806   1.072   2.825   0.092  0.3726 -0.0385  0.1432
  936SOL    HW1 2807   1.126   2.857   0.006  0.7814  0.4198 -1.4126
  936SOL    HW2 2808   1.131   2.788   0.170 -2.9942 -0.4207 -0.4000
  937SOL     OW 2809   1.932   2.605   2.087  0.7644 -0.1952 -0.3479
  937SOL    HW1 2810   1.832   2.625   2.063 -2.6477 -2.7725  0.9336
  937SOL    HW2 2811   1.994   2.680   2.064 -0.0026  0.6189 -0.9788
  938SOL     OW 2812   2.785   2.100   1.586 -0.0017 -0.3784 -0.9366
  938SOL    HW1 2813   2.756   2.200   1.599 -0.4165 -0.2111 -0.6820
  938SOL    HW2 2814   2.876   2.081   1.630  1.7602 -0.5372  0.3724
  939SOL     OW 2815   2.829   1.204   2.467 -0.7313 -0.3018  1.0189
  939SOL    HW1 2816   2.915   1.194   2.411 -3.0327  1.8430  0.2285
  939SOL    HW2 2817   2.826   1.178   2.568 -0.7850  1.2550  1.2268
  940SOL     OW 2818   1.032   0.414   2.725 -0.1580  0.4706  0.1808
  940SOL    HW1 2819   1.097   0.332   2.745  2.7254 -1.6261  0.2650
  940SOL    HW2 2820   0.948   0.394   2.665 -0.7865  0.3822 -2.3666
  941SOL     OW 2821   0.047   2.771   2.246  0.2165  0.5931  0.2163
  941SOL    HW1 2822   0.112   2.695   2.216 -1.3062  2.0422 -1.5700
  941SOL    HW2 2823   0.080   2.829   2.318 -0.9932 -3.7915 -2.3286
  942SOL     OW 2824   0.114   0.112   2.538 -0.3319  0.2141 -1.1675
  942SOL    HW1 2825   0.163   0.144   2.630 -0.1576 -0.4075  1.3054
  942SOL    HW2 2826   0.101   0.192   2.466  0.4441  1.3297 -3.1322
  943SOL     OW 2827   2.086   1.685   2.389  0.2142  0.4029 -0.8920
  943SOL    HW1 2828   2.090   1.638   2.292  2.3605  0.2818 -2.4520
  943SOL    HW2 2829   2.101   1.613   2.463 -0.2930 -0.4172  3.0826
  944SOL     OW 2830   2.187   2.347   1.473 -0.2050 -0.1119 -0.3770
  944SOL    HW1 2831   2.233   2.426   1.529 -0.0832  1.0492  1.0376
  944SOL    HW2 2832   2.130   2.272   1.528 -2.6614 -0.0720 -1.3738
  945SOL     OW 2833   0.687   1.518   0.276  0.6242 -0.0170  0.3018
  945SOL    HW1 2834   0.635   1.557   0.192 -1.7884 -0.3369 -0.4067
  945SOL    HW2 2835   0.700   1.411   0.269 -1.2154 -0.5355  0.0646
  946SOL     OW 2836   0.413   0.939   2.422 -0.0111  0.6966  0.1342
  946SOL    HW1 2837   0.327   0.889   2.384 -0.1657  0.1366  1.9934
  946SOL    HW2 2838   0.386   1.028   2.472 -0.6981 -3.1865  1.3725
  947SOL     OW 2839   1.516   0.475   3.076  0.6580 -0.6263  0.0780
  947SOL    HW1 2840   1.526   0.532   2.984  1.3148 -0.4168 -1.8076
  947SOL    HW2 2841   1.422   0.452   3.102 -0.7779  0.0491  1.4423
  948SOL     OW 2842   1.888   3.038   2.166  0.2252  0.4528  0.5060
  948SOL    HW1 2843   1.924   3.001   2.074  2.4819  1.7884  2.8613
  948SOL    HW2 2844   1.866   2.969   2.238  1.3691 -1.6501 -0.1766
  949SOL     OW 2845   0.562   2.475   0.509 -0.3353  0.3704  0.5396
  949SOL    HW1 2846   0.584   2.577   0.485 -4.0320  3.7786  2.0710
  949SOL    HW2 2847   0.583   2.442   0.607 -3.2732 -1.5855  1.4782
  950SOL     OW 2848   0.204   2.193   3.039 -0.9209 -0.2595  0.0263
  950SOL    HW1 2849   0.128   2.251   2.998  0.5402  0.3556  1.2323
  950SOL    HW2 2850   0.244   2.121   2.971  0.2950 -1.7042  0.0147
  951SOL     OW 2851   1.257   2.697   2.732 -0.0198  0.2468 -0.1909
  951SOL    HW1 2852   1.329   2.733   2.802  1.3905 -0.7591  1.4396
  951SOL    HW2 2853   1.286   2.704   2.633  0.1952  0.2767  1.8766
  952SOL     OW 2854   0.005   1.693   0.373 -0.5544  0.4775 -0.2815
  952SOL    HW1 2855   0.047   1.786   0.375  1.8249  2.0151 -0.0783
  952SOL    HW2 2856   0.047   1.632   0.452  2.7872 -2.3830  5.3425
  953SOL     OW 2857   2.523   1.768   0.250 -0.4813 -0.5768 -0.0488
  953SOL    HW1 2858   2.526   1.667   0.254 -1.5238  0.4121  2.3477
  953SOL    HW2 2859   2.518   1.812   0.153 -0.7220 -2.6962  0.0511
  954SOL     OW 2860   2.232   0.561   0.948 -0.4979 -0.1262  0.3990
  954SOL    HW1 2861   2.215   0.590   0.848 -2.4323  4.4406  1.9105
  954SOL    HW2 2862   2.335   0.560   0.976  0.6623 -0.7191  0.2029
  955SOL     OW 2863   0.166   2.588   1.287  0.8717 -0.3435 -0.0398
  955SOL    HW1 2864   0.067   2.630   1.301 -0.4803  0.8190  1.1419
  955SOL    HW2 2865   0.207   2.607   1.196 -1.7631  0.0788  0.9106
  956SOL     OW 2866   2.789   2.462   2.463 -0.3449 -0.1283 -0.1979
  956SOL    HW1 2867   2.794   2.358   2.450 -3.3873  1.3738 -2.4548
  956SOL    HW2 2868   2.842   2.523   2.402  0.4641 -0.1721 -0.5124
  957SOL     OW 2869   1.599   2.066   2.803 -0.3151  0.3092  0.2788
  957SOL    HW1 2870   1.522   1.994   2.807 -0.0977  0.4462  1.4454
  957SOL    HW2 2871   1.646   2.071   2.708 -0.4360 -0.7458 -0.1453
  958SOL     OW 2872   2.602   2.269   3.009  0.7683 -0.7323  0.2979
  958SOL    HW1 2873   2.508   2.278   2.968  0.8711 -0.7700 -0.1539
  958SOL    HW2 2874   2.596   2.206   3.089  1.6391 -0.3536  0.5572
  959SOL     OW 2875   0.243   2.829   0.078  0.2256  0.2800  0.6907
  959SOL    HW1 2876   0.178   2.792   0.004  0.1997  0.3939  0.2497
  959SOL    HW2 2877   0.273   2.754   0.148 -3.2558 -0.5525  0.9468
  960SOL     OW 2878   2.040   0.489   1.949 -0.0452 -0.1808  0.1935
  960SOL    HW1 2879   1.996   0.578   1.926 -1.0819 -1.5785 -3.7279
  960SOL    HW2 2880   2.028   0.469   2.050 -1.1097  1.2014 -2.2300
  961SOL     OW 2881   2.563   1.812   1.002  0.1200 -0.3516  0.0684
  961SOL    HW1 2882   2.553   1.917   0.997  0.1012  0.3931  2.3409
  961SOL    HW2 2883   2.542   1.785   1.100  1.2780  1.0367 -2.1000
  962SOL     OW 2884   1.329   0.921   0.067  0.7169 -1.1738  0.1270
  962SOL    HW1 2885   1.276   0.956  -0.012 -2.2594  1.0926  2.7448
  962SOL    HW2 2886   1.292   0.965   0.156 -1.9798 -2.0150  2.5624
  963SOL     OW 2887   2.212   2.566   1.837 -0.2968 -0.1709  0.6579
  963SOL    HW1 2888   2.197   2.479   1.882  0.0014 -1.3261 -0.1562
  963SOL    HW2 2889   2.229   2.640   1.908 -0.3200  0.3469  1.7376
  964SOL     OW 2890   2.364   0.345   1.683 -0.0206 -0.2662  0.0468
  964SOL    HW1 2891   2.444   0.394   1.726 -0.4238  0.7956 -1.0894
  964SOL    HW2 2892   2.378   0.334   1.584 -1.1283 -0.7014  1.1623
  965SOL     OW 2893   2.640   3.070   0.131  0.1425 -0.2189  0.0961
  965SOL    HW1 2894   2.698   3.038   0.050 -2.7550 -0.6250 -0.3406
  965SOL    HW2 2895   2.545   3.089   0.105  3.8435 -0.5504 -1.1027
  966SOL     OW 2896   2.589   2.545   2.206 -0.6637 -0.1904  0.3790
  966SOL    HW1 2897   2.526   2.605   2.264 -4.1167 -2.1115  0.7900
  966SOL    HW2 2898   2.611   2.585   2.112 -1.2561 -1.9452 -0.7205
  967SOL     OW 2899   2.805   2.801   2.499  0.1059 -0.2149 -0.0787
  967SOL    HW1 2900   2.810   2.746   2.409 -0.2471  0.7261  0.5298
  967SOL    HW2 2901   2.869   2.882   2.500 -0.4868 -0.1301 -1.4409
  968SOL     OW 2902   1.893   1.018   2.634  0.0443 -0.4314  0.4873
  968SOL    HW1 2903   1.830   1.094   2.589 -0.7819  2.4045 -2.2083
  968SOL    HW2 2904   1.943   0.955   2.570  1.0593  2.0833 -0.0489
  969SOL     OW 2905   2.828   2.447   1.106 -0.1792  0.0948 -0.0804
  969SOL    HW1 2906   2.796   2.429   1.007 -0.0519  0.3189  0.2354
  969SOL    HW2 2907   2.830   2.364   1.166 -0.6543  0.1353 -1.6026
  970SOL     OW 2908   1.014   2.103   1.817 -0.0755  0.0861  0.1763
  970SOL    HW1 2909   0.942   2.092   1.745 -0.2085  1.2170 -0.1180
  970SOL    HW2 2910   0.988   2.179   1.882 -1.3637  0.5744 -2.5688
  971SOL     OW 2911   2.873   2.070   1.897 -0.4473 -0.0908 -0.4076
  971SOL    HW1 2912   2.876   2.169   1.939 -0.5224 -2.5755 -2.4771
  971SOL    HW2 2913   2.931   2.052   1.813 -2.2784  0.3166 -0.1926
  972SOL     OW 2914   2.000   2.488   0.218  0.1417  0.0685  0.1151
  972SOL    HW1 2915   1.969   2.408   0.160  1.4718  2.0505 -4.0786
  972SOL    HW2 2916   2.046   2.466   0.302  0.7116 -0.6353  1.9319
  973SOL     OW 2917   1.294   1.023   1.895  0.2667  0.7227 -0.3350
  973SOL    HW1 2918   1.238   0.999   1.809 -2.2420  2.4087  1.4087
  973SOL    HW2 2919   1.259   1.104   1.946  1.5534  0.2939 -0.6316
  974SOL     OW 2920   1.597   0.565   1.962 -0.1531  0.0842 -0.4276
  974SOL    HW1 2921   1.696   0.587   1.935 -1.4766 -3.3692 -0.3520
  974SOL    HW2 2922   1.537   0.643   1.923  2.4709  0.8431  1.7943
  975SOL     OW 2923   2.368   3.072   0.049  0.0719  0.6515  0.1767
  975SOL    HW1 2924   2.331   2.976   0.059 -1.0313  0.7076 -1.4169
  975SOL    HW2 2925   2.355   3.112  -0.043 -0.0592  0.5036  0.8651
  976SOL     OW 2926   1.911   2.858   2.368 -0.0248 -0.1497 -0.1742
  976SOL    HW1 2927   1.834   2.798   2.330 -0.1639 -1.2612 -0.6219
  976SOL    HW2 2928   1.947   2.818   2.458 -1.9585  1.9374 -1.3533
  977SOL     OW 2929   0.413   0.657   1.007  0.1649  0.2189  0.1841
  977SOL    HW1 2930   0.351   0.706   0.937  2.0926  2.2818 -0.2952
  977SOL    HW2 2931   0.514   0.664   0.971  1.4794  2.1931 -0.8410
   3.10000   3.10000   3.10000
