1000 SPC/Fw water molecules t=   0.99000 step= 990
 2931
    1SOL     OW    1   2.563   0.310   2.653  0.7743  0.3426 -0.2884
    1SOL    HW1    2   2.566   0.203   2.652 -0.8420  0.3258  0.1664
    1SOL    HW2    3   2.568   0.358   2.747  0.9294  3.1602 -0.1918
    2SOL     OW    4   2.697   3.044   1.425 -0.1103  0.2131 -0.1666
    2SOL    HW1    5   2.794   3.056   1.376  2.2421 -1.0755  0.5890
    2SOL    HW2    6   2.663   3.130   1.472  1.2493 -0.7090  0.5935
    3SOL     OW    7   2.682   2.628   0.450 -0.2849  0.2996  0.0957
    3SOL    HW1    8   2.666   2.528   0.422  2.0071  0.2485  0.9196
    3SOL    HW2    9   2.762   2.639   0.515 -2.8209  3.2024 -2.2314
    4SOL     OW   10   1.235   1.541   2.313 -0.2268 -0.0490 -0.0508
    4SOL    HW1   11   1.155   1.592   2.262 -0.2767 -1.5280  0.4212
    4SOL    HW2   12   1.196   1.450   2.356 -3.0545 -0.5056  2.3882
    5SOL     OW   13   1.166   1.485   3.073 -0.0118  0.0824  0.2795
    5SOL    HW1   14   1.221   1.572   3.076  1.0085  0.0727 -2.0445
    5SOL    HW2   15   1.066   1.504   3.103 -0.1417  1.4014 -2.7386
    6SOL     OW   16   0.144   1.769   2.974  0.4258 -0.4381  0.4670
    6SOL    HW1   17   0.059   1.803   3.033  2.0798  2.3683 -0.6911
    6SOL    HW2   18   0.219   1.742   3.038  1.8682  0.3167 -3.6541
    7SOL     OW   19   2.593   0.905   1.085 -0.4905 -0.1289 -0.4032
    7SOL    HW1   20   2.502   0.854   1.097  0.6991 -0.4235 -1.4886
    7SOL    HW2   21   2.619   0.914   0.985  1.2441 -0.7193  2.6360
    8SOL     OW   22   0.388   0.659   1.543  0.1455  0.2859 -0.5785
    8SOL    HW1   23   0.475   0.606   1.551  0.1683  1.6338 -0.3891
    8SOL    HW2   24   0.357   0.667   1.443  2.5411 -0.7005  0.3266
    9SOL     OW   25   1.188   0.899   2.410 -0.0716 -0.4304  0.2018
    9SOL    HW1   26   1.237   0.934   2.322 -2.2678 -1.9724  1.1771
    9SOL    HW2   27   1.161   0.796   2.408  0.7310  1.5940 -0.1979
   10SOL     OW   28   0.667   1.364   1.281  0.3970  0.4035  0.3974
   10SOL    HW1   29   0.566   1.375   1.259 -3.1159 -0.9509  2.9878
   10SOL    HW2   30   0.722   1.450   1.284 -0.0915 -1.0088 -0.7927
   11SOL     OW   31   2.317   2.793   0.836 -0.4236  0.7661 -0.0796
   11SOL    HW1   32   2.266   2.812   0.926 -0.5501  1.7307  1.6729
   11SOL    HW2   33   2.416   2.769   0.850  1.6256 -1.2482 -2.8289
   12SOL     OW   34   1.498   0.896   0.332 -0.1327  0.6531  0.1570
   12SOL    HW1   35   1.405   0.945   0.334 -0.1256 -0.6080 -1.9667
   12SOL    HW2   36   1.500   0.812   0.266  2.3980 -1.4608  2.9041
   13SOL     OW   37   2.502   0.723   1.762  0.1946  0.2854 -0.3999
   13SOL    HW1   38   2.426   0.702   1.827  0.1876  0.4273  0.2995
   13SOL    HW2   39   2.508   0.659   1.684 -1.8356  0.5301  1.9977
   14SOL     OW   40   1.889   0.110   0.680 -0.1571 -0.0530 -0.1612
   14SOL    HW1   41   1.798   0.105   0.628  1.0031  1.3659 -1.8945
   14SOL    HW2   42   1.890   0.032   0.750 -0.9796 -1.0240  1.5479
   15SOL     OW   43   1.974   2.096   2.720 -0.5960  0.1641 -0.0459
   15SOL    HW1   44   1.904   2.175   2.728 -1.3396  2.1970 -2.0837
   15SOL    HW2   45   1.953   2.034   2.639  1.7001  0.4842 -0.2816
   16SOL     OW   46   1.614   1.710   2.976  0.1681 -0.1227 -0.3725
   16SOL    HW1   47   1.638   1.617   3.026 -1.7655 -0.9741  3.3835
   16SOL    HW2   48   1.678   1.785   3.007  1.0295  1.1578  0.2791
   17SOL     OW   49   0.113   0.490   0.178  0.2113 -0.6152 -0.6135
   17SOL    HW1   50   0.205   0.526   0.155 -2.3427  0.4074 -0.9115
   17SOL    HW2   51   0.044   0.507   0.100 -1.6931  2.9524 -1.3850
   18SOL     OW   52   0.960   2.891   2.150 -0.3253  0.1688  0.1136
   18SOL    HW1   53   0.874   2.838   2.162  0.8372 -0.8308  1.2687
   18SOL    HW2   54   0.997   2.870   2.051 -0.1174  1.0281 -1.0803
   19SOL     OW   55   0.555   0.832   1.895  0.0429  0.3333 -0.2887
   19SOL    HW1   56   0.558   0.799   1.997  3.6157  2.5687  1.8913
   19SOL    HW2   57   0.624   0.903   1.863  0.5415  0.7440 -0.4924
   20SOL     OW   58   0.180   2.709   0.823 -0.3271  0.7585  0.2093
   20SOL    HW1   59   0.105   2.774   0.798 -0.0745  0.3070  0.0163
   20SOL    HW2   60   0.234   2.677   0.743  1.8386  1.5935  2.0862
   21SOL     OW   61   2.703   0.255   2.048  1.0146  0.5964 -0.0215
   21SOL    HW1   62   2.658   0.202   1.972 -0.6835  0.8552 -1.0577
   21SOL    HW2   63   2.781   0.198   2.098  1.3677 -1.8546  1.1644
   22SOL     OW   64   2.359   0.270   0.163 -0.1896  0.3935 -0.0969
   22SOL    HW1   65   2.366   0.170   0.152  0.1591  2.1384 -3.5414
   22SOL    HW2   66   2.279   0.311   0.108 -0.7753  1.6662 -0.3873
   23SOL     OW   67   2.788   0.601   0.625 -0.3134 -0.7334 -0.3408
   23SOL    HW1   68   2.841   0.513   0.628  3.7006 -2.2182 -1.2054
   23SOL    HW2   69   2.731   0.604   0.541  0.1792  0.0047 -1.1170
   24SOL     OW   70   0.205   1.912   0.388 -0.7614 -0.0029  0.1803
   24SOL    HW1   71   0.171   1.979   0.326 -0.0793 -1.9146  0.4711
   24SOL    HW2   72   0.304   1.888   0.369  0.7739  0.7515 -0.7399
   25SOL     OW   73   2.227   0.613   0.234  0.0060 -0.2386 -0.6463
   25SOL    HW1   74   2.264   0.628   0.140  1.7908 -0.4883  1.5559
   25SOL    HW2   75   2.274   0.533   0.278  4.7628 -0.6056  0.8612
   26SOL     OW   76   2.499   2.130   2.075 -0.3991  0.5287  0.1580
   26SOL    HW1   77   2.586   2.184   2.101  3.0196 -0.6620 -0.0351
   26SOL    HW2   78   2.521   2.056   2.004  0.5758 -0.4767 -4.3914
   27SOL     OW   79   0.588   2.918   0.198 -0.1995 -0.6339  0.4711
   27SOL    HW1   80   0.686   2.948   0.209 -2.1183  0.4296 -1.8560
   27SOL    HW2   81   0.542   2.957   0.113  0.7118 -2.1744 -1.3019
   28SOL     OW   82   1.572   0.206   0.287 -0.5456  0.0494 -0.1483
   28SOL    HW1   83   1.646   0.176   0.220  0.6793  1.1661  2.2099
   28SOL    HW2   84   1.599   0.293   0.335 -1.8572  0.9388 -0.9022
   29SOL     OW   85   1.978   0.637   0.377 -0.0180 -0.3719 -0.5175
   29SOL    HW1   86   1.954   0.697   0.456 -0.0622 -0.6427  0.1448
   29SOL    HW2   87   2.064   0.654   0.324 -1.5801  0.1484  0.4155
   30SOL     OW   88   0.157   1.973   0.892  0.2458 -0.1392  0.5341
   30SOL    HW1   89   0.135   1.950   0.790  1.1434 -0.8063 -0.4797
   30SOL    HW2   90   0.107   2.058   0.923 -1.1744  0.5181  0.9494
   31SOL     OW   91   2.118   3.086   2.365  0.6515  0.0832 -0.3238
   31SOL    HW1   92   2.092   3.074   2.468 -3.4870 -0.2086  0.7694
   31SOL    HW2   93   2.048   3.033   2.306  2.0058  0.2463 -0.8661
   32SOL     OW   94   2.972   0.033   0.236  0.1125 -0.3348  0.3995
   32SOL    HW1   95   2.960  -0.061   0.187  0.3107  0.4136  0.1495
   32SOL    HW2   96   3.061   0.087   0.231  2.6416  0.3953  1.3215
   33SOL     OW   97   0.928   0.307   0.578 -0.7972  0.5320 -0.0143
   33SOL    HW1   98   0.885   0.235   0.514  0.5268  0.6456  0.5927
   33SOL    HW2   99   1.035   0.306   0.574  0.3692  0.1154  3.5740
   34SOL     OW  100   0.329   2.760   1.095  0.5181 -0.1125 -0.0495
   34SOL    HW1  101   0.285   2.702   1.019 -0.7076  2.4493 -0.9166
   34SOL    HW2  102   0.405   2.830   1.062  0.6377  2.7430 -1.5234
   35SOL     OW  103   0.032   0.078   1.903  0.2394  0.0951 -0.2301
   35SOL    HW1  104   0.042  -0.025   1.918 -0.8195  1.2825 -1.3621
   35SOL    HW2  105  -0.009   0.102   1.810  1.6850  1.6378  1.2205
   36SOL     OW  106   1.924   1.276   1.704  0.5442  1.5865 -0.4705
   36SOL    HW1  107   1.980   1.202   1.664 -1.1645 -0.9201  4.7160
   36SOL    HW2  108   1.943   1.370   1.659 -0.1771  2.9380 -1.3675
   37SOL     OW  109   1.172   0.222   0.986  0.4296  0.2828  0.1607
   37SOL    HW1  110   1.226   0.293   1.038 -1.6790 -0.4865  0.0227
   37SOL    HW2  111   1.229   0.147   0.949  0.5033  0.8873  0.9259
   38SOL     OW  112   1.092   2.847   2.486  0.3159  0.8992 -0.5346
   38SOL    HW1  113   1.045   2.757   2.463  3.5315  1.0599 -0.2751
   38SOL    HW2  114   1.051   2.929   2.442 -2.2461  1.2412 -0.4663
   39SOL     OW  115   2.301   1.452   3.068 -0.3934  0.5688  0.0936
   39SOL    HW1  116   2.378   1.381   3.065  2.5229  0.3223  0.8714
   39SOL    HW2  117   2.268   1.466   3.167 -0.8585  2.2928  1.5159
   40SOL     OW  118   2.015   2.433   2.543 -0.1808  0.2596  0.0732
   40SOL    HW1  119   2.002   2.530   2.512  0.8216 -0.5865  1.6422
   40SOL    HW2  120   1.960   2.370   2.485 -1.1525  0.0101  2.0794
   41SOL     OW  121   3.042   0.695   2.829 -0.1659  0.3382 -0.9174
   41SOL    HW1  122   3.011   0.771   2.769 -0.4614 -2.7769  0.7272
   41SOL    HW2  123   3.019   0.609   2.778 -3.2953  0.8326  1.2390
   42SOL     OW  124   1.788   1.762   0.511 -0.1372  0.7529  0.4523
   42SOL    HW1  125   1.740   1.667   0.517  2.1453  2.8811 -2.0086
   42SOL    HW2  126   1.810   1.788   0.412 -0.2280  0.2587  1.1083
   43SOL     OW  127   0.441   1.673   1.134 -0.7319  0.1354  0.1868
   43SOL    HW1  128   0.439   1.575   1.174  0.1539  0.7667 -3.8471
   43SOL    HW2  129   0.355   1.690   1.084 -1.5496  1.8728 -0.4947
   44SOL     OW  130   1.745   2.462   3.018  0.2759 -0.8262  0.0565
   44SOL    HW1  131   1.705   2.556   3.017 -3.1648  0.2186 -0.7484
   44SOL    HW2  132   1.721   2.408   2.933 -2.5484 -0.9681 -0.5048
   45SOL     OW  133   0.381   1.908   2.625 -0.2457 -0.7218 -0.0442
   45SOL    HW1  134   0.334   1.888   2.532  0.9521 -0.2207 -1.4363
   45SOL    HW2  135   0.445   1.832   2.648 -2.2283  0.0273 -0.1620
   46SOL     OW  136   1.229   0.650   0.162 -0.5675 -0.7590 -0.6105
   46SOL    HW1  137   1.283   0.733   0.122  1.0874  0.6765 -1.5915
   46SOL    HW2  138   1.153   0.684   0.220  1.6214 -2.4016  2.2385
   47SOL     OW  139   0.196   2.511   1.549  0.0658  0.5461  0.1189
   47SOL    HW1  140   0.205   2.410   1.560 -4.1307 -2.6754 -1.1435
   47SOL    HW2  141   0.229   2.549   1.458 -0.6300  2.8075  1.2274
   48SOL     OW  142   2.634   0.625   0.134 -0.1494 -0.2517  0.5426
   48SOL    HW1  143   2.612   0.627   0.239  1.2036 -0.0423  1.8242
   48SOL    HW2  144   2.732   0.646   0.115 -1.8919  2.0135 -2.7754
   49SOL     OW  145   0.297   0.783   1.775  0.7235 -0.6545 -0.1725
   49SOL    HW1  146   0.381   0.801   1.834  0.1612 -0.3894  0.3596
   49SOL    HW2  147   0.325   0.752   1.679  0.1448 -1.4155 -1.0611
   50SOL     OW  148   1.677   1.131   0.342 -0.2163 -0.4885 -0.1284
   50SOL    HW1  149   1.633   1.047   0.303  0.6156 -1.4966 -1.6062
   50SOL    HW2  150   1.657   1.134   0.442  0.9219  2.9878  1.0441
   51SOL     OW  151   2.881   1.776   0.243  0.6099  0.2356 -0.1173
   51SOL    HW1  152   2.851   1.677   0.235 -0.4259 -2.7809  2.0146
   51SOL    HW2  153   2.959   1.775   0.312 -1.2073  3.5187  0.7532
   52SOL     OW  154   0.788   2.039   0.527  0.8161  0.3669 -0.1593
   52SOL    HW1  155   0.700   2.061   0.576 -1.8673  2.2452  0.2222
   52SOL    HW2  156   0.847   1.968   0.582  0.9993 -2.0352 -2.1455
   53SOL     OW  157   0.190   0.419   1.597  0.0443 -0.3217  0.3749
   53SOL    HW1  158   0.241   0.511   1.593 -0.3825  0.2404 -1.5951
   53SOL    HW2  159   0.102   0.424   1.542  0.0910  2.2206 -0.1295
   54SOL     OW  160   1.796   0.518   3.090  0.6941  0.2425  0.3777
   54SOL    HW1  161   1.834   0.509   3.183  1.2809 -0.7031 -0.7060
   54SOL    HW2  162   1.703   0.474   3.065 -0.3117  0.1466  0.4881
   55SOL     OW  163   0.748   2.885   0.678  0.0505  0.7431  0.0790
   55SOL    HW1  164   0.680   2.959   0.679  1.8973  1.9489  2.4471
   55SOL    HW2  165   0.834   2.910   0.722  0.2557  0.8662 -2.1886
   56SOL     OW  166   0.578   1.561   0.021  0.0829  0.2890  0.2101
   56SOL    HW1  167   0.487   1.607   0.045  0.5282 -1.7391  2.7134
   56SOL    HW2  168   0.563   1.474  -0.033 -0.7364 -1.7963 -0.5207
   57SOL     OW  169   1.753   2.529   2.413 -0.0569  0.1463 -0.5249
   57SOL    HW1  170   1.767   2.430   2.379  1.1297  3.3450 -1.8155
   57SOL    HW2  171   1.668   2.536   2.473 -2.2385  0.6788  2.2465
   58SOL     OW  172   0.686   0.287   1.064  0.4867 -0.0011 -0.0619
   58SOL    HW1  173   0.605   0.293   1.138 -1.0340 -0.7818  1.6379
   58SOL    HW2  174   0.679   0.198   1.007 -0.9008 -0.2562  0.6328
   59SOL     OW  175   0.436   2.373   2.732 -0.6362 -0.9591 -0.3320
   59SOL    HW1  176   0.450   2.299   2.660 -1.4263 -0.4079  2.9294
   59SOL    HW2  177   0.516   2.387   2.802 -0.3013  0.2301  2.0442
   60SOL     OW  178   2.303   2.063   2.242  0.0304  0.2911  0.1768
   60SOL    HW1  179   2.378   2.095   2.172  1.2074 -0.3505 -1.2690
   60SOL    HW2  180   2.325   2.108   2.338 -0.1281  2.3249  3.5817
   61SOL     OW  181   1.327   0.663   0.468  0.0248  0.1372 -1.0228
   61SOL    HW1  182   1.226   0.667   0.477  0.2883 -0.8458  1.3554
   61SOL    HW2  183   1.367   0.682   0.375 -1.5518 -1.4109  0.0150
   62SOL     OW  184   2.712   1.821   2.936 -0.4852  0.4515  0.2615
   62SOL    HW1  185   2.686   1.720   2.924 -1.0674 -1.9510 -2.2844
   62SOL    HW2  186   2.813   1.842   2.934 -0.2739 -2.1316  0.4890
   63SOL     OW  187   0.538   0.810   0.194 -0.2613 -0.0325  0.0594
   63SOL    HW1  188   0.570   0.893   0.141 -2.5332  0.3964  2.7296
   63SOL    HW2  189   0.544   0.829   0.293 -2.7022 -1.0819 -1.4347
   64SOL     OW  190   0.074   0.449   2.468 -0.1155 -0.6959  0.1874
   64SOL    HW1  191   0.174   0.467   2.486  2.7315 -0.0892  3.5595
   64SOL    HW2  192   0.031   0.519   2.400 -2.0390  2.3705  1.3483
   65SOL     OW  193   0.129   1.522   0.573 -0.2569 -0.1821  0.4934
   65SOL    HW1  194   0.183   1.548   0.660  0.0971  0.7292  2.4229
   65SOL    HW2  195   0.192   1.465   0.509  2.2277  0.8417  0.4565
   66SOL     OW  196   2.552   0.362   0.596  0.1452 -0.1944 -0.2495
   66SOL    HW1  197   2.650   0.346   0.620 -0.2137  2.6680 -1.3015
   66SOL    HW2  198   2.482   0.325   0.664 -1.8970  3.0766 -1.4646
   67SOL     OW  199   0.565   2.522   1.421 -0.1118  0.2303  0.1846
   67SOL    HW1  200   0.655   2.507   1.472 -1.6024  0.3762  1.6348
   67SOL    HW2  201   0.507   2.433   1.403  2.1074 -2.0069 -1.2616
   68SOL     OW  202   1.016   1.093   2.476  0.2189  0.4660  0.6444
   68SOL    HW1  203   1.089   1.020   2.477  2.5136  1.2339 -0.9436
   68SOL    HW2  204   0.943   1.069   2.410  0.1315 -0.1251 -1.4768
   69SOL     OW  205   0.724   2.735   2.132  0.2813  0.7323 -0.0280
   69SOL    HW1  206   0.752   2.629   2.131 -0.1503 -2.7439 -3.0944
   69SOL    HW2  207   0.622   2.748   2.116  1.7490  1.4324  1.1405
   70SOL     OW  208   0.501   0.248   2.670 -0.6338 -0.7423  0.1609
   70SOL    HW1  209   0.413   0.279   2.718 -0.3061 -1.3649 -1.0094
   70SOL    HW2  210   0.518   0.144   2.677  2.3570 -1.1582 -1.9744
   71SOL     OW  211   1.107   1.777   0.443  0.0268 -0.8473  0.2034
   71SOL    HW1  212   1.056   1.713   0.511  2.3303  1.6531  2.0323
   71SOL    HW2  213   1.056   1.795   0.352 -4.0888  0.5561 -1.3036
   72SOL     OW  214   1.820   0.205   2.143 -0.6431 -0.2037 -0.3984
   72SOL    HW1  215   1.897   0.273   2.162  2.7683  2.7211 -0.7170
   72SOL    HW2  216   1.851   0.109   2.145  0.6993  2.6950 -1.0395
   73SOL     OW  217   2.811   2.163   2.404  0.0060  0.7458 -0.3183
   73SOL    HW1  218   2.829   2.066   2.380 -2.1180  1.8590  2.0105
   73SOL    HW2  219   2.848   2.182   2.506 -0.8972 -1.1589  2.1869
   74SOL     OW  220   2.698   2.876   2.136  0.0778 -0.1065  0.0484
   74SOL    HW1  221   2.690   2.816   2.224 -1.9821 -5.0468  1.2316
   74SOL    HW2  222   2.780   2.935   2.140  0.1955 -1.7407  1.1885
   75SOL     OW  223   0.942   0.843   1.099  1.0830  0.3647 -0.1330
   75SOL    HW1  224   0.870   0.906   1.063  0.7940 -1.1853  0.9686
   75SOL    HW2  225   0.935   0.847   1.202  1.2972  0.6447  0.7006
   76SOL     OW  226   1.730   1.191   2.506  0.2193  0.2252  0.1009
   76SOL    HW1  227   1.626   1.196   2.495  0.7884 -0.0711  0.5253
   76SOL    HW2  228   1.756   1.266   2.568 -0.4284 -0.9822 -2.6743
   77SOL     OW  229   2.948   0.943   0.967 -0.3859 -0.1810  0.2288
   77SOL    HW1  230   2.948   0.839   0.971  2.7202  0.3626  2.3504
   77SOL    HW2  231   2.969   0.985   1.062 -1.0974 -0.2293  0.5115
   78SOL     OW  232   2.014   1.474   1.463 -0.5325 -0.2337 -0.7218
   78SOL    HW1  233   2.114   1.501   1.438 -0.1992 -1.8952  1.7224
   78SOL    HW2  234   1.949   1.474   1.382  1.0453  1.5402 -1.3467
   79SOL     OW  235   0.625   1.375   0.830 -0.4854  0.0328 -0.3009
   79SOL    HW1  236   0.540   1.427   0.824  0.4072 -1.2175  0.0913
   79SOL    HW2  237   0.632   1.303   0.754  2.8304  0.2504 -3.8360
   80SOL     OW  238   0.617   0.490   1.567  0.2890 -0.1444 -0.1818
   80SOL    HW1  239   0.675   0.556   1.514 -2.0267  1.9884 -1.0910
   80SOL    HW2  240   0.630   0.390   1.536  2.4965  0.5870  1.3440
   81SOL     OW  241   1.029   1.352   2.634 -0.3371 -0.5207 -0.2970
   81SOL    HW1  242   1.036   1.253   2.663  2.7688 -0.7255  0.9489
   81SOL    HW2  243   0.955   1.371   2.565  0.8166  1.5470  0.2351
   82SOL     OW  244   0.977   2.994   1.510 -0.0987  0.0375  0.5702
   82SOL    HW1  245   0.904   3.026   1.441 -1.4323  1.9075  0.4143
   82SOL    HW2  246   1.055   2.949   1.460 -0.0770  2.9437  0.4020
   83SOL     OW  247   2.680   2.410   0.832 -0.7707 -0.2446 -0.2245
   83SOL    HW1  248   2.611   2.353   0.775 -3.4263  1.2968 -1.6116
   83SOL    HW2  249   2.656   2.508   0.826 -0.0560 -3.2508 -1.5298
   84SOL     OW  250   0.645   3.045   2.341  0.0470  0.4790 -0.5285
   84SOL    HW1  251   0.549   3.050   2.379 -3.1370 -2.2093 -0.1814
   84SOL    HW2  252   0.692   2.961   2.379 -3.1531  0.4792  1.2335
   85SOL     OW  253   0.279   1.601   1.474  0.0742  0.2745 -0.5422
   85SOL    HW1  254   0.285   1.702   1.451  2.3458  2.4344 -0.1319
   85SOL    HW2  255   0.343   1.581   1.556 -0.0121 -3.4582  0.3671
   86SOL     OW  256   0.416   0.996   1.548 -0.0538  0.1706 -0.1137
   86SOL    HW1  257   0.376   0.969   1.456  1.6108  0.2165  1.2496
   86SOL    HW2  258   0.473   0.916   1.582  1.9340  1.8104 -0.9483
   87SOL     OW  259   1.563   0.652   0.205  0.3261  0.2399 -0.3819
   87SOL    HW1  260   1.642   0.717   0.185 -1.9953  0.6673 -0.0412
   87SOL    HW2  261   1.537   0.596   0.126  2.7867  1.6580  0.8561
   88SOL     OW  262   1.582   1.378   0.265 -0.0221 -0.1957  0.3745
   88SOL    HW1  263   1.598   1.278   0.282  1.0188  1.7223  1.5585
   88SOL    HW2  264   1.483   1.402   0.245 -0.2343 -1.5441  1.1310
   89SOL     OW  265   3.082   0.461   0.584 -0.0854  0.3087  0.3135
   89SOL    HW1  266   3.154   0.383   0.576 -1.7665 -1.5212  1.0966
   89SOL    HW2  267   2.983   0.421   0.601 -0.1444 -0.2241 -0.7781
   90SOL     OW  268   0.907   1.568   0.090 -0.0129  0.2282  0.2885
   90SOL    HW1  269   0.863   1.519   0.170  1.1783 -0.5260  0.4764
   90SOL    HW2  270   0.841   1.586   0.010 -1.0881  0.3334  0.3818
   91SOL     OW  271   1.246   1.450   1.843 -0.4311  0.1154 -0.5740
   91SOL    HW1  272   1.227   1.549   1.878  0.2365  2.0794  2.9763
   91SOL    HW2  273   1.344   1.431   1.810 -0.4894  1.8161 -1.8378
   92SOL     OW  274   3.075   0.951   1.230 -0.2592 -0.1120  0.2302
   92SOL    HW1  275   3.144   1.016   1.183  1.5030 -1.9174  0.1402
   92SOL    HW2  276   3.077   0.958   1.334 -0.1928 -0.4242 -0.3275
   93SOL     OW  277   0.022   2.735   3.073 -0.2422  0.4574  0.5747
   93SOL    HW1  278  -0.052   2.737   2.999 -1.0940  0.6998  1.0499
   93SOL    HW2  279   0.055   2.638   3.094  0.7278  0.3231  2.5207
   94SOL     OW  280   1.493   1.462   1.747  0.5850 -0.8253  0.6996
   94SOL    HW1  281   1.540   1.370   1.733  0.1623 -0.2010 -1.7811
   94SOL    HW2  282   1.539   1.524   1.818 -0.5243  3.0695  1.2829
   95SOL     OW  283   1.426   2.509   2.990 -0.0174  0.1665  0.4881
   95SOL    HW1  284   1.347   2.544   3.039  0.9572 -1.4930 -1.0735
   95SOL    HW2  285   1.428   2.405   2.986  1.8669 -1.6005  2.4050
   96SOL     OW  286   0.549   2.113   1.243  0.1667 -0.3806  0.4445
   96SOL    HW1  287   0.508   2.085   1.149 -0.0980  0.7778 -0.6748
   96SOL    HW2  288   0.591   2.036   1.300  1.2840 -1.6837  1.2124
   97SOL     OW  289   0.444   1.652   2.442 -0.3333  0.4228 -1.0317
   97SOL    HW1  290   0.341   1.661   2.458 -1.2740 -0.3332  1.3823
   97SOL    HW2  291   0.497   1.662   2.533 -1.9170  0.5455 -2.1582
   98SOL     OW  292   2.037   1.639   1.195 -0.0753  0.6256 -0.3089
   98SOL    HW1  293   1.957   1.574   1.206  1.6530  2.0231 -0.4313
   98SOL    HW2  294   2.122   1.597   1.156 -2.0971  1.1749  0.5217
   99SOL     OW  295   2.505   2.028   1.307  0.2219 -0.3126 -0.0106
   99SOL    HW1  296   2.486   2.028   1.408  0.5225  0.0709 -0.4574
   99SOL    HW2  297   2.477   1.941   1.259  0.3165 -0.2381  1.3325
  100SOL     OW  298   2.371   0.326   2.111 -0.2946  0.6038 -0.9975
  100SOL    HW1  299   2.305   0.305   2.186  1.4781 -0.1167 -0.8186
  100SOL    HW2  300   2.436   0.393   2.151 -0.8663  1.0069  1.1083
  101SOL     OW  301   0.410   1.454   0.448  0.7459  0.1647  0.2436
  101SOL    HW1  302   0.389   1.554   0.465 -0.7771  0.1713 -0.7992
  101SOL    HW2  303   0.507   1.439   0.424 -1.0911  0.5907  1.8992
  102SOL     OW  304   2.236   1.035   0.838 -0.2149 -0.0668 -0.3861
  102SOL    HW1  305   2.177   0.944   0.833 -1.2539 -0.2332 -2.0067
  102SOL    HW2  306   2.215   1.106   0.768 -0.8651 -0.2241 -0.7359
  103SOL     OW  307   2.246   0.083   0.403 -0.8154 -0.1201 -0.3431
  103SOL    HW1  308   2.262   0.182   0.418  2.1174 -1.1007 -3.1307
  103SOL    HW2  309   2.309   0.020   0.461  0.9852  1.4173  0.1380
  104SOL     OW  310   0.098   1.776   2.188 -0.1682  0.1770 -0.2589
  104SOL    HW1  311   0.103   1.742   2.090  0.3906  0.2018 -1.0768
  104SOL    HW2  312   0.002   1.797   2.214  3.8650  0.3249  1.9865
  105SOL     OW  313   1.273   2.080   0.775  0.1637 -0.4123 -0.1238
  105SOL    HW1  314   1.176   2.069   0.739  0.4605  2.5888 -2.7106
  105SOL    HW2  315   1.328   1.990   0.777  0.7601  0.1606 -0.9371
  106SOL     OW  316   2.102   0.422   1.400  0.6600 -0.0748 -0.0968
  106SOL    HW1  317   2.053   0.336   1.431 -1.5836  1.0288  0.6747
  106SOL    HW2  318   2.088   0.500   1.467 -0.6051 -0.5169 -1.0018
  107SOL     OW  319   1.832   2.950   1.218  0.5818 -0.0667  0.4926
  107SOL    HW1  320   1.834   3.040   1.265 -1.1208 -2.1026  0.5002
  107SOL    HW2  321   1.746   2.899   1.240  0.2271 -1.3577 -1.3164
  108SOL     OW  322   0.766   2.769   1.267 -0.0407  0.5058 -0.2040
  108SOL    HW1  323   0.744   2.733   1.363 -1.6984 -1.7558  0.8055
  108SOL    HW2  324   0.867   2.798   1.254  2.0841 -2.2480  0.7952
  109SOL     OW  325   2.132   0.093   0.817 -0.1612 -0.0308  0.3616
  109SOL    HW1  326   2.037   0.128   0.794  0.3159  0.4367 -0.9473
  109SOL    HW2  327   2.137   0.053   0.912  0.3463 -0.9076  1.2713
  110SOL     OW  328   0.475   2.849   2.782  0.3363 -0.0472 -0.0648
  110SOL    HW1  329   0.435   2.823   2.691 -0.0843 -0.9777 -2.2843
  110SOL    HW2  330   0.547   2.776   2.820  0.6513 -2.0288  1.6589
  111SOL     OW  331   1.284   0.506   2.332 -0.5733 -0.1858  0.3477
  111SOL    HW1  332   1.204   0.551   2.385  0.8556  1.0395  0.4923
  111SOL    HW2  333   1.336   0.440   2.390 -1.6381  0.9410  0.3481
  112SOL     OW  334   1.688   0.509   1.449  0.4994 -0.4455  0.2045
  112SOL    HW1  335   1.719   0.468   1.361  1.6697  3.2870 -2.9110
  112SOL    HW2  336   1.654   0.432   1.511 -1.1273 -0.3894 -1.9848
  113SOL     OW  337   2.305   1.688   1.766  0.1036 -0.2053 -0.1049
  113SOL    HW1  338   2.394   1.646   1.733  0.4130  0.0766  0.8224
  113SOL    HW2  339   2.300   1.682   1.872  2.6934 -0.4164  0.1102
  114SOL     OW  340   0.382   0.546   1.284 -0.6872 -0.1561  0.1467
  114SOL    HW1  341   0.449   0.604   1.228  2.2130  0.6501  1.6352
  114SOL    HW2  342   0.283   0.565   1.246 -3.8867 -0.0564 -0.4458
  115SOL     OW  343   2.713   1.625   1.208 -0.3968  0.4131  0.0431
  115SOL    HW1  344   2.762   1.536   1.216  0.3239 -0.9904 -0.3573
  115SOL    HW2  345   2.718   1.672   1.116 -1.2387  0.3284  4.3432
  116SOL     OW  346   1.798   1.057   0.633  0.0404 -0.4294 -0.7364
  116SOL    HW1  347   1.705   1.006   0.640 -0.9986  1.5017  2.1047
  116SOL    HW2  348   1.798   1.138   0.698 -2.0231 -1.0180 -1.5719
  117SOL     OW  349   1.208   0.323   0.577 -0.0160 -0.3173  0.2302
  117SOL    HW1  350   1.241   0.383   0.650 -2.2327 -0.0840 -1.2379
  117SOL    HW2  351   1.220   0.361   0.480  0.4246  2.8739 -3.4528
  118SOL     OW  352   1.160   1.070   1.132 -0.3371  0.1590  0.3099
  118SOL    HW1  353   1.103   1.007   1.191 -1.3504  1.3458  2.4647
  118SOL    HW2  354   1.174   1.161   1.182 -1.6228 -3.0500 -0.5959
  119SOL     OW  355   1.824   1.617   2.172  0.1342 -0.7102 -0.0327
  119SOL    HW1  356   1.790   1.715   2.162 -2.1190 -0.3050 -1.7167
  119SOL    HW2  357   1.922   1.602   2.141 -0.1340  1.1339  0.0726
  120SOL     OW  358   2.950   2.858   0.137 -0.2599 -0.1651  0.8017
  120SOL    HW1  359   3.015   2.814   0.068 -0.5393 -0.7999 -1.8336
  120SOL    HW2  360   2.875   2.783   0.156  0.3054 -0.4513  1.0986
  121SOL     OW  361   1.991   0.750   2.219 -0.6879  0.2224 -0.3997
  121SOL    HW1  362   2.004   0.790   2.123 -1.4022 -0.2430  0.0405
  121SOL    HW2  363   1.988   0.645   2.223 -0.2169 -1.8892  0.1480
  122SOL     OW  364   2.573   2.608   1.300  0.3811 -0.4440  0.7549
  122SOL    HW1  365   2.635   2.551   1.235  1.3842  0.4775 -0.7764
  122SOL    HW2  366   2.473   2.617   1.279  1.0763  2.1370 -1.3886
  123SOL     OW  367   1.739   0.070   1.691 -0.4335 -0.3496 -0.0226
  123SOL    HW1  368   1.756  -0.022   1.641 -0.1479  0.5209  1.9997
  123SOL    HW2  369   1.823   0.118   1.722 -0.5030 -2.6088  2.1825
  124SOL     OW  370   0.070   0.450   1.110 -0.0590 -0.5420 -0.1318
  124SOL    HW1  371   0.055   0.531   1.168 -2.1008 -0.3192  3.0752
  124SOL    HW2  372   0.050   0.482   1.012 -0.2613  0.0592  0.9083
  125SOL     OW  373   0.862   1.839   0.691  0.0100  0.0778 -0.1482
  125SOL    HW1  374   0.955   1.818   0.731  0.7928 -1.6719  1.6459
  125SOL    HW2  375   0.796   1.880   0.763 -2.2786 -1.3746 -0.0857
  126SOL     OW  376   1.839   2.268   2.365 -0.7235 -0.0139  0.4451
  126SOL    HW1  377   1.910   2.230   2.295  0.5960 -0.6473 -1.1348
  126SOL    HW2  378   1.766   2.194   2.384  1.3159 -2.0148 -1.5924
  127SOL     OW  379   1.012   0.897   0.238 -0.5265 -0.0268 -0.3350
  127SOL    HW1  380   1.025   0.959   0.321 -0.2311 -1.0651  2.3977
  127SOL    HW2  381   0.964   0.806   0.262 -1.2614  1.7498 -1.1652
  128SOL     OW  382   0.961   0.195   1.390 -0.6186  0.0407 -0.3939
  128SOL    HW1  383   0.950   0.260   1.311 -1.6293 -0.7357  2.2138
  128SOL    HW2  384   0.928   0.096   1.357 -0.5483 -2.6432  0.0143
  129SOL     OW  385   1.839   0.645   1.851 -0.1559 -0.1676 -1.0957
  129SOL    HW1  386   1.838   0.659   1.744  1.7809  0.2464 -1.3265
  129SOL    HW2  387   1.888   0.722   1.899  0.2950  1.8054  0.3537
  130SOL     OW  388   1.382   2.169   1.009  0.0557 -0.4872  0.4428
  130SOL    HW1  389   1.328   2.148   0.920 -3.3371  1.5822 -1.7892
  130SOL    HW2  390   1.474   2.213   0.984 -0.5420  2.1691  3.3739
  131SOL     OW  391   3.015   1.422   1.381  0.4424  0.2709 -0.6257
  131SOL    HW1  392   2.974   1.334   1.421 -3.0932  0.8746  0.3923
  131SOL    HW2  393   3.117   1.411   1.365  1.5680 -0.1383 -1.6822
  132SOL     OW  394   2.053   2.432   0.502 -0.3951  0.1735 -0.5305
  132SOL    HW1  395   1.976   2.486   0.545  3.0921 -0.5985  1.0090
  132SOL    HW2  396   2.084   2.351   0.559  1.6451 -3.6676 -0.2396
  133SOL     OW  397   1.825   2.328   2.763 -0.4865  0.2645 -0.6471
  133SOL    HW1  398   1.789   2.371   2.677 -2.0257 -0.2621 -1.1133
  133SOL    HW2  399   1.905   2.381   2.802  2.1842 -0.7255  2.3497
  134SOL     OW  400   2.658   2.323   1.583  0.1158 -0.4100 -0.2074
  134SOL    HW1  401   2.556   2.333   1.603 -0.4971 -0.6615  0.0400
  134SOL    HW2  402   2.712   2.411   1.592  1.5640 -2.1794  0.3850
  135SOL     OW  403   0.691   1.477   2.638  0.6904  0.3047  0.5939
  135SOL    HW1  404   0.638   1.389   2.657 -2.4373  4.1057 -0.3003
  135SOL    HW2  405   0.729   1.472   2.546 -0.7435 -0.1427  0.6616
  136SOL     OW  406   1.195   2.037   0.430  0.1348  0.9461 -0.1269
  136SOL    HW1  407   1.115   2.104   0.457  0.1746  0.0270  0.8060
  136SOL    HW2  408   1.168   1.936   0.449  1.0752 -1.5786 -0.7266
  137SOL     OW  409   0.407   1.200   2.178  0.5910  0.2969  0.6864
  137SOL    HW1  410   0.316   1.176   2.225  1.1356 -0.6436  0.6034
  137SOL    HW2  411   0.472   1.117   2.193 -2.1482  1.6598  0.2564
  138SOL     OW  412   2.518   1.474   0.247  0.1783 -0.4262  0.4483
  138SOL    HW1  413   2.416   1.446   0.239  1.8330 -2.0619 -0.4354
  138SOL    HW2  414   2.557   1.409   0.317 -0.7371 -1.7018 -0.9647
  139SOL     OW  415   1.873   2.612   1.331  0.4966  0.1364  0.0127
  139SOL    HW1  416   1.768   2.622   1.316 -1.9244  0.9000  4.4610
  139SOL    HW2  417   1.905   2.523   1.375 -0.6219  0.7246  1.2981
  140SOL     OW  418   3.021   2.983   2.532 -0.2820 -1.1630 -0.5313
  140SOL    HW1  419   3.067   2.889   2.530 -0.2124  0.8115  1.2391
  140SOL    HW2  420   3.091   3.060   2.510 -0.2326  0.0800  1.5042
  141SOL     OW  421   1.339   1.673   1.599 -0.1935  0.4865 -0.2802
  141SOL    HW1  422   1.236   1.674   1.615 -0.3053 -0.8386 -1.3522
  141SOL    HW2  423   1.388   1.621   1.675  1.4469 -0.7554 -2.1917
  142SOL     OW  424   1.567   0.620   2.254  0.2347 -0.1805 -0.2751
  142SOL    HW1  425   1.586   0.611   2.150  0.3780  1.3918 -0.5368
  142SOL    HW2  426   1.467   0.598   2.284 -3.4967  1.4236  3.2626
  143SOL     OW  427   2.695   0.890   0.488  1.0128  0.6064 -0.3727
  143SOL    HW1  428   2.756   0.926   0.413 -0.9888 -0.6074  2.4615
  143SOL    HW2  429   2.743   0.886   0.578  0.5908 -1.1608 -2.1457
  144SOL     OW  430   2.928   1.193   1.476 -0.0510 -0.4886  0.4612
  144SOL    HW1  431   2.875   1.178   1.564  0.9507 -3.1810  2.5949
  144SOL    HW2  432   2.997   1.117   1.456  1.7220 -2.8046  0.1099
  145SOL     OW  433   0.988   1.823   0.207  0.7797 -0.5622 -1.1952
  145SOL    HW1  434   1.064   1.845   0.141 -0.2559 -1.0088 -2.5244
  145SOL    HW2  435   0.948   1.731   0.184 -2.7684  0.9283  1.1747
  146SOL     OW  436   2.495   0.642   1.489 -0.6812  0.5020 -0.0353
  146SOL    HW1  437   2.468   0.541   1.461  1.1905 -2.4394  2.0915
  146SOL    HW2  438   2.425   0.720   1.462 -3.2428  0.8291 -0.9747
  147SOL     OW  439   1.114   2.477   0.598 -0.3373  0.2470 -0.3180
  147SOL    HW1  440   1.074   2.560   0.546 -1.7728  2.0211  1.3758
  147SOL    HW2  441   1.214   2.450   0.584 -2.3827 -2.9950  3.7559
  148SOL     OW  442   1.637   1.465   0.003  0.1330 -0.3216  0.3176
  148SOL    HW1  443   1.612   1.391  -0.068  0.9698  1.5061 -3.2967
  148SOL    HW2  444   1.600   1.442   0.099 -0.3241 -0.0049  1.7380
  149SOL     OW  445   0.679   1.416   1.994 -0.4060  0.3600 -0.3158
  149SOL    HW1  446   0.576   1.426   1.984 -1.2437  1.2413 -1.1715
  149SOL    HW2  447   0.724   1.372   1.910 -1.1571  1.5288 -2.7326
  150SOL     OW  448   3.018   1.243   0.940  0.4860  0.3995 -0.1173
  150SOL    HW1  449   3.105   1.231   0.992 -3.2020 -0.3155  1.1120
  150SOL    HW2  450   2.982   1.159   0.892  2.7996  1.1860  1.5468
  151SOL     OW  451   0.132   0.704   2.078 -0.6689  0.8812  0.0784
  151SOL    HW1  452   0.123   0.781   2.009 -0.8644  0.3150 -0.2894
  151SOL    HW2  453   0.177   0.619   2.040 -1.3044  0.9989 -0.1517
  152SOL     OW  454   1.466   1.775   1.238 -0.1410 -0.2443 -0.9400
  152SOL    HW1  455   1.500   1.869   1.212 -0.2402 -1.7310  1.0749
  152SOL    HW2  456   1.359   1.771   1.234 -3.2355  1.4203  1.0351
  153SOL     OW  457   0.110   1.582   0.158  0.3040  0.0795  0.0560
  153SOL    HW1  458   0.101   1.480   0.169  1.0974  0.7767  4.2458
  153SOL    HW2  459   0.060   1.636   0.233  0.1542  0.7768  1.7172
  154SOL     OW  460   2.377   1.842   2.828 -0.3405  0.8294 -0.0305
  154SOL    HW1  461   2.404   1.746   2.868 -0.3934 -0.5766  0.7186
  154SOL    HW2  462   2.446   1.872   2.754  2.7160  0.7175 -2.1499
  155SOL     OW  463   2.465   1.197   0.369 -0.0356 -0.1152 -0.9029
  155SOL    HW1  464   2.554   1.174   0.319  2.3687  2.3066  0.2308
  155SOL    HW2  465   2.380   1.154   0.326  0.2673  2.3865  0.2407
  156SOL     OW  466   2.531   0.945   0.829 -0.8546 -0.5259 -0.2270
  156SOL    HW1  467   2.427   0.942   0.814  0.8934 -1.4321  0.8667
  156SOL    HW2  468   2.570   1.038   0.805  0.9718 -0.5350  0.9653
  157SOL     OW  469   1.231   2.955   2.986 -0.4073  0.7285 -0.0507
  157SOL    HW1  470   1.304   2.897   2.937 -0.4216 -0.7036 -4.1274
  157SOL    HW2  471   1.256   3.051   3.002  1.2228 -0.4366  1.4477
  158SOL     OW  472   0.979   1.850   1.890  0.1897 -0.3005 -0.4165
  158SOL    HW1  473   0.985   1.945   1.848  1.4686 -2.9762 -0.7843
  158SOL    HW2  474   0.903   1.843   1.958 -0.0505  3.4401 -1.2984
  159SOL     OW  475   0.894   0.411   1.204  0.5579 -0.0009 -0.1416
  159SOL    HW1  476   0.839   0.490   1.254  0.6233  1.2564  0.7930
  159SOL    HW2  477   0.827   0.349   1.150 -0.5934 -3.0577 -1.1505
  160SOL     OW  478   1.389   2.412   1.592 -0.5693  0.4831  0.1299
  160SOL    HW1  479   1.354   2.321   1.612 -0.8549  1.0265  0.2170
  160SOL    HW2  480   1.482   2.411   1.546 -1.8699  0.5490 -1.3864
  161SOL     OW  481   0.051   2.965   0.403 -0.8433  0.3865  0.1492
  161SOL    HW1  482  -0.026   2.894   0.394 -0.5489  1.0100  0.6896
  161SOL    HW2  483   0.012   3.049   0.359 -4.2705  0.1534  1.2350
  162SOL     OW  484   2.581   1.868   0.521  0.2769 -0.3406  0.7236
  162SOL    HW1  485   2.555   1.834   0.424 -2.1185 -1.2926  2.2173
  162SOL    HW2  486   2.555   1.800   0.600 -0.3032  1.9728 -0.1852
  163SOL     OW  487   1.933   2.777   0.712  0.1320 -0.6588 -0.1417
  163SOL    HW1  488   1.920   2.775   0.609 -0.1115 -0.1479 -0.1886
  163SOL    HW2  489   1.997   2.698   0.744  0.4332 -1.8430  1.6199
  164SOL     OW  490   3.053   0.221   1.260 -0.0460  0.3453 -0.3368
  164SOL    HW1  491   3.094   0.286   1.198  1.4682 -0.7732  0.0865
  164SOL    HW2  492   3.118   0.189   1.329 -1.1280  0.1882  0.0849
  165SOL     OW  493   0.953   1.359   0.716  0.1076  0.0472 -0.2754
  165SOL    HW1  494   0.892   1.387   0.793  0.1705 -2.6158  2.8530
  165SOL    HW2  495   0.980   1.442   0.655  1.8297 -2.9453 -1.0354
  166SOL     OW  496   1.522   1.063   1.737  0.0291 -0.5042  0.3662
  166SOL    HW1  497   1.447   1.054   1.814 -0.3857 -1.5587  2.9906
  166SOL    HW2  498   1.593   1.134   1.769  1.3835  0.3837  0.4495
  167SOL     OW  499   0.740   1.993   1.451  0.0800  0.2374  0.2170
  167SOL    HW1  500   0.764   2.044   1.536  2.1856  2.2062  0.2757
  167SOL    HW2  501   0.700   1.901   1.477  1.3283 -0.5379  2.7163
  168SOL     OW  502   1.630   2.372   0.140 -0.7478 -0.0303 -0.1741
  168SOL    HW1  503   1.705   2.395   0.064  2.5528  0.0489 -2.6153
  168SOL    HW2  504   1.680   2.352   0.231  1.3369 -1.9088  1.3515
  169SOL     OW  505   0.217   2.565   2.226 -0.3504  0.6797  0.2666
  169SOL    HW1  506   0.210   2.522   2.129 -0.4285 -1.5344 -2.0597
  169SOL    HW2  507   0.270   2.499   2.286 -1.0043 -2.1153  0.3527
  170SOL     OW  508   1.089   0.216   2.032 -0.6466  0.5416 -0.3860
  170SOL    HW1  509   1.177   0.185   2.080  2.8313 -1.3249  1.9899
  170SOL    HW2  510   1.074   0.173   1.937 -3.3738 -0.0890 -1.3602
  171SOL     OW  511   0.187   0.785   2.350 -0.3318  0.3182 -0.4099
  171SOL    HW1  512   0.105   0.823   2.400 -0.6642 -0.0429  2.4281
  171SOL    HW2  513   0.175   0.736   2.258  3.4601  0.1479  0.2922
  172SOL     OW  514   0.953   1.006   2.868 -0.0267 -0.0026 -0.0064
  172SOL    HW1  515   0.965   1.102   2.906 -2.9994 -2.5425  1.3407
  172SOL    HW2  516   0.874   1.000   2.800 -0.6707 -1.8253 -0.9242
  173SOL     OW  517   0.645   2.650   0.125 -0.7346 -0.5407  0.4269
  173SOL    HW1  518   0.622   2.753   0.129 -4.1246 -2.4543 -3.8907
  173SOL    HW2  519   0.557   2.588   0.126 -0.3477 -0.1306  0.8382
  174SOL     OW  520   1.525   2.803   1.053  0.3006 -0.7065 -0.0905
  174SOL    HW1  521   1.537   2.861   0.969  0.3311  1.8060 -0.2137
  174SOL    HW2  522   1.494   2.703   1.020  1.0617  0.4600 -2.9854
  175SOL     OW  523   0.462   3.033   1.682  0.5272 -0.4789  0.3683
  175SOL    HW1  524   0.530   3.054   1.754  1.9710 -0.3587 -0.3335
  175SOL    HW2  525   0.402   3.114   1.654 -0.0309  0.3622 -0.6202
  176SOL     OW  526   2.578   0.386   0.018 -0.6138 -0.2038  0.5140
  176SOL    HW1  527   2.576   0.487   0.056 -1.9996  2.1463  1.3474
  176SOL    HW2  528   2.510   0.320   0.066  1.2966 -0.5362 -1.9906
  177SOL     OW  529   0.313   0.331   0.936 -0.3861  0.8053  0.0804
  177SOL    HW1  530   0.249   0.247   0.918 -1.4739 -0.8686 -0.5145
  177SOL    HW2  531   0.288   0.379   1.026  1.8121 -1.1575  2.6161
  178SOL     OW  532   0.030   2.732   2.573  0.4839  0.6049 -0.1199
  178SOL    HW1  533  -0.032   2.649   2.599  0.3202 -0.5871 -2.1143
  178SOL    HW2  534   0.099   2.755   2.645 -1.4623 -0.5058 -0.0078
  179SOL     OW  535   3.067   1.566   1.136  0.0696  0.3435  0.3582
  179SOL    HW1  536   2.972   1.593   1.095 -3.1094 -1.4979 -2.9505
  179SOL    HW2  537   3.055   1.518   1.226  2.2333 -1.2033  0.4985
  180SOL     OW  538   0.193   1.243   1.845  0.2475  0.7236  0.0058
  180SOL    HW1  539   0.272   1.175   1.879 -0.2696 -0.5605  1.2863
  180SOL    HW2  540   0.185   1.332   1.898  0.6179 -0.8938  0.6090
  181SOL     OW  541   3.045   1.869   2.494  1.0302  0.8658 -0.7422
  181SOL    HW1  542   3.129   1.922   2.467 -0.2622 -0.6168 -0.2309
  181SOL    HW2  543   2.962   1.885   2.435 -1.0036 -0.7328  0.5551
  182SOL     OW  544   2.318   1.256   1.144 -0.0887 -0.6408  0.0283
  182SOL    HW1  545   2.241   1.201   1.111  0.9994  4.1746  0.8306
  182SOL    HW2  546   2.311   1.351   1.112  0.5453  0.4367  1.8514
  183SOL     OW  547   1.443   2.261   2.589  0.3488 -0.0942 -0.6058
  183SOL    HW1  548   1.352   2.219   2.615 -1.0474  1.6174  1.1216
  183SOL    HW2  549   1.501   2.188   2.547 -1.7131  3.1459  1.5605
  184SOL     OW  550   2.008   0.898   0.717  0.9604  0.4878 -0.3591
  184SOL    HW1  551   1.923   0.945   0.668 -1.3273  2.2294 -1.1308
  184SOL    HW2  552   1.979   0.807   0.765 -0.0990  0.4012  0.6969
  185SOL     OW  553   1.628   2.797   1.966  0.2685 -0.1761 -0.5993
  185SOL    HW1  554   1.550   2.865   1.983 -0.1755 -0.1050  0.7516
  185SOL    HW2  555   1.697   2.795   2.042 -1.2891 -1.4598 -1.9498
  186SOL     OW  556   0.118   2.265   1.636  0.4044  0.1779  0.0777
  186SOL    HW1  557   0.106   2.313   1.729 -0.9436 -1.8664 -0.2073
  186SOL    HW2  558   0.185   2.182   1.632  0.6198 -3.0911 -2.1409
  187SOL     OW  559   1.332   0.700   1.660  0.6174 -0.1252 -0.2803
  187SOL    HW1  560   1.410   0.752   1.616  0.2249 -2.4794  1.2771
  187SOL    HW2  561   1.373   0.627   1.721  2.0155  0.9308 -1.9863
  188SOL     OW  562   2.771   2.770   1.436 -0.0150 -0.1332  0.2437
  188SOL    HW1  563   2.740   2.866   1.452  2.7965 -1.9080 -2.2726
  188SOL    HW2  564   2.704   2.710   1.382 -2.4237  0.5767  1.0349
  189SOL     OW  565   0.947   1.196   1.448 -0.1423 -0.5654  0.1273
  189SOL    HW1  566   1.029   1.242   1.497  1.7845  2.4895  0.6736
  189SOL    HW2  567   0.921   1.250   1.365 -1.1561  0.9080 -2.1427
  190SOL     OW  568   1.432   1.946   1.626 -0.3176  0.2580  0.1892
  190SOL    HW1  569   1.385   1.853   1.618  0.5094  1.8750 -1.8113
  190SOL    HW2  570   1.509   1.936   1.700  0.1141  1.7065  1.3330
  191SOL     OW  571   0.944   0.708   1.559 -0.1681 -0.2853 -0.1361
  191SOL    HW1  572   1.002   0.624   1.567 -1.6402 -0.4870 -1.0370
  191SOL    HW2  573   0.985   0.796   1.593  0.2553  2.3112 -4.1508
  192SOL     OW  574   1.849   2.299   1.074 -0.0914  0.5814 -0.3630
  192SOL    HW1  575   1.758   2.325   1.034 -0.4435  0.2965 -0.2980
  192SOL    HW2  576   1.932   2.312   1.013  1.5295  1.9557 -1.2174
  193SOL     OW  577   0.555   0.577   0.449 -0.6535 -0.0395  0.1248
  193SOL    HW1  578   0.492   0.502   0.486  1.5036  1.4273 -1.5825
  193SOL    HW2  579   0.595   0.541   0.362 -0.8291 -0.7013 -0.3896
  194SOL     OW  580   0.331   0.899   1.300  0.5589 -0.2165  0.3336
  194SOL    HW1  581   0.303   0.804   1.263 -0.3899 -0.0379 -1.3732
  194SOL    HW2  582   0.337   0.969   1.222 -2.0498 -0.6948  1.8781
  195SOL     OW  583   1.006   2.943   0.523  0.4131 -0.1870 -0.3275
  195SOL    HW1  584   0.961   2.850   0.504  3.7763 -0.9723 -0.2613
  195SOL    HW2  585   1.113   2.949   0.516  0.1666 -1.0079 -0.2485
  196SOL     OW  586   0.182   1.334   1.377 -0.8574  0.7854  0.4438
  196SOL    HW1  587   0.216   1.427   1.411 -0.8559  2.2924  0.2840
  196SOL    HW2  588   0.188   1.265   1.453  1.5021  0.3611 -0.3915
  197SOL     OW  589   0.851   2.059   0.269 -0.1782  0.2687 -0.0042
  197SOL    HW1  590   0.823   2.050   0.367  0.8925  0.0264  1.5555
  197SOL    HW2  591   0.895   1.969   0.238 -1.2852 -1.3535  1.3709
  198SOL     OW  592   0.269   1.273   0.288 -0.4561 -0.3540  0.0727
  198SOL    HW1  593   0.169   1.282   0.261  2.9356 -1.8772  1.9406
  198SOL    HW2  594   0.297   1.347   0.360 -1.6988 -1.5755  2.4064
  199SOL     OW  595   2.298   0.364   2.495  0.6274  0.5324  0.3136
  199SOL    HW1  596   2.220   0.323   2.553  0.7684 -1.2820 -0.8148
  199SOL    HW2  597   2.386   0.340   2.536  2.8791 -1.0071 -0.4163
  200SOL     OW  598   0.010   2.949   0.719 -0.4577  0.0568  0.2304
  200SOL    HW1  599  -0.071   2.939   0.657  0.7595  0.3380 -1.9384
  200SOL    HW2  600   0.075   3.029   0.706  2.7505 -0.9504 -2.1107
  201SOL     OW  601   1.061   0.734   0.569 -0.4498 -0.3640 -1.1199
  201SOL    HW1  602   1.101   0.777   0.659  0.7675  0.2728  3.1713
  201SOL    HW2  603   0.970   0.686   0.589 -0.6804 -0.9716  3.5944
  202SOL     OW  604   0.405   1.079   1.910 -0.3946 -0.2385  0.1783
  202SOL    HW1  605   0.477   1.022   1.873  0.4074  4.1066  0.2139
  202SOL    HW2  606   0.440   1.127   1.992 -1.6605 -1.9654 -0.4811
  203SOL     OW  607   0.655   0.235   1.491  0.1260  0.1525 -0.3207
  203SOL    HW1  608   0.718   0.201   1.418 -1.7251 -1.8338 -0.1681
  203SOL    HW2  609   0.689   0.201   1.583 -1.4846 -1.4054 -1.6957
  204SOL     OW  610   2.104   1.810   2.883  0.6517  0.1903  0.3610
  204SOL    HW1  611   2.076   1.711   2.885 -2.1645 -1.8888 -1.6975
  204SOL    HW2  612   2.200   1.828   2.840 -0.0122  1.9144 -0.8026
  205SOL     OW  613   1.848   1.868   3.018  0.3996 -0.6301 -0.1246
  205SOL    HW1  614   1.932   1.847   2.961 -0.0869 -2.2726  1.3463
  205SOL    HW2  615   1.821   1.972   3.022 -0.9457 -0.3759  0.7507
  206SOL     OW  616   2.486   2.813   0.330 -0.2886 -0.0901  0.2703
  206SOL    HW1  617   2.550   2.745   0.376  1.0996 -1.5853 -0.1628
  206SOL    HW2  618   2.529   2.903   0.313  0.5481 -0.7310 -1.2262
  207SOL     OW  619   0.692   1.829   3.001  0.4387 -0.0948 -0.2132
  207SOL    HW1  620   0.745   1.782   2.929 -0.2801 -0.1225  0.1298
  207SOL    HW2  621   0.651   1.767   3.072  0.8768 -1.0207 -0.1835
  208SOL     OW  622   1.113   1.574   1.394  0.7102 -0.1802  0.2315
  208SOL    HW1  623   1.075   1.634   1.322  0.7266 -1.5674 -0.8851
  208SOL    HW2  624   1.189   1.617   1.448 -0.8277  0.1730 -1.1526
  209SOL     OW  625   0.241   0.938   3.048  0.4184  0.0470  0.3543
  209SOL    HW1  626   0.256   0.848   2.995  0.5787  1.4993  0.2876
  209SOL    HW2  627   0.260   0.928   3.150 -0.4304  1.1283 -1.0351
  210SOL     OW  628   1.766   0.477   1.185 -0.6159 -0.0093 -0.2816
  210SOL    HW1  629   1.736   0.573   1.157  2.6272  0.4736 -0.7616
  210SOL    HW2  630   1.871   0.466   1.174  2.9754 -1.1182 -0.8454
  211SOL     OW  631   2.101   1.073   1.585  0.0196 -0.5702  0.2104
  211SOL    HW1  632   2.131   1.013   1.663 -0.3711 -2.2916 -2.1443
  211SOL    HW2  633   2.185   1.125   1.547 -0.4338 -0.2536  0.8970
  212SOL     OW  634   3.096   0.975   1.502 -0.6645  0.9375 -0.1677
  212SOL    HW1  635   3.169   1.035   1.545 -2.3863 -0.0745  2.5035
  212SOL    HW2  636   3.079   0.887   1.555  0.1720 -0.0532 -1.6855
  213SOL     OW  637   2.819   0.203   0.377 -0.3145 -0.5931  0.1836
  213SOL    HW1  638   2.877   0.133   0.330  0.9452 -2.4439  3.3168
  213SOL    HW2  639   2.742   0.255   0.329  2.5037  0.6796  1.2154
  214SOL     OW  640   2.170   0.236   2.282 -0.8530  0.1644  0.0679
  214SOL    HW1  641   2.218   0.290   2.359 -0.4152 -1.1080  2.1410
  214SOL    HW2  642   2.163   0.134   2.315  1.0649 -1.6554  1.2736
  215SOL     OW  643   1.582   2.298   2.119 -0.7291  0.3832 -0.1963
  215SOL    HW1  644   1.679   2.324   2.080 -0.9239  2.2678  0.6049
  215SOL    HW2  645   1.526   2.385   2.123  0.5576 -0.0912  1.3820
  216SOL     OW  646   2.166   0.624   0.697 -0.3304  0.1340 -0.0048
  216SOL    HW1  647   2.140   0.532   0.657 -0.4420  1.0545 -2.4598
  216SOL    HW2  648   2.194   0.695   0.632  0.6840 -0.4799  0.1094
  217SOL     OW  649   0.756   2.773   2.422  0.0619 -0.1336 -0.0143
  217SOL    HW1  650   0.724   2.695   2.484 -0.3108  1.7614  1.4528
  217SOL    HW2  651   0.759   2.755   2.318 -1.6551 -0.1175 -1.9011
  218SOL     OW  652   1.896   1.419   0.009 -0.1487 -0.3563  0.2669
  218SOL    HW1  653   1.802   1.450  -0.001 -0.4671  1.8718 -0.1969
  218SOL    HW2  654   1.917   1.364   0.093 -0.5359 -1.4063  0.0992
  219SOL     OW  655   2.437   1.291   2.505  0.1522  0.4818 -0.7258
  219SOL    HW1  656   2.498   1.274   2.424  1.2204  1.1573  0.5627
  219SOL    HW2  657   2.441   1.211   2.575  0.8387 -0.4866  0.2009
  220SOL     OW  658   1.490   1.049   1.253 -0.5000  0.0410  0.5685
  220SOL    HW1  659   1.586   1.060   1.293  0.0357  0.5707 -0.5425
  220SOL    HW2  660   1.469   1.092   1.162  0.6584 -3.1037 -0.8109
  221SOL     OW  661   1.288   0.995   2.185 -0.3994 -0.6205 -0.2692
  221SOL    HW1  662   1.255   1.030   2.091  2.5832  3.8962 -1.0205
  221SOL    HW2  663   1.382   0.956   2.174 -0.5686  2.1812 -2.2708
  222SOL     OW  664   1.104   0.035   1.181  0.0419  0.3122  0.4508
  222SOL    HW1  665   1.154   0.074   1.259  1.1397  0.3017  1.6238
  222SOL    HW2  666   1.100   0.098   1.103 -2.0869 -1.5806  1.2324
  223SOL     OW  667   2.746   0.949   2.118 -0.0737  0.1298  0.9501
  223SOL    HW1  668   2.741   1.038   2.062  0.4334  0.2308  2.0759
  223SOL    HW2  669   2.843   0.923   2.149  0.2568 -1.0392 -1.4463
  224SOL     OW  670   1.508   1.070   2.765 -0.5504  0.7309 -0.2056
  224SOL    HW1  671   1.561   0.989   2.729  2.4680 -1.4199 -2.3631
  224SOL    HW2  672   1.466   1.126   2.684 -0.7742  1.3806  0.0824
  225SOL     OW  673   2.930   2.773   2.876 -0.0920  0.5562  0.0987
  225SOL    HW1  674   2.850   2.755   2.812  0.8678 -0.2226 -1.0478
  225SOL    HW2  675   3.002   2.847   2.847  1.6914 -1.1825  2.4341
  226SOL     OW  676   2.498   1.590   2.896 -0.5022  0.1666  0.1776
  226SOL    HW1  677   2.493   1.571   2.790 -1.9294 -0.5810 -0.3674
  226SOL    HW2  678   2.427   1.539   2.943  2.1419  1.8997  1.7989
  227SOL     OW  679   0.866   0.134   0.029  0.1711 -0.2423  0.0978
  227SOL    HW1  680   0.964   0.111   0.027 -0.6614  1.8212  1.2584
  227SOL    HW2  681   0.828   0.121  -0.066  2.7864  1.3276 -0.1296
  228SOL     OW  682   2.431   0.602   2.843  0.3056 -0.1799 -0.0889
  228SOL    HW1  683   2.409   0.616   2.743  2.3799  0.2140 -0.4160
  228SOL    HW2  684   2.518   0.549   2.856 -2.7530  3.2508  1.2409
  229SOL     OW  685   0.572   0.472   1.879 -0.3407  0.1714  0.2432
  229SOL    HW1  686   0.554   0.374   1.901  0.2194  0.2278 -3.5097
  229SOL    HW2  687   0.579   0.498   1.777 -1.9499 -3.8857 -1.9745
  230SOL     OW  688   1.868   1.147   2.079 -0.2828  0.0912  0.4449
  230SOL    HW1  689   1.934   1.217   2.043 -1.3308  2.2027  1.4291
  230SOL    HW2  690   1.784   1.196   2.104  1.9244 -1.7714  1.6669
  231SOL     OW  691   0.626   1.017   0.035  0.0778 -0.0911  0.4262
  231SOL    HW1  692   0.704   1.082   0.047 -0.3296  0.7749  2.0736
  231SOL    HW2  693   0.534   1.065   0.022  1.7330 -0.1597 -0.1206
  232SOL     OW  694   2.386   3.090   2.858  0.5021  0.1338 -0.9372
  232SOL    HW1  695   2.410   2.990   2.873  1.2431  1.2794 -0.9605
  232SOL    HW2  696   2.424   3.119   2.766  1.6692 -0.7303 -1.4896
  233SOL     OW  697   1.704   1.254   1.109 -0.1266 -0.5919  0.3469
  233SOL    HW1  698   1.684   1.208   1.016 -3.6323  0.1957 -3.4677
  233SOL    HW2  699   1.734   1.185   1.180  0.9531 -3.3017 -1.8830
  234SOL     OW  700   1.560   2.538   1.866 -0.0279  0.0322  0.1330
  234SOL    HW1  701   1.568   2.632   1.909 -0.9981 -1.7110 -0.5542
  234SOL    HW2  702   1.465   2.502   1.874  1.0469 -3.5234  0.2345
  235SOL     OW  703   0.012   3.023   2.816  0.4416  0.1999  0.3109
  235SOL    HW1  704  -0.025   3.036   2.719 -1.0431  0.6380 -1.3010
  235SOL    HW2  705  -0.045   3.061   2.898  0.0530  0.1751  0.2867
  236SOL     OW  706   2.906   0.739   0.090 -0.3742 -0.0939  0.0791
  236SOL    HW1  707   2.981   0.800   0.134  0.6568  1.1818 -0.4007
  236SOL    HW2  708   2.946   0.644   0.076 -0.7247  1.5475  0.2929
  237SOL     OW  709   1.540   1.667   1.001  0.6486 -0.2085 -0.5828
  237SOL    HW1  710   1.642   1.656   0.988  0.0669 -0.2929 -0.0650
  237SOL    HW2  711   1.513   1.708   1.098 -2.1180 -0.2235 -0.0413
  238SOL     OW  712   1.778   1.282   0.852  0.1707 -0.1442 -0.3747
  238SOL    HW1  713   1.829   1.347   0.916  0.8757 -1.4880  0.5937
  238SOL    HW2  714   1.703   1.327   0.797  0.3687  1.7733 -3.5169
  239SOL     OW  715   2.092   0.286   2.664  0.1385  0.2236  0.4080
  239SOL    HW1  716   2.126   0.265   2.761  0.2484 -2.5522  1.9210
  239SOL    HW2  717   2.011   0.350   2.660  1.5434  1.3386  1.1217
  240SOL     OW  718   0.925   0.654   0.306  0.3122 -0.2027 -0.5747
  240SOL    HW1  719   0.980   0.574   0.268  2.0922  1.5963 -3.3413
  240SOL    HW2  720   0.892   0.638   0.405  1.1894  1.3976  1.9597
  241SOL     OW  721   0.573   0.037   0.392  0.7456 -0.0478 -0.1671
  241SOL    HW1  722   0.621   0.122   0.349 -1.2721 -1.5464  2.1949
  241SOL    HW2  723   0.544  -0.035   0.330 -0.7961  0.2707  0.3284
  242SOL     OW  724   0.624   2.518   1.156 -0.5207 -0.2142  0.5253
  242SOL    HW1  725   0.591   2.545   1.250  0.3600 -0.4240  2.3730
  242SOL    HW2  726   0.674   2.587   1.099 -1.7154 -0.9126 -2.1289
  243SOL     OW  727   1.087   0.630   2.463  0.2834  0.3487 -0.3351
  243SOL    HW1  728   0.991   0.650   2.439  2.4902  1.8471 -0.2738
  243SOL    HW2  729   1.095   0.618   2.567  2.8697  0.2430 -1.3669
  244SOL     OW  730   2.833   1.887   2.320 -0.1016 -0.3175 -0.2158
  244SOL    HW1  731   2.862   1.865   2.217  0.6014  2.1987 -0.1045
  244SOL    HW2  732   2.746   1.836   2.350  3.5383  0.5334  1.5039
  245SOL     OW  733   2.314   0.753   2.185 -0.4428  0.9448 -0.3972
  245SOL    HW1  734   2.396   0.720   2.242  4.4631  0.2800  0.6433
  245SOL    HW2  735   2.251   0.806   2.244 -0.9952 -0.5070 -0.0003
  246SOL     OW  736   0.232   2.909   1.735 -0.1562 -0.3051  0.2955
  246SOL    HW1  737   0.167   2.923   1.655  1.1364  2.3989 -0.5418
  246SOL    HW2  738   0.329   2.949   1.711 -0.9578  2.5935 -2.0503
  247SOL     OW  739   2.260   0.616   3.055  0.2920  0.5404 -0.0886
  247SOL    HW1  740   2.328   0.616   2.980 -0.6174 -1.8641 -0.4508
  247SOL    HW2  741   2.203   0.698   3.068 -1.1456 -3.1782 -0.0562
  248SOL     OW  742   2.154   1.818   1.584  0.3544  0.3311 -0.3523
  248SOL    HW1  743   2.221   1.773   1.650 -3.3892  0.9206  0.3306
  248SOL    HW2  744   2.062   1.800   1.616  0.3037  0.7240 -1.4921
  249SOL     OW  745   1.847   1.953   1.938  0.2827 -0.1887 -0.1245
  249SOL    HW1  746   1.845   1.860   1.891  1.3644 -0.3377  3.0907
  249SOL    HW2  747   1.939   2.003   1.930  0.2669  2.0824 -1.2582
  250SOL     OW  748   1.122   0.692   1.902 -0.3346 -0.4687 -0.2384
  250SOL    HW1  749   1.157   0.606   1.952  0.0212 -0.0410 -0.0526
  250SOL    HW2  750   1.108   0.680   1.800 -1.4379 -0.1113 -1.9043
  251SOL     OW  751   0.063   1.580   2.473 -0.0669 -0.1276 -0.1071
  251SOL    HW1  752   0.044   1.680   2.445 -0.6464  0.0363  3.9339
  251SOL    HW2  753  -0.025   1.539   2.513  2.4401  2.0787 -1.0427
  252SOL     OW  754   1.538   0.838   1.576  0.4609  0.4712  0.2338
  252SOL    HW1  755   1.611   0.846   1.506  0.2722 -1.6772  2.8172
  252SOL    HW2  756   1.546   0.913   1.649  1.1829 -2.3474 -3.0213
  253SOL     OW  757   0.958   1.567   0.528  0.0223 -0.0412  0.2902
  253SOL    HW1  758   0.993   1.505   0.450 -1.5397 -0.9052  0.9523
  253SOL    HW2  759   0.859   1.583   0.522 -2.0584  1.4590  1.0380
  254SOL     OW  760   2.051   2.178   1.645  0.1210  0.2528  0.4158
  254SOL    HW1  761   2.021   2.108   1.574  0.4890  0.4302  0.1855
  254SOL    HW2  762   1.975   2.220   1.707 -0.1038  1.4603 -0.1176
  255SOL     OW  763   0.139   1.130   2.882 -0.0966  0.2677 -0.0967
  255SOL    HW1  764   0.191   1.216   2.899 -0.6935 -1.2618  0.2855
  255SOL    HW2  765   0.183   1.065   2.947  1.9560  1.1498 -1.2269
  256SOL     OW  766   2.773   1.359   1.780 -0.2563  0.1048  0.0199
  256SOL    HW1  767   2.677   1.396   1.791  0.8958  2.6291 -0.0562
  256SOL    HW2  768   2.780   1.255   1.759 -1.6314  2.1229  1.0213
  257SOL     OW  769   0.772   0.186   1.761  0.1256 -0.6842  0.1638
  257SOL    HW1  770   0.820   0.262   1.711 -2.4609 -0.8060 -1.7832
  257SOL    HW2  771   0.835   0.116   1.795  0.4075 -1.6217  1.3106
  258SOL     OW  772   2.974   1.247   0.437  0.3449 -0.5828 -0.0390
  258SOL    HW1  773   2.893   1.315   0.428  0.4788 -2.1666 -2.5858
  258SOL    HW2  774   3.028   1.266   0.521 -0.0281 -3.4406 -0.2104
  259SOL     OW  775   0.465   2.954   3.035  0.0004 -0.6146  0.1120
  259SOL    HW1  776   0.391   2.908   3.097 -4.1410  0.3836  1.2405
  259SOL    HW2  777   0.467   2.910   2.945 -2.8699  2.6843 -0.1421
  260SOL     OW  778   2.709   0.830   2.812  0.0205  0.2177 -0.5222
  260SOL    HW1  779   2.621   0.783   2.781  3.4605 -2.9115  3.3971
  260SOL    HW2  780   2.721   0.833   2.917 -0.9203 -1.1849 -0.6375
  261SOL     OW  781   2.760   1.356   1.245  0.1483  0.3100  0.4543
  261SOL    HW1  782   2.700   1.293   1.187 -1.8314 -1.5204  0.6978
  261SOL    HW2  783   2.857   1.331   1.249  0.7743  1.7539  1.1077
  262SOL     OW  784   1.418   2.972   2.028 -0.4200  0.4706 -0.7161
  262SOL    HW1  785   1.456   3.036   1.956  3.1766 -0.8750  0.7338
  262SOL    HW2  786   1.320   2.940   2.011 -1.4781  0.3903  0.4235
  263SOL     OW  787   0.852   0.693   2.368 -0.0236 -0.2763  0.1239
  263SOL    HW1  788   0.802   0.599   2.349 -0.9421 -0.5765  0.4211
  263SOL    HW2  789   0.897   0.744   2.286  1.0625  1.2810  1.5135
  264SOL     OW  790   2.204   0.825   0.429 -0.3878  0.6243  0.8342
  264SOL    HW1  791   2.212   0.771   0.338  3.3768 -2.5662  4.3469
  264SOL    HW2  792   2.298   0.837   0.478  1.2582 -2.2564  0.8327
  265SOL     OW  793   0.936   2.392   2.622  0.8871  0.5758 -0.2968
  265SOL    HW1  794   0.986   2.451   2.687 -2.7341 -0.1550 -2.5961
  265SOL    HW2  795   0.921   2.296   2.662 -0.4056  2.2704  1.6176
  266SOL     OW  796   1.311   1.735   0.029 -0.3798  0.3475 -0.1174
  266SOL    HW1  797   1.313   1.826   0.088 -0.2503  1.8143 -0.6200
  266SOL    HW2  798   1.397   1.730  -0.033 -0.6205 -0.5305  1.2310
  267SOL     OW  799   1.010   3.081   2.360  0.8054  0.0698  0.1223
  267SOL    HW1  800   1.022   3.025   2.272  1.5183 -1.5270 -1.5974
  267SOL    HW2  801   0.962   3.171   2.343 -2.1427 -1.0014 -0.0138
  268SOL     OW  802   0.597   1.204   1.026  0.0713 -0.1547 -0.4175
  268SOL    HW1  803   0.607   1.231   1.122  2.0368 -2.3132  1.3238
  268SOL    HW2  804   0.600   1.286   0.956 -1.6219 -2.6983 -2.7743
  269SOL     OW  805   2.354   2.545   1.603  0.0535  0.5355 -0.1944
  269SOL    HW1  806   2.415   2.470   1.644 -0.8466 -0.2012 -1.3798
  269SOL    HW2  807   2.292   2.596   1.673 -1.3739  0.7994 -0.2124
  270SOL     OW  808   0.189   2.920   2.011 -0.2563  0.0329 -0.0237
  270SOL    HW1  809   0.221   2.893   1.914 -0.3838 -1.3253  0.9929
  270SOL    HW2  810   0.104   2.867   2.040  1.1684  0.4318  0.4303
  271SOL     OW  811   0.415   1.380   1.192  0.1525  0.6616  0.2093
  271SOL    HW1  812   0.396   1.346   1.092  2.1924  0.0140 -0.3196
  271SOL    HW2  813   0.328   1.372   1.250 -0.5145 -0.5333 -2.4289
  272SOL     OW  814   2.006   2.882   1.945  0.0408 -0.0489  0.1683
  272SOL    HW1  815   1.941   2.847   1.874 -0.6143  0.9164 -2.9745
  272SOL    HW2  816   2.092   2.933   1.895  0.8570  2.6082 -0.4266
  273SOL     OW  817   1.485   1.431   2.715  0.4788 -0.5403 -0.2424
  273SOL    HW1  818   1.401   1.487   2.736 -1.5067 -0.0740 -0.4679
  273SOL    HW2  819   1.522   1.387   2.800  1.5544  0.0056  0.1618
  274SOL     OW  820   1.197   0.496   2.061 -0.5122  0.4771  0.2270
  274SOL    HW1  821   1.170   0.401   2.026  0.1015 -0.5772 -0.0036
  274SOL    HW2  822   1.252   0.493   2.145 -0.5320 -2.9418 -2.0008
  275SOL     OW  823   0.605   2.091   1.900  0.5239 -0.2835 -0.4801
  275SOL    HW1  824   0.590   2.186   1.937  1.1124 -3.0521  0.6894
  275SOL    HW2  825   0.523   2.031   1.903 -1.4870  2.6866  2.0682
  276SOL     OW  826   2.189   0.950   2.755  0.0575  0.3585  0.1865
  276SOL    HW1  827   2.124   0.977   2.680 -0.0975  2.1719 -1.5767
  276SOL    HW2  828   2.153   0.880   2.825 -0.8136  2.1205 -2.0594
  277SOL     OW  829   3.089   0.883   0.226  0.0905  0.0250  0.1440
  277SOL    HW1  830   3.191   0.907   0.205 -0.1698  1.1902 -1.6372
  277SOL    HW2  831   3.079   0.806   0.300 -0.3993 -0.8589  0.7126
  278SOL     OW  832   0.243   0.269   3.073  0.6017 -0.2992 -0.1905
  278SOL    HW1  833   0.314   0.203   3.038 -2.2727 -0.4580 -1.6326
  278SOL    HW2  834   0.280   0.365   3.093 -0.8244  2.1073  0.8760
  279SOL     OW  835   0.209   0.067   0.874 -0.4319 -0.1867  0.1633
  279SOL    HW1  836   0.147   0.029   0.947  1.4208 -1.1635 -0.3925
  279SOL    HW2  837   0.256  -0.009   0.819  0.5160 -1.3799 -0.2308
  280SOL     OW  838   1.602   2.946   2.422  0.1706  0.3299 -0.0180
  280SOL    HW1  839   1.658   2.986   2.501  0.8615 -2.4121  0.6724
  280SOL    HW2  840   1.523   3.006   2.386 -2.6556 -0.8854  0.4522
  281SOL     OW  841   0.574   0.990   2.215 -0.2366 -0.1770 -0.3223
  281SOL    HW1  842   0.585   0.907   2.158 -1.2948 -0.5141  0.2796
  281SOL    HW2  843   0.531   0.963   2.309  1.4850  2.3285  1.0879
  282SOL     OW  844   1.773   2.496   0.521 -0.1799 -0.2376 -0.5601
  282SOL    HW1  845   1.725   2.412   0.482 -2.4272  0.5057  3.6202
  282SOL    HW2  846   1.716   2.582   0.514  1.4457  0.6719 -0.1078
  283SOL     OW  847   1.161   0.913   0.829  0.1504  0.5763  0.6378
  283SOL    HW1  848   1.189   0.850   0.910 -0.9099  0.6992 -1.0421
  283SOL    HW2  849   1.111   1.006   0.851  5.1506  3.8960 -0.1646
  284SOL     OW  850   2.288   2.776   2.551  0.3582  0.5778  0.1356
  284SOL    HW1  851   2.358   2.822   2.497 -4.2110 -0.5544 -4.2366
  284SOL    HW2  852   2.255   2.824   2.641  0.5244  0.0802 -1.0863
  285SOL     OW  853   1.319   3.042   2.583  0.4527 -0.1931 -0.3517
  285SOL    HW1  854   1.333   3.061   2.483 -0.0062  0.0783  1.6796
  285SOL    HW2  855   1.213   3.051   2.611 -1.6691  0.5513 -3.6393
  286SOL     OW  856   0.456   0.460   0.725  0.3965 -0.2555 -0.6146
  286SOL    HW1  857   0.402   0.415   0.802 -1.4681 -0.4656  1.2420
  286SOL    HW2  858   0.489   0.396   0.655  1.6376 -0.1050  1.0558
  287SOL     OW  859   0.102   1.293   2.490  0.0188 -0.1947 -0.0999
  287SOL    HW1  860   0.033   1.241   2.545 -1.8755 -2.6892 -0.1697
  287SOL    HW2  861   0.110   1.403   2.497  1.3510  2.4827 -0.4305
  288SOL     OW  862   1.591   2.623   1.604  0.5040  0.3294  0.3636
  288SOL    HW1  863   1.596   2.557   1.679  0.9473  3.8794 -1.1662
  288SOL    HW2  864   1.658   2.587   1.528  2.4180 -4.0700  0.2099
  289SOL     OW  865   0.656   2.710   0.899 -0.5585  0.4844  0.5376
  289SOL    HW1  866   0.691   2.767   0.819 -0.1301  1.6463 -0.2868
  289SOL    HW2  867   0.611   2.768   0.972  0.5048 -1.4308  1.1357
  290SOL     OW  868   2.817   1.107   1.723  0.0548  0.3941 -0.1445
  290SOL    HW1  869   2.722   1.059   1.732  1.1764 -0.1562 -0.7983
  290SOL    HW2  870   2.880   1.072   1.798 -2.8540 -1.3428  0.7766
  291SOL     OW  871   1.996   0.046   0.033  0.3140 -0.0892  0.0839
  291SOL    HW1  872   1.996   0.048   0.138  2.6690  1.1227 -1.3670
  291SOL    HW2  873   2.042   0.126  -0.010 -2.8741 -3.0880  2.6269
  292SOL     OW  874   2.998   1.148   3.044 -0.2201  0.1497  0.9851
  292SOL    HW1  875   2.922   1.215   3.008 -2.1749 -0.9908  1.9041
  292SOL    HW2  876   3.078   1.134   2.975 -0.9126 -0.7478 -0.6558
  293SOL     OW  877   0.551   2.142   0.218 -0.0692 -0.0220 -0.1271
  293SOL    HW1  878   0.508   2.204   0.288  1.3224  1.1928  0.2973
  293SOL    HW2  879   0.655   2.142   0.232 -2.8895  2.8543 -1.6342
  294SOL     OW  880   1.831   2.264   1.785  0.4997 -0.1825 -0.3011
  294SOL    HW1  881   1.812   2.289   1.884 -1.0717  1.1543 -3.7278
  294SOL    HW2  882   1.793   2.328   1.711 -0.4399  1.8123 -0.1340
  295SOL     OW  883   0.981   1.067   0.466  0.6578 -0.0023 -0.7269
  295SOL    HW1  884   1.077   1.061   0.509 -3.7407 -0.5343 -1.2823
  295SOL    HW2  885   0.913   1.080   0.539  1.4332 -0.5890 -1.2822
  296SOL     OW  886   1.184   2.125   2.562 -0.4898 -0.4993 -0.1403
  296SOL    HW1  887   1.089   2.151   2.551 -0.5124 -2.4685 -0.1686
  296SOL    HW2  888   1.202   2.029   2.522 -2.9689  0.3739  2.9884
  297SOL     OW  889   1.422   0.613   1.346 -0.6042 -0.1811 -0.0298
  297SOL    HW1  890   1.380   0.520   1.356  1.4748  2.1934  0.9709
  297SOL    HW2  891   1.527   0.615   1.363  1.3714 -0.9861  1.6759
  298SOL     OW  892   0.526   1.320   3.003 -0.1965 -0.3387  0.0570
  298SOL    HW1  893   0.483   1.249   3.074 -1.7912 -3.4770  0.3499
  298SOL    HW2  894   0.552   1.280   2.914  0.8639  1.2200  5.0065
  299SOL     OW  895   0.473   0.270   1.272  0.1070  0.3375 -0.7577
  299SOL    HW1  896   0.440   0.371   1.268 -3.3506 -1.5267 -0.8982
  299SOL    HW2  897   0.537   0.253   1.346 -3.2207  1.2617 -3.3919
  300SOL     OW  898   1.231   1.786   2.730 -0.8214 -0.3683 -0.4063
  300SOL    HW1  899   1.200   1.689   2.748 -0.9208  4.1603  0.6837
  300SOL    HW2  900   1.336   1.795   2.716  0.3283 -1.2943  1.7107
  301SOL     OW  901   0.436   0.289   0.494 -0.2107 -0.2285 -0.1442
  301SOL    HW1  902   0.334   0.303   0.484  0.2204 -0.2579 -1.2436
  301SOL    HW2  903   0.461   0.209   0.433 -0.9454 -0.4251 -1.6518
  302SOL     OW  904   1.279   2.453   2.338  0.2882 -0.6280  0.1420
  302SOL    HW1  905   1.193   2.513   2.354 -3.5314 -0.6196 -0.4865
  302SOL    HW2  906   1.264   2.358   2.370  1.8673  1.8494 -1.0645
  303SOL     OW  907   0.941   2.407   0.816  0.2318 -0.0597 -0.4835
  303SOL    HW1  908   1.014   2.427   0.744 -2.5185  2.0497 -2.3112
  303SOL    HW2  909   0.951   2.463   0.908 -0.7974  0.3699  0.6906
  304SOL     OW  910   0.050   1.939   0.640 -0.2621 -0.0889  0.3474
  304SOL    HW1  911   0.124   1.924   0.564 -0.1452 -1.0103  1.2743
  304SOL    HW2  912  -0.009   2.027   0.630 -0.6917 -0.2112 -1.2900
  305SOL     OW  913   1.578   0.886   0.589 -0.6552 -0.3139  0.3865
  305SOL    HW1  914   1.550   0.884   0.488  0.9003 -0.4971 -1.0640
  305SOL    HW2  915   1.633   0.803   0.615 -1.0811  1.7096 -0.3815
  306SOL     OW  916   0.408   1.847   1.916 -0.1606  0.0940 -0.1547
  306SOL    HW1  917   0.444   1.749   1.918 -3.2231  0.9473  0.3578
  306SOL    HW2  918   0.421   1.888   2.010  0.1692 -1.6726 -2.2951
  307SOL     OW  919   3.040   0.898   2.478 -0.2314 -0.0049  0.3038
  307SOL    HW1  920   3.074   0.976   2.542 -2.5592  1.9609  0.0584
  307SOL    HW2  921   2.969   0.839   2.529 -0.4357 -0.9490 -0.3547
  308SOL     OW  922   1.552   2.687   2.821  0.0926 -0.1151  0.2775
  308SOL    HW1  923   1.546   2.634   2.732 -1.2727  0.3455 -0.2121
  308SOL    HW2  924   1.517   2.632   2.906  2.0467  2.5264  1.6762
  309SOL     OW  925   1.280   0.201   1.732  0.3688  0.1273  0.2797
  309SOL    HW1  926   1.346   0.136   1.779  0.1367 -0.7091  0.0638
  309SOL    HW2  927   1.219   0.149   1.661 -1.0481  1.2627 -0.0904
  310SOL     OW  928   1.504   2.566   0.703 -0.2084 -0.4178 -0.1795
  310SOL    HW1  929   1.501   2.586   0.806 -0.6373 -2.4076 -2.1473
  310SOL    HW2  930   1.533   2.654   0.652  1.0168  2.2016  1.7263
  311SOL     OW  931   1.179   0.960   1.659 -0.3705 -0.4173 -0.0211
  311SOL    HW1  932   1.202   0.861   1.650  0.6394  0.1316  3.2377
  311SOL    HW2  933   1.213   1.013   1.580  1.3898 -2.6660  0.8759
  312SOL     OW  934   1.660   0.728   1.124 -0.2344 -0.3535  0.4474
  312SOL    HW1  935   1.669   0.812   1.062  0.4467 -0.2367  1.8408
  312SOL    HW2  936   1.560   0.691   1.123  1.6754 -0.3082 -0.9126
  313SOL     OW  937   1.572   1.361   0.710  0.0685  0.2604 -0.1366
  313SOL    HW1  938   1.518   1.431   0.754  2.8390  0.4739 -0.8504
  313SOL    HW2  939   1.516   1.279   0.672  0.7084 -0.0202 -2.5032
  314SOL     OW  940   2.943   0.030   2.993 -0.4911 -0.2637  0.2919
  314SOL    HW1  941   2.968   0.015   3.092  2.3785 -0.7759  0.0556
  314SOL    HW2  942   2.847  -0.004   2.971 -0.2647  0.4072 -2.6907
  315SOL     OW  943   1.187   0.193   2.767 -0.6468  0.1786  0.2660
  315SOL    HW1  944   1.129   0.147   2.697  0.6069  0.6038  1.9541
  315SOL    HW2  945   1.236   0.130   2.834 -4.1065  1.2424  0.8870
  316SOL     OW  946   1.742   2.032   0.877  0.0378 -0.2458  0.3393
  316SOL    HW1  947   1.692   2.003   0.959  0.3299  1.0593 -1.6132
  316SOL    HW2  948   1.735   2.136   0.859  1.5290  2.5616  1.7679
  317SOL     OW  949   1.163   0.625   2.867  0.4895  0.5635 -0.3304
  317SOL    HW1  950   1.122   0.670   2.951 -0.8668  1.1811  2.2481
  317SOL    HW2  951   1.106   0.549   2.827  1.9072  2.4514  2.7006
  318SOL     OW  952   1.358   3.035   2.298  0.4516 -0.3978  0.2404
  318SOL    HW1  953   1.348   3.136   2.269  1.3671 -2.1993 -2.1030
  318SOL    HW2  954   1.360   2.978   2.211 -1.3175 -2.0808  0.9134
  319SOL     OW  955   0.625   2.426   2.929 -0.5100 -0.3360  0.2635
  319SOL    HW1  956   0.559   2.377   3.000 -1.3910  1.1830 -0.1683
  319SOL    HW2  957   0.726   2.418   2.951 -0.3261  1.2271  1.1825
  320SOL     OW  958   1.680   2.246   0.440 -0.5746  0.3354  0.3670
  320SOL    HW1  959   1.759   2.193   0.393  1.6798 -1.8539 -1.4157
  320SOL    HW2  960   1.603   2.183   0.469  2.9862  1.0977 -0.1926
  321SOL     OW  961   1.627   2.793   0.519  0.4015  0.4269  0.4036
  321SOL    HW1  962   1.567   2.789   0.436 -2.1254 -0.0812  1.6431
  321SOL    HW2  963   1.719   2.839   0.499  3.1248  0.6889  0.6509
  322SOL     OW  964   2.596   1.120   2.337 -0.1142  0.4845 -0.8812
  322SOL    HW1  965   2.645   1.149   2.422 -2.7325  0.3473 -1.4377
  322SOL    HW2  966   2.595   1.017   2.317 -0.6704  1.7111 -0.8163
  323SOL     OW  967   1.188   2.683   0.831 -0.0451  0.5115  0.2007
  323SOL    HW1  968   1.161   2.626   0.748  0.7110 -0.9422 -1.4165
  323SOL    HW2  969   1.136   2.777   0.838  0.3778  3.2095  0.0704
  324SOL     OW  970   0.266   2.444   2.505  0.1962 -0.5938 -0.9111
  324SOL    HW1  971   0.302   2.422   2.604 -0.9256 -0.6220  3.1603
  324SOL    HW2  972   0.182   2.508   2.507  0.9008  2.3100  0.4868
  325SOL     OW  973   1.283   3.063   0.479 -0.3824 -0.4000 -0.4200
  325SOL    HW1  974   1.281   3.117   0.387  1.6106  0.8029 -2.7053
  325SOL    HW2  975   1.309   3.122   0.563 -2.5467  0.2816  0.9342
  326SOL     OW  976   2.467   0.812   3.097  0.0341 -0.0283  0.1823
  326SOL    HW1  977   2.434   0.761   3.010 -2.4850 -2.6534 -0.8214
  326SOL    HW2  978   2.525   0.745   3.155  0.9085 -0.2414  1.4887
  327SOL     OW  979   2.852   0.334   0.666 -0.2183  0.1248 -0.0236
  327SOL    HW1  980   2.844   0.278   0.579 -0.4016 -1.0415  0.3423
  327SOL    HW2  981   2.878   0.281   0.750 -0.6989 -3.1007 -5.7533
  328SOL     OW  982   2.607   0.562   0.408  0.3422 -0.7893 -0.1311
  328SOL    HW1  983   2.554   0.649   0.402  0.8852  1.4806 -0.7025
  328SOL    HW2  984   2.584   0.497   0.485 -1.7679  0.6476  0.7234
  329SOL     OW  985   2.945   2.984   2.142  0.4121 -0.3498 -0.3239
  329SOL    HW1  986   3.017   2.928   2.187 -0.4269 -0.3532  2.0264
  329SOL    HW2  987   2.957   3.089   2.146  0.8882  0.8006  0.4564
  330SOL     OW  988   0.525   0.169   1.883 -0.1687  0.4666  0.5918
  330SOL    HW1  989   0.602   0.187   1.818 -3.2961  2.2158  0.0620
  330SOL    HW2  990   0.542   0.110   1.963 -0.9292 -0.0290 -0.4800
  331SOL     OW  991   2.976   1.932   1.154 -0.3254  0.5780 -0.4112
  331SOL    HW1  992   2.990   2.032   1.127  1.2056 -0.2834 -0.4175
  331SOL    HW2  993   2.901   1.916   1.226  0.4572 -3.2232  0.6201
  332SOL     OW  994   0.379   1.153   0.058 -0.3472 -0.3590  0.5647
  332SOL    HW1  995   0.297   1.121   0.008  2.7966 -0.5184  0.2602
  332SOL    HW2  996   0.353   1.219   0.137  1.3803  2.7999  0.1905
  333SOL     OW  997   2.880   1.041   0.303  0.5582 -0.1478  0.1638
  333SOL    HW1  998   2.903   1.107   0.386  2.7976 -3.1923  2.0841
  333SOL    HW2  999   2.966   0.992   0.270  0.5991  0.2511  0.8888
  334SOL     OW 1000   1.697   1.261   1.847  0.1349 -0.1225 -0.0908
  334SOL    HW1 1001   1.790   1.276   1.808 -1.1312 -0.4237 -1.9599
  334SOL    HW2 1002   1.688   1.300   1.940 -0.7267 -0.3291 -0.3156
  335SOL     OW 1003   1.977   2.728   2.583 -0.0638 -0.4097 -0.6705
  335SOL    HW1 1004   1.923   2.760   2.666  1.4397 -4.0883  0.7049
  335SOL    HW2 1005   2.079   2.725   2.605 -1.0694  1.7165  1.0768
  336SOL     OW 1006   0.238   0.138   2.756  0.0455 -0.1866 -0.4697
  336SOL    HW1 1007   0.300   0.118   2.835  0.1227 -3.2220 -2.6134
  336SOL    HW2 1008   0.146   0.091   2.765  0.7581 -2.4599 -0.4572
  337SOL     OW 1009   0.935   2.875   2.858  0.7489  0.1498  0.1969
  337SOL    HW1 1010   0.907   2.794   2.920 -0.8790 -1.1542 -0.2079
  337SOL    HW2 1011   1.039   2.872   2.843  2.1464  2.0879  1.0601
  338SOL     OW 1012   0.033   1.011   0.635  0.7617 -0.2919  0.0901
  338SOL    HW1 1013  -0.067   0.985   0.628 -0.6347 -1.2717  1.1248
  338SOL    HW2 1014   0.051   1.112   0.652  1.3778  0.8374  1.8613
  339SOL     OW 1015   1.680   1.346   2.102 -0.0123 -0.0971 -0.1593
  339SOL    HW1 1016   1.579   1.356   2.126  3.0243  2.3927  1.4443
  339SOL    HW2 1017   1.741   1.403   2.156 -1.5076 -2.8647 -2.5986
  340SOL     OW 1018   2.339   0.804   1.103 -0.4864  0.2824  0.0317
  340SOL    HW1 1019   2.241   0.828   1.085  1.5747  1.7580 -0.2670
  340SOL    HW2 1020   2.372   0.707   1.070  1.8234 -1.0173 -0.3674
  341SOL     OW 1021   1.880   2.109   0.309 -0.0121 -0.2301 -0.5911
  341SOL    HW1 1022   1.911   2.147   0.219 -0.2188 -1.3898 -0.0584
  341SOL    HW2 1023   1.958   2.081   0.371 -2.1152  1.2379 -2.0643
  342SOL     OW 1024   2.257   2.135   2.762 -0.0114 -0.0082  0.5138
  342SOL    HW1 1025   2.325   2.067   2.804  1.4752  0.2774  0.3137
  342SOL    HW2 1026   2.157   2.106   2.785 -0.4561 -3.5983  4.6143
  343SOL     OW 1027   0.362   0.839   2.735  0.3813 -0.4605  0.4859
  343SOL    HW1 1028   0.338   0.939   2.720 -2.4797 -0.6682 -0.7922
  343SOL    HW2 1029   0.456   0.829   2.774 -3.1079  0.5449 -1.9636
  344SOL     OW 1030   1.919   1.423   0.432  0.2178  0.3830  0.1064
  344SOL    HW1 1031   1.920   1.344   0.363  0.4305  0.7058  0.5371
  344SOL    HW2 1032   1.823   1.460   0.455 -0.4002 -2.1938 -0.3929
  345SOL     OW 1033   1.400   2.245   2.931 -0.2481  0.0070 -0.1896
  345SOL    HW1 1034   1.323   2.181   2.891  0.1851 -4.9356  2.9622
  345SOL    HW2 1035   1.492   2.215   2.893  0.0528 -0.5270  1.8679
  346SOL     OW 1036   2.359   0.881   1.365 -0.3024  0.2086  0.4777
  346SOL    HW1 1037   2.325   0.971   1.402 -1.9574  0.8882 -1.2092
  346SOL    HW2 1038   2.320   0.857   1.274 -0.4246  0.0508  1.7851
  347SOL     OW 1039   0.742   2.757   1.567  0.0789 -0.2354  0.2228
  347SOL    HW1 1040   0.693   2.749   1.658  0.1502 -1.1579  1.0593
  347SOL    HW2 1041   0.725   2.854   1.528 -1.7115 -1.4359  0.3410
  348SOL     OW 1042   0.209   0.685   2.924  0.2826  0.1468  0.1744
  348SOL    HW1 1043   0.111   0.651   2.918 -2.6837  0.9643 -0.6216
  348SOL    HW2 1044   0.243   0.730   2.831 -1.1752 -0.5059 -1.9820
  349SOL     OW 1045   1.871   0.473   2.816 -0.4640  0.0030 -0.0299
  349SOL    HW1 1046   1.888   0.561   2.761 -1.0303  2.1000 -1.6536
  349SOL    HW2 1047   1.847   0.493   2.913 -1.9550 -3.5955  0.5620
  350SOL     OW 1048   1.665   0.437   0.387  0.2264 -0.4102 -0.0312
  350SOL    HW1 1049   1.735   0.429   0.462  0.0845 -0.8076  0.3773
  350SOL    HW2 1050   1.650   0.529   0.344  0.5278 -1.0946  1.7535
  351SOL     OW 1051   1.006   0.821   2.154 -0.1714 -0.4244 -0.1052
  351SOL    HW1 1052   0.969   0.909   2.119 -1.0123 -2.2249  0.4222
  351SOL    HW2 1053   1.071   0.767   2.092  2.1067 -1.0032  0.5951
  352SOL     OW 1054   1.981   1.305   0.659 -0.2359  0.0733 -0.1833
  352SOL    HW1 1055   1.951   1.369   0.586  0.2241 -2.2281  0.8619
  352SOL    HW2 1056   1.903   1.306   0.732 -2.9156 -1.3923  0.6239
  353SOL     OW 1057   2.140   2.787   1.087  0.0125 -0.7473  0.3202
  353SOL    HW1 1058   2.201   2.733   1.150 -1.1506  1.0766  1.8743
  353SOL    HW2 1059   2.052   2.731   1.078 -1.2370  0.9173 -1.9677
  354SOL     OW 1060   0.260   1.375   2.902 -0.7415 -0.1691 -0.4818
  354SOL    HW1 1061   0.249   1.442   2.823  0.1052 -1.2854  2.4390
  354SOL    HW2 1062   0.359   1.360   2.936 -1.0986  0.8229 -0.7747
  355SOL     OW 1063   0.693   1.566   0.582  1.2959  0.3774 -0.0720
  355SOL    HW1 1064   0.715   1.625   0.661  1.7625 -0.7291 -0.6253
  355SOL    HW2 1065   0.672   1.466   0.604 -0.9064  0.3519 -0.3022
  356SOL     OW 1066   0.846   0.338   2.068  0.2415 -0.1976 -0.2110
  356SOL    HW1 1067   0.941   0.304   2.071 -3.3552  4.0154 -2.1968
  356SOL    HW2 1068   0.804   0.337   1.975 -0.3416  0.7254  0.6950
  357SOL     OW 1069   1.012   1.322   0.322 -0.2671  0.3484  0.2117
  357SOL    HW1 1070   1.037   1.306   0.223  1.6420  1.6755  1.8981
  357SOL    HW2 1071   1.001   1.235   0.376 -0.5496  0.2716 -2.4082
  358SOL     OW 1072   1.668   1.503   0.495  0.0938 -0.2151  0.0188
  358SOL    HW1 1073   1.631   1.454   0.583  2.3639  1.4887  2.1222
  358SOL    HW2 1074   1.640   1.453   0.405  2.0664 -1.3123 -2.2920
  359SOL     OW 1075   1.568   2.626   0.204 -0.4649  0.4795  0.2671
  359SOL    HW1 1076   1.560   2.524   0.190  1.1323 -1.4435 -0.9856
  359SOL    HW2 1077   1.491   2.680   0.156 -1.0089 -2.1930  1.4758
  360SOL     OW 1078   0.838   0.572   0.546 -0.7174  0.1554 -0.5351
  360SOL    HW1 1079   0.736   0.572   0.574 -3.2823 -2.2208  3.0366
  360SOL    HW2 1080   0.880   0.475   0.553  2.0280  0.0044  0.4340
  361SOL     OW 1081   1.225   1.300   0.710 -0.6034 -0.0497 -0.4646
  361SOL    HW1 1082   1.279   1.381   0.751 -0.9632  0.9271 -0.1664
  361SOL    HW2 1083   1.121   1.322   0.709 -1.2637  0.7907  1.8831
  362SOL     OW 1084   1.393   1.845   0.819  0.1952 -0.3207  0.1060
  362SOL    HW1 1085   1.431   1.782   0.893 -0.6485  0.1443  2.8561
  362SOL    HW2 1086   1.473   1.877   0.759  1.3753  2.3180  1.9170
  363SOL     OW 1087   1.232   1.252   2.036 -0.4190  0.3338 -0.1636
  363SOL    HW1 1088   1.262   1.308   2.118  0.7433  1.2806  1.4760
  363SOL    HW2 1089   1.236   1.316   1.954  0.7917  2.8632 -0.6806
  364SOL     OW 1090   0.496   2.337   2.005 -0.2704 -0.0889 -0.0453
  364SOL    HW1 1091   0.394   2.342   1.998 -0.5131  1.3112 -1.4387
  364SOL    HW2 1092   0.543   2.421   1.963  1.5195  2.5030  0.6236
  365SOL     OW 1093   0.999   1.926   1.388  0.1662  0.4748 -0.7255
  365SOL    HW1 1094   0.899   1.949   1.415 -0.6128 -1.2369  3.3482
  365SOL    HW2 1095   1.018   1.949   1.291  0.0522  0.9906  0.7043
  366SOL     OW 1096   2.825   2.020   0.398  0.4722 -0.3127 -0.3580
  366SOL    HW1 1097   2.743   2.015   0.455  1.2815 -2.4722 -0.4509
  366SOL    HW2 1098   2.838   1.933   0.340 -2.0019 -3.0944 -2.9168
  367SOL     OW 1099   0.901   1.108   0.083 -0.6085 -0.0054 -0.9109
  367SOL    HW1 1100   0.927   1.033   0.151  0.6356 -0.8571 -2.9492
  367SOL    HW2 1101   0.983   1.138   0.021 -0.3597  0.5072 -1.9024
  368SOL     OW 1102   1.464   0.558   0.697  0.4975  0.4209 -0.0258
  368SOL    HW1 1103   1.396   0.606   0.629  0.1030  0.8800  0.0937
  368SOL    HW2 1104   1.571   0.584   0.695  1.8470  0.1875 -1.2807
  369SOL     OW 1105   0.334   1.688   0.065  0.2554 -0.3477 -0.2191
  369SOL    HW1 1106   0.374   1.771   0.115  2.5454 -2.0603  0.7390
  369SOL    HW2 1107   0.243   1.662   0.104  0.9996  3.5059 -1.7151
  370SOL     OW 1108   0.455   2.071   0.982  0.0329 -0.5409  0.1117
  370SOL    HW1 1109   0.442   2.173   0.981 -1.8625  1.1984  0.3529
  370SOL    HW2 1110   0.370   2.018   0.970  1.7063 -0.0371 -2.1764
  371SOL     OW 1111   2.912   2.191   2.651  0.0539  0.4133 -0.4422
  371SOL    HW1 1112   2.836   2.167   2.715  2.9060  0.1233  2.1062
  371SOL    HW2 1113   3.004   2.213   2.703  2.0318  0.7923  0.4830
  372SOL     OW 1114   1.118   2.027   1.081 -0.4456 -0.3327 -0.6691
  372SOL    HW1 1115   1.027   2.063   1.048  0.6105 -0.0667 -0.0520
  372SOL    HW2 1116   1.203   2.071   1.043 -1.0185 -0.5927  1.7665
  373SOL     OW 1117   2.022   1.991   0.859  0.0938 -0.2033 -0.2499
  373SOL    HW1 1118   2.083   1.996   0.944 -2.6576  0.3910  0.7531
  373SOL    HW2 1119   1.925   2.011   0.891  0.7945  0.5062  2.0660
  374SOL     OW 1120   1.854   0.386   0.568  0.5458  0.1011 -0.2149
  374SOL    HW1 1121   1.827   0.311   0.628  1.4736 -0.8457  0.0980
  374SOL    HW2 1122   1.957   0.411   0.561 -1.5442 -0.5138  0.8361
  375SOL     OW 1123   2.396   2.185   1.083 -1.1158  0.1140  0.1595
  375SOL    HW1 1124   2.461   2.169   1.003 -0.6589  3.5132 -1.7721
  375SOL    HW2 1125   2.435   2.140   1.168  0.2401 -1.0884 -1.1218
  376SOL     OW 1126   3.064   0.572   1.470  0.3690  0.3018  0.3589
  376SOL    HW1 1127   3.054   0.642   1.547  0.3796  1.2339 -3.6019
  376SOL    HW2 1128   2.973   0.534   1.436 -1.1049 -0.4727  1.3114
  377SOL     OW 1129   2.213   2.892   0.318 -0.3663  0.6472 -0.3884
  377SOL    HW1 1130   2.195   2.991   0.343 -1.1876  0.5386  1.2016
  377SOL    HW2 1131   2.317   2.867   0.314 -1.4996 -2.1911  0.2216
  378SOL     OW 1132   1.856   1.856   2.606  0.0559  0.3280  0.3964
  378SOL    HW1 1133   1.899   1.818   2.692 -3.0747 -0.7525  0.3011
  378SOL    HW2 1134   1.828   1.779   2.536  0.2927 -2.3184  3.2501
  379SOL     OW 1135   0.737   0.137   2.905 -0.7513 -0.4924  0.0460
  379SOL    HW1 1136   0.702   0.054   2.861 -1.0818 -2.3296  2.5837
  379SOL    HW2 1137   0.736   0.222   2.841  0.4990  1.8783 -0.7760
  380SOL     OW 1138   1.498   1.135   0.587  0.3639 -0.1102  0.3324
  380SOL    HW1 1139   1.394   1.140   0.568  0.6433  2.5096  2.6677
  380SOL    HW2 1140   1.528   1.035   0.602  2.2329 -2.0113 -1.2176
  381SOL     OW 1141   1.380   1.173   1.557 -0.0350 -0.0037  0.1029
  381SOL    HW1 1142   1.418   1.144   1.464 -0.4353 -1.6179 -2.0218
  381SOL    HW2 1143   1.437   1.125   1.632 -1.8179 -1.4449  1.3990
  382SOL     OW 1144   1.766   0.830   0.179 -0.4423 -0.1546  0.0869
  382SOL    HW1 1145   1.798   0.807   0.087 -0.7591  0.1585  0.4370
  382SOL    HW2 1146   1.841   0.863   0.241  0.8028  1.2265 -2.0196
  383SOL     OW 1147   2.608   0.982   1.465  0.0149  0.0785  0.2109
  383SOL    HW1 1148   2.508   0.975   1.423 -0.1046 -0.9716 -0.0200
  383SOL    HW2 1149   2.687   0.957   1.402  0.9258 -0.3300  2.7380
  384SOL     OW 1150   0.904   2.295   0.140  0.3988 -0.3592  0.3630
  384SOL    HW1 1151   0.837   2.363   0.179  0.7393 -3.3403  2.3619
  384SOL    HW2 1152   0.899   2.200   0.181  1.7983  0.0867 -1.6916
  385SOL     OW 1153   3.048   2.048   1.654 -0.2745  0.4067 -0.2353
  385SOL    HW1 1154   3.109   2.131   1.653  2.8843  0.3005 -0.2082
  385SOL    HW2 1155   3.108   1.959   1.664 -0.0898  0.9520  0.0828
  386SOL     OW 1156   0.487   1.105   0.390  0.4091  0.6739 -0.2114
  386SOL    HW1 1157   0.490   1.017   0.451 -0.5937 -1.4093 -0.8546
  386SOL    HW2 1158   0.399   1.130   0.347  0.3000 -0.1960 -0.4134
  387SOL     OW 1159   0.927   0.350   1.624  0.3162 -0.5684  0.0717
  387SOL    HW1 1160   1.002   0.415   1.649 -0.9624  0.3653  0.0241
  387SOL    HW2 1161   0.950   0.288   1.539  1.9919 -1.2871 -0.8826
  388SOL     OW 1162   1.189   2.609   1.752 -0.1188  0.5681 -0.0913
  388SOL    HW1 1163   1.240   2.598   1.658 -1.8308 -0.5536 -2.4854
  388SOL    HW2 1164   1.232   2.563   1.838  3.6154  0.1586 -1.7456
  389SOL     OW 1165   0.145   2.993   1.073 -0.4014 -0.8129 -0.1938
  389SOL    HW1 1166   0.042   2.983   1.082 -0.0726  2.2645  1.1817
  389SOL    HW2 1167   0.207   2.919   1.118  0.6655 -0.8780  0.1888
  390SOL     OW 1168   1.036   0.946   1.344  0.0813  0.3729  0.3199
  390SOL    HW1 1169   1.126   0.921   1.389 -0.0770  0.2304 -1.5667
  390SOL    HW2 1170   0.997   1.033   1.385  2.4409 -1.1967 -0.6928
  391SOL     OW 1171   2.099   1.138   1.065  0.0089 -1.2221  0.4321
  391SOL    HW1 1172   2.031   1.077   1.110 -0.4693 -1.4169  3.6606
  391SOL    HW2 1173   2.162   1.085   0.996  0.3948  0.0872  0.2336
  392SOL     OW 1174   0.889   2.694   3.067  0.1716  0.7699  0.3057
  392SOL    HW1 1175   0.843   2.629   3.140 -0.3437 -0.2576  0.4281
  392SOL    HW2 1176   0.959   2.759   3.110  2.9862  1.3372 -2.0377
  393SOL     OW 1177   0.300   0.503   1.978  0.5348 -0.0733 -0.3047
  393SOL    HW1 1178   0.254   0.417   1.942 -0.7123  0.1946 -2.0962
  393SOL    HW2 1179   0.379   0.538   1.918 -0.8566 -3.7335 -0.9188
  394SOL     OW 1180   3.027   1.861   2.765  0.7445 -0.2847  1.0737
  394SOL    HW1 1181   3.111   1.907   2.791 -0.4956 -1.4901  0.8217
  394SOL    HW2 1182   3.004   1.876   2.662 -0.4215  0.3722 -0.3759
  395SOL     OW 1183   1.615   1.934   0.670  0.5060 -0.4639  0.8461
  395SOL    HW1 1184   1.689   1.888   0.617 -0.0318  0.8828  1.5634
  395SOL    HW2 1185   1.655   1.964   0.761 -1.6615  0.4544  0.8238
  396SOL     OW 1186   2.791   1.931   1.344  0.8389 -0.6402 -0.0374
  396SOL    HW1 1187   2.695   1.944   1.314 -2.2623 -3.1341 -1.5864
  396SOL    HW2 1188   2.804   1.976   1.438  1.2288  3.1275 -1.2182
  397SOL     OW 1189   1.010   2.202   0.499  0.5689  0.3215 -0.1175
  397SOL    HW1 1190   0.921   2.158   0.517 -1.6624  2.5051 -0.8045
  397SOL    HW2 1191   1.016   2.305   0.522  2.5822 -1.2169  2.2573
  398SOL     OW 1192   2.114   3.061   1.070 -0.0237  0.0834 -0.4187
  398SOL    HW1 1193   2.111   2.955   1.070 -0.5850 -4.8591 -1.6304
  398SOL    HW2 1194   2.030   3.100   1.113  2.4149  0.5425  1.0378
  399SOL     OW 1195   2.981   2.530   2.627  0.2230 -0.1307 -1.5976
  399SOL    HW1 1196   2.924   2.480   2.563  2.1353  2.6735  0.9505
  399SOL    HW2 1197   2.959   2.500   2.726 -2.2476  1.2044 -0.3552
  400SOL     OW 1198   0.789   1.613   1.312 -0.3279  0.4474  0.0656
  400SOL    HW1 1199   0.773   1.658   1.399 -1.2935 -0.6222 -0.4066
  400SOL    HW2 1200   0.782   1.676   1.227  1.7020 -0.6064 -2.2441
  401SOL     OW 1201   1.808   0.106   1.363 -0.2356 -0.1315  0.0346
  401SOL    HW1 1202   1.853   0.132   1.451  0.1790 -2.1591 -0.5263
  401SOL    HW2 1203   1.704   0.127   1.367 -2.5160  1.2012 -0.5758
  402SOL     OW 1204   1.328   0.150   3.031  0.0514  0.4423 -0.2883
  402SOL    HW1 1205   1.426   0.139   2.998 -2.9165 -1.0878  3.5621
  402SOL    HW2 1206   1.302   0.250   3.039 -1.0240  0.7749 -0.4812
  403SOL     OW 1207   2.308   1.810   0.879 -0.3707 -0.4254 -0.3576
  403SOL    HW1 1208   2.398   1.825   0.922 -0.5008  0.5826  1.6094
  403SOL    HW2 1209   2.234   1.865   0.923  2.1439  0.8892  0.4478
  404SOL     OW 1210   0.180   2.502   2.819  0.0488 -0.0752  0.1238
  404SOL    HW1 1211   0.276   2.480   2.787  1.1742 -2.3311  0.2767
  404SOL    HW2 1212   0.154   2.596   2.845  0.0673 -1.3306  0.0872
  405SOL     OW 1213   0.172   2.426   0.629  0.6117  0.0528  0.0178
  405SOL    HW1 1214   0.195   2.381   0.539  1.4178  0.0804  0.3344
  405SOL    HW2 1215   0.220   2.516   0.638  0.1138 -3.6894  4.2442
  406SOL     OW 1216   0.025   1.480   3.001 -0.1004 -0.0050  0.5157
  406SOL    HW1 1217   0.111   1.432   2.962  0.5279  0.3263 -0.4786
  406SOL    HW2 1218   0.052   1.565   3.049 -0.1985 -2.1402 -5.5545
  407SOL     OW 1219   1.583   0.930   0.914  0.4018  0.3506  0.3787
  407SOL    HW1 1220   1.556   0.883   0.823  1.1431 -0.4728 -2.1942
  407SOL    HW2 1221   1.532   1.018   0.927 -1.0494  0.2896  1.5753
  408SOL     OW 1222   1.603   2.317   0.955 -0.0199 -0.4674 -0.1088
  408SOL    HW1 1223   1.633   2.304   0.860  0.9243  2.0435  1.2519
  408SOL    HW2 1224   1.537   2.404   0.964 -2.3226  1.3790  1.7294
  409SOL     OW 1225   0.663   0.856   0.712  0.4006 -0.0394 -0.2645
  409SOL    HW1 1226   0.597   0.882   0.641  4.0935 -3.0419 -1.3162
  409SOL    HW2 1227   0.664   0.752   0.731 -0.1307 -0.3084  0.6533
  410SOL     OW 1228   1.256   2.032   1.438 -0.1117  0.2807  0.5897
  410SOL    HW1 1229   1.316   1.971   1.499 -3.3413  1.6703 -4.7230
  410SOL    HW2 1230   1.161   1.994   1.424  0.1729  0.1681 -2.4421
  411SOL     OW 1231   2.506   1.850   0.015 -0.0081 -0.2984  0.1314
  411SOL    HW1 1232   2.415   1.857  -0.034  0.3806  0.9592  0.2170
  411SOL    HW2 1233   2.586   1.830  -0.051  1.4878  0.7280 -1.2971
  412SOL     OW 1234   1.483   2.528   2.181 -0.4796  0.0513  0.2756
  412SOL    HW1 1235   1.532   2.613   2.210 -1.6887  0.6242  0.9896
  412SOL    HW2 1236   1.418   2.492   2.255 -0.1510 -2.6684  1.1214
  413SOL     OW 1237   3.096   0.280   2.930 -0.1896  0.6870  0.2634
  413SOL    HW1 1238   3.024   0.215   2.969  1.4726 -1.9832  0.9580
  413SOL    HW2 1239   3.195   0.252   2.948 -1.7732  2.5370  1.3914
  414SOL     OW 1240   1.821   1.456   1.257  0.2544 -0.7103 -0.8139
  414SOL    HW1 1241   1.744   1.504   1.307  2.2896  0.3714 -0.5190
  414SOL    HW2 1242   1.791   1.381   1.199 -2.3887  2.0076  1.9733
  415SOL     OW 1243   0.288   2.174   0.739  0.1312  0.0996  0.1271
  415SOL    HW1 1244   0.275   2.276   0.749  2.4126 -1.3922  2.0972
  415SOL    HW2 1245   0.201   2.118   0.757 -4.2965 -0.2181 -0.4857
  416SOL     OW 1246   0.366   1.063   1.052 -0.4538 -0.5323 -0.0822
  416SOL    HW1 1247   0.356   0.995   0.973 -1.8458 -0.3171 -0.1700
  416SOL    HW2 1248   0.458   1.108   1.053  0.6508  1.0747  1.0966
  417SOL     OW 1249   2.141   2.310   1.911 -0.0375 -0.3311  0.2302
  417SOL    HW1 1250   2.188   2.221   1.898  0.8762  0.5232 -0.8101
  417SOL    HW2 1251   2.042   2.305   1.877  0.1541 -1.4741 -0.2856
  418SOL     OW 1252   1.130   0.496   1.312 -0.0669  0.2260  0.3154
  418SOL    HW1 1253   1.061   0.458   1.253  1.7590 -0.4656  0.8476
  418SOL    HW2 1254   1.189   0.567   1.267 -1.1226 -1.5293 -1.1298
  419SOL     OW 1255   0.981   0.371   3.035 -0.9085 -0.0168  0.1308
  419SOL    HW1 1256   0.957   0.437   2.957  2.3934  1.5578 -0.6252
  419SOL    HW2 1257   0.922   0.289   3.052  0.4082  0.7222  1.8187
  420SOL     OW 1258   0.118   2.265   0.388 -0.6061 -0.0831  0.2519
  420SOL    HW1 1259   0.084   2.270   0.289 -1.3786  0.0833  0.9347
  420SOL    HW2 1260   0.048   2.221   0.454  0.0656 -2.4866  0.9579
  421SOL     OW 1261   0.314   2.966   0.705  0.1802 -0.6851 -0.3457
  421SOL    HW1 1262   0.297   2.876   0.754  0.6868 -1.4050  4.2138
  421SOL    HW2 1263   0.416   2.983   0.690  0.6248 -3.1072  0.6749
  422SOL     OW 1264   0.996   2.569   1.031  0.2112 -0.2954  0.1147
  422SOL    HW1 1265   1.057   2.635   0.978 -1.4498 -3.1415 -1.1808
  422SOL    HW2 1266   1.008   2.582   1.136  2.2495 -0.9308 -0.3193
  423SOL     OW 1267   0.113   0.685   1.267  0.3017 -0.5381 -0.1915
  423SOL    HW1 1268   0.061   0.645   1.341  3.0267 -0.3184 -1.5510
  423SOL    HW2 1269   0.075   0.775   1.234 -1.1356 -3.6046 -0.0040
  424SOL     OW 1270   1.028   2.246   2.048  0.0659 -0.6537 -0.4710
  424SOL    HW1 1271   1.006   2.331   1.992  1.5495  1.2225  0.1877
  424SOL    HW2 1272   1.037   2.260   2.150  1.1613 -1.4290  0.2068
  425SOL     OW 1273   1.988   1.437   0.968  0.3920 -0.1449  0.4213
  425SOL    HW1 1274   2.002   1.348   1.013 -1.6335 -0.4611 -2.2430
  425SOL    HW2 1275   2.062   1.467   0.907  0.6243  2.4567  1.8395
  426SOL     OW 1276   1.541   1.557   1.385  0.4789  0.8981 -0.2920
  426SOL    HW1 1277   1.527   1.641   1.325  2.1614  0.7964 -0.1641
  426SOL    HW2 1278   1.477   1.552   1.464 -1.4294 -1.1161  1.2382
  427SOL     OW 1279   1.850   2.348   2.059  0.3119 -0.4402  0.0254
  427SOL    HW1 1280   1.911   2.296   2.125 -1.3384  2.1843  0.0921
  427SOL    HW2 1281   1.884   2.444   2.045 -2.7867  0.3489 -0.9033
  428SOL     OW 1282   0.867   2.984   0.194  0.0040  0.5552 -0.0130
  428SOL    HW1 1283   0.878   3.074   0.143 -2.5231  3.1206 -1.0043
  428SOL    HW2 1284   0.938   2.914   0.165 -0.4290 -0.6040  0.5263
  429SOL     OW 1285   1.336   0.094   0.219  0.1163  0.4372  0.1690
  429SOL    HW1 1286   1.432   0.124   0.246  0.4411 -0.1842 -0.4515
  429SOL    HW2 1287   1.319   0.097   0.115  0.8927 -0.0419 -0.6448
  430SOL     OW 1288   2.787   1.429   0.393  0.1865 -0.6818 -0.1412
  430SOL    HW1 1289   2.849   1.481   0.327  1.1740 -2.4877  0.6166
  430SOL    HW2 1290   2.789   1.480   0.487  1.0536  2.9351  0.9231
  431SOL     OW 1291   2.164   1.580   0.809 -0.0049  0.1355 -0.1720
  431SOL    HW1 1292   2.217   1.655   0.858 -0.3870 -2.6905  0.2250
  431SOL    HW2 1293   2.074   1.620   0.771 -1.3933 -0.2226  3.7139
  432SOL     OW 1294   2.870   2.226   1.250  0.3664  0.6258 -0.6901
  432SOL    HW1 1295   2.816   2.144   1.285  0.2932  0.2598 -0.2229
  432SOL    HW2 1296   2.919   2.283   1.325  1.4791  1.0392  2.6843
  433SOL     OW 1297   1.932   0.395   0.865  0.1898 -0.1118  0.0437
  433SOL    HW1 1298   1.863   0.327   0.910  1.0019 -1.1233  1.2892
  433SOL    HW2 1299   2.025   0.384   0.907 -1.3467  0.8505  1.6946
  434SOL     OW 1300   1.529   0.302   0.784  0.0349  0.3951 -0.2025
  434SOL    HW1 1301   1.504   0.401   0.747  1.1571 -1.7780  0.3636
  434SOL    HW2 1302   1.597   0.307   0.864  1.5216 -1.7753  0.4639
  435SOL     OW 1303   1.428   1.434   2.133  0.5904 -0.1285  0.6020
  435SOL    HW1 1304   1.364   1.477   2.205 -1.9321  3.9731  3.1652
  435SOL    HW2 1305   1.455   1.494   2.050 -0.1094 -2.9820 -0.7706
  436SOL     OW 1306   1.686   2.724   2.252 -0.0898 -0.2386 -0.7162
  436SOL    HW1 1307   1.647   2.800   2.311  1.3182 -2.3338 -1.6741
  436SOL    HW2 1308   1.710   2.643   2.310  1.4589 -0.2300 -2.1279
  437SOL     OW 1309   1.052   2.910   0.914 -0.5035  0.2739 -0.1129
  437SOL    HW1 1310   1.031   2.990   0.854 -0.0308 -0.5924 -1.3126
  437SOL    HW2 1311   1.009   2.911   1.005  0.6069 -2.5051  1.2058
  438SOL     OW 1312   1.033   2.571   1.312 -0.4615 -0.3302  0.0820
  438SOL    HW1 1313   1.104   2.613   1.377  1.5130  0.0110  0.2744
  438SOL    HW2 1314   1.015   2.473   1.336  0.1372  1.8008 -0.7286
  439SOL     OW 1315   0.706   1.726   1.063  0.3019 -0.6130 -0.2505
  439SOL    HW1 1316   0.698   1.801   0.988  0.4513  3.1405  3.3427
  439SOL    HW2 1317   0.610   1.712   1.105  0.5840 -0.7042 -0.7965
  440SOL     OW 1318   0.979   2.489   1.943  0.2985 -0.0022  0.7260
  440SOL    HW1 1319   0.922   2.507   1.853  0.0412  0.0804  1.0182
  440SOL    HW2 1320   1.081   2.505   1.937 -0.3340  1.5359 -0.2850
  441SOL     OW 1321   0.404   2.764   1.396  0.3425 -0.4664 -0.1106
  441SOL    HW1 1322   0.460   2.680   1.431  1.5990 -2.7610 -1.0677
  441SOL    HW2 1323   0.400   2.774   1.296 -0.1303  0.0622  2.4591
  442SOL     OW 1324   2.307   0.665   2.499  0.3436  0.1680 -0.9077
  442SOL    HW1 1325   2.289   0.567   2.481 -0.1085  1.5509  1.4090
  442SOL    HW2 1326   2.220   0.720   2.511 -0.8537 -1.1623  1.2327
  443SOL     OW 1327   1.210   2.729   2.194 -0.1244  0.3070 -0.2933
  443SOL    HW1 1328   1.258   2.771   2.271 -0.1600 -2.6285 -0.0182
  443SOL    HW2 1329   1.145   2.646   2.210  1.8303 -2.1460 -0.7231
  444SOL     OW 1330   1.153   1.308   1.595 -0.2905  0.3538  0.2463
  444SOL    HW1 1331   1.240   1.257   1.566 -0.5723  1.2756  2.4379
  444SOL    HW2 1332   1.167   1.377   1.670  0.1676  1.0105  0.2821
  445SOL     OW 1333   0.023   2.414   1.893 -0.0345  0.7258 -0.2337
  445SOL    HW1 1334  -0.000   2.490   1.824 -0.5775 -2.6166 -0.5074
  445SOL    HW2 1335  -0.066   2.360   1.921 -1.2408 -1.0225  1.1541
  446SOL     OW 1336   0.270   1.916   2.344  0.2664  0.2522  0.5495
  446SOL    HW1 1337   0.206   1.998   2.380 -2.5006 -1.9451  1.1178
  446SOL    HW2 1338   0.216   1.857   2.277 -0.5941 -0.6201  0.5636
  447SOL     OW 1339   1.227   1.712   1.915  0.3197 -0.0666  0.2809
  447SOL    HW1 1340   1.132   1.758   1.930 -0.0339  0.8996  1.3105
  447SOL    HW2 1341   1.300   1.785   1.923  0.8382  0.3707 -0.0277
  448SOL     OW 1342   0.123   1.464   2.006  0.4874  0.6052 -0.6917
  448SOL    HW1 1343   0.115   1.565   1.973 -4.2070 -0.1785 -0.8547
  448SOL    HW2 1344   0.098   1.447   2.108  1.3521 -0.5980  2.4017
  449SOL     OW 1345   1.838   3.005   0.861  0.6881  0.4268 -0.1747
  449SOL    HW1 1346   1.825   2.999   0.962  2.8394  1.3315 -0.7413
  449SOL    HW2 1347   1.879   2.921   0.823 -2.0615 -0.3307  0.3225
  450SOL     OW 1348   2.394   1.461   0.715  0.4232  0.6253 -0.3071
  450SOL    HW1 1349   2.309   1.488   0.768 -1.9089 -2.0258 -1.1206
  450SOL    HW2 1350   2.380   1.480   0.610 -1.7160  0.8333 -1.6883
  451SOL     OW 1351   1.375   3.004   1.433  0.3393 -0.2077  0.0110
  451SOL    HW1 1352   1.297   3.068   1.462 -0.5299  0.0380 -1.2548
  451SOL    HW2 1353   1.401   2.939   1.512 -0.7884 -0.2986 -0.8960
  452SOL     OW 1354   2.705   2.278   2.181  0.3269 -0.1169  0.1434
  452SOL    HW1 1355   2.656   2.366   2.206 -1.0537  1.3385  1.0924
  452SOL    HW2 1356   2.738   2.222   2.266  1.4102 -0.2791 -1.2337
  453SOL     OW 1357   2.469   2.635   3.100  0.1773  0.6202  0.7908
  453SOL    HW1 1358   2.379   2.698   3.117 -4.5025  1.6953 -0.8693
  453SOL    HW2 1359   2.457   2.569   3.020  1.6123 -1.5294  0.8261
  454SOL     OW 1360   0.955   1.147   2.091  0.1365  0.0366  0.1919
  454SOL    HW1 1361   0.939   1.139   1.988  0.7851  2.1593 -0.7928
  454SOL    HW2 1362   1.042   1.203   2.108  1.0037  0.9734  1.2668
  455SOL     OW 1363   0.640   2.688   2.887 -0.6886  0.7848  1.0069
  455SOL    HW1 1364   0.724   2.718   2.931 -2.1791 -3.1451 -3.7380
  455SOL    HW2 1365   0.624   2.588   2.907  1.3451  0.7228  0.2277
  456SOL     OW 1366   0.456   1.878   0.258 -0.3982 -0.4276 -0.6786
  456SOL    HW1 1367   0.535   1.833   0.312  0.1021 -3.1202  0.6515
  456SOL    HW2 1368   0.478   1.973   0.220 -0.9019  0.5668  3.1338
  457SOL     OW 1369   0.334   2.635   0.596 -0.3156 -0.3473  0.2902
  457SOL    HW1 1370   0.299   2.721   0.537 -2.3232  1.9859  4.1201
  457SOL    HW2 1371   0.419   2.586   0.560  0.3771 -1.3731 -1.3199
  458SOL     OW 1372   2.911   3.083   1.269 -0.0750 -0.4752 -0.3848
  458SOL    HW1 1373   2.970   3.172   1.275  2.5599 -0.2126  3.1967
  458SOL    HW2 1374   2.926   3.025   1.181  1.5694  0.4811 -0.1815
  459SOL     OW 1375   2.124   2.590   0.779  0.4083 -1.0263  0.8999
  459SOL    HW1 1376   2.200   2.659   0.808  1.8726  2.5182  0.3328
  459SOL    HW2 1377   2.127   2.557   0.681 -0.6319  1.9733  0.4217
  460SOL     OW 1378   1.243   2.048   2.829  0.2312 -0.4797  0.4100
  460SOL    HW1 1379   1.195   2.064   2.740 -0.5613  0.6308 -0.4629
  460SOL    HW2 1380   1.251   1.948   2.844  0.0222 -1.5970 -2.8586
  461SOL     OW 1381   0.549   2.134   2.635 -0.0921 -0.6858  0.1297
  461SOL    HW1 1382   0.471   2.071   2.618  1.6050  0.3867  1.4337
  461SOL    HW2 1383   0.607   2.117   2.721  0.7882  2.2737  0.3831
  462SOL     OW 1384   0.970   1.156   1.819 -0.1191  0.0448 -0.0280
  462SOL    HW1 1385   1.050   1.135   1.763 -1.8287 -1.0332  1.2059
  462SOL    HW2 1386   0.942   1.252   1.795 -1.5599 -0.2144  0.3533
  463SOL     OW 1387   0.476   0.847   0.492  0.1969 -0.0441 -0.5661
  463SOL    HW1 1388   0.511   0.753   0.467 -1.4280 -0.9397  2.9263
  463SOL    HW2 1389   0.368   0.860   0.494 -1.0839  0.1982 -1.7687
  464SOL     OW 1390   0.620   2.294   2.239  0.7688 -0.3168  0.1247
  464SOL    HW1 1391   0.584   2.358   2.315 -0.1186  1.9457  1.6752
  464SOL    HW2 1392   0.574   2.302   2.144  1.8068  0.8941  0.1152
  465SOL     OW 1393   0.248   0.952   0.798  0.5246 -0.1150 -0.7804
  465SOL    HW1 1394   0.174   0.970   0.718 -0.7202  0.5914 -2.5866
  465SOL    HW2 1395   0.265   0.850   0.805  0.2937  3.0145 -1.0127
  466SOL     OW 1396   1.406   1.155   0.997  0.4561 -0.2440  0.2063
  466SOL    HW1 1397   1.397   1.258   0.980  1.3286  0.7400 -1.1212
  466SOL    HW2 1398   1.319   1.112   1.044 -3.0434  1.3814  0.8357
  467SOL     OW 1399   0.511   0.368   2.399 -0.2461 -0.4075 -0.2973
  467SOL    HW1 1400   0.477   0.469   2.416 -2.4790  1.1030  1.1479
  467SOL    HW2 1401   0.499   0.315   2.492 -1.2018 -1.6728  1.0495
  468SOL     OW 1402   0.471   2.285   1.655 -0.3042  0.1814  0.2777
  468SOL    HW1 1403   0.536   2.351   1.707 -0.1239 -1.6342 -2.4249
  468SOL    HW2 1404   0.485   2.284   1.550  1.4864 -0.3163 -1.3715
  469SOL     OW 1405   1.456   1.397   1.159  0.4867  0.4412  0.2512
  469SOL    HW1 1406   1.546   1.341   1.143  1.1559  2.8431  2.0455
  469SOL    HW2 1407   1.472   1.455   1.240  0.1813  2.5339 -1.4926
  470SOL     OW 1408   3.012   1.728   0.705  0.6672 -0.7643 -0.5829
  470SOL    HW1 1409   3.060   1.815   0.684 -1.7230  0.1410  1.3713
  470SOL    HW2 1410   3.035   1.691   0.799 -2.3719  1.0749  3.7876
  471SOL     OW 1411   2.700   1.262   2.138 -0.0692  0.1608  0.3360
  471SOL    HW1 1412   2.655   1.203   2.206 -0.0303  0.1134  1.4903
  471SOL    HW2 1413   2.750   1.346   2.177  2.4977 -0.6640 -1.4649
  472SOL     OW 1414   1.152   2.455   0.035  0.6562 -0.0319 -0.5221
  472SOL    HW1 1415   1.209   2.436   0.121  1.7723  1.3476  0.2275
  472SOL    HW2 1416   1.051   2.436   0.040 -0.0527  2.3240  1.5708
  473SOL     OW 1417   1.082   1.547   1.009 -0.1194 -0.2159  0.1835
  473SOL    HW1 1418   0.977   1.527   0.985 -2.2523  0.7548 -0.9419
  473SOL    HW2 1419   1.114   1.473   1.072 -0.1444 -0.5111 -2.6645
  474SOL     OW 1420   0.666   1.289   0.561  0.2979  0.2490  0.5318
  474SOL    HW1 1421   0.606   1.250   0.488  1.7892 -0.0599 -0.9857
  474SOL    HW2 1422   0.730   1.217   0.599 -0.5274 -1.1912  2.1767
  475SOL     OW 1423   2.839   0.057   0.787  0.2448  0.2379 -0.3116
  475SOL    HW1 1424   2.918   0.110   0.824  2.3807 -1.2234  0.7773
  475SOL    HW2 1425   2.751   0.101   0.820 -2.7497  0.0376  1.1493
  476SOL     OW 1426   0.991   3.060   1.820  0.1569 -0.4307  0.0035
  476SOL    HW1 1427   1.056   2.995   1.867 -1.3154 -0.4125  1.7366
  476SOL    HW2 1428   0.986   3.043   1.718  2.3206 -0.4251  1.8118
  477SOL     OW 1429   1.427   0.329   2.474  0.4568  0.0328  0.1112
  477SOL    HW1 1430   1.432   0.338   2.580  2.1526 -0.1134  2.2871
  477SOL    HW2 1431   1.513   0.283   2.442  3.0441 -0.7401  1.4048
  478SOL     OW 1432   2.229   1.847   0.196 -0.3399 -0.1202  0.5098
  478SOL    HW1 1433   2.168   1.776   0.241 -1.0565  1.5313  2.9431
  478SOL    HW2 1434   2.325   1.829   0.210 -0.9805  1.7310  0.1861
  479SOL     OW 1435   1.265   1.019   2.916  0.4154  0.5781  0.2524
  479SOL    HW1 1436   1.344   1.057   2.872  1.2312 -0.5240 -0.0342
  479SOL    HW2 1437   1.181   1.011   2.857 -0.3095  0.4005  1.6664
  480SOL     OW 1438   2.616   2.354   0.388 -0.7775  0.2295  0.2458
  480SOL    HW1 1439   2.570   2.278   0.442 -2.9324  0.1159  1.0718
  480SOL    HW2 1440   2.556   2.378   0.306 -2.6426  0.8799  1.2818
  481SOL     OW 1441   0.981   1.141   0.890 -0.0207 -0.2466 -0.5924
  481SOL    HW1 1442   0.986   1.230   0.841 -0.3027 -0.3099 -0.3059
  481SOL    HW2 1443   1.014   1.146   0.986  2.7557 -2.0679 -1.4397
  482SOL     OW 1444   1.581   0.293   2.039 -0.1310 -1.0506  0.0764
  482SOL    HW1 1445   1.594   0.384   1.993  1.4178  2.0605  0.9213
  482SOL    HW2 1446   1.673   0.250   2.077  0.0202 -0.5432  2.4860
  483SOL     OW 1447   0.129   2.328   1.269 -0.0786 -0.1792 -0.1101
  483SOL    HW1 1448   0.048   2.325   1.335  0.4367  2.8176  0.8237
  483SOL    HW2 1449   0.164   2.428   1.267  0.5089 -1.6249 -0.4894
  484SOL     OW 1450   1.754   1.092   1.341 -0.3140  0.0564 -0.1136
  484SOL    HW1 1451   1.811   1.009   1.359 -1.8177  1.2506  1.0756
  484SOL    HW2 1452   1.771   1.159   1.415 -0.5530  0.2254  0.3541
  485SOL     OW 1453   0.714   1.022   1.808  0.0485  0.1565  0.4582
  485SOL    HW1 1454   0.687   1.035   1.704 -3.3756 -0.4560 -0.9085
  485SOL    HW2 1455   0.807   1.056   1.829  0.3403 -0.2085  1.6475
  486SOL     OW 1456   0.824   1.917   2.440  0.1369  0.1158  0.4837
  486SOL    HW1 1457   0.847   1.891   2.536 -0.3371  3.5534 -0.9633
  486SOL    HW2 1458   0.784   2.009   2.430  0.1440  1.0993  2.5779
  487SOL     OW 1459   1.811   1.668   0.955  0.1951  0.4435 -0.0443
  487SOL    HW1 1460   1.880   1.591   0.981 -0.2046 -1.4380 -2.9288
  487SOL    HW2 1461   1.807   1.669   0.854 -0.0895 -0.6889 -0.8990
  488SOL     OW 1462   2.978   0.880   2.209 -0.4123 -0.2457  0.1981
  488SOL    HW1 1463   2.984   0.778   2.188  1.4813 -0.2592  0.4448
  488SOL    HW2 1464   3.001   0.896   2.310 -0.1435 -0.5691  0.2540
  489SOL     OW 1465   2.772   0.298   1.270 -0.0767 -1.1899 -0.2171
  489SOL    HW1 1466   2.764   0.333   1.364 -1.5535  0.3226  1.0729
  489SOL    HW2 1467   2.864   0.262   1.251 -0.4671 -1.6507  3.4242
  490SOL     OW 1468   1.525   2.962   2.768 -0.3474  0.1285  0.0453
  490SOL    HW1 1469   1.510   2.860   2.789  1.5746 -0.2005 -2.0898
  490SOL    HW2 1470   1.461   2.995   2.697  1.2887 -1.8656 -1.4246
  491SOL     OW 1471   1.744   1.444   2.629  0.2666  0.7873  0.0488
  491SOL    HW1 1472   1.674   1.427   2.707 -0.2452  2.2006  0.6426
  491SOL    HW2 1473   1.838   1.474   2.661  1.3055  1.1514  1.5689
  492SOL     OW 1474   0.550   2.078   0.668 -0.8442 -0.6611  0.3409
  492SOL    HW1 1475   0.582   2.084   0.769 -0.6139 -1.3190  1.3550
  492SOL    HW2 1476   0.457   2.118   0.662  1.0213 -1.1723 -0.6252
  493SOL     OW 1477   0.424   1.432   2.018 -0.1029 -0.6777  0.3052
  493SOL    HW1 1478   0.327   1.477   2.009 -2.8128  1.2637 -1.4812
  493SOL    HW2 1479   0.421   1.344   2.075 -0.5092  1.4679  0.8815
  494SOL     OW 1480   2.733   2.689   0.155  0.0605 -0.3492  0.2026
  494SOL    HW1 1481   2.705   2.658   0.251  2.8325 -2.4370  1.0330
  494SOL    HW2 1482   2.652   2.697   0.090 -1.0718  0.9162 -2.8473
  495SOL     OW 1483   2.697   2.700   2.748 -0.0578 -0.9435  0.0907
  495SOL    HW1 1484   2.647   2.616   2.723 -0.0468  3.7110  0.2172
  495SOL    HW2 1485   2.722   2.762   2.669  1.7815 -0.6964  2.7082
  496SOL     OW 1486   2.083   2.228   0.700  0.1685  0.3186 -0.3984
  496SOL    HW1 1487   2.102   2.249   0.803 -1.1382  0.5427  2.3589
  496SOL    HW2 1488   2.123   2.136   0.677  1.3908  1.2973  0.1047
  497SOL     OW 1489   0.243   2.977   2.411  0.7695 -0.2776  0.3963
  497SOL    HW1 1490   0.201   3.067   2.447 -0.3855  1.3320  0.0095
  497SOL    HW2 1491   0.279   2.993   2.313  1.0343  0.9160 -2.1461
  498SOL     OW 1492   1.175   1.352   1.205  0.0575  0.1877  0.8192
  498SOL    HW1 1493   1.276   1.359   1.187 -0.9718  2.6644 -2.5408
  498SOL    HW2 1494   1.138   1.420   1.276  1.0012  0.0442  0.9139
  499SOL     OW 1495   0.672   1.796   0.411  0.5431  1.2399  1.1208
  499SOL    HW1 1496   0.706   1.700   0.424 -1.9606 -0.9257  0.4624
  499SOL    HW2 1497   0.735   1.874   0.443  1.3853  0.2271 -0.8020
  500SOL     OW 1498   1.409   2.839   1.639 -0.4593  0.0867  0.5722
  500SOL    HW1 1499   1.317   2.835   1.685  1.9297 -2.1694 -2.2019
  500SOL    HW2 1500   1.479   2.761   1.641 -0.1451 -0.0502  2.6896
  501SOL     OW 1501   0.791   1.138   2.302  0.0429  0.4497  0.1920
  501SOL    HW1 1502   0.697   1.093   2.289 -3.9834  0.0092  0.1619
  501SOL    HW2 1503   0.847   1.146   2.217 -3.7514 -0.1502  0.6430
  502SOL     OW 1504   2.573   0.977   1.727  0.1582  0.1470  0.4911
  502SOL    HW1 1505   2.583   0.996   1.622 -0.3982 -0.5694  1.1868
  502SOL    HW2 1506   2.565   0.877   1.742 -0.3247  1.4591  0.5269
  503SOL     OW 1507   1.330   0.125   0.702 -0.1795 -0.3831  0.2484
  503SOL    HW1 1508   1.265   0.190   0.658  0.8226  0.4104 -1.3157
  503SOL    HW2 1509   1.393   0.170   0.771 -1.8683  0.4310 -0.7821
  504SOL     OW 1510   2.997   2.340   1.482 -0.3524 -0.3447  0.0161
  504SOL    HW1 1511   2.930   2.415   1.513 -0.8688  1.7906 -1.1984
  504SOL    HW2 1512   3.083   2.344   1.546  1.0860 -1.8716  3.8856
  505SOL     OW 1513   2.321   1.192   1.431  0.0800 -0.1701 -0.1929
  505SOL    HW1 1514   2.296   1.214   1.336 -0.7967 -0.9774  3.6112
  505SOL    HW2 1515   2.412   1.223   1.457 -0.3061  1.9755 -0.4230
  506SOL     OW 1516   1.958   0.185   1.811  0.5949 -0.6169  0.0402
  506SOL    HW1 1517   2.027   0.115   1.837 -1.6772  1.4369 -0.6188
  506SOL    HW2 1518   1.968   0.269   1.865 -1.1166 -2.0623 -1.8534
  507SOL     OW 1519   0.521   0.680   2.134 -0.2430  0.1697  0.1217
  507SOL    HW1 1520   0.453   0.652   2.061  0.0113 -0.4352 -0.5937
  507SOL    HW2 1521   0.594   0.610   2.138  4.8721 -1.7847 -2.3953
  508SOL     OW 1522   0.300   1.620   0.797 -0.3990  0.5398  0.9901
  508SOL    HW1 1523   0.343   1.700   0.743  1.6128 -0.1706 -0.7773
  508SOL    HW2 1524   0.256   1.657   0.888  1.7598  1.2379  2.7989
  509SOL     OW 1525   1.184   1.268   2.351  0.3696  0.4732 -0.3659
  509SOL    HW1 1526   1.208   1.197   2.288 -0.8769  3.2041  4.5066
  509SOL    HW2 1527   1.105   1.238   2.421  0.7681 -0.3250  0.1321
  510SOL     OW 1528   1.263   2.064   2.203  0.3073 -0.3986 -0.6558
  510SOL    HW1 1529   1.265   2.130   2.126 -0.9607 -1.9685 -0.8000
  510SOL    HW2 1530   1.170   2.056   2.249 -2.1572 -0.3637  0.1664
  511SOL     OW 1531   3.026   2.727   1.305  0.5043  0.2822 -0.2817
  511SOL    HW1 1532   3.032   2.696   1.203 -0.2535  3.2642  1.3208
  511SOL    HW2 1533   2.929   2.746   1.338  2.6012  2.0548  1.8330
  512SOL     OW 1534   2.380   0.400   1.381  0.0102 -0.5654  0.1402
  512SOL    HW1 1535   2.276   0.405   1.391  2.9097  1.1165 -2.2476
  512SOL    HW2 1536   2.404   0.406   1.277 -2.2118 -2.6409 -0.7551
  513SOL     OW 1537   2.588   2.082   0.891 -0.3562 -0.2008 -0.6348
  513SOL    HW1 1538   2.556   2.151   0.819 -1.2542 -1.1679 -0.8625
  513SOL    HW2 1539   2.671   2.027   0.862  2.9183 -3.3857  0.7535
  514SOL     OW 1540   0.616   2.739   0.448  0.0396  0.1893 -0.9429
  514SOL    HW1 1541   0.618   2.787   0.354  0.3285  0.5583 -1.8206
  514SOL    HW2 1542   0.676   2.786   0.517 -0.6294 -0.8939  0.7438
  515SOL     OW 1543   1.964   1.233   2.374 -0.1445 -0.7019 -0.2209
  515SOL    HW1 1544   1.966   1.207   2.273  5.2034  3.1632  1.6610
  515SOL    HW2 1545   1.872   1.210   2.424  1.9050  1.4302 -0.6650
  516SOL     OW 1546   0.244   0.255   1.896 -0.5399  0.4669 -0.7128
  516SOL    HW1 1547   0.339   0.212   1.880 -2.2389  2.0885  1.8278
  516SOL    HW2 1548   0.170   0.182   1.879 -0.6103 -0.9101 -0.8484
  517SOL     OW 1549   0.395   0.015   1.116 -0.3677 -0.1262 -0.0477
  517SOL    HW1 1550   0.402   0.108   1.156  3.1499 -2.2258  0.0774
  517SOL    HW2 1551   0.304  -0.028   1.129  2.8873 -1.0254  0.3990
  518SOL     OW 1552   2.179   3.044   1.825  0.1975  0.1639  0.4571
  518SOL    HW1 1553   2.246   3.118   1.829 -2.3557 -0.2214  0.4549
  518SOL    HW2 1554   2.169   3.003   1.731 -0.1601  4.2153 -1.1467
  519SOL     OW 1555   2.362   2.147   2.504 -0.8721  0.3952  0.2633
  519SOL    HW1 1556   2.303   2.133   2.590 -1.7456  0.2985  1.9707
  519SOL    HW2 1557   2.376   2.245   2.478 -1.8086 -0.4188  0.0633
  520SOL     OW 1558   1.831   2.742   1.784 -0.4505  0.1032 -0.3291
  520SOL    HW1 1559   1.756   2.726   1.856 -2.0990  1.3961  0.6688
  520SOL    HW2 1560   1.860   2.655   1.736 -2.0852  0.4607 -0.5229
  521SOL     OW 1561   0.574   3.056   2.052  0.2502  0.2433  0.3673
  521SOL    HW1 1562   0.472   3.075   2.068  1.0494 -0.7710  2.7452
  521SOL    HW2 1563   0.625   3.053   2.141 -1.0991  0.3120  0.4868
  522SOL     OW 1564   0.242   1.874   1.468  0.0086 -0.1769  0.0104
  522SOL    HW1 1565   0.271   1.944   1.540  0.2152  1.3523  0.9734
  522SOL    HW2 1566   0.193   1.928   1.391 -0.1977 -0.0614 -1.2310
  523SOL     OW 1567   2.219   2.946   1.552  0.2412  0.4242  0.4703
  523SOL    HW1 1568   2.287   2.876   1.585  2.3129 -0.6614  0.6473
  523SOL    HW2 1569   2.158   2.899   1.483 -1.4232  0.7711 -2.0117
  524SOL     OW 1570   0.174   2.792   2.810 -0.0579  0.0764 -0.1163
  524SOL    HW1 1571   0.125   2.872   2.850 -0.6065  3.2142 -0.9753
  524SOL    HW2 1572   0.274   2.806   2.809  0.5637 -1.6872 -0.6380
  525SOL     OW 1573   2.168   2.033   0.387  0.0458  0.0463  0.3211
  525SOL    HW1 1574   2.182   1.951   0.451  0.7878 -0.0729 -1.0264
  525SOL    HW2 1575   2.185   1.999   0.290  1.2590 -0.1677 -1.8051
  526SOL     OW 1576   0.461   1.502   1.652 -0.4019  0.8874  0.0794
  526SOL    HW1 1577   0.535   1.522   1.717 -1.3191  0.2556  0.5907
  526SOL    HW2 1578   0.483   1.423   1.584 -3.1078  0.0754 -2.1982
  527SOL     OW 1579   1.021   2.878   1.239  0.4547  0.5128  0.1457
  527SOL    HW1 1580   1.106   2.819   1.217 -0.6416  0.3941 -1.4837
  527SOL    HW2 1581   1.032   2.984   1.223 -0.6698  1.9021  0.4792
  528SOL     OW 1582   1.371   2.374   0.542  0.7043  0.8169 -0.1678
  528SOL    HW1 1583   1.424   2.279   0.539  0.0884 -1.2385 -0.4805
  528SOL    HW2 1584   1.426   2.447   0.594  0.4658  0.7957  1.4871
  529SOL     OW 1585   1.972   1.747   0.724 -0.0321 -0.3615 -0.2562
  529SOL    HW1 1586   1.888   1.748   0.658 -1.5333 -1.4499  0.7000
  529SOL    HW2 1587   1.995   1.839   0.765  3.5709 -2.1334  2.7913
  530SOL     OW 1588   0.325   2.620   0.262  0.2602 -0.3887  0.0657
  530SOL    HW1 1589   0.316   2.688   0.342 -0.5902  1.4987  2.0368
  530SOL    HW2 1590   0.333   2.525   0.299 -3.5521 -0.7014 -1.7903
  531SOL     OW 1591   1.831   1.016   1.019  0.3566 -0.2157 -0.7699
  531SOL    HW1 1592   1.875   1.104   0.984  0.1848 -0.5709  2.0665
  531SOL    HW2 1593   1.746   0.976   0.966  0.2777 -1.8864 -1.8824
  532SOL     OW 1594   0.377   1.188   0.685 -0.3262 -0.2601  0.5962
  532SOL    HW1 1595   0.411   1.189   0.587 -0.1955 -0.9119 -1.7870
  532SOL    HW2 1596   0.343   1.101   0.728  0.6455 -1.7315  0.3836
  533SOL     OW 1597   1.761   0.020   2.574 -0.6501 -0.4083  0.2508
  533SOL    HW1 1598   1.863  -0.006   2.591 -2.1240 -1.5474  0.0335
  533SOL    HW2 1599   1.715   0.070   2.656 -2.0064  1.1939 -2.3512
  534SOL     OW 1600   0.329   0.180   1.594  0.5250  0.3696  1.1006
  534SOL    HW1 1601   0.408   0.195   1.531 -0.6934 -0.4205 -2.9661
  534SOL    HW2 1602   0.283   0.270   1.610 -1.6502  1.1784 -0.9594
  535SOL     OW 1603   1.912   0.417   0.230 -0.1487  0.0179 -0.7247
  535SOL    HW1 1604   1.943   0.499   0.292 -0.7647 -0.9265  0.9382
  535SOL    HW2 1605   1.841   0.358   0.284 -1.0285 -3.4829  1.2157
  536SOL     OW 1606   1.427   2.560   0.974  0.7616 -0.1974 -0.1013
  536SOL    HW1 1607   1.385   2.527   1.068 -2.0312 -0.5013  0.3456
  536SOL    HW2 1608   1.353   2.608   0.919  0.5143  0.0493  0.4330
  537SOL     OW 1609   0.814   0.189   2.323 -0.3681  0.3871  0.2098
  537SOL    HW1 1610   0.798   0.223   2.227  1.8040  1.9672  1.3305
  537SOL    HW2 1611   0.753   0.111   2.353 -0.4068 -1.9360 -5.3219
  538SOL     OW 1612   1.696   2.358   1.520 -0.3935  0.2085  0.0312
  538SOL    HW1 1613   1.645   2.266   1.514 -1.6184  0.2817  1.3860
  538SOL    HW2 1614   1.781   2.373   1.459  2.4294 -0.7178  0.4059
  539SOL     OW 1615   0.201   1.553   2.715  0.4903 -0.0469  0.3444
  539SOL    HW1 1616   0.151   1.569   2.627 -1.6355  0.1103  0.8332
  539SOL    HW2 1617   0.190   1.630   2.780 -0.6882 -0.7372  0.8396
  540SOL     OW 1618   2.729   1.684   1.985 -0.1402 -0.2042 -0.3786
  540SOL    HW1 1619   2.762   1.615   2.054  3.1552 -0.3641 -1.0767
  540SOL    HW2 1620   2.634   1.728   1.997 -2.9050 -1.1606  2.4961
  541SOL     OW 1621   0.458   2.291   3.092 -0.0782 -0.6402  0.9520
  541SOL    HW1 1622   0.481   2.241   3.181  0.3476 -0.7655 -1.5084
  541SOL    HW2 1623   0.365   2.278   3.052  1.8273  2.3339 -2.8449
  542SOL     OW 1624   2.269   2.559   0.402  0.4096 -0.3936  0.2986
  542SOL    HW1 1625   2.251   2.662   0.402 -0.5360 -0.9130 -0.6983
  542SOL    HW2 1626   2.182   2.507   0.429 -0.3574  1.7527  0.7874
  543SOL     OW 1627   1.080   1.775   1.649 -0.5566  0.7508 -0.2205
  543SOL    HW1 1628   1.039   1.810   1.740 -0.4225  1.3384 -1.4702
  543SOL    HW2 1629   1.044   1.824   1.563  0.9927  3.0318 -3.0360
  544SOL     OW 1630   1.027   0.404   0.211 -0.1147  0.1482 -0.5053
  544SOL    HW1 1631   1.022   0.297   0.226 -0.5429  2.2440  3.8602
  544SOL    HW2 1632   1.018   0.429   0.110 -0.5109  0.9203  1.8355
  545SOL     OW 1633   1.108   1.815   0.812  0.4106  0.2843 -0.5619
  545SOL    HW1 1634   1.205   1.846   0.805 -0.2698  1.0999 -0.6236
  545SOL    HW2 1635   1.094   1.730   0.867  3.0931 -0.6183 -0.2659
  546SOL     OW 1636   2.632   1.509   0.021  0.0625 -0.5214  0.6422
  546SOL    HW1 1637   2.594   1.546  -0.070 -1.0219  1.7267 -1.3476
  546SOL    HW2 1638   2.572   1.498   0.103  0.6171 -1.4700 -0.2972
  547SOL     OW 1639   0.554   3.085   2.689  0.2374  0.1709 -0.0768
  547SOL    HW1 1640   0.645   3.065   2.646  0.5385 -0.9603 -0.4563
  547SOL    HW2 1641   0.505   2.999   2.721 -2.9907 -3.0401 -0.2185
  548SOL     OW 1642   2.104   0.839   2.979  0.0829  0.3929 -0.1532
  548SOL    HW1 1643   2.001   0.814   2.967 -1.0373 -1.0146 -0.3850
  548SOL    HW2 1644   2.121   0.932   3.023 -0.3123 -1.1398 -3.5261
  549SOL     OW 1645   0.693   0.518   0.216  0.5122  0.2609  0.1054
  549SOL    HW1 1646   0.665   0.557   0.123 -0.0734 -0.0068 -3.2082
  549SOL    HW2 1647   0.780   0.567   0.245 -0.5933 -3.5972  1.1967
  550SOL     OW 1648   2.490   2.840   2.903  0.3754 -0.3182  0.3057
  550SOL    HW1 1649   2.469   2.774   2.984  1.2372  0.2516 -0.8737
  550SOL    HW2 1650   2.557   2.793   2.837  1.9618  1.7341 -0.5915
  551SOL     OW 1651   0.257   0.929   0.211  0.3933  0.3789  0.0694
  551SOL    HW1 1652   0.352   0.895   0.196 -2.1371 -1.7338  1.8157
  551SOL    HW2 1653   0.227   0.928   0.311 -4.1374  0.6295 -0.4955
  552SOL     OW 1654   0.721   2.977   1.849 -0.2691  0.1386  0.3126
  552SOL    HW1 1655   0.684   3.021   1.936  1.1214 -0.9698  1.5674
  552SOL    HW2 1656   0.804   3.015   1.815 -1.7951 -0.2433 -1.3026
  553SOL     OW 1657   3.002   2.546   0.325 -0.3298 -0.2112  0.1397
  553SOL    HW1 1658   2.966   2.449   0.320 -0.1597  0.3940 -0.9749
  553SOL    HW2 1659   2.955   2.601   0.393  2.9898 -2.0827 -0.0180
  554SOL     OW 1660   2.141   0.349   0.593  0.0064 -0.1432  0.2942
  554SOL    HW1 1661   2.221   0.350   0.523  1.8726  0.2211  1.3925
  554SOL    HW2 1662   2.160   0.280   0.668 -1.1177 -1.6518 -1.4615
  555SOL     OW 1663   0.394   2.780   2.526 -0.6409  0.0368 -0.0587
  555SOL    HW1 1664   0.312   2.838   2.496 -0.2014 -2.0502  0.7719
  555SOL    HW2 1665   0.440   2.743   2.441 -1.3902 -1.1657 -1.9585
  556SOL     OW 1666   0.808   2.396   1.508  0.6693 -0.2276  0.1147
  556SOL    HW1 1667   0.873   2.462   1.561  0.4014 -1.5746  2.6138
  556SOL    HW2 1668   0.851   2.338   1.433 -0.8823 -1.6908 -2.5439
  557SOL     OW 1669   0.099   2.065   0.158 -0.3013 -0.1440  0.4964
  557SOL    HW1 1670   0.053   1.981   0.120 -0.9306 -1.8302  3.9662
  557SOL    HW2 1671   0.150   2.124   0.089 -2.1687  1.6558  0.9880
  558SOL     OW 1672   2.921   2.281   0.281 -0.4172 -0.1098  0.0255
  558SOL    HW1 1673   2.829   2.249   0.315  0.8791 -0.9392  0.1671
  558SOL    HW2 1674   2.978   2.198   0.261  0.1737 -1.2271  1.8666
  559SOL     OW 1675   0.400   2.297   1.387 -0.1347  0.1164  0.6871
  559SOL    HW1 1676   0.298   2.317   1.366 -1.9331  1.4352  0.9055
  559SOL    HW2 1677   0.448   2.224   1.335 -0.6903 -1.0651  2.3752
  560SOL     OW 1678   2.094   1.151   3.074 -0.1599 -0.0101 -0.0358
  560SOL    HW1 1679   2.022   1.153   3.149  1.3853 -1.3251  2.6388
  560SOL    HW2 1680   2.147   1.241   3.069  0.8989  1.3757 -0.8279
  561SOL     OW 1681   3.030   1.857   0.014  0.2459 -0.4651  0.3682
  561SOL    HW1 1682   2.976   1.804   0.083  0.2353  3.4723 -0.4540
  561SOL    HW2 1683   2.990   1.951   0.004  3.0013 -2.0006 -0.6314
  562SOL     OW 1684   1.017   2.275   2.330 -0.6324 -0.0863 -0.1491
  562SOL    HW1 1685   0.963   2.186   2.370 -2.4475 -0.3141  2.9412
  562SOL    HW2 1686   0.997   2.362   2.382  0.2469 -0.5353  1.2608
  563SOL     OW 1687   0.707   2.564   2.634 -0.1669  0.2323 -0.3385
  563SOL    HW1 1688   0.787   2.496   2.626 -0.0663 -1.0254  0.6950
  563SOL    HW2 1689   0.696   2.604   2.730 -0.5605  2.1754  2.3942
  564SOL     OW 1690   2.773   1.307   2.943  0.9838 -0.1425 -0.5271
  564SOL    HW1 1691   2.711   1.343   3.016 -0.3819  0.0399 -1.3098
  564SOL    HW2 1692   2.809   1.378   2.873  2.5756 -1.4048 -1.8681
  565SOL     OW 1693   2.553   1.968   2.629 -0.1693 -0.5134  0.5026
  565SOL    HW1 1694   2.494   2.027   2.565  0.7657 -1.5873  0.2601
  565SOL    HW2 1695   2.634   2.015   2.674 -0.1455  0.7180  0.9195
  566SOL     OW 1696   2.048   2.809   1.386  0.9641  0.0545 -0.3106
  566SOL    HW1 1697   1.985   2.721   1.380 -2.2028 -1.6604 -1.1622
  566SOL    HW2 1698   2.043   2.861   1.300 -0.2563  0.3607  0.9403
  567SOL     OW 1699   2.465   0.071   2.308  0.1378 -0.6244  1.3234
  567SOL    HW1 1700   2.484   0.168   2.316 -4.7229 -0.8595 -0.2256
  567SOL    HW2 1701   2.468   0.046   2.206 -0.6448 -0.5255 -0.3026
  568SOL     OW 1702   1.510   1.793   0.296 -0.0052 -0.0997 -0.5780
  568SOL    HW1 1703   1.439   1.850   0.246 -0.7292 -0.0597  0.6297
  568SOL    HW2 1704   1.606   1.818   0.275  0.2457  0.6128  2.3880
  569SOL     OW 1705   0.261   0.680   0.777 -0.0909  0.0991  0.0918
  569SOL    HW1 1706   0.329   0.620   0.723  0.3641 -1.5136 -1.4497
  569SOL    HW2 1707   0.163   0.645   0.794  0.1164  3.7158  2.5964
  570SOL     OW 1708   0.584   0.877   2.881  0.0926  0.4403  0.4829
  570SOL    HW1 1709   0.646   0.881   2.795  1.0426  1.8478  1.7386
  570SOL    HW2 1710   0.622   0.942   2.949 -1.5600 -1.8479 -0.5891
  571SOL     OW 1711   0.762   3.071   1.002 -0.2118  0.0552  0.0331
  571SOL    HW1 1712   0.834   3.085   0.926 -0.7171  1.6632 -1.4453
  571SOL    HW2 1713   0.702   2.988   0.994  1.3007 -3.4274 -0.9197
  572SOL     OW 1714   1.589   2.627   1.306  0.5349 -0.2292  0.2505
  572SOL    HW1 1715   1.503   2.595   1.259  0.6059 -0.0728  2.8925
  572SOL    HW2 1716   1.598   2.735   1.313  0.8618  0.9848  2.6019
  573SOL     OW 1717   2.883   0.470   2.052 -0.5701  0.0811 -0.6760
  573SOL    HW1 1718   2.826   0.388   2.025 -0.7012  1.2035  2.2697
  573SOL    HW2 1719   2.836   0.566   2.037  0.2132  0.4924 -1.4691
  574SOL     OW 1720   0.192   1.700   1.023 -0.1742  0.1335 -0.3997
  574SOL    HW1 1721   0.155   1.797   1.014 -1.4197  0.7266  1.4419
  574SOL    HW2 1722   0.122   1.640   1.069 -0.6538 -1.3400  1.1378
  575SOL     OW 1723   0.881   2.154   0.955 -0.6019  0.3294  0.0166
  575SOL    HW1 1724   0.823   2.212   1.023 -1.3944 -1.3302  0.3583
  575SOL    HW2 1725   0.913   2.216   0.878 -1.3173 -0.5592 -2.1547
  576SOL     OW 1726   2.926   3.031   1.710  0.8729  0.4642  0.2214
  576SOL    HW1 1727   2.830   3.002   1.687  0.0747  1.9778  1.4550
  576SOL    HW2 1728   2.937   3.134   1.693  0.7698  0.5319  1.1881
  577SOL     OW 1729   2.490   1.234   0.021 -0.6122  0.0418 -0.0277
  577SOL    HW1 1730   2.511   1.148  -0.040  2.1821 -0.1817  1.4769
  577SOL    HW2 1731   2.570   1.252   0.084  3.1080 -0.9617 -3.2036
  578SOL     OW 1732   1.369   2.759   2.445  0.4479 -0.3869 -0.3128
  578SOL    HW1 1733   1.277   2.816   2.453  0.3547  0.6241  0.5046
  578SOL    HW2 1734   1.457   2.816   2.454  1.2622 -0.4981  0.4145
  579SOL     OW 1735   0.092   2.518   0.131  0.2324 -0.0229  0.2254
  579SOL    HW1 1736   0.002   2.533   0.185 -2.7113 -0.2431 -1.5940
  579SOL    HW2 1737   0.172   2.570   0.175  0.5287 -0.6642  1.8089
  580SOL     OW 1738   0.995   2.672   0.414 -0.9623  0.5423  0.0499
  580SOL    HW1 1739   1.085   2.694   0.356 -2.5700 -0.2064 -2.1771
  580SOL    HW2 1740   0.928   2.616   0.364 -0.7835  0.7116  1.1766
  581SOL     OW 1741   1.280   2.635   1.488 -0.0680  0.1351 -0.3321
  581SOL    HW1 1742   1.324   2.539   1.488  1.8404  0.9777  1.8225
  581SOL    HW2 1743   1.360   2.705   1.488  1.8863  1.9488 -1.2179
  582SOL     OW 1744   1.505   0.090   1.866  0.1042  0.0578  0.1129
  582SOL    HW1 1745   1.538   0.171   1.924  2.6020 -0.4472  0.0043
  582SOL    HW2 1746   1.573   0.061   1.794 -1.4425 -3.0931  0.1134
  583SOL     OW 1747   2.480   3.081   0.545 -0.0524 -0.4363  0.5680
  583SOL    HW1 1748   2.574   3.059   0.503 -0.2976  1.3989  1.7633
  583SOL    HW2 1749   2.421   3.009   0.587 -1.2935 -0.6871  0.0329
  584SOL     OW 1750   1.581   0.905   2.101  0.0801  0.7666  0.3469
  584SOL    HW1 1751   1.612   0.996   2.061 -0.2315 -1.5191 -2.4037
  584SOL    HW2 1752   1.625   0.880   2.196  0.0645  0.4977  4.5714
  585SOL     OW 1753   2.111   2.659   2.894 -0.2168  0.5978  0.4004
  585SOL    HW1 1754   2.103   2.556   2.882  0.5128 -2.0499  0.1076
  585SOL    HW2 1755   2.024   2.707   2.921  1.8920 -0.5048 -0.0175
  586SOL     OW 1756   2.842   0.390   1.537 -0.0502  0.0094  0.2240
  586SOL    HW1 1757   2.799   0.476   1.578  0.3181  0.8725 -0.2806
  586SOL    HW2 1758   2.777   0.310   1.548 -0.4150 -3.3516  0.4255
  587SOL     OW 1759   1.991   1.548   2.676  0.3879 -0.2699 -0.5783
  587SOL    HW1 1760   2.055   1.502   2.608 -0.7184  0.2397  0.0096
  587SOL    HW2 1761   1.997   1.526   2.775 -1.0752 -1.8837 -1.9593
  588SOL     OW 1762   0.458   2.697   2.267 -0.3647 -0.2991  0.1535
  588SOL    HW1 1763   0.357   2.672   2.250  0.3310 -0.0963  1.4096
  588SOL    HW2 1764   0.512   2.614   2.301  1.2797 -0.5008  1.1466
  589SOL     OW 1765   2.147   1.394   2.516  0.2081 -0.6028 -0.1302
  589SOL    HW1 1766   2.087   1.330   2.461 -0.7874  0.3336 -0.9043
  589SOL    HW2 1767   2.242   1.361   2.544 -0.6455 -1.7019  1.1234
  590SOL     OW 1768   2.348   1.674   2.040  0.3596 -0.0832  0.7746
  590SOL    HW1 1769   2.414   1.597   2.021 -2.0101 -0.4039 -1.9862
  590SOL    HW2 1770   2.354   1.710   2.135  0.0013  1.1801 -0.9375
  591SOL     OW 1771   1.297   2.394   0.261 -0.3192  0.5416 -0.0998
  591SOL    HW1 1772   1.314   2.304   0.212  0.0459  1.4997 -0.3981
  591SOL    HW2 1773   1.306   2.384   0.362 -3.2503 -1.3859  0.4910
  592SOL     OW 1774   1.802   2.277   0.721 -0.4561 -0.2459 -0.0102
  592SOL    HW1 1775   1.801   2.365   0.666  0.9400 -0.3709  1.7145
  592SOL    HW2 1776   1.900   2.240   0.734  1.3009 -1.2956  2.2480
  593SOL     OW 1777   0.693   0.223   0.260 -0.3056 -0.4124  0.1115
  593SOL    HW1 1778   0.739   0.191   0.170 -0.6023 -0.1518  0.4356
  593SOL    HW2 1779   0.725   0.316   0.294  1.5156  0.9598  0.7945
  594SOL     OW 1780   0.976   1.886   2.711  0.3888  0.4643  0.0535
  594SOL    HW1 1781   1.082   1.866   2.703  1.8989 -2.0231 -1.8623
  594SOL    HW2 1782   0.955   1.985   2.737  1.6636 -0.2122 -0.1654
  595SOL     OW 1783   1.551   0.067   1.083 -0.2859 -0.5946  0.4396
  595SOL    HW1 1784   1.598   0.001   1.146  1.6138  0.3220 -0.3792
  595SOL    HW2 1785   1.462   0.029   1.039 -0.2149 -0.0194  0.3246
  596SOL     OW 1786   3.079   1.438   2.254 -0.8157 -0.0644  0.2660
  596SOL    HW1 1787   3.056   1.336   2.273 -3.2361  0.3980 -1.1762
  596SOL    HW2 1788   3.119   1.484   2.339 -1.2158  2.6398 -1.5685
  597SOL     OW 1789   1.994   2.553   1.661 -0.1688  0.2674  0.8874
  597SOL    HW1 1790   2.065   2.514   1.599  1.4207  0.9407  2.6122
  597SOL    HW2 1791   2.038   2.560   1.750  1.3923 -2.2608 -2.2228
  598SOL     OW 1792   2.515   2.960   1.234  0.0292 -0.0602 -0.6914
  598SOL    HW1 1793   2.599   2.993   1.285 -0.7483 -0.0556 -0.9166
  598SOL    HW2 1794   2.542   2.932   1.139  1.5744 -0.4116 -0.8954
  599SOL     OW 1795   2.926   0.330   2.496 -0.2673  0.2934  0.1610
  599SOL    HW1 1796   3.025   0.343   2.460 -0.3017 -0.4350 -0.6449
  599SOL    HW2 1797   2.859   0.407   2.472  2.9483 -0.6827 -1.4201
  600SOL     OW 1798   2.815   1.101   2.753 -0.0842 -0.8901 -0.1654
  600SOL    HW1 1799   2.769   1.018   2.793 -0.5101  0.0045 -2.6487
  600SOL    HW2 1800   2.812   1.181   2.821  2.8527 -1.4582 -1.7750
  601SOL     OW 1801   2.976   1.305   1.974 -0.0588 -0.0138 -0.0826
  601SOL    HW1 1802   2.913   1.352   1.909  1.9293  1.4903  1.3576
  601SOL    HW2 1803   3.069   1.356   1.969 -0.6124  1.3676 -1.2543
  602SOL     OW 1804   1.479   1.733   2.357  0.5725 -0.3411 -0.4432
  602SOL    HW1 1805   1.397   1.674   2.330 -0.0535  0.2348 -0.7817
  602SOL    HW2 1806   1.563   1.684   2.389  2.4637 -3.1383 -0.0508
  603SOL     OW 1807   0.589   1.208   2.722 -0.1665  0.0942 -0.0704
  603SOL    HW1 1808   0.504   1.183   2.675  1.4401 -0.3760  2.6290
  603SOL    HW2 1809   0.666   1.142   2.696  0.5428  0.6437  1.5011
  604SOL     OW 1810   2.395   1.020   0.153  0.0380 -0.2479  0.2194
  604SOL    HW1 1811   2.429   1.103   0.093  0.4007 -1.5635 -2.5378
  604SOL    HW2 1812   2.415   0.929   0.106 -1.3820  1.8675  1.7921
  605SOL     OW 1813   2.533   1.137   1.944 -0.1894  0.0431 -0.0557
  605SOL    HW1 1814   2.571   1.054   1.887  0.2888 -1.6312 -0.8881
  605SOL    HW2 1815   2.601   1.194   1.992  1.8002 -0.3298  1.3292
  606SOL     OW 1816   1.507   2.526   2.542  0.7123  0.0968 -0.8700
  606SOL    HW1 1817   1.428   2.570   2.493  0.7248 -2.0636  3.2238
  606SOL    HW2 1818   1.495   2.423   2.562 -0.6478  0.6994  0.1174
  607SOL     OW 1819   1.328   1.578   0.320 -0.4605 -0.2295 -0.0878
  607SOL    HW1 1820   1.283   1.615   0.402  1.2518 -1.0086  0.7453
  607SOL    HW2 1821   1.401   1.644   0.285 -2.3767  0.0356  1.8923
  608SOL     OW 1822   1.431   2.854   0.342  0.1132 -0.2666  0.1002
  608SOL    HW1 1823   1.518   2.889   0.300 -0.7913 -2.2789  0.2144
  608SOL    HW2 1824   1.384   2.925   0.404 -1.0700  0.0813 -1.2293
  609SOL     OW 1825   1.273   1.344   0.187 -0.0906  0.2622 -0.1066
  609SOL    HW1 1826   1.266   1.418   0.252 -1.4469 -2.7131 -2.2787
  609SOL    HW2 1827   1.237   1.369   0.095 -2.3009  1.5713 -1.0206
  610SOL     OW 1828   3.006   1.161   2.217 -0.2792  0.3666  0.3481
  610SOL    HW1 1829   3.004   1.061   2.197 -1.0877  1.2507  0.8766
  610SOL    HW2 1830   2.978   1.215   2.133 -2.0579 -0.5608  1.6652
  611SOL     OW 1831   2.541   0.299   1.129  0.0385  0.2132  0.2265
  611SOL    HW1 1832   2.473   0.226   1.161  1.6136 -0.0437 -0.8083
  611SOL    HW2 1833   2.631   0.296   1.180 -0.5425  0.5572  1.6378
  612SOL     OW 1834   0.757   2.279   1.158  0.2632  0.1348 -0.3505
  612SOL    HW1 1835   0.682   2.207   1.177 -0.4364 -3.5433 -2.4484
  612SOL    HW2 1836   0.724   2.374   1.190  0.3911 -1.4874  0.2688
  613SOL     OW 1837   0.830   1.375   2.424  0.2900  0.3874  0.0660
  613SOL    HW1 1838   0.811   1.455   2.366 -0.7857  1.0148  2.8005
  613SOL    HW2 1839   0.798   1.287   2.377  2.6782  0.7277 -1.9746
  614SOL     OW 1840   1.550   1.643   1.989  0.3413  0.8830 -0.0307
  614SOL    HW1 1841   1.506   1.737   2.000 -1.0947 -1.0358 -3.0361
  614SOL    HW2 1842   1.644   1.627   2.035  0.8220  1.1416 -0.3293
  615SOL     OW 1843   0.781   1.363   1.741  0.2505 -0.0951  0.2776
  615SOL    HW1 1844   0.734   1.286   1.693  1.7169  1.1219  0.2412
  615SOL    HW2 1845   0.836   1.435   1.688  1.9406  1.3037 -1.2530
  616SOL     OW 1846   1.009   1.623   2.158  0.0429 -0.3022 -0.2104
  616SOL    HW1 1847   0.921   1.569   2.183  1.4847 -1.1273  0.6766
  616SOL    HW2 1848   0.993   1.710   2.101 -0.0934 -1.3261 -0.8176
  617SOL     OW 1849   2.961   1.550   1.642  0.2559 -0.2130 -0.1246
  617SOL    HW1 1850   2.900   1.476   1.689 -1.1668  0.1926 -0.8566
  617SOL    HW2 1851   2.995   1.517   1.553 -0.5850 -2.5904  2.1671
  618SOL     OW 1852   1.901   1.973   1.458  0.4112 -0.6211  0.3964
  618SOL    HW1 1853   1.922   1.920   1.372  1.3693 -0.0907  0.5594
  618SOL    HW2 1854   1.899   1.906   1.539  2.7866  1.7420 -0.1332
  619SOL     OW 1855   1.760   0.493   2.428 -0.2776  0.4065 -0.0502
  619SOL    HW1 1856   1.686   0.530   2.367 -0.0046 -2.7164 -0.7518
  619SOL    HW2 1857   1.745   0.394   2.452 -2.9208  1.5692 -0.1948
  620SOL     OW 1858   2.238   2.972   0.645  0.0022 -0.0884  0.4876
  620SOL    HW1 1859   2.162   3.038   0.684  1.9380  0.5495 -0.0921
  620SOL    HW2 1860   2.261   2.897   0.713 -1.5093 -2.4595  2.7398
  621SOL     OW 1861   2.163   1.836   1.301  0.0175  0.8076  0.3814
  621SOL    HW1 1862   2.162   1.842   1.404 -1.4972 -0.7992 -2.2734
  621SOL    HW2 1863   2.121   1.751   1.257 -1.1433  1.4306 -3.4083
  622SOL     OW 1864   2.239   0.925   1.815 -0.3289 -0.2295  0.0932
  622SOL    HW1 1865   2.333   0.971   1.820 -0.2157  0.3988 -1.5070
  622SOL    HW2 1866   2.240   0.823   1.795  0.2735  1.5676 -2.3652
  623SOL     OW 1867   1.331   0.838   2.646 -0.0934 -0.2371  0.0869
  623SOL    HW1 1868   1.273   0.788   2.716 -0.2815 -0.1615  0.0963
  623SOL    HW2 1869   1.271   0.871   2.567  0.4480  1.7841 -0.9909
  624SOL     OW 1870   0.590   0.657   3.069 -0.2145 -0.6997 -0.1018
  624SOL    HW1 1871   0.594   0.706   2.979 -0.4421 -1.6555  0.4963
  624SOL    HW2 1872   0.596   0.725   3.153  0.5378  0.5635 -0.2859
  625SOL     OW 1873   2.843   1.702   0.951  0.3723  0.3769  0.0552
  625SOL    HW1 1874   2.750   1.735   0.923  1.1623 -1.8167 -0.7696
  625SOL    HW2 1875   2.906   1.777   0.987  0.6878  1.5085  2.1806
  626SOL     OW 1876   0.592   2.737   1.811  0.1752 -0.9119  0.4678
  626SOL    HW1 1877   0.637   2.826   1.849 -1.1506  0.4451 -0.8499
  626SOL    HW2 1878   0.488   2.730   1.829 -1.4861  1.0527 -0.3765
  627SOL     OW 1879   0.736   1.018   1.536 -0.4483 -0.1989  0.4635
  627SOL    HW1 1880   0.770   0.937   1.485  0.3621  4.9486 -1.8311
  627SOL    HW2 1881   0.798   1.099   1.514 -0.8902  0.3345 -1.4235
  628SOL     OW 1882   2.388   0.159   0.723  0.2130  0.2475  0.2555
  628SOL    HW1 1883   2.440   0.109   0.650 -1.2621 -0.7886 -0.2076
  628SOL    HW2 1884   2.302   0.114   0.771  1.2924 -0.2924  0.7879
  629SOL     OW 1885   1.973   0.891   1.967  0.3076 -0.1328 -0.1651
  629SOL    HW1 1886   2.069   0.904   1.927  1.9537  2.6097  1.8583
  629SOL    HW2 1887   1.916   0.979   1.988 -0.5297 -0.3713 -1.4563
  630SOL     OW 1888   2.896   2.227   0.848 -0.9645 -0.7451 -0.0022
  630SOL    HW1 1889   2.811   2.288   0.862 -0.3992 -1.6325  2.1197
  630SOL    HW2 1890   2.864   2.140   0.797  0.2723 -0.8910  0.8809
  631SOL     OW 1891   2.951   0.153   2.126 -0.2951  0.5356  0.2938
  631SOL    HW1 1892   3.007   0.205   2.190 -2.1633  1.6055 -0.4427
  631SOL    HW2 1893   2.985   0.157   2.026  0.6065  1.6829 -2.2676
  632SOL     OW 1894   2.410   2.508   0.647  0.7541 -0.4414 -0.1285
  632SOL    HW1 1895   2.368   2.586   0.697  2.6644 -0.7205 -0.8430
  632SOL    HW2 1896   2.400   2.511   0.548 -0.1336 -0.6884  0.3877
  633SOL     OW 1897   1.414   1.216   2.544 -0.2254 -0.0206 -0.4157
  633SOL    HW1 1898   1.442   1.302   2.595  0.3961  1.3415 -0.0963
  633SOL    HW2 1899   1.343   1.228   2.472  2.0670  2.9845 -0.4330
  634SOL     OW 1900   0.708   1.954   0.896 -0.7049 -0.4265  0.7068
  634SOL    HW1 1901   0.623   1.983   0.951 -0.3401  0.4694  1.4666
  634SOL    HW2 1902   0.787   2.020   0.917 -0.0295 -0.3588  0.4669
  635SOL     OW 1903   3.038   2.321   3.098  0.6460 -0.4728 -0.0586
  635SOL    HW1 1904   2.955   2.372   3.060  0.9393  1.5507 -1.7041
  635SOL    HW2 1905   3.095   2.378   3.159 -0.2451 -0.1630  0.2791
  636SOL     OW 1906   2.255   2.721   2.079 -0.2047  0.2752  0.0323
  636SOL    HW1 1907   2.254   2.828   2.083 -2.3607 -0.8101 -1.9833
  636SOL    HW2 1908   2.256   2.676   2.168  2.5629 -1.4904  0.3665
  637SOL     OW 1909   2.640   0.707   2.060  0.0627  0.5360 -0.1509
  637SOL    HW1 1910   2.602   0.712   1.964  1.5959 -0.3726  0.6072
  637SOL    HW2 1911   2.672   0.801   2.089  1.1821  2.7390  1.5866
  638SOL     OW 1912   2.432   1.780   1.258 -0.2421 -0.1532 -0.2327
  638SOL    HW1 1913   2.337   1.796   1.296  1.4638 -1.6868  0.6489
  638SOL    HW2 1914   2.499   1.743   1.330  1.4542 -0.4185  0.5403
  639SOL     OW 1915   1.289   2.172   1.721 -0.0712 -0.0702 -0.3345
  639SOL    HW1 1916   1.342   2.101   1.667  0.2497  0.0228  3.6004
  639SOL    HW2 1917   1.187   2.158   1.711  0.3210 -0.8136 -0.3107
  640SOL     OW 1918   0.203   1.153   1.589  0.2922 -0.4592  0.1158
  640SOL    HW1 1919   0.190   1.184   1.689  1.7832 -1.0307 -1.4428
  640SOL    HW2 1920   0.294   1.103   1.587 -0.1861  0.6699 -1.3095
  641SOL     OW 1921   2.042   0.176   1.550 -0.2329 -0.0529 -0.1534
  641SOL    HW1 1922   2.015   0.197   1.647  2.5781  1.6613 -0.3654
  641SOL    HW2 1923   2.092   0.082   1.539 -0.8681 -2.9283  3.9291
  642SOL     OW 1924   1.986   0.090   0.300 -0.3516  0.4457 -0.5992
  642SOL    HW1 1925   2.067   0.109   0.369 -0.0524 -1.3507  1.8805
  642SOL    HW2 1926   1.896   0.080   0.353 -0.2642  0.5299 -0.4251
  643SOL     OW 1927   2.928   1.851   2.073 -0.4096  0.2006  0.1677
  643SOL    HW1 1928   2.903   1.753   2.041  0.5605  0.3510  2.4110
  643SOL    HW2 1929   2.886   1.923   2.011  0.6774 -0.5521 -1.7122
  644SOL     OW 1930   2.265   2.389   1.210  0.4453  0.5300  0.1745
  644SOL    HW1 1931   2.331   2.318   1.163  3.5081 -2.4578 -0.3594
  644SOL    HW2 1932   2.202   2.355   1.288 -0.4322 -2.4173 -0.5622
  645SOL     OW 1933   0.635   0.821   1.249  0.3279  0.7493 -0.5359
  645SOL    HW1 1934   0.546   0.856   1.283 -2.2707 -0.1977 -0.9930
  645SOL    HW2 1935   0.663   0.858   1.156  2.0108 -3.2387 -1.6999
  646SOL     OW 1936   1.442   1.895   2.000 -0.3942  0.2319 -0.7136
  646SOL    HW1 1937   1.501   1.931   1.925 -3.1981 -1.3470 -2.2321
  646SOL    HW2 1938   1.398   1.970   2.056 -0.8851  1.8592 -2.7127
  647SOL     OW 1939   0.809   1.088   0.674 -0.6122  0.0477 -0.0237
  647SOL    HW1 1940   0.870   1.115   0.750  1.6274 -1.6743  1.8791
  647SOL    HW2 1941   0.774   0.992   0.685  2.4669 -0.3793 -0.7738
  648SOL     OW 1942   0.099   0.205   0.208 -0.0754 -0.1067  0.5951
  648SOL    HW1 1943   0.144   0.140   0.135 -0.0484 -2.3818 -0.5510
  648SOL    HW2 1944   0.131   0.301   0.206  1.3181  0.2856 -2.1473
  649SOL     OW 1945   3.021   0.253   0.894 -0.2525 -0.0880 -0.0419
  649SOL    HW1 1946   3.116   0.241   0.860 -0.7187 -0.2180  1.4249
  649SOL    HW2 1947   3.013   0.324   0.967  1.9841  0.2669 -0.1285
  650SOL     OW 1948   2.765   0.688   1.450 -0.0591 -0.5117 -0.4006
  650SOL    HW1 1949   2.666   0.663   1.469  0.6188  0.3616  1.3981
  650SOL    HW2 1950   2.776   0.786   1.418 -3.3338 -0.7539  0.5512
  651SOL     OW 1951   0.915   1.565   1.609 -0.2031  0.1721  0.1236
  651SOL    HW1 1952   0.955   1.648   1.655  1.2961 -0.7345 -2.1514
  651SOL    HW2 1953   0.973   1.543   1.528  1.8703 -0.5064 -2.0967
  652SOL     OW 1954   2.333   2.413   2.502  0.1218  0.0863 -0.0221
  652SOL    HW1 1955   2.234   2.374   2.505  1.0750  0.0279 -0.5532
  652SOL    HW2 1956   2.329   2.513   2.468 -1.9923  1.1095 -0.2552
  653SOL     OW 1957   2.721   1.247   0.191 -0.2560  0.3354  0.0531
  653SOL    HW1 1958   2.745   1.318   0.260  2.9657  2.1025 -3.2094
  653SOL    HW2 1959   2.788   1.169   0.190 -1.1889  0.8790  0.6042
  654SOL     OW 1960   1.248   2.241   1.263  0.7644  0.4657  0.3015
  654SOL    HW1 1961   1.258   2.163   1.337  0.9283 -0.2817 -0.0583
  654SOL    HW2 1962   1.272   2.206   1.165  0.2840  0.0903 -2.2955
  655SOL     OW 1963   0.161   0.939   1.945  0.2188 -0.5464 -0.1020
  655SOL    HW1 1964   0.208   0.873   1.878  0.0161 -1.2760 -0.5989
  655SOL    HW2 1965   0.221   1.020   1.972 -2.1779  3.1326 -0.8366
  656SOL     OW 1966   2.572   2.469   2.636  0.1204  0.6873  0.3244
  656SOL    HW1 1967   2.653   2.433   2.578 -1.0363  2.3115  1.3592
  656SOL    HW2 1968   2.474   2.452   2.594 -3.0749  5.0659 -1.5128
  657SOL     OW 1969   2.996   1.039   1.927 -0.1118  0.7416  0.4909
  657SOL    HW1 1970   2.980   1.141   1.939 -0.0458 -1.1744  1.0861
  657SOL    HW2 1971   3.101   1.025   1.926  2.6691  2.6787  0.6691
  658SOL     OW 1972   1.669   0.212   2.381  0.5052  0.4325  0.2218
  658SOL    HW1 1973   1.697   0.142   2.455  0.7296 -1.7980  0.6999
  658SOL    HW2 1974   1.732   0.206   2.297  1.8359  3.5005 -1.3658
  659SOL     OW 1975   1.425   0.620   2.881  0.2873  0.6636  0.9631
  659SOL    HW1 1976   1.479   0.707   2.905  0.9563  0.3286 -1.2805
  659SOL    HW2 1977   1.320   0.635   2.869 -3.0519 -0.7293 -2.1177
  660SOL     OW 1978   1.413   0.342   1.428  0.2840  0.2371 -0.0886
  660SOL    HW1 1979   1.429   0.383   1.526  2.9737  0.0599  3.2884
  660SOL    HW2 1980   1.484   0.269   1.408 -1.9536 -0.5229  2.4034
  661SOL     OW 1981   2.470   1.190   0.667 -0.2352  0.0541  0.5879
  661SOL    HW1 1982   2.467   1.183   0.565  1.5750 -0.7092 -1.4167
  661SOL    HW2 1983   2.407   1.262   0.703  1.8018 -0.1104 -0.5047
  662SOL     OW 1984   1.406   0.439   1.773 -0.6396  0.4559  0.7609
  662SOL    HW1 1985   1.350   0.349   1.759 -1.2355  0.5782 -1.6905
  662SOL    HW2 1986   1.411   0.468   1.873  1.0998 -1.8549  1.4576
  663SOL     OW 1987   0.733   1.530   2.218 -0.0100 -0.5073 -0.2120
  663SOL    HW1 1988   0.671   1.608   2.222  1.6150  2.2269  0.9478
  663SOL    HW2 1989   0.706   1.478   2.137  0.7438  2.0882  3.1997
  664SOL     OW 1990   1.632   2.086   1.448 -0.3129  0.2695  0.0257
  664SOL    HW1 1991   1.563   2.055   1.520 -1.2819 -1.2144 -1.2595
  664SOL    HW2 1992   1.722   2.036   1.455  0.9792 -1.7060  0.4344
  665SOL     OW 1993   2.269   0.662   1.923 -0.2853 -0.0854  0.2540
  665SOL    HW1 1994   2.189   0.590   1.914  1.7887 -1.6580  0.3692
  665SOL    HW2 1995   2.299   0.671   2.023  1.0403  0.2514 -0.0301
  666SOL     OW 1996   0.386   2.323   0.347 -0.7088  0.7748  0.0821
  666SOL    HW1 1997   0.440   2.353   0.435  0.5283 -0.9800  1.5381
  666SOL    HW2 1998   0.288   2.292   0.364 -0.4013 -1.4728 -1.6568
  667SOL     OW 1999   1.982   0.201   1.194 -0.4459 -0.4091 -0.3001
  667SOL    HW1 2000   1.939   0.278   1.135  0.0903  0.2409 -0.2844
  667SOL    HW2 2001   1.914   0.176   1.270  0.9763 -0.9335  2.6087
  668SOL     OW 2002   2.024   0.480   1.134 -0.9930  0.5012  0.4799
  668SOL    HW1 2003   2.100   0.524   1.082 -3.0404 -2.6996  3.2487
  668SOL    HW2 2004   2.053   0.458   1.234 -1.2401  1.2153 -0.0764
  669SOL     OW 2005   0.012   2.175   1.007 -0.1417  0.3293 -0.2949
  669SOL    HW1 2006  -0.069   2.192   0.951 -0.3705 -1.7095  2.0492
  669SOL    HW2 2007   0.027   2.246   1.075  0.7662  0.7926  0.9392
  670SOL     OW 2008   2.847   2.350   1.952 -0.4609  0.1244 -0.2504
  670SOL    HW1 2009   2.795   2.313   2.033 -0.0487 -0.9913  1.8002
  670SOL    HW2 2010   2.842   2.453   1.949  0.1844 -2.5334  0.1075
  671SOL     OW 2011   1.749   1.720   1.474 -0.1103  0.2737  0.1697
  671SOL    HW1 2012   1.775   1.753   1.378  0.2623 -0.8109 -3.7418
  671SOL    HW2 2013   1.665   1.662   1.466 -0.0140  0.3387  1.6870
  672SOL     OW 2014   0.405   0.614   2.400 -0.3995  0.1249  0.0752
  672SOL    HW1 2015   0.456   0.637   2.316  2.5164  0.4862  1.6684
  672SOL    HW2 2016   0.330   0.685   2.420  0.0505  0.4515 -0.5171
  673SOL     OW 2017   0.126   1.152   1.146 -0.1647 -0.3707 -0.4189
  673SOL    HW1 2018   0.133   1.228   1.220  0.8103  0.5239 -0.6994
  673SOL    HW2 2019   0.219   1.119   1.124 -0.7885  0.9722  1.4065
  674SOL     OW 2020   1.651   2.969   0.221 -0.6887 -0.0246 -0.0925
  674SOL    HW1 2021   1.655   3.044   0.151 -0.6133  2.4012  4.0081
  674SOL    HW2 2022   1.721   2.895   0.202 -0.6774 -1.0023  0.5657
  675SOL     OW 2023   1.727   0.824   2.352 -0.6002  0.0022 -0.3123
  675SOL    HW1 2024   1.831   0.816   2.325  2.7288  0.4492  2.3983
  675SOL    HW2 2025   1.666   0.745   2.324 -0.9216 -1.4918  0.7768
  676SOL     OW 2026   2.509   1.453   1.989 -0.3933  0.0311  0.4316
  676SOL    HW1 2027   2.506   1.431   1.891  0.5962 -1.3938  0.0021
  676SOL    HW2 2028   2.507   1.363   2.044 -1.3592 -0.0835 -0.1092
  677SOL     OW 2029   1.925   0.667   0.858  0.5803  0.7000 -0.3176
  677SOL    HW1 2030   1.971   0.701   0.941  0.7424  0.8038 -4.4264
  677SOL    HW2 2031   1.934   0.565   0.850  0.0578  1.8098  0.7081
  678SOL     OW 2032   0.011   0.765   1.682 -0.4434 -0.1745  0.1663
  678SOL    HW1 2033   0.106   0.777   1.719  1.0029 -0.1499 -0.3217
  678SOL    HW2 2034  -0.058   0.739   1.756  0.1934 -0.1021 -1.5199
  679SOL     OW 2035   2.585   1.186   1.083  0.4889 -0.3406 -0.2068
  679SOL    HW1 2036   2.483   1.215   1.090 -2.2069 -0.8716  0.1945
  679SOL    HW2 2037   2.585   1.083   1.093  1.1821 -0.7887 -2.3865
  680SOL     OW 2038   2.798   0.613   1.710 -0.4675  0.2439 -0.1243
  680SOL    HW1 2039   2.787   0.669   1.624  0.9053  0.1179  1.2670
  680SOL    HW2 2040   2.866   0.653   1.779  0.1925  2.6069 -0.1044
  681SOL     OW 2041   3.003   0.192   1.657  0.0080 -0.2013  0.3446
  681SOL    HW1 2042   3.063   0.148   1.579 -1.1647  1.7560  2.4613
  681SOL    HW2 2043   2.958   0.281   1.629  1.3799 -1.2681 -4.3466
  682SOL     OW 2044   0.796   3.078   1.318 -1.2496  0.1998  0.0764
  682SOL    HW1 2045   0.704   3.032   1.356 -3.1431 -1.8123  0.9783
  682SOL    HW2 2046   0.793   3.097   1.213  1.7733  1.2070 -2.2202
  683SOL     OW 2047   1.345   0.211   2.210 -0.0952 -0.1994 -0.1541
  683SOL    HW1 2048   1.326   0.274   2.292  1.9053 -0.7071  2.5598
  683SOL    HW2 2049   1.434   0.244   2.166 -1.0608 -3.3346 -0.9264
  684SOL     OW 2050   1.454   2.122   0.521 -0.3630  0.3009  0.3410
  684SOL    HW1 2051   1.500   2.046   0.574  0.4617 -0.6664 -2.0533
  684SOL    HW2 2052   1.351   2.101   0.501 -1.8595 -0.1245 -1.5538
  685SOL     OW 2053   2.123   2.004   1.964  0.3724 -0.4516  0.1893
  685SOL    HW1 2054   2.207   1.983   1.909  0.3521 -0.0042  0.8405
  685SOL    HW2 2055   2.121   1.948   2.049 -0.3091 -2.4524  2.5537
  686SOL     OW 2056   1.512   1.795   2.720  0.3476  0.0372  0.5997
  686SOL    HW1 2057   1.546   1.755   2.812 -1.6258 -2.1863  0.6123
  686SOL    HW2 2058   1.576   1.758   2.646 -0.4616 -1.5733  0.0116
  687SOL     OW 2059   1.280   2.482   1.995 -0.3690  0.5993 -0.0408
  687SOL    HW1 2060   1.286   2.375   2.010 -1.4821  1.1170 -0.7214
  687SOL    HW2 2061   1.332   2.533   2.067 -1.1207 -4.8778  2.1974
  688SOL     OW 2062   2.062   1.528   1.736 -0.2774  0.5743 -0.0828
  688SOL    HW1 2063   2.147   1.576   1.776 -0.7717  0.8773  2.4357
  688SOL    HW2 2064   2.057   1.524   1.634 -2.1556 -0.0303  1.8982
  689SOL     OW 2065   2.438   1.066   2.697  0.3334 -0.0659 -0.7014
  689SOL    HW1 2066   2.336   1.044   2.717 -2.4819  0.0496  1.1070
  689SOL    HW2 2067   2.485   1.077   2.788  0.4049 -0.6647  0.3222
  690SOL     OW 2068   2.251   2.805   0.015  0.3917 -0.2461 -0.2514
  690SOL    HW1 2069   2.204   2.769  -0.069  2.6851 -0.0420 -0.0767
  690SOL    HW2 2070   2.192   2.841   0.093  1.5725 -1.2597  3.2849
  691SOL     OW 2071   2.588   0.480   2.210 -0.1209 -0.1281  0.4801
  691SOL    HW1 2072   2.642   0.397   2.183  1.6061  0.3979  2.1625
  691SOL    HW2 2073   2.614   0.569   2.156  0.4395  3.1064 -3.1847
  692SOL     OW 2074   2.752   1.226   0.728  0.7853 -0.1347 -0.6225
  692SOL    HW1 2075   2.654   1.217   0.687  0.2542 -1.0294  0.7313
  692SOL    HW2 2076   2.768   1.313   0.781 -1.0213 -0.2050  2.1739
  693SOL     OW 2077   2.818   2.933   0.619 -0.8022  0.0989  0.3337
  693SOL    HW1 2078   2.805   3.006   0.696 -1.1419  1.2205 -0.0223
  693SOL    HW2 2079   2.790   2.961   0.522  1.8886  1.0704  1.8084
  694SOL     OW 2080   2.347   2.185   0.074 -0.0022 -0.0852 -0.1722
  694SOL    HW1 2081   2.353   2.270   0.133  2.2577  1.1861  1.1313
  694SOL    HW2 2082   2.250   2.157   0.041 -1.7172 -1.2530 -0.3737
  695SOL     OW 2083   0.586   2.972   1.451  0.5440 -0.1716  0.4510
  695SOL    HW1 2084   0.539   2.883   1.421 -0.5694 -2.3570 -0.7232
  695SOL    HW2 2085   0.530   3.021   1.527 -2.0045  1.1321  0.4431
  696SOL     OW 2086   2.801   1.944   0.773  0.6312  0.1504  0.4687
  696SOL    HW1 2087   2.874   1.883   0.737 -1.7034 -1.5016  3.2537
  696SOL    HW2 2088   2.718   1.938   0.711  0.2161 -0.8358 -0.2794
  697SOL     OW 2089   1.614   2.039   1.824  0.0779  0.4038 -0.0918
  697SOL    HW1 2090   1.707   2.007   1.862 -2.4766  2.2497  0.0642
  697SOL    HW2 2091   1.617   2.130   1.783  0.9347  0.9294  0.5594
  698SOL     OW 2092   2.940   0.437   2.754 -0.0696 -0.1294 -0.2234
  698SOL    HW1 2093   2.907   0.398   2.662 -2.1742  0.4105 -1.1785
  698SOL    HW2 2094   2.987   0.361   2.800  1.4802 -1.3578 -2.6733
  699SOL     OW 2095   1.579   0.081   2.930  0.0777  0.4475  0.3190
  699SOL    HW1 2096   1.567  -0.007   2.869 -1.8300 -2.2215 -2.5556
  699SOL    HW2 2097   1.616   0.167   2.879  0.1748  0.7842  1.0188
  700SOL     OW 2098   0.976   2.309   1.324  0.5504  0.1183  0.3572
  700SOL    HW1 2099   1.073   2.281   1.305  0.1857 -2.4474 -1.4772
  700SOL    HW2 2100   0.907   2.268   1.256  0.9828  1.5181 -0.1469
  701SOL     OW 2101   1.934   2.840   3.058  0.5331 -0.3393  0.0171
  701SOL    HW1 2102   1.906   2.797   3.149 -1.2377  1.7471 -0.2670
  701SOL    HW2 2103   1.947   2.940   3.057 -0.5602 -1.4585  1.2790
  702SOL     OW 2104   2.077   1.350   1.987 -0.1766  0.3170 -1.0436
  702SOL    HW1 2105   2.168   1.299   1.973  0.7189 -1.4770 -1.8887
  702SOL    HW2 2106   2.052   1.391   1.898  2.0670 -1.8234  0.5189
  703SOL     OW 2107   1.939   0.895   1.423  0.6168 -0.2672  0.1088
  703SOL    HW1 2108   1.919   0.803   1.459  0.0927  2.4544  0.7062
  703SOL    HW2 2109   1.984   0.955   1.495 -0.5241  2.3319 -0.7386
  704SOL     OW 2110   0.317   2.052   1.662  0.0125 -0.1133 -0.3384
  704SOL    HW1 2111   0.344   1.999   1.750  2.5496  1.8849  0.4705
  704SOL    HW2 2112   0.384   2.129   1.657  1.3413 -1.9237 -1.4030
  705SOL     OW 2113   2.490   1.467   0.964 -0.3874 -0.7520 -0.1106
  705SOL    HW1 2114   2.467   1.467   0.864 -0.6797 -0.9646 -0.7482
  705SOL    HW2 2115   2.568   1.400   0.980 -0.7474  0.1609 -0.9702
  706SOL     OW 2116   0.653   1.662   1.828  0.7151  0.7445  0.2431
  706SOL    HW1 2117   0.683   1.574   1.874 -0.2522 -1.5641  0.8720
  706SOL    HW2 2118   0.678   1.748   1.887 -2.2238  1.9708  1.0724
  707SOL     OW 2119   2.288   1.208   1.889  0.2572 -0.1582  0.2047
  707SOL    HW1 2120   2.386   1.176   1.912 -0.0274  0.9007 -0.8478
  707SOL    HW2 2121   2.227   1.133   1.868  2.6385 -0.5277 -0.3753
  708SOL     OW 2122   3.050   0.542   3.075 -0.2736 -0.5333  0.4517
  708SOL    HW1 2123   3.024   0.612   2.999 -1.4519 -0.5434 -1.7961
  708SOL    HW2 2124   3.041   0.444   3.040 -2.9377  0.8773 -4.7203
  709SOL     OW 2125   1.820   1.851   0.209 -0.1265  0.0434 -0.4664
  709SOL    HW1 2126   1.829   1.947   0.249  2.7521  0.5160 -1.2568
  709SOL    HW2 2127   1.828   1.858   0.108 -0.4296 -1.2267  0.7038
  710SOL     OW 2128   1.737   1.642   2.442 -0.9243 -0.4397 -0.1554
  710SOL    HW1 2129   1.766   1.613   2.347 -0.7430 -3.2223  1.5693
  710SOL    HW2 2130   1.759   1.569   2.506 -0.4440  0.2654 -0.7652
  711SOL     OW 2131   2.671   2.985   0.962  0.4796  0.2186 -0.4681
  711SOL    HW1 2132   2.632   3.083   0.944  1.2286  0.8018 -0.0631
  711SOL    HW2 2133   2.775   2.981   0.961  0.3543  1.8846  1.4151
  712SOL     OW 2134   1.340   2.209   1.995 -0.0522 -0.5689  0.1636
  712SOL    HW1 2135   1.439   2.213   2.017 -2.1691  1.9559  1.4239
  712SOL    HW2 2136   1.319   2.189   1.896  1.2833  1.0783  0.6446
  713SOL     OW 2137   2.939   1.456   2.544  0.5485  0.0267  0.4659
  713SOL    HW1 2138   2.887   1.369   2.517  1.7138  0.0121  1.4267
  713SOL    HW2 2139   2.915   1.480   2.645 -0.9708 -2.3721  0.8010
  714SOL     OW 2140   2.713   0.495   2.485 -0.8490 -0.1179  0.3026
  714SOL    HW1 2141   2.655   0.454   2.559  1.0451  0.1514 -0.0189
  714SOL    HW2 2142   2.669   0.487   2.394 -0.7121 -0.5342  1.0211
  715SOL     OW 2143   1.604   2.014   1.146  0.0543  0.3057  0.7733
  715SOL    HW1 2144   1.548   2.084   1.097  2.6635 -0.0448  0.8565
  715SOL    HW2 2145   1.630   2.043   1.244  1.3009  0.8648  2.5522
  716SOL     OW 2146   1.211   0.119   1.465  0.4977 -0.6738 -0.1315
  716SOL    HW1 2147   1.114   0.151   1.455  1.8524 -1.7085  1.6656
  716SOL    HW2 2148   1.283   0.189   1.434  1.5194 -4.0724  2.4258
  717SOL     OW 2149   1.139   0.518   1.598 -0.1393  0.4956 -0.2022
  717SOL    HW1 2150   1.213   0.579   1.633 -2.0919  1.1165  2.3373
  717SOL    HW2 2151   1.150   0.493   1.500 -1.2408 -2.1211  1.4787
  718SOL     OW 2152   0.675   0.951   0.983  0.0512 -0.0316  0.6745
  718SOL    HW1 2153   0.673   0.912   0.884  1.0812 -0.2271  1.3671
  718SOL    HW2 2154   0.659   1.055   0.992 -1.5035 -2.3521 -2.2174
  719SOL     OW 2155   0.625   1.769   2.307 -0.0919 -0.5142  1.2573
  719SOL    HW1 2156   0.709   1.801   2.361  0.8296  2.4518 -0.7221
  719SOL    HW2 2157   0.567   1.703   2.360 -0.1898  1.7790 -1.6737
  720SOL     OW 2158   2.184   1.160   0.289 -0.1021  0.0592  0.3604
  720SOL    HW1 2159   2.230   1.086   0.239 -0.1450  3.6740  1.0244
  720SOL    HW2 2160   2.165   1.142   0.388  0.5317 -0.1652 -2.1965
  721SOL     OW 2161   2.253   2.991   2.122  0.3816 -0.3199 -0.2900
  721SOL    HW1 2162   2.187   3.057   2.071 -3.7736  1.2978  2.0439
  721SOL    HW2 2163   2.255   3.006   2.225 -0.8914 -1.9555  1.3061
  722SOL     OW 2164   2.402   1.579   0.475 -0.0705  0.2855  0.5081
  722SOL    HW1 2165   2.447   1.554   0.382  3.2501 -0.2695  0.3329
  722SOL    HW2 2166   2.351   1.666   0.473 -2.4942 -0.0630  0.2054
  723SOL     OW 2167   2.523   2.710   1.966 -0.3119  0.0622  0.3368
  723SOL    HW1 2168   2.563   2.790   2.022 -2.2173  0.5327  1.5008
  723SOL    HW2 2169   2.424   2.696   1.985 -1.1840 -0.4439 -0.5718
  724SOL     OW 2170   0.526   2.480   2.417 -0.3523  0.0030  0.0843
  724SOL    HW1 2171   0.431   2.458   2.450 -0.9381  0.9776  2.0938
  724SOL    HW2 2172   0.590   2.510   2.492  3.4443  1.7029 -0.4532
  725SOL     OW 2173   2.476   2.801   1.509 -0.4000 -0.3483 -0.3960
  725SOL    HW1 2174   2.471   2.842   1.413 -1.1551 -2.8278  1.0326
  725SOL    HW2 2175   2.513   2.702   1.506  0.0870 -2.1832 -2.1179
  726SOL     OW 2176   2.492   2.256   0.688 -0.6771 -0.1701 -0.4037
  726SOL    HW1 2177   2.462   2.361   0.682  0.4234  0.0946 -0.2453
  726SOL    HW2 2178   2.446   2.205   0.615  3.1357  0.4178  0.4148
  727SOL     OW 2179   0.157   3.072   0.034 -0.0641 -0.0579 -0.2650
  727SOL    HW1 2180   0.191   2.978   0.060 -0.4831  1.9531 -0.4127
  727SOL    HW2 2181   0.179   3.085  -0.069 -0.2760 -0.1078 -1.4934
  728SOL     OW 2182   2.873   0.655   0.967  0.5926  0.5148 -0.1542
  728SOL    HW1 2183   2.777   0.659   0.928  1.6488 -2.3212 -0.2220
  728SOL    HW2 2184   2.880   0.615   1.066 -1.9255 -2.0550  2.7132
  729SOL     OW 2185   3.011   2.485   0.746 -0.2631  0.5172 -0.0971
  729SOL    HW1 2186   2.972   2.401   0.790  3.4023 -1.0150 -1.6406
  729SOL    HW2 2187   3.117   2.477   0.733  3.3154 -2.8448  0.7190
  730SOL     OW 2188   2.633   0.669   0.836 -0.0045 -0.6124 -0.4446
  730SOL    HW1 2189   2.588   0.757   0.839  1.8728  0.3934 -1.4641
  730SOL    HW2 2190   2.708   0.673   0.765  0.7785  0.8190  0.9816
  731SOL     OW 2191   0.117   2.106   2.487  0.1103  0.2142 -0.8195
  731SOL    HW1 2192   0.047   2.129   2.557  1.4296  0.8637 -2.4961
  731SOL    HW2 2193   0.196   2.171   2.476  1.3963 -0.3741 -0.5169
  732SOL     OW 2194   1.135   2.819   1.934 -0.1518  0.3278  0.1795
  732SOL    HW1 2195   1.159   2.782   2.030  1.1465 -0.8501  1.2555
  732SOL    HW2 2196   1.136   2.744   1.860  0.1522 -0.7068 -1.7966
  733SOL     OW 2197   3.048   0.580   2.229 -0.2215  0.0192  0.0301
  733SOL    HW1 2198   3.140   0.613   2.183  2.3374 -0.6518  1.0413
  733SOL    HW2 2199   2.979   0.548   2.161 -1.0696  3.4097 -4.0955
  734SOL     OW 2200   1.399   0.374   2.763 -0.2794 -0.3181  0.5135
  734SOL    HW1 2201   1.394   0.475   2.778 -0.4970  0.5394  0.7564
  734SOL    HW2 2202   1.306   0.325   2.758 -0.4759  0.7116  0.7544
  735SOL     OW 2203   2.892   2.629   2.280 -0.0168 -0.1859 -0.3339
  735SOL    HW1 2204   2.851   2.636   2.187 -1.6823  0.0195  0.3235
  735SOL    HW2 2205   2.983   2.683   2.286  1.8720 -0.7533  0.8275
  736SOL     OW 2206   0.792   0.306   2.643 -0.6154  0.0536  0.3438
  736SOL    HW1 2207   0.694   0.334   2.629  3.1326 -1.3564  0.1777
  736SOL    HW2 2208   0.830   0.266   2.561 -0.4406 -1.2326  4.1148
  737SOL     OW 2209   2.667   0.501   2.873  0.2543 -0.5950 -0.3928
  737SOL    HW1 2210   2.642   0.458   2.966 -1.8773  1.1972  0.1731
  737SOL    HW2 2211   2.767   0.519   2.854  0.1026  1.2197  1.9692
  738SOL     OW 2212   1.635   1.276   2.909 -0.1506  0.3102  0.0999
  738SOL    HW1 2213   1.735   1.274   2.930 -1.4425  1.0750  2.1528
  738SOL    HW2 2214   1.599   1.185   2.867  0.4006  1.2812  0.9478
  739SOL     OW 2215   1.717   0.631   0.674 -0.1086 -0.4354  0.4527
  739SOL    HW1 2216   1.789   0.641   0.749  2.7009 -0.8705  2.1162
  739SOL    HW2 2217   1.715   0.531   0.639 -1.7002 -1.8913  1.6116
  740SOL     OW 2218   1.969   1.899   2.228  0.2656 -0.1455 -0.4591
  740SOL    HW1 2219   2.001   1.815   2.277 -2.2200  3.0213  1.3781
  740SOL    HW2 2220   1.862   1.894   2.213 -1.5213  0.6006 -1.8477
  741SOL     OW 2221   2.532   0.051   2.600 -0.5245 -0.3246  0.0507
  741SOL    HW1 2222   2.635   0.036   2.590  0.1518  1.9449  0.4868
  741SOL    HW2 2223   2.486   0.030   2.510  0.0272 -0.8154  2.4083
  742SOL     OW 2224   2.239   1.435   0.223  0.0881 -0.4360  0.2542
  742SOL    HW1 2225   2.155   1.490   0.228  1.1355  2.1773  0.8351
  742SOL    HW2 2226   2.242   1.345   0.273  0.2820 -1.4089 -0.3327
  743SOL     OW 2227   1.855   0.665   2.598  0.0241  0.2417  0.0322
  743SOL    HW1 2228   1.823   0.578   2.540 -2.5286 -0.5809  0.0726
  743SOL    HW2 2229   1.774   0.725   2.602  1.3374 -0.2640 -1.4677
  744SOL     OW 2230   2.614   2.116   0.141 -0.4071 -0.3381 -0.1391
  744SOL    HW1 2231   2.517   2.132   0.133  4.1816  1.6584 -0.2764
  744SOL    HW2 2232   2.628   2.018   0.165  0.0408 -2.0953 -0.5741
  745SOL     OW 2233   2.169   2.612   2.329  0.1248 -0.2950  0.8518
  745SOL    HW1 2234   2.096   2.596   2.256  0.8384  2.7438 -0.3426
  745SOL    HW2 2235   2.146   2.699   2.384  0.4028  1.0696 -1.5169
  746SOL     OW 2236   0.005   2.617   1.714  0.2638 -0.0440 -0.0883
  746SOL    HW1 2237   0.073   2.592   1.638 -0.5871  0.2729  0.4345
  746SOL    HW2 2238   0.019   2.716   1.745  0.3926 -1.9160 -0.6742
  747SOL     OW 2239   0.050   1.767   1.663 -0.3350  0.2821 -0.6272
  747SOL    HW1 2240  -0.027   1.693   1.652 -0.5421 -0.1739 -0.4985
  747SOL    HW2 2241   0.112   1.771   1.583 -1.1222  0.7300  4.0735
  748SOL     OW 2242   1.811   2.744   2.831 -0.1218 -0.2787  0.0144
  748SOL    HW1 2243   1.856   2.780   2.915 -2.8143  0.1530 -0.2743
  748SOL    HW2 2244   1.710   2.731   2.829  0.0921  4.5917  1.9824
  749SOL     OW 2245   1.329   3.049   0.961 -0.7578  0.0066 -0.4865
  749SOL    HW1 2246   1.247   2.986   0.968 -1.9184 -0.8236  0.8214
  749SOL    HW2 2247   1.400   3.015   0.897 -2.4625  1.2496  3.2798
  750SOL     OW 2248   2.303   0.182   1.886  0.3138  0.1827 -0.1697
  750SOL    HW1 2249   2.305   0.258   1.813  0.1585  1.4318 -0.8056
  750SOL    HW2 2250   2.320   0.224   1.983 -0.4322 -2.0642 -0.4574
  751SOL     OW 2251   0.901   2.151   2.775 -0.3314 -0.8653 -1.0090
  751SOL    HW1 2252   0.960   2.171   2.857  0.5011  1.2184 -1.4092
  751SOL    HW2 2253   0.804   2.126   2.807  0.2454  0.6017 -0.8380
  752SOL     OW 2254   1.288   0.867   1.366 -0.5540  0.4358  0.4150
  752SOL    HW1 2255   1.370   0.927   1.336  3.0345 -0.6524 -2.1299
  752SOL    HW2 2256   1.318   0.766   1.375  2.3176 -1.1348 -0.3898
  753SOL     OW 2257   0.919   2.571   1.675  0.0989 -0.2918 -0.0744
  753SOL    HW1 2258   1.015   2.597   1.692 -1.8137  1.5572 -0.1724
  753SOL    HW2 2259   0.861   2.650   1.638 -2.2489 -1.2123  2.4492
  754SOL     OW 2260   1.087   1.214   3.016  0.5805  0.3278  0.7318
  754SOL    HW1 2261   1.167   1.158   2.985  0.7181  1.6697  1.6694
  754SOL    HW2 2262   1.112   1.311   3.011 -2.1230 -0.4275  0.7305
  755SOL     OW 2263   1.982   0.464   2.232  0.1786 -0.4249 -0.0727
  755SOL    HW1 2264   2.057   0.409   2.273  0.3239  0.9216  1.1747
  755SOL    HW2 2265   1.895   0.460   2.287 -2.2503 -0.3598 -2.8024
  756SOL     OW 2266   2.550   1.032   2.947 -0.1700 -0.0659  0.3338
  756SOL    HW1 2267   2.649   1.011   2.987  2.2237  2.0315 -0.9397
  756SOL    HW2 2268   2.485   0.957   2.968 -0.6880 -3.0510 -1.8518
  757SOL     OW 2269   0.024   0.493   1.832 -0.8898 -0.6218 -0.8293
  757SOL    HW1 2270   0.078   0.434   1.766 -1.1075 -1.5412 -3.1644
  757SOL    HW2 2271  -0.018   0.432   1.902  5.6072 -1.2563 -0.6636
  758SOL     OW 2272   2.382   0.093   1.472  0.1798 -0.1601 -0.8065
  758SOL    HW1 2273   2.336   0.010   1.510 -1.8165  2.3190  1.8846
  758SOL    HW2 2274   2.364   0.116   1.377 -1.7500  2.3941  0.3810
  759SOL     OW 2275   1.703   0.065   0.065  0.1846 -0.1798 -0.1156
  759SOL    HW1 2276   1.643   0.060  -0.021 -1.0260 -0.9525  2.0641
  759SOL    HW2 2277   1.803   0.076   0.041 -0.2162  0.5247 -0.4908
  760SOL     OW 2278   2.722   2.102   2.805  0.2210 -0.6822 -0.2726
  760SOL    HW1 2279   2.734   2.004   2.830  0.0345 -1.1653  0.8978
  760SOL    HW2 2280   2.687   2.159   2.886  0.8792  0.3714 -0.7790
  761SOL     OW 2281   1.896   1.758   1.714  0.1017  0.1701  0.6607
  761SOL    HW1 2282   1.936   1.662   1.733  1.7952  0.0553  1.5360
  761SOL    HW2 2283   1.831   1.759   1.627 -1.2694 -2.1289 -3.6539
  762SOL     OW 2284   0.480   2.363   0.992  0.3553 -0.2668 -0.1447
  762SOL    HW1 2285   0.503   2.386   0.896 -3.8581 -3.1869  1.4145
  762SOL    HW2 2286   0.531   2.426   1.062 -2.2452  0.4937 -1.0153
  763SOL     OW 2287   2.067   1.505   2.931 -0.3023 -0.3204 -0.5347
  763SOL    HW1 2288   2.173   1.489   2.947 -1.0560  0.1558 -0.6675
  763SOL    HW2 2289   2.001   1.453   3.000 -0.2704  0.5925 -0.7472
  764SOL     OW 2290   0.656   0.609   0.846 -0.2842 -0.1044  0.5710
  764SOL    HW1 2291   0.613   0.523   0.810 -0.7960 -0.1388 -0.0898
  764SOL    HW2 2292   0.735   0.581   0.905 -0.4578  1.9000 -0.5862
  765SOL     OW 2293   0.714   0.262   0.756  0.0757 -0.1003  0.2539
  765SOL    HW1 2294   0.796   0.284   0.695  0.4390  0.4279  1.7899
  765SOL    HW2 2295   0.730   0.278   0.851  1.2360 -1.7686 -2.8531
  766SOL     OW 2296   2.869   2.100   0.017  0.4631 -0.3050 -0.0498
  766SOL    HW1 2297   2.770   2.116   0.043  0.4928  0.9622 -0.0169
  766SOL    HW2 2298   2.922   2.187   0.003 -0.1093  2.6646 -2.8046
  767SOL     OW 2299   2.810   1.571   0.613 -0.3826 -0.2488  0.1695
  767SOL    HW1 2300   2.723   1.622   0.637 -0.5464  0.0533 -1.6064
  767SOL    HW2 2301   2.891   1.638   0.642 -1.3105  3.2644 -0.4059
  768SOL     OW 2302   1.058   0.162   0.275  0.6348  0.2650  0.6192
  768SOL    HW1 2303   1.021   0.093   0.344  1.3991  1.2699 -1.6900
  768SOL    HW2 2304   1.160   0.146   0.265  1.8759 -0.5692  0.5070
  769SOL     OW 2305   0.992   1.909   2.216 -0.1074 -0.1177 -0.4530
  769SOL    HW1 2306   0.926   1.894   2.294 -1.0162 -0.9349  2.3678
  769SOL    HW2 2307   1.085   1.881   2.248 -1.3657 -0.3172  0.9233
  770SOL     OW 2308   0.189   1.127   2.311  0.0140  0.0600 -0.1961
  770SOL    HW1 2309   0.154   1.188   2.387  0.5698 -0.4732 -0.9035
  770SOL    HW2 2310   0.130   1.042   2.297 -0.7653  2.9318  0.1105
  771SOL     OW 2311   3.010   2.840   1.901  0.1587  0.7180  0.3876
  771SOL    HW1 2312   2.987   2.907   1.823  2.0783 -1.4677 -1.5316
  771SOL    HW2 2313   2.971   2.873   1.994  0.2375  0.9922  2.5140
  772SOL     OW 2314   2.202   0.227   2.897  0.1505 -0.2623  0.0537
  772SOL    HW1 2315   2.272   0.155   2.891 -0.0059  3.7266  2.0437
  772SOL    HW2 2316   2.191   0.258   2.992 -1.6937 -0.2308  0.2551
  773SOL     OW 2317   0.754   2.188   2.450  0.4696  0.5856 -0.1687
  773SOL    HW1 2318   0.710   2.231   2.372  0.2911  0.6377  0.2846
  773SOL    HW2 2319   0.681   2.162   2.516  1.9601 -0.7791 -2.9065
  774SOL     OW 2320   2.035   3.089   2.641  0.1530  0.5731  0.3131
  774SOL    HW1 2321   2.078   3.178   2.670 -0.1997 -4.4643  1.8713
  774SOL    HW2 2322   2.089   3.008   2.670  0.7300 -0.9793 -0.1416
  775SOL     OW 2323   2.529   2.841   2.408  0.2190 -0.1972  0.5456
  775SOL    HW1 2324   2.536   2.941   2.430  1.4902 -0.7024  0.1842
  775SOL    HW2 2325   2.622   2.804   2.433  0.1024  1.0413 -1.0782
  776SOL     OW 2326   0.026   1.327   0.196  0.0413  0.3959 -0.3634
  776SOL    HW1 2327  -0.008   1.286   0.110  0.1625 -0.4549 -1.5552
  776SOL    HW2 2328  -0.028   1.292   0.278  0.7962 -0.0073  1.3048
  777SOL     OW 2329   0.303   2.842   0.411  0.1126  0.5127  0.0000
  777SOL    HW1 2330   0.212   2.894   0.420  0.3258  0.1681 -2.3523
  777SOL    HW2 2331   0.386   2.904   0.410 -1.9766 -1.6760 -0.2455
  778SOL     OW 2332   1.316   1.955   0.184 -0.6517  0.5274  0.5545
  778SOL    HW1 2333   1.259   1.977   0.266  1.6338  0.0044  0.2851
  778SOL    HW2 2334   1.381   2.029   0.158  1.3530  0.5650 -1.5635
  779SOL     OW 2335   0.191   0.843   0.461 -0.0553 -0.0131  0.0300
  779SOL    HW1 2336   0.124   0.762   0.463 -1.2945  1.5792 -0.7003
  779SOL    HW2 2337   0.148   0.926   0.503  2.0063  1.3953 -0.3323
  780SOL     OW 2338   0.107   0.210   2.249 -0.9218  0.2053 -1.0561
  780SOL    HW1 2339   0.161   0.301   2.233  1.9724  2.3077  1.2492
  780SOL    HW2 2340   0.159   0.126   2.212  0.6705  0.3654 -0.4242
  781SOL     OW 2341   0.661   1.774   1.567 -0.2308  0.0792 -0.0398
  781SOL    HW1 2342   0.684   1.722   1.651 -1.6207 -0.2360  2.3598
  781SOL    HW2 2343   0.559   1.776   1.551 -1.0344 -1.2988  1.7468
  782SOL     OW 2344   2.597   0.179   0.886 -0.2648  0.6861  0.0833
  782SOL    HW1 2345   2.502   0.176   0.845  1.4878 -0.2634 -1.0690
  782SOL    HW2 2346   2.593   0.240   0.972 -1.8445  0.6795  4.0423
  783SOL     OW 2347   2.845   0.742   2.593  0.1980 -0.4055 -0.4906
  783SOL    HW1 2348   2.799   0.780   2.677 -0.0788 -1.5984  0.4678
  783SOL    HW2 2349   2.810   0.649   2.566  0.2068 -4.2680 -1.7468
  784SOL     OW 2350   1.462   2.173   0.079 -0.6995 -0.0735 -0.1931
  784SOL    HW1 2351   1.521   2.253   0.113 -1.7301 -1.9068  0.2629
  784SOL    HW2 2352   1.417   2.195  -0.010  0.5344  0.9533  1.8423
  785SOL     OW 2353   2.134   0.355   0.047  0.0386  0.0279 -0.3803
  785SOL    HW1 2354   2.062   0.360   0.121  0.3712  1.2477 -0.5353
  785SOL    HW2 2355   2.163   0.449   0.004  0.6507  0.2333  1.6703
  786SOL     OW 2356   2.033   2.178   2.194  1.1834  0.0048  0.4055
  786SOL    HW1 2357   2.009   2.088   2.238 -1.0720  0.7092 -0.3051
  786SOL    HW2 2358   2.113   2.180   2.138 -1.9614  0.7691  0.0348
  787SOL     OW 2359   1.404   0.621   0.990  0.0372  0.3311 -0.8576
  787SOL    HW1 2360   1.326   0.674   1.029  2.5112  0.3436 -0.4286
  787SOL    HW2 2361   1.398   0.601   0.891  0.9532  0.2272  1.7394
  788SOL     OW 2362   1.243   0.409   0.005  0.3653 -0.3502 -0.4126
  788SOL    HW1 2363   1.144   0.397  -0.020  0.7258 -0.3251  0.3143
  788SOL    HW2 2364   1.248   0.504   0.052  0.3082  1.6339  1.5993
  789SOL     OW 2365   2.568   0.096   1.840  0.2580 -1.0921 -0.7816
  789SOL    HW1 2366   2.476   0.127   1.852  1.0448  0.6314 -2.0686
  789SOL    HW2 2367   2.578  -0.001   1.794  1.0584 -1.3189 -1.1398
  790SOL     OW 2368   2.617   2.741   0.815 -0.6881 -0.4667  0.0919
  790SOL    HW1 2369   2.690   2.723   0.744 -4.1018 -1.9535  1.8586
  790SOL    HW2 2370   2.640   2.805   0.895  2.6927 -2.1542  1.6939
  791SOL     OW 2371   1.917   1.242   0.227  0.0950  0.0999  0.5283
  791SOL    HW1 2372   1.821   1.208   0.227 -1.2137  2.8553 -0.9786
  791SOL    HW2 2373   1.984   1.161   0.239  2.4681 -0.4211 -1.6187
  792SOL     OW 2374   0.443   1.994   2.148  0.1687  0.1402 -0.2440
  792SOL    HW1 2375   0.449   2.098   2.155 -1.0123 -2.4681  1.1793
  792SOL    HW2 2376   0.426   1.942   2.240 -0.9563  0.2136  0.2018
  793SOL     OW 2377   2.099   1.558   2.149 -0.1759  0.5132 -0.6056
  793SOL    HW1 2378   2.180   1.605   2.115  2.0622 -0.5508 -0.5945
  793SOL    HW2 2379   2.090   1.459   2.111 -0.2777 -2.3093 -0.1911
  794SOL     OW 2380   0.434   1.330   2.430 -0.4247 -0.1744  0.2321
  794SOL    HW1 2381   0.432   1.284   2.336  0.3885  0.3028  0.5820
  794SOL    HW2 2382   0.428   1.433   2.418  1.0465 -0.0628  0.9511
  795SOL     OW 2383   2.386   2.279   1.710 -0.5191 -0.3497 -0.5347
  795SOL    HW1 2384   2.346   2.326   1.796 -0.3559  0.7753  0.6600
  795SOL    HW2 2385   2.400   2.175   1.718  2.0554  0.0988 -1.7354
  796SOL     OW 2386   3.073   1.116   2.660  0.5862 -0.0637 -0.2098
  796SOL    HW1 2387   2.970   1.127   2.686 -2.6500 -2.0196 -1.4097
  796SOL    HW2 2388   3.131   1.105   2.746 -1.4347 -3.4417  3.1394
  797SOL     OW 2389   0.787   0.607   1.347 -0.2837  0.3516 -0.0081
  797SOL    HW1 2390   0.851   0.649   1.421  0.8129  1.4590  1.4610
  797SOL    HW2 2391   0.726   0.678   1.299 -1.9802 -0.5401 -1.8182
  798SOL     OW 2392   1.355   0.385   1.116 -0.4974  0.1839  0.2334
  798SOL    HW1 2393   1.383   0.381   1.214  1.5598 -0.4755 -2.5634
  798SOL    HW2 2394   1.384   0.476   1.074  1.9208  3.1236 -1.0566
  799SOL     OW 2395   1.916   2.648   1.041  0.5277 -0.6530  0.4488
  799SOL    HW1 2396   1.880   2.595   1.119 -0.7312 -0.7384 -1.3868
  799SOL    HW2 2397   1.846   2.640   0.963 -1.0637 -1.2533 -1.7287
  800SOL     OW 2398   2.961   0.746   1.917  0.3726  0.2136  0.8146
  800SOL    HW1 2399   2.950   0.849   1.925  2.3761 -0.9995  1.5076
  800SOL    HW2 2400   3.046   0.715   1.963 -2.3284  0.7279  0.3209
  801SOL     OW 2401   1.960   2.213   0.064  0.2142 -0.0559 -0.2949
  801SOL    HW1 2402   1.877   2.222  -0.003  0.9769 -0.1085 -0.7018
  801SOL    HW2 2403   2.038   2.148   0.037  0.7199 -3.3719  0.8650
  802SOL     OW 2404   0.628   0.808   2.576 -0.5845 -0.0095  0.6749
  802SOL    HW1 2405   0.690   0.770   2.499 -1.5966 -1.7479 -1.2823
  802SOL    HW2 2406   0.529   0.800   2.557  0.4073  3.1361  0.4691
  803SOL     OW 2407   0.970   0.050   0.788 -0.3428  0.4015 -0.0198
  803SOL    HW1 2408   1.015   0.140   0.806  1.6947  0.3236  1.4998
  803SOL    HW2 2409   0.950   0.028   0.689  0.8993 -1.1473 -0.3790
  804SOL     OW 2410   0.309   0.013   2.158 -0.1704 -1.0763  0.5072
  804SOL    HW1 2411   0.311   0.110   2.123 -0.0538 -0.5976 -1.2493
  804SOL    HW2 2412   0.258  -0.057   2.101 -1.8150  0.2762  0.4002
  805SOL     OW 2413   2.336   0.360   0.411  0.0027  1.0005 -0.6001
  805SOL    HW1 2414   2.427   0.378   0.463  0.2818 -0.9849 -0.0227
  805SOL    HW2 2415   2.357   0.323   0.313 -0.3449 -1.8639 -2.2291
  806SOL     OW 2416   0.652   2.459   1.775 -0.2192  0.3115 -0.2730
  806SOL    HW1 2417   0.648   2.554   1.812  0.8829  0.3222 -0.1446
  806SOL    HW2 2418   0.709   2.451   1.688  2.0657  1.1681  0.4843
  807SOL     OW 2419   2.485   0.816   0.361  0.4453  0.2867  0.0040
  807SOL    HW1 2420   2.578   0.842   0.406  0.8377 -0.2310  0.8889
  807SOL    HW2 2421   2.443   0.884   0.298 -1.8146 -1.8114  1.4685
  808SOL     OW 2422   0.660   2.083   2.890  0.1109  0.8479  0.3641
  808SOL    HW1 2423   0.604   2.146   2.951 -0.6274  1.3108 -1.6940
  808SOL    HW2 2424   0.690   1.993   2.939 -2.5017 -0.9289  0.3081
  809SOL     OW 2425   2.611   1.958   1.883 -0.5359 -0.0561  0.3548
  809SOL    HW1 2426   2.701   2.006   1.895 -2.5581 -0.6261 -2.3958
  809SOL    HW2 2427   2.575   1.964   1.789  1.6544 -2.5619  0.7593
  810SOL     OW 2428   2.138   1.101   0.574  0.3200  0.5172 -0.4036
  810SOL    HW1 2429   2.135   1.007   0.628  1.1832 -0.1266 -1.6218
  810SOL    HW2 2430   2.063   1.171   0.599  2.2399  0.8046  0.0554
  811SOL     OW 2431   1.333   2.502   1.218 -0.1450 -0.3379  0.2345
  811SOL    HW1 2432   1.329   2.401   1.249  2.1946 -0.6252 -0.0777
  811SOL    HW2 2433   1.260   2.561   1.262 -3.8745 -0.3597  1.5351
  812SOL     OW 2434   1.417   0.760   1.938  0.0941 -0.1808  0.3106
  812SOL    HW1 2435   1.485   0.815   1.994 -0.5050  1.5069  0.4557
  812SOL    HW2 2436   1.324   0.803   1.916 -0.7374  2.5307 -2.2582
  813SOL     OW 2437   1.652   2.040   2.519 -0.3299  0.0742  0.2548
  813SOL    HW1 2438   1.731   1.972   2.544 -1.1921 -1.7054  0.1559
  813SOL    HW2 2439   1.599   2.012   2.434  1.3549  1.2215  1.2673
  814SOL     OW 2440   2.932   1.535   2.816  0.0395  0.9585 -0.6105
  814SOL    HW1 2441   3.009   1.480   2.866  1.8401 -1.2214 -0.7655
  814SOL    HW2 2442   2.956   1.636   2.801 -0.6588  1.3616  0.9522
  815SOL     OW 2443   2.179   2.896   2.765  0.1782  0.1900  0.5790
  815SOL    HW1 2444   2.160   2.806   2.816  0.6370  0.4023 -2.9145
  815SOL    HW2 2445   2.236   2.967   2.817  0.7017  2.7858  1.3374
  816SOL     OW 2446   1.618   0.317   1.629 -0.1249  0.0649 -0.0357
  816SOL    HW1 2447   1.669   0.233   1.667  2.3619  0.1247  2.8570
  816SOL    HW2 2448   1.560   0.357   1.703  0.8862  0.5927 -0.3786
  817SOL     OW 2449   0.328   1.151   2.616  0.1239  0.2523 -0.1087
  817SOL    HW1 2450   0.227   1.164   2.597 -1.9738 -2.6173  1.0141
  817SOL    HW2 2451   0.389   1.225   2.572  1.8263  0.8720  0.0871
  818SOL     OW 2452   1.956   0.973   0.331 -0.0308  0.6976 -0.1302
  818SOL    HW1 2453   2.049   0.952   0.369 -2.7738  0.5906 -1.0546
  818SOL    HW2 2454   1.897   1.018   0.402 -2.3762  0.8066  1.1273
  819SOL     OW 2455   2.709   2.964   2.961 -0.1574 -0.4829  0.3065
  819SOL    HW1 2456   2.770   2.885   2.971 -0.7866 -0.0317  0.3859
  819SOL    HW2 2457   2.615   2.936   2.941  2.7622 -1.0806 -0.5467
  820SOL     OW 2458   1.214   1.057   0.594 -0.2112 -0.5655 -0.5671
  820SOL    HW1 2459   1.221   1.153   0.641 -1.4515  0.3115 -0.6387
  820SOL    HW2 2460   1.222   0.983   0.664 -0.9347 -0.1264  2.9367
  821SOL     OW 2461   0.032   1.286   0.668 -0.2474  0.3572  0.1390
  821SOL    HW1 2462   0.018   1.282   0.771 -1.3131 -0.2866 -3.1680
  821SOL    HW2 2463   0.048   1.382   0.646 -0.2336 -2.0503  0.7222
  822SOL     OW 2464   2.617   1.783   2.417 -0.1231  0.5026  0.5213
  822SOL    HW1 2465   2.618   1.860   2.488  0.1642  2.0583 -2.0322
  822SOL    HW2 2466   2.527   1.782   2.361 -1.1929  2.2885  0.0662
  823SOL     OW 2467   2.035   0.855   1.143 -0.4348 -0.3898 -0.6318
  823SOL    HW1 2468   2.006   0.851   1.238 -1.5369 -3.0554 -2.0424
  823SOL    HW2 2469   1.959   0.887   1.079 -0.9462 -0.4539 -0.7106
  824SOL     OW 2470   0.279   1.980   2.864 -0.5013 -0.3130  0.0546
  824SOL    HW1 2471   0.229   1.894   2.897  0.1197 -1.3016  1.2833
  824SOL    HW2 2472   0.321   1.958   2.769 -1.7582 -2.7327  0.5075
  825SOL     OW 2473   1.283   1.100   0.299  0.0850 -0.7249  0.4156
  825SOL    HW1 2474   1.280   1.202   0.263  1.8061  1.0155  1.0194
  825SOL    HW2 2475   1.263   1.090   0.398 -0.3522 -1.6420  0.9644
  826SOL     OW 2476   1.884   0.636   1.557  0.3596  0.2149 -0.2199
  826SOL    HW1 2477   1.952   0.572   1.601 -1.7729 -2.2577 -0.2557
  826SOL    HW2 2478   1.805   0.578   1.517 -0.5788 -0.4135 -1.4088
  827SOL     OW 2479   0.717   1.244   0.237  0.1224 -0.3831  0.7205
  827SOL    HW1 2480   0.795   1.195   0.189 -3.2383 -1.1012  3.1793
  827SOL    HW2 2481   0.642   1.175   0.256  1.7003  1.6047  0.0901
  828SOL     OW 2482   2.628   0.199   1.562  0.2686  0.2564  0.4460
  828SOL    HW1 2483   2.538   0.164   1.519  1.0384  0.6149  0.2419
  828SOL    HW2 2484   2.630   0.164   1.660 -1.8174 -2.4186  0.7968
  829SOL     OW 2485   2.834   2.450   2.970  0.3787 -0.0705 -0.1996
  829SOL    HW1 2486   2.751   2.389   2.989 -0.6964 -1.7771  0.7012
  829SOL    HW2 2487   2.811   2.549   2.965  1.5243 -1.5993 -1.9678
  830SOL     OW 2488   2.779   0.953   3.051  0.3750  0.2096 -0.2987
  830SOL    HW1 2489   2.857   1.019   3.064 -0.6581 -1.0884  1.5916
  830SOL    HW2 2490   2.806   0.864   3.094  1.6881  2.4167  1.5970
  831SOL     OW 2491   3.083   0.646   0.375  0.4438 -0.4091  0.1532
  831SOL    HW1 2492   3.063   0.604   0.470  1.5170 -1.5800  1.0258
  831SOL    HW2 2493   3.116   0.571   0.313  0.5686 -1.1662  2.6134
  832SOL     OW 2494   1.820   0.786   3.013 -0.0016  0.4115  0.3340
  832SOL    HW1 2495   1.727   0.815   2.982  2.4432  1.1354  1.1982
  832SOL    HW2 2496   1.829   0.686   3.041 -2.7815 -0.4133  0.6441
  833SOL     OW 2497   2.421   2.106   0.491  0.7616  0.1615 -0.0462
  833SOL    HW1 2498   2.328   2.084   0.451  0.2027  2.7677  1.2183
  833SOL    HW2 2499   2.467   2.015   0.525  0.0318 -1.9598  0.5379
  834SOL     OW 2500   0.115   0.243   0.485 -0.6752  0.2031 -0.1321
  834SOL    HW1 2501   0.169   0.162   0.517 -1.4107 -3.3203  3.9286
  834SOL    HW2 2502   0.093   0.246   0.384  1.4902  1.4931  0.0937
  835SOL     OW 2503   2.288   1.546   1.132  0.5255 -0.1066  0.9131
  835SOL    HW1 2504   2.330   1.628   1.180  0.2705  2.8054  3.2425
  835SOL    HW2 2505   2.351   1.517   1.055 -0.5893 -2.6374  1.4494
  836SOL     OW 2506   1.615   0.846   2.603  0.7082 -0.2053 -0.0685
  836SOL    HW1 2507   1.510   0.820   2.602  1.2669 -2.0648 -2.0172
  836SOL    HW2 2508   1.661   0.838   2.506  0.2341 -0.9714 -0.1667
  837SOL     OW 2509   1.639   0.094   0.555 -0.6865  0.0615  0.4767
  837SOL    HW1 2510   1.573   0.131   0.627 -0.6254 -2.5634  0.4655
  837SOL    HW2 2511   1.609   0.114   0.461 -1.4544 -0.1183  2.0854
  838SOL     OW 2512   1.240   1.521   2.783  0.0723 -0.5195 -0.8261
  838SOL    HW1 2513   1.217   1.521   2.886  2.5609 -0.7314 -0.1947
  838SOL    HW2 2514   1.167   1.479   2.721  0.3114 -1.3628 -2.5270
  839SOL     OW 2515   1.744   0.252   1.022  0.1796  0.4143 -0.1912
  839SOL    HW1 2516   1.738   0.328   1.093 -1.4343  0.5517 -1.4683
  839SOL    HW2 2517   1.677   0.176   1.052  0.5538  0.3020  2.2062
  840SOL     OW 2518   2.603   2.919   1.725 -0.8176 -0.5755  0.3463
  840SOL    HW1 2519   2.558   2.889   1.634 -1.0494 -0.8412  0.3688
  840SOL    HW2 2520   2.585   2.847   1.800 -1.0957  2.2968 -0.6937
  841SOL     OW 2521   1.553   0.861   2.953  0.6726  0.2738 -0.2888
  841SOL    HW1 2522   1.529   0.886   3.051 -0.0575  1.8440 -2.1883
  841SOL    HW2 2523   1.542   0.941   2.885  2.0413 -0.7411  0.1430
  842SOL     OW 2524   0.822   1.515   0.926  0.2789 -0.1066 -0.0706
  842SOL    HW1 2525   0.793   1.603   0.976 -0.0165  1.5655  2.8458
  842SOL    HW2 2526   0.741   1.457   0.891 -0.5668 -1.9823 -2.7487
  843SOL     OW 2527   0.090   0.096   1.441  0.0577  0.5295  0.0122
  843SOL    HW1 2528   0.171   0.116   1.505 -0.4545  3.1828  1.6645
  843SOL    HW2 2529   0.072  -0.003   1.426 -0.6533  2.1619  0.7214
  844SOL     OW 2530   0.798   2.504   0.296  0.0971  0.5254 -0.0681
  844SOL    HW1 2531   0.762   2.450   0.379  0.7824 -0.3271  0.8564
  844SOL    HW2 2532   0.738   2.576   0.246 -0.0584 -0.5008 -0.8165
  845SOL     OW 2533   1.600   2.886   1.361 -0.0714 -0.1793  0.2038
  845SOL    HW1 2534   1.669   2.935   1.418  0.7584 -1.1515 -1.0514
  845SOL    HW2 2535   1.504   2.915   1.381  0.1577 -0.2526  0.3379
  846SOL     OW 2536   1.535   2.951   0.811  0.0387 -0.0437  0.5991
  846SOL    HW1 2537   1.506   2.970   0.712  0.6916  2.8731  0.8732
  846SOL    HW2 2538   1.635   2.984   0.835  2.0101  1.3596  0.9901
  847SOL     OW 2539   2.022   1.623   0.276 -0.3974  0.2682 -0.1923
  847SOL    HW1 2540   1.990   1.558   0.353  0.6665 -1.6915  0.6284
  847SOL    HW2 2541   1.953   1.693   0.256 -1.3510 -1.6292 -2.9588
  848SOL     OW 2542   2.505   0.795   2.617  0.3358 -0.2827  0.5013
  848SOL    HW1 2543   2.499   0.894   2.635  3.5125 -3.4994 -0.6954
  848SOL    HW2 2544   2.425   0.768   2.553  1.0756 -1.0704  2.3111
  849SOL     OW 2545   2.564   0.845   2.348 -0.3871 -0.3318 -0.0329
  849SOL    HW1 2546   2.626   0.840   2.267 -0.2421  1.3627  0.3845
  849SOL    HW2 2547   2.606   0.820   2.441  0.1522 -0.6506  0.2887
  850SOL     OW 2548   1.546   0.115   1.346 -0.2195  0.4259 -0.3334
  850SOL    HW1 2549   1.530   0.124   1.244  0.5716  4.2335  0.4466
  850SOL    HW2 2550   1.504   0.027   1.380 -0.7812 -1.1425  1.0006
  851SOL     OW 2551   0.457   1.759   0.618  0.4262 -0.3709 -0.2559
  851SOL    HW1 2552   0.454   1.863   0.629  1.4374  0.6597  0.8033
  851SOL    HW2 2553   0.534   1.727   0.552 -0.2459 -1.4684  0.0679
  852SOL     OW 2554   0.776   2.168   1.678  0.1975  0.3763 -0.2511
  852SOL    HW1 2555   0.767   2.261   1.637 -1.0779  2.8362 -2.3023
  852SOL    HW2 2556   0.689   2.139   1.732 -2.6775  1.6187  0.3230
  853SOL     OW 2557   2.515   1.557   2.602 -0.3548  0.2330 -0.6248
  853SOL    HW1 2558   2.468   1.485   2.545  0.0838  0.3887  4.5725
  853SOL    HW2 2559   2.572   1.620   2.545  0.7083 -0.8914 -1.0008
  854SOL     OW 2560   2.468   1.396   1.702  1.0957 -0.7351  0.0878
  854SOL    HW1 2561   2.523   1.360   1.621 -0.7347 -0.8496  1.8350
  854SOL    HW2 2562   2.371   1.359   1.696 -0.1953 -1.7951  1.7015
  855SOL     OW 2563   2.110   2.361   0.975  0.1547 -0.0714 -0.2084
  855SOL    HW1 2564   2.096   2.445   0.913 -0.7095 -0.5446  2.0615
  855SOL    HW2 2565   2.177   2.375   1.057  0.1487 -1.1039  0.5889
  856SOL     OW 2566   1.370   1.509   0.853  0.3156  0.3249 -0.0714
  856SOL    HW1 2567   1.454   1.539   0.918  0.5640  0.6241  4.5419
  856SOL    HW2 2568   1.281   1.539   0.892 -0.4341 -0.5672 -0.9348
  857SOL     OW 2569   3.044   2.655   1.051 -0.9129 -0.0648  0.0340
  857SOL    HW1 2570   2.982   2.568   1.036 -3.5830  1.2387  0.2447
  857SOL    HW2 2571   3.143   2.635   1.036 -1.2650 -1.5193 -0.3219
  858SOL     OW 2572   2.310   2.018   1.761 -0.1994  0.3228 -0.9520
  858SOL    HW1 2573   2.225   2.051   1.713 -0.4643  0.6384  0.7653
  858SOL    HW2 2574   2.376   1.964   1.703 -0.2260 -4.7217 -1.2234
  859SOL     OW 2575   2.496   0.557   1.038 -0.0528 -0.5057 -0.1963
  859SOL    HW1 2576   2.552   0.591   0.956  0.0402  1.8582  0.4057
  859SOL    HW2 2577   2.514   0.454   1.064 -1.0887 -2.1513  2.4362
  860SOL     OW 2578   1.923   2.808   0.431 -0.0065 -0.0101 -0.4130
  860SOL    HW1 2579   1.870   2.773   0.354 -2.0343  3.2424 -2.0972
  860SOL    HW2 2580   2.009   2.850   0.391 -3.9242 -2.7307 -0.9622
  861SOL     OW 2581   1.072   2.511   2.816 -0.6169  0.0537 -0.2994
  861SOL    HW1 2582   1.132   2.594   2.785  0.9381  3.0911  0.6460
  861SOL    HW2 2583   1.102   2.468   2.907 -1.1759 -0.5211  1.9020
  862SOL     OW 2584   2.862   2.530   1.616  0.0106 -0.4739  0.0485
  862SOL    HW1 2585   2.941   2.556   1.675  2.1822 -0.3487 -2.2122
  862SOL    HW2 2586   2.841   2.614   1.556 -0.7261  1.2519 -0.2467
  863SOL     OW 2587   1.836   2.702   0.186  0.3769  0.0631  0.5088
  863SOL    HW1 2588   1.892   2.617   0.198  2.4283  0.7404 -1.5258
  863SOL    HW2 2589   1.733   2.679   0.173 -0.6121  0.0285  1.8126
  864SOL     OW 2590   1.905   1.175   2.845 -0.3716 -0.2836 -0.1712
  864SOL    HW1 2591   1.933   1.117   2.762  3.8481  1.4542 -1.6623
  864SOL    HW2 2592   1.967   1.159   2.927  1.3117  0.6223  0.4431
  865SOL     OW 2593   2.251   1.858   0.590 -0.2466 -0.1251  0.1128
  865SOL    HW1 2594   2.282   1.901   0.679  1.4251  0.1884  0.3658
  865SOL    HW2 2595   2.170   1.793   0.603 -1.9863 -1.7587 -0.8950
  866SOL     OW 2596   2.988   2.944   1.033  0.5822 -0.1134 -0.0315
  866SOL    HW1 2597   2.996   2.955   0.928  2.0513 -1.4788  0.5722
  866SOL    HW2 2598   2.961   2.848   1.054  0.2987  0.1745 -1.5756
  867SOL     OW 2599   0.339   1.384   0.914  0.3286  0.3624 -0.0035
  867SOL    HW1 2600   0.333   1.298   0.853  2.0495 -1.9852 -2.4418
  867SOL    HW2 2601   0.314   1.469   0.861  3.3288 -1.5985 -0.0065
  868SOL     OW 2602   0.716   1.834   2.033 -0.0428 -0.3154 -0.5975
  868SOL    HW1 2603   0.689   1.816   2.133  0.8641  1.7363 -1.0491
  868SOL    HW2 2604   0.670   1.920   1.995 -1.5614  1.3644 -0.5806
  869SOL     OW 2605   2.544   1.947   1.596 -0.6017  0.2936  0.3287
  869SOL    HW1 2606   2.629   2.007   1.575 -0.7260 -0.1212 -0.0160
  869SOL    HW2 2607   2.576   1.849   1.621 -1.7621 -2.8041 -1.3619
  870SOL     OW 2608   2.311   2.649   1.276  0.2463  0.2305  0.2177
  870SOL    HW1 2609   2.288   2.557   1.233  3.5012 -2.2708 -0.5451
  870SOL    HW2 2610   2.300   2.652   1.379 -1.2312 -4.3523 -3.1262
  871SOL     OW 2611   3.024   2.170   0.577 -0.4100 -0.7004  0.1243
  871SOL    HW1 2612   3.004   2.270   0.600  0.3625  1.3206 -0.1804
  871SOL    HW2 2613   2.955   2.122   0.515 -0.1664  0.0461 -0.6998
  872SOL     OW 2614   2.111   0.476   1.692  0.3463  0.1171  0.3698
  872SOL    HW1 2615   2.072   0.462   1.789 -2.8703 -1.5574 -1.3113
  872SOL    HW2 2616   2.210   0.448   1.679 -2.3100 -2.0247  1.6121
  873SOL     OW 2617   1.709   2.112   3.053 -0.0195 -0.0361 -0.3670
  873SOL    HW1 2618   1.630   2.124   3.119 -1.9879 -0.3141 -0.1000
  873SOL    HW2 2619   1.681   2.108   2.952 -0.8776 -2.5805 -0.5558
  874SOL     OW 2620   0.658   2.438   0.773  0.5810 -0.4802  0.3672
  874SOL    HW1 2621   0.650   2.531   0.823  0.8003  0.8743  0.6887
  874SOL    HW2 2622   0.748   2.397   0.794  0.5154 -1.6699 -0.9727
  875SOL     OW 2623   2.282   1.579   1.421 -0.2176  0.0609  0.0849
  875SOL    HW1 2624   2.379   1.595   1.445 -4.4360 -0.3109 -0.9560
  875SOL    HW2 2625   2.272   1.504   1.352 -1.1830 -2.2576  0.1337
  876SOL     OW 2626   0.087   2.226   2.750 -0.4162  0.1912 -0.1248
  876SOL    HW1 2627   0.173   2.170   2.771  1.1999  1.0320  2.8529
  876SOL    HW2 2628   0.104   2.332   2.778 -0.9286  2.3674  2.5318
  877SOL     OW 2629   2.902   2.656   0.593 -0.3394  0.3619 -0.3137
  877SOL    HW1 2630   2.890   2.753   0.627 -0.7808  1.7574 -1.3404
  877SOL    HW2 2631   2.943   2.589   0.667 -3.3929  1.3358 -0.5000
  878SOL     OW 2632   2.822   1.522   2.199  0.5130 -0.0540 -0.1084
  878SOL    HW1 2633   2.921   1.486   2.200  2.4058  1.0963 -0.9208
  878SOL    HW2 2634   2.799   1.558   2.296  2.9649  1.5613  0.8248
  879SOL     OW 2635   2.359   0.069   1.163  0.0226 -0.4808 -0.3903
  879SOL    HW1 2636   2.401  -0.021   1.192 -2.7880  0.0955  0.6166
  879SOL    HW2 2637   2.270   0.061   1.113 -0.3332  0.5168 -0.0237
  880SOL     OW 2638   0.726   0.475   2.270 -0.0508  0.1211 -0.3949
  880SOL    HW1 2639   0.644   0.428   2.315 -0.9199 -0.1081 -0.6016
  880SOL    HW2 2640   0.780   0.417   2.204 -1.2677  1.0603 -2.4777
  881SOL     OW 2641   0.863   0.062   0.474 -0.0607 -0.0266 -0.2358
  881SOL    HW1 2642   0.912  -0.031   0.472  4.1080  0.6316  0.3003
  881SOL    HW2 2643   0.768   0.063   0.447  0.3388  3.0444 -0.9603
  882SOL     OW 2644   2.713   1.720   1.681 -0.1949  0.4848 -0.6217
  882SOL    HW1 2645   2.800   1.677   1.642  4.1146 -0.5259 -0.8421
  882SOL    HW2 2646   2.731   1.749   1.778 -0.4359 -2.5404  0.7921
  883SOL     OW 2647   0.877   0.570   0.991 -0.5753  0.5535 -0.3388
  883SOL    HW1 2648   0.897   0.669   1.002 -3.5569 -1.5342 -0.0884
  883SOL    HW2 2649   0.923   0.509   1.059  0.3208  0.2411 -1.1261
  884SOL     OW 2650   1.211   1.773   1.174 -0.0823  0.2875 -0.0291
  884SOL    HW1 2651   1.158   1.710   1.113  2.1562  2.3747  3.9044
  884SOL    HW2 2652   1.212   1.872   1.144  0.8532  1.5390  2.1675
  885SOL     OW 2653   2.358   1.803   2.302  0.2356 -0.0224 -0.1613
  885SOL    HW1 2654   2.275   1.758   2.346 -0.9158 -2.7970 -0.2908
  885SOL    HW2 2655   2.354   1.905   2.270 -2.0798  1.3204 -1.1201
  886SOL     OW 2656   2.629   0.423   1.787 -0.4747 -0.3643 -0.0413
  886SOL    HW1 2657   2.614   0.416   1.889  2.1019 -0.2116 -1.2549
  886SOL    HW2 2658   2.699   0.498   1.764 -1.2129  0.3423  0.3011
  887SOL     OW 2659   0.102   2.047   1.320  0.0863 -0.1127 -0.3472
  887SOL    HW1 2660   0.057   1.981   1.257 -0.5295  0.4412 -1.7741
  887SOL    HW2 2661   0.104   2.147   1.292  0.2684 -0.1179  0.1746
  888SOL     OW 2662   0.562   1.263   1.540  0.1354  0.2002  0.0121
  888SOL    HW1 2663   0.614   1.307   1.458 -1.6095 -0.6628 -1.5854
  888SOL    HW2 2664   0.556   1.160   1.532  2.4058 -0.9399 -0.9096
  889SOL     OW 2665   0.812   2.481   2.146 -0.4636 -0.2419  0.0116
  889SOL    HW1 2666   0.777   2.395   2.194 -2.3420  1.3787 -0.4172
  889SOL    HW2 2667   0.872   2.470   2.056  0.7897  3.0546 -1.6549
  890SOL     OW 2668   2.423   2.445   0.190 -0.0535  0.6897  0.5287
  890SOL    HW1 2669   2.440   2.533   0.138 -2.1259 -0.9611 -2.1319
  890SOL    HW2 2670   2.365   2.461   0.274  0.5675  0.4261 -0.9061
  891SOL     OW 2671   2.558   1.684   0.717  0.8194 -0.0899 -0.1006
  891SOL    HW1 2672   2.525   1.693   0.816 -1.6230  0.5814  1.8608
  891SOL    HW2 2673   2.485   1.623   0.670 -0.3058 -0.1852 -1.3712
  892SOL     OW 2674   0.379   0.303   2.170  0.0435 -0.5313 -0.4903
  892SOL    HW1 2675   0.357   0.387   2.112  0.4390  0.8424 -0.5624
  892SOL    HW2 2676   0.418   0.322   2.268  1.1946 -2.3580  0.3905
  893SOL     OW 2677   1.668   0.271   2.749  0.5041  0.0130  0.0153
  893SOL    HW1 2678   1.748   0.323   2.790 -1.0774  0.3362 -0.7664
  893SOL    HW2 2679   1.580   0.326   2.757  0.8593  2.5530 -1.6434
  894SOL     OW 2680   2.140   2.021   3.079  0.6783 -0.1988 -0.5076
  894SOL    HW1 2681   2.114   1.955   3.003  0.5009 -3.6313  0.5757
  894SOL    HW2 2682   2.141   1.968   3.173  0.3158  0.6982  0.1983
  895SOL     OW 2683   2.810   1.424   0.934  0.8202 -0.1843  0.1914
  895SOL    HW1 2684   2.890   1.373   0.968 -1.8415  0.8618 -1.4895
  895SOL    HW2 2685   2.815   1.529   0.947 -0.4970  1.1870 -0.3236
  896SOL     OW 2686   1.772   1.815   1.221  0.5740  0.0877 -0.3219
  896SOL    HW1 2687   1.846   1.784   1.159  0.1432  0.6277 -1.3334
  896SOL    HW2 2688   1.709   1.887   1.182  1.5204  0.4586  1.9067
  897SOL     OW 2689   0.330   0.578   0.028  0.0307  0.5707  0.4288
  897SOL    HW1 2690   0.275   0.616  -0.057 -2.9453  2.2902 -2.1894
  897SOL    HW2 2691   0.434   0.588   0.027  1.5622  1.2283  0.5501
  898SOL     OW 2692   0.573   2.887   1.097  0.3298  0.4458  0.2118
  898SOL    HW1 2693   0.529   2.980   1.111  1.2472 -0.2402  0.5405
  898SOL    HW2 2694   0.642   2.862   1.177  1.8957  0.5477  1.6851
  899SOL     OW 2695   2.795   0.909   1.285 -0.1446  0.0851 -0.1978
  899SOL    HW1 2696   2.724   0.920   1.208  2.0309  1.0260 -0.4884
  899SOL    HW2 2697   2.894   0.920   1.254 -0.9555 -3.3563 -2.9459
  900SOL     OW 2698   1.023   2.561   2.390  0.5848  0.5660 -0.2661
  900SOL    HW1 2699   0.944   2.568   2.328  3.1546 -3.6512 -1.6000
  900SOL    HW2 2700   0.999   2.513   2.481  1.5267 -0.4689  0.5632
  901SOL     OW 2701   1.933   2.339   1.332  0.2561  0.3480 -0.0514
  901SOL    HW1 2702   1.922   2.302   1.236 -1.7994 -0.8929 -3.0182
  901SOL    HW2 2703   2.021   2.313   1.378 -0.6054 -2.1243 -0.0659
  902SOL     OW 2704   2.581   1.648   1.449 -0.1660 -0.0811 -0.6016
  902SOL    HW1 2705   2.637   1.664   1.537  0.0570 -0.6617 -3.1763
  902SOL    HW2 2706   2.641   1.637   1.364 -0.4517 -0.0804  0.1855
  903SOL     OW 2707   0.258   2.500   1.959  0.2678 -0.0856 -0.1855
  903SOL    HW1 2708   0.162   2.465   1.956  2.7684  1.0425 -0.8077
  903SOL    HW2 2709   0.283   2.566   1.879 -0.8692 -0.7601  1.0531
  904SOL     OW 2710   2.070   0.794   2.486  0.6967 -0.0060  0.6241
  904SOL    HW1 2711   1.990   0.739   2.534 -0.6842 -1.4730  1.0100
  904SOL    HW2 2712   2.058   0.788   2.384 -0.5404 -0.5180  2.8968
  905SOL     OW 2713   2.822   0.079   2.561 -0.2958 -0.0727  0.1431
  905SOL    HW1 2714   2.886   0.001   2.537 -4.2601 -0.5091 -1.0727
  905SOL    HW2 2715   2.860   0.167   2.518  0.2968 -1.2039 -0.8795
  906SOL     OW 2716   0.143   1.720   1.914  0.3793  0.1528 -0.5852
  906SOL    HW1 2717   0.076   1.752   1.843 -1.4050 -0.7433  1.7558
  906SOL    HW2 2718   0.242   1.756   1.911  0.5101  0.6547  0.0436
  907SOL     OW 2719   0.204   2.449   0.998 -1.1070 -0.1827 -0.2189
  907SOL    HW1 2720   0.309   2.442   0.989 -0.5196 -0.2836  2.9063
  907SOL    HW2 2721   0.168   2.376   1.065 -0.2758 -1.7536  2.2613
  908SOL     OW 2722   2.729   2.995   0.380 -0.2779 -0.3536  0.2244
  908SOL    HW1 2723   2.731   3.056   0.296  0.0478 -0.0111 -1.1940
  908SOL    HW2 2724   2.771   2.905   0.361 -0.4901  1.8972  0.0494
  909SOL     OW 2725   0.783   1.022   2.639 -0.5222  0.1083 -0.0001
  909SOL    HW1 2726   0.735   0.935   2.598 -2.4483 -0.9169  0.3412
  909SOL    HW2 2727   0.863   1.056   2.579 -0.6185  0.9619 -1.7045
  910SOL     OW 2728   1.712   1.859   2.149 -0.4487 -0.2367  0.1198
  910SOL    HW1 2729   1.753   1.911   2.063 -1.1781  1.2918 -0.2598
  910SOL    HW2 2730   1.621   1.897   2.179  2.4708  2.2761 -1.7438
  911SOL     OW 2731   1.808   2.919   1.561  0.2255 -0.3941  0.1879
  911SOL    HW1 2732   1.897   2.925   1.508  0.2860 -2.5769 -0.9034
  911SOL    HW2 2733   1.807   2.850   1.634 -0.7692  0.9850  0.4711
  912SOL     OW 2734   2.865   0.980   0.712  0.3540 -0.2706  0.3083
  912SOL    HW1 2735   2.896   0.974   0.812 -0.9897  2.5767  0.5814
  912SOL    HW2 2736   2.834   1.078   0.700 -1.6703  0.4052  0.9647
  913SOL     OW 2737   2.594   1.273   1.468 -0.0721  0.7367 -0.1757
  913SOL    HW1 2738   2.620   1.174   1.472 -0.3809  1.3930 -2.4548
  913SOL    HW2 2739   2.660   1.322   1.405 -2.2179  0.7182  0.1902
  914SOL     OW 2740   2.885   0.547   1.228  0.6530  0.2178 -0.1191
  914SOL    HW1 2741   2.840   0.457   1.229  2.2847 -0.1823 -2.0490
  914SOL    HW2 2742   2.863   0.615   1.304  1.7023  3.2531 -0.7568
  915SOL     OW 2743   1.203   0.779   1.089 -0.6132 -0.0568  0.2308
  915SOL    HW1 2744   1.257   0.809   1.174  0.4680  2.9344 -1.4146
  915SOL    HW2 2745   1.103   0.805   1.091  3.1134 -0.4551 -3.5215
  916SOL     OW 2746   0.588   0.027   0.663  0.3165  0.0306  0.0453
  916SOL    HW1 2747   0.618   0.117   0.707 -1.1445  1.2177 -0.7020
  916SOL    HW2 2748   0.561   0.034   0.565  2.9848  0.0119 -0.0576
  917SOL     OW 2749   2.821   2.621   1.949  0.2086 -0.3282 -0.1608
  917SOL    HW1 2750   2.729   2.663   1.944  1.7345 -1.9598 -2.8815
  917SOL    HW2 2751   2.899   2.685   1.935  1.3754 -1.3121  0.0723
  918SOL     OW 2752   1.039   2.180   3.008  0.5437  0.1962 -0.3813
  918SOL    HW1 2753   1.024   2.222   3.102 -2.7244  1.0452  0.8888
  918SOL    HW2 2754   1.135   2.148   2.986  1.4596 -2.8504 -1.2455
  919SOL     OW 2755   0.845   1.679   2.831 -0.0748 -0.0487 -0.7548
  919SOL    HW1 2756   0.904   1.751   2.785  0.4741 -1.2075  0.2262
  919SOL    HW2 2757   0.807   1.619   2.755  2.8511  1.5791 -2.2952
  920SOL     OW 2758   1.214   1.894   2.430  0.3265  0.3591  0.1201
  920SOL    HW1 2759   1.280   1.890   2.350 -1.3672  0.5780 -3.1412
  920SOL    HW2 2760   1.236   1.824   2.506 -1.1169  0.8447  1.6520
  921SOL     OW 2761   1.018   0.026   2.639  0.0388 -0.2261 -0.4535
  921SOL    HW1 2762   1.009   0.005   2.534  1.6440 -0.9537  1.9437
  921SOL    HW2 2763   0.961  -0.037   2.696 -0.4482  0.9700  0.3154
  922SOL     OW 2764   2.163   2.390   2.789 -0.0711 -0.4164 -0.6636
  922SOL    HW1 2765   2.213   2.302   2.790  0.1610  1.0318  0.0564
  922SOL    HW2 2766   2.101   2.398   2.710  0.7863 -2.1271  2.7204
  923SOL     OW 2767   1.236   2.675   0.259  0.2203 -0.5566 -0.4131
  923SOL    HW1 2768   1.304   2.732   0.309  0.3866 -3.4473  2.5134
  923SOL    HW2 2769   1.261   2.576   0.253 -1.9870 -1.4796 -1.7754
  924SOL     OW 2770   2.884   1.510   0.149  1.0410 -0.2992 -0.5125
  924SOL    HW1 2771   2.799   1.520   0.090  1.6005  1.0156 -0.8984
  924SOL    HW2 2772   2.946   1.439   0.113 -0.8065 -1.1583 -0.0782
  925SOL     OW 2773   0.036   2.947   1.555  0.4805 -0.1244  0.1757
  925SOL    HW1 2774  -0.050   3.005   1.561 -0.4891 -1.8710 -1.1578
  925SOL    HW2 2775   0.010   2.849   1.537 -0.2757  2.9086  1.6737
  926SOL     OW 2776   1.306   2.827   1.229 -0.0988  0.2378 -0.1919
  926SOL    HW1 2777   1.385   2.811   1.164 -0.7760  0.3928  0.0273
  926SOL    HW2 2778   1.320   2.899   1.300  0.4154  0.9574 -1.8395
  927SOL     OW 2779   0.331   2.657   1.769  0.3194  0.4121  0.0873
  927SOL    HW1 2780   0.343   2.588   1.691 -1.0431 -1.6120  0.1111
  927SOL    HW2 2781   0.282   2.743   1.739  3.4579 -1.2925 -0.1757
  928SOL     OW 2782   1.528   2.069   2.280 -0.0075  0.3077 -0.2918
  928SOL    HW1 2783   1.570   2.150   2.220  4.3521  0.1706 -1.0526
  928SOL    HW2 2784   1.429   2.053   2.260  0.5353 -2.4385  0.2380
  929SOL     OW 2785   2.394   2.494   2.875  0.5008 -0.3037 -0.3312
  929SOL    HW1 2786   2.293   2.463   2.864 -0.5008  0.4394  2.2938
  929SOL    HW2 2787   2.462   2.459   2.807 -0.2590  0.2583 -0.1750
  930SOL     OW 2788   2.182   1.984   1.066 -0.4135 -0.5926  0.1941
  930SOL    HW1 2789   2.167   1.936   1.162  0.2816 -1.7250 -0.0778
  930SOL    HW2 2790   2.254   2.058   1.070  1.6608 -1.0327 -0.2148
  931SOL     OW 2791   0.559   1.711   2.712  0.4188 -0.1465 -0.0169
  931SOL    HW1 2792   0.585   1.763   2.797 -1.9212 -3.7481 -2.0530
  931SOL    HW2 2793   0.583   1.610   2.713  1.2995  3.0628  0.6667
  932SOL     OW 2794   0.438   0.106   2.938 -0.1745  0.4007 -0.0665
  932SOL    HW1 2795   0.529   0.156   2.952  0.2226 -2.4104  0.8605
  932SOL    HW2 2796   0.450   0.001   2.956  1.6490 -4.8035  0.1710
  933SOL     OW 2797   1.004   0.814   3.047  0.6034 -0.7509 -0.0198
  933SOL    HW1 2798   0.991   0.855   3.143 -3.0592 -0.2352  0.1700
  933SOL    HW2 2799   0.990   0.881   2.971  1.1129 -1.6177 -0.1804
  934SOL     OW 2800   0.786   2.956   2.631  0.2965 -0.7586  0.0495
  934SOL    HW1 2801   0.794   2.889   2.555 -1.7349  2.1412  2.1509
  934SOL    HW2 2802   0.828   2.921   2.719 -1.4214  0.7172 -0.0123
  935SOL     OW 2803   0.011   0.570   0.842 -0.9725 -0.3012 -0.3878
  935SOL    HW1 2804   0.021   0.551   0.743 -0.4246 -0.7214  2.5021
  935SOL    HW2 2805  -0.085   0.610   0.869  0.5020  1.2390 -0.3828
  936SOL     OW 2806   1.092   2.825   0.092  0.3880  0.1420 -0.1990
  936SOL    HW1 2807   1.146   2.878   0.015  0.8062 -1.0390  0.7432
  936SOL    HW2 2808   1.157   2.762   0.139 -1.2626  3.0562  0.8070
  937SOL     OW 2809   1.952   2.610   2.076  0.3165  0.1500 -0.0991
  937SOL    HW1 2810   1.856   2.639   2.104  2.3916  2.6009  1.7092
  937SOL    HW2 2811   2.008   2.690   2.037  1.7987  3.5710 -1.6778
  938SOL     OW 2812   2.792   2.090   1.561 -0.0589 -0.0431 -0.7978
  938SOL    HW1 2813   2.752   2.183   1.587 -0.4215 -1.2194  3.9152
  938SOL    HW2 2814   2.891   2.074   1.601  0.8565 -2.1145  4.2322
  939SOL     OW 2815   2.810   1.202   2.510 -0.1193 -0.1010  0.9461
  939SOL    HW1 2816   2.875   1.151   2.451 -1.6574 -0.9960  1.8205
  939SOL    HW2 2817   2.794   1.140   2.594 -3.2277  0.1161 -1.8943
  940SOL     OW 2818   1.032   0.423   2.721 -0.0195  0.2192 -0.0164
  940SOL    HW1 2819   1.100   0.339   2.720  1.0655 -1.7210  0.2692
  940SOL    HW2 2820   0.938   0.392   2.677 -1.6485  2.5153 -3.0238
  941SOL     OW 2821   0.051   2.787   2.250  0.0790 -0.0002  0.2794
  941SOL    HW1 2822   0.113   2.709   2.234 -0.5054  4.0015  0.1107
  941SOL    HW2 2823   0.090   2.846   2.318  0.2853  3.2100 -1.4735
  942SOL     OW 2824   0.104   0.109   2.499 -0.2583 -0.5305 -0.7969
  942SOL    HW1 2825   0.167   0.172   2.560  0.3883 -0.3856 -1.8231
  942SOL    HW2 2826   0.092   0.152   2.401 -0.2774 -0.3836 -0.4665
  943SOL     OW 2827   2.107   1.704   2.379  0.5499  0.7313  0.0209
  943SOL    HW1 2828   2.108   1.616   2.321  1.1256 -0.7113  1.8945
  943SOL    HW2 2829   2.070   1.688   2.480 -0.1537  0.6194  2.0232
  944SOL     OW 2830   2.177   2.345   1.465  0.0041 -0.0263  0.1795
  944SOL    HW1 2831   2.262   2.394   1.504  0.1245  0.5623 -0.6348
  944SOL    HW2 2832   2.134   2.288   1.544 -2.7238  2.1329 -1.5136
  945SOL     OW 2833   0.702   1.511   0.267  0.4011 -0.4893 -0.4317
  945SOL    HW1 2834   0.646   1.546   0.182  0.8569  1.9468 -0.8894
  945SOL    HW2 2835   0.697   1.406   0.277 -1.3464  1.5142  1.4531
  946SOL     OW 2836   0.401   0.953   2.439 -0.5290  0.0672  0.3770
  946SOL    HW1 2837   0.315   0.905   2.405  2.5374  0.8587 -0.4421
  946SOL    HW2 2838   0.381   1.031   2.502  0.2719 -0.5670 -1.9527
  947SOL     OW 2839   1.529   0.455   3.086  0.0127 -0.2603  0.0625
  947SOL    HW1 2840   1.480   0.508   3.012 -0.0461 -0.8661  2.2285
  947SOL    HW2 2841   1.456   0.389   3.129 -2.1151 -4.4267  2.3938
  948SOL     OW 2842   1.909   3.045   2.175  0.4814 -0.0958 -0.2904
  948SOL    HW1 2843   1.934   2.998   2.090  1.4856  3.7460 -0.5123
  948SOL    HW2 2844   1.887   2.975   2.250 -0.6609 -0.8104  0.4120
  949SOL     OW 2845   0.542   2.488   0.530 -0.0613  0.0273  0.2524
  949SOL    HW1 2846   0.579   2.582   0.499 -3.9537  2.2629 -0.0778
  949SOL    HW2 2847   0.586   2.466   0.622 -2.0842 -1.8997  1.8916
  950SOL     OW 2848   0.188   2.198   3.030  0.0553  0.3088 -0.2785
  950SOL    HW1 2849   0.086   2.211   3.036  0.4142 -0.1551 -0.8081
  950SOL    HW2 2850   0.215   2.121   2.961 -0.4145  0.6924 -0.4783
  951SOL     OW 2851   1.261   2.711   2.735  0.3443  0.0116  0.1797
  951SOL    HW1 2852   1.334   2.640   2.753 -1.9779  1.1441 -2.1713
  951SOL    HW2 2853   1.264   2.745   2.638 -2.6459  2.2109 -0.1724
  952SOL     OW 2854   0.010   1.720   0.391  0.1390  0.4980  0.3104
  952SOL    HW1 2855   0.091   1.791   0.395  3.6555  4.2745 -0.4288
  952SOL    HW2 2856   0.001   1.651   0.478  0.3944  0.4431  4.0204
  953SOL     OW 2857   2.496   1.744   0.267 -0.5759 -0.0700  0.1958
  953SOL    HW1 2858   2.523   1.646   0.247  0.5030 -1.2274  1.3360
  953SOL    HW2 2859   2.506   1.797   0.180 -0.4862 -1.6045  2.4952
  954SOL     OW 2860   2.223   0.561   0.960 -0.0968 -0.0865  0.1900
  954SOL    HW1 2861   2.207   0.576   0.857  1.4479  0.9336 -0.2789
  954SOL    HW2 2862   2.327   0.554   0.982 -0.8280  1.3060  1.2307
  955SOL     OW 2863   0.180   2.594   1.282 -0.0322  0.7972 -0.0116
  955SOL    HW1 2864   0.090   2.648   1.298  1.2102 -1.2501 -1.6561
  955SOL    HW2 2865   0.248   2.650   1.227  3.1134  0.8096 -1.7024
  956SOL     OW 2866   2.775   2.455   2.457 -0.3825 -0.8554 -0.3415
  956SOL    HW1 2867   2.796   2.360   2.433  2.6866  1.3435  3.0511
  956SOL    HW2 2868   2.807   2.518   2.379  0.5666  2.3451 -1.1365
  957SOL     OW 2869   1.591   2.077   2.816 -0.2379  0.1605  0.0430
  957SOL    HW1 2870   1.569   1.976   2.827  1.2618  0.6922 -1.2346
  957SOL    HW2 2871   1.583   2.104   2.715  0.2678  1.8054  2.3358
  958SOL     OW 2872   2.629   2.261   3.020  0.6533  0.5422 -0.0340
  958SOL    HW1 2873   2.539   2.307   3.002 -0.7061  0.8910  1.4226
  958SOL    HW2 2874   2.635   2.220   3.115 -1.6104 -1.4377 -0.1037
  959SOL     OW 2875   0.256   2.826   0.093  0.5740 -0.5492  0.1763
  959SOL    HW1 2876   0.160   2.793   0.064 -0.2263  0.5589 -0.7454
  959SOL    HW2 2877   0.303   2.758   0.156  0.0891  1.9823  0.6406
  960SOL     OW 2878   2.030   0.481   1.949  0.0344 -0.5110  0.1985
  960SOL    HW1 2879   1.944   0.538   1.933 -0.6935  1.6439  0.6014
  960SOL    HW2 2880   2.052   0.473   2.047 -2.8093 -0.0015 -0.5361
  961SOL     OW 2881   2.577   1.809   0.992  0.4578 -0.0743 -0.2070
  961SOL    HW1 2882   2.606   1.909   0.994 -0.5708 -2.3857 -2.5669
  961SOL    HW2 2883   2.552   1.763   1.079 -0.4911  1.5489 -1.4789
  962SOL     OW 2884   1.339   0.889   0.089  0.4512 -0.2133  0.4088
  962SOL    HW1 2885   1.331   0.885  -0.016 -3.5470 -5.0337 -1.7454
  962SOL    HW2 2886   1.302   0.975   0.139 -0.8201  0.2193  0.5599
  963SOL     OW 2887   2.206   2.567   1.865 -0.1212  0.4184  0.2808
  963SOL    HW1 2888   2.191   2.468   1.893 -0.4163 -2.4694  3.4331
  963SOL    HW2 2889   2.236   2.630   1.941 -0.2477  0.1211  0.2641
  964SOL     OW 2890   2.362   0.341   1.681  0.0979 -0.0009 -0.1970
  964SOL    HW1 2891   2.460   0.366   1.703  0.5003  0.7929 -0.4666
  964SOL    HW2 2892   2.352   0.290   1.593 -0.1998 -0.3706 -1.3264
  965SOL     OW 2893   2.639   3.062   0.120 -0.1402 -0.0996 -0.7514
  965SOL    HW1 2894   2.685   3.047   0.030  1.1133 -0.0503  3.2948
  965SOL    HW2 2895   2.540   3.085   0.118 -1.3006 -0.2093  2.1987
  966SOL     OW 2896   2.556   2.527   2.214 -0.8946 -0.7875 -0.0312
  966SOL    HW1 2897   2.490   2.560   2.288  1.3399  0.7062  0.5112
  966SOL    HW2 2898   2.537   2.578   2.125 -1.4342  1.9470  1.5166
  967SOL     OW 2899   2.804   2.803   2.493 -0.1515  0.1300 -0.1216
  967SOL    HW1 2900   2.851   2.735   2.431 -1.5034  0.9624  1.1472
  967SOL    HW2 2901   2.858   2.889   2.514 -1.5395  0.2993  0.1365
  968SOL     OW 2902   1.898   1.004   2.637  0.1086 -0.4772 -0.3248
  968SOL    HW1 2903   1.804   1.042   2.604 -0.2722 -0.8711  2.3510
  968SOL    HW2 2904   1.962   0.990   2.557  2.6971 -2.2040 -0.9708
  969SOL     OW 2905   2.823   2.451   1.099 -0.2989  0.0385 -0.3662
  969SOL    HW1 2906   2.755   2.438   1.024  2.3552  0.3409 -0.0099
  969SOL    HW2 2907   2.844   2.363   1.151  1.2066 -0.5694  0.5613
  970SOL     OW 2908   1.021   2.120   1.819  0.3007  0.4896  0.1674
  970SOL    HW1 2909   0.929   2.152   1.779  0.1949  0.1134 -2.5266
  970SOL    HW2 2910   1.039   2.144   1.918  1.4568  2.6303 -0.4584
  971SOL     OW 2911   2.874   2.070   1.873  0.2362  0.4201 -0.6951
  971SOL    HW1 2912   2.865   2.170   1.877  0.4258 -4.6903  1.5483
  971SOL    HW2 2913   2.946   2.041   1.802 -1.3420 -1.1405  0.4344
  972SOL     OW 2914   2.004   2.487   0.215 -0.1952  0.0497 -0.2405
  972SOL    HW1 2915   2.036   2.423   0.142 -0.1002 -2.0497  0.3689
  972SOL    HW2 2916   2.019   2.438   0.308  2.3481 -1.2531  3.2616
  973SOL     OW 2917   1.309   1.054   1.886  0.3351  0.1678 -0.3789
  973SOL    HW1 2918   1.250   1.017   1.809  2.1932  1.8741 -0.4189
  973SOL    HW2 2919   1.264   1.125   1.947  1.6852  2.1530  0.4091
  974SOL     OW 2920   1.596   0.561   1.963 -0.0834 -0.0257  0.3305
  974SOL    HW1 2921   1.685   0.595   1.928 -1.2073 -1.5310  2.3809
  974SOL    HW2 2922   1.517   0.623   1.939  4.5765  1.6660 -0.5662
  975SOL     OW 2923   2.369   3.091   0.067  0.0413  0.2348  0.3548
  975SOL    HW1 2924   2.307   3.010   0.077  0.6897  0.7849  2.0959
  975SOL    HW2 2925   2.380   3.117  -0.032 -0.7137  2.2492 -0.4058
  976SOL     OW 2926   1.909   2.856   2.358  0.1699 -0.1508 -0.3073
  976SOL    HW1 2927   1.835   2.799   2.308 -0.7256 -0.0420  1.5527
  976SOL    HW2 2928   1.944   2.807   2.441 -3.9706  1.9071  0.5740
  977SOL     OW 2929   0.441   0.675   1.022  0.8337  0.1962  0.3611
  977SOL    HW1 2930   0.361   0.659   0.957  0.7518  1.3946  1.4159
  977SOL    HW2 2931   0.538   0.669   0.976 -0.8670  2.6512  0.3276
   3.10000   3.10000   3.10000
