1000 SPC/Fw water molecules t=   2.00000 step= 2000
 2931
    1SOL     OW    1   2.503   0.265   2.688 -0.0489 -0.2854 -0.5714
    1SOL    HW1    2   2.553   0.183   2.654 -0.1299 -0.6759 -1.9499
    1SOL    HW2    3   2.560   0.314   2.756 -1.1556 -2.1409 -1.0452
    2SOL     OW    4   2.798   2.756   1.270 -0.2688 -0.6209  0.0476
    2SOL    HW1    5   2.864   2.836   1.246  0.4594  2.1153  2.2152
    2SOL    HW2    6   2.784   2.735   1.374 -2.1573 -1.3570  1.2901
    3SOL     OW    7   2.796   2.446   0.470  0.0296  0.0956 -0.1770
    3SOL    HW1    8   2.702   2.396   0.463  0.7558 -3.0915  1.3500
    3SOL    HW2    9   2.786   2.517   0.549  0.4349  1.1362  0.1249
    4SOL     OW   10   1.195   1.546   2.387  0.0750 -0.2217 -0.2810
    4SOL    HW1   11   1.149   1.595   2.309  2.1484  1.9142  3.6346
    4SOL    HW2   12   1.177   1.445   2.379 -0.3964  2.4701  0.5761
    5SOL     OW   13   1.165   1.590   2.907  0.1874  0.0631 -0.3732
    5SOL    HW1   14   1.194   1.677   2.954  2.1976 -3.9572  0.8548
    5SOL    HW2   15   1.065   1.586   2.888  2.3026  0.4274  3.9101
    6SOL     OW   16   0.155   1.884   0.007 -0.4568  0.5431 -0.5681
    6SOL    HW1   17   0.056   1.902   0.047 -4.6091  0.4523  0.3788
    6SOL    HW2   18   0.214   1.809   0.058 -0.6055 -1.8012  0.4881
    7SOL     OW   19   2.563   0.854   1.070  0.1860  0.1282  0.4017
    7SOL    HW1   20   2.476   0.808   1.109 -1.3359 -4.3607  3.0170
    7SOL    HW2   21   2.609   0.797   0.998 -2.1644  0.9824 -0.9515
    8SOL     OW   22   0.470   0.738   1.481 -0.0011  0.2129  0.1124
    8SOL    HW1   23   0.562   0.774   1.519  0.1709  2.6222 -0.1147
    8SOL    HW2   24   0.461   0.761   1.381  0.3120 -0.0914  0.5128
    9SOL     OW   25   1.123   0.856   2.315 -0.0595  0.8499  0.2480
    9SOL    HW1   26   1.139   0.903   2.216 -0.3313 -1.1291 -1.4473
    9SOL    HW2   27   1.143   0.754   2.305  0.8138  0.8923 -1.6451
   10SOL     OW   28   0.598   1.513   1.236  0.0652 -0.5064 -0.0889
   10SOL    HW1   29   0.503   1.494   1.196  1.7476 -0.8824 -0.8489
   10SOL    HW2   30   0.615   1.614   1.236 -0.2390  1.2896 -1.9200
   11SOL     OW   31   2.352   2.825   0.946  0.8606  0.5764  0.2414
   11SOL    HW1   32   2.278   2.814   1.017  0.3169 -1.2892 -0.2873
   11SOL    HW2   33   2.439   2.871   0.979 -2.0184 -0.1012 -1.7389
   12SOL     OW   34   1.432   0.826   0.549  0.0628  0.0906  0.0604
   12SOL    HW1   35   1.331   0.847   0.534 -0.2867 -1.7846 -1.2807
   12SOL    HW2   36   1.477   0.765   0.479 -2.1487  0.6683 -0.3654
   13SOL     OW   37   2.441   0.697   1.818  0.0900  0.4476  0.4760
   13SOL    HW1   38   2.341   0.696   1.848 -3.3539  0.7220 -1.0567
   13SOL    HW2   39   2.452   0.647   1.722  1.0175 -0.7614 -1.3226
   14SOL     OW   40   1.975   3.029   0.686  0.2208 -0.4016 -0.0513
   14SOL    HW1   41   1.880   3.079   0.693 -1.3703  0.1868 -0.0806
   14SOL    HW2   42   1.988   2.963   0.762 -2.0372 -3.4477  1.0432
   15SOL     OW   43   1.859   2.076   2.635  0.2343  0.1667 -0.1442
   15SOL    HW1   44   1.819   2.050   2.727 -0.2808 -0.6026  0.2538
   15SOL    HW2   45   1.888   1.992   2.576  1.6171 -2.7108 -3.4883
   16SOL     OW   46   1.544   1.711   2.977  0.6368 -0.4570  0.5329
   16SOL    HW1   47   1.543   1.626   3.038 -1.4093 -2.1819  0.7028
   16SOL    HW2   48   1.626   1.772   2.993  1.0258  0.5182 -3.7965
   17SOL     OW   49   0.056   0.466   0.177 -0.0612  0.1676  0.1209
   17SOL    HW1   50   0.155   0.499   0.157  1.3663 -1.6867  0.7134
   17SOL    HW2   51  -0.016   0.520   0.122 -2.4744 -1.4948  0.3984
   18SOL     OW   52   0.890   2.834   2.230  0.3097 -0.2349 -0.1958
   18SOL    HW1   53   0.819   2.767   2.258  0.9743 -0.9009 -1.2858
   18SOL    HW2   54   0.945   2.801   2.148 -0.8849 -0.9481 -2.0420
   19SOL     OW   55   0.529   0.899   1.917 -0.0802 -0.8542  0.0039
   19SOL    HW1   56   0.556   0.844   2.002 -2.2117 -1.8295  1.0437
   19SOL    HW2   57   0.604   0.969   1.889 -0.7479  0.2842  0.0520
   20SOL     OW   58   0.243   2.733   0.754  0.2812 -0.0884 -0.6049
   20SOL    HW1   59   0.161   2.789   0.731 -2.3243  0.3686  0.3076
   20SOL    HW2   60   0.305   2.706   0.679 -3.5081 -0.5710  1.7489
   21SOL     OW   61   2.840   0.300   1.995  0.0474  0.3482  0.4276
   21SOL    HW1   62   2.772   0.234   1.945  3.0828 -0.8902 -0.5690
   21SOL    HW2   63   2.898   0.253   2.069 -0.1793  0.7380  2.0234
   22SOL     OW   64   2.415   0.227   0.065 -0.2650 -0.1748 -0.1835
   22SOL    HW1   65   2.444   0.138   0.009  1.1021 -0.5783  2.6541
   22SOL    HW2   66   2.332   0.276   0.029  1.2494 -0.1433  1.5084
   23SOL     OW   67   2.830   0.505   0.680 -0.1498 -0.2459  0.4390
   23SOL    HW1   68   2.910   0.442   0.650 -0.3565  3.7987  1.6793
   23SOL    HW2   69   2.828   0.598   0.627 -1.9490 -1.5904  1.2512
   24SOL     OW   70   0.227   1.861   0.423 -0.7172 -0.3573  0.1574
   24SOL    HW1   71   0.195   1.951   0.385 -1.6910 -4.3138 -1.2380
   24SOL    HW2   72   0.320   1.833   0.387 -0.5437 -2.4532  0.3513
   25SOL     OW   73   2.269   0.567   0.291 -0.2243 -0.3606  0.8048
   25SOL    HW1   74   2.249   0.576   0.186 -0.2246  1.5616 -0.5688
   25SOL    HW2   75   2.347   0.497   0.306 -1.0382 -1.0034 -2.1358
   26SOL     OW   76   2.449   2.179   2.148  0.5996  0.5198  0.1163
   26SOL    HW1   77   2.517   2.255   2.178 -0.9627  0.6877  0.0639
   26SOL    HW2   78   2.497   2.103   2.090  0.1638 -1.3237 -1.5128
   27SOL     OW   79   0.642   3.038   0.124  0.6108 -0.0086  0.0446
   27SOL    HW1   80   0.725   3.063   0.072  0.0683 -1.2773  2.4709
   27SOL    HW2   81   0.568   3.008   0.058 -3.1984  0.2596  2.1755
   28SOL     OW   82   1.577   0.181   0.331 -0.2727  0.1611 -0.3713
   28SOL    HW1   83   1.616   0.153   0.241 -2.3779  2.2275  2.6217
   28SOL    HW2   84   1.636   0.242   0.390  0.4215  0.9792  0.0636
   29SOL     OW   85   2.003   0.543   0.332 -0.1262  0.1575  0.4248
   29SOL    HW1   86   1.967   0.622   0.385 -1.5873 -3.4653  1.2865
   29SOL    HW2   87   2.097   0.558   0.297  1.6768 -2.3341  0.8672
   30SOL     OW   88   0.181   2.066   0.928  0.1947 -0.4054  0.3430
   30SOL    HW1   89   0.154   2.009   0.843  0.1329 -4.0571  2.3266
   30SOL    HW2   90   0.116   2.149   0.938 -1.5761 -2.0325  0.5239
   31SOL     OW   91   2.097   0.089   2.380  0.1751 -0.2300  0.0035
   31SOL    HW1   92   2.064   0.039   2.464  2.1981 -2.4546  2.4028
   31SOL    HW2   93   2.061   0.046   2.293 -1.5894  1.1532 -0.6074
   32SOL     OW   94   3.096   3.076   0.232 -0.4839  0.1329  0.1570
   32SOL    HW1   95   3.060   2.979   0.260  0.9322 -2.8067  2.2666
   32SOL    HW2   96   3.199   3.076   0.210  0.5316  1.1478  3.1137
   33SOL     OW   97   0.871   0.224   0.671 -0.0417 -0.2550  0.1753
   33SOL    HW1   98   0.887   0.162   0.584  1.2321 -1.5953 -1.0890
   33SOL    HW2   99   0.955   0.280   0.693  0.4052  0.4035  0.6410
   34SOL     OW  100   0.378   2.656   0.998  0.4452 -0.4425  0.1110
   34SOL    HW1  101   0.344   2.688   0.904  1.8727  1.3362 -1.7963
   34SOL    HW2  102   0.449   2.724   1.029 -1.7555  1.6578  2.9192
   35SOL     OW  103   0.132   0.214   1.934  0.2664 -0.5351  0.2016
   35SOL    HW1  104   0.161   0.114   1.939  0.2022  1.4121  1.4607
   35SOL    HW2  105   0.106   0.254   1.842  1.9578  1.5264 -0.1005
   36SOL     OW  106   1.783   1.290   1.479 -0.6132  0.9574 -0.4205
   36SOL    HW1  107   1.873   1.241   1.501 -1.3378 -1.1430 -0.1065
   36SOL    HW2  108   1.795   1.365   1.412 -0.7205  0.8237  2.9366
   37SOL     OW  109   1.182   0.210   0.977  0.5154 -0.4498 -0.4556
   37SOL    HW1  110   1.182   0.311   0.992 -0.4485 -0.6552 -1.0582
   37SOL    HW2  111   1.270   0.181   0.924  1.1386  0.7309  1.3991
   38SOL     OW  112   1.124   2.795   2.475 -0.1740 -0.0632  0.2159
   38SOL    HW1  113   1.025   2.768   2.510 -0.5362  1.2872  4.1363
   38SOL    HW2  114   1.129   2.894   2.446  0.7186 -0.1032  1.2607
   39SOL     OW  115   2.491   1.442   3.077 -0.5941  0.2768  0.6057
   39SOL    HW1  116   2.527   1.344   3.067  0.7451 -1.1492  3.5358
   39SOL    HW2  117   2.420   1.446   3.156 -1.2951 -0.7962  1.4258
   40SOL     OW  118   2.023   2.523   2.602 -0.3586  0.4486  0.5020
   40SOL    HW1  119   1.985   2.613   2.625  1.1491  0.6932  1.4385
   40SOL    HW2  120   1.962   2.450   2.552 -1.6873 -0.9114 -0.9603
   41SOL     OW  121   3.008   0.707   2.809 -0.6160  0.0276 -0.1504
   41SOL    HW1  122   3.007   0.806   2.845 -0.0815 -0.1059 -0.8906
   41SOL    HW2  123   2.919   0.670   2.775 -0.7182 -1.0929  0.2321
   42SOL     OW  124   1.794   1.737   0.436  0.1673  0.4973 -0.6808
   42SOL    HW1  125   1.731   1.656   0.421  0.4063 -0.7553  0.2685
   42SOL    HW2  126   1.795   1.796   0.351 -1.5654  1.0817 -0.9577
   43SOL     OW  127   0.436   1.853   1.146 -0.1015  0.6471  0.3935
   43SOL    HW1  128   0.395   1.945   1.154  0.5194  1.9810  3.0805
   43SOL    HW2  129   0.402   1.781   1.208 -0.3225  2.8353 -0.9365
   44SOL     OW  130   1.740   2.397   2.971  0.6187 -0.0785 -0.0722
   44SOL    HW1  131   1.657   2.440   3.016  1.4248 -0.1397  2.6719
   44SOL    HW2  132   1.744   2.427   2.871 -1.9370 -1.5989 -3.0649
   45SOL     OW  133   0.351   1.933   2.650 -0.1280 -0.4801 -0.1429
   45SOL    HW1  134   0.321   1.957   2.552  2.7082 -0.4368 -1.3028
   45SOL    HW2  135   0.441   1.882   2.652  2.0663  1.2342 -0.2147
   46SOL     OW  136   1.274   0.754   0.244 -0.3055 -0.2828  0.8628
   46SOL    HW1  137   1.318   0.813   0.169  0.0999 -1.3342  0.5200
   46SOL    HW2  138   1.218   0.670   0.203 -0.5831  0.0905  0.7981
   47SOL     OW  139   0.179   2.343   1.620 -0.0901 -0.7435  0.1560
   47SOL    HW1  140   0.127   2.259   1.649  0.1240  0.7687 -0.7180
   47SOL    HW2  141   0.178   2.348   1.518 -0.0529 -0.6667  0.2282
   48SOL     OW  142   2.673   0.652   0.202  0.4072 -0.7241  0.4396
   48SOL    HW1  143   2.674   0.618   0.301  0.5888 -2.1838  0.0949
   48SOL    HW2  144   2.760   0.697   0.167  1.9749 -2.7700 -0.3570
   49SOL     OW  145   0.357   0.835   1.727  0.1360 -0.2101  0.4264
   49SOL    HW1  146   0.427   0.872   1.793  1.0883 -1.9840  0.3597
   49SOL    HW2  147   0.400   0.797   1.639  2.0601  2.6660 -0.6556
   50SOL     OW  148   1.700   1.084   0.375  0.1355  0.2234  0.2324
   50SOL    HW1  149   1.725   0.989   0.346 -0.2067  2.3857  1.4972
   50SOL    HW2  150   1.618   1.094   0.440  1.1183  1.3049 -0.3216
   51SOL     OW  151   2.890   1.740   0.360 -0.1291  0.7499  0.1220
   51SOL    HW1  152   2.875   1.706   0.261  1.2831 -2.6910 -1.6569
   51SOL    HW2  153   2.991   1.724   0.388 -1.7645 -0.9747  0.1344
   52SOL     OW  154   0.794   2.135   0.574 -0.4414 -0.7537  0.0762
   52SOL    HW1  155   0.704   2.136   0.523 -1.5595 -0.5427  0.8682
   52SOL    HW2  156   0.810   2.050   0.630  0.9476  2.0261  1.1570
   53SOL     OW  157   0.305   0.515   1.541 -0.1062 -0.0680  0.3739
   53SOL    HW1  158   0.382   0.587   1.533 -0.8516  0.0429  4.2467
   53SOL    HW2  159   0.215   0.539   1.493  0.6851  0.9114  0.9425
   54SOL     OW  160   1.772   0.445   3.088 -0.0279  0.3686  0.1725
   54SOL    HW1  161   1.835   0.383   3.145 -0.0236  0.4837 -0.2645
   54SOL    HW2  162   1.681   0.455   3.138  0.7363 -1.5316 -1.9280
   55SOL     OW  163   0.701   2.876   0.577 -0.2921 -0.2699 -0.6168
   55SOL    HW1  164   0.645   2.964   0.580 -3.0082  0.7569 -2.9667
   55SOL    HW2  165   0.798   2.897   0.609  0.9545  1.0843  0.3786
   56SOL     OW  166   0.546   1.606   3.075  0.3001 -0.4909  0.3651
   56SOL    HW1  167   0.449   1.628   3.108  2.2587 -3.5274  1.2033
   56SOL    HW2  168   0.534   1.519   3.018  0.3911 -0.4395 -0.1408
   57SOL     OW  169   1.687   2.474   2.373  0.0318  0.1770  0.1539
   57SOL    HW1  170   1.750   2.395   2.392 -0.8326  0.3469  2.8664
   57SOL    HW2  171   1.611   2.484   2.445  1.9417  2.1741  1.5867
   58SOL     OW  172   0.663   0.180   1.049 -0.3350  0.5561 -0.1238
   58SOL    HW1  173   0.570   0.178   1.098 -0.4067 -0.6568  1.7005
   58SOL    HW2  174   0.699   0.086   1.051 -1.4936  2.9348  2.6232
   59SOL     OW  175   0.465   2.396   2.584  0.3991 -0.0794 -0.0271
   59SOL    HW1  176   0.458   2.291   2.600  1.0585 -0.4784  0.2946
   59SOL    HW2  177   0.561   2.433   2.593  0.0476  2.3025 -0.9763
   60SOL     OW  178   2.331   2.082   2.388  0.0669  0.7712  0.0885
   60SOL    HW1  179   2.369   2.140   2.310 -2.3049  1.2308  0.2179
   60SOL    HW2  180   2.324   2.134   2.480 -2.2491 -1.4819 -0.9654
   61SOL     OW  181   1.156   0.668   0.503 -1.0499  0.3637 -0.1750
   61SOL    HW1  182   1.053   0.679   0.488 -0.0762 -0.0808 -0.0157
   61SOL    HW2  183   1.212   0.686   0.420  2.1283 -0.3300  0.5838
   62SOL     OW  184   2.742   1.716   2.693 -0.1461  0.1222  0.2859
   62SOL    HW1  185   2.687   1.629   2.714 -0.0647 -2.6718  2.9350
   62SOL    HW2  186   2.841   1.710   2.729 -0.5234  2.1815 -2.6070
   63SOL     OW  187   0.489   0.810   0.173 -0.2424  0.2178 -0.1575
   63SOL    HW1  188   0.537   0.882   0.121  0.1396 -0.0497 -0.5145
   63SOL    HW2  189   0.520   0.798   0.275  1.1102  0.1725  2.5183
   64SOL     OW  190   3.067   0.607   2.388 -0.2799  0.1052  0.1287
   64SOL    HW1  191   2.995   0.624   2.463  0.9519  2.1764 -0.3032
   64SOL    HW2  192   3.045   0.656   2.296  0.4477 -0.6983 -0.4564
   65SOL     OW  193   0.135   1.424   0.641  0.4377 -0.6173  0.0812
   65SOL    HW1  194   0.118   1.479   0.726  1.7924  0.5886  0.6934
   65SOL    HW2  195   0.225   1.441   0.592  2.1341 -1.8403 -2.4315
   66SOL     OW  196   2.609   0.294   0.529  0.1033 -0.7812  0.6923
   66SOL    HW1  197   2.711   0.264   0.551  3.7125 -1.7600  2.3247
   66SOL    HW2  198   2.540   0.232   0.582 -2.7213 -0.9966  0.5034
   67SOL     OW  199   0.593   2.487   1.522  0.3064  0.0274 -0.1814
   67SOL    HW1  200   0.685   2.443   1.551 -1.8146 -0.0117  0.5429
   67SOL    HW2  201   0.521   2.418   1.496 -0.8650 -1.1639 -1.7249
   68SOL     OW  202   0.908   0.954   2.520 -0.0531 -0.5395 -0.1837
   68SOL    HW1  203   0.998   0.915   2.490 -0.9319 -1.3314 -1.0959
   68SOL    HW2  204   0.863   1.012   2.447  3.4798  0.8675  0.6184
   69SOL     OW  205   0.688   2.613   2.322 -0.1554  0.5108  0.0448
   69SOL    HW1  206   0.716   2.527   2.267 -2.6147  1.4430  0.9181
   69SOL    HW2  207   0.599   2.649   2.296  1.5004 -0.9033 -0.0104
   70SOL     OW  208   0.517   0.119   2.584 -0.4915 -0.6968  0.0850
   70SOL    HW1  209   0.435   0.093   2.642  0.0022 -0.8326 -2.1907
   70SOL    HW2  210   0.607   0.071   2.607  2.1299  0.1573 -0.1037
   71SOL     OW  211   1.062   1.808   0.301 -0.4552  0.1152 -0.2819
   71SOL    HW1  212   0.980   1.800   0.364 -1.2474 -1.4567 -0.1663
   71SOL    HW2  213   1.042   1.824   0.200 -1.2083  1.4186 -0.4418
   72SOL     OW  214   1.812   0.192   2.109 -0.1219 -0.5346 -0.7132
   72SOL    HW1  215   1.864   0.279   2.111 -0.6389  0.0850  0.5179
   72SOL    HW2  216   1.858   0.127   2.044  0.7096  2.4148  1.8501
   73SOL     OW  217   2.820   2.181   2.433  0.4376  0.2712  0.0149
   73SOL    HW1  218   2.821   2.088   2.387  1.7363 -1.4168  0.3189
   73SOL    HW2  219   2.864   2.183   2.528  0.0144 -1.9799 -0.5425
   74SOL     OW  220   2.671   3.019   2.085 -0.7888  0.0519 -0.7633
   74SOL    HW1  221   2.601   3.016   2.163  1.6449 -1.1874  3.0261
   74SOL    HW2  222   2.771   3.050   2.119  2.9032 -0.2144 -2.2558
   75SOL     OW  223   0.898   0.827   1.079 -0.1273  1.1671  0.2641
   75SOL    HW1  224   0.802   0.867   1.081 -2.0025  1.2490 -2.6669
   75SOL    HW2  225   0.960   0.865   1.155  0.3779 -1.3727 -2.9958
   76SOL     OW  226   1.811   1.264   2.572  0.8828 -0.3545 -0.4687
   76SOL    HW1  227   1.726   1.223   2.608 -1.0204  2.1023 -2.1690
   76SOL    HW2  228   1.824   1.356   2.612  0.2138  0.9008  0.0342
   77SOL     OW  229   2.909   0.929   1.045  0.1344  0.1332  0.4521
   77SOL    HW1  230   2.860   0.839   1.025  0.9505  1.1982 -0.6314
   77SOL    HW2  231   2.992   0.912   1.105  1.0526 -0.5916 -0.9736
   78SOL     OW  232   1.946   1.445   1.293 -0.1817 -0.4223 -0.3075
   78SOL    HW1  233   2.035   1.438   1.237  0.4094  0.3808  0.1404
   78SOL    HW2  234   1.878   1.503   1.243 -0.8319 -0.1405  1.5349
   79SOL     OW  235   0.627   1.501   0.823 -0.0684 -0.5373 -0.1937
   79SOL    HW1  236   0.538   1.455   0.852  0.3113 -2.3365 -0.6173
   79SOL    HW2  237   0.687   1.435   0.778 -0.3325  0.7425  0.1878
   80SOL     OW  238   0.717   0.499   1.539 -0.0562  0.2314 -0.9483
   80SOL    HW1  239   0.733   0.514   1.437  1.5159  1.1378 -1.9955
   80SOL    HW2  240   0.700   0.399   1.554 -0.2846  2.1506  0.8262
   81SOL     OW  241   1.078   1.300   2.403  0.3913 -0.5066 -0.1571
   81SOL    HW1  242   0.985   1.319   2.449 -1.1877  1.9908  0.8625
   81SOL    HW2  243   1.066   1.234   2.321 -1.5697  0.4289 -3.1608
   82SOL     OW  244   0.962   2.942   1.668  0.0697 -0.2669 -0.7728
   82SOL    HW1  245   0.982   2.862   1.606  0.3626 -0.3918  1.3872
   82SOL    HW2  246   0.962   3.037   1.623  1.4761 -2.8108 -1.2006
   83SOL     OW  247   2.584   2.356   0.957 -0.6724  0.2322  0.0136
   83SOL    HW1  248   2.500   2.310   0.921 -2.4840 -1.1138 -0.4304
   83SOL    HW2  249   2.586   2.457   0.930  1.2096 -0.7254  0.8940
   84SOL     OW  250   0.792   3.061   2.331  0.1942 -0.5766  0.1120
   84SOL    HW1  251   0.796   3.057   2.432  0.3662  2.0295 -2.9406
   84SOL    HW2  252   0.853   2.987   2.286 -0.3757  0.5376  1.3912
   85SOL     OW  253   0.248   1.711   1.366  0.6142  0.4066  0.6193
   85SOL    HW1  254   0.208   1.788   1.418 -0.0633  0.9340  2.3597
   85SOL    HW2  255   0.293   1.638   1.428 -1.0676 -2.2641  3.0883
   86SOL     OW  256   0.503   1.085   1.407  0.3658  0.3468  0.5351
   86SOL    HW1  257   0.439   1.075   1.326  2.2188  0.7682 -0.3891
   86SOL    HW2  258   0.549   0.993   1.440 -1.4369 -3.5659 -0.2472
   87SOL     OW  259   1.548   0.675   0.341 -0.9996  0.1186  0.0386
   87SOL    HW1  260   1.645   0.691   0.302  1.1735 -1.5720  0.6507
   87SOL    HW2  261   1.478   0.696   0.267  0.7533  1.1347 -1.0001
   88SOL     OW  262   1.519   1.321   0.300  0.1673 -0.6646  0.4043
   88SOL    HW1  263   1.572   1.230   0.324 -0.6785  0.0565 -0.2542
   88SOL    HW2  264   1.414   1.310   0.305 -4.7673 -1.1389  1.3376
   89SOL     OW  265   3.051   0.367   0.632 -0.1259  0.1173 -0.1270
   89SOL    HW1  266   3.147   0.336   0.656  2.0421  1.0477 -2.9642
   89SOL    HW2  267   2.993   0.283   0.605 -0.4127 -2.9675  2.6497
   90SOL     OW  268   0.727   1.603   0.191 -0.2752  0.2611  0.1463
   90SOL    HW1  269   0.819   1.564   0.165 -0.5863  1.0084  1.5314
   90SOL    HW2  270   0.662   1.610   0.109 -0.2677  0.2930 -0.4326
   91SOL     OW  271   1.282   1.513   1.664 -0.4560 -0.1693 -0.1951
   91SOL    HW1  272   1.248   1.529   1.761 -2.1522 -1.4248 -2.4615
   91SOL    HW2  273   1.375   1.471   1.655 -1.8148  2.9918 -1.9454
   92SOL     OW  274   0.054   0.887   1.158 -0.4425 -1.1417  0.3227
   92SOL    HW1  275   0.124   0.947   1.119 -0.0461 -2.7074  1.8911
   92SOL    HW2  276   0.061   0.885   1.257 -1.0926  1.1686 -2.6773
   93SOL     OW  277   3.028   2.681   0.038 -0.1355 -0.0100  0.2725
   93SOL    HW1  278   3.003   2.665  -0.062 -0.4748  0.6688  3.1453
   93SOL    HW2  279   3.090   2.605   0.070 -0.3793  0.5245 -2.6640
   94SOL     OW  280   1.540   1.477   1.579  0.4778  0.4041 -0.7487
   94SOL    HW1  281   1.594   1.406   1.628 -0.5155  2.4493 -0.9299
   94SOL    HW2  282   1.585   1.568   1.585 -1.8632 -2.2142  0.5151
   95SOL     OW  283   1.458   2.474   2.906  0.5403  0.1154 -0.2536
   95SOL    HW1  284   1.372   2.483   2.966  1.0038  0.1629  0.1827
   95SOL    HW2  285   1.449   2.393   2.846 -0.6058 -2.0607  1.3831
   96SOL     OW  286   0.600   2.140   1.268  0.1392  0.2846  0.1510
   96SOL    HW1  287   0.557   2.097   1.184  0.1504 -0.6030 -0.7463
   96SOL    HW2  288   0.634   2.074   1.339 -0.7863  1.1480  0.3340
   97SOL     OW  289   0.310   1.632   2.430 -0.1833  0.4497  0.6318
   97SOL    HW1  290   0.274   1.727   2.409  3.0303  0.7436 -1.4539
   97SOL    HW2  291   0.281   1.601   2.522  0.0616  4.9580 -0.0806
   98SOL     OW  292   2.281   1.690   1.177 -0.2169 -0.0616  0.1713
   98SOL    HW1  293   2.260   1.590   1.188 -0.3049  0.2044 -0.3399
   98SOL    HW2  294   2.384   1.705   1.162  2.6512  2.8664 -2.3432
   99SOL     OW  295   2.577   2.108   1.271 -0.0485 -0.4659  0.4169
   99SOL    HW1  296   2.637   2.168   1.333 -1.6199 -1.0554 -1.1967
   99SOL    HW2  297   2.526   2.035   1.319  1.9771  1.2223 -1.1931
  100SOL     OW  298   2.338   0.421   2.157  0.0519  0.4056  0.1040
  100SOL    HW1  299   2.267   0.404   2.236 -1.0934  2.7600  0.5959
  100SOL    HW2  300   2.434   0.426   2.193  0.6539  0.5120 -0.0842
  101SOL     OW  301   0.380   1.463   0.511 -0.4331 -0.1582  1.5053
  101SOL    HW1  302   0.391   1.560   0.553 -1.7661  3.2572 -0.6740
  101SOL    HW2  303   0.460   1.444   0.446  0.0004 -3.4083 -0.4578
  102SOL     OW  304   2.311   1.072   0.848 -0.4349  0.1829  0.0122
  102SOL    HW1  305   2.265   0.987   0.826  0.1803 -1.0255  0.9604
  102SOL    HW2  306   2.387   1.097   0.776  1.3668  1.2831  2.2590
  103SOL     OW  307   2.268   0.056   0.359  0.0664 -0.7170  1.0423
  103SOL    HW1  308   2.306   0.153   0.365 -0.2958  0.3100  3.3918
  103SOL    HW2  309   2.317  -0.008   0.415 -1.7558  0.9637 -4.2511
  104SOL     OW  310   0.058   1.863   2.155  0.2576  0.7741 -0.3345
  104SOL    HW1  311   0.087   1.854   2.051  3.8752  1.9092 -1.9880
  104SOL    HW2  312  -0.041   1.870   2.158 -0.5657  0.7290 -0.5498
  105SOL     OW  313   1.197   2.131   0.809 -0.6453  0.6586 -0.0184
  105SOL    HW1  314   1.127   2.106   0.741  2.0891  1.3399 -0.5859
  105SOL    HW2  315   1.290   2.095   0.780 -1.0617 -0.0243  4.3015
  106SOL     OW  316   2.131   0.416   1.480 -0.5364 -0.0142 -0.0127
  106SOL    HW1  317   2.043   0.371   1.453  1.4148  0.2896  1.3267
  106SOL    HW2  318   2.137   0.447   1.577  2.0668 -0.2438  0.3141
  107SOL     OW  319   1.938   2.931   1.215  0.6686 -0.3811  0.1846
  107SOL    HW1  320   1.880   2.989   1.279  1.4886  0.2816  0.2986
  107SOL    HW2  321   1.902   2.838   1.184 -0.9709 -2.8493 -1.1870
  108SOL     OW  322   0.893   2.772   1.103 -0.2303 -0.5577  0.4176
  108SOL    HW1  323   0.911   2.692   1.042 -1.5506  0.5907  0.6816
  108SOL    HW2  324   0.977   2.787   1.164  2.8204  1.2445 -0.7478
  109SOL     OW  325   2.179   0.085   0.779  0.7823  0.6263  0.3277
  109SOL    HW1  326   2.105   0.019   0.749  1.9901 -0.3608  2.5429
  109SOL    HW2  327   2.156   0.131   0.869  0.4185  1.5118  1.1157
  110SOL     OW  328   0.471   2.783   2.807 -0.5701 -0.8597  0.5286
  110SOL    HW1  329   0.480   2.795   2.704  2.1812  1.9403 -0.0083
  110SOL    HW2  330   0.517   2.697   2.846  1.4565 -0.4390  1.0947
  111SOL     OW  331   1.335   0.554   2.329 -0.0242 -1.2205 -0.2504
  111SOL    HW1  332   1.237   0.558   2.372 -0.6867 -0.4450  0.8528
  111SOL    HW2  333   1.392   0.480   2.371  3.7084  1.1768  1.6251
  112SOL     OW  334   1.757   0.551   1.483 -0.0453 -0.0996 -0.6070
  112SOL    HW1  335   1.746   0.606   1.393 -2.1200 -3.4219  3.1423
  112SOL    HW2  336   1.668   0.513   1.522 -0.7469 -0.5742  0.4267
  113SOL     OW  337   2.313   1.719   1.765  0.4664  0.1460 -0.4314
  113SOL    HW1  338   2.349   1.626   1.728 -0.4613 -0.2453 -0.1252
  113SOL    HW2  339   2.309   1.729   1.867 -0.6779  0.5887  0.2465
  114SOL     OW  340   0.338   0.423   1.174 -0.2212 -0.6651  0.1029
  114SOL    HW1  341   0.275   0.495   1.213  0.2921 -5.3283  1.4529
  114SOL    HW2  342   0.380   0.446   1.082  1.7408 -1.3578 -0.7016
  115SOL     OW  343   2.712   1.559   1.224 -0.5497 -0.0160 -0.4204
  115SOL    HW1  344   2.703   1.452   1.234  1.7366 -1.3772 -1.3693
  115SOL    HW2  345   2.811   1.594   1.240 -1.0540  0.5643 -0.0828
  116SOL     OW  346   1.903   0.926   0.699  0.4548 -0.0731  0.1966
  116SOL    HW1  347   1.800   0.902   0.674  0.4834  2.8898 -0.8387
  116SOL    HW2  348   1.916   1.031   0.693  1.6171 -0.0635 -2.0146
  117SOL     OW  349   1.128   0.380   0.561 -0.2230  0.3123 -0.0237
  117SOL    HW1  350   1.120   0.486   0.567 -0.1576  0.5083  0.7315
  117SOL    HW2  351   1.104   0.360   0.461 -0.9632  0.9968 -0.6632
  118SOL     OW  352   1.100   1.227   1.132 -0.2824  0.1827  0.1704
  118SOL    HW1  353   1.095   1.189   1.232  1.9288 -0.7776  0.2912
  118SOL    HW2  354   1.147   1.318   1.127 -2.3486  1.4843 -0.9466
  119SOL     OW  355   1.885   1.603   2.225 -0.0678 -0.7850 -0.0113
  119SOL    HW1  356   1.825   1.676   2.181 -2.3845 -1.5992  0.1039
  119SOL    HW2  357   1.961   1.576   2.163 -2.0460  1.8401  0.3313
  120SOL     OW  358   2.978   2.827   0.276  0.7422  0.3080 -0.3466
  120SOL    HW1  359   3.002   2.763   0.191  1.9144 -3.5116 -2.1960
  120SOL    HW2  360   2.875   2.816   0.296  0.6264 -0.4187  1.1778
  121SOL     OW  361   1.995   0.836   2.319 -0.1357 -0.2002  0.1487
  121SOL    HW1  362   2.062   0.902   2.278 -1.5208 -2.4095  1.0230
  121SOL    HW2  363   2.023   0.738   2.296  0.6945  1.8875 -0.1181
  122SOL     OW  364   2.562   2.486   1.400 -0.3734  0.3028 -0.2728
  122SOL    HW1  365   2.647   2.479   1.337  0.1304 -1.4492  1.4206
  122SOL    HW2  366   2.567   2.415   1.474 -1.3636  1.1843  2.9470
  123SOL     OW  367   1.667   0.161   1.674  0.5119 -0.4369  0.0632
  123SOL    HW1  368   1.709   0.082   1.625  0.9176 -1.1138  0.5050
  123SOL    HW2  369   1.743   0.230   1.701  1.6295  2.0264 -0.1481
  124SOL     OW  370   3.018   0.425   1.157  0.2659 -0.0402 -0.3239
  124SOL    HW1  371   2.919   0.445   1.180 -2.5356 -2.0868  2.2906
  124SOL    HW2  372   3.042   0.479   1.075 -1.4473 -1.3828 -0.1303
  125SOL     OW  373   0.901   1.932   0.721  0.1572 -0.4112  0.1683
  125SOL    HW1  374   0.984   1.876   0.746 -1.9272 -2.7391 -2.0590
  125SOL    HW2  375   0.853   1.975   0.802 -0.8028 -0.9483  0.7250
  126SOL     OW  376   1.892   2.306   2.471  0.6042 -0.0465  0.0888
  126SOL    HW1  377   1.971   2.280   2.412 -0.9851 -0.1467  0.6843
  126SOL    HW2  378   1.886   2.262   2.567 -0.5233 -0.6935  3.9692
  127SOL     OW  379   0.963   0.956   0.184 -0.8253 -0.2260  0.1995
  127SOL    HW1  380   0.962   0.990   0.281  2.5633 -1.4060  0.1797
  127SOL    HW2  381   0.965   0.851   0.175 -1.2451  0.7190 -0.6475
  128SOL     OW  382   0.883   0.201   1.425 -0.0985  0.1894  0.4999
  128SOL    HW1  383   0.879   0.260   1.337  0.7875 -2.8812 -1.0220
  128SOL    HW2  384   0.843   0.104   1.409  2.0600  1.4420  1.5994
  129SOL     OW  385   1.897   0.691   1.931  0.0808  0.5994  0.3414
  129SOL    HW1  386   1.874   0.692   1.831 -0.8104  1.1276 -0.0467
  129SOL    HW2  387   1.920   0.783   1.966 -2.7723 -3.0136  0.3634
  130SOL     OW  388   1.393   2.254   1.007  0.1334  0.2938  0.3773
  130SOL    HW1  389   1.334   2.216   0.931  1.4017 -0.2165 -0.1637
  130SOL    HW2  390   1.470   2.320   0.976  1.8896  2.9153 -0.1827
  131SOL     OW  391   2.999   1.391   1.394  0.3570  0.3931 -0.1900
  131SOL    HW1  392   2.947   1.302   1.409 -4.7812  1.7295  0.1218
  131SOL    HW2  393   3.102   1.387   1.377 -3.5517  1.2018 -1.0105
  132SOL     OW  394   2.009   2.428   0.567 -0.4949  0.1788 -0.4511
  132SOL    HW1  395   1.916   2.459   0.543 -0.6500  2.2816 -0.7093
  132SOL    HW2  396   2.022   2.348   0.635  0.3428  0.3462 -0.0969
  133SOL     OW  397   1.706   2.460   2.699 -0.2466  0.2699 -0.0248
  133SOL    HW1  398   1.617   2.439   2.652 -1.4145  3.6231 -0.2568
  133SOL    HW2  399   1.747   2.543   2.661  0.0540 -1.8690  0.0992
  134SOL     OW  400   2.594   2.409   1.704  0.1863 -0.3754 -0.0767
  134SOL    HW1  401   2.526   2.356   1.763 -1.1108  0.2790  2.2801
  134SOL    HW2  402   2.640   2.489   1.751  1.6886 -0.2869  1.9241
  135SOL     OW  403   0.776   1.354   2.672 -0.5081 -0.1517 -0.3123
  135SOL    HW1  404   0.718   1.266   2.702 -0.2514 -2.3463  3.0919
  135SOL    HW2  405   0.757   1.376   2.573  1.4626 -1.0490  0.6944
  136SOL     OW  406   1.237   2.033   0.385  0.1079 -0.1059 -0.3766
  136SOL    HW1  407   1.182   2.105   0.431  1.9658  0.6718  1.9696
  136SOL    HW2  408   1.188   1.943   0.378 -0.2677 -0.2462 -1.2206
  137SOL     OW  409   0.474   1.180   2.284 -0.1711  0.5545 -0.3226
  137SOL    HW1  410   0.372   1.176   2.260  1.8592 -0.8305 -0.4529
  137SOL    HW2  411   0.519   1.089   2.270  1.2737  2.6331  4.3924
  138SOL     OW  412   2.430   1.532   0.281  0.7790  0.3788 -0.1712
  138SOL    HW1  413   2.355   1.483   0.229 -2.2277  1.0115 -2.0980
  138SOL    HW2  414   2.498   1.472   0.337 -0.0778 -0.7838 -0.4821
  139SOL     OW  415   1.889   2.698   1.521  0.1249  0.1907 -0.3432
  139SOL    HW1  416   1.798   2.742   1.500  0.2393  0.3024 -1.3492
  139SOL    HW2  417   1.918   2.626   1.454 -1.3723  1.7958  1.9571
  140SOL     OW  418   3.089   2.977   2.640  0.0109  0.1050 -0.3187
  140SOL    HW1  419   3.100   2.877   2.616 -1.7172 -2.2879 -0.2532
  140SOL    HW2  420   3.158   3.037   2.600 -0.4877 -0.5571 -1.6024
  141SOL     OW  421   1.239   1.629   1.422  0.4817  0.9746  0.6248
  141SOL    HW1  422   1.154   1.626   1.358 -1.3659 -0.5726  1.4118
  141SOL    HW2  423   1.226   1.584   1.513  3.2007 -2.6724  0.5520
  142SOL     OW  424   1.600   0.634   2.296  0.3348 -0.1971  0.5399
  142SOL    HW1  425   1.616   0.613   2.196  1.7704 -1.8011  1.8090
  142SOL    HW2  426   1.501   0.620   2.323  2.4864 -0.0603  0.9185
  143SOL     OW  427   2.822   0.773   0.562 -0.0669  0.3182 -0.7284
  143SOL    HW1  428   2.863   0.829   0.485  1.4273  1.8084 -0.4546
  143SOL    HW2  429   2.834   0.826   0.653  0.2356 -2.6199  0.2915
  144SOL     OW  430   2.918   1.106   1.392 -0.1705 -0.4438 -0.4247
  144SOL    HW1  431   2.861   1.092   1.479 -1.1773 -1.1181 -1.1999
  144SOL    HW2  432   3.013   1.071   1.405  0.0373  2.4876  1.5727
  145SOL     OW  433   0.965   1.915   0.060  0.2452  0.3739 -0.1397
  145SOL    HW1  434   0.996   1.955  -0.031  1.0617 -1.1490 -1.7883
  145SOL    HW2  435   0.879   1.864   0.050  0.7691  1.4054  0.5789
  146SOL     OW  436   2.441   0.620   1.555 -0.2743 -0.6329  0.3623
  146SOL    HW1  437   2.416   0.523   1.558  0.0077  3.0356  1.1841
  146SOL    HW2  438   2.371   0.692   1.516 -1.5355  1.1204 -2.3891
  147SOL     OW  439   1.052   2.498   0.473  0.1699 -0.2608 -0.7692
  147SOL    HW1  440   1.016   2.579   0.416  0.6345  1.9846 -0.2949
  147SOL    HW2  441   1.154   2.488   0.468 -1.0604  1.5839  1.3237
  148SOL     OW  442   1.550   1.349   0.030  0.3701 -0.6570  0.4495
  148SOL    HW1  443   1.566   1.247   0.019  0.2926 -1.8249 -0.7862
  148SOL    HW2  444   1.519   1.366   0.130  0.6959 -1.5902 -0.1913
  149SOL     OW  445   0.724   1.493   1.943 -0.1729 -0.4273 -0.1468
  149SOL    HW1  446   0.631   1.468   1.986 -1.1522 -1.0604 -3.4510
  149SOL    HW2  447   0.733   1.465   1.844 -0.9678 -1.4414 -1.2703
  150SOL     OW  448   3.005   1.195   0.993 -0.1284 -0.4330 -0.2584
  150SOL    HW1  449   3.089   1.203   1.049 -1.5046  0.8898  1.3343
  150SOL    HW2  450   2.962   1.100   1.013  1.0684  0.1877  0.6147
  151SOL     OW  451   0.170   0.871   2.137  0.2665  0.7217  0.4850
  151SOL    HW1  452   0.187   0.950   2.071 -1.8003 -0.4085 -0.4689
  151SOL    HW2  453   0.218   0.790   2.095 -0.5194 -0.0482  2.4573
  152SOL     OW  454   1.401   1.882   1.070 -0.0928  0.0992 -0.3982
  152SOL    HW1  455   1.466   1.961   1.097  0.6030  0.2734 -0.4398
  152SOL    HW2  456   1.298   1.906   1.083 -1.3361  0.2502 -2.4954
  153SOL     OW  457   0.103   1.533   0.257  0.9184  0.2756  0.2086
  153SOL    HW1  458   0.092   1.430   0.268  0.6548 -2.3719  2.7272
  153SOL    HW2  459   0.084   1.586   0.345 -2.7545 -0.2615  0.7106
  154SOL     OW  460   2.268   1.858   2.789  0.0367 -0.5945  0.2236
  154SOL    HW1  461   2.280   1.765   2.820 -0.5928  0.3714 -2.5270
  154SOL    HW2  462   2.349   1.889   2.735 -1.7255 -0.7634  1.5773
  155SOL     OW  463   2.598   1.328   0.374 -0.1762  0.0720  0.0796
  155SOL    HW1  464   2.652   1.384   0.440  1.2855 -0.1380 -0.0801
  155SOL    HW2  465   2.649   1.248   0.335  0.7047  2.1146  0.5921
  156SOL     OW  466   2.504   0.811   0.753  0.0141  0.3245 -0.1753
  156SOL    HW1  467   2.401   0.823   0.780  1.4352 -2.2959 -0.4873
  156SOL    HW2  468   2.527   0.861   0.664 -0.5432 -1.7936 -0.7208
  157SOL     OW  469   1.203   0.017   3.008 -0.4294  0.2778  0.1582
  157SOL    HW1  470   1.274  -0.013   2.937  0.3140 -0.1259 -1.4649
  157SOL    HW2  471   1.223   0.100   3.069  1.5590  0.0674  0.4485
  158SOL     OW  472   1.039   1.822   1.882  0.3321 -0.7785 -0.0023
  158SOL    HW1  473   1.068   1.910   1.848  0.2734 -1.6892 -1.0009
  158SOL    HW2  474   0.955   1.841   1.944 -2.6369  1.0456  0.2278
  159SOL     OW  475   0.827   0.377   1.209 -0.1140  0.2313  0.2585
  159SOL    HW1  476   0.781   0.470   1.217  2.7539  2.8626  1.9473
  159SOL    HW2  477   0.787   0.313   1.134  0.0010 -0.6414  1.3712
  160SOL     OW  478   1.375   2.475   1.463  0.1816  0.2456  0.2055
  160SOL    HW1  479   1.309   2.412   1.518 -1.4232 -1.1134  0.3771
  160SOL    HW2  480   1.468   2.430   1.450  1.2540 -1.2338  2.5591
  161SOL     OW  481   0.087   2.682   0.401 -0.1050  0.3777 -0.2829
  161SOL    HW1  482   0.053   2.588   0.429  2.0201  3.2806  1.8598
  161SOL    HW2  483   0.010   2.746   0.369 -0.4396 -1.9862 -0.7328
  162SOL     OW  484   2.578   1.964   0.473  0.5064  0.4496 -0.0633
  162SOL    HW1  485   2.622   1.992   0.387 -0.1234  0.5229 -0.5047
  162SOL    HW2  486   2.509   1.888   0.471 -0.4610 -0.7044 -0.2863
  163SOL     OW  487   1.893   2.669   0.770  0.3018 -0.9352 -0.5342
  163SOL    HW1  488   1.887   2.694   0.667 -0.6317  1.4130 -2.0836
  163SOL    HW2  489   1.992   2.664   0.804 -0.9822  1.2485  1.9941
  164SOL     OW  490   3.032   0.187   1.274  0.5376  0.5339  0.0358
  164SOL    HW1  491   3.027   0.277   1.222  0.1548 -0.7411  0.7251
  164SOL    HW2  492   3.113   0.168   1.334  1.3129  1.8695 -0.5269
  165SOL     OW  493   1.050   1.341   0.654 -0.6325  0.0763  0.1311
  165SOL    HW1  494   1.056   1.413   0.728 -0.4570  0.6501 -1.3673
  165SOL    HW2  495   1.027   1.374   0.556 -2.0203 -4.0244 -0.8965
  166SOL     OW  496   1.545   0.971   1.732 -0.3047  0.1374 -0.3861
  166SOL    HW1  497   1.448   0.997   1.764 -1.4758  2.9629 -1.7056
  166SOL    HW2  498   1.609   1.056   1.724 -2.1005  0.6286 -0.4958
  167SOL     OW  499   0.646   2.010   1.523  0.2536 -0.6477 -0.0119
  167SOL    HW1  500   0.715   2.018   1.599 -1.5582  0.6629  0.6818
  167SOL    HW2  501   0.578   1.930   1.541 -0.6456 -2.5099  0.9058
  168SOL     OW  502   1.656   2.353   0.160 -0.2032  0.4195  0.4305
  168SOL    HW1  503   1.733   2.354   0.085 -2.3657  0.4338 -0.8579
  168SOL    HW2  504   1.685   2.303   0.250  2.0868 -1.1988  1.0843
  169SOL     OW  505   3.036   2.622   2.148 -0.2910 -0.2172 -0.5128
  169SOL    HW1  506   3.068   2.629   2.049  0.4522  0.4122 -0.4749
  169SOL    HW2  507   3.097   2.570   2.219  0.7140  0.2898  1.1686
  170SOL     OW  508   1.140   0.128   2.107 -0.0280 -0.6417 -0.3133
  170SOL    HW1  509   1.206   0.158   2.180 -4.6780 -0.4976  2.9834
  170SOL    HW2  510   1.168   0.158   2.011  0.6298  5.2797 -0.5794
  171SOL     OW  511   0.168   0.867   2.421  0.2367 -0.3127 -0.8203
  171SOL    HW1  512   0.068   0.874   2.447 -1.4906 -1.5618 -1.2910
  171SOL    HW2  513   0.179   0.868   2.318  1.1076 -2.2188  1.0383
  172SOL     OW  514   1.043   1.056   2.841  0.0698  1.1328  0.0599
  172SOL    HW1  515   0.985   1.099   2.913  1.2119  2.7200 -0.5468
  172SOL    HW2  516   1.008   1.056   2.744  2.4397  0.4714 -0.3942
  173SOL     OW  517   0.308   2.566   3.063 -0.3588  0.5039  0.2309
  173SOL    HW1  518   0.326   2.488   2.999 -0.3998 -0.5452  2.4846
  173SOL    HW2  519   0.343   2.538   3.157 -1.1835 -0.0306  0.3818
  174SOL     OW  520   1.486   2.898   0.997 -0.2398 -0.6298  0.5875
  174SOL    HW1  521   1.581   2.904   0.959  0.9859 -1.6634  2.3682
  174SOL    HW2  522   1.437   2.809   0.966  1.0520 -0.2750 -1.0401
  175SOL     OW  523   0.395   0.033   1.749 -0.4249 -0.1661  0.2334
  175SOL    HW1  524   0.477   0.018   1.816 -1.8027 -0.6101  1.3982
  175SOL    HW2  525   0.392   0.123   1.697  0.5232  0.6356  0.9089
  176SOL     OW  526   2.530   0.494   0.035  0.1377  0.7055  0.0404
  176SOL    HW1  527   2.560   0.550   0.120 -0.1959 -1.0981  0.4426
  176SOL    HW2  528   2.505   0.395   0.054 -1.9753  3.2053 -0.2780
  177SOL     OW  529   0.339   0.087   0.776  0.5222 -0.2173 -0.0522
  177SOL    HW1  530   0.298   0.013   0.834  1.9280  0.1061 -1.6509
  177SOL    HW2  531   0.439   0.100   0.784 -2.9007  0.6521 -1.2602
  178SOL     OW  532   0.019   2.695   2.610  0.2621 -0.7379 -0.1854
  178SOL    HW1  533   0.005   2.591   2.615  0.4156 -0.6142  0.7477
  178SOL    HW2  534   0.081   2.724   2.683 -1.3508 -0.9272 -0.7428
  179SOL     OW  535   2.984   1.618   1.236 -0.5206  0.0575  0.5627
  179SOL    HW1  536   3.067   1.623   1.168  2.4176  1.2825  0.2389
  179SOL    HW2  537   2.991   1.537   1.302  1.9538  0.6048 -0.1408
  180SOL     OW  538   0.223   1.348   1.730  0.0554 -0.0924 -0.1525
  180SOL    HW1  539   0.297   1.299   1.785  0.1914 -0.3032 -1.9209
  180SOL    HW2  540   0.152   1.405   1.787 -2.7527  2.0327  0.8830
  181SOL     OW  541   3.056   1.752   2.427 -0.1939  0.2131 -0.0170
  181SOL    HW1  542   3.146   1.806   2.399 -0.1570 -0.2088 -2.8454
  181SOL    HW2  543   2.961   1.798   2.412 -1.6096  0.6299  1.5555
  182SOL     OW  544   2.217   1.416   1.204 -0.0559  0.0520 -0.1955
  182SOL    HW1  545   2.255   1.351   1.282  2.1185  1.1497  0.5590
  182SOL    HW2  546   2.226   1.373   1.112  0.2972 -0.7097 -2.3335
  183SOL     OW  547   1.395   2.196   2.484 -0.2506 -0.0604 -0.4627
  183SOL    HW1  548   1.321   2.118   2.482 -1.5835 -1.7366 -1.4525
  183SOL    HW2  549   1.494   2.166   2.467  0.5982 -0.2995  1.0510
  184SOL     OW  550   2.213   0.810   0.772 -0.8239  0.2387 -0.6107
  184SOL    HW1  551   2.127   0.843   0.727  0.0732 -1.9527 -0.1030
  184SOL    HW2  552   2.219   0.709   0.767 -0.0252  0.4527  0.4309
  185SOL     OW  553   1.589   2.782   2.018 -0.1052  0.3945 -0.0744
  185SOL    HW1  554   1.504   2.839   2.015  1.2774 -0.3633  1.4326
  185SOL    HW2  555   1.616   2.759   2.115 -1.3585 -0.3519  0.1654
  186SOL     OW  556   3.090   2.121   1.777  0.3521 -0.0904 -0.3537
  186SOL    HW1  557   3.103   2.209   1.828 -2.6838 -1.5521 -0.6060
  186SOL    HW2  558   3.140   2.047   1.825 -3.7501  0.6404  0.4356
  187SOL     OW  559   1.346   0.620   1.655 -0.1352 -0.1503 -0.6383
  187SOL    HW1  560   1.429   0.671   1.609  1.0045 -0.6878  0.3084
  187SOL    HW2  561   1.374   0.568   1.739 -0.5363 -0.8358 -0.2425
  188SOL     OW  562   2.718   2.683   1.514  0.6567  0.1036 -1.0746
  188SOL    HW1  563   2.687   2.780   1.549  0.1823  0.2260 -1.4264
  188SOL    HW2  564   2.642   2.614   1.503  0.4116 -1.7369  0.3606
  189SOL     OW  565   0.861   1.102   1.444  0.1669 -1.1623 -0.0988
  189SOL    HW1  566   0.898   1.176   1.508  2.4348  1.0721 -0.0758
  189SOL    HW2  567   0.799   1.148   1.376 -2.8998  0.0601  1.8772
  190SOL     OW  568   1.381   1.876   1.511  0.1079 -0.4695  0.4911
  190SOL    HW1  569   1.333   1.789   1.486 -0.2723 -0.9617 -3.8703
  190SOL    HW2  570   1.385   1.895   1.616  2.6966  0.7172  1.1759
  191SOL     OW  571   0.918   0.721   1.482  0.3280 -0.1675 -1.1430
  191SOL    HW1  572   0.942   0.669   1.566 -0.1808  1.4827 -1.1212
  191SOL    HW2  573   0.995   0.712   1.415 -3.9732 -1.4604 -1.0125
  192SOL     OW  574   1.833   2.409   1.119 -0.3666  0.0201  0.5974
  192SOL    HW1  575   1.753   2.403   1.055  1.9179 -0.6799 -3.9495
  192SOL    HW2  576   1.919   2.398   1.058  1.2950  0.6690 -2.0913
  193SOL     OW  577   0.507   0.491   0.404  0.6057 -0.1972  0.0255
  193SOL    HW1  578   0.425   0.428   0.408 -0.0716  0.2274  1.4864
  193SOL    HW2  579   0.558   0.479   0.312  2.6084  0.7148 -0.8534
  194SOL     OW  580   0.439   0.723   1.185 -0.0426 -0.1103 -0.4970
  194SOL    HW1  581   0.345   0.692   1.210  0.6270 -0.0407 -0.6785
  194SOL    HW2  582   0.479   0.675   1.104 -1.9743  1.2461  1.3465
  195SOL     OW  583   0.993   2.921   0.510 -0.3871  0.2179  0.5857
  195SOL    HW1  584   0.999   2.838   0.445 -1.2221 -1.5060  1.8807
  195SOL    HW2  585   1.083   2.974   0.518 -0.6386  1.1125 -0.4594
  196SOL     OW  586   0.165   1.362   1.384 -0.2728  0.0834  0.8060
  196SOL    HW1  587   0.204   1.442   1.438  2.6719 -0.6206 -0.0955
  196SOL    HW2  588   0.174   1.267   1.430 -1.5925 -2.1832  1.5952
  197SOL     OW  589   0.782   1.962   0.273 -0.0273 -0.1307  0.1039
  197SOL    HW1  590   0.803   1.911   0.362  0.1044  1.6473 -1.8527
  197SOL    HW2  591   0.867   1.999   0.227 -1.3058  2.8280 -0.5272
  198SOL     OW  592   0.301   1.226   0.343 -0.2814  0.0634  0.0147
  198SOL    HW1  593   0.202   1.210   0.318  0.8528 -1.4189 -1.6697
  198SOL    HW2  594   0.315   1.323   0.379 -1.1932  1.4284 -0.3049
  199SOL     OW  595   2.324   0.439   2.629  0.0191  0.9473 -0.3470
  199SOL    HW1  596   2.251   0.402   2.697 -0.8562  0.2779  2.0708
  199SOL    HW2  597   2.411   0.382   2.637 -0.1639 -0.0351 -1.2664
  200SOL     OW  598   0.004   2.909   0.725 -0.0516 -0.8539 -0.4175
  200SOL    HW1  599   0.030   2.997   0.672 -0.9403 -1.6016 -0.6388
  200SOL    HW2  600  -0.082   2.870   0.688  1.4238 -1.2665  1.6145
  201SOL     OW  601   0.867   0.667   0.473 -0.4081 -0.1747 -0.2964
  201SOL    HW1  602   0.847   0.735   0.548  0.4715 -2.9564 -1.9154
  201SOL    HW2  603   0.834   0.568   0.493 -0.6459 -2.9467  3.2267
  202SOL     OW  604   0.417   1.237   1.880 -0.3542 -0.5524 -0.2781
  202SOL    HW1  605   0.489   1.185   1.828 -1.1674 -0.4099 -2.1371
  202SOL    HW2  606   0.459   1.296   1.954 -1.0911 -0.7874  1.0579
  203SOL     OW  607   0.639   0.218   1.614  0.6058  0.2207  0.1416
  203SOL    HW1  608   0.704   0.174   1.544 -0.2515 -1.1684  0.9941
  203SOL    HW2  609   0.677   0.219   1.713 -0.2798 -0.2460  1.9387
  204SOL     OW  610   2.027   1.813   2.955  0.0604  0.2501 -0.6934
  204SOL    HW1  611   2.033   1.713   2.977  1.6445  0.0296  0.2161
  204SOL    HW2  612   2.110   1.834   2.896 -0.4598  0.1423  0.1414
  205SOL     OW  613   1.759   1.879   3.029 -0.2517 -0.0592 -0.2053
  205SOL    HW1  614   1.852   1.840   3.007 -2.4321 -2.6930 -0.1203
  205SOL    HW2  615   1.747   1.976   2.983  1.4991  0.3398 -1.5620
  206SOL     OW  616   2.405   2.737   0.318  0.1538 -0.3445  0.0743
  206SOL    HW1  617   2.353   2.681   0.390 -1.8375 -0.9612 -0.2826
  206SOL    HW2  618   2.476   2.676   0.267  3.1755 -1.2649  1.0275
  207SOL     OW  619   0.697   1.765   2.917  0.0488 -0.2004  0.5151
  207SOL    HW1  620   0.758   1.691   2.872  1.4465  1.4834 -1.9020
  207SOL    HW2  621   0.640   1.721   2.991  1.6801 -0.6534 -0.3330
  208SOL     OW  622   1.027   1.581   1.232  0.2697 -0.1357 -0.2106
  208SOL    HW1  623   0.972   1.612   1.155 -1.0825 -1.5248  0.6652
  208SOL    HW2  624   0.972   1.546   1.314 -0.9263 -1.2511  1.4477
  209SOL     OW  625   0.264   0.973   0.014 -0.0398  0.0747  0.1852
  209SOL    HW1  626   0.296   0.917  -0.067  2.0968 -2.1466  0.3273
  209SOL    HW2  627   0.249   0.923   0.101 -0.7597  0.6032 -2.8431
  210SOL     OW  628   1.764   0.694   1.248 -0.2978  0.4857  0.1363
  210SOL    HW1  629   1.728   0.795   1.253 -1.8920  2.1206  0.0460
  210SOL    HW2  630   1.863   0.684   1.220  0.9076  2.8713  1.0885
  211SOL     OW  631   2.054   1.148   1.534  0.0937 -0.0780 -0.3090
  211SOL    HW1  632   2.068   1.111   1.627 -0.5524  1.8984 -1.6241
  211SOL    HW2  633   2.137   1.191   1.479  0.3853 -1.2037 -1.8715
  212SOL     OW  634   0.073   0.937   1.433 -0.7081 -0.5321  0.3866
  212SOL    HW1  635   0.135   1.014   1.467  0.1219 -2.4893 -1.1714
  212SOL    HW2  636   0.072   0.857   1.497  0.1502 -1.8600 -2.2491
  213SOL     OW  637   2.817   0.052   0.347 -0.8483 -0.5764  0.3439
  213SOL    HW1  638   2.917   0.056   0.315  2.4277 -0.7286 -1.5563
  213SOL    HW2  639   2.758   0.008   0.276  1.8409  1.3760 -2.1917
  214SOL     OW  640   2.205   0.334   2.391  0.0937 -0.0099  0.2294
  214SOL    HW1  641   2.252   0.351   2.482  0.3029  0.1911  2.1572
  214SOL    HW2  642   2.164   0.242   2.396 -1.1493  3.2869 -0.6926
  215SOL     OW  643   1.715   2.295   2.060  0.4543  0.0548 -0.0842
  215SOL    HW1  644   1.815   2.325   2.064 -0.6851 -1.6947 -2.6556
  215SOL    HW2  645   1.646   2.364   2.097  2.3979  0.6387  1.0342
  216SOL     OW  646   2.314   0.531   0.772 -0.1072  0.3059 -0.0582
  216SOL    HW1  647   2.268   0.462   0.707  1.4355  0.3202  0.4381
  216SOL    HW2  648   2.412   0.531   0.759  0.2681  1.8218 -0.9245
  217SOL     OW  649   0.890   2.689   2.539  0.2213  0.0403 -0.1755
  217SOL    HW1  650   0.889   2.646   2.640  0.5968  1.6968 -0.4702
  217SOL    HW2  651   0.809   2.659   2.483 -1.4275 -0.8798 -2.3285
  218SOL     OW  652   1.829   1.400   0.035 -0.8184  0.2066  0.3295
  218SOL    HW1  653   1.729   1.379   0.009 -1.9533  2.1716 -0.2715
  218SOL    HW2  654   1.865   1.324   0.101  1.8312 -2.2406  0.9104
  219SOL     OW  655   2.416   1.258   2.539  0.1065 -0.1121  0.6787
  219SOL    HW1  656   2.486   1.214   2.471 -1.1290 -0.3033 -1.6974
  219SOL    HW2  657   2.386   1.199   2.617 -2.4281 -3.4913 -2.0869
  220SOL     OW  658   1.439   1.024   1.405  0.3766 -0.3279 -0.3953
  220SOL    HW1  659   1.541   1.033   1.398 -0.3740  0.2632  0.8279
  220SOL    HW2  660   1.392   1.041   1.316 -0.5735  0.9474  1.2187
  221SOL     OW  661   1.234   1.010   2.096 -0.0402 -0.0245 -0.6405
  221SOL    HW1  662   1.269   1.023   2.000  0.0482  0.2421 -0.4814
  221SOL    HW2  663   1.308   1.029   2.172  2.8204 -0.8206  2.7972
  222SOL     OW  664   1.140   0.061   1.200 -0.1556 -0.3975  0.6271
  222SOL    HW1  665   1.161   0.120   1.282  0.0014 -1.0528  1.0084
  222SOL    HW2  666   1.171   0.109   1.113 -1.5342 -0.9969 -2.3680
  223SOL     OW  667   2.693   0.960   2.150 -0.0202  0.2099 -0.0914
  223SOL    HW1  668   2.638   0.972   2.237  1.2030  3.2304  0.9346
  223SOL    HW2  669   2.794   0.974   2.166  1.9215 -0.1989 -1.1023
  224SOL     OW  670   1.584   0.973   2.807  0.8192 -0.2083 -0.3735
  224SOL    HW1  671   1.577   0.928   2.716  2.5609  1.2130  1.9964
  224SOL    HW2  672   1.588   1.080   2.792  0.6769  0.7655  1.5170
  225SOL     OW  673   2.956   2.657   2.881  0.1495 -0.2620 -0.3969
  225SOL    HW1  674   2.867   2.685   2.831 -2.8378  0.9285  2.5501
  225SOL    HW2  675   3.043   2.713   2.852 -0.2596  0.0026 -1.6539
  226SOL     OW  676   2.372   1.583   2.855 -0.7819  0.3222  0.1603
  226SOL    HW1  677   2.425   1.569   2.764 -1.1098 -0.2920 -1.9626
  226SOL    HW2  678   2.415   1.522   2.926 -2.1083 -3.1470  0.9429
  227SOL     OW  679   0.883   0.283   3.037 -0.3375 -0.6555  0.4363
  227SOL    HW1  680   0.876   0.382   3.019 -2.1146 -0.4316 -1.7725
  227SOL    HW2  681   0.851   0.221   2.965 -0.5846 -0.8749 -0.8206
  228SOL     OW  682   2.393   0.655   2.926  0.0874 -0.6988  0.3717
  228SOL    HW1  683   2.419   0.705   2.838  1.4281 -1.8194  1.0915
  228SOL    HW2  684   2.435   0.564   2.936 -1.3382 -1.4162 -0.0557
  229SOL     OW  685   0.753   0.687   1.727 -0.1253  0.8066  0.1307
  229SOL    HW1  686   0.819   0.661   1.806 -1.1232 -1.8201  0.3004
  229SOL    HW2  687   0.729   0.601   1.675 -2.9602 -2.0604  0.5022
  230SOL     OW  688   1.913   1.207   1.936 -0.4902 -0.0829 -0.2441
  230SOL    HW1  689   1.990   1.273   1.903  1.0397  1.7778 -0.8171
  230SOL    HW2  690   1.864   1.255   2.016  0.9028 -1.9086 -0.1088
  231SOL     OW  691   0.682   0.986   0.050  0.3797 -0.1649  0.4766
  231SOL    HW1  692   0.760   0.999   0.112 -0.8278 -0.0928 -1.9337
  231SOL    HW2  693   0.629   1.074   0.041 -0.5627  2.8411  0.9541
  232SOL     OW  694   2.414   2.982   2.794  0.0771  0.7966 -0.1040
  232SOL    HW1  695   2.486   2.913   2.829  0.0548  0.0882 -1.3550
  232SOL    HW2  696   2.443   3.014   2.698  1.4268 -1.3890 -1.0654
  233SOL     OW  697   1.809   1.093   1.146  0.0793 -0.1621 -0.4685
  233SOL    HW1  698   1.862   1.173   1.110  1.1303 -1.9231 -0.0673
  233SOL    HW2  699   1.864   1.007   1.151 -0.9809  1.2087 -1.6980
  234SOL     OW  700   1.648   2.532   1.825  0.2136 -0.5627  0.0957
  234SOL    HW1  701   1.637   2.598   1.896  1.0535 -0.2948 -0.5336
  234SOL    HW2  702   1.598   2.443   1.846 -1.4166  0.1418  0.9455
  235SOL     OW  703   0.090   3.018   2.906 -0.5368  0.6467  0.3440
  235SOL    HW1  704   0.060   3.019   2.808  0.2332 -1.4438  0.2562
  235SOL    HW2  705   0.032   3.072   2.971  1.2605  0.3225  0.4197
  236SOL     OW  706   2.893   0.756   0.053 -0.5000 -0.0732 -0.2431
  236SOL    HW1  707   2.952   0.794   0.132  1.7235 -1.9318  0.3732
  236SOL    HW2  708   2.934   0.667   0.019  0.8281  0.1874  3.9776
  237SOL     OW  709   1.498   1.688   0.908 -0.4235 -0.0367  0.0790
  237SOL    HW1  710   1.602   1.666   0.905  3.3420  0.3534  0.4172
  237SOL    HW2  711   1.470   1.738   0.995  1.2415  0.3205 -0.4699
  238SOL     OW  712   1.918   1.218   0.734  0.3139 -0.6606  0.2414
  238SOL    HW1  713   1.953   1.221   0.827  1.3063  0.0743 -2.9351
  238SOL    HW2  714   1.818   1.249   0.724 -1.0129  0.5337  0.9363
  239SOL     OW  715   2.103   0.355   2.777  0.4186 -0.0460 -0.5593
  239SOL    HW1  716   2.125   0.333   2.875  0.9197  0.6405 -1.3611
  239SOL    HW2  717   2.017   0.418   2.771 -0.0377 -0.2037 -2.8609
  240SOL     OW  718   0.888   0.674   0.192 -0.0097 -0.1047 -0.5424
  240SOL    HW1  719   0.968   0.618   0.164 -0.7400 -0.2690  0.2773
  240SOL    HW2  720   0.882   0.680   0.297  3.2142  0.0718 -0.5457
  241SOL     OW  721   0.553   0.125   0.334 -0.0106 -0.0214 -0.6239
  241SOL    HW1  722   0.644   0.164   0.312 -0.2199 -2.5713 -1.5189
  241SOL    HW2  723   0.530   0.047   0.268 -2.2613 -0.5524  0.6909
  242SOL     OW  724   0.620   2.612   1.276  0.5030  0.1632 -0.5003
  242SOL    HW1  725   0.606   2.556   1.366 -0.5609 -0.1038  1.6025
  242SOL    HW2  726   0.688   2.686   1.274 -0.5640  0.2493 -1.4276
  243SOL     OW  727   1.093   0.580   2.415  0.6306 -0.3741  0.1501
  243SOL    HW1  728   1.005   0.604   2.359 -1.9633 -0.0252 -1.8016
  243SOL    HW2  729   1.071   0.530   2.506  1.9753  0.2077 -0.7821
  244SOL     OW  730   2.813   1.861   2.362  0.3302 -0.2595 -0.0777
  244SOL    HW1  731   2.844   1.866   2.260 -0.4305 -2.4576 -1.4212
  244SOL    HW2  732   2.728   1.806   2.377  0.3559  1.5044 -0.6932
  245SOL     OW  733   2.147   1.034   2.228  1.0673 -0.0014  0.0917
  245SOL    HW1  734   2.238   1.007   2.267 -2.1517  2.8270  1.3570
  245SOL    HW2  735   2.110   1.123   2.267 -0.1279  0.3329 -2.9496
  246SOL     OW  736   0.255   2.892   1.808 -0.1465 -0.4285 -1.1428
  246SOL    HW1  737   0.194   2.842   1.745 -1.3689  1.6195  2.0420
  246SOL    HW2  738   0.271   2.989   1.773 -1.5880  1.1336 -1.3427
  247SOL     OW  739   2.187   0.610   0.025  0.1119 -0.0586  0.5366
  247SOL    HW1  740   2.259   0.634  -0.043 -3.9551 -1.6002 -1.3127
  247SOL    HW2  741   2.114   0.690   0.031  0.3876  0.0435 -0.2795
  248SOL     OW  742   2.152   1.881   1.590 -0.0022 -0.6493  0.6588
  248SOL    HW1  743   2.213   1.802   1.616 -0.9260  0.7946 -1.6626
  248SOL    HW2  744   2.133   1.948   1.672  0.8892 -0.4193 -0.9570
  249SOL     OW  745   1.867   1.841   1.902 -0.2905 -0.2906 -0.5393
  249SOL    HW1  746   1.859   1.770   1.827 -0.6152  2.0809 -0.6334
  249SOL    HW2  747   1.966   1.870   1.918 -0.3550  0.6609 -0.0445
  250SOL     OW  748   1.066   0.648   1.862 -0.6626 -0.1867  0.0216
  250SOL    HW1  749   1.129   0.625   1.941  0.4571 -1.1280 -1.3568
  250SOL    HW2  750   1.091   0.580   1.792  0.9330 -1.3355  1.6472
  251SOL     OW  751   3.031   1.493   2.545 -0.2983 -0.4506 -0.3279
  251SOL    HW1  752   3.037   1.590   2.500  0.3462  1.9594  0.4492
  251SOL    HW2  753   2.969   1.424   2.497 -1.3067 -1.0831 -1.8630
  252SOL     OW  754   1.545   0.779   1.559  0.1662  0.5558 -0.5537
  252SOL    HW1  755   1.572   0.827   1.472 -0.2151  1.5524 -0.0882
  252SOL    HW2  756   1.552   0.838   1.645  0.2712 -0.0381 -1.8219
  253SOL     OW  757   0.989   1.474   0.408 -0.3374  0.0377  0.5839
  253SOL    HW1  758   1.004   1.478   0.307  0.2440  0.8585 -1.5387
  253SOL    HW2  759   0.891   1.494   0.431 -1.2955  0.0073 -0.8284
  254SOL     OW  760   2.064   2.207   1.627 -0.1105  0.7001 -0.0995
  254SOL    HW1  761   1.984   2.152   1.584 -1.9603 -1.0068 -0.5724
  254SOL    HW2  762   2.026   2.284   1.685 -0.7600  0.8783  2.4103
  255SOL     OW  763   0.093   1.148   2.971  0.3235 -0.6441  0.0305
  255SOL    HW1  764   0.155   1.218   2.922  0.8635  1.9034 -1.5139
  255SOL    HW2  765   0.149   1.081   3.035 -2.2109 -0.9767 -1.4863
  256SOL     OW  766   2.756   1.426   1.785 -0.6121 -0.2858 -0.4612
  256SOL    HW1  767   2.704   1.449   1.867 -0.6816 -1.9914  3.6187
  256SOL    HW2  768   2.702   1.361   1.720 -0.0055  0.4193 -1.6531
  257SOL     OW  769   0.834   0.189   1.853 -0.1503  1.0024 -0.5347
  257SOL    HW1  770   0.881   0.230   1.772  2.7547  2.5214 -2.5396
  257SOL    HW2  771   0.853   0.083   1.862 -0.3229  2.0893  0.2595
  258SOL     OW  772   2.990   1.150   0.540  0.0421 -0.5098  0.0069
  258SOL    HW1  773   2.911   1.212   0.549 -0.3081  2.8459 -0.8485
  258SOL    HW2  774   3.038   1.148   0.632 -1.5969 -2.2925  0.4573
  259SOL     OW  775   0.470   2.953   3.039 -0.2249 -0.6066 -0.8122
  259SOL    HW1  776   0.391   2.915   3.088  2.5516  2.0458 -2.1717
  259SOL    HW2  777   0.483   2.900   2.951 -1.7026 -3.2881 -2.5262
  260SOL     OW  778   2.705   0.657   2.780  0.6123  0.3197 -0.8478
  260SOL    HW1  779   2.623   0.704   2.743  0.4649  1.2287  1.6465
  260SOL    HW2  780   2.688   0.564   2.819 -3.9192  0.1223 -1.4916
  261SOL     OW  781   2.713   1.292   1.265 -0.6058 -0.0225 -0.4724
  261SOL    HW1  782   2.645   1.243   1.198 -2.4949 -1.7349  1.5852
  261SOL    HW2  783   2.798   1.232   1.280  1.3818  1.5614 -0.3382
  262SOL     OW  784   1.380   2.959   1.982 -0.3834  0.2493  0.0774
  262SOL    HW1  785   1.384   3.053   1.943 -0.3555 -0.1882  0.0468
  262SOL    HW2  786   1.287   2.915   1.967 -0.8594 -2.2579 -2.4243
  263SOL     OW  787   0.847   0.666   2.270  0.5012 -0.3713  0.0990
  263SOL    HW1  788   0.779   0.597   2.241 -1.8358 -2.3832 -0.1703
  263SOL    HW2  789   0.878   0.732   2.193  1.1132 -0.1857 -2.5140
  264SOL     OW  790   2.295   0.780   0.454  0.3620 -0.8340 -0.2021
  264SOL    HW1  791   2.290   0.698   0.391  0.2494  1.3137 -0.2152
  264SOL    HW2  792   2.383   0.827   0.455 -1.1582 -1.8860 -0.8305
  265SOL     OW  793   0.880   2.284   2.647 -0.1428 -0.2600 -0.6445
  265SOL    HW1  794   0.869   2.261   2.754  0.4161 -2.6919  1.2607
  265SOL    HW2  795   0.812   2.231   2.592  0.3103  0.1275 -2.4817
  266SOL     OW  796   1.286   1.808   2.996  0.0573  0.0909 -0.1214
  266SOL    HW1  797   1.270   1.868   3.080 -0.4588  2.1704 -0.3485
  266SOL    HW2  798   1.392   1.785   2.993  3.0825 -0.0444 -1.8386
  267SOL     OW  799   1.131   3.004   2.294  0.6357 -0.0786 -0.4902
  267SOL    HW1  800   1.094   2.931   2.234 -2.1976 -0.5070  1.9642
  267SOL    HW2  801   1.150   3.075   2.225 -2.5992 -2.8220 -0.3135
  268SOL     OW  802   0.769   1.291   1.236  0.1014 -0.0030 -0.5467
  268SOL    HW1  803   0.711   1.372   1.233 -0.2171 -1.5917 -0.4822
  268SOL    HW2  804   0.864   1.312   1.195  1.5556  2.2132 -0.9271
  269SOL     OW  805   2.261   2.516   1.611 -0.4176  0.3517 -0.0433
  269SOL    HW1  806   2.365   2.513   1.636  0.6275 -1.8519  0.2629
  269SOL    HW2  807   2.195   2.506   1.691  0.3307 -0.1736  1.1299
  270SOL     OW  808   0.126   3.027   2.002  0.0188 -0.4173 -0.3937
  270SOL    HW1  809   0.170   2.949   1.944 -1.7621 -1.7875  2.2886
  270SOL    HW2  810   0.051   2.997   2.064 -1.2903  0.5104  1.3663
  271SOL     OW  811   0.345   1.460   1.118 -0.0117  0.7889 -0.3232
  271SOL    HW1  812   0.345   1.412   1.030 -1.0592  1.1253  2.2657
  271SOL    HW2  813   0.250   1.471   1.158 -3.1643  1.3615 -1.6253
  272SOL     OW  814   1.882   0.002   1.928  0.5128  0.0247  0.5615
  272SOL    HW1  815   1.817  -0.062   1.883  2.5820 -1.2768 -0.4252
  272SOL    HW2  816   1.951   0.043   1.864 -1.4435  0.4275  0.4781
  273SOL     OW  817   1.465   1.433   2.874 -0.2494 -0.2543 -0.0209
  273SOL    HW1  818   1.395   1.507   2.858  0.7886  1.8985  2.0700
  273SOL    HW2  819   1.477   1.399   2.974  2.5947 -4.2007 -1.6094
  274SOL     OW  820   1.184   0.538   2.111 -0.2342 -0.1337 -0.6013
  274SOL    HW1  821   1.102   0.491   2.151  2.7726 -0.0495 -1.3331
  274SOL    HW2  822   1.261   0.564   2.179 -0.0358 -1.5380  2.1908
  275SOL     OW  823   0.668   2.165   1.953 -0.0790  0.3342 -0.1565
  275SOL    HW1  824   0.595   2.095   1.956  2.2601  0.2313  2.2773
  275SOL    HW2  825   0.625   2.258   1.951  0.1770  1.0077 -1.6470
  276SOL     OW  826   2.203   0.932   2.832 -0.6807  0.5395 -0.0756
  276SOL    HW1  827   2.109   0.977   2.809 -0.6571  0.6872 -1.1647
  276SOL    HW2  828   2.188   0.846   2.886 -1.4601  1.7818 -2.0104
  277SOL     OW  829   3.073   0.792   0.246 -0.3192  0.3195  0.3581
  277SOL    HW1  830   3.170   0.804   0.208 -1.2244  0.9738  0.3551
  277SOL    HW2  831   3.078   0.717   0.323 -0.6258  0.7846  1.1103
  278SOL     OW  832   0.331   0.237   0.004  0.0703 -0.7525 -0.4543
  278SOL    HW1  833   0.411   0.206  -0.057  1.8697  0.1237 -1.4423
  278SOL    HW2  834   0.307   0.339  -0.003 -1.1989 -1.7704 -0.8908
  279SOL     OW  835   0.219   2.997   0.936 -0.5848  0.3914  0.1407
  279SOL    HW1  836   0.244   2.985   1.037 -2.2805 -2.5847 -1.2809
  279SOL    HW2  837   0.173   2.910   0.895 -1.7886  0.3433 -1.4185
  280SOL     OW  838   1.580   2.903   2.440  0.2303  0.4744 -0.1996
  280SOL    HW1  839   1.619   2.975   2.510 -0.6998  1.0279  0.9637
  280SOL    HW2  840   1.543   2.956   2.356  2.0760 -0.3325  2.0299
  281SOL     OW  841   0.628   0.946   2.304  0.4670  0.1790 -0.6472
  281SOL    HW1  842   0.581   0.875   2.253  0.5454  0.2192  3.1730
  281SOL    HW2  843   0.605   0.947   2.405 -1.2385  0.0733 -1.0254
  282SOL     OW  844   1.715   2.434   0.546  0.0932 -0.1970 -0.4634
  282SOL    HW1  845   1.726   2.355   0.476 -2.2496 -0.2903  1.1292
  282SOL    HW2  846   1.676   2.519   0.503 -2.4080  1.3368  1.4214
  283SOL     OW  847   1.121   0.903   0.792 -0.2753 -0.3072  0.0357
  283SOL    HW1  848   1.162   0.839   0.861 -0.7096  2.0495 -0.4079
  283SOL    HW2  849   1.113   1.001   0.831  0.6131  0.3818  1.2291
  284SOL     OW  850   2.221   2.870   2.481  0.6477  0.5115  0.3603
  284SOL    HW1  851   2.317   2.855   2.445  0.6919 -1.4871  1.6143
  284SOL    HW2  852   2.215   2.924   2.569 -0.9811  0.8836  0.3624
  285SOL     OW  853   1.334   3.084   2.521  0.2211  0.3151  0.1058
  285SOL    HW1  854   1.363   3.065   2.421 -1.6607  1.3829 -2.3228
  285SOL    HW2  855   1.238   3.132   2.524  1.6459 -2.6042  2.7946
  286SOL     OW  856   0.227   0.319   0.650  0.1202 -0.1979 -0.1875
  286SOL    HW1  857   0.288   0.256   0.702 -0.1109  0.0596 -3.7988
  286SOL    HW2  858   0.232   0.300   0.544  1.8325  0.7592  2.2190
  287SOL     OW  859   0.120   1.283   2.556  0.6355 -0.3398  0.0054
  287SOL    HW1  860   0.054   1.212   2.596  1.1711 -0.1612  2.7900
  287SOL    HW2  861   0.075   1.380   2.569  0.2655 -1.9071 -0.8630
  288SOL     OW  862   1.543   2.704   1.644  0.1547  0.2689 -0.9563
  288SOL    HW1  863   1.593   2.632   1.703  0.3008 -1.3241  0.0192
  288SOL    HW2  864   1.563   2.689   1.546 -0.5656 -0.5257  0.4629
  289SOL     OW  865   0.585   2.723   0.766 -0.0287 -0.0383 -0.3885
  289SOL    HW1  866   0.615   2.786   0.688 -1.1149  0.9178  0.2225
  289SOL    HW2  867   0.566   2.773   0.857  1.1473 -2.8259  4.4667
  290SOL     OW  868   2.808   1.055   1.634  0.2132 -0.5349 -0.1455
  290SOL    HW1  869   2.734   1.013   1.695 -2.7003  0.1255  1.0053
  290SOL    HW2  870   2.897   1.066   1.689 -1.1237 -1.3454 -0.0406
  291SOL     OW  871   1.922   0.026   0.029  0.2322  0.5251  0.2002
  291SOL    HW1  872   1.956   0.001   0.125  0.0988 -1.0774 -0.8595
  291SOL    HW2  873   1.993   0.023  -0.048 -1.8669 -0.9644 -0.4875
  292SOL     OW  874   2.940   1.205   0.018  0.3161 -0.8314 -0.2140
  292SOL    HW1  875   2.891   1.257  -0.061  1.3349  0.8496 -0.4426
  292SOL    HW2  876   3.034   1.165  -0.001  0.3110 -4.0915  0.0490
  293SOL     OW  877   0.547   2.064   0.193 -0.1168  0.7458 -0.3598
  293SOL    HW1  878   0.500   2.135   0.251  0.6514  1.1175  2.0497
  293SOL    HW2  879   0.645   2.046   0.221  1.3843 -0.4309 -0.2294
  294SOL     OW  880   1.923   2.387   1.787  0.4737 -0.0912 -0.6199
  294SOL    HW1  881   1.958   2.402   1.885  0.0967 -3.3036  0.2350
  294SOL    HW2  882   1.836   2.438   1.770  1.6092 -0.3799  1.3304
  295SOL     OW  883   0.951   1.027   0.454  0.0935 -0.0804  0.1243
  295SOL    HW1  884   1.051   1.033   0.475 -0.6438 -1.2398 -0.6951
  295SOL    HW2  885   0.891   0.979   0.524 -0.6219 -0.4894 -0.7678
  296SOL     OW  886   1.102   2.152   2.681  0.8054 -0.1177  0.0603
  296SOL    HW1  887   1.014   2.207   2.664 -2.0662 -3.4940 -0.3742
  296SOL    HW2  888   1.137   2.099   2.597 -0.7215  1.1337  0.2782
  297SOL     OW  889   1.330   0.620   1.236 -0.0232 -0.6090 -0.4888
  297SOL    HW1  890   1.351   0.553   1.310 -1.8775  0.2093  1.1233
  297SOL    HW2  891   1.393   0.603   1.151  1.8592  0.1603  0.6215
  298SOL     OW  892   0.525   1.346   2.970  0.3804  0.6297 -0.2320
  298SOL    HW1  893   0.503   1.270   3.045 -1.8099  0.2207  1.3099
  298SOL    HW2  894   0.591   1.315   2.901  0.2726  1.1626  0.9880
  299SOL     OW  895   0.422   0.167   1.209 -0.1300 -0.4231  0.1087
  299SOL    HW1  896   0.381   0.258   1.177 -0.4410  0.4397 -2.6826
  299SOL    HW2  897   0.443   0.171   1.316  0.1983  2.6307  1.1461
  300SOL     OW  898   1.173   1.713   2.605 -0.8773 -0.6912  0.2034
  300SOL    HW1  899   1.167   1.646   2.524 -1.9356  1.3224 -3.5789
  300SOL    HW2  900   1.246   1.694   2.674 -2.2833  1.2638 -1.5523
  301SOL     OW  901   0.331   0.282   0.386  0.3070 -0.1866  0.4877
  301SOL    HW1  902   0.240   0.259   0.335  1.3317  0.1088 -2.6100
  301SOL    HW2  903   0.410   0.220   0.352 -0.8384 -0.8700  0.4549
  302SOL     OW  904   1.272   2.398   2.324  0.7264 -0.1296  0.2304
  302SOL    HW1  905   1.171   2.394   2.360  0.9739 -1.0986  0.1677
  302SOL    HW2  906   1.332   2.333   2.376  0.7083 -0.5390 -0.3850
  303SOL     OW  907   0.903   2.500   0.705  0.1391  0.8933  0.0717
  303SOL    HW1  908   0.960   2.481   0.617  3.2595  1.7910 -0.6195
  303SOL    HW2  909   0.965   2.534   0.778 -0.5774 -2.1627  0.6836
  304SOL     OW  910   0.111   1.920   0.687  0.0982  0.3588 -0.3316
  304SOL    HW1  911   0.175   1.900   0.612 -0.6370 -0.7066 -1.6150
  304SOL    HW2  912   0.012   1.897   0.670  1.6801 -1.1586  0.7746
  305SOL     OW  913   1.645   0.792   0.702  0.4346  0.2309  0.3288
  305SOL    HW1  914   1.558   0.786   0.642  0.6641 -0.7189 -2.9335
  305SOL    HW2  915   1.712   0.711   0.693  3.5756  0.3554 -0.2252
  306SOL     OW  916   0.490   1.941   1.962  0.7524  0.0032  0.1966
  306SOL    HW1  917   0.517   1.847   1.914  1.3819 -0.0820 -2.0984
  306SOL    HW2  918   0.480   1.929   2.064  3.2588 -0.9338 -1.3953
  307SOL     OW  919   3.014   0.891   2.584 -0.3861 -0.2057  0.2369
  307SOL    HW1  920   3.048   0.974   2.643  1.5306 -0.2637  0.8173
  307SOL    HW2  921   3.046   0.800   2.622  1.6517  2.4124 -2.0419
  308SOL     OW  922   1.498   2.724   2.810  0.3583 -0.3929  0.5080
  308SOL    HW1  923   1.463   2.720   2.713  1.9552  3.2845  1.2383
  308SOL    HW2  924   1.493   2.631   2.855 -0.7677 -1.7064 -1.3926
  309SOL     OW  925   1.180   0.219   1.854  0.1394  0.5587  0.1637
  309SOL    HW1  926   1.271   0.182   1.815 -1.0119 -0.6020  0.4841
  309SOL    HW2  927   1.108   0.255   1.786 -0.8072 -0.5067  1.2928
  310SOL     OW  928   1.421   2.599   0.662  0.3066  0.3043 -0.0992
  310SOL    HW1  929   1.433   2.579   0.764  0.2814  0.8486  2.1629
  310SOL    HW2  930   1.507   2.637   0.616  0.2459  0.1306 -0.6369
  311SOL     OW  931   1.087   0.885   1.690 -0.2316 -0.0159  0.1646
  311SOL    HW1  932   1.064   0.802   1.751  1.3966  0.6390  2.0763
  311SOL    HW2  933   1.142   0.859   1.603  0.0503 -1.1124 -1.3728
  312SOL     OW  934   1.495   0.600   1.014  0.0637 -0.3981  0.6742
  312SOL    HW1  935   1.546   0.691   1.021  1.7421  1.1312  1.0544
  312SOL    HW2  936   1.456   0.579   0.920  1.4825 -0.8624 -3.2690
  313SOL     OW  937   1.643   1.290   0.710  0.0905 -0.2947  0.0649
  313SOL    HW1  938   1.572   1.347   0.763  1.3105 -0.3954 -1.4396
  313SOL    HW2  939   1.600   1.195   0.690 -0.9246  1.2493  2.2925
  314SOL     OW  940   3.008   0.044   3.069  0.3795  0.6086 -0.4516
  314SOL    HW1  941   3.019   0.025   3.173  2.4297 -2.8950  3.3486
  314SOL    HW2  942   2.936  -0.025   3.031  3.5093  1.2482 -1.6264
  315SOL     OW  943   1.113   0.234   2.739  0.4137  0.3981 -0.3858
  315SOL    HW1  944   1.115   0.175   2.651  0.8778 -0.8668  0.4911
  315SOL    HW2  945   1.103   0.183   2.829  1.0023 -0.6127  0.5074
  316SOL     OW  946   1.750   2.083   0.874 -0.7275 -0.2940  0.1637
  316SOL    HW1  947   1.720   2.088   0.971 -1.3822 -2.2508 -2.4898
  316SOL    HW2  948   1.770   2.176   0.835 -1.4396  0.2569 -1.3715
  317SOL     OW  949   1.177   0.699   2.749 -0.3404  0.3339  0.1816
  317SOL    HW1  950   1.120   0.753   2.823 -0.8077 -1.6856  0.4959
  317SOL    HW2  951   1.117   0.630   2.699 -1.6865  0.0718  3.6119
  318SOL     OW  952   1.466   3.054   2.239  0.3059  0.8336 -0.4500
  318SOL    HW1  953   1.467   3.156   2.235 -0.4983  1.3152  2.7992
  318SOL    HW2  954   1.438   3.008   2.150  0.6047 -0.1829 -3.1558
  319SOL     OW  955   0.653   2.340   3.080  0.0887 -0.2648  0.2633
  319SOL    HW1  956   0.588   2.265   3.112  1.4568 -1.4777 -2.4815
  319SOL    HW2  957   0.726   2.300   3.019 -1.4084 -2.5832 -0.8951
  320SOL     OW  958   1.708   2.217   0.397  0.4141  0.4345 -0.4197
  320SOL    HW1  959   1.786   2.154   0.363  1.1763  0.9478  0.0248
  320SOL    HW2  960   1.618   2.169   0.419 -1.5817  0.5926  0.1906
  321SOL     OW  961   1.638   2.724   0.517 -0.3322  0.1432 -0.0022
  321SOL    HW1  962   1.566   2.788   0.479  1.1610  0.4370  0.8200
  321SOL    HW2  963   1.738   2.756   0.513  2.5897  0.8265  0.0305
  322SOL     OW  964   2.554   1.053   2.385  0.1572  0.9641  0.3040
  322SOL    HW1  965   2.637   1.039   2.447 -3.0238  1.4296 -0.6236
  322SOL    HW2  966   2.486   0.974   2.383 -1.2759 -0.2708  2.7781
  323SOL     OW  967   1.198   2.710   0.823  0.1794 -0.4376 -0.0405
  323SOL    HW1  968   1.239   2.717   0.732  0.6127  0.7583  1.3116
  323SOL    HW2  969   1.194   2.808   0.859  0.9445 -0.5001  0.0418
  324SOL     OW  970   0.099   2.557   2.360  0.3772  0.7509 -0.7458
  324SOL    HW1  971   0.039   2.530   2.440  0.1481  1.9070 -1.1452
  324SOL    HW2  972   0.159   2.637   2.394 -0.2100  3.4965  1.4058
  325SOL     OW  973   1.267   3.066   0.421 -0.0658  0.3865  0.0396
  325SOL    HW1  974   1.246   3.081   0.323  3.2635 -0.7196 -0.4184
  325SOL    HW2  975   1.292   3.153   0.464  2.7679 -2.2600 -2.5587
  326SOL     OW  976   2.524   0.794   0.028  0.1169 -0.0930 -0.2919
  326SOL    HW1  977   2.458   0.731  -0.019  0.6202  0.7280  2.2737
  326SOL    HW2  978   2.577   0.741   0.100 -1.1331 -1.3964  0.3908
  327SOL     OW  979   2.851   0.186   0.587 -0.2214  0.1751  0.3266
  327SOL    HW1  980   2.836   0.132   0.502  0.6025  1.2875 -1.9881
  327SOL    HW2  981   2.854   0.124   0.668 -3.0257 -3.2275 -1.0004
  328SOL     OW  982   2.640   0.559   0.461 -0.8130 -0.0995  0.0748
  328SOL    HW1  983   2.678   0.629   0.527 -0.0536 -0.2538 -0.1232
  328SOL    HW2  984   2.644   0.458   0.485 -0.7133  0.1113 -1.3742
  329SOL     OW  985   2.924   3.077   2.165 -0.2051  0.1678 -0.6306
  329SOL    HW1  986   2.979   3.000   2.212 -2.8303  1.4560  2.3934
  329SOL    HW2  987   2.970   3.169   2.172 -1.7452  1.0340 -0.8158
  330SOL     OW  988   0.607   0.292   1.998 -0.1584 -0.8185  0.0668
  330SOL    HW1  989   0.676   0.262   1.924  3.1244 -3.0003 -0.8047
  330SOL    HW2  990   0.597   0.215   2.068  0.6438 -3.6145 -0.1831
  331SOL     OW  991   3.095   1.918   1.110  0.2737 -0.4260 -0.2443
  331SOL    HW1  992   3.106   1.960   1.017  0.9178  0.1453 -0.3178
  331SOL    HW2  993   3.003   1.942   1.152  1.4939 -0.9408 -1.0366
  332SOL     OW  994   0.420   1.190   0.077 -0.2586  0.2819  0.2532
  332SOL    HW1  995   0.348   1.124   0.047 -0.8861  2.6185 -1.8960
  332SOL    HW2  996   0.408   1.220   0.177  0.4939 -3.4746 -0.8739
  333SOL     OW  997   2.895   0.963   0.371 -0.1013 -0.0709  0.0299
  333SOL    HW1  998   2.946   1.029   0.440  1.6055  2.9586  1.4023
  333SOL    HW2  999   2.956   0.914   0.307  0.4447  0.2451 -0.9776
  334SOL     OW 1000   1.701   1.182   1.727  0.4005  0.3219  0.5917
  334SOL    HW1 1001   1.703   1.237   1.641  0.6275  0.9658  0.9941
  334SOL    HW2 1002   1.775   1.192   1.795  0.4367 -1.0211 -0.9255
  335SOL     OW 1003   1.908   2.774   2.597 -0.3673  0.1028  0.0102
  335SOL    HW1 1004   1.849   2.776   2.681 -0.8485  0.5149 -2.6093
  335SOL    HW2 1005   1.985   2.845   2.603  1.1739 -0.3231 -2.6612
  336SOL     OW 1006   0.336   0.090   2.786  0.5076 -0.1195  0.0979
  336SOL    HW1 1007   0.424   0.117   2.839  0.2586 -0.8194  0.6901
  336SOL    HW2 1008   0.271   0.053   2.853  0.3807 -0.2859  2.5786
  337SOL     OW 1009   0.788   2.798   3.059 -0.4076 -0.3585  0.1758
  337SOL    HW1 1010   0.846   2.721   3.091  1.7043  4.4899  0.8769
  337SOL    HW2 1011   0.760   2.875   3.128  1.8639  0.9497  2.5690
  338SOL     OW 1012   0.077   0.919   0.721  0.3702 -0.2626  0.6057
  338SOL    HW1 1013  -0.020   0.894   0.752  1.8253 -0.4097 -1.9145
  338SOL    HW2 1014   0.091   1.019   0.741 -1.3675 -2.3197 -1.0774
  339SOL     OW 1015   1.781   1.348   2.127  0.4986 -0.0242 -0.2706
  339SOL    HW1 1016   1.676   1.343   2.141  0.4458 -0.6448  1.4569
  339SOL    HW2 1017   1.821   1.443   2.156  1.9370 -1.2828  2.4601
  340SOL     OW 1018   2.307   0.759   1.204 -0.1552 -0.7697 -0.0937
  340SOL    HW1 1019   2.216   0.801   1.181 -0.7493 -0.6945  2.7352
  340SOL    HW2 1020   2.328   0.663   1.163  0.8154  0.2131  1.1016
  341SOL     OW 1021   1.927   2.069   0.316 -0.4369  0.0607  0.0721
  341SOL    HW1 1022   1.991   2.099   0.240  0.4511  0.2560  1.2083
  341SOL    HW2 1023   1.977   2.047   0.408  0.1489 -0.6104  0.2267
  342SOL     OW 1024   2.088   2.122   2.759  0.1169 -0.8302 -0.0837
  342SOL    HW1 1025   2.155   2.046   2.766  0.3270  2.8390  0.0891
  342SOL    HW2 1026   1.998   2.098   2.716  0.2425 -1.2536 -0.1044
  343SOL     OW 1027   0.372   0.856   2.882  0.2802  0.2821 -0.3194
  343SOL    HW1 1028   0.363   0.909   2.788 -0.4852  0.4792  1.3768
  343SOL    HW2 1029   0.450   0.792   2.878 -3.3690  1.6073  0.5225
  344SOL     OW 1030   1.914   1.424   0.409  0.0734  0.4848  0.0608
  344SOL    HW1 1031   1.917   1.347   0.341  0.2356 -0.1324 -1.4605
  344SOL    HW2 1032   1.817   1.453   0.437 -0.0220 -1.4195 -0.8243
  345SOL     OW 1033   1.371   2.218   2.795 -0.2231  0.3021 -0.3956
  345SOL    HW1 1034   1.272   2.187   2.783 -0.4432  1.7035  0.7584
  345SOL    HW2 1035   1.432   2.161   2.740  2.0322  2.3761  2.6126
  346SOL     OW 1036   2.273   0.832   1.471 -0.1624  0.0411 -0.3511
  346SOL    HW1 1037   2.172   0.853   1.465  1.3718 -0.4183 -2.0861
  346SOL    HW2 1038   2.310   0.821   1.372 -2.5224  0.2774  0.0346
  347SOL     OW 1039   0.729   2.802   1.766  0.1317 -0.0064  0.8211
  347SOL    HW1 1040   0.812   2.863   1.752 -0.7331 -0.5157  0.0045
  347SOL    HW2 1041   0.641   2.824   1.706  0.6112  2.2397 -2.2274
  348SOL     OW 1042   0.167   0.615   2.858 -0.2302 -0.1408 -0.0497
  348SOL    HW1 1043   0.078   0.656   2.822 -0.4925 -2.6659 -1.4019
  348SOL    HW2 1044   0.253   0.668   2.835 -1.3292  2.6384  1.8999
  349SOL     OW 1045   1.857   0.466   2.815  0.2812  0.1725  0.0219
  349SOL    HW1 1046   1.802   0.537   2.769  0.3434  0.3881  1.8168
  349SOL    HW2 1047   1.829   0.454   2.913  0.4672  2.9374 -0.9855
  350SOL     OW 1048   1.755   0.374   0.426  0.1169  0.5427 -0.0584
  350SOL    HW1 1049   1.818   0.321   0.489 -1.5736  0.0199  0.6756
  350SOL    HW2 1050   1.785   0.431   0.340  0.5923 -0.3721  1.5358
  351SOL     OW 1051   0.957   0.827   2.031  0.2142  0.9130 -0.1203
  351SOL    HW1 1052   0.947   0.923   2.009  0.2400 -2.0951  2.1912
  351SOL    HW2 1053   0.998   0.771   1.955  2.4336 -0.2281  0.7316
  352SOL     OW 1054   2.072   1.499   0.635 -0.0673  0.0292  0.2292
  352SOL    HW1 1055   1.994   1.486   0.565  1.8672 -0.9812 -1.8532
  352SOL    HW2 1056   2.041   1.477   0.732 -0.2496  0.8661  2.7809
  353SOL     OW 1057   2.163   2.778   1.138 -0.5975  0.6764  0.3765
  353SOL    HW1 1058   2.212   2.707   1.197 -0.1601  3.1618 -0.3389
  353SOL    HW2 1059   2.118   2.845   1.201  1.8187  1.5327 -0.1008
  354SOL     OW 1060   0.243   1.389   2.879  0.1367 -0.2547 -0.1484
  354SOL    HW1 1061   0.229   1.450   2.797 -1.2869  1.2502  0.7116
  354SOL    HW2 1062   0.341   1.375   2.913  0.3934 -3.0031  1.0718
  355SOL     OW 1063   0.741   1.535   0.560 -0.0346 -0.1784 -0.1974
  355SOL    HW1 1064   0.690   1.552   0.648 -0.2075 -1.7521  3.5051
  355SOL    HW2 1065   0.681   1.505   0.481  1.4568 -3.9763 -0.8576
  356SOL     OW 1066   0.945   0.320   2.073 -0.4479  0.0655 -0.5189
  356SOL    HW1 1067   1.028   0.259   2.089 -0.2728 -1.9762 -0.7132
  356SOL    HW2 1068   0.897   0.290   1.984 -0.8475 -0.3157 -2.1479
  357SOL     OW 1069   1.007   1.534   0.102 -0.2737  0.2803  0.0767
  357SOL    HW1 1070   1.018   1.482   0.014 -2.0665  0.4430 -2.6819
  357SOL    HW2 1071   1.100   1.559   0.136 -0.7175  0.7050  0.3514
  358SOL     OW 1072   1.651   1.486   0.477 -0.4272 -0.1672 -0.3130
  358SOL    HW1 1073   1.635   1.446   0.570 -1.4664 -0.7802  0.1852
  358SOL    HW2 1074   1.585   1.446   0.407  1.6677  1.1506 -3.2004
  359SOL     OW 1075   1.666   2.623   0.181 -0.0385  0.7646 -0.0819
  359SOL    HW1 1076   1.626   2.526   0.185  0.5902 -1.0939 -0.1334
  359SOL    HW2 1077   1.599   2.702   0.185 -0.4755  0.0957 -0.2635
  360SOL     OW 1078   0.733   0.434   0.561  0.4300 -0.5305  0.0197
  360SOL    HW1 1079   0.639   0.429   0.512 -1.4123 -1.4137 -0.7284
  360SOL    HW2 1080   0.772   0.335   0.574  3.0492 -3.4720  1.0561
  361SOL     OW 1081   1.326   1.313   0.582 -0.0483 -0.4136  0.8014
  361SOL    HW1 1082   1.358   1.349   0.668 -0.3456 -1.7331 -1.8771
  361SOL    HW2 1083   1.232   1.343   0.557  0.4614 -0.7631  0.3854
  362SOL     OW 1084   1.381   1.852   0.724 -0.3609 -0.1009 -0.3567
  362SOL    HW1 1085   1.431   1.796   0.798 -0.4625  0.2132  0.8511
  362SOL    HW2 1086   1.452   1.874   0.651 -0.8661  0.2155 -1.1470
  363SOL     OW 1087   1.317   1.286   1.983  0.7272 -0.0936  0.3745
  363SOL    HW1 1088   1.410   1.297   2.025  1.1133  1.9677 -0.5324
  363SOL    HW2 1089   1.255   1.371   2.000 -1.6546 -0.1334  0.8158
  364SOL     OW 1090   0.536   2.409   2.014  0.5953  0.0809 -0.4315
  364SOL    HW1 1091   0.439   2.436   1.993 -0.0608  2.7316 -2.1111
  364SOL    HW2 1092   0.597   2.489   2.038  0.8698  0.2155 -2.4750
  365SOL     OW 1093   0.915   2.024   1.371  0.2748  0.4675 -0.0373
  365SOL    HW1 1094   0.830   2.071   1.405 -0.4712  2.0095 -1.3905
  365SOL    HW2 1095   0.940   2.061   1.276 -1.8358  0.5017 -0.0094
  366SOL     OW 1096   2.715   1.899   0.212 -0.4324  0.6589 -0.3003
  366SOL    HW1 1097   2.626   1.844   0.197  0.8116 -1.8534 -2.0911
  366SOL    HW2 1098   2.771   1.870   0.293  1.4320  2.7137  0.1977
  367SOL     OW 1099   0.939   1.144   3.073 -0.4999  0.1275  0.0530
  367SOL    HW1 1100   0.956   1.055   3.130 -0.3275 -0.1984 -1.3108
  367SOL    HW2 1101   0.999   1.225   3.096  1.9699 -1.8228 -1.6674
  368SOL     OW 1102   1.487   0.461   0.546  0.5913 -0.0910 -0.0021
  368SOL    HW1 1103   1.406   0.467   0.494  0.6113  1.9695  0.1572
  368SOL    HW2 1104   1.565   0.512   0.509  0.1057 -0.1008 -0.3280
  369SOL     OW 1105   0.296   1.662   0.101  0.2469  0.2935 -0.8454
  369SOL    HW1 1106   0.362   1.706   0.170  2.7644  0.0241  2.8962
  369SOL    HW2 1107   0.244   1.585   0.144 -0.4909  1.6671 -0.6514
  370SOL     OW 1108   0.447   2.121   0.995 -0.4371  0.1692 -0.5237
  370SOL    HW1 1109   0.455   2.224   0.990 -3.1797 -0.0430  0.6917
  370SOL    HW2 1110   0.351   2.094   0.964 -3.2989 -0.4449  1.7774
  371SOL     OW 1111   2.925   2.168   2.680 -0.0024  0.1445 -0.2338
  371SOL    HW1 1112   3.001   2.097   2.687 -2.0937  0.6475 -1.7384
  371SOL    HW2 1113   2.921   2.241   2.760  0.6552 -1.5369  2.9488
  372SOL     OW 1114   0.985   2.127   1.120 -0.0619 -0.0009 -0.0066
  372SOL    HW1 1115   0.953   2.170   1.030  0.7029  1.1141  1.4950
  372SOL    HW2 1116   1.067   2.178   1.158  1.5420  1.8935  1.5539
  373SOL     OW 1117   1.907   1.820   0.960  0.3428 -0.6852  0.1256
  373SOL    HW1 1118   1.971   1.886   1.011  0.1800 -2.2800 -0.4635
  373SOL    HW2 1119   1.894   1.862   0.865  0.6568 -0.5573 -1.9193
  374SOL     OW 1120   1.974   0.255   0.577 -0.1721 -0.5581  0.2412
  374SOL    HW1 1121   1.933   0.246   0.669 -0.2792  1.5814 -1.3123
  374SOL    HW2 1122   2.073   0.291   0.578 -0.2418  1.9321  2.6048
  375SOL     OW 1123   2.389   2.068   1.077 -0.5484  0.1258 -0.4049
  375SOL    HW1 1124   2.414   2.053   0.980 -0.1714 -0.3379  1.1501
  375SOL    HW2 1125   2.471   2.091   1.135 -0.9240  1.5310  0.3168
  376SOL     OW 1126   0.041   0.561   1.478  0.3591 -0.2620  0.2283
  376SOL    HW1 1127   0.004   0.601   1.567  1.3794  0.8453 -0.3406
  376SOL    HW2 1128  -0.020   0.481   1.456  1.7607 -0.5990 -1.4362
  377SOL     OW 1129   2.303   2.960   0.167 -0.3432  0.3631 -0.0691
  377SOL    HW1 1130   2.286   3.052   0.216  2.5649 -0.9956  0.7492
  377SOL    HW2 1131   2.320   2.878   0.230 -1.1889 -2.0346 -0.7249
  378SOL     OW 1132   1.902   1.857   2.473 -0.3199 -0.6709  0.5703
  378SOL    HW1 1133   1.999   1.829   2.448  0.7782  0.4593 -1.8247
  378SOL    HW2 1134   1.832   1.784   2.445  1.5488  0.2587 -2.3611
  379SOL     OW 1135   0.767   0.162   2.794  0.0147  0.4760  0.1086
  379SOL    HW1 1136   0.786   0.073   2.764 -1.9345  3.4961  3.5985
  379SOL    HW2 1137   0.780   0.231   2.721  0.5064 -1.4440  1.3410
  380SOL     OW 1138   1.506   1.109   0.572  0.0155  0.2743 -0.1561
  380SOL    HW1 1139   1.433   1.186   0.565 -3.5591 -3.4441 -1.2400
  380SOL    HW2 1140   1.467   1.018   0.599  0.3276 -0.9433  0.5582
  381SOL     OW 1141   1.283   1.314   1.418 -0.1308  0.1889 -0.1512
  381SOL    HW1 1142   1.358   1.246   1.437  1.7034 -0.7923  2.7839
  381SOL    HW2 1143   1.317   1.409   1.442  2.3507 -0.9327 -0.3144
  382SOL     OW 1144   1.796   0.839   0.280 -0.2187 -0.2882  0.6418
  382SOL    HW1 1145   1.806   0.835   0.179 -1.6057  0.5388  0.8684
  382SOL    HW2 1146   1.889   0.849   0.326  0.8140  0.3701 -2.7283
  383SOL     OW 1147   2.522   0.973   1.496 -0.2230  0.6622  0.4733
  383SOL    HW1 1148   2.433   0.920   1.492 -1.3539 -1.3279  2.3376
  383SOL    HW2 1149   2.589   0.967   1.413 -1.0150  1.9549 -2.5278
  384SOL     OW 1150   0.965   2.219   0.215  0.5992 -0.8971 -0.2552
  384SOL    HW1 1151   0.898   2.298   0.210 -0.8844  0.7253  1.8360
  384SOL    HW2 1152   0.997   2.203   0.315  1.3095  3.5815  0.5697
  385SOL     OW 1153   2.878   1.997   1.623 -0.1125 -0.3457  0.1803
  385SOL    HW1 1154   2.963   2.032   1.672 -1.8367  0.4601  1.2453
  385SOL    HW2 1155   2.838   1.908   1.656  0.0883 -2.4264  0.5130
  386SOL     OW 1156   0.489   1.036   0.374  0.2590  0.1021 -0.6536
  386SOL    HW1 1157   0.454   0.944   0.406 -2.2111 -1.3953  2.5063
  386SOL    HW2 1158   0.418   1.114   0.383 -0.0718 -0.5992 -0.5324
  387SOL     OW 1159   0.960   0.310   1.648  0.6013  0.3515 -0.1738
  387SOL    HW1 1160   1.010   0.403   1.645  3.8703  0.6707 -0.5389
  387SOL    HW2 1161   0.922   0.278   1.554 -1.7933 -0.8661  1.4088
  388SOL     OW 1162   1.303   2.721   1.824  0.9137 -0.2743 -0.3114
  388SOL    HW1 1163   1.360   2.705   1.739 -0.5714  1.9148 -1.4193
  388SOL    HW2 1164   1.315   2.641   1.891 -0.0532 -1.4582 -0.8571
  389SOL     OW 1165   0.096   2.902   1.363  0.0541  0.4918 -0.1686
  389SOL    HW1 1166   0.020   2.934   1.296 -3.3948 -2.4230  0.5855
  389SOL    HW2 1167   0.155   2.823   1.322 -0.3756 -0.8120 -3.4365
  390SOL     OW 1168   1.036   0.917   1.295  0.0440  0.1919 -0.7950
  390SOL    HW1 1169   1.115   0.884   1.357  0.2391 -0.3598  0.4479
  390SOL    HW2 1170   0.956   0.954   1.354  1.0146 -2.0656 -0.3396
  391SOL     OW 1171   2.209   1.093   1.096  0.8865 -0.2780 -0.2746
  391SOL    HW1 1172   2.146   1.014   1.125  1.4402 -0.0155  1.4036
  391SOL    HW2 1173   2.260   1.059   1.012  1.5273 -0.9358  1.4215
  392SOL     OW 1174   0.965   2.589   0.007  0.3988 -0.0053 -0.5060
  392SOL    HW1 1175   1.061   2.554  -0.014  2.4585  1.4481  0.0155
  392SOL    HW2 1176   0.922   2.536   0.082  1.2881  2.3472  0.8591
  393SOL     OW 1177   0.314   0.637   2.005 -0.0561 -0.2093  0.1480
  393SOL    HW1 1178   0.317   0.533   1.999  0.5565 -1.1767 -0.4228
  393SOL    HW2 1179   0.317   0.680   1.908 -2.2472  0.3630 -0.7124
  394SOL     OW 1180   0.002   1.964   2.647 -0.3153  0.5793  0.1964
  394SOL    HW1 1181   0.048   1.946   2.741 -1.1792 -1.4116  0.1709
  394SOL    HW2 1182  -0.031   1.876   2.601  1.0862 -2.2901 -1.0568
  395SOL     OW 1183   1.636   1.950   0.619  0.2968 -0.3407  0.2931
  395SOL    HW1 1184   1.697   1.872   0.582  2.1865 -1.8626 -0.2035
  395SOL    HW2 1185   1.672   1.981   0.708  0.3300  1.2100 -0.6392
  396SOL     OW 1186   2.931   1.934   1.349  0.2691  0.4634 -0.6047
  396SOL    HW1 1187   2.953   1.831   1.353 -0.2319 -2.7013 -1.7066
  396SOL    HW2 1188   2.922   1.971   1.446  2.6977 -0.5073 -0.8954
  397SOL     OW 1189   1.043   2.214   0.481 -0.3111 -0.2001 -0.1515
  397SOL    HW1 1190   0.950   2.179   0.517  0.0594  1.6792  0.5135
  397SOL    HW2 1191   1.049   2.318   0.478 -0.5311  1.3444 -2.4051
  398SOL     OW 1192   2.156   3.095   1.166  0.0562 -0.1633  0.0874
  398SOL    HW1 1193   2.069   3.037   1.179  0.8220 -2.9528  1.1145
  398SOL    HW2 1194   2.146   3.190   1.129  0.6796  0.3516 -1.4198
  399SOL     OW 1195   0.016   2.415   2.614  0.3324  0.4506  0.0498
  399SOL    HW1 1196  -0.036   2.329   2.592 -0.4729 -0.5721 -2.6942
  399SOL    HW2 1197   0.093   2.401   2.683  0.0835  1.0119  1.1012
  400SOL     OW 1198   0.724   1.718   1.383 -0.1604  0.4197 -0.0965
  400SOL    HW1 1199   0.679   1.761   1.468 -1.9837  2.6772  1.1599
  400SOL    HW2 1200   0.778   1.788   1.327 -0.3811  2.3905 -1.1919
  401SOL     OW 1201   1.864   0.346   1.140  0.0033 -0.0589 -0.2456
  401SOL    HW1 1202   1.884   0.367   1.242  0.2698  0.2029 -0.0999
  401SOL    HW2 1203   1.764   0.363   1.120  2.7636 -1.2852  0.0461
  402SOL     OW 1204   1.358   0.287   3.083 -0.2039  0.5466 -0.2106
  402SOL    HW1 1205   1.415   0.220   3.032  1.9824  0.5300  0.5901
  402SOL    HW2 1206   1.307   0.354   3.025  0.6765  2.0218 -0.2086
  403SOL     OW 1207   2.235   1.909   0.842 -0.3176 -0.0727  0.4728
  403SOL    HW1 1208   2.322   1.964   0.837 -1.0786 -4.1662  2.0297
  403SOL    HW2 1209   2.185   1.914   0.932  0.8886 -0.8178 -0.8919
  404SOL     OW 1210   0.301   2.530   2.753 -0.1340  0.3467  0.2539
  404SOL    HW1 1211   0.378   2.513   2.683  1.4081  1.9615 -2.6507
  404SOL    HW2 1212   0.265   2.629   2.753 -0.8898  0.5032  2.5658
  405SOL     OW 1213   0.176   2.418   0.648 -0.0315  0.5131 -0.1035
  405SOL    HW1 1214   0.153   2.350   0.577  0.9550  2.3630 -0.1454
  405SOL    HW2 1215   0.232   2.490   0.611 -1.4706 -3.5237  0.7993
  406SOL     OW 1216   0.072   1.553   3.038 -0.1762 -0.0372 -0.1001
  406SOL    HW1 1217   0.135   1.478   3.005  0.2581 -1.7983  0.4778
  406SOL    HW2 1218   0.111   1.600   3.117  2.6364  0.7381 -3.0548
  407SOL     OW 1219   1.627   0.878   0.972 -0.1564  0.1159  0.6347
  407SOL    HW1 1220   1.627   0.851   0.871  0.6034  1.4953  1.2570
  407SOL    HW2 1221   1.554   0.947   0.998  1.7648 -2.3156  0.6717
  408SOL     OW 1222   1.612   2.448   0.965 -0.3578 -0.1641  0.0554
  408SOL    HW1 1223   1.657   2.422   0.873  2.2425  2.6655 -2.4320
  408SOL    HW2 1224   1.533   2.518   0.964 -0.0333  0.3623 -1.7088
  409SOL     OW 1225   0.591   0.825   0.698 -0.1555  0.2922  0.5749
  409SOL    HW1 1226   0.554   0.803   0.603 -0.0272 -0.0151 -0.5126
  409SOL    HW2 1227   0.634   0.738   0.740  1.1547 -0.8952  0.9304
  410SOL     OW 1228   1.199   2.068   1.435 -0.2647  0.1524 -0.4151
  410SOL    HW1 1229   1.266   2.000   1.470 -0.6291 -0.3687 -0.2921
  410SOL    HW2 1230   1.102   2.025   1.414 -2.0485  1.6947  0.4504
  411SOL     OW 1231   2.555   1.790   2.935  0.3416 -0.2114 -0.2472
  411SOL    HW1 1232   2.607   1.849   2.872 -2.3437 -1.6116 -2.2753
  411SOL    HW2 1233   2.480   1.733   2.892 -1.3080  0.8094  1.3756
  412SOL     OW 1234   1.498   2.465   2.193 -0.4631  0.3227  0.0572
  412SOL    HW1 1235   1.580   2.469   2.262  0.4345 -2.2496  1.0755
  412SOL    HW2 1236   1.413   2.432   2.242 -1.9144 -0.1783 -0.2037
  413SOL     OW 1237   0.003   0.284   2.993 -0.6752 -0.4287 -0.5838
  413SOL    HW1 1238  -0.045   0.189   3.000 -0.7547  1.8167  0.4667
  413SOL    HW2 1239   0.097   0.282   3.037 -1.2680  1.0162  0.6273
  414SOL     OW 1240   1.750   1.542   1.112  0.2292  0.2481  0.1966
  414SOL    HW1 1241   1.665   1.583   1.156 -2.7560  1.3763  1.1199
  414SOL    HW2 1242   1.769   1.576   1.010  1.2050  2.2056 -1.4422
  415SOL     OW 1243   0.369   2.195   0.636  0.2343  0.1522 -0.6513
  415SOL    HW1 1244   0.374   2.295   0.651 -0.6942 -0.1668  0.4262
  415SOL    HW2 1245   0.278   2.158   0.626 -0.1793 -0.3551 -0.3984
  416SOL     OW 1246   0.349   1.076   1.057  0.4241 -0.4475  0.2643
  416SOL    HW1 1247   0.337   0.992   1.000  0.7749 -0.9636 -0.1887
  416SOL    HW2 1248   0.432   1.129   1.028 -0.8880 -0.4474 -3.8069
  417SOL     OW 1249   2.300   2.438   2.155 -0.3905  0.2667 -0.1655
  417SOL    HW1 1250   2.280   2.340   2.159  2.5399  1.9904  1.1705
  417SOL    HW2 1251   2.268   2.485   2.240 -0.2607 -2.0573 -3.2438
  418SOL     OW 1252   1.070   0.492   1.324  0.8131 -0.4682  0.0388
  418SOL    HW1 1253   1.008   0.428   1.276  1.0911 -0.1439 -1.5228
  418SOL    HW2 1254   1.125   0.542   1.252 -1.9280 -2.2013 -2.3778
  419SOL     OW 1255   0.908   0.574   2.988  0.0043 -0.1459  0.3113
  419SOL    HW1 1256   0.824   0.565   2.929  1.6362  1.1893  0.0010
  419SOL    HW2 1257   0.960   0.665   2.974  2.0677  1.1740 -3.1763
  420SOL     OW 1258   0.088   2.173   0.508  0.1378 -0.5480 -0.5091
  420SOL    HW1 1259   0.092   2.172   0.409 -1.6205  1.9594  3.9164
  420SOL    HW2 1260   0.025   2.102   0.544  0.6725  0.7587 -1.3405
  421SOL     OW 1261   0.365   2.943   0.559  0.0268 -0.9613  0.1661
  421SOL    HW1 1262   0.343   2.920   0.659 -1.0867 -0.4648  0.9240
  421SOL    HW2 1263   0.436   3.016   0.551 -1.8611  0.9588 -0.3884
  422SOL     OW 1264   1.026   2.547   0.962  0.6635  0.3100  0.1399
  422SOL    HW1 1265   1.091   2.604   0.906 -0.0946 -0.7364  2.6832
  422SOL    HW2 1266   1.077   2.506   1.041 -0.0862 -0.1629 -0.2065
  423SOL     OW 1267   0.174   0.640   1.223  0.2796 -0.4952 -0.2570
  423SOL    HW1 1268   0.126   0.610   1.310  2.0479  1.9967 -0.7564
  423SOL    HW2 1269   0.120   0.716   1.178 -0.7235  1.4521  1.1328
  424SOL     OW 1270   1.126   2.172   2.066 -0.2395 -0.0321  0.1792
  424SOL    HW1 1271   1.112   2.265   2.022  0.8865 -0.5488  0.2660
  424SOL    HW2 1272   1.084   2.153   2.160 -0.7637  0.9949  0.2698
  425SOL     OW 1273   2.003   1.266   0.982  0.2622  0.2865 -0.1593
  425SOL    HW1 1274   2.085   1.214   1.022  1.7999 -0.4111  2.5622
  425SOL    HW2 1275   2.007   1.368   1.000  4.3375  2.2039  0.4990
  426SOL     OW 1276   1.467   1.653   1.238 -0.0119 -0.0913 -0.1257
  426SOL    HW1 1277   1.443   1.746   1.196 -3.6866  0.0815 -3.5054
  426SOL    HW2 1278   1.409   1.625   1.317 -1.1095 -0.6126 -0.5418
  427SOL     OW 1279   1.968   2.427   2.096 -0.0368 -0.1639 -0.3080
  427SOL    HW1 1280   2.032   2.374   2.168  0.3404 -0.5504  3.3138
  427SOL    HW2 1281   1.953   2.527   2.122  0.5570  0.1205  1.8652
  428SOL     OW 1282   0.885   3.092   0.039  0.4042 -0.1294  0.3194
  428SOL    HW1 1283   0.905   3.154  -0.037  0.2473 -1.0331 -0.4605
  428SOL    HW2 1284   0.968   3.050   0.090  1.4593  0.0001  0.3595
  429SOL     OW 1285   1.310   0.196   0.235  0.4050  0.3883  0.3973
  429SOL    HW1 1286   1.394   0.189   0.292 -0.8940 -0.5811  0.0755
  429SOL    HW2 1287   1.341   0.238   0.142  0.6260 -0.7761 -2.0458
  430SOL     OW 1288   2.936   1.431   0.303 -0.3439 -0.8406  0.1535
  430SOL    HW1 1289   2.963   1.515   0.244 -0.9233  5.5142  1.6415
  430SOL    HW2 1290   2.897   1.450   0.399 -2.7761  1.4032 -3.3173
  431SOL     OW 1291   2.079   1.539   0.916  0.0015  0.0797  0.6227
  431SOL    HW1 1292   2.175   1.577   0.921 -1.5394  0.3349  2.5724
  431SOL    HW2 1293   2.012   1.618   0.926 -0.7678 -0.2973 -1.0143
  432SOL     OW 1294   2.939   2.175   1.198  0.2353  0.3205  0.2146
  432SOL    HW1 1295   2.926   2.078   1.235  0.6758 -2.8735 -0.3359
  432SOL    HW2 1296   2.954   2.241   1.275  1.6933 -0.7583  1.0277
  433SOL     OW 1297   1.883   0.226   0.834  0.6683 -0.5226 -0.0211
  433SOL    HW1 1298   1.818   0.286   0.896 -0.1432 -0.2403  2.6153
  433SOL    HW2 1299   1.965   0.203   0.893 -0.5941  0.5482 -2.4975
  434SOL     OW 1300   1.563   0.264   0.720  0.0224 -0.2052 -0.1960
  434SOL    HW1 1301   1.561   0.347   0.660 -0.8624 -0.9127 -2.1149
  434SOL    HW2 1302   1.611   0.290   0.807 -1.6635  0.0877 -2.6110
  435SOL     OW 1303   1.506   1.475   2.105  0.7665 -0.3288 -0.2226
  435SOL    HW1 1304   1.491   1.517   2.203 -3.1968  1.8312  0.6596
  435SOL    HW2 1305   1.509   1.546   2.032 -1.6462  0.8308 -3.5041
  436SOL     OW 1306   1.716   2.722   2.275 -0.3000  0.4350  0.1843
  436SOL    HW1 1307   1.674   2.796   2.335  3.9928 -0.4537  1.0252
  436SOL    HW2 1308   1.707   2.625   2.317 -2.7242 -1.5877 -0.3563
  437SOL     OW 1309   1.143   3.012   0.894 -0.1326  0.4852 -0.3424
  437SOL    HW1 1310   1.052   3.067   0.890  0.8187  3.6811  0.6278
  437SOL    HW2 1311   1.148   2.960   0.983  0.1543 -1.2014 -1.7943
  438SOL     OW 1312   1.034   2.707   1.537  0.0447  0.2212  0.3663
  438SOL    HW1 1313   1.122   2.726   1.490 -2.4717  1.3428  0.2190
  438SOL    HW2 1314   0.987   2.632   1.490  2.9130  0.2456 -0.4488
  439SOL     OW 1315   0.704   1.858   1.124  0.3473 -0.6399  0.3204
  439SOL    HW1 1316   0.726   1.958   1.109  3.0270 -1.8065 -1.4585
  439SOL    HW2 1317   0.601   1.843   1.137 -1.6852  2.4886  0.2175
  440SOL     OW 1318   1.031   2.427   1.978  0.6878 -0.8070  0.0706
  440SOL    HW1 1319   0.989   2.493   1.909  2.0595  0.9990 -0.3243
  440SOL    HW2 1320   1.125   2.458   2.001 -2.0720  0.4866  3.4223
  441SOL     OW 1321   0.419   2.694   1.494  0.2116 -0.1082 -0.6706
  441SOL    HW1 1322   0.483   2.615   1.527 -0.0369 -0.4593 -1.1049
  441SOL    HW2 1323   0.430   2.705   1.388  0.5160  0.7798 -2.2867
  442SOL     OW 1324   2.233   0.698   2.533 -0.2880 -0.1127  0.2825
  442SOL    HW1 1325   2.278   0.610   2.568  3.1968  0.8878 -0.8513
  442SOL    HW2 1326   2.138   0.722   2.560 -0.6820  0.6494  0.9871
  443SOL     OW 1327   1.203   2.670   2.252 -0.2353 -0.1443  0.4594
  443SOL    HW1 1328   1.176   2.716   2.343  1.0380  1.1408  0.7513
  443SOL    HW2 1329   1.236   2.569   2.260  0.4680  0.6533 -0.7489
  444SOL     OW 1330   1.022   1.299   1.564  0.3258 -0.7405  0.3520
  444SOL    HW1 1331   1.102   1.271   1.503 -1.0015  0.6962 -1.1529
  444SOL    HW2 1332   0.993   1.400   1.559 -2.5445  0.2087  3.3590
  445SOL     OW 1333   3.081   2.375   1.900 -0.0390 -0.1531 -0.7191
  445SOL    HW1 1334   3.095   2.469   1.852 -1.5207  1.1884 -0.2651
  445SOL    HW2 1335   2.985   2.377   1.949  1.6223  1.0446  1.6403
  446SOL     OW 1336   0.179   1.911   2.394  0.1255 -0.2163 -0.9023
  446SOL    HW1 1337   0.190   2.013   2.429  0.4422  0.0148  0.1904
  446SOL    HW2 1338   0.141   1.905   2.294  2.5659 -2.6858 -1.6341
  447SOL     OW 1339   1.219   1.600   1.913 -0.0959  0.1004 -0.7923
  447SOL    HW1 1340   1.160   1.682   1.894 -1.2407  0.0831 -0.1193
  447SOL    HW2 1341   1.325   1.618   1.907  1.5734 -1.7722  1.5170
  448SOL     OW 1342   0.169   1.561   1.922  0.4860 -0.5812 -0.0522
  448SOL    HW1 1343   0.163   1.660   1.895  1.2510  2.3513 -4.7651
  448SOL    HW2 1344   0.236   1.545   2.002 -1.1931 -1.0390  2.4639
  449SOL     OW 1345   1.996   2.877   0.922  0.0351 -0.6068  0.1627
  449SOL    HW1 1346   2.053   2.837   0.995  1.6663 -1.6299 -0.6044
  449SOL    HW2 1347   1.935   2.807   0.877 -0.0997  1.0281  1.7446
  450SOL     OW 1348   2.291   1.345   0.940  0.5633  0.1393  0.1250
  450SOL    HW1 1349   2.303   1.244   0.920 -1.6327  0.7052 -2.7124
  450SOL    HW2 1350   2.212   1.378   0.876 -1.5072 -1.3051 -1.6509
  451SOL     OW 1351   1.397   3.098   1.422 -0.8395 -0.5748 -0.1468
  451SOL    HW1 1352   1.311   3.159   1.427  1.0323  4.5267  1.7972
  451SOL    HW2 1353   1.414   3.044   1.511 -0.7088 -0.8582  0.1386
  452SOL     OW 1354   2.667   2.363   2.226 -0.0493 -0.6752 -0.5908
  452SOL    HW1 1355   2.618   2.452   2.247 -0.4992  4.0691  0.5252
  452SOL    HW2 1356   2.713   2.322   2.305 -1.7699 -2.0268 -2.2789
  453SOL     OW 1357   2.489   2.629   3.058  0.1945 -0.4023  0.1134
  453SOL    HW1 1358   2.395   2.681   3.064  1.0102  0.1187 -0.2585
  453SOL    HW2 1359   2.479   2.539   3.005  0.8678 -2.1304 -1.0872
  454SOL     OW 1360   1.007   1.157   2.037  0.2981  0.7233 -0.0368
  454SOL    HW1 1361   0.996   1.167   1.933  1.6870 -2.9312  0.5144
  454SOL    HW2 1362   1.095   1.106   2.072  1.6083  2.4869 -0.5348
  455SOL     OW 1363   0.645   2.562   2.910  0.0216 -0.0271  0.0543
  455SOL    HW1 1364   0.711   2.628   2.952  1.1367 -1.2798 -0.1787
  455SOL    HW2 1365   0.614   2.485   2.968  0.3182 -0.6569  1.7122
  456SOL     OW 1366   0.484   1.786   0.268  0.2230  0.5036  0.2345
  456SOL    HW1 1367   0.574   1.754   0.299  2.4839  0.1900 -3.8258
  456SOL    HW2 1368   0.487   1.890   0.254 -2.4187 -1.7733 -0.3292
  457SOL     OW 1369   0.388   2.585   0.567  0.3031 -0.1149 -0.0628
  457SOL    HW1 1370   0.409   2.639   0.481  0.7172  0.3846 -0.7722
  457SOL    HW2 1371   0.467   2.580   0.631  0.3865 -0.9841 -1.2981
  458SOL     OW 1372   2.988   2.967   1.199 -0.2925 -0.0068  0.3612
  458SOL    HW1 1373   2.988   3.070   1.196  1.6488  0.3192  0.0417
  458SOL    HW2 1374   2.998   2.922   1.106  4.5898  2.2138 -2.7989
  459SOL     OW 1375   2.169   2.597   0.861 -0.1949 -0.4608 -0.0019
  459SOL    HW1 1376   2.226   2.666   0.919  2.5909  0.7951  0.9149
  459SOL    HW2 1377   2.223   2.578   0.775 -1.5667  0.3124  0.1947
  460SOL     OW 1378   1.075   1.967   2.892 -0.3690  0.2409 -0.2511
  460SOL    HW1 1379   1.079   2.036   2.812 -0.0348  0.3891  1.1756
  460SOL    HW2 1380   1.154   1.903   2.895 -1.1065  1.8646 -1.9007
  461SOL     OW 1381   0.523   2.142   2.675 -0.3179  0.7847  0.2007
  461SOL    HW1 1382   0.434   2.089   2.667  1.3017  1.0607 -0.2636
  461SOL    HW2 1383   0.595   2.093   2.735  1.6182 -0.9947  0.6721
  462SOL     OW 1384   0.956   1.147   1.773  0.4830 -0.6922 -0.2612
  462SOL    HW1 1385   0.973   1.058   1.727  0.2391  3.6228  2.0448
  462SOL    HW2 1386   0.982   1.224   1.707  4.2621 -0.4671  1.6363
  463SOL     OW 1387   0.438   0.772   0.458 -0.4249  0.1150  0.2360
  463SOL    HW1 1388   0.474   0.677   0.436 -0.1568 -0.3893  0.1210
  463SOL    HW2 1389   0.345   0.771   0.501  1.5635  1.0905  0.5693
  464SOL     OW 1390   0.524   2.241   2.245 -0.3013 -0.2437  0.0749
  464SOL    HW1 1391   0.438   2.292   2.272  0.4845  0.2493  1.1867
  464SOL    HW2 1392   0.564   2.276   2.156 -1.4534  0.4944 -0.9106
  465SOL     OW 1393   0.323   0.874   0.878  0.0435 -0.4205 -0.2820
  465SOL    HW1 1394   0.226   0.862   0.839 -1.2465 -0.2500 -0.8240
  465SOL    HW2 1395   0.398   0.832   0.822 -0.4352 -0.8249 -1.8137
  466SOL     OW 1396   1.385   1.094   1.158 -0.1415 -0.0629 -0.2076
  466SOL    HW1 1397   1.451   1.174   1.152  2.0110 -1.9060  1.9156
  466SOL    HW2 1398   1.295   1.111   1.108 -0.9912 -0.1342  0.3149
  467SOL     OW 1399   0.524   0.342   2.431  0.6934 -0.3088 -0.2676
  467SOL    HW1 1400   0.489   0.431   2.475 -1.2991 -1.9521  1.0150
  467SOL    HW2 1401   0.534   0.263   2.497  0.2763  0.8249  3.2205
  468SOL     OW 1402   0.467   2.273   1.728 -0.4649  0.3242 -0.3417
  468SOL    HW1 1403   0.448   2.356   1.785  0.2817  1.9628 -0.7580
  468SOL    HW2 1404   0.448   2.291   1.626 -0.4841  0.9577 -2.7987
  469SOL     OW 1405   1.600   1.283   1.125  0.2527 -0.4010  0.0411
  469SOL    HW1 1406   1.666   1.205   1.122  1.3813 -0.9256  0.0719
  469SOL    HW2 1407   1.651   1.373   1.116  3.0404 -1.0344  0.4887
  470SOL     OW 1408   3.004   1.601   0.742  0.0175 -0.3395 -0.5726
  470SOL    HW1 1409   3.098   1.614   0.793 -0.9620  0.6137  0.2987
  470SOL    HW2 1410   2.947   1.691   0.739 -1.7261  1.0685 -1.2535
  471SOL     OW 1411   2.570   1.289   2.192 -0.2829 -0.3453 -0.0968
  471SOL    HW1 1412   2.550   1.202   2.244 -1.6550 -1.0634  0.1217
  471SOL    HW2 1413   2.589   1.370   2.248 -1.2240 -0.8365 -0.1175
  472SOL     OW 1414   1.225   2.438   3.026  0.2080 -0.1201 -0.6881
  472SOL    HW1 1415   1.255   2.468   3.122 -0.2471 -1.7763  1.1647
  472SOL    HW2 1416   1.159   2.360   3.035  0.2694  1.5394  0.5490
  473SOL     OW 1417   1.094   1.497   0.884  0.4826 -0.0672 -0.0030
  473SOL    HW1 1418   1.004   1.521   0.928 -0.2664 -2.4972 -2.1412
  473SOL    HW2 1419   1.175   1.506   0.953  0.5494  0.5405  1.2282
  474SOL     OW 1420   0.737   1.252   0.761  0.0816 -0.0630 -0.2841
  474SOL    HW1 1421   0.686   1.246   0.672 -0.5262  1.3011  4.5661
  474SOL    HW2 1422   0.825   1.198   0.759 -1.0912  0.0793 -2.0852
  475SOL     OW 1423   2.863   0.011   0.795  0.0669 -0.0534 -1.2162
  475SOL    HW1 1424   2.953   0.015   0.850  0.6351  1.0439 -1.2636
  475SOL    HW2 1425   2.778   0.043   0.850 -3.8508 -1.5050  1.0267
  476SOL     OW 1426   0.930   3.048   1.915 -0.5629 -0.2734 -0.3923
  476SOL    HW1 1427   1.007   3.048   1.984 -1.6107 -1.4182  1.3945
  476SOL    HW2 1428   0.957   3.007   1.825  1.2142 -1.4993 -0.2436
  477SOL     OW 1429   1.472   0.337   2.437 -0.1569 -0.9046  0.7935
  477SOL    HW1 1430   1.420   0.355   2.524 -2.5722  1.5486  0.1734
  477SOL    HW2 1431   1.576   0.327   2.453  1.6753 -1.5360  0.6705
  478SOL     OW 1432   2.183   1.823   0.221 -0.2199 -1.0336 -1.3455
  478SOL    HW1 1433   2.123   1.742   0.201  0.5266 -2.0807  0.0107
  478SOL    HW2 1434   2.284   1.801   0.203 -0.6471  2.2573  0.7757
  479SOL     OW 1435   1.297   1.139   2.928  0.2738  0.1478 -0.0415
  479SOL    HW1 1436   1.389   1.150   2.890 -0.8664 -1.5384  2.4112
  479SOL    HW2 1437   1.215   1.151   2.863 -0.6488  2.6344 -0.2632
  480SOL     OW 1438   2.511   2.350   0.459  0.5404  0.0485 -0.0573
  480SOL    HW1 1439   2.493   2.266   0.521  2.8226  1.3752  1.1591
  480SOL    HW2 1440   2.434   2.373   0.397 -1.4871  0.3046  1.9523
  481SOL     OW 1441   1.052   1.155   0.871 -0.3872 -0.2619  0.3790
  481SOL    HW1 1442   1.057   1.235   0.802  0.2829 -0.7824 -0.5579
  481SOL    HW2 1443   1.052   1.196   0.970  0.7651  1.1412  1.4781
  482SOL     OW 1444   1.561   0.276   2.007 -0.3267  0.4761  0.1868
  482SOL    HW1 1445   1.566   0.376   1.986 -0.0690 -2.2067  1.9150
  482SOL    HW2 1446   1.649   0.241   2.047 -2.4115  0.7708  0.9469
  483SOL     OW 1447   0.186   2.348   1.337  0.3721 -0.4487 -0.2354
  483SOL    HW1 1448   0.082   2.363   1.353 -2.7026  0.2687 -0.5934
  483SOL    HW2 1449   0.219   2.389   1.242  1.1050 -1.3574 -0.3825
  484SOL     OW 1450   1.724   0.946   1.393  0.5090 -0.2186 -0.0557
  484SOL    HW1 1451   1.781   0.929   1.474 -2.7408 -1.5328 -0.8267
  484SOL    HW2 1452   1.754   1.017   1.325 -0.5023  1.2222  1.2626
  485SOL     OW 1453   0.673   1.125   1.775 -0.3618  0.6325 -0.0604
  485SOL    HW1 1454   0.685   1.043   1.709  1.4502 -2.7966  0.9815
  485SOL    HW2 1455   0.765   1.172   1.786 -0.7363  1.1508 -1.8698
  486SOL     OW 1456   0.840   1.955   2.441 -0.2815  0.0893 -0.0021
  486SOL    HW1 1457   0.873   1.916   2.531 -2.1855  1.6666 -2.7280
  486SOL    HW2 1458   0.776   2.037   2.456  0.8522 -1.2592  0.1026
  487SOL     OW 1459   1.746   1.598   0.818 -0.5949  0.4098 -0.4826
  487SOL    HW1 1460   1.752   1.501   0.785  0.5236  0.8586  1.5413
  487SOL    HW2 1461   1.813   1.664   0.773 -1.8132 -1.0592  1.4808
  488SOL     OW 1462   2.969   0.981   2.208 -0.7518 -0.2108  0.0454
  488SOL    HW1 1463   2.974   0.877   2.204 -1.0303  1.0779 -1.7471
  488SOL    HW2 1464   3.062   1.033   2.199  1.6936  3.0938  0.0428
  489SOL     OW 1465   2.776   0.229   1.376 -0.0910  0.4181  0.1347
  489SOL    HW1 1466   2.794   0.240   1.479 -0.3894  1.6499  0.5969
  489SOL    HW2 1467   2.865   0.203   1.326  1.7837 -0.6184  0.3916
  490SOL     OW 1468   1.358   3.016   2.804 -0.2142  0.2111 -0.0565
  490SOL    HW1 1469   1.433   2.939   2.794 -1.3358 -0.9493 -0.1257
  490SOL    HW2 1470   1.315   3.051   2.711 -1.0920  0.5511 -1.6397
  491SOL     OW 1471   1.858   1.498   2.703 -0.6128 -0.9055  0.6909
  491SOL    HW1 1472   1.838   1.492   2.801  0.1459  1.2853 -2.0941
  491SOL    HW2 1473   1.953   1.532   2.674  0.8472 -0.0259  2.0760
  492SOL     OW 1474   0.494   1.949   0.677  0.1423  0.3762 -0.4468
  492SOL    HW1 1475   0.559   1.970   0.754 -2.2759  0.1210 -1.4716
  492SOL    HW2 1476   0.443   2.030   0.652 -1.6448 -1.2007  1.5172
  493SOL     OW 1477   0.517   1.424   2.100  0.0058 -0.3516 -0.8277
  493SOL    HW1 1478   0.437   1.477   2.138  0.4737  0.3410 -0.5792
  493SOL    HW2 1479   0.545   1.350   2.168  2.0208  1.2587  1.5166
  494SOL     OW 1480   2.601   2.556   0.202  0.2240  0.4735  0.2530
  494SOL    HW1 1481   2.684   2.502   0.210 -0.2887 -2.6337 -1.3124
  494SOL    HW2 1482   2.575   2.573   0.102 -2.2812 -0.7768  0.8045
  495SOL     OW 1483   2.731   2.702   2.690 -0.2111 -0.3441  0.0926
  495SOL    HW1 1484   2.751   2.611   2.642  2.9957  3.9795  0.4467
  495SOL    HW2 1485   2.726   2.782   2.623 -1.0140  1.9339  0.3345
  496SOL     OW 1486   2.081   2.189   0.698 -0.3091 -0.1881 -0.0900
  496SOL    HW1 1487   2.152   2.226   0.769 -0.7490 -1.2887  1.2592
  496SOL    HW2 1488   2.074   2.089   0.690 -1.0397 -3.5659 -0.3152
  497SOL     OW 1489   0.246   2.959   2.375  0.3314  0.1273 -0.1113
  497SOL    HW1 1490   0.202   3.020   2.448 -1.0576 -1.2803 -2.2552
  497SOL    HW2 1491   0.291   3.005   2.290 -1.0961  1.2305  0.7178
  498SOL     OW 1492   1.257   1.493   1.106  0.2136 -0.5482 -0.3541
  498SOL    HW1 1493   1.347   1.519   1.143 -0.8522  0.8964 -0.4529
  498SOL    HW2 1494   1.173   1.531   1.161 -3.1807  0.3344  1.5091
  499SOL     OW 1495   0.855   1.810   0.501  0.4819 -0.6294  0.3759
  499SOL    HW1 1496   0.830   1.713   0.535  1.8095 -1.1806  3.0920
  499SOL    HW2 1497   0.882   1.879   0.582 -1.8031  0.3042 -1.2359
  500SOL     OW 1498   1.437   2.971   1.669  0.0507  0.1168  0.0682
  500SOL    HW1 1499   1.366   2.950   1.744 -0.6825 -1.4177  2.1347
  500SOL    HW2 1500   1.499   2.892   1.647 -0.5513  2.1053  1.0683
  501SOL     OW 1501   0.859   1.112   2.268  0.3572 -0.2572  0.2965
  501SOL    HW1 1502   0.781   1.037   2.275 -3.9316 -2.5818 -0.2110
  501SOL    HW2 1503   0.893   1.128   2.173  1.1329 -0.3220  1.4781
  502SOL     OW 1504   2.577   0.920   1.774  0.3852 -0.2447  0.3132
  502SOL    HW1 1505   2.550   0.959   1.679  0.6100 -0.4594  1.7680
  502SOL    HW2 1506   2.531   0.823   1.783 -1.9217 -1.6069 -1.3714
  503SOL     OW 1507   1.332   0.207   0.574  0.8478  0.1713  0.2836
  503SOL    HW1 1508   1.257   0.279   0.558 -0.6973 -1.6059  0.1458
  503SOL    HW2 1509   1.405   0.233   0.641 -0.2804  2.5981 -2.2789
  504SOL     OW 1510   2.959   2.325   1.430  0.1284  0.6999  0.4393
  504SOL    HW1 1511   2.970   2.409   1.493  1.1762 -0.9828  0.6571
  504SOL    HW2 1512   2.877   2.272   1.470 -1.9137  1.7574  2.7904
  505SOL     OW 1513   2.291   1.279   1.433  0.1365  0.1501 -0.1949
  505SOL    HW1 1514   2.274   1.373   1.474  1.5351 -0.5377 -1.1938
  505SOL    HW2 1515   2.385   1.243   1.449 -1.5791 -2.0127 -0.0033
  506SOL     OW 1516   1.889   0.331   1.762  0.3845 -0.3409  0.3882
  506SOL    HW1 1517   1.983   0.291   1.736  1.0697 -0.5099  0.0852
  506SOL    HW2 1518   1.871   0.335   1.866 -0.5185 -0.3728  3.3468
  507SOL     OW 1519   0.528   0.723   2.165  0.0555 -0.5444 -0.0548
  507SOL    HW1 1520   0.441   0.714   2.113  0.8287 -1.2533  0.5580
  507SOL    HW2 1521   0.584   0.633   2.178 -0.2468 -0.9923  1.5694
  508SOL     OW 1522   0.160   1.661   0.838  0.2264  0.6143  0.1073
  508SOL    HW1 1523   0.221   1.722   0.780 -1.2946  1.4441 -1.3992
  508SOL    HW2 1524   0.189   1.664   0.934  1.1651  0.4938  0.4721
  509SOL     OW 1525   1.377   1.129   2.531 -0.0127 -0.3483 -0.6837
  509SOL    HW1 1526   1.305   1.181   2.488  0.6479 -2.5729 -1.3995
  509SOL    HW2 1527   1.341   1.032   2.553  0.3029 -2.7116  0.3878
  510SOL     OW 1528   1.354   2.000   2.020  0.2718  0.1871  0.1677
  510SOL    HW1 1529   1.283   2.078   2.046  0.0809  1.0965  1.2231
  510SOL    HW2 1530   1.335   1.909   2.064 -1.8894 -0.3081  2.2986
  511SOL     OW 1531   3.078   2.593   1.273  0.5541 -1.0479 -0.3749
  511SOL    HW1 1532   3.033   2.575   1.176  0.5372  0.0503 -3.4542
  511SOL    HW2 1533   3.007   2.614   1.346  1.5055 -0.8428 -0.1744
  512SOL     OW 1534   2.407   0.357   1.438 -0.0124 -0.3335 -0.2931
  512SOL    HW1 1535   2.309   0.364   1.413 -0.2892 -0.3188  0.0963
  512SOL    HW2 1536   2.465   0.311   1.362 -1.9982  3.5879 -3.5907
  513SOL     OW 1537   2.453   2.041   0.803  0.4726  0.5690 -0.2849
  513SOL    HW1 1538   2.424   2.130   0.754 -0.2574  0.0008 -0.7546
  513SOL    HW2 1539   2.553   2.017   0.792 -0.1727 -1.6373  0.3005
  514SOL     OW 1540   0.727   2.804   0.326 -0.2021  0.1245 -0.9085
  514SOL    HW1 1541   0.651   2.832   0.258 -0.6571 -1.2067  1.7129
  514SOL    HW2 1542   0.717   2.850   0.420 -1.2504 -1.8935  0.0420
  515SOL     OW 1543   1.970   1.251   2.340 -0.0412 -0.0560  0.0642
  515SOL    HW1 1544   1.902   1.270   2.265  1.3436 -2.1077  0.4211
  515SOL    HW2 1545   1.931   1.226   2.435  0.3944  1.8716 -4.3623
  516SOL     OW 1546   0.357   0.382   1.980  0.2876  0.0647 -0.1140
  516SOL    HW1 1547   0.453   0.339   1.987 -0.9850 -2.3650  3.3585
  516SOL    HW2 1548   0.302   0.327   1.916  2.8902 -1.9521 -1.3813
  517SOL     OW 1549   0.353   3.004   1.206  0.0174  0.3005  0.0938
  517SOL    HW1 1550   0.388   3.104   1.197  1.2588 -1.0955 -2.5780
  517SOL    HW2 1551   0.293   2.982   1.284  1.0176  3.9781 -0.2125
  518SOL     OW 1552   2.110   0.142   1.762 -0.1072 -0.2976  1.1648
  518SOL    HW1 1553   2.175   0.187   1.826 -1.2444  0.1073  1.2209
  518SOL    HW2 1554   2.162   0.105   1.680  0.6520  1.5745  0.1665
  519SOL     OW 1555   2.387   2.236   2.628  0.1602 -0.0281 -0.2960
  519SOL    HW1 1556   2.330   2.255   2.717  0.4929  1.0326  1.5365
  519SOL    HW2 1557   2.422   2.329   2.592  1.7442 -0.5525 -0.2976
  520SOL     OW 1558   1.748   2.886   1.806  0.0467  0.6198  0.2866
  520SOL    HW1 1559   1.671   2.859   1.870  0.7459 -3.6207  1.2687
  520SOL    HW2 1560   1.825   2.815   1.811 -0.4549 -2.4617 -0.0723
  521SOL     OW 1561   0.605   0.059   2.151 -0.2629 -0.1955 -0.1255
  521SOL    HW1 1562   0.507   0.023   2.156 -1.7891  1.1715  1.2322
  521SOL    HW2 1563   0.663   0.029   2.234  0.8621 -1.2811  1.3778
  522SOL     OW 1564   0.167   1.942   1.528 -0.4688  0.1590 -0.3917
  522SOL    HW1 1565   0.230   1.990   1.597 -0.9891  4.0378  0.7613
  522SOL    HW2 1566   0.182   1.973   1.431 -1.8782  3.1190  0.8819
  523SOL     OW 1567   2.285   3.004   1.675 -0.0682 -0.6367  0.5847
  523SOL    HW1 1568   2.350   2.926   1.657  5.4368  1.9940  0.4604
  523SOL    HW2 1569   2.189   2.986   1.640  2.8100  0.1183 -1.5095
  524SOL     OW 1570   0.192   2.798   2.790  0.3039 -0.0347 -0.1982
  524SOL    HW1 1571   0.147   2.864   2.855 -0.7500  1.4514  3.6754
  524SOL    HW2 1572   0.296   2.817   2.791  2.1180  4.5822  1.5435
  525SOL     OW 1573   2.107   1.924   0.474  0.3213  0.7074  0.4645
  525SOL    HW1 1574   2.174   1.874   0.532  1.6822  1.0965  0.5569
  525SOL    HW2 1575   2.113   1.888   0.373 -0.9727 -1.2440 -1.2947
  526SOL     OW 1576   0.377   1.528   1.563 -0.1636 -0.0294  0.7855
  526SOL    HW1 1577   0.319   1.487   1.640 -0.3120  0.1342  0.5629
  526SOL    HW2 1578   0.456   1.466   1.527 -1.8592 -0.0824 -0.5741
  527SOL     OW 1579   1.153   2.891   1.139  0.2891  0.3655 -0.0773
  527SOL    HW1 1580   1.223   2.829   1.186 -0.0017 -1.4039  2.6401
  527SOL    HW2 1581   1.149   2.988   1.171 -0.3725 -2.0244 -0.1946
  528SOL     OW 1582   1.309   2.408   0.495  0.4647 -0.1373  0.0291
  528SOL    HW1 1583   1.370   2.329   0.522  2.0774  2.1680  0.3214
  528SOL    HW2 1584   1.336   2.495   0.549  0.3961 -0.3472  3.6250
  529SOL     OW 1585   1.918   1.750   0.666  0.2042  0.3775 -0.4679
  529SOL    HW1 1586   1.867   1.736   0.573 -0.7374 -0.3023 -1.1295
  529SOL    HW2 1587   2.016   1.785   0.650 -0.5866  0.1229 -0.7391
  530SOL     OW 1588   0.343   2.502   0.250  0.6407  0.3552  0.5320
  530SOL    HW1 1589   0.351   2.601   0.270 -2.6833 -2.7225 -2.0319
  530SOL    HW2 1590   0.417   2.444   0.297 -2.4706 -1.7669  1.0998
  531SOL     OW 1591   1.887   0.811   0.947 -0.0283  0.0782  0.4293
  531SOL    HW1 1592   1.925   0.828   0.850  0.1876  0.5994  1.6256
  531SOL    HW2 1593   1.793   0.852   0.948 -1.1063  0.6497 -0.2246
  532SOL     OW 1594   0.449   1.088   0.742 -0.2711  0.3463  0.2676
  532SOL    HW1 1595   0.468   1.047   0.650  0.9456  0.4599  0.0582
  532SOL    HW2 1596   0.413   1.012   0.799 -0.7590 -0.3173 -3.1106
  533SOL     OW 1597   1.747   0.046   2.583  0.5466  0.2429  0.1797
  533SOL    HW1 1598   1.843   0.016   2.600 -0.1679  1.9221 -1.1843
  533SOL    HW2 1599   1.714   0.116   2.655 -2.0487  0.4300  1.8920
  534SOL     OW 1600   0.390   0.254   1.477  0.3353  0.2984 -0.0880
  534SOL    HW1 1601   0.479   0.263   1.527  1.3549 -0.1251 -0.0937
  534SOL    HW2 1602   0.357   0.348   1.459 -0.0686 -1.3397  2.7457
  535SOL     OW 1603   1.999   0.304   0.170 -0.0158  0.2791  0.0371
  535SOL    HW1 1604   2.012   0.393   0.229  0.4030  0.2308  0.7593
  535SOL    HW2 1605   1.988   0.212   0.220  0.1760 -2.2018 -0.3718
  536SOL     OW 1606   1.392   2.627   0.979  0.1867  0.3704  0.1492
  536SOL    HW1 1607   1.352   2.588   1.074 -0.1873  1.4041 -0.3560
  536SOL    HW2 1608   1.319   2.672   0.916 -0.8398  2.0006  1.4139
  537SOL     OW 1609   0.910   0.258   2.344 -0.1385  0.0752  0.7776
  537SOL    HW1 1610   0.924   0.307   2.254 -0.4074 -0.4868  1.8557
  537SOL    HW2 1611   0.874   0.164   2.340 -0.3723  1.2001  4.2920
  538SOL     OW 1612   1.624   2.355   1.404 -0.3397  0.1264 -0.1668
  538SOL    HW1 1613   1.612   2.261   1.444  0.3110 -1.1702 -0.0140
  538SOL    HW2 1614   1.687   2.362   1.325 -0.3259  2.0995 -1.7165
  539SOL     OW 1615   0.162   1.571   2.665 -0.1213 -0.0702  0.6264
  539SOL    HW1 1616   0.059   1.558   2.636 -1.4078  0.1809 -0.1934
  539SOL    HW2 1617   0.178   1.667   2.700  0.4989 -0.1992 -0.0279
  540SOL     OW 1618   2.678   1.765   1.962 -0.2384 -0.3546  0.4699
  540SOL    HW1 1619   2.625   1.680   1.978  1.0903 -0.3490  1.5227
  540SOL    HW2 1620   2.621   1.845   1.944 -0.2058  0.6966 -4.3561
  541SOL     OW 1621   0.454   2.137   3.065 -0.5101  0.1943  0.6016
  541SOL    HW1 1622   0.483   2.084   3.147 -0.5665  1.1832 -2.1201
  541SOL    HW2 1623   0.353   2.139   3.051  1.1212  1.1494  1.6228
  542SOL     OW 1624   2.226   2.601   0.498 -1.0811  0.5718  0.1302
  542SOL    HW1 1625   2.212   2.686   0.552 -0.6203  0.0850  0.2196
  542SOL    HW2 1626   2.163   2.522   0.512  3.1375  0.3805  2.8953
  543SOL     OW 1627   0.960   1.789   1.576 -0.8379  0.0393 -0.2790
  543SOL    HW1 1628   0.985   1.781   1.680  1.6869 -1.3848  0.7134
  543SOL    HW2 1629   0.949   1.884   1.535 -1.2916  2.4365 -0.0314
  544SOL     OW 1630   1.131   0.544   0.117 -0.1205  0.2990 -0.3497
  544SOL    HW1 1631   1.109   0.465   0.178  0.5389 -2.8929  0.1056
  544SOL    HW2 1632   1.152   0.520   0.017 -0.8939 -0.2739 -1.1555
  545SOL     OW 1633   1.118   1.776   0.816 -0.6025  0.6439 -0.1665
  545SOL    HW1 1634   1.213   1.792   0.775 -0.7143 -2.9333 -1.3017
  545SOL    HW2 1635   1.100   1.673   0.828 -2.2915 -2.3665  0.8377
  546SOL     OW 1636   2.718   1.576   3.025  0.3579  0.0423  0.2793
  546SOL    HW1 1637   2.693   1.665   2.973  0.7361 -2.1577 -3.7210
  546SOL    HW2 1638   2.643   1.528   3.074  1.1005  2.1801  0.2533
  547SOL     OW 1639   0.745   3.018   2.598 -0.4403 -0.1741 -0.0608
  547SOL    HW1 1640   0.794   2.979   2.678  4.0469 -0.2768  1.4736
  547SOL    HW2 1641   0.685   2.944   2.549  1.8092 -0.5864  1.5226
  548SOL     OW 1642   2.010   0.812   0.022  0.0414  0.0570  0.5965
  548SOL    HW1 1643   1.906   0.797   0.006  1.8234 -0.1163  2.2674
  548SOL    HW2 1644   2.037   0.906  -0.006 -0.3081 -0.6633  3.1717
  549SOL     OW 1645   0.700   0.466   0.177  0.5214 -0.7522 -0.1749
  549SOL    HW1 1646   0.654   0.474   0.085 -0.9242 -0.3146 -1.4716
  549SOL    HW2 1647   0.776   0.539   0.183  2.5204  1.6124 -0.2580
  550SOL     OW 1648   2.591   2.814   2.902 -0.4201  0.2276 -0.3045
  550SOL    HW1 1649   2.561   2.747   2.980  0.1935 -0.4334 -0.7750
  550SOL    HW2 1650   2.635   2.761   2.822  0.9668  0.3682 -1.6976
  551SOL     OW 1651   0.239   0.851   0.255  0.4333 -0.1603  0.5837
  551SOL    HW1 1652   0.333   0.827   0.212 -2.1151 -1.9963 -0.3192
  551SOL    HW2 1653   0.235   0.842   0.356 -4.0081 -1.2121 -1.4897
  552SOL     OW 1654   0.606   3.064   1.891  0.2496  0.3161 -0.2342
  552SOL    HW1 1655   0.604   3.098   1.989  0.1461  2.1865  0.2186
  552SOL    HW2 1656   0.703   3.060   1.860 -3.0646 -0.7386  0.5035
  553SOL     OW 1657   3.047   2.417   0.409 -0.5612  0.8508  0.5449
  553SOL    HW1 1658   3.081   2.319   0.428 -0.8171  0.6458  2.5943
  553SOL    HW2 1659   2.947   2.429   0.417  2.5409  1.6826 -0.4562
  554SOL     OW 1660   2.246   0.320   0.594 -0.0670 -0.4203  0.0414
  554SOL    HW1 1661   2.320   0.327   0.523 -0.2226  3.5474 -0.8155
  554SOL    HW2 1662   2.244   0.232   0.646  2.5062  0.0374 -0.2499
  555SOL     OW 1663   0.466   2.811   2.553 -0.0839  0.1966  0.3565
  555SOL    HW1 1664   0.402   2.864   2.495 -2.1783 -1.8388 -1.8480
  555SOL    HW2 1665   0.534   2.748   2.498  1.7032  0.2265 -0.7142
  556SOL     OW 1666   0.814   2.361   1.600 -0.0318  0.1960 -0.1623
  556SOL    HW1 1667   0.828   2.426   1.679  0.9308  2.4058  0.6762
  556SOL    HW2 1668   0.883   2.381   1.524  1.1127 -3.4322  2.0748
  557SOL     OW 1669   0.088   2.168   0.227 -0.4704 -0.3827 -0.5414
  557SOL    HW1 1670   0.036   2.090   0.184  2.1523  0.5104 -0.7810
  557SOL    HW2 1671   0.072   2.256   0.185 -3.3179 -3.6854  1.3381
  558SOL     OW 1672   2.833   2.128   0.383 -0.0927 -0.0199  0.0598
  558SOL    HW1 1673   2.763   2.170   0.452  0.2292 -3.4931  1.0066
  558SOL    HW2 1674   2.792   2.143   0.284  0.3415 -0.0526 -2.8723
  559SOL     OW 1675   0.426   2.306   1.427 -0.1759  0.5306 -0.0989
  559SOL    HW1 1676   0.332   2.323   1.388  2.1478  2.7642 -0.6158
  559SOL    HW2 1677   0.493   2.250   1.365  4.9083  1.3515 -0.0481
  560SOL     OW 1678   2.161   1.083   0.045 -0.5477  0.5695 -0.0545
  560SOL    HW1 1679   2.207   1.110   0.133 -1.1397  0.2986  0.4397
  560SOL    HW2 1680   2.233   1.048  -0.014  1.4753  1.7388  2.4916
  561SOL     OW 1681   3.024   1.975   0.120  0.3545 -0.1420  0.0499
  561SOL    HW1 1682   2.965   2.013   0.202 -2.0466 -2.4476  0.5585
  561SOL    HW2 1683   2.962   1.965   0.034 -2.1619  0.0529 -0.1896
  562SOL     OW 1684   1.004   2.121   2.305 -0.3996 -0.0276  0.0157
  562SOL    HW1 1685   1.007   2.220   2.347  1.7285  2.4593  3.2518
  562SOL    HW2 1686   0.944   2.057   2.366  2.7620  0.8499  1.7490
  563SOL     OW 1687   0.707   2.492   2.656  0.3259  0.4911  0.3782
  563SOL    HW1 1688   0.796   2.433   2.651 -0.0808 -1.8434  0.9789
  563SOL    HW2 1689   0.701   2.532   2.752 -1.2249  0.0956  1.8501
  564SOL     OW 1690   2.869   1.375   2.896 -0.4435 -0.0574  0.0676
  564SOL    HW1 1691   2.830   1.454   2.955  1.6385 -1.3446  0.6008
  564SOL    HW2 1692   2.953   1.410   2.839  2.1227  1.2048 -0.2287
  565SOL     OW 1693   2.487   1.986   2.648 -0.6601  0.6797  0.1765
  565SOL    HW1 1694   2.455   2.085   2.636  0.8218  3.5510 -3.4004
  565SOL    HW2 1695   2.582   1.987   2.691  0.2576 -2.1502  0.6336
  566SOL     OW 1696   2.043   2.920   1.564  0.5485  0.0793  0.7119
  566SOL    HW1 1697   1.985   2.839   1.581  0.8077 -2.4909 -0.0259
  566SOL    HW2 1698   2.111   2.907   1.491  2.8370  1.4156  0.7873
  567SOL     OW 1699   2.392   0.040   2.319  0.3428  0.0924  0.1333
  567SOL    HW1 1700   2.326   0.094   2.376 -0.5716 -1.2740  1.7504
  567SOL    HW2 1701   2.363   0.023   2.217  1.7147  0.9838  0.0106
  568SOL     OW 1702   1.495   1.772   0.174  0.1209  0.5884 -0.0251
  568SOL    HW1 1703   1.433   1.849   0.135  0.8851  0.9766 -1.0903
  568SOL    HW2 1704   1.596   1.801   0.195  0.5688  1.8635 -1.7805
  569SOL     OW 1705   0.223   0.543   0.832  0.6174  0.0833 -0.3300
  569SOL    HW1 1706   0.230   0.457   0.777 -1.2381  1.2720  0.0473
  569SOL    HW2 1707   0.129   0.552   0.877  0.5845 -1.4440 -0.0704
  570SOL     OW 1708   0.651   0.781   2.891  0.1325 -0.7346 -0.1630
  570SOL    HW1 1709   0.672   0.823   2.799  0.0161  0.1065 -1.3704
  570SOL    HW2 1710   0.663   0.848   2.973 -0.4880 -0.3146 -0.5789
  571SOL     OW 1711   0.798   3.018   1.119 -0.2474 -0.4216  0.2087
  571SOL    HW1 1712   0.879   3.082   1.107  1.8281 -1.7257  0.0441
  571SOL    HW2 1713   0.830   2.918   1.109  1.8626  0.2137  1.2860
  572SOL     OW 1714   1.648   2.737   1.365 -0.3597  0.0133 -0.6960
  572SOL    HW1 1715   1.731   2.695   1.327 -3.0419 -0.2758 -1.6235
  572SOL    HW2 1716   1.585   2.775   1.288 -0.6094  0.2222  0.2442
  573SOL     OW 1717   3.043   0.494   1.956 -0.4476  0.7348  0.9208
  573SOL    HW1 1718   2.962   0.429   1.967 -1.3990  0.5948 -0.2270
  573SOL    HW2 1719   3.117   0.455   1.900  0.9882 -0.1548  0.3553
  574SOL     OW 1720   0.146   1.699   1.111  0.5032  0.4937 -0.9337
  574SOL    HW1 1721   0.198   1.699   1.203 -1.7534 -2.0758  1.4004
  574SOL    HW2 1722   0.097   1.790   1.104  0.3569 -0.9476  0.5384
  575SOL     OW 1723   0.837   2.290   0.938  0.1484 -0.6982 -0.0010
  575SOL    HW1 1724   0.818   2.331   1.039 -1.8617 -0.0855  0.8285
  575SOL    HW2 1725   0.847   2.359   0.862 -0.3974 -0.7059  0.1297
  576SOL     OW 1726   2.928   3.057   1.671 -0.2110 -0.1764  0.0723
  576SOL    HW1 1727   2.827   3.052   1.635 -0.5031  1.0951  1.5695
  576SOL    HW2 1728   2.972   3.151   1.667  2.6338  2.6464  1.7168
  577SOL     OW 1729   2.631   1.176   3.051 -0.2540 -0.2670 -0.0611
  577SOL    HW1 1730   2.661   1.089   3.005  0.1788 -2.5911  1.3465
  577SOL    HW2 1731   2.678   1.179   3.143 -0.4657 -3.3464 -1.3193
  578SOL     OW 1732   1.403   2.746   2.560  0.1889 -0.2376 -0.4850
  578SOL    HW1 1733   1.313   2.773   2.516  1.4978  1.3954 -0.0871
  578SOL    HW2 1734   1.483   2.805   2.522 -0.0374  0.6192 -1.8788
  579SOL     OW 1735   0.063   2.454   0.143 -0.3162 -0.4509  0.0061
  579SOL    HW1 1736   0.037   2.457   0.246  1.9465 -2.3227  1.5726
  579SOL    HW2 1737   0.154   2.501   0.119  1.8173  2.8389  1.3425
  580SOL     OW 1738   0.993   2.723   0.314  0.4023 -0.2625 -0.8247
  580SOL    HW1 1739   1.058   2.729   0.235  0.6726  0.1023 -0.5326
  580SOL    HW2 1740   0.902   2.772   0.299  1.6909  0.5628 -0.9104
  581SOL     OW 1741   1.258   2.700   1.392 -0.1400 -0.3628 -0.0828
  581SOL    HW1 1742   1.307   2.620   1.444 -0.3167 -0.3152 -0.7825
  581SOL    HW2 1743   1.326   2.773   1.358  2.0424  0.4611  0.8349
  582SOL     OW 1744   1.442   0.127   1.839  0.4926 -0.2927 -0.1140
  582SOL    HW1 1745   1.482   0.195   1.909 -0.6849  1.1536 -2.7756
  582SOL    HW2 1746   1.515   0.102   1.765  1.1077  1.3506  0.4675
  583SOL     OW 1747   2.495   2.975   0.533 -0.3881 -0.7760  0.3957
  583SOL    HW1 1748   2.579   2.945   0.480  1.5864 -1.2059  2.1531
  583SOL    HW2 1749   2.438   2.900   0.568  1.4565  0.6097  2.3799
  584SOL     OW 1750   1.444   1.020   2.275 -0.6472 -0.1916  0.4983
  584SOL    HW1 1751   1.438   1.071   2.361 -0.1087  2.5627 -2.6802
  584SOL    HW2 1752   1.541   0.986   2.270 -1.2516 -0.9143  0.6028
  585SOL     OW 1753   2.053   2.649   2.873  0.0333  0.2074  0.4686
  585SOL    HW1 1754   2.103   2.565   2.904 -2.0089 -2.5912  0.3309
  585SOL    HW2 1755   1.955   2.644   2.856  1.6006  0.6643  1.7831
  586SOL     OW 1756   2.889   0.382   1.634  0.7555 -0.4352  0.6082
  586SOL    HW1 1757   2.851   0.478   1.671 -0.6380  0.0696  0.8517
  586SOL    HW2 1758   2.817   0.312   1.648 -2.7727  1.2077  0.2668
  587SOL     OW 1759   2.128   1.489   2.721 -0.1818  0.2280  0.0099
  587SOL    HW1 1760   2.140   1.458   2.621  2.5986  3.3695 -1.9538
  587SOL    HW2 1761   2.221   1.515   2.770  1.4604  2.8720  1.3851
  588SOL     OW 1762   0.417   2.662   2.181 -0.1708 -0.1732 -0.3205
  588SOL    HW1 1763   0.427   2.755   2.129 -0.2886 -0.6934 -1.5787
  588SOL    HW2 1764   0.366   2.594   2.132  1.8527  0.7884 -0.3816
  589SOL     OW 1765   2.174   1.385   2.469  0.8308  0.0284 -0.2471
  589SOL    HW1 1766   2.092   1.338   2.423 -3.0247  0.2301  1.5784
  589SOL    HW2 1767   2.265   1.328   2.472  0.2901 -1.4285  2.2486
  590SOL     OW 1768   2.307   1.700   2.044 -0.1517  0.3940 -0.3899
  590SOL    HW1 1769   2.382   1.630   2.063 -1.3978 -0.3878  2.9693
  590SOL    HW2 1770   2.306   1.760   2.127  1.4060  0.3701 -1.5531
  591SOL     OW 1771   1.299   2.435   0.214  0.6292  0.2681  0.4085
  591SOL    HW1 1772   1.321   2.342   0.175  1.8998 -2.7193  1.4624
  591SOL    HW2 1773   1.295   2.436   0.319  1.0188  0.4093 -2.0392
  592SOL     OW 1774   1.791   2.340   0.786  0.2572  0.1581  0.6696
  592SOL    HW1 1775   1.775   2.392   0.699 -0.2443  0.6621 -1.8791
  592SOL    HW2 1776   1.881   2.365   0.831  0.2144 -0.5646 -0.4152
  593SOL     OW 1777   0.791   0.207   0.221  0.4011 -0.6623 -0.0664
  593SOL    HW1 1778   0.805   0.143   0.141 -1.4269 -0.7280  0.9934
  593SOL    HW2 1779   0.765   0.304   0.191 -0.2620  0.1148 -0.1689
  594SOL     OW 1780   0.947   1.823   2.706 -0.3475 -0.0004 -0.4035
  594SOL    HW1 1781   1.029   1.794   2.655 -1.7764  0.6795 -0.3817
  594SOL    HW2 1782   0.964   1.895   2.777 -0.4551 -0.2385  2.5433
  595SOL     OW 1783   1.542   0.078   1.035 -0.3949 -0.0825  0.0899
  595SOL    HW1 1784   1.601   0.002   1.069 -2.4110 -0.0648 -0.4552
  595SOL    HW2 1785   1.489   0.041   0.954  0.5574  1.4697  0.7907
  596SOL     OW 1786   0.255   1.505   2.184  0.5977  0.3645 -0.2055
  596SOL    HW1 1787   0.149   1.524   2.175 -1.2073  0.9106  0.5363
  596SOL    HW2 1788   0.290   1.530   2.278  2.3127 -1.5495 -1.5991
  597SOL     OW 1789   1.938   2.712   1.803 -0.2469  0.0946 -0.0325
  597SOL    HW1 1790   1.937   2.706   1.699 -0.5061 -2.3104 -1.7554
  597SOL    HW2 1791   2.011   2.651   1.842 -0.8677  2.5730 -1.3736
  598SOL     OW 1792   2.505   2.778   1.266 -0.2590  0.1938  0.2109
  598SOL    HW1 1793   2.605   2.777   1.241 -0.1952  0.3790  0.4634
  598SOL    HW2 1794   2.455   2.692   1.240 -1.4270  2.0774 -2.7957
  599SOL     OW 1795   2.898   0.295   2.531  0.4284 -0.0460  0.4357
  599SOL    HW1 1796   2.984   0.282   2.478 -0.4634 -2.8877  1.4461
  599SOL    HW2 1797   2.834   0.365   2.488 -2.0392 -1.7728  2.9597
  600SOL     OW 1798   2.724   1.210   2.730 -0.1653  0.2664 -0.3303
  600SOL    HW1 1799   2.624   1.209   2.756  1.5506 -2.3013  3.0117
  600SOL    HW2 1800   2.778   1.273   2.798 -0.2268 -0.0756  1.5741
  601SOL     OW 1801   3.027   1.372   1.862 -0.0651 -0.1392 -0.4546
  601SOL    HW1 1802   2.929   1.392   1.840  0.2160 -1.7965  3.6150
  601SOL    HW2 1803   3.081   1.449   1.909 -0.3997  0.8465 -0.3061
  602SOL     OW 1804   1.459   1.580   2.350 -0.1304  0.2027 -0.0300
  602SOL    HW1 1805   1.359   1.567   2.376 -1.0279  3.2358 -1.5473
  602SOL    HW2 1806   1.530   1.594   2.427 -2.0170 -3.0420 -0.0616
  603SOL     OW 1807   0.593   1.155   2.751  0.2613  0.1753 -0.6756
  603SOL    HW1 1808   0.515   1.187   2.695  0.3842 -2.6863  0.6128
  603SOL    HW2 1809   0.607   1.051   2.750 -1.1243 -0.6996  0.6692
  604SOL     OW 1810   2.538   0.975   0.231  0.1901 -0.2521 -0.1271
  604SOL    HW1 1811   2.636   1.012   0.210  0.2261  0.3259 -0.3443
  604SOL    HW2 1812   2.509   0.906   0.154 -0.6292 -0.7437  0.2659
  605SOL     OW 1813   2.552   1.170   1.910 -0.3271  0.0167 -0.1696
  605SOL    HW1 1814   2.577   1.077   1.877  0.4383 -0.4690  1.8045
  605SOL    HW2 1815   2.580   1.188   2.006 -0.2907  1.0632  0.3273
  606SOL     OW 1816   1.482   2.470   2.557  0.3021 -0.0621  0.0764
  606SOL    HW1 1817   1.419   2.553   2.557  0.5118  1.8395  1.1581
  606SOL    HW2 1818   1.429   2.383   2.549  2.6867  1.8737  0.7839
  607SOL     OW 1819   1.252   1.616   0.250 -0.7154  0.1447 -0.4523
  607SOL    HW1 1820   1.183   1.679   0.283  0.4726 -0.4478 -0.4447
  607SOL    HW2 1821   1.343   1.654   0.246 -1.0330  1.3077  3.5467
  608SOL     OW 1822   1.451   2.880   0.352  0.2938  0.1509 -0.6079
  608SOL    HW1 1823   1.509   2.908   0.269  3.8861  0.9202  2.0306
  608SOL    HW2 1824   1.382   2.953   0.381 -1.7520  0.5502  0.1544
  609SOL     OW 1825   1.238   1.336   0.222 -0.0928  0.4656  0.4081
  609SOL    HW1 1826   1.235   1.423   0.276  1.0721  3.4481  1.1602
  609SOL    HW2 1827   1.215   1.353   0.124  0.6757  1.7067  1.0496
  610SOL     OW 1828   3.059   1.219   2.094  0.0378  0.3692  0.0213
  610SOL    HW1 1829   2.982   1.162   2.134 -1.7814  3.6941 -1.8209
  610SOL    HW2 1830   3.023   1.269   2.006 -0.9955 -3.2705  0.0258
  611SOL     OW 1831   2.586   0.197   1.174  0.0560 -0.2272  0.1107
  611SOL    HW1 1832   2.522   0.122   1.203 -2.7467  0.0450 -2.1124
  611SOL    HW2 1833   2.676   0.201   1.226 -0.3428 -0.8025  1.7774
  612SOL     OW 1834   0.763   2.408   1.174 -0.0932  0.0504  0.0949
  612SOL    HW1 1835   0.703   2.323   1.184  3.0910 -0.7123 -2.4358
  612SOL    HW2 1836   0.708   2.498   1.181 -1.5821 -0.4674 -1.9144
  613SOL     OW 1837   0.771   1.358   2.394 -0.1979  0.4473 -0.4350
  613SOL    HW1 1838   0.790   1.432   2.325 -0.5769 -0.2651 -0.7154
  613SOL    HW2 1839   0.775   1.264   2.352 -0.6100  1.3438  0.8294
  614SOL     OW 1840   1.508   1.696   1.911 -0.1170 -0.1463 -0.8747
  614SOL    HW1 1841   1.493   1.775   1.849 -0.7479 -0.6740 -0.2856
  614SOL    HW2 1842   1.581   1.721   1.988 -2.7613  1.3257  0.3533
  615SOL     OW 1843   0.738   1.418   1.690  0.2092 -0.6381 -0.1228
  615SOL    HW1 1844   0.652   1.366   1.656  2.8749 -0.8650 -0.6181
  615SOL    HW2 1845   0.788   1.470   1.617 -1.5022  1.9415 -0.5898
  616SOL     OW 1846   1.082   1.654   2.168 -1.2360 -0.0230 -0.5176
  616SOL    HW1 1847   0.985   1.624   2.189  0.7275 -2.0896  0.2412
  616SOL    HW2 1848   1.110   1.626   2.076  1.3256  1.2127  0.4838
  617SOL     OW 1849   2.938   1.551   1.594 -0.2468 -0.6897  0.2068
  617SOL    HW1 1850   2.893   1.498   1.669  2.7369  0.0086  0.8001
  617SOL    HW2 1851   2.973   1.486   1.519  0.0646  1.3033 -1.9670
  618SOL     OW 1852   1.865   2.023   1.520 -0.3963 -0.2488 -0.6274
  618SOL    HW1 1853   1.877   1.961   1.437  0.2561  0.6139 -0.0143
  618SOL    HW2 1854   1.872   1.970   1.605  1.5320 -0.0294  1.5489
  619SOL     OW 1855   1.791   0.513   2.433  0.1413 -0.5917  0.2908
  619SOL    HW1 1856   1.701   0.563   2.402 -1.8409  0.1982  0.0567
  619SOL    HW2 1857   1.792   0.408   2.422 -0.5145 -1.4242  0.5326
  620SOL     OW 1858   2.247   2.859   0.674  0.4890  0.4449 -0.8943
  620SOL    HW1 1859   2.179   2.942   0.681  2.3147  3.2611  0.8834
  620SOL    HW2 1860   2.295   2.836   0.765 -0.9590  0.8866 -0.9245
  621SOL     OW 1861   2.120   1.905   1.328  0.0370 -1.0098 -0.2723
  621SOL    HW1 1862   2.124   1.896   1.429 -1.1761  0.8694 -3.6720
  621SOL    HW2 1863   2.143   1.825   1.270 -1.5622 -1.6163 -2.2308
  622SOL     OW 1864   2.179   0.930   1.740 -0.3423  0.0858 -0.5347
  622SOL    HW1 1865   2.195   0.855   1.675  4.7509  2.7454  1.9887
  622SOL    HW2 1866   2.111   0.909   1.817  0.6432  1.1679  1.8658
  623SOL     OW 1867   1.263   0.851   2.545  0.0750 -0.3768 -0.0843
  623SOL    HW1 1868   1.192   0.816   2.615 -0.4652 -0.1724  2.6655
  623SOL    HW2 1869   1.218   0.856   2.450 -1.0569  1.0297 -0.0729
  624SOL     OW 1870   0.521   0.600   3.064 -0.0432 -0.9114 -0.1336
  624SOL    HW1 1871   0.579   0.649   2.988  0.9253  0.1550 -1.4475
  624SOL    HW2 1872   0.490   0.673   3.138 -1.1577  0.2639  3.7518
  625SOL     OW 1873   2.830   1.804   0.831  0.3551  0.3950  0.8916
  625SOL    HW1 1874   2.824   1.855   0.924  0.6467  0.5235  1.0086
  625SOL    HW2 1875   2.747   1.756   0.791  1.6474  0.8021 -0.6919
  626SOL     OW 1876   0.452   2.845   1.978  0.2138  0.5253 -0.7457
  626SOL    HW1 1877   0.505   2.928   1.943  2.2169 -2.0891 -0.3495
  626SOL    HW2 1878   0.359   2.829   1.936  0.9056  0.6062  1.3238
  627SOL     OW 1879   0.692   0.919   1.595 -0.2428 -1.1002  0.1385
  627SOL    HW1 1880   0.717   0.835   1.648  0.6377 -0.4652 -0.4516
  627SOL    HW2 1881   0.769   0.949   1.524 -1.6860 -2.2373 -1.8208
  628SOL     OW 1882   2.433   0.109   0.646 -0.1552 -0.1721  0.1646
  628SOL    HW1 1883   2.467   0.022   0.594  1.8734  0.4231 -0.8823
  628SOL    HW2 1884   2.347   0.078   0.694  0.0499 -1.1481 -0.5877
  629SOL     OW 1885   2.016   0.942   1.963 -0.5673  0.1668  0.2471
  629SOL    HW1 1886   2.055   0.953   2.059  0.4331 -1.3351  3.4583
  629SOL    HW2 1887   1.956   1.023   1.937  0.4109  0.0830  0.2897
  630SOL     OW 1888   2.825   2.239   0.827 -0.3653 -0.3454  0.7358
  630SOL    HW1 1889   2.737   2.286   0.867 -3.0464  1.8321  1.4984
  630SOL    HW2 1890   2.800   2.164   0.762  0.4055 -1.2513 -2.1577
  631SOL     OW 1891   3.046   0.235   2.168 -0.3782  0.3192 -0.0219
  631SOL    HW1 1892   3.069   0.273   2.260 -0.8178  1.0733 -0.6625
  631SOL    HW2 1893   3.128   0.224   2.110  1.7012 -1.5280  0.9505
  632SOL     OW 1894   2.415   2.546   0.690 -0.2676  0.3839 -0.5202
  632SOL    HW1 1895   2.497   2.571   0.745 -1.5688  0.4994  0.1637
  632SOL    HW2 1896   2.418   2.568   0.586 -1.1105  0.0300  1.0217
  633SOL     OW 1897   1.581   1.252   2.720 -0.4502 -0.0800  0.0308
  633SOL    HW1 1898   1.549   1.335   2.773  2.4483 -1.4644  0.0963
  633SOL    HW2 1899   1.522   1.230   2.639  0.4313 -0.2762  1.6889
  634SOL     OW 1900   0.719   2.054   0.887  0.0457  0.0601  0.1539
  634SOL    HW1 1901   0.625   2.058   0.920  1.3034 -1.0849  1.1071
  634SOL    HW2 1902   0.770   2.146   0.898 -1.5814 -1.8531  1.1641
  635SOL     OW 1903   3.042   2.268   3.056 -0.3393  0.5593  0.0045
  635SOL    HW1 1904   3.002   2.291   2.965 -0.8617 -0.7814 -1.2778
  635SOL    HW2 1905   3.054   2.348   3.118 -1.8204  1.9477 -0.6832
  636SOL     OW 1906   2.324   2.813   1.966  0.1739 -0.1299  0.1346
  636SOL    HW1 1907   2.312   2.917   1.976 -3.3457 -1.0955  0.2211
  636SOL    HW2 1908   2.273   2.772   2.044 -0.3652 -0.3015 -1.8454
  637SOL     OW 1909   2.531   0.727   2.084 -0.6662  0.1883 -0.0218
  637SOL    HW1 1910   2.521   0.714   1.980 -1.9955  1.1919  0.0514
  637SOL    HW2 1911   2.603   0.801   2.101  0.4169  1.5269 -1.8271
  638SOL     OW 1912   2.421   1.900   1.366  0.1918  0.3632 -0.2280
  638SOL    HW1 1913   2.323   1.941   1.353 -1.0626  0.0217 -1.6941
  638SOL    HW2 1914   2.446   1.835   1.286  0.1626  1.1640  3.1441
  639SOL     OW 1915   1.255   2.228   1.639 -0.1294  0.0403  0.6650
  639SOL    HW1 1916   1.241   2.175   1.550 -1.5596 -0.7812 -1.2991
  639SOL    HW2 1917   1.186   2.210   1.713  1.3113 -0.3685  2.2462
  640SOL     OW 1918   0.228   1.134   1.534  0.1488  0.3648 -0.1791
  640SOL    HW1 1919   0.223   1.209   1.606 -1.1286  0.0321  1.4191
  640SOL    HW2 1920   0.324   1.103   1.521  0.0754  2.0824  0.1197
  641SOL     OW 1921   1.869   0.305   1.415 -0.0866 -0.3298  0.0599
  641SOL    HW1 1922   1.823   0.397   1.439  1.3129  2.0895 -0.4042
  641SOL    HW2 1923   1.827   0.220   1.454  2.0165  1.4671 -2.4074
  642SOL     OW 1924   1.996   0.079   0.335  0.1593 -0.0424  0.3010
  642SOL    HW1 1925   2.097   0.047   0.348  1.5636  1.0199  0.9330
  642SOL    HW2 1926   1.963   0.129   0.419 -1.4885 -2.3789 -1.3120
  643SOL     OW 1927   2.901   1.895   2.072  0.6417  0.3452 -0.3698
  643SOL    HW1 1928   2.836   1.832   2.022  0.5427  2.2028 -0.2349
  643SOL    HW2 1929   2.884   1.995   2.051 -3.0466  0.1276 -0.9561
  644SOL     OW 1930   2.209   2.300   1.140  0.3201  1.0490 -0.0544
  644SOL    HW1 1931   2.285   2.241   1.099  1.8898 -1.8551  1.0093
  644SOL    HW2 1932   2.193   2.277   1.241  1.5010 -0.6013  2.0741
  645SOL     OW 1933   0.624   0.923   1.151 -0.0281  0.4919 -0.0624
  645SOL    HW1 1934   0.536   0.866   1.159 -1.3388  0.9024 -0.1341
  645SOL    HW2 1935   0.623   1.015   1.101 -0.4045  2.6365  3.8611
  646SOL     OW 1936   1.449   1.923   1.786  0.1928 -0.1545 -1.4247
  646SOL    HW1 1937   1.534   1.979   1.780  2.0847  1.3421  3.0350
  646SOL    HW2 1938   1.395   1.954   1.873  0.9785  3.0613  1.5537
  647SOL     OW 1939   0.872   0.888   0.657 -0.1477  0.5672 -0.1098
  647SOL    HW1 1940   0.962   0.907   0.700 -0.6600 -0.5529  0.8989
  647SOL    HW2 1941   0.790   0.880   0.721  1.2341  3.1294  0.5868
  648SOL     OW 1942   0.066   0.220   0.330 -0.0957  0.4084 -0.2199
  648SOL    HW1 1943   0.044   0.128   0.289  0.6649 -1.5564 -1.7774
  648SOL    HW2 1944   0.065   0.298   0.260  3.5403 -2.0498 -0.0499
  649SOL     OW 1945   3.064   0.050   0.966 -0.6554 -0.0419 -0.2764
  649SOL    HW1 1946   3.152   0.003   0.938  2.0894  0.5776 -0.8873
  649SOL    HW2 1947   3.086   0.151   0.974 -0.6448  1.0445 -1.0974
  650SOL     OW 1948   2.683   0.700   1.463  0.3145 -0.2025  0.0180
  650SOL    HW1 1949   2.586   0.689   1.503 -3.0006 -1.1448 -0.1352
  650SOL    HW2 1950   2.702   0.788   1.408  1.3447  1.1116  1.3057
  651SOL     OW 1951   0.899   1.530   1.490 -0.1491 -0.0482  0.4626
  651SOL    HW1 1952   0.931   1.609   1.545 -0.8416 -2.2642  2.0861
  651SOL    HW2 1953   0.806   1.562   1.444 -1.2427  2.9682  1.8075
  652SOL     OW 1954   2.199   2.544   2.380  0.2554 -0.1228  0.7007
  652SOL    HW1 1955   2.136   2.553   2.466 -1.4914 -1.3378  2.7391
  652SOL    HW2 1956   2.194   2.624   2.320 -1.8738 -0.0678 -1.8511
  653SOL     OW 1957   2.775   1.154   0.209  0.2189  0.8141 -0.0422
  653SOL    HW1 1958   2.843   1.198   0.147 -2.6404 -2.0006  1.2743
  653SOL    HW2 1959   2.828   1.089   0.270  0.5897 -1.4254  3.3321
  654SOL     OW 1960   1.223   2.239   1.207 -0.1758  0.2065 -0.8169
  654SOL    HW1 1961   1.233   2.168   1.283  1.6456 -1.4867 -2.3545
  654SOL    HW2 1962   1.290   2.240   1.129  0.9381  0.1908 -0.0048
  655SOL     OW 1963   0.203   1.036   1.903 -0.2454 -0.1580 -0.7426
  655SOL    HW1 1964   0.247   0.984   1.828 -0.2043 -0.3156  0.2465
  655SOL    HW2 1965   0.254   1.122   1.937  1.8216  2.5892  1.8936
  656SOL     OW 1966   2.443   2.481   2.534 -0.0191 -0.0610  0.2239
  656SOL    HW1 1967   2.519   2.546   2.503 -0.2560  3.1036 -2.8404
  656SOL    HW2 1968   2.355   2.493   2.477  0.6795 -0.0268 -2.9889
  657SOL     OW 1969   3.042   1.085   1.804 -0.0410  0.3097 -0.5997
  657SOL    HW1 1970   3.028   1.179   1.837  1.8381 -1.3790  0.5275
  657SOL    HW2 1971   3.141   1.060   1.811  0.8397  0.2344 -1.3160
  658SOL     OW 1972   1.730   0.226   2.380 -0.1846 -0.2537 -0.0742
  658SOL    HW1 1973   1.726   0.139   2.429 -1.3215  2.5936 -4.1191
  658SOL    HW2 1974   1.764   0.218   2.278  0.0134 -2.3138 -3.2740
  659SOL     OW 1975   1.440   0.601   2.814  0.0326 -0.7047 -0.0133
  659SOL    HW1 1976   1.530   0.635   2.776 -1.0299 -0.1935  1.1417
  659SOL    HW2 1977   1.355   0.641   2.772  1.8556 -1.2036 -1.3626
  660SOL     OW 1978   1.394   0.385   1.405  0.5797  0.0816 -0.1575
  660SOL    HW1 1979   1.428   0.428   1.493  1.4278  1.2951  3.6790
  660SOL    HW2 1980   1.460   0.311   1.369  0.7626 -0.2840 -1.1053
  661SOL     OW 1981   2.438   1.130   0.605  0.0625  0.7822 -0.2670
  661SOL    HW1 1982   2.475   1.044   0.557 -0.4981  0.4633 -0.3968
  661SOL    HW2 1983   2.353   1.169   0.558  0.3651  0.7302  1.4525
  662SOL     OW 1984   1.341   0.451   1.899  0.4455 -0.4925  0.6187
  662SOL    HW1 1985   1.293   0.365   1.873  2.1164  1.7521  0.6807
  662SOL    HW2 1986   1.305   0.500   1.979  1.2539  1.1627 -4.8000
  663SOL     OW 1987   0.825   1.576   2.197  0.4477 -0.2849 -0.1787
  663SOL    HW1 1988   0.764   1.658   2.228 -2.3249  1.7114  2.6258
  663SOL    HW2 1989   0.786   1.537   2.113  1.4305 -0.8658 -0.5471
  664SOL     OW 1990   1.600   2.069   1.436  0.3657 -0.4945  0.2879
  664SOL    HW1 1991   1.534   2.007   1.485 -2.0125  0.3371  0.7685
  664SOL    HW2 1992   1.701   2.054   1.460 -2.5955 -0.1374  0.2309
  665SOL     OW 1993   2.176   0.636   1.990  0.1802 -0.0994 -0.6464
  665SOL    HW1 1994   2.213   0.611   2.081 -1.6141  0.2128 -1.0142
  665SOL    HW2 1995   2.075   0.644   1.985  0.1911 -0.4333  0.8307
  666SOL     OW 1996   0.553   2.269   0.406 -0.7918  0.3431 -0.6093
  666SOL    HW1 1997   0.595   2.353   0.449  0.6491  0.0994 -1.1349
  666SOL    HW2 1998   0.470   2.237   0.465  1.2209  3.3547  1.8593
  667SOL     OW 1999   2.101   0.245   1.048 -0.0641  1.0109  0.3842
  667SOL    HW1 2000   2.167   0.328   1.063 -0.4016  0.8562 -0.0022
  667SOL    HW2 2001   2.005   0.260   1.074  0.6383  1.0228  0.8434
  668SOL     OW 2002   2.059   0.549   1.253  0.6245 -0.1505 -0.1420
  668SOL    HW1 2003   2.126   0.549   1.171 -1.1670 -0.3637 -0.9155
  668SOL    HW2 2004   2.092   0.498   1.338  4.2629  0.3397  0.5905
  669SOL     OW 2005   3.097   2.263   0.961  0.5843 -0.8263 -0.2693
  669SOL    HW1 2006   3.010   2.246   0.907 -0.8007 -1.1956 -3.0720
  669SOL    HW2 2007   3.089   2.235   1.065  0.9271  0.2486  3.1712
  670SOL     OW 2008   2.828   2.405   1.999  0.1787  0.1311  0.1285
  670SOL    HW1 2009   2.778   2.375   2.087  0.5467 -1.0694 -0.0797
  670SOL    HW2 2010   2.784   2.486   1.952  0.7685 -0.6668 -1.2578
  671SOL     OW 2011   1.639   1.745   1.463  0.0686 -0.2467  0.7483
  671SOL    HW1 2012   1.650   1.744   1.360 -0.0195  1.1417  0.5631
  671SOL    HW2 2013   1.553   1.784   1.492 -1.5102 -2.7424 -1.2400
  672SOL     OW 2014   0.420   0.730   2.449  0.2692  0.6445 -0.1774
  672SOL    HW1 2015   0.417   0.746   2.347 -1.1654  1.6139 -1.7542
  672SOL    HW2 2016   0.342   0.780   2.502 -3.0125  1.4507  0.6769
  673SOL     OW 2017   0.132   1.204   1.138 -0.4517 -0.1249  0.2543
  673SOL    HW1 2018   0.141   1.275   1.216 -1.1333 -3.1880  0.5147
  673SOL    HW2 2019   0.221   1.150   1.122 -0.4280 -0.0618 -1.1365
  674SOL     OW 2020   1.604   2.951   0.110 -0.1282  0.2029  0.0112
  674SOL    HW1 2021   1.632   3.047   0.115  0.1115 -1.7656  1.4240
  674SOL    HW2 2022   1.670   2.893   0.052 -1.9154 -1.6500  0.0642
  675SOL     OW 2023   1.687   0.897   2.321 -0.9483  0.3911 -0.2608
  675SOL    HW1 2024   1.789   0.916   2.303 -1.1630  1.1903  0.2926
  675SOL    HW2 2025   1.660   0.799   2.299  2.2895  1.8353  0.3627
  676SOL     OW 2026   2.529   1.517   1.960  0.0284  0.3614 -0.2417
  676SOL    HW1 2027   2.518   1.515   1.855  0.3844 -1.1758  1.3380
  676SOL    HW2 2028   2.533   1.420   1.998  0.4444  0.0914  1.5160
  677SOL     OW 2029   1.923   0.525   0.945 -0.0386 -0.1320 -0.3443
  677SOL    HW1 2030   1.895   0.620   0.974 -3.5997 -1.1858 -0.5862
  677SOL    HW2 2031   1.896   0.454   1.020  2.6676  2.4828 -1.8291
  678SOL     OW 2032   0.086   0.741   1.722  0.1485  0.4669 -0.1456
  678SOL    HW1 2033   0.172   0.801   1.730 -0.0024  2.7840  1.0009
  678SOL    HW2 2034   0.003   0.772   1.782 -3.3530 -2.0809  0.0870
  679SOL     OW 2035   2.521   1.138   1.137  0.2181  0.8037 -0.2904
  679SOL    HW1 2036   2.423   1.153   1.123  1.1674 -1.6830  2.5254
  679SOL    HW2 2037   2.552   1.042   1.107  2.0327 -1.1653  3.6519
  680SOL     OW 2038   2.797   0.649   1.707 -0.5959  0.2744 -0.0489
  680SOL    HW1 2039   2.754   0.663   1.613  1.1224 -1.6187 -2.5040
  680SOL    HW2 2040   2.837   0.733   1.754 -1.2627 -0.8936  1.3794
  681SOL     OW 2041   3.091   0.183   1.672 -0.1494 -0.0140 -0.0560
  681SOL    HW1 2042   3.152   0.151   1.597  0.2974 -0.8931  0.1513
  681SOL    HW2 2043   3.042   0.274   1.648  0.5191  2.1859 -0.5522
  682SOL     OW 2044   0.746   3.073   1.399  0.4307  0.3840  0.4056
  682SOL    HW1 2045   0.679   3.018   1.467 -0.5647 -0.6346  1.0379
  682SOL    HW2 2046   0.740   3.031   1.300 -2.3516 -0.5882 -0.0374
  683SOL     OW 2047   1.383   0.218   2.218 -0.2531 -0.2940  0.0084
  683SOL    HW1 2048   1.428   0.260   2.306  0.8934 -1.5925 -2.3208
  683SOL    HW2 2049   1.428   0.259   2.134  1.9675 -5.0412  0.4409
  684SOL     OW 2050   1.465   2.126   0.481  0.0398  0.1634  0.2730
  684SOL    HW1 2051   1.527   2.061   0.533  0.4362  0.5251 -0.1177
  684SOL    HW2 2052   1.392   2.071   0.431  1.7805 -0.6886  0.1533
  685SOL     OW 2053   2.116   1.944   1.975 -0.7875 -0.7656  0.0441
  685SOL    HW1 2054   2.165   2.019   1.920 -1.7666  0.5145 -1.0916
  685SOL    HW2 2055   2.179   1.869   2.009  0.0358 -0.3806  0.7760
  686SOL     OW 2056   1.497   1.729   2.713 -0.0989 -0.0408 -0.6584
  686SOL    HW1 2057   1.587   1.736   2.670 -1.5866  2.0255 -2.6271
  686SOL    HW2 2058   1.508   1.716   2.814  0.8474 -1.2737 -0.0986
  687SOL     OW 2059   1.353   2.490   1.957 -0.1880 -0.0915  0.8909
  687SOL    HW1 2060   1.384   2.412   1.901 -2.8290  0.5140 -0.1091
  687SOL    HW2 2061   1.421   2.502   2.034 -1.2612  1.7991 -1.2799
  688SOL     OW 2062   2.028   1.513   1.566 -0.1547  0.1542  0.9533
  688SOL    HW1 2063   2.105   1.581   1.546 -0.6772  2.2974 -0.1190
  688SOL    HW2 2064   1.990   1.465   1.481 -0.1861  2.0637 -0.0560
  689SOL     OW 2065   2.445   1.072   2.787 -0.6510  0.1164 -0.2869
  689SOL    HW1 2066   2.360   1.020   2.795  2.1446 -1.3878 -0.1884
  689SOL    HW2 2067   2.522   1.035   2.843  0.8935  0.4734  1.5428
  690SOL     OW 2068   2.252   2.755   3.063  0.5967 -0.8246  0.2670
  690SOL    HW1 2069   2.176   2.765   2.996  4.4572  0.9984  1.8289
  690SOL    HW2 2070   2.233   2.824   3.140 -0.7986  0.5815  0.0857
  691SOL     OW 2071   2.607   0.483   2.184 -0.1359 -0.5857  0.1236
  691SOL    HW1 2072   2.669   0.439   2.112  1.0124  0.5598  0.7302
  691SOL    HW2 2073   2.569   0.578   2.152 -0.1228  0.8426 -0.4756
  692SOL     OW 2074   2.715   1.134   0.696  0.4029 -0.2771 -0.0699
  692SOL    HW1 2075   2.622   1.121   0.664  0.5126 -0.2572  2.1023
  692SOL    HW2 2076   2.737   1.235   0.692 -2.3185 -0.5884 -1.2284
  693SOL     OW 2077   2.833   2.932   0.611  0.4157 -0.2349 -0.1777
  693SOL    HW1 2078   2.850   3.014   0.678  0.9572 -1.8709  1.2708
  693SOL    HW2 2079   2.815   2.954   0.514  1.1625  0.9409 -1.1128
  694SOL     OW 2080   2.405   2.206   0.095 -0.1365  0.2282  0.7347
  694SOL    HW1 2081   2.374   2.291   0.155  1.2824 -1.0935 -0.5962
  694SOL    HW2 2082   2.332   2.148   0.052 -0.1574  0.8675 -1.6565
  695SOL     OW 2083   0.553   2.958   1.566 -0.0814  0.1530  0.6754
  695SOL    HW1 2084   0.506   2.874   1.527  2.2507 -1.2211  3.1232
  695SOL    HW2 2085   0.490   3.016   1.623 -1.6317  1.1055  2.1718
  696SOL     OW 2086   2.736   2.028   0.689 -0.1678  0.7651 -0.1127
  696SOL    HW1 2087   2.806   1.956   0.723  0.5999  1.7808 -3.6562
  696SOL    HW2 2088   2.697   1.992   0.600  0.8374 -0.8350 -0.1761
  697SOL     OW 2089   1.715   2.095   1.815  0.5274  0.2450  1.1603
  697SOL    HW1 2090   1.748   2.006   1.863  0.0401 -0.5920  2.7986
  697SOL    HW2 2091   1.787   2.165   1.799 -0.5452  0.1233 -0.5117
  698SOL     OW 2092   2.908   0.358   2.809  0.0960 -0.4267 -0.2797
  698SOL    HW1 2093   2.932   0.321   2.717  0.3774  1.7593 -1.3774
  698SOL    HW2 2094   2.978   0.323   2.876 -1.8773  0.2462 -1.8136
  699SOL     OW 2095   1.506   0.090   2.938  0.0237  0.2264 -0.1058
  699SOL    HW1 2096   1.463   0.012   2.884 -1.3491 -1.9188  1.2738
  699SOL    HW2 2097   1.575   0.149   2.889  1.0367 -1.0529  2.1604
  700SOL     OW 2098   0.947   2.459   1.359 -0.7216 -0.1645 -0.3826
  700SOL    HW1 2099   1.041   2.448   1.320  1.9169  0.1846  1.3049
  700SOL    HW2 2100   0.867   2.455   1.288 -1.3237  2.6905 -0.2768
  701SOL     OW 2101   1.832   2.857   3.065  0.1066 -0.2563  0.3961
  701SOL    HW1 2102   1.886   2.794   3.128  0.7688 -2.5885 -0.5728
  701SOL    HW2 2103   1.863   2.956   3.075  1.4668 -0.4577  0.4073
  702SOL     OW 2104   2.109   1.373   1.807 -0.3148  0.2201 -0.5250
  702SOL    HW1 2105   2.177   1.305   1.781 -2.2716  0.5333  0.6048
  702SOL    HW2 2106   2.075   1.422   1.721  1.0633 -2.9164  0.3342
  703SOL     OW 2107   1.997   0.878   1.454 -0.2526 -0.0202  0.0318
  703SOL    HW1 2108   1.959   0.813   1.523 -1.3540 -1.4639 -2.4883
  703SOL    HW2 2109   2.013   0.978   1.488  0.1648 -0.7538 -0.8307
  704SOL     OW 2110   0.342   2.035   1.727 -0.3551 -0.1371 -0.2417
  704SOL    HW1 2111   0.392   1.992   1.809  2.0301 -1.2593  2.9273
  704SOL    HW2 2112   0.389   2.126   1.703  0.1260 -0.3043  0.7118
  705SOL     OW 2113   2.511   1.476   0.882  0.3849  0.8350 -0.1661
  705SOL    HW1 2114   2.420   1.425   0.898 -0.5972  0.7890  2.2952
  705SOL    HW2 2115   2.601   1.419   0.892  2.6706  2.2953  0.9758
  706SOL     OW 2116   0.639   1.746   1.861 -0.1280  0.5027 -0.1984
  706SOL    HW1 2117   0.678   1.654   1.894 -1.2626  0.8318  1.1608
  706SOL    HW2 2118   0.705   1.823   1.883  1.2968  1.1685  0.0156
  707SOL     OW 2119   2.304   1.178   1.768 -1.0632 -0.3485  0.7274
  707SOL    HW1 2120   2.386   1.176   1.828  1.2039 -0.2434 -1.2272
  707SOL    HW2 2121   2.255   1.085   1.765 -3.4200 -1.0597  1.3335
  708SOL     OW 2122   3.020   0.547   3.035  0.1577  0.3152 -0.0445
  708SOL    HW1 2123   3.045   0.604   2.946  1.0382 -2.0682 -2.4404
  708SOL    HW2 2124   3.038   0.445   3.018  1.1132  2.3023 -2.8348
  709SOL     OW 2125   1.740   1.884   0.213 -0.3070  0.0831  0.6312
  709SOL    HW1 2126   1.815   1.942   0.263  4.6055  0.6136  0.0643
  709SOL    HW2 2127   1.740   1.903   0.110 -0.4260  2.5509  1.5401
  710SOL     OW 2128   1.729   1.631   2.465 -0.1964 -0.2240 -0.6001
  710SOL    HW1 2129   1.756   1.589   2.378 -2.5981  1.3837  1.7385
  710SOL    HW2 2130   1.774   1.598   2.552 -2.1638 -2.2032 -1.9233
  711SOL     OW 2131   2.677   2.892   0.942  0.9169  0.7524  0.0761
  711SOL    HW1 2132   2.624   2.978   0.923 -1.0131 -0.3678  0.7187
  711SOL    HW2 2133   2.776   2.907   0.955 -0.0240  0.6281 -1.3668
  712SOL     OW 2134   1.479   2.283   1.840  0.1203 -0.2637  0.3905
  712SOL    HW1 2135   1.567   2.234   1.867 -0.6697 -0.1899  0.9137
  712SOL    HW2 2136   1.412   2.227   1.788  0.3321  0.8099 -2.8330
  713SOL     OW 2137   2.879   1.281   2.448 -0.1126  0.3775 -0.5036
  713SOL    HW1 2138   2.915   1.223   2.372  2.5729  1.8572 -2.8946
  713SOL    HW2 2139   2.861   1.227   2.531  1.3070 -1.4750 -2.4150
  714SOL     OW 2140   2.668   0.429   2.446 -0.1487 -0.8357  0.0632
  714SOL    HW1 2141   2.597   0.400   2.516  0.3482  1.0360  0.5599
  714SOL    HW2 2142   2.628   0.448   2.350  0.1906  0.7691  0.0424
  715SOL     OW 2143   1.601   2.082   1.155 -0.4027 -0.4297  0.0231
  715SOL    HW1 2144   1.552   2.171   1.129 -0.5453  0.9460  1.3433
  715SOL    HW2 2145   1.579   2.066   1.256 -2.5288  0.6333  1.9616
  716SOL     OW 2146   1.176   0.180   1.448  0.1342  0.8963 -0.1076
  716SOL    HW1 2147   1.077   0.180   1.478  1.0360 -0.6239 -1.2671
  716SOL    HW2 2148   1.227   0.270   1.464  0.8544 -1.1024 -2.8757
  717SOL     OW 2149   1.097   0.536   1.601  0.1962  0.0660  0.2448
  717SOL    HW1 2150   1.196   0.571   1.616  0.3303 -1.1711  0.4590
  717SOL    HW2 2151   1.083   0.519   1.500  1.1633  0.2891 -0.9490
  718SOL     OW 2152   0.607   1.184   1.023  0.1073  0.0788  0.2195
  718SOL    HW1 2153   0.650   1.196   0.927 -1.8632  0.5116 -1.0419
  718SOL    HW2 2154   0.671   1.220   1.097  0.0026  1.7368 -1.1220
  719SOL     OW 2155   0.709   1.811   2.254 -0.2325  0.2690  0.3828
  719SOL    HW1 2156   0.767   1.851   2.333 -1.0124  3.8121  2.3530
  719SOL    HW2 2157   0.614   1.844   2.253  2.4870 -0.8063 -0.6860
  720SOL     OW 2158   2.293   1.173   0.277 -0.2896  0.7368  0.4791
  720SOL    HW1 2159   2.398   1.151   0.282  0.0326  0.1740 -1.5052
  720SOL    HW2 2160   2.259   1.179   0.377  1.3499 -1.2689  0.3161
  721SOL     OW 2161   2.302   3.093   2.053  0.1820  0.3062 -0.0168
  721SOL    HW1 2162   2.317   3.172   1.987  1.3990  1.8389  2.3359
  721SOL    HW2 2163   2.201   3.067   2.073  1.0644  1.8183 -0.0760
  722SOL     OW 2164   2.439   1.712   0.497 -0.2435 -0.0461 -0.4795
  722SOL    HW1 2165   2.439   1.662   0.410  0.1179 -0.1950 -0.7616
  722SOL    HW2 2166   2.349   1.711   0.548  0.6169 -0.2699  0.8254
  723SOL     OW 2167   2.586   2.842   1.874 -0.3284 -0.2372 -0.1589
  723SOL    HW1 2168   2.637   2.895   1.945  0.1259 -0.0912 -1.7938
  723SOL    HW2 2169   2.481   2.837   1.890 -2.0075 -1.6726 -0.4461
  724SOL     OW 2170   0.305   2.386   2.326  0.0835  0.0357 -0.6324
  724SOL    HW1 2171   0.232   2.461   2.323  2.4717 -2.1993 -1.1597
  724SOL    HW2 2172   0.364   2.390   2.410 -1.4907  0.5442 -1.0306
  725SOL     OW 2173   2.360   2.794   1.500 -0.0239  0.0578  0.5406
  725SOL    HW1 2174   2.410   2.814   1.417 -0.6928  2.7854  1.9287
  725SOL    HW2 2175   2.356   2.699   1.536  1.6474 -2.6793  1.8548
  726SOL     OW 2176   2.379   2.267   0.696 -0.3231 -0.1216 -0.0711
  726SOL    HW1 2177   2.390   2.371   0.686 -1.3889 -1.4518 -0.2089
  726SOL    HW2 2178   2.307   2.224   0.628 -0.9519 -2.9281  0.2019
  727SOL     OW 2179   0.241   3.096   0.117  0.2902 -0.1256 -0.0281
  727SOL    HW1 2180   0.221   3.022   0.046 -3.5637  2.4831 -2.2619
  727SOL    HW2 2181   0.278   3.185   0.075  0.0363 -0.3309 -0.9665
  728SOL     OW 2182   2.799   0.673   1.034 -0.0524  0.0069 -0.3117
  728SOL    HW1 2183   2.744   0.632   0.955  1.5389  2.0654  0.1879
  728SOL    HW2 2184   2.788   0.609   1.117  0.7820  0.2203  0.8819
  729SOL     OW 2185   3.005   2.481   0.745  0.7068  0.6368  0.6481
  729SOL    HW1 2186   2.961   2.390   0.767  0.6119  1.6811 -1.7939
  729SOL    HW2 2187   3.100   2.476   0.712  1.3456  0.9965  1.3307
  730SOL     OW 2188   2.628   0.582   0.857  0.0372 -0.1017 -0.4078
  730SOL    HW1 2189   2.575   0.665   0.825  1.6645 -0.8867  1.2285
  730SOL    HW2 2190   2.679   0.525   0.784 -0.6309 -1.2496 -1.6888
  731SOL     OW 2191   0.205   2.158   2.502 -0.1055  0.0809  0.8363
  731SOL    HW1 2192   0.157   2.189   2.585  1.7999 -0.6723 -3.5564
  731SOL    HW2 2193   0.198   2.231   2.426  0.0467  0.1364 -1.4318
  732SOL     OW 2194   1.124   2.806   2.021  0.2744 -0.9094  0.1997
  732SOL    HW1 2195   1.145   2.741   2.102  0.2416 -1.5873 -0.0420
  732SOL    HW2 2196   1.193   2.783   1.944  1.2421 -0.5359  0.9667
  733SOL     OW 2197   3.037   0.713   2.126  0.3547  0.0339  0.4087
  733SOL    HW1 2198   3.126   0.766   2.134  1.4361 -0.4415  1.1750
  733SOL    HW2 2199   3.056   0.619   2.082  0.9681 -1.0451 -2.0135
  734SOL     OW 2200   1.386   0.349   2.698  0.0582 -0.1368  0.2917
  734SOL    HW1 2201   1.400   0.427   2.769  2.6324 -0.3453  0.5756
  734SOL    HW2 2202   1.301   0.303   2.714  1.5521 -1.5941 -0.0313
  735SOL     OW 2203   2.819   2.678   2.302  0.0774  0.3103 -0.0295
  735SOL    HW1 2204   2.738   2.697   2.244 -0.5137 -1.1531 -0.7966
  735SOL    HW2 2205   2.904   2.647   2.252 -0.4850 -2.1095 -0.1082
  736SOL     OW 2206   0.775   0.346   2.567 -0.5353 -0.1211  0.0185
  736SOL    HW1 2207   0.727   0.442   2.566 -0.6315  1.0372 -0.0729
  736SOL    HW2 2208   0.818   0.314   2.478 -0.4881  0.5032  0.3821
  737SOL     OW 2209   2.651   0.408   2.885  0.0113 -0.2142 -0.7481
  737SOL    HW1 2210   2.636   0.463   2.974  0.4277  2.1299  0.7375
  737SOL    HW2 2211   2.752   0.380   2.870  2.3738 -0.1579 -0.5961
  738SOL     OW 2212   1.662   1.101   0.027 -0.3864  0.0144 -0.1772
  738SOL    HW1 2213   1.760   1.089   0.008 -1.7575 -1.3970 -0.3699
  738SOL    HW2 2214   1.618   1.011   0.022 -0.7395  0.2719 -2.6314
  739SOL     OW 2215   1.815   0.568   0.689 -0.4366  0.2027  0.0085
  739SOL    HW1 2216   1.851   0.554   0.789  3.5312 -1.1788 -2.0434
  739SOL    HW2 2217   1.876   0.516   0.627 -1.2853  2.2498  0.2209
  740SOL     OW 2218   1.948   2.067   2.160  0.7049  0.0909 -0.1465
  740SOL    HW1 2219   1.996   2.008   2.090 -0.2219  2.2560  0.8049
  740SOL    HW2 2220   1.850   2.036   2.181  1.1576 -1.7719  0.2621
  741SOL     OW 2221   2.562   0.022   2.561 -0.0500  0.2776  0.4360
  741SOL    HW1 2222   2.666   0.004   2.565 -1.0193 -0.7943 -2.3686
  741SOL    HW2 2223   2.532   0.062   2.474  0.3453  0.5608  1.4854
  742SOL     OW 2224   2.253   1.394   0.125  0.0853 -0.0539  0.2245
  742SOL    HW1 2225   2.165   1.451   0.137 -1.2810 -1.4532  3.0602
  742SOL    HW2 2226   2.256   1.305   0.180 -1.4740 -1.2249  2.9960
  743SOL     OW 2227   1.725   0.643   2.649 -0.0452 -0.2483  0.3530
  743SOL    HW1 2228   1.773   0.587   2.572  0.5305  0.3783 -2.8854
  743SOL    HW2 2229   1.660   0.708   2.609  3.0988  0.7613 -0.0450
  744SOL     OW 2230   2.663   2.148   0.168 -0.7432  0.5706 -0.2422
  744SOL    HW1 2231   2.570   2.178   0.146 -2.6772  0.0053 -0.3404
  744SOL    HW2 2232   2.669   2.047   0.158  0.3515  1.2141 -0.7299
  745SOL     OW 2233   2.185   2.768   2.198 -0.2456  0.4787  0.0819
  745SOL    HW1 2234   2.089   2.747   2.187 -0.5461  0.5924  0.4096
  745SOL    HW2 2235   2.207   2.862   2.238  0.5259 -0.2057 -1.5734
  746SOL     OW 2236   0.001   2.636   1.822 -0.2676  0.1483  1.0108
  746SOL    HW1 2237   0.099   2.632   1.781  1.9304 -0.8264 -0.9076
  746SOL    HW2 2238  -0.031   2.740   1.825 -1.7192  1.7400 -2.0031
  747SOL     OW 2239   3.085   1.786   1.660  0.0929  0.6064 -0.3225
  747SOL    HW1 2240   3.046   1.708   1.601  2.7934 -1.2194 -1.9045
  747SOL    HW2 2241   3.134   1.854   1.599  2.2027 -1.0221  1.9582
  748SOL     OW 2242   1.773   2.753   2.825 -0.5181 -0.0501  0.0882
  748SOL    HW1 2243   1.814   2.783   2.917 -0.3029 -0.3935  0.3437
  748SOL    HW2 2244   1.671   2.782   2.823 -3.6706  0.4631 -2.5632
  749SOL     OW 2245   1.341   0.070   0.817 -0.0001 -0.0811 -0.4270
  749SOL    HW1 2246   1.262   0.004   0.841 -0.8212 -0.1641 -0.0519
  749SOL    HW2 2247   1.346   0.097   0.720  1.4873  2.3350 -0.5156
  750SOL     OW 2248   2.328   0.226   1.939  0.4816  0.2345  0.3327
  750SOL    HW1 2249   2.384   0.259   1.859 -0.2182 -2.6464  1.5506
  750SOL    HW2 2250   2.331   0.289   2.025  0.9371  1.4965  2.0087
  751SOL     OW 2251   0.872   2.230   2.912  0.1308  0.0411  0.2168
  751SOL    HW1 2252   0.970   2.222   2.953 -0.2039  0.4523 -2.5169
  751SOL    HW2 2253   0.821   2.139   2.911  0.0619 -0.3814 -0.8069
  752SOL     OW 2254   1.245   0.836   1.473 -0.7458 -0.0764  0.1170
  752SOL    HW1 2255   1.278   0.935   1.464 -1.4867  0.9127 -0.7689
  752SOL    HW2 2256   1.317   0.769   1.504  1.2067  0.7514 -0.5541
  753SOL     OW 2257   0.912   2.563   1.766 -0.0538 -0.2456  0.1115
  753SOL    HW1 2258   0.972   2.632   1.716  1.6807  0.4132  1.8391
  753SOL    HW2 2259   0.832   2.605   1.817  0.9332  0.6308 -0.5171
  754SOL     OW 2260   1.152   1.343   3.053  0.6258 -0.0576 -0.1040
  754SOL    HW1 2261   1.212   1.261   3.041  2.5095  0.1889 -1.2934
  754SOL    HW2 2262   1.164   1.409   2.972  0.5131  1.5336  4.8153
  755SOL     OW 2263   2.042   0.553   2.321  0.1106  0.2499 -0.0601
  755SOL    HW1 2264   2.099   0.473   2.353 -2.5461 -0.1010  0.9944
  755SOL    HW2 2265   1.949   0.553   2.364  0.6346  2.4128 -1.2663
  756SOL     OW 2266   2.649   0.918   2.926  0.5754 -0.6626  0.1888
  756SOL    HW1 2267   2.726   0.849   2.903  1.0095 -1.5167  0.7956
  756SOL    HW2 2268   2.598   0.884   3.013 -0.4554 -2.6855 -0.9117
  757SOL     OW 2269   0.146   0.470   1.753  0.4697  0.4663 -0.0378
  757SOL    HW1 2270   0.120   0.565   1.758 -0.3113 -0.8065 -1.1810
  757SOL    HW2 2271   0.235   0.452   1.700 -1.9639  1.2811 -0.0144
  758SOL     OW 2272   2.474   0.024   1.487 -0.5182 -0.6468 -0.8034
  758SOL    HW1 2273   2.382   0.038   1.534 -0.5358 -2.7463 -0.2670
  758SOL    HW2 2274   2.464  -0.015   1.394  0.9148 -1.7755  0.1091
  759SOL     OW 2275   1.675   0.130   0.089 -0.4627 -0.5271 -0.4363
  759SOL    HW1 2276   1.610   0.136   0.009 -0.3553 -0.5125 -0.1629
  759SOL    HW2 2277   1.771   0.108   0.059 -0.3594 -2.6474  2.6055
  760SOL     OW 2278   2.737   1.984   2.755 -0.1689 -0.3086 -0.0786
  760SOL    HW1 2279   2.741   1.886   2.719 -0.0994  0.8807  0.0051
  760SOL    HW2 2280   2.822   2.039   2.721 -1.4056  3.0053 -2.2155
  761SOL     OW 2281   1.837   1.684   1.669 -0.1621 -0.0306  0.1398
  761SOL    HW1 2282   1.892   1.596   1.638  0.1865  0.4483  0.6530
  761SOL    HW2 2283   1.760   1.711   1.605  2.4604  1.6548  0.7056
  762SOL     OW 2284   0.496   2.396   1.018 -0.1891 -0.1802 -0.4729
  762SOL    HW1 2285   0.534   2.398   0.925  3.4393  0.7492  0.0022
  762SOL    HW2 2286   0.444   2.485   1.036 -0.2011 -2.0493  0.3332
  763SOL     OW 2287   2.005   1.543   2.975  0.1410 -0.5317  0.0527
  763SOL    HW1 2288   2.043   1.516   2.881  0.1826 -2.4697  2.3196
  763SOL    HW2 2289   1.939   1.472   3.008  2.8432  0.6814  0.4128
  764SOL     OW 2290   0.694   0.586   0.816 -0.2888 -0.3123 -0.2317
  764SOL    HW1 2291   0.678   0.519   0.737  1.3451 -0.4972 -2.9837
  764SOL    HW2 2292   0.782   0.555   0.862 -0.2572 -2.7887 -0.8655
  765SOL     OW 2293   0.620   0.167   0.793  0.0496 -0.8588 -0.2516
  765SOL    HW1 2294   0.716   0.179   0.752 -0.3966 -2.7586  2.3682
  765SOL    HW2 2295   0.620   0.196   0.892  0.8423  1.3051 -0.1324
  766SOL     OW 2296   2.897   2.019   2.996 -0.5619  0.2618  0.9705
  766SOL    HW1 2297   2.820   2.042   2.928 -0.0256  2.8688  0.0623
  766SOL    HW2 2298   2.921   2.098   3.054 -0.9996 -1.3213 -0.6954
  767SOL     OW 2299   2.777   1.525   0.511  0.4884 -0.5002  0.4230
  767SOL    HW1 2300   2.756   1.552   0.609  0.2686 -1.1663 -1.7716
  767SOL    HW2 2301   2.805   1.611   0.456 -0.9381  0.7437 -0.5893
  768SOL     OW 2302   1.074   0.335   0.297  0.9043  1.0624  0.3054
  768SOL    HW1 2303   0.995   0.278   0.258  2.7489 -0.4924 -1.3278
  768SOL    HW2 2304   1.171   0.294   0.285  3.3240 -1.1307  1.6102
  769SOL     OW 2305   1.322   1.768   2.185 -0.6520 -0.1025  0.1129
  769SOL    HW1 2306   1.392   1.696   2.218  2.6637 -0.4281  0.7050
  769SOL    HW2 2307   1.225   1.736   2.199  2.4919 -0.1632  2.4638
  770SOL     OW 2308   0.187   1.191   2.280  0.0295  0.4484  0.4617
  770SOL    HW1 2309   0.160   1.209   2.378  0.5248 -0.4910  0.3834
  770SOL    HW2 2310   0.116   1.222   2.211 -3.2332 -0.7419 -2.0361
  771SOL     OW 2311   2.951   2.868   1.889 -0.4832  0.2096  0.4776
  771SOL    HW1 2312   2.950   2.932   1.805  1.2804 -2.4150  0.6755
  771SOL    HW2 2313   2.921   2.914   1.973  0.4330 -0.0090  0.6008
  772SOL     OW 2314   2.170   0.019   3.011  0.6219 -0.0737 -0.0773
  772SOL    HW1 2315   2.248  -0.001   3.077 -3.0371  0.4753 -3.3654
  772SOL    HW2 2316   2.183   0.099   2.951  1.0580 -2.7251  0.5868
  773SOL     OW 2317   0.699   2.166   2.475  0.1060  0.4806  0.8484
  773SOL    HW1 2318   0.659   2.205   2.382 -0.4677  2.8476  2.2561
  773SOL    HW2 2319   0.625   2.153   2.550 -0.8820  0.8931 -1.9568
  774SOL     OW 2320   2.020   0.036   2.637  0.6176  0.2918 -0.2063
  774SOL    HW1 2321   2.048   0.137   2.656 -0.6357  3.4738  2.9177
  774SOL    HW2 2322   2.056  -0.038   2.702  0.0406  1.4771 -1.7130
  775SOL     OW 2323   2.474   2.876   2.348  0.0640 -0.6786  0.6671
  775SOL    HW1 2324   2.428   2.966   2.332  0.1461  0.9704 -0.0117
  775SOL    HW2 2325   2.554   2.894   2.410 -0.6093 -1.5111  3.9098
  776SOL     OW 2326   0.012   1.235   0.308  0.1037  0.2434  0.9749
  776SOL    HW1 2327  -0.059   1.316   0.304  0.7067  3.5639  1.3713
  776SOL    HW2 2328   0.002   1.183   0.398 -0.0349 -0.6109 -0.7955
  777SOL     OW 2329   0.343   2.778   0.349 -0.2361  0.5170 -0.3175
  777SOL    HW1 2330   0.247   2.749   0.383 -2.3087 -0.0813  1.4156
  777SOL    HW2 2331   0.380   2.853   0.417 -0.1162  2.1570  3.0297
  778SOL     OW 2332   1.292   1.989   0.112  0.3454 -0.1559 -0.6935
  778SOL    HW1 2333   1.236   2.006   0.192  0.8289 -4.1344 -2.0162
  778SOL    HW2 2334   1.353   2.072   0.090  0.4136  0.7349  1.4967
  779SOL     OW 2335   0.186   0.775   0.517  0.0423 -0.3429  0.1687
  779SOL    HW1 2336   0.101   0.733   0.476  0.5461  2.0850 -3.6083
  779SOL    HW2 2337   0.167   0.827   0.607 -0.9338 -2.5086  0.9549
  780SOL     OW 2338   0.058   0.315   2.403  0.2404  0.3324  0.4240
  780SOL    HW1 2339   0.031   0.414   2.431 -1.7762 -0.3386  1.1973
  780SOL    HW2 2340   0.152   0.307   2.346  1.8311  1.2462  1.2129
  781SOL     OW 2341   0.519   1.774   1.633  0.0534 -0.2942  0.0176
  781SOL    HW1 2342   0.567   1.754   1.723 -1.5254 -4.5278  0.2211
  781SOL    HW2 2343   0.470   1.690   1.589  0.7459 -0.4618 -1.2653
  782SOL     OW 2344   2.622   0.066   0.936 -0.1534 -0.2549  0.3557
  782SOL    HW1 2345   2.572   0.105   0.860  1.4418 -1.9510 -1.1072
  782SOL    HW2 2346   2.614   0.112   1.025 -2.9271 -2.6365 -2.3165
  783SOL     OW 2347   2.835   0.623   2.530  0.2928  0.4211 -0.1045
  783SOL    HW1 2348   2.782   0.643   2.622  0.5918  2.4004  1.6798
  783SOL    HW2 2349   2.773   0.579   2.463  0.6615  0.9658  0.2097
  784SOL     OW 2350   1.432   2.219   0.065 -0.2149  0.0726 -0.4033
  784SOL    HW1 2351   1.504   2.266   0.122 -0.5080 -0.8760 -1.2803
  784SOL    HW2 2352   1.459   2.200  -0.036 -0.3433 -0.1094 -2.8294
  785SOL     OW 2353   2.172   0.328   3.063 -0.4630  0.2497 -0.1114
  785SOL    HW1 2354   2.101   0.284   3.123  1.4631 -0.0318 -0.2130
  785SOL    HW2 2355   2.164   0.429   3.072  2.1226 -0.3689 -0.6687
  786SOL     OW 2356   2.098   2.251   2.265 -1.0945 -0.4510  0.7403
  786SOL    HW1 2357   2.051   2.171   2.219  2.5389 -1.0678  1.7422
  786SOL    HW2 2358   2.181   2.215   2.319  0.9973 -1.0037 -0.9753
  787SOL     OW 2359   1.348   0.533   0.755 -0.2472 -0.5749  0.0132
  787SOL    HW1 2360   1.293   0.607   0.708  0.2523  2.2546 -3.1485
  787SOL    HW2 2361   1.429   0.492   0.706 -1.6176  1.4579  0.5628
  788SOL     OW 2362   1.175   0.480   2.955 -0.7870  0.1680  0.0214
  788SOL    HW1 2363   1.071   0.483   2.941  0.1880  0.7610  1.3931
  788SOL    HW2 2364   1.228   0.564   2.917  0.6729  0.2532 -1.9442
  789SOL     OW 2365   2.604   0.145   1.947 -0.5673  0.6901 -0.0037
  789SOL    HW1 2366   2.517   0.183   1.979  1.2977 -0.6910 -1.3890
  789SOL    HW2 2367   2.635   0.054   1.995 -0.3742 -3.4473  0.8499
  790SOL     OW 2368   2.616   2.616   0.852  0.2615 -0.2353  0.0075
  790SOL    HW1 2369   2.676   2.635   0.770 -1.9408 -0.3760  2.4049
  790SOL    HW2 2370   2.634   2.690   0.919  0.1692  0.9912 -0.3472
  791SOL     OW 2371   1.899   1.207   0.207  0.0046  0.1275  0.6366
  791SOL    HW1 2372   1.814   1.169   0.256  0.5696  2.7028  1.1500
  791SOL    HW2 2373   1.957   1.136   0.166 -1.5784  0.1060 -0.0298
  792SOL     OW 2374   0.433   1.959   2.283 -0.3159 -0.0648 -0.2466
  792SOL    HW1 2375   0.438   2.056   2.253 -2.0284  0.2833  0.8339
  792SOL    HW2 2376   0.337   1.928   2.313 -0.9115  0.1720  1.1875
  793SOL     OW 2377   2.071   1.564   2.001 -0.0704 -0.1251 -0.0511
  793SOL    HW1 2378   2.155   1.618   2.027 -0.1998  0.4206  1.8226
  793SOL    HW2 2379   2.090   1.497   1.926  0.2229 -2.3028 -1.7712
  794SOL     OW 2380   0.567   1.532   2.487  0.0491 -0.1755  0.0467
  794SOL    HW1 2381   0.611   1.446   2.451  1.6705  1.4557  3.0352
  794SOL    HW2 2382   0.484   1.572   2.439  1.8101 -0.0280 -0.5887
  795SOL     OW 2383   2.390   2.327   1.859  0.4228 -0.3173  0.2550
  795SOL    HW1 2384   2.390   2.373   1.953  0.5961  0.5658  2.5854
  795SOL    HW2 2385   2.329   2.249   1.842 -0.8596  2.6294  1.2866
  796SOL     OW 2386   3.021   1.136   2.727  0.2100 -0.1047 -0.3176
  796SOL    HW1 2387   2.921   1.141   2.748 -0.0281  0.1718  1.0681
  796SOL    HW2 2388   3.083   1.140   2.812  1.5762  1.8982 -0.0750
  797SOL     OW 2389   0.753   0.637   1.289  0.5916 -0.4365 -0.3036
  797SOL    HW1 2390   0.808   0.681   1.369  4.3045 -2.3353  2.8070
  797SOL    HW2 2391   0.732   0.708   1.221  1.8429  1.4476 -3.0758
  798SOL     OW 2392   1.178   0.483   0.973 -0.2735  0.0487  0.1984
  798SOL    HW1 2393   1.204   0.556   1.043 -0.7695 -0.9570  0.5426
  798SOL    HW2 2394   1.231   0.503   0.888  0.3166 -1.5652 -0.3799
  799SOL     OW 2395   1.836   2.705   1.128  0.5207 -0.1370  0.5629
  799SOL    HW1 2396   1.822   2.606   1.140  1.9271 -2.5288  0.6414
  799SOL    HW2 2397   1.786   2.739   1.046 -1.6597  1.9802  0.8105
  800SOL     OW 2398   2.955   0.834   1.874  0.2626  0.2511 -0.3047
  800SOL    HW1 2399   2.972   0.938   1.890 -0.1549  0.7260 -0.8138
  800SOL    HW2 2400   2.955   0.783   1.967 -1.0308 -1.4642  0.7905
  801SOL     OW 2401   1.991   2.312   0.044 -0.2842  0.3062 -0.5782
  801SOL    HW1 2402   1.920   2.332  -0.025  0.9335 -0.7660  1.4044
  801SOL    HW2 2403   2.062   2.242   0.014  0.5342 -0.4189 -3.0567
  802SOL     OW 2404   0.680   0.648   2.482 -0.1449  0.1266  0.4183
  802SOL    HW1 2405   0.744   0.673   2.405 -1.9118  2.4255 -0.8860
  802SOL    HW2 2406   0.583   0.671   2.458  1.0446  2.6829 -0.2375
  803SOL     OW 2407   0.940   0.086   0.903 -0.5834 -0.4547 -0.3164
  803SOL    HW1 2408   1.011   0.155   0.930 -0.9468 -0.8515  0.4373
  803SOL    HW2 2409   0.893   0.133   0.824  0.8837  1.9866  0.9189
  804SOL     OW 2410   0.330   0.023   2.150  0.2465  0.1142  0.3740
  804SOL    HW1 2411   0.289   0.110   2.194 -0.1977  1.5818  0.9555
  804SOL    HW2 2412   0.255  -0.022   2.091  0.3596 -1.8814  0.0154
  805SOL     OW 2413   2.414   0.297   0.330 -0.0887  0.5246  0.0999
  805SOL    HW1 2414   2.510   0.266   0.367  4.1220 -1.3294 -2.0577
  805SOL    HW2 2415   2.406   0.287   0.225  2.1578  1.6970  0.0965
  806SOL     OW 2416   0.706   2.634   1.969  0.1844 -0.1283 -0.3753
  806SOL    HW1 2417   0.661   2.679   2.048  2.1690  0.0383 -0.2065
  806SOL    HW2 2418   0.707   2.700   1.883  2.7784  1.6175 -0.8365
  807SOL     OW 2419   2.578   0.921   0.504 -0.1835 -0.9562 -1.0029
  807SOL    HW1 2420   2.673   0.885   0.528  3.8205  0.5368  0.0774
  807SOL    HW2 2421   2.568   0.928   0.402 -1.3726 -1.3198 -0.7941
  808SOL     OW 2422   0.658   2.037   2.896  0.3763 -0.2741 -0.2866
  808SOL    HW1 2423   0.577   2.068   2.952 -1.7620 -0.4833 -3.4613
  808SOL    HW2 2424   0.659   1.934   2.894 -0.4091  0.1555  1.4246
  809SOL     OW 2425   2.595   2.023   1.915  0.1683  0.0679 -0.1137
  809SOL    HW1 2426   2.687   2.068   1.933  1.3134  1.0505  4.6159
  809SOL    HW2 2427   2.567   2.032   1.815  0.9707 -2.1608 -0.9980
  810SOL     OW 2428   2.198   1.255   0.533 -0.0078  0.1640  0.0456
  810SOL    HW1 2429   2.119   1.214   0.481  1.0863 -0.5359  1.1501
  810SOL    HW2 2430   2.163   1.341   0.584  2.4562 -1.7585  3.6524
  811SOL     OW 2431   1.204   2.514   1.190 -0.5030  0.4355  0.0993
  811SOL    HW1 2432   1.228   2.421   1.239  0.3825  2.4476 -1.8688
  811SOL    HW2 2433   1.225   2.595   1.253 -1.3459  1.9642 -1.8391
  812SOL     OW 2434   1.418   0.761   1.960 -0.3029  0.3942 -0.9953
  812SOL    HW1 2435   1.340   0.787   2.021  0.9367 -2.7126  2.3171
  812SOL    HW2 2436   1.473   0.843   1.922  0.4306 -0.9600  0.7278
  813SOL     OW 2437   1.649   2.102   2.432  0.1478  0.4617 -0.1355
  813SOL    HW1 2438   1.743   2.085   2.466 -2.1486 -0.8932  1.7196
  813SOL    HW2 2439   1.624   2.064   2.339 -1.7984  1.7960  0.0108
  814SOL     OW 2440   3.003   1.746   2.846  0.1221  0.5270 -0.3434
  814SOL    HW1 2441   3.060   1.678   2.899 -1.2259  0.1450 -0.1571
  814SOL    HW2 2442   2.982   1.836   2.896 -2.1819  2.2264 -0.3725
  815SOL     OW 2443   2.125   2.916   2.768  0.2490 -0.1035 -0.4992
  815SOL    HW1 2444   2.091   2.832   2.819 -1.6599  0.0338 -0.7631
  815SOL    HW2 2445   2.217   2.948   2.800  1.4186  0.3667  2.8970
  816SOL     OW 2446   1.574   0.427   1.677  0.7053 -1.1719 -0.2001
  816SOL    HW1 2447   1.626   0.336   1.678 -1.7654 -1.1706  1.1296
  816SOL    HW2 2448   1.514   0.442   1.759 -1.1943  2.8963 -0.6844
  817SOL     OW 2449   0.397   1.203   2.546 -0.1974 -0.2379  0.6275
  817SOL    HW1 2450   0.302   1.246   2.560 -1.1745  0.6941 -2.3888
  817SOL    HW2 2451   0.436   1.201   2.453  1.8780 -0.3565  2.8644
  818SOL     OW 2452   2.009   0.791   0.475 -0.2202  0.4205 -0.0456
  818SOL    HW1 2453   2.112   0.786   0.485 -0.1027  0.7733 -1.0560
  818SOL    HW2 2454   1.966   0.819   0.561 -0.0138 -1.0505 -0.4801
  819SOL     OW 2455   2.830   2.905   3.035  0.4829  0.3926  0.4043
  819SOL    HW1 2456   2.897   2.829   3.051 -2.7016  3.2863 -0.8075
  819SOL    HW2 2457   2.735   2.876   3.003  1.4518 -2.6533  0.9755
  820SOL     OW 2458   1.199   1.012   0.548 -0.1851 -0.1255  0.2863
  820SOL    HW1 2459   1.203   1.109   0.558 -0.1241 -2.1386  1.0937
  820SOL    HW2 2460   1.169   0.967   0.631 -1.5263  1.4362 -0.9990
  821SOL     OW 2461   0.043   1.175   0.775  0.2087 -0.1523 -0.0401
  821SOL    HW1 2462  -0.010   1.190   0.863  0.1922  1.0240 -3.1915
  821SOL    HW2 2463   0.087   1.261   0.736 -1.1792 -0.6892  1.1636
  822SOL     OW 2464   2.556   1.760   2.421  0.4209  0.0782 -0.3110
  822SOL    HW1 2465   2.528   1.821   2.499 -0.2926 -0.6120  0.3623
  822SOL    HW2 2466   2.485   1.764   2.346 -1.4296 -0.6570 -2.0058
  823SOL     OW 2467   2.067   0.879   1.159  0.7047 -0.2220  0.2052
  823SOL    HW1 2468   2.028   0.837   1.247  0.9429  0.0966  0.3565
  823SOL    HW2 2469   2.019   0.849   1.078 -1.2740 -0.3608  0.4044
  824SOL     OW 2470   0.184   1.814   2.808 -0.8304 -0.5012  0.2254
  824SOL    HW1 2471   0.202   1.816   2.911  0.3686  0.6548  0.8972
  824SOL    HW2 2472   0.265   1.850   2.751 -0.4705  2.7168  1.3831
  825SOL     OW 2473   1.293   1.053   0.229  0.2268  0.8128  0.3111
  825SOL    HW1 2474   1.251   1.148   0.225  1.3227 -1.0474  1.6059
  825SOL    HW2 2475   1.269   1.008   0.318  2.0176 -2.1707  0.4926
  826SOL     OW 2476   1.954   0.667   1.660 -0.0986 -0.1359  0.7229
  826SOL    HW1 2477   2.020   0.608   1.709  0.7090  1.7364  1.4854
  826SOL    HW2 2478   1.872   0.617   1.626  1.5637  2.5295 -0.2326
  827SOL     OW 2479   0.706   1.206   0.489  0.2151 -0.2759 -0.1495
  827SOL    HW1 2480   0.797   1.166   0.481 -1.5440  1.0419 -0.3696
  827SOL    HW2 2481   0.631   1.141   0.463 -0.0734  0.3153  2.1946
  828SOL     OW 2482   2.657   0.177   1.654 -0.2174  0.5728  0.1643
  828SOL    HW1 2483   2.606   0.117   1.581 -2.9632  1.6980 -0.2255
  828SOL    HW2 2484   2.618   0.156   1.750  2.2120 -0.7360  0.8820
  829SOL     OW 2485   2.890   2.384   2.853  0.1127 -0.5066 -0.1318
  829SOL    HW1 2486   2.799   2.344   2.883  0.9901  1.0383  0.8929
  829SOL    HW2 2487   2.909   2.486   2.874  3.5828  1.4701 -1.0185
  830SOL     OW 2488   3.007   0.939   2.948  0.0014 -0.1263  0.6418
  830SOL    HW1 2489   3.084   1.005   2.976  2.1249  2.8622 -0.1916
  830SOL    HW2 2490   2.954   0.897   3.030 -2.8460 -0.4154  0.8355
  831SOL     OW 2491   0.006   0.599   0.416  0.4733  0.2092 -0.6557
  831SOL    HW1 2492  -0.023   0.547   0.501  0.8059 -2.6031 -1.8918
  831SOL    HW2 2493   0.052   0.539   0.343  0.9137  1.7669 -0.6920
  832SOL     OW 2494   1.756   0.742   0.006 -0.5749 -0.5301 -0.3155
  832SOL    HW1 2495   1.656   0.772  -0.020 -0.9422  0.7378  0.2206
  832SOL    HW2 2496   1.771   0.643  -0.002  2.0353  3.0573  1.4592
  833SOL     OW 2497   2.316   2.103   0.479 -0.2433  0.2545  0.1189
  833SOL    HW1 2498   2.219   2.058   0.487 -0.8239  0.7539 -2.2170
  833SOL    HW2 2499   2.396   2.041   0.459  1.3454  1.2010 -1.4989
  834SOL     OW 2500   0.057   0.038   0.578  1.1873  0.4242 -0.3763
  834SOL    HW1 2501   0.139  -0.022   0.544  0.4848  1.5399 -2.8981
  834SOL    HW2 2502   0.047   0.128   0.525 -0.4617  0.8354 -1.4631
  835SOL     OW 2503   2.551   1.778   1.148 -0.2340  0.6467  0.7683
  835SOL    HW1 2504   2.616   1.705   1.193  0.8498 -1.9505  3.3446
  835SOL    HW2 2505   2.585   1.817   1.057 -0.3686  0.4660  1.9614
  836SOL     OW 2506   1.552   0.817   2.545 -0.5428  0.1658 -0.6809
  836SOL    HW1 2507   1.450   0.803   2.550  0.7497 -0.8015  0.5276
  836SOL    HW2 2508   1.597   0.840   2.450  2.2134 -0.9135 -0.9069
  837SOL     OW 2509   1.643  -0.002   0.676  0.1595 -0.1469  0.3331
  837SOL    HW1 2510   1.607   0.096   0.670 -0.2832 -1.0913 -0.7531
  837SOL    HW2 2511   1.599  -0.063   0.607  0.0613  2.2038  2.1574
  838SOL     OW 2512   1.149   1.335   2.690 -0.2289 -1.0623  0.2615
  838SOL    HW1 2513   1.104   1.422   2.722 -0.7784 -3.3789 -0.7002
  838SOL    HW2 2514   1.123   1.297   2.594  2.5455  0.3785 -0.4495
  839SOL     OW 2515   1.641   0.351   0.971  0.3285 -0.8357 -0.0207
  839SOL    HW1 2516   1.597   0.441   1.008  1.0183  0.4294 -0.5133
  839SOL    HW2 2517   1.599   0.261   0.995 -1.5712  2.3075  0.8998
  840SOL     OW 2518   2.644   2.952   1.605 -0.0430  0.2651  0.0468
  840SOL    HW1 2519   2.567   3.002   1.559  1.2313  0.9260  0.6569
  840SOL    HW2 2520   2.624   2.921   1.702 -0.6471  0.7710 -0.8874
  841SOL     OW 2521   1.511   0.870   3.056  0.0122  0.6431 -0.2890
  841SOL    HW1 2522   1.418   0.901   3.075  1.8665 -2.2220  0.2293
  841SOL    HW2 2523   1.537   0.905   2.964  1.4873 -1.6072 -0.9356
  842SOL     OW 2524   0.820   1.623   0.998  0.1271  0.3876 -0.8381
  842SOL    HW1 2525   0.812   1.728   1.015 -0.9436  3.0493 -0.6507
  842SOL    HW2 2526   0.737   1.583   0.947 -0.3865 -0.4064  2.6364
  843SOL     OW 2527   0.136   0.108   1.446 -0.0799  0.4142  0.3198
  843SOL    HW1 2528   0.231   0.150   1.466 -0.4054 -0.7731 -1.8592
  843SOL    HW2 2529   0.141   0.007   1.428  0.6481  1.0955  1.4566
  844SOL     OW 2530   0.800   2.443   0.185  0.5521 -0.2032 -0.8464
  844SOL    HW1 2531   0.749   2.458   0.273 -0.1096 -1.3438  0.0436
  844SOL    HW2 2532   0.733   2.428   0.106 -0.9330 -1.2057  0.7928
  845SOL     OW 2533   1.750   0.017   1.329 -0.0070  0.0551  0.7629
  845SOL    HW1 2534   1.742  -0.032   1.422  2.9063  0.8959  0.3965
  845SOL    HW2 2535   1.671   0.081   1.311 -0.2473  2.8759  2.3251
  846SOL     OW 2536   1.739   2.970   0.922 -0.0094 -0.0431  0.5036
  846SOL    HW1 2537   1.701   3.027   0.847 -2.0257  2.3935  1.9586
  846SOL    HW2 2538   1.843   2.972   0.936  0.2973 -1.0457 -1.5495
  847SOL     OW 2539   2.031   1.590   0.193 -0.5901  0.0874  0.2650
  847SOL    HW1 2540   2.000   1.534   0.277 -0.8535  1.7067 -0.6541
  847SOL    HW2 2541   1.962   1.589   0.120 -0.2288 -0.6520 -0.8299
  848SOL     OW 2542   2.468   0.795   2.687  0.7136 -0.0586  0.1670
  848SOL    HW1 2543   2.506   0.893   2.708  0.1184  0.7309 -0.7693
  848SOL    HW2 2544   2.370   0.801   2.637 -0.9228 -0.2806  1.3170
  849SOL     OW 2545   2.358   0.856   2.332  0.0880 -0.0184 -0.0240
  849SOL    HW1 2546   2.391   0.801   2.253  0.4783 -2.0196 -0.0989
  849SOL    HW2 2547   2.313   0.795   2.408 -1.9726  0.4789 -0.0595
  850SOL     OW 2548   1.545   0.188   1.287 -0.0106 -0.2717  0.2761
  850SOL    HW1 2549   1.539   0.160   1.188 -3.0035 -0.1927  0.4784
  850SOL    HW2 2550   1.477   0.131   1.344  1.2467  0.3364 -1.8216
  851SOL     OW 2551   0.383   1.676   0.679 -0.2778  0.1696  0.6273
  851SOL    HW1 2552   0.429   1.766   0.647  2.8358 -1.2171 -0.6017
  851SOL    HW2 2553   0.416   1.649   0.774  0.8344  0.1304  2.6364
  852SOL     OW 2554   0.818   2.110   1.721 -0.5919 -0.5847 -1.0729
  852SOL    HW1 2555   0.812   2.201   1.662  1.8178  2.5109 -0.5496
  852SOL    HW2 2556   0.764   2.122   1.803 -1.5146 -0.2085  0.4013
  853SOL     OW 2557   2.491   1.528   2.611 -0.2421 -0.0861  0.2124
  853SOL    HW1 2558   2.441   1.433   2.595 -0.8470 -1.4141 -3.4678
  853SOL    HW2 2559   2.540   1.563   2.526 -1.4646  1.7263  0.7252
  854SOL     OW 2560   2.442   1.438   1.710  0.3554 -0.0962  0.0183
  854SOL    HW1 2561   2.479   1.433   1.613 -0.7521 -0.8179  0.5979
  854SOL    HW2 2562   2.414   1.341   1.741 -0.9535 -2.3902 -1.2993
  855SOL     OW 2563   2.039   2.385   0.941 -0.2373 -0.2986 -0.0657
  855SOL    HW1 2564   2.087   2.460   0.887  0.9301  0.5327 -3.3133
  855SOL    HW2 2565   2.089   2.342   1.018 -0.8061 -0.2764 -0.0955
  856SOL     OW 2566   1.430   1.419   0.854 -0.6355 -0.1673  0.7817
  856SOL    HW1 2567   1.452   1.518   0.872  2.4695  0.4819  2.5837
  856SOL    HW2 2568   1.362   1.384   0.922 -1.2559 -0.2156 -1.5548
  857SOL     OW 2569   2.960   2.554   1.031  0.1322  0.7846 -0.3168
  857SOL    HW1 2570   2.865   2.537   1.067  2.3165  0.1853 -1.2456
  857SOL    HW2 2571   2.985   2.507   0.943  3.3584  0.1117  0.7138
  858SOL     OW 2572   2.254   2.082   1.805  0.4495  0.2837  0.0362
  858SOL    HW1 2573   2.187   2.132   1.740 -1.0767 -0.1910 -0.6408
  858SOL    HW2 2574   2.330   2.032   1.748 -3.6280 -0.7609  0.8134
  859SOL     OW 2575   2.517   0.430   1.072 -0.2688 -0.2713  0.7652
  859SOL    HW1 2576   2.571   0.473   0.994 -1.0676 -0.7134  0.6779
  859SOL    HW2 2577   2.568   0.349   1.110  1.4140 -2.3874 -0.2707
  860SOL     OW 2578   1.892   2.791   0.500 -0.3985  0.1077 -0.2568
  860SOL    HW1 2579   1.916   2.757   0.406  3.9096 -1.0422 -0.2661
  860SOL    HW2 2580   1.954   2.870   0.527  0.5549  0.9466 -1.9357
  861SOL     OW 2581   0.933   2.654   2.812 -0.2430  0.3487 -0.8645
  861SOL    HW1 2582   1.009   2.722   2.788 -2.1650  4.9538 -2.9846
  861SOL    HW2 2583   0.941   2.625   2.910 -2.7038  0.8869  0.1251
  862SOL     OW 2584   2.921   2.524   1.632 -0.2318  0.1156  0.0154
  862SOL    HW1 2585   3.007   2.570   1.671  1.6742 -0.1612  1.7613
  862SOL    HW2 2586   2.843   2.591   1.620 -1.0978  1.5275  1.5063
  863SOL     OW 2587   1.930   2.714   0.175  0.4251  1.1169 -0.3920
  863SOL    HW1 2588   2.010   2.645   0.188 -0.7388  2.3925 -0.1229
  863SOL    HW2 2589   1.834   2.687   0.206 -0.3306  2.7476  1.4730
  864SOL     OW 2590   1.903   1.086   3.016  0.2074 -0.0282 -0.0176
  864SOL    HW1 2591   1.923   1.106   2.916 -1.8555 -1.2813 -1.5451
  864SOL    HW2 2592   1.985   1.087   3.081 -0.5175  2.4512  2.0901
  865SOL     OW 2593   2.199   1.737   0.638 -0.0092 -0.0696  0.2430
  865SOL    HW1 2594   2.217   1.758   0.740  0.4433  1.1595 -0.1858
  865SOL    HW2 2595   2.137   1.645   0.637 -0.3176 -0.7163  1.8533
  866SOL     OW 2596   2.973   2.823   0.962 -0.3074  0.1161 -0.0877
  866SOL    HW1 2597   3.023   2.846   0.876 -0.1905  1.1869  1.4582
  866SOL    HW2 2598   2.961   2.723   0.984  0.3412  0.3171 -1.8188
  867SOL     OW 2599   0.381   1.357   0.833  0.1465 -0.5426 -0.3333
  867SOL    HW1 2600   0.420   1.264   0.819  0.1195  0.8505 -1.9074
  867SOL    HW2 2601   0.307   1.376   0.762  4.0271 -0.5785  0.3461
  868SOL     OW 2602   0.805   1.932   1.988  0.0820 -0.2603 -0.1776
  868SOL    HW1 2603   0.799   1.917   2.086 -1.2934  2.0609  1.9484
  868SOL    HW2 2604   0.764   2.024   1.959 -0.4141  1.5380 -0.5718
  869SOL     OW 2605   2.462   1.988   1.650 -0.2526  0.1820 -0.1001
  869SOL    HW1 2606   2.513   1.904   1.658 -2.5339 -1.4943  1.1356
  869SOL    HW2 2607   2.409   1.993   1.563 -2.3809 -1.2397  0.9327
  870SOL     OW 2608   2.328   2.548   1.242 -0.2961 -0.3685 -0.4509
  870SOL    HW1 2609   2.280   2.470   1.202  1.2743  0.4652 -1.4232
  870SOL    HW2 2610   2.397   2.525   1.316  1.1033  0.1339 -0.2164
  871SOL     OW 2611   2.984   1.972   0.515  0.2039 -0.5336 -0.1108
  871SOL    HW1 2612   2.928   2.041   0.459 -1.8559 -2.6805 -0.2201
  871SOL    HW2 2613   2.965   1.881   0.470 -0.6807  0.1406  0.8128
  872SOL     OW 2614   2.202   0.502   1.747 -0.6317 -0.3311  0.6969
  872SOL    HW1 2615   2.189   0.539   1.847  1.4962 -1.2568  1.4951
  872SOL    HW2 2616   2.285   0.448   1.733  0.6761 -0.5298  1.7342
  873SOL     OW 2617   1.728   2.115   2.899 -0.1227  0.1271 -0.0813
  873SOL    HW1 2618   1.730   2.223   2.905  0.4185  0.3130  0.2969
  873SOL    HW2 2619   1.650   2.091   2.830 -0.3098 -0.9384  0.5919
  874SOL     OW 2620   0.606   2.457   0.711 -0.4247 -0.1525 -0.0238
  874SOL    HW1 2621   0.619   2.551   0.750 -2.4730  0.8018 -0.6418
  874SOL    HW2 2622   0.693   2.403   0.691 -0.5558 -2.1786 -0.1133
  875SOL     OW 2623   2.281   1.655   1.467 -0.1564  0.4959 -0.2401
  875SOL    HW1 2624   2.368   1.654   1.523  1.9768  1.3239 -0.1813
  875SOL    HW2 2625   2.296   1.697   1.375  0.8346 -2.5131 -0.5158
  876SOL     OW 2626   0.195   2.283   2.761  0.1937 -0.3313 -0.5637
  876SOL    HW1 2627   0.230   2.232   2.845  0.4498  2.8682 -0.7730
  876SOL    HW2 2628   0.240   2.380   2.768  0.6237  0.3323  1.8580
  877SOL     OW 2629   2.818   2.657   0.630 -0.2675  0.3262 -0.1131
  877SOL    HW1 2630   2.827   2.764   0.622 -2.9816 -0.0308 -2.3450
  877SOL    HW2 2631   2.903   2.607   0.664 -0.2896 -0.8111  1.1335
  878SOL     OW 2632   2.644   1.490   2.377 -0.1102  0.2260 -0.0359
  878SOL    HW1 2633   2.660   1.589   2.405 -2.6299  0.6158 -2.5000
  878SOL    HW2 2634   2.711   1.425   2.420 -4.0005 -0.1824 -0.2298
  879SOL     OW 2635   2.417   3.046   1.214 -0.2297  0.3708  0.5336
  879SOL    HW1 2636   2.446   2.952   1.234 -2.6240  2.9117 -2.1212
  879SOL    HW2 2637   2.317   3.055   1.187 -1.5878 -0.6852 -0.5105
  880SOL     OW 2638   0.658   0.483   2.195  0.7215 -0.2663 -0.4133
  880SOL    HW1 2639   0.641   0.421   2.279 -0.5151 -1.0466  0.9680
  880SOL    HW2 2640   0.678   0.428   2.110 -0.7315  1.4892  1.1155
  881SOL     OW 2641   0.917   0.089   0.441 -0.0271  0.0565 -0.1507
  881SOL    HW1 2642   0.934  -0.015   0.436 -2.4768 -1.9180  0.9813
  881SOL    HW2 2643   0.895   0.129   0.350 -1.2193 -1.7240 -1.2264
  882SOL     OW 2644   2.756   1.770   1.703 -0.0223  0.0391  0.3358
  882SOL    HW1 2645   2.818   1.695   1.672  1.8907  2.5698 -1.6516
  882SOL    HW2 2646   2.740   1.768   1.806  0.3854 -0.1057 -1.8268
  883SOL     OW 2647   0.916   0.569   0.973 -0.0671 -0.0803 -0.0925
  883SOL    HW1 2648   0.909   0.671   0.996  0.2707 -1.2351  0.4255
  883SOL    HW2 2649   1.012   0.532   0.961 -1.3940 -0.5299 -0.5192
  884SOL     OW 2650   1.122   1.893   1.070  0.2423 -0.4103  0.4926
  884SOL    HW1 2651   1.121   1.868   0.970  0.7929 -1.2336  0.3663
  884SOL    HW2 2652   1.054   1.973   1.092 -1.2162 -1.6855 -0.7429
  885SOL     OW 2653   2.308   1.812   2.293 -0.1143  0.5835  0.3400
  885SOL    HW1 2654   2.232   1.756   2.333  2.0259 -0.8612  1.8601
  885SOL    HW2 2655   2.307   1.906   2.332 -2.5133 -0.2047 -0.6294
  886SOL     OW 2656   2.658   0.466   1.843  0.4152  0.2157  0.6730
  886SOL    HW1 2657   2.740   0.414   1.878 -0.5674 -0.1311  0.0811
  886SOL    HW2 2658   2.691   0.562   1.806 -1.8028 -1.3767  1.3608
  887SOL     OW 2659   0.221   2.048   1.265 -0.2215  0.0589 -0.0322
  887SOL    HW1 2660   0.148   2.031   1.191  0.5646 -1.3387 -0.2861
  887SOL    HW2 2661   0.218   2.143   1.312  0.7641  1.5114  0.0018
  888SOL     OW 2662   0.561   1.347   1.453 -0.5467  0.3522  0.1893
  888SOL    HW1 2663   0.581   1.401   1.362  0.7365 -0.1035 -1.6790
  888SOL    HW2 2664   0.540   1.249   1.430  0.8952  0.1733  2.4930
  889SOL     OW 2665   0.815   2.395   2.176 -0.4266 -0.0872  0.4096
  889SOL    HW1 2666   0.824   2.290   2.166  0.3452  0.3856 -1.3506
  889SOL    HW2 2667   0.881   2.446   2.108  0.0929 -1.9122 -2.5754
  890SOL     OW 2668   2.339   2.440   0.228 -0.0906 -0.2205 -0.2173
  890SOL    HW1 2669   2.392   2.514   0.185  0.2526 -0.1346  0.1164
  890SOL    HW2 2670   2.236   2.458   0.230 -0.1144 -1.8327  2.0536
  891SOL     OW 2671   2.619   1.677   0.715 -0.4170 -0.5311  0.2795
  891SOL    HW1 2672   2.585   1.600   0.775 -1.6642 -0.9603 -0.0446
  891SOL    HW2 2673   2.549   1.708   0.647  2.9622  1.5023 -1.1075
  892SOL     OW 2674   0.285   0.288   2.252 -0.1688  0.4525  0.0031
  892SOL    HW1 2675   0.295   0.331   2.164  1.2045 -4.3223  2.4963
  892SOL    HW2 2676   0.369   0.299   2.308 -1.3789 -4.0603  0.2387
  893SOL     OW 2677   1.665   0.249   2.758  0.3486 -0.2599  0.2588
  893SOL    HW1 2678   1.744   0.317   2.788  0.4296 -0.5862  0.3961
  893SOL    HW2 2679   1.580   0.292   2.715 -0.1691  1.5060 -0.1652
  894SOL     OW 2680   2.182   2.046   0.035 -0.0808  0.3262  0.0299
  894SOL    HW1 2681   2.115   1.979  -0.006 -1.4140  0.9579 -1.4473
  894SOL    HW2 2682   2.221   2.001   0.121 -2.3100 -0.5936  0.9638
  895SOL     OW 2683   2.774   1.378   0.874 -0.0249  0.1597  0.4536
  895SOL    HW1 2684   2.837   1.319   0.935  1.8824 -1.2565  0.9341
  895SOL    HW2 2685   2.818   1.465   0.848  0.7565 -2.4991  3.1641
  896SOL     OW 2686   1.757   1.863   1.181  0.2314  0.5397  0.5556
  896SOL    HW1 2687   1.809   1.839   1.095  1.2434 -1.3244  2.1674
  896SOL    HW2 2688   1.699   1.947   1.167 -1.1305 -0.8735  0.1155
  897SOL     OW 2689   0.269   0.495   3.102 -1.0737  0.2661  1.0431
  897SOL    HW1 2690   0.209   0.553   3.037 -2.4261 -0.3059 -1.4256
  897SOL    HW2 2691   0.368   0.518   3.088  1.5484 -0.5670 -1.4702
  898SOL     OW 2692   0.532   2.889   1.009 -0.1212 -0.5183  0.3911
  898SOL    HW1 2693   0.448   2.920   1.059  0.0688  0.1287 -0.3501
  898SOL    HW2 2694   0.619   2.938   1.032  0.9791 -2.4352  1.1666
  899SOL     OW 2695   2.726   0.909   1.307  0.4106 -0.2732  0.4118
  899SOL    HW1 2696   2.721   0.899   1.207  2.6536  1.4819  1.8103
  899SOL    HW2 2697   2.809   0.967   1.329 -2.7250 -2.0732 -1.2680
  900SOL     OW 2698   0.993   2.373   2.407 -0.5852  0.1130  0.7246
  900SOL    HW1 2699   0.900   2.380   2.357 -1.1372 -1.3533  1.6762
  900SOL    HW2 2700   0.976   2.377   2.507  1.2053  1.8806  0.6479
  901SOL     OW 2701   1.979   2.493   1.342 -0.5439  0.3133  0.2470
  901SOL    HW1 2702   1.913   2.463   1.271 -0.0347  2.9054  2.0270
  901SOL    HW2 2703   2.060   2.424   1.363  1.5450 -1.1060 -1.4306
  902SOL     OW 2704   2.575   1.657   1.503 -0.3044 -0.5166  0.0640
  902SOL    HW1 2705   2.644   1.678   1.577 -0.0427 -2.1483  1.0053
  902SOL    HW2 2706   2.618   1.590   1.444  1.0208  0.5954  1.5431
  903SOL     OW 2707   0.282   2.489   1.951 -0.1630 -0.0867 -0.0793
  903SOL    HW1 2708   0.207   2.414   1.951 -0.5855  4.2044 -0.7465
  903SOL    HW2 2709   0.288   2.535   1.862 -1.9759  0.4310  2.3454
  904SOL     OW 2710   1.988   0.803   2.607 -0.0648  0.0546 -0.1388
  904SOL    HW1 2711   1.897   0.764   2.620 -1.1190 -0.6031  2.3645
  904SOL    HW2 2712   2.008   0.823   2.502 -1.7424 -1.0005 -4.0373
  905SOL     OW 2713   2.839   0.038   2.595 -0.1329 -0.8755  0.1604
  905SOL    HW1 2714   2.920  -0.014   2.626  0.0346 -2.8071  0.2364
  905SOL    HW2 2715   2.860   0.143   2.587 -1.0642  2.3822  0.1364
  906SOL     OW 2716   0.113   1.841   1.887  0.0141 -0.0340 -0.3782
  906SOL    HW1 2717   0.041   1.817   1.811  0.6661  1.9769 -2.4743
  906SOL    HW2 2718   0.207   1.828   1.843  1.7994 -4.3245 -2.2242
  907SOL     OW 2719   0.171   2.429   1.089 -0.1609  0.9119  0.2724
  907SOL    HW1 2720   0.241   2.473   1.032  2.1179 -1.4211  0.4055
  907SOL    HW2 2721   0.110   2.369   1.030  3.6301 -2.1301 -0.9135
  908SOL     OW 2722   2.689   2.809   0.331  0.4035  0.6901 -0.4537
  908SOL    HW1 2723   2.681   2.876   0.255  1.7344  0.5276 -0.2267
  908SOL    HW2 2724   2.673   2.714   0.309 -1.2466  2.4571 -0.9448
  909SOL     OW 2725   0.673   0.883   2.643  0.8851 -0.1543 -0.1643
  909SOL    HW1 2726   0.640   0.787   2.617 -1.1231 -3.1645  0.8750
  909SOL    HW2 2727   0.759   0.910   2.595 -1.7733  0.7788 -0.5352
  910SOL     OW 2728   1.686   1.787   2.105 -0.3348  0.3767 -0.2337
  910SOL    HW1 2729   1.756   1.792   2.028 -1.1873 -0.4393 -1.8820
  910SOL    HW2 2730   1.637   1.880   2.124 -0.5387  2.3801 -2.1422
  911SOL     OW 2731   1.780   3.031   1.580 -0.2359  0.5425 -0.3200
  911SOL    HW1 2732   1.885   3.018   1.576 -0.4591  0.6993  0.6710
  911SOL    HW2 2733   1.737   2.968   1.655 -1.1744 -2.1794  2.5691
  912SOL     OW 2734   2.902   0.938   0.764  0.0057 -0.3144  0.7725
  912SOL    HW1 2735   2.912   0.913   0.865 -2.4270 -1.3647 -0.1585
  912SOL    HW2 2736   2.835   1.018   0.746  0.1622  1.2550  1.0916
  913SOL     OW 2737   2.599   1.281   1.510  0.1248 -0.0649 -0.6844
  913SOL    HW1 2738   2.632   1.185   1.529 -0.5293  2.4621 -0.0479
  913SOL    HW2 2739   2.626   1.323   1.421 -0.1511 -2.9286 -0.6084
  914SOL     OW 2740   2.754   0.502   1.277 -0.1769  0.0624  0.2124
  914SOL    HW1 2741   2.726   0.411   1.313  3.0495  1.1003 -2.1269
  914SOL    HW2 2742   2.697   0.587   1.306 -0.0169  1.1909 -0.4560
  915SOL     OW 2743   1.206   0.786   1.039 -0.2691 -0.1096  0.0600
  915SOL    HW1 2744   1.251   0.746   1.122  0.8194  1.1136  1.0894
  915SOL    HW2 2745   1.116   0.829   1.060  3.4268 -0.5721 -0.1139
  916SOL     OW 2746   0.569   0.015   0.568 -0.0872 -0.2081  1.0492
  916SOL    HW1 2747   0.591   0.084   0.643 -0.7148  1.8984 -1.4992
  916SOL    HW2 2748   0.549   0.058   0.475 -0.8925 -1.6749  0.8916
  917SOL     OW 2749   2.761   2.633   1.871  0.1633  0.6900 -0.0407
  917SOL    HW1 2750   2.688   2.712   1.873  0.6471 -0.9066 -1.2928
  917SOL    HW2 2751   2.846   2.679   1.850 -1.3570  3.6786 -2.3137
  918SOL     OW 2752   1.104   2.206   3.064  0.5490  0.6059  0.4469
  918SOL    HW1 2753   1.065   2.184   3.159 -1.6186  0.9563  2.3050
  918SOL    HW2 2754   1.163   2.127   3.027 -1.0108 -1.5742 -2.7394
  919SOL     OW 2755   0.907   1.562   2.828 -0.1457  0.6715  1.1089
  919SOL    HW1 2756   0.913   1.648   2.771  0.5006 -0.5621  0.5661
  919SOL    HW2 2757   0.854   1.481   2.786  1.6960 -0.8005 -0.7843
  920SOL     OW 2758   1.197   1.988   2.478 -0.3910 -0.0367  0.6400
  920SOL    HW1 2759   1.136   1.987   2.395  2.8334  0.0609 -2.1578
  920SOL    HW2 2760   1.193   1.903   2.539  2.9739 -3.4316  0.6162
  921SOL     OW 2761   1.082   0.094   2.485  0.0750  0.3862 -0.4376
  921SOL    HW1 2762   1.062   0.019   2.409 -1.2024 -2.0055  0.1111
  921SOL    HW2 2763   1.022   0.173   2.471  1.9427 -2.3068 -1.7456
  922SOL     OW 2764   2.172   2.391   2.811  0.6017 -0.0076 -0.1477
  922SOL    HW1 2765   2.123   2.297   2.810 -0.9204 -2.3774  0.1679
  922SOL    HW2 2766   2.141   2.454   2.731 -0.5101  1.4234  0.8112
  923SOL     OW 2767   1.251   2.718   0.203  0.6229  0.5606 -0.0279
  923SOL    HW1 2768   1.321   2.769   0.262 -2.9491 -0.5960  1.9032
  923SOL    HW2 2769   1.274   2.617   0.197 -2.3337  1.7273  2.4933
  924SOL     OW 2770   2.947   1.629   0.097  0.1541  0.1769  0.3656
  924SOL    HW1 2771   2.851   1.616   0.060 -0.4295  0.4511 -0.3605
  924SOL    HW2 2772   3.017   1.616   0.023 -0.5609  1.4745  0.7209
  925SOL     OW 2773   0.052   2.866   1.638 -0.0478  0.3502 -0.2577
  925SOL    HW1 2774  -0.026   2.935   1.653 -2.8399 -2.0255 -0.6240
  925SOL    HW2 2775   0.070   2.862   1.538  0.1160 -0.9669 -2.8447
  926SOL     OW 2776   1.457   2.884   1.263  0.6036 -0.1257 -0.0944
  926SOL    HW1 2777   1.465   2.916   1.161  1.2658  1.8220 -2.5849
  926SOL    HW2 2778   1.447   2.960   1.332 -0.8661 -1.3083  1.2420
  927SOL     OW 2779   0.245   2.598   1.693  0.3945  0.5677 -0.1192
  927SOL    HW1 2780   0.212   2.503   1.668  2.1084  0.8862  0.4493
  927SOL    HW2 2781   0.296   2.640   1.610 -0.0189 -0.5449 -1.0379
  928SOL     OW 2782   1.623   2.049   2.137  0.0749  0.2706  0.6955
  928SOL    HW1 2783   1.671   2.145   2.122 -0.3750  0.4851 -1.9589
  928SOL    HW2 2784   1.531   2.047   2.089 -0.5900  1.9113 -2.3879
  929SOL     OW 2785   2.439   2.419   2.887 -0.4486  0.4432  0.0186
  929SOL    HW1 2786   2.337   2.414   2.866 -0.5124  1.4787  0.8068
  929SOL    HW2 2787   2.498   2.421   2.801  1.3841  2.6726  1.9632
  930SOL     OW 2788   2.086   2.014   1.087 -0.4946  0.2494 -0.3370
  930SOL    HW1 2789   2.061   1.980   1.185 -4.9283 -1.3595  0.0183
  930SOL    HW2 2790   2.183   2.056   1.087 -0.4960  2.5501 -0.9370
  931SOL     OW 2791   0.558   1.760   2.678 -0.1744  0.2495 -0.0435
  931SOL    HW1 2792   0.612   1.764   2.770  2.0322 -3.6752 -0.7962
  931SOL    HW2 2793   0.580   1.668   2.625  2.8068 -1.7055 -3.6114
  932SOL     OW 2794   0.548   0.135   2.930  0.2128  0.2619  0.3490
  932SOL    HW1 2795   0.636   0.152   2.876  0.7466 -0.7808 -1.0795
  932SOL    HW2 2796   0.533   0.035   2.961  0.8841  0.9297  1.2684
  933SOL     OW 2797   1.043   0.798   2.959 -0.0049  0.0657 -0.4772
  933SOL    HW1 2798   1.122   0.804   3.025  1.2156 -0.1784 -1.2220
  933SOL    HW2 2799   1.023   0.895   2.931 -0.2643  1.1934  1.2807
  934SOL     OW 2800   0.860   2.955   2.844 -0.5090  0.1184  0.1721
  934SOL    HW1 2801   0.961   2.955   2.822 -2.6373  2.9668 -1.3651
  934SOL    HW2 2802   0.838   2.883   2.909 -1.4546 -1.3062  0.4257
  935SOL     OW 2803   3.035   0.540   0.870  0.3465  0.3509  1.1143
  935SOL    HW1 2804   3.027   0.491   0.779 -1.1785 -1.0328  1.1807
  935SOL    HW2 2805   2.956   0.592   0.909 -1.0630  1.0973  1.7684
  936SOL     OW 2806   1.107   2.963   0.131 -0.2510 -0.4394 -0.7943
  936SOL    HW1 2807   1.155   3.008   0.050  1.0645 -2.5750  0.5481
  936SOL    HW2 2808   1.148   2.875   0.164  0.7442 -0.4422  1.7889
  937SOL     OW 2809   1.928   2.714   2.102 -0.5722 -0.0999 -0.5926
  937SOL    HW1 2810   1.848   2.728   2.173 -0.5641  2.2304  3.4614
  937SOL    HW2 2811   1.897   2.717   2.001  1.8713  0.7411 -0.2034
  938SOL     OW 2812   2.703   2.199   1.515 -0.2918  0.2769  0.1441
  938SOL    HW1 2813   2.652   2.258   1.586  0.0544  2.2264  0.4181
  938SOL    HW2 2814   2.755   2.124   1.562 -2.4481  1.4515  0.6645
  939SOL     OW 2815   2.758   1.008   2.562 -0.0764  0.1116  0.3635
  939SOL    HW1 2816   2.846   0.949   2.584  1.5944  1.9478 -0.7554
  939SOL    HW2 2817   2.730   1.060   2.642 -1.8683 -2.3239  1.1186
  940SOL     OW 2818   1.014   0.479   2.657 -0.2586 -0.0298  0.6164
  940SOL    HW1 2819   1.061   0.400   2.704  1.8024  1.9174 -1.6985
  940SOL    HW2 2820   0.919   0.458   2.628  0.5444  1.1615  0.8645
  941SOL     OW 2821   0.030   2.872   2.225 -0.0100  0.0262  0.4761
  941SOL    HW1 2822   0.003   2.776   2.200  1.5103  0.9142  1.7488
  941SOL    HW2 2823   0.099   2.874   2.304 -0.6503  3.7725  0.2309
  942SOL     OW 2824   0.163   0.072   2.565  0.3004 -0.1538  0.5166
  942SOL    HW1 2825   0.232   0.084   2.639  0.9827 -1.7817 -0.3739
  942SOL    HW2 2826   0.126   0.155   2.520  0.3118 -0.5890 -2.6703
  943SOL     OW 2827   2.123   1.644   2.388  0.0949 -0.2708 -0.3724
  943SOL    HW1 2828   2.145   1.550   2.425 -4.0294 -0.2108  0.8360
  943SOL    HW2 2829   2.040   1.618   2.327 -3.0318  1.0665  0.7318
  944SOL     OW 2830   2.186   2.339   1.425 -0.0493  0.4597  0.1212
  944SOL    HW1 2831   2.229   2.421   1.471  1.0346  0.8723  2.2722
  944SOL    HW2 2832   2.170   2.264   1.494 -0.3143  2.8146 -2.0441
  945SOL     OW 2833   0.575   1.401   0.326 -0.4096 -0.0841 -0.2188
  945SOL    HW1 2834   0.598   1.478   0.261  0.5867  0.1305  0.2900
  945SOL    HW2 2835   0.650   1.340   0.357 -3.7144 -0.7890 -1.6435
  946SOL     OW 2836   0.316   0.963   2.644  0.1336 -0.1772  0.0574
  946SOL    HW1 2837   0.244   0.934   2.572 -0.3839  0.6323 -0.1716
  946SOL    HW2 2838   0.357   1.053   2.614 -2.0130 -2.2012 -1.7321
  947SOL     OW 2839   1.545   0.455   0.112  0.1836 -0.1022 -0.3305
  947SOL    HW1 2840   1.575   0.414   0.201  1.1918  2.7518 -1.8466
  947SOL    HW2 2841   1.467   0.402   0.072  0.7355 -1.7482 -0.9963
  948SOL     OW 2842   2.064   3.025   2.129  0.0118 -0.6227  0.5456
  948SOL    HW1 2843   1.988   3.048   2.059 -0.0965  1.7423 -0.9435
  948SOL    HW2 2844   2.020   2.996   2.222  0.3095 -1.2695 -0.9475
  949SOL     OW 2845   0.687   2.538   0.429 -0.0602  0.0848  0.1633
  949SOL    HW1 2846   0.699   2.634   0.391 -1.1040 -0.0880 -2.1919
  949SOL    HW2 2847   0.724   2.527   0.523 -0.4308 -2.1451  1.4224
  950SOL     OW 2848   0.177   2.130   3.005 -0.8028  0.0202  0.2745
  950SOL    HW1 2849   0.088   2.169   3.033  1.0803  2.1744  0.3537
  950SOL    HW2 2850   0.169   2.025   3.018 -4.5185  0.3039 -2.1731
  951SOL     OW 2851   1.116   2.885   2.778  0.2073  0.2278 -1.1091
  951SOL    HW1 2852   1.130   2.898   2.680  0.6308  1.1049  0.6722
  951SOL    HW2 2853   1.198   2.903   2.839 -0.9600 -1.0384 -2.3372
  952SOL     OW 2854   0.031   1.679   0.498 -0.4355 -0.3597  0.5379
  952SOL    HW1 2855   0.115   1.737   0.479  0.7624  2.9829 -3.2896
  952SOL    HW2 2856   0.039   1.615   0.575 -0.4547  0.7953 -2.8147
  953SOL     OW 2857   2.467   1.769   0.123  0.6323 -0.0816 -0.7339
  953SOL    HW1 2858   2.463   1.673   0.152  0.7638  0.3191  2.3216
  953SOL    HW2 2859   2.506   1.778   0.027  1.4947 -0.2728 -0.9563
  954SOL     OW 2860   2.243   0.493   1.067  0.2852  0.1563  0.3286
  954SOL    HW1 2861   2.224   0.507   0.970  2.9100 -1.7279  2.9645
  954SOL    HW2 2862   2.343   0.461   1.079  3.3048 -0.8581 -0.2415
  955SOL     OW 2863   0.243   2.674   1.230  0.7024  0.2502  0.7368
  955SOL    HW1 2864   0.165   2.613   1.256  0.9319  1.2638 -0.6022
  955SOL    HW2 2865   0.271   2.664   1.129  2.3466 -0.0938  0.6095
  956SOL     OW 2866   2.783   2.477   2.518  0.2403  0.1028  0.6037
  956SOL    HW1 2867   2.819   2.390   2.476  0.1940 -2.1701 -1.6798
  956SOL    HW2 2868   2.803   2.558   2.456 -0.8506 -0.4681  0.2107
  957SOL     OW 2869   1.549   2.040   2.703  0.0231  0.7862  0.3752
  957SOL    HW1 2870   1.511   1.953   2.740 -0.9923  0.1615 -0.3133
  957SOL    HW2 2871   1.546   2.035   2.602  0.4425 -0.0106  2.7182
  958SOL     OW 2872   2.667   2.255   2.983  0.5029 -0.4333  0.5230
  958SOL    HW1 2873   2.573   2.289   2.966  1.6821  0.6164  0.1819
  958SOL    HW2 2874   2.664   2.180   3.052  1.0409 -1.1383 -2.8057
  959SOL     OW 2875   0.258   2.822   0.046 -0.0122  0.0928  0.2925
  959SOL    HW1 2876   0.222   2.820   0.144  2.3737  0.3379  0.1566
  959SOL    HW2 2877   0.261   2.728  -0.006 -1.0926  1.6351 -1.0459
  960SOL     OW 2878   1.928   0.451   2.091  0.0398  0.0919  0.7078
  960SOL    HW1 2879   1.898   0.537   2.042  0.6401 -1.0250  0.7021
  960SOL    HW2 2880   1.975   0.477   2.176  0.5513 -0.8492  1.6428
  961SOL     OW 2881   2.779   2.012   1.062  0.3932  0.0876  0.1333
  961SOL    HW1 2882   2.835   2.096   1.079 -2.5700  1.2687  3.0881
  961SOL    HW2 2883   2.688   2.027   1.114 -0.4153 -0.2712  0.1005
  962SOL     OW 2884   1.260   0.922   3.096 -0.0494 -0.3790  0.4072
  962SOL    HW1 2885   1.265   0.993   3.019 -3.2530 -3.5645  0.0063
  962SOL    HW2 2886   1.260   0.968   3.192 -1.9210 -0.7716  0.8596
  963SOL     OW 2887   2.174   2.583   1.889  0.3112  0.1140 -0.6671
  963SOL    HW1 2888   2.213   2.508   1.945 -0.7273  0.0675 -1.2850
  963SOL    HW2 2889   2.218   2.673   1.913  2.0945 -2.3058  0.2880
  964SOL     OW 2890   2.452   0.363   1.728  0.0510 -0.1202 -0.0643
  964SOL    HW1 2891   2.525   0.402   1.796 -0.6342  0.0646  3.6795
  964SOL    HW2 2892   2.491   0.338   1.634 -1.3770 -0.1206 -1.4979
  965SOL     OW 2893   2.700   3.008   0.145  0.4832 -0.0020  0.3904
  965SOL    HW1 2894   2.774   2.987   0.067  0.4225  1.6885 -3.1045
  965SOL    HW2 2895   2.618   3.050   0.099 -2.1067  1.1748  0.5705
  966SOL     OW 2896   2.516   2.590   2.241 -0.3164 -0.4200  0.5310
  966SOL    HW1 2897   2.455   2.538   2.173  1.6020  0.1673  1.1925
  966SOL    HW2 2898   2.490   2.688   2.256  2.1916  0.1403 -1.8209
  967SOL     OW 2899   2.731   2.888   2.484  0.4281  0.7675 -0.3338
  967SOL    HW1 2900   2.766   2.818   2.415  1.6925  1.6350  0.4628
  967SOL    HW2 2901   2.795   2.962   2.510 -0.6018 -1.6757  1.0582
  968SOL     OW 2902   1.953   1.071   2.741 -0.2022  0.4508  0.7491
  968SOL    HW1 2903   1.896   1.158   2.723  1.7385  0.9075 -1.3536
  968SOL    HW2 2904   1.924   0.979   2.698 -1.4381 -0.6576 -0.6824
  969SOL     OW 2905   2.722   2.392   1.196 -0.4556  0.2653  0.2655
  969SOL    HW1 2906   2.667   2.376   1.109  0.2730  0.4671  0.4772
  969SOL    HW2 2907   2.812   2.335   1.203  2.3598  2.0251 -2.5424
  970SOL     OW 2908   1.083   2.073   1.819 -0.3887  0.1358  0.3135
  970SOL    HW1 2909   0.993   2.085   1.762 -3.9869 -0.9664 -0.1507
  970SOL    HW2 2910   1.078   2.100   1.922 -0.7040 -0.6494  0.2249
  971SOL     OW 2911   2.848   2.142   1.921  0.1866 -0.5326  0.1649
  971SOL    HW1 2912   2.839   2.241   1.947  2.8600  1.3631 -1.0989
  971SOL    HW2 2913   2.917   2.124   1.850 -1.8243  1.2551 -1.9405
  972SOL     OW 2914   2.055   2.474   0.262  0.1085 -0.3860 -0.1437
  972SOL    HW1 2915   2.039   2.412   0.184  3.1350 -0.1197 -2.3742
  972SOL    HW2 2916   2.029   2.436   0.355 -1.8625 -1.3678 -0.9903
  973SOL     OW 2917   1.290   1.054   1.827 -0.3273  0.0560 -0.6512
  973SOL    HW1 2918   1.207   1.046   1.769 -1.6699  1.1650  0.6098
  973SOL    HW2 2919   1.291   1.148   1.884 -1.7148 -0.2445  1.7095
  974SOL     OW 2920   1.616   0.590   2.023 -0.7001  0.3447  0.0228
  974SOL    HW1 2921   1.684   0.619   1.951  1.8594  3.2889  0.3656
  974SOL    HW2 2922   1.534   0.655   2.012 -1.9279  3.7736 -1.0805
  975SOL     OW 2923   2.453   3.059   3.062 -0.2203  0.4904 -0.5740
  975SOL    HW1 2924   2.418   2.995   3.140 -1.4624 -0.3412 -0.0769
  975SOL    HW2 2925   2.437   3.020   2.969  1.2546  2.9847  0.5761
  976SOL     OW 2926   1.966   2.927   2.359 -0.2591 -0.1032 -0.6740
  976SOL    HW1 2927   1.896   2.858   2.366 -0.9918  1.2397  0.8742
  976SOL    HW2 2928   2.053   2.906   2.410 -0.9306  3.4896  0.1298
  977SOL     OW 2929   0.451   0.530   0.948 -0.6698 -0.2063 -0.9284
  977SOL    HW1 2930   0.353   0.534   0.901 -1.0617  2.0252  0.3199
  977SOL    HW2 2931   0.533   0.546   0.893  0.1052 -2.1630  1.8673
   3.10000   3.10000   3.10000
