1000 SPC/Fw water molecules t=   1.42000 step= 1420
 2931
    1SOL     OW    1   2.472   0.309   2.656 -0.8847  0.4761 -0.0247
    1SOL    HW1    2   2.475   0.207   2.640  0.5457  2.4263  0.3593
    1SOL    HW2    3   2.528   0.344   2.740 -2.8756  0.5462 -0.6465
    2SOL     OW    4   2.747   2.989   1.380 -0.0773  0.0085  0.0084
    2SOL    HW1    5   2.842   3.037   1.354  2.7262 -1.1925  0.9020
    2SOL    HW2    6   2.703   3.037   1.460 -1.1893  0.2915  1.0832
    3SOL     OW    7   2.642   2.563   0.402 -0.0467 -0.2241 -0.4401
    3SOL    HW1    8   2.605   2.469   0.415  2.2608  0.4358 -0.8846
    3SOL    HW2    9   2.677   2.612   0.486 -0.8730  0.4838 -0.0247
    4SOL     OW   10   1.233   1.511   2.415 -0.1968  0.0575 -0.0069
    4SOL    HW1   11   1.168   1.512   2.332 -3.4316  0.9212 -1.1709
    4SOL    HW2   12   1.263   1.416   2.450 -0.9072 -0.5007  0.3142
    5SOL     OW   13   1.184   1.555   2.896  0.3312  0.2593  0.0007
    5SOL    HW1   14   1.227   1.626   2.962  0.3507 -3.5301  1.8827
    5SOL    HW2   15   1.089   1.583   2.866  0.4862  0.2321 -0.5627
    6SOL     OW   16   0.272   1.809   3.010  0.1350 -0.7794  0.0178
    6SOL    HW1   17   0.167   1.801   3.022  0.1004  3.8320  0.2776
    6SOL    HW2   18   0.329   1.777   3.096  4.4855 -1.8986  1.2879
    7SOL     OW   19   2.466   0.894   1.055 -0.1547  0.0838  0.1369
    7SOL    HW1   20   2.378   0.855   1.093 -1.4505  0.8796 -0.1606
    7SOL    HW2   21   2.478   0.876   0.953 -1.7612 -0.4546 -1.4693
    8SOL     OW   22   0.337   0.686   1.515 -0.3363  0.2751 -0.1012
    8SOL    HW1   23   0.426   0.636   1.500 -1.1302  1.4104  0.7971
    8SOL    HW2   24   0.323   0.770   1.460 -3.2787 -1.2909 -1.1307
    9SOL     OW   25   1.157   0.835   2.400  0.2455 -0.3632 -0.7877
    9SOL    HW1   26   1.223   0.869   2.324  0.8429  0.1593  0.9356
    9SOL    HW2   27   1.121   0.741   2.386  0.8537 -0.0052 -0.9149
   10SOL     OW   28   0.691   1.374   1.309  0.3608  0.2075  0.0656
   10SOL    HW1   29   0.623   1.387   1.229 -0.2313  2.2725 -0.5229
   10SOL    HW2   30   0.742   1.455   1.330  0.5394 -0.9224  1.2973
   11SOL     OW   31   2.301   2.827   0.833 -0.1275 -0.1951  0.3482
   11SOL    HW1   32   2.260   2.818   0.926  0.2951  0.2072  0.9966
   11SOL    HW2   33   2.406   2.805   0.829  3.4390  1.9927 -1.1988
   12SOL     OW   34   1.520   0.880   0.423  0.3411  0.4497 -0.5440
   12SOL    HW1   35   1.441   0.910   0.363  0.2143  0.3303 -1.6982
   12SOL    HW2   36   1.576   0.806   0.373 -2.2342 -1.2564 -1.2224
   13SOL     OW   37   2.432   0.700   1.782 -0.1476 -0.8246  0.0017
   13SOL    HW1   38   2.356   0.643   1.814  3.0278  2.4976  3.1190
   13SOL    HW2   39   2.467   0.682   1.686 -0.3981 -1.4407  1.4247
   14SOL     OW   40   1.952   0.009   0.623  0.0501 -0.2753  0.0758
   14SOL    HW1   41   1.853   0.042   0.623  0.8839 -1.8132  0.9908
   14SOL    HW2   42   1.966  -0.057   0.705 -1.1935 -0.8624  1.1183
   15SOL     OW   43   1.881   2.076   2.665 -0.5312 -0.4030  0.4729
   15SOL    HW1   44   1.817   2.120   2.732  0.0623 -1.9452  0.7242
   15SOL    HW2   45   1.830   2.028   2.590 -0.5781 -1.5516 -0.4531
   16SOL     OW   46   1.604   1.732   2.998  0.2232  0.3639  0.5265
   16SOL    HW1   47   1.582   1.639   3.034  1.0548 -1.1677 -0.6037
   16SOL    HW2   48   1.695   1.760   3.041  1.4452  1.6483 -1.9875
   17SOL     OW   49   0.096   0.413   0.182  0.1369 -0.0082  0.4007
   17SOL    HW1   50   0.162   0.474   0.132  0.6018  1.0326  0.3628
   17SOL    HW2   51   0.021   0.397   0.117  1.0278  1.7196  0.3014
   18SOL     OW   52   0.892   2.980   2.159 -0.0732  0.2250 -0.1578
   18SOL    HW1   53   0.836   2.895   2.188 -2.1977  2.0671 -0.9423
   18SOL    HW2   54   0.951   2.953   2.084  0.3710  1.0477  2.7483
   19SOL     OW   55   0.550   0.847   1.886  0.1654  0.1374 -0.3510
   19SOL    HW1   56   0.586   0.797   1.966 -0.8046 -0.3939 -0.7826
   19SOL    HW2   57   0.607   0.932   1.863  0.6137 -0.1880  1.0388
   20SOL     OW   58   0.248   2.832   0.855  0.1660  0.0393 -0.1579
   20SOL    HW1   59   0.156   2.873   0.848 -0.7992  2.0689 -0.3320
   20SOL    HW2   60   0.268   2.748   0.793 -0.3977 -1.4494  2.1005
   21SOL     OW   61   2.768   0.267   1.963 -0.1782  0.4171 -0.1296
   21SOL    HW1   62   2.722   0.191   1.906  0.3717 -0.9134  0.1916
   21SOL    HW2   63   2.854   0.237   2.009 -2.3711 -1.0846  3.4665
   22SOL     OW   64   2.365   0.194   0.115  0.1702  0.0671  0.1595
   22SOL    HW1   65   2.350   0.097   0.082  0.8714 -1.8154  0.4839
   22SOL    HW2   66   2.308   0.251   0.057 -1.2724 -2.8205  0.5325
   23SOL     OW   67   2.834   0.565   0.680 -0.0585 -0.3419  0.4174
   23SOL    HW1   68   2.857   0.473   0.635  0.4687 -0.1242 -0.6680
   23SOL    HW2   69   2.831   0.637   0.603  2.4031 -0.3525  0.6705
   24SOL     OW   70   0.217   1.856   0.446  0.2576 -0.3477  0.3458
   24SOL    HW1   71   0.160   1.912   0.375  0.6592  2.8924 -1.0745
   24SOL    HW2   72   0.317   1.848   0.425  0.7243 -2.3354 -0.3743
   25SOL     OW   73   2.240   0.632   0.213  0.5603 -0.3572  0.1342
   25SOL    HW1   74   2.246   0.642   0.111  1.2941 -1.4362 -0.4431
   25SOL    HW2   75   2.302   0.555   0.248  2.6554  2.0741 -1.3203
   26SOL     OW   76   2.445   2.132   2.127  0.3973  0.2106 -0.1149
   26SOL    HW1   77   2.517   2.193   2.168 -0.0754 -0.5704  2.1941
   26SOL    HW2   78   2.482   2.058   2.066  0.6978  0.7118  0.1913
   27SOL     OW   79   0.601   2.955   0.206 -0.3827 -0.4015 -0.7387
   27SOL    HW1   80   0.689   3.007   0.178 -0.4926  0.8515 -0.1431
   27SOL    HW2   81   0.563   2.911   0.123  1.9507  1.1942 -4.1060
   28SOL     OW   82   1.618   0.105   0.339  0.6350 -0.1608 -0.4632
   28SOL    HW1   83   1.655   0.057   0.256 -0.9693 -0.0099  1.1396
   28SOL    HW2   84   1.643   0.210   0.339  2.1306  0.2135 -2.1395
   29SOL     OW   85   1.959   0.585   0.272  0.0865  0.3845 -0.0787
   29SOL    HW1   86   1.922   0.613   0.364  1.2751  0.9762  1.0594
   29SOL    HW2   87   2.059   0.609   0.266  0.1014 -0.6862  3.4889
   30SOL     OW   88   0.191   2.059   0.880  0.2182 -0.5576  0.0318
   30SOL    HW1   89   0.212   1.971   0.831  2.6461  1.0499  1.1260
   30SOL    HW2   90   0.087   2.078   0.876  0.5713  1.5631 -2.4625
   31SOL     OW   91   2.168   0.080   2.413  0.3312  0.1438  0.1026
   31SOL    HW1   92   2.114   0.055   2.500 -2.1055  1.5397 -1.7686
   31SOL    HW2   93   2.120   0.036   2.326  1.1048  1.7410 -2.5832
   32SOL     OW   94   2.968   3.075   0.272  0.3190 -0.8721  0.0036
   32SOL    HW1   95   2.924   2.982   0.268 -1.7547 -1.9944  0.2409
   32SOL    HW2   96   2.982   3.117   0.367  0.3442  1.5324 -1.5903
   33SOL     OW   97   0.866   0.212   0.640  0.3556 -0.4128  0.0057
   33SOL    HW1   98   0.859   0.154   0.553  0.9166 -0.2707 -1.6304
   33SOL    HW2   99   0.955   0.259   0.650 -3.3005 -0.7076 -0.5920
   34SOL     OW  100   0.315   2.726   1.104  0.6101  0.1073 -0.6185
   34SOL    HW1  101   0.285   2.765   1.013  3.0989  1.3324 -0.5981
   34SOL    HW2  102   0.406   2.770   1.121 -1.0309  0.3443  1.7448
   35SOL     OW  103   3.096   0.107   1.864 -0.1268 -0.0572 -0.1279
   35SOL    HW1  104   3.122   0.009   1.892 -2.1298 -2.9484 -0.1042
   35SOL    HW2  105   3.060   0.127   1.767  0.1369 -0.4584 -0.1788
   36SOL     OW  106   1.821   1.177   1.533  0.8068  0.4665  0.2285
   36SOL    HW1  107   1.904   1.115   1.541  2.4269 -0.6511  2.0400
   36SOL    HW2  108   1.833   1.249   1.458 -2.3786  0.4704 -0.2657
   37SOL     OW  109   1.150   0.175   0.972 -0.1666 -0.2219 -0.1615
   37SOL    HW1  110   1.169   0.273   0.990  0.0300 -0.8375  0.2667
   37SOL    HW2  111   1.238   0.119   0.962 -0.0908  2.9414  1.5477
   38SOL     OW  112   1.156   2.892   2.414  0.5409  0.5456 -0.3478
   38SOL    HW1  113   1.063   2.886   2.466 -1.6789  1.4697  1.4787
   38SOL    HW2  114   1.154   2.982   2.360 -3.2023 -2.2945  0.2381
   39SOL     OW  115   2.433   1.382   3.041  0.0189  0.5894  0.1491
   39SOL    HW1  116   2.526   1.336   3.062  1.8446 -1.0841  0.0974
   39SOL    HW2  117   2.376   1.379   3.126 -0.0502 -0.8644 -0.5254
   40SOL     OW  118   2.021   2.493   2.603  0.3658  0.7080  0.4747
   40SOL    HW1  119   1.999   2.593   2.586  1.4353 -1.6708 -2.7743
   40SOL    HW2  120   1.990   2.434   2.520 -0.4548  0.2612 -1.6711
   41SOL     OW  121   3.004   0.643   2.810 -0.0924 -0.2241  0.6624
   41SOL    HW1  122   2.941   0.726   2.816 -0.9472  2.4707 -1.6543
   41SOL    HW2  123   2.970   0.567   2.753  2.7353  0.3292 -1.1261
   42SOL     OW  124   1.750   1.763   0.559  0.4505 -0.1332  0.3070
   42SOL    HW1  125   1.692   1.673   0.557 -0.6619 -2.2292  0.1847
   42SOL    HW2  126   1.784   1.789   0.463  0.5018  1.9346  3.1110
   43SOL     OW  127   0.503   1.655   1.256  0.3784 -0.2780 -0.3161
   43SOL    HW1  128   0.506   1.559   1.212  1.2595 -1.8104 -1.0347
   43SOL    HW2  129   0.447   1.651   1.348 -1.0579 -1.3627 -0.6454
   44SOL     OW  130   1.672   2.417   2.994  0.0782 -0.4244 -0.1540
   44SOL    HW1  131   1.578   2.453   2.981  1.0489 -0.3343  1.0815
   44SOL    HW2  132   1.724   2.448   2.914 -3.0797 -0.8639 -1.2666
   45SOL     OW  133   0.358   1.910   2.547  0.1029 -0.3305 -0.0090
   45SOL    HW1  134   0.302   1.893   2.466 -0.7710  2.9986 -0.0009
   45SOL    HW2  135   0.428   1.833   2.554 -0.0102  0.9997 -3.1347
   46SOL     OW  136   1.299   0.665   0.240  0.0823  0.3856  0.6396
   46SOL    HW1  137   1.314   0.754   0.190  2.1052  1.7604  1.9180
   46SOL    HW2  138   1.212   0.612   0.205 -2.6501  2.3141  0.6120
   47SOL     OW  139   0.187   2.461   1.560 -0.1353 -0.4856 -0.3097
   47SOL    HW1  140   0.130   2.386   1.594 -0.4118  2.9288 -1.8411
   47SOL    HW2  141   0.190   2.461   1.458  0.2747  1.1828  0.0657
   48SOL     OW  142   2.660   0.613   0.143 -0.1015  0.6457 -0.0101
   48SOL    HW1  143   2.621   0.619   0.236 -0.2154 -0.9837 -1.5861
   48SOL    HW2  144   2.761   0.628   0.131  1.7074 -3.2290  0.4466
   49SOL     OW  145   0.324   0.776   1.769  0.9462  0.3899  0.3792
   49SOL    HW1  146   0.408   0.799   1.829  0.9706  0.1691  1.2959
   49SOL    HW2  147   0.342   0.744   1.669  1.3758  0.9962  0.9279
   50SOL     OW  148   1.727   1.123   0.298  0.0503  0.1111  0.3720
   50SOL    HW1  149   1.759   1.027   0.270  0.0755 -1.0383  0.6724
   50SOL    HW2  150   1.677   1.122   0.390 -0.3956  0.8535  2.3874
   51SOL     OW  151   3.029   1.756   0.246 -0.3928 -0.2521  0.6395
   51SOL    HW1  152   2.961   1.689   0.206  2.7703 -1.3981 -2.4066
   51SOL    HW2  153   3.088   1.707   0.317  0.1169 -0.8440  2.7816
   52SOL     OW  154   0.794   2.135   0.655  0.0379  0.2955 -0.1849
   52SOL    HW1  155   0.692   2.119   0.645  2.0490  1.3997  1.4545
   52SOL    HW2  156   0.830   2.084   0.735  1.2600  0.3587  1.0593
   53SOL     OW  157   0.188   0.427   1.560  0.5617  0.0723 -1.0321
   53SOL    HW1  158   0.248   0.512   1.560  1.1886  1.1765  1.2107
   53SOL    HW2  159   0.114   0.434   1.484  1.5881 -0.7241 -1.3196
   54SOL     OW  160   1.801   0.489   3.083 -0.2886  0.2779  0.3030
   54SOL    HW1  161   1.861   0.415   3.129  1.1573 -1.3179 -1.6243
   54SOL    HW2  162   1.700   0.481   3.089  1.8315  1.0278 -1.7393
   55SOL     OW  163   0.752   2.905   0.714 -0.7412  0.1432  0.5271
   55SOL    HW1  164   0.722   3.003   0.720  0.0936 -1.7489 -0.8506
   55SOL    HW2  165   0.842   2.892   0.666 -2.8999  1.5987 -0.2985
   56SOL     OW  166   0.588   1.619   3.068 -0.0066 -0.5051  0.0760
   56SOL    HW1  167   0.515   1.659   3.129  1.6660 -2.0779 -0.0067
   56SOL    HW2  168   0.567   1.525   3.032  2.0032  0.6095 -3.2808
   57SOL     OW  169   1.774   2.496   2.417 -0.4092  0.1130  0.0297
   57SOL    HW1  170   1.834   2.417   2.386  1.4696 -1.2256 -2.4104
   57SOL    HW2  171   1.672   2.472   2.418 -0.4953 -0.7334 -0.5360
   58SOL     OW  172   0.674   0.257   1.119  0.2700 -0.3103 -0.6361
   58SOL    HW1  173   0.571   0.266   1.133  0.7469 -2.3588  0.0033
   58SOL    HW2  174   0.703   0.156   1.137 -0.8059 -0.5479  1.5663
   59SOL     OW  175   0.443   2.413   2.730  0.2712  0.0826  0.0744
   59SOL    HW1  176   0.449   2.306   2.732  1.4160 -3.3719  0.5588
   59SOL    HW2  177   0.535   2.452   2.719 -1.2894  3.1986 -0.7817
   60SOL     OW  178   2.294   2.122   2.348 -0.2452 -0.0668  0.1095
   60SOL    HW1  179   2.358   2.109   2.269  1.6238 -0.2351  2.3238
   60SOL    HW2  180   2.340   2.166   2.427 -3.2281 -1.0483  0.7875
   61SOL     OW  181   1.226   0.647   0.509 -0.2137  0.0334  0.7351
   61SOL    HW1  182   1.133   0.684   0.530  1.6909 -0.3123 -2.4730
   61SOL    HW2  183   1.247   0.680   0.418 -1.9892  1.1301  0.8053
   62SOL     OW  184   2.708   1.711   2.768 -0.1330 -0.2213 -0.4212
   62SOL    HW1  185   2.685   1.686   2.672  0.0658 -3.2727 -0.3974
   62SOL    HW2  186   2.802   1.673   2.801  1.2519  0.4548  2.9637
   63SOL     OW  187   0.554   0.914   0.202 -0.2258 -0.1525  0.0984
   63SOL    HW1  188   0.620   0.964   0.138 -0.8803  1.5807  0.0612
   63SOL    HW2  189   0.599   0.898   0.294  0.2065  0.6675  0.6924
   64SOL     OW  190   3.037   0.582   2.348  0.0749 -0.0277 -0.1182
   64SOL    HW1  191   2.955   0.619   2.398  0.8897  0.1886 -2.8037
   64SOL    HW2  192   3.035   0.627   2.256 -2.8066 -0.4293 -1.9129
   65SOL     OW  193   0.207   1.444   0.707 -0.2052 -0.2385  0.1192
   65SOL    HW1  194   0.187   1.519   0.781 -1.3062 -1.8334  0.3080
   65SOL    HW2  195   0.276   1.486   0.642  0.0319 -0.3767  3.0774
   66SOL     OW  196   2.526   0.397   0.518  0.1009 -0.4490  0.3807
   66SOL    HW1  197   2.618   0.369   0.477  1.7436  3.0445 -1.3158
   66SOL    HW2  198   2.499   0.340   0.601  2.4053  1.1997 -1.4937
   67SOL     OW  199   0.644   2.477   1.447  0.0486 -0.0559  0.5299
   67SOL    HW1  200   0.734   2.434   1.485  0.3001  2.3396  2.9782
   67SOL    HW2  201   0.569   2.410   1.427  1.2622  0.3565 -0.6445
   68SOL     OW  202   0.993   1.031   2.492 -0.1103 -0.4144 -0.2960
   68SOL    HW1  203   1.049   0.961   2.443 -0.2031  0.1219  0.4437
   68SOL    HW2  204   0.924   1.068   2.423 -5.5465 -1.0463  1.9113
   69SOL     OW  205   0.795   2.756   2.241  0.1678 -0.0847  0.8352
   69SOL    HW1  206   0.838   2.689   2.176 -1.3627  0.6672 -0.5897
   69SOL    HW2  207   0.692   2.753   2.240  0.6013 -2.0598 -0.1063
   70SOL     OW  208   0.442   0.104   2.497 -0.2092 -0.0181 -0.5656
   70SOL    HW1  209   0.380   0.110   2.577  2.4118 -1.8151  0.9091
   70SOL    HW2  210   0.506   0.023   2.515 -0.3243  1.0634  2.6421
   71SOL     OW  211   1.094   1.743   0.316 -0.2885 -0.7675  0.0229
   71SOL    HW1  212   1.037   1.688   0.381 -1.3058  0.1267  2.4334
   71SOL    HW2  213   1.040   1.787   0.239  0.8277 -1.2160  0.8357
   72SOL     OW  214   1.828   0.194   2.165  0.2160  0.7830 -0.2015
   72SOL    HW1  215   1.885   0.273   2.186 -1.7528 -3.4717 -0.6555
   72SOL    HW2  216   1.874   0.100   2.164 -1.4242 -1.3887  2.3932
   73SOL     OW  217   2.792   2.171   2.418 -0.1217  0.5134  0.8934
   73SOL    HW1  218   2.769   2.072   2.406  2.1268  0.1522  1.8970
   73SOL    HW2  219   2.828   2.190   2.512 -1.1026 -0.1329  0.0198
   74SOL     OW  220   2.706   2.873   2.175  0.4049 -0.1140 -0.6874
   74SOL    HW1  221   2.667   2.864   2.266  1.3582  1.3169 -1.5991
   74SOL    HW2  222   2.798   2.927   2.174  1.7649  1.3878  1.7410
   75SOL     OW  223   0.955   0.883   1.096  0.3175 -0.0477  0.7104
   75SOL    HW1  224   0.871   0.940   1.066 -0.9288  2.0793 -2.1603
   75SOL    HW2  225   0.989   0.890   1.196  4.1992  1.6975  0.8229
   76SOL     OW  226   1.857   1.274   2.475  0.1237  0.4763  0.5586
   76SOL    HW1  227   1.756   1.252   2.475  1.5646  0.4244  4.0149
   76SOL    HW2  228   1.865   1.341   2.554 -0.2395 -1.2213  0.5564
   77SOL     OW  229   2.902   0.926   1.051 -0.3088  0.2803  0.2833
   77SOL    HW1  230   2.860   0.831   1.039  0.3564  0.8370 -1.4881
   77SOL    HW2  231   2.992   0.935   1.108  2.2383 -0.3472  1.0111
   78SOL     OW  232   2.020   1.353   1.370 -0.4549 -0.6995 -0.4815
   78SOL    HW1  233   2.124   1.367   1.378  0.9992 -0.6700 -0.5354
   78SOL    HW2  234   1.987   1.401   1.282  1.7295  1.2312  0.2724
   79SOL     OW  235   0.681   1.406   0.804  0.3800 -0.6647 -0.2830
   79SOL    HW1  236   0.577   1.387   0.812 -0.0095  1.0052  1.4833
   79SOL    HW2  237   0.737   1.329   0.763  0.1946  4.8576  0.0854
   80SOL     OW  238   0.606   0.515   1.522 -0.6061  0.2903  0.5698
   80SOL    HW1  239   0.673   0.580   1.476 -3.5848  0.8733  0.2671
   80SOL    HW2  240   0.619   0.417   1.494 -3.5437  1.7162  1.0953
   81SOL     OW  241   0.986   1.304   2.619 -0.2871 -0.5068 -0.3012
   81SOL    HW1  242   0.953   1.207   2.621 -0.8268  0.7769  3.4239
   81SOL    HW2  243   0.943   1.358   2.541  1.2618 -3.8003  0.2549
   82SOL     OW  244   1.010   2.855   1.529 -0.4596  0.6274 -0.6277
   82SOL    HW1  245   0.919   2.812   1.503 -0.2473  0.4271  3.4262
   82SOL    HW2  246   1.051   2.915   1.454  1.6702 -1.6166 -1.2869
   83SOL     OW  247   2.547   2.375   0.874  0.0037 -0.3025  0.0636
   83SOL    HW1  248   2.472   2.336   0.821  1.8981  0.8282 -0.9028
   83SOL    HW2  249   2.554   2.479   0.858  1.6291 -3.4927 -1.7781
   84SOL     OW  250   0.753   0.018   2.337  0.1142  0.2221 -0.1145
   84SOL    HW1  251   0.719  -0.038   2.414 -0.0177  2.5220 -0.3109
   84SOL    HW2  252   0.829  -0.024   2.278  1.1586 -0.7732  0.4879
   85SOL     OW  253   0.266   1.635   1.417 -0.5097  0.6122  0.3496
   85SOL    HW1  254   0.231   1.730   1.428  1.9585 -1.2356 -0.7163
   85SOL    HW2  255   0.320   1.613   1.498 -0.5478 -1.1900 -0.9132
   86SOL     OW  256   0.406   1.038   1.556 -0.3385 -0.6712  0.1997
   86SOL    HW1  257   0.370   0.984   1.471  0.5281 -0.5245 -0.5641
   86SOL    HW2  258   0.512   1.035   1.567  2.4027 -1.3030  2.2181
   87SOL     OW  259   1.630   0.685   0.279  0.0346  0.0228  0.5413
   87SOL    HW1  260   1.715   0.748   0.283 -1.1524  0.5182 -2.4773
   87SOL    HW2  261   1.605   0.652   0.176 -0.0680  2.8109 -2.5874
   88SOL     OW  262   1.604   1.391   0.287  0.1607  0.4761  0.0549
   88SOL    HW1  263   1.659   1.303   0.278 -0.4211  0.7915  0.0691
   88SOL    HW2  264   1.505   1.379   0.303  0.4925  1.9240 -0.2251
   89SOL     OW  265   0.007   0.307   0.617  0.2288  0.3618 -0.6744
   89SOL    HW1  266   0.097   0.247   0.612  1.8684 -1.0438  1.6538
   89SOL    HW2  267  -0.073   0.255   0.580 -1.5435  0.7103 -0.6682
   90SOL     OW  268   0.775   1.580   0.169 -0.1399  0.0489 -0.0725
   90SOL    HW1  269   0.840   1.499   0.180 -0.2342  1.6552  0.0212
   90SOL    HW2  270   0.725   1.582   0.080 -2.0483  0.8701  1.3494
   91SOL     OW  271   1.201   1.459   1.767 -0.5018  0.3488  0.1567
   91SOL    HW1  272   1.225   1.539   1.825  0.1697 -2.4703 -0.4733
   91SOL    HW2  273   1.277   1.392   1.764 -2.3643 -1.4203  0.4983
   92SOL     OW  274   0.008   0.977   1.213  0.0091  0.5805 -0.4046
   92SOL    HW1  275   0.056   1.066   1.181 -1.6023  2.5939 -0.9835
   92SOL    HW2  276   0.011   0.964   1.317  0.3312 -2.1273  0.3436
   93SOL     OW  277   3.064   2.706   0.047 -0.3262  0.2624 -0.2815
   93SOL    HW1  278   3.010   2.682  -0.040 -2.9035  0.3888 -1.0957
   93SOL    HW2  279   3.099   2.618   0.099  1.3509 -0.7311  0.7348
   94SOL     OW  280   1.490   1.409   1.740  0.3709 -0.3741 -0.1080
   94SOL    HW1  281   1.558   1.334   1.754  1.0557  1.1137  0.7148
   94SOL    HW2  282   1.518   1.505   1.781 -1.6679 -0.5599  0.6220
   95SOL     OW  283   1.385   2.495   2.954  0.0186 -0.0574 -0.3344
   95SOL    HW1  284   1.288   2.505   2.993 -2.2071 -0.8786  0.6996
   95SOL    HW2  285   1.393   2.406   2.907 -1.6082  1.9660 -0.2059
   96SOL     OW  286   0.566   2.099   1.266  0.1288 -0.0520 -0.5550
   96SOL    HW1  287   0.495   2.045   1.216  0.5626  0.0252  0.4628
   96SOL    HW2  288   0.622   2.041   1.329 -0.2615  2.0389 -1.8571
   97SOL     OW  289   0.300   1.642   2.430 -0.1739  0.3950 -0.1024
   97SOL    HW1  290   0.248   1.710   2.376 -0.6835 -0.7065  0.3495
   97SOL    HW2  291   0.267   1.628   2.530  1.9985 -0.9927  1.9835
   98SOL     OW  292   2.200   1.629   1.234  0.2188  0.2464  0.6262
   98SOL    HW1  293   2.115   1.573   1.214  0.8154  0.6020  0.6175
   98SOL    HW2  294   2.290   1.600   1.188  4.0766  2.5893  0.7840
   99SOL     OW  295   2.566   2.146   1.319  0.2818  0.1772  0.4684
   99SOL    HW1  296   2.642   2.148   1.395  1.1479 -0.5434 -1.5083
   99SOL    HW2  297   2.514   2.060   1.316  1.5216 -0.0892 -1.9238
  100SOL     OW  298   2.311   0.407   2.102  0.2063 -0.1988  0.0767
  100SOL    HW1  299   2.263   0.411   2.196  1.3415  1.6619  0.1773
  100SOL    HW2  300   2.406   0.445   2.100 -2.6268  0.0503 -0.7129
  101SOL     OW  301   0.388   1.537   0.525  0.0469  0.4025  0.1419
  101SOL    HW1  302   0.418   1.615   0.589  1.7801 -0.3147 -0.0504
  101SOL    HW2  303   0.456   1.530   0.440  2.9072 -2.3809 -2.0150
  102SOL     OW  304   2.309   1.081   0.853  0.1163  0.1787  0.7513
  102SOL    HW1  305   2.268   0.995   0.824  1.6813  0.2534 -0.2768
  102SOL    HW2  306   2.411   1.091   0.829 -0.0213  2.0375 -0.2705
  103SOL     OW  307   2.243   0.068   0.332  0.1257 -0.0701  0.3416
  103SOL    HW1  308   2.274   0.130   0.254 -0.3650 -0.7323 -0.2049
  103SOL    HW2  309   2.313   0.046   0.405  0.9192  0.5339 -0.6591
  104SOL     OW  310   0.046   1.838   2.099 -0.2615 -0.8449  0.0385
  104SOL    HW1  311   0.092   1.838   2.007 -0.0853  2.8106  1.3730
  104SOL    HW2  312  -0.055   1.842   2.093 -2.1311 -0.5527  2.3290
  105SOL     OW  313   1.334   2.096   0.778  0.7954  0.1588  0.3557
  105SOL    HW1  314   1.319   2.144   0.688  1.9143 -2.0327  1.1588
  105SOL    HW2  315   1.356   1.997   0.766  0.9139  0.8477 -0.8034
  106SOL     OW  316   2.105   0.400   1.422  0.4506 -0.3256  0.6557
  106SOL    HW1  317   2.073   0.299   1.410  1.5356 -1.9385  1.9955
  106SOL    HW2  318   2.084   0.427   1.521 -0.2592  2.3234  0.7719
  107SOL     OW  319   1.969   2.952   1.209 -0.2332 -0.0687  0.0102
  107SOL    HW1  320   1.915   3.040   1.228  0.9045 -0.3160 -1.2766
  107SOL    HW2  321   1.920   2.892   1.140 -1.9863  1.7847 -0.5597
  108SOL     OW  322   0.850   2.828   1.172 -0.6751  0.4084 -0.0202
  108SOL    HW1  323   0.836   2.731   1.205 -2.7433  1.1992  1.9576
  108SOL    HW2  324   0.942   2.863   1.202 -0.2700 -0.3002  1.7871
  109SOL     OW  325   2.141   0.172   0.722  0.1601  0.0965 -0.9111
  109SOL    HW1  326   2.067   0.115   0.673 -1.6854  0.1488  0.9458
  109SOL    HW2  327   2.160   0.134   0.814 -1.6572  0.9042  0.3387
  110SOL     OW  328   0.465   2.780   2.781  0.3542 -0.4422  0.3294
  110SOL    HW1  329   0.440   2.760   2.680  0.3432 -0.3362 -0.6526
  110SOL    HW2  330   0.530   2.709   2.818 -2.6989  2.5373 -2.5723
  111SOL     OW  331   1.280   0.495   2.311 -0.3147  0.1329 -0.2327
  111SOL    HW1  332   1.187   0.528   2.348  2.5213 -1.2410 -0.3874
  111SOL    HW2  333   1.336   0.441   2.383  2.7598 -0.1465 -1.9142
  112SOL     OW  334   1.773   0.391   1.515 -0.0889 -0.3363 -0.1366
  112SOL    HW1  335   1.757   0.409   1.411 -1.9733  0.5539 -1.0824
  112SOL    HW2  336   1.687   0.384   1.564  1.3636 -0.3871 -0.5656
  113SOL     OW  337   2.394   1.680   1.717 -0.2440  0.0469  0.0100
  113SOL    HW1  338   2.382   1.575   1.728 -3.0436  1.8364  1.5122
  113SOL    HW2  339   2.419   1.726   1.808 -0.7045  0.3028 -1.2790
  114SOL     OW  340   0.292   0.476   1.196  0.0326  0.1998  0.3409
  114SOL    HW1  341   0.372   0.527   1.147  2.5073  2.0031 -1.7083
  114SOL    HW2  342   0.213   0.538   1.207 -0.2077  0.0194 -1.2087
  115SOL     OW  343   2.739   1.542   1.228 -0.6775 -0.2300 -0.7216
  115SOL    HW1  344   2.709   1.446   1.259 -0.4170  0.8529 -1.2091
  115SOL    HW2  345   2.817   1.537   1.163 -2.7179 -1.0356  1.4117
  116SOL     OW  346   1.887   0.945   0.708 -0.2349 -0.3791  0.9254
  116SOL    HW1  347   1.802   0.891   0.694 -3.6975  1.5148  0.0915
  116SOL    HW2  348   1.876   1.047   0.707 -3.1649  1.2823  1.9653
  117SOL     OW  349   1.121   0.368   0.560 -0.4898 -0.5076 -0.1537
  117SOL    HW1  350   1.185   0.452   0.565  0.2264  1.1643 -1.4530
  117SOL    HW2  351   1.116   0.331   0.466  1.5843  1.8286  3.5018
  118SOL     OW  352   1.100   1.206   1.097  0.2903  0.0135 -0.4407
  118SOL    HW1  353   1.001   1.196   1.127 -1.0431  2.8160  0.8344
  118SOL    HW2  354   1.136   1.304   1.115 -1.4419  0.2664 -2.0130
  119SOL     OW  355   1.862   1.567   2.204 -0.3235 -0.5590  0.3371
  119SOL    HW1  356   1.804   1.626   2.146 -1.1985 -0.9923  2.3711
  119SOL    HW2  357   1.962   1.558   2.168 -1.3923  0.1517  0.7338
  120SOL     OW  358   2.890   2.794   0.247 -0.2904 -0.1098 -0.1325
  120SOL    HW1  359   2.966   2.773   0.180  0.4318  2.4403  0.6686
  120SOL    HW2  360   2.796   2.766   0.217 -0.0134  3.6307  1.7140
  121SOL     OW  361   1.900   0.744   2.199  1.1756  0.0629  0.8247
  121SOL    HW1  362   1.931   0.793   2.113 -0.2454  0.8394  2.6239
  121SOL    HW2  363   1.933   0.645   2.193  0.1514 -0.6313 -0.8580
  122SOL     OW  364   2.570   2.511   1.346 -0.7716 -0.1740 -0.2922
  122SOL    HW1  365   2.602   2.534   1.248  2.3993  3.1433 -2.8268
  122SOL    HW2  366   2.631   2.443   1.397  0.0056  0.8954  1.9538
  123SOL     OW  367   1.733   0.146   1.732 -0.0965  0.2166 -0.0507
  123SOL    HW1  368   1.729   0.055   1.681  2.8623  3.2363 -0.9108
  123SOL    HW2  369   1.828   0.193   1.716 -2.1556 -0.7141  3.1383
  124SOL     OW  370   3.064   0.472   1.078  0.0416 -0.2924 -0.6820
  124SOL    HW1  371   2.981   0.524   1.110  2.2775  0.0668  0.8975
  124SOL    HW2  372   3.095   0.492   0.981  0.3801 -2.1249 -0.8753
  125SOL     OW  373   0.883   1.900   0.784 -0.2388 -0.2173  0.5524
  125SOL    HW1  374   0.982   1.864   0.771 -2.5673  0.6150  0.0310
  125SOL    HW2  375   0.860   1.924   0.879  1.2293  1.5646  1.7334
  126SOL     OW  376   1.959   2.287   2.433 -0.4840  0.2934 -0.4224
  126SOL    HW1  377   1.999   2.244   2.348 -0.6715 -0.9977 -0.2991
  126SOL    HW2  378   1.930   2.213   2.496 -2.0018 -1.5689 -0.5030
  127SOL     OW  379   0.891   0.977   0.210 -0.0921  0.4367  0.2807
  127SOL    HW1  380   0.921   1.013   0.304  1.2667 -1.4220  0.6651
  127SOL    HW2  381   0.887   0.871   0.202 -1.9528 -1.9175 -1.1422
  128SOL     OW  382   0.941   0.277   1.419 -0.4888 -0.1897 -0.2779
  128SOL    HW1  383   0.909   0.328   1.336  4.0039  0.6404  1.1572
  128SOL    HW2  384   0.885   0.199   1.445  2.1598  2.5039  2.1672
  129SOL     OW  385   1.864   0.688   1.836 -0.2390  0.3490 -0.0276
  129SOL    HW1  386   1.881   0.672   1.733  1.2956 -1.9794 -1.9095
  129SOL    HW2  387   1.856   0.793   1.860  1.9034  2.5085 -0.7549
  130SOL     OW  388   1.387   2.255   1.005 -0.8923  0.3751 -0.4007
  130SOL    HW1  389   1.361   2.190   0.929 -0.0699  0.9302  1.5338
  130SOL    HW2  390   1.461   2.321   0.977  0.4851  0.4410 -2.0351
  131SOL     OW  391   3.060   1.445   1.368  0.0598  0.3521  0.1724
  131SOL    HW1  392   2.980   1.387   1.384  4.2666  0.4775 -1.5391
  131SOL    HW2  393   3.145   1.389   1.372 -0.5206  1.0691  0.1842
  132SOL     OW  394   2.028   2.369   0.513  0.3351 -0.0054 -0.5380
  132SOL    HW1  395   1.933   2.414   0.524 -0.9935  0.2936 -0.3496
  132SOL    HW2  396   2.040   2.281   0.571  0.8844 -0.5334 -1.1382
  133SOL     OW  397   1.791   2.372   2.714 -0.2973  0.6880 -0.0080
  133SOL    HW1  398   1.719   2.419   2.662  0.3879 -2.7150  0.3039
  133SOL    HW2  399   1.887   2.412   2.716 -1.4092  1.3548 -0.9374
  134SOL     OW  400   2.704   2.389   1.600  0.1643 -0.0059 -0.0796
  134SOL    HW1  401   2.639   2.377   1.684 -1.6339  0.9821  0.2833
  134SOL    HW2  402   2.800   2.423   1.624  0.5217  1.0978 -2.1102
  135SOL     OW  403   0.718   1.432   2.699  0.5498  0.3659 -0.0962
  135SOL    HW1  404   0.688   1.342   2.751 -0.4794 -0.6967  3.3768
  135SOL    HW2  405   0.711   1.429   2.593  0.3457 -1.6824 -0.3891
  136SOL     OW  406   1.178   2.032   0.404 -0.3359  0.4222 -0.4648
  136SOL    HW1  407   1.098   2.087   0.433  1.3478 -0.3516  2.3239
  136SOL    HW2  408   1.163   1.931   0.426  0.1869  0.7936 -1.5375
  137SOL     OW  409   0.408   1.234   2.238 -0.1148  0.1085  0.3302
  137SOL    HW1  410   0.311   1.222   2.283 -1.0780 -1.8557  0.7204
  137SOL    HW2  411   0.461   1.146   2.235  0.4716 -2.1972 -0.8435
  138SOL     OW  412   2.446   1.529   0.289 -0.0859 -0.1429 -0.4052
  138SOL    HW1  413   2.383   1.494   0.216  3.5512 -0.3850 -0.7220
  138SOL    HW2  414   2.490   1.450   0.340 -1.5151 -1.1447 -0.9963
  139SOL     OW  415   1.878   2.637   1.542 -0.0262  0.0681  0.5861
  139SOL    HW1  416   1.778   2.643   1.567 -2.1409 -0.2342  3.5117
  139SOL    HW2  417   1.893   2.554   1.478  0.2910 -0.2974  0.5277
  140SOL     OW  418   3.008   2.969   2.628 -0.5443 -0.4421  0.2417
  140SOL    HW1  419   3.048   2.876   2.597 -0.3300 -3.0574  0.4950
  140SOL    HW2  420   3.063   3.053   2.592  2.5422 -1.3303 -1.7745
  141SOL     OW  421   1.315   1.617   1.556 -0.1575 -0.0101 -0.4992
  141SOL    HW1  422   1.230   1.677   1.557 -1.1998  1.3086 -1.8786
  141SOL    HW2  423   1.311   1.547   1.631 -1.6972  1.3561  0.0894
  142SOL     OW  424   1.506   0.633   2.240 -0.9816  0.6398 -0.1547
  142SOL    HW1  425   1.525   0.627   2.137  1.4951 -1.0773  0.5894
  142SOL    HW2  426   1.408   0.605   2.266  0.9134 -1.8386 -1.8455
  143SOL     OW  427   2.775   0.788   0.545 -0.7593 -0.6016 -0.1700
  143SOL    HW1  428   2.818   0.849   0.473  0.9538  0.2644  2.1434
  143SOL    HW2  429   2.785   0.837   0.644  2.4695 -0.6503  1.6363
  144SOL     OW  430   2.919   1.180   1.448  0.5212 -0.0920 -0.2554
  144SOL    HW1  431   2.889   1.194   1.545 -0.5001 -0.2889  0.0897
  144SOL    HW2  432   2.989   1.107   1.442 -2.0771 -1.3973 -2.4937
  145SOL     OW  433   0.901   1.856   0.102 -0.4135  0.4699 -0.1059
  145SOL    HW1  434   0.920   1.874   0.003 -3.8092  1.1911 -0.4843
  145SOL    HW2  435   0.859   1.759   0.118  0.1734 -0.3380  1.6461
  146SOL     OW  436   2.461   0.663   1.501 -0.0684  0.0494  0.1763
  146SOL    HW1  437   2.421   0.573   1.462  1.0628 -1.2195  4.0238
  146SOL    HW2  438   2.418   0.747   1.457 -2.2598  0.3735 -0.1557
  147SOL     OW  439   1.118   2.519   0.599  0.0532 -0.2690  0.4797
  147SOL    HW1  440   1.061   2.563   0.525 -0.9705 -0.1079  2.4278
  147SOL    HW2  441   1.208   2.481   0.562  2.3227  2.3329 -0.0089
  148SOL     OW  442   1.588   1.466   3.082  0.2688  0.2095 -0.1437
  148SOL    HW1  443   1.565   1.380   3.026  1.7200  0.6492  1.1490
  148SOL    HW2  444   1.556   1.460   3.182 -1.1311 -0.7326 -2.0539
  149SOL     OW  445   0.682   1.514   1.961 -0.5139  0.1944 -0.6253
  149SOL    HW1  446   0.587   1.481   1.984  1.1762  1.4238  1.8401
  149SOL    HW2  447   0.729   1.461   1.888 -0.7248  1.5225  1.2173
  150SOL     OW  448   3.027   1.179   0.981  0.1583 -0.6082  0.2939
  150SOL    HW1  449   3.067   1.221   1.069 -2.2700 -0.2237 -0.4245
  150SOL    HW2  450   2.984   1.081   0.995 -0.4081 -2.3592  0.4701
  151SOL     OW  451   0.293   0.800   2.051 -0.5283 -0.0640  0.6782
  151SOL    HW1  452   0.289   0.879   1.985  1.4141 -0.5869 -0.7809
  151SOL    HW2  453   0.309   0.703   2.008  0.5185 -2.2267  2.4393
  152SOL     OW  454   1.419   1.842   1.129 -0.0004  0.2937 -0.2268
  152SOL    HW1  455   1.463   1.937   1.154 -0.1687  2.3733 -0.0707
  152SOL    HW2  456   1.325   1.854   1.081  1.2751 -0.4397 -1.0222
  153SOL     OW  457   0.156   1.504   0.216 -0.7657 -0.4021 -0.0243
  153SOL    HW1  458   0.105   1.418   0.215  1.0377 -0.4485  0.0328
  153SOL    HW2  459   0.146   1.551   0.306 -0.1853  0.0513 -0.9541
  154SOL     OW  460   2.270   1.845   2.770 -0.1244 -0.9267  0.0423
  154SOL    HW1  461   2.296   1.745   2.771 -1.1617  0.1508 -0.9560
  154SOL    HW2  462   2.352   1.902   2.730 -0.9067  0.5190 -0.1988
  155SOL     OW  463   2.442   1.250   0.335  0.5015  0.3553  0.0634
  155SOL    HW1  464   2.543   1.238   0.333 -0.5499 -2.1975 -1.1627
  155SOL    HW2  465   2.387   1.164   0.362  0.4272 -0.4526  1.2839
  156SOL     OW  466   2.451   0.822   0.713 -0.5316  0.1357 -0.5735
  156SOL    HW1  467   2.347   0.832   0.713 -0.3804  1.7126 -0.4891
  156SOL    HW2  468   2.497   0.879   0.642 -2.4485  3.6667  1.1596
  157SOL     OW  469   1.213   2.962   3.015 -0.1161  0.3791 -0.2199
  157SOL    HW1  470   1.295   2.928   2.966 -0.0238  1.6752 -0.1459
  157SOL    HW2  471   1.233   3.065   3.041 -2.1253  3.9189  2.0797
  158SOL     OW  472   1.067   1.851   1.832  0.5243  0.1804  0.3802
  158SOL    HW1  473   1.086   1.951   1.813 -1.0402 -1.7959  0.6255
  158SOL    HW2  474   0.984   1.837   1.893 -0.8138  1.3194 -0.4365
  159SOL     OW  475   0.851   0.446   1.228 -0.0540  0.1454  0.2444
  159SOL    HW1  476   0.806   0.529   1.265 -0.2249 -2.8132 -0.3150
  159SOL    HW2  477   0.789   0.390   1.163  0.5645 -3.6355  2.1490
  160SOL     OW  478   1.430   2.436   1.493  1.0805  0.1759 -0.4709
  160SOL    HW1  479   1.374   2.364   1.540 -0.9357  2.1232 -4.3034
  160SOL    HW2  480   1.524   2.402   1.477  1.2147  1.3383 -1.0332
  161SOL     OW  481   3.039   2.645   0.460 -0.0517 -0.5250 -0.1145
  161SOL    HW1  482   3.003   2.549   0.436 -2.9030  1.1880 -1.8295
  161SOL    HW2  483   2.978   2.712   0.413  1.4956 -3.5172 -2.3479
  162SOL     OW  484   2.590   1.845   0.458  0.3917  0.7548  0.3825
  162SOL    HW1  485   2.594   1.832   0.353  0.8580  0.9674  0.8178
  162SOL    HW2  486   2.526   1.781   0.513 -2.2546 -1.1038 -2.7687
  163SOL     OW  487   1.952   2.694   0.745  0.1232  0.4727  0.1634
  163SOL    HW1  488   1.941   2.714   0.641  1.8813 -0.6115 -1.8598
  163SOL    HW2  489   2.017   2.615   0.761 -0.5069 -0.7800 -0.0062
  164SOL     OW  490   3.040   0.213   1.207  0.6833  0.3470 -0.2884
  164SOL    HW1  491   3.038   0.311   1.167  1.6940 -1.4466  0.1290
  164SOL    HW2  492   3.118   0.189   1.276 -0.8128  0.0605 -1.7282
  165SOL     OW  493   1.106   1.403   0.671 -0.2491 -0.1658  0.1860
  165SOL    HW1  494   1.102   1.445   0.767  3.2915 -2.7384 -0.5308
  165SOL    HW2  495   1.067   1.472   0.603  3.0633  2.2424 -1.9028
  166SOL     OW  496   1.518   1.014   1.783 -0.6910 -0.1979  0.3886
  166SOL    HW1  497   1.430   1.044   1.833  0.3861 -0.7412  1.2900
  166SOL    HW2  498   1.583   1.099   1.776  0.2066 -0.5265 -3.0407
  167SOL     OW  499   0.760   1.953   1.461 -1.0089 -0.0318  0.1200
  167SOL    HW1  500   0.754   2.024   1.536  1.4792 -0.7376  0.8662
  167SOL    HW2  501   0.704   1.871   1.479 -0.4704  2.3450 -2.8873
  168SOL     OW  502   1.558   2.338   0.158 -0.2979 -0.2895 -0.1173
  168SOL    HW1  503   1.593   2.383   0.072  0.1616  3.1344 -0.0683
  168SOL    HW2  504   1.632   2.306   0.225 -0.3951  0.4105 -0.1427
  169SOL     OW  505   0.074   2.567   2.190 -0.0925 -0.7450 -0.5519
  169SOL    HW1  506   0.131   2.515   2.117 -1.3678  1.9865 -2.1431
  169SOL    HW2  507   0.128   2.558   2.281  1.6980 -0.7473  1.4148
  170SOL     OW  508   1.147   0.204   2.043  0.1705 -0.3701  0.0343
  170SOL    HW1  509   1.236   0.228   2.098 -2.6405 -3.1502  1.5566
  170SOL    HW2  510   1.166   0.172   1.945  1.2379  0.9137 -1.4779
  171SOL     OW  511   0.212   0.858   2.364 -0.3251  0.1241 -0.4234
  171SOL    HW1  512   0.118   0.860   2.403  3.0055 -1.2264 -0.5760
  171SOL    HW2  513   0.214   0.836   2.261  3.3371  0.5462 -2.1214
  172SOL     OW  514   0.972   1.035   2.875  0.2810  0.1331 -0.6488
  172SOL    HW1  515   0.907   1.108   2.899  0.1186 -0.3995 -1.4969
  172SOL    HW2  516   0.928   0.962   2.818 -0.0038  1.4059 -1.7395
  173SOL     OW  517   0.491   2.463   0.100  0.0018  0.1310 -0.4335
  173SOL    HW1  518   0.499   2.377   0.046 -1.6740 -0.3640 -2.6361
  173SOL    HW2  519   0.412   2.445   0.161 -1.0908 -1.2774 -0.7501
  174SOL     OW  520   1.533   2.861   1.086  0.3070  0.2267  0.0193
  174SOL    HW1  521   1.578   2.907   1.002  0.3702 -1.9051  0.3455
  174SOL    HW2  522   1.488   2.777   1.054  0.6806 -0.5555  1.9140
  175SOL     OW  523   0.421   3.064   1.718 -0.4533 -0.2668  0.4762
  175SOL    HW1  524   0.512   3.071   1.769 -3.0319 -0.5358  2.6222
  175SOL    HW2  525   0.382   3.158   1.707  0.9205 -1.4292  0.5881
  176SOL     OW  526   2.633   0.369   0.014  0.3570  0.3159  0.3641
  176SOL    HW1  527   2.643   0.463   0.060  3.1561 -0.8829 -2.4658
  176SOL    HW2  528   2.598   0.294   0.076 -2.1134 -0.6369 -0.1038
  177SOL     OW  529   0.348   0.316   0.989  0.4321 -0.1433 -0.5100
  177SOL    HW1  530   0.295   0.228   0.970 -0.5158  2.3120 -0.2876
  177SOL    HW2  531   0.299   0.366   1.066  1.1709  1.4226 -0.1323
  178SOL     OW  532   0.019   2.738   2.555 -0.0817 -0.2556 -0.0887
  178SOL    HW1  533  -0.009   2.651   2.508 -0.1304  1.8902 -0.4780
  178SOL    HW2  534   0.096   2.720   2.623 -0.9771 -0.8012 -0.9556
  179SOL     OW  535   2.995   1.527   1.109 -0.6174  0.0888  0.3858
  179SOL    HW1  536   3.053   1.597   1.059  2.3644 -1.6724 -1.3554
  179SOL    HW2  537   3.036   1.511   1.206 -0.3087 -0.7062 -2.0236
  180SOL     OW  538   0.192   1.371   1.783  0.0462 -0.5221  0.2694
  180SOL    HW1  539   0.267   1.311   1.827  2.1908  1.4496 -0.3126
  180SOL    HW2  540   0.146   1.438   1.852 -1.8362  2.2748  2.4818
  181SOL     OW  541   2.976   1.929   2.545 -0.0143 -0.5502  0.1329
  181SOL    HW1  542   3.032   2.007   2.515  3.3976 -1.0401 -0.9165
  181SOL    HW2  543   2.885   1.914   2.496  0.5927 -1.3292  0.4982
  182SOL     OW  544   2.326   1.280   1.257 -0.6168  0.6635 -0.1970
  182SOL    HW1  545   2.247   1.250   1.189 -2.1297  0.0135  0.1926
  182SOL    HW2  546   2.357   1.379   1.253 -2.3033 -2.1733  0.5488
  183SOL     OW  547   1.388   2.312   2.454  0.3869  0.1143  0.4890
  183SOL    HW1  548   1.330   2.330   2.536  0.4916  0.2279 -1.7520
  183SOL    HW2  549   1.418   2.214   2.446  0.9874  0.3057  0.1018
  184SOL     OW  550   2.155   0.836   0.759 -0.2405 -0.6997  0.1362
  184SOL    HW1  551   2.066   0.882   0.750 -1.8953 -2.2031 -1.4730
  184SOL    HW2  552   2.157   0.739   0.723  0.6650 -2.2150  0.8911
  185SOL     OW  553   1.531   2.729   2.054  0.2333 -0.0065  0.1190
  185SOL    HW1  554   1.453   2.790   2.021  1.9864  0.2118 -1.1780
  185SOL    HW2  555   1.586   2.774   2.132 -1.6363 -0.9491  1.6419
  186SOL     OW  556   0.059   2.211   1.648  0.1644  0.0377  0.3679
  186SOL    HW1  557   0.033   2.247   1.739  0.2472  0.3188  2.0499
  186SOL    HW2  558   0.138   2.149   1.652 -0.4544  0.4607 -1.9776
  187SOL     OW  559   1.351   0.631   1.673 -0.4431  0.0645 -0.0364
  187SOL    HW1  560   1.443   0.684   1.681  2.5628  4.2137  2.4592
  187SOL    HW2  561   1.347   0.555   1.747 -0.6638  0.3659  1.0748
  188SOL     OW  562   2.759   2.702   1.421 -0.0275 -0.2967  0.6207
  188SOL    HW1  563   2.751   2.803   1.393 -2.4025  0.7758 -1.6369
  188SOL    HW2  564   2.667   2.652   1.418  0.7620  0.8161 -1.1819
  189SOL     OW  565   0.902   1.208   1.384  0.2041 -0.2396 -0.3794
  189SOL    HW1  566   0.976   1.242   1.453  0.6778  2.7223 -0.1828
  189SOL    HW2  567   0.816   1.266   1.396  0.7528 -0.5535 -2.2172
  190SOL     OW  568   1.459   1.893   1.541 -0.2048  0.2727 -0.7565
  190SOL    HW1  569   1.466   1.787   1.546 -1.5700 -1.2243  0.4333
  190SOL    HW2  570   1.473   1.932   1.640 -1.3566  2.0090 -0.3123
  191SOL     OW  571   0.914   0.814   1.513 -0.4809  0.0381 -0.4211
  191SOL    HW1  572   0.974   0.731   1.535 -2.2498  1.1784  2.0808
  191SOL    HW2  573   0.947   0.876   1.435  0.2714  0.3099 -0.7692
  192SOL     OW  574   1.845   2.473   1.103 -0.2520  0.0272 -0.4231
  192SOL    HW1  575   1.747   2.479   1.059 -0.7411  1.2652  1.6514
  192SOL    HW2  576   1.908   2.410   1.053 -0.3828  1.1683  1.1833
  193SOL     OW  577   0.544   0.562   0.461  0.5378  0.2776  0.5335
  193SOL    HW1  578   0.478   0.486   0.493 -1.8570  0.7199  2.1369
  193SOL    HW2  579   0.579   0.558   0.366  0.5770 -0.2441  5.0600
  194SOL     OW  580   0.350   0.908   1.333  0.5630 -0.2403  0.0522
  194SOL    HW1  581   0.292   0.840   1.286  1.7158 -2.7206  2.7653
  194SOL    HW2  582   0.387   0.980   1.265 -1.6723 -0.3814  0.3252
  195SOL     OW  583   0.979   2.899   0.531  0.4163 -0.1476 -0.2369
  195SOL    HW1  584   0.975   2.807   0.486  1.7375  0.5269 -1.1149
  195SOL    HW2  585   1.073   2.939   0.518  0.2452 -2.4765 -2.1681
  196SOL     OW  586   0.268   1.375   1.337  0.0872  0.2194 -0.0892
  196SOL    HW1  587   0.254   1.479   1.355 -0.0569 -0.6008 -1.7222
  196SOL    HW2  588   0.288   1.325   1.427  1.8840  0.2522  0.2169
  197SOL     OW  589   0.838   2.012   0.326  0.5871 -0.0903 -0.5772
  197SOL    HW1  590   0.824   1.964   0.418 -0.4873 -1.0944 -3.7786
  197SOL    HW2  591   0.853   1.944   0.250  0.8714 -0.3190  0.9985
  198SOL     OW  592   0.292   1.249   0.350  0.1184  0.0131  0.0161
  198SOL    HW1  593   0.204   1.248   0.299  2.2031  4.1053  0.6754
  198SOL    HW2  594   0.302   1.339   0.395 -0.8257 -0.8144 -1.9982
  199SOL     OW  595   2.243   0.461   2.571 -0.4744 -0.1235 -0.0466
  199SOL    HW1  596   2.172   0.474   2.642 -1.0719  0.8373  0.9456
  199SOL    HW2  597   2.316   0.398   2.612 -0.6796 -0.1506  0.0911
  200SOL     OW  598   3.086   2.983   0.817 -0.3808  0.3992 -0.0023
  200SOL    HW1  599   3.108   3.071   0.863 -1.1670 -0.0845  1.8908
  200SOL    HW2  600   3.031   2.989   0.733  2.2174 -0.7524 -0.0624
  201SOL     OW  601   0.926   0.730   0.501 -0.1684  0.0335 -0.1339
  201SOL    HW1  602   0.913   0.813   0.554  0.7409 -3.0680 -0.9902
  201SOL    HW2  603   0.876   0.653   0.548  0.1258  0.3933  1.8039
  202SOL     OW  604   0.435   1.249   1.829  0.0741  0.0583 -0.7127
  202SOL    HW1  605   0.524   1.194   1.812 -0.9969 -0.7723  1.3184
  202SOL    HW2  606   0.456   1.314   1.907 -2.5181  0.8098  0.2604
  203SOL     OW  607   0.631   0.218   1.558  0.6300 -0.0550 -0.0597
  203SOL    HW1  608   0.643   0.179   1.465  0.6799 -1.7688  1.6856
  203SOL    HW2  609   0.691   0.176   1.629 -1.5715  1.0687 -1.5041
  204SOL     OW  610   2.087   1.789   2.976 -0.7046 -0.1608 -0.0174
  204SOL    HW1  611   2.084   1.687   2.981  0.4989  0.7401 -0.6987
  204SOL    HW2  612   2.144   1.815   2.900 -0.9805  1.7055 -1.4180
  205SOL     OW  613   1.844   1.883   0.007  0.1213 -0.2724 -0.3704
  205SOL    HW1  614   1.923   1.840  -0.039 -2.5893 -0.4068 -0.0120
  205SOL    HW2  615   1.789   1.951  -0.047  3.8622  1.7015  1.5467
  206SOL     OW  616   2.413   2.780   0.347  0.3079 -0.2971 -0.6395
  206SOL    HW1  617   2.352   2.697   0.363 -1.6232  1.3039  0.5613
  206SOL    HW2  618   2.494   2.751   0.282 -0.2145 -1.2532 -1.4292
  207SOL     OW  619   0.708   1.747   2.874  0.3556  0.7004 -0.7916
  207SOL    HW1  620   0.793   1.691   2.852  2.1921 -1.3144 -1.1609
  207SOL    HW2  621   0.653   1.706   2.951 -0.6788 -0.6142 -0.0330
  208SOL     OW  622   1.054   1.653   1.240 -0.8531 -0.7552 -0.0654
  208SOL    HW1  623   1.087   1.752   1.239  0.6014 -0.7909 -2.8703
  208SOL    HW2  624   0.952   1.644   1.262 -1.6306  0.1065  0.9605
  209SOL     OW  625   0.221   0.990   3.084  0.5227  0.0893 -0.2656
  209SOL    HW1  626   0.190   0.914   3.020  0.7440 -1.1294  1.0125
  209SOL    HW2  627   0.239   0.953   3.182  1.3039 -1.1048  0.6767
  210SOL     OW  628   1.720   0.481   1.236  0.3414 -0.1517  0.0341
  210SOL    HW1  629   1.656   0.549   1.197 -1.1273 -0.0795  0.9778
  210SOL    HW2  630   1.817   0.509   1.207 -1.2489  1.4667 -0.6448
  211SOL     OW  631   2.048   1.024   1.564  0.2799 -0.6885  0.3160
  211SOL    HW1  632   2.104   0.966   1.635 -2.5400 -0.1089  0.4129
  211SOL    HW2  633   2.098   1.112   1.534 -0.9805  2.4891 -1.2134
  212SOL     OW  634   0.032   0.967   1.479 -0.4535  0.3095 -0.2340
  212SOL    HW1  635   0.066   1.055   1.519  1.3487  2.0343 -1.2843
  212SOL    HW2  636   0.053   0.883   1.536  0.3864  0.0974  0.5614
  213SOL     OW  637   2.747   0.203   0.248  0.2408 -0.6282 -0.5563
  213SOL    HW1  638   2.839   0.190   0.209 -1.8480 -0.4095  3.3708
  213SOL    HW2  639   2.685   0.124   0.226 -1.6684  0.4821  2.9466
  214SOL     OW  640   2.156   0.352   2.348 -0.0340 -0.5961 -0.1568
  214SOL    HW1  641   2.194   0.402   2.435  1.2769  0.1865  2.2175
  214SOL    HW2  642   2.137   0.252   2.373 -1.3856  1.8052 -0.4691
  215SOL     OW  643   1.644   2.272   2.094  0.0299 -0.4925 -0.1835
  215SOL    HW1  644   1.743   2.283   2.067 -1.6636 -0.1951 -0.8600
  215SOL    HW2  645   1.602   2.364   2.122  0.7753  1.4695 -1.4088
  216SOL     OW  646   2.150   0.603   0.607 -0.4529 -0.6024  0.4920
  216SOL    HW1  647   2.150   0.505   0.590 -0.5586 -1.2190 -0.8398
  216SOL    HW2  648   2.196   0.658   0.537 -1.5594 -3.5692  3.8385
  217SOL     OW  649   0.931   2.840   2.549  0.0439 -0.2659  0.4882
  217SOL    HW1  650   1.001   2.775   2.593  0.2982 -1.0798  3.5288
  217SOL    HW2  651   0.854   2.784   2.506  2.2590  2.1092 -1.7135
  218SOL     OW  652   1.882   1.466   0.029  0.3725 -0.0476 -0.4696
  218SOL    HW1  653   1.779   1.468   0.013  0.3485  1.0692 -2.1358
  218SOL    HW2  654   1.906   1.394   0.096 -1.7498 -0.7833 -0.5044
  219SOL     OW  655   2.472   1.272   2.526 -0.5204 -0.3063 -0.3071
  219SOL    HW1  656   2.524   1.229   2.445  0.8292 -0.2216  1.1469
  219SOL    HW2  657   2.467   1.204   2.608  1.6506  2.1029 -0.5698
  220SOL     OW  658   1.435   1.010   1.400  0.1740 -0.4187 -0.3279
  220SOL    HW1  659   1.535   0.986   1.398  0.7356  2.3688  0.8283
  220SOL    HW2  660   1.403   1.055   1.313 -1.5927  1.4809  0.2971
  221SOL     OW  661   1.356   0.947   2.217 -0.1597 -0.2780  0.3403
  221SOL    HW1  662   1.361   0.967   2.120  0.8300  2.3943  3.5297
  221SOL    HW2  663   1.430   0.999   2.270 -0.1928  3.4735  2.0125
  222SOL     OW  664   1.100   0.110   1.238  0.1609 -0.0639 -0.0235
  222SOL    HW1  665   1.040   0.187   1.270  3.0524 -1.3381 -0.0306
  222SOL    HW2  666   1.116   0.111   1.135  1.0894 -1.6059 -0.4636
  223SOL     OW  667   2.711   0.910   2.085 -0.0507  0.3441 -0.1264
  223SOL    HW1  668   2.651   0.989   2.111  0.5836 -1.5150 -0.4216
  223SOL    HW2  669   2.801   0.907   2.140 -0.4741  0.7737  1.0774
  224SOL     OW  670   1.535   1.055   2.729  1.1370  0.2606  0.3932
  224SOL    HW1  671   1.554   0.956   2.689 -1.6451  0.2344  1.2071
  224SOL    HW2  672   1.575   1.129   2.665 -0.6758  3.4792 -2.0824
  225SOL     OW  673   2.962   2.694   2.840 -0.6098  0.4715 -0.3709
  225SOL    HW1  674   2.876   2.700   2.786  3.4471  0.7443  1.5152
  225SOL    HW2  675   3.016   2.781   2.846  0.7979 -1.5010 -0.7492
  226SOL     OW  676   2.357   1.569   2.804 -0.1659 -1.2397  0.5807
  226SOL    HW1  677   2.430   1.557   2.731 -2.4009 -0.4641  2.7256
  226SOL    HW2  678   2.399   1.536   2.896 -0.4205  0.7473  1.1829
  227SOL     OW  679   0.855   0.257   3.080 -0.1359  0.2199 -0.0799
  227SOL    HW1  680   0.905   0.346   3.077 -0.3062  0.8675  0.4370
  227SOL    HW2  681   0.796   0.245   2.996 -1.0959  2.0077 -0.2039
  228SOL     OW  682   2.404   0.602   2.825 -0.5683  0.4112  0.5140
  228SOL    HW1  683   2.430   0.684   2.761 -0.0980 -1.4320 -0.6113
  228SOL    HW2  684   2.493   0.546   2.839  3.0860  0.3600 -0.5033
  229SOL     OW  685   0.516   0.480   1.803 -0.6243  0.3656 -0.1585
  229SOL    HW1  686   0.558   0.394   1.849 -0.4060 -2.4971  1.3755
  229SOL    HW2  687   0.529   0.481   1.701  0.0096 -0.9738  2.4695
  230SOL     OW  688   1.871   1.224   2.035  0.0537  0.5105 -0.3982
  230SOL    HW1  689   1.955   1.276   2.007  0.7314 -0.5061 -0.0530
  230SOL    HW2  690   1.803   1.273   2.099 -1.0349  2.0738 -2.1315
  231SOL     OW  691   0.659   1.075   3.092  0.0085 -0.1868 -0.2266
  231SOL    HW1  692   0.734   1.143   3.128 -2.3088  0.2295  1.7253
  231SOL    HW2  693   0.569   1.101   3.117  0.2879 -0.4710  1.1323
  232SOL     OW  694   2.427   3.012   2.837 -0.7915 -0.1711  0.7627
  232SOL    HW1  695   2.488   2.931   2.852 -0.3609 -0.3612  1.0358
  232SOL    HW2  696   2.468   3.068   2.763  0.1476  0.7949  0.9314
  233SOL     OW  697   1.753   1.244   1.200 -0.3070 -0.5663 -0.3215
  233SOL    HW1  698   1.811   1.260   1.113 -0.1072  0.8925 -0.3479
  233SOL    HW2  699   1.731   1.142   1.213  0.7738  0.0468 -2.8924
  234SOL     OW  700   1.650   2.577   1.826  0.4875  0.6934 -0.1677
  234SOL    HW1  701   1.617   2.629   1.908  1.2246 -1.8479  0.7900
  234SOL    HW2  702   1.607   2.478   1.815 -1.8714 -2.1219 -0.1145
  235SOL     OW  703   0.008   2.947   2.871 -0.4253 -0.5365  0.2178
  235SOL    HW1  704  -0.046   2.968   2.782  1.1639  0.3953 -0.5818
  235SOL    HW2  705  -0.022   3.006   2.946 -0.2447  0.7150  0.2889
  236SOL     OW  706   2.941   0.652   0.101  0.4952 -0.3325 -0.4712
  236SOL    HW1  707   2.997   0.706   0.173 -0.1296 -1.7775 -0.4264
  236SOL    HW2  708   2.988   0.583   0.046  0.9657  2.0021 -0.9183
  237SOL     OW  709   1.468   1.635   0.938 -0.1018 -0.4131 -0.4794
  237SOL    HW1  710   1.564   1.594   0.926  2.0313 -0.3287 -0.5474
  237SOL    HW2  711   1.462   1.702   1.017 -1.0068 -1.1045 -2.0799
  238SOL     OW  712   1.888   1.210   0.750  0.1846 -0.4278  0.3106
  238SOL    HW1  713   1.933   1.237   0.835  0.6957 -3.0460 -2.6271
  238SOL    HW2  714   1.785   1.239   0.741 -0.0041 -1.5804  2.1546
  239SOL     OW  715   2.049   0.270   2.750  0.5127 -0.4066  0.0222
  239SOL    HW1  716   2.096   0.219   2.828 -1.2530  0.1643 -1.6261
  239SOL    HW2  717   1.996   0.357   2.779 -1.9731  1.0282 -1.9164
  240SOL     OW  718   0.925   0.696   0.240  0.0539 -0.2641  0.3781
  240SOL    HW1  719   0.986   0.621   0.209 -0.2530  2.3121  1.5869
  240SOL    HW2  720   0.919   0.713   0.339  0.5439  2.3270 -1.8881
  241SOL     OW  721   0.589   0.096   0.387  0.1113  0.6045 -0.0600
  241SOL    HW1  722   0.644   0.149   0.312 -1.5866 -0.6313 -0.2151
  241SOL    HW2  723   0.577  -0.007   0.360 -1.8277 -1.8756 -1.0355
  242SOL     OW  724   0.624   2.554   1.194  0.2079 -0.0249 -0.2807
  242SOL    HW1  725   0.627   2.535   1.296 -0.9848 -0.2456 -0.0192
  242SOL    HW2  726   0.623   2.657   1.182 -0.6443 -1.4804 -1.3184
  243SOL     OW  727   1.030   0.568   2.397  0.4203  0.6555 -0.3050
  243SOL    HW1  728   0.952   0.620   2.356 -1.5323  3.7966  2.5766
  243SOL    HW2  729   1.015   0.505   2.480  1.7947 -0.0558  0.1326
  244SOL     OW  730   2.756   1.893   2.366  0.1174  0.0837 -0.3469
  244SOL    HW1  731   2.783   1.908   2.265 -0.2638 -0.4945  0.2283
  244SOL    HW2  732   2.660   1.852   2.378 -1.7276  2.0119  0.9693
  245SOL     OW  733   2.173   0.927   2.171  0.0217 -0.2565 -0.5193
  245SOL    HW1  734   2.274   0.930   2.187  0.8511  1.4211 -0.6205
  245SOL    HW2  735   2.130   1.003   2.227  1.2311  0.3545  1.7201
  246SOL     OW  736   0.231   2.862   1.751  0.4190 -0.4306  0.5344
  246SOL    HW1  737   0.159   2.845   1.671  1.0689 -0.5452 -1.4071
  246SOL    HW2  738   0.303   2.932   1.724 -1.3059  1.2543 -1.4361
  247SOL     OW  739   2.238   0.628   3.040  0.2715 -0.3811  0.1024
  247SOL    HW1  740   2.287   0.596   2.953 -1.7128  2.3592 -2.1199
  247SOL    HW2  741   2.169   0.709   3.016 -1.0499  1.9553 -1.0709
  248SOL     OW  742   2.197   1.855   1.596  0.1458  0.3640  0.5316
  248SOL    HW1  743   2.273   1.801   1.633 -1.1864 -0.0994  3.0055
  248SOL    HW2  744   2.105   1.799   1.606  0.0648 -2.2760  1.2335
  249SOL     OW  745   1.948   1.872   1.823 -0.3010  0.2791 -0.2193
  249SOL    HW1  746   1.967   1.781   1.778  0.4020 -0.2576  1.3024
  249SOL    HW2  747   2.034   1.923   1.849 -0.7744 -1.4589 -0.4423
  250SOL     OW  748   1.114   0.728   1.871 -0.3634 -0.3814 -0.7891
  250SOL    HW1  749   1.153   0.657   1.935  1.8382 -0.1997  0.6402
  250SOL    HW2  750   1.087   0.685   1.777 -0.6455  1.2853 -0.4886
  251SOL     OW  751   3.021   1.631   2.571  0.0154  0.6633 -0.0206
  251SOL    HW1  752   2.999   1.726   2.541 -0.4555 -1.8374 -0.8039
  251SOL    HW2  753   2.949   1.565   2.540  0.7910 -0.9765  2.0366
  252SOL     OW  754   1.599   0.768   1.690  0.0218  0.1808 -0.9005
  252SOL    HW1  755   1.685   0.775   1.632 -1.4745  3.6960 -1.3217
  252SOL    HW2  756   1.574   0.863   1.725 -1.8007  0.2426 -1.9462
  253SOL     OW  757   0.987   1.571   0.487  0.0554 -0.3206  0.4349
  253SOL    HW1  758   1.002   1.489   0.427 -0.7667  0.8020 -2.4420
  253SOL    HW2  759   0.896   1.569   0.541 -0.8702 -3.9551 -1.1065
  254SOL     OW  760   2.025   2.211   1.659 -0.2523  0.0560  0.0129
  254SOL    HW1  761   1.980   2.132   1.607 -0.5764  1.1701 -0.1037
  254SOL    HW2  762   1.955   2.261   1.714 -0.3891 -1.9579 -1.1153
  255SOL     OW  763   0.138   1.186   2.898 -0.3203 -0.4811  0.0657
  255SOL    HW1  764   0.187   1.276   2.907  0.5708  1.3285 -0.3824
  255SOL    HW2  765   0.174   1.116   2.974  1.4259  0.5934  0.3923
  256SOL     OW  766   2.834   1.371   1.862 -0.3264 -0.1561 -0.0380
  256SOL    HW1  767   2.750   1.431   1.869  2.5696  1.2708  0.3830
  256SOL    HW2  768   2.812   1.278   1.815 -1.2072 -1.9881 -2.9266
  257SOL     OW  769   0.801   0.140   1.775  0.0178  0.2457  0.7066
  257SOL    HW1  770   0.854   0.228   1.746  0.4071  0.9184 -0.2719
  257SOL    HW2  771   0.862   0.049   1.766 -0.6517  1.8672 -2.3350
  258SOL     OW  772   2.971   1.209   0.496 -0.0706 -0.3681  0.4163
  258SOL    HW1  773   2.887   1.210   0.556 -3.2525 -1.1129 -0.8165
  258SOL    HW2  774   3.057   1.250   0.542  2.0824 -1.2500  0.6086
  259SOL     OW  775   0.385   2.923   3.036  0.1385 -0.0071 -0.0019
  259SOL    HW1  776   0.348   2.853   3.099 -0.5519  1.4679 -1.4575
  259SOL    HW2  777   0.437   2.889   2.952  1.4927 -0.7075 -1.1872
  260SOL     OW  778   2.757   0.742   2.772  0.1261 -0.0756 -0.8974
  260SOL    HW1  779   2.682   0.796   2.721  1.2099  3.5337 -1.2336
  260SOL    HW2  780   2.719   0.650   2.808 -1.1193  0.4892  2.1967
  261SOL     OW  781   2.707   1.283   1.298  0.5576  0.7489  0.5682
  261SOL    HW1  782   2.666   1.246   1.211 -1.9242  1.7410 -1.1719
  261SOL    HW2  783   2.768   1.221   1.354  0.8930  3.1974  1.8055
  262SOL     OW  784   1.373   2.975   1.974  0.1010  0.0317  1.1203
  262SOL    HW1  785   1.403   3.066   1.935  0.5551 -0.5620  2.6955
  262SOL    HW2  786   1.270   2.965   1.987 -1.8832 -0.5702  4.1739
  263SOL     OW  787   0.817   0.687   2.280 -0.7661  0.2298  0.0532
  263SOL    HW1  788   0.759   0.613   2.242  1.1067  0.3774  2.2157
  263SOL    HW2  789   0.868   0.747   2.207 -1.1563 -1.2596 -3.1391
  264SOL     OW  790   2.274   0.789   0.445  0.6372  0.4014 -0.4433
  264SOL    HW1  791   2.263   0.734   0.358 -0.3691  1.7143 -0.9304
  264SOL    HW2  792   2.364   0.833   0.458  1.1166  0.4394 -4.7792
  265SOL     OW  793   0.953   2.409   2.611  0.0591 -0.4467 -0.0172
  265SOL    HW1  794   1.019   2.470   2.665  3.0876 -1.2279  1.5888
  265SOL    HW2  795   0.907   2.336   2.668  0.4680  2.8234 -2.8016
  266SOL     OW  796   1.327   1.769   3.057 -0.4513  0.2959  0.0543
  266SOL    HW1  797   1.307   1.802   3.153  1.7871 -1.9270  0.0036
  266SOL    HW2  798   1.430   1.761   3.050 -0.3654  0.4570 -1.4593
  267SOL     OW  799   1.104   0.045   2.274  0.3002 -0.9127  0.0786
  267SOL    HW1  800   1.016   0.006   2.238  0.2409 -0.1778 -2.7896
  267SOL    HW2  801   1.156   0.102   2.205  1.8863  0.1108 -3.2609
  268SOL     OW  802   0.812   1.246   1.038  0.8013 -0.8330  0.7400
  268SOL    HW1  803   0.802   1.293   1.129  1.5296  1.6112 -1.9743
  268SOL    HW2  804   0.796   1.315   0.960 -0.2615  1.4964 -2.8943
  269SOL     OW  805   2.368   2.505   1.621  0.0799  0.1239  1.1469
  269SOL    HW1  806   2.454   2.458   1.664 -0.8566 -2.2056  0.8767
  269SOL    HW2  807   2.291   2.539   1.687 -2.0806 -0.4946  0.7234
  270SOL     OW  808   0.133   2.964   1.997 -0.3176  0.5578  0.7673
  270SOL    HW1  809   0.171   2.914   1.911  1.3736 -0.1011  0.5748
  270SOL    HW2  810   0.088   2.899   2.063  1.1538 -1.0760 -0.1571
  271SOL     OW  811   0.488   1.419   1.135  0.5975  0.0387 -0.6311
  271SOL    HW1  812   0.503   1.414   1.031  0.3529  0.8848  0.8289
  271SOL    HW2  813   0.396   1.379   1.165  0.9857 -0.4778  1.2679
  272SOL     OW  814   1.964   3.022   1.957 -0.7852  0.4011 -0.8930
  272SOL    HW1  815   1.891   2.966   1.906  0.6753  2.1667  0.1449
  272SOL    HW2  816   2.037   3.051   1.889  0.8858  2.1751  2.5666
  273SOL     OW  817   1.492   1.471   2.733  0.4135 -0.9093  0.4445
  273SOL    HW1  818   1.404   1.439   2.687  1.2035 -0.6574  0.0267
  273SOL    HW2  819   1.480   1.464   2.833  0.4156  2.4386 -0.9626
  274SOL     OW  820   1.170   0.504   2.055  0.1326  0.0946 -0.5115
  274SOL    HW1  821   1.082   0.448   2.065 -1.0392 -0.3870 -1.4691
  274SOL    HW2  822   1.216   0.512   2.148 -1.2213  1.4561  2.2873
  275SOL     OW  823   0.632   2.130   1.906 -0.3447 -0.5311  0.1745
  275SOL    HW1  824   0.604   2.206   1.975  0.8592 -0.8132  3.9701
  275SOL    HW2  825   0.550   2.072   1.883 -2.0176  1.5468 -2.9327
  276SOL     OW  826   2.173   1.049   2.805  0.1595 -0.6589 -0.1747
  276SOL    HW1  827   2.085   1.067   2.753  1.1580 -3.3128 -1.9455
  276SOL    HW2  828   2.178   0.958   2.856 -0.8008 -1.7701  1.7874
  277SOL     OW  829   3.070   0.802   0.275 -0.6886 -0.2539  0.1586
  277SOL    HW1  830   3.152   0.866   0.278 -0.3393  0.2303  1.9816
  277SOL    HW2  831   3.089   0.712   0.327 -0.5680 -1.1222  0.0720
  278SOL     OW  832   0.228   0.239   2.962 -0.0309  0.4647  0.4793
  278SOL    HW1  833   0.312   0.195   2.918  0.2637 -0.6440 -1.7035
  278SOL    HW2  834   0.248   0.320   3.020 -1.6385 -2.9264  0.3480
  279SOL     OW  835   0.273   0.061   0.928 -0.2144  0.0862 -0.4063
  279SOL    HW1  836   0.294  -0.005   1.011  1.8262  3.9292  3.7808
  279SOL    HW2  837   0.345   0.052   0.857 -0.8296 -2.5102 -1.0384
  280SOL     OW  838   1.612   2.949   2.409 -0.0346 -0.3772 -0.0207
  280SOL    HW1  839   1.684   2.998   2.466  2.6763 -0.5048  3.3167
  280SOL    HW2  840   1.557   3.016   2.358 -1.0887 -2.8073  1.4496
  281SOL     OW  841   0.562   0.956   2.273 -0.3874 -0.2759 -0.0524
  281SOL    HW1  842   0.526   0.866   2.231  1.5441 -1.6865 -0.7462
  281SOL    HW2  843   0.557   0.953   2.376 -0.5867 -0.7747 -1.1753
  282SOL     OW  844   1.791   2.474   0.526  0.1263 -0.2478  0.4190
  282SOL    HW1  845   1.747   2.404   0.461 -1.0267  0.4130  1.8671
  282SOL    HW2  846   1.737   2.561   0.532  0.1152  1.4441 -1.3693
  283SOL     OW  847   1.132   0.939   0.762 -0.5091 -0.4439 -0.1396
  283SOL    HW1  848   1.166   0.884   0.844 -0.2234 -0.0390  1.8110
  283SOL    HW2  849   1.100   1.037   0.781 -0.3498  0.4434  0.1198
  284SOL     OW  850   2.243   2.831   2.492  0.4330  0.0657 -0.5940
  284SOL    HW1  851   2.348   2.840   2.470  0.1729  1.4907 -1.6018
  284SOL    HW2  852   2.217   2.877   2.579 -2.9355 -2.0344  1.5459
  285SOL     OW  853   1.387   0.024   2.573 -0.1133  0.2686  0.0595
  285SOL    HW1  854   1.404   0.044   2.471  1.4552  0.2931  1.5416
  285SOL    HW2  855   1.285   0.016   2.590  0.0972 -0.8245  1.8741
  286SOL     OW  856   0.455   0.431   0.766 -0.1429  0.3208 -0.5749
  286SOL    HW1  857   0.427   0.392   0.857  2.4180 -2.4214 -1.8884
  286SOL    HW2  858   0.462   0.367   0.682  1.9355 -0.2487 -1.5652
  287SOL     OW  859   0.079   1.309   2.646  0.2930  0.1227  1.1282
  287SOL    HW1  860   0.006   1.235   2.649 -1.7425  0.9500 -2.1271
  287SOL    HW2  861   0.109   1.350   2.735  1.4189  0.7947  4.5867
  288SOL     OW  862   1.555   2.738   1.633 -0.7626 -0.0424 -0.0173
  288SOL    HW1  863   1.577   2.663   1.709 -0.1904  0.5115  2.5319
  288SOL    HW2  864   1.572   2.709   1.535 -0.1418  1.6431  0.7288
  289SOL     OW  865   0.604   2.722   0.862  0.8102  0.5937 -0.0590
  289SOL    HW1  866   0.665   2.774   0.791 -0.3829 -1.4939  0.1461
  289SOL    HW2  867   0.588   2.767   0.954 -2.6283  2.1702  0.3861
  290SOL     OW  868   2.798   1.131   1.737 -0.0091 -0.0612 -0.0442
  290SOL    HW1  869   2.723   1.068   1.768 -0.3177 -0.8310  1.3457
  290SOL    HW2  870   2.883   1.108   1.796  0.0528 -0.9142  2.0751
  291SOL     OW  871   1.951   3.094   0.047 -0.4307  0.2350  0.5871
  291SOL    HW1  872   1.956   3.156   0.130  0.4037  1.2575 -2.6818
  291SOL    HW2  873   2.029   3.099  -0.024  0.9517  2.3895  0.1245
  292SOL     OW  874   3.024   1.214   3.083  0.1289 -0.3759 -0.6707
  292SOL    HW1  875   2.944   1.285   3.079 -2.0953 -2.2375  1.6298
  292SOL    HW2  876   3.094   1.228   3.006 -3.5270  0.0850 -0.3807
  293SOL     OW  877   0.587   2.116   0.281 -0.6056 -0.2614  0.0431
  293SOL    HW1  878   0.552   2.184   0.348 -0.1902 -1.9301 -0.5962
  293SOL    HW2  879   0.689   2.092   0.297  0.7588  1.0810  1.8757
  294SOL     OW  880   1.846   2.345   1.818  0.2542  0.7332 -0.8716
  294SOL    HW1  881   1.889   2.319   1.911  0.1483 -2.1270  2.0255
  294SOL    HW2  882   1.807   2.440   1.817 -1.1651  1.2232  0.0495
  295SOL     OW  883   0.988   1.080   0.457  0.4540  0.2011 -0.2607
  295SOL    HW1  884   1.078   1.035   0.457 -1.8885  0.9146  0.2744
  295SOL    HW2  885   0.934   1.053   0.545  0.6302 -2.0487  1.5192
  296SOL     OW  886   1.172   2.131   2.740 -0.6444  0.0359 -0.4217
  296SOL    HW1  887   1.072   2.150   2.766  0.8093 -1.3888  0.4120
  296SOL    HW2  888   1.174   2.086   2.644 -1.6685  0.7669  1.0380
  297SOL     OW  889   1.351   0.564   1.284 -0.1742 -0.0290 -0.6062
  297SOL    HW1  890   1.390   0.477   1.334  1.0494 -2.1550 -0.0356
  297SOL    HW2  891   1.422   0.632   1.244 -1.1465  1.3348  1.1101
  298SOL     OW  892   0.522   1.348   2.978 -0.3045 -0.5202 -0.3800
  298SOL    HW1  893   0.480   1.285   3.050  0.6879 -0.8473  0.5780
  298SOL    HW2  894   0.622   1.340   2.964  1.4854  0.7882  0.4275
  299SOL     OW  895   0.414   0.248   1.315 -0.1292 -0.7683 -0.3727
  299SOL    HW1  896   0.357   0.322   1.268 -1.8808  0.7933  2.7414
  299SOL    HW2  897   0.398   0.253   1.420  2.6951 -0.9516  2.6067
  300SOL     OW  898   1.268   1.730   2.574  0.0391  0.5183  0.2825
  300SOL    HW1  899   1.264   1.643   2.520 -1.7666 -1.1833 -0.2003
  300SOL    HW2  900   1.361   1.751   2.612  0.8155  0.6022 -4.5089
  301SOL     OW  901   0.412   0.304   0.521  0.1130  0.8977 -0.0168
  301SOL    HW1  902   0.318   0.263   0.542  1.5550  3.7263  0.6164
  301SOL    HW2  903   0.466   0.250   0.452 -3.8054  0.2649  3.3555
  302SOL     OW  904   1.264   2.473   2.264 -0.1898  0.1533 -0.3692
  302SOL    HW1  905   1.163   2.458   2.281  0.7577  0.3913 -3.4286
  302SOL    HW2  906   1.321   2.417   2.332  0.2872 -1.5907  0.1052
  303SOL     OW  907   0.938   2.397   0.794  0.0216 -0.3232  0.1208
  303SOL    HW1  908   1.004   2.419   0.716  2.8922  0.4689  0.4676
  303SOL    HW2  909   0.981   2.447   0.873 -0.5756 -0.6895 -1.0652
  304SOL     OW  910   0.088   1.893   0.680  0.4092 -0.5892 -0.2810
  304SOL    HW1  911   0.143   1.870   0.597 -3.5472 -1.5500  2.3673
  304SOL    HW2  912  -0.002   1.949   0.658  1.3218  5.0478  0.4765
  305SOL     OW  913   1.578   0.874   0.683 -0.0614 -0.0676  0.0098
  305SOL    HW1  914   1.549   0.875   0.584 -0.5850  1.8486  3.4014
  305SOL    HW2  915   1.643   0.798   0.692 -2.1098 -1.2033  3.7547
  306SOL     OW  916   0.429   1.932   1.911  0.5478 -0.0438 -0.0509
  306SOL    HW1  917   0.509   1.867   1.905 -1.9593  0.9662 -0.6278
  306SOL    HW2  918   0.408   1.950   2.012  2.1091 -1.8327 -1.8996
  307SOL     OW  919   3.069   0.889   2.471  0.4895  0.0132 -0.4157
  307SOL    HW1  920   3.079   0.950   2.556  0.6024 -0.2965  0.3373
  307SOL    HW2  921   3.019   0.800   2.492 -0.6306 -0.0607  1.1769
  308SOL     OW  922   1.531   2.688   2.797 -0.9450 -0.0015 -0.9834
  308SOL    HW1  923   1.500   2.664   2.700 -2.6207  0.4646  2.3976
  308SOL    HW2  924   1.496   2.614   2.862  1.4863 -1.6058  0.1241
  309SOL     OW  925   1.233   0.154   1.788 -0.2044 -0.5721 -0.1527
  309SOL    HW1  926   1.325   0.114   1.814  1.0297  0.8407  0.0966
  309SOL    HW2  927   1.218   0.156   1.686  0.8384  2.7053 -1.6046
  310SOL     OW  928   1.483   2.597   0.678 -0.1133  0.4256 -0.2576
  310SOL    HW1  929   1.452   2.636   0.766 -1.0840 -0.1225  1.7415
  310SOL    HW2  930   1.536   2.665   0.623 -3.7727 -2.2917  1.9750
  311SOL     OW  931   1.150   0.986   1.771 -0.6371 -0.4058  0.4463
  311SOL    HW1  932   1.138   0.895   1.816  0.8158  0.8304 -0.3321
  311SOL    HW2  933   1.172   0.971   1.673 -1.6844 -0.5610  0.7028
  312SOL     OW  934   1.534   0.673   1.094 -0.2316  0.2381 -0.4177
  312SOL    HW1  935   1.600   0.743   1.053 -0.4930 -3.8890 -0.7081
  312SOL    HW2  936   1.494   0.616   1.017 -0.5674  1.9839 -0.3552
  313SOL     OW  937   1.644   1.320   0.739  0.0257 -0.3984  0.0257
  313SOL    HW1  938   1.548   1.334   0.783 -3.8196 -1.3787 -3.2983
  313SOL    HW2  939   1.638   1.255   0.661  2.4495  0.7604 -1.4634
  314SOL     OW  940   2.977   3.100   3.079  0.0846 -0.0307  0.4639
  314SOL    HW1  941   3.003   3.091   3.176  1.0622 -0.6382 -3.7675
  314SOL    HW2  942   2.894   3.044   3.052  1.6751  0.5666 -2.1963
  315SOL     OW  943   1.160   0.226   2.756  0.0194 -0.8140  0.4897
  315SOL    HW1  944   1.178   0.152   2.680  0.7880 -0.2580 -1.3130
  315SOL    HW2  945   1.118   0.185   2.839 -0.8805 -0.4444 -1.5261
  316SOL     OW  946   1.701   2.090   0.897 -0.7686  0.0701 -0.2862
  316SOL    HW1  947   1.668   2.088   1.001  0.6323  0.5591  0.8085
  316SOL    HW2  948   1.714   2.182   0.854  1.2650 -1.8920 -1.0120
  317SOL     OW  949   1.160   0.656   2.765  0.7219  0.9488 -0.1056
  317SOL    HW1  950   1.111   0.712   2.835  1.9639 -0.3948 -2.9382
  317SOL    HW2  951   1.100   0.592   2.710  0.3732 -0.5592 -0.0807
  318SOL     OW  952   1.408   3.089   2.246 -0.4825 -0.7293  0.2414
  318SOL    HW1  953   1.387   3.187   2.229  1.0636 -1.4557  0.7121
  318SOL    HW2  954   1.431   3.042   2.158  0.8092  2.0223 -1.0975
  319SOL     OW  955   0.667   2.358   2.931 -0.0260  0.5263  0.3546
  319SOL    HW1  956   0.636   2.301   3.015 -0.7560  0.7568  1.6104
  319SOL    HW2  957   0.742   2.313   2.872  0.0439  1.3041 -1.8583
  320SOL     OW  958   1.695   2.249   0.390  0.9336 -0.1742 -0.3692
  320SOL    HW1  959   1.768   2.178   0.374 -4.7507  2.0663 -2.1525
  320SOL    HW2  960   1.606   2.204   0.426  3.2604 -1.0443 -1.2801
  321SOL     OW  961   1.682   2.782   0.539 -0.2509  0.0819 -0.2838
  321SOL    HW1  962   1.623   2.854   0.484  0.3566  2.8682 -1.8495
  321SOL    HW2  963   1.782   2.792   0.515  0.2580 -2.2728 -0.3942
  322SOL     OW  964   2.597   1.125   2.305 -0.3603 -0.2428 -0.0780
  322SOL    HW1  965   2.688   1.133   2.363 -2.8357 -1.9975  3.7751
  322SOL    HW2  966   2.545   1.038   2.326 -1.2369 -1.2254 -0.5772
  323SOL     OW  967   1.180   2.691   0.809  0.3722  0.0669  0.1313
  323SOL    HW1  968   1.148   2.659   0.713  1.2717 -1.2363 -1.1193
  323SOL    HW2  969   1.167   2.791   0.817 -0.6096  2.8365  0.5866
  324SOL     OW  970   0.216   2.531   2.427  0.4712 -0.0930 -0.0729
  324SOL    HW1  971   0.137   2.510   2.491 -0.7020 -0.8648 -1.3476
  324SOL    HW2  972   0.274   2.610   2.461 -0.2330 -1.9495 -1.6034
  325SOL     OW  973   1.208   3.013   0.455  0.0819 -0.5402 -0.0441
  325SOL    HW1  974   1.198   3.056   0.361  2.2073 -0.5697  0.8851
  325SOL    HW2  975   1.239   3.078   0.533 -1.5693  0.7452 -0.8764
  326SOL     OW  976   2.484   0.764   3.082  0.3821 -0.1314  0.0810
  326SOL    HW1  977   2.399   0.704   3.056 -0.3487 -1.8896 -0.9013
  326SOL    HW2  978   2.555   0.707   3.128  3.0406  1.5605  0.9088
  327SOL     OW  979   2.807   0.286   0.507  0.1254 -0.0888 -0.1763
  327SOL    HW1  980   2.772   0.250   0.410  1.8998  1.8430  1.4273
  327SOL    HW2  981   2.790   0.214   0.582 -0.2167  0.3760 -0.2081
  328SOL     OW  982   2.574   0.654   0.417 -0.3238  0.2103 -0.1490
  328SOL    HW1  983   2.675   0.669   0.435 -0.1652  0.3907 -0.2024
  328SOL    HW2  984   2.524   0.614   0.500 -2.8228  1.7831  0.3440
  329SOL     OW  985   2.937   3.009   2.110  0.1958  0.2761  0.5331
  329SOL    HW1  986   2.987   2.957   2.185  0.0699 -1.8513 -1.1503
  329SOL    HW2  987   2.953   3.108   2.103 -0.3758 -0.2696  1.0662
  330SOL     OW  988   0.583   0.228   1.915 -0.5835  0.1717 -0.2074
  330SOL    HW1  989   0.675   0.206   1.861  0.8115  2.5798  0.5845
  330SOL    HW2  990   0.567   0.167   1.998  0.3309  1.1269 -0.6815
  331SOL     OW  991   3.017   1.886   1.112 -0.7457 -0.1525  0.0492
  331SOL    HW1  992   2.984   1.933   1.028  0.5386 -0.7529 -0.3133
  331SOL    HW2  993   2.945   1.847   1.177  2.7228 -0.9355 -0.1351
  332SOL     OW  994   0.423   1.176   0.061 -0.1930  0.2625 -0.0570
  332SOL    HW1  995   0.360   1.101   0.022 -0.6872 -2.6920  1.5890
  332SOL    HW2  996   0.390   1.197   0.158 -3.1797  2.2725  1.1510
  333SOL     OW  997   2.893   0.983   0.364 -0.5319  0.1512 -1.0442
  333SOL    HW1  998   2.943   1.059   0.425  4.5796 -0.0199  3.0329
  333SOL    HW2  999   2.958   0.926   0.303 -0.0220  1.9763  0.9221
  334SOL     OW 1000   1.709   1.221   1.778  0.6618 -0.2820 -0.6790
  334SOL    HW1 1001   1.748   1.209   1.684  1.9599 -1.2343 -0.9885
  334SOL    HW2 1002   1.787   1.226   1.843  1.2887 -1.7960 -2.5157
  335SOL     OW 1003   1.945   2.766   2.618 -0.2811  0.7594 -0.2344
  335SOL    HW1 1004   1.877   2.746   2.697  0.6908 -0.6774 -0.9065
  335SOL    HW2 1005   2.039   2.796   2.652 -2.0153  2.3195 -0.5160
  336SOL     OW 1006   0.264   3.097   2.723 -0.4431 -0.3700 -0.1793
  336SOL    HW1 1007   0.343   3.137   2.777 -0.8536  0.4178  0.0256
  336SOL    HW2 1008   0.207   3.036   2.780  1.3948 -0.5556 -2.6984
  337SOL     OW 1009   0.922   2.902   2.965  0.0743 -0.2485 -0.2668
  337SOL    HW1 1010   0.911   2.799   3.004  3.1747 -0.0032  2.4964
  337SOL    HW2 1011   1.022   2.935   2.965  3.4405  2.7814 -1.5243
  338SOL     OW 1012   0.022   0.953   0.661  0.2317 -0.1219 -0.0673
  338SOL    HW1 1013  -0.081   0.936   0.671 -1.3122 -0.0371  2.6313
  338SOL    HW2 1014   0.045   1.054   0.670  1.7840 -1.4903 -0.0959
  339SOL     OW 1015   1.648   1.354   2.159 -0.4575  0.2795  0.0590
  339SOL    HW1 1016   1.580   1.397   2.092  2.6132 -2.1837 -1.1662
  339SOL    HW2 1017   1.631   1.369   2.261  2.3782 -3.6640 -0.8433
  340SOL     OW 1018   2.247   0.801   1.161  0.0808  0.1787 -0.4434
  340SOL    HW1 1019   2.153   0.849   1.181  0.4697 -1.4184  0.7919
  340SOL    HW2 1020   2.235   0.736   1.083 -0.9759 -0.2232 -0.7734
  341SOL     OW 1021   1.891   2.059   0.363 -0.0669 -0.5286  0.8240
  341SOL    HW1 1022   1.946   2.084   0.275 -1.6063  0.1799  0.5491
  341SOL    HW2 1023   1.952   2.045   0.446 -0.2758 -1.9607  1.1723
  342SOL     OW 1024   2.150   2.096   2.731 -0.4447  0.5404 -0.2890
  342SOL    HW1 1025   2.188   1.998   2.752  2.2304 -0.1634 -0.7100
  342SOL    HW2 1026   2.047   2.091   2.712  1.3254 -2.1570 -2.2384
  343SOL     OW 1027   0.409   0.779   2.746 -0.3288 -0.0079 -0.0216
  343SOL    HW1 1028   0.429   0.833   2.660  0.6483 -1.0086 -0.4469
  343SOL    HW2 1029   0.497   0.767   2.802  0.4545  0.0415  1.5738
  344SOL     OW 1030   1.920   1.485   0.412  0.3146 -0.1120 -0.1543
  344SOL    HW1 1031   1.900   1.406   0.351 -0.2799  1.6691 -0.8825
  344SOL    HW2 1032   1.837   1.541   0.440  0.4464 -0.9559  1.2196
  345SOL     OW 1033   1.404   2.237   2.865  0.1247 -0.3001  0.1119
  345SOL    HW1 1034   1.329   2.204   2.799 -0.0659  0.5400 -4.1345
  345SOL    HW2 1035   1.485   2.170   2.874  1.1519  0.7123 -0.5826
  346SOL     OW 1036   2.344   0.904   1.403 -0.0454  0.1272  0.1801
  346SOL    HW1 1037   2.307   0.996   1.432 -0.9692  1.9821  0.2352
  346SOL    HW2 1038   2.302   0.871   1.312 -2.8500 -0.5185 -0.5645
  347SOL     OW 1039   0.702   2.737   1.653  0.4579  0.1951  0.3705
  347SOL    HW1 1040   0.641   2.741   1.739 -0.1871 -0.9169 -1.5243
  347SOL    HW2 1041   0.655   2.767   1.567  1.1172  1.7172 -1.3597
  348SOL     OW 1042   0.170   0.795   2.885  0.0839 -0.0724  0.5166
  348SOL    HW1 1043   0.076   0.762   2.846 -2.8266 -0.7958  0.4201
  348SOL    HW2 1044   0.251   0.794   2.819  1.3771  0.5854 -0.4905
  349SOL     OW 1045   1.852   0.450   2.811  0.0480  0.1113 -0.0453
  349SOL    HW1 1046   1.825   0.518   2.742 -0.6858 -2.2164  0.9977
  349SOL    HW2 1047   1.834   0.476   2.911 -0.1717 -2.8822  0.7134
  350SOL     OW 1048   1.702   0.359   0.362 -0.1364  0.1960  0.2588
  350SOL    HW1 1049   1.766   0.361   0.446 -0.6024  0.3957 -2.0013
  350SOL    HW2 1050   1.678   0.452   0.331  0.6111 -0.6265 -0.6041
  351SOL     OW 1051   0.914   0.821   2.060 -0.5269 -0.2193  0.1811
  351SOL    HW1 1052   0.949   0.921   2.060  0.5478  0.8169  1.9445
  351SOL    HW2 1053   0.964   0.757   2.004 -2.5866 -0.2706 -0.2466
  352SOL     OW 1054   2.051   1.346   0.598 -0.1934 -0.1245  0.7092
  352SOL    HW1 1055   1.991   1.401   0.534 -0.6952  0.0539 -0.9977
  352SOL    HW2 1056   1.997   1.299   0.672  3.9156 -0.6873  1.9362
  353SOL     OW 1057   2.185   2.807   1.097  0.1366 -0.5435  0.7393
  353SOL    HW1 1058   2.256   2.750   1.145 -2.8478 -0.1115 -1.1604
  353SOL    HW2 1059   2.118   2.850   1.163  1.9854  0.4185 -1.6401
  354SOL     OW 1060   0.256   1.435   2.864 -0.7093 -0.0471  0.0126
  354SOL    HW1 1061   0.235   1.498   2.782 -1.0249  0.0945 -0.6932
  354SOL    HW2 1062   0.358   1.432   2.894 -0.6254  0.6042 -0.1055
  355SOL     OW 1063   0.735   1.580   0.588 -0.8115 -0.3012 -0.5965
  355SOL    HW1 1064   0.710   1.506   0.660 -0.4285 -1.9847  0.5377
  355SOL    HW2 1065   0.706   1.554   0.491  2.0606  0.3660 -2.6653
  356SOL     OW 1066   0.887   0.280   2.030  0.2833 -0.2128 -0.0159
  356SOL    HW1 1067   0.979   0.259   2.069  1.9030  1.0028 -0.3088
  356SOL    HW2 1068   0.875   0.243   1.937  1.0985  1.4798  1.1308
  357SOL     OW 1069   1.005   1.322   0.345  0.1137 -0.3745 -0.6288
  357SOL    HW1 1070   1.074   1.309   0.266  0.1880  1.4798 -2.8793
  357SOL    HW2 1071   1.012   1.245   0.418 -0.2630  1.9605  0.5943
  358SOL     OW 1072   1.644   1.521   0.526  0.5528 -0.4456  0.2899
  358SOL    HW1 1073   1.618   1.468   0.613 -2.3241 -1.6530 -1.2686
  358SOL    HW2 1074   1.597   1.486   0.436 -1.2843 -2.5829  1.0778
  359SOL     OW 1075   1.617   2.589   0.315 -0.2125 -0.1624 -0.0489
  359SOL    HW1 1076   1.581   2.499   0.273 -2.7537  1.9812  0.3818
  359SOL    HW2 1077   1.545   2.650   0.359  1.7017  1.0055  0.4949
  360SOL     OW 1078   0.788   0.504   0.579 -0.4048 -0.4318 -0.0097
  360SOL    HW1 1079   0.684   0.510   0.578  1.2298  1.0910 -0.3417
  360SOL    HW2 1080   0.823   0.410   0.596  2.5395 -2.5991  0.5402
  361SOL     OW 1081   1.357   1.291   0.620  0.8768  0.2758  0.0463
  361SOL    HW1 1082   1.353   1.255   0.716  0.3461  0.5256 -0.6526
  361SOL    HW2 1083   1.280   1.362   0.604 -1.0759  2.2511 -1.2419
  362SOL     OW 1084   1.381   1.789   0.709  0.4479  0.8613 -0.3363
  362SOL    HW1 1085   1.402   1.724   0.789 -3.2502 -1.0649 -0.2769
  362SOL    HW2 1086   1.466   1.819   0.656  3.0063 -0.7443  3.3507
  363SOL     OW 1087   1.262   1.304   2.076  0.1477 -0.1601  0.3216
  363SOL    HW1 1088   1.336   1.373   2.073 -1.0739 -0.6854 -1.2114
  363SOL    HW2 1089   1.171   1.346   2.086  0.7900 -1.0271  0.2710
  364SOL     OW 1090   0.554   2.347   2.060  0.0208  0.2089  0.5003
  364SOL    HW1 1091   0.453   2.362   2.082 -0.7982 -1.5027 -1.2221
  364SOL    HW2 1092   0.589   2.405   1.982  1.0497 -1.7918 -0.0240
  365SOL     OW 1093   1.010   1.963   1.359 -0.4847 -1.0423  0.7268
  365SOL    HW1 1094   0.911   1.977   1.392 -0.2487  0.4326 -0.4561
  365SOL    HW2 1095   1.031   2.030   1.279 -1.3802 -0.4052 -0.2796
  366SOL     OW 1096   2.845   1.972   0.319 -0.3246  0.2355 -0.4558
  366SOL    HW1 1097   2.774   1.930   0.385  0.6070 -1.9307  4.3575
  366SOL    HW2 1098   2.902   1.907   0.264 -0.0976  1.9106 -1.3499
  367SOL     OW 1099   0.896   1.201   0.040 -0.3831  0.7004  0.1522
  367SOL    HW1 1100   0.897   1.106   0.087 -0.7567 -3.6246 -2.1029
  367SOL    HW2 1101   0.984   1.218  -0.006  0.8553 -1.4749  0.6676
  368SOL     OW 1102   1.486   0.573   0.567  0.0113  0.0990  0.4396
  368SOL    HW1 1103   1.388   0.615   0.559  0.2882  0.6421  0.5896
  368SOL    HW2 1104   1.559   0.603   0.497  0.0010 -0.0422 -2.8333
  369SOL     OW 1105   0.400   1.716   0.151 -0.3078 -0.2460 -0.0670
  369SOL    HW1 1106   0.445   1.750   0.237 -0.0749  0.7706 -1.6081
  369SOL    HW2 1107   0.309   1.670   0.173  0.0499  1.5365 -1.9668
  370SOL     OW 1108   0.381   2.150   1.055  0.3285  0.9441  0.6444
  370SOL    HW1 1109   0.405   2.250   1.060 -2.6188  0.5446 -0.5370
  370SOL    HW2 1110   0.307   2.134   0.988 -0.0455  0.9598  0.5141
  371SOL     OW 1111   2.889   2.244   2.656  0.3684  0.0261 -0.1482
  371SOL    HW1 1112   2.804   2.184   2.672 -1.4290  1.4230  0.2362
  371SOL    HW2 1113   2.916   2.283   2.749 -1.6590  3.1883  0.7799
  372SOL     OW 1114   1.085   2.130   1.127  0.1783  0.9725  0.7582
  372SOL    HW1 1115   1.012   2.165   1.063  0.0112  0.8785  1.3034
  372SOL    HW2 1116   1.149   2.206   1.157  0.6899  1.0966 -1.4468
  373SOL     OW 1117   1.908   1.935   0.988 -0.3198  0.7415  0.0352
  373SOL    HW1 1118   1.999   1.981   1.008  2.3768 -4.6249  0.1648
  373SOL    HW2 1119   1.842   1.991   0.935 -0.1842 -3.2832 -3.1619
  374SOL     OW 1120   1.867   0.425   0.569  0.0281  0.5229 -0.1160
  374SOL    HW1 1121   1.861   0.385   0.665  1.7638  1.3555 -3.8574
  374SOL    HW2 1122   1.949   0.395   0.516  1.5096 -2.1936 -0.4817
  375SOL     OW 1123   2.410   2.195   1.108  0.3885  0.2146 -0.2478
  375SOL    HW1 1124   2.450   2.258   1.035 -2.1297  0.9937 -0.3918
  375SOL    HW2 1125   2.473   2.181   1.189 -2.1260  1.8782 -0.2214
  376SOL     OW 1126   3.085   0.588   1.414  0.5828  1.0156  0.2701
  376SOL    HW1 1127   3.086   0.623   1.516  2.9613 -0.8913  3.4819
  376SOL    HW2 1128   2.995   0.588   1.369  2.2619  0.4660 -0.4421
  377SOL     OW 1129   2.161   2.879   0.296 -0.3276 -0.6392  0.1657
  377SOL    HW1 1130   2.126   2.973   0.327  1.7222 -0.0071  2.1727
  377SOL    HW2 1131   2.265   2.869   0.306 -0.7586 -1.4158 -3.1719
  378SOL     OW 1132   1.789   1.879   2.477  0.8448  0.6333 -0.5257
  378SOL    HW1 1133   1.863   1.899   2.402  0.4961  2.1545 -2.1091
  378SOL    HW2 1134   1.744   1.785   2.472  0.3957 -1.3612 -2.8241
  379SOL     OW 1135   0.745   0.176   2.816  0.1168  0.8476  0.0711
  379SOL    HW1 1136   0.803   0.097   2.776  0.2031 -0.1433  4.8092
  379SOL    HW2 1137   0.723   0.253   2.752 -1.6928  2.2491 -0.6592
  380SOL     OW 1138   1.573   1.143   0.541  0.1019  0.0715 -0.0690
  380SOL    HW1 1139   1.494   1.209   0.557  0.9637 -0.0673  0.4234
  380SOL    HW2 1140   1.551   1.056   0.496 -1.3793  2.8578  0.4751
  381SOL     OW 1141   1.340   1.235   1.598 -0.6731 -0.5422 -0.1648
  381SOL    HW1 1142   1.386   1.158   1.549 -1.8707  1.3240 -2.7805
  381SOL    HW2 1143   1.412   1.297   1.648  1.2525 -0.4063  0.3129
  382SOL     OW 1144   1.817   0.870   0.229 -0.2307 -0.6370 -0.0243
  382SOL    HW1 1145   1.831   0.821   0.137  0.7258  1.4254 -0.2639
  382SOL    HW2 1146   1.893   0.859   0.301 -0.3860 -0.6957  0.0917
  383SOL     OW 1147   2.588   1.002   1.489 -0.4524  0.2993 -0.1856
  383SOL    HW1 1148   2.500   0.958   1.464  2.9346  0.0322  0.9445
  383SOL    HW2 1149   2.658   0.997   1.408  0.4236 -0.3722  0.9072
  384SOL     OW 1150   0.842   2.241   0.154 -0.1872  0.3450 -0.0816
  384SOL    HW1 1151   0.819   2.338   0.181  1.7901 -0.0794 -1.9324
  384SOL    HW2 1152   0.856   2.178   0.236 -0.3868  0.2903  1.3640
  385SOL     OW 1153   2.952   2.022   1.671 -0.1113  0.3162  0.3012
  385SOL    HW1 1154   3.029   2.085   1.636  1.6187  2.8631 -0.2039
  385SOL    HW2 1155   2.994   1.930   1.683  1.2374  0.6294 -0.7804
  386SOL     OW 1156   0.489   1.055   0.469  0.6005 -0.6980  0.2056
  386SOL    HW1 1157   0.474   0.954   0.494 -0.5248  1.5291 -0.0388
  386SOL    HW2 1158   0.400   1.099   0.433 -0.9745  2.7764 -1.4448
  387SOL     OW 1159   0.914   0.350   1.687  0.3344 -0.3377  0.7851
  387SOL    HW1 1160   0.883   0.450   1.707 -0.7440  0.7002  1.4683
  387SOL    HW2 1161   0.948   0.332   1.591 -0.9177 -2.3612  0.4349
  388SOL     OW 1162   1.191   2.730   1.748  0.0131  0.0887  0.6492
  388SOL    HW1 1163   1.207   2.749   1.645 -0.5944 -0.4625 -2.5234
  388SOL    HW2 1164   1.263   2.666   1.790  1.2503  0.4504  2.1002
  389SOL     OW 1165   0.140   2.950   1.344  0.3999 -0.9883  1.1732
  389SOL    HW1 1166   0.043   2.950   1.301  1.1872  1.7374 -0.8692
  389SOL    HW2 1167   0.181   2.856   1.355  1.4502 -0.7067 -0.1064
  390SOL     OW 1168   1.058   0.966   1.341 -0.3435 -0.1457  1.0095
  390SOL    HW1 1169   1.135   0.946   1.410  0.8835  0.7160 -1.1748
  390SOL    HW2 1170   1.019   1.061   1.344  0.5898  1.7648 -2.1736
  391SOL     OW 1171   2.176   1.125   1.091 -0.1877  0.5231  0.3166
  391SOL    HW1 1172   2.108   1.044   1.109  1.3473  0.4289  0.0492
  391SOL    HW2 1173   2.245   1.108   1.013  2.7688  0.6075  0.7018
  392SOL     OW 1174   0.914   2.641   3.047 -0.1883  0.3455  0.5382
  392SOL    HW1 1175   0.986   2.567   3.035  0.9273  0.0564  1.8008
  392SOL    HW2 1176   0.868   2.639   3.138  1.5939 -1.3716 -3.2003
  393SOL     OW 1177   0.334   0.549   1.972 -0.2297  1.0551 -0.0876
  393SOL    HW1 1178   0.265   0.472   1.955  2.4748  0.8203  0.6179
  393SOL    HW2 1179   0.410   0.539   1.903 -0.2630 -1.0457 -1.6011
  394SOL     OW 1180   3.007   1.935   2.816  0.3097 -0.1731  0.4515
  394SOL    HW1 1181   3.107   1.956   2.843  0.3384 -1.2731  0.3982
  394SOL    HW2 1182   2.994   1.945   2.716  1.7064  0.7057  0.6952
  395SOL     OW 1183   1.602   1.956   0.654  0.0804 -0.1175  0.0390
  395SOL    HW1 1184   1.661   1.884   0.609 -0.1206 -0.1467  0.3274
  395SOL    HW2 1185   1.650   2.002   0.732  0.2776 -1.4926 -0.7998
  396SOL     OW 1186   2.814   1.796   1.298 -0.0693 -0.4656 -0.0841
  396SOL    HW1 1187   2.775   1.704   1.271 -0.4558  1.0093  4.7697
  396SOL    HW2 1188   2.747   1.846   1.358  1.3565  2.3079  1.4852
  397SOL     OW 1189   1.023   2.234   0.505 -0.2463 -0.1416  0.1444
  397SOL    HW1 1190   0.924   2.211   0.532 -1.3667  0.0353 -1.4448
  397SOL    HW2 1191   1.052   2.329   0.526  0.3479  0.7596  2.8080
  398SOL     OW 1192   2.150  -0.000   1.020  0.0303 -0.3291  0.3585
  398SOL    HW1 1193   2.105  -0.073   1.079 -0.9712  0.5475 -0.5256
  398SOL    HW2 1194   2.087   0.079   0.997  0.6598  0.4851 -0.9071
  399SOL     OW 1195   3.082   2.453   2.570 -0.6109  0.5509  0.3850
  399SOL    HW1 1196   2.987   2.410   2.556 -0.5708  0.3104 -1.3704
  399SOL    HW2 1197   3.143   2.394   2.627  1.0702 -1.3589 -1.0049
  400SOL     OW 1198   0.782   1.641   1.376 -0.8832  0.2517 -0.3843
  400SOL    HW1 1199   0.706   1.670   1.444 -0.0355  1.3835 -2.4810
  400SOL    HW2 1200   0.765   1.677   1.281 -0.2000 -3.3361 -1.7865
  401SOL     OW 1201   1.867   0.105   1.238 -0.2423  0.2098 -1.2395
  401SOL    HW1 1202   1.919   0.115   1.327 -0.1669 -1.4817 -2.5536
  401SOL    HW2 1203   1.768   0.136   1.237  2.5082 -0.3077 -1.1872
  402SOL     OW 1204   1.297   0.123   3.058 -0.0346 -0.0254 -0.6164
  402SOL    HW1 1205   1.396   0.116   3.021 -1.3999 -4.5396  0.0303
  402SOL    HW2 1206   1.265   0.222   3.058  1.6314 -1.6327 -0.7010
  403SOL     OW 1207   2.284   1.789   0.927  0.2552 -0.2446 -0.0953
  403SOL    HW1 1208   2.388   1.774   0.941 -1.2531  0.9301 -2.2387
  403SOL    HW2 1209   2.241   1.859   0.993 -0.5374 -0.1003  0.4004
  404SOL     OW 1210   0.201   2.491   2.835  0.5904 -0.0593  0.0586
  404SOL    HW1 1211   0.296   2.473   2.807 -2.5620  0.9549 -0.8392
  404SOL    HW2 1212   0.170   2.584   2.803 -1.7821 -1.4772  1.9600
  405SOL     OW 1213   0.093   2.479   0.697 -0.6191  0.0318  0.3746
  405SOL    HW1 1214   0.104   2.392   0.642  1.5305 -1.9842  2.6611
  405SOL    HW2 1215   0.172   2.547   0.700  2.3764  0.7374 -0.8544
  406SOL     OW 1216   0.062   1.533   3.056 -0.3073  0.1595 -0.1467
  406SOL    HW1 1217   0.118   1.485   2.987 -0.2785  0.7114  0.2724
  406SOL    HW2 1218   0.107   1.535   3.153  3.6018  1.8504  0.5888
  407SOL     OW 1219   1.543   0.961   0.989 -0.1932 -0.2793 -0.4806
  407SOL    HW1 1220   1.511   0.933   0.897  1.3041  0.6174 -3.7502
  407SOL    HW2 1221   1.472   1.028   1.040 -0.7043  2.0289  0.0825
  408SOL     OW 1222   1.616   2.451   0.956 -0.1972 -0.1284 -0.4326
  408SOL    HW1 1223   1.687   2.412   0.892 -0.1096 -1.4433 -1.0246
  408SOL    HW2 1224   1.564   2.528   0.913  1.8576 -0.0302  0.0866
  409SOL     OW 1225   0.645   0.785   0.762  0.2304 -0.9101  0.1968
  409SOL    HW1 1226   0.560   0.778   0.701  2.4375  0.1138 -1.8344
  409SOL    HW2 1227   0.656   0.693   0.814 -0.6158  0.8525 -1.0677
  410SOL     OW 1228   1.303   2.058   1.392 -0.4815  0.3440  0.1093
  410SOL    HW1 1229   1.357   1.981   1.442  2.1065  0.3130  1.3594
  410SOL    HW2 1230   1.217   2.031   1.356  1.6967  0.5004  1.7082
  411SOL     OW 1231   2.651   1.846   3.017  0.2368 -0.7254  0.2015
  411SOL    HW1 1232   2.586   1.911   2.967 -0.5298 -2.6745  1.4593
  411SOL    HW2 1233   2.706   1.792   2.947 -1.8320 -1.0559 -0.7289
  412SOL     OW 1234   1.522   2.498   2.158  0.6147  0.5338 -0.3000
  412SOL    HW1 1235   1.541   2.595   2.127  1.7992 -0.8856  0.2660
  412SOL    HW2 1236   1.421   2.489   2.167  0.1340 -0.3295 -1.1943
  413SOL     OW 1237   3.049   0.216   2.944  0.8492 -0.0631  0.1889
  413SOL    HW1 1238   3.014   0.125   2.980  0.2346  0.8153  0.6072
  413SOL    HW2 1239   3.151   0.212   2.930  1.2166 -4.0027  0.3646
  414SOL     OW 1240   1.890   1.555   1.184  0.2179 -0.1951 -0.5138
  414SOL    HW1 1241   1.821   1.626   1.206 -0.1080 -1.3792  0.0669
  414SOL    HW2 1242   1.853   1.473   1.127 -1.8704  0.2467  0.7634
  415SOL     OW 1243   0.370   2.276   0.757  0.4053  0.7170  0.0804
  415SOL    HW1 1244   0.393   2.350   0.832  1.8752  5.0163  1.3993
  415SOL    HW2 1245   0.274   2.236   0.778 -0.2455  2.3312  2.0243
  416SOL     OW 1246   0.363   1.041   1.061 -0.2388 -0.5389  0.8364
  416SOL    HW1 1247   0.318   0.997   0.974 -0.7717 -1.4323 -0.3301
  416SOL    HW2 1248   0.464   1.070   1.037  0.4664  0.0824 -0.0391
  417SOL     OW 1249   2.253   2.321   1.983  0.4106 -0.0136  0.0826
  417SOL    HW1 1250   2.320   2.263   2.034 -0.4361  2.4181 -1.8284
  417SOL    HW2 1251   2.170   2.272   1.951 -0.2845  0.7973  1.1643
  418SOL     OW 1252   1.076   0.606   1.343 -0.2144  0.2136 -0.1073
  418SOL    HW1 1253   0.996   0.556   1.296  0.9724 -0.2064  0.5189
  418SOL    HW2 1254   1.171   0.617   1.300  3.3889 -0.2877  2.0349
  419SOL     OW 1255   0.967   0.499   2.949 -0.4273 -0.6400 -0.1812
  419SOL    HW1 1256   0.923   0.460   2.864 -2.3439  3.3538 -0.0318
  419SOL    HW2 1257   0.960   0.602   2.952 -1.4239 -3.4325 -2.8814
  420SOL     OW 1258   0.086   2.257   0.528 -0.0479 -0.0362  0.1942
  420SOL    HW1 1259   0.113   2.245   0.430 -1.3493  0.4088 -0.5955
  420SOL    HW2 1260   0.037   2.178   0.572  0.2243  1.1081  0.1948
  421SOL     OW 1261   0.335   2.976   0.628  0.0984  0.0268 -0.2636
  421SOL    HW1 1262   0.311   2.939   0.723  0.9028 -0.6228 -1.8935
  421SOL    HW2 1263   0.423   3.036   0.627  2.4512 -0.7754  0.2417
  422SOL     OW 1264   1.014   2.584   1.034 -0.3782  0.1157 -0.0880
  422SOL    HW1 1265   1.075   2.625   0.958 -0.1403 -1.8770 -1.4296
  422SOL    HW2 1266   1.048   2.606   1.126  0.1655  1.4007 -2.0937
  423SOL     OW 1267   0.148   0.730   1.243  0.0566  0.5440 -0.4426
  423SOL    HW1 1268   0.097   0.658   1.300  0.9381  0.1570 -3.0863
  423SOL    HW2 1269   0.096   0.805   1.200  1.3833 -1.3772 -2.7851
  424SOL     OW 1270   1.087   2.205   2.045  0.9445 -0.0064 -0.0796
  424SOL    HW1 1271   1.075   2.300   2.011  1.1479 -0.6481 -0.2365
  424SOL    HW2 1272   1.051   2.188   2.140  1.4675 -2.1560 -0.6579
  425SOL     OW 1273   1.982   1.303   1.003 -0.2103  0.1516  0.0646
  425SOL    HW1 1274   2.056   1.235   1.035 -0.2578 -1.1442  1.3654
  425SOL    HW2 1275   2.029   1.389   0.967 -2.3046 -1.4475 -0.7363
  426SOL     OW 1276   1.509   1.592   1.376 -0.7465 -0.2202  0.0041
  426SOL    HW1 1277   1.508   1.654   1.295  0.3600  1.8976 -1.7815
  426SOL    HW2 1278   1.428   1.606   1.443  0.7029 -1.0495 -1.1196
  427SOL     OW 1279   1.928   2.327   2.056 -0.1971  0.1083  0.9778
  427SOL    HW1 1280   1.965   2.255   2.119  0.3754  0.7549  0.6063
  427SOL    HW2 1281   1.952   2.421   2.087 -0.8684 -3.4395 -1.4607
  428SOL     OW 1282   0.851   3.049   0.151 -1.3565  0.1941 -0.1521
  428SOL    HW1 1283   0.867   3.122   0.073 -2.1214  1.7372 -0.1288
  428SOL    HW2 1284   0.936   2.984   0.157  0.9183  1.2928 -1.1009
  429SOL     OW 1285   1.320   0.100   0.258 -0.3321  0.5069  0.1020
  429SOL    HW1 1286   1.422   0.089   0.278  1.7312 -0.0346 -0.8961
  429SOL    HW2 1287   1.291   0.079   0.159 -0.3046  0.8522 -1.3737
  430SOL     OW 1288   2.854   1.410   0.300  0.2262 -0.2305 -0.2329
  430SOL    HW1 1289   2.903   1.459   0.226  2.5323  0.4356  1.8690
  430SOL    HW2 1290   2.862   1.463   0.394 -2.6226 -2.8787 -0.3897
  431SOL     OW 1291   2.099   1.525   0.931 -0.2321  0.2019  0.5893
  431SOL    HW1 1292   2.181   1.591   0.943  2.0333  0.3969 -0.0043
  431SOL    HW2 1293   2.013   1.574   0.897  1.9007  2.3965  1.9886
  432SOL     OW 1294   2.932   2.249   1.149  0.3989 -0.2007  0.0328
  432SOL    HW1 1295   2.866   2.174   1.173  2.6620 -0.8522 -0.5059
  432SOL    HW2 1296   2.987   2.268   1.234 -2.0823 -1.2759 -1.4530
  433SOL     OW 1297   1.832   0.284   0.799  0.2797 -0.8428 -0.0124
  433SOL    HW1 1298   1.745   0.309   0.839  2.5614 -0.9828  0.8614
  433SOL    HW2 1299   1.895   0.245   0.877 -1.7144  0.6634  1.4087
  434SOL     OW 1300   1.551   0.317   0.696 -0.2638  0.6742  0.0249
  434SOL    HW1 1301   1.523   0.395   0.634  1.1691 -0.1685 -3.8403
  434SOL    HW2 1302   1.536   0.334   0.799  0.9906 -0.0990 -0.0225
  435SOL     OW 1303   1.455   1.506   2.047  0.7025  0.2466 -0.8146
  435SOL    HW1 1304   1.459   1.565   2.131  1.6973 -0.8910 -3.8541
  435SOL    HW2 1305   1.438   1.563   1.965 -1.2901  0.0811  0.2825
  436SOL     OW 1306   1.699   2.738   2.281  0.1699  0.0788 -0.2698
  436SOL    HW1 1307   1.665   2.813   2.341  1.1224 -2.3882 -1.5575
  436SOL    HW2 1308   1.725   2.653   2.337  1.2993 -1.0321 -0.0110
  437SOL     OW 1309   1.106   2.924   0.924 -0.2971  0.4840 -0.2291
  437SOL    HW1 1310   1.022   2.977   0.890  0.2551  0.4176 -2.5068
  437SOL    HW2 1311   1.085   2.869   1.008  0.3332  2.1514  0.3952
  438SOL     OW 1312   0.981   2.613   1.323  0.3651  0.4652 -0.0711
  438SOL    HW1 1313   1.061   2.649   1.384 -1.7659 -0.6153  2.4536
  438SOL    HW2 1314   0.984   2.512   1.320 -0.1034  2.0025 -1.3853
  439SOL     OW 1315   0.724   1.784   1.135  0.1651  0.6087  0.6955
  439SOL    HW1 1316   0.706   1.866   1.072  2.0885 -0.1462  0.3371
  439SOL    HW2 1317   0.634   1.754   1.183 -0.4621  1.3008 -1.2376
  440SOL     OW 1318   1.042   2.524   1.940  0.6736 -0.5213 -0.1374
  440SOL    HW1 1319   1.001   2.543   1.848 -4.0519 -1.4405  0.7187
  440SOL    HW2 1320   1.144   2.543   1.954  1.3881  1.1423 -1.5193
  441SOL     OW 1321   0.533   2.741   1.427  0.0958  0.0724  0.2744
  441SOL    HW1 1322   0.585   2.658   1.440 -0.4987  1.4367  1.0816
  441SOL    HW2 1323   0.427   2.728   1.440 -1.2936  2.3339  3.3953
  442SOL     OW 1324   2.253   0.736   2.488  0.4095 -0.0623  0.0425
  442SOL    HW1 1325   2.255   0.638   2.520 -0.4595 -0.4794  0.4627
  442SOL    HW2 1326   2.154   0.768   2.467  0.5037 -2.0403  0.2872
  443SOL     OW 1327   1.189   2.737   2.201 -0.4687  1.0176  0.2326
  443SOL    HW1 1328   1.176   2.785   2.294  0.2856  1.0453 -3.8364
  443SOL    HW2 1329   1.178   2.636   2.215 -0.3649  1.1664  0.3374
  444SOL     OW 1330   1.077   1.290   1.565 -0.2243  0.5785  0.0103
  444SOL    HW1 1331   1.181   1.279   1.563  1.0198  3.1400 -1.4910
  444SOL    HW2 1332   1.063   1.364   1.635  1.5231 -0.6487  1.7845
  445SOL     OW 1333   0.013   2.297   1.920 -0.2491  0.0206  0.1314
  445SOL    HW1 1334   0.023   2.395   1.881  0.4953  0.0781  0.0600
  445SOL    HW2 1335  -0.076   2.285   1.974  1.1881  0.8365  0.5420
  446SOL     OW 1336   0.179   1.884   2.333 -0.3369 -0.2242  0.2980
  446SOL    HW1 1337   0.138   1.964   2.385  0.0560  0.0564  1.3778
  446SOL    HW2 1338   0.120   1.878   2.248 -3.4265 -0.5164  2.4421
  447SOL     OW 1339   1.247   1.686   1.934  0.6374  0.0530  0.3217
  447SOL    HW1 1340   1.200   1.749   1.867  0.8354 -1.7459 -1.6102
  447SOL    HW2 1341   1.291   1.741   2.012 -1.5290  0.0882  0.9440
  448SOL     OW 1342   0.178   1.565   2.035 -0.1405 -0.1133 -0.1203
  448SOL    HW1 1343   0.205   1.650   1.983  1.0262  2.3688 -1.3182
  448SOL    HW2 1344   0.135   1.575   2.130  2.2183 -1.6354  1.4561
  449SOL     OW 1345   2.017   2.945   0.808  0.4873  0.4035 -0.0267
  449SOL    HW1 1346   2.091   2.962   0.878 -0.5917 -2.0786 -2.5522
  449SOL    HW2 1347   2.000   2.840   0.806 -1.6713  1.5515  2.4269
  450SOL     OW 1348   2.307   1.362   0.774 -0.8402  0.3081 -0.0610
  450SOL    HW1 1349   2.298   1.272   0.822  0.1515  1.2701 -2.7421
  450SOL    HW2 1350   2.226   1.378   0.717  1.3934 -0.4322 -1.5071
  451SOL     OW 1351   1.413   0.038   1.465  0.5340  0.2358  0.4616
  451SOL    HW1 1352   1.333   0.109   1.472  1.0600  1.2745  1.7876
  451SOL    HW2 1353   1.435  -0.008   1.556  1.1642  0.7900 -0.8564
  452SOL     OW 1354   2.653   2.287   2.216 -0.1581 -0.3015 -0.1566
  452SOL    HW1 1355   2.590   2.361   2.250  0.6091 -2.2904  0.6102
  452SOL    HW2 1356   2.701   2.237   2.293  0.2682  1.2474 -0.7860
  453SOL     OW 1357   2.432   2.639   3.078 -0.1834 -0.6191  0.0287
  453SOL    HW1 1358   2.341   2.674   3.103  1.3343 -0.1306 -0.4063
  453SOL    HW2 1359   2.425   2.571   3.002  1.5171 -2.3473  1.0026
  454SOL     OW 1360   0.988   1.103   2.106 -0.2762  0.5497  0.0603
  454SOL    HW1 1361   0.953   1.146   2.015 -1.2342 -1.5148  0.6496
  454SOL    HW2 1362   1.086   1.128   2.128 -1.3698 -0.0728 -1.1224
  455SOL     OW 1363   0.677   2.633   2.880  0.1603  0.5528 -0.4848
  455SOL    HW1 1364   0.771   2.665   2.921  1.6392 -2.2068  0.1717
  455SOL    HW2 1365   0.656   2.534   2.912 -1.9598 -0.0546 -0.0542
  456SOL     OW 1366   0.500   1.863   0.381  0.3139 -0.5235 -0.1578
  456SOL    HW1 1367   0.554   1.860   0.473 -0.3779 -2.6186 -1.5518
  456SOL    HW2 1368   0.528   1.949   0.322 -2.7851  3.2046  0.3957
  457SOL     OW 1369   0.376   2.608   0.716 -0.2089  0.0045  0.2348
  457SOL    HW1 1370   0.399   2.608   0.615  1.5176  1.1512 -1.0282
  457SOL    HW2 1371   0.459   2.622   0.778 -1.4311  1.3792 -3.0066
  458SOL     OW 1372   2.983   3.048   1.254 -0.2712 -0.8370  0.6522
  458SOL    HW1 1373   3.016   3.137   1.209 -3.0547 -1.1368 -0.4315
  458SOL    HW2 1374   2.925   2.986   1.194 -1.2056  0.1243 -1.5251
  459SOL     OW 1375   2.152   2.558   0.884 -0.6435  0.6388  0.6050
  459SOL    HW1 1376   2.169   2.604   0.974  1.1780 -1.5092  1.2576
  459SOL    HW2 1377   2.241   2.524   0.840  0.7505 -1.8157 -1.8816
  460SOL     OW 1378   1.142   1.951   2.964 -0.2671  0.1378  0.7513
  460SOL    HW1 1379   1.179   2.009   2.889  2.7779 -0.5540  0.3538
  460SOL    HW2 1380   1.206   1.877   2.998 -0.0855 -0.6166  2.1487
  461SOL     OW 1381   0.494   2.145   2.673  0.1920 -0.2636 -0.3454
  461SOL    HW1 1382   0.419   2.085   2.635 -1.0759 -0.1951 -3.2647
  461SOL    HW2 1383   0.527   2.108   2.763  1.5534 -0.7142 -0.7462
  462SOL     OW 1384   0.933   1.190   1.835 -0.1593  0.6634  0.0167
  462SOL    HW1 1385   1.002   1.142   1.766 -1.0228  0.2141 -1.6167
  462SOL    HW2 1386   0.874   1.255   1.784  1.3853  1.2834 -0.3022
  463SOL     OW 1387   0.450   0.798   0.551 -0.0616  0.7583  0.5965
  463SOL    HW1 1388   0.498   0.712   0.512  1.3077 -1.6398 -1.0580
  463SOL    HW2 1389   0.347   0.786   0.543  0.2599 -3.3006 -2.4817
  464SOL     OW 1390   0.603   2.239   2.309 -0.0641  0.3732  0.3019
  464SOL    HW1 1391   0.567   2.291   2.390 -0.7792 -1.4503 -0.7597
  464SOL    HW2 1392   0.578   2.284   2.223  0.0507  0.2883  0.7789
  465SOL     OW 1393   0.265   0.918   0.837 -0.8201 -0.0590 -0.4771
  465SOL    HW1 1394   0.184   0.963   0.796  0.4809  1.7479  2.0826
  465SOL    HW2 1395   0.259   0.814   0.829 -1.5542 -1.5460  0.1050
  466SOL     OW 1396   1.375   1.106   1.137 -0.1220  0.1367  0.1927
  466SOL    HW1 1397   1.413   1.192   1.188  0.8307 -1.5397  2.3216
  466SOL    HW2 1398   1.282   1.118   1.095  0.1186  2.4485 -2.8321
  467SOL     OW 1399   0.508   0.338   2.363 -0.0254  0.6388  0.8520
  467SOL    HW1 1400   0.497   0.404   2.442 -2.1325  0.6614 -0.8027
  467SOL    HW2 1401   0.493   0.241   2.396 -0.6115  0.8459 -1.3945
  468SOL     OW 1402   0.417   2.314   1.668 -0.2885 -0.5817 -0.0850
  468SOL    HW1 1403   0.486   2.377   1.713 -0.3462 -1.1380  0.1689
  468SOL    HW2 1404   0.412   2.327   1.566  0.9358  1.6420  1.6753
  469SOL     OW 1405   1.486   1.338   1.267 -0.0685  0.1880 -0.9374
  469SOL    HW1 1406   1.579   1.310   1.240 -2.1068  0.1077 -1.4703
  469SOL    HW2 1407   1.502   1.422   1.329  1.6608 -2.2785  1.7633
  470SOL     OW 1408   3.017   1.695   0.736  0.0576  0.2953 -0.1535
  470SOL    HW1 1409   3.098   1.764   0.733  4.0359 -1.6080  0.6321
  470SOL    HW2 1410   2.932   1.742   0.771  0.3275 -0.7715  1.8561
  471SOL     OW 1411   2.623   1.353   2.167 -0.3040 -0.2864 -0.0106
  471SOL    HW1 1412   2.602   1.276   2.237 -0.4004 -0.6141  0.6405
  471SOL    HW2 1413   2.722   1.363   2.144 -0.4786 -2.5913  1.5837
  472SOL     OW 1414   1.113   2.442   3.049  0.0312 -0.7690 -0.2710
  472SOL    HW1 1415   1.149   2.449   3.145  0.6192 -0.7423 -1.6702
  472SOL    HW2 1416   1.074   2.351   3.023 -0.6317  1.0350  2.0006
  473SOL     OW 1417   1.061   1.495   0.923  0.5704  0.3537 -0.2229
  473SOL    HW1 1418   0.966   1.529   0.938  1.6932 -2.7309 -0.4431
  473SOL    HW2 1419   1.123   1.502   1.012  2.9515  3.3005  1.4160
  474SOL     OW 1420   0.792   1.229   0.605  0.2998  0.2785  0.6225
  474SOL    HW1 1421   0.786   1.201   0.504  0.7790 -0.0538  0.8325
  474SOL    HW2 1422   0.826   1.155   0.668 -0.9064  1.9711  2.0542
  475SOL     OW 1423   2.811   0.138   0.792  0.4593 -0.2544  0.0641
  475SOL    HW1 1424   2.898   0.171   0.837 -1.8208 -1.1640  1.0486
  475SOL    HW2 1425   2.727   0.148   0.854  1.4452  1.1026 -0.5567
  476SOL     OW 1426   0.919   2.994   1.768  0.2942 -0.2974 -0.4535
  476SOL    HW1 1427   0.991   2.969   1.838  0.3238  0.6840 -2.6393
  476SOL    HW2 1428   0.951   2.968   1.671 -0.5638  1.0382 -0.4178
  477SOL     OW 1429   1.421   0.331   2.484  0.0810 -0.0274  0.1000
  477SOL    HW1 1430   1.439   0.338   2.585  0.5753 -1.6317 -0.9431
  477SOL    HW2 1431   1.477   0.249   2.447 -1.0320 -1.2033  0.4973
  478SOL     OW 1432   2.253   1.830   0.247 -0.2863 -0.0332  0.2359
  478SOL    HW1 1433   2.209   1.739   0.231  2.0232  2.4779 -0.3177
  478SOL    HW2 1434   2.358   1.820   0.241  0.7670  0.1873  1.3312
  479SOL     OW 1435   1.232   1.046   2.872 -0.0278 -0.3773 -0.3747
  479SOL    HW1 1436   1.288   1.056   2.782  1.0317 -1.3517 -0.7454
  479SOL    HW2 1437   1.127   1.059   2.874 -1.6261  0.5802  4.2688
  480SOL     OW 1438   2.523   2.311   0.361 -0.8804  0.3343 -0.7687
  480SOL    HW1 1439   2.470   2.225   0.390  1.2108  2.3861  2.6542
  480SOL    HW2 1440   2.463   2.372   0.304 -1.1076  0.9515 -0.8833
  481SOL     OW 1441   1.061   1.180   0.833  0.3297 -0.1301 -0.2692
  481SOL    HW1 1442   1.078   1.273   0.784 -0.6016  1.4101  1.2777
  481SOL    HW2 1443   1.071   1.193   0.937  1.6467 -1.8229 -0.5563
  482SOL     OW 1444   1.593   0.337   2.040  0.2816  0.5978  0.4018
  482SOL    HW1 1445   1.591   0.435   1.994  1.0650 -0.6886 -1.7059
  482SOL    HW2 1446   1.679   0.319   2.091 -0.3633 -1.3251 -0.4335
  483SOL     OW 1447   0.187   2.388   1.278 -0.4463  0.1756  0.0423
  483SOL    HW1 1448   0.102   2.326   1.292 -0.2041 -2.2478 -0.8374
  483SOL    HW2 1449   0.181   2.447   1.191 -2.9521 -0.7267  1.3066
  484SOL     OW 1450   1.706   0.981   1.398  0.1492 -0.3103 -0.2515
  484SOL    HW1 1451   1.777   0.907   1.412 -2.4285  0.4438  1.2360
  484SOL    HW2 1452   1.728   1.071   1.446 -1.1415 -1.7941  1.2794
  485SOL     OW 1453   0.673   1.081   1.784  0.7059 -0.0244 -0.6774
  485SOL    HW1 1454   0.667   1.100   1.687 -0.7792 -0.3352  0.6984
  485SOL    HW2 1455   0.764   1.112   1.832 -1.5754 -2.0117  1.8217
  486SOL     OW 1456   0.939   1.957   2.482 -0.5272  0.4801 -0.3997
  486SOL    HW1 1457   0.966   1.892   2.561 -0.9965  0.3378  1.3130
  486SOL    HW2 1458   0.841   1.997   2.504  0.7962 -0.1351  1.7127
  487SOL     OW 1459   1.701   1.542   0.894 -0.4482 -0.3326 -0.3850
  487SOL    HW1 1460   1.689   1.450   0.854 -0.1428 -1.6002  1.6704
  487SOL    HW2 1461   1.783   1.594   0.864 -3.4617 -1.0394  1.2761
  488SOL     OW 1462   2.960   0.926   2.202  0.6642  0.3537 -0.2280
  488SOL    HW1 1463   3.004   0.855   2.137  0.0411  0.0454 -1.7633
  488SOL    HW2 1464   2.977   0.910   2.300 -1.5115  2.3758 -1.2382
  489SOL     OW 1465   2.775   0.254   1.298 -0.7661  0.1272  0.3671
  489SOL    HW1 1466   2.748   0.200   1.388  0.0438  0.6510 -0.8799
  489SOL    HW2 1467   2.874   0.237   1.276 -1.1768 -1.0473 -0.1734
  490SOL     OW 1468   1.429   2.956   2.807 -0.3491  0.1789  0.2348
  490SOL    HW1 1469   1.471   2.868   2.783  0.0392  2.8449 -2.5675
  490SOL    HW2 1470   1.424   3.025   2.732 -1.0850  1.0453  0.7460
  491SOL     OW 1471   1.794   1.495   2.672  0.4238  0.4841 -0.1700
  491SOL    HW1 1472   1.746   1.452   2.756  1.9671 -1.1947  1.1504
  491SOL    HW2 1473   1.898   1.509   2.686 -1.3450 -2.6945 -0.2477
  492SOL     OW 1474   0.543   2.051   0.719  0.0762  0.0661  0.8126
  492SOL    HW1 1475   0.592   2.047   0.811 -1.1873 -2.1839  2.0123
  492SOL    HW2 1476   0.479   2.136   0.711 -1.1188  0.8939 -0.7933
  493SOL     OW 1477   0.431   1.441   2.053 -0.1547  0.9832  0.0039
  493SOL    HW1 1478   0.338   1.486   2.045 -0.2931 -0.8770  0.5113
  493SOL    HW2 1479   0.435   1.373   2.133 -1.3226  1.7473  3.3058
  494SOL     OW 1480   2.657   2.697   0.159  0.3640  0.0493 -0.0012
  494SOL    HW1 1481   2.653   2.636   0.243  0.2806 -0.9857  1.0167
  494SOL    HW2 1482   2.601   2.658   0.079  0.4638 -0.6479  0.4573
  495SOL     OW 1483   2.725   2.637   2.709  0.0716 -0.2079  0.7695
  495SOL    HW1 1484   2.646   2.570   2.688  0.5876 -1.7608 -0.5301
  495SOL    HW2 1485   2.769   2.668   2.620 -0.3617  1.5828  0.2845
  496SOL     OW 1486   2.020   2.171   0.719 -0.1501  0.0656  0.1979
  496SOL    HW1 1487   2.033   2.206   0.815 -0.2922 -0.6541  2.8593
  496SOL    HW2 1488   2.082   2.091   0.692 -0.8072 -0.3420  1.2254
  497SOL     OW 1489   0.199   2.980   2.401 -0.0222  0.4424  0.1594
  497SOL    HW1 1490   0.162   3.045   2.476  0.0731  1.5924 -2.3111
  497SOL    HW2 1491   0.234   3.037   2.321 -0.4712  0.0285  0.6423
  498SOL     OW 1492   1.220   1.445   1.145  0.1988 -0.0946 -0.1461
  498SOL    HW1 1493   1.296   1.407   1.210  0.1373 -0.8851 -2.4016
  498SOL    HW2 1494   1.177   1.531   1.185  0.3110  1.1808 -2.3672
  499SOL     OW 1495   0.762   1.857   0.549  0.6499 -0.4170 -0.1297
  499SOL    HW1 1496   0.781   1.754   0.539 -0.7917  0.1002 -1.0791
  499SOL    HW2 1497   0.817   1.896   0.631 -1.1419  0.6322  3.6184
  500SOL     OW 1498   1.443   2.967   1.700 -0.2758  0.1398  0.1480
  500SOL    HW1 1499   1.408   2.940   1.793 -0.6568 -1.7948  0.0021
  500SOL    HW2 1500   1.507   2.894   1.658 -1.1580 -0.3952  0.6226
  501SOL     OW 1501   0.789   1.117   2.294 -0.5970  0.0500  0.1245
  501SOL    HW1 1502   0.697   1.080   2.272 -0.6086  3.4091 -2.5988
  501SOL    HW2 1503   0.853   1.097   2.215  1.6070 -0.6239  1.1283
  502SOL     OW 1504   2.577   0.951   1.757 -0.2075  0.5397  0.0188
  502SOL    HW1 1505   2.571   0.976   1.656 -0.1930  2.2734  0.8441
  502SOL    HW2 1506   2.523   0.861   1.777 -2.3779 -0.8218  1.4330
  503SOL     OW 1507   1.312   0.135   0.605  0.6032  0.6048 -0.1467
  503SOL    HW1 1508   1.249   0.189   0.547  0.3346  0.3417  1.9773
  503SOL    HW2 1509   1.380   0.190   0.652 -0.2416  2.1026 -0.0705
  504SOL     OW 1510   3.030   2.316   1.402 -0.0361  0.2491 -0.3751
  504SOL    HW1 1511   2.987   2.412   1.430 -0.5361  0.3969 -0.7113
  504SOL    HW2 1512   3.085   2.287   1.484  1.8417  2.0212 -0.8554
  505SOL     OW 1513   2.274   1.166   1.493  0.6347 -0.1339 -0.5187
  505SOL    HW1 1514   2.315   1.206   1.407  2.1768  1.3568 -1.4924
  505SOL    HW2 1515   2.305   1.213   1.578 -1.8920 -1.6720 -2.2923
  506SOL     OW 1516   1.986   0.214   1.749 -0.3015  0.4344 -0.2189
  506SOL    HW1 1517   2.048   0.131   1.768  1.6264 -0.6784 -0.4563
  506SOL    HW2 1518   1.994   0.281   1.828  1.6500 -3.2637 -0.2360
  507SOL     OW 1519   0.531   0.670   2.167 -0.0774 -0.0233  0.2754
  507SOL    HW1 1520   0.449   0.642   2.113 -1.4697 -2.7647  0.6651
  507SOL    HW2 1521   0.607   0.605   2.159 -4.8722  0.9389 -0.8752
  508SOL     OW 1522   0.262   1.608   0.911  0.3613  0.0438  0.0910
  508SOL    HW1 1523   0.302   1.681   0.848 -1.8794  2.9035 -0.2999
  508SOL    HW2 1524   0.234   1.650   1.000  2.0291 -0.2947  0.5664
  509SOL     OW 1525   1.349   1.238   2.439 -0.2719 -0.4638  0.7516
  509SOL    HW1 1526   1.263   1.181   2.472  1.6880 -0.3330 -0.7822
  509SOL    HW2 1527   1.387   1.218   2.347 -0.8098 -1.0278  0.5352
  510SOL     OW 1528   1.286   2.003   2.062  0.3467 -0.2625 -0.2145
  510SOL    HW1 1529   1.224   2.090   2.059 -0.6726  0.4904  2.5290
  510SOL    HW2 1530   1.245   1.941   2.132  2.5219  0.1607 -0.9517
  511SOL     OW 1531   3.049   2.656   1.318 -0.0201 -0.3477 -0.0754
  511SOL    HW1 1532   3.007   2.617   1.234  2.0911  0.9930 -1.0064
  511SOL    HW2 1533   3.003   2.631   1.412 -0.2578  0.4868  0.5235
  512SOL     OW 1534   2.381   0.434   1.393  0.4275  0.4349  0.0188
  512SOL    HW1 1535   2.285   0.399   1.365  1.6627 -2.8287 -2.0032
  512SOL    HW2 1536   2.449   0.410   1.320  2.1534 -1.4671  0.5078
  513SOL     OW 1537   2.469   2.023   0.850 -0.1720  0.2131 -0.7031
  513SOL    HW1 1538   2.422   2.101   0.804  1.1310  1.5894 -0.6892
  513SOL    HW2 1539   2.533   1.966   0.789 -0.5980  1.6753 -1.5750
  514SOL     OW 1540   0.618   2.805   0.437  0.7531  0.0538 -0.7288
  514SOL    HW1 1541   0.602   2.856   0.346 -0.0256 -1.9047 -1.0578
  514SOL    HW2 1542   0.670   2.860   0.507 -0.4083 -1.9200  0.5315
  515SOL     OW 1543   2.034   1.143   2.270  0.0302  0.5466  0.6314
  515SOL    HW1 1544   1.990   1.151   2.178  0.7916 -2.2264 -1.6218
  515SOL    HW2 1545   1.986   1.170   2.358  0.6354  0.5793  3.2467
  516SOL     OW 1546   0.285   0.265   1.954 -0.2607 -0.3693 -0.0772
  516SOL    HW1 1547   0.379   0.259   1.907  1.8081 -1.4910 -0.0957
  516SOL    HW2 1548   0.208   0.233   1.894  1.3124 -0.0186  1.4587
  517SOL     OW 1549   0.358   3.032   1.207 -0.6624 -0.0284  0.9336
  517SOL    HW1 1550   0.372   3.127   1.241  1.5998 -0.3989 -2.1808
  517SOL    HW2 1551   0.272   2.989   1.244  2.3330 -1.3645 -1.9694
  518SOL     OW 1552   2.144   3.075   1.753 -0.6020  0.1589  0.5642
  518SOL    HW1 1553   2.217   3.139   1.792 -2.4356 -3.3284 -0.1580
  518SOL    HW2 1554   2.185   3.008   1.687 -2.4206 -0.7037  0.5353
  519SOL     OW 1555   2.405   2.222   2.576  0.3359  0.0762  0.1418
  519SOL    HW1 1556   2.315   2.209   2.622 -0.1973 -0.3033 -2.5534
  519SOL    HW2 1557   2.447   2.316   2.581  1.0141 -0.6043 -0.3122
  520SOL     OW 1558   1.748   2.874   1.862  0.0974  0.1903 -0.1864
  520SOL    HW1 1559   1.661   2.828   1.894 -0.3247 -0.8410  1.1068
  520SOL    HW2 1560   1.819   2.806   1.829  1.1805 -0.7047  0.4056
  521SOL     OW 1561   0.573  -0.001   2.116  0.1615  0.7082 -0.5209
  521SOL    HW1 1562   0.471  -0.012   2.144 -1.5977  1.3183 -3.3323
  521SOL    HW2 1563   0.637   0.036   2.193  1.5783 -1.2434 -0.4538
  522SOL     OW 1564   0.198   1.906   1.469 -0.2599  0.1876 -0.0378
  522SOL    HW1 1565   0.246   1.964   1.544 -1.8301 -2.1586  1.6521
  522SOL    HW2 1566   0.157   1.963   1.395 -1.2700 -1.1215  2.2798
  523SOL     OW 1567   2.251   2.908   1.566  0.1907  0.0624  0.4553
  523SOL    HW1 1568   2.324   2.838   1.546 -0.4161 -0.9540 -1.9370
  523SOL    HW2 1569   2.153   2.883   1.532 -1.7868  0.5561  0.2171
  524SOL     OW 1570   0.183   2.756   2.768  0.1893 -0.0103  0.7042
  524SOL    HW1 1571   0.110   2.808   2.821 -2.6726  1.2569 -2.1905
  524SOL    HW2 1572   0.282   2.763   2.800 -0.4121 -0.7686 -1.9642
  525SOL     OW 1573   2.159   1.949   0.472 -0.0007 -0.3394 -0.5806
  525SOL    HW1 1574   2.187   1.889   0.549 -2.3170  2.8580 -0.2605
  525SOL    HW2 1575   2.176   1.917   0.373  0.3219  1.3485 -0.3669
  526SOL     OW 1576   0.429   1.518   1.617  0.7033  0.1253 -0.2595
  526SOL    HW1 1577   0.364   1.500   1.699 -2.7617  3.4777 -2.4698
  526SOL    HW2 1578   0.464   1.430   1.575 -0.0634  0.9993 -0.5495
  527SOL     OW 1579   1.084   2.952   1.285 -0.2103 -0.7579  0.5556
  527SOL    HW1 1580   1.181   2.916   1.292 -0.1463 -2.1618  2.5439
  527SOL    HW2 1581   1.083   3.059   1.284  1.8180 -2.1640 -2.6824
  528SOL     OW 1582   1.347   2.412   0.500 -0.2047 -0.0401 -0.3802
  528SOL    HW1 1583   1.375   2.313   0.491 -0.4732 -0.5891  1.3162
  528SOL    HW2 1584   1.395   2.458   0.580  1.6337  1.3846 -0.7772
  529SOL     OW 1585   1.902   1.699   0.810 -0.4384 -0.5017 -0.0260
  529SOL    HW1 1586   1.858   1.736   0.727  0.0658 -0.2740 -0.9162
  529SOL    HW2 1587   1.925   1.773   0.883 -1.3249  1.4232  1.0732
  530SOL     OW 1588   0.281   2.482   0.345 -0.1081 -0.0084  0.3559
  530SOL    HW1 1589   0.259   2.577   0.390 -0.0750 -0.6991 -0.2332
  530SOL    HW2 1590   0.349   2.424   0.394  1.1437  0.2788  0.2560
  531SOL     OW 1591   1.807   1.023   0.995  0.3672 -0.0968  0.1131
  531SOL    HW1 1592   1.846   0.997   0.901  0.1223  1.0944 -1.3490
  531SOL    HW2 1593   1.709   0.997   1.004  3.0162  0.0198 -1.2441
  532SOL     OW 1594   0.503   1.066   0.802  0.0781 -0.0876  0.0237
  532SOL    HW1 1595   0.544   1.037   0.713 -0.7068  1.2393 -0.9954
  532SOL    HW2 1596   0.421   1.001   0.820 -1.4752 -0.2035 -2.8526
  533SOL     OW 1597   1.766   0.015   2.568  0.1766  0.3595 -0.0285
  533SOL    HW1 1598   1.869   0.027   2.569 -1.1144 -1.8480  0.6989
  533SOL    HW2 1599   1.725   0.067   2.649  0.2610  0.4029 -1.3590
  534SOL     OW 1600   0.363   0.214   1.590  0.3552  0.6195 -0.7379
  534SOL    HW1 1601   0.464   0.213   1.599  0.1676 -0.6915 -0.7868
  534SOL    HW2 1602   0.324   0.309   1.588  0.1530  1.7664 -4.0397
  535SOL     OW 1603   1.949   0.338   0.147 -0.0771  0.1902  0.2411
  535SOL    HW1 1604   1.953   0.440   0.185  0.4643  3.2167  0.5996
  535SOL    HW2 1605   1.955   0.265   0.224 -2.6647 -0.0948  1.2363
  536SOL     OW 1606   1.394   2.656   0.953  0.0835  0.1589  0.4078
  536SOL    HW1 1607   1.384   2.601   1.041 -0.2208  2.4560 -3.3239
  536SOL    HW2 1608   1.303   2.654   0.903  0.7323 -0.9424 -0.9140
  537SOL     OW 1609   0.801   0.291   2.408 -0.2518 -0.4280  0.3862
  537SOL    HW1 1610   0.805   0.358   2.327 -0.0195 -2.1516 -0.3947
  537SOL    HW2 1611   0.780   0.194   2.376  1.4152  1.2033 -0.4987
  538SOL     OW 1612   1.668   2.301   1.434 -0.2560 -0.3565 -0.8021
  538SOL    HW1 1613   1.680   2.199   1.432  0.8624  0.5606 -2.2762
  538SOL    HW2 1614   1.751   2.356   1.414 -2.5172  1.5802  0.7582
  539SOL     OW 1615   0.163   1.640   2.673  0.2981 -0.0323  0.1436
  539SOL    HW1 1616   0.066   1.618   2.647  0.2625 -0.5556 -0.6279
  539SOL    HW2 1617   0.168   1.735   2.709  1.9064 -1.0305 -0.5305
  540SOL     OW 1618   2.667   1.765   1.924  0.0920 -0.0591 -0.0758
  540SOL    HW1 1619   2.602   1.688   1.948  1.0964  1.9730 -0.1130
  540SOL    HW2 1620   2.627   1.858   1.909  1.7918 -3.8936  1.2743
  541SOL     OW 1621   0.547   2.183   0.008  0.7821 -0.1044  0.0040
  541SOL    HW1 1622   0.569   2.171   0.109 -0.4403  0.5505  1.1757
  541SOL    HW2 1623   0.443   2.170  -0.013 -0.1633 -1.8046  0.4926
  542SOL     OW 1624   2.191   2.573   0.411 -0.4859  0.1453  0.2164
  542SOL    HW1 1625   2.161   2.673   0.412 -0.5094 -0.1021 -0.7481
  542SOL    HW2 1626   2.119   2.506   0.446 -0.1651  0.2081 -1.3090
  543SOL     OW 1627   1.109   1.812   1.558 -0.2931 -0.1172 -0.2412
  543SOL    HW1 1628   1.109   1.862   1.651 -0.7352 -2.6472  0.6701
  543SOL    HW2 1629   1.053   1.858   1.487  0.4200  1.1141  0.0884
  544SOL     OW 1630   1.101   0.478   0.175 -0.0244  0.0737 -0.2203
  544SOL    HW1 1631   1.087   0.408   0.252 -1.8220  1.7573 -0.1305
  544SOL    HW2 1632   1.159   0.435   0.096  1.3367  2.1559 -0.5847
  545SOL     OW 1633   1.122   1.764   0.778 -0.3024 -0.3182 -0.1351
  545SOL    HW1 1634   1.218   1.767   0.744 -1.2716  2.0935  0.6834
  545SOL    HW2 1635   1.089   1.671   0.799 -0.6526  1.4681 -1.4053
  546SOL     OW 1636   2.653   1.543   3.012  0.4417  0.5735 -0.3203
  546SOL    HW1 1637   2.619   1.629   2.978  1.7384 -0.2457  0.2723
  546SOL    HW2 1638   2.574   1.478   3.028  2.7870  2.9688  0.5792
  547SOL     OW 1639   0.614   3.012   2.589 -0.1560 -0.0540 -0.5907
  547SOL    HW1 1640   0.698   3.015   2.644  0.9900 -0.1578 -0.0324
  547SOL    HW2 1641   0.543   2.953   2.644 -1.9049  1.3667  1.2475
  548SOL     OW 1642   2.083   0.849   2.980 -0.4189 -0.4025  0.3815
  548SOL    HW1 1643   1.992   0.809   3.017 -1.2326 -1.9697 -0.8113
  548SOL    HW2 1644   2.094   0.952   3.000  0.6854  1.3942  0.5896
  549SOL     OW 1645   0.654   0.599   0.201 -0.4375  0.2864  0.0950
  549SOL    HW1 1646   0.613   0.634   0.116  1.3092 -2.0271  2.4525
  549SOL    HW2 1647   0.746   0.639   0.207  1.2096  1.0493  1.3126
  550SOL     OW 1648   2.609   2.796   2.911 -0.2448  0.0758 -0.1747
  550SOL    HW1 1649   2.569   2.732   2.981 -0.4785  0.3421 -0.3206
  550SOL    HW2 1650   2.664   2.744   2.839 -2.0749  3.6175 -0.8724
  551SOL     OW 1651   0.269   0.911   0.276 -0.3765  0.8011  0.0984
  551SOL    HW1 1652   0.368   0.911   0.235  0.8020 -0.4261 -2.1961
  551SOL    HW2 1653   0.251   0.849   0.359 -1.4177 -0.2896 -2.2267
  552SOL     OW 1654   0.642   3.005   1.851  0.6951  0.3191  0.2068
  552SOL    HW1 1655   0.623   3.026   1.948  2.3909 -0.5518 -2.6648
  552SOL    HW2 1656   0.743   3.002   1.823 -0.4081 -0.8763  0.0912
  553SOL     OW 1657   2.892   2.431   0.363 -0.0710 -0.2201 -0.0145
  553SOL    HW1 1658   2.874   2.333   0.374  1.7045  3.4504  1.8319
  553SOL    HW2 1659   2.807   2.495   0.370 -0.8940 -2.3132 -3.4017
  554SOL     OW 1660   2.114   0.326   0.511  0.0719 -0.0196 -0.6289
  554SOL    HW1 1661   2.187   0.324   0.439  1.1825  1.2705  2.2529
  554SOL    HW2 1662   2.142   0.262   0.590  0.2216 -1.4502  0.2034
  555SOL     OW 1663   0.377   2.792   2.524  0.4094  0.2286  0.3606
  555SOL    HW1 1664   0.302   2.856   2.501  2.0148  0.4640 -2.1008
  555SOL    HW2 1665   0.437   2.781   2.436 -0.6808  0.1891 -0.3748
  556SOL     OW 1666   0.870   2.354   1.567  0.1619  0.5315  0.4675
  556SOL    HW1 1667   0.910   2.417   1.636  1.6974  0.6561  0.2911
  556SOL    HW2 1668   0.923   2.363   1.475  0.8113  2.2122  0.9345
  557SOL     OW 1669   0.143   2.020   0.229 -0.1306  0.2439 -0.8716
  557SOL    HW1 1670   0.058   1.976   0.193  0.8927  1.8600  0.7121
  557SOL    HW2 1671   0.197   2.062   0.154 -3.5323  2.4068  2.2711
  558SOL     OW 1672   2.766   2.206   0.436  0.2232 -0.4087  0.0413
  558SOL    HW1 1673   2.667   2.243   0.424  1.4766  1.6087  0.2477
  558SOL    HW2 1674   2.791   2.129   0.371  2.4199  0.9921  2.2966
  559SOL     OW 1675   0.427   2.321   1.375 -0.2176 -0.2351 -0.3535
  559SOL    HW1 1676   0.330   2.357   1.345  0.1132 -0.8903  0.1250
  559SOL    HW2 1677   0.467   2.252   1.308  0.6643  0.3883 -1.1310
  560SOL     OW 1678   2.115   1.121   3.080 -0.1681 -0.2139 -0.4558
  560SOL    HW1 1679   2.124   1.132   3.183  0.6145 -0.8884  1.8455
  560SOL    HW2 1680   2.184   1.164   3.020 -0.4896  0.0390  0.4626
  561SOL     OW 1681   0.015   1.858   0.000  0.2144  0.2207 -0.6229
  561SOL    HW1 1682  -0.014   1.812   0.092 -0.0862 -1.6706 -0.9629
  561SOL    HW2 1683  -0.063   1.927  -0.024 -0.3794 -0.3854 -1.2776
  562SOL     OW 1684   1.033   2.174   2.326  0.4861 -0.1406  0.6607
  562SOL    HW1 1685   1.020   2.259   2.372 -0.8228 -0.1651  1.5266
  562SOL    HW2 1686   0.994   2.104   2.387 -0.4910  1.7966 -2.9025
  563SOL     OW 1687   0.699   2.524   2.623  0.3606  0.0195 -0.1355
  563SOL    HW1 1688   0.791   2.483   2.595 -1.8093 -2.0448 -1.5860
  563SOL    HW2 1689   0.704   2.573   2.717 -0.8083 -2.2899  0.5498
  564SOL     OW 1690   2.872   1.400   2.928  0.5155  0.7215  0.4098
  564SOL    HW1 1691   2.783   1.442   2.968  0.0075  1.0367 -0.4481
  564SOL    HW2 1692   2.926   1.473   2.887  0.8068  0.4434  0.7494
  565SOL     OW 1693   2.481   1.965   2.658  0.2272 -0.6344  0.0280
  565SOL    HW1 1694   2.429   2.050   2.642  1.5380 -2.1091 -0.0323
  565SOL    HW2 1695   2.579   1.985   2.681 -1.1029  1.1127 -1.3062
  566SOL     OW 1696   1.996   2.872   1.469  0.2294 -0.0609 -0.2468
  566SOL    HW1 1697   1.964   2.779   1.501  1.4448  2.8846 -0.2103
  566SOL    HW2 1698   1.973   2.894   1.370 -1.8937  3.0262  1.1562
  567SOL     OW 1699   2.442   3.092   2.329  0.4615  0.2956 -0.3324
  567SOL    HW1 1700   2.347   3.127   2.353  1.3081  0.2648 -0.7917
  567SOL    HW2 1701   2.455   3.085   2.229 -2.3000  0.1640 -1.1292
  568SOL     OW 1702   1.529   1.805   0.270 -0.2255 -0.2081  0.5202
  568SOL    HW1 1703   1.473   1.885   0.230  0.6960 -0.3703 -2.0850
  568SOL    HW2 1704   1.628   1.827   0.290  0.1900 -2.0991 -0.6067
  569SOL     OW 1705   0.241   0.626   0.790 -0.4468 -0.2884  0.4155
  569SOL    HW1 1706   0.314   0.554   0.773 -3.1335  1.1861 -1.6126
  569SOL    HW2 1707   0.139   0.591   0.778 -1.4189 -2.0148 -1.1020
  570SOL     OW 1708   0.652   0.871   2.883  0.1336  0.2634 -0.6008
  570SOL    HW1 1709   0.720   0.864   2.810 -1.6170 -1.2286 -0.6686
  570SOL    HW2 1710   0.660   0.960   2.939 -0.6458  1.7062 -3.1214
  571SOL     OW 1711   0.816   0.024   1.130  0.4953  0.3077  0.2049
  571SOL    HW1 1712   0.808   0.066   1.038 -1.0466  2.3410 -0.5096
  571SOL    HW2 1713   0.816  -0.077   1.120 -1.1033 -1.1737  0.6791
  572SOL     OW 1714   1.611   2.661   1.377 -0.3112  0.1150  0.0543
  572SOL    HW1 1715   1.522   2.607   1.348 -2.0744 -0.6869 -1.3278
  572SOL    HW2 1716   1.631   2.742   1.315  2.5389 -0.5084  0.2906
  573SOL     OW 1717   3.000   0.494   2.027  0.5780 -0.0522  0.2968
  573SOL    HW1 1718   2.926   0.423   2.047  2.9258  0.4907 -0.0256
  573SOL    HW2 1719   3.050   0.474   1.943 -0.1066  1.3934  1.0993
  574SOL     OW 1720   0.167   1.763   1.133  0.1472 -0.1329  0.3121
  574SOL    HW1 1721   0.230   1.824   1.183  1.4469  0.4986 -0.7478
  574SOL    HW2 1722   0.078   1.808   1.102  0.2685  0.9212 -0.2796
  575SOL     OW 1723   0.845   2.173   0.953  0.1798  0.1280 -0.2813
  575SOL    HW1 1724   0.829   2.240   1.027 -0.4775  0.9491  1.0772
  575SOL    HW2 1725   0.870   2.227   0.866 -1.6182 -0.6247  0.9666
  576SOL     OW 1726   2.892   2.988   1.684  0.4729  0.4329  0.2284
  576SOL    HW1 1727   2.789   2.975   1.689 -1.1658  1.5265  1.0297
  576SOL    HW2 1728   2.910   3.087   1.672  1.1573  0.8961 -0.4900
  577SOL     OW 1729   2.645   1.227   0.012  0.6804  0.3145  0.1780
  577SOL    HW1 1730   2.632   1.135  -0.033  1.9045  1.2758 -1.7991
  577SOL    HW2 1731   2.691   1.204   0.102 -0.0884 -1.5321  1.1411
  578SOL     OW 1732   1.395   2.808   2.480  0.3584  0.2912  0.3210
  578SOL    HW1 1733   1.310   2.850   2.441  1.2507  0.4844  2.2777
  578SOL    HW2 1734   1.481   2.869   2.468  1.5031 -0.4219 -0.2548
  579SOL     OW 1735   3.097   2.475   0.172 -0.1894 -0.3437  0.5923
  579SOL    HW1 1736   3.024   2.494   0.243  1.2096 -1.5239  0.6870
  579SOL    HW2 1737   3.184   2.445   0.217  1.3113 -0.5334 -0.8912
  580SOL     OW 1738   0.991   2.659   0.377  0.2564  0.6358  0.1450
  580SOL    HW1 1739   1.078   2.697   0.335 -0.9521 -0.9179 -0.4302
  580SOL    HW2 1740   0.932   2.591   0.314 -1.7479 -1.2691  2.0722
  581SOL     OW 1741   1.255   2.657   1.440  0.9543  0.4055  0.1670
  581SOL    HW1 1742   1.309   2.574   1.476 -1.1965 -0.2922  0.2271
  581SOL    HW2 1743   1.312   2.741   1.428 -1.9300  2.5028  1.2432
  582SOL     OW 1744   1.500   0.109   1.901  0.0092 -0.0192  0.3490
  582SOL    HW1 1745   1.531   0.203   1.928 -2.7959 -1.0413  1.1858
  582SOL    HW2 1746   1.570   0.061   1.846 -0.8219 -2.2449 -0.0015
  583SOL     OW 1747   2.432   3.064   0.529 -0.2209  0.0724  0.1223
  583SOL    HW1 1748   2.510   3.010   0.490 -0.0157  0.9465 -2.5737
  583SOL    HW2 1749   2.351   3.012   0.566  0.4065  1.5747 -0.0247
  584SOL     OW 1750   1.590   1.118   2.278 -0.1848  0.7401  0.5471
  584SOL    HW1 1751   1.605   1.194   2.202  0.6576  1.0831 -1.4270
  584SOL    HW2 1752   1.655   1.035   2.285 -0.6893  1.0145 -3.0754
  585SOL     OW 1753   2.095   2.671   2.891 -0.1506  0.1927  0.0709
  585SOL    HW1 1754   2.127   2.575   2.885  0.2811  2.7038  1.5480
  585SOL    HW2 1755   1.990   2.679   2.876 -2.3638  1.6518  0.2832
  586SOL     OW 1756   2.899   0.392   1.538  0.0442 -0.2814 -0.4130
  586SOL    HW1 1757   2.884   0.484   1.587 -2.5469  2.8740 -0.7222
  586SOL    HW2 1758   2.849   0.394   1.451  2.2157  0.9411  1.5761
  587SOL     OW 1759   2.070   1.472   2.654  0.3380 -0.3896  0.3130
  587SOL    HW1 1760   2.111   1.409   2.580  1.4915 -0.6586  0.0464
  587SOL    HW2 1761   2.141   1.501   2.726  0.2999 -0.2272 -0.3752
  588SOL     OW 1762   0.520   2.711   2.287  0.3109 -0.6692  0.8319
  588SOL    HW1 1763   0.493   2.710   2.185  1.3375  0.2547 -0.1858
  588SOL    HW2 1764   0.521   2.618   2.324  1.4174  2.3271 -0.8740
  589SOL     OW 1765   2.198   1.281   2.489 -0.2313  0.1332  0.2698
  589SOL    HW1 1766   2.171   1.257   2.395 -0.3884 -0.3559  1.1466
  589SOL    HW2 1767   2.303   1.281   2.508  2.6527  0.2868 -0.0061
  590SOL     OW 1768   2.352   1.779   2.063  0.3001  0.2401  0.4551
  590SOL    HW1 1769   2.412   1.687   2.064  1.0113 -1.2342  0.5439
  590SOL    HW2 1770   2.318   1.821   2.156  0.2664 -0.4847  1.7619
  591SOL     OW 1771   1.225   2.423   0.220 -0.1572 -0.6210  0.0293
  591SOL    HW1 1772   1.267   2.355   0.160  1.2285  1.3892  2.1014
  591SOL    HW2 1773   1.260   2.406   0.321 -0.0200 -0.0617 -0.5637
  592SOL     OW 1774   1.796   2.331   0.779 -0.2933 -0.1570  0.6762
  592SOL    HW1 1775   1.783   2.403   0.701 -1.3896 -2.1638 -0.6413
  592SOL    HW2 1776   1.861   2.257   0.753  0.6650  2.6850  3.0265
  593SOL     OW 1777   0.717   0.264   0.223  0.3208  0.1057  0.0632
  593SOL    HW1 1778   0.783   0.237   0.146  0.8889  0.9811 -0.8337
  593SOL    HW2 1779   0.699   0.364   0.240  0.2222 -0.3946 -2.1221
  594SOL     OW 1780   1.058   1.834   2.714 -0.4708 -0.1367 -0.1809
  594SOL    HW1 1781   1.145   1.802   2.664  2.2633 -0.1464  0.4855
  594SOL    HW2 1782   1.082   1.885   2.800  4.2117  0.4030  2.2424
  595SOL     OW 1783   1.569   0.086   0.989 -0.2932 -1.0611 -0.1445
  595SOL    HW1 1784   1.656   0.038   0.968 -0.8395  1.4692  0.5127
  595SOL    HW2 1785   1.489   0.031   0.957 -0.1309 -1.4735  0.7198
  596SOL     OW 1786   0.046   1.537   2.297  0.4572 -0.3997 -0.4664
  596SOL    HW1 1787   0.099   1.457   2.328  0.0782 -1.3135  2.4184
  596SOL    HW2 1788   0.002   1.591   2.375 -1.5627 -1.1606  1.2662
  597SOL     OW 1789   1.937   2.676   1.803  1.0130 -0.3204  0.2730
  597SOL    HW1 1790   1.906   2.650   1.707  0.9613  2.5144  1.4440
  597SOL    HW2 1791   2.038   2.658   1.822 -1.5192 -0.4575 -1.2299
  598SOL     OW 1792   2.544   2.889   1.220 -0.3047 -0.2780 -0.1184
  598SOL    HW1 1793   2.599   2.929   1.300  0.4860  1.6904  2.8788
  598SOL    HW2 1794   2.603   2.893   1.134 -0.1681  0.1651 -0.1677
  599SOL     OW 1795   2.850   0.293   2.481 -0.5615 -0.7326  0.5393
  599SOL    HW1 1796   2.902   0.255   2.400  0.0930  3.5286  1.3553
  599SOL    HW2 1797   2.774   0.361   2.453 -0.2929 -4.3552  0.4025
  600SOL     OW 1798   2.826   1.193   2.760 -0.2397  0.3810 -0.0688
  600SOL    HW1 1799   2.723   1.190   2.748  1.3099  0.1809  1.1230
  600SOL    HW2 1800   2.848   1.280   2.817 -0.1662 -0.0259  3.8011
  601SOL     OW 1801   3.076   1.349   2.011 -0.2850  0.4673 -0.0113
  601SOL    HW1 1802   3.001   1.366   1.937  0.6229 -1.0226 -0.9560
  601SOL    HW2 1803   3.131   1.428   2.037  0.0544 -0.3655  0.0198
  602SOL     OW 1804   1.459   1.608   2.311  0.4946 -0.1925 -0.2754
  602SOL    HW1 1805   1.374   1.575   2.361  0.5474 -2.4779  0.5130
  602SOL    HW2 1806   1.543   1.593   2.375  3.1119 -3.9238 -1.6820
  603SOL     OW 1807   0.667   1.151   2.731 -0.3035 -1.0925 -0.3732
  603SOL    HW1 1808   0.564   1.150   2.721  0.2734  2.4267 -4.6782
  603SOL    HW2 1809   0.709   1.065   2.698  0.7152  0.3450  1.8623
  604SOL     OW 1810   2.455   0.996   0.149  0.4777 -0.4171  0.1156
  604SOL    HW1 1811   2.517   1.052   0.090 -1.7422 -0.1891 -1.8929
  604SOL    HW2 1812   2.428   0.909   0.097  0.6829 -0.6609  0.7295
  605SOL     OW 1813   2.499   1.182   1.975  0.2124 -0.4504 -0.3591
  605SOL    HW1 1814   2.577   1.143   1.923  1.1364  0.9355 -2.0405
  605SOL    HW2 1815   2.534   1.246   2.051 -0.1532 -0.6816  1.7842
  606SOL     OW 1816   1.488   2.549   2.561 -0.0326 -0.1139  0.0351
  606SOL    HW1 1817   1.453   2.636   2.519 -0.3111  1.9877  1.0199
  606SOL    HW2 1818   1.453   2.468   2.508 -0.3254  1.5453 -0.3910
  607SOL     OW 1819   1.363   1.606   0.301 -0.4269  0.4721 -0.3801
  607SOL    HW1 1820   1.266   1.649   0.310  1.3313 -0.2458 -0.8087
  607SOL    HW2 1821   1.435   1.680   0.288 -2.3163 -0.5053 -0.3096
  608SOL     OW 1822   1.441   2.852   0.394 -0.1465  0.4431 -0.2641
  608SOL    HW1 1823   1.474   2.882   0.302 -1.4881 -1.6406 -0.5610
  608SOL    HW2 1824   1.363   2.906   0.437  0.1927  0.5663  0.1427
  609SOL     OW 1825   1.318   1.342   0.188  0.4459  0.0829 -0.3237
  609SOL    HW1 1826   1.333   1.438   0.234  1.3993  2.1909  0.7681
  609SOL    HW2 1827   1.292   1.347   0.084  3.0002 -0.8985  1.6554
  610SOL     OW 1828   3.010   1.185   2.267 -0.3653 -0.1164  0.4697
  610SOL    HW1 1829   2.981   1.097   2.220  0.0248  1.6316  1.0209
  610SOL    HW2 1830   3.006   1.270   2.205  0.1101  0.1766  0.3062
  611SOL     OW 1831   2.503   0.269   1.173 -0.4866 -0.1495 -0.1640
  611SOL    HW1 1832   2.437   0.191   1.189 -0.3735 -1.8208  1.6551
  611SOL    HW2 1833   2.601   0.238   1.197  1.8282  1.3003  0.7050
  612SOL     OW 1834   0.744   2.299   1.182  0.1006 -0.4121 -0.1508
  612SOL    HW1 1835   0.680   2.225   1.217  2.4457 -0.3806 -1.2965
  612SOL    HW2 1836   0.696   2.393   1.181 -1.1281  2.5588 -1.3526
  613SOL     OW 1837   0.861   1.388   2.376 -0.4612  0.2383 -0.3458
  613SOL    HW1 1838   0.861   1.475   2.314  1.5869  0.4286  2.5367
  613SOL    HW2 1839   0.811   1.309   2.326  1.1124  0.3225 -0.5432
  614SOL     OW 1840   1.549   1.648   1.829  0.2282  0.3950 -0.2826
  614SOL    HW1 1841   1.513   1.738   1.794 -3.6942 -2.0591  0.1670
  614SOL    HW2 1842   1.650   1.648   1.847  0.3153  0.1681  1.5635
  615SOL     OW 1843   0.756   1.390   1.718  0.5064  0.3717  0.2079
  615SOL    HW1 1844   0.681   1.346   1.659 -3.2238 -0.5344 -0.7240
  615SOL    HW2 1845   0.807   1.471   1.676 -0.5532 -1.3451  1.2319
  616SOL     OW 1846   1.106   1.552   2.160  0.1025 -0.3186 -0.3983
  616SOL    HW1 1847   1.011   1.582   2.194  0.0747  0.9220 -0.5997
  616SOL    HW2 1848   1.128   1.580   2.063 -0.5695 -0.4208 -1.1265
  617SOL     OW 1849   2.989   1.508   1.616  0.4371 -0.1591  0.0601
  617SOL    HW1 1850   2.969   1.437   1.687 -0.6342 -0.5174 -0.9261
  617SOL    HW2 1851   3.026   1.475   1.522  2.9097 -2.4027  1.1169
  618SOL     OW 1852   1.931   1.939   1.436  0.1647 -0.2264 -0.0768
  618SOL    HW1 1853   2.013   1.926   1.379 -1.2001 -0.8936  0.0364
  618SOL    HW2 1854   1.911   1.863   1.499 -0.6737  2.6646  0.4711
  619SOL     OW 1855   1.682   0.456   2.366  0.4572 -0.7303  0.0661
  619SOL    HW1 1856   1.605   0.524   2.330 -1.4755  1.8470 -1.2123
  619SOL    HW2 1857   1.637   0.364   2.389 -2.7485  1.5891  2.0361
  620SOL     OW 1858   2.189   2.936   0.580  0.5192  0.0207 -0.4607
  620SOL    HW1 1859   2.106   2.991   0.602 -0.6375  1.2244 -1.3233
  620SOL    HW2 1860   2.215   2.875   0.659  0.5349  1.8330 -0.9344
  621SOL     OW 1861   2.222   1.889   1.332  0.4290  0.1542  0.7400
  621SOL    HW1 1862   2.214   1.890   1.438  1.6259 -1.2537  1.0233
  621SOL    HW2 1863   2.222   1.789   1.288 -0.5665 -0.9655 -2.5824
  622SOL     OW 1864   2.177   0.863   1.757  0.5459  0.6763  0.4321
  622SOL    HW1 1865   2.276   0.829   1.742  0.7912 -0.8243  1.5899
  622SOL    HW2 1866   2.124   0.820   1.834  0.5787  1.0014  1.0110
  623SOL     OW 1867   1.347   0.773   2.595 -0.3395  0.2362 -0.3787
  623SOL    HW1 1868   1.283   0.728   2.658 -0.5316  2.2820  1.6601
  623SOL    HW2 1869   1.291   0.817   2.521  0.7815 -1.7490 -2.5976
  624SOL     OW 1870   0.502   0.724   3.084  0.2280  0.2555  0.1286
  624SOL    HW1 1871   0.520   0.756   2.982 -1.0727 -1.3406  0.3211
  624SOL    HW2 1872   0.504   0.799   3.153  0.1851 -0.7181 -3.8829
  625SOL     OW 1873   2.783   1.722   0.898 -0.5628 -0.6221 -0.2146
  625SOL    HW1 1874   2.709   1.752   0.965  0.9540 -1.1208  0.2347
  625SOL    HW2 1875   2.786   1.622   0.880 -0.5024  0.3103  0.5093
  626SOL     OW 1876   0.533   2.743   1.863 -0.3885  0.2490  0.8368
  626SOL    HW1 1877   0.542   2.847   1.865 -1.5722 -0.0221  0.8148
  626SOL    HW2 1878   0.434   2.710   1.877 -1.3480  0.4022  1.9594
  627SOL     OW 1879   0.708   1.028   1.525  0.2180  0.0751  0.4067
  627SOL    HW1 1880   0.735   0.931   1.547  3.4854  2.7561 -1.2411
  627SOL    HW2 1881   0.782   1.084   1.480 -0.3353  1.7362 -1.4826
  628SOL     OW 1882   2.419   0.213   0.700 -0.0476  0.0706  0.2736
  628SOL    HW1 1883   2.424   0.127   0.636  0.3013 -1.1735 -1.1397
  628SOL    HW2 1884   2.323   0.219   0.735  2.5691 -1.5135  1.2732
  629SOL     OW 1885   1.975   0.915   1.968 -0.0758  0.3022 -0.1642
  629SOL    HW1 1886   2.065   0.916   2.016 -0.7527 -0.1059 -1.4554
  629SOL    HW2 1887   1.901   0.986   1.998  1.3903  1.1896  2.8536
  630SOL     OW 1888   2.755   2.161   0.778 -0.7999  0.2672 -0.1951
  630SOL    HW1 1889   2.675   2.230   0.804 -4.4674  1.3623 -2.2376
  630SOL    HW2 1890   2.713   2.069   0.748 -2.8776  0.7150 -0.2275
  631SOL     OW 1891   2.996   0.198   2.104  0.5105  0.9338 -0.2060
  631SOL    HW1 1892   3.050   0.224   2.190  0.1964  2.8168 -0.3128
  631SOL    HW2 1893   3.058   0.166   2.032 -0.8452  0.1172  0.6527
  632SOL     OW 1894   2.364   2.502   0.652 -0.6230 -0.4976  0.4187
  632SOL    HW1 1895   2.441   2.563   0.673 -0.5807 -2.6194 -1.7778
  632SOL    HW2 1896   2.305   2.528   0.567 -0.4335  2.8882  0.7974
  633SOL     OW 1897   1.590   1.275   2.565  0.3722  0.0855  0.5775
  633SOL    HW1 1898   1.554   1.354   2.620  0.2236 -1.0196  0.2711
  633SOL    HW2 1899   1.522   1.238   2.497 -0.2652 -1.4836  3.7126
  634SOL     OW 1900   0.632   2.012   0.978 -0.0182  0.6329  0.4298
  634SOL    HW1 1901   0.545   2.036   1.023  2.2317 -1.1445  0.8943
  634SOL    HW2 1902   0.708   2.086   0.979 -0.4698  0.2908  0.0052
  635SOL     OW 1903   0.048   2.309   3.055  0.4193 -0.2137 -0.0998
  635SOL    HW1 1904  -0.010   2.345   2.979  0.4396 -0.6078 -0.6014
  635SOL    HW2 1905   0.063   2.372   3.137  2.0050  1.6138 -0.8102
  636SOL     OW 1906   2.293   2.800   2.002  0.2319 -0.0249 -0.4481
  636SOL    HW1 1907   2.267   2.897   2.000 -2.1323  1.8563 -0.4193
  636SOL    HW2 1908   2.247   2.753   2.079  0.8484  0.5081 -2.2440
  637SOL     OW 1909   2.538   0.694   2.031 -0.2287 -0.0554  0.1632
  637SOL    HW1 1910   2.504   0.707   1.934 -0.5182  1.9887 -0.2560
  637SOL    HW2 1911   2.606   0.769   2.053  0.5806 -0.2914 -0.5574
  638SOL     OW 1912   2.492   1.873   1.319  0.6537 -0.0464 -0.0807
  638SOL    HW1 1913   2.392   1.903   1.330 -2.2634  1.0979  2.2410
  638SOL    HW2 1914   2.515   1.775   1.362  0.1977 -0.7500  0.9781
  639SOL     OW 1915   1.285   2.206   1.603  0.8899 -0.0183 -0.1663
  639SOL    HW1 1916   1.282   2.142   1.517 -0.6668  0.3754 -1.2414
  639SOL    HW2 1917   1.209   2.176   1.673  1.3704  1.5538 -1.2400
  640SOL     OW 1918   0.177   1.197   1.576 -0.3205  0.2089  0.1413
  640SOL    HW1 1919   0.167   1.269   1.649 -0.9177  1.5087  1.2810
  640SOL    HW2 1920   0.270   1.152   1.564 -0.3381  2.0081 -2.3206
  641SOL     OW 1921   1.975   0.124   1.473  0.0248  0.8380  0.4526
  641SOL    HW1 1922   1.989   0.172   1.564 -1.7204  0.5016 -1.9406
  641SOL    HW2 1923   2.011   0.025   1.470  1.7072  0.0803 -0.1202
  642SOL     OW 1924   1.960   0.133   0.323  0.3012 -0.4099 -0.3074
  642SOL    HW1 1925   2.055   0.104   0.358  2.3296  0.7369 -1.1359
  642SOL    HW2 1926   1.881   0.124   0.395  0.7471  0.4719  1.3485
  643SOL     OW 1927   2.865   1.877   2.065  0.2396 -0.4894  0.4043
  643SOL    HW1 1928   2.820   1.813   1.994 -1.4646 -2.1385 -0.5603
  643SOL    HW2 1929   2.863   1.975   2.028  0.3009  0.2601 -0.7508
  644SOL     OW 1930   2.179   2.318   1.194  0.2298 -0.4767 -0.0843
  644SOL    HW1 1931   2.251   2.261   1.142 -0.5941  0.0215  1.9744
  644SOL    HW2 1932   2.176   2.306   1.300  1.0302  1.0350 -0.1734
  645SOL     OW 1933   0.595   0.778   1.159 -0.5013  0.1519 -0.1322
  645SOL    HW1 1934   0.540   0.720   1.089 -0.7290 -1.9153  1.4577
  645SOL    HW2 1935   0.614   0.871   1.115  0.3213  1.7181  0.1052
  646SOL     OW 1936   1.516   1.943   1.806 -0.0909 -0.0135  0.3050
  646SOL    HW1 1937   1.606   1.996   1.799  0.0969 -0.8478 -0.2521
  646SOL    HW2 1938   1.460   1.970   1.893  1.3419 -0.1136  0.3801
  647SOL     OW 1939   0.878   0.961   0.676  0.3582 -0.1936 -0.4503
  647SOL    HW1 1940   0.967   0.926   0.720 -1.8645 -0.9431  0.3308
  647SOL    HW2 1941   0.797   0.923   0.731  0.8912 -1.1736  1.9293
  648SOL     OW 1942   0.163   0.172   0.293  0.5966 -0.0114  0.0693
  648SOL    HW1 1943   0.179   0.096   0.232  2.1704  2.7070  3.3485
  648SOL    HW2 1944   0.139   0.262   0.246  0.0049 -0.0299  1.8140
  649SOL     OW 1945   3.088   0.150   0.933  0.5997 -0.6397  0.0837
  649SOL    HW1 1946   3.187   0.137   0.907 -0.4736  2.0695 -2.0149
  649SOL    HW2 1947   3.071   0.159   1.036 -0.8073 -1.2182 -0.0402
  650SOL     OW 1948   2.707   0.715   1.389  0.2707 -0.0173 -0.1298
  650SOL    HW1 1949   2.616   0.672   1.422 -1.2086  2.2081  1.1796
  650SOL    HW2 1950   2.707   0.812   1.366  2.7738 -0.5096  0.2245
  651SOL     OW 1951   0.889   1.591   1.625  0.3973  0.1960 -0.0204
  651SOL    HW1 1952   0.969   1.635   1.677 -0.5174 -0.9240  1.7018
  651SOL    HW2 1953   0.878   1.619   1.527 -2.0750 -2.6772  0.3384
  652SOL     OW 1954   2.227   2.486   2.424 -0.1886  0.6286 -0.9402
  652SOL    HW1 1955   2.156   2.503   2.500 -3.8352 -0.9393  1.1719
  652SOL    HW2 1956   2.199   2.529   2.332 -1.3017 -1.8660  0.8275
  653SOL     OW 1957   2.716   1.165   0.277 -0.4532  0.5275  0.6944
  653SOL    HW1 1958   2.758   1.259   0.293 -0.6200 -1.9610 -0.6154
  653SOL    HW2 1959   2.773   1.085   0.306  0.2793  0.4477  0.4366
  654SOL     OW 1960   1.278   2.273   1.243  0.0813  0.0189 -0.6016
  654SOL    HW1 1961   1.317   2.213   1.314 -0.3188  1.4400 -1.8365
  654SOL    HW2 1962   1.330   2.270   1.153  0.0351  4.1969 -1.5540
  655SOL     OW 1963   0.212   1.013   1.844 -0.0151  0.1080  0.1445
  655SOL    HW1 1964   0.233   0.934   1.781 -0.6820  1.2994  0.6863
  655SOL    HW2 1965   0.269   1.097   1.840  0.5198 -0.0133 -0.6813
  656SOL     OW 1966   2.512   2.479   2.601 -0.1260  0.3762 -0.0552
  656SOL    HW1 1967   2.592   2.465   2.535  2.7543 -1.1561 -1.6684
  656SOL    HW2 1968   2.447   2.556   2.568 -0.2599 -0.3558  0.4333
  657SOL     OW 1969   3.039   1.096   1.890 -0.2500  0.0067 -0.4457
  657SOL    HW1 1970   3.051   1.177   1.952  0.5281  0.8938 -0.3707
  657SOL    HW2 1971   3.130   1.051   1.865 -0.2331 -3.3177 -0.2725
  658SOL     OW 1972   1.635   0.166   2.381 -0.0787  0.3264  0.2362
  658SOL    HW1 1973   1.684   0.123   2.461  3.1836  0.1207 -1.9033
  658SOL    HW2 1974   1.688   0.161   2.296  2.2551  0.7524 -0.3777
  659SOL     OW 1975   1.384   0.608   2.899 -0.0637 -0.3595 -0.1372
  659SOL    HW1 1976   1.447   0.683   2.861  0.4678  0.3835 -2.3551
  659SOL    HW2 1977   1.285   0.615   2.864 -1.0627 -5.4686  0.0643
  660SOL     OW 1978   1.464   0.349   1.405 -0.3851 -0.0295  0.6522
  660SOL    HW1 1979   1.480   0.361   1.507 -1.6936  0.2694 -0.7837
  660SOL    HW2 1980   1.552   0.338   1.346  1.7925  2.1090 -2.7455
  661SOL     OW 1981   2.505   1.184   0.669 -0.3945 -0.0037  0.1677
  661SOL    HW1 1982   2.509   1.147   0.573 -1.4369  0.0558 -0.4528
  661SOL    HW2 1983   2.426   1.247   0.683 -2.7617 -0.5488  1.8107
  662SOL     OW 1984   1.319   0.418   1.833  0.1622  0.2718  0.2427
  662SOL    HW1 1985   1.265   0.334   1.806 -1.4704 -0.1102  0.5345
  662SOL    HW2 1986   1.282   0.451   1.924 -2.7210  1.1160  1.0838
  663SOL     OW 1987   0.844   1.594   2.191  0.3414  0.4652  0.2391
  663SOL    HW1 1988   0.829   1.689   2.231  0.4638 -0.2631 -1.3404
  663SOL    HW2 1989   0.789   1.584   2.107 -1.5249 -0.9091  0.1561
  664SOL     OW 1990   1.664   2.022   1.371  0.1288 -0.0221 -0.3061
  664SOL    HW1 1991   1.610   1.967   1.442 -1.5493  3.5033  1.0634
  664SOL    HW2 1992   1.766   2.006   1.379  0.2616 -2.5392 -1.3056
  665SOL     OW 1993   2.198   0.679   1.969  0.1815 -0.2582 -0.4765
  665SOL    HW1 1994   2.173   0.587   2.011  0.9925 -0.4843 -2.4419
  665SOL    HW2 1995   2.221   0.750   2.042  3.4630 -2.5334 -1.5888
  666SOL     OW 1996   0.490   2.308   0.477  0.5402 -0.2216  0.1173
  666SOL    HW1 1997   0.564   2.378   0.473  1.8618 -1.4249 -0.7357
  666SOL    HW2 1998   0.439   2.304   0.573  0.8175 -4.1320 -0.8840
  667SOL     OW 1999   1.986   0.207   1.025  0.3232  0.5592  0.3629
  667SOL    HW1 2000   2.008   0.304   1.028  2.5282  0.4458 -1.7628
  667SOL    HW2 2001   1.936   0.178   1.111 -0.7178  1.1970 -1.6771
  668SOL     OW 2002   1.990   0.552   1.177  0.0667 -0.0453 -0.0234
  668SOL    HW1 2003   2.060   0.579   1.106  0.1117  0.2086 -2.5773
  668SOL    HW2 2004   2.029   0.515   1.267 -1.2046 -0.2605 -2.2535
  669SOL     OW 2005   3.005   2.135   0.895 -0.0154 -0.9230  0.4421
  669SOL    HW1 2006   2.914   2.142   0.837 -2.0206  2.6288  2.6798
  669SOL    HW2 2007   2.997   2.208   0.970  0.4127  2.5901 -2.6707
  670SOL     OW 2008   2.846   2.365   2.012 -0.4027  0.4382  0.0859
  670SOL    HW1 2009   2.812   2.331   2.106 -1.2960  2.1959  0.9424
  670SOL    HW2 2010   2.829   2.465   2.002 -2.1518  0.2846 -1.1177
  671SOL     OW 2011   1.754   1.712   1.457 -0.1322 -0.9134  0.2272
  671SOL    HW1 2012   1.771   1.767   1.373 -1.6323 -0.3532 -1.5807
  671SOL    HW2 2013   1.663   1.660   1.439 -1.6032 -1.0964  0.2725
  672SOL     OW 2014   0.452   0.621   2.454 -0.4406  0.0313 -0.4297
  672SOL    HW1 2015   0.461   0.643   2.355 -1.8597 -0.0021  1.4300
  672SOL    HW2 2016   0.375   0.671   2.492  0.5840  0.5862 -0.1673
  673SOL     OW 2017   0.151   1.200   1.164  0.2221  0.0682  0.2534
  673SOL    HW1 2018   0.207   1.247   1.236  1.8012  0.0647 -0.1638
  673SOL    HW2 2019   0.212   1.150   1.096  1.1171 -0.3398 -1.9332
  674SOL     OW 2020   1.541   2.895   0.151 -0.3104  0.0386  0.1837
  674SOL    HW1 2021   1.589   2.984   0.113  0.7497 -0.2355  1.2038
  674SOL    HW2 2022   1.558   2.817   0.087 -0.4830 -3.0206  1.0358
  675SOL     OW 2023   1.667   0.852   2.316  0.4595 -0.4631  0.8762
  675SOL    HW1 2024   1.753   0.813   2.277 -3.0307 -0.6400  1.7261
  675SOL    HW2 2025   1.596   0.776   2.303  1.9725  2.4017 -1.4098
  676SOL     OW 2026   2.500   1.538   1.992  0.1966 -0.3550  0.0328
  676SOL    HW1 2027   2.453   1.487   1.909 -0.2323  0.0425 -2.1369
  676SOL    HW2 2028   2.533   1.473   2.067 -1.6712  2.4808  0.0321
  677SOL     OW 2029   1.819   0.606   0.980 -0.3194 -0.2815  0.0113
  677SOL    HW1 2030   1.879   0.607   1.068  0.2711 -0.8456 -1.3191
  677SOL    HW2 2031   1.780   0.514   0.951 -2.2606  0.1789 -0.0446
  678SOL     OW 2032   0.052   0.748   1.666  0.2406 -0.2703 -0.0602
  678SOL    HW1 2033   0.152   0.732   1.701 -0.3940 -0.2068 -0.4192
  678SOL    HW2 2034  -0.014   0.780   1.742 -1.4252  0.1910 -1.8026
  679SOL     OW 2035   2.507   1.177   1.082 -0.3380  0.1897 -0.9319
  679SOL    HW1 2036   2.444   1.210   1.163  1.2209 -0.5518  1.4701
  679SOL    HW2 2037   2.497   1.072   1.069  0.2608 -1.4626 -0.3721
  680SOL     OW 2038   2.824   0.651   1.647  0.3065 -0.1402  0.3894
  680SOL    HW1 2039   2.784   0.699   1.565  1.1194 -0.0763  1.6675
  680SOL    HW2 2040   2.857   0.722   1.715 -0.0053 -1.0833 -0.5938
  681SOL     OW 2041   2.996   0.144   1.606  0.2831  0.5563 -0.0380
  681SOL    HW1 2042   3.065   0.123   1.533  0.6452  1.5783 -1.1557
  681SOL    HW2 2043   2.958   0.244   1.596  0.0470  1.6942  0.9595
  682SOL     OW 2044   0.789   0.034   1.394  0.0152 -0.1388  0.0147
  682SOL    HW1 2045   0.706  -0.014   1.431 -1.2597  2.0408 -0.2843
  682SOL    HW2 2046   0.821   0.002   1.299 -0.3694  0.7713  0.5307
  683SOL     OW 2047   1.387   0.260   2.183  0.2090 -0.0166 -0.3399
  683SOL    HW1 2048   1.367   0.326   2.261  2.1030 -2.0901  0.9231
  683SOL    HW2 2049   1.466   0.286   2.116  0.8735  2.8317 -1.3155
  684SOL     OW 2050   1.448   2.118   0.500 -0.1315 -0.1489 -0.0681
  684SOL    HW1 2051   1.505   2.062   0.566  1.1090  0.3118 -0.4158
  684SOL    HW2 2052   1.360   2.075   0.470 -0.2463 -0.0435 -0.2643
  685SOL     OW 2053   2.196   1.974   1.929  0.0340 -0.9695  0.0084
  685SOL    HW1 2054   2.247   2.029   1.858 -1.7256  0.2328 -0.4792
  685SOL    HW2 2055   2.248   1.902   1.980  1.0914  1.1301 -4.8589
  686SOL     OW 2056   1.537   1.739   2.677  0.1807  0.2470  0.4218
  686SOL    HW1 2057   1.510   1.640   2.678  1.6355  1.3572 -0.0924
  686SOL    HW2 2058   1.632   1.736   2.713  1.0322 -0.6425  1.2309
  687SOL     OW 2059   1.320   2.523   1.896  0.3300  0.0887  0.0772
  687SOL    HW1 2060   1.353   2.450   1.834  0.8156  2.5838 -2.0427
  687SOL    HW2 2061   1.392   2.532   1.973 -2.1817 -1.0327  2.2793
  688SOL     OW 2062   2.073   1.449   1.632  0.1604  0.0386 -0.8554
  688SOL    HW1 2063   2.170   1.466   1.599  0.6547  0.2974  2.2741
  688SOL    HW2 2064   2.015   1.409   1.552  0.8022 -2.2877 -0.4106
  689SOL     OW 2065   2.476   1.112   2.758 -0.1680 -0.1678  0.0403
  689SOL    HW1 2066   2.379   1.126   2.783  3.2917 -0.1090 -1.1346
  689SOL    HW2 2067   2.522   1.069   2.840  0.5362 -0.1086  0.9382
  690SOL     OW 2068   2.198   2.796   0.037 -0.1283  0.6786 -1.3473
  690SOL    HW1 2069   2.118   2.770  -0.024 -0.2629 -1.4931 -2.4182
  690SOL    HW2 2070   2.176   2.810   0.135  4.3481 -1.7507 -0.5900
  691SOL     OW 2071   2.606   0.426   2.121 -0.1852  0.6326  0.0809
  691SOL    HW1 2072   2.646   0.351   2.059 -1.9587  1.3439 -2.9354
  691SOL    HW2 2073   2.642   0.520   2.095 -0.3351 -0.7770  1.0475
  692SOL     OW 2074   2.795   1.210   0.714  0.1634  0.4196 -0.0627
  692SOL    HW1 2075   2.693   1.213   0.706  1.5583 -1.3428  1.1326
  692SOL    HW2 2076   2.837   1.295   0.762  1.7750 -0.4835 -0.0535
  693SOL     OW 2077   2.871   3.003   0.630 -0.1082 -0.0269 -0.6537
  693SOL    HW1 2078   2.838   3.093   0.677  0.1812 -2.7177  1.0001
  693SOL    HW2 2079   2.812   2.974   0.548  1.7087 -2.3437 -0.2527
  694SOL     OW 2080   2.410   2.224   0.053  0.1096 -0.2618  0.1593
  694SOL    HW1 2081   2.378   2.317   0.102  1.0108  1.0468  2.0511
  694SOL    HW2 2082   2.337   2.149   0.050  3.1932 -2.1144  1.0078
  695SOL     OW 2083   0.555   3.009   1.477 -0.7009 -0.2466 -0.3297
  695SOL    HW1 2084   0.533   2.914   1.446 -0.9988  0.6330 -0.4472
  695SOL    HW2 2085   0.509   3.035   1.563  0.3500  2.1176 -1.9280
  696SOL     OW 2086   2.685   1.911   0.705  0.0590 -0.3879  0.0134
  696SOL    HW1 2087   2.740   1.861   0.780  1.9394 -1.2421  2.4784
  696SOL    HW2 2088   2.674   1.856   0.618 -2.5160 -0.8383 -0.1425
  697SOL     OW 2089   1.756   2.089   1.775  0.0535  0.3629 -0.6777
  697SOL    HW1 2090   1.827   2.033   1.823  0.3409  2.2239 -0.4166
  697SOL    HW2 2091   1.773   2.191   1.793  1.1129 -2.0742 -1.0971
  698SOL     OW 2092   2.877   0.413   2.745 -0.1387  0.1012  0.0853
  698SOL    HW1 2093   2.874   0.401   2.646  2.3201  4.5396  2.3734
  698SOL    HW2 2094   2.902   0.325   2.797 -0.8532 -1.8281 -2.1832
  699SOL     OW 2095   1.550   0.083   2.947  0.5031  0.1013  0.2966
  699SOL    HW1 2096   1.525  -0.009   2.911  3.1757  1.0412 -1.6439
  699SOL    HW2 2097   1.619   0.127   2.884 -1.1459 -0.8980 -3.5429
  700SOL     OW 2098   0.987   2.349   1.315  0.8078  0.2997  0.2044
  700SOL    HW1 2099   1.076   2.304   1.301 -1.5001  0.5857  0.6589
  700SOL    HW2 2100   0.907   2.302   1.273  0.5343 -1.8567  0.8589
  701SOL     OW 2101   1.894   2.809   0.026 -0.3336 -0.1354 -0.0274
  701SOL    HW1 2102   1.910   2.730   0.089  1.1427  1.6814  1.0991
  701SOL    HW2 2103   1.921   2.902   0.067 -0.6267 -1.6259  0.6314
  702SOL     OW 2104   2.108   1.346   1.931  0.3426 -0.1386  0.1159
  702SOL    HW1 2105   2.146   1.252   1.905 -1.6060  2.2692  1.0630
  702SOL    HW2 2106   2.091   1.407   1.846 -1.6456  2.5859 -0.1420
  703SOL     OW 2107   1.928   0.823   1.409  0.4565  0.3573  0.2974
  703SOL    HW1 2108   1.920   0.732   1.460  0.0368 -1.2399 -1.1030
  703SOL    HW2 2109   1.985   0.897   1.462 -1.4222  0.1271  1.5300
  704SOL     OW 2110   0.314   2.041   1.670  0.5614 -0.4883  0.7211
  704SOL    HW1 2111   0.364   1.994   1.746  2.1485  0.0598  0.1741
  704SOL    HW2 2112   0.345   2.146   1.671 -1.4408  1.3408 -0.8473
  705SOL     OW 2113   2.549   1.398   0.908  0.1998  0.2717 -0.2914
  705SOL    HW1 2114   2.469   1.406   0.841  2.8679 -0.2945 -0.2149
  705SOL    HW2 2115   2.541   1.321   0.975  0.5107  1.4400  0.5880
  706SOL     OW 2116   0.645   1.769   1.852  0.3596 -0.1696  0.6215
  706SOL    HW1 2117   0.643   1.665   1.880  0.8132  0.2563 -1.1851
  706SOL    HW2 2118   0.725   1.822   1.890  0.9487 -2.6888  0.6961
  707SOL     OW 2119   2.268   1.134   1.838 -0.1135  0.5057 -0.4789
  707SOL    HW1 2120   2.357   1.143   1.885 -0.9613  0.0685  1.0830
  707SOL    HW2 2121   2.233   1.036   1.814 -2.7932  2.4582 -0.6522
  708SOL     OW 2122   3.049   0.461   3.038  0.0263  0.3163 -0.7431
  708SOL    HW1 2123   3.051   0.528   2.963 -2.1099 -0.7989 -0.9875
  708SOL    HW2 2124   3.040   0.362   3.001  0.8007  0.7885 -5.3186
  709SOL     OW 2125   1.823   1.809   0.291  0.1420 -0.1007  0.3992
  709SOL    HW1 2126   1.836   1.907   0.323  3.6299 -1.3252  2.3726
  709SOL    HW2 2127   1.843   1.807   0.185  1.0133  0.1765  0.6885
  710SOL     OW 2128   1.697   1.569   2.434  0.5600  0.0671  0.1933
  710SOL    HW1 2129   1.753   1.530   2.360 -3.6159  1.5266  2.4966
  710SOL    HW2 2130   1.734   1.549   2.530  0.3189  0.1298 -2.2717
  711SOL     OW 2131   2.641   2.912   0.958  0.0607  0.3919 -0.2875
  711SOL    HW1 2132   2.565   2.928   0.892  1.3940 -0.8064 -0.7159
  711SOL    HW2 2133   2.739   2.897   0.919 -0.7613 -0.4090  2.1245
  712SOL     OW 2134   1.495   2.323   1.771 -0.1976  0.2078 -0.5604
  712SOL    HW1 2135   1.572   2.254   1.780  1.8932  0.3290 -0.0845
  712SOL    HW2 2136   1.422   2.280   1.712  1.3970 -0.3466 -1.3777
  713SOL     OW 2137   2.792   1.490   2.475  0.4938 -0.2915 -0.5879
  713SOL    HW1 2138   2.801   1.391   2.454 -1.3095 -0.2050 -0.4279
  713SOL    HW2 2139   2.710   1.501   2.539  0.0101 -2.2524  2.0300
  714SOL     OW 2140   2.633   0.477   2.415 -0.9182  0.0776  0.4129
  714SOL    HW1 2141   2.556   0.436   2.467 -2.0129  3.1016 -0.9938
  714SOL    HW2 2142   2.616   0.462   2.315 -0.6266  0.4185  1.5584
  715SOL     OW 2143   1.568   2.079   1.124  0.1188  0.2020  0.4515
  715SOL    HW1 2144   1.496   2.141   1.082  1.3753 -0.6145 -0.8763
  715SOL    HW2 2145   1.581   2.088   1.223  0.3848 -1.9188 -3.6298
  716SOL     OW 2146   1.210   0.227   1.521 -0.0449 -0.1123 -0.4872
  716SOL    HW1 2147   1.118   0.248   1.482 -0.4786  0.8260  1.5212
  716SOL    HW2 2148   1.274   0.308   1.506 -0.6876  0.1639  2.2312
  717SOL     OW 2149   1.081   0.582   1.622 -0.2271 -0.6171  0.4057
  717SOL    HW1 2150   1.185   0.578   1.639  1.6706  0.3828 -0.2675
  717SOL    HW2 2151   1.052   0.577   1.521  1.5642 -0.0717 -1.2058
  718SOL     OW 2152   0.702   0.998   1.010 -0.6205  0.5049 -0.0581
  718SOL    HW1 2153   0.644   0.988   0.924  0.7063  0.9315 -1.4073
  718SOL    HW2 2154   0.742   1.092   1.030 -1.0943  2.4182 -0.7077
  719SOL     OW 2155   0.779   1.837   2.271  0.5406  0.3798  0.0815
  719SOL    HW1 2156   0.822   1.903   2.342 -1.6420  0.9448  1.3974
  719SOL    HW2 2157   0.671   1.840   2.262  0.5513  0.0720  0.7426
  720SOL     OW 2158   2.204   1.108   0.265 -0.1565 -0.1969  0.3102
  720SOL    HW1 2159   2.293   1.063   0.225  0.3469 -2.1455 -1.7152
  720SOL    HW2 2160   2.176   1.074   0.362  1.9861  0.9038  2.4211
  721SOL     OW 2161   2.328   0.010   2.066  0.0782  0.0160 -0.1467
  721SOL    HW1 2162   2.341   0.098   2.012 -1.1200  0.9088 -1.0278
  721SOL    HW2 2163   2.268   0.023   2.148  3.2740 -1.5011  0.9008
  722SOL     OW 2164   2.388   1.626   0.595  0.0761  0.1717 -0.0184
  722SOL    HW1 2165   2.356   1.571   0.516  0.5641 -0.6818  1.0560
  722SOL    HW2 2166   2.309   1.686   0.634  0.4791  1.9035  1.3656
  723SOL     OW 2167   2.569   2.779   1.956  0.0929  0.7508  0.3852
  723SOL    HW1 2168   2.634   2.831   2.018 -2.1992 -0.2699 -1.1373
  723SOL    HW2 2169   2.469   2.799   1.986 -0.6671  0.8053  2.1453
  724SOL     OW 2170   0.500   2.461   2.441 -0.1203 -0.1589 -0.3079
  724SOL    HW1 2171   0.403   2.458   2.479 -3.6258  0.1655 -0.4450
  724SOL    HW2 2172   0.566   2.492   2.514 -0.8037  1.6493  2.0555
  725SOL     OW 2173   2.472   2.741   1.501 -0.7559 -0.5656 -0.9030
  725SOL    HW1 2174   2.496   2.747   1.400  2.8911  3.5996 -1.5578
  725SOL    HW2 2175   2.449   2.644   1.526  1.4328 -0.0115 -0.2967
  726SOL     OW 2176   2.366   2.231   0.682  0.3280  0.0150  0.4261
  726SOL    HW1 2177   2.350   2.330   0.659  1.9595 -3.1050  2.8240
  726SOL    HW2 2178   2.388   2.174   0.594  3.4615  1.1194 -1.9494
  727SOL     OW 2179   0.240   3.086   0.100 -0.0509 -0.2598  0.0295
  727SOL    HW1 2180   0.303   3.003   0.095 -1.3618 -1.4897  0.7958
  727SOL    HW2 2181   0.188   3.108   0.016  2.4988  1.9064  0.7336
  728SOL     OW 2182   2.824   0.684   1.005 -0.5772  0.3252  0.3302
  728SOL    HW1 2183   2.785   0.641   0.920 -1.1943 -2.5219  1.5858
  728SOL    HW2 2184   2.817   0.628   1.086  1.6825  0.2400 -2.5535
  729SOL     OW 2185   2.898   2.444   0.687  0.2676  0.1607  0.0476
  729SOL    HW1 2186   2.889   2.352   0.635 -0.0782  0.3732 -1.3139
  729SOL    HW2 2187   2.993   2.475   0.712  1.9435 -1.9570 -0.8039
  730SOL     OW 2188   2.567   0.579   0.792  0.3097 -0.3206 -0.8580
  730SOL    HW1 2189   2.509   0.657   0.760  1.1775 -1.5503  1.6813
  730SOL    HW2 2190   2.650   0.565   0.741 -1.6973  0.2049  1.1425
  731SOL     OW 2191   0.011   2.138   2.439 -0.2665 -0.0448  0.3103
  731SOL    HW1 2192   0.056   2.188   2.515 -2.4586  0.7191 -0.6636
  731SOL    HW2 2193   0.010   2.193   2.360 -1.6146 -1.3416  5.0711
  732SOL     OW 2194   1.085   2.873   1.987  0.8401 -0.6489  0.4223
  732SOL    HW1 2195   1.115   2.824   2.074 -2.3902  2.9255  1.4258
  732SOL    HW2 2196   1.117   2.824   1.899  0.3008 -2.2817 -1.4149
  733SOL     OW 2197   0.020   0.727   2.069  0.2129  0.0494  0.0716
  733SOL    HW1 2198   0.117   0.756   2.056  0.4443  0.6129 -0.5053
  733SOL    HW2 2199  -0.002   0.623   2.073  2.2865  0.9051  0.7806
  734SOL     OW 2200   1.434   0.350   2.762  0.0702 -0.3125 -0.4561
  734SOL    HW1 2201   1.443   0.449   2.802 -1.0595 -0.6490 -1.2612
  734SOL    HW2 2202   1.339   0.314   2.778  0.2577 -0.6422  1.3660
  735SOL     OW 2203   2.877   2.624   2.253 -0.4157  0.1742 -0.3177
  735SOL    HW1 2204   2.831   2.634   2.162  1.4349  0.6316  0.1474
  735SOL    HW2 2205   2.981   2.628   2.243  2.1441 -1.8233  1.9300
  736SOL     OW 2206   0.747   0.441   2.635  0.2498 -1.0320  0.2394
  736SOL    HW1 2207   0.746   0.533   2.598  0.6600 -1.1568  2.1689
  736SOL    HW2 2208   0.763   0.366   2.567 -1.4573  3.1780  1.7973
  737SOL     OW 2209   2.658   0.472   2.877  0.3568  0.1883 -0.2203
  737SOL    HW1 2210   2.660   0.430   2.975  0.8550 -0.6383  0.5969
  737SOL    HW2 2211   2.744   0.451   2.819  3.8407  0.4437  0.7156
  738SOL     OW 2212   1.594   1.226   2.953  0.2191 -0.2831 -0.0981
  738SOL    HW1 2213   1.696   1.221   2.969 -1.8718 -2.0228 -0.4260
  738SOL    HW2 2214   1.557   1.163   2.884  1.5164  2.0278  2.1076
  739SOL     OW 2215   1.753   0.652   0.690  1.0552  0.2796  0.7543
  739SOL    HW1 2216   1.786   0.652   0.790  0.2970  0.8502  0.5159
  739SOL    HW2 2217   1.796   0.582   0.630  0.8088  0.8806  0.9929
  740SOL     OW 2218   1.946   1.890   2.259 -0.3962  0.3290 -0.5775
  740SOL    HW1 2219   2.017   1.815   2.282  1.5815 -0.1833 -2.1124
  740SOL    HW2 2220   1.884   1.863   2.182  1.2986  1.7625 -2.3916
  741SOL     OW 2221   2.499   0.043   2.610 -0.3188 -0.3123  0.1219
  741SOL    HW1 2222   2.604   0.030   2.612 -1.0697  1.4357  0.8809
  741SOL    HW2 2223   2.461   0.034   2.516 -1.5894  0.8687  1.2505
  742SOL     OW 2224   2.254   1.369   0.143  0.0409 -0.0334 -0.1211
  742SOL    HW1 2225   2.156   1.395   0.149  0.2997 -0.7529 -0.8773
  742SOL    HW2 2226   2.284   1.305   0.216  0.9175 -0.0484 -2.3121
  743SOL     OW 2227   1.785   0.592   2.576 -0.5678 -0.4723  0.2509
  743SOL    HW1 2228   1.745   0.541   2.497 -0.0419  0.6061  0.0424
  743SOL    HW2 2229   1.733   0.683   2.588  0.2209  0.4821 -0.7613
  744SOL     OW 2230   2.669   2.120   0.060 -0.9101 -0.3191 -0.4009
  744SOL    HW1 2231   2.572   2.160   0.072  0.6155  1.9325 -1.0449
  744SOL    HW2 2232   2.667   2.014   0.053 -0.1861  2.5536  0.9090
  745SOL     OW 2233   2.138   2.675   2.229  0.0249 -0.2387  0.0517
  745SOL    HW1 2234   2.040   2.659   2.193  0.2145 -0.5538  0.5775
  745SOL    HW2 2235   2.155   2.763   2.288 -1.2059  2.1755  0.9992
  746SOL     OW 2236   3.089   2.560   1.821 -0.4674 -0.3917  0.2500
  746SOL    HW1 2237   3.189   2.582   1.802 -1.0723 -0.3692 -1.3094
  746SOL    HW2 2238   3.035   2.635   1.874  0.1044  0.9499  0.2084
  747SOL     OW 2239   0.006   1.772   1.637 -0.3439  0.1108  0.6545
  747SOL    HW1 2240  -0.035   1.683   1.612  2.2641  1.8061 -1.4858
  747SOL    HW2 2241   0.083   1.805   1.574  0.4235  0.9146  0.9774
  748SOL     OW 2242   1.814   2.748   2.881 -0.3436 -0.6590  0.7297
  748SOL    HW1 2243   1.848   2.771   2.978  1.7058 -0.9250  0.3906
  748SOL    HW2 2244   1.714   2.733   2.886 -0.5049 -0.3096  0.0232
  749SOL     OW 2245   1.327   3.093   0.864 -0.2042  0.3835 -0.1615
  749SOL    HW1 2246   1.251   3.019   0.874 -1.1437  0.1762 -0.4356
  749SOL    HW2 2247   1.334   3.129   0.762  1.1564  1.7402 -0.4456
  750SOL     OW 2248   2.307   0.237   1.883 -0.0582  0.6547 -0.3070
  750SOL    HW1 2249   2.308   0.282   1.790  3.5169 -0.7329  3.0300
  750SOL    HW2 2250   2.267   0.302   1.952 -1.2423  2.7676 -1.9817
  751SOL     OW 2251   0.838   2.208   2.792 -0.4382 -0.0246  0.4662
  751SOL    HW1 2252   0.897   2.203   2.880  1.9853 -0.0923 -2.3704
  751SOL    HW2 2253   0.773   2.129   2.780 -0.9417 -0.8888  3.6128
  752SOL     OW 2254   1.228   0.874   1.526 -0.4010  0.4697  0.0289
  752SOL    HW1 2255   1.309   0.928   1.497 -1.2163  0.0788 -0.0016
  752SOL    HW2 2256   1.261   0.777   1.546 -0.2648 -0.5404  0.1483
  753SOL     OW 2257   0.934   2.596   1.706 -0.3606 -0.1478  0.0465
  753SOL    HW1 2258   1.031   2.641   1.697 -2.0381 -1.1544  2.0968
  753SOL    HW2 2259   0.857   2.661   1.687  1.9054 -0.4938 -0.9361
  754SOL     OW 2260   1.217   1.304   3.029 -0.2224 -0.8127 -0.1254
  754SOL    HW1 2261   1.214   1.218   2.978 -2.1746 -1.9480  0.2434
  754SOL    HW2 2262   1.208   1.393   2.974 -2.1157 -0.3778  2.1432
  755SOL     OW 2263   1.925   0.456   2.224  0.2868  0.0359  0.1789
  755SOL    HW1 2264   2.005   0.416   2.280  1.1092  0.2909 -2.0618
  755SOL    HW2 2265   1.839   0.462   2.279  2.1047 -0.7074 -0.9119
  756SOL     OW 2266   2.609   0.983   2.970 -0.1242  0.4923  0.1763
  756SOL    HW1 2267   2.702   0.967   2.944  0.0693  0.3629 -1.6607
  756SOL    HW2 2268   2.561   0.891   2.993 -0.5740 -0.9084 -1.1785
  757SOL     OW 2269   0.036   0.454   1.789  0.7782  0.7620 -0.1237
  757SOL    HW1 2270  -0.006   0.540   1.755 -0.6004 -1.7354  0.0242
  757SOL    HW2 2271   0.094   0.406   1.714  1.2662 -2.2103  0.2042
  758SOL     OW 2272   2.384   0.020   1.470  0.2301 -0.8245  0.0992
  758SOL    HW1 2273   2.335  -0.056   1.526 -1.6613  0.1560  0.9507
  758SOL    HW2 2274   2.378   0.013   1.365  0.5254  1.1073  2.4951
  759SOL     OW 2275   1.674   0.017   0.072  0.1997 -0.3857  0.1688
  759SOL    HW1 2276   1.628   0.085   0.006 -1.5409  0.2111 -2.3367
  759SOL    HW2 2277   1.770   0.002   0.044 -0.0370 -0.6938  0.6804
  760SOL     OW 2278   2.725   2.044   2.767  0.2325  0.0458 -0.8288
  760SOL    HW1 2279   2.771   1.951   2.750  1.1200  0.1496  1.7581
  760SOL    HW2 2280   2.725   2.058   2.867 -1.0996 -1.0822 -1.0420
  761SOL     OW 2281   1.963   1.682   1.622  0.6233 -0.5032  0.0784
  761SOL    HW1 2282   1.996   1.584   1.636 -0.1355 -3.0014  0.6272
  761SOL    HW2 2283   1.874   1.688   1.570  0.9004  0.9795 -0.9773
  762SOL     OW 2284   0.500   2.419   0.973 -0.3022 -0.5900 -0.8318
  762SOL    HW1 2285   0.576   2.419   0.899  1.1574 -0.7677 -0.4833
  762SOL    HW2 2286   0.540   2.468   1.058  1.2423  3.5881  0.7982
  763SOL     OW 2287   2.118   1.522   2.985 -0.0457 -0.2443  0.0822
  763SOL    HW1 2288   2.199   1.468   3.021 -1.9280  0.4127 -0.0752
  763SOL    HW2 2289   2.025   1.489   3.019  0.3805  3.3142 -2.0418
  764SOL     OW 2290   0.697   0.553   0.897  0.1580 -0.2211  0.1161
  764SOL    HW1 2291   0.670   0.467   0.845  1.6784 -0.5308  1.4069
  764SOL    HW2 2292   0.801   0.557   0.921  0.7439 -3.0877  0.0309
  765SOL     OW 2293   0.649   0.246   0.811 -0.3292  0.0677 -0.1626
  765SOL    HW1 2294   0.737   0.243   0.752  0.2230 -0.1354  0.1761
  765SOL    HW2 2295   0.659   0.277   0.913 -1.6347 -0.5409  1.8705
  766SOL     OW 2296   2.959   2.103   0.012 -0.2176 -0.2516  0.1382
  766SOL    HW1 2297   2.860   2.127   0.018 -0.2084  1.8357  2.5962
  766SOL    HW2 2298   3.021   2.190  -0.003  0.6780  0.8079  2.7465
  767SOL     OW 2299   2.883   1.550   0.527  0.3356 -0.3663 -0.7699
  767SOL    HW1 2300   2.778   1.546   0.545  1.2373  0.0387  0.1866
  767SOL    HW2 2301   2.934   1.596   0.603  1.2858  1.0433 -1.2757
  768SOL     OW 2302   1.095   0.239   0.322  0.8445  0.1338 -0.1919
  768SOL    HW1 2303   1.026   0.167   0.352 -0.7535 -1.6714 -1.3297
  768SOL    HW2 2304   1.174   0.193   0.277 -0.7623  2.0335 -0.6222
  769SOL     OW 2305   1.174   1.832   2.232  0.4729  0.1061  0.2883
  769SOL    HW1 2306   1.091   1.867   2.278 -1.2252 -2.6788  0.5060
  769SOL    HW2 2307   1.165   1.723   2.229 -1.7827 -4.7367  1.3194
  770SOL     OW 2308   0.158   1.260   2.368  0.9037 -0.2057  0.8457
  770SOL    HW1 2309   0.150   1.313   2.456  0.0646 -1.8773 -0.2530
  770SOL    HW2 2310   0.068   1.222   2.341  2.1076 -2.0428  3.1587
  771SOL     OW 2311   2.961   2.809   1.884  0.1093 -0.0375  0.4966
  771SOL    HW1 2312   2.961   2.832   1.782 -0.1345  1.2099 -1.4688
  771SOL    HW2 2313   2.924   2.887   1.944  1.7206 -2.2942 -1.6133
  772SOL     OW 2314   2.150   0.111   2.953 -0.3533  0.0563 -0.1216
  772SOL    HW1 2315   2.232   0.063   2.911  0.4298 -5.1974 -0.9762
  772SOL    HW2 2316   2.169   0.189   3.021 -2.5572 -1.1558  2.3382
  773SOL     OW 2317   0.699   2.065   2.482 -0.2129  0.0363 -0.3551
  773SOL    HW1 2318   0.667   2.139   2.414  0.4267  0.7250  0.5307
  773SOL    HW2 2319   0.637   2.062   2.564 -1.5841 -0.8017 -0.9890
  774SOL     OW 2320   2.038   0.025   2.649 -0.2701 -0.9941 -0.5239
  774SOL    HW1 2321   2.036   0.121   2.686  0.7226  0.6853 -0.2985
  774SOL    HW2 2322   2.094  -0.048   2.695 -0.9111  2.8305 -0.0807
  775SOL     OW 2323   2.529   2.841   2.438 -0.5672 -0.1177 -0.3798
  775SOL    HW1 2324   2.484   2.925   2.389  1.6792 -0.4146 -1.6744
  775SOL    HW2 2325   2.614   2.860   2.492 -1.0992 -1.8843 -1.8296
  776SOL     OW 2326   0.008   1.287   0.249 -0.4865  0.4296 -0.5505
  776SOL    HW1 2327  -0.017   1.256   0.152  2.2221 -1.2023  0.0268
  776SOL    HW2 2328  -0.067   1.276   0.314  1.2299  1.6388  1.5568
  777SOL     OW 2329   0.220   2.711   0.486 -0.4940 -0.4768 -0.1425
  777SOL    HW1 2330   0.116   2.702   0.496  1.0791  2.2631 -3.3942
  777SOL    HW2 2331   0.255   2.808   0.502  2.1509 -1.3621  0.0198
  778SOL     OW 2332   1.338   1.970   0.183  0.0214 -0.4429 -0.3254
  778SOL    HW1 2333   1.271   1.973   0.264 -0.1948 -2.4461  0.9703
  778SOL    HW2 2334   1.332   2.056   0.123 -2.6568  0.0720  0.7460
  779SOL     OW 2335   0.186   0.771   0.517  0.1074 -0.1517  0.1692
  779SOL    HW1 2336   0.127   0.687   0.508  0.3078  1.2941 -0.7116
  779SOL    HW2 2337   0.140   0.844   0.573 -0.5922  1.5876 -0.9297
  780SOL     OW 2338   0.002   0.289   2.340 -0.6711  0.7471  0.4726
  780SOL    HW1 2339  -0.031   0.384   2.356 -1.4523  1.1674  1.3069
  780SOL    HW2 2340   0.104   0.281   2.313  0.3699 -0.8240  0.2463
  781SOL     OW 2341   0.593   1.743   1.560 -0.1664 -0.0211  0.5658
  781SOL    HW1 2342   0.609   1.779   1.654 -1.7480  1.2099 -2.3998
  781SOL    HW2 2343   0.543   1.654   1.555  0.1547 -0.8092 -2.0598
  782SOL     OW 2344   2.591   0.149   0.932 -0.0555 -0.0847  0.3667
  782SOL    HW1 2345   2.531   0.188   0.854  0.6057  1.4811  0.6479
  782SOL    HW2 2346   2.544   0.161   1.021 -1.3855 -0.3427 -2.4436
  783SOL     OW 2347   2.834   0.663   2.507  0.5123  0.3896  0.3437
  783SOL    HW1 2348   2.832   0.699   2.601 -1.1036  2.5993  0.1422
  783SOL    HW2 2349   2.755   0.609   2.478  2.9822 -0.1694 -1.9487
  784SOL     OW 2350   1.315   2.216   0.048  0.1002  0.3956 -0.0287
  784SOL    HW1 2351   1.403   2.257   0.081 -3.8666 -1.0474  0.6166
  784SOL    HW2 2352   1.311   2.197  -0.056  1.0994 -3.0147 -0.2690
  785SOL     OW 2353   2.193   0.353   3.083  0.2512 -0.1506  0.0215
  785SOL    HW1 2354   2.109   0.330   3.144 -2.6879  1.9668  3.6562
  785SOL    HW2 2355   2.203   0.455   3.072  0.0752  1.1730  0.4020
  786SOL     OW 2356   2.033   2.145   2.226 -0.0713 -0.3125  0.3810
  786SOL    HW1 2357   1.999   2.050   2.245 -1.9977  1.4565 -0.2574
  786SOL    HW2 2358   2.134   2.160   2.218 -1.7473  0.6452 -0.4911
  787SOL     OW 2359   1.397   0.598   0.850 -0.2662  0.4987 -0.3312
  787SOL    HW1 2360   1.309   0.654   0.853  0.1269  0.4298 -1.0927
  787SOL    HW2 2361   1.445   0.602   0.755  0.0813  2.2237 -2.2407
  788SOL     OW 2362   1.226   0.387   3.024  0.0378 -0.0021  0.0185
  788SOL    HW1 2363   1.132   0.428   2.995  1.4469  1.7102  3.2414
  788SOL    HW2 2364   1.305   0.438   2.992 -0.6658 -0.2581  1.2193
  789SOL     OW 2365   2.598   0.109   1.818  0.8707 -0.1223  0.3998
  789SOL    HW1 2366   2.497   0.145   1.832 -2.4638  3.3249  0.7022
  789SOL    HW2 2367   2.606   0.009   1.808  0.0845 -1.4797  1.0136
  790SOL     OW 2368   2.585   2.654   0.862  0.0322 -0.0927  0.3737
  790SOL    HW1 2369   2.660   2.664   0.794  2.2974 -1.5777 -0.6247
  790SOL    HW2 2370   2.594   2.709   0.943 -2.0229  0.8413 -1.1580
  791SOL     OW 2371   1.973   1.260   0.225  0.1058  0.3518  0.3089
  791SOL    HW1 2372   1.892   1.209   0.261 -2.5531  2.6310 -1.0246
  791SOL    HW2 2373   2.057   1.206   0.249 -3.9482 -1.1814 -0.6975
  792SOL     OW 2374   0.418   1.979   2.173  0.0512 -0.0713  0.4434
  792SOL    HW1 2375   0.464   2.057   2.228 -0.4367  0.1018  3.1629
  792SOL    HW2 2376   0.335   1.935   2.218 -0.9169 -0.2372 -1.2069
  793SOL     OW 2377   2.126   1.551   2.129  0.2094 -0.4953  0.4630
  793SOL    HW1 2378   2.180   1.635   2.086  1.9554  4.4283 -1.7870
  793SOL    HW2 2379   2.126   1.469   2.065 -1.4712  0.2506 -1.6983
  794SOL     OW 2380   0.421   1.384   2.461 -0.1576  0.3166 -0.1532
  794SOL    HW1 2381   0.420   1.331   2.370 -0.0540 -1.4751 -2.6612
  794SOL    HW2 2382   0.376   1.476   2.453 -2.0796  1.7299  0.0473
  795SOL     OW 2383   2.520   2.319   1.801  0.4328 -0.3836 -0.0378
  795SOL    HW1 2384   2.570   2.301   1.887 -0.8664  1.2092 -0.5138
  795SOL    HW2 2385   2.422   2.274   1.805  0.5783  1.7363  0.4571
  796SOL     OW 2386   3.077   1.046   2.702 -0.2684 -0.0065 -0.2338
  796SOL    HW1 2387   2.997   1.094   2.751  1.8992  1.9420  4.3022
  796SOL    HW2 2388   3.156   1.063   2.768  1.9219  1.1269 -1.1025
  797SOL     OW 2389   0.767   0.661   1.334 -0.1876  0.0742  0.3075
  797SOL    HW1 2390   0.841   0.713   1.386 -2.1706 -0.8621  2.0788
  797SOL    HW2 2391   0.693   0.714   1.283 -0.4313 -0.8034  0.5306
  798SOL     OW 2392   1.227   0.449   1.023 -0.9835 -0.0535 -0.6547
  798SOL    HW1 2393   1.273   0.473   1.117  0.7374  4.4503  1.1628
  798SOL    HW2 2394   1.289   0.486   0.946 -0.3627 -1.7680 -0.3430
  799SOL     OW 2395   1.844   2.751   1.024 -0.7863 -0.3530 -0.0711
  799SOL    HW1 2396   1.849   2.656   1.074  1.2528  1.2400 -1.4841
  799SOL    HW2 2397   1.893   2.753   0.933 -0.1671  1.3962  3.5798
  800SOL     OW 2398   2.977   0.811   1.856 -0.4552  0.1102 -0.5869
  800SOL    HW1 2399   2.951   0.908   1.885  0.3320  2.1704 -3.4141
  800SOL    HW2 2400   3.028   0.757   1.933  1.5224  1.1957 -0.3853
  801SOL     OW 2401   1.964   2.138   0.121 -0.1457  0.4955  0.9945
  801SOL    HW1 2402   1.877   2.101   0.076 -0.8706 -0.2511 -2.3878
  801SOL    HW2 2403   2.050   2.084   0.100 -0.8411  1.3214  0.8744
  802SOL     OW 2404   0.704   0.713   2.542  0.7159  0.0196  0.1874
  802SOL    HW1 2405   0.733   0.729   2.442  0.4820  2.5883 -0.0663
  802SOL    HW2 2406   0.602   0.683   2.551 -1.9900  2.9352 -2.2443
  803SOL     OW 2407   0.929   0.059   0.851  0.0526 -0.7437 -0.0234
  803SOL    HW1 2408   1.011   0.112   0.892 -4.0342 -0.0450  1.8890
  803SOL    HW2 2409   0.900   0.105   0.762 -0.2598 -0.3761  0.6121
  804SOL     OW 2410   0.268   0.013   2.170 -0.0153  0.5165  0.3341
  804SOL    HW1 2411   0.250   0.115   2.190 -0.1215  1.3623  0.7778
  804SOL    HW2 2412   0.217  -0.035   2.090  0.2287 -1.0693 -0.6812
  805SOL     OW 2413   2.349   0.390   0.322 -0.1354 -0.0980  0.0493
  805SOL    HW1 2414   2.425   0.412   0.396  1.4553 -1.7918  2.8247
  805SOL    HW2 2415   2.378   0.321   0.247 -2.3732  1.0874  0.0268
  806SOL     OW 2416   0.628   2.487   1.835  0.0696  0.1268  0.0788
  806SOL    HW1 2417   0.567   2.572   1.839 -1.2081 -0.2302 -0.7074
  806SOL    HW2 2418   0.707   2.496   1.767  2.8132  1.7177  0.6085
  807SOL     OW 2419   2.524   0.939   0.435  0.8100  0.3968 -0.0909
  807SOL    HW1 2420   2.608   0.892   0.471  0.8119 -0.1862 -1.0563
  807SOL    HW2 2421   2.517   0.958   0.329 -0.9254  0.2643  1.6745
  808SOL     OW 2422   0.591   2.018   2.887 -0.1029  0.3105  0.2070
  808SOL    HW1 2423   0.604   2.050   2.987  1.3671 -1.2566  2.0761
  808SOL    HW2 2424   0.641   1.927   2.871 -2.4182 -1.2454  1.1579
  809SOL     OW 2425   2.542   2.005   1.872  0.1838  0.3967 -0.1393
  809SOL    HW1 2426   2.636   2.048   1.878 -3.5047  1.3054 -0.7370
  809SOL    HW2 2427   2.496   2.018   1.776  3.0887 -2.7714 -1.7016
  810SOL     OW 2428   2.140   1.088   0.526  0.3469 -0.2019 -0.1242
  810SOL    HW1 2429   2.126   1.025   0.610 -1.0216  0.3348 -0.7524
  810SOL    HW2 2430   2.112   1.187   0.542 -2.0143 -3.2498  0.6592
  811SOL     OW 2431   1.325   2.552   1.194 -0.7150 -0.7757 -0.3463
  811SOL    HW1 2432   1.301   2.453   1.216 -0.0590  1.0692 -0.4706
  811SOL    HW2 2433   1.289   2.607   1.274  0.0743 -1.0736 -1.8152
  812SOL     OW 2434   1.377   0.772   1.924  0.2735 -0.0412  0.1631
  812SOL    HW1 2435   1.282   0.762   1.883  1.3168  2.4747  3.0475
  812SOL    HW2 2436   1.417   0.863   1.898 -2.8363 -0.7337 -4.1532
  813SOL     OW 2437   1.585   2.048   2.416 -0.3982 -0.0725  0.0937
  813SOL    HW1 2438   1.662   1.982   2.438 -0.2740  1.5639  0.4470
  813SOL    HW2 2439   1.558   2.041   2.316  3.0911 -0.1384 -2.0593
  814SOL     OW 2440   2.960   1.692   2.897  0.2451  0.7161 -0.0831
  814SOL    HW1 2441   3.041   1.660   2.956  0.6568  2.5608  1.9136
  814SOL    HW2 2442   2.977   1.784   2.848  0.7641  3.9254 -0.6350
  815SOL     OW 2443   2.181   2.901   2.760 -0.0624  0.2160  0.4758
  815SOL    HW1 2444   2.154   2.813   2.814  1.2885 -2.0481  2.5887
  815SOL    HW2 2445   2.263   2.953   2.803 -0.6827  1.9261  0.2911
  816SOL     OW 2446   1.545   0.371   1.658 -0.4069 -0.0149 -0.2871
  816SOL    HW1 2447   1.616   0.317   1.711 -1.7218  0.3733 -1.5504
  816SOL    HW2 2448   1.457   0.394   1.713  0.0639 -0.3927  0.3120
  817SOL     OW 2449   0.411   1.173   2.653 -0.1368  0.2290  0.0915
  817SOL    HW1 2450   0.328   1.180   2.710  1.4879 -1.0818  1.3542
  817SOL    HW2 2451   0.422   1.256   2.596  1.8534  0.1369  0.1465
  818SOL     OW 2452   1.971   0.817   0.447  0.0871 -0.0430  0.2781
  818SOL    HW1 2453   2.076   0.820   0.446  0.8186 -0.5283 -0.8163
  818SOL    HW2 2454   1.937   0.851   0.539  2.7887  1.3544 -0.9290
  819SOL     OW 2455   2.740   2.972   3.086  0.3151 -0.8103 -0.1610
  819SOL    HW1 2456   2.738   2.880   3.139  0.6483 -1.3737  0.6479
  819SOL    HW2 2457   2.692   2.954   2.995  0.5869 -3.0060  0.3920
  820SOL     OW 2458   1.256   1.051   0.526  0.0514 -0.0484  0.1985
  820SOL    HW1 2459   1.301   1.142   0.543  1.2830  2.2064 -0.3720
  820SOL    HW2 2460   1.236   0.991   0.609  2.0711 -0.5025  0.6265
  821SOL     OW 2461   0.048   1.210   0.728  0.1519 -0.6990  0.4295
  821SOL    HW1 2462   0.003   1.194   0.820  1.9237 -0.9914 -2.4417
  821SOL    HW2 2463   0.107   1.299   0.715 -0.8620  2.5397 -0.9349
  822SOL     OW 2464   2.509   1.794   2.442 -0.4166  0.2158 -0.4769
  822SOL    HW1 2465   2.509   1.868   2.518 -1.1289  0.7087 -0.8322
  822SOL    HW2 2466   2.423   1.803   2.380 -1.7165 -2.2291  0.5125
  823SOL     OW 2467   1.996   0.937   1.180  0.4147  0.8053 -0.4887
  823SOL    HW1 2468   1.954   0.882   1.265  2.6430 -0.7477  2.9764
  823SOL    HW2 2469   1.924   0.946   1.108 -0.2356  0.5473  0.7358
  824SOL     OW 2470   0.223   1.956   2.787  0.0475 -0.5647  0.2065
  824SOL    HW1 2471   0.275   1.904   2.858 -2.8643 -0.9862  0.1142
  824SOL    HW2 2472   0.278   1.943   2.702  0.4572 -0.5231  1.8177
  825SOL     OW 2473   1.329   1.086   0.257  0.0938  0.2724 -0.3296
  825SOL    HW1 2474   1.333   1.186   0.238 -0.8068 -1.2741  1.1954
  825SOL    HW2 2475   1.277   1.068   0.346 -1.8826  0.5126  1.5613
  826SOL     OW 2476   1.926   0.603   1.579 -0.0797 -0.3772  0.4537
  826SOL    HW1 2477   2.018   0.580   1.627 -0.4700 -0.3015  1.2711
  826SOL    HW2 2478   1.869   0.516   1.554  1.6499 -0.4059  1.2555
  827SOL     OW 2479   0.697   1.167   0.362  0.0493 -0.8156  0.6616
  827SOL    HW1 2480   0.755   1.100   0.313 -0.7150  1.1625  0.2826
  827SOL    HW2 2481   0.608   1.129   0.399 -0.7580  0.2138 -1.1111
  828SOL     OW 2482   2.666   0.124   1.521 -0.3636  0.1070  0.2451
  828SOL    HW1 2483   2.565   0.104   1.510 -0.8263  0.1190 -0.6472
  828SOL    HW2 2484   2.690   0.141   1.621 -0.5164 -1.6088 -1.0019
  829SOL     OW 2485   2.959   2.401   2.872 -0.0841 -0.0065  0.7694
  829SOL    HW1 2486   2.866   2.381   2.912  0.6791 -1.5657 -2.7721
  829SOL    HW2 2487   2.973   2.502   2.849 -0.5395 -0.8789 -0.9786
  830SOL     OW 2488   2.893   0.922   3.044  0.1092 -0.2977 -0.0039
  830SOL    HW1 2489   2.954   0.998   3.072  0.4010 -0.0523  3.8053
  830SOL    HW2 2490   2.900   0.836   3.100 -0.8536 -0.4942 -0.4381
  831SOL     OW 2491   0.018   0.562   0.403  0.3600  0.3961 -0.0260
  831SOL    HW1 2492   0.021   0.480   0.467  0.8973  0.0763 -0.8599
  831SOL    HW2 2493   0.045   0.526   0.309 -0.1624 -1.1383 -0.9795
  832SOL     OW 2494   1.822   0.777   3.081 -0.2829 -0.3779 -0.0679
  832SOL    HW1 2495   1.748   0.827   3.023 -1.6407  0.7449 -3.6346
  832SOL    HW2 2496   1.808   0.673   3.099  0.2794 -0.1901  3.1190
  833SOL     OW 2497   2.404   2.066   0.460  0.0060  0.6942  0.4646
  833SOL    HW1 2498   2.307   2.025   0.469 -2.8026 -0.0187 -0.2812
  833SOL    HW2 2499   2.476   1.995   0.467 -0.1874  2.2938  0.7514
  834SOL     OW 2500   0.207   0.129   0.565  0.2455 -0.3060  0.1914
  834SOL    HW1 2501   0.234   0.035   0.604  2.2421 -1.3913  0.8351
  834SOL    HW2 2502   0.187   0.128   0.465 -0.5972 -1.2108 -0.3457
  835SOL     OW 2503   2.476   1.524   1.153 -0.3583 -0.4970 -0.3772
  835SOL    HW1 2504   2.560   1.559   1.204 -2.9660  0.8613 -2.1391
  835SOL    HW2 2505   2.493   1.504   1.048 -0.9220  1.6422 -3.0443
  836SOL     OW 2506   1.615   0.831   2.594 -0.3489 -0.0474 -0.0461
  836SOL    HW1 2507   1.515   0.795   2.608 -1.2539 -0.7151 -1.4881
  836SOL    HW2 2508   1.630   0.852   2.492  0.4229 -0.9066 -1.0265
  837SOL     OW 2509   1.696   0.086   0.605  0.8372  0.3180 -0.0498
  837SOL    HW1 2510   1.678   0.179   0.644  1.8753  1.7274 -0.6921
  837SOL    HW2 2511   1.647   0.070   0.512 -0.8278  0.6047 -0.8906
  838SOL     OW 2512   1.255   1.381   2.703 -0.0329  0.5063  0.0226
  838SOL    HW1 2513   1.202   1.441   2.769 -0.1099 -0.1217  0.0623
  838SOL    HW2 2514   1.196   1.308   2.657  0.1816 -2.3032  1.8038
  839SOL     OW 2515   1.571   0.345   0.969 -0.2284  0.2039 -0.1543
  839SOL    HW1 2516   1.595   0.396   1.055 -1.8984  0.1800  2.6581
  839SOL    HW2 2517   1.568   0.241   0.981 -0.3047  0.6901  3.3217
  840SOL     OW 2518   2.595   2.942   1.729 -0.3877  0.2730 -0.2670
  840SOL    HW1 2519   2.539   2.938   1.642  0.9458  0.0634 -0.5990
  840SOL    HW2 2520   2.561   2.874   1.800 -3.5648  0.4257 -2.8586
  841SOL     OW 2521   1.537   0.852   2.939 -0.0190 -0.0456 -0.2264
  841SOL    HW1 2522   1.526   0.832   3.041 -1.0701 -2.0328  0.0774
  841SOL    HW2 2523   1.502   0.944   2.916 -1.9911 -0.1442 -1.7614
  842SOL     OW 2524   0.800   1.560   0.993  0.0879 -0.0244 -0.1212
  842SOL    HW1 2525   0.770   1.649   1.034  1.7718  1.9017  0.4956
  842SOL    HW2 2526   0.744   1.531   0.912 -0.3448 -0.5773  3.2599
  843SOL     OW 2527   0.127   0.103   1.428  0.0188 -0.0563  0.2343
  843SOL    HW1 2528   0.204   0.144   1.480 -1.4962  0.0115 -0.4318
  843SOL    HW2 2529   0.151   0.009   1.384  1.7892  3.0767  0.4324
  844SOL     OW 2530   0.775   2.511   0.239 -0.2816  0.2585 -0.3997
  844SOL    HW1 2531   0.744   2.523   0.336  0.7929 -0.6597 -2.0025
  844SOL    HW2 2532   0.698   2.500   0.172  1.1252  4.9581 -1.6151
  845SOL     OW 2533   1.683   2.956   1.309 -0.3341 -0.0720 -0.7475
  845SOL    HW1 2534   1.658   3.032   1.375 -0.8124  1.3767 -0.1114
  845SOL    HW2 2535   1.626   2.948   1.223  1.0697 -2.9722 -0.4846
  846SOL     OW 2536   1.718   2.955   0.906 -0.0337  0.2965  0.0407
  846SOL    HW1 2537   1.748   2.970   0.806 -1.1909  1.4343 -0.9633
  846SOL    HW2 2538   1.763   2.875   0.954 -1.6109 -1.3496 -0.3820
  847SOL     OW 2539   2.069   1.615   0.208 -0.6276 -0.1657 -0.1769
  847SOL    HW1 2540   2.025   1.578   0.296 -0.3237 -2.2159  0.9518
  847SOL    HW2 2541   2.007   1.594   0.126 -0.3826  1.0650  1.5758
  848SOL     OW 2542   2.463   0.845   2.656 -0.2637  0.5563 -0.1797
  848SOL    HW1 2543   2.464   0.951   2.677  2.1315  0.0551  0.6197
  848SOL    HW2 2544   2.381   0.820   2.602  1.0345  2.7065  2.1626
  849SOL     OW 2545   2.416   0.868   2.308  0.0098  0.6576 -0.7722
  849SOL    HW1 2546   2.463   0.793   2.252  0.7363  2.1727  2.1820
  849SOL    HW2 2547   2.349   0.833   2.381 -1.2422 -0.0364  0.3959
  850SOL     OW 2548   1.606   0.154   1.264 -0.0408  0.2359 -0.2409
  850SOL    HW1 2549   1.561   0.108   1.182 -1.9200  1.0373 -1.8067
  850SOL    HW2 2550   1.540   0.139   1.344  0.8595  1.1005  0.2256
  851SOL     OW 2551   0.472   1.772   0.685  0.0772  0.1084 -0.1154
  851SOL    HW1 2552   0.461   1.875   0.680  1.6853 -0.7319  0.4403
  851SOL    HW2 2553   0.570   1.746   0.702  0.5911  1.7925  1.4166
  852SOL     OW 2554   0.768   2.123   1.683 -0.5087  0.0159  0.5516
  852SOL    HW1 2555   0.796   2.212   1.628  0.5078  1.4919  3.5860
  852SOL    HW2 2556   0.718   2.145   1.768 -1.2194 -0.0611 -2.4688
  853SOL     OW 2557   2.526   1.546   2.579 -0.4045 -0.2834 -0.1082
  853SOL    HW1 2558   2.469   1.463   2.549 -1.2880 -0.2657 -1.0263
  853SOL    HW2 2559   2.523   1.630   2.513  0.7503 -2.4157  1.0715
  854SOL     OW 2560   2.387   1.395   1.771 -0.8240  0.1145 -0.0422
  854SOL    HW1 2561   2.457   1.362   1.700  1.0913 -1.8643  1.1183
  854SOL    HW2 2562   2.303   1.332   1.781 -0.3189 -1.4846 -0.4621
  855SOL     OW 2563   2.037   2.309   0.960  0.4765 -0.5057  0.0897
  855SOL    HW1 2564   2.069   2.384   0.893 -1.8160 -0.4171 -2.1997
  855SOL    HW2 2565   2.089   2.307   1.054 -1.4208 -1.8459 -1.1418
  856SOL     OW 2566   1.424   1.352   0.889  0.3598 -0.0634 -0.6334
  856SOL    HW1 2567   1.426   1.452   0.897 -1.6467  1.3951  1.9885
  856SOL    HW2 2568   1.348   1.309   0.946  0.0144 -2.0694  0.7508
  857SOL     OW 2569   2.991   2.559   1.062 -0.0802 -0.5433 -0.1794
  857SOL    HW1 2570   2.904   2.507   1.037 -0.6515 -1.8851 -0.3883
  857SOL    HW2 2571   3.083   2.507   1.054 -1.3090 -0.8053 -3.3821
  858SOL     OW 2572   2.282   2.171   1.758 -0.0732 -0.1705  0.3704
  858SOL    HW1 2573   2.186   2.199   1.736 -2.9984 -0.7227  1.8819
  858SOL    HW2 2574   2.333   2.125   1.680  2.1903 -1.1481  2.1796
  859SOL     OW 2575   2.457   0.503   1.028 -0.3969  0.0120  0.1282
  859SOL    HW1 2576   2.506   0.499   0.930  1.3879 -0.2066 -2.1394
  859SOL    HW2 2577   2.474   0.416   1.080  0.1332  1.0901  2.4585
  860SOL     OW 2578   1.964   2.752   0.464 -0.0039 -0.6166 -0.2768
  860SOL    HW1 2579   1.957   2.701   0.371 -1.9183  0.2739  1.3166
  860SOL    HW2 2580   2.019   2.843   0.460 -0.0194  2.2160  0.0881
  861SOL     OW 2581   1.102   2.595   2.771 -0.2304 -0.5453 -0.0691
  861SOL    HW1 2582   1.144   2.692   2.760  0.9657 -2.0048 -0.4791
  861SOL    HW2 2583   1.122   2.545   2.863 -1.9130  1.8965  2.2274
  862SOL     OW 2584   2.931   2.550   1.547 -0.0531  0.4388 -0.5669
  862SOL    HW1 2585   2.954   2.574   1.646  1.5656 -0.3770 -2.8084
  862SOL    HW2 2586   2.864   2.613   1.505  2.1260 -1.0909  3.4683
  863SOL     OW 2587   1.900   2.620   0.235  0.7801  0.2184  0.8107
  863SOL    HW1 2588   1.936   2.518   0.232  0.8397 -1.7622 -0.6908
  863SOL    HW2 2589   1.804   2.636   0.276  2.0575  1.3755 -0.8904
  864SOL     OW 2590   1.856   1.194   2.952 -0.2005  0.1444  0.1222
  864SOL    HW1 2591   1.866   1.159   2.857 -0.3279 -3.1092  0.7788
  864SOL    HW2 2592   1.941   1.174   3.013  3.1016 -0.5956 -0.6685
  865SOL     OW 2593   2.165   1.756   0.676 -0.7571 -0.6408 -0.1133
  865SOL    HW1 2594   2.211   1.778   0.766  1.1670  1.4797  0.4325
  865SOL    HW2 2595   2.068   1.728   0.683 -1.9748 -1.4345  2.7490
  866SOL     OW 2596   2.925   2.868   1.019 -0.4955 -0.0965 -0.1268
  866SOL    HW1 2597   2.985   2.916   0.955 -1.2418 -2.8016  0.4152
  866SOL    HW2 2598   2.962   2.773   1.046 -0.1389 -2.2208  1.0972
  867SOL     OW 2599   0.418   1.331   0.873  0.2632 -0.2477 -0.0770
  867SOL    HW1 2600   0.434   1.236   0.835 -1.1421 -0.3924  3.2559
  867SOL    HW2 2601   0.332   1.380   0.842 -1.0498  1.3949 -0.4505
  868SOL     OW 2602   0.822   1.912   2.001  0.0580 -0.2884 -0.9138
  868SOL    HW1 2603   0.814   1.886   2.099 -0.3696 -0.8852  1.2875
  868SOL    HW2 2604   0.814   2.017   1.983  0.0414  1.2603 -1.9463
  869SOL     OW 2605   2.495   2.007   1.606  0.2217  0.4319  0.5621
  869SOL    HW1 2606   2.578   2.055   1.564 -1.2097  0.1424 -0.2328
  869SOL    HW2 2607   2.473   1.911   1.569 -0.2127  0.3187  0.1671
  870SOL     OW 2608   2.312   2.559   1.230  1.0565 -0.4266 -0.2682
  870SOL    HW1 2609   2.238   2.491   1.223  1.0642  3.3962  0.0330
  870SOL    HW2 2610   2.379   2.541   1.308 -0.3911 -0.1450  3.5404
  871SOL     OW 2611   2.984   2.069   0.569 -0.3354 -0.1147 -0.3155
  871SOL    HW1 2612   2.905   2.137   0.557 -1.0407 -4.2331  1.3085
  871SOL    HW2 2613   2.996   2.001   0.491  1.5973 -2.6218 -0.1965
  872SOL     OW 2614   2.147   0.508   1.704  0.1824  0.0720 -0.0304
  872SOL    HW1 2615   2.128   0.509   1.804 -0.7930  1.4569 -0.4793
  872SOL    HW2 2616   2.241   0.471   1.684  1.5712 -0.5035  1.8091
  873SOL     OW 2617   1.729   2.113   2.953 -0.2923  0.4068 -0.3756
  873SOL    HW1 2618   1.727   2.218   2.947 -0.9359 -0.1847 -1.9187
  873SOL    HW2 2619   1.702   2.059   2.867  0.7996 -0.9405  0.4879
  874SOL     OW 2620   0.681   2.486   0.774  0.4478  0.2068  0.3790
  874SOL    HW1 2621   0.671   2.581   0.804  0.6218 -1.4007 -3.3214
  874SOL    HW2 2622   0.776   2.444   0.791  1.2309 -0.6591  0.2320
  875SOL     OW 2623   2.274   1.548   1.492  0.0058 -0.5617  0.1493
  875SOL    HW1 2624   2.375   1.574   1.516  2.4905  0.2769 -1.3299
  875SOL    HW2 2625   2.252   1.601   1.405 -1.7553 -0.4677  2.6006
  876SOL     OW 2626   0.144   2.206   2.681 -0.2437 -0.1251 -0.4033
  876SOL    HW1 2627   0.152   2.110   2.729  0.0826 -0.9375  0.7718
  876SOL    HW2 2628   0.197   2.277   2.731  0.2141 -2.6440  0.5921
  877SOL     OW 2629   2.783   2.683   0.644  0.3841  0.3363 -0.4460
  877SOL    HW1 2630   2.863   2.753   0.653 -0.5663  0.7550 -2.8967
  877SOL    HW2 2631   2.815   2.587   0.665 -1.2864 -0.7664  0.7112
  878SOL     OW 2632   2.887   1.455   2.192 -0.1869  0.8333 -0.6493
  878SOL    HW1 2633   2.978   1.502   2.190 -0.4473 -0.4907  1.3573
  878SOL    HW2 2634   2.821   1.498   2.253  2.5927 -0.4134  1.1195
  879SOL     OW 2635   2.382   0.020   1.189 -0.1493  0.0879  0.1279
  879SOL    HW1 2636   2.443  -0.065   1.188 -1.8163 -1.3990 -2.1079
  879SOL    HW2 2637   2.307   0.014   1.116  0.3941 -1.3625  0.2714
  880SOL     OW 2638   0.716   0.458   2.162 -0.5869 -0.4513 -0.7580
  880SOL    HW1 2639   0.647   0.419   2.227  2.1457  2.3771 -2.6742
  880SOL    HW2 2640   0.756   0.383   2.101  0.5889  0.9932  2.5000
  881SOL     OW 2641   0.915   0.038   0.413 -0.0349 -0.1985  0.0478
  881SOL    HW1 2642   0.919  -0.045   0.468  0.4154  1.2334 -0.3448
  881SOL    HW2 2643   0.872   0.023   0.317  1.2224  1.9248  0.3552
  882SOL     OW 2644   2.731   1.630   1.683  0.1514  0.2395  0.3387
  882SOL    HW1 2645   2.824   1.601   1.654 -0.4255  2.1365  1.6889
  882SOL    HW2 2646   2.727   1.699   1.766 -0.8218  0.4830  2.6206
  883SOL     OW 2647   0.976   0.576   0.963 -0.1426 -0.2664 -0.2613
  883SOL    HW1 2648   0.998   0.664   1.005  2.8008  0.4594  0.9489
  883SOL    HW2 2649   1.044   0.506   0.994  0.6436  1.9290 -2.1450
  884SOL     OW 2650   1.185   1.901   1.033  0.1122  0.9402 -0.4615
  884SOL    HW1 2651   1.165   1.858   0.939  0.2020 -0.5439 -0.3101
  884SOL    HW2 2652   1.134   1.989   1.059  1.6104 -1.5524  0.3828
  885SOL     OW 2653   2.272   1.855   2.312 -0.0433 -0.1482  0.0370
  885SOL    HW1 2654   2.213   1.785   2.362  0.9614 -1.5997  1.1762
  885SOL    HW2 2655   2.257   1.952   2.331 -0.2258 -0.5584 -1.4928
  886SOL     OW 2656   2.674   0.459   1.793  0.0645 -0.2976  0.0901
  886SOL    HW1 2657   2.727   0.388   1.844 -1.5084  3.2666  1.2205
  886SOL    HW2 2658   2.730   0.538   1.751  1.6172 -0.5796  0.5004
  887SOL     OW 2659   0.091   2.066   1.266 -0.0403 -0.0178  0.5248
  887SOL    HW1 2660   0.025   1.994   1.226 -0.2893  1.8540 -0.1735
  887SOL    HW2 2661   0.143   2.117   1.196  0.7318  1.4259 -0.4745
  888SOL     OW 2662   0.555   1.285   1.531  0.4381 -0.2290 -0.8327
  888SOL    HW1 2663   0.604   1.310   1.445  0.8038 -1.5569  0.8605
  888SOL    HW2 2664   0.506   1.191   1.520 -0.1732  1.9098 -4.5200
  889SOL     OW 2665   0.851   2.489   2.118 -0.2711  0.5548 -0.1763
  889SOL    HW1 2666   0.757   2.470   2.078 -1.7719 -0.4258 -0.0456
  889SOL    HW2 2667   0.928   2.504   2.052  1.8711 -0.0432  0.2400
  890SOL     OW 2668   2.375   2.472   0.189  0.4302 -0.3394  0.1310
  890SOL    HW1 2669   2.406   2.545   0.123  1.1414 -0.3600  0.2616
  890SOL    HW2 2670   2.275   2.481   0.212 -1.2409  1.4585 -2.0594
  891SOL     OW 2671   2.642   1.512   0.634 -0.7702 -0.3275  0.6216
  891SOL    HW1 2672   2.625   1.484   0.727 -0.3255 -0.2000 -0.9286
  891SOL    HW2 2673   2.579   1.581   0.594 -0.6558 -1.6572 -0.7915
  892SOL     OW 2674   0.262   0.287   2.237  0.0790  0.2567 -0.0485
  892SOL    HW1 2675   0.262   0.291   2.132  0.7739 -1.2501  0.2221
  892SOL    HW2 2676   0.356   0.314   2.272  2.0745  0.7617  0.3161
  893SOL     OW 2677   1.685   0.228   2.759  0.0183  0.3643 -0.1982
  893SOL    HW1 2678   1.763   0.294   2.754 -0.1843  1.2132 -1.7223
  893SOL    HW2 2679   1.590   0.269   2.748 -1.3312 -1.8585  0.7943
  894SOL     OW 2680   2.228   2.018   0.043 -0.2553 -0.2269 -0.4283
  894SOL    HW1 2681   2.191   1.941  -0.021  1.8461 -1.5924 -0.7058
  894SOL    HW2 2682   2.271   1.973   0.124  0.6735 -1.4570  0.5724
  895SOL     OW 2683   2.907   1.445   0.840  0.3430  0.6562 -0.5329
  895SOL    HW1 2684   2.974   1.394   0.904  0.7637 -2.9570 -1.7453
  895SOL    HW2 2685   2.949   1.508   0.774 -0.3840  0.3059 -0.1649
  896SOL     OW 2686   1.718   1.778   1.156  0.1385  0.2320 -0.0488
  896SOL    HW1 2687   1.777   1.832   1.093 -2.0806  1.1560  0.0186
  896SOL    HW2 2688   1.615   1.792   1.144  0.2561 -2.1378 -1.0337
  897SOL     OW 2689   0.265   0.546   3.066 -0.0629  0.0411  0.3389
  897SOL    HW1 2690   0.210   0.603   3.001  2.5724 -1.5662  0.9210
  897SOL    HW2 2691   0.360   0.579   3.085 -2.7065 -1.7690 -1.0436
  898SOL     OW 2692   0.573   2.836   1.121  0.1680 -0.0513 -0.0115
  898SOL    HW1 2693   0.524   2.921   1.153 -1.1800  0.7128 -0.2545
  898SOL    HW2 2694   0.675   2.844   1.138  1.1400  0.6434 -1.2720
  899SOL     OW 2695   2.696   0.955   1.241 -0.7089 -0.1208 -0.2177
  899SOL    HW1 2696   2.619   0.925   1.179  1.7913 -1.7800 -1.0437
  899SOL    HW2 2697   2.790   0.959   1.195 -0.1996 -3.0341 -2.2774
  900SOL     OW 2698   1.011   2.528   2.342  0.3346 -1.0395  0.3829
  900SOL    HW1 2699   0.936   2.506   2.275 -0.2775 -1.6584  1.8547
  900SOL    HW2 2700   0.996   2.484   2.436 -0.2914  3.1853 -2.3430
  901SOL     OW 2701   1.913   2.447   1.378 -0.3283  0.0324 -0.0199
  901SOL    HW1 2702   1.894   2.456   1.279 -0.6730  0.7068  4.2131
  901SOL    HW2 2703   1.998   2.395   1.391 -2.5276  0.2114  0.4204
  902SOL     OW 2704   2.584   1.625   1.438  0.1014 -0.1631 -0.0688
  902SOL    HW1 2705   2.619   1.597   1.535  2.3415  0.3865  1.0632
  902SOL    HW2 2706   2.648   1.591   1.366 -3.1553 -0.4665  0.7932
  903SOL     OW 2707   0.251   2.432   2.025  0.4358 -0.2532  0.1365
  903SOL    HW1 2708   0.188   2.350   2.001 -2.6210 -0.1009 -0.9726
  903SOL    HW2 2709   0.263   2.497   1.947 -0.7992 -2.8720 -1.1299
  904SOL     OW 2710   1.986   0.784   2.466 -0.3096  0.6610  0.7184
  904SOL    HW1 2711   1.954   0.701   2.521  0.6913  0.9259 -0.5819
  904SOL    HW2 2712   1.934   0.803   2.377 -1.6822  1.0600 -0.2792
  905SOL     OW 2713   2.766   0.034   2.591 -0.2258 -0.3065  0.0247
  905SOL    HW1 2714   2.843  -0.028   2.611 -0.2754 -0.7991  1.4377
  905SOL    HW2 2715   2.803   0.125   2.558  0.9783  0.1518 -0.5980
  906SOL     OW 2716   0.202   1.788   1.882 -0.3893 -0.4495 -0.0850
  906SOL    HW1 2717   0.161   1.779   1.786 -0.5091 -0.1379 -0.1685
  906SOL    HW2 2718   0.284   1.850   1.889 -0.7323 -1.5059  1.3958
  907SOL     OW 2719   0.156   2.505   1.025 -0.4822 -0.4719  0.4159
  907SOL    HW1 2720   0.219   2.587   1.035  0.5178 -1.4954 -2.0812
  907SOL    HW2 2721   0.126   2.488   0.927  2.0853  1.6446 -1.4994
  908SOL     OW 2722   2.688   2.957   0.445 -0.3018 -0.0566 -0.4000
  908SOL    HW1 2723   2.666   3.021   0.368 -2.0114 -2.6935 -2.1743
  908SOL    HW2 2724   2.665   2.858   0.435 -0.5995 -1.7917  0.1308
  909SOL     OW 2725   0.831   0.914   2.677 -0.1621  0.0826 -0.3280
  909SOL    HW1 2726   0.774   0.839   2.632  3.0738 -1.3648 -0.2618
  909SOL    HW2 2727   0.905   0.955   2.615  0.2198  1.2201  2.8491
  910SOL     OW 2728   1.765   1.800   2.079 -0.0300 -0.1554 -0.2291
  910SOL    HW1 2729   1.814   1.802   1.987  2.1068 -0.8362 -0.7657
  910SOL    HW2 2730   1.689   1.871   2.088 -1.1401 -0.2219 -2.0747
  911SOL     OW 2731   1.772   3.007   1.625 -0.5215  0.1356  0.3462
  911SOL    HW1 2732   1.830   2.956   1.555  0.9680  3.4145 -0.6051
  911SOL    HW2 2733   1.744   2.951   1.709  0.4888  2.6335  1.1232
  912SOL     OW 2734   2.856   0.950   0.774 -0.3807  0.0855  0.4516
  912SOL    HW1 2735   2.887   0.941   0.870 -0.5038 -0.7099  0.2482
  912SOL    HW2 2736   2.836   1.050   0.750 -0.3328 -0.9156 -0.0631
  913SOL     OW 2737   2.531   1.294   1.563 -0.3364  0.0368 -0.5606
  913SOL    HW1 2738   2.549   1.190   1.579  0.4757 -0.7777 -0.8128
  913SOL    HW2 2739   2.589   1.330   1.490  0.3667 -0.6521  1.0402
  914SOL     OW 2740   2.810   0.527   1.221 -0.1671  0.0654  0.1751
  914SOL    HW1 2741   2.788   0.427   1.250  5.5995 -0.2240 -0.0507
  914SOL    HW2 2742   2.758   0.602   1.268  0.2827 -0.1436 -1.4278
  915SOL     OW 2743   1.228   0.792   1.013  0.2792 -0.4213  0.0287
  915SOL    HW1 2744   1.305   0.836   1.065  0.0892  0.3316 -0.4028
  915SOL    HW2 2745   1.129   0.818   1.046 -0.7952  0.4669 -0.3604
  916SOL     OW 2746   0.549   0.034   0.663 -0.6305  0.3302 -0.3965
  916SOL    HW1 2747   0.601   0.098   0.729  0.1405 -5.1578  3.0595
  916SOL    HW2 2748   0.556   0.065   0.564  1.8726 -0.3757 -0.6501
  917SOL     OW 2749   2.784   2.620   1.963 -0.3155 -0.4686 -0.1117
  917SOL    HW1 2750   2.684   2.643   1.971 -1.5819  1.0549 -0.0761
  917SOL    HW2 2751   2.834   2.700   1.924 -2.8217 -1.2934  1.0073
  918SOL     OW 2752   0.982   2.179   3.003 -0.1265 -0.7315 -0.0949
  918SOL    HW1 2753   0.911   2.193   3.082  1.3436 -0.0177  0.9967
  918SOL    HW2 2754   1.040   2.093   3.011 -0.4602 -0.1597 -1.4176
  919SOL     OW 2755   0.927   1.583   2.775  0.2475  0.0766 -0.2250
  919SOL    HW1 2756   0.959   1.642   2.699 -2.2503  0.3190  0.2757
  919SOL    HW2 2757   0.861   1.511   2.743  0.8066  1.7573  0.1637
  920SOL     OW 2758   1.247   2.029   2.492 -0.1254  0.4135  0.3045
  920SOL    HW1 2759   1.190   2.073   2.413  0.4608 -0.6776  0.6696
  920SOL    HW2 2760   1.274   1.928   2.475 -0.1486  1.1022 -1.8234
  921SOL     OW 2761   1.113   0.031   2.567 -0.6155  0.0680 -0.0486
  921SOL    HW1 2762   1.087   0.047   2.470  1.5598 -0.9876  0.6437
  921SOL    HW2 2763   1.027   0.028   2.631  0.2987 -0.3733  1.3099
  922SOL     OW 2764   2.185   2.378   2.794  0.6199 -0.4039 -0.3036
  922SOL    HW1 2765   2.164   2.279   2.812 -1.9581  1.8202 -0.9400
  922SOL    HW2 2766   2.125   2.415   2.718  1.2706 -0.7631  0.7829
  923SOL     OW 2767   1.228   2.692   0.272  0.3135 -0.7517  0.5772
  923SOL    HW1 2768   1.321   2.725   0.312  0.8000 -0.9341  2.1647
  923SOL    HW2 2769   1.226   2.590   0.257  2.9072  0.3510  0.9606
  924SOL     OW 2770   2.922   1.565   0.088 -0.3244 -0.0642 -0.1523
  924SOL    HW1 2771   2.848   1.568   0.018  2.2182  1.4926 -0.8912
  924SOL    HW2 2772   3.011   1.528   0.049 -2.6306 -1.6619  0.6213
  925SOL     OW 2773   0.016   2.881   1.584  0.3804 -0.4621 -0.1780
  925SOL    HW1 2774  -0.074   2.926   1.602 -0.9063 -1.0039 -2.1486
  925SOL    HW2 2775   0.061   2.911   1.493  2.4611 -0.5817 -0.5276
  926SOL     OW 2776   1.349   2.891   1.307  0.2379  0.4273  0.0960
  926SOL    HW1 2777   1.411   2.873   1.225 -1.9102 -1.5367 -1.3940
  926SOL    HW2 2778   1.364   2.979   1.359  1.1813 -0.1982 -2.0185
  927SOL     OW 2779   0.272   2.596   1.810  0.1988 -0.9642 -0.3960
  927SOL    HW1 2780   0.253   2.529   1.732 -1.9386 -1.6904  2.8372
  927SOL    HW2 2781   0.246   2.694   1.784  0.5833  1.2659  0.8565
  928SOL     OW 2782   1.553   2.024   2.130 -0.4546  0.0297  0.0627
  928SOL    HW1 2783   1.594   2.116   2.109  1.5129 -0.8399  2.1305
  928SOL    HW2 2784   1.456   2.020   2.100 -2.0785 -1.6914 -2.6863
  929SOL     OW 2785   2.427   2.492   2.860  0.3219  0.1470  0.5478
  929SOL    HW1 2786   2.336   2.455   2.850  2.7744  2.1993 -0.1832
  929SOL    HW2 2787   2.466   2.487   2.762 -2.5130 -0.2187 -0.4770
  930SOL     OW 2788   2.185   2.011   1.075  0.0117 -0.2777 -0.0420
  930SOL    HW1 2789   2.192   1.982   1.173  0.4596  2.4725  0.0218
  930SOL    HW2 2790   2.258   2.072   1.037  2.8113 -2.2121  1.8932
  931SOL     OW 2791   0.544   1.697   2.641 -0.1792 -0.0027 -0.4511
  931SOL    HW1 2792   0.612   1.691   2.724  0.7816  2.7339 -0.5065
  931SOL    HW2 2793   0.520   1.601   2.608 -1.5360  0.2447  0.9000
  932SOL     OW 2794   0.452   0.063   2.905  0.2356  0.5239  0.3897
  932SOL    HW1 2795   0.552   0.095   2.908  3.8756 -0.5326  0.7930
  932SOL    HW2 2796   0.435   0.003   2.987  1.7494  1.1160 -0.5327
  933SOL     OW 2797   1.051   0.792   2.985 -0.3961  0.5311  0.3307
  933SOL    HW1 2798   1.115   0.804   3.066  0.5691  1.1961 -0.2309
  933SOL    HW2 2799   0.990   0.874   2.966 -0.6651 -0.2457 -2.2954
  934SOL     OW 2800   0.893   3.035   2.727  0.3789 -0.2919  0.1879
  934SOL    HW1 2801   0.928   2.972   2.651 -0.2910  0.4578 -2.5474
  934SOL    HW2 2802   0.877   2.988   2.817  0.6160  1.9690  1.2280
  935SOL     OW 2803   3.082   0.522   0.808  0.4504  0.4335  0.7724
  935SOL    HW1 2804   3.108   0.430   0.759 -1.9532 -2.3452  0.4337
  935SOL    HW2 2805   2.993   0.562   0.780  1.4991  0.9670 -0.4565
  936SOL     OW 2806   1.102   2.904   0.149 -0.0574  0.1091 -0.1242
  936SOL    HW1 2807   1.136   2.919   0.051 -0.8896 -2.2200  2.3365
  936SOL    HW2 2808   1.153   2.820   0.190  0.3077 -0.5718  1.5555
  937SOL     OW 2809   1.895   2.620   2.102  0.0613 -0.1165 -0.1502
  937SOL    HW1 2810   1.809   2.640   2.155 -2.5433  2.7233  0.8428
  937SOL    HW2 2811   1.883   2.638   2.002  3.8122 -2.1528 -0.4566
  938SOL     OW 2812   2.739   2.134   1.516  0.2853  0.7345 -0.7975
  938SOL    HW1 2813   2.725   2.229   1.555 -0.7815 -1.5929  1.1013
  938SOL    HW2 2814   2.796   2.073   1.570 -0.3695  1.4402 -2.8839
  939SOL     OW 2815   2.808   1.188   2.455  0.2353 -1.1642 -0.1111
  939SOL    HW1 2816   2.896   1.192   2.398  1.3244 -1.1382  2.0663
  939SOL    HW2 2817   2.827   1.148   2.550 -0.0834 -1.6926 -1.0058
  940SOL     OW 2818   1.029   0.436   2.655 -0.0424 -0.2746 -0.0604
  940SOL    HW1 2819   1.086   0.351   2.681  5.2477  3.2559 -2.2878
  940SOL    HW2 2820   0.928   0.419   2.651  1.6833  3.3348  1.5272
  941SOL     OW 2821   0.017   2.832   2.221 -0.3600  0.0077  0.0439
  941SOL    HW1 2822   0.024   2.732   2.202 -0.7148  1.1572  0.6719
  941SOL    HW2 2823   0.086   2.872   2.291 -3.2671 -0.3156 -3.7264
  942SOL     OW 2824   0.033   0.081   2.541  0.0846 -0.4526 -0.4058
  942SOL    HW1 2825   0.102   0.102   2.616  1.7111  0.4302  0.8816
  942SOL    HW2 2826  -0.002   0.162   2.490  1.5451  0.2236 -0.2220
  943SOL     OW 2827   2.111   1.671   2.440 -0.1646 -0.7737  0.0854
  943SOL    HW1 2828   2.098   1.576   2.399 -0.7141 -0.0247 -2.9904
  943SOL    HW2 2829   2.101   1.673   2.539  0.3652  3.8481 -0.5842
  944SOL     OW 2830   2.174   2.340   1.462  0.2423  0.5250  0.2134
  944SOL    HW1 2831   2.242   2.400   1.511  1.4245 -0.3593  0.7217
  944SOL    HW2 2832   2.118   2.280   1.531 -1.8644  0.8163 -1.9826
  945SOL     OW 2833   0.635   1.471   0.368 -0.0908 -0.4126  0.7351
  945SOL    HW1 2834   0.677   1.518   0.283  1.5937 -1.4982  0.1696
  945SOL    HW2 2835   0.662   1.368   0.378  0.5171 -0.5821 -0.9139
  946SOL     OW 2836   0.428   0.943   2.534 -0.2637  0.5726 -0.2096
  946SOL    HW1 2837   0.355   0.949   2.462 -1.2705 -2.4662 -0.0012
  946SOL    HW2 2838   0.429   1.037   2.584  0.4122 -0.2049  0.8537
  947SOL     OW 2839   1.514   0.569   0.052 -0.6539 -0.0211  1.3029
  947SOL    HW1 2840   1.461   0.580  -0.039 -1.4530 -0.6390 -0.5225
  947SOL    HW2 2841   1.454   0.587   0.133 -1.4277 -4.0690 -1.7517
  948SOL     OW 2842   2.021   3.079   2.208 -0.6250 -0.1505  0.3185
  948SOL    HW1 2843   1.995   3.067   2.107 -1.3138 -0.4606 -0.7338
  948SOL    HW2 2844   1.991   3.000   2.269 -2.1763  0.6256 -1.6794
  949SOL     OW 2845   0.669   2.542   0.496 -0.7206  0.0178  0.1985
  949SOL    HW1 2846   0.634   2.642   0.488 -2.1071 -0.1847  1.2260
  949SOL    HW2 2847   0.712   2.508   0.586 -0.3326 -1.7864 -1.8540
  950SOL     OW 2848   0.278   2.177   3.078  0.1906 -0.1276  0.2576
  950SOL    HW1 2849   0.194   2.236   3.083  1.8760  3.3316 -1.1972
  950SOL    HW2 2850   0.263   2.098   3.015  1.5775 -1.5221  1.9486
  951SOL     OW 2851   1.168   2.871   2.719 -0.1831  0.3153  0.1613
  951SOL    HW1 2852   1.154   2.942   2.640 -1.4788 -0.1651 -2.7691
  951SOL    HW2 2853   1.253   2.887   2.773  1.5804  2.7644 -0.4029
  952SOL     OW 2854   0.079   1.626   0.449 -0.2491 -0.0350  0.4211
  952SOL    HW1 2855   0.143   1.709   0.471 -1.9510 -2.1813 -1.1265
  952SOL    HW2 2856   0.060   1.556   0.523 -0.6683 -1.4728 -0.4227
  953SOL     OW 2857   2.545   1.785   0.204  0.4423 -0.4142 -0.1822
  953SOL    HW1 2858   2.519   1.682   0.223 -0.7273  1.9776 -0.4565
  953SOL    HW2 2859   2.613   1.790   0.125  1.1975 -2.6100 -2.6302
  954SOL     OW 2860   2.183   0.548   0.983 -0.0980  0.5941  0.1209
  954SOL    HW1 2861   2.169   0.553   0.878 -2.2914  0.9231  1.0704
  954SOL    HW2 2862   2.284   0.530   1.011  2.2162 -2.5960 -0.4147
  955SOL     OW 2863   0.211   2.705   1.375 -0.7401  0.3640  0.2821
  955SOL    HW1 2864   0.113   2.674   1.370 -0.4146 -0.9447 -1.3445
  955SOL    HW2 2865   0.265   2.689   1.285  1.4258  1.8016  1.1596
  956SOL     OW 2866   2.774   2.474   2.454  0.1301  0.4447  0.1061
  956SOL    HW1 2867   2.774   2.375   2.420 -0.5413 -3.8525  1.8675
  956SOL    HW2 2868   2.792   2.541   2.383  0.2707 -3.0411  0.4211
  957SOL     OW 2869   1.580   2.008   2.732  0.4580  0.4445 -0.4132
  957SOL    HW1 2870   1.548   1.913   2.738  0.6027  2.9702  0.3113
  957SOL    HW2 2871   1.583   2.043   2.634 -0.8572  2.0493  2.7908
  958SOL     OW 2872   2.708   2.330   2.969 -0.4598  0.1082  0.3185
  958SOL    HW1 2873   2.614   2.351   2.937  1.0070 -0.7147  1.5556
  958SOL    HW2 2874   2.713   2.280   3.061 -4.5890 -0.5588 -0.0937
  959SOL     OW 2875   0.266   2.744   0.119  0.3073  0.2550 -0.6156
  959SOL    HW1 2876   0.171   2.708   0.105  2.0555 -1.1211  1.9353
  959SOL    HW2 2877   0.319   2.674   0.172  1.7086 -0.2608  0.0566
  960SOL     OW 2878   1.981   0.447   1.950  0.0817  0.0955 -0.1682
  960SOL    HW1 2879   1.933   0.523   1.893 -0.2899  0.3017  0.1347
  960SOL    HW2 2880   1.961   0.450   2.050 -2.0651  0.1638  0.2366
  961SOL     OW 2881   2.572   1.843   1.035  0.0927 -0.0513  0.5793
  961SOL    HW1 2882   2.539   1.933   0.988 -0.4386  0.2720 -0.5264
  961SOL    HW2 2883   2.562   1.856   1.138 -0.6004  1.7267 -0.0395
  962SOL     OW 2884   1.298   0.899   0.047  0.3423  0.1418 -0.2945
  962SOL    HW1 2885   1.304   0.923  -0.052  0.8254 -1.6191  1.2055
  962SOL    HW2 2886   1.320   0.981   0.110 -0.6861 -0.6206  0.6453
  963SOL     OW 2887   2.220   2.560   1.857  0.2850  0.2627 -0.2457
  963SOL    HW1 2888   2.220   2.466   1.902  1.2783  1.9359  1.3907
  963SOL    HW2 2889   2.270   2.633   1.908 -1.3986  4.4047  0.2477
  964SOL     OW 2890   2.415   0.402   1.689 -0.4590 -0.7821 -0.0616
  964SOL    HW1 2891   2.495   0.421   1.750 -1.0020  3.4169 -0.9376
  964SOL    HW2 2892   2.432   0.399   1.585  1.9305  0.7011 -2.3572
  965SOL     OW 2893   2.602   3.093   0.202 -0.3765  0.4689  0.2822
  965SOL    HW1 2894   2.659   3.049   0.128  4.2878  0.0273  1.8742
  965SOL    HW2 2895   2.504   3.111   0.166  1.5703  0.9393  2.5629
  966SOL     OW 2896   2.471   2.485   2.288  0.1100  0.4648 -0.6072
  966SOL    HW1 2897   2.379   2.462   2.324  1.2804  1.7755 -0.6401
  966SOL    HW2 2898   2.477   2.584   2.258  2.2230 -0.5876  1.4564
  967SOL     OW 2899   2.823   2.797   2.484  0.0049  0.6158  0.6193
  967SOL    HW1 2900   2.845   2.762   2.388 -0.5515 -2.1045 -1.1377
  967SOL    HW2 2901   2.894   2.860   2.523 -0.8419 -0.5294  0.6504
  968SOL     OW 2902   1.923   1.065   2.664  0.3546 -0.1189  0.4646
  968SOL    HW1 2903   1.928   1.136   2.581 -1.9916  2.4025 -2.1959
  968SOL    HW2 2904   1.869   0.977   2.641  1.5167  0.0229  0.2769
  969SOL     OW 2905   2.745   2.441   1.083  0.2921 -0.5639 -0.1462
  969SOL    HW1 2906   2.691   2.411   0.999 -0.4107  0.4786 -1.2910
  969SOL    HW2 2907   2.801   2.367   1.133 -2.8369 -1.3792  2.9526
  970SOL     OW 2908   1.050   2.122   1.765 -0.1259 -0.3960 -0.2140
  970SOL    HW1 2909   0.948   2.118   1.745  0.4178  0.4682  0.1355
  970SOL    HW2 2910   1.073   2.153   1.864  0.7091 -0.3193  0.5788
  971SOL     OW 2911   2.794   2.100   1.882 -0.3716 -0.2387  0.1389
  971SOL    HW1 2912   2.815   2.194   1.924 -2.4679  0.9236 -0.8601
  971SOL    HW2 2913   2.868   2.072   1.813 -0.9793 -1.0500 -0.7741
  972SOL     OW 2914   2.048   2.393   0.225  0.1217  0.5540  0.4493
  972SOL    HW1 2915   2.046   2.314   0.161  0.5402  1.0436  2.3175
  972SOL    HW2 2916   2.062   2.359   0.320  0.0743  1.1852  0.3541
  973SOL     OW 2917   1.317   1.077   1.950 -0.3601  0.2361  0.3036
  973SOL    HW1 2918   1.238   1.048   1.890  1.4519  2.8610  0.0888
  973SOL    HW2 2919   1.314   1.173   1.988  0.8419 -2.4870  0.0744
  974SOL     OW 2920   1.605   0.611   1.942 -0.0497 -0.0704 -0.3533
  974SOL    HW1 2921   1.666   0.634   1.865  0.5606 -1.1517 -1.4168
  974SOL    HW2 2922   1.513   0.655   1.927  0.8722  1.5718 -0.1190
  975SOL     OW 2923   2.376   3.031   0.033  0.1829 -0.1382 -0.7535
  975SOL    HW1 2924   2.307   2.956   0.048  0.2187 -1.6061 -0.6425
  975SOL    HW2 2925   2.408   3.036  -0.065 -2.9752  1.4814  1.2034
  976SOL     OW 2926   1.939   2.877   2.354 -0.1159 -0.6419 -0.2413
  976SOL    HW1 2927   1.872   2.820   2.298  1.1096  0.0965  0.3426
  976SOL    HW2 2928   1.926   2.867   2.460  0.7276 -0.9631  3.9405
  977SOL     OW 2929   0.440   0.613   1.012  0.1647 -0.3781  0.6551
  977SOL    HW1 2930   0.367   0.657   0.947 -1.6502 -0.1213  2.1899
  977SOL    HW2 2931   0.518   0.582   0.958 -1.9981  1.0240 -0.9212
   3.10000   3.10000   3.10000
