1000 SPC/Fw water molecules t=   1.17000 step= 1170
 2931
    1SOL     OW    1   2.562   0.349   2.596 -0.3365  0.2759 -0.2578
    1SOL    HW1    2   2.527   0.250   2.590 -0.3435 -0.7735 -2.4691
    1SOL    HW2    3   2.615   0.365   2.685 -1.4360  0.1221 -1.6476
    2SOL     OW    4   2.764   3.012   1.377  0.1307 -0.5292 -0.0004
    2SOL    HW1    5   2.856   3.038   1.331 -0.9022  0.6088 -1.5258
    2SOL    HW2    6   2.735   3.074   1.458 -0.1712 -0.9902  1.4267
    3SOL     OW    7   2.623   2.611   0.431  0.3872 -0.0744 -0.1457
    3SOL    HW1    8   2.599   2.512   0.417  1.5161  1.8100 -1.5977
    3SOL    HW2    9   2.716   2.623   0.479 -1.0596  1.1475  0.3495
    4SOL     OW   10   1.235   1.530   2.364  0.3748 -0.0426  0.2923
    4SOL    HW1   11   1.180   1.567   2.277 -0.9107 -0.3687 -1.1578
    4SOL    HW2   12   1.205   1.435   2.394  0.6703  0.3030  0.0909
    5SOL     OW   13   1.132   1.571   3.032  0.5505  0.2361 -0.3393
    5SOL    HW1   14   1.202   1.643   3.004  0.5862 -1.0349  0.4724
    5SOL    HW2   15   1.061   1.608   3.100 -1.2897  0.7615  0.2925
    6SOL     OW   16   0.210   1.763   3.004  0.3311  0.6004  0.6749
    6SOL    HW1   17   0.125   1.813   3.038  0.7517  0.3830 -0.9613
    6SOL    HW2   18   0.278   1.751   3.087 -0.6453  2.7874 -0.2207
    7SOL     OW   19   2.546   0.875   1.054 -0.4686 -0.7679 -0.1115
    7SOL    HW1   20   2.465   0.834   1.101  0.1044  1.5095 -0.2363
    7SOL    HW2   21   2.531   0.890   0.953 -0.5348 -2.5804  0.2991
    8SOL     OW   22   0.437   0.605   1.468  0.3634 -0.2084  0.0052
    8SOL    HW1   23   0.520   0.558   1.506 -1.6578  0.4161 -1.9013
    8SOL    HW2   24   0.414   0.583   1.371 -1.0903  1.5190 -1.1967
    9SOL     OW   25   1.200   0.901   2.428 -0.4993 -0.5758 -0.7019
    9SOL    HW1   26   1.229   0.938   2.331  0.6610 -0.5026  0.0848
    9SOL    HW2   27   1.151   0.808   2.429 -2.6466 -0.6508  2.9216
   10SOL     OW   28   0.667   1.364   1.320  0.0630  0.0288 -0.1963
   10SOL    HW1   29   0.582   1.371   1.263  2.7347 -1.4433 -0.9047
   10SOL    HW2   30   0.722   1.451   1.324  2.1388  2.4854  2.1735
   11SOL     OW   31   2.314   2.810   0.856 -0.3559 -0.3655 -0.2588
   11SOL    HW1   32   2.282   2.827   0.956 -0.8269  1.4000  4.8031
   11SOL    HW2   33   2.415   2.781   0.855  0.0847 -0.8817 -0.7808
   12SOL     OW   34   1.468   0.846   0.415 -0.7352 -0.3558 -0.1181
   12SOL    HW1   35   1.422   0.921   0.356  1.9706  0.7963 -1.9183
   12SOL    HW2   36   1.499   0.765   0.357 -2.4582 -0.0181  0.4608
   13SOL     OW   37   2.458   0.728   1.780 -0.7721  0.3746 -0.5055
   13SOL    HW1   38   2.382   0.690   1.834 -1.0950  3.2625 -0.9988
   13SOL    HW2   39   2.467   0.707   1.678  2.4373 -1.3878 -0.9097
   14SOL     OW   40   1.855   0.086   0.691  0.4231 -0.4512  0.1251
   14SOL    HW1   41   1.765   0.084   0.637  0.0632 -1.7963  1.2289
   14SOL    HW2   42   1.857   0.020   0.771 -0.1740  0.8592  0.7882
   15SOL     OW   43   1.868   2.100   2.733 -0.3475  0.4005 -0.2087
   15SOL    HW1   44   1.807   2.185   2.731 -2.3219 -0.3599 -1.9083
   15SOL    HW2   45   1.852   2.038   2.649 -1.0247 -3.4530  0.6200
   16SOL     OW   46   1.591   1.687   3.008 -0.6510 -0.1472 -0.3088
   16SOL    HW1   47   1.591   1.593   3.056 -0.2190 -1.2901  4.7856
   16SOL    HW2   48   1.676   1.742   3.032  0.7598 -0.3576  0.5351
   17SOL     OW   49   0.063   0.463   0.148 -0.0283  0.1729  0.1169
   17SOL    HW1   50   0.141   0.467   0.083  2.4488  3.4675  0.2986
   17SOL    HW2   51  -0.025   0.472   0.102  1.1915 -1.3038 -1.2774
   18SOL     OW   52   0.934   2.963   2.144  0.2590  0.2959  0.5300
   18SOL    HW1   53   0.844   2.912   2.148  0.3840  0.0184 -1.4844
   18SOL    HW2   54   0.976   2.954   2.053  1.7170 -0.5087 -2.1130
   19SOL     OW   55   0.491   0.828   1.877 -0.4336  0.5852  0.1637
   19SOL    HW1   56   0.516   0.797   1.970  1.5559  0.5922  2.0081
   19SOL    HW2   57   0.546   0.908   1.833 -1.1838  0.1773 -0.7378
   20SOL     OW   58   0.194   2.811   0.859  0.1942  0.4534  0.3689
   20SOL    HW1   59   0.117   2.868   0.823 -0.3833  1.3902 -2.6614
   20SOL    HW2   60   0.214   2.734   0.793  2.0137  0.0148  0.7613
   21SOL     OW   61   2.709   0.250   1.979  0.5690  0.2012 -0.2328
   21SOL    HW1   62   2.656   0.169   1.941  1.6823  1.8051 -3.0231
   21SOL    HW2   63   2.788   0.215   2.041  1.0064 -2.7221  1.8583
   22SOL     OW   64   2.323   0.201   0.126 -0.1748 -0.7199  0.3446
   22SOL    HW1   65   2.340   0.105   0.089 -1.0448 -0.8098 -1.9864
   22SOL    HW2   66   2.264   0.258   0.069 -0.4072 -0.2333  1.5169
   23SOL     OW   67   2.787   0.592   0.658  0.0711  0.0913  0.7881
   23SOL    HW1   68   2.777   0.499   0.625  0.4145  0.1320 -1.0327
   23SOL    HW2   69   2.823   0.657   0.588 -0.0295 -0.5784  0.7015
   24SOL     OW   70   0.226   1.923   0.438 -0.1262 -0.3426  0.1279
   24SOL    HW1   71   0.161   1.983   0.384 -1.3192 -0.9172 -0.9411
   24SOL    HW2   72   0.316   1.910   0.399  1.0721 -1.1408  0.4994
   25SOL     OW   73   2.239   0.647   0.208 -0.3836 -0.4787 -0.3296
   25SOL    HW1   74   2.236   0.657   0.104  0.1072  1.7554 -1.0246
   25SOL    HW2   75   2.273   0.557   0.243 -0.2104  0.2688 -2.1052
   26SOL     OW   76   2.454   2.178   2.036 -0.8589  0.2540 -0.5550
   26SOL    HW1   77   2.549   2.207   2.061  0.2708 -0.1756  1.5573
   26SOL    HW2   78   2.442   2.089   1.989  0.2797 -1.4896  1.6695
   27SOL     OW   79   0.622   2.908   0.258  0.8844  0.4281  0.7799
   27SOL    HW1   80   0.722   2.930   0.240 -0.5987 -0.5441  1.7285
   27SOL    HW2   81   0.555   2.921   0.183  2.0299 -0.8919  0.3142
   28SOL     OW   82   1.582   0.170   0.281  0.3315 -0.0780 -0.2423
   28SOL    HW1   83   1.630   0.137   0.195  1.1752  1.2846 -0.1999
   28SOL    HW2   84   1.623   0.258   0.321 -0.9321 -1.6931  0.2569
   29SOL     OW   85   1.973   0.576   0.314 -0.0308 -0.2100 -0.3270
   29SOL    HW1   86   1.900   0.626   0.358  1.9809  0.3509 -3.0007
   29SOL    HW2   87   2.032   0.644   0.270 -2.4234 -1.6983 -1.1306
   30SOL     OW   88   0.184   2.073   0.916  0.7036  0.3086 -0.0680
   30SOL    HW1   89   0.141   2.020   0.838 -1.1477  1.6975  0.1057
   30SOL    HW2   90   0.115   2.143   0.951 -0.8786 -0.2414 -0.4581
   31SOL     OW   91   2.120   0.058   2.399 -0.3529  1.3409  0.1281
   31SOL    HW1   92   2.059   0.052   2.483 -0.5696  0.7129 -0.2307
   31SOL    HW2   93   2.075   0.028   2.307  0.2495  0.6234  0.7865
   32SOL     OW   94   2.996   0.023   0.216  0.0926  0.3759  0.5425
   32SOL    HW1   95   2.967  -0.066   0.259 -3.1305 -2.9510  0.2941
   32SOL    HW2   96   3.083   0.061   0.251 -2.5356  1.3944  0.9601
   33SOL     OW   97   0.889   0.332   0.625  0.4582 -0.5068  0.4980
   33SOL    HW1   98   0.869   0.247   0.565 -0.9738  0.8457 -0.6096
   33SOL    HW2   99   0.988   0.358   0.618 -1.2569 -0.0945 -0.4552
   34SOL     OW  100   0.342   2.713   1.083  0.0455  0.1102  0.1817
   34SOL    HW1  101   0.291   2.739   0.993 -2.4790 -2.1871 -0.5404
   34SOL    HW2  102   0.422   2.777   1.099  1.5528  0.3570 -1.5055
   35SOL     OW  103   0.057   0.112   1.889 -0.1673  0.5304 -0.3917
   35SOL    HW1  104   0.121   0.030   1.910  0.8248  1.9620  0.5943
   35SOL    HW2  105  -0.024   0.086   1.830 -0.5847  1.7176 -0.6619
   36SOL     OW  106   1.893   1.253   1.606 -1.1996  0.0443 -0.2818
   36SOL    HW1  107   1.976   1.188   1.627  1.1225 -0.7883  0.0039
   36SOL    HW2  108   1.932   1.341   1.565 -1.1271 -0.2036 -2.2665
   37SOL     OW  109   1.180   0.248   0.963  0.4738 -0.1598 -0.5153
   37SOL    HW1  110   1.237   0.324   1.004 -2.7884 -0.8934  0.1477
   37SOL    HW2  111   1.227   0.192   0.896 -0.5985  2.0913  1.0283
   38SOL     OW  112   1.150   2.813   2.392  0.2044  0.3102 -0.0500
   38SOL    HW1  113   1.103   2.721   2.394  0.5405 -1.5272 -0.5680
   38SOL    HW2  114   1.105   2.870   2.322  0.1787 -2.9335  2.0555
   39SOL     OW  115   2.335   1.416   3.059  0.2060 -0.5401 -0.4218
   39SOL    HW1  116   2.389   1.325   3.060  2.6636 -1.6248 -0.8104
   39SOL    HW2  117   2.301   1.442   3.154 -1.2173 -0.8712  2.1356
   40SOL     OW  118   2.006   2.455   2.630 -0.0717 -0.0724  1.0931
   40SOL    HW1  119   2.008   2.553   2.597  1.4615  0.2700 -1.0155
   40SOL    HW2  120   1.956   2.396   2.558 -0.5982  1.2102  1.6244
   41SOL     OW  121   3.015   0.650   2.797 -0.5388 -0.3373 -0.1823
   41SOL    HW1  122   2.922   0.696   2.794 -0.1809  1.0863 -0.0166
   41SOL    HW2  123   3.019   0.560   2.754 -1.0141 -0.0647  0.9324
   42SOL     OW  124   1.747   1.794   0.488 -0.7268 -0.0046  0.1105
   42SOL    HW1  125   1.688   1.706   0.462  1.3029 -1.0174 -0.7439
   42SOL    HW2  126   1.749   1.866   0.416 -0.7301 -2.2822  1.1959
   43SOL     OW  127   0.421   1.688   1.170  0.1767  0.4063  0.1095
   43SOL    HW1  128   0.413   1.591   1.210  0.1210 -2.6402  0.3356
   43SOL    HW2  129   0.328   1.723   1.143  0.9912 -1.4663  3.7477
   44SOL     OW  130   1.695   2.345   2.989 -0.3963 -0.7160  0.0660
   44SOL    HW1  131   1.627   2.422   3.000 -0.0787  0.6218  1.4859
   44SOL    HW2  132   1.734   2.347   2.891  1.8036  1.9149 -2.5665
   45SOL     OW  133   0.347   1.881   2.606 -0.0529 -0.4524 -0.2588
   45SOL    HW1  134   0.326   1.858   2.507  0.7794 -0.5459 -1.1112
   45SOL    HW2  135   0.421   1.815   2.643  0.5963 -0.4973 -2.1057
   46SOL     OW  136   1.287   0.617   0.144 -0.1763 -0.0263  0.0694
   46SOL    HW1  137   1.307   0.716   0.121 -0.9526  2.0603  1.7025
   46SOL    HW2  138   1.186   0.607   0.172  0.2806 -1.0511 -0.5045
   47SOL     OW  139   0.220   2.512   1.575 -0.2700 -0.2891  0.2911
   47SOL    HW1  140   0.252   2.415   1.558 -1.0604  0.1537  1.0368
   47SOL    HW2  141   0.217   2.555   1.476  0.8773 -0.0618 -2.4226
   48SOL     OW  142   2.625   0.631   0.138 -0.3656 -0.0882 -0.1608
   48SOL    HW1  143   2.626   0.627   0.240 -1.2628  0.0569  0.9323
   48SOL    HW2  144   2.708   0.686   0.102  0.3874 -1.0701 -0.2309
   49SOL     OW  145   0.333   0.742   1.675  0.1093 -0.0936 -1.4309
   49SOL    HW1  146   0.402   0.759   1.753 -0.6489 -1.2416  1.9273
   49SOL    HW2  147   0.383   0.698   1.596 -1.2056 -0.3314 -1.1693
   50SOL     OW  148   1.676   1.109   0.344  0.4047 -0.1375 -0.2662
   50SOL    HW1  149   1.703   1.023   0.295 -1.5816 -2.7176 -2.2987
   50SOL    HW2  150   1.651   1.092   0.444 -1.9964 -2.8394  1.7040
   51SOL     OW  151   2.986   1.733   0.270 -0.0096 -0.0472 -0.4885
   51SOL    HW1  152   2.945   1.656   0.221 -0.5355 -1.3871  3.6790
   51SOL    HW2  153   3.061   1.699   0.338  0.8572 -1.4367  1.5735
   52SOL     OW  154   0.801   2.135   0.606 -0.0767  0.2364  0.5558
   52SOL    HW1  155   0.717   2.161   0.655  1.9879  1.7395 -1.2134
   52SOL    HW2  156   0.845   2.050   0.651 -0.7529 -2.9984  1.9150
   53SOL     OW  157   0.202   0.460   1.594 -0.7844  0.6236 -0.3558
   53SOL    HW1  158   0.260   0.547   1.593  1.2284  2.1404  2.1024
   53SOL    HW2  159   0.103   0.472   1.564 -1.5650 -1.4718 -0.0130
   54SOL     OW  160   1.810   0.494   3.030 -0.3609  0.1826 -0.3439
   54SOL    HW1  161   1.885   0.463   3.093 -1.2728  0.3290 -0.8604
   54SOL    HW2  162   1.721   0.497   3.073 -1.0755  0.3458 -3.4455
   55SOL     OW  163   0.773   2.890   0.663 -0.6665  0.0062 -0.2689
   55SOL    HW1  164   0.712   2.971   0.690 -0.4003 -0.5364  0.4264
   55SOL    HW2  165   0.870   2.906   0.628 -0.6058 -1.0083 -1.5231
   56SOL     OW  166   0.598   1.609   0.023 -0.2336  0.1035  0.1779
   56SOL    HW1  167   0.502   1.632   0.058 -2.2023  0.6374 -1.4549
   56SOL    HW2  168   0.588   1.532  -0.046  1.0101  0.2771  0.2878
   57SOL     OW  169   1.712   2.520   2.350 -0.6137  0.6903  0.2882
   57SOL    HW1  170   1.768   2.427   2.355  2.2525 -3.6738  1.2707
   57SOL    HW2  171   1.640   2.518   2.423  0.4372 -1.2592 -0.3397
   58SOL     OW  172   0.687   0.293   1.064  0.0252 -0.3603  0.0933
   58SOL    HW1  173   0.612   0.313   1.133  0.5993 -0.2886 -0.7302
   58SOL    HW2  174   0.693   0.190   1.036 -1.5766  0.4047 -0.9701
   59SOL     OW  175   0.395   2.325   2.725 -0.1721  0.5633 -0.0384
   59SOL    HW1  176   0.420   2.226   2.690 -2.9333 -0.6653 -1.5939
   59SOL    HW2  177   0.468   2.359   2.787 -0.0596  0.7326 -2.0024
   60SOL     OW  178   2.318   2.095   2.305 -0.0871 -0.2243  0.1779
   60SOL    HW1  179   2.387   2.128   2.234  3.6354  1.3607  0.6912
   60SOL    HW2  180   2.330   2.135   2.398 -2.5029  3.2384  0.1960
   61SOL     OW  181   1.260   0.589   0.426 -0.0402  0.3402 -0.3824
   61SOL    HW1  182   1.171   0.636   0.434  0.5330 -3.5769 -1.2465
   61SOL    HW2  183   1.286   0.581   0.328  0.0085  0.3209 -2.5330
   62SOL     OW  184   2.725   1.753   2.913  0.1953 -0.5343 -0.4825
   62SOL    HW1  185   2.696   1.778   2.819  0.5010  0.6005 -0.8983
   62SOL    HW2  186   2.802   1.681   2.908  2.8499  1.6417  1.1029
   63SOL     OW  187   0.535   0.818   0.207  0.5948  0.1516 -0.2910
   63SOL    HW1  188   0.583   0.890   0.151  0.3681  0.3589  1.0726
   63SOL    HW2  189   0.560   0.826   0.306  1.0880  0.0087 -1.9346
   64SOL     OW  190   0.012   0.470   2.467 -0.3644  0.5596  0.4685
   64SOL    HW1  191   0.023   0.524   2.555 -3.3741  1.2591  0.4894
   64SOL    HW2  192   0.002   0.527   2.376 -2.3823  3.9355 -1.5225
   65SOL     OW  193   0.191   1.506   0.636  0.2513  0.2542  0.4058
   65SOL    HW1  194   0.208   1.559   0.726  0.3781 -2.5816 -0.9376
   65SOL    HW2  195   0.278   1.483   0.579  2.9291 -1.4123  1.8432
   66SOL     OW  196   2.531   0.377   0.560 -0.1938  0.0962  0.1724
   66SOL    HW1  197   2.635   0.358   0.557 -0.5706  0.3983  0.4978
   66SOL    HW2  198   2.489   0.321   0.633  1.5108 -0.4326 -3.2793
   67SOL     OW  199   0.587   2.465   1.409  0.9951 -0.1888 -0.5953
   67SOL    HW1  200   0.680   2.445   1.456 -1.3220  0.3793  1.5300
   67SOL    HW2  201   0.523   2.385   1.414  0.7880  0.2140 -2.6784
   68SOL     OW  202   0.967   1.032   2.526  0.0040  0.0678 -0.0185
   68SOL    HW1  203   1.047   0.969   2.519  0.0164 -3.6058 -0.1792
   68SOL    HW2  204   0.927   1.058   2.434  0.8137  0.1744 -3.5804
   69SOL     OW  205   0.700   2.802   2.170  0.1755 -0.1602  0.6026
   69SOL    HW1  206   0.767   2.722   2.171  0.8044  0.2773  0.2262
   69SOL    HW2  207   0.595   2.770   2.163 -2.4502 -1.5638  0.3505
   70SOL     OW  208   0.485   0.164   2.579 -0.2312 -0.5500 -0.2838
   70SOL    HW1  209   0.386   0.154   2.609 -0.2893 -1.2334  0.4022
   70SOL    HW2  210   0.546   0.089   2.617 -0.7905  2.8898 -0.8766
   71SOL     OW  211   1.105   1.816   0.380 -0.2238  0.1230 -0.3737
   71SOL    HW1  212   1.072   1.752   0.458  1.2928 -0.3813  3.4818
   71SOL    HW2  213   1.051   1.800   0.295  1.6785 -0.8129  1.3059
   72SOL     OW  214   1.813   0.205   2.162  0.4793  0.0079  0.1355
   72SOL    HW1  215   1.869   0.285   2.155 -1.7137 -0.4270  1.4590
   72SOL    HW2  216   1.859   0.109   2.165 -0.1725 -2.4589 -2.4845
   73SOL     OW  217   2.817   2.196   2.389 -0.2798 -0.2157 -0.5800
   73SOL    HW1  218   2.816   2.094   2.362  2.1995  0.6559  0.2540
   73SOL    HW2  219   2.845   2.213   2.486 -1.1955 -0.5784 -0.5234
   74SOL     OW  220   2.646   2.856   2.192 -0.6168 -0.1387  0.0976
   74SOL    HW1  221   2.596   2.842   2.278  0.3759  2.3811  1.3211
   74SOL    HW2  222   2.752   2.864   2.203 -1.3149  3.5151  1.2454
   75SOL     OW  223   0.967   0.843   1.080 -0.0039  0.0979 -0.8280
   75SOL    HW1  224   0.882   0.877   1.023 -0.8443  0.8996 -0.4275
   75SOL    HW2  225   0.966   0.899   1.168 -5.0583  1.7153 -1.4796
   76SOL     OW  226   1.772   1.204   2.481  0.1570  0.5449 -0.2915
   76SOL    HW1  227   1.673   1.216   2.488  1.6820  0.9553  3.0878
   76SOL    HW2  228   1.818   1.295   2.486 -1.4032 -0.1906  1.9850
   77SOL     OW  229   2.941   0.941   1.022  0.2625 -0.0593  0.1276
   77SOL    HW1  230   2.911   0.839   1.012 -1.3687  0.0083 -0.1978
   77SOL    HW2  231   2.997   0.955   1.109 -1.5802 -1.0612  0.0671
   78SOL     OW  232   1.993   1.487   1.489 -0.1901 -0.1349 -0.0818
   78SOL    HW1  233   2.082   1.445   1.458 -0.6660  0.4970 -0.6731
   78SOL    HW2  234   1.943   1.539   1.413  0.9030 -3.1916 -1.1616
   79SOL     OW  235   0.632   1.419   0.792  0.5994  0.2961  0.2488
   79SOL    HW1  236   0.533   1.409   0.823 -0.6067 -0.3258 -0.5084
   79SOL    HW2  237   0.645   1.352   0.719 -3.1618  0.4227 -0.4663
   80SOL     OW  238   0.664   0.452   1.538 -0.2156  0.1901 -0.1229
   80SOL    HW1  239   0.687   0.497   1.446  1.3931 -1.6699  0.9077
   80SOL    HW2  240   0.663   0.349   1.528  0.7649 -0.5875  1.5123
   81SOL     OW  241   1.037   1.292   2.620 -0.7150 -0.5269 -0.3294
   81SOL    HW1  242   1.019   1.189   2.605 -1.4301 -0.0029 -2.5842
   81SOL    HW2  243   0.983   1.342   2.547  1.8055 -0.0111  0.3054
   82SOL     OW  244   0.926   3.002   1.513 -0.3870 -0.2900 -0.1448
   82SOL    HW1  245   0.834   2.959   1.523  0.3058  1.4407  0.6411
   82SOL    HW2  246   0.972   2.983   1.421 -3.0548 -0.0151 -0.9421
   83SOL     OW  247   2.618   2.383   0.854 -0.5604 -0.1288  0.1396
   83SOL    HW1  248   2.533   2.426   0.887  1.6409 -0.0129  2.3014
   83SOL    HW2  249   2.613   2.345   0.753 -2.8421  0.4506  1.7625
   84SOL     OW  250   0.696   3.081   2.379  0.9678  0.3596 -0.1477
   84SOL    HW1  251   0.619   3.082   2.445  0.5836  0.6150 -0.6494
   84SOL    HW2  252   0.754   2.989   2.371  1.2329 -0.9896  1.0170
   85SOL     OW  253   0.271   1.618   1.441 -0.5019  0.9934  0.2228
   85SOL    HW1  254   0.263   1.718   1.432  2.5129  0.5680  0.3102
   85SOL    HW2  255   0.321   1.590   1.526 -0.2571  1.4803  3.1588
   86SOL     OW  256   0.472   1.083   1.470  0.0272  0.6915 -0.5023
   86SOL    HW1  257   0.413   1.018   1.410  0.9241 -1.1795  0.9290
   86SOL    HW2  258   0.557   1.026   1.500 -0.4577  0.0714  1.5768
   87SOL     OW  259   1.650   0.661   0.268  0.4042  0.3288  0.1050
   87SOL    HW1  260   1.706   0.746   0.252 -0.5562  0.2077  2.2384
   87SOL    HW2  261   1.623   0.607   0.180  3.3293 -1.6529  2.7338
   88SOL     OW  262   1.587   1.365   0.271  0.3599 -0.3140 -0.1447
   88SOL    HW1  263   1.630   1.283   0.315 -1.4513 -0.3805 -1.2061
   88SOL    HW2  264   1.496   1.389   0.308  2.9419  1.8825 -2.1195
   89SOL     OW  265   3.098   0.402   0.588  0.1206 -0.5970  0.1373
   89SOL    HW1  266   3.144   0.308   0.563 -1.1031 -0.8910  1.8617
   89SOL    HW2  267   2.992   0.395   0.602 -1.8615 -1.0329  0.4409
   90SOL     OW  268   0.883   1.577   0.064 -0.6876 -0.0630  0.4433
   90SOL    HW1  269   0.904   1.476   0.065 -1.2815  1.9750 -0.1507
   90SOL    HW2  270   0.782   1.591   0.049 -0.4422  0.8278 -1.8768
   91SOL     OW  271   1.221   1.463   1.781 -0.3231 -0.5652  0.0901
   91SOL    HW1  272   1.188   1.545   1.831  1.1601 -0.3131 -0.2063
   91SOL    HW2  273   1.325   1.452   1.792  2.3992 -1.2408 -0.2418
   92SOL     OW  274   3.097   0.954   1.243  0.2444  0.0798  0.6147
   92SOL    HW1  275   3.149   1.034   1.195 -0.4715 -0.3039 -0.6532
   92SOL    HW2  276   3.086   0.971   1.347 -2.3052 -1.6957  0.9245
   93SOL     OW  277   3.068   2.724   0.051 -0.6258 -0.0297 -0.1061
   93SOL    HW1  278   3.020   2.722  -0.044 -2.5747  0.2323 -1.5370
   93SOL    HW2  279   3.091   2.624   0.081  0.7855 -1.8987 -1.4150
   94SOL     OW  280   1.505   1.469   1.822 -0.1656 -0.0198 -0.2565
   94SOL    HW1  281   1.588   1.412   1.793 -0.0070 -1.2591 -0.6391
   94SOL    HW2  282   1.539   1.564   1.854 -2.6086 -0.4186 -0.6642
   95SOL     OW  283   1.484   2.507   2.969  0.2840 -0.0698 -0.3715
   95SOL    HW1  284   1.415   2.547   3.039  0.3354  1.0158  1.0264
   95SOL    HW2  285   1.455   2.416   2.935 -0.7221  0.3159 -0.8229
   96SOL     OW  286   0.561   2.095   1.302 -0.0141 -0.1179 -0.0509
   96SOL    HW1  287   0.501   2.042   1.234  0.4246  1.6881 -3.1800
   96SOL    HW2  288   0.631   2.034   1.346  0.4969  0.7056 -2.0661
   97SOL     OW  289   0.307   1.626   2.448 -0.1852 -0.0725  0.1400
   97SOL    HW1  290   0.234   1.664   2.388  1.9310 -0.0490  0.0659
   97SOL    HW2  291   0.286   1.636   2.552  1.4583 -1.4680  0.3794
   98SOL     OW  292   2.099   1.601   1.197 -0.3885 -0.6856  0.4000
   98SOL    HW1  293   2.008   1.557   1.209  1.1040  0.3796  2.0059
   98SOL    HW2  294   2.165   1.553   1.133 -0.4160  1.3754  0.9630
   99SOL     OW  295   2.552   2.068   1.297  0.1576 -0.0115 -0.5230
   99SOL    HW1  296   2.633   2.050   1.357 -1.3725  3.2916 -0.5557
   99SOL    HW2  297   2.481   1.997   1.313  0.4339  0.2355  2.1339
  100SOL     OW  298   2.298   0.416   2.085  0.1129 -0.3702 -0.6373
  100SOL    HW1  299   2.242   0.354   2.146 -0.7716  3.7756 -1.0345
  100SOL    HW2  300   2.392   0.441   2.118 -3.0757 -1.0534  0.3801
  101SOL     OW  301   0.445   1.506   0.463  0.3687  0.2905 -0.2890
  101SOL    HW1  302   0.473   1.578   0.531 -1.2942  1.2102 -0.9836
  101SOL    HW2  303   0.521   1.485   0.391  1.9825  0.1325  0.6727
  102SOL     OW  304   2.264   1.072   0.826  0.5636  0.7777  0.3474
  102SOL    HW1  305   2.177   1.031   0.779 -4.4579 -0.9002  1.0830
  102SOL    HW2  306   2.348   1.088   0.766  0.4445 -0.9348  0.6952
  103SOL     OW  307   2.216   0.111   0.384  0.2971  0.5931 -0.2447
  103SOL    HW1  308   2.260   0.113   0.290  1.1954 -1.0156  1.4587
  103SOL    HW2  309   2.285   0.077   0.454 -0.8328 -1.2312  3.1683
  104SOL     OW  310   0.079   1.857   2.120 -0.1808  0.8736 -0.1327
  104SOL    HW1  311   0.098   1.821   2.027 -1.2681 -0.2593 -0.0260
  104SOL    HW2  312  -0.027   1.858   2.137 -2.8003 -0.3489 -0.5031
  105SOL     OW  313   1.276   2.113   0.796  0.1041  0.3081  0.4455
  105SOL    HW1  314   1.328   2.197   0.761 -1.6170  0.6308  0.3017
  105SOL    HW2  315   1.205   2.086   0.725  0.5831 -0.5198 -0.3730
  106SOL     OW  316   2.133   0.355   1.407 -0.2135 -0.3839  0.4951
  106SOL    HW1  317   2.109   0.254   1.430  1.9352 -1.5366  1.3269
  106SOL    HW2  318   2.117   0.415   1.493  1.4785  0.6000  1.9131
  107SOL     OW  319   1.912   2.943   1.231 -0.0911 -0.0064  0.1906
  107SOL    HW1  320   1.851   3.015   1.266 -0.5495 -0.7163 -2.0105
  107SOL    HW2  321   1.864   2.867   1.186  1.4846 -1.3993  0.7819
  108SOL     OW  322   0.816   2.805   1.258  0.2627  0.0937 -0.3986
  108SOL    HW1  323   0.836   2.713   1.303  1.0030 -0.2808  0.7378
  108SOL    HW2  324   0.908   2.851   1.230  1.2987  1.4557 -3.3880
  109SOL     OW  325   2.108   0.134   0.751  0.1253  0.0854 -0.2603
  109SOL    HW1  326   2.008   0.130   0.720  0.0972  0.7958  1.1570
  109SOL    HW2  327   2.117   0.087   0.843  0.5019  2.1924  0.6026
  110SOL     OW  328   0.471   2.801   2.761 -0.6441 -0.4262  0.3801
  110SOL    HW1  329   0.449   2.755   2.667 -0.9577  0.9852  0.2049
  110SOL    HW2  330   0.542   2.757   2.816  0.8187  0.4876 -0.7375
  111SOL     OW  331   1.252   0.467   2.342  0.3503 -0.3596 -0.2262
  111SOL    HW1  332   1.191   0.526   2.399  0.2393 -0.1700 -0.5578
  111SOL    HW2  333   1.330   0.422   2.396 -0.1769  1.4748 -0.7172
  112SOL     OW  334   1.762   0.476   1.494  0.4799 -0.1977  0.0105
  112SOL    HW1  335   1.740   0.464   1.395 -1.0658 -1.2581  0.1030
  112SOL    HW2  336   1.690   0.429   1.550 -1.2840 -1.3796  1.4945
  113SOL     OW  337   2.381   1.620   1.741 -0.5608  0.0813 -0.4216
  113SOL    HW1  338   2.440   1.531   1.741 -1.9286  0.1888  0.7882
  113SOL    HW2  339   2.397   1.683   1.825 -0.4335  0.3671 -2.2577
  114SOL     OW  340   0.331   0.548   1.222  0.4683  0.3228 -0.4234
  114SOL    HW1  341   0.373   0.600   1.137 -1.2652  1.3249 -2.3445
  114SOL    HW2  342   0.234   0.573   1.246 -1.6546  3.8556 -0.2129
  115SOL     OW  343   2.759   1.618   1.257  0.0030 -0.5208  1.3607
  115SOL    HW1  344   2.729   1.522   1.268  0.0807  3.2478 -0.2385
  115SOL    HW2  345   2.851   1.620   1.211  1.3962  0.3861  0.7517
  116SOL     OW  346   1.814   1.039   0.624  0.3516  0.1198  0.3213
  116SOL    HW1  347   1.714   1.007   0.648 -2.0649 -0.4332 -0.9417
  116SOL    HW2  348   1.848   1.125   0.684  1.4396  2.7047 -0.4515
  117SOL     OW  349   1.150   0.365   0.578 -0.8333 -0.8061  0.3017
  117SOL    HW1  350   1.215   0.451   0.573  1.4515  1.1473  2.4646
  117SOL    HW2  351   1.144   0.316   0.491 -0.2778  0.2241  0.3059
  118SOL     OW  352   1.071   1.184   1.134 -0.2535 -0.0869  0.0975
  118SOL    HW1  353   1.059   1.116   1.213 -0.6098  2.6303 -1.2629
  118SOL    HW2  354   1.096   1.282   1.165 -1.1361 -0.4954 -0.1366
  119SOL     OW  355   1.821   1.573   2.173  0.2343  0.2134  0.2740
  119SOL    HW1  356   1.803   1.675   2.162 -0.0043 -0.3597  1.9317
  119SOL    HW2  357   1.905   1.545   2.122  0.6731  1.4723  2.5140
  120SOL     OW  358   2.903   2.847   0.240 -0.3709 -0.2485 -0.3649
  120SOL    HW1  359   2.969   2.831   0.163 -1.7378  0.8434 -0.4100
  120SOL    HW2  360   2.814   2.801   0.216 -0.9372 -1.0730 -1.7336
  121SOL     OW  361   1.913   0.722   2.214 -0.5296 -0.6049  0.1711
  121SOL    HW1  362   1.934   0.777   2.127 -1.1399 -0.1595 -0.4101
  121SOL    HW2  363   1.930   0.622   2.202 -0.6238  0.1725 -1.2437
  122SOL     OW  364   2.666   2.573   1.327 -0.9827 -0.6490 -0.0724
  122SOL    HW1  365   2.684   2.525   1.240 -0.9259  1.7286 -2.1014
  122SOL    HW2  366   2.626   2.514   1.401  2.1327  1.2298  0.2828
  123SOL     OW  367   1.732   0.049   1.702 -0.2601  0.6978 -0.1899
  123SOL    HW1  368   1.761  -0.041   1.656  1.4933  0.3650 -0.8150
  123SOL    HW2  369   1.809   0.113   1.724 -5.1268 -1.5528  1.5481
  124SOL     OW  370   0.027   0.444   1.088 -0.7994 -0.4833 -0.3109
  124SOL    HW1  371   0.049   0.508   1.164 -2.4317 -0.9054 -3.6261
  124SOL    HW2  372   0.027   0.498   0.998  1.5511  0.2593 -1.6220
  125SOL     OW  373   0.906   1.905   0.747  0.4047  0.6858  0.0385
  125SOL    HW1  374   0.990   1.846   0.758 -0.5410  1.5995  0.0031
  125SOL    HW2  375   0.829   1.868   0.805 -1.2732 -0.9770  1.1571
  126SOL     OW  376   1.838   2.281   2.411  0.3779  0.2737 -0.2063
  126SOL    HW1  377   1.915   2.251   2.350  0.4285 -1.0082  1.9178
  126SOL    HW2  378   1.765   2.206   2.430  2.5823 -2.8286 -1.5953
  127SOL     OW  379   0.922   0.952   0.177  0.0377  0.7054  0.0385
  127SOL    HW1  380   0.959   0.997   0.264 -2.2245  1.3678  1.1930
  127SOL    HW2  381   0.920   0.844   0.187 -3.0798 -1.6502  0.5768
  128SOL     OW  382   0.911   0.268   1.411  0.7110  0.8605  0.7614
  128SOL    HW1  383   0.905   0.356   1.353 -2.7444  1.4156 -1.1820
  128SOL    HW2  384   0.846   0.197   1.377 -1.2427 -1.4632 -1.1741
  129SOL     OW  385   1.862   0.672   1.864 -0.3325 -0.1101 -0.2166
  129SOL    HW1  386   1.874   0.693   1.759  1.5372  0.7828 -2.8652
  129SOL    HW2  387   1.894   0.754   1.925  0.7126 -1.6310  0.3765
  130SOL     OW  388   1.423   2.151   1.031 -0.0537  0.3131 -0.4328
  130SOL    HW1  389   1.359   2.131   0.953 -1.2036 -1.7143  0.8189
  130SOL    HW2  390   1.485   2.233   1.009  2.2686  1.1577 -1.4376
  131SOL     OW  391   3.028   1.349   1.385  0.1843 -0.7045  0.0659
  131SOL    HW1  392   2.977   1.274   1.432  0.5112 -1.6800 -0.9013
  131SOL    HW2  393   3.125   1.322   1.383  0.3246 -1.3645  0.4899
  132SOL     OW  394   2.035   2.418   0.459  0.0481 -0.0532  0.1927
  132SOL    HW1  395   1.934   2.454   0.466 -2.7808  1.3414 -0.5001
  132SOL    HW2  396   2.055   2.356   0.537 -3.0757 -3.4086 -3.6939
  133SOL     OW  397   1.754   2.346   2.725 -0.1957  0.2099 -0.1518
  133SOL    HW1  398   1.664   2.354   2.674 -1.9377 -1.5112 -0.3196
  133SOL    HW2  399   1.829   2.410   2.691  0.2919  2.2102 -2.6804
  134SOL     OW  400   2.680   2.271   1.596 -0.1074  0.3360  0.1871
  134SOL    HW1  401   2.604   2.309   1.657  0.0708  2.0985 -1.0012
  134SOL    HW2  402   2.745   2.350   1.579  0.3837 -0.1757  0.5623
  135SOL     OW  403   0.724   1.469   2.673  0.0096  0.1523 -0.6033
  135SOL    HW1  404   0.686   1.381   2.712  1.9455 -0.4161  1.5923
  135SOL    HW2  405   0.742   1.463   2.572 -2.5900  2.9521  1.5035
  136SOL     OW  406   1.228   2.031   0.490  0.1536 -0.1307 -0.1677
  136SOL    HW1  407   1.142   2.092   0.491 -1.5483  0.9533  1.7530
  136SOL    HW2  408   1.205   1.934   0.459 -2.7736  0.9801  0.7125
  137SOL     OW  409   0.430   1.198   2.247 -0.4854  0.3443 -0.2030
  137SOL    HW1  410   0.327   1.175   2.257  3.7081 -4.2225 -2.2180
  137SOL    HW2  411   0.495   1.125   2.284  0.4440 -0.9921  0.0635
  138SOL     OW  412   2.506   1.503   0.268  0.1414 -0.3643 -0.0284
  138SOL    HW1  413   2.413   1.460   0.257  1.8880  0.2154  2.4896
  138SOL    HW2  414   2.585   1.438   0.285 -2.0131  1.0735  2.0271
  139SOL     OW  415   1.913   2.621   1.460  0.0708 -0.3786  1.3024
  139SOL    HW1  416   1.826   2.661   1.424 -0.7394  0.4114  3.0221
  139SOL    HW2  417   1.912   2.517   1.450  0.8132 -2.3942  0.1764
  140SOL     OW  418   3.023   2.992   2.542 -0.2806  0.1020  0.0772
  140SOL    HW1  419   3.083   2.902   2.555  1.8669 -1.8302  2.4549
  140SOL    HW2  420   3.084   3.074   2.506  0.6973  0.7248  0.2899
  141SOL     OW  421   1.310   1.702   1.648  0.1583 -0.0677 -0.0622
  141SOL    HW1  422   1.228   1.768   1.647  1.0001  1.7048  1.4069
  141SOL    HW2  423   1.303   1.636   1.726 -1.5763 -0.4602  0.4773
  142SOL     OW  424   1.547   0.582   2.245 -0.3817 -0.2012 -0.0060
  142SOL    HW1  425   1.570   0.580   2.141  2.0347 -0.7360 -0.2338
  142SOL    HW2  426   1.445   0.572   2.258  1.2996 -0.2615  0.5225
  143SOL     OW  427   2.775   0.905   0.507  0.4869 -0.0787 -0.0345
  143SOL    HW1  428   2.822   0.951   0.426 -2.5598  0.0324 -2.0873
  143SOL    HW2  429   2.817   0.922   0.602 -0.6203 -1.9863 -2.2142
  144SOL     OW  430   2.894   1.155   1.515  0.5725 -0.2967 -0.2740
  144SOL    HW1  431   2.833   1.145   1.601  0.5387 -0.3989  2.9227
  144SOL    HW2  432   2.969   1.083   1.514  0.9285 -2.8565 -2.9439
  145SOL     OW  433   1.018   1.798   0.116 -0.2176  0.0384  0.0042
  145SOL    HW1  434   1.074   1.825   0.035 -1.6729  0.2307 -2.8353
  145SOL    HW2  435   0.938   1.733   0.091 -1.3564 -1.5377  0.1529
  146SOL     OW  436   2.449   0.660   1.508 -0.2673 -0.1176 -0.5110
  146SOL    HW1  437   2.405   0.593   1.436  1.7370 -1.5292 -0.3119
  146SOL    HW2  438   2.424   0.761   1.483 -2.8093  1.2516 -1.1400
  147SOL     OW  439   1.096   2.571   0.613 -0.7097 -0.1424 -0.7842
  147SOL    HW1  440   1.034   2.606   0.538 -0.4501 -0.5827 -0.8400
  147SOL    HW2  441   1.183   2.522   0.569  0.2149 -0.9893 -1.9555
  148SOL     OW  442   1.629   1.440   0.009  0.0090  0.0433  0.0496
  148SOL    HW1  443   1.595   1.360  -0.052 -1.2103  1.6030 -1.6199
  148SOL    HW2  444   1.607   1.421   0.110 -0.9703 -0.1530  0.3903
  149SOL     OW  445   0.645   1.469   1.923 -0.1533 -0.1611 -0.0006
  149SOL    HW1  446   0.552   1.437   1.952 -0.8626 -1.1644 -2.6854
  149SOL    HW2  447   0.702   1.406   1.866  0.2034  0.3394 -0.6940
  150SOL     OW  448   3.022   1.227   0.989 -0.4761  0.0304  0.5007
  150SOL    HW1  449   3.110   1.231   1.044  0.1859  4.6200 -2.1341
  150SOL    HW2  450   2.969   1.136   0.993  0.5740 -1.4271 -1.4581
  151SOL     OW  451   0.170   0.709   2.100  0.7502  0.5715 -0.5013
  151SOL    HW1  452   0.176   0.788   2.035  2.4420 -0.2160 -2.5537
  151SOL    HW2  453   0.243   0.637   2.081 -1.6344 -1.7328  0.2095
  152SOL     OW  454   1.460   1.783   1.161  0.4358 -0.1144 -0.0389
  152SOL    HW1  455   1.493   1.881   1.191 -1.4785  1.4190  0.6373
  152SOL    HW2  456   1.359   1.781   1.140  1.8166 -0.2172 -1.6263
  153SOL     OW  457   0.160   1.552   0.223  0.3480 -0.1767  0.1649
  153SOL    HW1  458   0.107   1.466   0.205 -0.2935 -1.5436 -0.2671
  153SOL    HW2  459   0.137   1.598   0.311  2.2105 -1.3061  0.7779
  154SOL     OW  460   2.362   1.910   2.841  0.0769  0.2553 -0.5640
  154SOL    HW1  461   2.402   1.812   2.846  2.9426 -2.0590 -1.9702
  154SOL    HW2  462   2.406   1.966   2.763 -0.8503  0.3634  0.2957
  155SOL     OW  463   2.524   1.140   0.402  0.0444  0.5246  0.4700
  155SOL    HW1  464   2.570   1.165   0.313 -0.8412  0.1644 -1.1970
  155SOL    HW2  465   2.436   1.080   0.389 -0.7520  0.7662 -0.1916
  156SOL     OW  466   2.470   0.841   0.745  0.1145 -0.5363 -0.5104
  156SOL    HW1  467   2.373   0.883   0.753  0.3757  1.9467 -2.2997
  156SOL    HW2  468   2.530   0.892   0.680  0.7217  0.8570  2.5486
  157SOL     OW  469   1.228   3.002   2.988 -0.1155 -0.1344  0.3398
  157SOL    HW1  470   1.291   2.956   2.927  0.5936  0.2602  0.6916
  157SOL    HW2  471   1.260   3.103   3.007 -0.6432  1.6337 -1.5397
  158SOL     OW  472   0.980   1.864   1.866  0.0575 -0.3329 -0.3923
  158SOL    HW1  473   1.006   1.959   1.836  0.0595 -0.5347 -2.9428
  158SOL    HW2  474   0.903   1.859   1.935 -0.6783 -1.2875 -2.0119
  159SOL     OW  475   0.885   0.449   1.196 -0.0237 -0.3484 -0.0502
  159SOL    HW1  476   0.830   0.528   1.232 -4.5171  1.5785  1.7908
  159SOL    HW2  477   0.819   0.384   1.143 -0.8937 -0.6915 -0.0510
  160SOL     OW  478   1.366   2.455   1.569 -0.3463 -0.3371 -0.3368
  160SOL    HW1  479   1.349   2.369   1.621  1.2739 -0.0524  0.8561
  160SOL    HW2  480   1.463   2.483   1.584  2.0396 -0.5841  1.3433
  161SOL     OW  481   3.082   2.857   0.458 -0.5381 -1.3731  0.0962
  161SOL    HW1  482   3.063   2.781   0.525  0.9821  0.8005 -0.7182
  161SOL    HW2  483   3.027   2.855   0.373  1.9796 -4.3992  3.3278
  162SOL     OW  484   2.583   1.831   0.490 -0.3198 -0.3150 -0.3055
  162SOL    HW1  485   2.567   1.816   0.386 -1.5879  1.9726 -1.1201
  162SOL    HW2  486   2.642   1.758   0.540  1.4762  0.4091  2.4264
  163SOL     OW  487   1.970   2.715   0.723 -0.3689 -0.2243  0.1876
  163SOL    HW1  488   1.936   2.724   0.624  2.2540  0.1879 -0.7582
  163SOL    HW2  489   2.035   2.636   0.735  1.1235 -0.2595 -2.1951
  164SOL     OW  490   3.070   0.205   1.278  0.5512  0.9575  0.2321
  164SOL    HW1  491   3.067   0.278   1.212  0.1518  1.3846 -0.3529
  164SOL    HW2  492   3.145   0.206   1.346 -0.8262  0.0341  1.6908
  165SOL     OW  493   1.027   1.401   0.747  0.3376  0.0474 -0.4895
  165SOL    HW1  494   1.033   1.449   0.838  3.1379 -0.9837 -1.2380
  165SOL    HW2  495   1.023   1.475   0.672 -2.5654  3.6015 -0.0229
  166SOL     OW  496   1.599   1.007   1.803  0.0177 -0.4392 -0.5356
  166SOL    HW1  497   1.501   1.027   1.838 -0.3664  3.4110  0.7496
  166SOL    HW2  498   1.662   1.091   1.816  0.1273  1.9256  0.3430
  167SOL     OW  499   0.742   1.974   1.458 -0.4340 -0.0294 -0.4477
  167SOL    HW1  500   0.768   2.041   1.530  0.0932 -1.9540  0.3022
  167SOL    HW2  501   0.716   1.885   1.496  0.3941 -1.2835 -1.1362
  168SOL     OW  502   1.608   2.345   0.175 -0.2825  0.0040  0.4592
  168SOL    HW1  503   1.679   2.345   0.101  1.4892 -0.9339  1.6663
  168SOL    HW2  504   1.633   2.303   0.268  1.0863 -1.8910  0.2764
  169SOL     OW  505   0.185   2.566   2.239 -0.3211 -0.1266 -0.0580
  169SOL    HW1  506   0.228   2.497   2.178  0.3173 -0.5157  3.2874
  169SOL    HW2  507   0.192   2.548   2.343  1.7133 -0.0374  0.0314
  170SOL     OW  508   1.108   0.246   2.008 -0.1810  0.5653  0.2929
  170SOL    HW1  509   1.184   0.225   2.077 -1.5910  1.1478  0.4346
  170SOL    HW2  510   1.135   0.202   1.912 -0.5167 -2.4460 -1.7705
  171SOL     OW  511   0.175   0.796   2.369  0.0780  0.3923  0.3668
  171SOL    HW1  512   0.093   0.841   2.419  1.6165 -1.2630  0.1329
  171SOL    HW2  513   0.153   0.773   2.266  0.7983 -0.6159 -0.6539
  172SOL     OW  514   0.983   0.982   2.888  1.0340  0.2323  0.3740
  172SOL    HW1  515   0.947   1.059   2.946 -0.0544  1.1569 -1.5204
  172SOL    HW2  516   0.917   0.957   2.816  0.1362 -2.6532  4.1162
  173SOL     OW  517   0.551   2.517   0.116 -0.6845 -0.5989 -0.1235
  173SOL    HW1  518   0.530   2.435   0.055  2.9666 -3.5935  0.7508
  173SOL    HW2  519   0.464   2.566   0.140 -1.0825  2.5000  0.6083
  174SOL     OW  520   1.516   2.809   1.024 -0.0787  0.7594  0.4897
  174SOL    HW1  521   1.563   2.879   0.963 -3.2093 -1.0116  0.7402
  174SOL    HW2  522   1.479   2.728   0.972 -2.9841  0.1416 -3.3951
  175SOL     OW  523   0.475   3.051   1.715 -0.4661 -0.5575 -0.4360
  175SOL    HW1  524   0.525   3.013   1.797 -1.4941 -1.5390 -0.1434
  175SOL    HW2  525   0.450   3.148   1.731 -0.2806  0.0431  0.3813
  176SOL     OW  526   2.541   0.380   0.018  0.5213  0.2458 -0.1040
  176SOL    HW1  527   2.572   0.463   0.074 -2.0304 -1.4127 -1.3983
  176SOL    HW2  528   2.463   0.327   0.068 -0.2491 -2.0968 -1.2341
  177SOL     OW  529   0.300   0.308   0.937  0.0876 -0.3998  0.0214
  177SOL    HW1  530   0.276   0.208   0.921  0.4108 -1.0264  2.6860
  177SOL    HW2  531   0.227   0.365   0.984 -1.9358 -3.4691  1.7213
  178SOL     OW  532   0.037   2.732   2.601 -0.2921 -0.3679  0.2865
  178SOL    HW1  533  -0.003   2.643   2.573  0.0160  1.4405  2.3553
  178SOL    HW2  534   0.089   2.728   2.692  0.5946 -1.4775 -0.3655
  179SOL     OW  535   3.022   1.573   1.158  0.3445 -0.3976 -0.1300
  179SOL    HW1  536   3.052   1.544   1.065  1.7284 -0.8185 -0.8898
  179SOL    HW2  537   3.051   1.503   1.230  1.9938  1.2639 -0.0901
  180SOL     OW  538   0.190   1.301   1.802  0.4530  0.0537 -0.1923
  180SOL    HW1  539   0.272   1.249   1.837  0.3470 -1.9180 -1.9889
  180SOL    HW2  540   0.177   1.396   1.853 -1.9912 -0.2026  1.2201
  181SOL     OW  541   3.061   1.918   2.487 -0.8744  0.0173  0.7175
  181SOL    HW1  542   3.104   2.012   2.458  2.1972  2.0589  0.1708
  181SOL    HW2  543   2.966   1.912   2.445  1.0077  0.7006  0.3005
  182SOL     OW  544   2.342   1.220   1.224 -0.4418  0.2515  0.0310
  182SOL    HW1  545   2.291   1.157   1.156  0.6916 -0.9085  3.0265
  182SOL    HW2  546   2.337   1.318   1.209  0.7452 -1.9919  0.7241
  183SOL     OW  547   1.417   2.255   2.540  0.1710 -0.0356  0.0317
  183SOL    HW1  548   1.344   2.206   2.588  2.8619 -0.5772 -0.1212
  183SOL    HW2  549   1.477   2.180   2.493  0.0627 -2.3868 -0.9484
  184SOL     OW  550   2.047   0.949   0.731  0.8363 -0.1694  0.1476
  184SOL    HW1  551   1.956   0.974   0.679 -2.0096 -1.2565 -1.0497
  184SOL    HW2  552   2.071   0.846   0.732 -0.2882 -1.0869 -2.0807
  185SOL     OW  553   1.574   2.735   1.957 -0.0103 -0.0529  0.4593
  185SOL    HW1  554   1.499   2.805   1.950  0.0917 -1.5100  0.9973
  185SOL    HW2  555   1.618   2.735   2.053  0.3077  0.0499 -0.6529
  186SOL     OW  556   0.104   2.210   1.635 -0.1342 -0.2976 -0.5106
  186SOL    HW1  557   0.078   2.275   1.719 -1.5269  0.9525  1.1034
  186SOL    HW2  558   0.188   2.156   1.661  0.4856 -0.2651 -0.8495
  187SOL     OW  559   1.388   0.642   1.654  0.1012 -0.6104  0.1318
  187SOL    HW1  560   1.475   0.705   1.638 -0.2450 -2.5196  0.8958
  187SOL    HW2  561   1.387   0.583   1.741  0.8475  1.9864  0.5269
  188SOL     OW  562   2.834   2.760   1.467  0.6358 -0.1735  0.7925
  188SOL    HW1  563   2.798   2.862   1.473  1.7770  3.0355 -0.1686
  188SOL    HW2  564   2.782   2.700   1.402  2.1243 -0.6205  1.3407
  189SOL     OW  565   0.876   1.217   1.432 -0.6435  0.0880 -0.5695
  189SOL    HW1  566   0.945   1.249   1.506 -0.3154  1.6134  0.9308
  189SOL    HW2  567   0.838   1.287   1.364 -1.9686  2.0051  2.6437
  190SOL     OW  568   1.472   1.917   1.596  0.3107 -0.0768 -0.8776
  190SOL    HW1  569   1.416   1.828   1.617 -1.1659 -0.4168  0.7528
  190SOL    HW2  570   1.480   1.971   1.682 -0.4261 -2.5257  2.5378
  191SOL     OW  571   0.922   0.760   1.495  0.6851  0.2740  0.0143
  191SOL    HW1  572   0.984   0.723   1.568 -1.9489 -0.0939  1.6641
  191SOL    HW2  573   0.968   0.823   1.431 -0.9912  0.0881 -0.6897
  192SOL     OW  574   1.837   2.348   1.117 -0.1006  0.6246  0.0724
  192SOL    HW1  575   1.753   2.346   1.054 -0.1298  0.1118 -0.4738
  192SOL    HW2  576   1.920   2.331   1.060  0.4371  1.1703 -1.3376
  193SOL     OW  577   0.506   0.505   0.417  0.4721 -0.6788 -0.5879
  193SOL    HW1  578   0.444   0.418   0.421 -0.8705 -0.2910 -0.7678
  193SOL    HW2  579   0.571   0.509   0.341 -1.9374  0.0302  1.4417
  194SOL     OW  580   0.348   0.911   1.320 -0.2731  0.0662  0.1075
  194SOL    HW1  581   0.297   0.824   1.326 -0.9443  1.0703  0.4211
  194SOL    HW2  582   0.323   0.968   1.237  0.0166  0.5366  1.9827
  195SOL     OW  583   1.009   2.906   0.544 -0.0191 -0.1526 -0.2525
  195SOL    HW1  584   0.994   2.812   0.498 -1.5543 -0.9518 -1.3762
  195SOL    HW2  585   1.104   2.951   0.543  2.3914  2.0058 -0.7725
  196SOL     OW  586   0.196   1.369   1.363 -0.3094 -0.4715 -0.2575
  196SOL    HW1  587   0.205   1.471   1.383  3.5714 -0.1927 -0.1020
  196SOL    HW2  588   0.206   1.314   1.452  0.3878  0.4127  0.0687
  197SOL     OW  589   0.814   2.034   0.246 -0.2190 -0.5326  0.4960
  197SOL    HW1  590   0.858   1.992   0.329  1.5104  2.7909 -2.0507
  197SOL    HW2  591   0.797   1.973   0.166  1.1480 -1.3073  0.5691
  198SOL     OW  592   0.335   1.266   0.354  0.6381 -0.3245 -0.2891
  198SOL    HW1  593   0.243   1.286   0.305  1.7140 -0.7491  0.6262
  198SOL    HW2  594   0.374   1.343   0.407 -1.0833 -3.1584 -0.9489
  199SOL     OW  595   2.288   0.441   2.586  0.3258  0.5608  0.0894
  199SOL    HW1  596   2.223   0.400   2.654 -2.2264 -1.3930  1.3008
  199SOL    HW2  597   2.381   0.397   2.587 -0.6765 -0.7894  1.8630
  200SOL     OW  598   3.080   2.963   0.738  0.1121  0.7302 -0.6252
  200SOL    HW1  599   3.082   3.060   0.767  1.8403 -1.7213  3.0535
  200SOL    HW2  600   3.023   2.951   0.655 -1.6337  2.3758  2.4990
  201SOL     OW  601   1.017   0.687   0.527 -0.0720  0.2525 -0.2694
  201SOL    HW1  602   1.032   0.752   0.603 -3.5263 -0.0970  0.9183
  201SOL    HW2  603   0.928   0.625   0.533 -0.8814 -1.6840  1.7605
  202SOL     OW  604   0.414   1.150   1.919  0.7237  0.4709 -0.7600
  202SOL    HW1  605   0.505   1.114   1.880 -1.0441  0.8603  0.9469
  202SOL    HW2  606   0.410   1.234   1.982  0.1006  0.5442 -1.7617
  203SOL     OW  607   0.624   0.189   1.494 -0.2567 -0.4637  0.6346
  203SOL    HW1  608   0.648   0.133   1.412  1.3827  1.3201  1.0756
  203SOL    HW2  609   0.659   0.155   1.585 -2.1212  1.8161  1.4123
  204SOL     OW  610   2.105   1.812   2.927  0.0706 -0.0270  0.4985
  204SOL    HW1  611   2.106   1.711   2.910 -1.2976  0.1127 -0.6174
  204SOL    HW2  612   2.199   1.847   2.895  3.8742  2.7411  0.2035
  205SOL     OW  613   1.845   1.824   3.044 -0.1034  0.3162 -0.0559
  205SOL    HW1  614   1.936   1.803   3.000 -0.8450 -0.4512  0.5980
  205SOL    HW2  615   1.809   1.917   3.015 -2.3008 -0.1330 -1.1140
  206SOL     OW  616   2.414   2.811   0.355 -0.2933  0.1882  0.1284
  206SOL    HW1  617   2.466   2.724   0.380  0.6238 -0.5205  1.2746
  206SOL    HW2  618   2.481   2.887   0.323  1.0995  1.1850 -0.1837
  207SOL     OW  619   0.684   1.800   2.947  0.1035 -0.7355  0.2673
  207SOL    HW1  620   0.776   1.763   2.917  0.7852  0.7392 -1.2235
  207SOL    HW2  621   0.627   1.729   2.996  0.8936 -2.9248  1.1097
  208SOL     OW  622   1.166   1.639   1.355  0.1202  0.5595 -1.0411
  208SOL    HW1  623   1.168   1.683   1.261  0.8951  1.2148  0.0743
  208SOL    HW2  624   1.126   1.705   1.425 -0.9733  1.3583 -0.7239
  209SOL     OW  625   0.254   0.955   3.078  0.4950  0.2285  0.4987
  209SOL    HW1  626   0.221   0.878   3.013 -0.2406 -0.1727  0.8915
  209SOL    HW2  627   0.262   0.921   3.178 -3.2505  1.4693 -0.5385
  210SOL     OW  628   1.706   0.503   1.183 -0.4506 -0.2893  0.5927
  210SOL    HW1  629   1.664   0.600   1.174  0.5645  3.6406 -0.7851
  210SOL    HW2  630   1.809   0.491   1.175 -1.3980 -0.1971 -0.9806
  211SOL     OW  631   2.090   1.011   1.597  0.0137 -0.5315 -0.0575
  211SOL    HW1  632   2.133   0.945   1.667 -2.2677  0.8642 -0.5929
  211SOL    HW2  633   2.167   1.071   1.553  2.8969 -3.4039  1.3727
  212SOL     OW  634   0.001   0.983   1.515 -0.2804  0.3402  0.1308
  212SOL    HW1  635   0.057   1.067   1.535 -2.7444  2.2140  0.0730
  212SOL    HW2  636   0.023   0.902   1.577  2.4073 -0.2343 -0.4474
  213SOL     OW  637   2.722   0.161   0.377 -0.5467 -0.4104 -0.5415
  213SOL    HW1  638   2.783   0.112   0.317 -3.1042  1.2981  3.8389
  213SOL    HW2  639   2.625   0.119   0.369 -0.7566  0.8484 -1.3371
  214SOL     OW  640   2.197   0.321   2.324 -0.2301 -0.0344  0.3675
  214SOL    HW1  641   2.221   0.396   2.395 -2.0354 -0.8479  2.3222
  214SOL    HW2  642   2.168   0.230   2.365  4.5532 -0.0736  0.0968
  215SOL     OW  643   1.627   2.291   2.090  0.0648 -0.7011  0.1975
  215SOL    HW1  644   1.731   2.297   2.086 -0.1001 -0.7670  0.1927
  215SOL    HW2  645   1.583   2.380   2.130 -0.0307 -0.5514 -0.7249
  216SOL     OW  646   2.228   0.636   0.671  0.6165 -0.2488  0.2979
  216SOL    HW1  647   2.174   0.547   0.654 -3.1910 -2.1792 -2.3068
  216SOL    HW2  648   2.228   0.707   0.595  2.8470  1.8948  1.1386
  217SOL     OW  649   0.778   2.792   2.444  0.4900  0.3409 -0.0444
  217SOL    HW1  650   0.764   2.699   2.495 -2.7221 -0.8589  0.6941
  217SOL    HW2  651   0.733   2.787   2.351  1.2582  1.9544  0.5440
  218SOL     OW  652   1.897   1.446   0.041  0.4918  0.4932  0.3978
  218SOL    HW1  653   1.797   1.454   0.020  1.2902 -1.1068 -1.9216
  218SOL    HW2  654   1.904   1.387   0.123 -1.0734 -1.1289  2.0908
  219SOL     OW  655   2.449   1.299   2.511 -0.1055 -0.2234 -0.4822
  219SOL    HW1  656   2.489   1.281   2.415  2.0144  1.3936  0.7525
  219SOL    HW2  657   2.449   1.216   2.575  0.1171  1.1705  1.3635
  220SOL     OW  658   1.453   1.028   1.323 -0.3152 -0.4702  0.1892
  220SOL    HW1  659   1.554   1.037   1.336  0.0546 -4.3507  0.1965
  220SOL    HW2  660   1.415   1.078   1.241  0.0747  0.2548 -0.2548
  221SOL     OW  661   1.279   0.994   2.176  0.0701  0.2527  0.1236
  221SOL    HW1  662   1.242   0.975   2.082  0.4656  1.5517 -0.6373
  221SOL    HW2  663   1.379   1.036   2.178  1.2497 -1.5357  0.9573
  222SOL     OW  664   1.133   0.101   1.198  0.2262  0.1731  0.1581
  222SOL    HW1  665   1.077   0.145   1.271 -2.0490 -0.9468 -1.0208
  222SOL    HW2  666   1.167   0.175   1.133  0.5701  2.3457  0.7262
  223SOL     OW  667   2.706   0.933   2.138  0.1353  0.4249  0.1835
  223SOL    HW1  668   2.659   1.007   2.194  0.0777  1.7240 -0.8337
  223SOL    HW2  669   2.793   0.895   2.183  0.1594 -0.8906 -0.6971
  224SOL     OW  670   1.501   1.072   2.731 -0.1735 -0.4069 -0.3432
  224SOL    HW1  671   1.558   1.001   2.678 -0.2600  1.2129  1.5936
  224SOL    HW2  672   1.452   1.135   2.660 -3.6637  1.7535 -3.2433
  225SOL     OW  673   2.973   2.716   2.883 -0.4135 -0.6268  0.0715
  225SOL    HW1  674   2.915   2.706   2.798  1.3394 -1.0809  3.9322
  225SOL    HW2  675   3.074   2.728   2.862 -0.1360  0.8951  0.3529
  226SOL     OW  676   2.442   1.628   2.891 -0.6459  0.2064 -0.4722
  226SOL    HW1  677   2.424   1.615   2.795 -3.3125  1.3288  1.0845
  226SOL    HW2  678   2.386   1.558   2.947 -0.7603 -0.0592 -1.6531
  227SOL     OW  679   0.828   0.189   3.088  0.0088  0.3799 -0.4662
  227SOL    HW1  680   0.866   0.275   3.052 -2.1251 -0.5828 -0.2856
  227SOL    HW2  681   0.779   0.132   3.021  2.1518  1.2439 -0.7710
  228SOL     OW  682   2.446   0.572   2.869  0.6320 -0.0527 -0.5580
  228SOL    HW1  683   2.452   0.620   2.783 -0.5635 -2.0211  3.2094
  228SOL    HW2  684   2.512   0.491   2.880  0.4380  1.3043 -0.9955
  229SOL     OW  685   0.564   0.493   1.815  0.4098 -0.5602 -0.3178
  229SOL    HW1  686   0.581   0.397   1.855 -0.6533 -1.0464 -0.6544
  229SOL    HW2  687   0.617   0.524   1.733  0.2561 -1.3243 -0.7336
  230SOL     OW  688   1.928   1.161   2.071 -0.2370  0.0831 -0.7773
  230SOL    HW1  689   1.985   1.216   2.006 -0.8198  2.8678  1.0556
  230SOL    HW2  690   1.835   1.205   2.093 -0.3075 -0.6417  1.8725
  231SOL     OW  691   0.629   1.044   0.032 -0.3537  0.0227 -0.5832
  231SOL    HW1  692   0.724   1.090   0.030 -2.6156 -0.9422  0.6752
  231SOL    HW2  693   0.548   1.111   0.029 -1.4274  2.1227 -1.4652
  232SOL     OW  694   2.446   3.077   2.870 -0.3765 -0.2798 -0.2260
  232SOL    HW1  695   2.488   2.987   2.897  0.4208 -0.6337 -1.0420
  232SOL    HW2  696   2.488   3.115   2.783  2.8856 -0.2078  1.4832
  233SOL     OW  697   1.763   1.208   1.140  0.7646  0.1487  0.2849
  233SOL    HW1  698   1.797   1.156   1.057  2.1133  0.4232 -0.5417
  233SOL    HW2  699   1.740   1.144   1.222  2.2869 -1.1459 -0.1896
  234SOL     OW  700   1.587   2.479   1.837  0.5089 -0.6723 -0.1272
  234SOL    HW1  701   1.563   2.573   1.878 -0.6108  0.7125 -0.2965
  234SOL    HW2  702   1.561   2.405   1.905 -2.7208  1.5575 -1.3542
  235SOL     OW  703   3.092   3.039   2.801  0.2235 -0.2731 -0.0515
  235SOL    HW1  704   3.036   3.021   2.719  2.7855  0.4700  0.2957
  235SOL    HW2  705   3.038   3.087   2.875  0.5816  1.5594  1.8420
  236SOL     OW  706   2.874   0.743   0.053  0.1770  0.2597 -0.0606
  236SOL    HW1  707   2.947   0.775   0.116 -0.5704  0.1089 -1.0788
  236SOL    HW2  708   2.892   0.643   0.023  0.9774 -2.7275 -0.5292
  237SOL     OW  709   1.560   1.630   0.967 -0.2729  0.0155  0.1307
  237SOL    HW1  710   1.667   1.642   0.956  0.2159 -1.5174 -2.9516
  237SOL    HW2  711   1.528   1.679   1.052  0.6202  2.3722  0.5919
  238SOL     OW  712   1.821   1.249   0.785  0.8195  0.3608 -0.5788
  238SOL    HW1  713   1.847   1.297   0.874  2.4332  0.0975  1.3109
  238SOL    HW2  714   1.744   1.305   0.744  2.7004 -0.5496  1.6296
  239SOL     OW  715   2.112   0.295   2.747  0.0310 -0.6614  0.0473
  239SOL    HW1  716   2.125   0.241   2.833  0.7323  0.7758 -3.0568
  239SOL    HW2  717   2.022   0.349   2.744  0.8832  1.3695 -0.6391
  240SOL     OW  718   0.935   0.685   0.254  0.0753  0.1067 -0.4199
  240SOL    HW1  719   0.972   0.589   0.249  0.1359 -1.2750 -0.8591
  240SOL    HW2  720   0.931   0.719   0.350  0.2289  2.0695 -0.2272
  241SOL     OW  721   0.609   0.042   0.393 -0.2647  0.1721 -0.4180
  241SOL    HW1  722   0.607   0.114   0.319  0.3400  1.0038  0.9299
  241SOL    HW2  723   0.597  -0.057   0.358  1.9385  2.3620 -0.1181
  242SOL     OW  724   0.595   2.478   1.151 -0.0381  0.1995  0.0547
  242SOL    HW1  725   0.602   2.491   1.255 -2.5147  1.6390  0.6171
  242SOL    HW2  726   0.592   2.570   1.104  1.2321  0.5566  1.4853
  243SOL     OW  727   1.073   0.601   2.486 -0.3113  0.1558 -0.0670
  243SOL    HW1  728   0.990   0.635   2.429 -0.8258  2.0036  0.8224
  243SOL    HW2  729   1.033   0.544   2.563 -0.9726 -0.5994  0.7890
  244SOL     OW  730   2.844   1.863   2.348 -0.4752 -0.1754  0.1662
  244SOL    HW1  731   2.827   1.874   2.244 -2.7126  0.8408  0.4112
  244SOL    HW2  732   2.754   1.826   2.400 -0.7299 -0.9235  1.6151
  245SOL     OW  733   2.211   0.876   2.137 -0.8636  0.3369 -0.1965
  245SOL    HW1  734   2.292   0.879   2.201  0.7008  0.6147  2.1263
  245SOL    HW2  735   2.131   0.946   2.150 -0.8523  1.9143 -1.0613
  246SOL     OW  736   0.230   2.913   1.697  0.2973 -0.0629 -0.3151
  246SOL    HW1  737   0.147   2.938   1.632 -0.3081 -0.7640  1.3243
  246SOL    HW2  738   0.316   2.976   1.688  0.8968  1.9538 -1.2582
  247SOL     OW  739   2.204   0.636   2.998 -0.1920  0.4345 -0.4449
  247SOL    HW1  740   2.283   0.622   2.933 -0.9181 -2.1818  2.3797
  247SOL    HW2  741   2.154   0.729   2.994 -0.8652 -0.8235  0.2691
  248SOL     OW  742   2.182   1.831   1.582 -0.1121 -0.0951 -0.2127
  248SOL    HW1  743   2.250   1.772   1.631  1.3585 -0.2744  0.6081
  248SOL    HW2  744   2.089   1.839   1.624  2.4860  2.2434 -2.0223
  249SOL     OW  745   1.898   1.969   1.922  0.4295 -0.1389 -0.0762
  249SOL    HW1  746   1.888   1.909   1.836 -1.5442 -2.3938  1.2749
  249SOL    HW2  747   1.990   2.012   1.930 -1.9026  1.6925 -2.2013
  250SOL     OW  748   1.079   0.684   1.871 -0.1287 -0.1567  0.0949
  250SOL    HW1  749   1.112   0.625   1.954  0.9064 -0.3550  1.5937
  250SOL    HW2  750   1.102   0.634   1.781  1.1625 -0.0482  1.3682
  251SOL     OW  751   0.012   1.645   2.545 -0.7426  0.5206 -0.3147
  251SOL    HW1  752  -0.012   1.738   2.507 -0.1345  0.2432  2.9947
  251SOL    HW2  753  -0.073   1.583   2.562 -2.7797  3.6129  0.0777
  252SOL     OW  754   1.614   0.803   1.619  0.0788 -0.2145  1.1875
  252SOL    HW1  755   1.691   0.797   1.551 -2.4926  0.9058  3.4536
  252SOL    HW2  756   1.614   0.889   1.677 -0.9132 -0.4388 -1.5989
  253SOL     OW  757   0.986   1.578   0.530  0.0655  0.0575 -0.8198
  253SOL    HW1  758   1.006   1.512   0.453  0.4999 -2.0951 -1.9617
  253SOL    HW2  759   0.885   1.597   0.544  2.3422 -0.3610 -0.5000
  254SOL     OW  760   2.034   2.171   1.623 -0.0089 -0.0860  0.0243
  254SOL    HW1  761   1.993   2.112   1.545  2.9946 -1.2596  0.2932
  254SOL    HW2  762   1.963   2.212   1.685 -0.4310 -0.8196  0.6073
  255SOL     OW  763   0.139   1.149   2.925 -0.2202  0.1681 -0.1038
  255SOL    HW1  764   0.191   1.237   2.911  3.0658 -1.2203 -0.3326
  255SOL    HW2  765   0.200   1.083   2.975 -1.3026  3.2477 -1.2746
  256SOL     OW  766   2.865   1.422   1.785  0.3342  0.3747  0.3742
  256SOL    HW1  767   2.782   1.481   1.773  2.6193  1.1914 -0.6811
  256SOL    HW2  768   2.850   1.322   1.748  0.6821 -1.0068  2.0635
  257SOL     OW  769   0.766   0.139   1.707  0.4389 -0.3015 -0.2450
  257SOL    HW1  770   0.846   0.209   1.700  1.3071  0.8477  0.5002
  257SOL    HW2  771   0.807   0.054   1.747  0.1305  1.1830 -3.9387
  258SOL     OW  772   3.013   1.223   0.431  0.1119  0.0757  0.0961
  258SOL    HW1  773   2.911   1.244   0.444 -1.3254 -1.4922 -1.9578
  258SOL    HW2  774   3.055   1.202   0.525 -0.7684 -0.3082 -1.7374
  259SOL     OW  775   0.461   2.917   3.050  0.0304 -0.2360  0.1525
  259SOL    HW1  776   0.372   2.876   3.077 -1.9259 -0.9981  1.4757
  259SOL    HW2  777   0.510   2.859   2.976  0.1535  0.1955 -1.3736
  260SOL     OW  778   2.740   0.699   2.801  0.0548 -0.5788  0.1796
  260SOL    HW1  779   2.652   0.753   2.778 -0.9804  1.2200  1.1062
  260SOL    HW2  780   2.735   0.626   2.873  4.4459 -3.4872 -0.8456
  261SOL     OW  781   2.678   1.359   1.305  0.0131 -0.6380  0.3752
  261SOL    HW1  782   2.641   1.301   1.225 -1.0071  0.0044 -1.8762
  261SOL    HW2  783   2.781   1.347   1.304 -0.5373  1.1949 -0.4782
  262SOL     OW  784   1.391   2.963   1.961  0.0958 -0.0169 -0.6947
  262SOL    HW1  785   1.423   3.054   1.920 -0.0556  0.1031  1.3315
  262SOL    HW2  786   1.287   2.958   1.945 -0.3409 -2.0266 -1.3787
  263SOL     OW  787   0.863   0.663   2.327  0.5124  0.0026 -0.9108
  263SOL    HW1  788   0.800   0.582   2.312 -0.9658 -0.5424  1.1426
  263SOL    HW2  789   0.891   0.712   2.237  0.8948  4.7695  0.2094
  264SOL     OW  790   2.232   0.804   0.465 -0.4432 -0.0351 -0.4269
  264SOL    HW1  791   2.225   0.752   0.376 -1.5415 -1.8526 -0.2253
  264SOL    HW2  792   2.328   0.833   0.482 -0.4449  0.0157  2.4008
  265SOL     OW  793   0.939   2.456   2.617 -0.2412  0.1158  1.0671
  265SOL    HW1  794   1.009   2.496   2.683 -2.9260 -1.0161  1.8812
  265SOL    HW2  795   0.928   2.359   2.629 -0.0656  3.3156 -2.8953
  266SOL     OW  796   1.337   1.799   3.027 -0.0978  0.8546 -0.4651
  266SOL    HW1  797   1.361   1.832   3.122  0.6312  0.5166 -1.7699
  266SOL    HW2  798   1.419   1.751   2.979  1.7235  0.3704  1.5574
  267SOL     OW  799   1.034   0.026   2.351 -0.2205 -0.0463  0.0966
  267SOL    HW1  800   0.993  -0.051   2.297 -2.5539 -1.2217  2.4037
  267SOL    HW2  801   0.980   0.115   2.344  0.5118  3.3571 -0.0709
  268SOL     OW  802   0.598   1.151   1.053 -0.1875 -0.1651  0.2697
  268SOL    HW1  803   0.650   1.180   1.136 -0.4926 -1.5481 -2.2693
  268SOL    HW2  804   0.564   1.236   0.996  0.3395  4.5832 -0.1963
  269SOL     OW  805   2.286   2.547   1.615 -0.1780 -0.3519  0.2720
  269SOL    HW1  806   2.341   2.468   1.657  0.7629  0.7685 -2.3407
  269SOL    HW2  807   2.230   2.587   1.693  0.1641 -0.6505 -0.7996
  270SOL     OW  808   0.152   2.973   1.963  0.0448 -0.5813 -0.0042
  270SOL    HW1  809   0.183   2.942   1.868 -0.7697  0.2563  0.7889
  270SOL    HW2  810   0.073   2.919   2.001 -0.6878  0.9985 -1.1002
  271SOL     OW  811   0.415   1.391   1.192 -0.2489 -0.4795 -0.0005
  271SOL    HW1  812   0.371   1.394   1.096  0.6202  0.4439  1.3912
  271SOL    HW2  813   0.343   1.366   1.267 -2.5986 -1.1286 -1.9315
  272SOL     OW  814   2.033   2.926   1.929 -0.3223  0.3091  0.5081
  272SOL    HW1  815   1.949   2.894   1.874  1.8883 -0.0874 -1.3936
  272SOL    HW2  816   2.104   2.976   1.874  1.3414  1.0917 -3.2124
  273SOL     OW  817   1.491   1.457   2.741 -0.1237  0.1822 -0.0439
  273SOL    HW1  818   1.391   1.446   2.771 -0.2528  0.9197  2.5017
  273SOL    HW2  819   1.556   1.443   2.817  1.1978 -0.5036 -0.3797
  274SOL     OW  820   1.195   0.499   2.068 -0.1097 -0.0246  0.2934
  274SOL    HW1  821   1.161   0.410   2.024  0.0469 -0.2982  0.7689
  274SOL    HW2  822   1.195   0.505   2.171 -2.0417  1.3909  0.2775
  275SOL     OW  823   0.618   2.096   1.886 -0.0342  0.2832 -0.3601
  275SOL    HW1  824   0.606   2.193   1.919  1.8921  1.9991  0.5926
  275SOL    HW2  825   0.531   2.047   1.887 -0.4473  1.2914  1.8114
  276SOL     OW  826   2.216   1.055   2.761 -0.0906  0.5648  0.4605
  276SOL    HW1  827   2.150   1.129   2.738  0.5200 -0.1685  0.6361
  276SOL    HW2  828   2.179   0.988   2.836  1.4627 -0.8703  1.7697
  277SOL     OW  829   3.077   0.781   0.243 -0.4259 -0.6655  0.2445
  277SOL    HW1  830   3.169   0.812   0.199 -0.0853  2.0601 -0.2657
  277SOL    HW2  831   3.091   0.695   0.304  1.6307 -0.1178  1.3146
  278SOL     OW  832   0.239   0.300   2.952 -0.6617  0.1312 -0.6706
  278SOL    HW1  833   0.313   0.221   2.952 -0.9137 -2.8028 -1.7356
  278SOL    HW2  834   0.275   0.380   3.006  0.8271 -1.9417 -1.6175
  279SOL     OW  835   0.228   0.031   0.893  0.5808 -0.3832 -0.2348
  279SOL    HW1  836   0.231  -0.011   0.990  0.5021 -1.6178 -0.7340
  279SOL    HW2  837   0.253  -0.037   0.820  0.1514  0.0684 -2.3734
  280SOL     OW  838   1.596   2.938   2.424 -0.0066 -0.3944 -0.6262
  280SOL    HW1  839   1.631   3.004   2.502  2.8222  0.3261  0.4204
  280SOL    HW2  840   1.543   2.993   2.351 -0.6408 -2.7711 -1.4482
  281SOL     OW  841   0.590   0.959   2.292  0.3388  0.1767  0.2849
  281SOL    HW1  842   0.572   0.874   2.230  0.2738 -0.1953 -1.1937
  281SOL    HW2  843   0.530   0.956   2.376 -1.5213 -0.5682 -1.1145
  282SOL     OW  844   1.774   2.494   0.505  0.2641 -0.5391 -0.3069
  282SOL    HW1  845   1.719   2.431   0.447  0.3685  0.8231  2.4031
  282SOL    HW2  846   1.751   2.593   0.497 -0.7885 -0.7629  0.9499
  283SOL     OW  847   1.229   0.939   0.808 -0.3050  0.2055  0.0076
  283SOL    HW1  848   1.221   0.891   0.902  1.8519 -2.0895 -1.2869
  283SOL    HW2  849   1.157   1.011   0.791  0.4041 -0.4392 -2.0608
  284SOL     OW  850   2.227   2.849   2.518  0.2832 -0.1605 -0.5442
  284SOL    HW1  851   2.318   2.814   2.481 -2.8070  1.5206  0.0332
  284SOL    HW2  852   2.244   2.922   2.591  1.7552  1.7274  0.6046
  285SOL     OW  853   1.353   3.035   2.581  0.5103 -0.0885  0.1425
  285SOL    HW1  854   1.379   3.025   2.479  0.7865  0.5860  2.6614
  285SOL    HW2  855   1.257   3.074   2.597  0.2525  1.8381  2.1621
  286SOL     OW  856   0.441   0.434   0.728  0.0775 -0.0337  0.4517
  286SOL    HW1  857   0.405   0.368   0.795 -0.5440  1.1289  2.0553
  286SOL    HW2  858   0.420   0.403   0.631  0.6817 -0.1831 -0.6212
  287SOL     OW  859   0.088   1.258   2.491 -0.5491 -0.2237  0.4535
  287SOL    HW1  860   0.057   1.186   2.558  1.9720 -0.2693 -1.7368
  287SOL    HW2  861   0.102   1.346   2.540  2.5154  3.0830  0.0744
  288SOL     OW  862   1.583   2.648   1.609 -0.0776  0.9459 -0.2323
  288SOL    HW1  863   1.573   2.581   1.694  0.2209  3.5653 -2.1105
  288SOL    HW2  864   1.615   2.601   1.525 -0.9784  1.1536  0.5987
  289SOL     OW  865   0.610   2.747   0.860 -0.4548 -0.0849 -0.3382
  289SOL    HW1  866   0.650   2.812   0.793  0.4262 -2.7162  1.0416
  289SOL    HW2  867   0.586   2.798   0.950  1.5980  1.9168 -0.0057
  290SOL     OW  868   2.803   1.133   1.808  0.7099  0.0735  0.4667
  290SOL    HW1  869   2.733   1.060   1.776  0.3904 -0.2667 -0.8898
  290SOL    HW2  870   2.897   1.098   1.842 -0.3929  0.4965 -1.0364
  291SOL     OW  871   1.986   0.015   0.030 -0.4170 -0.0919  0.3986
  291SOL    HW1  872   2.006   0.070   0.115 -2.5822  0.7748  0.2541
  291SOL    HW2  873   2.058   0.015  -0.049 -0.9457 -3.7886 -1.5326
  292SOL     OW  874   3.011   1.213   3.074  0.3567  0.1446 -0.1770
  292SOL    HW1  875   2.934   1.267   3.019 -0.8576  0.0661 -0.8259
  292SOL    HW2  876   3.086   1.172   3.010  0.9617  1.1435  1.2843
  293SOL     OW  877   0.556   2.173   0.285 -0.4545  0.7205  0.2958
  293SOL    HW1  878   0.519   2.259   0.319  2.5335 -2.8954  0.1248
  293SOL    HW2  879   0.659   2.158   0.299 -0.8216  1.0570 -1.1629
  294SOL     OW  880   1.813   2.289   1.775 -0.2852  0.5877  0.2695
  294SOL    HW1  881   1.860   2.327   1.861  0.8328 -0.3043  1.1121
  294SOL    HW2  882   1.767   2.362   1.726 -0.0408 -1.5117 -1.6063
  295SOL     OW  883   0.980   1.049   0.419 -0.2423  0.0500  0.1127
  295SOL    HW1  884   1.076   1.026   0.449 -0.1098 -0.2951  0.6354
  295SOL    HW2  885   0.911   1.041   0.497  1.9630 -2.2114 -4.2067
  296SOL     OW  886   1.191   2.122   2.634 -0.3527  0.5437  1.0448
  296SOL    HW1  887   1.093   2.145   2.653  2.4109 -1.5493 -0.2303
  296SOL    HW2  888   1.213   2.037   2.577 -0.2587  0.9193  1.7493
  297SOL     OW  889   1.359   0.624   1.306 -0.6493 -0.3814 -0.1690
  297SOL    HW1  890   1.396   0.543   1.366 -0.7880 -0.7593 -1.0098
  297SOL    HW2  891   1.434   0.669   1.253 -2.0845  2.1929  1.5109
  298SOL     OW  892   0.486   1.375   2.984 -0.2008  0.0996  0.3456
  298SOL    HW1  893   0.456   1.316   3.060 -0.0898  2.2608  1.1481
  298SOL    HW2  894   0.525   1.317   2.901 -0.1524 -1.5805 -2.4656
  299SOL     OW  895   0.459   0.287   1.245 -0.1100 -0.0470  0.5591
  299SOL    HW1  896   0.411   0.369   1.213  1.3076  1.3065  2.9745
  299SOL    HW2  897   0.471   0.287   1.350 -0.2144  0.2750 -0.3861
  300SOL     OW  898   1.273   1.686   2.653  0.1995  0.1146 -0.5008
  300SOL    HW1  899   1.273   1.588   2.613  0.2212 -0.7668 -1.9946
  300SOL    HW2  900   1.327   1.695   2.736 -0.2300  0.8664 -2.6855
  301SOL     OW  901   0.364   0.298   0.477 -0.1278 -0.5157  0.2434
  301SOL    HW1  902   0.266   0.264   0.477  1.6691  1.5941 -1.4148
  301SOL    HW2  903   0.438   0.228   0.477 -0.3594  2.8517 -2.4659
  302SOL     OW  904   1.255   2.424   2.363 -0.6816  0.1256 -0.1658
  302SOL    HW1  905   1.158   2.445   2.375  0.3514  1.9811 -0.6802
  302SOL    HW2  906   1.297   2.364   2.440 -3.0227 -2.6601  0.4515
  303SOL     OW  907   0.925   2.416   0.783 -0.9270  0.4307  0.0384
  303SOL    HW1  908   0.970   2.483   0.712  1.6618  0.2155 -1.1870
  303SOL    HW2  909   0.967   2.429   0.876  1.7989 -0.4819  0.7211
  304SOL     OW  910   0.093   1.952   0.691 -0.3735 -0.0856 -0.0208
  304SOL    HW1  911   0.166   1.953   0.621 -0.1734 -3.1230  0.8244
  304SOL    HW2  912   0.002   1.989   0.655 -0.1325 -2.1784  3.1630
  305SOL     OW  913   1.585   0.845   0.672  0.2506  0.6702  0.4191
  305SOL    HW1  914   1.526   0.849   0.589  0.2910 -1.5821  3.8924
  305SOL    HW2  915   1.626   0.752   0.699 -0.4151 -1.6143 -0.6258
  306SOL     OW  916   0.425   1.875   1.869 -0.8129  0.2603 -0.3538
  306SOL    HW1  917   0.506   1.812   1.848 -1.2733  2.1258 -0.4979
  306SOL    HW2  918   0.430   1.911   1.967  0.0355  0.3139 -3.4657
  307SOL     OW  919   3.079   0.886   2.518 -0.1357 -0.0312  0.0306
  307SOL    HW1  920   3.094   0.951   2.597 -1.5643  2.8443 -0.9847
  307SOL    HW2  921   2.998   0.822   2.539 -2.7761  1.1951  1.8279
  308SOL     OW  922   1.595   2.696   2.797  0.7072  0.0466  0.0456
  308SOL    HW1  923   1.601   2.647   2.707  0.5290  1.5726  1.5384
  308SOL    HW2  924   1.542   2.638   2.869  1.8887 -5.3211 -1.1401
  309SOL     OW  925   1.250   0.185   1.774  0.1869 -0.3621  0.3814
  309SOL    HW1  926   1.345   0.145   1.782  0.4104  0.7763 -2.7673
  309SOL    HW2  927   1.213   0.181   1.677 -0.0945  1.0594 -1.7700
  310SOL     OW  928   1.544   2.567   0.691  0.3934  0.0917 -0.5243
  310SOL    HW1  929   1.496   2.592   0.782  0.2079  0.5721  1.4006
  310SOL    HW2  930   1.595   2.644   0.656 -0.9062 -0.0417  2.9983
  311SOL     OW  931   1.140   0.912   1.734 -0.5160  0.3723  0.5310
  311SOL    HW1  932   1.121   0.829   1.789  0.0890  1.2381 -0.5388
  311SOL    HW2  933   1.161   0.892   1.636  0.3034  0.4187  0.2132
  312SOL     OW  934   1.566   0.742   1.130 -0.0535 -0.2959 -0.5888
  312SOL    HW1  935   1.602   0.838   1.114 -3.4805 -2.2489 -0.6358
  312SOL    HW2  936   1.512   0.706   1.048  2.4421 -0.0752  1.1665
  313SOL     OW  937   1.597   1.398   0.709 -0.0037 -0.2100  0.0516
  313SOL    HW1  938   1.545   1.433   0.793  3.0688  2.1444  0.4420
  313SOL    HW2  939   1.562   1.305   0.686 -1.7330 -2.4165  2.6901
  314SOL     OW  940   2.969   0.027   3.041  0.2919 -0.3203 -0.5341
  314SOL    HW1  941   2.970   0.059   3.141  0.6375 -0.0950  0.4453
  314SOL    HW2  942   2.889  -0.045   3.037 -0.9499 -1.4486  0.9371
  315SOL     OW  943   1.112   0.237   2.795  0.5841  0.2108 -0.1587
  315SOL    HW1  944   1.121   0.156   2.728 -1.0198  1.9303 -0.6795
  315SOL    HW2  945   1.137   0.216   2.891 -1.9391 -0.4529  0.6968
  316SOL     OW  946   1.742   2.060   0.933 -0.5723  0.0965 -0.5944
  316SOL    HW1  947   1.715   2.072   1.035 -1.4124  0.2289 -0.4640
  316SOL    HW2  948   1.715   2.135   0.871 -1.3198  0.1633  0.0413
  317SOL     OW  949   1.205   0.649   2.833  0.2044 -0.4036 -0.1040
  317SOL    HW1  950   1.142   0.687   2.899  2.1885  1.2753 -1.9537
  317SOL    HW2  951   1.173   0.558   2.788 -1.0738 -2.9225 -1.6198
  318SOL     OW  952   1.428   3.050   2.239  0.1902  1.0494  0.1118
  318SOL    HW1  953   1.397   3.149   2.240 -2.1740 -0.2364 -0.9513
  318SOL    HW2  954   1.438   3.009   2.144  0.5110  0.6242  0.9795
  319SOL     OW  955   0.579   2.386   2.913  0.1778 -0.9374  0.5476
  319SOL    HW1  956   0.550   2.293   2.959  0.1717 -1.5954 -0.2868
  319SOL    HW2  957   0.668   2.370   2.856 -1.2069  0.3084  0.9048
  320SOL     OW  958   1.712   2.238   0.415  0.5219  0.1404 -0.6156
  320SOL    HW1  959   1.787   2.177   0.384 -0.6222  2.9403  1.1131
  320SOL    HW2  960   1.627   2.193   0.466 -0.2066  0.0700  1.6570
  321SOL     OW  961   1.676   2.772   0.555 -0.1657 -0.6000  0.0688
  321SOL    HW1  962   1.594   2.807   0.494 -0.1653 -1.5398 -2.5097
  321SOL    HW2  963   1.768   2.817   0.537  1.1932  2.2704 -1.0101
  322SOL     OW  964   2.601   1.122   2.331  0.2135 -0.3136  1.0206
  322SOL    HW1  965   2.658   1.155   2.412 -0.1551 -3.4858 -1.7097
  322SOL    HW2  966   2.548   1.034   2.353  0.7276 -0.1463  0.7344
  323SOL     OW  967   1.162   2.681   0.848 -0.1227 -0.3167  0.4082
  323SOL    HW1  968   1.153   2.651   0.747  0.5451  0.0135 -0.2622
  323SOL    HW2  969   1.124   2.778   0.861  0.1711  4.6063  0.9771
  324SOL     OW  970   0.270   2.491   2.508  0.2606  0.4243 -0.1969
  324SOL    HW1  971   0.259   2.450   2.605 -0.7899 -0.5792  1.1423
  324SOL    HW2  972   0.293   2.596   2.516 -1.7602  1.8976 -1.2997
  325SOL     OW  973   1.246   2.999   0.449  0.0150 -0.7791  0.3754
  325SOL    HW1  974   1.281   3.056   0.368  0.3893 -0.2520 -0.9871
  325SOL    HW2  975   1.252   3.052   0.541 -0.6700  0.3252  1.4889
  326SOL     OW  976   2.441   0.779   3.097  0.1923  0.4561  0.0246
  326SOL    HW1  977   2.396   0.702   3.040 -0.0427 -1.5014  1.0990
  326SOL    HW2  978   2.511   0.734   3.163  2.0825 -2.7711  3.3036
  327SOL     OW  979   2.817   0.322   0.574  0.0593  0.1675 -0.6587
  327SOL    HW1  980   2.808   0.267   0.486  3.1636  0.5072  2.9648
  327SOL    HW2  981   2.817   0.271   0.666 -0.2590 -1.6174 -1.0205
  328SOL     OW  982   2.598   0.605   0.409  0.2390  0.8207  0.0498
  328SOL    HW1  983   2.562   0.691   0.453  1.6671  1.7205 -0.7773
  328SOL    HW2  984   2.587   0.519   0.467 -3.5022 -0.7057  1.1183
  329SOL     OW  985   2.921   2.951   2.159 -0.0376  0.0638  0.0233
  329SOL    HW1  986   3.005   2.900   2.186 -0.6529 -0.6554 -0.7864
  329SOL    HW2  987   2.917   3.044   2.199  0.6476  0.6672  1.0427
  330SOL     OW  988   0.560   0.198   1.911  0.7956 -0.0689  0.6130
  330SOL    HW1  989   0.636   0.186   1.845 -2.4011 -1.2956  2.5645
  330SOL    HW2  990   0.591   0.179   2.004 -2.6734 -0.5567 -2.0715
  331SOL     OW  991   3.010   1.943   1.096 -0.1155 -0.0356  0.1328
  331SOL    HW1  992   2.974   1.945   1.001  1.2911 -2.1240 -1.2391
  331SOL    HW2  993   2.933   1.929   1.166  1.2415 -1.4208 -0.5478
  332SOL     OW  994   0.401   1.198   0.091  0.0475  0.0981 -0.1904
  332SOL    HW1  995   0.321   1.126   0.101 -0.2483  0.8284  1.2156
  332SOL    HW2  996   0.430   1.245   0.180  0.0630 -0.5100  1.7826
  333SOL     OW  997   2.942   1.018   0.260  0.0855 -0.7482  0.5414
  333SOL    HW1  998   2.973   1.079   0.343  2.3845 -1.3960  1.7826
  333SOL    HW2  999   2.985   0.920   0.257 -1.2650 -0.5148 -3.7810
  334SOL     OW 1000   1.693   1.270   1.803 -0.0371 -0.1616 -0.2625
  334SOL    HW1 1001   1.754   1.246   1.725  0.0242 -1.3833 -0.5203
  334SOL    HW2 1002   1.745   1.286   1.886 -0.0949 -0.7612 -2.3213
  335SOL     OW 1003   1.973   2.734   2.570 -0.6300  0.0391  0.1598
  335SOL    HW1 1004   1.929   2.733   2.666 -0.9701  0.3921 -1.5974
  335SOL    HW2 1005   2.075   2.762   2.565 -2.7012  1.7330  1.9614
  336SOL     OW 1006   0.242   0.074   2.730 -0.1579 -0.3602  0.0316
  336SOL    HW1 1007   0.312   0.084   2.807 -0.9588 -1.4386  0.6746
  336SOL    HW2 1008   0.156   0.028   2.758 -1.0605  2.4923  2.9546
  337SOL     OW 1009   0.981   2.877   2.904 -0.6067  0.5360  0.0971
  337SOL    HW1 1010   0.933   2.812   2.971  3.9339 -1.9955 -0.4946
  337SOL    HW2 1011   1.062   2.926   2.953  4.0280 -0.1556  1.9526
  338SOL     OW 1012   0.075   1.011   0.681  0.0437 -0.5451  0.1228
  338SOL    HW1 1013  -0.027   0.987   0.692  0.0861 -2.5609  0.8136
  338SOL    HW2 1014   0.086   1.112   0.695  0.0875 -0.9365 -0.8171
  339SOL     OW 1015   1.705   1.309   2.120 -0.5366  0.1706  0.5652
  339SOL    HW1 1016   1.605   1.328   2.112  0.7869 -3.3914  0.0608
  339SOL    HW2 1017   1.766   1.386   2.150 -0.6153 -0.7045 -3.1448
  340SOL     OW 1018   2.287   0.752   1.161  0.1000 -0.3792  0.0584
  340SOL    HW1 1019   2.184   0.748   1.132  0.2166 -0.2314  0.8868
  340SOL    HW2 1020   2.337   0.665   1.134 -1.1511 -1.8776 -1.2724
  341SOL     OW 1021   1.924   2.090   0.296  0.2802  0.2288  0.0782
  341SOL    HW1 1022   1.956   2.133   0.207 -2.1007 -0.6640  1.6986
  341SOL    HW2 1023   1.997   2.091   0.370  1.5971 -0.2951 -1.2095
  342SOL     OW 1024   2.175   2.144   2.790 -0.3428  0.2784  0.0341
  342SOL    HW1 1025   2.216   2.056   2.832 -0.5587 -1.0757 -0.4323
  342SOL    HW2 1026   2.073   2.155   2.806 -1.1249 -1.6628 -0.8200
  343SOL     OW 1027   0.388   0.819   2.792  0.3016 -0.3429 -0.1521
  343SOL    HW1 1028   0.436   0.840   2.705  1.0856  1.1736  0.5890
  343SOL    HW2 1029   0.457   0.824   2.873  1.8679  0.0874 -1.6918
  344SOL     OW 1030   1.905   1.483   0.441 -0.1949  0.3923  0.2719
  344SOL    HW1 1031   1.916   1.411   0.368  0.3370  0.2929  0.7376
  344SOL    HW2 1032   1.807   1.510   0.467  0.2899  1.3745  0.7436
  345SOL     OW 1033   1.393   2.254   2.882 -0.4144 -0.1302 -0.5303
  345SOL    HW1 1034   1.330   2.271   2.802 -1.6921  2.1120  0.6478
  345SOL    HW2 1035   1.470   2.189   2.852 -0.5031  1.4712  1.0783
  346SOL     OW 1036   2.354   0.892   1.387 -0.2262  0.0718 -0.0222
  346SOL    HW1 1037   2.298   0.973   1.411 -0.7826  1.5059 -1.7581
  346SOL    HW2 1038   2.327   0.839   1.299 -0.1628 -0.6069  0.1074
  347SOL     OW 1039   0.754   2.736   1.616  0.1699 -0.0442  0.3148
  347SOL    HW1 1040   0.696   2.719   1.699  0.5024  0.7763 -1.8442
  347SOL    HW2 1041   0.705   2.785   1.538 -1.7185  1.8270 -0.7090
  348SOL     OW 1042   0.153   0.722   2.923 -0.4818  0.2641  0.3402
  348SOL    HW1 1043   0.055   0.705   2.883 -0.4109 -1.7449  1.3064
  348SOL    HW2 1044   0.224   0.749   2.846  0.8834  2.9405 -2.2171
  349SOL     OW 1045   1.869   0.442   2.773 -0.2088  0.1367 -0.2248
  349SOL    HW1 1046   1.868   0.533   2.724 -1.1066  2.6883  1.7520
  349SOL    HW2 1047   1.853   0.461   2.876 -2.1380 -0.5887  0.6318
  350SOL     OW 1048   1.646   0.410   0.393  0.0153 -0.1795  0.1038
  350SOL    HW1 1049   1.705   0.376   0.469  0.6244  0.5279 -3.3685
  350SOL    HW2 1050   1.670   0.507   0.365 -0.1826 -0.9975  0.0778
  351SOL     OW 1051   0.981   0.819   2.103 -0.3640  0.3004 -0.0604
  351SOL    HW1 1052   0.956   0.919   2.116  0.9432 -0.8668  0.2599
  351SOL    HW2 1053   1.012   0.804   2.006  1.4157  0.2299  0.0720
  352SOL     OW 1054   2.077   1.337   0.650  0.4903 -0.4910 -0.4183
  352SOL    HW1 1055   2.037   1.416   0.591 -2.1166  1.0459 -0.5436
  352SOL    HW2 1056   2.028   1.339   0.738  0.0323  2.7860  0.5664
  353SOL     OW 1057   2.175   2.807   1.091  0.9562 -0.0672 -0.4741
  353SOL    HW1 1058   2.221   2.761   1.171 -1.3948 -2.1732 -0.2745
  353SOL    HW2 1059   2.089   2.751   1.077  1.3609  0.4663 -0.4266
  354SOL     OW 1060   0.252   1.382   2.856  1.1134  0.6238 -0.1652
  354SOL    HW1 1061   0.224   1.469   2.799 -1.4956 -0.8941 -1.6193
  354SOL    HW2 1062   0.343   1.391   2.908 -0.8282 -0.1751  0.0277
  355SOL     OW 1063   0.728   1.604   0.565 -0.1191  0.2524  0.7629
  355SOL    HW1 1064   0.714   1.537   0.644 -3.0451  0.3322  0.2082
  355SOL    HW2 1065   0.715   1.550   0.477  0.1494 -0.9640  0.1592
  356SOL     OW 1066   0.803   0.325   2.047  0.5599 -0.3514 -0.2085
  356SOL    HW1 1067   0.863   0.247   2.062 -0.1282  0.3619  0.1550
  356SOL    HW2 1068   0.834   0.379   1.973 -0.5245 -0.9938  1.2810
  357SOL     OW 1069   0.971   1.323   0.330 -0.3533 -0.3726  0.5846
  357SOL    HW1 1070   1.065   1.338   0.285 -1.5316  1.3553 -0.3006
  357SOL    HW2 1071   0.961   1.228   0.370 -1.5893  2.3885 -0.0233
  358SOL     OW 1072   1.646   1.545   0.469 -0.4432  0.2995  0.1104
  358SOL    HW1 1073   1.622   1.504   0.567  1.7676 -0.4530  1.5366
  358SOL    HW2 1074   1.627   1.475   0.390  1.3694  0.5274  0.7519
  359SOL     OW 1075   1.579   2.617   0.224  0.3763 -0.4543  0.1073
  359SOL    HW1 1076   1.589   2.516   0.200  1.4144  1.7497  1.3473
  359SOL    HW2 1077   1.522   2.639   0.311 -0.1340  2.5873  1.5705
  360SOL     OW 1078   0.768   0.567   0.530 -0.7539  0.2249 -0.1610
  360SOL    HW1 1079   0.668   0.582   0.548 -1.6935 -0.0203  0.8344
  360SOL    HW2 1080   0.803   0.480   0.583  0.4287 -3.4143  3.2076
  361SOL     OW 1081   1.285   1.296   0.667  0.7000 -0.1992 -0.0536
  361SOL    HW1 1082   1.335   1.349   0.742 -0.9297 -1.2849  1.8846
  361SOL    HW2 1083   1.186   1.330   0.654 -1.0735 -0.0390  0.8652
  362SOL     OW 1084   1.383   1.780   0.793 -0.0550 -0.5277 -0.4455
  362SOL    HW1 1085   1.463   1.731   0.837  2.0318 -0.6588 -1.8120
  362SOL    HW2 1086   1.413   1.868   0.748 -0.8569 -0.3351 -1.0743
  363SOL     OW 1087   1.244   1.348   2.050  0.3151 -0.1019  0.3192
  363SOL    HW1 1088   1.340   1.381   2.062 -0.2561  0.7929 -2.1672
  363SOL    HW2 1089   1.173   1.416   2.027  0.9937  1.3425  2.1244
  364SOL     OW 1090   0.513   2.356   1.993  0.1566  0.5316 -0.1358
  364SOL    HW1 1091   0.415   2.393   1.981 -0.1132 -2.0545  2.6918
  364SOL    HW2 1092   0.572   2.379   1.913 -1.9783 -0.2556 -2.4087
  365SOL     OW 1093   0.999   1.976   1.323  0.7323 -0.2293  0.0231
  365SOL    HW1 1094   0.906   1.962   1.367 -0.0003 -0.3290  0.5714
  365SOL    HW2 1095   0.987   2.003   1.220  0.2807 -1.7317 -0.9344
  366SOL     OW 1096   2.849   1.962   0.394  0.1487 -0.0100  0.0038
  366SOL    HW1 1097   2.747   1.956   0.368 -1.2590  0.3126 -2.4106
  366SOL    HW2 1098   2.900   1.876   0.381 -0.2152 -1.5411  2.6929
  367SOL     OW 1099   0.906   1.139   0.005  0.7569  0.1011  0.6672
  367SOL    HW1 1100   0.917   1.052   0.071  1.3217 -1.6580  1.1810
  367SOL    HW2 1101   0.991   1.197  -0.008  1.1217 -0.6908 -2.0430
  368SOL     OW 1102   1.451   0.550   0.633 -0.5616  0.4116 -0.3667
  368SOL    HW1 1103   1.410   0.598   0.548 -1.6477  2.1402 -2.7159
  368SOL    HW2 1104   1.556   0.558   0.650  3.0182 -2.7138  1.3602
  369SOL     OW 1105   0.374   1.678   0.131 -0.0101  0.4765  0.4331
  369SOL    HW1 1106   0.404   1.755   0.191 -1.9851 -0.5377  0.0417
  369SOL    HW2 1107   0.288   1.635   0.170  2.7282 -0.5535  2.2860
  370SOL     OW 1108   0.442   2.050   1.066  0.0177  0.6237  0.7907
  370SOL    HW1 1109   0.468   2.148   1.072  1.0080 -0.3773 -1.0474
  370SOL    HW2 1110   0.343   2.031   1.033 -1.5219  0.8355 -1.2413
  371SOL     OW 1111   2.913   2.218   2.629  0.1570  0.4786 -0.3247
  371SOL    HW1 1112   2.857   2.174   2.706  0.2001 -1.0734  1.1427
  371SOL    HW2 1113   3.018   2.216   2.642  2.9223 -2.4579 -0.7473
  372SOL     OW 1114   1.028   2.022   1.056 -0.1552  0.4141 -0.5045
  372SOL    HW1 1115   0.956   2.078   1.011 -0.6323 -0.8527 -0.5032
  372SOL    HW2 1116   1.095   1.991   0.985 -1.3396 -0.2391  0.3318
  373SOL     OW 1117   1.966   1.943   0.844 -0.1373  0.0059  0.7416
  373SOL    HW1 1118   2.043   1.963   0.909 -1.6125  2.8640  1.2146
  373SOL    HW2 1119   1.887   2.007   0.859  1.8779  1.4838  3.3005
  374SOL     OW 1120   1.862   0.385   0.565 -0.0060 -0.1530  0.3583
  374SOL    HW1 1121   1.892   0.345   0.650 -1.8265  0.9815 -2.0217
  374SOL    HW2 1122   1.943   0.412   0.508  1.8588  0.4481 -1.9026
  375SOL     OW 1123   2.411   2.150   1.075  0.3831 -0.1735  0.2436
  375SOL    HW1 1124   2.458   2.137   0.984  1.9558  1.1360  0.4117
  375SOL    HW2 1125   2.470   2.120   1.154  0.6431 -0.4993  1.1863
  376SOL     OW 1126   3.025   0.550   1.496 -0.4985 -0.4903 -0.4739
  376SOL    HW1 1127   3.044   0.603   1.586  0.3474 -0.1246 -0.9427
  376SOL    HW2 1128   2.929   0.526   1.480  1.7254 -2.0444 -1.3502
  377SOL     OW 1129   2.157   2.909   0.294 -0.1300 -0.2399  0.1042
  377SOL    HW1 1130   2.120   3.006   0.296  0.8338 -1.8414  2.1468
  377SOL    HW2 1131   2.243   2.899   0.354 -1.1957 -2.2477  3.4373
  378SOL     OW 1132   1.763   1.841   2.587 -0.5676 -0.4985 -0.7228
  378SOL    HW1 1133   1.791   1.814   2.682  0.1344  1.2465 -0.9729
  378SOL    HW2 1134   1.755   1.756   2.525 -1.9940 -0.4654 -3.7186
  379SOL     OW 1135   0.689   0.105   2.856 -0.2052  0.5381 -0.3995
  379SOL    HW1 1136   0.644   0.040   2.785 -1.7609  2.2394  0.4314
  379SOL    HW2 1137   0.742   0.176   2.803 -0.5981  2.0739 -0.6189
  380SOL     OW 1138   1.517   1.152   0.623  0.0439  0.0003 -0.1469
  380SOL    HW1 1139   1.425   1.206   0.607 -1.1234  1.0869  0.3703
  380SOL    HW2 1140   1.496   1.054   0.648 -1.7425  1.1581 -0.5328
  381SOL     OW 1141   1.348   1.166   1.536 -0.2361  0.1096  0.5337
  381SOL    HW1 1142   1.383   1.104   1.462  2.4402 -0.6693  2.0614
  381SOL    HW2 1143   1.425   1.212   1.590 -0.0373  1.3589 -0.8499
  382SOL     OW 1144   1.790   0.878   0.184  0.5225  0.3621  0.0545
  382SOL    HW1 1145   1.822   0.893   0.087 -2.3917  1.3199  0.9032
  382SOL    HW2 1146   1.862   0.873   0.259  0.0217  0.2499 -0.6998
  383SOL     OW 1147   2.586   1.004   1.471 -0.0379 -0.0484  0.2595
  383SOL    HW1 1148   2.489   0.986   1.436  0.1748  2.0834 -0.6256
  383SOL    HW2 1149   2.659   0.997   1.393 -0.5605 -1.3794  3.9634
  384SOL     OW 1150   0.979   2.240   0.153 -0.3957 -0.4375  0.5443
  384SOL    HW1 1151   0.961   2.326   0.201  1.1513 -1.6583  0.8998
  384SOL    HW2 1152   0.910   2.167   0.173 -1.2761 -0.1776 -1.0505
  385SOL     OW 1153   2.993   2.040   1.643 -1.2465 -0.1594 -0.0729
  385SOL    HW1 1154   3.061   2.119   1.621  0.4827 -2.0347  0.5274
  385SOL    HW2 1155   3.036   1.943   1.648  2.5448 -1.0824 -1.7291
  386SOL     OW 1156   0.503   1.073   0.429  0.5560 -0.0349  0.0916
  386SOL    HW1 1157   0.470   0.980   0.459  0.6478 -1.2929  1.7004
  386SOL    HW2 1158   0.421   1.143   0.417 -0.3134  1.0521 -1.3265
  387SOL     OW 1159   0.971   0.315   1.680 -0.3537  1.0602 -0.3186
  387SOL    HW1 1160   1.037   0.396   1.692  0.7023 -1.2016  1.0132
  387SOL    HW2 1161   0.951   0.298   1.581 -0.3292  0.5472 -1.0801
  388SOL     OW 1162   1.212   2.688   1.746  0.2937  0.1917  0.2036
  388SOL    HW1 1163   1.247   2.721   1.654  0.3871  2.5249 -0.7326
  388SOL    HW2 1164   1.256   2.601   1.783  0.0903 -1.5337  1.2630
  389SOL     OW 1165   0.178   3.031   1.151 -0.9073 -0.0007  0.8744
  389SOL    HW1 1166   0.135   3.081   1.232  0.3492  1.7227 -3.0313
  389SOL    HW2 1167   0.122   2.949   1.133 -0.2083  0.9895  1.7701
  390SOL     OW 1168   1.027   0.996   1.322  0.6118  0.3070 -0.3007
  390SOL    HW1 1169   1.114   0.981   1.377 -2.4096 -1.2504  0.0829
  390SOL    HW2 1170   0.968   1.068   1.365 -1.9562 -2.3418  1.3231
  391SOL     OW 1171   2.156   1.099   1.069 -0.0217  0.2839 -0.1352
  391SOL    HW1 1172   2.093   1.021   1.088  1.9497  3.0064 -1.1820
  391SOL    HW2 1173   2.195   1.090   0.968  3.3588 -1.2775 -1.2305
  392SOL     OW 1174   0.846   2.721   3.093 -0.4133 -0.2975  0.3309
  392SOL    HW1 1175   0.925   2.668   3.142  3.1930 -0.1908 -0.6042
  392SOL    HW2 1176   0.804   2.796   3.152  1.8346 -2.4386 -0.4735
  393SOL     OW 1177   0.367   0.541   2.002 -0.4340  0.4699 -0.1539
  393SOL    HW1 1178   0.297   0.474   1.970  1.3558  3.3755  2.2407
  393SOL    HW2 1179   0.458   0.545   1.949  1.6058 -1.5435 -0.7923
  394SOL     OW 1180   3.023   1.834   2.788 -0.7711  0.8569 -0.4990
  394SOL    HW1 1181   3.050   1.924   2.830  0.5825  1.2939 -2.9224
  394SOL    HW2 1182   3.041   1.830   2.687 -2.2036  0.0497 -2.7984
  395SOL     OW 1183   1.649   1.967   0.679 -0.0358  0.1570 -0.0317
  395SOL    HW1 1184   1.699   1.907   0.611 -0.1779  0.6465 -0.1192
  395SOL    HW2 1185   1.700   1.984   0.764  0.4551  2.0457 -0.5477
  396SOL     OW 1186   2.842   1.886   1.299  0.1438 -0.1655 -0.6344
  396SOL    HW1 1187   2.796   1.797   1.289 -0.8016  1.6224  0.3278
  396SOL    HW2 1188   2.808   1.939   1.384 -1.6620  2.4247  2.4378
  397SOL     OW 1189   1.042   2.223   0.503 -0.0116 -0.5303 -0.1282
  397SOL    HW1 1190   0.948   2.192   0.530  0.9216  0.6434 -0.4608
  397SOL    HW2 1191   1.045   2.325   0.485  1.0126  2.2687 -0.8792
  398SOL     OW 1192   2.125   3.087   1.010  0.1857  0.3277  0.0642
  398SOL    HW1 1193   2.123   3.005   1.068 -0.4069  2.6026 -1.3112
  398SOL    HW2 1194   2.078   3.169   1.062 -3.8391  1.7813  0.6448
  399SOL     OW 1195   3.041   2.478   2.516  0.0214 -0.2738 -0.2017
  399SOL    HW1 1196   2.939   2.466   2.509  1.0846  0.1784  2.1152
  399SOL    HW2 1197   3.083   2.407   2.572  1.3912 -3.8768 -3.2983
  400SOL     OW 1198   0.765   1.614   1.329 -0.0327 -0.2403 -0.1091
  400SOL    HW1 1199   0.732   1.616   1.428  0.3014 -1.5744 -2.1270
  400SOL    HW2 1200   0.706   1.672   1.268 -2.7242 -0.3424 -0.4872
  401SOL     OW 1201   1.790   0.091   1.329  0.3103 -0.1791 -0.4759
  401SOL    HW1 1202   1.854   0.103   1.409  1.0729 -0.4153 -0.3703
  401SOL    HW2 1203   1.693   0.111   1.349  0.7752  1.2037  1.3538
  402SOL     OW 1204   1.323   0.159   3.061 -0.2264  0.7594  0.1999
  402SOL    HW1 1205   1.422   0.152   3.024  0.5328 -0.2025 -0.9455
  402SOL    HW2 1206   1.301   0.259   3.074  4.0549 -1.2648  0.1769
  403SOL     OW 1207   2.324   1.770   0.897  0.0308 -0.1236  0.4687
  403SOL    HW1 1208   2.422   1.769   0.934 -1.6786 -2.2049  0.9697
  403SOL    HW2 1209   2.258   1.845   0.935 -1.3244  0.8244  0.9187
  404SOL     OW 1210   0.181   2.530   2.784 -0.1828  0.0518 -0.0931
  404SOL    HW1 1211   0.247   2.464   2.821 -0.5206  0.5858 -2.3221
  404SOL    HW2 1212   0.187   2.619   2.836  0.0005 -1.6112  0.2638
  405SOL     OW 1213   0.154   2.383   0.673 -0.5620 -0.5667  0.1993
  405SOL    HW1 1214   0.103   2.326   0.607  0.1464  0.7789 -2.4194
  405SOL    HW2 1215   0.199   2.464   0.621 -0.0321  1.5063  1.2661
  406SOL     OW 1216   0.043   1.518   3.027  0.4337  0.2926 -0.1124
  406SOL    HW1 1217   0.119   1.461   2.992  3.1482  1.1707 -1.0827
  406SOL    HW2 1218   0.069   1.621   3.041 -3.5669  1.8400  0.8461
  407SOL     OW 1219   1.572   0.959   0.916 -0.2833 -0.0845  0.9848
  407SOL    HW1 1220   1.559   0.896   0.835 -2.1678  0.1797 -2.8041
  407SOL    HW2 1221   1.474   0.993   0.946  0.0988  2.0067  1.5067
  408SOL     OW 1222   1.611   2.348   0.939  0.8319  0.3966  0.1481
  408SOL    HW1 1223   1.666   2.327   0.851  2.2673  1.1390  0.4613
  408SOL    HW2 1224   1.567   2.439   0.937 -2.6026  0.5138 -0.7169
  409SOL     OW 1225   0.633   0.847   0.708  0.2110 -0.3418  0.8907
  409SOL    HW1 1226   0.565   0.847   0.625 -1.0514  1.5418  3.4223
  409SOL    HW2 1227   0.637   0.757   0.757 -2.0864  1.3666  0.7892
  410SOL     OW 1228   1.292   2.048   1.424  0.6997 -0.3465  0.0868
  410SOL    HW1 1229   1.353   1.978   1.473 -1.3232 -0.3513  0.9243
  410SOL    HW2 1230   1.213   2.007   1.384  2.7276  2.0791  1.2609
  411SOL     OW 1231   2.546   1.873   3.079  0.9311  0.7943 -0.6048
  411SOL    HW1 1232   2.474   1.923   3.021 -0.5126 -2.3056 -0.2820
  411SOL    HW2 1233   2.607   1.813   3.019 -0.2642 -0.0701  0.2900
  412SOL     OW 1234   1.468   2.496   2.185  0.1563  0.0328 -0.4654
  412SOL    HW1 1235   1.475   2.599   2.179 -1.7147  0.5154  0.1747
  412SOL    HW2 1236   1.403   2.465   2.259  0.5226 -1.3764  1.6902
  413SOL     OW 1237   3.071   0.255   2.987 -0.3039 -0.0870  0.0920
  413SOL    HW1 1238   3.038   0.159   3.003  0.2099 -0.5210 -1.6250
  413SOL    HW2 1239   3.173   0.278   2.990  0.9208 -0.1451 -0.2648
  414SOL     OW 1240   1.839   1.525   1.235  0.3524  0.2456 -0.3504
  414SOL    HW1 1241   1.793   1.609   1.206  3.6979  2.8253 -2.5994
  414SOL    HW2 1242   1.806   1.437   1.190  0.5679  0.0971  0.1517
  415SOL     OW 1243   0.343   2.182   0.707  0.7304  0.1764 -0.1686
  415SOL    HW1 1244   0.293   2.275   0.687 -3.6836 -0.2208 -1.4786
  415SOL    HW2 1245   0.308   2.144   0.795 -0.2835  1.8892 -1.4052
  416SOL     OW 1246   0.368   1.018   1.046  0.7690  0.1943 -0.0599
  416SOL    HW1 1247   0.363   0.977   0.948  2.9061 -3.7453 -2.0768
  416SOL    HW2 1248   0.458   1.073   1.058  1.9358  0.3831 -1.2839
  417SOL     OW 1249   2.220   2.290   1.959  1.2286  0.2261  1.0381
  417SOL    HW1 1250   2.314   2.269   1.998  0.9111  1.4535 -0.0565
  417SOL    HW2 1251   2.169   2.209   1.920  0.7555  0.0965 -2.3283
  418SOL     OW 1252   1.099   0.512   1.370 -0.1576  0.0884  0.2217
  418SOL    HW1 1253   1.029   0.510   1.297 -0.5295  0.6525  3.8337
  418SOL    HW2 1254   1.187   0.557   1.345  1.2748  0.4629 -1.0964
  419SOL     OW 1255   0.924   0.445   3.005 -0.1956  0.4171 -0.2823
  419SOL    HW1 1256   0.954   0.500   2.921 -1.7402  2.5764  1.3358
  419SOL    HW2 1257   0.833   0.486   3.039  1.4586 -0.3553  0.4927
  420SOL     OW 1258   0.074   2.263   0.453  0.5155  0.5608  0.4481
  420SOL    HW1 1259   0.124   2.218   0.370  1.4513  0.3511  0.5354
  420SOL    HW2 1260  -0.009   2.210   0.485  0.8806  1.4593  1.8488
  421SOL     OW 1261   0.352   3.000   0.676 -0.3481  0.3187 -0.0564
  421SOL    HW1 1262   0.385   2.907   0.707 -0.1643  1.0666  0.0408
  421SOL    HW2 1263   0.429   3.076   0.672  0.4187  1.9335 -0.9148
  422SOL     OW 1264   1.064   2.489   1.011  0.2762 -0.3899 -0.0457
  422SOL    HW1 1265   1.117   2.563   0.953  0.8548  2.3367  0.3359
  422SOL    HW2 1266   1.032   2.536   1.099  1.1490  2.2868 -0.3755
  423SOL     OW 1267   0.073   0.667   1.284 -0.2947 -0.0194  0.9113
  423SOL    HW1 1268   0.019   0.647   1.366  1.6241 -0.9817 -1.4401
  423SOL    HW2 1269   0.051   0.756   1.244  1.3322  2.2708  2.1187
  424SOL     OW 1270   0.991   2.206   2.046 -0.2925 -0.2075  0.3364
  424SOL    HW1 1271   0.999   2.302   2.016 -0.0779  0.9682  0.1796
  424SOL    HW2 1272   0.954   2.203   2.143 -0.9732 -2.9765 -0.2912
  425SOL     OW 1273   2.006   1.338   0.984  0.1632 -0.6682  0.0396
  425SOL    HW1 1274   2.051   1.265   1.045  0.7995 -0.7190  0.1025
  425SOL    HW2 1275   2.072   1.409   0.956  0.0709 -2.7097 -0.6484
  426SOL     OW 1276   1.506   1.615   1.375 -0.5937 -0.1520  0.2658
  426SOL    HW1 1277   1.485   1.674   1.288 -4.9114  0.6648 -2.5424
  426SOL    HW2 1278   1.428   1.623   1.438  1.3753 -1.5798  0.8083
  427SOL     OW 1279   1.893   2.369   2.039  0.1131 -0.0932 -0.1463
  427SOL    HW1 1280   1.962   2.313   2.091  0.5399 -0.1167 -0.2073
  427SOL    HW2 1281   1.918   2.468   2.039 -0.8901 -2.6909 -0.6798
  428SOL     OW 1282   0.873   3.017   0.209 -0.4366  0.4177 -0.1102
  428SOL    HW1 1283   0.864   3.104   0.152  0.7496  1.4059 -1.0541
  428SOL    HW2 1284   0.962   2.966   0.185  1.2525 -0.4185 -3.1063
  429SOL     OW 1285   1.337   0.061   0.248 -0.9348 -0.2849  0.7845
  429SOL    HW1 1286   1.438   0.096   0.264  0.2102  0.6411  2.1073
  429SOL    HW2 1287   1.301   0.077   0.152 -0.8242  0.8145 -0.0940
  430SOL     OW 1288   2.793   1.409   0.317 -0.5686  0.5304  0.4235
  430SOL    HW1 1289   2.830   1.447   0.226  0.6227  1.6887 -0.4758
  430SOL    HW2 1290   2.822   1.466   0.397 -1.1432  0.6515 -1.9820
  431SOL     OW 1291   2.122   1.561   0.863 -0.2351  0.1418 -0.0103
  431SOL    HW1 1292   2.208   1.615   0.885 -0.1393 -2.0112  1.9411
  431SOL    HW2 1293   2.066   1.602   0.790 -1.0160 -0.8569  3.1717
  432SOL     OW 1294   2.858   2.239   1.268 -0.4614  0.0597  0.4611
  432SOL    HW1 1295   2.794   2.164   1.299 -1.4612 -1.3592 -1.8197
  432SOL    HW2 1296   2.915   2.267   1.348 -0.8080 -2.9089  1.0737
  433SOL     OW 1297   1.918   0.383   0.834 -0.6959 -0.4147 -0.3312
  433SOL    HW1 1298   1.827   0.352   0.872 -1.6120  0.4852 -1.5333
  433SOL    HW2 1299   2.003   0.359   0.893 -2.4732  0.1959 -0.4900
  434SOL     OW 1300   1.492   0.271   0.739 -0.0310 -1.1971  0.3896
  434SOL    HW1 1301   1.487   0.371   0.701  3.5313  1.6127 -1.3907
  434SOL    HW2 1302   1.546   0.271   0.830 -2.2949  0.2628 -0.6086
  435SOL     OW 1303   1.490   1.479   2.116  0.2292  0.2911  0.1239
  435SOL    HW1 1304   1.468   1.529   2.199  1.8957 -2.3954 -0.6838
  435SOL    HW2 1305   1.527   1.552   2.049  0.3993  1.2323 -2.4053
  436SOL     OW 1306   1.680   2.756   2.213  0.2486 -0.1605  0.3956
  436SOL    HW1 1307   1.673   2.820   2.294  0.3711 -0.5082  1.3579
  436SOL    HW2 1308   1.705   2.659   2.245  0.6700  1.5467  1.4649
  437SOL     OW 1309   1.040   2.926   0.934  0.2777  0.1794 -0.2108
  437SOL    HW1 1310   1.022   3.031   0.932  1.8870  0.8935 -0.9681
  437SOL    HW2 1311   1.064   2.902   1.033  0.3772  1.8119  0.2182
  438SOL     OW 1312   1.011   2.599   1.292 -0.4517  0.2145  0.3435
  438SOL    HW1 1313   1.067   2.654   1.358  1.8370 -3.2768 -2.0160
  438SOL    HW2 1314   1.006   2.496   1.313 -0.2406 -1.4574 -0.8570
  439SOL     OW 1315   0.691   1.740   1.089  0.2032  0.2566  0.2230
  439SOL    HW1 1316   0.691   1.825   1.031 -0.7551 -0.6380 -0.3283
  439SOL    HW2 1317   0.593   1.708   1.110  0.4024  0.9376 -1.1279
  440SOL     OW 1318   0.992   2.493   1.981  0.4701  0.3599  0.3309
  440SOL    HW1 1319   0.960   2.524   1.888 -0.7144  1.8540 -0.4522
  440SOL    HW2 1320   1.098   2.497   1.982 -0.1703 -1.3722  1.4435
  441SOL     OW 1321   0.497   2.732   1.406  0.0111  0.2607  0.4719
  441SOL    HW1 1322   0.535   2.643   1.437  3.0118 -0.2111  2.8665
  441SOL    HW2 1323   0.417   2.717   1.338  1.3015 -1.4787 -0.2765
  442SOL     OW 1324   2.336   0.665   2.431 -0.2128  0.7962  0.4552
  442SOL    HW1 1325   2.338   0.577   2.489 -0.2188 -0.2100 -0.0632
  442SOL    HW2 1326   2.240   0.705   2.422  1.0938 -2.4259 -2.0273
  443SOL     OW 1327   1.249   2.725   2.144  0.5293 -0.1470  0.1937
  443SOL    HW1 1328   1.259   2.799   2.210 -0.5548 -2.5236 -1.9859
  443SOL    HW2 1329   1.222   2.643   2.196 -2.3354 -0.3710  2.4096
  444SOL     OW 1330   1.083   1.289   1.608  0.2063  0.0682  0.0421
  444SOL    HW1 1331   1.151   1.217   1.581  1.6959 -0.4728  3.2761
  444SOL    HW2 1332   1.122   1.369   1.657 -1.8360  0.2150 -2.4380
  445SOL     OW 1333   0.013   2.393   1.844 -0.0201 -0.3062  0.1642
  445SOL    HW1 1334   0.008   2.493   1.802 -0.5207  0.3701 -0.0909
  445SOL    HW2 1335  -0.076   2.367   1.891  0.1654 -0.6872 -2.2528
  446SOL     OW 1336   0.250   1.924   2.330  0.2500 -0.7716 -0.6787
  446SOL    HW1 1337   0.235   2.014   2.385 -0.9135  0.8494 -0.0007
  446SOL    HW2 1338   0.171   1.899   2.261 -2.4636  2.1764  1.1383
  447SOL     OW 1339   1.179   1.708   1.915 -0.2595 -0.2173  0.0117
  447SOL    HW1 1340   1.104   1.771   1.875  1.5800  1.4931 -1.5446
  447SOL    HW2 1341   1.245   1.764   1.972 -1.5117 -0.9143  0.4708
  448SOL     OW 1342   0.131   1.528   1.970  0.4336  0.2444  0.5373
  448SOL    HW1 1343   0.144   1.618   1.910  2.6103  0.8573 -2.9648
  448SOL    HW2 1344   0.101   1.557   2.066 -1.2889  2.3896 -0.2020
  449SOL     OW 1345   1.944   2.948   0.847  0.1557  0.1955 -0.3537
  449SOL    HW1 1346   2.030   2.982   0.887  0.3577 -2.6910 -0.6290
  449SOL    HW2 1347   1.949   2.853   0.810 -0.8919  1.0197  0.5300
  450SOL     OW 1348   2.330   1.381   0.733 -0.6003 -0.3375  0.0793
  450SOL    HW1 1349   2.226   1.372   0.731  0.4276 -0.3381  1.6265
  450SOL    HW2 1350   2.364   1.475   0.705 -0.6379  1.1552 -0.3792
  451SOL     OW 1351   1.340   3.029   1.458 -0.6963  0.8367 -0.0799
  451SOL    HW1 1352   1.256   3.087   1.482  0.5784 -0.0091  0.0222
  451SOL    HW2 1353   1.381   2.985   1.545 -0.8509  1.3615 -0.1193
  452SOL     OW 1354   2.681   2.298   2.155 -0.6711  0.2901 -0.1534
  452SOL    HW1 1355   2.622   2.381   2.175 -0.2841  1.2844 -0.8701
  452SOL    HW2 1356   2.754   2.279   2.226  2.0603 -1.7084  0.4166
  453SOL     OW 1357   2.490   2.646   3.084  0.2646 -0.0428  0.2335
  453SOL    HW1 1358   2.419   2.716   3.115 -2.2516  2.3045  0.7623
  453SOL    HW2 1359   2.447   2.581   3.012 -0.6095 -2.7338 -1.5306
  454SOL     OW 1360   1.026   1.155   2.083  0.2644 -0.2838 -0.5666
  454SOL    HW1 1361   0.991   1.130   1.988 -2.3099 -0.4382  1.4481
  454SOL    HW2 1362   1.108   1.219   2.083 -1.2117 -0.3949  0.5954
  455SOL     OW 1363   0.643   2.662   2.916 -0.2436 -0.6880 -0.6956
  455SOL    HW1 1364   0.718   2.693   2.985  0.0202 -2.3060 -0.8964
  455SOL    HW2 1365   0.614   2.565   2.927 -0.7546  1.4504 -2.2302
  456SOL     OW 1366   0.467   1.873   0.312  0.6594  0.5097  0.3962
  456SOL    HW1 1367   0.554   1.841   0.359 -0.0403  1.0776 -0.3717
  456SOL    HW2 1368   0.483   1.969   0.269 -1.1301  0.7136  0.6443
  457SOL     OW 1369   0.279   2.636   0.661  0.7748 -0.8059  0.4523
  457SOL    HW1 1370   0.267   2.716   0.590  0.7965  0.1453 -0.0773
  457SOL    HW2 1371   0.377   2.627   0.692 -2.2911  0.9768  0.5706
  458SOL     OW 1372   2.969   3.059   1.213  0.3985  0.6994 -0.1176
  458SOL    HW1 1373   3.035   3.138   1.224  1.0421 -1.0885  4.1350
  458SOL    HW2 1374   2.970   3.008   1.119  0.8057 -2.1540 -1.1643
  459SOL     OW 1375   2.181   2.544   0.786  0.6675  0.1402  0.1749
  459SOL    HW1 1376   2.189   2.637   0.826 -1.1470 -0.3904  2.3951
  459SOL    HW2 1377   2.272   2.519   0.741  1.3118  0.0889 -0.9698
  460SOL     OW 1378   1.164   1.990   2.875 -0.2589 -0.6005  0.6696
  460SOL    HW1 1379   1.203   2.042   2.795 -0.0623  1.1439 -0.7841
  460SOL    HW2 1380   1.233   1.934   2.928  0.6079 -1.7079  0.0100
  461SOL     OW 1381   0.536   2.075   2.678 -0.2128 -0.0392 -0.4441
  461SOL    HW1 1382   0.489   1.990   2.637 -1.1297  1.8889 -1.8052
  461SOL    HW2 1383   0.580   2.058   2.770 -0.7078  2.2941 -1.1777
  462SOL     OW 1384   0.945   1.103   1.835 -0.6103 -0.9574 -0.1101
  462SOL    HW1 1385   1.009   1.047   1.778 -0.4432  0.1546  0.0766
  462SOL    HW2 1386   0.945   1.196   1.803  1.4347  0.1137 -0.1963
  463SOL     OW 1387   0.455   0.768   0.490  0.0017 -0.2200  0.1618
  463SOL    HW1 1388   0.485   0.668   0.461  1.8934  0.0233 -0.4762
  463SOL    HW2 1389   0.354   0.793   0.480 -2.2807  1.2599  1.3684
  464SOL     OW 1390   0.603   2.275   2.234 -0.4762  0.2315  0.0881
  464SOL    HW1 1391   0.584   2.332   2.314 -0.4544 -0.8306 -0.4388
  464SOL    HW2 1392   0.563   2.313   2.144 -0.7041 -1.2603 -1.7465
  465SOL     OW 1393   0.313   0.921   0.790  0.2587  0.3783  0.5376
  465SOL    HW1 1394   0.225   0.938   0.744  1.3838  1.0615  1.7778
  465SOL    HW2 1395   0.319   0.816   0.818 -2.1514  1.1228  0.4626
  466SOL     OW 1396   1.343   1.132   1.072 -0.6247  0.2473 -0.2320
  466SOL    HW1 1397   1.374   1.223   1.028  2.4284  1.2328  3.2005
  466SOL    HW2 1398   1.245   1.142   1.109 -1.1828 -0.2793  3.5729
  467SOL     OW 1399   0.460   0.350   2.372  0.6580 -0.7498 -0.4550
  467SOL    HW1 1400   0.428   0.442   2.404  0.3266 -1.2949  2.3950
  467SOL    HW2 1401   0.459   0.277   2.446 -1.0145 -0.6187  1.3626
  468SOL     OW 1402   0.457   2.292   1.663  0.1528 -0.0892  0.4583
  468SOL    HW1 1403   0.486   2.386   1.700  0.7906  0.6504 -2.3041
  468SOL    HW2 1404   0.437   2.288   1.562  1.4163 -2.8959  2.6791
  469SOL     OW 1405   1.510   1.376   1.201 -0.0405 -0.4538  0.5100
  469SOL    HW1 1406   1.600   1.345   1.170  1.3734  1.5300  0.2837
  469SOL    HW2 1407   1.513   1.449   1.274  0.9100  1.1197 -4.0201
  470SOL     OW 1408   3.039   1.668   0.784  0.0123  0.0667  0.2232
  470SOL    HW1 1409   3.129   1.716   0.758  1.1640  0.5548  0.6531
  470SOL    HW2 1410   2.986   1.719   0.855  0.3294  1.2379  1.8676
  471SOL     OW 1411   2.654   1.313   2.144 -0.3394  0.1958 -0.2605
  471SOL    HW1 1412   2.652   1.229   2.205 -0.6886  0.6524 -1.7289
  471SOL    HW2 1413   2.722   1.384   2.174 -0.4232  2.6497  0.6879
  472SOL     OW 1414   1.138   2.482   3.071  0.3306  0.0257  0.0670
  472SOL    HW1 1415   1.156   2.452   3.165  0.7374  0.6489 -1.2342
  472SOL    HW2 1416   1.102   2.407   3.014 -2.8510  2.8784 -0.8759
  473SOL     OW 1417   1.108   1.530   0.997  0.4967 -0.1648  0.2468
  473SOL    HW1 1418   1.012   1.504   1.000  0.1701  0.7859  0.9508
  473SOL    HW2 1419   1.161   1.473   1.071 -0.4993 -2.1641 -0.3313
  474SOL     OW 1420   0.704   1.283   0.567 -0.0868 -0.4504  0.2915
  474SOL    HW1 1421   0.714   1.295   0.466  1.4303 -0.0306  1.9935
  474SOL    HW2 1422   0.732   1.190   0.598 -1.2121 -0.1704  0.4275
  475SOL     OW 1423   2.829   0.098   0.800  0.1302  0.3028 -0.1320
  475SOL    HW1 1424   2.897   0.153   0.850  0.7960  0.6267 -1.2581
  475SOL    HW2 1425   2.736   0.113   0.837  0.7002  0.1738 -1.8688
  476SOL     OW 1426   0.923   3.035   1.785 -0.9879 -0.0268 -1.1004
  476SOL    HW1 1427   0.995   2.980   1.832 -0.9220  1.2677 -2.0100
  476SOL    HW2 1428   0.947   3.044   1.685 -0.9876 -2.3044 -0.3697
  477SOL     OW 1429   1.455   0.338   2.474 -0.8030  0.3636  0.0224
  477SOL    HW1 1430   1.436   0.365   2.570  1.8873 -0.3531  1.6823
  477SOL    HW2 1431   1.535   0.275   2.455 -2.7590  1.9047  0.7256
  478SOL     OW 1432   2.209   1.850   0.258 -0.0025  0.2728 -0.3336
  478SOL    HW1 1433   2.144   1.773   0.264 -0.9135 -0.3456 -0.2117
  478SOL    HW2 1434   2.303   1.819   0.225 -2.0395  0.0571  0.3267
  479SOL     OW 1435   1.234   1.078   2.921 -0.3731  0.0391  0.1406
  479SOL    HW1 1436   1.304   1.085   2.844 -2.8967 -1.2158  1.1007
  479SOL    HW2 1437   1.152   1.032   2.876 -1.8399  1.0924 -1.1754
  480SOL     OW 1438   2.533   2.334   0.363 -0.5432 -0.5280 -0.1417
  480SOL    HW1 1439   2.504   2.243   0.403 -5.1537  0.9475  0.1919
  480SOL    HW2 1440   2.465   2.371   0.291 -2.4949 -1.8699 -0.0143
  481SOL     OW 1441   1.031   1.130   0.816  0.4487  0.2829 -0.3603
  481SOL    HW1 1442   1.012   1.231   0.804  0.2837  0.8881  0.6950
  481SOL    HW2 1443   1.023   1.106   0.915  0.8628  0.9797 -0.9471
  482SOL     OW 1444   1.579   0.279   2.045 -0.2053  0.2945 -0.4068
  482SOL    HW1 1445   1.596   0.379   2.018  0.8873 -3.6912 -2.5412
  482SOL    HW2 1446   1.665   0.234   2.086  0.9295 -1.8329  1.0635
  483SOL     OW 1447   0.126   2.308   1.274  0.0148  0.3404 -0.2718
  483SOL    HW1 1448   0.039   2.334   1.326  0.2745  0.1202 -1.9028
  483SOL    HW2 1449   0.126   2.346   1.176  0.6798 -0.2944  0.1712
  484SOL     OW 1450   1.744   1.064   1.371  0.3837  0.2545  0.4777
  484SOL    HW1 1451   1.819   0.995   1.371 -0.5219  0.6791  1.3743
  484SOL    HW2 1452   1.744   1.131   1.448 -3.2176 -1.1161  0.8490
  485SOL     OW 1453   0.655   1.042   1.812 -0.3269  0.4023  1.0680
  485SOL    HW1 1454   0.683   1.046   1.711 -1.0872  0.3388 -0.5262
  485SOL    HW2 1455   0.742   1.065   1.867 -1.5204 -0.8581 -0.7389
  486SOL     OW 1456   0.865   1.948   2.453  0.4737 -0.4244 -0.0162
  486SOL    HW1 1457   0.909   1.905   2.541 -0.9311 -1.1816 -1.6165
  486SOL    HW2 1458   0.831   2.044   2.450 -0.0190 -3.7434  0.4411
  487SOL     OW 1459   1.820   1.615   0.939 -0.8712 -0.3333 -0.2763
  487SOL    HW1 1460   1.902   1.566   0.977  0.9992 -0.4680 -1.0282
  487SOL    HW2 1461   1.829   1.642   0.842  0.0657 -0.1365  3.1987
  488SOL     OW 1462   2.949   0.869   2.259 -0.0190 -0.1737  0.2582
  488SOL    HW1 1463   2.942   0.765   2.262  0.5452  0.1167 -0.3434
  488SOL    HW2 1464   2.985   0.910   2.346 -2.2450  1.6453 -0.0043
  489SOL     OW 1465   2.762   0.227   1.309  0.0155  0.3819 -0.1052
  489SOL    HW1 1466   2.715   0.169   1.378  1.8268  2.3850 -2.7027
  489SOL    HW2 1467   2.864   0.216   1.304  1.7074 -0.4712 -0.0993
  490SOL     OW 1468   1.460   2.926   2.810  0.1843  0.1896 -0.4919
  490SOL    HW1 1469   1.518   2.841   2.805 -1.4386 -2.9770  0.2028
  490SOL    HW2 1470   1.428   2.961   2.715 -1.5759  0.2292 -0.5177
  491SOL     OW 1471   1.832   1.460   2.596  0.3451  0.2544 -0.4215
  491SOL    HW1 1472   1.789   1.410   2.678 -2.5942 -1.3528 -1.7419
  491SOL    HW2 1473   1.931   1.492   2.610 -0.7879 -1.8758  0.8854
  492SOL     OW 1474   0.531   1.968   0.669 -0.1496 -0.1790 -1.0650
  492SOL    HW1 1475   0.579   1.958   0.758  0.5624  2.5382  0.3607
  492SOL    HW2 1476   0.476   2.057   0.675  1.2529  0.6949 -0.1443
  493SOL     OW 1477   0.383   1.403   2.067  0.1583  0.2606  0.2073
  493SOL    HW1 1478   0.302   1.467   2.057 -1.1569 -0.4006  1.0380
  493SOL    HW2 1479   0.383   1.345   2.159  1.3789 -0.8318  0.8453
  494SOL     OW 1480   2.689   2.708   0.176 -0.7483  0.4520  0.3940
  494SOL    HW1 1481   2.654   2.690   0.276 -3.6144  1.0332  2.5976
  494SOL    HW2 1482   2.630   2.662   0.102 -1.0494 -1.0000  0.2515
  495SOL     OW 1483   2.773   2.660   2.707  0.8874 -0.1697 -0.5248
  495SOL    HW1 1484   2.685   2.602   2.698  1.0530 -0.6955 -1.0983
  495SOL    HW2 1485   2.808   2.694   2.616  0.6873  1.5696  1.0778
  496SOL     OW 1486   2.057   2.240   0.706  0.0757 -0.2766  0.0139
  496SOL    HW1 1487   2.066   2.278   0.803  0.7810 -0.3032  0.8570
  496SOL    HW2 1488   2.097   2.144   0.686 -0.4720 -0.2733  1.3255
  497SOL     OW 1489   0.253   2.963   2.462  0.0354 -0.1382  0.5519
  497SOL    HW1 1490   0.235   3.035   2.533  1.0312 -0.5419 -0.4906
  497SOL    HW2 1491   0.281   2.998   2.368 -1.3731  0.7239  0.6405
  498SOL     OW 1492   1.238   1.407   1.221  0.3173  0.0561  0.0465
  498SOL    HW1 1493   1.337   1.372   1.218 -1.7019 -0.2129  1.4397
  498SOL    HW2 1494   1.223   1.484   1.290  1.8754  0.6849  0.2622
  499SOL     OW 1495   0.706   1.862   0.452  0.0730  0.1867  0.3856
  499SOL    HW1 1496   0.696   1.774   0.507 -0.7694  3.0511  1.0797
  499SOL    HW2 1497   0.684   1.945   0.513 -0.0160  2.1917 -0.0990
  500SOL     OW 1498   1.457   2.885   1.674  0.4666  0.1268 -0.4653
  500SOL    HW1 1499   1.430   2.891   1.775  0.7727  1.9879  1.7471
  500SOL    HW2 1500   1.517   2.809   1.642 -1.5297 -0.2125 -2.7758
  501SOL     OW 1501   0.822   1.119   2.287  0.4124 -0.0707  0.3333
  501SOL    HW1 1502   0.739   1.064   2.277  2.0426  1.1874  0.8741
  501SOL    HW2 1503   0.885   1.129   2.204  0.7473  0.2531 -0.0218
  502SOL     OW 1504   2.626   0.949   1.726  0.3093 -0.3831 -0.0854
  502SOL    HW1 1505   2.626   0.965   1.624  1.2726 -0.5912 -0.0613
  502SOL    HW2 1506   2.564   0.867   1.755 -3.3777  2.3582 -1.5303
  503SOL     OW 1507   1.280   0.130   0.661 -0.5865  0.3351 -0.3585
  503SOL    HW1 1508   1.195   0.169   0.619 -0.5755  1.7594  1.7683
  503SOL    HW2 1509   1.353   0.195   0.697  1.6312 -0.8389  2.5960
  504SOL     OW 1510   3.029   2.337   1.452  0.4760  0.2017 -0.5288
  504SOL    HW1 1511   2.950   2.390   1.496  2.3827  0.9367 -1.5769
  504SOL    HW2 1512   3.109   2.315   1.512  0.1789  1.1310  3.1738
  505SOL     OW 1513   2.276   1.163   1.490 -0.3387  0.2517  0.5168
  505SOL    HW1 1514   2.297   1.182   1.393 -0.2228  1.2245  0.7876
  505SOL    HW2 1515   2.301   1.242   1.545 -3.7025 -3.3760 -0.7710
  506SOL     OW 1516   1.988   0.165   1.806  0.5769 -0.1598  0.0713
  506SOL    HW1 1517   2.053   0.114   1.863 -0.7064 -1.6302 -0.6608
  506SOL    HW2 1518   1.968   0.258   1.837  0.8479 -3.1112  0.2854
  507SOL     OW 1519   0.533   0.701   2.145  0.7611  0.2750  0.0450
  507SOL    HW1 1520   0.455   0.661   2.087 -4.6865 -0.4473  1.4942
  507SOL    HW2 1521   0.600   0.639   2.185 -1.0507 -0.3498 -0.5388
  508SOL     OW 1522   0.239   1.650   0.863 -0.4059  0.4119  0.6749
  508SOL    HW1 1523   0.273   1.724   0.797 -1.9258  2.5783  1.4741
  508SOL    HW2 1524   0.192   1.687   0.948  0.3661  1.3727  2.5478
  509SOL     OW 1525   1.253   1.252   2.331  0.7003  0.1043 -0.7098
  509SOL    HW1 1526   1.256   1.302   2.241  3.8162  0.2649  2.6374
  509SOL    HW2 1527   1.235   1.154   2.323  1.8143 -3.9345  1.7989
  510SOL     OW 1528   1.281   2.012   2.090  0.2537  0.2969 -0.6870
  510SOL    HW1 1529   1.285   2.117   2.080  1.7659  1.5560  1.4891
  510SOL    HW2 1530   1.210   1.984   2.157  1.6565 -0.6622  1.5282
  511SOL     OW 1531   3.055   2.792   1.307  0.3087 -0.2988 -0.0901
  511SOL    HW1 1532   3.044   2.736   1.221 -0.5532  1.4299 -0.0224
  511SOL    HW2 1533   2.973   2.777   1.371  2.2440  1.8954 -2.6811
  512SOL     OW 1534   2.380   0.456   1.347 -0.3264  0.0861  0.0637
  512SOL    HW1 1535   2.288   0.400   1.362 -0.5418  0.8660 -1.4221
  512SOL    HW2 1536   2.442   0.417   1.275 -1.1716 -0.7049  0.9506
  513SOL     OW 1537   2.537   2.042   0.837 -0.2261  0.2710 -0.2429
  513SOL    HW1 1538   2.472   2.080   0.763 -0.7560  1.8686 -1.2690
  513SOL    HW2 1539   2.621   2.004   0.793 -1.2190 -0.8868  4.1574
  514SOL     OW 1540   0.593   2.762   0.494 -0.0842  0.2220  0.7976
  514SOL    HW1 1541   0.595   2.794   0.396  0.6247  1.3661  0.8736
  514SOL    HW2 1542   0.673   2.805   0.546 -0.6823  1.1887  0.3983
  515SOL     OW 1543   2.011   1.132   2.328  1.1324 -0.5782 -0.3072
  515SOL    HW1 1544   1.987   1.145   2.220 -1.0175 -1.0028 -3.9285
  515SOL    HW2 1545   1.916   1.146   2.379 -3.2501  0.1065 -0.0447
  516SOL     OW 1546   0.209   0.329   1.899 -0.3071  0.3479  0.0854
  516SOL    HW1 1547   0.278   0.320   1.818  1.1206 -0.7436 -0.9715
  516SOL    HW2 1548   0.147   0.243   1.907 -0.3052  2.4704 -0.0136
  517SOL     OW 1549   0.463   3.089   1.171  0.2750 -0.3423 -0.3570
  517SOL    HW1 1550   0.480   3.179   1.219 -0.8165 -0.8602  1.5481
  517SOL    HW2 1551   0.361   3.064   1.186  2.0884 -0.9510  1.4733
  518SOL     OW 1552   2.249   0.002   1.825 -0.0422  0.5169 -0.0129
  518SOL    HW1 1553   2.288   0.091   1.858 -2.9008 -2.1472 -2.0925
  518SOL    HW2 1554   2.239  -0.007   1.723  3.4414 -0.4264 -0.2725
  519SOL     OW 1555   2.350   2.218   2.578  0.3063  0.3381  0.1144
  519SOL    HW1 1556   2.294   2.194   2.659  0.9305  0.7299  1.2309
  519SOL    HW2 1557   2.351   2.317   2.548  1.9562  1.4161 -1.2622
  520SOL     OW 1558   1.814   2.800   1.823 -0.1246  0.0884  0.8702
  520SOL    HW1 1559   1.724   2.799   1.868 -0.0369  0.3199 -0.9315
  520SOL    HW2 1560   1.847   2.704   1.796  0.1145 -2.3071  2.6449
  521SOL     OW 1561   0.589   0.007   2.143  0.0526  0.5093  0.3317
  521SOL    HW1 1562   0.487  -0.004   2.158 -0.7738 -1.0147 -2.3665
  521SOL    HW2 1563   0.646   0.004   2.232 -0.2142  0.1603 -1.2791
  522SOL     OW 1564   0.198   1.894   1.463  0.0281 -0.3910 -0.4520
  522SOL    HW1 1565   0.235   1.955   1.539  2.1480 -0.2852 -2.1259
  522SOL    HW2 1566   0.179   1.950   1.379 -0.2674  1.3812 -0.3349
  523SOL     OW 1567   2.243   3.008   1.558  0.0999  0.0132  0.0687
  523SOL    HW1 1568   2.336   2.964   1.550  2.7298 -0.9350 -0.2143
  523SOL    HW2 1569   2.170   2.942   1.525 -0.0737 -2.4518  2.9978
  524SOL     OW 1570   0.164   2.814   2.847  0.2585  0.3993 -0.2207
  524SOL    HW1 1571   0.130   2.912   2.851  2.1828  1.4151 -0.5503
  524SOL    HW2 1572   0.265   2.824   2.824  1.8538  0.6004  0.8666
  525SOL     OW 1573   2.160   2.032   0.466  0.0703  0.1115  0.4843
  525SOL    HW1 1574   2.168   1.970   0.549  0.2541 -2.3964 -0.5773
  525SOL    HW2 1575   2.163   1.975   0.381 -0.3090 -0.0596  2.5596
  526SOL     OW 1576   0.427   1.567   1.665 -0.4885 -0.1438  0.1766
  526SOL    HW1 1577   0.463   1.602   1.756 -0.1298 -0.7815 -0.1550
  526SOL    HW2 1578   0.467   1.471   1.647  1.3208 -1.4519  0.5602
  527SOL     OW 1579   1.068   2.927   1.226  0.6333  0.4693  0.3780
  527SOL    HW1 1580   1.154   2.870   1.244  0.6068 -0.7023  0.3010
  527SOL    HW2 1581   1.089   3.029   1.222 -0.3185 -0.9399 -0.3845
  528SOL     OW 1582   1.324   2.423   0.553 -0.0193 -0.2531 -0.1754
  528SOL    HW1 1583   1.344   2.321   0.551 -1.4312 -2.6007 -0.1086
  528SOL    HW2 1584   1.397   2.476   0.609  2.8378 -1.1415 -0.0981
  529SOL     OW 1585   1.942   1.736   0.673  0.2037 -0.5470 -0.0022
  529SOL    HW1 1586   1.893   1.741   0.582  0.6609 -1.6161 -3.5471
  529SOL    HW2 1587   1.908   1.812   0.739  1.2117  0.5316  1.7545
  530SOL     OW 1588   0.301   2.614   0.296 -0.1915 -0.1894 -0.0637
  530SOL    HW1 1589   0.298   2.679   0.375 -1.3032 -1.5290  0.9657
  530SOL    HW2 1590   0.345   2.522   0.331  2.0175 -1.8927  0.4185
  531SOL     OW 1591   1.834   0.993   0.979 -0.5563  0.3728  0.6479
  531SOL    HW1 1592   1.897   1.001   0.894  0.5670 -3.2718  2.1235
  531SOL    HW2 1593   1.735   0.980   0.953  1.2246 -1.1103  1.6426
  532SOL     OW 1594   0.430   1.170   0.715  0.4026 -0.4069  0.6395
  532SOL    HW1 1595   0.478   1.157   0.628  0.2650 -0.4164 -2.3740
  532SOL    HW2 1596   0.401   1.076   0.751 -0.1983 -1.6669  0.4617
  533SOL     OW 1597   1.734   0.014   2.592  0.2459  0.3810  0.2164
  533SOL    HW1 1598   1.838   0.007   2.607 -0.0108  0.3197 -0.4144
  533SOL    HW2 1599   1.690   0.085   2.659  2.9412 -0.2469  1.8687
  534SOL     OW 1600   0.367   0.206   1.646 -0.2766  0.0193  0.1636
  534SOL    HW1 1601   0.453   0.179   1.602 -0.6397 -0.1984 -0.8860
  534SOL    HW2 1602   0.339   0.301   1.624  1.0824  1.7001  0.3739
  535SOL     OW 1603   1.970   0.356   0.139  0.3668 -0.4429  0.0800
  535SOL    HW1 1604   1.972   0.431   0.217  0.8474 -1.4331  3.1090
  535SOL    HW2 1605   1.932   0.264   0.175 -0.3890 -0.2968  0.0591
  536SOL     OW 1606   1.403   2.565   0.931 -0.3149  0.3518 -0.1572
  536SOL    HW1 1607   1.398   2.530   1.028 -1.5668 -1.6386 -1.1279
  536SOL    HW2 1608   1.312   2.608   0.896  0.0551  2.1458  0.4784
  537SOL     OW 1609   0.788   0.246   2.403  0.3427  0.0827  0.0057
  537SOL    HW1 1610   0.748   0.291   2.320 -2.7954  0.9925  1.3287
  537SOL    HW2 1611   0.763   0.146   2.411 -0.7791 -0.5253  3.7338
  538SOL     OW 1612   1.647   2.372   1.561  0.0169 -0.1747  0.0440
  538SOL    HW1 1613   1.631   2.273   1.545 -1.8785  0.7432  4.0384
  538SOL    HW2 1614   1.714   2.409   1.494  0.6832  0.1206  1.2037
  539SOL     OW 1615   0.214   1.613   2.731 -0.0228  0.1740  0.1803
  539SOL    HW1 1616   0.126   1.624   2.672 -1.0334  3.6767 -1.9755
  539SOL    HW2 1617   0.205   1.673   2.815  0.6022  1.7550 -0.6831
  540SOL     OW 1618   2.680   1.722   1.920 -0.6791  0.4194 -0.1113
  540SOL    HW1 1619   2.640   1.657   1.985  0.4627  1.1719 -0.3611
  540SOL    HW2 1620   2.633   1.809   1.923  1.1803  1.2479 -2.2015
  541SOL     OW 1621   0.469   2.200   0.019 -0.1985 -0.1592  0.1343
  541SOL    HW1 1622   0.511   2.172   0.111  1.6217  0.4281  0.6438
  541SOL    HW2 1623   0.366   2.173   0.014  0.4452  2.0089 -1.6088
  542SOL     OW 1624   2.254   2.585   0.445 -0.5771  0.3493 -0.0274
  542SOL    HW1 1625   2.253   2.690   0.447  1.2732 -0.4097 -1.4629
  542SOL    HW2 1626   2.162   2.535   0.446  0.8237 -0.4874 -1.3890
  543SOL     OW 1627   1.083   1.854   1.557 -0.2746  0.1310  0.2368
  543SOL    HW1 1628   1.079   1.925   1.636  1.6551 -0.2685  0.6187
  543SOL    HW2 1629   1.061   1.897   1.466  2.1133  0.8161  0.5787
  544SOL     OW 1630   1.018   0.420   0.178  0.4851  0.5741  0.7775
  544SOL    HW1 1631   1.068   0.343   0.231  2.7903 -0.2457  1.1782
  544SOL    HW2 1632   1.008   0.397   0.073  2.5421 -2.1127 -1.6862
  545SOL     OW 1633   1.099   1.724   0.808 -0.2061 -0.1052  0.3271
  545SOL    HW1 1634   1.191   1.745   0.766  2.1591  1.9200  1.1323
  545SOL    HW2 1635   1.097   1.641   0.867  0.4017 -0.2665 -1.5881
  546SOL     OW 1636   2.625   1.469   3.016 -1.1520  0.0507  0.2199
  546SOL    HW1 1637   2.557   1.530   2.973 -1.7466 -0.6955  0.9952
  546SOL    HW2 1638   2.578   1.419   3.094 -0.3234 -0.0639 -0.8420
  547SOL     OW 1639   0.608   3.035   2.678  0.3087 -0.2287 -0.2640
  547SOL    HW1 1640   0.710   3.011   2.674  4.3406 -2.6078 -2.7068
  547SOL    HW2 1641   0.545   2.958   2.705  1.3001 -0.4288  2.4226
  548SOL     OW 1642   2.083   0.919   2.947 -0.3343  0.5391 -0.5280
  548SOL    HW1 1643   1.989   0.876   2.957  3.4623  0.4050 -0.5901
  548SOL    HW2 1644   2.106   0.990   3.024  0.2793  1.1153 -0.2327
  549SOL     OW 1645   0.696   0.524   0.200 -0.2653 -0.0151 -0.1927
  549SOL    HW1 1646   0.637   0.554   0.122 -2.6417  1.8305  0.6007
  549SOL    HW2 1647   0.785   0.585   0.204  3.8177  3.6223 -2.7540
  550SOL     OW 1648   2.585   2.834   2.904  0.4878  0.6269 -0.2413
  550SOL    HW1 1649   2.556   2.766   2.981  2.6761 -2.8472  1.0695
  550SOL    HW2 1650   2.651   2.785   2.843 -0.4552 -0.9386  1.5898
  551SOL     OW 1651   0.269   0.871   0.230  0.4196 -0.4042  0.0307
  551SOL    HW1 1652   0.365   0.829   0.215  0.1007 -0.4010 -0.9376
  551SOL    HW2 1653   0.249   0.879   0.331  0.2869  1.3057 -0.7754
  552SOL     OW 1654   0.648   2.950   1.902 -0.3858  0.4660  0.5344
  552SOL    HW1 1655   0.626   2.989   1.991 -0.7526 -0.4530  1.2034
  552SOL    HW2 1656   0.746   2.964   1.876 -2.4197  1.3033 -0.4303
  553SOL     OW 1657   2.956   2.504   0.365 -0.5391 -0.2059  0.3354
  553SOL    HW1 1658   2.902   2.419   0.364 -1.0568  1.1254 -0.9351
  553SOL    HW2 1659   2.951   2.558   0.454  3.7946 -1.9882  0.4233
  554SOL     OW 1660   2.147   0.389   0.569 -0.2734  0.2280 -0.0181
  554SOL    HW1 1661   2.204   0.388   0.485 -1.7813 -2.9865  0.7769
  554SOL    HW2 1662   2.140   0.298   0.618  0.9806  0.5366 -1.3271
  555SOL     OW 1663   0.381   2.733   2.508 -0.0538  0.1976 -0.8269
  555SOL    HW1 1664   0.324   2.817   2.514 -1.4097  0.7408  0.3988
  555SOL    HW2 1665   0.422   2.720   2.418 -2.4199  2.6580  0.6850
  556SOL     OW 1666   0.838   2.391   1.516 -0.0040 -0.3904  0.0374
  556SOL    HW1 1667   0.902   2.442   1.581  0.2567  0.8765  3.0614
  556SOL    HW2 1668   0.887   2.366   1.430 -1.1270 -0.2099  0.8306
  557SOL     OW 1669   0.121   2.100   0.227  0.7370 -0.1883  0.2838
  557SOL    HW1 1670   0.021   2.126   0.224  1.5088  0.0069 -0.6411
  557SOL    HW2 1671   0.154   2.089   0.128 -0.9090  1.5707  0.5145
  558SOL     OW 1672   2.807   2.283   0.348 -0.0109 -0.1166  0.3105
  558SOL    HW1 1673   2.702   2.297   0.343  0.6742 -2.0838  2.3962
  558SOL    HW2 1674   2.845   2.207   0.293  0.1034  0.4992  2.4088
  559SOL     OW 1675   0.372   2.277   1.407 -0.0133 -0.1596 -0.2006
  559SOL    HW1 1676   0.290   2.297   1.350  0.4955  0.4465  1.1239
  559SOL    HW2 1677   0.422   2.196   1.365 -0.2479  0.6672  1.2935
  560SOL     OW 1678   2.119   1.188   3.070  0.2225  0.3511  0.2265
  560SOL    HW1 1679   2.111   1.185   3.176  0.1873  0.5033  1.2306
  560SOL    HW2 1680   2.167   1.269   3.030  1.0470  0.7054  0.4257
  561SOL     OW 1681   3.066   1.855   0.027  0.5034 -0.0680 -0.4084
  561SOL    HW1 1682   3.035   1.797   0.107 -1.6564  1.5140 -2.3419
  561SOL    HW2 1683   3.017   1.946   0.018  3.7344 -1.4594  0.0061
  562SOL     OW 1684   0.957   2.221   2.330  0.1919 -0.0058  0.1745
  562SOL    HW1 1685   0.884   2.260   2.391 -4.5002  1.8560 -1.6038
  562SOL    HW2 1686   1.037   2.191   2.387 -2.9590 -2.3119 -1.3950
  563SOL     OW 1687   0.696   2.587   2.622 -0.5146  0.0219  0.1649
  563SOL    HW1 1688   0.789   2.536   2.610  0.1938 -1.8735  0.8214
  563SOL    HW2 1689   0.676   2.606   2.722  0.4430 -0.4368 -0.1481
  564SOL     OW 1690   2.825   1.332   2.903  0.1863  0.2765  0.0168
  564SOL    HW1 1691   2.739   1.369   2.951  1.0405  0.1863 -2.0014
  564SOL    HW2 1692   2.884   1.415   2.876  2.1202  0.9265  0.8697
  565SOL     OW 1693   2.533   2.004   2.644 -0.1084 -0.3940  0.1537
  565SOL    HW1 1694   2.481   2.076   2.594 -1.8161  0.5737  0.0754
  565SOL    HW2 1695   2.620   2.037   2.686  0.4823 -3.4970 -1.3870
  566SOL     OW 1696   2.079   2.820   1.418 -0.2121 -0.3458 -0.6819
  566SOL    HW1 1697   2.035   2.730   1.440 -3.2241  1.7588  0.5681
  566SOL    HW2 1698   2.031   2.871   1.339  2.4220  2.1804 -0.6049
  567SOL     OW 1699   2.424   3.057   2.388  0.1259 -0.7166  0.5556
  567SOL    HW1 1700   2.321   3.042   2.375  1.7470  3.6593  0.8924
  567SOL    HW2 1701   2.477   3.093   2.307  1.4358  1.4627  1.0762
  568SOL     OW 1702   1.537   1.739   0.208  0.2928  0.0944 -0.1578
  568SOL    HW1 1703   1.453   1.796   0.192  0.8936 -0.6031  0.5999
  568SOL    HW2 1704   1.617   1.802   0.225 -0.7148 -2.3077 -1.6364
  569SOL     OW 1705   0.283   0.634   0.843 -0.7140  0.0078 -0.0485
  569SOL    HW1 1706   0.340   0.550   0.823  0.5133  1.8095 -0.5086
  569SOL    HW2 1707   0.178   0.609   0.839 -0.6411  0.9445 -4.2253
  570SOL     OW 1708   0.627   0.863   2.933  0.6077  0.0388  0.3526
  570SOL    HW1 1709   0.676   0.911   2.859 -0.7215  1.1359 -0.1121
  570SOL    HW2 1710   0.623   0.921   3.019  1.0937 -0.4164 -2.3918
  571SOL     OW 1711   0.790   3.067   1.048 -0.0796  0.0729  0.7456
  571SOL    HW1 1712   0.866   3.108   0.990  2.0228  2.4755 -1.8885
  571SOL    HW2 1713   0.759   2.978   1.008 -2.2838 -0.0211  0.7986
  572SOL     OW 1714   1.638   2.587   1.334  0.2174  0.3582  0.2575
  572SOL    HW1 1715   1.549   2.534   1.301  0.4141 -0.1383 -1.3799
  572SOL    HW2 1716   1.623   2.690   1.330  0.2568  0.0983  2.2436
  573SOL     OW 1717   2.904   0.498   2.001 -0.6685 -0.4678  0.2630
  573SOL    HW1 1718   2.824   0.438   1.979  2.1851  0.9522 -0.4071
  573SOL    HW2 1719   2.984   0.477   1.939  0.2167  2.3414 -2.1223
  574SOL     OW 1720   0.139   1.783   1.083  0.0589 -0.1794 -0.0339
  574SOL    HW1 1721   0.163   1.878   1.111  1.6703  1.1895  0.0215
  574SOL    HW2 1722   0.050   1.745   1.119 -2.4702  3.2264 -0.9165
  575SOL     OW 1723   0.831   2.184   0.922 -0.0652 -0.0285 -0.2231
  575SOL    HW1 1724   0.815   2.222   1.020 -0.0186  4.2725  2.0196
  575SOL    HW2 1725   0.870   2.257   0.859 -0.2199  0.5521 -0.3827
  576SOL     OW 1726   2.866   3.000   1.681 -0.2991 -0.0252  0.0199
  576SOL    HW1 1727   2.765   3.000   1.696  1.2344  0.6936 -1.7977
  576SOL    HW2 1728   2.912   3.093   1.681 -0.7560  0.6373  1.4246
  577SOL     OW 1729   2.499   1.210   3.101  0.5771  0.0162  0.2081
  577SOL    HW1 1730   2.504   1.135   3.027  1.5313  0.8551 -1.0238
  577SOL    HW2 1731   2.587   1.221   3.159  2.4603 -0.8611 -3.5831
  578SOL     OW 1732   1.452   2.713   2.438  0.7144 -0.0987  0.1432
  578SOL    HW1 1733   1.354   2.742   2.433 -1.5347 -3.9271  1.4653
  578SOL    HW2 1734   1.518   2.797   2.452  0.0609  0.8431  0.9634
  579SOL     OW 1735   0.059   2.499   0.170 -0.0111 -0.2811  0.4089
  579SOL    HW1 1736  -0.023   2.503   0.234  0.0322 -0.3057 -1.1180
  579SOL    HW2 1737   0.147   2.484   0.225 -0.1246  0.1430  3.1592
  580SOL     OW 1738   0.954   2.672   0.381 -0.0406 -0.3112  0.1398
  580SOL    HW1 1739   1.013   2.731   0.321  1.4800  1.0594 -1.7542
  580SOL    HW2 1740   0.892   2.603   0.328  1.1789 -0.7235  3.3513
  581SOL     OW 1741   1.224   2.668   1.455 -0.3831  0.0156 -0.0196
  581SOL    HW1 1742   1.287   2.588   1.482  1.2944  2.0666 -1.4586
  581SOL    HW2 1743   1.263   2.729   1.382  2.8521  0.2534  1.5563
  582SOL     OW 1744   1.509   0.088   1.853 -0.5952  0.6044  0.3303
  582SOL    HW1 1745   1.528   0.162   1.926  1.6152  2.2289 -0.4120
  582SOL    HW2 1746   1.598   0.068   1.802  0.4096 -0.6263  0.1015
  583SOL     OW 1747   2.447   3.069   0.534 -0.4209 -0.1691 -0.9112
  583SOL    HW1 1748   2.533   3.014   0.522  0.2362  1.7869  0.8290
  583SOL    HW2 1749   2.367   3.006   0.545  2.1401  3.6213 -0.5975
  584SOL     OW 1750   1.540   1.080   2.170 -0.0759  0.7809  0.6806
  584SOL    HW1 1751   1.586   1.172   2.146 -0.3905  0.3134 -0.8707
  584SOL    HW2 1752   1.603   1.031   2.233 -2.3628  0.1230  1.3918
  585SOL     OW 1753   2.156   2.683   2.934 -0.1542  0.3380  0.0718
  585SOL    HW1 1754   2.164   2.586   2.908 -0.0054  1.7838 -0.8534
  585SOL    HW2 1755   2.054   2.713   2.943 -1.7553 -0.9871 -0.9263
  586SOL     OW 1756   2.823   0.354   1.628 -0.0292 -0.6586  0.0099
  586SOL    HW1 1757   2.806   0.452   1.660 -0.3639  3.1452  2.2947
  586SOL    HW2 1758   2.736   0.323   1.586  0.0934 -0.7812  1.3459
  587SOL     OW 1759   2.089   1.541   2.654  0.2535 -0.3465  0.5679
  587SOL    HW1 1760   2.114   1.461   2.591 -0.8709 -1.5727 -0.4409
  587SOL    HW2 1761   2.093   1.529   2.758  0.5014  2.3569  0.0021
  588SOL     OW 1762   0.447   2.655   2.233  0.2289  0.3054 -0.3168
  588SOL    HW1 1763   0.356   2.624   2.189 -1.0085  0.6656  0.0589
  588SOL    HW2 1764   0.484   2.579   2.288 -1.6025 -0.9991 -1.0826
  589SOL     OW 1765   2.140   1.340   2.471  0.0836 -0.0971 -0.2725
  589SOL    HW1 1766   2.086   1.269   2.420 -0.3676 -0.0703  0.1022
  589SOL    HW2 1767   2.241   1.336   2.451  2.0074  0.1899  2.7780
  590SOL     OW 1768   2.335   1.709   2.041  0.0876  0.3154  0.2513
  590SOL    HW1 1769   2.392   1.621   2.048 -4.1721  0.7059 -2.3445
  590SOL    HW2 1770   2.347   1.761   2.128  0.1246 -1.0935 -2.2075
  591SOL     OW 1771   1.267   2.422   0.204 -0.5977  0.1363  0.1233
  591SOL    HW1 1772   1.277   2.335   0.150  2.4528  0.3253 -1.5870
  591SOL    HW2 1773   1.294   2.413   0.303 -0.2783  0.3648 -2.6339
  592SOL     OW 1774   1.766   2.290   0.734 -0.3714  0.6392 -0.0189
  592SOL    HW1 1775   1.715   2.359   0.671 -2.6630 -1.9623 -1.5072
  592SOL    HW2 1776   1.863   2.278   0.705 -0.1134  1.8859  0.0585
  593SOL     OW 1777   0.705   0.232   0.218  0.0803  0.1293 -0.1310
  593SOL    HW1 1778   0.738   0.194   0.125 -1.1208 -2.3351  0.4074
  593SOL    HW2 1779   0.718   0.336   0.223 -2.7405  0.6648  2.8403
  594SOL     OW 1780   1.016   1.823   2.685 -0.3967 -0.3094  0.1887
  594SOL    HW1 1781   1.103   1.795   2.635 -1.0300  0.3633  0.6327
  594SOL    HW2 1782   1.034   1.886   2.772  2.2278  1.6359  0.3970
  595SOL     OW 1783   1.549   0.037   1.081  0.2418  0.2745 -0.2240
  595SOL    HW1 1784   1.604  -0.013   1.010 -1.6463  0.8965  0.9544
  595SOL    HW2 1785   1.448   0.021   1.067  0.8733 -0.3110 -0.3351
  596SOL     OW 1786   0.041   1.511   2.267  0.1271  1.2425 -0.0796
  596SOL    HW1 1787   0.089   1.419   2.251  0.9210 -1.8160  0.9320
  596SOL    HW2 1788   0.029   1.533   2.370 -0.5858 -0.7115  2.3498
  597SOL     OW 1789   1.929   2.583   1.727  0.0339  0.8077 -0.0234
  597SOL    HW1 1790   1.934   2.608   1.625 -3.8734  1.4983 -0.9666
  597SOL    HW2 1791   2.008   2.528   1.770 -0.3038  1.8438  2.0576
  598SOL     OW 1792   2.552   2.925   1.221 -0.3143 -0.4871 -0.1292
  598SOL    HW1 1793   2.633   2.937   1.286  0.7789 -0.2442 -0.6933
  598SOL    HW2 1794   2.580   2.930   1.122  1.2091  0.3146  1.1645
  599SOL     OW 1795   2.875   0.327   2.489  0.3086 -0.2518 -0.6323
  599SOL    HW1 1796   2.960   0.381   2.457  0.6021 -0.1774 -1.3489
  599SOL    HW2 1797   2.785   0.346   2.436 -3.3519 -0.3598  4.4933
  600SOL     OW 1798   2.798   1.115   2.734  0.4855 -0.8055 -0.4059
  600SOL    HW1 1799   2.784   1.021   2.772 -0.9626  1.3514  2.6026
  600SOL    HW2 1800   2.786   1.188   2.808 -2.8764 -0.3515  0.7126
  601SOL     OW 1801   3.031   1.316   2.005  0.3913  0.1469  0.2975
  601SOL    HW1 1802   2.949   1.360   1.955  1.9047 -2.6647 -0.0092
  601SOL    HW2 1803   3.117   1.369   1.990  0.1721  1.9135  0.7255
  602SOL     OW 1804   1.433   1.739   2.286  0.5593 -0.6263 -0.2453
  602SOL    HW1 1805   1.366   1.685   2.343 -1.7068 -1.9045  1.7231
  602SOL    HW2 1806   1.529   1.740   2.325  0.0775  2.4750  1.1898
  603SOL     OW 1807   0.610   1.212   2.795  0.1937  0.0310  0.5863
  603SOL    HW1 1808   0.538   1.198   2.722  0.8076 -0.4809  1.1091
  603SOL    HW2 1809   0.677   1.137   2.783 -1.2505 -0.2990 -1.8757
  604SOL     OW 1810   2.396   1.003   0.163  0.3761 -0.2721  0.2114
  604SOL    HW1 1811   2.440   1.081   0.112 -1.4950 -1.5985 -1.3923
  604SOL    HW2 1812   2.384   0.915   0.101 -1.9283  0.9646  0.9614
  605SOL     OW 1813   2.512   1.128   1.925 -0.4737  0.1200 -0.2448
  605SOL    HW1 1814   2.563   1.086   1.846  1.1865 -0.9470 -3.0770
  605SOL    HW2 1815   2.574   1.141   2.008 -1.2136 -0.3202  0.1249
  606SOL     OW 1816   1.558   2.477   2.568  0.3301 -0.1369  0.3898
  606SOL    HW1 1817   1.541   2.570   2.518  1.2892  1.4405  0.0243
  606SOL    HW2 1818   1.478   2.411   2.574  0.6772 -1.1956 -1.3591
  607SOL     OW 1819   1.329   1.579   0.324  0.0006  0.4549 -0.4270
  607SOL    HW1 1820   1.259   1.646   0.358  3.6258 -1.5298 -0.0801
  607SOL    HW2 1821   1.419   1.622   0.299 -0.1512 -1.6651  0.2792
  608SOL     OW 1822   1.444   2.812   0.403  0.2824  0.4067  0.0005
  608SOL    HW1 1823   1.500   2.846   0.324 -2.9412  0.1479 -0.3688
  608SOL    HW2 1824   1.387   2.887   0.442  0.2264 -2.4318 -0.0174
  609SOL     OW 1825   1.274   1.325   0.268  0.1724 -0.4859  0.0779
  609SOL    HW1 1826   1.300   1.428   0.282 -0.1921 -0.3343  0.4902
  609SOL    HW2 1827   1.248   1.303   0.174 -3.3458  1.3392  3.5419
  610SOL     OW 1828   2.944   1.152   2.223  0.0536 -0.2994 -0.4584
  610SOL    HW1 1829   2.950   1.050   2.229 -2.0549  0.0701 -0.1224
  610SOL    HW2 1830   2.965   1.192   2.129  1.8671 -0.6015 -0.2169
  611SOL     OW 1831   2.518   0.293   1.166 -0.3261  0.0841 -0.0850
  611SOL    HW1 1832   2.461   0.205   1.164 -0.3370 -0.3608  3.5793
  611SOL    HW2 1833   2.607   0.284   1.221 -1.2234  1.8786  0.0666
  612SOL     OW 1834   0.754   2.254   1.178  0.1472 -0.4729  0.5777
  612SOL    HW1 1835   0.688   2.215   1.243 -2.2572  1.1234 -1.3381
  612SOL    HW2 1836   0.720   2.354   1.153 -3.6642  1.4695  0.8343
  613SOL     OW 1837   0.804   1.376   2.397 -0.2158 -0.5649 -0.1620
  613SOL    HW1 1838   0.801   1.439   2.317 -1.0548 -1.7480  0.0188
  613SOL    HW2 1839   0.793   1.279   2.364 -2.1594  0.4363 -1.2303
  614SOL     OW 1840   1.559   1.689   1.973  0.0253  0.1898  0.2009
  614SOL    HW1 1841   1.497   1.766   1.942  0.5688 -2.3762  0.6546
  614SOL    HW2 1842   1.620   1.724   2.049  2.2659  2.2680 -2.1932
  615SOL     OW 1843   0.798   1.359   1.737 -0.7834  0.3760  0.4789
  615SOL    HW1 1844   0.721   1.341   1.670 -0.5207 -3.9907 -0.0755
  615SOL    HW2 1845   0.864   1.423   1.699 -0.4784 -3.4927  0.4060
  616SOL     OW 1846   1.068   1.626   2.152  0.2934  0.2574  0.4487
  616SOL    HW1 1847   0.979   1.575   2.148  0.6862  3.0329  2.5080
  616SOL    HW2 1848   1.100   1.658   2.054  1.6061  0.6208  0.9697
  617SOL     OW 1849   2.961   1.577   1.553  0.1348  0.0268 -0.6810
  617SOL    HW1 1850   2.964   1.522   1.643 -0.5357 -1.0308  0.2639
  617SOL    HW2 1851   2.965   1.518   1.463 -1.3768  0.5009 -0.7817
  618SOL     OW 1852   1.920   2.043   1.428  0.0894  0.3690 -0.3021
  618SOL    HW1 1853   1.955   2.023   1.336  0.8790 -0.1515  2.3923
  618SOL    HW2 1854   1.856   1.970   1.460  0.6618  0.6954 -0.9076
  619SOL     OW 1855   1.742   0.501   2.407  0.1230  0.1790 -0.2333
  619SOL    HW1 1856   1.660   0.537   2.352  1.6667 -1.5783  0.5091
  619SOL    HW2 1857   1.739   0.400   2.434 -0.4868 -0.3928 -2.9244
  620SOL     OW 1858   2.205   2.982   0.623 -0.0853 -0.3487 -0.6131
  620SOL    HW1 1859   2.163   3.074   0.653 -1.5581  2.3526 -0.0403
  620SOL    HW2 1860   2.236   2.923   0.702 -2.8118  2.2524  0.1285
  621SOL     OW 1861   2.132   1.859   1.309  0.1940 -0.5592 -0.3497
  621SOL    HW1 1862   2.132   1.863   1.414 -0.7388  2.8133  0.2935
  621SOL    HW2 1863   2.106   1.766   1.272  0.9081  3.4790  0.4725
  622SOL     OW 1864   2.220   0.878   1.786 -0.6893 -0.4587 -0.0837
  622SOL    HW1 1865   2.315   0.868   1.746  1.4833 -0.2374  0.1731
  622SOL    HW2 1866   2.191   0.794   1.839 -2.3551 -0.0958  2.2150
  623SOL     OW 1867   1.367   0.805   2.626  0.7383 -0.1467  0.2588
  623SOL    HW1 1868   1.311   0.751   2.694 -1.4663 -1.1703  2.1042
  623SOL    HW2 1869   1.303   0.849   2.555 -0.3251 -2.0967 -0.9853
  624SOL     OW 1870   0.558   0.636   3.093 -0.6749  0.2198  0.6668
  624SOL    HW1 1871   0.603   0.686   3.008 -0.1428 -0.7048  1.0606
  624SOL    HW2 1872   0.534   0.699   3.174 -2.4720 -0.3427  2.0446
  625SOL     OW 1873   2.818   1.753   0.952 -0.3747  0.0012 -0.1889
  625SOL    HW1 1874   2.713   1.745   0.956  0.7772 -1.9574  0.7929
  625SOL    HW2 1875   2.859   1.749   1.046  1.4137 -2.4401 -2.0143
  626SOL     OW 1876   0.592   2.675   1.861 -0.5617 -0.2698 -0.2146
  626SOL    HW1 1877   0.618   2.770   1.899 -0.1818 -0.1532  1.2071
  626SOL    HW2 1878   0.497   2.674   1.816 -1.0385 -0.1698 -0.2671
  627SOL     OW 1879   0.713   0.981   1.553  0.2003 -0.2247 -0.4241
  627SOL    HW1 1880   0.759   0.889   1.570  0.9986  2.9916  3.7743
  627SOL    HW2 1881   0.765   1.054   1.497  0.0626 -1.3198 -1.2815
  628SOL     OW 1882   2.394   0.166   0.729  0.0785 -0.0349 -0.2423
  628SOL    HW1 1883   2.426   0.080   0.680  1.4692  1.1686  2.9843
  628SOL    HW2 1884   2.291   0.181   0.727 -3.7052 -1.5245  2.4727
  629SOL     OW 1885   1.969   0.897   2.015  0.5476  0.4645 -0.0250
  629SOL    HW1 1886   2.066   0.894   1.978  2.0177 -0.6415  1.5666
  629SOL    HW2 1887   1.933   0.995   2.032 -3.2346  0.9858  0.4768
  630SOL     OW 1888   2.830   2.210   0.788  0.2976  0.1226 -0.7801
  630SOL    HW1 1889   2.762   2.288   0.806 -0.1813 -2.4673 -1.5357
  630SOL    HW2 1890   2.793   2.121   0.821 -1.1280  1.5604 -0.9641
  631SOL     OW 1891   2.938   0.139   2.117  0.2795  0.1322 -0.0080
  631SOL    HW1 1892   2.973   0.192   2.203 -0.7680  0.6997  1.3345
  631SOL    HW2 1893   3.017   0.114   2.057  3.2869  0.5481  0.3880
  632SOL     OW 1894   2.421   2.521   0.659  0.1759 -0.1395 -0.3270
  632SOL    HW1 1895   2.497   2.574   0.700 -0.9195  3.5909  0.0918
  632SOL    HW2 1896   2.408   2.530   0.555 -0.2500 -4.0016 -0.5352
  633SOL     OW 1897   1.474   1.280   2.519 -0.1402  0.2742  0.1806
  633SOL    HW1 1898   1.479   1.354   2.590  2.0861 -1.2348  0.3602
  633SOL    HW2 1899   1.397   1.283   2.452  0.9909  0.3253  0.1268
  634SOL     OW 1900   0.651   1.977   0.913  0.1313  0.2015  0.0344
  634SOL    HW1 1901   0.575   1.987   0.981  1.9053  0.1124  1.2787
  634SOL    HW2 1902   0.714   2.061   0.915 -1.4801  0.0919  0.3788
  635SOL     OW 1903   3.092   2.322   3.053  0.0707 -0.1361 -0.0515
  635SOL    HW1 1904   3.038   2.388   2.999 -1.3977  1.3284  1.0205
  635SOL    HW2 1905   3.114   2.359   3.147  2.2375 -0.2311  0.0111
  636SOL     OW 1906   2.285   2.716   2.077  0.1708 -0.1143 -0.1158
  636SOL    HW1 1907   2.298   2.819   2.074  0.6080  2.3832  0.7598
  636SOL    HW2 1908   2.245   2.693   2.167  3.8771 -1.1076 -1.3474
  637SOL     OW 1909   2.582   0.720   2.019  0.1172 -0.8370  0.8436
  637SOL    HW1 1910   2.540   0.725   1.923 -0.0911 -0.5346 -0.9028
  637SOL    HW2 1911   2.627   0.807   2.046 -1.4471 -0.9109 -0.9041
  638SOL     OW 1912   2.389   1.821   1.275  0.2721  0.4514  0.1135
  638SOL    HW1 1913   2.287   1.852   1.294 -1.7354  2.3885 -1.1162
  638SOL    HW2 1914   2.435   1.763   1.351 -0.9187  1.3355  0.3482
  639SOL     OW 1915   1.319   2.211   1.705  0.1282  0.5452 -0.2040
  639SOL    HW1 1916   1.348   2.175   1.609 -0.4029  1.1132 -0.9040
  639SOL    HW2 1917   1.224   2.170   1.725  0.3118  0.3350 -3.1370
  640SOL     OW 1918   0.199   1.180   1.557 -0.2114  0.6616 -0.0777
  640SOL    HW1 1919   0.204   1.220   1.656 -0.0393  1.1806 -0.1116
  640SOL    HW2 1920   0.291   1.140   1.531 -1.7834 -1.7614  3.2105
  641SOL     OW 1921   2.045   0.109   1.541 -0.0272 -0.3496 -0.3883
  641SOL    HW1 1922   1.988   0.122   1.627 -0.1428 -1.5386 -1.8257
  641SOL    HW2 1923   2.110   0.025   1.542  3.6531 -0.1589 -1.4323
  642SOL     OW 1924   1.951   0.118   0.292  0.0956 -0.0806 -0.1641
  642SOL    HW1 1925   2.045   0.114   0.344  0.3822  0.3754 -0.6767
  642SOL    HW2 1926   1.872   0.062   0.336  0.6143  0.0098 -1.8125
  643SOL     OW 1927   2.882   1.864   2.072  0.2619  0.4009  0.0619
  643SOL    HW1 1928   2.837   1.770   2.051 -0.9086 -0.1996 -2.5150
  643SOL    HW2 1929   2.895   1.924   1.987  0.2801 -0.8044 -0.6535
  644SOL     OW 1930   2.263   2.356   1.200 -0.0748 -0.3980 -0.0162
  644SOL    HW1 1931   2.308   2.271   1.175 -0.4214  0.5496 -0.7070
  644SOL    HW2 1932   2.242   2.348   1.302  0.2296  0.7700  1.1911
  645SOL     OW 1933   0.638   0.871   1.233 -0.2626  0.1365 -0.6198
  645SOL    HW1 1934   0.538   0.843   1.238 -0.0357 -0.3298 -2.1770
  645SOL    HW2 1935   0.676   0.859   1.135  0.9455  0.7273 -2.9223
  646SOL     OW 1936   1.428   1.938   1.882 -0.2175 -0.1082 -0.2236
  646SOL    HW1 1937   1.518   1.994   1.872  0.4308 -0.4486  0.8563
  646SOL    HW2 1938   1.366   1.968   1.958  1.6603 -1.7670 -0.8597
  647SOL     OW 1939   0.811   1.049   0.649  0.0478 -0.6032  0.0786
  647SOL    HW1 1940   0.880   1.078   0.719 -0.8341 -4.1630 -0.6490
  647SOL    HW2 1941   0.735   0.985   0.678  0.3928 -1.6928 -0.6709
  648SOL     OW 1942   0.137   0.182   0.230  0.1985 -0.0932  0.2381
  648SOL    HW1 1943   0.174   0.125   0.153  2.0700 -0.9570 -0.5012
  648SOL    HW2 1944   0.111   0.278   0.200 -1.2450 -1.5837 -0.4793
  649SOL     OW 1945   3.057   0.244   0.890  0.0215 -0.1389  0.3581
  649SOL    HW1 1946   3.128   0.171   0.880 -1.5611 -2.2493  0.0887
  649SOL    HW2 1947   3.071   0.311   0.967  1.9455  1.5996 -2.0063
  650SOL     OW 1948   2.719   0.662   1.439  0.2843  0.5533 -0.5744
  650SOL    HW1 1949   2.623   0.619   1.454  1.1962 -1.5845 -0.0505
  650SOL    HW2 1950   2.724   0.759   1.402 -2.5627  3.3848 -0.6955
  651SOL     OW 1951   0.946   1.555   1.602  0.2994  0.2075  0.2751
  651SOL    HW1 1952   0.959   1.659   1.622 -0.8773  0.7255  0.3311
  651SOL    HW2 1953   0.971   1.520   1.511 -0.5413  0.6320  2.0145
  652SOL     OW 1954   2.261   2.481   2.514 -0.2179  0.7894 -0.5714
  652SOL    HW1 1955   2.178   2.467   2.582  0.5824  1.0311  3.6026
  652SOL    HW2 1956   2.242   2.556   2.443  0.4613 -0.1966  0.6141
  653SOL     OW 1957   2.712   1.200   0.174  0.2034 -0.1097 -0.3113
  653SOL    HW1 1958   2.733   1.286   0.227 -1.3044  0.7248 -1.2095
  653SOL    HW2 1959   2.778   1.118   0.187  1.1203 -2.0431  2.4400
  654SOL     OW 1960   1.283   2.264   1.236 -0.6522  0.4311 -0.3173
  654SOL    HW1 1961   1.296   2.202   1.317 -1.1716 -2.4052  0.1202
  654SOL    HW2 1962   1.322   2.219   1.148  0.4697 -2.0440 -1.8124
  655SOL     OW 1963   0.207   0.961   1.858  0.4413 -0.6638 -0.1195
  655SOL    HW1 1964   0.249   0.874   1.823 -0.8239  0.2840 -0.6665
  655SOL    HW2 1965   0.282   1.034   1.865 -1.4272  2.1101  0.0665
  656SOL     OW 1966   2.542   2.512   2.637 -0.5138 -0.2234 -1.0159
  656SOL    HW1 1967   2.609   2.477   2.558  5.0442 -1.7902 -0.8803
  656SOL    HW2 1968   2.442   2.504   2.611  0.2874  2.2914 -0.8344
  657SOL     OW 1969   3.062   1.055   1.929 -0.1333 -0.7540 -0.4271
  657SOL    HW1 1970   3.062   1.161   1.932  0.6700  2.1217 -0.8370
  657SOL    HW2 1971   3.156   1.016   1.903  0.8139  1.2646  0.1467
  658SOL     OW 1972   1.720   0.233   2.430 -0.2271 -0.3883  0.1559
  658SOL    HW1 1973   1.751   0.160   2.500 -0.5457  0.0670  2.7100
  658SOL    HW2 1974   1.738   0.210   2.329  3.1948 -1.2459 -1.6204
  659SOL     OW 1975   1.454   0.647   2.946 -0.0320 -0.1077  0.0162
  659SOL    HW1 1976   1.494   0.743   2.924 -0.0476  0.4539 -0.6152
  659SOL    HW2 1977   1.354   0.646   2.917 -0.2055 -1.4914  1.1437
  660SOL     OW 1978   1.427   0.327   1.452  0.5318 -0.2639  0.2273
  660SOL    HW1 1979   1.469   0.325   1.544  0.4158 -0.5708 -2.7104
  660SOL    HW2 1980   1.477   0.261   1.382  0.8130  0.3985 -1.3572
  661SOL     OW 1981   2.494   1.171   0.685  0.0068 -0.7830 -0.0952
  661SOL    HW1 1982   2.512   1.141   0.589 -1.4758 -0.8928  0.9029
  661SOL    HW2 1983   2.430   1.252   0.690 -0.9550  0.8936 -0.3508
  662SOL     OW 1984   1.374   0.442   1.844  0.1921 -0.3577 -0.5990
  662SOL    HW1 1985   1.324   0.356   1.810 -2.2602  0.4147 -1.3288
  662SOL    HW2 1986   1.331   0.482   1.932 -0.1318  0.3134  0.4467
  663SOL     OW 1987   0.780   1.560   2.162  0.6898  0.4008 -0.4282
  663SOL    HW1 1988   0.756   1.652   2.188 -0.8347 -1.9093 -2.3717
  663SOL    HW2 1989   0.712   1.525   2.092 -0.6968 -0.7449 -0.4964
  664SOL     OW 1990   1.634   2.116   1.476  0.0764 -0.0560 -0.8982
  664SOL    HW1 1991   1.601   2.031   1.531 -0.8667 -1.0155  2.2616
  664SOL    HW2 1992   1.737   2.119   1.471  0.0733  1.8021  1.2595
  665SOL     OW 1993   2.248   0.650   1.951 -0.3811  0.6326 -0.1846
  665SOL    HW1 1994   2.274   0.552   1.978  0.1343  1.0968  0.6076
  665SOL    HW2 1995   2.245   0.707   2.039 -0.4390 -0.8898 -0.9082
  666SOL     OW 1996   0.393   2.351   0.434  0.2642 -0.1071  0.1981
  666SOL    HW1 1997   0.477   2.405   0.467 -0.1020  0.7490  2.2863
  666SOL    HW2 1998   0.367   2.282   0.510  0.2415  1.4276 -1.6847
  667SOL     OW 1999   2.006   0.175   1.144  0.2421  0.7913 -0.4553
  667SOL    HW1 2000   2.032   0.275   1.153 -1.0827  3.9335  3.0740
  667SOL    HW2 2001   1.908   0.164   1.174 -0.7757  1.3670 -0.8994
  668SOL     OW 2002   1.995   0.469   1.192  0.2779 -0.4549 -0.5008
  668SOL    HW1 2003   2.060   0.509   1.117  0.2610 -1.3876 -0.8291
  668SOL    HW2 2004   2.040   0.429   1.275 -3.0955 -0.2692 -1.5497
  669SOL     OW 2005   3.030   2.254   0.996 -0.5556  0.6462 -0.0107
  669SOL    HW1 2006   2.974   2.205   0.929 -0.6477  0.8700  1.6056
  669SOL    HW2 2007   2.980   2.245   1.082  0.3723 -0.8548 -0.5835
  670SOL     OW 2008   2.867   2.343   1.956 -0.0134  0.0112  0.5151
  670SOL    HW1 2009   2.815   2.301   2.034  2.5587  0.3651 -0.0648
  670SOL    HW2 2010   2.831   2.437   1.932 -1.7820  1.7191  0.4267
  671SOL     OW 2011   1.777   1.733   1.449  0.7071  0.2672  0.1226
  671SOL    HW1 2012   1.786   1.775   1.357 -1.7213 -1.6796 -1.6152
  671SOL    HW2 2013   1.698   1.663   1.457 -1.7380  0.7977  1.1234
  672SOL     OW 2014   0.375   0.602   2.370  0.2244 -0.2219  0.2412
  672SOL    HW1 2015   0.434   0.657   2.309 -0.0080 -0.6419  1.6119
  672SOL    HW2 2016   0.284   0.647   2.380 -1.0714  0.4715 -0.0645
  673SOL     OW 2017   0.150   1.167   1.136  0.0042  0.3699 -0.4852
  673SOL    HW1 2018   0.185   1.246   1.189  0.8295 -1.3132 -0.2315
  673SOL    HW2 2019   0.225   1.094   1.116 -0.8507  0.8545 -0.7425
  674SOL     OW 2020   1.602   2.938   0.212  0.1615 -0.1070  0.0055
  674SOL    HW1 2021   1.622   3.037   0.182 -2.7153  0.1040 -2.3963
  674SOL    HW2 2022   1.585   2.877   0.130 -1.1217 -0.9966 -3.6301
  675SOL     OW 2023   1.664   0.864   2.304  0.2640  0.4544 -0.7551
  675SOL    HW1 2024   1.747   0.829   2.260  1.1237 -1.7949 -1.1171
  675SOL    HW2 2025   1.592   0.791   2.285 -1.4372  0.6594  1.3437
  676SOL     OW 2026   2.484   1.480   2.037 -0.0965  1.1840  0.2087
  676SOL    HW1 2027   2.492   1.473   1.932 -0.1676 -1.5119  2.6349
  676SOL    HW2 2028   2.543   1.410   2.086  0.3863  1.2447  0.7024
  677SOL     OW 2029   1.937   0.675   0.822 -0.7056 -0.2480  0.6966
  677SOL    HW1 2030   1.939   0.719   0.914  0.0620  0.0205  1.3390
  677SOL    HW2 2031   1.943   0.573   0.822  0.4338 -0.6990 -1.9833
  678SOL     OW 2032   0.046   0.737   1.659  0.2762  0.0241 -0.0062
  678SOL    HW1 2033   0.147   0.728   1.685 -2.0448 -0.3530 -0.4923
  678SOL    HW2 2034  -0.017   0.738   1.744 -0.3072 -1.0941  1.6922
  679SOL     OW 2035   2.605   1.155   1.125  0.0846  0.2991  0.5074
  679SOL    HW1 2036   2.511   1.178   1.156  0.3637 -2.3085 -0.7807
  679SOL    HW2 2037   2.619   1.052   1.117 -2.1530  1.1159 -0.5033
  680SOL     OW 2038   2.783   0.631   1.701  0.3469  0.1915  0.4258
  680SOL    HW1 2039   2.777   0.654   1.600  1.0897 -0.2057  0.0581
  680SOL    HW2 2040   2.806   0.711   1.762  2.9386  0.4641 -2.5335
  681SOL     OW 2041   2.991   0.138   1.616 -0.2580 -0.4942 -0.3311
  681SOL    HW1 2042   3.086   0.145   1.565  2.3483 -2.3599 -2.2240
  681SOL    HW2 2043   2.924   0.222   1.609  0.1320 -0.2855 -1.5685
  682SOL     OW 2044   0.740   0.039   1.305  1.2380 -0.1003 -0.1034
  682SOL    HW1 2045   0.678  -0.041   1.343 -0.9881 -0.4637  2.7839
  682SOL    HW2 2046   0.762   0.022   1.201  0.5505 -1.8579 -1.2884
  683SOL     OW 2047   1.329   0.214   2.177  0.3184 -0.2449 -0.3422
  683SOL    HW1 2048   1.278   0.284   2.229  1.1881  1.1859 -2.4662
  683SOL    HW2 2049   1.424   0.245   2.146  2.0177 -0.3893  0.8543
  684SOL     OW 2050   1.475   2.163   0.570  0.1353  0.6747  0.2608
  684SOL    HW1 2051   1.543   2.116   0.632  2.1501  1.0786  0.7919
  684SOL    HW2 2052   1.398   2.098   0.543 -0.6777 -0.9578  1.7575
  685SOL     OW 2053   2.161   2.006   1.936  0.2137 -0.3362 -0.1370
  685SOL    HW1 2054   2.207   2.023   1.841  2.3389  2.5601 -1.3073
  685SOL    HW2 2055   2.189   1.925   1.988 -0.1888 -0.2470 -1.7973
  686SOL     OW 2056   1.509   1.788   2.763 -0.1238 -0.2576 -0.1294
  686SOL    HW1 2057   1.533   1.742   2.852 -0.9631 -0.3009 -0.4851
  686SOL    HW2 2058   1.539   1.743   2.677  0.5815 -1.6550  1.9166
  687SOL     OW 2059   1.269   2.507   1.945  0.1631 -0.3005 -0.3903
  687SOL    HW1 2060   1.306   2.408   1.959  3.7622 -2.4975 -3.2123
  687SOL    HW2 2061   1.288   2.577   2.025 -1.9390  0.5584 -0.8712
  688SOL     OW 2062   2.075   1.541   1.718  0.6319 -0.0718 -0.0569
  688SOL    HW1 2063   2.171   1.574   1.701  0.6471  0.8174  0.1103
  688SOL    HW2 2064   2.033   1.511   1.623  2.1678 -1.5846 -0.8469
  689SOL     OW 2065   2.481   1.084   2.699  0.2866  0.0137  0.7559
  689SOL    HW1 2066   2.383   1.081   2.718  0.4148 -0.1551  1.4246
  689SOL    HW2 2067   2.543   1.090   2.783 -2.0561  0.1592  2.5529
  690SOL     OW 2068   2.256   2.795   0.050 -0.2929 -0.0989  0.3593
  690SOL    HW1 2069   2.189   2.738  -0.010  0.1334  1.9772 -1.5493
  690SOL    HW2 2070   2.211   2.803   0.144 -2.1936  0.8352 -1.6536
  691SOL     OW 2071   2.553   0.460   2.106  0.0471 -0.2087  0.0872
  691SOL    HW1 2072   2.606   0.377   2.066 -0.0507 -2.1177 -0.7836
  691SOL    HW2 2073   2.578   0.551   2.064 -0.3402 -0.1226 -1.2862
  692SOL     OW 2074   2.779   1.222   0.721  0.0090 -0.1428  0.1466
  692SOL    HW1 2075   2.679   1.201   0.698 -0.5099 -0.4476 -2.6292
  692SOL    HW2 2076   2.789   1.318   0.762  1.3545 -0.9923 -3.4169
  693SOL     OW 2077   2.783   2.934   0.639  0.2147  0.1709  0.2086
  693SOL    HW1 2078   2.796   3.015   0.700 -0.0834 -0.5350 -0.9030
  693SOL    HW2 2079   2.717   2.949   0.555 -0.2284 -1.0865 -0.5786
  694SOL     OW 2080   2.429   2.218   0.089  0.3943  0.2884  0.0597
  694SOL    HW1 2081   2.396   2.317   0.104 -0.4123 -1.5322 -0.3802
  694SOL    HW2 2082   2.349   2.156   0.059 -0.5921 -1.0297  1.6953
  695SOL     OW 2083   0.611   2.959   1.475  0.5248  0.2326 -0.3386
  695SOL    HW1 2084   0.564   2.871   1.441 -1.7795  0.2090 -0.9364
  695SOL    HW2 2085   0.569   2.989   1.565  0.0391  1.7192  1.7010
  696SOL     OW 2086   2.769   1.939   0.748 -1.2022 -0.3799 -0.1486
  696SOL    HW1 2087   2.756   1.846   0.796 -0.7098 -1.3058  0.2176
  696SOL    HW2 2088   2.834   1.932   0.671 -0.4985 -2.3300  0.0289
  697SOL     OW 2089   1.657   2.075   1.843  0.4916  0.2154  0.3182
  697SOL    HW1 2090   1.745   2.043   1.888  0.6086 -3.3120  2.1110
  697SOL    HW2 2091   1.669   2.154   1.783 -0.2394 -3.0963  1.1169
  698SOL     OW 2092   2.964   0.400   2.741 -0.0311 -0.1264  0.0180
  698SOL    HW1 2093   2.948   0.369   2.645 -0.3585 -1.6378 -0.7806
  698SOL    HW2 2094   3.007   0.332   2.803 -0.5035  1.6384 -2.0742
  699SOL     OW 2095   1.564   0.057   2.927 -0.5482 -0.9121 -0.3516
  699SOL    HW1 2096   1.528  -0.033   2.893  0.4571 -2.2438  1.8945
  699SOL    HW2 2097   1.608   0.116   2.851  3.5866  1.8594 -0.6730
  700SOL     OW 2098   1.009   2.305   1.309  0.0183  0.4858  0.0050
  700SOL    HW1 2099   1.109   2.287   1.288 -1.1081  0.0163  0.4724
  700SOL    HW2 2100   0.939   2.268   1.240 -2.3327  0.3428 -1.6593
  701SOL     OW 2101   1.927   2.837   3.061 -0.0642  0.0985  0.3007
  701SOL    HW1 2102   1.893   2.779   3.138 -0.3436 -0.7465 -1.3199
  701SOL    HW2 2103   1.932   2.939   3.077  1.9491 -2.0869  0.1371
  702SOL     OW 2104   2.078   1.352   1.908  0.5133 -0.4997  0.0680
  702SOL    HW1 2105   2.150   1.281   1.901 -2.1850  0.7755 -0.6660
  702SOL    HW2 2106   2.064   1.413   1.819  0.0329 -1.8060 -0.6668
  703SOL     OW 2107   1.969   0.880   1.396 -0.1263 -0.0953 -0.2309
  703SOL    HW1 2108   1.962   0.782   1.435 -1.3598  0.2028 -0.2386
  703SOL    HW2 2109   2.019   0.939   1.463  0.6113 -1.8218 -2.4220
  704SOL     OW 2110   0.327   2.048   1.667 -0.2358  0.2850  0.1608
  704SOL    HW1 2111   0.367   1.998   1.747  3.7590  1.0394  0.3013
  704SOL    HW2 2112   0.393   2.121   1.630  0.2013 -0.1976  1.6703
  705SOL     OW 2113   2.513   1.379   0.954  0.1786 -0.1409 -0.3768
  705SOL    HW1 2114   2.441   1.369   0.882  1.9707 -0.0044  1.2824
  705SOL    HW2 2115   2.561   1.293   0.982  0.5828 -0.7450 -0.4277
  706SOL     OW 2116   0.660   1.712   1.838  0.5033  0.1932  0.1148
  706SOL    HW1 2117   0.639   1.612   1.864  0.2978  0.3380 -1.9010
  706SOL    HW2 2118   0.719   1.756   1.911 -0.2110  4.2598  1.4448
  707SOL     OW 2119   2.247   1.135   1.890 -0.0278 -0.7868 -0.0282
  707SOL    HW1 2120   2.345   1.135   1.922  0.2850 -2.5762  2.3718
  707SOL    HW2 2121   2.225   1.048   1.842 -1.7220  1.3447  2.6290
  708SOL     OW 2122   2.966   0.513   3.051 -0.2485 -0.3300  0.0652
  708SOL    HW1 2123   3.013   0.584   2.988  0.7373  0.5131  0.5626
  708SOL    HW2 2124   2.985   0.406   3.031  0.5529  0.1878 -0.2765
  709SOL     OW 2125   1.774   1.885   0.193 -0.3374  0.2306  0.3967
  709SOL    HW1 2126   1.833   1.958   0.234 -0.2304  0.3443  1.7832
  709SOL    HW2 2127   1.813   1.848   0.101  1.6208  4.3976  0.6286
  710SOL     OW 2128   1.679   1.623   2.423  0.0744 -0.0727  0.1801
  710SOL    HW1 2129   1.710   1.594   2.332 -1.4604 -0.8793  2.3412
  710SOL    HW2 2130   1.700   1.560   2.501 -2.8016  2.1885 -0.9251
  711SOL     OW 2131   2.630   2.973   0.953 -0.6663  0.2550 -0.1120
  711SOL    HW1 2132   2.603   3.073   0.942 -2.9072  0.3895  0.0306
  711SOL    HW2 2133   2.729   2.957   0.921 -1.0236 -0.7277  1.3511
  712SOL     OW 2134   1.375   2.237   1.971  0.1755  0.5060 -0.3694
  712SOL    HW1 2135   1.474   2.225   2.001 -0.4801 -1.8618 -3.5108
  712SOL    HW2 2136   1.364   2.235   1.870  0.4923  1.9743  1.1717
  713SOL     OW 2137   2.904   1.471   2.561 -0.4447  0.2407 -0.3088
  713SOL    HW1 2138   2.883   1.373   2.526 -1.6792  0.4248  1.7598
  713SOL    HW2 2139   2.862   1.498   2.654 -2.0636  0.1761 -1.4183
  714SOL     OW 2140   2.664   0.480   2.379 -0.0163 -0.2727 -0.9928
  714SOL    HW1 2141   2.616   0.439   2.459 -0.0984  2.0167 -1.1057
  714SOL    HW2 2142   2.609   0.470   2.294 -0.8194 -0.8397 -0.2648
  715SOL     OW 2143   1.607   2.038   1.214  0.0853 -0.0638  0.2606
  715SOL    HW1 2144   1.544   2.078   1.142  2.0776  0.2681 -0.5574
  715SOL    HW2 2145   1.593   2.086   1.301 -2.4222  0.6516 -1.3846
  716SOL     OW 2146   1.190   0.178   1.500  0.3609 -0.0542  0.1156
  716SOL    HW1 2147   1.100   0.210   1.461 -0.5099  0.3735 -0.0385
  716SOL    HW2 2148   1.267   0.244   1.474 -1.6480  2.3817  0.5561
  717SOL     OW 2149   1.129   0.593   1.614  0.3264  0.2849 -0.4132
  717SOL    HW1 2150   1.234   0.614   1.615 -1.4761 -1.2767  1.8034
  717SOL    HW2 2151   1.101   0.564   1.519 -2.2867 -0.1885  2.2079
  718SOL     OW 2152   0.750   0.931   0.947  0.2953  0.1128  0.4758
  718SOL    HW1 2153   0.708   0.889   0.861  2.4497 -1.0958 -0.7101
  718SOL    HW2 2154   0.697   1.013   0.991  0.4663  1.1242  3.3142
  719SOL     OW 2155   0.672   1.812   2.273  0.1274 -0.0997  0.2253
  719SOL    HW1 2156   0.721   1.863   2.352  0.6413  0.2473  1.7106
  719SOL    HW2 2157   0.565   1.817   2.283 -0.2873  3.2471  1.5748
  720SOL     OW 2158   2.166   1.154   0.245 -0.0062 -0.0084 -0.5133
  720SOL    HW1 2159   2.243   1.094   0.205 -0.9920  0.3313  0.6460
  720SOL    HW2 2160   2.178   1.162   0.348 -0.2199  1.8785 -1.1733
  721SOL     OW 2161   2.284   2.988   2.084  0.0873  0.0806  0.1054
  721SOL    HW1 2162   2.342   3.026   2.006  1.5777 -2.3740 -2.8586
  721SOL    HW2 2163   2.197   3.042   2.091  0.4656 -0.9547  0.3611
  722SOL     OW 2164   2.369   1.614   0.585  0.6337 -0.1668  0.5460
  722SOL    HW1 2165   2.372   1.591   0.483  0.3652 -2.6471 -1.1804
  722SOL    HW2 2166   2.310   1.700   0.603 -2.4943 -0.6876 -0.6301
  723SOL     OW 2167   2.559   2.676   2.015 -0.7198 -0.2666  0.1628
  723SOL    HW1 2168   2.602   2.746   2.079 -1.3852  1.3740  0.1380
  723SOL    HW2 2169   2.455   2.682   2.011  0.2867 -0.3560  1.1974
  724SOL     OW 2170   0.538   2.462   2.416  0.3527 -0.1232 -0.0411
  724SOL    HW1 2171   0.442   2.451   2.458 -3.0323  1.8693  1.6944
  724SOL    HW2 2172   0.600   2.509   2.483  2.4574 -0.5980  0.7005
  725SOL     OW 2173   2.428   2.778   1.516 -0.0267 -0.0739  0.3633
  725SOL    HW1 2174   2.440   2.783   1.409  0.8310  0.2690 -1.5616
  725SOL    HW2 2175   2.393   2.683   1.546  2.1731 -0.3378  0.6275
  726SOL     OW 2176   2.390   2.224   0.677 -0.4144 -0.1308  0.0971
  726SOL    HW1 2177   2.356   2.315   0.658 -0.1085 -0.5638  1.5937
  726SOL    HW2 2178   2.388   2.161   0.590 -1.3374  1.3563  0.9771
  727SOL     OW 2179   0.156   3.071   0.052  0.0808  0.5126  0.0538
  727SOL    HW1 2180   0.187   2.972   0.062 -0.1465  1.5515  0.1147
  727SOL    HW2 2181   0.061   3.079   0.021  1.0174 -1.9407  0.5937
  728SOL     OW 2182   2.881   0.684   0.982 -0.0105 -0.4468  0.0750
  728SOL    HW1 2183   2.785   0.684   0.935 -1.7876  0.8564 -2.2277
  728SOL    HW2 2184   2.892   0.625   1.068  1.7518 -3.2001  0.3820
  729SOL     OW 2185   2.965   2.514   0.745 -0.5491 -0.1299 -0.1213
  729SOL    HW1 2186   2.911   2.425   0.779  0.8013 -1.9751  1.0897
  729SOL    HW2 2187   3.069   2.501   0.738  1.6494  0.8519 -0.4628
  730SOL     OW 2188   2.607   0.634   0.856 -0.0602 -0.1790  0.1871
  730SOL    HW1 2189   2.538   0.702   0.825  2.8522 -3.5643 -1.2465
  730SOL    HW2 2190   2.671   0.608   0.785 -1.2115 -1.5163  1.0105
  731SOL     OW 2191   0.137   2.147   2.437 -0.2254  0.1283  0.0723
  731SOL    HW1 2192   0.106   2.176   2.531  0.5896  1.1642  0.0287
  731SOL    HW2 2193   0.163   2.229   2.389 -1.6095 -1.5118 -1.3087
  732SOL     OW 2194   1.100   2.862   1.938 -0.5748  0.6336 -0.6049
  732SOL    HW1 2195   1.124   2.798   2.017 -1.4020  0.7750  1.2113
  732SOL    HW2 2196   1.144   2.819   1.851  0.8838  0.1428 -0.2852
  733SOL     OW 2197   3.049   0.585   2.215 -0.0890  0.6716 -0.1133
  733SOL    HW1 2198   3.111   0.639   2.151  2.7901  2.9245 -3.3670
  733SOL    HW2 2199   2.972   0.538   2.160  1.2567 -2.0496  1.8628
  734SOL     OW 2200   1.415   0.381   2.753  0.0811  0.5536 -0.1418
  734SOL    HW1 2201   1.438   0.464   2.811  1.9404 -2.0742 -0.0383
  734SOL    HW2 2202   1.324   0.337   2.781 -1.3787 -1.2198  0.7284
  735SOL     OW 2203   2.899   2.614   2.240  0.3319 -0.3514 -0.4767
  735SOL    HW1 2204   2.882   2.620   2.136  2.5900 -0.4513 -1.3750
  735SOL    HW2 2205   3.001   2.614   2.263  3.3278 -0.7988 -0.4943
  736SOL     OW 2206   0.748   0.313   2.650  0.0942  0.4311 -0.0908
  736SOL    HW1 2207   0.651   0.342   2.656 -0.6835 -1.0864  2.4318
  736SOL    HW2 2208   0.780   0.292   2.556 -3.1845 -0.7076  3.2904
  737SOL     OW 2209   2.669   0.379   2.860 -0.2941 -0.1341  0.0879
  737SOL    HW1 2210   2.618   0.351   2.946 -2.7876  0.6375 -0.5253
  737SOL    HW2 2211   2.763   0.337   2.856  1.8156  1.3463  0.9600
  738SOL     OW 2212   1.611   1.243   2.917  0.6530 -0.6636  0.0015
  738SOL    HW1 2213   1.707   1.209   2.920 -1.8169  0.3609 -1.5296
  738SOL    HW2 2214   1.552   1.193   2.852 -0.9647  1.5845  0.1217
  739SOL     OW 2215   1.720   0.589   0.685 -0.2011 -0.0176 -0.3229
  739SOL    HW1 2216   1.799   0.639   0.731  0.1238 -0.4297 -3.3480
  739SOL    HW2 2217   1.756   0.507   0.630 -1.2363 -0.7335 -2.7700
  740SOL     OW 2218   1.990   1.932   2.301 -0.7340  0.0570  0.4537
  740SOL    HW1 2219   2.041   1.837   2.316 -1.3028 -0.5498  1.5239
  740SOL    HW2 2220   1.893   1.914   2.272 -0.8331 -3.0091 -0.2470
  741SOL     OW 2221   2.541   0.063   2.634 -0.2804 -0.1621 -0.3598
  741SOL    HW1 2222   2.642   0.074   2.608 -1.7442 -0.0485 -0.3021
  741SOL    HW2 2223   2.486   0.039   2.545  0.7196 -0.8388 -2.5201
  742SOL     OW 2224   2.215   1.463   0.198 -0.2459 -0.3789 -0.3171
  742SOL    HW1 2225   2.138   1.531   0.217  0.9910 -0.7976 -1.4191
  742SOL    HW2 2226   2.187   1.373   0.236 -0.6683  0.5205 -0.2035
  743SOL     OW 2227   1.843   0.659   2.617  0.6159 -0.2811  0.1677
  743SOL    HW1 2228   1.799   0.610   2.538 -0.2072  0.6744 -0.4649
  743SOL    HW2 2229   1.793   0.749   2.642  0.4129 -1.0191 -1.7734
  744SOL     OW 2230   2.677   2.098   0.067  0.4207 -0.2441 -0.0249
  744SOL    HW1 2231   2.595   2.154   0.096 -0.3689 -0.5063  0.4962
  744SOL    HW2 2232   2.634   2.011   0.049 -1.3762  2.9419 -0.1652
  745SOL     OW 2233   2.163   2.637   2.322  0.1418  0.3042 -0.8312
  745SOL    HW1 2234   2.083   2.621   2.253  0.2990 -0.8764 -1.3484
  745SOL    HW2 2235   2.155   2.730   2.373  0.5705  0.6072  2.8723
  746SOL     OW 2236   3.064   2.626   1.728  0.1259  0.1438 -0.0202
  746SOL    HW1 2237   3.145   2.613   1.668  0.0506 -0.0021  1.0288
  746SOL    HW2 2238   3.034   2.724   1.743 -0.5580 -1.1418 -0.2799
  747SOL     OW 2239   3.097   1.796   1.631 -0.2027 -0.2724 -0.0609
  747SOL    HW1 2240   3.036   1.726   1.589 -0.6296  0.0374  2.8265
  747SOL    HW2 2241   3.186   1.812   1.572  0.5605 -3.2276 -0.7430
  748SOL     OW 2242   1.858   2.733   2.803  0.3713 -0.1353 -0.2306
  748SOL    HW1 2243   1.894   2.782   2.889 -1.2234  1.6399 -0.1464
  748SOL    HW2 2244   1.756   2.709   2.793 -0.2597  2.3340 -1.6493
  749SOL     OW 2245   1.312   3.064   0.911  0.0959  0.2473 -0.6089
  749SOL    HW1 2246   1.217   3.031   0.895 -0.2914 -0.1400 -2.1935
  749SOL    HW2 2247   1.343   3.126   0.832 -3.9159  1.1178 -0.6501
  750SOL     OW 2248   2.411   0.232   1.891  0.2491  0.5403  0.4302
  750SOL    HW1 2249   2.392   0.280   1.800  1.3190  0.9399  2.0106
  750SOL    HW2 2250   2.382   0.294   1.972 -0.3581  1.2937  0.7453
  751SOL     OW 2251   0.944   2.196   2.703  0.3225 -0.6354  0.0202
  751SOL    HW1 2252   0.965   2.218   2.802  1.4121 -1.6657 -0.5422
  751SOL    HW2 2253   0.843   2.187   2.684 -0.8240 -0.7075  0.5491
  752SOL     OW 2254   1.260   0.880   1.448 -0.3593  0.2573  0.5545
  752SOL    HW1 2255   1.332   0.951   1.421  2.9842 -0.4022  0.8182
  752SOL    HW2 2256   1.293   0.779   1.448  1.6847 -0.9003  1.3052
  753SOL     OW 2257   0.957   2.586   1.716  0.1592  0.2242 -0.2542
  753SOL    HW1 2258   1.060   2.604   1.714 -1.8638 -3.6608 -0.8486
  753SOL    HW2 2259   0.906   2.653   1.659 -1.7325 -1.7633 -0.5792
  754SOL     OW 2260   1.185   1.311   0.011  0.6397  0.6490 -0.0736
  754SOL    HW1 2261   1.233   1.251  -0.055  2.2773  0.8867  0.2493
  754SOL    HW2 2262   1.173   1.404  -0.030  1.5370 -1.3777 -1.0322
  755SOL     OW 2263   1.979   0.432   2.192 -0.1300 -0.2609 -0.4383
  755SOL    HW1 2264   2.072   0.416   2.236 -1.2788  0.5528  1.7396
  755SOL    HW2 2265   1.914   0.448   2.269 -0.3356  1.7467  0.4502
  756SOL     OW 2266   2.558   0.976   2.945  0.0913 -0.2388 -0.4692
  756SOL    HW1 2267   2.655   0.985   2.983  3.5116  0.2902  2.6060
  756SOL    HW2 2268   2.509   0.885   2.970  1.9683 -1.7500 -3.1750
  757SOL     OW 2269   3.082   0.431   1.808  0.7176 -0.4646  0.1002
  757SOL    HW1 2270   3.173   0.387   1.800 -0.9826  1.9725 -1.7963
  757SOL    HW2 2271   3.015   0.417   1.729 -0.0289  1.9769  1.9697
  758SOL     OW 2272   2.386   0.100   1.405 -0.1053  0.2491 -0.2595
  758SOL    HW1 2273   2.336   0.036   1.463  1.2014  0.4898 -0.7740
  758SOL    HW2 2274   2.382   0.069   1.309  1.9212  4.2442  3.2816
  759SOL     OW 2275   1.715   0.050   0.080  0.1944 -0.4823  0.1608
  759SOL    HW1 2276   1.656   0.053  -0.008  0.5237  2.0766 -0.3955
  759SOL    HW2 2277   1.812   0.025   0.056 -1.4452 -2.6138 -0.3065
  760SOL     OW 2278   2.737   2.078   2.810  0.4225 -0.3790  0.1838
  760SOL    HW1 2279   2.781   2.004   2.864 -2.8603  0.4310  1.3803
  760SOL    HW2 2280   2.718   2.160   2.867 -0.2497 -0.2463  0.8185
  761SOL     OW 2281   1.906   1.780   1.719  0.1428  0.0357 -0.4186
  761SOL    HW1 2282   1.950   1.689   1.754  2.3040 -2.6433 -0.1509
  761SOL    HW2 2283   1.847   1.765   1.635 -0.1428 -0.8727 -2.0346
  762SOL     OW 2284   0.457   2.308   0.986 -0.5036 -0.5735  0.0551
  762SOL    HW1 2285   0.494   2.316   0.888  3.1188  2.3146  2.1429
  762SOL    HW2 2286   0.512   2.370   1.051  1.3750  0.0835  0.1614
  763SOL     OW 2287   2.083   1.507   2.928  0.1823  0.0798  0.3019
  763SOL    HW1 2288   2.175   1.495   2.978 -0.0078 -0.5401 -1.4442
  763SOL    HW2 2289   1.999   1.492   2.990 -0.1882  2.2699 -1.5422
  764SOL     OW 2290   0.636   0.614   0.832  0.3032  0.7776 -0.7100
  764SOL    HW1 2291   0.573   0.539   0.802  0.2965  0.2802 -0.7158
  764SOL    HW2 2292   0.731   0.576   0.857 -0.4447 -1.3979 -2.7008
  765SOL     OW 2293   0.719   0.232   0.798  0.2806  0.3889  0.3476
  765SOL    HW1 2294   0.786   0.275   0.735  2.1583 -1.3059 -0.3980
  765SOL    HW2 2295   0.703   0.284   0.887 -1.7123  0.3846  0.4878
  766SOL     OW 2296   2.942   2.091   3.088  0.4269  0.1808 -0.2511
  766SOL    HW1 2297   2.841   2.090   3.116 -1.5793  2.4410  0.7667
  766SOL    HW2 2298   2.979   2.182   3.051  1.6533 -1.4735  0.3836
  767SOL     OW 2299   2.838   1.562   0.550  0.3838  0.0373 -0.9547
  767SOL    HW1 2300   2.741   1.572   0.589  0.6906 -3.3808  0.9605
  767SOL    HW2 2301   2.906   1.558   0.626  0.3874 -0.8128  2.5575
  768SOL     OW 2302   1.109   0.193   0.347  0.1166 -0.1748 -0.5196
  768SOL    HW1 2303   1.015   0.147   0.359  0.2317 -1.5544  0.8124
  768SOL    HW2 2304   1.181   0.132   0.315 -2.3157 -0.0572  0.3204
  769SOL     OW 2305   1.070   1.884   2.228  0.4414 -0.3516  0.0469
  769SOL    HW1 2306   0.977   1.932   2.230  1.7540 -0.9460 -2.3060
  769SOL    HW2 2307   1.074   1.777   2.215  1.3863  0.7836 -0.8444
  770SOL     OW 2308   0.156   1.205   2.232 -0.1194  0.6887 -0.0668
  770SOL    HW1 2309   0.117   1.213   2.329  0.7641  0.0572 -1.1851
  770SOL    HW2 2310   0.089   1.170   2.159 -1.7064  0.4032 -2.7865
  771SOL     OW 2311   2.950   2.855   1.887 -0.4744 -0.4206 -0.3292
  771SOL    HW1 2312   2.919   2.919   1.805 -2.5684 -0.6028 -2.7731
  771SOL    HW2 2313   2.927   2.899   1.980  1.1027  0.0697 -1.4584
  772SOL     OW 2314   2.175   0.124   2.950  0.0368 -0.3991  0.9254
  772SOL    HW1 2315   2.266   0.088   2.915 -0.2907 -1.0473 -1.6963
  772SOL    HW2 2316   2.177   0.209   3.005  0.7912 -1.8502 -3.1035
  773SOL     OW 2317   0.705   2.202   2.498  0.5367 -0.3434  0.3598
  773SOL    HW1 2318   0.662   2.223   2.409  1.9018 -0.0093  2.2967
  773SOL    HW2 2319   0.640   2.166   2.568  0.9147 -0.5065  0.4890
  774SOL     OW 2320   2.027   0.043   2.646  0.0813  0.0880  0.4708
  774SOL    HW1 2321   2.031   0.151   2.657 -0.3323  3.7369 -2.6758
  774SOL    HW2 2322   2.065  -0.011   2.725  2.6469  1.7585 -0.1221
  775SOL     OW 2323   2.530   2.814   2.445  0.2459 -0.1610  0.4583
  775SOL    HW1 2324   2.505   2.913   2.460 -2.3493 -2.5853  0.5542
  775SOL    HW2 2325   2.630   2.790   2.443 -0.0937  0.6725 -0.1806
  776SOL     OW 2326   0.062   1.267   0.212 -0.1028 -0.3967  0.2923
  776SOL    HW1 2327   0.010   1.253   0.123 -2.4886  0.2260  1.3517
  776SOL    HW2 2328   0.002   1.239   0.292 -2.6058 -2.8981  2.3656
  777SOL     OW 2329   0.251   2.836   0.470 -0.3342  0.0904  0.0187
  777SOL    HW1 2330   0.164   2.840   0.416  1.5076  2.1628  1.3860
  777SOL    HW2 2331   0.254   2.909   0.546 -0.2031  0.0815  0.1280
  778SOL     OW 2332   1.343   1.950   0.176  0.6358  0.1395 -0.4887
  778SOL    HW1 2333   1.282   1.957   0.262 -1.5921 -2.1282  1.2759
  778SOL    HW2 2334   1.377   2.042   0.146 -0.7552  0.1987 -0.2438
  779SOL     OW 2335   0.200   0.848   0.491 -0.4289 -0.2855  0.2698
  779SOL    HW1 2336   0.155   0.757   0.475 -0.7559  0.8597  0.7808
  779SOL    HW2 2337   0.139   0.908   0.553 -0.5362 -0.5679  0.5341
  780SOL     OW 2338   0.076   0.254   2.241 -0.8971 -0.3747 -0.2370
  780SOL    HW1 2339   0.067   0.357   2.235  0.7729  1.0428 -2.5138
  780SOL    HW2 2340   0.176   0.225   2.218 -0.4878 -3.8800  0.1577
  781SOL     OW 2341   0.638   1.740   1.555  0.5774  0.0318  0.2829
  781SOL    HW1 2342   0.680   1.743   1.649  0.0380 -1.4953 -0.0799
  781SOL    HW2 2343   0.545   1.694   1.541 -1.4255  0.2816 -1.6001
  782SOL     OW 2344   2.591   0.136   0.911 -0.3107 -1.0123  0.1237
  782SOL    HW1 2345   2.503   0.147   0.855  0.1218  3.0171 -0.2966
  782SOL    HW2 2346   2.592   0.202   0.985  1.2160 -0.3620 -2.4899
  783SOL     OW 2347   2.841   0.687   2.523 -0.3090 -0.6060 -0.4298
  783SOL    HW1 2348   2.787   0.689   2.612 -1.4828  0.6501  2.6934
  783SOL    HW2 2349   2.801   0.615   2.464 -2.2062 -0.6854 -0.1402
  784SOL     OW 2350   1.394   2.211   0.063 -0.2101  0.0847 -0.5140
  784SOL    HW1 2351   1.469   2.258   0.114 -0.5916 -4.2128  0.8579
  784SOL    HW2 2352   1.397   2.232  -0.039  2.0199  0.0783  1.4809
  785SOL     OW 2353   2.177   0.368   3.056  0.2724 -0.5420 -0.1062
  785SOL    HW1 2354   2.098   0.373   3.131 -1.2996 -2.1114 -0.7964
  785SOL    HW2 2355   2.202   0.459   3.014  1.2204 -0.4954 -1.7225
  786SOL     OW 2356   2.018   2.186   2.203  0.6933 -0.1251 -0.3198
  786SOL    HW1 2357   2.002   2.087   2.214 -0.6043  0.5968 -0.0776
  786SOL    HW2 2358   2.111   2.207   2.241 -1.5579 -1.0747 -2.0637
  787SOL     OW 2359   1.411   0.616   0.916 -0.2504  0.3057 -0.4455
  787SOL    HW1 2360   1.337   0.684   0.942  1.2063 -0.8104 -3.0321
  787SOL    HW2 2361   1.414   0.597   0.813  1.4542 -0.2328  0.2131
  788SOL     OW 2362   1.227   0.428   3.049 -0.1327  0.2810 -0.2379
  788SOL    HW1 2363   1.136   0.454   3.008  0.0645 -0.3071  2.0392
  788SOL    HW2 2364   1.270   0.487   3.118  0.7279 -0.0400 -1.0489
  789SOL     OW 2365   2.599   0.043   1.791  0.1039  0.8325  0.1138
  789SOL    HW1 2366   2.515   0.103   1.819 -0.1139  0.8248 -1.0770
  789SOL    HW2 2367   2.576  -0.056   1.804 -0.6999 -2.4294  2.4911
  790SOL     OW 2368   2.588   2.722   0.860  0.1848 -0.1929  0.6164
  790SOL    HW1 2369   2.621   2.810   0.901 -0.6146 -0.9791  0.2868
  790SOL    HW2 2370   2.649   2.648   0.879 -1.1339  1.3091 -2.2134
  791SOL     OW 2371   1.909   1.270   0.261 -0.0201  0.3838 -0.4673
  791SOL    HW1 2372   1.826   1.210   0.277  0.7543 -2.9569  0.1263
  791SOL    HW2 2373   1.994   1.216   0.269 -0.3659  0.0016 -2.2547
  792SOL     OW 2374   0.462   2.001   2.138  0.0120  0.3611  0.3033
  792SOL    HW1 2375   0.532   2.063   2.188  3.8138 -0.8818  0.9979
  792SOL    HW2 2376   0.376   1.988   2.191 -1.5627 -1.6486 -1.0968
  793SOL     OW 2377   2.096   1.561   2.069  0.1561 -0.2220  0.4093
  793SOL    HW1 2378   2.189   1.604   2.043  0.0102  1.5125 -1.3910
  793SOL    HW2 2379   2.071   1.483   2.008 -0.4562  0.5114 -2.9566
  794SOL     OW 2380   0.473   1.370   2.478  0.2538  0.5122  0.4730
  794SOL    HW1 2381   0.483   1.320   2.386  0.7601 -0.9621  0.1851
  794SOL    HW2 2382   0.433   1.467   2.467 -1.0033  1.5716 -2.6345
  795SOL     OW 2383   2.468   2.361   1.758  0.3735  0.4832  0.6533
  795SOL    HW1 2384   2.443   2.402   1.849  1.4979 -1.6594  1.7558
  795SOL    HW2 2385   2.427   2.261   1.751  1.8839  0.2604  0.8584
  796SOL     OW 2386   3.095   1.091   2.707 -0.4313 -0.3512  0.1262
  796SOL    HW1 2387   2.997   1.119   2.731 -1.5547  2.7572  0.3008
  796SOL    HW2 2388   3.169   1.105   2.779 -1.4102  0.9507  1.4698
  797SOL     OW 2389   0.725   0.629   1.337 -0.1282  0.2112 -0.0576
  797SOL    HW1 2390   0.784   0.669   1.412  0.7386  0.5069 -0.8935
  797SOL    HW2 2391   0.674   0.711   1.296 -0.1097  0.7221 -2.2503
  798SOL     OW 2392   1.332   0.422   1.089  0.1939  0.2117  0.0828
  798SOL    HW1 2393   1.336   0.459   1.190  1.4879  0.8027  1.2218
  798SOL    HW2 2394   1.382   0.476   1.019 -0.0528 -0.4002  1.8844
  799SOL     OW 2395   1.940   2.617   1.048 -0.2586  0.2650  0.0869
  799SOL    HW1 2396   1.917   2.547   1.121 -0.3784  3.2522 -1.8578
  799SOL    HW2 2397   1.903   2.603   0.956  3.9667 -0.4238 -0.3108
  800SOL     OW 2398   2.911   0.833   1.845 -0.3099  0.6384 -0.2367
  800SOL    HW1 2399   2.961   0.923   1.856 -0.4286  1.0966 -1.1945
  800SOL    HW2 2400   2.873   0.796   1.934 -0.3662 -2.1359 -2.6671
  801SOL     OW 2401   2.000   2.187   0.032 -0.0924 -0.0452  0.1056
  801SOL    HW1 2402   1.933   2.173  -0.047 -3.5541 -2.4934 -0.9670
  801SOL    HW2 2403   2.080   2.125   0.025 -0.9722  1.9243  3.4686
  802SOL     OW 2404   0.649   0.818   2.564  0.5161 -0.2924 -0.6228
  802SOL    HW1 2405   0.693   0.749   2.504  0.8105 -3.2822  0.5861
  802SOL    HW2 2406   0.574   0.876   2.516 -0.1374 -0.5020 -2.6194
  803SOL     OW 2407   0.981   0.090   0.870 -0.3477 -0.4980  0.8097
  803SOL    HW1 2408   1.044   0.168   0.901 -1.2375 -0.0442 -0.2235
  803SOL    HW2 2409   0.910   0.129   0.803 -2.0286  0.6554  1.1705
  804SOL     OW 2410   0.313   3.059   2.203 -0.0061  0.1923 -0.1713
  804SOL    HW1 2411   0.329   3.159   2.191 -2.4535  1.1299  2.6500
  804SOL    HW2 2412   0.269   3.018   2.120  0.9378 -0.1178 -0.9838
  805SOL     OW 2413   2.353   0.406   0.343 -0.5860  0.0006 -0.7447
  805SOL    HW1 2414   2.406   0.390   0.438  2.3136  1.4611  0.8183
  805SOL    HW2 2415   2.367   0.325   0.278  2.4717 -1.1453 -0.5147
  806SOL     OW 2416   0.721   2.436   1.800 -0.1410 -0.0227  0.5913
  806SOL    HW1 2417   0.675   2.518   1.844  0.6635  0.7102  1.6238
  806SOL    HW2 2418   0.798   2.460   1.736 -1.0532 -1.2568 -3.6043
  807SOL     OW 2419   2.498   0.873   0.439  0.9326  0.6603  0.3603
  807SOL    HW1 2420   2.585   0.918   0.465 -1.4257  0.7758  2.4363
  807SOL    HW2 2421   2.473   0.898   0.340  0.5338 -3.5041  2.1668
  808SOL     OW 2422   0.655   2.088   2.942  0.6072 -0.1238  0.2295
  808SOL    HW1 2423   0.599   2.128   3.026 -1.0288  0.5022  0.1700
  808SOL    HW2 2424   0.673   1.984   2.951  0.2162 -0.5830 -1.2285
  809SOL     OW 2425   2.577   1.976   1.862 -0.0077 -0.0035 -0.3360
  809SOL    HW1 2426   2.670   2.023   1.864 -0.1214  1.8097  0.8658
  809SOL    HW2 2427   2.529   1.961   1.771 -0.1634 -4.0939  1.6825
  810SOL     OW 2428   2.208   1.128   0.509 -0.4068  0.5703  0.0271
  810SOL    HW1 2429   2.162   1.032   0.519  1.8840  1.1087  0.4999
  810SOL    HW2 2430   2.167   1.204   0.571  0.1802 -0.4110 -1.1897
  811SOL     OW 2431   1.393   2.511   1.199  0.3540  0.3667 -0.0328
  811SOL    HW1 2432   1.331   2.429   1.225 -0.5760 -1.8935  0.5399
  811SOL    HW2 2433   1.347   2.601   1.217  0.0846  0.7505  1.6065
  812SOL     OW 2434   1.418   0.729   1.987 -0.0765  0.0782  0.2429
  812SOL    HW1 2435   1.347   0.773   2.047 -0.1992 -0.3516 -1.7719
  812SOL    HW2 2436   1.409   0.771   1.893  0.6162  0.6408 -0.2796
  813SOL     OW 2437   1.649   2.064   2.469 -0.4019  0.1053 -0.1309
  813SOL    HW1 2438   1.665   1.969   2.507 -2.3782  0.6541 -1.2305
  813SOL    HW2 2439   1.615   2.060   2.367  0.4604  2.2707 -0.6641
  814SOL     OW 2440   2.948   1.573   2.855  0.0585 -0.9786  0.3351
  814SOL    HW1 2441   3.008   1.547   2.939 -0.8889 -1.0215  1.9469
  814SOL    HW2 2442   2.962   1.676   2.827  1.4560  2.2664 -0.6347
  815SOL     OW 2443   2.180   2.963   2.802  0.0222 -0.1035  0.4699
  815SOL    HW1 2444   2.185   2.871   2.860  1.7621 -1.3031  0.2171
  815SOL    HW2 2445   2.270   3.015   2.809 -1.3734 -0.1828 -1.7975
  816SOL     OW 2446   1.582   0.365   1.686 -0.1453  0.6857  0.4471
  816SOL    HW1 2447   1.641   0.285   1.703 -2.3957 -0.0419 -1.2278
  816SOL    HW2 2448   1.513   0.390   1.762 -0.9986 -2.3807 -1.7830
  817SOL     OW 2449   0.357   1.161   2.640 -0.1343  0.2625  0.3029
  817SOL    HW1 2450   0.305   1.210   2.715  0.3832 -0.4963  0.3836
  817SOL    HW2 2451   0.397   1.235   2.572  0.2404  0.8242 -1.4436
  818SOL     OW 2452   1.957   0.855   0.391 -0.1969 -0.6650  0.3191
  818SOL    HW1 2453   2.058   0.843   0.414  0.4259 -0.4030  1.8431
  818SOL    HW2 2454   1.907   0.906   0.463  1.2394 -1.9662 -0.9302
  819SOL     OW 2455   2.767   2.951   3.055 -0.1380 -0.1069  1.0215
  819SOL    HW1 2456   2.778   2.869   3.112 -0.8031  0.0410  0.6540
  819SOL    HW2 2457   2.695   2.935   2.983  0.2272 -3.0240  0.6407
  820SOL     OW 2458   1.220   1.042   0.560  0.2508 -0.0833 -0.2649
  820SOL    HW1 2459   1.238   1.144   0.586  2.0636  3.5065  0.9656
  820SOL    HW2 2460   1.228   0.983   0.646 -0.8156  0.4497 -0.4797
  821SOL     OW 2461   0.037   1.275   0.702  0.1163 -0.2998  0.3370
  821SOL    HW1 2462  -0.005   1.266   0.794 -0.9408  1.8719  0.2686
  821SOL    HW2 2463   0.078   1.371   0.696 -0.7535 -1.9849  1.5960
  822SOL     OW 2464   2.586   1.801   2.456 -0.5654  0.5686 -0.2550
  822SOL    HW1 2465   2.567   1.872   2.533  0.0959  1.9194  0.2725
  822SOL    HW2 2466   2.516   1.804   2.378 -0.7540  0.3563 -0.3410
  823SOL     OW 2467   2.004   0.851   1.131  0.2073  0.8315 -0.1609
  823SOL    HW1 2468   1.996   0.870   1.235  2.3866  2.7787 -2.3251
  823SOL    HW2 2469   1.924   0.885   1.077 -2.8083  1.4375  1.7040
  824SOL     OW 2470   0.186   1.999   2.810  0.3449 -0.2450  0.3267
  824SOL    HW1 2471   0.177   1.925   2.879  1.1071 -1.1755 -2.4311
  824SOL    HW2 2472   0.232   1.972   2.719  0.0370 -2.1353 -1.0144
  825SOL     OW 2473   1.309   1.031   0.292  0.5017 -0.4472 -0.0950
  825SOL    HW1 2474   1.324   1.133   0.286 -3.0047  3.0760 -1.2150
  825SOL    HW2 2475   1.284   0.997   0.389  2.5999 -0.3509  0.1740
  826SOL     OW 2476   1.961   0.661   1.561 -0.1525 -0.3844  0.4284
  826SOL    HW1 2477   2.036   0.608   1.613 -2.0293 -0.9605 -0.8017
  826SOL    HW2 2478   1.880   0.600   1.538  0.5870  0.8313  0.9932
  827SOL     OW 2479   0.701   1.214   0.284 -0.9147  0.2871  0.2833
  827SOL    HW1 2480   0.794   1.170   0.279 -3.9213 -0.7479 -0.0486
  827SOL    HW2 2481   0.628   1.154   0.322  0.6444  3.7676  1.5716
  828SOL     OW 2482   2.637   0.096   1.538  0.1779 -0.3020 -0.1534
  828SOL    HW1 2483   2.548   0.109   1.486 -1.4218 -0.4909  2.1966
  828SOL    HW2 2484   2.621   0.073   1.638  0.3837 -1.5394 -2.6267
  829SOL     OW 2485   2.906   2.440   2.871  0.5144 -0.2133 -0.8421
  829SOL    HW1 2486   2.821   2.420   2.926  0.3622  0.5620 -1.4007
  829SOL    HW2 2487   2.889   2.526   2.815  0.8234 -0.0169 -0.2032
  830SOL     OW 2488   2.825   1.006   3.044  0.0484  0.2481 -0.0415
  830SOL    HW1 2489   2.887   1.082   3.080 -0.7245  0.2634 -0.2336
  830SOL    HW2 2490   2.844   0.910   3.077  4.0232  2.0478 -2.3586
  831SOL     OW 2491   0.131   0.584   0.412  0.0576  0.0429  0.3032
  831SOL    HW1 2492   0.083   0.522   0.481 -0.3950 -0.8865 -0.7221
  831SOL    HW2 2493   0.128   0.550   0.313 -0.1841 -1.7571  0.8398
  832SOL     OW 2494   1.844   0.786   3.010 -0.1741 -0.3466  0.1668
  832SOL    HW1 2495   1.758   0.825   2.961  0.4413  1.5803  0.4032
  832SOL    HW2 2496   1.838   0.684   3.016  0.6481  1.0203  0.1363
  833SOL     OW 2497   2.438   2.069   0.455 -0.2927 -0.1403 -0.2009
  833SOL    HW1 2498   2.334   2.060   0.470 -1.0421 -2.3771  0.1920
  833SOL    HW2 2499   2.487   1.980   0.466 -1.3803 -3.2366  0.2615
  834SOL     OW 2500   0.120   0.175   0.507  0.2118 -0.7063  0.2744
  834SOL    HW1 2501   0.082   0.091   0.547  0.2898  0.4372 -0.7876
  834SOL    HW2 2502   0.118   0.171   0.401  0.3746  0.4699 -2.6002
  835SOL     OW 2503   2.381   1.505   1.162  0.6142  0.3795  0.1884
  835SOL    HW1 2504   2.370   1.607   1.162 -0.9901 -2.3014  1.9444
  835SOL    HW2 2505   2.454   1.482   1.090 -0.6654 -0.3846 -1.9925
  836SOL     OW 2506   1.635   0.876   2.581 -0.4539  0.3139  0.1678
  836SOL    HW1 2507   1.535   0.838   2.588 -1.8018 -0.0702 -1.4507
  836SOL    HW2 2508   1.662   0.910   2.485 -0.1254  2.4394  0.4671
  837SOL     OW 2509   1.616   0.095   0.559  0.3498 -0.3932  0.0551
  837SOL    HW1 2510   1.564   0.151   0.628 -1.1215 -0.9296  0.6673
  837SOL    HW2 2511   1.589   0.119   0.462 -1.1642 -1.9729  1.8622
  838SOL     OW 2512   1.218   1.427   2.782  0.3703 -0.7980  0.0174
  838SOL    HW1 2513   1.161   1.473   2.853  2.0358  0.1248  1.0420
  838SOL    HW2 2514   1.155   1.375   2.716  1.5499  0.9154 -1.1142
  839SOL     OW 2515   1.667   0.274   0.994 -0.2004  0.7897 -0.0484
  839SOL    HW1 2516   1.661   0.349   1.068  1.3648  1.3708  2.2701
  839SOL    HW2 2517   1.621   0.185   1.019 -1.6002  1.9634  1.4938
  840SOL     OW 2518   2.520   2.869   1.761  0.0282 -0.0335 -0.0229
  840SOL    HW1 2519   2.500   2.841   1.661 -0.6697 -0.1538  2.6768
  840SOL    HW2 2520   2.548   2.788   1.822  1.8123  0.3177 -0.7838
  841SOL     OW 2521   1.585   0.918   2.973 -0.3231 -0.2833  0.2649
  841SOL    HW1 2522   1.526   0.911   3.056  1.7102  0.1459 -0.3047
  841SOL    HW2 2523   1.574   1.005   2.920  2.6238 -1.1157 -0.5038
  842SOL     OW 2524   0.831   1.511   0.966 -1.0528 -0.0676  0.1694
  842SOL    HW1 2525   0.786   1.578   1.029 -0.6556  0.7940 -0.0332
  842SOL    HW2 2526   0.764   1.481   0.895 -1.1913 -1.1480 -1.4213
  843SOL     OW 2527   0.134   0.120   1.472 -0.2355  0.0115 -0.0466
  843SOL    HW1 2528   0.215   0.135   1.536  1.8263 -1.2995 -2.6610
  843SOL    HW2 2529   0.122   0.016   1.455 -1.3661  1.9869 -0.1013
  844SOL     OW 2530   0.768   2.481   0.293 -0.0930 -0.4068 -0.1118
  844SOL    HW1 2531   0.729   2.464   0.384  2.3765  2.9857  0.4882
  844SOL    HW2 2532   0.693   2.491   0.223  1.6653  0.5859  0.6119
  845SOL     OW 2533   1.655   2.878   1.377  0.5098  0.3771  0.1992
  845SOL    HW1 2534   1.709   2.877   1.466  1.0658  0.8275 -0.6407
  845SOL    HW2 2535   1.617   2.974   1.367  1.3970  0.5728  0.2533
  846SOL     OW 2536   1.661   2.975   0.859  0.7446 -0.2371  0.3132
  846SOL    HW1 2537   1.639   2.971   0.755 -1.2044  0.4372 -0.1723
  846SOL    HW2 2538   1.753   2.934   0.882  2.0003  0.6106  2.8575
  847SOL     OW 2539   2.026   1.651   0.225  0.2441 -0.1169 -0.4945
  847SOL    HW1 2540   1.968   1.628   0.309 -1.2755 -0.8858  1.8865
  847SOL    HW2 2541   1.970   1.649   0.138 -1.8266  0.3596  1.7053
  848SOL     OW 2542   2.510   0.788   2.673 -0.7065 -0.1247 -0.0202
  848SOL    HW1 2543   2.531   0.890   2.661 -0.1007 -2.0904 -1.1754
  848SOL    HW2 2544   2.454   0.760   2.593  0.8941  1.1442 -2.1170
  849SOL     OW 2545   2.478   0.879   2.350 -0.4131 -0.2058 -0.2623
  849SOL    HW1 2546   2.548   0.841   2.284 -1.8002 -0.4986  0.6813
  849SOL    HW2 2547   2.417   0.802   2.389 -0.9952 -0.2163  1.6001
  850SOL     OW 2548   1.506   0.099   1.337  0.2951  0.0732 -0.1256
  850SOL    HW1 2549   1.517   0.069   1.236  1.7299 -0.9065 -2.8008
  850SOL    HW2 2550   1.455   0.030   1.394 -0.4667 -2.0011 -1.4668
  851SOL     OW 2551   0.465   1.698   0.655  0.3033  0.0453  0.3483
  851SOL    HW1 2552   0.462   1.803   0.659  1.0488 -1.6824  1.6200
  851SOL    HW2 2553   0.561   1.660   0.676  0.0975 -1.5660  1.6551
  852SOL     OW 2554   0.811   2.163   1.668  0.5578  0.3114  0.0718
  852SOL    HW1 2555   0.803   2.255   1.616  2.1262 -2.2561  0.7068
  852SOL    HW2 2556   0.750   2.149   1.750 -1.9443  1.1297  0.8955
  853SOL     OW 2557   2.477   1.564   2.616  0.1251 -0.0249  0.3354
  853SOL    HW1 2558   2.496   1.465   2.578 -0.0172 -0.5956 -1.3593
  853SOL    HW2 2559   2.522   1.633   2.556 -0.8514 -1.0920  2.9085
  854SOL     OW 2560   2.518   1.391   1.777  0.0398  0.4539  0.3765
  854SOL    HW1 2561   2.538   1.368   1.676  1.3438 -0.5976 -0.3101
  854SOL    HW2 2562   2.495   1.304   1.831 -0.2877  0.4095 -0.0739
  855SOL     OW 2563   2.111   2.369   0.957 -0.2389 -0.3121 -0.0075
  855SOL    HW1 2564   2.142   2.442   0.888 -0.6639 -1.5997 -0.0914
  855SOL    HW2 2565   2.170   2.365   1.040 -4.0894 -2.0877 -0.6811
  856SOL     OW 2566   1.382   1.452   0.881  0.6170 -1.1181 -0.3270
  856SOL    HW1 2567   1.446   1.531   0.907  2.5172 -0.6331  2.3139
  856SOL    HW2 2568   1.282   1.458   0.919  0.2613  1.0928  0.1106
  857SOL     OW 2569   2.968   2.647   1.033  0.3483 -0.8734  0.3093
  857SOL    HW1 2570   2.896   2.569   1.033 -1.0874 -2.5157  0.5175
  857SOL    HW2 2571   3.064   2.613   1.007 -1.2890 -0.6678  1.4853
  858SOL     OW 2572   2.318   2.110   1.701  0.2938  0.6258 -0.2734
  858SOL    HW1 2573   2.221   2.132   1.663 -1.4666  1.3148  0.2066
  858SOL    HW2 2574   2.370   2.061   1.628 -1.3078  1.7313 -1.1285
  859SOL     OW 2575   2.444   0.546   1.051  0.4462 -0.3324  0.4405
  859SOL    HW1 2576   2.517   0.564   0.971  1.1285 -1.6077  1.1960
  859SOL    HW2 2577   2.467   0.456   1.100 -1.7737 -1.6248  3.2144
  860SOL     OW 2578   1.942   2.819   0.475  0.0743 -0.1004 -0.8210
  860SOL    HW1 2579   1.934   2.797   0.377 -1.5334 -0.8398  3.3297
  860SOL    HW2 2580   2.027   2.873   0.508  0.7245  1.1549  1.9956
  861SOL     OW 2581   1.097   2.585   2.817  0.5354  0.4021 -0.4044
  861SOL    HW1 2582   1.153   2.660   2.768  0.6399  0.8583 -2.9566
  861SOL    HW2 2583   1.098   2.593   2.922 -2.9543  0.9458  0.5198
  862SOL     OW 2584   2.845   2.502   1.602  0.2949 -0.0434  0.3465
  862SOL    HW1 2585   2.922   2.513   1.669 -2.2468 -0.4183 -2.1266
  862SOL    HW2 2586   2.815   2.586   1.553 -0.4653 -0.5010 -0.5989
  863SOL     OW 2587   1.854   2.681   0.193  0.3037 -0.2275 -0.1263
  863SOL    HW1 2588   1.900   2.588   0.179 -0.8755  0.2702  1.9148
  863SOL    HW2 2589   1.757   2.666   0.220  0.1109  3.4681  1.8827
  864SOL     OW 2590   1.861   1.144   2.888 -0.4518  0.1122  0.3745
  864SOL    HW1 2591   1.874   1.099   2.794  1.0268 -2.9384 -0.8570
  864SOL    HW2 2592   1.946   1.139   2.952 -0.7834  2.5877  2.8482
  865SOL     OW 2593   2.193   1.858   0.667 -0.2957  0.5403  0.5584
  865SOL    HW1 2594   2.247   1.837   0.754 -0.4202 -0.6173  3.9260
  865SOL    HW2 2595   2.097   1.817   0.668 -1.8134  0.6682 -0.4739
  866SOL     OW 2596   2.962   2.900   0.985 -0.1978  0.0193  0.0430
  866SOL    HW1 2597   3.012   2.908   0.897  1.0266 -0.9265 -0.2382
  866SOL    HW2 2598   2.943   2.800   1.015  0.6685 -0.1043  0.3409
  867SOL     OW 2599   0.327   1.380   0.934  0.1785 -0.6682 -0.4044
  867SOL    HW1 2600   0.332   1.308   0.863  1.7028 -0.5890  1.3682
  867SOL    HW2 2601   0.264   1.460   0.908 -1.9119 -0.2568  0.0840
  868SOL     OW 2602   0.757   1.906   2.027  0.0209  0.3171 -0.1660
  868SOL    HW1 2603   0.732   1.900   2.130  0.0117  0.5873  2.6267
  868SOL    HW2 2604   0.729   1.995   1.981  2.7233 -0.7045  0.2606
  869SOL     OW 2605   2.511   1.927   1.602 -0.5585 -0.0736  0.1442
  869SOL    HW1 2606   2.591   1.970   1.549  0.2766 -0.2721 -1.7611
  869SOL    HW2 2607   2.498   1.827   1.582  1.6888 -0.1252  0.3514
  870SOL     OW 2608   2.298   2.625   1.283 -0.3519 -0.6107 -0.3631
  870SOL    HW1 2609   2.324   2.537   1.249  0.4745  2.3172 -1.5737
  870SOL    HW2 2610   2.242   2.626   1.370 -0.5474 -0.5396  1.6183
  871SOL     OW 2611   2.991   2.091   0.569 -0.3723 -0.1311  0.3141
  871SOL    HW1 2612   2.935   2.135   0.640  0.8744 -1.7702 -0.3607
  871SOL    HW2 2613   2.931   2.054   0.493  1.3147 -1.8274 -1.8470
  872SOL     OW 2614   2.128   0.480   1.690  0.3117  0.0489  0.2173
  872SOL    HW1 2615   2.068   0.450   1.768 -1.2503  1.1465 -2.1763
  872SOL    HW2 2616   2.227   0.446   1.692 -0.6335 -1.6069 -2.2237
  873SOL     OW 2617   1.733   2.081   2.997  0.1293  0.1861 -0.1693
  873SOL    HW1 2618   1.721   2.183   3.015  1.1695  1.2079  1.2274
  873SOL    HW2 2619   1.689   2.051   2.906  0.2368  0.5249 -2.0143
  874SOL     OW 2620   0.657   2.462   0.806  0.0523 -0.2089  0.2471
  874SOL    HW1 2621   0.650   2.563   0.811  2.8219  1.2357  0.4253
  874SOL    HW2 2622   0.759   2.432   0.801 -0.2300 -1.5244 -1.5500
  875SOL     OW 2623   2.295   1.469   1.431  0.0510 -0.3406 -0.1332
  875SOL    HW1 2624   2.359   1.535   1.483  2.8763  0.2884 -0.7629
  875SOL    HW2 2625   2.313   1.472   1.333 -1.2485  0.8033 -0.0439
  876SOL     OW 2626   0.079   2.239   2.684 -0.5016  0.1426  0.1234
  876SOL    HW1 2627   0.127   2.160   2.740  1.3514  0.0863 -0.4794
  876SOL    HW2 2628   0.094   2.335   2.725  3.3010  0.6626  2.5898
  877SOL     OW 2629   2.868   2.689   0.580 -0.4739  0.1034  0.0983
  877SOL    HW1 2630   2.827   2.781   0.607  0.6640 -3.0629  1.3550
  877SOL    HW2 2631   2.894   2.628   0.663  2.2810 -1.3711  1.6794
  878SOL     OW 2632   2.829   1.598   2.185  0.3703 -0.0581  0.1367
  878SOL    HW1 2633   2.909   1.535   2.170 -1.1525  0.6159 -0.8845
  878SOL    HW2 2634   2.822   1.642   2.278  2.1431 -2.0197  1.1162
  879SOL     OW 2635   2.371   0.039   1.139  0.3762  0.0636 -0.3049
  879SOL    HW1 2636   2.437  -0.040   1.155  1.1097  0.3615  0.7982
  879SOL    HW2 2637   2.293   0.025   1.072 -0.3157  1.6109  1.2132
  880SOL     OW 2638   0.683   0.483   2.232 -0.1992 -0.4356 -0.0663
  880SOL    HW1 2639   0.598   0.437   2.266 -0.6059 -0.4614  1.5260
  880SOL    HW2 2640   0.728   0.437   2.152 -0.6112  0.7961  1.2401
  881SOL     OW 2641   0.881   0.078   0.506  0.3322 -0.1967  0.2261
  881SOL    HW1 2642   0.936  -0.010   0.504  2.4449  0.0629 -0.2254
  881SOL    HW2 2643   0.791   0.057   0.458  3.0150  2.1648 -0.3419
  882SOL     OW 2644   2.709   1.661   1.633  0.2828 -0.4372  0.6599
  882SOL    HW1 2645   2.801   1.649   1.588  2.1922  2.4362  1.5906
  882SOL    HW2 2646   2.711   1.699   1.732 -0.5020 -0.6496  1.9037
  883SOL     OW 2647   0.881   0.589   0.961  0.6722 -0.2604 -0.0824
  883SOL    HW1 2648   0.910   0.684   0.988  1.8488 -0.4468  1.5227
  883SOL    HW2 2649   0.903   0.524   1.034 -0.4975  0.6487 -2.7119
  884SOL     OW 2650   1.181   1.783   1.140 -0.4876  0.4498 -0.3758
  884SOL    HW1 2651   1.159   1.724   1.054 -0.9278 -1.3000  1.0501
  884SOL    HW2 2652   1.127   1.868   1.138  1.2579 -3.3593  0.1633
  885SOL     OW 2653   2.351   1.822   2.303 -0.0681  0.0685  0.3230
  885SOL    HW1 2654   2.266   1.768   2.321  1.1213 -0.2212 -2.0965
  885SOL    HW2 2655   2.340   1.921   2.317 -0.6715  2.6304 -0.2354
  886SOL     OW 2656   2.602   0.465   1.813  0.5613 -0.0443 -0.0952
  886SOL    HW1 2657   2.646   0.374   1.839 -2.0475 -1.4019 -1.4586
  886SOL    HW2 2658   2.665   0.548   1.795  0.4509 -0.5439 -0.0947
  887SOL     OW 2659   0.149   2.040   1.227  0.1144 -0.2609 -0.3878
  887SOL    HW1 2660   0.064   1.994   1.196  0.6511  0.6314  1.0456
  887SOL    HW2 2661   0.132   2.139   1.246  2.0364  2.5697 -4.1308
  888SOL     OW 2662   0.545   1.319   1.557  0.0271  0.0381  0.2692
  888SOL    HW1 2663   0.594   1.349   1.469 -0.3412 -1.0595  0.6033
  888SOL    HW2 2664   0.507   1.221   1.546 -0.1876  2.9116 -0.2529
  889SOL     OW 2665   0.810   2.545   2.185 -0.4649 -0.4746 -0.5563
  889SOL    HW1 2666   0.769   2.450   2.207 -1.9112 -0.1785  1.2829
  889SOL    HW2 2667   0.880   2.530   2.109  0.8966  1.4133 -0.2545
  890SOL     OW 2668   2.361   2.481   0.218 -0.2756  0.2970 -0.2932
  890SOL    HW1 2669   2.415   2.544   0.158 -0.1768  0.3344  0.3390
  890SOL    HW2 2670   2.313   2.528   0.296 -0.1344  0.0475  0.1982
  891SOL     OW 2671   2.602   1.615   0.751  0.1183 -0.7466 -0.5484
  891SOL    HW1 2672   2.597   1.534   0.812 -3.4359  0.0595 -0.5801
  891SOL    HW2 2673   2.516   1.651   0.703  0.3940  0.7298 -1.6508
  892SOL     OW 2674   0.331   0.227   2.150 -0.2235 -0.4444  0.0728
  892SOL    HW1 2675   0.303   0.271   2.059 -2.1799 -1.7747  1.1725
  892SOL    HW2 2676   0.366   0.297   2.221 -0.0332 -0.1321  2.2393
  893SOL     OW 2677   1.666   0.237   2.758 -0.6916 -0.1228  0.4053
  893SOL    HW1 2678   1.740   0.310   2.761 -0.0902  0.9778 -1.0846
  893SOL    HW2 2679   1.576   0.283   2.740  0.1755 -0.3099 -0.9969
  894SOL     OW 2680   2.219   2.008   0.025  0.6471 -0.5166 -0.0009
  894SOL    HW1 2681   2.183   1.931  -0.037  3.3137 -0.9754  3.9166
  894SOL    HW2 2682   2.213   1.987   0.126  1.7515 -0.9607  1.3217
  895SOL     OW 2683   2.866   1.425   0.880  0.1816  0.3145  0.3084
  895SOL    HW1 2684   2.944   1.375   0.929  0.3100  0.9341 -1.1833
  895SOL    HW2 2685   2.875   1.525   0.884  1.6640 -0.1158 -2.2403
  896SOL     OW 2686   1.807   1.860   1.181  0.0563 -0.2437 -0.3746
  896SOL    HW1 2687   1.824   1.850   1.080 -1.3739 -2.2887 -0.2382
  896SOL    HW2 2688   1.727   1.924   1.202  0.9469 -0.6394  1.6154
  897SOL     OW 2689   0.286   0.546   3.084  0.4222  0.0409 -0.4197
  897SOL    HW1 2690   0.233   0.615   3.036 -0.5853 -1.8696 -0.1937
  897SOL    HW2 2691   0.373   0.581   3.123  0.5764 -3.0287  1.5741
  898SOL     OW 2692   0.591   2.861   1.119 -0.0188 -0.2242  0.2112
  898SOL    HW1 2693   0.554   2.956   1.151 -0.6070  0.4263  2.8226
  898SOL    HW2 2694   0.674   2.835   1.175  1.2665 -0.9526 -0.2804
  899SOL     OW 2695   2.752   0.883   1.275 -0.3007 -0.3126 -0.3960
  899SOL    HW1 2696   2.676   0.860   1.204 -2.1377 -0.3197  0.3004
  899SOL    HW2 2697   2.845   0.914   1.235  1.2156  0.3358 -0.3457
  900SOL     OW 2698   1.016   2.561   2.387  0.5538  0.4797 -0.2762
  900SOL    HW1 2699   0.940   2.563   2.312 -0.1209  0.0656 -0.5112
  900SOL    HW2 2700   0.982   2.525   2.477  2.0631  1.3453 -0.9110
  901SOL     OW 2701   1.880   2.367   1.394 -0.5680  0.4782  0.3675
  901SOL    HW1 2702   1.845   2.354   1.299 -0.4856  0.1744  0.1902
  901SOL    HW2 2703   1.982   2.355   1.393  0.6130 -1.3887  1.0529
  902SOL     OW 2704   2.528   1.659   1.431  0.2412 -0.0381 -0.8706
  902SOL    HW1 2705   2.593   1.653   1.514  0.1605 -2.8175 -2.3365
  902SOL    HW2 2706   2.579   1.661   1.343 -0.7969 -2.0230  1.4034
  903SOL     OW 2707   0.278   2.482   1.966 -0.1735 -0.0524  0.2349
  903SOL    HW1 2708   0.184   2.437   1.950  1.8914 -1.3772  0.4627
  903SOL    HW2 2709   0.308   2.555   1.897  2.5112 -0.3992 -0.2620
  904SOL     OW 2710   2.067   0.696   2.446 -0.5317 -0.3406 -0.1860
  904SOL    HW1 2711   2.018   0.660   2.527 -0.6602  0.7438 -0.9787
  904SOL    HW2 2712   2.003   0.717   2.363 -1.0855 -0.0754 -2.5604
  905SOL     OW 2713   2.798   0.062   2.591 -0.2740  0.2743  0.0842
  905SOL    HW1 2714   2.870  -0.011   2.573 -0.2817 -1.0536  1.8718
  905SOL    HW2 2715   2.824   0.154   2.552  5.4442 -1.7911  2.3170
  906SOL     OW 2716   0.153   1.789   1.861  0.4175  0.2057  0.0570
  906SOL    HW1 2717   0.100   1.787   1.772  1.3755 -1.7935 -0.2512
  906SOL    HW2 2718   0.243   1.836   1.855  1.5511  0.3029  3.9871
  907SOL     OW 2719   0.146   2.460   1.000 -0.1058  0.5646  0.3203
  907SOL    HW1 2720   0.248   2.470   0.967  0.5250  0.4909  1.1407
  907SOL    HW2 2721   0.088   2.386   0.951  0.3847  1.6698 -1.6061
  908SOL     OW 2722   2.664   2.961   0.398 -0.3516  0.4430  0.1788
  908SOL    HW1 2723   2.625   3.011   0.315  2.2614  1.4289 -0.1723
  908SOL    HW2 2724   2.748   2.899   0.377  0.8789 -1.3085  0.4299
  909SOL     OW 2725   0.773   0.989   2.720 -0.2344 -0.6322  0.5572
  909SOL    HW1 2726   0.720   0.918   2.659  1.8487 -0.8310 -1.0785
  909SOL    HW2 2727   0.838   1.047   2.659 -0.1946  1.3954  0.7056
  910SOL     OW 2728   1.743   1.860   2.147  0.4291  0.2720 -0.0030
  910SOL    HW1 2729   1.802   1.895   2.064  0.6621 -0.1428 -2.3547
  910SOL    HW2 2730   1.666   1.931   2.177 -2.6438  1.2215 -1.5316
  911SOL     OW 2731   1.868   2.934   1.586 -0.2758  0.2114  0.3261
  911SOL    HW1 2732   1.933   2.892   1.518 -0.4156  0.3679 -0.2025
  911SOL    HW2 2733   1.873   2.887   1.677 -0.3363  0.9926 -2.0806
  912SOL     OW 2734   2.915   0.982   0.739  0.0610 -0.0090  0.0110
  912SOL    HW1 2735   2.925   0.953   0.838 -1.0935  2.1328  1.4616
  912SOL    HW2 2736   2.870   1.074   0.729  2.3092 -1.0452 -0.2426
  913SOL     OW 2737   2.554   1.291   1.531 -0.0260 -0.4859  0.6106
  913SOL    HW1 2738   2.545   1.190   1.512  1.1547  2.2587  1.6111
  913SOL    HW2 2739   2.578   1.347   1.448  1.1653 -0.6232 -0.2591
  914SOL     OW 2740   2.842   0.555   1.218 -0.7212 -0.2788 -0.2603
  914SOL    HW1 2741   2.907   0.476   1.245 -2.1155  0.6506 -0.0055
  914SOL    HW2 2742   2.777   0.570   1.299 -0.8114 -0.0584  0.2435
  915SOL     OW 2743   1.245   0.786   1.041 -0.2688  0.1422 -0.1346
  915SOL    HW1 2744   1.287   0.745   1.125  3.0049  1.0733 -2.0035
  915SOL    HW2 2745   1.150   0.827   1.057  1.6506  0.6933 -1.2829
  916SOL     OW 2746   0.637   0.011   0.674  0.1646 -0.3762  0.0741
  916SOL    HW1 2747   0.670   0.093   0.728 -0.4114 -0.6088 -1.7583
  916SOL    HW2 2748   0.614   0.035   0.576  0.7517 -1.3968  1.4956
  917SOL     OW 2749   2.811   2.625   1.977  0.4123 -0.1677  0.1505
  917SOL    HW1 2750   2.708   2.631   1.968  0.3696 -1.0788 -1.5909
  917SOL    HW2 2751   2.854   2.693   1.917 -1.1621  2.2850  3.0449
  918SOL     OW 2752   1.063   2.233   2.970 -0.0225 -0.0937  0.2612
  918SOL    HW1 2753   1.041   2.221   3.072 -0.6902  1.4356  0.1745
  918SOL    HW2 2754   1.122   2.153   2.941  1.5861  0.2771 -0.1732
  919SOL     OW 2755   0.875   1.648   2.836 -0.0171 -0.2506  0.1481
  919SOL    HW1 2756   0.936   1.706   2.773 -1.1961 -1.6495  1.0630
  919SOL    HW2 2757   0.814   1.584   2.784  0.7149  1.1444  0.2729
  920SOL     OW 2758   1.261   1.903   2.469  0.4741  0.0136 -0.3954
  920SOL    HW1 2759   1.248   1.879   2.368 -0.3586 -0.0561  1.5032
  920SOL    HW2 2760   1.285   1.819   2.528  1.5381 -1.4594 -0.4738
  921SOL     OW 2761   1.092   0.041   2.621 -0.3476 -0.0603 -0.4534
  921SOL    HW1 2762   1.107   0.048   2.517 -0.3595  1.0539 -0.9359
  921SOL    HW2 2763   1.000  -0.008   2.637  3.5384  0.2619 -1.7724
  922SOL     OW 2764   2.170   2.414   2.831 -0.9994 -0.1923  0.7047
  922SOL    HW1 2765   2.180   2.313   2.844  1.0665  2.9335 -0.4848
  922SOL    HW2 2766   2.100   2.440   2.761  0.2855  0.2991  1.1744
  923SOL     OW 2767   1.237   2.723   0.246  0.6860  0.3376  0.3711
  923SOL    HW1 2768   1.312   2.761   0.307 -1.1898  0.2233  1.0230
  923SOL    HW2 2769   1.251   2.627   0.216 -0.5370  0.1172  1.6629
  924SOL     OW 2770   2.878   1.525   0.066 -0.2054  0.1843 -0.3165
  924SOL    HW1 2771   2.798   1.501   0.007  0.7590  0.3760 -0.3742
  924SOL    HW2 2772   2.963   1.467   0.058 -2.1570  1.2356  1.2574
  925SOL     OW 2773   0.024   2.970   1.499 -0.6778 -0.4407 -0.2886
  925SOL    HW1 2774  -0.051   2.996   1.563  0.3333 -0.6523  1.4808
  925SOL    HW2 2775   0.004   2.888   1.434 -2.3519 -1.1089  0.6178
  926SOL     OW 2776   1.348   2.819   1.254 -0.1074  0.1823  0.0417
  926SOL    HW1 2777   1.414   2.834   1.175  1.6405 -1.3854  0.0915
  926SOL    HW2 2778   1.373   2.879   1.334  1.4353 -3.6328  1.7165
  927SOL     OW 2779   0.323   2.674   1.786 -0.1692 -0.0040  0.1227
  927SOL    HW1 2780   0.307   2.611   1.708 -3.1542  1.5981  0.3379
  927SOL    HW2 2781   0.279   2.767   1.760 -1.2876  1.1006 -0.0626
  928SOL     OW 2782   1.549   2.027   2.198  0.1990 -0.2176 -0.2768
  928SOL    HW1 2783   1.559   2.116   2.145  0.0840  1.6735 -2.1508
  928SOL    HW2 2784   1.460   1.972   2.168 -1.5774 -0.0859 -2.1409
  929SOL     OW 2785   2.432   2.473   2.895  0.2033 -0.0863  0.4961
  929SOL    HW1 2786   2.340   2.450   2.861  0.7142 -1.1725  0.5560
  929SOL    HW2 2787   2.494   2.507   2.818  0.3900 -0.5275  2.2057
  930SOL     OW 2788   2.188   1.961   1.049  0.3568  0.0565  0.0770
  930SOL    HW1 2789   2.149   1.937   1.143 -3.0159  1.3623 -0.5392
  930SOL    HW2 2790   2.253   2.045   1.047  0.0498 -0.3432 -0.6420
  931SOL     OW 2791   0.541   1.711   2.706 -0.2936 -0.0040 -0.1682
  931SOL    HW1 2792   0.580   1.735   2.803 -0.4308  1.0896  0.8307
  931SOL    HW2 2793   0.586   1.633   2.651 -3.5548 -0.0422 -4.4437
  932SOL     OW 2794   0.410   0.103   2.951  0.4816 -0.3161 -0.2239
  932SOL    HW1 2795   0.510   0.138   2.928  2.1047  0.9843  0.6948
  932SOL    HW2 2796   0.401   0.014   2.998  1.5804 -1.2957 -2.1896
  933SOL     OW 2797   1.031   0.731   3.030 -0.0649 -0.3133 -0.0300
  933SOL    HW1 2798   1.114   0.775   3.070  0.0036  0.0886  0.7768
  933SOL    HW2 2799   0.960   0.799   2.998 -1.3345 -0.6014  1.2211
  934SOL     OW 2800   0.879   2.980   2.656  0.3209  0.6796  0.2491
  934SOL    HW1 2801   0.854   2.897   2.597 -0.0876  1.2270  2.5858
  934SOL    HW2 2802   0.927   2.943   2.740 -1.3692 -0.7411 -0.7369
  935SOL     OW 2803   0.016   0.558   0.838 -0.2371 -0.0724  0.0128
  935SOL    HW1 2804   0.015   0.500   0.750  0.8423 -0.2275  2.0990
  935SOL    HW2 2805  -0.072   0.601   0.863  0.1537  2.5659  1.4246
  936SOL     OW 2806   1.114   2.890   0.096 -0.3988  0.9136  0.1852
  936SOL    HW1 2807   1.169   2.939   0.028  1.9717  0.3407  2.7995
  936SOL    HW2 2808   1.174   2.822   0.150 -1.0984  0.7409 -2.4672
  937SOL     OW 2809   1.972   2.653   2.112  0.1668  0.3924 -0.1943
  937SOL    HW1 2810   1.873   2.695   2.097 -2.7449  0.8711 -0.7793
  937SOL    HW2 2811   2.042   2.720   2.078  2.0185 -0.4596  0.7620
  938SOL     OW 2812   2.776   2.052   1.486  0.0615 -0.2234 -0.3312
  938SOL    HW1 2813   2.727   2.140   1.515 -2.7568 -1.3848  1.0686
  938SOL    HW2 2814   2.865   2.042   1.535  1.1969  0.2364  1.1161
  939SOL     OW 2815   2.818   1.228   2.482  0.0748  0.2466 -0.6490
  939SOL    HW1 2816   2.897   1.212   2.419  0.1625 -0.4102  3.3907
  939SOL    HW2 2817   2.823   1.173   2.570  1.0385  2.8475  0.3636
  940SOL     OW 2818   0.979   0.455   2.709 -0.3100 -0.0743 -0.6977
  940SOL    HW1 2819   1.027   0.368   2.739 -3.9732 -2.6784  0.3547
  940SOL    HW2 2820   0.880   0.440   2.688 -0.5893 -3.4359  0.0971
  941SOL     OW 2821   0.078   2.833   2.244  0.1435  0.2821 -0.4458
  941SOL    HW1 2822   0.121   2.746   2.217 -1.2757 -0.8400 -2.3500
  941SOL    HW2 2823   0.124   2.892   2.309 -2.1529 -2.8014 -2.7465
  942SOL     OW 2824   0.056   0.110   2.481  0.0761 -0.0058  0.3900
  942SOL    HW1 2825   0.084   0.176   2.560  2.3101  1.6197  0.0989
  942SOL    HW2 2826   0.049   0.160   2.387  0.1290  1.2570  1.3124
  943SOL     OW 2827   2.105   1.667   2.356  0.3415 -0.6097 -0.3636
  943SOL    HW1 2828   2.088   1.588   2.286 -0.8104  2.5306 -0.9979
  943SOL    HW2 2829   2.108   1.627   2.451 -0.2751 -2.4782 -1.9399
  944SOL     OW 2830   2.146   2.366   1.470 -0.0361 -0.0008 -0.6296
  944SOL    HW1 2831   2.203   2.434   1.525  2.6795 -0.9503  2.0005
  944SOL    HW2 2832   2.103   2.297   1.538  0.7990 -0.2485  1.8499
  945SOL     OW 2833   0.704   1.493   0.320 -0.7247 -0.1922 -0.4388
  945SOL    HW1 2834   0.682   1.539   0.228  0.4320 -0.3569 -1.3116
  945SOL    HW2 2835   0.749   1.397   0.308 -0.6609  0.7148 -1.9583
  946SOL     OW 2836   0.404   0.932   2.491  0.2848  0.0613  0.4610
  946SOL    HW1 2837   0.315   0.904   2.444 -1.0196  1.1462  0.0577
  946SOL    HW2 2838   0.385   0.997   2.570 -1.3880 -1.3010 -0.7490
  947SOL     OW 2839   1.549   0.493   0.045  0.0771  0.7309  0.1292
  947SOL    HW1 2840   1.508   0.552  -0.036  1.2186 -0.6520 -0.5176
  947SOL    HW2 2841   1.491   0.480   0.122 -0.2180  2.1392 -2.3096
  948SOL     OW 2842   1.980   3.051   2.172  0.3918 -0.4192 -0.0567
  948SOL    HW1 2843   1.956   3.006   2.081 -1.7155  0.3060 -0.5955
  948SOL    HW2 2844   1.971   2.977   2.240 -2.9104  0.7101 -0.1470
  949SOL     OW 2845   0.600   2.491   0.527  0.4084  0.1813 -0.4301
  949SOL    HW1 2846   0.608   2.595   0.526 -0.2223  1.4489 -0.2577
  949SOL    HW2 2847   0.632   2.465   0.621  1.6156 -1.5045 -1.4735
  950SOL     OW 2848   0.212   2.134   3.069  0.2437 -0.1567 -0.0113
  950SOL    HW1 2849   0.154   2.224   3.071  0.9652  1.2324 -0.7295
  950SOL    HW2 2850   0.189   2.081   2.982 -2.5456 -0.1939  0.4787
  951SOL     OW 2851   1.193   2.783   2.660 -0.4636  0.1776 -0.4907
  951SOL    HW1 2852   1.220   2.809   2.563 -1.1655 -0.0956 -2.0972
  951SOL    HW2 2853   1.153   2.859   2.712  1.4400  1.3518 -1.1210
  952SOL     OW 2854   0.085   1.687   0.451  1.3950  0.0982  0.0671
  952SOL    HW1 2855   0.139   1.773   0.443 -4.6383  1.6934  1.7047
  952SOL    HW2 2856   0.126   1.623   0.521  1.4714 -3.9834  1.8343
  953SOL     OW 2857   2.497   1.776   0.225  0.4185 -0.2109  0.2779
  953SOL    HW1 2858   2.487   1.678   0.251 -0.3961  2.5092 -2.8346
  953SOL    HW2 2859   2.520   1.790   0.123  0.4007  0.0202 -2.1749
  954SOL     OW 2860   2.176   0.538   0.964 -0.1305 -0.0109  0.0146
  954SOL    HW1 2861   2.169   0.610   0.890  0.3006 -0.1505  1.5760
  954SOL    HW2 2862   2.277   0.522   0.991  0.9086 -0.2138  0.5506
  955SOL     OW 2863   0.196   2.621   1.314  0.6102 -0.2575  0.7404
  955SOL    HW1 2864   0.106   2.671   1.335 -2.7963  0.3975 -0.5165
  955SOL    HW2 2865   0.234   2.647   1.221  1.0231 -1.8638  1.7316
  956SOL     OW 2866   2.757   2.462   2.429 -0.1030 -0.1485  0.5586
  956SOL    HW1 2867   2.758   2.362   2.389  0.4528 -1.0895 -1.0362
  956SOL    HW2 2868   2.818   2.518   2.374 -1.3723 -0.0587 -0.9613
  957SOL     OW 2869   1.572   2.062   2.770 -0.4733 -0.2774 -0.6264
  957SOL    HW1 2870   1.558   1.959   2.775  2.6493 -0.3280 -0.0258
  957SOL    HW2 2871   1.615   2.082   2.676 -2.3379 -2.0622 -0.5834
  958SOL     OW 2872   2.691   2.324   2.982 -0.2783  0.7168 -0.2743
  958SOL    HW1 2873   2.622   2.395   2.952  0.5288  1.1697 -0.5857
  958SOL    HW2 2874   2.666   2.261   3.062 -0.0501  0.9241  1.5660
  959SOL     OW 2875   0.229   2.790   0.054  0.2261 -0.5135  0.2602
  959SOL    HW1 2876   0.130   2.765   0.044  1.8330 -0.6762  0.1865
  959SOL    HW2 2877   0.272   2.741   0.136 -0.1387 -1.4702  0.1211
  960SOL     OW 2878   1.950   0.420   1.907 -0.2207  0.8542  0.0921
  960SOL    HW1 2879   1.909   0.509   1.873  1.3260  0.8480  2.0772
  960SOL    HW2 2880   1.953   0.410   2.013  1.1502 -2.4473  1.4678
  961SOL     OW 2881   2.552   1.841   1.025 -0.8029  0.6797 -0.1383
  961SOL    HW1 2882   2.531   1.931   0.978 -2.8821 -0.0521  1.2843
  961SOL    HW2 2883   2.491   1.826   1.105 -0.0124  0.9078 -2.0776
  962SOL     OW 2884   1.268   0.903   0.048 -0.0533  0.4333 -0.4382
  962SOL    HW1 2885   1.274   0.960  -0.036 -0.2232 -0.6281  0.8136
  962SOL    HW2 2886   1.293   0.957   0.135 -0.8177 -1.3580  0.6906
  963SOL     OW 2887   2.196   2.557   1.871 -0.5388 -0.0395 -0.2688
  963SOL    HW1 2888   2.172   2.463   1.903  1.2297 -0.1612  0.3195
  963SOL    HW2 2889   2.215   2.628   1.945  0.2028  2.6525  1.6969
  964SOL     OW 2890   2.394   0.392   1.656  0.1659  0.0895  0.0661
  964SOL    HW1 2891   2.472   0.444   1.703  0.3662  2.9941  1.9127
  964SOL    HW2 2892   2.399   0.399   1.552 -1.2243 -0.6587 -1.0547
  965SOL     OW 2893   2.584   3.049   0.168 -0.1691 -0.3617  0.1834
  965SOL    HW1 2894   2.659   3.042   0.093  1.2324  1.0784  1.0202
  965SOL    HW2 2895   2.490   3.053   0.122  3.9840  2.4789  1.8180
  966SOL     OW 2896   2.483   2.480   2.207  0.1429 -0.2146 -0.1175
  966SOL    HW1 2897   2.389   2.505   2.240  0.0363  0.5157 -0.9428
  966SOL    HW2 2898   2.514   2.528   2.122  1.6246 -2.0948  1.8383
  967SOL     OW 2899   2.818   2.789   2.460  0.1155  0.9164  0.0277
  967SOL    HW1 2900   2.858   2.727   2.383 -0.1368  0.0006  0.5272
  967SOL    HW2 2901   2.885   2.866   2.480 -1.6029  0.4762 -1.5047
  968SOL     OW 2902   1.953   1.057   2.638  0.1373  0.3238  0.8764
  968SOL    HW1 2903   1.878   1.093   2.570 -2.5211  0.1880 -3.9499
  968SOL    HW2 2904   2.009   0.980   2.595  0.3594 -0.1925  0.3130
  969SOL     OW 2905   2.761   2.440   1.078  0.2938 -0.4495  0.0035
  969SOL    HW1 2906   2.692   2.399   1.009  0.1654  0.1378 -1.6031
  969SOL    HW2 2907   2.790   2.373   1.150 -0.9021  1.1905 -0.3846
  970SOL     OW 2908   1.066   2.124   1.765 -0.0803  0.7657 -0.2558
  970SOL    HW1 2909   0.983   2.161   1.718  0.5893 -1.6862 -0.7632
  970SOL    HW2 2910   1.063   2.146   1.866 -0.0734 -2.1269 -1.8465
  971SOL     OW 2911   2.836   2.082   1.867 -0.4115  0.2347  0.5323
  971SOL    HW1 2912   2.848   2.182   1.905  4.1838  0.1063 -0.7125
  971SOL    HW2 2913   2.904   2.069   1.787 -2.6710  1.3631 -1.1400
  972SOL     OW 2914   1.945   2.421   0.175 -0.2676  0.1262  0.3479
  972SOL    HW1 2915   1.969   2.343   0.112  0.9652  0.9106  0.6371
  972SOL    HW2 2916   2.002   2.429   0.259  0.7777 -1.9258  0.3418
  973SOL     OW 2917   1.323   1.063   1.862  0.5445 -0.0052  0.0133
  973SOL    HW1 2918   1.251   1.020   1.803  1.9380 -0.5929 -0.5875
  973SOL    HW2 2919   1.297   1.156   1.891 -0.5394 -2.6103  0.4082
  974SOL     OW 2920   1.626   0.554   1.989 -0.1421  0.1614  0.2493
  974SOL    HW1 2921   1.716   0.599   1.977 -1.3530 -0.0500 -1.8903
  974SOL    HW2 2922   1.545   0.610   1.967  0.2324 -2.2881  0.0488
  975SOL     OW 2923   2.349   3.062   0.049  0.0193 -0.5549 -0.3050
  975SOL    HW1 2924   2.293   2.972   0.052 -1.2468 -3.0144 -1.0528
  975SOL    HW2 2925   2.392   3.078  -0.042 -0.1257  1.3949 -0.0577
  976SOL     OW 2926   1.918   2.841   2.341 -0.2629  0.4069  0.3426
  976SOL    HW1 2927   1.838   2.796   2.300  1.0584  1.3951 -0.1117
  976SOL    HW2 2928   1.922   2.825   2.447  1.5630 -0.1456 -0.3970
  977SOL     OW 2929   0.466   0.716   1.045 -0.0709  0.0809  0.0345
  977SOL    HW1 2930   0.382   0.711   0.982  2.1406  0.8754  1.5850
  977SOL    HW2 2931   0.553   0.682   1.004 -0.7027 -3.4623  2.1975
   3.10000   3.10000   3.10000
