1000 SPC/Fw water molecules t=   0.10000 step= 100
 2931
    1SOL     OW    1   2.518   0.371   2.591  0.4605 -1.1624  0.1300
    1SOL    HW1    2   2.539   0.272   2.592  1.6679 -0.6452 -0.2641
    1SOL    HW2    3   2.581   0.424   2.654 -1.4358  0.4009 -3.2665
    2SOL     OW    4   2.736   3.014   1.426  0.0164  0.3396 -0.4643
    2SOL    HW1    5   2.803   3.083   1.379  0.0067  0.0684 -0.7788
    2SOL    HW2    6   2.681   3.064   1.497  1.4731 -0.8076  2.0696
    3SOL     OW    7   2.699   2.608   0.434  0.1586 -0.8414  0.1880
    3SOL    HW1    8   2.632   2.544   0.482  2.1524  0.2024  1.9525
    3SOL    HW2    9   2.781   2.619   0.493 -1.9599 -1.4836  1.1240
    4SOL     OW   10   1.320   1.447   2.321  0.1937  0.4885 -0.1132
    4SOL    HW1   11   1.256   1.522   2.357 -1.2521 -0.6576  1.1236
    4SOL    HW2   12   1.305   1.354   2.372 -0.3656 -2.8103 -1.2857
    5SOL     OW   13   1.196   1.490   3.059  0.0151 -0.1413  0.0219
    5SOL    HW1   14   1.237   1.584   3.090  2.0994 -0.9064  1.0906
    5SOL    HW2   15   1.091   1.490   3.065  1.3600  2.4107  1.3324
    6SOL     OW   16   0.138   1.877   2.951 -0.3514 -0.0234  0.0304
    6SOL    HW1   17   0.144   1.922   3.043 -0.8918  0.0026  0.9220
    6SOL    HW2   18   0.089   1.781   2.960 -0.5574 -3.8688 -2.4153
    7SOL     OW   19   2.604   0.812   1.174  0.0743 -0.5560 -0.3957
    7SOL    HW1   20   2.532   0.759   1.229 -1.3734  0.6761  1.2356
    7SOL    HW2   21   2.623   0.768   1.083  2.9507  2.0929 -1.7887
    8SOL     OW   22   0.451   0.680   1.550 -0.0345  0.0089 -0.3984
    8SOL    HW1   23   0.511   0.595   1.577  3.9112 -0.2370 -0.5314
    8SOL    HW2   24   0.403   0.665   1.458 -0.8263  2.8357  0.7756
    9SOL     OW   25   1.150   0.901   2.272  0.7127  0.3373  0.2860
    9SOL    HW1   26   1.233   0.961   2.250  1.0816 -1.6401 -0.5903
    9SOL    HW2   27   1.082   0.902   2.190 -2.3583  1.6290 -3.0290
   10SOL     OW   28   0.623   1.356   1.311  0.5830 -0.5345  0.0312
   10SOL    HW1   29   0.521   1.353   1.272 -1.0878 -1.2329 -2.1980
   10SOL    HW2   30   0.669   1.443   1.287 -3.1522  1.1256  0.7093
   11SOL     OW   31   2.305   2.560   0.913 -0.3563  0.4052  0.1405
   11SOL    HW1   32   2.343   2.630   0.976 -2.9801 -0.8818  0.7199
   11SOL    HW2   33   2.363   2.471   0.921  1.6138 -1.1888 -0.2926
   12SOL     OW   34   1.415   0.897   0.483  0.2514 -0.1511 -0.2486
   12SOL    HW1   35   1.373   0.940   0.402 -0.7752  0.0784  1.8965
   12SOL    HW2   36   1.401   0.795   0.482  3.9360  0.8870  0.4267
   13SOL     OW   37   2.454   0.660   1.780  0.3888 -0.2244  0.0978
   13SOL    HW1   38   2.367   0.628   1.825  1.2659 -0.8752  1.7125
   13SOL    HW2   39   2.478   0.606   1.697  0.1328  1.2525  1.7179
   14SOL     OW   40   1.807   0.003   0.542  0.5747 -0.5163 -0.1465
   14SOL    HW1   41   1.709   0.041   0.536  0.3572  1.9945  1.4120
   14SOL    HW2   42   1.842  -0.010   0.641  2.0865 -3.1059  0.8555
   15SOL     OW   43   1.966   2.060   2.816 -0.1930  0.3522  0.4696
   15SOL    HW1   44   1.903   2.142   2.836  0.5864  0.8204 -2.8571
   15SOL    HW2   45   1.917   1.985   2.768  2.2569 -0.5083  0.0293
   16SOL     OW   46   1.558   1.700   0.031 -0.1260  0.7471  0.4160
   16SOL    HW1   47   1.580   1.603  -0.005 -0.1509  1.9161 -0.5908
   16SOL    HW2   48   1.583   1.709   0.133  0.2190  0.7507  0.5738
   17SOL     OW   49   0.108   0.428   0.171  0.5433 -1.0325  0.1272
   17SOL    HW1   50   0.197   0.441   0.125  2.1370  0.7179  3.4708
   17SOL    HW2   51   0.027   0.451   0.115  0.2018  0.3539  1.4677
   18SOL     OW   52   1.098   2.892   2.156  0.1911  0.0327 -0.1061
   18SOL    HW1   53   1.019   2.851   2.111 -1.5206  0.6216  1.0527
   18SOL    HW2   54   1.186   2.885   2.101  0.0452 -1.8641 -0.3185
   19SOL     OW   55   0.578   0.998   1.951 -0.6850 -0.1362  0.0725
   19SOL    HW1   56   0.507   1.031   2.019 -0.4974 -1.9504 -1.0928
   19SOL    HW2   57   0.612   0.908   1.984 -1.3692  2.0553  0.6374
   20SOL     OW   58   0.267   2.756   0.850 -0.0893  0.4851  0.1109
   20SOL    HW1   59   0.180   2.814   0.841  1.8620 -1.1483 -1.3951
   20SOL    HW2   60   0.298   2.726   0.756 -1.5313  0.1931  0.4876
   21SOL     OW   61   2.817   0.216   2.153 -0.9862  0.5576  0.4714
   21SOL    HW1   62   2.901   0.161   2.118  0.4377  1.5401  0.3885
   21SOL    HW2   63   2.784   0.171   2.245 -0.0098 -1.1228 -0.7949
   22SOL     OW   64   2.356   0.207   0.066  0.3287  0.6381 -0.2710
   22SOL    HW1   65   2.364   0.109   0.089  1.4827 -0.2840 -0.8599
   22SOL    HW2   66   2.258   0.232   0.063  2.2632 -0.8748 -1.1302
   23SOL     OW   67   2.765   0.662   0.701  0.2034  0.0959  0.5771
   23SOL    HW1   68   2.769   0.565   0.668 -1.1178 -1.2234 -2.0284
   23SOL    HW2   69   2.774   0.725   0.620  0.0958 -0.3986 -0.3505
   24SOL     OW   70   0.162   1.888   0.449  0.2259  0.2090 -0.2980
   24SOL    HW1   71   0.059   1.912   0.429 -1.1438  1.4413 -1.8225
   24SOL    HW2   72   0.235   1.919   0.378  0.4971  0.5685  0.6546
   25SOL     OW   73   2.264   0.505   0.185  0.0544 -0.0074 -0.2635
   25SOL    HW1   74   2.358   0.447   0.203  0.4971 -2.7569 -0.0773
   25SOL    HW2   75   2.236   0.500   0.080 -0.8753 -0.1297 -1.2838
   26SOL     OW   76   2.568   2.181   2.074  0.2675  0.4700  0.4534
   26SOL    HW1   77   2.619   2.217   2.156  2.1714 -1.6735 -0.3171
   26SOL    HW2   78   2.630   2.117   2.020 -1.0313  2.0256 -1.3538
   27SOL     OW   79   0.678   2.984   0.114 -0.2242  0.0111 -0.5914
   27SOL    HW1   80   0.773   3.028   0.111  1.4770 -0.5623 -2.4182
   27SOL    HW2   81   0.643   2.959   0.022  2.5124 -0.0188  0.3121
   28SOL     OW   82   1.461   0.237   0.197 -0.3480 -0.0840 -0.1360
   28SOL    HW1   83   1.551   0.190   0.168  3.9898 -1.2148 -1.0335
   28SOL    HW2   84   1.480   0.313   0.265  1.3900 -2.5692  1.0256
   29SOL     OW   85   2.016   0.605   0.300 -0.1860  0.5673 -0.5090
   29SOL    HW1   86   2.012   0.688   0.361  0.3225 -1.3258  2.2690
   29SOL    HW2   87   2.105   0.593   0.253 -3.4761  2.0310 -0.8364
   30SOL     OW   88   0.215   2.060   0.912  0.5198 -0.0864  0.4182
   30SOL    HW1   89   0.194   2.019   0.815 -2.4784 -2.5109  0.6220
   30SOL    HW2   90   0.121   2.101   0.947 -0.3164  0.6921 -1.8615
   31SOL     OW   91   2.067   0.043   2.323 -0.8120  0.0153  0.1170
   31SOL    HW1   92   2.060   0.025   2.426 -0.3479 -3.1364 -0.5025
   31SOL    HW2   93   2.010  -0.024   2.265 -0.4235 -1.6807  2.1550
   32SOL     OW   94   2.991   0.119   0.237 -0.2069 -0.2927  0.3292
   32SOL    HW1   95   2.938   0.047   0.292 -3.2232  0.4606 -3.8542
   32SOL    HW2   96   3.080   0.087   0.195  0.7923  0.8740  0.0224
   33SOL     OW   97   0.965   0.322   0.440 -0.1174 -0.2926 -0.0527
   33SOL    HW1   98   0.898   0.234   0.441 -1.4312  0.4162 -1.8568
   33SOL    HW2   99   1.020   0.348   0.523  0.8386  1.0713  0.6771
   34SOL     OW  100   0.400   2.878   1.060  0.5930  0.1855  0.3783
   34SOL    HW1  101   0.351   2.857   0.967 -1.1942  0.5597 -0.8319
   34SOL    HW2  102   0.503   2.864   1.060  1.3487  0.5321  1.9440
   35SOL     OW  103   0.039   3.101   1.812 -0.0259 -0.1827  0.0411
   35SOL    HW1  104  -0.001   3.013   1.830  2.9319  0.9707 -0.4845
   35SOL    HW2  105   0.026   3.127   1.715 -1.2885  0.4339  0.7633
   36SOL     OW  106   1.903   1.155   1.784  0.4414 -0.3092  0.2006
   36SOL    HW1  107   1.977   1.127   1.723 -0.8434  0.0349 -0.2599
   36SOL    HW2  108   1.921   1.241   1.833 -1.3943  2.2562  1.1651
   37SOL     OW  109   1.118   0.320   1.009  0.2307  0.0715  0.0424
   37SOL    HW1  110   1.150   0.377   1.088  0.0482  1.5934 -2.9057
   37SOL    HW2  111   1.175   0.232   0.991  0.0147 -0.2730  0.0599
   38SOL     OW  112   1.146   2.713   2.374 -0.0693 -0.1025  1.0700
   38SOL    HW1  113   1.064   2.660   2.417  1.9010 -0.6690 -0.1698
   38SOL    HW2  114   1.112   2.786   2.305  0.2614  2.7381 -1.2570
   39SOL     OW  115   2.403   1.496   3.066 -0.7412 -0.7149  0.1142
   39SOL    HW1  116   2.437   1.400   3.061 -0.7224  2.6095 -0.1490
   39SOL    HW2  117   2.342   1.515   3.147  0.3578 -0.5624 -2.3511
   40SOL     OW  118   2.047   2.499   2.576  0.2064  0.9382 -0.2264
   40SOL    HW1  119   2.022   2.594   2.582  1.5706 -1.5108 -1.4995
   40SOL    HW2  120   1.992   2.446   2.511  2.8266  1.0679  0.7259
   41SOL     OW  121   2.920   0.706   2.757 -0.5013 -0.4854  0.0874
   41SOL    HW1  122   2.822   0.738   2.730  1.4197 -1.0604 -1.5991
   41SOL    HW2  123   2.932   0.600   2.763 -3.3605  0.6412  1.8799
   42SOL     OW  124   1.705   1.752   0.590  0.0259  0.0757 -0.0480
   42SOL    HW1  125   1.642   1.677   0.553  0.1428 -1.8184 -0.8598
   42SOL    HW2  126   1.749   1.814   0.519 -1.5903  0.7368  2.4828
   43SOL     OW  127   0.480   1.746   1.204 -0.0257 -0.0925  0.1016
   43SOL    HW1  128   0.471   1.718   1.306 -0.4733 -0.5558  0.7167
   43SOL    HW2  129   0.394   1.727   1.150 -1.7729 -1.3925  1.9371
   44SOL     OW  130   1.748   2.471   0.022 -0.2011  1.2445 -0.2326
   44SOL    HW1  131   1.786   2.544  -0.039 -0.7598  0.4346 -2.9088
   44SOL    HW2  132   1.812   2.466   0.104 -3.9691 -1.9505 -0.8918
   45SOL     OW  133   0.385   1.882   2.527  0.1669 -0.0444 -0.5254
   45SOL    HW1  134   0.319   1.871   2.454  1.7700  0.6867 -0.7156
   45SOL    HW2  135   0.404   1.797   2.581 -1.8215  0.4630 -0.5742
   46SOL     OW  136   1.168   0.664   0.191 -0.4661 -0.3460 -0.1137
   46SOL    HW1  137   1.233   0.728   0.146  1.5134 -1.4676  0.2897
   46SOL    HW2  138   1.072   0.702   0.189 -2.5621 -0.0438  2.6803
   47SOL     OW  139   0.239   2.448   1.600  0.0559  0.7806  0.2466
   47SOL    HW1  140   0.316   2.381   1.589  3.3142 -0.0900  0.9949
   47SOL    HW2  141   0.222   2.506   1.513  1.1032 -2.5326  1.5043
   48SOL     OW  142   2.622   0.546   0.093 -0.4183  0.0034  0.0362
   48SOL    HW1  143   2.582   0.551   0.194  1.2423 -0.6839  3.1204
   48SOL    HW2  144   2.697   0.616   0.088 -0.0534  2.2868 -0.6698
   49SOL     OW  145   0.359   0.835   1.769  0.4198 -0.4951 -0.2985
   49SOL    HW1  146   0.450   0.850   1.811 -0.0025 -1.6095  1.0656
   49SOL    HW2  147   0.361   0.772   1.689 -0.9262  1.0815  1.3401
   50SOL     OW  148   1.753   1.084   0.301  0.8877 -0.4723  0.8512
   50SOL    HW1  149   1.733   0.986   0.264  0.2801  1.4888  1.9384
   50SOL    HW2  150   1.703   1.096   0.388 -1.5502 -0.3920 -3.0706
   51SOL     OW  151   2.993   1.887   0.359  0.6303 -0.2568  0.2309
   51SOL    HW1  152   2.968   1.944   0.279 -2.2242  0.8019  2.6283
   51SOL    HW2  153   2.989   1.787   0.335 -0.3928  0.5720  0.3108
   52SOL     OW  154   0.822   1.927   0.488  0.2015  0.4307  0.1574
   52SOL    HW1  155   0.758   2.001   0.529  3.6182  0.8406 -0.4399
   52SOL    HW2  156   0.852   1.857   0.556  0.2092  1.1484 -0.8086
   53SOL     OW  157   3.089   0.384   1.522 -0.1429 -0.2138 -0.2376
   53SOL    HW1  158   3.099   0.383   1.622  0.1683  0.9859 -0.6785
   53SOL    HW2  159   3.062   0.482   1.487 -0.8073 -1.5033  0.1619
   54SOL     OW  160   1.771   0.490   3.003 -0.2777  0.0631 -0.1952
   54SOL    HW1  161   1.830   0.465   3.083  1.4855  1.1868  0.6766
   54SOL    HW2  162   1.676   0.482   3.028  1.1097 -1.8679 -0.7068
   55SOL     OW  163   0.704   2.930   0.661  0.4274 -0.1696 -0.0854
   55SOL    HW1  164   0.659   3.030   0.671  2.4067  3.4932  0.1552
   55SOL    HW2  165   0.803   2.938   0.640 -1.4382  1.0208  1.0492
   56SOL     OW  166   0.506   1.542   3.094  0.5590 -0.1049 -0.0749
   56SOL    HW1  167   0.415   1.578   3.130  2.6879 -0.8033  0.1312
   56SOL    HW2  168   0.490   1.470   3.022 -1.3728 -4.4619  0.1825
   57SOL     OW  169   1.769   2.387   2.663  0.0634  0.0087 -0.0241
   57SOL    HW1  170   1.790   2.400   2.560 -2.7903 -2.3522 -2.2081
   57SOL    HW2  171   1.695   2.318   2.673  1.1065  0.9006  0.3065
   58SOL     OW  172   0.639   0.492   1.097 -0.2372  0.4921 -0.0088
   58SOL    HW1  173   0.559   0.553   1.053 -0.1308 -1.8391 -0.1247
   58SOL    HW2  174   0.601   0.394   1.090 -1.3797  2.2068 -2.2792
   59SOL     OW  175   0.468   2.382   2.664  0.1272 -0.4657 -0.4983
   59SOL    HW1  176   0.470   2.282   2.678  2.5887  2.3864 -0.8957
   59SOL    HW2  177   0.528   2.423   2.729 -0.1575 -0.2413 -3.7448
   60SOL     OW  178   2.328   2.179   2.250  0.2793  0.5330  0.0527
   60SOL    HW1  179   2.411   2.197   2.192 -1.3318 -1.7272 -0.4099
   60SOL    HW2  180   2.353   2.183   2.349 -1.9906 -1.4955 -1.8582
   61SOL     OW  181   1.346   0.641   0.415  0.2862 -1.0591  0.0028
   61SOL    HW1  182   1.246   0.640   0.441  1.6099  0.4833 -0.2821
   61SOL    HW2  183   1.355   0.618   0.316 -0.2865  1.0328 -0.7671
   62SOL     OW  184   2.705   1.898   3.102 -0.7296  0.5438  0.7394
   62SOL    HW1  185   2.717   1.800   3.131 -0.0461 -0.0323 -1.5063
   62SOL    HW2  186   2.740   1.919   3.007 -1.5613 -1.8375  0.8647
   63SOL     OW  187   0.533   0.803   0.137 -0.5424  0.0353 -0.3979
   63SOL    HW1  188   0.502   0.898   0.105  0.3457 -1.2661 -0.2921
   63SOL    HW2  189   0.630   0.804   0.175 -0.5712 -2.1897  0.7108
   64SOL     OW  190   0.069   0.563   2.510  0.0356  0.4082  0.5576
   64SOL    HW1  191   0.051   0.628   2.587 -2.3772 -2.8068 -0.2715
   64SOL    HW2  192   0.064   0.600   2.414  1.4058 -1.9839 -1.8988
   65SOL     OW  193   0.176   1.482   0.602  0.2791 -0.6683  0.3304
   65SOL    HW1  194   0.195   1.541   0.687  0.0134  0.2163  0.4628
   65SOL    HW2  195   0.252   1.417   0.579  1.2833 -0.5815  0.7789
   66SOL     OW  196   2.460   0.329   0.661 -0.2622 -0.3042  0.7506
   66SOL    HW1  197   2.387   0.405   0.659 -0.6613  2.2977 -1.0052
   66SOL    HW2  198   2.424   0.235   0.696  0.0702  1.4187  2.2219
   67SOL     OW  199   0.470   2.583   1.312  0.1210  0.3687  0.3210
   67SOL    HW1  200   0.574   2.612   1.316  1.5708  0.0737 -0.0174
   67SOL    HW2  201   0.455   2.482   1.289  0.5036 -2.5513 -0.6453
   68SOL     OW  202   1.008   1.100   2.401  0.3731  0.0317  0.7524
   68SOL    HW1  203   1.062   1.028   2.350  1.5991  1.2462 -1.7942
   68SOL    HW2  204   0.952   1.162   2.342  1.1314 -1.2158 -2.3087
   69SOL     OW  205   0.766   2.712   2.153 -0.2118 -0.6409  0.3109
   69SOL    HW1  206   0.792   2.611   2.166 -1.1906  0.0357 -1.3507
   69SOL    HW2  207   0.668   2.731   2.169 -1.7213  0.0430 -0.6616
   70SOL     OW  208   0.589   0.221   2.709  0.7561  0.0705 -0.0438
   70SOL    HW1  209   0.547   0.251   2.798 -1.4055  1.0502 -1.5963
   70SOL    HW2  210   0.578   0.119   2.690  1.7018  0.1127  2.9099
   71SOL     OW  211   1.115   1.814   0.359 -0.2946  0.4747  0.3175
   71SOL    HW1  212   1.085   1.720   0.399  0.4286  0.8575 -0.8316
   71SOL    HW2  213   1.068   1.835   0.266  0.2773  1.4351 -1.8259
   72SOL     OW  214   1.772   0.070   2.092 -0.0267 -0.4468  0.1673
   72SOL    HW1  215   1.840   0.094   2.013  0.0860  0.0380  0.2185
   72SOL    HW2  216   1.763  -0.030   2.100 -0.1973  1.8719  0.1621
   73SOL     OW  217   2.854   2.229   2.517 -0.1899  0.4250  0.5560
   73SOL    HW1  218   2.831   2.136   2.475  0.1999 -2.2469 -0.0269
   73SOL    HW2  219   2.890   2.220   2.613 -0.9116  3.4474  0.0559
   74SOL     OW  220   2.717   2.990   2.076 -0.2870  0.7812 -0.0846
   74SOL    HW1  221   2.657   2.958   2.154  1.0192  2.2107 -1.1738
   74SOL    HW2  222   2.815   2.972   2.099  1.0760 -0.0277 -3.8986
   75SOL     OW  223   0.922   0.747   0.957 -0.1845 -0.4557  0.1671
   75SOL    HW1  224   0.819   0.781   0.942  0.0445 -0.3504 -0.1204
   75SOL    HW2  225   0.956   0.763   1.054  2.0040  0.6700  1.2807
   76SOL     OW  226   1.737   1.236   2.584  0.0740 -0.2799 -0.0126
   76SOL    HW1  227   1.632   1.239   2.571  0.2631  0.4502  1.2661
   76SOL    HW2  228   1.769   1.305   2.655  0.3833 -0.1105 -1.3709
   77SOL     OW  229   2.994   1.014   0.986  0.2817 -0.0863 -0.1734
   77SOL    HW1  230   2.945   0.921   0.991 -1.6148 -0.1165 -0.8055
   77SOL    HW2  231   3.065   1.026   1.062  1.1371  0.7660 -2.3175
   78SOL     OW  232   1.980   1.403   1.458  0.0687 -0.0377  0.2340
   78SOL    HW1  233   1.999   1.399   1.357  1.1338  1.4101  0.9805
   78SOL    HW2  234   1.877   1.399   1.473 -1.4475  0.1148  3.1620
   79SOL     OW  235   0.638   1.281   0.854  0.4722  0.5630  0.6256
   79SOL    HW1  236   0.547   1.330   0.884 -0.3209 -0.1994  1.0422
   79SOL    HW2  237   0.626   1.233   0.763 -0.3015 -0.6711  0.1603
   80SOL     OW  238   0.638   0.477   1.611 -0.0618 -0.7607 -0.2467
   80SOL    HW1  239   0.721   0.530   1.579 -2.8026  3.0154  1.7226
   80SOL    HW2  240   0.629   0.384   1.565  1.1782  2.4350 -0.2797
   81SOL     OW  241   1.102   1.441   2.587 -0.7234 -0.3718 -0.5456
   81SOL    HW1  242   1.055   1.383   2.657  0.1831 -1.6008 -0.0253
   81SOL    HW2  243   1.058   1.449   2.490  0.6028 -1.6507 -0.4765
   82SOL     OW  244   0.903   3.025   1.529 -0.0319  0.0271 -0.0141
   82SOL    HW1  245   0.966   2.943   1.538 -1.4223  1.3447  0.3459
   82SOL    HW2  246   0.807   2.995   1.505  2.6453  1.1591 -1.5211
   83SOL     OW  247   2.754   2.417   0.823  0.2246 -0.3244 -0.1122
   83SOL    HW1  248   2.655   2.380   0.812  0.7820  2.1132 -0.9972
   83SOL    HW2  249   2.788   2.491   0.760 -0.1044  0.9932 -0.2004
   84SOL     OW  250   0.660   0.015   2.414  0.1806  0.1417  0.1377
   84SOL    HW1  251   0.560   0.013   2.435 -1.3795 -0.8401 -2.7982
   84SOL    HW2  252   0.717  -0.057   2.469  0.8269 -2.0032  0.1205
   85SOL     OW  253   0.361   1.659   1.466  0.8128 -0.0394 -0.3050
   85SOL    HW1  254   0.325   1.760   1.478  1.6650 -0.3523  0.7346
   85SOL    HW2  255   0.361   1.601   1.554 -0.6731  0.6662  3.6937
   86SOL     OW  256   0.357   1.037   1.487  0.0348  0.4703 -0.0916
   86SOL    HW1  257   0.333   0.979   1.406  0.9565  1.0992 -0.3731
   86SOL    HW2  258   0.414   0.988   1.557 -1.6847  2.2436  1.5277
   87SOL     OW  259   1.560   0.582   0.190  0.1064  0.0967 -0.1533
   87SOL    HW1  260   1.621   0.664   0.217  1.3349  0.1956 -0.3539
   87SOL    HW2  261   1.537   0.575   0.087 -0.7993  2.5196 -0.6285
   88SOL     OW  262   1.611   1.304   0.187 -0.3421 -0.2531 -1.0755
   88SOL    HW1  263   1.657   1.213   0.208 -1.1270  0.9152 -0.7785
   88SOL    HW2  264   1.506   1.297   0.173 -0.5985 -2.0144  0.9359
   89SOL     OW  265   2.978   0.418   0.582 -0.6369  0.0640 -0.0927
   89SOL    HW1  266   3.028   0.324   0.592  1.3434 -0.4994  1.9819
   89SOL    HW2  267   2.876   0.403   0.566 -3.3088 -0.8040 -3.8116
   90SOL     OW  268   0.897   1.635   3.056  0.9313  0.3858 -0.3582
   90SOL    HW1  269   0.826   1.615   3.127  1.2658 -1.7134 -0.9732
   90SOL    HW2  270   0.865   1.601   2.963  0.1504 -0.9442  0.2183
   91SOL     OW  271   1.246   1.385   1.801  0.3711  0.8551 -0.7505
   91SOL    HW1  272   1.256   1.473   1.854 -0.4722 -0.2037 -1.4356
   91SOL    HW2  273   1.326   1.321   1.796  0.1990 -0.9523  0.5610
   92SOL     OW  274   0.070   1.077   1.190 -0.3804 -0.5147 -0.3703
   92SOL    HW1  275   0.163   1.081   1.144  0.8650  1.6334 -0.8825
   92SOL    HW2  276   0.075   1.055   1.289 -1.9399 -1.0476  2.1279
   93SOL     OW  277   0.104   2.839   3.078 -0.1842 -0.1938  1.1051
   93SOL    HW1  278   0.019   2.831   3.020  0.8767  1.1186  2.5520
   93SOL    HW2  279   0.119   2.762   3.143  0.9525  1.6345 -1.0167
   94SOL     OW  280   1.517   1.295   1.670 -0.2292  0.3400  0.0148
   94SOL    HW1  281   1.542   1.213   1.727 -0.6186  1.2159 -1.2007
   94SOL    HW2  282   1.580   1.380   1.676  2.1335 -2.9137 -1.3146
   95SOL     OW  283   1.398   2.467   2.910 -0.6259 -0.3914  0.1733
   95SOL    HW1  284   1.341   2.461   2.994  0.6339 -1.4301 -1.9040
   95SOL    HW2  285   1.422   2.374   2.875  1.7321  0.5601  0.9969
   96SOL     OW  286   0.508   2.020   1.228 -0.1134 -0.0703 -0.1390
   96SOL    HW1  287   0.508   2.066   1.136 -0.5930 -0.5013  0.5894
   96SOL    HW2  288   0.486   1.919   1.227 -2.0995  0.6156 -1.3944
   97SOL     OW  289   0.293   1.440   2.466  0.0412  0.3208  0.1015
   97SOL    HW1  290   0.205   1.390   2.485 -0.8726 -0.0653  0.8529
   97SOL    HW2  291   0.322   1.492   2.549 -1.1558  2.4423  2.0888
   98SOL     OW  292   2.086   1.648   1.257 -0.4011  0.0035 -0.0839
   98SOL    HW1  293   2.059   1.568   1.188  2.2490 -2.9488  1.4470
   98SOL    HW2  294   2.167   1.626   1.316 -1.5132  1.3571 -0.1349
   99SOL     OW  295   2.497   2.169   1.350 -0.6689  0.0065 -0.4678
   99SOL    HW1  296   2.421   2.165   1.422  1.0217 -0.1760  2.8558
   99SOL    HW2  297   2.543   2.081   1.323 -2.3938 -0.7213 -3.8058
  100SOL     OW  298   2.296   0.408   2.068  0.1088  0.0461  0.0291
  100SOL    HW1  299   2.241   0.356   2.137  1.8259  1.5893 -0.0968
  100SOL    HW2  300   2.399   0.405   2.087  3.4374 -2.7798  0.4985
  101SOL     OW  301   0.419   1.418   0.273  0.4098  0.2097  0.6141
  101SOL    HW1  302   0.416   1.489   0.350  0.0219 -1.8583  1.2865
  101SOL    HW2  303   0.466   1.454   0.187  1.7430  0.1283 -0.4309
  102SOL     OW  304   2.243   1.086   0.853  0.5038 -0.5421 -0.4953
  102SOL    HW1  305   2.177   1.016   0.812 -0.4629  0.8276  1.7997
  102SOL    HW2  306   2.274   1.159   0.787  0.5247  0.0754 -2.7408
  103SOL     OW  307   2.286   0.078   0.394  0.0133 -0.4770  0.1718
  103SOL    HW1  308   2.343   0.160   0.361  2.1904  1.7422 -0.7897
  103SOL    HW2  309   2.333   0.007   0.456  1.9269  0.8997  1.0252
  104SOL     OW  310   0.084   1.858   2.149 -0.2849  0.1482  0.0385
  104SOL    HW1  311   0.113   1.807   2.060  1.3241  1.9912  2.3549
  104SOL    HW2  312  -0.019   1.879   2.141 -1.2151 -0.9141  3.1420
  105SOL     OW  313   1.092   1.961   0.815  0.4074 -0.0845  0.2096
  105SOL    HW1  314   1.031   2.014   0.748 -1.9482 -0.6087  0.6573
  105SOL    HW2  315   1.156   1.895   0.769  1.1925  1.4889 -1.5319
  106SOL     OW  316   2.051   0.491   1.334 -0.1728 -0.4049  0.2581
  106SOL    HW1  317   2.025   0.414   1.396 -1.5400  1.7826  0.3460
  106SOL    HW2  318   2.053   0.579   1.386  0.0131 -1.7573  0.7611
  107SOL     OW  319   1.826   3.004   1.132 -0.5555  0.0427 -0.0055
  107SOL    HW1  320   1.870   3.074   1.195 -1.0028  0.2322 -1.2782
  107SOL    HW2  321   1.783   2.918   1.179 -2.0156 -0.1546  0.4814
  108SOL     OW  322   0.743   2.627   1.315 -0.3014 -0.4956 -0.5373
  108SOL    HW1  323   0.718   2.697   1.391  0.0203 -0.4860 -1.9868
  108SOL    HW2  324   0.844   2.600   1.315  1.7715  0.8688 -2.0343
  109SOL     OW  325   2.040   0.131   0.679  0.6097  0.0756 -0.2478
  109SOL    HW1  326   2.095   0.054   0.725  0.2198 -4.5314 -1.6175
  109SOL    HW2  327   1.969   0.178   0.739  0.8809 -2.3636  1.6198
  110SOL     OW  328   0.500   2.704   2.764  0.0375  0.4296 -0.5824
  110SOL    HW1  329   0.512   2.746   2.664 -1.6325  3.6202 -3.0584
  110SOL    HW2  330   0.591   2.688   2.810 -1.3418  2.2655 -0.6294
  111SOL     OW  331   1.289   0.531   2.343  0.1091  0.0218 -0.3251
  111SOL    HW1  332   1.220   0.588   2.395  0.3303 -2.7732 -1.3160
  111SOL    HW2  333   1.337   0.453   2.394  0.3548  2.4941 -2.5274
  112SOL     OW  334   1.689   0.504   1.457 -0.0274 -0.4508  0.4783
  112SOL    HW1  335   1.717   0.479   1.359 -2.6331  2.9234 -1.9831
  112SOL    HW2  336   1.714   0.425   1.520 -1.1538 -0.4911  0.5453
  113SOL     OW  337   2.287   1.649   1.738  0.3399  0.2752 -0.6055
  113SOL    HW1  338   2.337   1.565   1.766 -2.3578 -1.0337 -0.9304
  113SOL    HW2  339   2.292   1.725   1.813 -1.0113  0.9999  0.7727
  114SOL     OW  340   0.399   0.571   1.299 -0.1705 -0.1121 -0.1096
  114SOL    HW1  341   0.327   0.641   1.279  0.1184 -0.0322  0.7661
  114SOL    HW2  342   0.466   0.564   1.222 -1.9085 -0.1650  1.0747
  115SOL     OW  343   2.688   1.558   1.274 -0.6421  0.2361 -0.1406
  115SOL    HW1  344   2.705   1.458   1.294  0.9370  2.0032  0.2190
  115SOL    HW2  345   2.745   1.598   1.198 -0.9735 -1.1863 -2.7271
  116SOL     OW  346   1.824   1.064   0.765 -0.0129  0.1109 -0.0003
  116SOL    HW1  347   1.751   0.998   0.730  1.3674 -0.9077 -2.5406
  116SOL    HW2  348   1.806   1.169   0.754 -1.6887  2.5649  0.0826
  117SOL     OW  349   1.095   0.420   0.667  0.5760 -0.2947 -0.5746
  117SOL    HW1  350   1.108   0.400   0.771 -0.3365 -1.0204 -0.5179
  117SOL    HW2  351   1.100   0.521   0.641 -0.0084 -0.0222  0.7185
  118SOL     OW  352   1.072   1.094   1.012 -0.1283  1.0714  0.2934
  118SOL    HW1  353   1.078   1.002   1.067  0.3557  2.6028  1.4402
  118SOL    HW2  354   1.118   1.168   1.071 -3.1381  0.9707  1.5303
  119SOL     OW  355   1.830   1.629   1.996  0.4271 -0.5001  0.4306
  119SOL    HW1  356   1.775   1.717   2.012 -2.6710  1.1491  0.0812
  119SOL    HW2  357   1.923   1.629   2.044 -3.3064  0.1101 -0.0029
  120SOL     OW  358   2.940   2.768   0.247 -0.6291 -0.1757  0.7919
  120SOL    HW1  359   2.867   2.735   0.181  5.3261 -1.4604 -1.5323
  120SOL    HW2  360   2.993   2.692   0.296  0.0967  1.3993 -2.1538
  121SOL     OW  361   2.077   0.725   2.233 -0.6078  0.4434 -0.1080
  121SOL    HW1  362   2.154   0.708   2.166 -2.8139  1.9899  1.7784
  121SOL    HW2  363   2.001   0.654   2.220 -1.0986 -1.7968  0.2727
  122SOL     OW  364   2.701   2.538   1.340 -0.0925 -0.2925  0.4825
  122SOL    HW1  365   2.724   2.542   1.237  1.6520 -0.6199 -2.5067
  122SOL    HW2  366   2.681   2.445   1.367  1.4366  3.1834 -1.3517
  123SOL     OW  367   1.730   0.040   1.694  0.1006 -0.2176 -0.2527
  123SOL    HW1  368   1.713  -0.032   1.625  0.6746  1.1592  1.0462
  123SOL    HW2  369   1.816   0.094   1.673  1.1604  1.1718 -0.9849
  124SOL     OW  370   0.192   0.487   0.978 -0.1316  0.5783  0.7084
  124SOL    HW1  371   0.180   0.532   1.065  0.3944 -1.0516  0.0225
  124SOL    HW2  372   0.137   0.536   0.913  1.9762 -2.5921  2.1051
  125SOL     OW  373   0.868   1.732   0.667  0.1507  0.7689 -0.3046
  125SOL    HW1  374   0.976   1.735   0.673  1.5394 -0.5716  0.3304
  125SOL    HW2  375   0.833   1.651   0.722 -0.3277  1.9873 -1.9916
  126SOL     OW  376   1.888   2.387   2.402 -0.6837  0.2769 -0.9260
  126SOL    HW1  377   1.947   2.317   2.353 -1.0012 -0.4027  2.0829
  126SOL    HW2  378   1.795   2.382   2.359 -1.4559 -3.3288  0.7204
  127SOL     OW  379   0.959   0.984   0.177 -0.7469  0.0287  0.1935
  127SOL    HW1  380   1.056   1.006   0.205 -1.0146 -1.0164 -0.6226
  127SOL    HW2  381   0.939   0.884   0.208 -0.6398 -1.9588 -0.2157
  128SOL     OW  382   0.998   0.192   1.463  0.6372  0.0348  0.6150
  128SOL    HW1  383   0.975   0.267   1.400  1.2122 -0.0867  0.3610
  128SOL    HW2  384   0.939   0.110   1.465 -0.0783  0.0703  2.5578
  129SOL     OW  385   1.761   0.719   1.822 -0.0282  0.0723  0.0606
  129SOL    HW1  386   1.777   0.725   1.718  1.2190  2.1651  1.8251
  129SOL    HW2  387   1.819   0.788   1.881  5.2923  1.8436 -0.8867
  130SOL     OW  388   1.274   2.091   0.993  0.5536  0.2571 -0.3414
  130SOL    HW1  389   1.219   2.058   0.910  1.0000 -2.0322 -0.6821
  130SOL    HW2  390   1.333   2.170   0.972 -0.4704 -1.8328  0.9133
  131SOL     OW  391   3.051   1.510   1.328  0.4519  0.2093 -0.2076
  131SOL    HW1  392   2.995   1.422   1.326 -1.8825 -0.5588 -0.7877
  131SOL    HW2  393   3.155   1.495   1.333  1.6624 -0.9368  1.8103
  132SOL     OW  394   1.925   2.485   0.512  0.2870  0.4402  0.4602
  132SOL    HW1  395   1.825   2.497   0.542  1.0728 -2.1146  0.7109
  132SOL    HW2  396   1.979   2.447   0.592  0.3802  0.8814 -1.6331
  133SOL     OW  397   1.792   2.287   2.918  0.1886  0.1506 -0.7074
  133SOL    HW1  398   1.760   2.358   2.992 -0.0226  0.3949 -0.5501
  133SOL    HW2  399   1.801   2.322   2.822  1.9786 -1.8793 -0.6646
  134SOL     OW  400   2.616   2.376   1.618 -0.2821  0.7360 -0.1249
  134SOL    HW1  401   2.556   2.335   1.696  0.7150  0.6093  0.0158
  134SOL    HW2  402   2.681   2.453   1.656  2.8957 -0.5490  4.2768
  135SOL     OW  403   0.764   1.503   2.553 -0.6407 -0.2730  0.1555
  135SOL    HW1  404   0.760   1.402   2.564  2.7435  4.0338  3.7452
  135SOL    HW2  405   0.839   1.534   2.485  2.6626  0.5904 -3.6614
  136SOL     OW  406   1.151   2.081   0.460  0.3805  0.1212 -0.1414
  136SOL    HW1  407   1.081   2.113   0.531 -1.6048 -2.0893 -0.8595
  136SOL    HW2  408   1.119   1.988   0.420 -0.2956  1.4051 -2.4996
  137SOL     OW  409   0.371   1.026   2.146  0.1805  0.1995  0.3229
  137SOL    HW1  410   0.292   1.057   2.210 -0.1504 -2.1341 -1.4911
  137SOL    HW2  411   0.408   0.931   2.167  0.4429 -1.8641 -1.2466
  138SOL     OW  412   2.438   1.466   0.337  0.0515 -0.0315 -0.7866
  138SOL    HW1  413   2.352   1.474   0.280  1.7600  3.0592  0.0924
  138SOL    HW2  414   2.471   1.372   0.368 -0.3033  1.4719  1.7462
  139SOL     OW  415   1.765   2.516   1.220  0.2141  0.4729  0.2927
  139SOL    HW1  416   1.664   2.511   1.193  1.3337  1.2200  2.8802
  139SOL    HW2  417   1.784   2.470   1.310  2.4843  0.0046 -0.0095
  140SOL     OW  418   2.984   3.005   2.510  0.0345  0.2809  0.2666
  140SOL    HW1  419   2.996   2.932   2.586 -0.0364 -0.2391  1.9995
  140SOL    HW2  420   3.077   3.049   2.494 -1.4926  1.4430 -0.4540
  141SOL     OW  421   1.147   1.555   1.599  0.0794  0.4644  0.3891
  141SOL    HW1  422   1.161   1.648   1.652 -0.9813  2.0112 -0.9449
  141SOL    HW2  423   1.204   1.476   1.645  1.7295  1.9220  1.3038
  142SOL     OW  424   1.538   0.591   2.250 -0.2355  0.0783 -0.0222
  142SOL    HW1  425   1.551   0.592   2.146  0.7722 -0.6959 -0.8806
  142SOL    HW2  426   1.440   0.585   2.290  2.4268 -0.5490  0.1171
  143SOL     OW  427   2.777   0.851   0.485  0.1108  0.6163 -0.2258
  143SOL    HW1  428   2.807   0.890   0.392 -3.0408 -1.7438  0.1191
  143SOL    HW2  429   2.812   0.910   0.563  0.3080  1.4221 -0.1578
  144SOL     OW  430   2.963   1.241   1.367  0.0151  0.3040  0.1601
  144SOL    HW1  431   2.995   1.209   1.463  0.0216  1.1439  1.2333
  144SOL    HW2  432   3.029   1.203   1.290 -0.2960 -1.0929 -2.8122
  145SOL     OW  433   1.013   1.871   0.109  0.6030 -0.0096  0.4134
  145SOL    HW1  434   1.034   1.946   0.036  0.6260  1.0463 -0.3617
  145SOL    HW2  435   0.971   1.781   0.070  0.3377 -0.0719 -1.3784
  146SOL     OW  436   2.514   0.628   1.493  0.0839  0.4189 -0.4408
  146SOL    HW1  437   2.445   0.564   1.451 -0.1736  0.6754  0.3470
  146SOL    HW2  438   2.468   0.722   1.510 -1.4546 -1.1222 -1.5567
  147SOL     OW  439   1.060   2.602   0.618 -0.8068  0.1057 -0.1487
  147SOL    HW1  440   1.011   2.643   0.535 -0.4632 -0.8454  1.2510
  147SOL    HW2  441   1.139   2.538   0.596 -0.3338 -2.1866  0.9022
  148SOL     OW  442   1.656   1.418   3.038 -0.5922 -0.0281  1.1002
  148SOL    HW1  443   1.714   1.359   2.970  1.3783 -2.3475  0.2532
  148SOL    HW2  444   1.648   1.371   3.131 -1.4273  0.1464 -0.6630
  149SOL     OW  445   0.639   1.401   1.937  0.3402  0.0850  0.0428
  149SOL    HW1  446   0.551   1.372   1.983 -0.2146 -0.8775  0.8366
  149SOL    HW2  447   0.686   1.328   1.879  2.4265  1.1669 -0.5633
  150SOL     OW  448   2.959   1.275   0.938 -0.1549  0.1446  0.2852
  150SOL    HW1  449   3.029   1.333   0.991 -1.6630  0.3511 -0.3904
  150SOL    HW2  450   2.970   1.171   0.953  2.0619 -1.3748  1.7257
  151SOL     OW  451   0.185   0.769   2.084 -0.0186 -0.5000 -0.1171
  151SOL    HW1  452   0.148   0.855   2.037 -0.6817  3.7385 -0.3367
  151SOL    HW2  453   0.238   0.708   2.017 -0.3167 -0.8038  0.2072
  152SOL     OW  454   1.413   1.773   1.267 -0.1547 -0.0584  0.3140
  152SOL    HW1  455   1.424   1.851   1.331  0.1092 -2.0849 -0.3339
  152SOL    HW2  456   1.313   1.762   1.239  0.4733  2.3409  1.4354
  153SOL     OW  457   0.047   1.503   0.170  0.0979 -0.3667 -0.8786
  153SOL    HW1  458   0.059   1.403   0.169 -1.3350  2.7452  1.0613
  153SOL    HW2  459   0.019   1.532   0.268 -0.3096 -0.3842  2.0064
  154SOL     OW  460   2.407   1.964   2.837 -0.0849 -0.2189  0.0913
  154SOL    HW1  461   2.401   1.865   2.851  0.3547  0.3006 -0.2016
  154SOL    HW2  462   2.450   1.978   2.747 -1.4885 -2.6081  0.8841
  155SOL     OW  463   2.525   1.212   0.416  0.0736  0.8080 -0.5079
  155SOL    HW1  464   2.615   1.221   0.366  0.1638  0.6114 -0.1675
  155SOL    HW2  465   2.499   1.110   0.423 -2.3918 -0.9448  2.0309
  156SOL     OW  466   2.513   0.995   0.889  0.4574  0.4615 -0.3017
  156SOL    HW1  467   2.411   1.002   0.872 -0.5147 -0.1798 -1.1522
  156SOL    HW2  468   2.559   1.080   0.870 -0.1078 -3.3696  0.6225
  157SOL     OW  469   1.378   2.983   3.107  0.0981  0.2393  0.3860
  157SOL    HW1  470   1.419   2.941   3.022  1.4492  2.2236  0.7753
  157SOL    HW2  471   1.344   3.076   3.073 -1.7035  0.8582 -2.0228
  158SOL     OW  472   1.068   1.851   2.021 -0.3283 -0.2054  0.1547
  158SOL    HW1  473   1.112   1.846   2.116 -0.7069 -0.2049  2.4839
  158SOL    HW2  474   0.965   1.857   2.026 -1.7007 -2.0839 -3.4259
  159SOL     OW  475   0.874   0.424   1.319 -0.2493 -0.8080  0.3691
  159SOL    HW1  476   0.832   0.495   1.381 -0.1406  0.5935 -3.3583
  159SOL    HW2  477   0.813   0.410   1.237  2.2678 -2.2161 -0.7703
  160SOL     OW  478   1.482   2.354   1.642  0.1081  0.8993 -0.3059
  160SOL    HW1  479   1.485   2.434   1.573  3.1928 -1.4826 -1.9822
  160SOL    HW2  480   1.575   2.306   1.649  0.2191 -3.8144 -0.5617
  161SOL     OW  481   0.131   2.948   0.375  0.4252  0.3080 -0.1823
  161SOL    HW1  482   0.055   2.872   0.387  0.9159 -1.2863 -1.0883
  161SOL    HW2  483   0.116   3.014   0.296 -0.1675  1.3743  1.4519
  162SOL     OW  484   2.609   1.895   0.507 -0.3515 -0.4101 -0.1405
  162SOL    HW1  485   2.561   1.860   0.423 -1.9361  1.1988 -1.4115
  162SOL    HW2  486   2.603   1.826   0.586 -1.5225 -2.2279 -1.6136
  163SOL     OW  487   1.969   2.764   0.760  0.2650 -0.1795  0.0234
  163SOL    HW1  488   1.934   2.784   0.662  0.2551 -0.2962 -0.4383
  163SOL    HW2  489   2.012   2.669   0.765  0.5010 -0.5302  1.6928
  164SOL     OW  490   0.021   0.244   1.223 -0.7410  0.0857  0.5433
  164SOL    HW1  491   0.100   0.184   1.186 -0.7760  0.2181  0.8041
  164SOL    HW2  492   0.056   0.326   1.279  0.1888  0.9275  0.4596
  165SOL     OW  493   0.997   1.378   0.648 -0.5462 -0.6318 -0.0315
  165SOL    HW1  494   0.967   1.459   0.701  0.9721 -2.5721 -0.7982
  165SOL    HW2  495   0.990   1.379   0.543  0.2723 -2.7184  0.2996
  166SOL     OW  496   1.376   1.025   1.786 -0.2447  0.2628 -0.1913
  166SOL    HW1  497   1.282   0.985   1.802 -0.0841  2.7944 -0.9072
  166SOL    HW2  498   1.437   1.037   1.873  4.5490  1.3913  0.5019
  167SOL     OW  499   0.894   1.837   1.585 -0.6141  0.1818 -0.4884
  167SOL    HW1  500   0.894   1.929   1.635 -1.0996  0.5202  1.0756
  167SOL    HW2  501   0.796   1.803   1.572  0.6343  0.4971  0.5526
  168SOL     OW  502   1.536   2.369   0.170 -0.1438  0.1828  0.0799
  168SOL    HW1  503   1.609   2.405   0.105 -0.7938 -0.7819  0.0034
  168SOL    HW2  504   1.575   2.329   0.257  0.1249  2.2370  1.0069
  169SOL     OW  505   0.168   2.557   2.169  0.0806 -0.2263  0.2095
  169SOL    HW1  506   0.208   2.482   2.111 -0.0503  1.5307  0.5208
  169SOL    HW2  507   0.131   2.518   2.258 -1.3766 -2.6498 -0.7724
  170SOL     OW  508   1.274   0.310   1.926  0.2486 -0.4996 -0.0693
  170SOL    HW1  509   1.318   0.296   2.021 -0.7435  0.9926  0.8500
  170SOL    HW2  510   1.211   0.236   1.896  0.7369 -1.4047 -2.6435
  171SOL     OW  511   0.243   0.827   2.416  0.0690 -0.0346 -0.2828
  171SOL    HW1  512   0.138   0.824   2.433 -1.8886  2.4225 -0.1471
  171SOL    HW2  513   0.276   0.789   2.320  2.7214 -0.6134  2.1737
  172SOL     OW  514   0.896   1.124   2.920  0.2236 -0.2581  0.2575
  172SOL    HW1  515   0.995   1.147   2.949 -0.6249  0.0201 -0.6501
  172SOL    HW2  516   0.881   1.066   2.835 -3.6968  1.4920  0.1280
  173SOL     OW  517   0.687   2.709   0.167 -0.2381 -0.5052  0.2062
  173SOL    HW1  518   0.667   2.806   0.142  0.9994 -0.5320  2.1636
  173SOL    HW2  519   0.605   2.648   0.155 -0.1962  0.4801  0.9511
  174SOL     OW  520   1.305   2.750   1.044  0.0983  0.0411 -0.0473
  174SOL    HW1  521   1.314   2.823   0.971  2.2005  0.4398 -0.6618
  174SOL    HW2  522   1.227   2.688   1.022  1.5138 -1.1448 -1.5757
  175SOL     OW  523   0.375   0.025   1.691  0.4970 -0.2646  0.2402
  175SOL    HW1  524   0.447   0.092   1.733  0.9377  0.9408 -1.0043
  175SOL    HW2  525   0.295   0.081   1.656  1.6679 -2.6510 -1.4385
  176SOL     OW  526   2.633   0.357   3.021 -0.3169  0.5293  0.1829
  176SOL    HW1  527   2.640   0.449   3.075  0.7035 -1.8923  0.2148
  176SOL    HW2  528   2.536   0.329   3.003  1.6255 -0.8203  0.0999
  177SOL     OW  529   0.367   0.323   0.856  0.0419  0.3727 -0.1950
  177SOL    HW1  530   0.435   0.273   0.917  0.9496  1.8624  1.1559
  177SOL    HW2  531   0.316   0.398   0.911  0.4860  1.0578  0.6233
  178SOL     OW  532   3.080   2.694   2.607  0.4568  0.3906  0.0737
  178SOL    HW1  533   2.995   2.648   2.641  1.0708  2.0028  3.1257
  178SOL    HW2  534   3.156   2.701   2.672 -2.4552 -1.2907  0.4959
  179SOL     OW  535   3.093   1.772   1.181 -0.4505 -0.6203  0.2088
  179SOL    HW1  536   3.016   1.844   1.166 -0.4207  0.0016 -0.7119
  179SOL    HW2  537   3.074   1.693   1.244  1.7081  3.6150 -0.1941
  180SOL     OW  538   0.172   1.259   1.831  0.8012 -0.2487 -0.0051
  180SOL    HW1  539   0.268   1.232   1.823 -3.3750  0.9563 -0.5771
  180SOL    HW2  540   0.170   1.336   1.900 -0.4959  1.2934  0.9829
  181SOL     OW  541   2.998   1.825   2.533 -0.2506 -0.7291 -0.3577
  181SOL    HW1  542   3.060   1.897   2.492  2.5678  3.8226 -1.7812
  181SOL    HW2  543   2.930   1.783   2.473  0.2786  3.0796  4.4188
  182SOL     OW  544   2.311   1.228   1.250 -0.7816 -0.3895 -0.2748
  182SOL    HW1  545   2.228   1.204   1.193 -0.9324  0.6602 -0.8865
  182SOL    HW2  546   2.337   1.325   1.253 -0.5458 -1.5327 -0.6724
  183SOL     OW  547   1.512   2.255   2.512  0.2890 -0.2716  0.1101
  183SOL    HW1  548   1.419   2.205   2.514 -0.2605  0.0578 -1.0034
  183SOL    HW2  549   1.593   2.191   2.513 -1.4021 -1.1460  1.0207
  184SOL     OW  550   2.061   0.931   0.725 -0.0711 -0.3694  0.0163
  184SOL    HW1  551   1.979   0.998   0.743 -0.7350  3.0175  0.3267
  184SOL    HW2  552   2.036   0.834   0.738 -0.6413 -1.5649 -1.3529
  185SOL     OW  553   1.653   2.751   2.164  0.2881 -0.0566 -0.3220
  185SOL    HW1  554   1.584   2.820   2.128 -0.7279  1.5566  0.0280
  185SOL    HW2  555   1.644   2.734   2.264 -0.4919 -0.6600 -2.5038
  186SOL     OW  556   0.106   2.228   1.695  0.1059  0.4352  0.5022
  186SOL    HW1  557   0.132   2.322   1.656  2.9338 -0.3571  3.3873
  186SOL    HW2  558   0.193   2.177   1.728  1.2856 -2.7447  0.2461
  187SOL     OW  559   1.421   0.653   1.739 -0.1708 -0.5246  0.1659
  187SOL    HW1  560   1.489   0.717   1.697  1.1410 -0.5697 -0.7398
  187SOL    HW2  561   1.392   0.689   1.835  0.8925  1.9158  1.1815
  188SOL     OW  562   2.753   2.743   1.527  0.0205 -0.3489 -0.2446
  188SOL    HW1  563   2.753   2.833   1.470 -1.1115 -0.2362  0.2928
  188SOL    HW2  564   2.711   2.663   1.473  0.0470 -0.2546  0.8133
  189SOL     OW  565   0.716   1.002   1.485 -0.5041  0.7068 -0.0875
  189SOL    HW1  566   0.781   1.083   1.459  0.8262  1.1381  1.2015
  189SOL    HW2  567   0.698   0.939   1.407  2.5206 -1.2661  1.8524
  190SOL     OW  568   1.472   1.771   1.658 -0.0213  0.5062  0.0791
  190SOL    HW1  569   1.424   1.845   1.606 -0.5881 -2.9116  0.6703
  190SOL    HW2  570   1.534   1.801   1.733 -0.6439  0.4510  0.3666
  191SOL     OW  571   1.027   0.812   1.533  0.3955 -0.3559  0.0568
  191SOL    HW1  572   1.065   0.737   1.597  1.5761 -0.4507  1.8225
  191SOL    HW2  573   1.100   0.879   1.494  3.0295  0.8553 -0.0474
  192SOL     OW  574   1.891   2.198   1.212  0.2899  0.4763 -0.2518
  192SOL    HW1  575   1.794   2.186   1.172  1.1111  0.7564 -1.2050
  192SOL    HW2  576   1.937   2.270   1.158 -0.5126 -2.8190  2.6003
  193SOL     OW  577   0.508   0.561   0.343  0.1851 -0.5420  0.3689
  193SOL    HW1  578   0.463   0.481   0.391 -2.7003 -1.8611 -0.4717
  193SOL    HW2  579   0.542   0.538   0.253 -0.8292  1.5401  2.2653
  194SOL     OW  580   0.292   0.812   1.248  0.5765  0.1651  0.0227
  194SOL    HW1  581   0.196   0.768   1.241 -2.0493  3.1020 -0.5053
  194SOL    HW2  582   0.307   0.875   1.166  0.1935 -0.6984 -0.9728
  195SOL     OW  583   0.927   2.938   0.500  0.1586 -0.1834 -0.3245
  195SOL    HW1  584   0.928   2.839   0.470  0.2985  0.7669  1.9427
  195SOL    HW2  585   1.019   2.980   0.511 -2.8688 -1.5029 -1.2635
  196SOL     OW  586   0.220   1.461   1.346  0.7153 -0.1197 -0.4453
  196SOL    HW1  587   0.256   1.538   1.411  2.9287  1.2765  1.4832
  196SOL    HW2  588   0.201   1.374   1.401  0.4421  1.2673 -0.6000
  197SOL     OW  589   0.800   2.004   0.205  0.3063 -0.1976 -0.3494
  197SOL    HW1  590   0.801   1.972   0.307  3.6240  1.0093  1.0393
  197SOL    HW2  591   0.876   1.956   0.155  1.0245 -0.1475  0.1629
  198SOL     OW  592   0.285   1.191   0.224  0.1915 -0.1766  0.0871
  198SOL    HW1  593   0.183   1.199   0.226  0.6612 -1.0954  0.7300
  198SOL    HW2  594   0.333   1.284   0.238  0.5686  0.1489  0.3252
  199SOL     OW  595   2.269   0.427   2.472 -0.1821 -0.1372  0.3400
  199SOL    HW1  596   2.211   0.378   2.542  3.0869 -1.1182 -1.5862
  199SOL    HW2  597   2.364   0.423   2.508 -1.5913 -1.3539  1.5378
  200SOL     OW  598   0.041   2.890   0.817 -0.2936  0.0768 -0.0132
  200SOL    HW1  599  -0.030   2.885   0.745 -1.2777  1.3342 -0.8030
  200SOL    HW2  600   0.066   2.990   0.825 -1.5198 -2.0863 -3.5697
  201SOL     OW  601   1.108   0.670   0.549  0.9493  0.4626 -0.1432
  201SOL    HW1  602   1.118   0.763   0.592  0.7316  0.4325  3.5090
  201SOL    HW2  603   1.003   0.647   0.525 -1.3497  1.5128  0.9973
  202SOL     OW  604   0.432   1.220   1.775 -0.3025  0.0199 -0.2143
  202SOL    HW1  605   0.489   1.241   1.689  0.2447  3.1748  0.9287
  202SOL    HW2  606   0.477   1.142   1.833 -0.2154 -4.1588  1.5861
  203SOL     OW  607   0.590   0.228   1.533  0.0143  0.0248  0.1312
  203SOL    HW1  608   0.609   0.165   1.450  0.4770  0.2561 -0.4860
  203SOL    HW2  609   0.606   0.195   1.632  1.2826 -1.1050  1.5335
  204SOL     OW  610   2.082   1.890   3.007 -0.3148 -0.2434  0.5001
  204SOL    HW1  611   2.070   1.784   3.002 -1.0877  0.2068  1.4107
  204SOL    HW2  612   2.019   1.937   2.936 -1.6905  2.8194  1.9214
  205SOL     OW  613   1.891   1.855   0.136  0.2038  0.0300 -0.3882
  205SOL    HW1  614   1.970   1.877   0.071 -0.2395  2.3256  0.0071
  205SOL    HW2  615   1.801   1.906   0.109 -2.8370  2.6912 -1.0423
  206SOL     OW  616   2.510   2.801   0.389 -0.1320 -0.2898  0.4106
  206SOL    HW1  617   2.571   2.718   0.410 -2.8523 -0.8210  0.0663
  206SOL    HW2  618   2.547   2.870   0.319 -0.7579  0.2343 -0.1177
  207SOL     OW  619   0.528   1.734   2.870  0.5179  0.4358 -0.7386
  207SOL    HW1  620   0.625   1.723   2.837  1.7840 -1.8159  1.4043
  207SOL    HW2  621   0.500   1.661   2.943 -1.3021  0.7450 -2.2960
  208SOL     OW  622   1.053   1.430   1.350 -0.0517  0.0224  0.3269
  208SOL    HW1  623   0.966   1.480   1.330 -0.1261 -1.3878  0.2899
  208SOL    HW2  624   1.104   1.465   1.434 -0.4857  2.2462  1.2528
  209SOL     OW  625   0.152   0.898   3.086  0.0697  0.4884  0.2573
  209SOL    HW1  626   0.195   0.863   3.001  1.4562 -0.2919 -1.2139
  209SOL    HW2  627   0.198   0.859   3.172  0.0400  0.7923 -0.1430
  210SOL     OW  628   1.723   0.431   1.164  0.1870  0.7922 -0.1816
  210SOL    HW1  629   1.665   0.503   1.119 -1.6905  1.0435  0.3895
  210SOL    HW2  630   1.819   0.435   1.130 -4.4732 -1.1686 -0.7621
  211SOL     OW  631   2.114   1.045   1.647 -0.6089  0.3032  0.5490
  211SOL    HW1  632   2.156   1.007   1.734 -2.5007  1.4021 -2.0431
  211SOL    HW2  633   2.189   1.109   1.600  0.1238  0.4410 -1.1674
  212SOL     OW  634   0.043   1.013   1.455 -0.1284 -0.3092 -0.6145
  212SOL    HW1  635   0.101   1.100   1.475  1.3346 -0.4427 -0.5036
  212SOL    HW2  636   0.048   0.941   1.527 -1.2463  1.9974 -1.7754
  213SOL     OW  637   2.757   0.283   0.294 -0.3911 -0.1158 -0.3885
  213SOL    HW1  638   2.846   0.235   0.283 -3.6653  1.6507 -0.8313
  213SOL    HW2  639   2.723   0.317   0.203 -1.0473  0.2088 -1.8307
  214SOL     OW  640   2.135   0.293   2.257  0.7880  0.3067 -0.3127
  214SOL    HW1  641   2.207   0.324   2.326  3.1824  0.0068  0.5580
  214SOL    HW2  642   2.098   0.195   2.278  0.2328  1.1564 -0.7806
  215SOL     OW  643   1.700   2.281   2.039 -0.0615  0.4229  0.1729
  215SOL    HW1  644   1.801   2.279   2.030 -2.7119  0.3137  3.7008
  215SOL    HW2  645   1.665   2.368   2.082  2.2221  0.2606 -0.6174
  216SOL     OW  646   2.250   0.537   0.650 -0.0512  0.3315  0.0097
  216SOL    HW1  647   2.196   0.471   0.586  1.7439  0.7633  1.9156
  216SOL    HW2  648   2.280   0.623   0.608 -0.2009 -0.9338  1.2313
  217SOL     OW  649   0.798   2.793   2.440 -0.3371 -0.2669 -0.0016
  217SOL    HW1  650   0.756   2.703   2.474  1.1936  0.2467 -2.4083
  217SOL    HW2  651   0.806   2.790   2.337 -1.3042 -0.3391  2.7340
  218SOL     OW  652   1.932   1.427   3.088  0.2977  0.4615  0.2258
  218SOL    HW1  653   1.839   1.463   3.068 -0.4950 -0.7600  1.1527
  218SOL    HW2  654   1.935   1.337   3.140 -2.6217  0.0167  2.2995
  219SOL     OW  655   2.372   1.290   2.590  0.0895  0.4785 -0.5834
  219SOL    HW1  656   2.458   1.269   2.543 -2.2079  0.2922  0.9706
  219SOL    HW2  657   2.362   1.232   2.679  1.0459 -2.0283  2.7712
  220SOL     OW  658   1.455   1.018   1.262 -0.6606  0.4567 -1.0217
  220SOL    HW1  659   1.552   1.021   1.236 -0.4643 -1.4104  3.0659
  220SOL    HW2  660   1.425   1.102   1.307 -1.9066 -0.2858  0.0848
  221SOL     OW  661   1.296   1.106   2.158  0.0660 -0.2607 -0.1214
  221SOL    HW1  662   1.243   1.178   2.104 -0.7605  2.2310  0.6170
  221SOL    HW2  663   1.388   1.082   2.116  1.6088  0.0838 -1.0634
  222SOL     OW  664   1.327   0.159   1.129 -0.1761 -0.3041  0.2628
  222SOL    HW1  665   1.414   0.125   1.082 -1.4360  1.7173  0.8989
  222SOL    HW2  666   1.349   0.248   1.178 -0.5536  0.4792  0.7769
  223SOL     OW  667   2.872   0.785   1.991 -0.2219  0.4190 -0.3952
  223SOL    HW1  668   2.879   0.811   2.093 -0.7013 -0.0184 -0.1334
  223SOL    HW2  669   2.890   0.873   1.934 -0.2830  0.0093 -1.4880
  224SOL     OW  670   1.563   1.043   2.792  0.1507 -0.7798 -0.5900
  224SOL    HW1  671   1.549   0.978   2.713  0.2877 -0.5743  1.4592
  224SOL    HW2  672   1.534   1.139   2.766  0.2517  3.6140 -2.5250
  225SOL     OW  673   2.962   2.821   2.940  0.1917 -0.2053  0.0216
  225SOL    HW1  674   2.939   2.736   2.879 -2.3743 -0.2393 -3.4298
  225SOL    HW2  675   3.011   2.893   2.884 -2.4077 -0.3749 -2.7824
  226SOL     OW  676   2.457   1.675   2.850  0.0328  0.9088 -0.4919
  226SOL    HW1  677   2.509   1.621   2.782 -1.8882  0.8065  0.8503
  226SOL    HW2  678   2.429   1.610   2.923 -1.0456  0.3975 -1.8406
  227SOL     OW  679   0.775   0.137   2.954 -0.3126  0.0126  0.8198
  227SOL    HW1  680   0.818   0.062   3.015 -0.2244 -0.6771 -1.0598
  227SOL    HW2  681   0.815   0.135   2.861 -0.9365 -0.6970  0.4085
  228SOL     OW  682   2.358   0.540   2.782  0.1805  0.0214  0.2973
  228SOL    HW1  683   2.319   0.613   2.716  0.0413  2.0117 -0.3205
  228SOL    HW2  684   2.446   0.497   2.751 -0.3833  0.7276 -0.7863
  229SOL     OW  685   0.604   0.500   1.869 -0.0441  0.2404  0.3592
  229SOL    HW1  686   0.628   0.517   1.771 -0.0462 -1.0550  1.5329
  229SOL    HW2  687   0.683   0.488   1.921 -1.9474  1.3835 -3.8074
  230SOL     OW  688   1.924   1.223   2.131 -0.1658 -0.4222  0.4631
  230SOL    HW1  689   1.996   1.274   2.070 -0.1029  1.2251  0.0145
  230SOL    HW2  690   1.844   1.283   2.139  2.3091  1.1850  4.0564
  231SOL     OW  691   0.630   1.095   2.947  0.3154 -0.6393 -0.5100
  231SOL    HW1  692   0.725   1.137   2.963  0.3708  2.7093 -1.6482
  231SOL    HW2  693   0.583   1.074   3.040  1.8887  0.2179  5.3158
  232SOL     OW  694   2.533   0.020   2.727  0.1204  0.4593  0.2986
  232SOL    HW1  695   2.532  -0.070   2.777  0.0629 -0.6245  0.4117
  232SOL    HW2  696   2.525   0.018   2.622 -0.8965  0.3078  1.1248
  233SOL     OW  697   1.735   1.292   1.062 -0.1894 -0.1505 -0.2834
  233SOL    HW1  698   1.721   1.318   0.963  1.5516  0.8858  0.4972
  233SOL    HW2  699   1.763   1.193   1.076  2.4424  2.9588 -4.8378
  234SOL     OW  700   1.625   2.584   1.921 -0.2784  0.1562 -0.2424
  234SOL    HW1  701   1.626   2.635   2.014 -1.9516  0.3761 -1.0685
  234SOL    HW2  702   1.531   2.544   1.905  0.7592 -0.3100  0.0199
  235SOL     OW  703  -0.001   3.020   2.824  0.2777 -0.6987 -0.1285
  235SOL    HW1  704   0.075   3.059   2.767 -0.7421 -1.6151  1.4426
  235SOL    HW2  705  -0.029   3.086   2.898 -0.0787 -0.6302  1.5154
  236SOL     OW  706   2.860   0.704   0.041 -0.6239  0.3651  0.4098
  236SOL    HW1  707   2.914   0.763   0.108  1.4974  2.3742 -2.1788
  236SOL    HW2  708   2.922   0.634  -0.010  0.4482  0.9662 -3.2205
  237SOL     OW  709   1.483   1.636   1.014 -0.0766  0.8571 -0.6129
  237SOL    HW1  710   1.585   1.630   1.021 -0.4095  0.0166 -1.1860
  237SOL    HW2  711   1.444   1.692   1.094  0.0022  0.5571 -0.4874
  238SOL     OW  712   1.779   1.354   0.751  0.3056 -0.5199  0.2175
  238SOL    HW1  713   1.861   1.376   0.690 -3.5201  1.4364  0.9484
  238SOL    HW2  714   1.697   1.416   0.731  0.6213 -1.0888  1.3517
  239SOL     OW  715   2.142   0.281   2.683  0.1075  0.1707  0.5177
  239SOL    HW1  716   2.223   0.256   2.739 -1.8457  0.4742 -1.6458
  239SOL    HW2  717   2.079   0.352   2.731 -1.0138 -1.2545  0.6644
  240SOL     OW  718   0.873   0.725   0.237  0.0215 -0.0736 -0.1029
  240SOL    HW1  719   0.849   0.644   0.175 -0.1350 -1.7337  1.0173
  240SOL    HW2  720   0.879   0.698   0.333 -3.0656 -1.6408 -3.9423
  241SOL     OW  721   0.572   0.023   0.353 -0.3787  0.1217 -0.4301
  241SOL    HW1  722   0.610  -0.017   0.268 -1.1436  0.8861  4.2601
  241SOL    HW2  723   0.481  -0.022   0.382 -2.6778  0.1069  1.9602
  242SOL     OW  724   0.688   2.430   1.145  0.3894 -0.6539  0.1489
  242SOL    HW1  725   0.692   2.503   1.220  0.8725 -0.6376 -0.7061
  242SOL    HW2  726   0.773   2.439   1.079  0.1100  2.4451 -0.9608
  243SOL     OW  727   1.075   0.622   2.499 -0.1279 -0.1161 -0.0806
  243SOL    HW1  728   1.011   0.676   2.434 -0.8157  2.3301 -0.3901
  243SOL    HW2  729   1.025   0.554   2.559 -0.2504 -1.6520 -2.0780
  244SOL     OW  730   2.829   2.000   2.348 -0.1872  0.3280  0.8670
  244SOL    HW1  731   2.861   1.977   2.246 -0.8427 -0.1850 -0.7123
  244SOL    HW2  732   2.750   1.942   2.378 -0.7565 -0.8791  0.5629
  245SOL     OW  733   2.478   0.712   2.185  0.2074 -0.2363 -0.3305
  245SOL    HW1  734   2.496   0.781   2.260 -1.7946 -1.5932  0.0190
  245SOL    HW2  735   2.512   0.618   2.208  0.2228  1.5390 -0.5293
  246SOL     OW  736   0.282   2.852   1.766 -1.2469  0.0376 -0.0714
  246SOL    HW1  737   0.189   2.854   1.724 -0.3271  1.3897 -0.0086
  246SOL    HW2  738   0.329   2.942   1.743 -2.2200  1.0662 -4.4034
  247SOL     OW  739   2.203   0.509   2.995  0.0241  0.6705  0.1735
  247SOL    HW1  740   2.272   0.499   2.918  1.8444  0.4916  1.8264
  247SOL    HW2  741   2.157   0.605   3.001 -2.2274 -1.1625 -1.8789
  248SOL     OW  742   2.185   1.873   1.603  0.2035  0.3375  0.6828
  248SOL    HW1  743   2.238   1.792   1.639  0.2150  0.3358  0.1449
  248SOL    HW2  744   2.083   1.864   1.617  0.7949 -1.7743 -3.4162
  249SOL     OW  745   2.002   1.950   1.926  0.1955 -0.5957  0.5503
  249SOL    HW1  746   1.989   1.897   1.837 -0.7292 -0.1313 -1.9581
  249SOL    HW2  747   2.095   1.996   1.942  0.5188 -0.0713 -1.0760
  250SOL     OW  748   1.015   0.646   1.889 -0.4375  0.1132 -0.0373
  250SOL    HW1  749   1.086   0.590   1.946  1.4477  3.0425 -0.3952
  250SOL    HW2  750   0.996   0.617   1.793  1.1825 -0.5058 -2.0959
  251SOL     OW  751   3.041   1.551   2.598  0.1061  0.3391 -0.2763
  251SOL    HW1  752   3.054   1.641   2.553  0.5040  0.7199  0.0662
  251SOL    HW2  753   2.941   1.529   2.608  0.9456  0.1555  0.5949
  252SOL     OW  754   1.545   0.893   1.612  0.1348 -0.8327 -0.4927
  252SOL    HW1  755   1.606   0.958   1.558 -0.8778  0.1093 -0.0180
  252SOL    HW2  756   1.482   0.940   1.685  1.3175 -0.3506  1.1834
  253SOL     OW  757   1.001   1.524   0.370 -0.1028  0.1140  0.4003
  253SOL    HW1  758   1.083   1.489   0.312  3.1257 -0.4436 -2.3192
  253SOL    HW2  759   0.907   1.488   0.333  1.7947  1.7755  4.0623
  254SOL     OW  760   2.000   2.123   1.608 -0.1587  0.6858  0.1271
  254SOL    HW1  761   1.941   2.072   1.540  3.2044  0.2712  0.6821
  254SOL    HW2  762   1.954   2.143   1.696 -2.7545 -0.4038  0.2236
  255SOL     OW  763   0.118   1.165   2.950 -0.3071 -0.4821 -0.6592
  255SOL    HW1  764   0.205   1.220   2.949  0.8924 -0.9168  1.0050
  255SOL    HW2  765   0.122   1.090   3.025  1.4032  0.7100 -2.0049
  256SOL     OW  766   2.713   1.304   1.840  0.3045  0.2138 -0.0684
  256SOL    HW1  767   2.673   1.305   1.744  0.8170  1.7543  1.8781
  256SOL    HW2  768   2.675   1.231   1.902  3.4449  0.7962 -0.5439
  257SOL     OW  769   0.842   0.231   1.864  0.4236  0.7089  0.0841
  257SOL    HW1  770   0.910   0.282   1.803 -0.0992 -0.0937 -1.2639
  257SOL    HW2  771   0.859   0.130   1.876 -1.7332  0.3962 -1.0147
  258SOL     OW  772   2.942   1.281   0.401 -0.3155  0.4753 -0.0978
  258SOL    HW1  773   2.885   1.365   0.380 -0.0223 -3.0386  1.2479
  258SOL    HW2  774   2.983   1.287   0.498 -0.4111 -0.5306 -0.2361
  259SOL     OW  775   0.508   2.872   2.996  0.6155 -0.1316  0.1136
  259SOL    HW1  776   0.461   2.854   3.089  0.1315 -3.6238  0.2464
  259SOL    HW2  777   0.483   2.802   2.922 -3.2513 -0.6056  2.1686
  260SOL     OW  778   2.663   0.737   2.696 -0.2453  0.0871 -0.3735
  260SOL    HW1  779   2.569   0.779   2.675 -0.0881 -1.9583  1.5521
  260SOL    HW2  780   2.662   0.650   2.754  0.1926  2.7225 -0.3138
  261SOL     OW  781   2.717   1.304   1.322  0.0231 -0.5999 -0.6771
  261SOL    HW1  782   2.659   1.236   1.268  1.8294 -2.2092  1.2572
  261SOL    HW2  783   2.808   1.261   1.350 -0.8943  1.1753  1.3200
  262SOL     OW  784   1.498   2.955   2.043  0.3300  0.0505 -0.1410
  262SOL    HW1  785   1.508   3.035   1.978 -3.2674 -2.8178  0.5690
  262SOL    HW2  786   1.417   2.893   2.013  0.5391 -2.8534  0.8502
  263SOL     OW  787   0.880   0.745   2.343  0.7819  0.0571  0.1157
  263SOL    HW1  788   0.846   0.656   2.299  0.6461 -0.2720 -3.3371
  263SOL    HW2  789   0.900   0.822   2.271 -3.1071  2.0216  0.2035
  264SOL     OW  790   2.296   0.757   0.489 -0.4734  0.3077  0.6157
  264SOL    HW1  791   2.215   0.808   0.454 -0.9467 -2.4256 -1.1224
  264SOL    HW2  792   2.382   0.815   0.491 -3.4133 -1.9117  0.2585
  265SOL     OW  793   0.912   2.314   2.699 -0.3982  0.3383 -0.0925
  265SOL    HW1  794   0.978   2.368   2.758  1.6742  0.4870  0.9186
  265SOL    HW2  795   0.868   2.238   2.757  1.0890  1.9425  0.1631
  266SOL     OW  796   1.283   1.739   0.025 -0.1245  0.0833 -0.0587
  266SOL    HW1  797   1.232   1.798   0.093  0.5234  0.5719  2.0824
  266SOL    HW2  798   1.390   1.743   0.032  1.4126  0.3967 -0.1303
  267SOL     OW  799   1.101   0.018   2.312 -0.0503 -0.1624 -0.1520
  267SOL    HW1  800   1.075  -0.064   2.253  2.2553 -0.3922 -2.0062
  267SOL    HW2  801   1.203   0.042   2.312 -0.8211  2.3508 -0.4406
  268SOL     OW  802   0.640   1.152   1.088 -0.8161  0.1981 -0.4597
  268SOL    HW1  803   0.639   1.208   1.176  0.5753 -1.4492  1.0337
  268SOL    HW2  804   0.672   1.196   0.998  1.2248 -3.8547  1.4611
  269SOL     OW  805   2.428   2.561   1.577  0.8605  0.4189 -0.3959
  269SOL    HW1  806   2.497   2.486   1.581 -1.6385  0.3397  1.4649
  269SOL    HW2  807   2.388   2.581   1.670  1.6744  0.6617 -0.6752
  270SOL     OW  808   0.304   2.763   2.052  0.2635 -0.2014 -0.6773
  270SOL    HW1  809   0.279   2.792   1.957  0.9172 -1.4532 -1.2498
  270SOL    HW2  810   0.237   2.696   2.095 -0.4552  2.8305  0.2498
  271SOL     OW  811   0.417   1.370   1.151 -0.0920  0.1326 -0.4000
  271SOL    HW1  812   0.402   1.398   1.051 -1.0927 -0.9117  2.1017
  271SOL    HW2  813   0.332   1.369   1.214 -2.5236 -0.9765 -1.5908
  272SOL     OW  814   1.974   2.816   1.883  0.2456  0.2011  0.0058
  272SOL    HW1  815   1.912   2.804   1.801 -1.5397  0.0726 -0.1984
  272SOL    HW2  816   2.067   2.864   1.863 -0.8993  0.7158  0.2368
  273SOL     OW  817   1.405   1.425   2.878 -0.2961  0.0414  0.4351
  273SOL    HW1  818   1.488   1.437   2.941 -2.1005  2.1789  1.6419
  273SOL    HW2  819   1.312   1.420   2.930  0.5394  2.1594  0.4586
  274SOL     OW  820   1.114   0.484   2.092  0.3140  0.0557 -0.6590
  274SOL    HW1  821   1.150   0.421   2.023 -0.7484  1.9031  1.5127
  274SOL    HW2  822   1.173   0.493   2.176  2.0731  1.0149  0.9006
  275SOL     OW  823   0.654   2.093   1.905 -0.3085  0.0171  0.3639
  275SOL    HW1  824   0.634   2.195   1.929 -1.8706 -0.8639  2.1696
  275SOL    HW2  825   0.575   2.029   1.935 -2.6692  0.2116 -0.2273
  276SOL     OW  826   2.161   0.912   2.761  0.3149  0.6404  0.1947
  276SOL    HW1  827   2.088   0.961   2.714  0.4269 -1.1492  2.6832
  276SOL    HW2  828   2.142   0.809   2.756 -1.8563 -0.2221  0.2797
  277SOL     OW  829   3.028   0.840   0.216 -0.4352 -1.0810  0.2008
  277SOL    HW1  830   3.103   0.849   0.149 -6.6895  1.1648 -0.4476
  277SOL    HW2  831   3.050   0.767   0.281 -3.0445  1.5746 -2.4081
  278SOL     OW  832   0.231   0.288   2.924 -1.0457  0.1543  0.2163
  278SOL    HW1  833   0.335   0.275   2.924  2.1117  3.1686  1.1901
  278SOL    HW2  834   0.200   0.365   2.989 -0.3951 -1.0072 -0.6827
  279SOL     OW  835   0.122   0.040   0.885  0.5133 -0.7249 -0.1520
  279SOL    HW1  836   0.140   0.020   0.986 -0.1255 -0.9678 -1.1399
  279SOL    HW2  837   0.208   0.059   0.830  0.6917 -0.1305 -2.2219
  280SOL     OW  838   1.659   2.940   2.491  0.2280 -0.1818  0.1911
  280SOL    HW1  839   1.711   3.009   2.555  3.5618 -2.2694 -1.6329
  280SOL    HW2  840   1.558   2.959   2.478 -0.9393 -0.1230 -2.1510
  281SOL     OW  841   0.654   1.010   2.336 -0.0865 -0.5378  0.0111
  281SOL    HW1  842   0.657   0.987   2.234  0.5045  0.3217 -0.0861
  281SOL    HW2  843   0.623   0.931   2.394 -1.4186 -0.5226 -2.4533
  282SOL     OW  844   1.650   2.493   0.578 -0.3283  0.0386  0.1738
  282SOL    HW1  845   1.617   2.426   0.504  1.2464 -0.8368  0.7873
  282SOL    HW2  846   1.627   2.593   0.556 -0.5054  0.7009  2.3399
  283SOL     OW  847   1.095   0.894   0.708 -0.4602  0.3748 -0.4970
  283SOL    HW1  848   1.115   0.841   0.793 -0.8196  2.2862 -0.8501
  283SOL    HW2  849   1.009   0.958   0.715  1.5563  0.7155 -1.6192
  284SOL     OW  850   2.214   2.832   2.429 -0.0427  0.3110  0.1071
  284SOL    HW1  851   2.211   2.900   2.507  1.5052 -0.0130 -1.5114
  284SOL    HW2  852   2.222   2.876   2.329  2.8349  0.3070 -4.4676
  285SOL     OW  853   1.377   3.062   2.531 -0.1667  0.1965  0.0814
  285SOL    HW1  854   1.395   3.060   2.428 -0.3778 -1.6519 -1.1599
  285SOL    HW2  855   1.283   3.101   2.546  3.6130 -1.4449 -0.5702
  286SOL     OW  856   0.417   0.468   0.639 -0.1635  0.6373 -0.0790
  286SOL    HW1  857   0.405   0.417   0.730 -1.7874  0.3074  4.2587
  286SOL    HW2  858   0.434   0.403   0.559  0.0308 -0.6240 -2.7192
  287SOL     OW  859   0.071   1.294   2.531 -0.3754 -0.1622 -0.1450
  287SOL    HW1  860   0.068   1.208   2.591 -0.4825 -3.3639  1.4154
  287SOL    HW2  861  -0.007   1.363   2.560 -1.8717  1.0265  0.6361
  288SOL     OW  862   1.581   2.569   1.486 -0.5281 -0.2714  0.4057
  288SOL    HW1  863   1.654   2.600   1.559  0.7575  0.5111  3.1168
  288SOL    HW2  864   1.609   2.588   1.395  0.5729  0.6603  0.8558
  289SOL     OW  865   0.627   2.741   0.833 -0.0624  0.1059 -0.7816
  289SOL    HW1  866   0.653   2.821   0.769 -1.7096  0.4129  1.7297
  289SOL    HW2  867   0.642   2.758   0.936  3.1852  0.0545  0.7498
  290SOL     OW  868   2.962   1.270   1.673 -0.4648 -0.6397  0.6295
  290SOL    HW1  869   2.886   1.230   1.727 -1.2006  1.5542 -0.6781
  290SOL    HW2  870   3.055   1.223   1.681 -2.2175 -1.3947 -0.3947
  291SOL     OW  871   1.993   0.029   0.094 -0.1229 -0.1980  0.0525
  291SOL    HW1  872   2.025   0.002   0.188  2.3512  0.1440 -0.0035
  291SOL    HW2  873   2.025   0.126   0.076  0.8736 -0.6721  0.6774
  292SOL     OW  874   2.970   1.183   3.064  0.8733 -0.1651 -0.0684
  292SOL    HW1  875   2.896   1.238   3.019 -0.4210 -2.7549 -2.1783
  292SOL    HW2  876   3.047   1.164   2.997 -0.1260 -2.1588  0.5595
  293SOL     OW  877   0.553   2.076   0.155 -0.2897 -0.5305 -0.1364
  293SOL    HW1  878   0.518   2.126   0.240 -0.9433 -1.4776  1.4687
  293SOL    HW2  879   0.652   2.045   0.162  1.2433  0.7580  2.5121
  294SOL     OW  880   1.624   2.115   1.857  0.1365 -0.1710  0.1726
  294SOL    HW1  881   1.649   2.179   1.937  3.1285  2.0069  1.0193
  294SOL    HW2  882   1.657   2.149   1.767  0.6605 -0.2154  1.7018
  295SOL     OW  883   0.968   1.190   0.394 -0.1443  0.0780 -0.1071
  295SOL    HW1  884   1.052   1.158   0.450 -1.9916  4.8518 -0.1524
  295SOL    HW2  885   0.881   1.138   0.407  1.1068  2.2874  0.6229
  296SOL     OW  886   1.290   2.103   2.533 -0.1688 -0.1293  0.0689
  296SOL    HW1  887   1.244   2.175   2.480  1.0613 -2.0123  5.0940
  296SOL    HW2  888   1.310   2.013   2.490  0.9731 -0.5989  0.7043
  297SOL     OW  889   1.520   0.709   1.371  0.4653 -0.0887  0.0359
  297SOL    HW1  890   1.568   0.633   1.423  0.2662  0.2227  3.0659
  297SOL    HW2  891   1.510   0.793   1.429  0.7237  1.0154 -3.5793
  298SOL     OW  892   0.547   1.324   2.828  0.5751 -0.5346 -0.4981
  298SOL    HW1  893   0.566   1.241   2.887  0.2338 -1.8109 -0.3354
  298SOL    HW2  894   0.611   1.325   2.746 -1.9706 -1.2246 -0.3852
  299SOL     OW  895   0.357   0.382   1.501  0.1006  0.0671 -0.3983
  299SOL    HW1  896   0.344   0.449   1.423 -0.1999 -1.8754 -2.0365
  299SOL    HW2  897   0.447   0.331   1.502 -0.5912  0.0459  0.2291
  300SOL     OW  898   1.278   1.807   2.839 -0.6908 -0.2478 -0.1316
  300SOL    HW1  899   1.282   1.734   2.766 -0.4758  1.8819 -0.0572
  300SOL    HW2  900   1.240   1.765   2.929 -0.6445 -1.6248  0.2526
  301SOL     OW  901   0.431   0.284   0.424  0.0117  0.3372 -0.4155
  301SOL    HW1  902   0.329   0.275   0.394  1.7020 -0.0455 -1.1733
  301SOL    HW2  903   0.480   0.199   0.400 -1.5914  1.2312 -0.3055
  302SOL     OW  904   1.183   2.302   2.362 -0.2222 -0.5196 -0.5861
  302SOL    HW1  905   1.121   2.365   2.421 -1.8580  0.4222  3.9273
  302SOL    HW2  906   1.126   2.235   2.304  1.9808  0.4885  1.2006
  303SOL     OW  907   0.938   2.407   0.755  0.5070 -0.1313  0.0433
  303SOL    HW1  908   0.989   2.489   0.715  0.7410 -1.2162 -0.7608
  303SOL    HW2  909   0.917   2.418   0.857 -0.7353  2.5573 -0.6560
  304SOL     OW  910   0.074   1.999   0.682 -0.0909  0.4406 -0.0499
  304SOL    HW1  911   0.124   1.967   0.601  1.6724  1.7531  6.0602
  304SOL    HW2  912  -0.007   2.059   0.652  0.1084  1.1936 -0.7324
  305SOL     OW  913   1.616   0.885   0.684  0.3108 -0.2729  0.3900
  305SOL    HW1  914   1.532   0.888   0.619 -0.1526  1.4388 -0.1638
  305SOL    HW2  915   1.677   0.803   0.655  1.0132  0.4362 -2.5247
  306SOL     OW  916   0.431   1.916   1.945  0.1590 -0.3382 -0.4593
  306SOL    HW1  917   0.459   1.832   1.885  0.7471 -0.1702  1.5428
  306SOL    HW2  918   0.405   1.893   2.046  0.5263 -1.4266  0.3174
  307SOL     OW  919   3.095   0.866   2.536  0.0264 -0.4790 -0.1606
  307SOL    HW1  920   3.124   0.945   2.594  0.3024  1.4827 -2.6663
  307SOL    HW2  921   2.996   0.841   2.537 -1.5036 -0.7083 -1.9481
  308SOL     OW  922   1.572   2.679   2.812  0.2883 -0.1812  0.2552
  308SOL    HW1  923   1.602   2.623   2.734  1.4913  2.4574  2.2196
  308SOL    HW2  924   1.504   2.624   2.871  0.7023 -4.1756  0.8063
  309SOL     OW  925   1.243   0.012   1.807 -0.4181  0.0738 -0.3775
  309SOL    HW1  926   1.340   0.007   1.838 -2.2977  0.5892 -4.6761
  309SOL    HW2  927   1.251   0.065   1.714  0.5260 -0.6782  0.9105
  310SOL     OW  928   1.421   2.667   0.693 -1.1477  0.2629  0.0421
  310SOL    HW1  929   1.398   2.746   0.750 -1.6358  0.9285 -1.1700
  310SOL    HW2  930   1.501   2.692   0.635  0.6407 -1.4708  2.1465
  311SOL     OW  931   1.217   0.983   1.460 -0.2119 -0.2770 -0.3320
  311SOL    HW1  932   1.291   0.971   1.395 -0.8742  2.4683  2.1710
  311SOL    HW2  933   1.231   1.057   1.534  0.7977 -1.0549  0.6974
  312SOL     OW  934   1.631   0.644   1.013 -0.4652  0.2886  0.1330
  312SOL    HW1  935   1.607   0.741   1.036  0.0944 -1.4296  0.0244
  312SOL    HW2  936   1.557   0.596   0.957  0.9524  1.1410  1.5374
  313SOL     OW  937   1.585   1.446   0.485  0.1064 -0.0718  0.2755
  313SOL    HW1  938   1.500   1.396   0.451  1.3789  0.9082  1.1600
  313SOL    HW2  939   1.665   1.390   0.459 -0.6309  0.9782 -1.9695
  314SOL     OW  940   2.918   0.081   3.049 -0.0352  0.7473 -0.7842
  314SOL    HW1  941   2.933   0.108   3.146  1.7262 -0.5036 -2.1116
  314SOL    HW2  942   2.836   0.018   3.042  0.5964 -1.3038 -0.6545
  315SOL     OW  943   1.277   0.238   2.767 -0.1906  0.0967  0.4707
  315SOL    HW1  944   1.241   0.162   2.703 -3.3182 -1.8657  2.3812
  315SOL    HW2  945   1.293   0.201   2.864 -1.4092  1.2926  0.7060
  316SOL     OW  946   1.713   2.085   0.911 -0.3713  0.1742 -0.0749
  316SOL    HW1  947   1.695   2.080   1.012 -1.0723 -3.2409  1.3626
  316SOL    HW2  948   1.699   2.179   0.871  2.1257 -4.2182  1.7844
  317SOL     OW  949   1.161   0.709   2.817 -0.0437  0.4474  0.1077
  317SOL    HW1  950   1.094   0.749   2.889  0.3009 -1.7246  0.9560
  317SOL    HW2  951   1.126   0.614   2.789  1.0564 -1.5254 -0.9243
  318SOL     OW  952   1.406   3.093   2.265 -0.2160 -0.5189  0.5124
  318SOL    HW1  953   1.384   3.190   2.230 -0.5093 -3.0210  0.2360
  318SOL    HW2  954   1.454   3.034   2.192  0.4127  0.4780 -2.5391
  319SOL     OW  955   0.645   2.388   2.937 -0.3207 -0.5627  0.1472
  319SOL    HW1  956   0.558   2.350   2.987  0.0684 -1.6500 -1.2620
  319SOL    HW2  957   0.721   2.318   2.952 -0.7823  0.0485  3.3357
  320SOL     OW  958   1.618   2.271   0.414  0.1891 -0.2133 -0.9052
  320SOL    HW1  959   1.714   2.251   0.452  2.7975 -1.1647 -1.5904
  320SOL    HW2  960   1.546   2.214   0.459  0.2846  1.2646 -0.8180
  321SOL     OW  961   1.607   2.762   0.547  0.1560 -0.0546 -0.0494
  321SOL    HW1  962   1.530   2.798   0.488 -0.2110  0.1237  2.2399
  321SOL    HW2  963   1.691   2.817   0.553 -3.4367  1.5359  2.6185
  322SOL     OW  964   2.679   1.086   2.250 -0.2879 -0.6221 -0.4719
  322SOL    HW1  965   2.754   1.128   2.306 -0.4125  0.2405 -1.8820
  322SOL    HW2  966   2.630   1.024   2.310  3.7551  0.5140  0.4160
  323SOL     OW  967   1.007   2.718   0.868  0.1998 -0.3851 -0.6732
  323SOL    HW1  968   1.019   2.697   0.768 -0.0607 -1.7292  3.0213
  323SOL    HW2  969   1.000   2.820   0.884  2.1879  0.0825  1.5234
  324SOL     OW  970   0.092   2.496   2.426  0.7243  0.3192 -0.0606
  324SOL    HW1  971   0.086   2.401   2.465  0.0581 -1.0032  1.1133
  324SOL    HW2  972   0.057   2.561   2.497 -0.7768 -1.3681 -0.3433
  325SOL     OW  973   1.187   3.065   0.478 -0.5868 -0.1117  0.1191
  325SOL    HW1  974   1.207   3.109   0.380  0.7229 -0.3072 -0.0579
  325SOL    HW2  975   1.233   3.110   0.563  0.3596  2.3856  1.8583
  326SOL     OW  976   2.305   0.790   0.062 -0.0950 -0.2365 -0.2933
  326SOL    HW1  977   2.208   0.808   0.026 -0.8437 -2.6365 -3.6359
  326SOL    HW2  978   2.323   0.691   0.085  2.4986 -0.4973 -0.6718
  327SOL     OW  979   2.706   0.431   0.532  0.5054 -0.1997 -0.0657
  327SOL    HW1  980   2.716   0.377   0.444 -0.3409 -1.6885  0.5696
  327SOL    HW2  981   2.624   0.399   0.590  1.4687  0.3006  0.0756
  328SOL     OW  982   2.528   0.624   0.355 -0.3099  0.1398 -0.3872
  328SOL    HW1  983   2.433   0.633   0.395 -0.8647  2.7255  2.5223
  328SOL    HW2  984   2.610   0.631   0.417  0.0608  0.1157  2.5733
  329SOL     OW  985   2.977   2.938   2.127 -0.3634  0.1807  0.1580
  329SOL    HW1  986   3.044   2.896   2.195 -1.2286 -4.9057  1.7974
  329SOL    HW2  987   3.004   3.039   2.114 -0.7110  1.6364  2.0866
  330SOL     OW  988   0.508   0.227   1.839  0.6537 -0.1106 -0.5143
  330SOL    HW1  989   0.535   0.328   1.842 -0.3287 -0.7648 -2.1526
  330SOL    HW2  990   0.578   0.169   1.890  0.0314  0.3452  1.1507
  331SOL     OW  991   2.892   1.918   1.092  0.6894 -0.1800  0.4663
  331SOL    HW1  992   2.938   2.004   1.053  1.9851  1.3154 -2.6050
  331SOL    HW2  993   2.822   1.944   1.171 -1.6985  0.6174 -2.8643
  332SOL     OW  994   0.439   1.036   0.035  0.2020 -0.1192  0.6142
  332SOL    HW1  995   0.359   1.016  -0.036 -3.2706  1.8850  0.4023
  332SOL    HW2  996   0.412   1.110   0.103  0.2674  1.7394 -1.4301
  333SOL     OW  997   2.854   1.025   0.298 -0.2014  0.3457 -0.6396
  333SOL    HW1  998   2.887   1.120   0.324  1.1055 -1.2572 -0.3987
  333SOL    HW2  999   2.925   0.975   0.247 -1.8405  1.5299 -0.1004
  334SOL     OW 1000   1.643   1.161   1.907  0.1894  0.2711  0.1317
  334SOL    HW1 1001   1.734   1.168   1.870 -0.2665  2.2780  1.7331
  334SOL    HW2 1002   1.631   1.225   1.986  1.6563  2.0312  1.2562
  335SOL     OW 1003   1.975   2.794   2.615  0.6011 -0.4229 -0.3389
  335SOL    HW1 1004   2.037   2.791   2.695 -1.8884 -0.5832 -0.3381
  335SOL    HW2 1005   1.910   2.871   2.628  4.5645  0.3526 -1.2046
  336SOL     OW 1006   0.215   0.066   2.695  0.3088 -0.1230  0.1348
  336SOL    HW1 1007   0.303   0.015   2.687 -0.4499  3.8253 -1.3073
  336SOL    HW2 1008   0.225   0.150   2.757  2.7552 -0.3953  1.1835
  337SOL     OW 1009   0.995   2.807   2.831 -0.3185 -0.2000  0.6445
  337SOL    HW1 1010   0.947   2.798   2.921 -2.2790 -1.1855  2.2355
  337SOL    HW2 1011   1.082   2.748   2.826  0.6232 -3.4580  1.7892
  338SOL     OW 1012   3.103   1.003   0.603 -0.1642 -0.0036  0.0696
  338SOL    HW1 1013   3.009   0.963   0.619 -0.2801  1.6392 -1.1561
  338SOL    HW2 1014   3.089   1.102   0.595 -1.2714 -2.7928 -0.6755
  339SOL     OW 1015   1.714   1.390   2.065 -0.4304 -0.1117  0.1635
  339SOL    HW1 1016   1.612   1.405   2.062  0.6621 -0.2259 -0.9016
  339SOL    HW2 1017   1.767   1.479   2.043 -1.8073 -1.3122 -0.1880
  340SOL     OW 1018   2.283   0.777   1.273  0.2369 -0.6239 -0.5396
  340SOL    HW1 1019   2.199   0.829   1.240 -1.3707 -0.2016 -1.0912
  340SOL    HW2 1020   2.319   0.714   1.204 -4.0478 -0.6859 -0.8245
  341SOL     OW 1021   1.868   2.200   0.465 -0.2829  0.6335 -0.1710
  341SOL    HW1 1022   1.879   2.194   0.356  0.8087  2.7869 -4.0517
  341SOL    HW2 1023   1.957   2.175   0.512  0.3775  3.2134 -0.7676
  342SOL     OW 1024   2.226   2.193   2.816  0.0572 -0.4931  0.2669
  342SOL    HW1 1025   2.291   2.117   2.840 -3.4360  1.0840 -0.6492
  342SOL    HW2 1026   2.128   2.161   2.835 -2.4194 -2.8172  0.6647
  343SOL     OW 1027   0.314   0.902   2.862  0.4092  0.0889  0.0963
  343SOL    HW1 1028   0.315   0.962   2.776 -0.6943 -0.2979 -1.1941
  343SOL    HW2 1029   0.399   0.853   2.878 -2.5540  0.5339  0.5324
  344SOL     OW 1030   1.861   1.470   0.321 -0.3530  0.3583  0.6769
  344SOL    HW1 1031   1.856   1.393   0.250 -2.1785 -1.1492  0.0995
  344SOL    HW2 1032   1.815   1.561   0.292 -3.2730 -1.1038  0.6655
  345SOL     OW 1033   1.432   2.215   2.855 -0.8114  0.1831 -0.0158
  345SOL    HW1 1034   1.338   2.174   2.832 -0.6578 -0.3991  1.1987
  345SOL    HW2 1035   1.512   2.167   2.806  0.5464 -0.3325  1.5074
  346SOL     OW 1036   2.430   0.892   1.472  0.4366  0.3532 -0.7788
  346SOL    HW1 1037   2.379   0.975   1.502  2.3680 -0.0863 -1.6285
  346SOL    HW2 1038   2.399   0.860   1.378  0.3290 -1.3310 -1.3506
  347SOL     OW 1039   0.678   2.778   1.516  0.0904 -0.0518  0.0003
  347SOL    HW1 1040   0.672   2.741   1.615 -0.1134 -0.2940  1.7066
  347SOL    HW2 1041   0.625   2.868   1.509 -1.2995  1.4629  2.0253
  348SOL     OW 1042   0.084   0.686   2.801 -0.3171  0.0524 -0.3997
  348SOL    HW1 1043  -0.008   0.721   2.769  1.1869  0.8311  2.0866
  348SOL    HW2 1044   0.154   0.760   2.793 -1.8467 -0.6059  0.0507
  349SOL     OW 1045   1.921   0.462   2.757 -0.1612 -0.1805  0.8079
  349SOL    HW1 1046   1.903   0.545   2.693 -0.9164  0.5418  0.0038
  349SOL    HW2 1047   1.890   0.481   2.853  2.2250  0.0437  1.2661
  350SOL     OW 1048   1.661   0.361   0.362 -0.2138 -0.1441  0.4452
  350SOL    HW1 1049   1.729   0.384   0.437  0.6380 -2.2854 -0.6402
  350SOL    HW2 1050   1.623   0.436   0.299  1.3157  5.2647  0.7979
  351SOL     OW 1051   0.925   0.901   2.119  0.3806  0.2109  0.7200
  351SOL    HW1 1052   0.923   0.999   2.080  0.4908 -1.9613  0.6393
  351SOL    HW2 1053   0.863   0.831   2.065 -1.1752  0.3224 -0.5595
  352SOL     OW 1054   1.968   1.381   0.569  0.3662  0.3718  0.3876
  352SOL    HW1 1055   1.944   1.400   0.468 -0.0757  1.3407 -4.1241
  352SOL    HW2 1056   2.063   1.424   0.597  1.2818  1.0387 -1.1553
  353SOL     OW 1057   2.141   2.818   1.190  0.1735  0.2167 -0.3492
  353SOL    HW1 1058   2.236   2.777   1.198 -3.5912  0.1973  0.9893
  353SOL    HW2 1059   2.071   2.753   1.149 -1.5701  0.2901  1.4770
  354SOL     OW 1060   0.298   1.356   2.925 -0.6085  0.0698 -0.0442
  354SOL    HW1 1061   0.227   1.410   2.878  1.2844 -1.1645  0.7684
  354SOL    HW2 1062   0.392   1.367   2.883 -1.1793  0.7808  2.5885
  355SOL     OW 1063   0.447   1.475   0.536 -0.2050 -0.3022  0.4460
  355SOL    HW1 1064   0.474   1.572   0.560 -0.0479 -0.0772  2.7534
  355SOL    HW2 1065   0.533   1.422   0.510  0.8870 -0.8091 -0.8468
  356SOL     OW 1066   0.820   0.404   2.073  0.6218  0.4022  0.0585
  356SOL    HW1 1067   0.909   0.459   2.076  0.3141 -0.6103 -3.0930
  356SOL    HW2 1068   0.823   0.321   2.003 -1.0865 -0.3022 -0.7932
  357SOL     OW 1069   1.061   1.295   0.170 -0.6949 -0.7132 -0.1880
  357SOL    HW1 1070   0.991   1.279   0.097  0.5802  0.9321 -0.5262
  357SOL    HW2 1071   1.034   1.251   0.261  2.4656 -2.4797  1.2059
  358SOL     OW 1072   1.615   1.653   0.302  0.2100  0.3377  0.7433
  358SOL    HW1 1073   1.608   1.571   0.363 -1.7553  0.5793  1.8832
  358SOL    HW2 1074   1.571   1.739   0.338 -0.8272  1.1536  0.9452
  359SOL     OW 1075   1.569   2.708   0.129  0.1166 -0.1756 -0.0032
  359SOL    HW1 1076   1.576   2.656   0.038 -0.7609 -0.2703  1.5882
  359SOL    HW2 1077   1.473   2.695   0.172 -2.5196 -0.0152  2.0438
  360SOL     OW 1078   0.876   0.578   0.465 -0.2053 -0.3365  0.0002
  360SOL    HW1 1079   0.791   0.582   0.536  2.2581  1.3849  1.9277
  360SOL    HW2 1080   0.892   0.480   0.431 -0.8160 -2.4454 -1.8451
  361SOL     OW 1081   1.288   1.366   0.649  0.0368 -0.2670  0.2678
  361SOL    HW1 1082   1.326   1.401   0.738 -2.2680  0.4967  0.1450
  361SOL    HW2 1083   1.185   1.386   0.639 -1.0076  1.8706  0.9029
  362SOL     OW 1084   1.384   1.728   0.784  0.1189 -0.0503  0.1129
  362SOL    HW1 1085   1.420   1.694   0.873 -1.9685 -2.2064 -1.9207
  362SOL    HW2 1086   1.456   1.770   0.727 -1.0513 -0.3153  1.1088
  363SOL     OW 1087   1.121   1.309   2.038  0.0609  0.4063  0.1738
  363SOL    HW1 1088   1.110   1.402   2.081  0.5327 -0.0513  0.8893
  363SOL    HW2 1089   1.163   1.310   1.945 -3.5353  1.1536 -1.7721
  364SOL     OW 1090   0.585   2.333   2.013  0.3503 -0.7979 -0.0758
  364SOL    HW1 1091   0.489   2.365   1.980 -0.4338 -0.1475 -0.8128
  364SOL    HW2 1092   0.652   2.413   2.002 -0.0830  0.2806  1.1434
  365SOL     OW 1093   1.147   1.792   1.445  0.1746  1.0407  0.2410
  365SOL    HW1 1094   1.047   1.810   1.460  1.9185 -0.3572 -0.8746
  365SOL    HW2 1095   1.176   1.701   1.480 -0.4867  1.0803 -2.0897
  366SOL     OW 1096   2.827   2.067   0.472 -0.2038  0.3820 -0.2771
  366SOL    HW1 1097   2.744   2.005   0.485  0.4776 -3.3682 -1.6214
  366SOL    HW2 1098   2.915   2.008   0.455  0.2157  1.6731  0.5805
  367SOL     OW 1099   0.818   1.178   0.075 -0.2576  0.7329  0.0154
  367SOL    HW1 1100   0.861   1.118   0.143 -5.3617 -0.4942  0.1308
  367SOL    HW2 1101   0.853   1.163  -0.018 -0.4380  2.5055  1.0891
  368SOL     OW 1102   1.512   0.477   0.622  0.2552  0.2702  0.4724
  368SOL    HW1 1103   1.435   0.521   0.566 -0.8895  0.4755 -1.4402
  368SOL    HW2 1104   1.604   0.499   0.587 -0.6285  0.6002 -1.7308
  369SOL     OW 1105   0.298   1.672   0.098 -0.3070  0.2992 -0.1742
  369SOL    HW1 1106   0.318   1.743   0.169  2.2255  0.6683  0.6514
  369SOL    HW2 1107   0.202   1.639   0.085  2.9024 -0.1111 -0.1187
  370SOL     OW 1108   0.461   2.125   0.982  0.0695  0.5663 -0.0622
  370SOL    HW1 1109   0.470   2.228   0.975  1.0692 -0.0426 -0.1352
  370SOL    HW2 1110   0.365   2.097   0.949  0.2907 -0.3413  0.4162
  371SOL     OW 1111   2.950   2.200   2.778 -0.6929  0.2712 -0.7219
  371SOL    HW1 1112   2.969   2.198   2.880  0.2568  3.3449  2.4002
  371SOL    HW2 1113   3.038   2.221   2.722 -1.8333  1.6112  0.8295
  372SOL     OW 1114   0.870   1.892   1.020  0.1316 -0.1826  0.1611
  372SOL    HW1 1115   0.854   1.993   1.029  0.0389 -0.8524 -1.3885
  372SOL    HW2 1116   0.947   1.870   0.954  0.1313 -3.9521 -0.9284
  373SOL     OW 1117   1.940   1.944   0.939  0.5653  0.2430 -0.0284
  373SOL    HW1 1118   2.003   2.000   1.004 -0.2462  0.2658  1.5391
  373SOL    HW2 1119   1.856   1.997   0.908 -1.0462 -3.9532  0.6316
  374SOL     OW 1120   1.838   0.447   0.576  0.5365 -0.8837 -0.1100
  374SOL    HW1 1121   1.812   0.397   0.657  1.1482  2.5799 -1.0846
  374SOL    HW2 1122   1.927   0.402   0.540 -0.5741  0.3562 -0.7266
  375SOL     OW 1123   2.476   2.295   1.115  0.0251 -0.4054 -0.2370
  375SOL    HW1 1124   2.509   2.236   1.033 -1.1646 -1.0368 -1.4739
  375SOL    HW2 1125   2.482   2.239   1.203  1.6077 -1.7465 -3.3994
  376SOL     OW 1126   3.068   0.649   1.464 -0.0063 -0.1472 -0.1706
  376SOL    HW1 1127   3.130   0.707   1.522  1.3782  1.6029 -0.9654
  376SOL    HW2 1128   2.968   0.667   1.473  2.3441 -1.0840  2.2230
  377SOL     OW 1129   2.190   2.817   0.326  0.3826  0.6685  0.2202
  377SOL    HW1 1130   2.121   2.887   0.308  2.3013 -0.8393 -1.5787
  377SOL    HW2 1131   2.287   2.851   0.340  1.2449 -0.8251  2.0089
  378SOL     OW 1132   1.871   1.841   2.663 -0.0308  0.1434 -0.4690
  378SOL    HW1 1133   1.943   1.774   2.700 -1.7698  2.3108  0.1409
  378SOL    HW2 1134   1.796   1.798   2.609 -0.4343  2.3712 -0.9757
  379SOL     OW 1135   0.877   0.123   2.702  0.0883  0.2063  0.1933
  379SOL    HW1 1136   0.863   0.024   2.671  0.1571  1.3212 -1.7548
  379SOL    HW2 1137   0.797   0.185   2.673 -0.2248  0.3391 -2.0912
  380SOL     OW 1138   1.575   1.155   0.542 -0.2250  0.8086  0.5644
  380SOL    HW1 1139   1.504   1.077   0.532  0.8426 -0.5913 -2.4231
  380SOL    HW2 1140   1.565   1.214   0.624 -0.4774  0.3222 -1.4214
  381SOL     OW 1141   1.290   1.250   1.504 -0.0532 -0.4171 -0.1607
  381SOL    HW1 1142   1.292   1.287   1.410 -1.5893 -4.3850  0.4393
  381SOL    HW2 1143   1.372   1.274   1.565 -0.2717  1.9530  0.0227
  382SOL     OW 1144   1.731   0.791   0.257  0.1551  0.0473  0.0444
  382SOL    HW1 1145   1.797   0.776   0.174  2.3671 -1.1435 -0.2572
  382SOL    HW2 1146   1.776   0.766   0.344  0.9235  2.0476 -2.3057
  383SOL     OW 1147   2.672   1.008   1.542  0.7546  0.0294 -0.0987
  383SOL    HW1 1148   2.590   0.956   1.500 -1.5573  1.1383 -0.9473
  383SOL    HW2 1149   2.757   0.997   1.489 -2.6930 -0.6614  5.7466
  384SOL     OW 1150   1.012   2.302   0.134  0.0455 -0.0728  0.2920
  384SOL    HW1 1151   0.970   2.390   0.153  0.8564 -0.5150  0.4395
  384SOL    HW2 1152   1.007   2.239   0.221 -0.0973 -2.5360  1.0096
  385SOL     OW 1153   2.978   2.059   1.691  0.4812  0.3624  0.4380
  385SOL    HW1 1154   3.066   2.117   1.687  0.6328  0.2031 -1.4447
  385SOL    HW2 1155   2.986   1.956   1.703  0.7893 -4.1787 -1.1110
  386SOL     OW 1156   0.434   1.043   0.458  0.4708  0.2867  0.3437
  386SOL    HW1 1157   0.439   0.940   0.477 -0.3454 -0.6925  0.0788
  386SOL    HW2 1158   0.359   1.064   0.384 -2.3027  0.0617 -2.7602
  387SOL     OW 1159   1.004   0.360   1.685 -0.3278 -0.1394 -0.6087
  387SOL    HW1 1160   1.069   0.444   1.667  0.3100  1.2668  1.5445
  387SOL    HW2 1161   0.989   0.305   1.603 -0.8516  0.6508  1.0537
  388SOL     OW 1162   1.265   2.559   1.747 -0.2108  0.1397 -0.2364
  388SOL    HW1 1163   1.258   2.536   1.645 -0.8857 -1.4562 -0.9237
  388SOL    HW2 1164   1.344   2.507   1.785 -0.7189  0.9412 -0.8766
  389SOL     OW 1165   0.238   0.010   1.138  0.1144  0.5032 -0.2475
  389SOL    HW1 1166   0.209  -0.016   1.238  1.8894 -1.9768  2.7737
  389SOL    HW2 1167   0.312  -0.057   1.103 -0.5317  0.0957 -2.1327
  390SOL     OW 1168   1.078   0.844   1.163  0.1301 -0.1573  0.3553
  390SOL    HW1 1169   1.181   0.825   1.163  2.8229 -0.0005  1.1914
  390SOL    HW2 1170   1.042   0.883   1.248 -0.1766 -3.2664 -2.1494
  391SOL     OW 1171   2.082   1.151   1.068  0.5075  0.0982 -0.4714
  391SOL    HW1 1172   2.044   1.064   1.110  0.0148  0.4847 -1.5875
  391SOL    HW2 1173   2.150   1.134   0.986 -1.6804  0.8670 -2.9717
  392SOL     OW 1174   0.910   2.704  -0.004  0.0058 -0.1089  0.3224
  392SOL    HW1 1175   0.822   2.713   0.049 -0.4327 -1.1741  0.1595
  392SOL    HW2 1176   0.981   2.764   0.036 -0.6875  1.0678 -1.8769
  393SOL     OW 1177   0.360   0.576   1.984  0.1352 -0.2794 -0.2690
  393SOL    HW1 1178   0.282   0.508   1.973 -0.8865  1.2653 -1.3678
  393SOL    HW2 1179   0.451   0.538   1.950 -0.4385 -0.1694  0.0787
  394SOL     OW 1180   2.824   1.792   2.750 -0.0223 -0.6137  0.2549
  394SOL    HW1 1181   2.908   1.808   2.686 -0.4071  1.0339 -1.6208
  394SOL    HW2 1182   2.772   1.887   2.763  1.6221  1.0711  1.3735
  395SOL     OW 1183   1.559   1.954   0.705  0.6012 -0.1859 -0.0976
  395SOL    HW1 1184   1.624   1.889   0.659 -0.1393  2.2028  1.3408
  395SOL    HW2 1185   1.597   1.995   0.789 -2.2078  1.9267 -4.2906
  396SOL     OW 1186   2.736   1.967   1.310  0.6977  0.1693 -0.5596
  396SOL    HW1 1187   2.758   2.020   1.396 -0.9000  4.3891 -0.8475
  396SOL    HW2 1188   2.643   1.916   1.321  0.2225  0.0073 -1.0258
  397SOL     OW 1189   0.973   2.160   0.652  0.1409  0.4999  0.5080
  397SOL    HW1 1190   0.880   2.136   0.626  1.0432 -2.2823  1.8894
  397SOL    HW2 1191   0.976   2.250   0.704  0.8164 -1.8342 -0.0808
  398SOL     OW 1192   2.213   3.079   1.088 -0.4442 -0.2927 -0.5712
  398SOL    HW1 1193   2.179   2.982   1.107 -2.2346  2.5574 -1.3202
  398SOL    HW2 1194   2.145   3.155   1.101  1.2761  3.5973  1.6300
  399SOL     OW 1195   2.884   2.585   2.780 -0.4705 -0.1842  0.5053
  399SOL    HW1 1196   2.837   2.567   2.686  0.4169  2.8060  0.7522
  399SOL    HW2 1197   2.837   2.534   2.862  1.5475 -1.3488  1.2867
  400SOL     OW 1198   0.796   1.574   1.294 -0.0783  0.4045 -0.4935
  400SOL    HW1 1199   0.761   1.628   1.377  0.9244  0.1729  2.2169
  400SOL    HW2 1200   0.784   1.620   1.200  1.3082 -0.0095 -0.0453
  401SOL     OW 1201   1.849   0.147   1.290 -0.2355 -0.0863  0.6072
  401SOL    HW1 1202   1.905   0.189   1.364  1.0380 -0.0087 -2.5599
  401SOL    HW2 1203   1.749   0.132   1.313  0.1544 -3.2387  1.5776
  402SOL     OW 1204   1.342   0.140   3.016 -0.4485  0.0864  0.0554
  402SOL    HW1 1205   1.444   0.142   2.992  2.1852  1.5722  0.5916
  402SOL    HW2 1206   1.289   0.220   3.047 -0.1713  2.0462 -2.5290
  403SOL     OW 1207   2.246   1.864   0.957 -0.3570  0.1903  0.3209
  403SOL    HW1 1208   2.349   1.871   0.954  0.8826  0.0435  2.0380
  403SOL    HW2 1209   2.201   1.942   1.012 -2.0072 -1.5490 -1.7621
  404SOL     OW 1210   0.228   2.473   2.774 -0.2440  0.1170  0.0388
  404SOL    HW1 1211   0.328   2.444   2.772 -0.3340  0.3328 -0.2613
  404SOL    HW2 1212   0.211   2.574   2.788  0.5410 -1.0199 -0.6043
  405SOL     OW 1213   0.193   2.520   0.564 -0.0397  0.3749 -0.2875
  405SOL    HW1 1214   0.196   2.429   0.609 -1.5065  1.0315 -0.7265
  405SOL    HW2 1215   0.267   2.583   0.599  2.0721 -0.7453 -0.2533
  406SOL     OW 1216   0.031   1.630   3.012 -0.1565 -0.4253 -0.4531
  406SOL    HW1 1217   0.092   1.590   2.937 -2.7590 -2.2248  1.8822
  406SOL    HW2 1218   0.033   1.567   3.099 -0.2478 -2.1212  1.6380
  407SOL     OW 1219   1.568   0.950   0.966  0.0974  0.8534  0.3123
  407SOL    HW1 1220   1.575   0.921   0.867  1.4914 -0.6025  0.0745
  407SOL    HW2 1221   1.519   1.039   0.977 -0.4416  0.8616  2.4867
  408SOL     OW 1222   1.460   2.312   0.923 -0.3213 -0.4115  0.4815
  408SOL    HW1 1223   1.539   2.298   0.856 -0.3808  0.0925 -1.0979
  408SOL    HW2 1224   1.446   2.412   0.949  1.0014  1.0273  0.5671
  409SOL     OW 1225   0.612   0.856   0.686  0.0492  0.0891 -0.3153
  409SOL    HW1 1226   0.535   0.824   0.627  1.3529 -0.5949  0.9165
  409SOL    HW2 1227   0.693   0.806   0.661 -2.0142 -0.0194  1.7668
  410SOL     OW 1228   1.367   1.959   1.490 -0.0275  0.3724  0.2264
  410SOL    HW1 1229   1.343   2.057   1.507  3.8947 -2.9224  0.7629
  410SOL    HW2 1230   1.283   1.899   1.489  1.7407  0.1222 -0.9012
  411SOL     OW 1231   2.386   1.848   0.070  0.7602 -0.2333  0.4142
  411SOL    HW1 1232   2.311   1.847  -0.004 -1.8329 -0.6189 -0.9546
  411SOL    HW2 1233   2.470   1.893   0.038 -0.3228 -0.7994 -1.6710
  412SOL     OW 1234   1.625   2.441   2.269  0.3076 -0.3093  0.1560
  412SOL    HW1 1235   1.611   2.537   2.295 -0.4085 -1.9733 -0.2153
  412SOL    HW2 1236   1.551   2.387   2.313  1.6208  1.7528  1.8770
  413SOL     OW 1237   3.067   0.287   2.878 -0.1456  0.3289 -0.0459
  413SOL    HW1 1238   3.022   0.205   2.924  1.4493 -0.1370 -1.3567
  413SOL    HW2 1239   3.171   0.276   2.878 -3.1731  0.3249  2.0565
  414SOL     OW 1240   1.710   1.351   1.356  0.2242 -0.1980 -0.2324
  414SOL    HW1 1241   1.655   1.427   1.393 -0.0526 -2.7479 -4.2450
  414SOL    HW2 1242   1.714   1.347   1.247 -0.4841 -1.2679 -3.7025
  415SOL     OW 1243   0.222   2.271   0.679  0.5508 -0.2841  0.7535
  415SOL    HW1 1244   0.293   2.202   0.715  0.8961 -1.0413 -0.0021
  415SOL    HW2 1245   0.133   2.222   0.637 -0.8136 -4.7487 -0.9382
  416SOL     OW 1246   0.332   1.053   1.068  0.1709 -0.6112 -0.1580
  416SOL    HW1 1247   0.286   1.058   0.973  0.6003 -2.2150 -1.1422
  416SOL    HW2 1248   0.400   1.125   1.081  0.6411 -0.3029  0.5178
  417SOL     OW 1249   2.197   2.342   1.872 -0.4339 -0.1829  0.2477
  417SOL    HW1 1250   2.244   2.250   1.876  1.1569  1.5904 -0.2809
  417SOL    HW2 1251   2.107   2.337   1.918  1.8557  1.2844 -1.9851
  418SOL     OW 1252   1.136   0.541   1.350 -0.2500 -0.3229  0.1284
  418SOL    HW1 1253   1.044   0.512   1.335  4.9794 -2.2264 -0.7845
  418SOL    HW2 1254   1.202   0.522   1.275  1.7969 -0.4120  1.2558
  419SOL     OW 1255   0.961   0.378   2.987  0.0306 -0.2474 -0.1792
  419SOL    HW1 1256   0.988   0.397   2.887 -1.1931 -2.0803 -0.6914
  419SOL    HW2 1257   0.893   0.301   2.997 -0.4817  0.1914  0.5166
  420SOL     OW 1258   0.171   2.258   0.369 -0.2446  0.2315  0.2001
  420SOL    HW1 1259   0.139   2.192   0.291  0.4621  2.9636 -1.9974
  420SOL    HW2 1260   0.106   2.260   0.452 -0.9821  2.6002  3.7881
  421SOL     OW 1261   0.328   0.076   0.715 -0.0117 -0.1540 -0.2445
  421SOL    HW1 1262   0.325   0.028   0.626 -0.4659  0.9539  1.8084
  421SOL    HW2 1263   0.410   0.136   0.727 -0.4186 -0.7319  1.5539
  422SOL     OW 1264   0.923   2.521   1.030  0.0977 -0.3534  0.1969
  422SOL    HW1 1265   0.954   2.604   0.979  2.6867 -2.8205  0.7214
  422SOL    HW2 1266   0.959   2.511   1.126 -3.3091  0.8577 -2.3882
  423SOL     OW 1267   0.049   0.693   1.209 -0.5152 -0.0210 -0.7668
  423SOL    HW1 1268  -0.014   0.667   1.283  1.9672  0.5387 -3.2484
  423SOL    HW2 1269   0.003   0.741   1.129 -0.2326  2.3784  0.0386
  424SOL     OW 1270   0.987   2.148   2.231 -0.0571 -0.0250  0.4530
  424SOL    HW1 1271   0.951   2.165   2.133 -1.1876  0.4078 -0.4940
  424SOL    HW2 1272   0.913   2.138   2.305  0.6376 -2.0327 -0.3102
  425SOL     OW 1273   2.050   1.417   1.133 -0.6878  1.0557  0.0612
  425SOL    HW1 1274   2.052   1.311   1.117  3.7449 -1.7637 -0.6452
  425SOL    HW2 1275   2.071   1.460   1.045 -0.0322 -0.1191 -0.1048
  426SOL     OW 1276   1.499   1.534   1.411  0.6353 -0.0472 -0.5528
  426SOL    HW1 1277   1.477   1.627   1.361  1.4892  2.3095 -0.0020
  426SOL    HW2 1278   1.478   1.541   1.512  0.0977 -0.3185 -0.8857
  427SOL     OW 1279   1.967   2.326   2.038 -0.7241  0.0105  0.7120
  427SOL    HW1 1280   1.994   2.274   2.118  0.5463  0.0425  0.0325
  427SOL    HW2 1281   1.967   2.427   2.058 -0.6979 -1.6426  0.0192
  428SOL     OW 1282   0.912   3.097   0.041  0.1468 -0.5123  0.0191
  428SOL    HW1 1283   0.944   3.190   0.088  0.9640  0.2020  0.4203
  428SOL    HW2 1284   0.981   3.021   0.059 -0.1807  0.1985 -2.0171
  429SOL     OW 1285   1.250   0.059   0.216  0.6031  0.0316 -0.2924
  429SOL    HW1 1286   1.303   0.144   0.190 -1.7380 -0.0278  0.0028
  429SOL    HW2 1287   1.306  -0.024   0.177  0.2961 -2.3649 -0.5703
  430SOL     OW 1288   2.770   1.483   0.313 -0.3137  0.1196 -0.0266
  430SOL    HW1 1289   2.763   1.537   0.232  1.7164 -1.5844  2.3238
  430SOL    HW2 1290   2.784   1.538   0.402  2.4363 -1.8493  1.8085
  431SOL     OW 1291   2.086   1.625   0.931 -0.6421  0.0093  0.2306
  431SOL    HW1 1292   2.145   1.708   0.960  1.0967  0.6080 -2.9029
  431SOL    HW2 1293   1.995   1.655   0.898 -0.3761  2.7294  0.3007
  432SOL     OW 1294   2.924   2.209   1.258 -0.1266  0.9567 -0.2526
  432SOL    HW1 1295   2.850   2.145   1.280  0.7000  0.5730 -0.1602
  432SOL    HW2 1296   2.955   2.274   1.333 -1.9073  0.3479  2.7769
  433SOL     OW 1297   1.846   0.273   0.827 -0.5004 -0.4551 -0.0404
  433SOL    HW1 1298   1.767   0.248   0.882 -0.9281  1.0788 -2.7662
  433SOL    HW2 1299   1.916   0.324   0.882  1.4602 -0.2099  0.0314
  434SOL     OW 1300   1.483   0.247   0.724  0.2453  0.4299  0.0064
  434SOL    HW1 1301   1.488   0.337   0.673  0.5820 -2.3374  2.8350
  434SOL    HW2 1302   1.518   0.252   0.825  0.8480  0.5581  1.7913
  435SOL     OW 1303   1.427   1.424   2.068  0.1179  0.5338 -0.1007
  435SOL    HW1 1304   1.376   1.402   2.155  0.7032  2.1663  1.8779
  435SOL    HW2 1305   1.380   1.494   2.010 -1.7954  1.8357  0.3689
  436SOL     OW 1306   1.671   2.679   2.438 -0.2077 -0.2455 -0.0292
  436SOL    HW1 1307   1.671   2.774   2.486 -0.5448  1.5559 -3.3899
  436SOL    HW2 1308   1.591   2.619   2.473  0.8722 -0.9153 -3.9823
  437SOL     OW 1309   0.998   2.994   0.876 -0.5738 -0.4357  0.3132
  437SOL    HW1 1310   0.949   3.076   0.834 -0.7689  0.4922 -1.9706
  437SOL    HW2 1311   1.035   3.023   0.969 -0.8011 -2.0170  0.5649
  438SOL     OW 1312   1.000   2.538   1.307 -0.1509 -0.8005  0.7552
  438SOL    HW1 1313   1.063   2.579   1.377 -0.0372 -0.1333 -1.7384
  438SOL    HW2 1314   0.989   2.435   1.318 -1.3776 -1.3428 -1.6964
  439SOL     OW 1315   0.702   1.691   1.059 -0.0887 -0.1142 -0.0583
  439SOL    HW1 1316   0.763   1.775   1.050  1.5631 -0.6177  0.7828
  439SOL    HW2 1317   0.620   1.709   1.121  1.3082  0.9422 -1.1809
  440SOL     OW 1318   0.961   2.332   1.972  0.0224  0.1774 -0.2314
  440SOL    HW1 1319   0.984   2.421   1.924 -0.1757  1.1685 -1.7001
  440SOL    HW2 1320   1.027   2.255   1.948  1.2464  1.2297  3.0186
  441SOL     OW 1321   0.364   2.832   1.323 -0.6709 -0.3763 -0.0348
  441SOL    HW1 1322   0.413   2.742   1.309 -1.5137 -0.7575  3.4056
  441SOL    HW2 1323   0.337   2.873   1.229  4.2583  0.6143 -1.0678
  442SOL     OW 1324   2.230   0.683   2.564  0.1568  0.3201 -0.3742
  442SOL    HW1 1325   2.246   0.590   2.515  0.5070 -1.8385  2.0892
  442SOL    HW2 1326   2.155   0.740   2.523 -1.5155 -1.4433  1.8704
  443SOL     OW 1327   1.311   2.510   2.218 -0.2854  0.6884 -0.4402
  443SOL    HW1 1328   1.280   2.417   2.249  0.9424  1.5525 -2.3388
  443SOL    HW2 1329   1.273   2.588   2.273 -1.7795 -0.6058 -0.0236
  444SOL     OW 1330   0.960   1.192   1.442  0.2930  0.3684  0.1378
  444SOL    HW1 1331   1.038   1.159   1.498 -1.5313  3.6866  1.2501
  444SOL    HW2 1332   0.989   1.283   1.398 -0.8469 -0.8090  2.2493
  445SOL     OW 1333   0.153   2.148   2.049  0.2371  1.1324  0.3169
  445SOL    HW1 1334   0.179   2.049   2.027 -0.8633  1.7189  2.0968
  445SOL    HW2 1335   0.099   2.149   2.137 -0.8603  0.0816  2.8230
  446SOL     OW 1336   0.116   1.990   2.408 -0.3184 -0.5391  0.6962
  446SOL    HW1 1337   0.082   2.090   2.406  0.6059 -1.0008 -2.6966
  446SOL    HW2 1338   0.120   1.946   2.310  1.1204 -1.8592 -0.6857
  447SOL     OW 1339   1.293   1.637   1.933  0.1934  0.3881  0.2108
  447SOL    HW1 1340   1.221   1.700   1.893  0.1108  2.3767  2.5152
  447SOL    HW2 1341   1.381   1.688   1.959  0.5271  1.7584  0.4765
  448SOL     OW 1342   0.156   1.478   2.003 -0.2954  0.0608 -0.0817
  448SOL    HW1 1343   0.147   1.569   1.954  1.0884  3.0017  0.9204
  448SOL    HW2 1344   0.102   1.473   2.089  0.8294 -0.0718 -2.7281
  449SOL     OW 1345   1.881   3.031   0.842  0.1499 -0.4080  0.6086
  449SOL    HW1 1346   1.894   3.044   0.940 -3.4384 -0.8086 -4.5452
  449SOL    HW2 1347   1.915   2.936   0.814 -0.3041  0.1284  0.4288
  450SOL     OW 1348   2.199   1.499   0.682  0.4377 -0.2246  0.0840
  450SOL    HW1 1349   2.150   1.542   0.762 -1.5577 -0.8479 -3.3887
  450SOL    HW2 1350   2.262   1.566   0.636 -0.1612 -2.9773  1.8742
  451SOL     OW 1351   1.385   2.978   1.466 -0.1049 -0.1177 -0.0791
  451SOL    HW1 1352   1.334   3.054   1.518  0.6919 -2.8645 -0.0392
  451SOL    HW2 1353   1.402   2.898   1.529 -0.4455  1.9627  3.2451
  452SOL     OW 1354   2.684   2.297   2.290  0.6553 -0.2777  0.4102
  452SOL    HW1 1355   2.621   2.382   2.298 -1.2512  0.0332 -0.2347
  452SOL    HW2 1356   2.740   2.281   2.377  0.2549 -1.7376  0.6289
  453SOL     OW 1357   2.487   2.685   3.093 -0.0684 -0.0127 -0.3894
  453SOL    HW1 1358   2.405   2.715   3.150 -1.3992  0.5588  2.1072
  453SOL    HW2 1359   2.473   2.605   3.030 -1.7079 -0.6766 -2.1613
  454SOL     OW 1360   0.895   1.167   2.033 -0.0121  0.3226  0.0143
  454SOL    HW1 1361   0.835   1.158   1.950  0.8496 -0.4685 -0.3378
  454SOL    HW2 1362   0.986   1.216   2.008  1.4787  0.5607  0.6222
  455SOL     OW 1363   0.747   2.617   2.802 -0.7293  0.2746  0.2034
  455SOL    HW1 1364   0.852   2.636   2.809 -1.0622 -1.2675  0.1307
  455SOL    HW2 1365   0.726   2.531   2.860 -1.9578  1.9380 -1.4327
  456SOL     OW 1366   0.309   1.935   0.224  0.1194  0.0785  0.4646
  456SOL    HW1 1367   0.404   1.961   0.196 -1.6059  0.4278 -2.2027
  456SOL    HW2 1368   0.242   1.995   0.169  0.2526  0.7459  1.4352
  457SOL     OW 1369   0.418   2.649   0.641  0.6482 -0.0782  0.0147
  457SOL    HW1 1370   0.477   2.678   0.562 -0.0658 -4.9056 -0.8981
  457SOL    HW2 1371   0.475   2.644   0.729  0.2830 -3.3129  1.9910
  458SOL     OW 1372   2.928   0.018   1.293 -0.4646  0.1885 -0.0600
  458SOL    HW1 1373   2.992   0.101   1.277  0.7472  0.9039  0.9609
  458SOL    HW2 1374   2.934  -0.053   1.217  2.2879  2.1899 -1.1704
  459SOL     OW 1375   2.097   2.507   0.729  0.4074 -0.3372  0.2172
  459SOL    HW1 1376   2.162   2.511   0.809 -3.7841 -0.2744 -1.2300
  459SOL    HW2 1377   2.146   2.531   0.644 -1.9733  1.3316  0.1955
  460SOL     OW 1378   1.217   2.070   2.793 -0.1667 -0.2803 -0.0294
  460SOL    HW1 1379   1.258   2.084   2.697 -1.4330 -2.6924 -2.8374
  460SOL    HW2 1380   1.227   1.972   2.829 -1.6963  1.2207  1.7638
  461SOL     OW 1381   0.476   2.127   2.778 -0.1309  0.4728  0.1836
  461SOL    HW1 1382   0.477   2.054   2.704  1.6397  1.5637 -1.2042
  461SOL    HW2 1383   0.509   2.085   2.865 -2.3957  1.1529 -2.3863
  462SOL     OW 1384   0.957   1.022   1.722 -0.3647 -0.1495 -0.1055
  462SOL    HW1 1385   0.951   0.945   1.655 -1.2208  1.0077  0.9579
  462SOL    HW2 1386   0.901   1.102   1.695  0.1041 -1.2912  1.1273
  463SOL     OW 1387   0.425   0.772   0.474  0.0034  0.0689 -0.1757
  463SOL    HW1 1388   0.457   0.690   0.415 -0.2470 -1.5190  0.0723
  463SOL    HW2 1389   0.322   0.779   0.465  0.1016  3.1938 -0.5004
  464SOL     OW 1390   0.535   2.333   2.274  0.1533 -0.1652 -0.0627
  464SOL    HW1 1391   0.458   2.398   2.303  1.1113 -1.3809  1.4855
  464SOL    HW2 1392   0.552   2.330   2.169  2.1264  0.8440  0.4074
  465SOL     OW 1393   0.248   1.006   0.806 -0.0110  0.4422 -0.3153
  465SOL    HW1 1394   0.155   1.033   0.770 -0.0828  0.5469 -0.9743
  465SOL    HW2 1395   0.268   0.903   0.813  0.1461 -1.3555 -1.2939
  466SOL     OW 1396   1.330   1.151   0.874 -0.4428 -0.1126  0.8524
  466SOL    HW1 1397   1.310   1.252   0.888 -0.3747 -0.1634 -0.2836
  466SOL    HW2 1398   1.245   1.095   0.865  0.0866 -0.6428 -0.3845
  467SOL     OW 1399   0.634   0.466   2.571  0.1765  0.4393  0.0552
  467SOL    HW1 1400   0.590   0.556   2.594  2.4000 -1.1509 -0.5327
  467SOL    HW2 1401   0.603   0.383   2.620 -0.3660  2.9268  2.0383
  468SOL     OW 1402   0.477   2.276   1.589 -0.1878  0.2246 -0.5107
  468SOL    HW1 1403   0.570   2.308   1.627 -2.2507  1.3882  1.3984
  468SOL    HW2 1404   0.472   2.281   1.486  0.3892  1.7319  0.0241
  469SOL     OW 1405   1.428   1.324   1.252  0.1444 -0.4839  0.5732
  469SOL    HW1 1406   1.480   1.341   1.164 -0.0598  1.8878  2.4428
  469SOL    HW2 1407   1.456   1.391   1.325  2.4011 -0.8847  0.6246
  470SOL     OW 1408   2.978   1.846   0.801 -0.0385 -0.1990  0.2685
  470SOL    HW1 1409   3.046   1.898   0.741  0.8704  1.6148  1.0283
  470SOL    HW2 1410   3.019   1.826   0.891 -0.2140 -2.4433  0.2416
  471SOL     OW 1411   2.684   1.400   2.183 -0.1837 -0.3010  0.2100
  471SOL    HW1 1412   2.681   1.301   2.207  0.7265 -0.7781 -1.7256
  471SOL    HW2 1413   2.770   1.444   2.220  0.7915  2.7081  2.0716
  472SOL     OW 1414   1.288   2.406   0.035 -0.3951  0.4913 -0.7588
  472SOL    HW1 1415   1.371   2.382   0.096  1.1986 -1.0530 -2.0086
  472SOL    HW2 1416   1.197   2.381   0.078 -1.5026  1.8306  0.0377
  473SOL     OW 1417   1.072   1.490   0.988 -0.0302  0.0095  0.7929
  473SOL    HW1 1418   0.972   1.507   0.969  0.0652  1.5400  1.3916
  473SOL    HW2 1419   1.091   1.400   1.041 -1.1407 -1.3555 -0.1431
  474SOL     OW 1420   0.626   1.291   0.455 -0.2856  0.2175  0.3761
  474SOL    HW1 1421   0.549   1.255   0.394 -3.1502  1.2740  2.6153
  474SOL    HW2 1422   0.673   1.217   0.508  3.4485  3.0767 -0.8747
  475SOL     OW 1423   2.888   0.032   0.829 -0.1739 -0.3379 -0.7661
  475SOL    HW1 1424   2.935   0.117   0.866 -0.4909  1.8457 -4.3670
  475SOL    HW2 1425   2.786   0.037   0.837  0.4401  1.9624  1.6398
  476SOL     OW 1426   0.987   3.045   1.807 -0.0951 -0.1619 -0.0787
  476SOL    HW1 1427   1.085   3.082   1.818 -2.2584  0.1856 -0.9659
  476SOL    HW2 1428   0.968   3.026   1.708  2.8505 -2.3410  2.0710
  477SOL     OW 1429   1.433   0.322   2.443 -0.3317  0.1356  0.0756
  477SOL    HW1 1430   1.470   0.358   2.532  0.0098 -2.7563  1.5358
  477SOL    HW2 1431   1.498   0.265   2.386 -1.7809  0.0548 -2.6104
  478SOL     OW 1432   2.262   1.953   0.313  0.2458  0.1023 -0.6019
  478SOL    HW1 1433   2.207   1.878   0.362 -2.0446 -2.6240 -1.3152
  478SOL    HW2 1434   2.326   1.910   0.246 -3.6054  0.1470  0.4000
  479SOL     OW 1435   1.276   0.991   2.864 -0.1852 -0.6754 -0.5259
  479SOL    HW1 1436   1.380   0.983   2.844  3.7893 -1.3730  0.1070
  479SOL    HW2 1437   1.224   0.915   2.816 -1.7028 -2.2198  0.9528
  480SOL     OW 1438   2.656   2.288   0.431  0.6409  0.4806  0.0572
  480SOL    HW1 1439   2.748   2.238   0.441  1.2090  0.4505 -0.8597
  480SOL    HW2 1440   2.571   2.232   0.459 -3.0615 -0.0181 -1.5844
  481SOL     OW 1441   0.964   1.139   0.771  0.1159  0.5699  0.8070
  481SOL    HW1 1442   0.980   1.230   0.730  0.0321  1.2189 -1.5645
  481SOL    HW2 1443   1.007   1.128   0.863 -2.4141  2.5627 -0.8680
  482SOL     OW 1444   1.581   0.284   2.035  0.7790  0.1789 -0.0965
  482SOL    HW1 1445   1.605   0.381   2.015  0.8544  0.3276  2.0559
  482SOL    HW2 1446   1.668   0.229   2.055 -0.1350 -1.1567 -1.2831
  483SOL     OW 1447   0.154   2.385   1.226 -1.3871  0.1942 -0.2064
  483SOL    HW1 1448   0.161   2.477   1.276  1.5601  2.7679 -1.0246
  483SOL    HW2 1449   0.158   2.392   1.127 -1.2090  0.7671  3.3544
  484SOL     OW 1450   1.725   1.047   1.472  0.0032  0.2861  0.4200
  484SOL    HW1 1451   1.815   0.999   1.457 -3.0522  1.4723  0.1392
  484SOL    HW2 1452   1.735   1.149   1.452  0.1826  0.1224  0.3466
  485SOL     OW 1453   0.781   0.754   1.972 -0.2472 -0.0996  0.4444
  485SOL    HW1 1454   0.729   0.787   1.890 -1.6179 -3.7903  1.6531
  485SOL    HW2 1455   0.861   0.695   1.947 -1.0462 -1.1350  1.0091
  486SOL     OW 1456   0.908   1.867   2.454 -0.0267 -0.1387 -0.5630
  486SOL    HW1 1457   0.957   1.825   2.536  0.0699  0.6939 -1.4682
  486SOL    HW2 1458   0.878   1.967   2.464 -1.3178  2.6622 -1.1677
  487SOL     OW 1459   1.746   1.581   1.038  0.1469  0.0400  0.4970
  487SOL    HW1 1460   1.760   1.478   1.057 -1.3906 -0.6692  2.9484
  487SOL    HW2 1461   1.787   1.616   0.948 -1.0187  1.2358  0.1462
  488SOL     OW 1462   2.938   0.835   2.260  0.0123  0.0521  0.4099
  488SOL    HW1 1463   3.019   0.769   2.258  0.0758 -0.8059  0.0018
  488SOL    HW2 1464   2.850   0.791   2.290  1.6049  0.9389  0.2225
  489SOL     OW 1465   2.842   0.332   1.293 -0.2608  0.2798  0.2339
  489SOL    HW1 1466   2.844   0.327   1.396  1.6816  2.4229 -0.1963
  489SOL    HW2 1467   2.928   0.291   1.254 -0.0245 -2.4226 -1.6765
  490SOL     OW 1468   1.486   3.004   2.802 -0.2692 -0.3806  0.2110
  490SOL    HW1 1469   1.507   2.903   2.792 -1.2841 -1.1113  0.3461
  490SOL    HW2 1470   1.438   3.042   2.717 -1.9361  0.9315  0.7882
  491SOL     OW 1471   1.788   1.475   2.733 -0.1037 -0.5298 -1.2601
  491SOL    HW1 1472   1.784   1.391   2.799 -0.3883 -0.9533  2.7510
  491SOL    HW2 1473   1.879   1.532   2.732  1.4626  1.3483  3.7872
  492SOL     OW 1474   0.663   2.094   0.594 -0.4803 -0.4955  0.2868
  492SOL    HW1 1475   0.645   2.117   0.698 -0.1796 -2.8080  0.2029
  492SOL    HW2 1476   0.586   2.124   0.529 -2.6848  1.1574 -3.8882
  493SOL     OW 1477   0.388   1.328   2.092  0.3944 -0.0835 -0.2841
  493SOL    HW1 1478   0.321   1.403   2.068  2.0757 -0.3529 -0.2968
  493SOL    HW2 1479   0.349   1.250   2.146 -0.3976  0.3922  1.1158
  494SOL     OW 1480   2.722   2.650   0.150  0.1249 -0.3758 -0.7753
  494SOL    HW1 1481   2.714   2.607   0.250  0.4440 -0.8079  2.1066
  494SOL    HW2 1482   2.628   2.676   0.110 -0.7506  3.5333 -1.9889
  495SOL     OW 1483   2.530   2.804   2.644 -0.2560 -0.0276  0.0030
  495SOL    HW1 1484   2.527   2.702   2.654  0.6792 -1.9162 -2.6693
  495SOL    HW2 1485   2.606   2.837   2.585 -2.8541 -1.0122 -0.8555
  496SOL     OW 1486   1.955   2.285   0.824 -0.4281  0.8647 -0.7241
  496SOL    HW1 1487   2.002   2.196   0.829 -2.1710  2.1244  1.8846
  496SOL    HW2 1488   2.013   2.369   0.798 -2.2500 -1.2883 -2.3342
  497SOL     OW 1489   0.333   2.979   2.351 -0.7670  0.2132  0.3104
  497SOL    HW1 1490   0.251   3.029   2.387 -2.6733  0.2580  1.5653
  497SOL    HW2 1491   0.347   2.993   2.252 -1.2302  2.8969 -0.7832
  498SOL     OW 1492   1.168   1.295   1.149 -0.1457 -0.0698  0.0028
  498SOL    HW1 1493   1.270   1.271   1.160  0.4537 -0.1278 -2.7981
  498SOL    HW2 1494   1.122   1.345   1.226 -1.4488 -0.8008 -2.4139
  499SOL     OW 1495   0.613   1.738   0.426 -0.5304  0.7660 -0.2066
  499SOL    HW1 1496   0.636   1.727   0.326  0.4535 -1.1958  0.8072
  499SOL    HW2 1497   0.667   1.821   0.463  0.5991  2.7831 -0.4193
  500SOL     OW 1498   1.471   2.763   1.663  0.4038 -0.1325 -0.5305
  500SOL    HW1 1499   1.509   2.736   1.754  2.3836 -2.2745 -0.4990
  500SOL    HW2 1500   1.490   2.699   1.589 -1.2825  1.9120  1.6361
  501SOL     OW 1501   0.789   1.259   2.271 -0.5107 -0.3971 -0.2781
  501SOL    HW1 1502   0.745   1.172   2.308  0.3039 -0.9051 -1.4691
  501SOL    HW2 1503   0.808   1.248   2.173  0.6699 -2.7983 -0.0063
  502SOL     OW 1504   2.548   0.915   1.798  0.2007 -0.5181  0.2783
  502SOL    HW1 1505   2.565   0.956   1.706  1.1405  1.1645  0.3028
  502SOL    HW2 1506   2.518   0.812   1.796  1.9446  2.7058 -1.2001
  503SOL     OW 1507   1.230   0.129   0.714  0.3239 -0.0495  0.0357
  503SOL    HW1 1508   1.182   0.206   0.668  1.5984 -0.1320  0.6300
  503SOL    HW2 1509   1.333   0.159   0.723  0.1665 -0.9888 -0.3141
  504SOL     OW 1510   2.953   2.369   1.499  0.4647 -0.6244 -0.6858
  504SOL    HW1 1511   2.881   2.405   1.564 -1.2047 -1.0806  1.7279
  504SOL    HW2 1512   3.033   2.337   1.552  1.0316  3.3251 -2.2710
  505SOL     OW 1513   2.333   1.155   1.523  0.5627  0.0890  0.2160
  505SOL    HW1 1514   2.291   1.163   1.427 -0.7515 -3.7359  1.1932
  505SOL    HW2 1515   2.419   1.217   1.522 -1.1423  1.1026  0.6994
  506SOL     OW 1516   1.941   0.249   1.868  0.3788 -0.2648 -0.2985
  506SOL    HW1 1517   2.039   0.216   1.870 -2.8949  0.3059  1.4860
  506SOL    HW2 1518   1.927   0.345   1.899 -1.1129 -2.4500 -0.5896
  507SOL     OW 1519   0.480   0.767   2.155  0.1585 -0.1699  0.2079
  507SOL    HW1 1520   0.430   0.715   2.079 -0.8000  2.8647  0.4942
  507SOL    HW2 1521   0.548   0.705   2.195  0.3961 -2.5394 -1.3382
  508SOL     OW 1522   0.328   1.642   0.784 -0.1738  0.0385  0.3009
  508SOL    HW1 1523   0.422   1.675   0.739  1.9201  0.8789 -2.0774
  508SOL    HW2 1524   0.312   1.696   0.871 -2.1153  0.4956 -1.7792
  509SOL     OW 1525   1.272   1.195   2.476  0.1641  0.4995  0.3500
  509SOL    HW1 1526   1.346   1.145   2.425 -3.1167 -3.2052  0.6908
  509SOL    HW2 1527   1.175   1.188   2.442  1.7089  1.6370 -0.2245
  510SOL     OW 1528   1.394   2.045   2.202 -0.6704  0.3283 -0.1630
  510SOL    HW1 1529   1.369   2.102   2.121 -1.8195 -2.9194  1.4236
  510SOL    HW2 1530   1.315   2.001   2.258 -1.3718 -0.8023  2.0901
  511SOL     OW 1531   3.017   2.644   1.363  0.6823 -0.2381 -0.1521
  511SOL    HW1 1532   2.962   2.677   1.282 -0.0243  0.2400  1.6651
  511SOL    HW2 1533   2.970   2.565   1.407 -0.2740  1.6437 -1.5453
  512SOL     OW 1534   2.363   0.429   1.390 -0.3342 -0.1046  0.5252
  512SOL    HW1 1535   2.270   0.452   1.348  0.4361  0.8816  0.5045
  512SOL    HW2 1536   2.439   0.394   1.327 -1.1196  0.7730  0.2099
  513SOL     OW 1537   2.551   2.128   0.897 -0.4225 -0.4777 -0.6867
  513SOL    HW1 1538   2.519   2.204   0.835 -1.0624  1.8614 -0.7575
  513SOL    HW2 1539   2.617   2.064   0.852  0.3394  1.6260  0.1524
  514SOL     OW 1540   0.565   2.769   0.434  0.2070 -0.1153 -0.1547
  514SOL    HW1 1541   0.618   2.782   0.345 -0.1554 -0.5841 -1.1235
  514SOL    HW2 1542   0.612   2.813   0.512  0.6663 -4.8194  2.2890
  515SOL     OW 1543   1.961   1.337   2.392  0.0088 -0.2148 -0.3713
  515SOL    HW1 1544   1.960   1.295   2.300 -1.8353 -0.4413 -0.2068
  515SOL    HW2 1545   1.890   1.294   2.453 -0.5699 -0.1240  0.6680
  516SOL     OW 1546   0.248   0.168   1.961  0.2164  0.4164  0.6057
  516SOL    HW1 1547   0.332   0.187   1.901 -0.7122 -0.1529  1.4229
  516SOL    HW2 1548   0.185   0.105   1.911  2.6440 -0.7996 -0.9896
  517SOL     OW 1549   0.499   0.253   1.098 -0.4141 -0.0938 -0.2562
  517SOL    HW1 1550   0.542   0.199   1.172 -1.8371  0.0798 -2.0339
  517SOL    HW2 1551   0.399   0.244   1.090  0.5543  0.8333  0.7069
  518SOL     OW 1552   2.208   3.022   1.837 -0.4713  0.0073 -0.3960
  518SOL    HW1 1553   2.237   3.121   1.843 -0.7733  0.2390 -0.6006
  518SOL    HW2 1554   2.230   2.988   1.742  0.3931  0.8008 -2.4737
  519SOL     OW 1555   2.351   2.239   2.539 -0.7736  0.1474 -0.0193
  519SOL    HW1 1556   2.296   2.220   2.625 -1.6966  0.2360  0.4646
  519SOL    HW2 1557   2.349   2.339   2.511  2.1351  0.8629  2.1058
  520SOL     OW 1558   1.779   2.637   1.677 -0.0067  0.4337 -0.5643
  520SOL    HW1 1559   1.737   2.610   1.771  1.4469  0.5371 -0.0063
  520SOL    HW2 1560   1.866   2.589   1.648  0.3350 -1.9458 -2.8853
  521SOL     OW 1561   0.653   0.074   2.137  0.2623 -0.2148 -0.1535
  521SOL    HW1 1562   0.564   0.021   2.115 -1.1104 -0.8211  0.8449
  521SOL    HW2 1563   0.662   0.074   2.237 -0.2499  2.2318 -0.2129
  522SOL     OW 1564   0.249   1.885   1.520 -0.0055  0.3172 -0.6069
  522SOL    HW1 1565   0.280   1.935   1.604  0.4903  0.0096  1.0630
  522SOL    HW2 1566   0.211   1.950   1.449 -0.4776 -2.1543 -0.7024
  523SOL     OW 1567   2.242   2.949   1.585  0.9127 -1.0865 -0.4240
  523SOL    HW1 1568   2.312   2.896   1.528  0.2041  1.9667  1.4010
  523SOL    HW2 1569   2.145   2.932   1.544 -2.5939  2.0742 -0.0739
  524SOL     OW 1570   0.222   2.760   2.783  0.4660 -0.3420 -0.5306
  524SOL    HW1 1571   0.174   2.828   2.848 -0.4643  2.8019 -0.9986
  524SOL    HW2 1572   0.323   2.754   2.788 -2.3260 -2.5761 -2.8099
  525SOL     OW 1573   2.148   2.113   0.512  0.6940 -0.2687  0.1088
  525SOL    HW1 1574   2.146   2.041   0.588 -0.7428 -2.7540  2.4234
  525SOL    HW2 1575   2.176   2.074   0.419  0.7576  0.2500  0.8492
  526SOL     OW 1576   0.393   1.508   1.703  0.0202  0.6661  0.4999
  526SOL    HW1 1577   0.423   1.590   1.752 -2.1342 -1.2461 -1.0843
  526SOL    HW2 1578   0.387   1.421   1.759 -2.8188 -1.6905  1.1646
  527SOL     OW 1579   1.154   3.028   1.099  0.1776 -0.9452 -0.3546
  527SOL    HW1 1580   1.186   2.941   1.141 -1.0950  1.4560  2.3082
  527SOL    HW2 1581   1.201   3.115   1.129  1.2276 -1.0088  1.8521
  528SOL     OW 1582   1.283   2.424   0.605 -0.0385 -0.0283 -0.0917
  528SOL    HW1 1583   1.317   2.324   0.586 -0.9522  3.7454 -0.5055
  528SOL    HW2 1584   1.351   2.481   0.657  0.4381  2.5934 -0.2770
  529SOL     OW 1585   1.848   1.701   0.810 -0.0737  0.2195 -0.2208
  529SOL    HW1 1586   1.806   1.719   0.716  2.7459  4.2177 -0.8866
  529SOL    HW2 1587   1.866   1.787   0.867  0.1841  0.4731  2.9774
  530SOL     OW 1588   0.435   2.531   0.152 -0.5458 -0.7308  0.2962
  530SOL    HW1 1589   0.445   2.484   0.244 -2.9720 -1.0919  2.8450
  530SOL    HW2 1590   0.437   2.466   0.071 -0.2143 -0.0056  1.4541
  531SOL     OW 1591   1.821   1.004   1.039  0.1478  0.3901  0.1390
  531SOL    HW1 1592   1.874   1.010   0.951  0.9142  1.8672  0.6682
  531SOL    HW2 1593   1.728   0.959   1.022  0.9679 -1.6595  2.7101
  532SOL     OW 1594   0.403   1.199   0.691 -0.1744  0.4249 -0.6613
  532SOL    HW1 1595   0.430   1.171   0.594 -1.7435 -2.4605  1.5526
  532SOL    HW2 1596   0.359   1.123   0.745  2.3740 -1.4106  1.9187
  533SOL     OW 1597   1.826   0.001   2.637  0.4265  0.8791 -0.2004
  533SOL    HW1 1598   1.928  -0.003   2.619  0.2230 -0.7698 -2.0815
  533SOL    HW2 1599   1.801   0.099   2.663  0.0276 -1.4830  0.4969
  534SOL     OW 1600   0.195   0.177   1.552  0.1227  0.3925 -0.1563
  534SOL    HW1 1601   0.262   0.250   1.525 -0.9512 -2.9948  1.8180
  534SOL    HW2 1602   0.099   0.207   1.546  1.6396 -0.4806 -1.1006
  535SOL     OW 1603   1.882   0.381   0.155 -0.3633 -0.0778 -0.1613
  535SOL    HW1 1604   1.913   0.470   0.206  0.3739  2.7555  0.5910
  535SOL    HW2 1605   1.792   0.347   0.201  1.3122  2.2016 -3.4432
  536SOL     OW 1606   1.233   2.488   0.939 -0.2210  0.1126  0.6956
  536SOL    HW1 1607   1.300   2.459   0.865 -0.0251  0.3782 -2.4210
  536SOL    HW2 1608   1.153   2.535   0.898  0.1785 -0.5497  1.8658
  537SOL     OW 1609   0.873   0.248   2.316 -0.3934  0.3557  0.0623
  537SOL    HW1 1610   0.855   0.249   2.212  0.2778  1.7681 -2.9362
  537SOL    HW2 1611   0.957   0.187   2.337 -0.2903 -1.6245 -0.8105
  538SOL     OW 1612   1.726   2.250   1.642 -0.3355  0.7591 -0.1290
  538SOL    HW1 1613   1.679   2.194   1.569 -0.6568 -0.8306  0.5554
  538SOL    HW2 1614   1.792   2.310   1.590 -1.9807 -0.3189  2.4778
  539SOL     OW 1615   0.143   1.551   2.782 -0.1533  0.1047 -0.0267
  539SOL    HW1 1616   0.061   1.531   2.725  1.5079  1.9769 -0.8155
  539SOL    HW2 1617   0.189   1.631   2.742 -2.6804 -1.7952  0.4659
  540SOL     OW 1618   2.642   1.789   2.133 -0.1391  0.1276  0.1040
  540SOL    HW1 1619   2.631   1.711   2.070 -1.0659 -0.8447  4.2744
  540SOL    HW2 1620   2.608   1.871   2.081 -0.2551 -1.6608 -1.9113
  541SOL     OW 1621   0.419   2.310   3.086  0.1100 -0.1440 -0.6267
  541SOL    HW1 1622   0.436   2.235   3.154  1.0486  2.4577  1.2097
  541SOL    HW2 1623   0.344   2.299   3.016 -0.4645  0.4006 -1.2282
  542SOL     OW 1624   2.182   2.570   0.462  0.2738 -0.2460 -0.4768
  542SOL    HW1 1625   2.187   2.666   0.419 -1.4447 -1.9866  2.0927
  542SOL    HW2 1626   2.085   2.549   0.484  1.7362 -1.0133  0.5635
  543SOL     OW 1627   1.113   1.783   1.774 -0.0502  0.6186 -0.2593
  543SOL    HW1 1628   1.105   1.814   1.876 -0.4153 -0.2158 -0.7237
  543SOL    HW2 1629   1.042   1.815   1.712  2.7110  1.7018 -1.8236
  544SOL     OW 1630   0.842   0.468   0.127  0.0003 -0.1790  0.4333
  544SOL    HW1 1631   0.904   0.420   0.192  0.7642 -0.7725 -1.9054
  544SOL    HW2 1632   0.875   0.452   0.029 -0.3454 -0.1021  1.3150
  545SOL     OW 1633   1.148   1.733   0.657  0.0230  0.5994  0.6905
  545SOL    HW1 1634   1.234   1.711   0.709 -1.9866 -1.7103 -0.9918
  545SOL    HW2 1635   1.169   1.767   0.563  0.6739  0.2852  0.2910
  546SOL     OW 1636   2.728   1.588   0.037 -0.2168 -0.2881 -0.0620
  546SOL    HW1 1637   2.765   1.570  -0.059  4.9900 -0.8810  0.3324
  546SOL    HW2 1638   2.638   1.545   0.068  3.4490 -0.1653  2.2997
  547SOL     OW 1639   0.475   3.055   2.714  0.0300 -0.2811 -0.2449
  547SOL    HW1 1640   0.492   2.982   2.640  0.6296  0.0471  2.1150
  547SOL    HW2 1641   0.507   3.029   2.806 -0.6651 -2.6529 -2.0855
  548SOL     OW 1642   2.065   0.777   3.008  0.2048 -0.2442  1.0672
  548SOL    HW1 1643   1.958   0.774   3.032 -1.0873 -0.8476 -1.2241
  548SOL    HW2 1644   2.083   0.877   2.983  0.5860  2.9762  0.5414
  549SOL     OW 1645   0.560   0.457   0.089 -0.1849  0.0715 -0.6065
  549SOL    HW1 1646   0.536   0.516   0.012  1.7631 -1.8552  0.5758
  549SOL    HW2 1647   0.662   0.457   0.102 -1.9323 -0.5334  1.5014
  550SOL     OW 1648   2.523   2.877   2.915  0.1318 -0.7659  0.4497
  550SOL    HW1 1649   2.502   2.808   2.991  0.5475 -1.0011 -0.1427
  550SOL    HW2 1650   2.523   2.826   2.826 -0.3523 -0.3384 -0.9705
  551SOL     OW 1651   0.262   0.830   0.229 -0.2502  0.0224 -0.3128
  551SOL    HW1 1652   0.358   0.801   0.216 -1.5405 -0.4287 -2.0106
  551SOL    HW2 1653   0.235   0.839   0.331  0.2788  0.3964  1.0768
  552SOL     OW 1654   0.861   2.807   1.920  0.4108 -0.6395 -0.5012
  552SOL    HW1 1655   0.829   2.773   2.015 -1.1888  0.3740 -0.1601
  552SOL    HW2 1656   0.852   2.908   1.904 -2.8483  1.5230 -2.4076
  553SOL     OW 1657   3.093   2.564   0.358  0.0053 -0.0453 -0.0287
  553SOL    HW1 1658   3.039   2.476   0.344 -0.3374  0.7817  1.3591
  553SOL    HW2 1659   3.170   2.545   0.428 -0.6634  0.2144  3.2258
  554SOL     OW 1660   2.090   0.334   0.493 -0.4183 -0.4015  0.1569
  554SOL    HW1 1661   2.107   0.297   0.400 -2.8814 -0.8166  2.4593
  554SOL    HW2 1662   2.082   0.259   0.564  4.0083 -3.1645  1.3001
  555SOL     OW 1663   0.524   2.856   2.524 -0.0563  0.0240  0.2595
  555SOL    HW1 1664   0.452   2.895   2.457 -2.3311  2.5520  0.3220
  555SOL    HW2 1665   0.610   2.815   2.481 -1.7489  0.8358  0.7666
  556SOL     OW 1666   0.967   2.356   1.644  0.1634 -0.0080  0.1197
  556SOL    HW1 1667   0.994   2.440   1.701  0.8472  0.2279 -0.0869
  556SOL    HW2 1668   1.037   2.340   1.568  1.0109 -0.8215 -1.6115
  557SOL     OW 1669   0.138   2.121   0.108  0.2522 -0.0062 -0.0218
  557SOL    HW1 1670   0.046   2.066   0.109 -0.3063 -4.1361  1.2657
  557SOL    HW2 1671   0.149   2.186   0.029  0.7938  1.3473  0.9890
  558SOL     OW 1672   2.984   2.307   0.267 -0.5345  0.2583 -0.3574
  558SOL    HW1 1673   2.885   2.275   0.254 -3.2506  0.2151  0.1565
  558SOL    HW2 1674   3.027   2.341   0.182  0.9573  0.4209 -0.3051
  559SOL     OW 1675   0.388   2.288   1.305  0.5902 -0.2946 -0.2049
  559SOL    HW1 1676   0.290   2.315   1.273 -0.0560  2.5247  1.0227
  559SOL    HW2 1677   0.414   2.191   1.278 -0.2748  0.2737 -2.2318
  560SOL     OW 1678   2.045   1.054   3.019 -0.3881 -0.5552  0.1058
  560SOL    HW1 1679   2.047   1.112   2.935 -0.8092  1.0470  0.8926
  560SOL    HW2 1680   2.009   1.105   3.099  0.8721  0.3963  0.3181
  561SOL     OW 1681   3.014   1.961   0.091  0.4276  0.1425  0.5841
  561SOL    HW1 1682   2.973   1.867   0.083 -0.8790  2.5396 -2.8024
  561SOL    HW2 1683   2.950   2.036   0.053  2.1736  1.9935  2.3519
  562SOL     OW 1684   0.841   2.156   2.461 -0.2989  0.7658 -0.1267
  562SOL    HW1 1685   0.739   2.136   2.473 -1.1530 -1.2618 -1.7616
  562SOL    HW2 1686   0.887   2.213   2.531  2.6605  2.0363  2.3431
  563SOL     OW 1687   0.654   2.566   2.550  0.4629 -0.0323 -0.1625
  563SOL    HW1 1688   0.587   2.491   2.577  0.8730  1.3973  0.2730
  563SOL    HW2 1689   0.713   2.578   2.636 -1.7536  0.1361  0.4973
  564SOL     OW 1690   2.762   1.303   2.919 -0.1834 -0.3931 -0.7760
  564SOL    HW1 1691   2.666   1.315   2.964 -1.1366 -0.5679  0.1028
  564SOL    HW2 1692   2.805   1.396   2.893  1.0506  0.8250  1.1597
  565SOL     OW 1693   2.546   2.026   2.569 -0.2198  0.1606  0.2977
  565SOL    HW1 1694   2.475   2.100   2.551  1.6241 -1.0078 -1.2945
  565SOL    HW2 1695   2.604   2.051   2.653  0.7141 -0.9507  0.0992
  566SOL     OW 1696   2.024   2.816   1.444 -0.4258 -0.0954 -0.2191
  566SOL    HW1 1697   2.023   2.724   1.484 -0.3078  4.2649 -0.1815
  566SOL    HW2 1698   2.056   2.814   1.346 -1.2480 -1.4087 -0.3873
  567SOL     OW 1699   2.397   0.115   2.220  0.3427  0.4079 -0.0699
  567SOL    HW1 1700   2.424   0.157   2.131  0.5015 -0.8973  0.4581
  567SOL    HW2 1701   2.340   0.032   2.202 -0.8394  2.3995  0.9565
  568SOL     OW 1702   1.443   1.807   0.481  0.6221  0.0183  0.1348
  568SOL    HW1 1703   1.417   1.879   0.410  4.1566  0.9915 -2.6319
  568SOL    HW2 1704   1.513   1.844   0.547 -2.7082 -1.0807 -2.1687
  569SOL     OW 1705   0.295   0.686   0.753 -0.2016  0.7270  0.3116
  569SOL    HW1 1706   0.365   0.638   0.692  1.6950 -5.3561 -1.2017
  569SOL    HW2 1707   0.204   0.640   0.759  0.8157 -2.2767  2.0774
  570SOL     OW 1708   0.595   0.848   2.822  0.0682 -0.5358  0.7751
  570SOL    HW1 1709   0.646   0.837   2.732 -0.9001 -0.5376 -1.9412
  570SOL    HW2 1710   0.622   0.936   2.868 -0.0887 -2.1751  1.3639
  571SOL     OW 1711   0.832   3.084   1.173 -0.1056 -0.0255 -0.6378
  571SOL    HW1 1712   0.838   3.163   1.103 -1.6266  1.2221 -0.4438
  571SOL    HW2 1713   0.922   3.032   1.186  0.2081  1.7226 -0.1417
  572SOL     OW 1714   1.475   2.573   1.184 -0.0707 -0.0950  0.0946
  572SOL    HW1 1715   1.407   2.493   1.217 -3.0514 -2.1712  1.2988
  572SOL    HW2 1716   1.423   2.637   1.117 -0.7220  2.0724 -0.4196
  573SOL     OW 1717   2.941   0.490   2.071  0.1812 -0.2440  0.2308
  573SOL    HW1 1718   2.917   0.407   2.128  2.0639 -0.5924 -0.8019
  573SOL    HW2 1719   2.858   0.518   2.018 -2.8165 -0.5561 -1.0702
  574SOL     OW 1720   0.230   1.760   1.021 -0.0461  0.1530 -0.0194
  574SOL    HW1 1721   0.250   1.863   0.997 -1.3176  0.8945 -2.1095
  574SOL    HW2 1722   0.158   1.749   1.098 -0.8446  1.5108  1.9476
  575SOL     OW 1723   0.940   2.219   1.021 -0.5093  0.2407 -0.2677
  575SOL    HW1 1724   0.912   2.159   1.101 -4.3492  1.0009 -1.5355
  575SOL    HW2 1725   1.041   2.233   1.014  1.0651  0.4039  2.9688
  576SOL     OW 1726   2.884   2.924   1.744  0.1285  0.2299 -0.0782
  576SOL    HW1 1727   2.829   2.854   1.694  1.1372  1.0363 -2.8354
  576SOL    HW2 1728   2.829   3.007   1.763  2.5519 -1.1739 -1.1162
  577SOL     OW 1729   2.519   1.248   3.075 -0.0884 -0.1839  0.1550
  577SOL    HW1 1730   2.501   1.152   3.036  0.8180 -2.2940 -0.7515
  577SOL    HW2 1731   2.573   1.238   3.168 -2.1751  0.3661 -0.4407
  578SOL     OW 1732   1.336   2.783   2.563 -0.0703  0.4305  0.0546
  578SOL    HW1 1733   1.256   2.753   2.504  0.5201 -1.7781  0.8993
  578SOL    HW2 1734   1.342   2.886   2.571 -1.6182 -2.7001 -2.3285
  579SOL     OW 1735   0.129   2.581   0.129  0.2137  0.2805 -0.0104
  579SOL    HW1 1736   0.077   2.575   0.221 -0.6150 -0.9045  1.8176
  579SOL    HW2 1737   0.220   2.541   0.132 -1.4493  2.6989  0.4892
  580SOL     OW 1738   0.936   2.692   0.400  0.4085 -0.0560  0.0500
  580SOL    HW1 1739   1.024   2.735   0.359  1.7934  1.4836 -2.3247
  580SOL    HW2 1740   0.906   2.607   0.348  2.0974  1.8944 -0.6528
  581SOL     OW 1741   1.238   2.521   1.454  1.2912  0.7082  0.6396
  581SOL    HW1 1742   1.263   2.450   1.385  0.5526  0.2096  0.0827
  581SOL    HW2 1743   1.257   2.616   1.421 -1.4239  0.3050  3.9314
  582SOL     OW 1744   1.527   0.064   1.864  0.2045  0.3019  0.2020
  582SOL    HW1 1745   1.543   0.153   1.915  2.7201 -0.8185  0.0403
  582SOL    HW2 1746   1.596   0.063   1.781 -3.0444  1.5363  1.2814
  583SOL     OW 1747   2.379   2.959   0.567  0.1468  0.3536  0.4551
  583SOL    HW1 1748   2.448   2.902   0.512  0.1247  2.8533 -0.1495
  583SOL    HW2 1749   2.344   2.909   0.652 -2.2228  0.1196 -1.5015
  584SOL     OW 1750   1.528   0.968   2.077 -0.4811  0.0788  0.2760
  584SOL    HW1 1751   1.599   1.010   2.010  0.9724  0.9865 -1.5208
  584SOL    HW2 1752   1.575   0.919   2.158  1.8105 -1.1472  1.2283
  585SOL     OW 1753   2.083   2.710   2.854  0.1983 -0.3036  0.6184
  585SOL    HW1 1754   2.127   2.611   2.836  0.6895 -2.3650 -1.2577
  585SOL    HW2 1755   1.978   2.708   2.863  0.6696  1.8861 -1.2399
  586SOL     OW 1756   2.782   0.272   1.567 -0.4849 -0.6288 -0.0977
  586SOL    HW1 1757   2.776   0.354   1.626  1.1751 -1.4360  1.1191
  586SOL    HW2 1758   2.700   0.213   1.590 -0.7029 -0.7910 -0.7565
  587SOL     OW 1759   2.029   1.614   2.739  0.2487  0.0228  0.4339
  587SOL    HW1 1760   2.089   1.589   2.659 -2.1660  1.9898 -0.5533
  587SOL    HW2 1761   2.079   1.605   2.822 -3.4545 -1.5459 -0.8581
  588SOL     OW 1762   0.522   2.692   2.245  0.4462  0.0281 -0.3147
  588SOL    HW1 1763   0.446   2.706   2.173 -1.7620 -0.3552 -0.9881
  588SOL    HW2 1764   0.491   2.638   2.328  1.1485  0.3863  0.8373
  589SOL     OW 1765   2.174   1.480   2.519  0.2135 -0.5490  0.3954
  589SOL    HW1 1766   2.097   1.425   2.478 -0.9453  1.5061  0.4112
  589SOL    HW2 1767   2.254   1.418   2.537 -0.6735  1.7007 -0.9874
  590SOL     OW 1768   2.353   1.776   2.028  0.4954 -0.2142 -0.4726
  590SOL    HW1 1769   2.421   1.697   2.021  1.8121  0.3662 -0.8011
  590SOL    HW2 1770   2.362   1.829   2.120 -0.0142 -0.9988 -1.6692
  591SOL     OW 1771   1.310   2.470   0.348  0.1859 -0.5769  0.3145
  591SOL    HW1 1772   1.396   2.427   0.301  0.6676 -0.6592 -0.4451
  591SOL    HW2 1773   1.293   2.448   0.449  1.9377 -0.0255  0.0751
  592SOL     OW 1774   1.701   2.322   0.775 -0.1679  0.0627 -0.0680
  592SOL    HW1 1775   1.675   2.372   0.686 -1.1012 -0.2219  1.0558
  592SOL    HW2 1776   1.809   2.314   0.786  3.7618 -0.0203 -1.7788
  593SOL     OW 1777   0.522   0.257   2.993  0.0996 -0.6911  0.1239
  593SOL    HW1 1778   0.613   0.208   3.000 -1.0114  2.4478  3.3021
  593SOL    HW2 1779   0.521   0.339   3.053  2.3955 -2.2001  0.5515
  594SOL     OW 1780   0.928   1.875   2.754 -0.2372 -0.1329  0.2168
  594SOL    HW1 1781   1.011   1.884   2.820  0.3049  2.5854 -0.2416
  594SOL    HW2 1782   0.881   1.964   2.736 -0.6676  1.0470  1.1135
  595SOL     OW 1783   1.556   3.073   1.026  0.1538  0.5395 -0.2621
  595SOL    HW1 1784   1.619   2.988   1.042  1.4260 -1.0937 -0.2873
  595SOL    HW2 1785   1.491   3.056   0.947  0.4383 -0.3312  1.1371
  596SOL     OW 1786   3.080   1.475   2.226  0.4551 -0.2924  0.0970
  596SOL    HW1 1787   3.006   1.545   2.233 -2.2584  2.0677 -3.5165
  596SOL    HW2 1788   3.091   1.426   2.311 -0.3964 -2.0080 -1.9889
  597SOL     OW 1789   2.042   2.580   1.596  0.3185 -0.0283  0.0294
  597SOL    HW1 1790   2.104   2.515   1.552  0.4951  2.2193  2.8605
  597SOL    HW2 1791   2.083   2.602   1.686 -0.9515 -0.9077 -2.7253
  598SOL     OW 1792   2.602   2.860   1.227 -0.5025  0.4592 -0.1255
  598SOL    HW1 1793   2.660   2.911   1.298  3.3255 -2.2478  0.1922
  598SOL    HW2 1794   2.647   2.868   1.131  1.5978  0.8826  0.2245
  599SOL     OW 1795   2.936   0.346   2.418 -0.3899 -0.0915 -0.4407
  599SOL    HW1 1796   3.025   0.330   2.369 -0.1632 -2.8708  2.6954
  599SOL    HW2 1797   2.864   0.406   2.370  0.4531  0.1644 -0.9355
  600SOL     OW 1798   2.796   1.084   2.756  0.5846 -0.1286 -0.1486
  600SOL    HW1 1799   2.768   0.995   2.801  2.2790  0.5279 -1.7754
  600SOL    HW2 1800   2.755   1.166   2.799 -3.6261 -1.4464 -0.1082
  601SOL     OW 1801   2.950   1.300   2.039 -0.2886 -0.2363 -0.3441
  601SOL    HW1 1802   2.851   1.320   1.997 -1.1782 -1.5146 -0.1786
  601SOL    HW2 1803   2.997   1.381   2.088 -0.4962 -0.3820  2.8396
  602SOL     OW 1804   1.542   1.674   2.287 -0.0375  0.5349  0.4427
  602SOL    HW1 1805   1.470   1.607   2.305 -0.0824 -0.7268  1.3614
  602SOL    HW2 1806   1.628   1.664   2.341 -0.9266 -0.1579  4.3968
  603SOL     OW 1807   0.713   1.246   2.608 -0.5708  0.3197  0.2888
  603SOL    HW1 1808   0.632   1.224   2.551  3.2308 -1.3459  0.2059
  603SOL    HW2 1809   0.769   1.165   2.635  1.6507  0.6255  2.4674
  604SOL     OW 1810   2.410   1.037   0.184 -0.1447 -0.5823 -0.4591
  604SOL    HW1 1811   2.430   1.116   0.118 -0.7633  1.3287 -2.3898
  604SOL    HW2 1812   2.397   0.946   0.132  1.4354 -1.6001  0.0089
  605SOL     OW 1813   2.600   1.117   1.977 -0.2644  0.0093  0.3307
  605SOL    HW1 1814   2.577   1.028   1.926  0.3263 -0.9707  0.4846
  605SOL    HW2 1815   2.619   1.106   2.078  1.0019 -2.4381 -2.6439
  606SOL     OW 1816   1.487   2.527   2.561  0.2941 -0.1317  0.5693
  606SOL    HW1 1817   1.399   2.576   2.571  2.4350 -1.6594 -1.1844
  606SOL    HW2 1818   1.476   2.422   2.577  1.9797 -0.1210 -0.0871
  607SOL     OW 1819   1.314   1.546   0.436  0.2501  0.1795 -0.2480
  607SOL    HW1 1820   1.314   1.489   0.524  0.2990  0.6014 -0.1146
  607SOL    HW2 1821   1.356   1.637   0.460  0.0677 -2.7266 -0.5441
  608SOL     OW 1822   1.381   2.879   0.386  0.2361  0.5012  0.3461
  608SOL    HW1 1823   1.467   2.923   0.351 -1.8111 -2.4649  0.0058
  608SOL    HW2 1824   1.309   2.948   0.420 -0.0144 -0.2451 -1.1332
  609SOL     OW 1825   1.329   1.329   0.204  0.2179 -0.0773  0.2186
  609SOL    HW1 1826   1.313   1.410   0.263 -1.3187 -3.0587 -0.3711
  609SOL    HW2 1827   1.239   1.314   0.151  1.2379  1.1062 -1.7783
  610SOL     OW 1828   3.011   1.090   2.280  0.2699 -0.8888 -0.0309
  610SOL    HW1 1829   2.986   0.989   2.268  2.3831 -1.3450  0.7199
  610SOL    HW2 1830   3.006   1.145   2.193 -0.5993  0.5293  2.1336
  611SOL     OW 1831   2.549   0.311   1.236 -0.9372 -0.0265  0.1221
  611SOL    HW1 1832   2.530   0.212   1.214  1.5487 -0.5765  0.0284
  611SOL    HW2 1833   2.651   0.329   1.250 -2.3042 -1.6636  2.0851
  612SOL     OW 1834   0.758   2.175   1.254  0.1617 -0.5550 -0.1469
  612SOL    HW1 1835   0.672   2.128   1.282  2.3199  3.2277 -0.4506
  612SOL    HW2 1836   0.738   2.266   1.209 -0.2770  0.8050 -0.0753
  613SOL     OW 1837   0.985   1.434   2.352  0.8131 -0.2573  0.8476
  613SOL    HW1 1838   1.004   1.470   2.256 -0.8569  0.9554 -2.0562
  613SOL    HW2 1839   0.906   1.370   2.342 -0.5931  2.2767 -1.0306
  614SOL     OW 1840   1.632   1.524   1.738  0.8726  0.1780  0.1753
  614SOL    HW1 1841   1.556   1.589   1.763 -0.0747  0.5587  0.4136
  614SOL    HW2 1842   1.701   1.509   1.812 -1.5630 -0.5446  1.7673
  615SOL     OW 1843   0.792   1.274   1.744 -0.0438  0.3206 -0.3464
  615SOL    HW1 1844   0.739   1.249   1.663 -0.4298  0.0312 -0.1109
  615SOL    HW2 1845   0.825   1.368   1.738 -2.7146 -3.6373  1.3087
  616SOL     OW 1846   1.056   1.565   2.127 -0.8199 -0.1441  0.7016
  616SOL    HW1 1847   0.993   1.608   2.057  0.2002  0.5940  4.0081
  616SOL    HW2 1848   1.114   1.630   2.180 -1.3018 -0.1252  2.8643
  617SOL     OW 1849   2.961   1.547   1.596 -0.2560 -0.1292  0.2081
  617SOL    HW1 1850   2.990   1.458   1.639 -0.2349  1.0285 -0.2513
  617SOL    HW2 1851   2.986   1.545   1.495 -2.4251  0.2224 -0.1606
  618SOL     OW 1852   1.868   1.991   1.376  0.1637  0.4120 -0.2086
  618SOL    HW1 1853   1.892   2.068   1.310  2.8290  1.8989 -1.1211
  618SOL    HW2 1854   1.882   1.895   1.337  0.0567  1.5314 -0.7860
  619SOL     OW 1855   1.739   0.441   2.362  0.1552  0.6991  0.9132
  619SOL    HW1 1856   1.659   0.498   2.330  3.5374 -2.2638 -1.1119
  619SOL    HW2 1857   1.722   0.334   2.360 -2.1814  1.1976  2.2825
  620SOL     OW 1858   2.252   2.819   0.766  0.2379 -0.1688 -0.1018
  620SOL    HW1 1859   2.146   2.808   0.762 -1.8514  1.5920  0.7015
  620SOL    HW2 1860   2.293   2.765   0.842 -0.4522  1.1278 -1.5687
  621SOL     OW 1861   2.184   1.930   1.323 -0.1269  0.3323  0.8848
  621SOL    HW1 1862   2.171   1.948   1.423  0.3486 -0.4505  0.5843
  621SOL    HW2 1863   2.166   1.830   1.302  0.1118  0.1598  1.3001
  622SOL     OW 1864   2.241   0.930   1.871  0.2875 -0.5047  0.3196
  622SOL    HW1 1865   2.337   0.935   1.830  2.2881  1.1723  1.8371
  622SOL    HW2 1866   2.226   0.864   1.950  1.0230  0.7835 -2.5412
  623SOL     OW 1867   1.268   0.846   2.513 -0.6207  0.0575 -0.5326
  623SOL    HW1 1868   1.214   0.766   2.549  1.8444  0.1681 -0.0531
  623SOL    HW2 1869   1.223   0.883   2.433  2.0396 -2.5912  1.5627
  624SOL     OW 1870   0.490   0.658   3.005  0.2445  0.0805  0.1962
  624SOL    HW1 1871   0.554   0.683   2.928  1.5437  1.0427  0.5858
  624SOL    HW2 1872   0.505   0.717   3.090  0.4819  0.0825 -1.1544
  625SOL     OW 1873   2.735   1.716   1.004 -0.1807  0.0280 -0.0819
  625SOL    HW1 1874   2.642   1.767   1.019 -1.5098  1.9160 -1.8595
  625SOL    HW2 1875   2.815   1.780   1.027  2.4094 -0.1827  0.3470
  626SOL     OW 1876   0.641   2.678   1.752 -0.4658  0.8638 -0.0260
  626SOL    HW1 1877   0.699   2.716   1.834  1.4446 -0.3908  2.7260
  626SOL    HW2 1878   0.546   2.637   1.779 -0.1325 -0.5994  0.7457
  627SOL     OW 1879   0.649   0.829   1.721 -0.3682 -0.1179 -0.5599
  627SOL    HW1 1880   0.587   0.767   1.670  0.2852  0.1807 -1.0062
  627SOL    HW2 1881   0.696   0.892   1.655  0.8270  1.9480 -1.2000
  628SOL     OW 1882   2.362   0.084   0.748 -0.1193  0.9271  0.2625
  628SOL    HW1 1883   2.345   0.017   0.670  0.4969 -0.1369 -0.9783
  628SOL    HW2 1884   2.283   0.100   0.804 -0.3225 -0.6242 -2.4789
  629SOL     OW 1885   1.873   0.927   1.976  0.2892  0.2238  0.3727
  629SOL    HW1 1886   1.865   1.003   1.906 -0.3470 -2.3773 -1.2068
  629SOL    HW2 1887   1.915   0.964   2.064  2.5969 -2.2526 -0.5871
  630SOL     OW 1888   2.917   2.205   0.794  0.3188  0.2234  0.0599
  630SOL    HW1 1889   2.859   2.285   0.821  1.7563 -1.8874  0.8812
  630SOL    HW2 1890   2.867   2.113   0.795  0.4055 -1.1007 -1.5364
  631SOL     OW 1891   3.033   0.102   2.028  0.1267 -0.1185  0.1326
  631SOL    HW1 1892   3.104   0.161   2.071 -0.9518 -0.5091  0.8442
  631SOL    HW2 1893   3.068   0.068   1.937  0.6136  2.8671 -3.6048
  632SOL     OW 1894   2.492   2.579   0.601 -0.1471  0.3051 -0.1455
  632SOL    HW1 1895   2.548   2.647   0.656  1.7888 -1.3945 -2.9870
  632SOL    HW2 1896   2.404   2.619   0.561 -3.8054  0.1963 -0.6268
  633SOL     OW 1897   1.463   1.266   2.675  0.1739  0.0476 -0.4477
  633SOL    HW1 1898   1.438   1.328   2.754  0.8302 -1.1819 -2.8985
  633SOL    HW2 1899   1.387   1.247   2.607 -0.5420  0.8875 -0.6183
  634SOL     OW 1900   0.719   2.154   0.863 -0.1122 -0.7221 -0.0444
  634SOL    HW1 1901   0.641   2.139   0.930  1.2104 -0.9197  0.2004
  634SOL    HW2 1902   0.807   2.177   0.916 -0.6373  2.0417  0.0518
  635SOL     OW 1903   3.035   2.432   3.100  0.4547 -0.4361 -0.0653
  635SOL    HW1 1904   2.952   2.462   3.045 -0.6004 -0.9546  1.2273
  635SOL    HW2 1905   3.108   2.505   3.118 -0.8469  1.0842 -0.6040
  636SOL     OW 1906   2.376   2.704   2.057  0.0078  0.8743 -0.0016
  636SOL    HW1 1907   2.355   2.802   2.090 -3.4440  0.8646  1.4896
  636SOL    HW2 1908   2.313   2.632   2.089  1.0047  0.0869  1.0281
  637SOL     OW 1909   2.679   0.615   1.951 -0.0016 -0.4624 -0.0540
  637SOL    HW1 1910   2.598   0.656   1.901 -3.3515 -0.2357  2.0044
  637SOL    HW2 1911   2.756   0.689   1.958  1.9723 -0.3495 -1.5634
  638SOL     OW 1912   2.485   1.883   1.345 -0.1109 -0.0942  0.0902
  638SOL    HW1 1913   2.395   1.932   1.368  0.8094  2.9101  0.2756
  638SOL    HW2 1914   2.486   1.791   1.395 -0.5854 -0.6456 -1.2332
  639SOL     OW 1915   1.262   2.200   1.568 -0.0743  0.5016  0.4562
  639SOL    HW1 1916   1.351   2.246   1.610  1.0582  2.0692  0.7552
  639SOL    HW2 1917   1.182   2.203   1.631  0.7794 -1.6629  5.1945
  640SOL     OW 1918   0.178   1.230   1.536  0.2461 -0.3596  0.7282
  640SOL    HW1 1919   0.183   1.279   1.626 -0.4759  0.5840  0.7242
  640SOL    HW2 1920   0.259   1.169   1.517 -0.7098  2.1348 -2.4734
  641SOL     OW 1921   1.979   0.271   1.512 -0.3332 -0.4541  0.1356
  641SOL    HW1 1922   1.908   0.322   1.568  3.1698  0.1297  0.8469
  641SOL    HW2 1923   2.065   0.244   1.566  3.4179  0.9848  0.6845
  642SOL     OW 1924   2.028   3.064   0.363 -0.2253 -0.1328 -0.8679
  642SOL    HW1 1925   2.124   3.098   0.397  1.4840  2.1785 -1.1064
  642SOL    HW2 1926   1.947   3.098   0.425 -2.0404 -0.6400 -0.1323
  643SOL     OW 1927   2.930   1.933   2.083 -0.3873  0.0910 -0.4536
  643SOL    HW1 1928   2.841   1.903   2.042  1.8314  0.8814 -1.7103
  643SOL    HW2 1929   2.950   2.029   2.056 -2.1472 -0.1477  1.3674
  644SOL     OW 1930   2.280   2.419   1.285  0.3813 -0.4343 -0.4592
  644SOL    HW1 1931   2.354   2.370   1.225  2.0142  0.1208 -1.6584
  644SOL    HW2 1932   2.270   2.376   1.380 -2.7983 -0.8849  1.8359
  645SOL     OW 1933   0.670   0.801   1.269  0.4156  0.5313 -0.3898
  645SOL    HW1 1934   0.577   0.769   1.239  1.7609 -0.1147  3.1405
  645SOL    HW2 1935   0.718   0.862   1.200  1.7904  1.9163  0.5818
  646SOL     OW 1936   1.522   1.751   2.032 -0.4726  0.2123 -0.2395
  646SOL    HW1 1937   1.612   1.779   1.984  0.8833  1.3646 -1.0642
  646SOL    HW2 1938   1.541   1.734   2.134  1.8182 -0.9841  1.1317
  647SOL     OW 1939   0.756   1.074   0.592  0.2943  0.1265  0.7511
  647SOL    HW1 1940   0.827   1.109   0.661 -0.4427  1.3366  1.4704
  647SOL    HW2 1941   0.700   0.993   0.627  2.1976 -0.0388  0.1257
  648SOL     OW 1942   0.166   0.237   0.375  0.5624  0.0862 -0.0193
  648SOL    HW1 1943   0.100   0.165   0.401  3.1795 -0.0096 -0.6951
  648SOL    HW2 1944   0.130   0.286   0.295  1.2757  1.9040  2.1554
  649SOL     OW 1945   3.005   0.266   0.938 -0.3262  0.4336 -0.0933
  649SOL    HW1 1946   3.069   0.279   0.857 -1.0998 -2.3651 -0.1386
  649SOL    HW2 1947   3.056   0.268   1.028  0.2568 -0.1783 -2.2188
  650SOL     OW 1948   2.791   0.707   1.433  1.0908 -0.1790  0.3892
  650SOL    HW1 1949   2.686   0.691   1.440 -1.0059 -1.5798 -1.3547
  650SOL    HW2 1950   2.823   0.798   1.391  1.0764  2.1207 -2.3573
  651SOL     OW 1951   0.871   1.524   1.696  0.0668  0.3570  0.0972
  651SOL    HW1 1952   0.857   1.566   1.793  0.2031  3.6856 -1.0689
  651SOL    HW2 1953   0.970   1.526   1.665  0.7999 -0.9522 -0.3745
  652SOL     OW 1954   2.320   2.557   2.513  0.5795 -0.3219 -0.4314
  652SOL    HW1 1955   2.223   2.549   2.544  1.5048  0.3175 -1.0587
  652SOL    HW2 1956   2.331   2.640   2.452  2.7320 -1.8204  2.0019
  653SOL     OW 1957   2.690   1.240   0.182  0.3309  0.0642 -0.1880
  653SOL    HW1 1958   2.750   1.317   0.226  0.4627  1.6484  2.7348
  653SOL    HW2 1959   2.730   1.145   0.195  1.2738  1.5440  0.4339
  654SOL     OW 1960   1.194   2.077   1.254  0.0707  0.7986 -0.0816
  654SOL    HW1 1961   1.191   1.988   1.310 -1.8404 -0.7472  0.2733
  654SOL    HW2 1962   1.205   2.063   1.148  1.6143 -0.1142  0.8866
  655SOL     OW 1963   0.177   0.985   1.902  0.4092  0.0202  0.5875
  655SOL    HW1 1964   0.260   0.922   1.883  1.9770  1.5829  0.7894
  655SOL    HW2 1965   0.194   1.087   1.881  1.6395 -0.0779  0.1805
  656SOL     OW 1966   2.555   2.535   2.636  0.2836 -0.0408  0.1705
  656SOL    HW1 1967   2.630   2.527   2.564 -1.8006 -1.1188  0.1542
  656SOL    HW2 1968   2.461   2.530   2.590 -0.6037 -0.8429  1.3631
  657SOL     OW 1969   3.009   1.031   1.953  0.3397  0.7601  0.0040
  657SOL    HW1 1970   3.001   1.133   1.978 -0.7155  2.8414  0.2927
  657SOL    HW2 1971   3.108   1.001   1.936 -1.2958  0.0009 -0.4006
  658SOL     OW 1972   1.675   0.158   2.333 -0.3602 -0.3770 -0.3388
  658SOL    HW1 1973   1.669   0.085   2.399  1.0361  3.2086 -1.0245
  658SOL    HW2 1974   1.709   0.119   2.244  0.0772 -1.6831  2.5499
  659SOL     OW 1975   1.431   0.686   2.810  0.1319  0.1212  0.0045
  659SOL    HW1 1976   1.467   0.733   2.728 -0.9036  0.2018  3.0736
  659SOL    HW2 1977   1.331   0.701   2.827 -0.4947  0.3326  0.4425
  660SOL     OW 1978   1.439   0.278   1.404 -0.3273  0.4348 -0.0104
  660SOL    HW1 1979   1.478   0.313   1.495 -1.3105 -0.7163  0.7701
  660SOL    HW2 1980   1.498   0.214   1.347  3.0506  0.5039 -2.3345
  661SOL     OW 1981   2.383   1.282   0.674  0.5698 -0.5313  0.0587
  661SOL    HW1 1982   2.400   1.224   0.584 -0.6753  1.9581 -2.6496
  661SOL    HW2 1983   2.317   1.361   0.653 -2.1725  1.6937  0.4863
  662SOL     OW 1984   1.470   0.388   1.674 -0.0016  0.4010  0.0140
  662SOL    HW1 1985   1.418   0.330   1.744 -1.2565  0.5453  1.2597
  662SOL    HW2 1986   1.464   0.489   1.689  0.4812 -2.9671 -0.9426
  663SOL     OW 1987   0.793   1.625   1.934  0.3664 -0.6295 -0.0673
  663SOL    HW1 1988   0.780   1.715   1.993 -1.1650  3.5174  1.8290
  663SOL    HW2 1989   0.717   1.551   1.951  1.8232 -1.7326  1.3256
  664SOL     OW 1990   1.615   2.073   1.431 -0.3164  0.6243 -0.4468
  664SOL    HW1 1991   1.534   2.008   1.445 -0.3525  0.2875  1.4551
  664SOL    HW2 1992   1.707   2.030   1.435  0.5342  2.5576  0.4732
  665SOL     OW 1993   2.251   0.671   2.013 -0.4372  0.4013 -0.5653
  665SOL    HW1 1994   2.250   0.564   2.006  0.8384 -0.6485 -0.6246
  665SOL    HW2 1995   2.337   0.711   2.051  0.3772  0.7455 -0.4242
  666SOL     OW 1996   0.456   2.244   0.381  0.5824 -0.2144 -0.4138
  666SOL    HW1 1997   0.511   2.332   0.392 -0.9245 -1.0447  1.3456
  666SOL    HW2 1998   0.356   2.253   0.408 -0.4630  0.7861 -0.9085
  667SOL     OW 1999   2.040   0.201   1.088 -0.3457  0.4906  0.2882
  667SOL    HW1 2000   2.058   0.301   1.097  0.4349 -0.8138  0.5426
  667SOL    HW2 2001   1.956   0.177   1.142  0.9382  0.5735 -3.3151
  668SOL     OW 2002   1.982   0.494   1.076 -0.2802  0.4138 -0.2653
  668SOL    HW1 2003   2.069   0.490   1.017  2.3340 -1.3792 -0.3312
  668SOL    HW2 2004   2.009   0.492   1.179  0.4006 -1.2613 -3.0737
  669SOL     OW 2005   3.051   2.136   1.020 -0.4441  0.0862 -0.2441
  669SOL    HW1 2006   3.022   2.180   0.933  1.6161 -0.6229  0.4950
  669SOL    HW2 2007   3.000   2.173   1.106 -4.2310  0.6282 -0.2507
  670SOL     OW 2008   2.941   2.387   2.164  0.2458 -0.5914 -0.4454
  670SOL    HW1 2009   2.864   2.347   2.213  0.0272  2.2466 -2.0513
  670SOL    HW2 2010   2.913   2.472   2.118 -0.3338 -2.4246  0.3375
  671SOL     OW 2011   1.791   1.646   1.534 -1.1332 -0.1648 -0.4323
  671SOL    HW1 2012   1.777   1.678   1.439  0.6013  1.5013 -0.2870
  671SOL    HW2 2013   1.717   1.593   1.579 -1.1795 -2.2612  0.3222
  672SOL     OW 2014   0.484   0.713   2.585 -0.5093 -0.6597  0.2002
  672SOL    HW1 2015   0.411   0.707   2.513  1.0580  1.0231  0.9940
  672SOL    HW2 2016   0.465   0.797   2.654 -1.2954 -0.7407  4.4242
  673SOL     OW 2017   0.074   1.413   1.045  0.0238 -0.7034  1.0799
  673SOL    HW1 2018   0.071   1.505   1.094 -2.0794  1.0887 -1.1868
  673SOL    HW2 2019   0.162   1.397   0.994  0.4681  1.6222 -4.4159
  674SOL     OW 2020   1.558   3.015   0.234  0.0454 -0.0635 -0.1297
  674SOL    HW1 2021   1.650   3.055   0.217 -2.9387 -0.1178  0.3841
  674SOL    HW2 2022   1.513   2.972   0.152  3.8420 -2.6810 -0.4478
  675SOL     OW 2023   1.639   0.853   2.308  0.0749  0.2182  0.1441
  675SOL    HW1 2024   1.742   0.854   2.304 -2.5115 -0.5680  1.6533
  675SOL    HW2 2025   1.600   0.765   2.277  0.7588  0.3483  0.8507
  676SOL     OW 2026   2.559   1.555   2.008  0.4041 -0.2054  0.0500
  676SOL    HW1 2027   2.488   1.508   1.947 -2.9170 -1.6383 -2.3790
  676SOL    HW2 2028   2.608   1.489   2.072  0.8890  2.6803  0.1175
  677SOL     OW 2029   1.844   0.710   0.883 -0.5781  0.1627  0.2614
  677SOL    HW1 2030   1.755   0.686   0.932  0.5192  1.1435  2.0229
  677SOL    HW2 2031   1.925   0.666   0.927  1.0787  3.7495 -1.6617
  678SOL     OW 2032   0.085   0.822   1.644 -0.5871 -0.0661  0.3590
  678SOL    HW1 2033   0.161   0.864   1.703 -0.1187  0.9739 -0.7558
  678SOL    HW2 2034   0.039   0.746   1.697 -1.2976  1.0244 -0.7491
  679SOL     OW 2035   2.570   1.108   1.224  0.1150  0.1820  0.0697
  679SOL    HW1 2036   2.471   1.147   1.238 -0.4673 -0.0681  1.5928
  679SOL    HW2 2037   2.573   1.026   1.164  0.1139 -1.0394 -0.4252
  680SOL     OW 2038   2.817   0.533   1.683 -0.3503  0.6310  0.4968
  680SOL    HW1 2039   2.783   0.602   1.614  0.5550 -1.5304 -0.2972
  680SOL    HW2 2040   2.919   0.547   1.702  0.6972  0.3772 -1.5248
  681SOL     OW 2041   3.008   0.049   1.563 -0.1456 -1.1320 -0.1300
  681SOL    HW1 2042   2.997  -0.010   1.479 -2.8573 -0.7533  0.0448
  681SOL    HW2 2043   2.922   0.101   1.575  3.0957 -1.6966 -2.1485
  682SOL     OW 2044   0.620   0.079   1.282  0.4521 -0.3697 -0.1226
  682SOL    HW1 2045   0.571   0.016   1.354 -0.2335 -0.8529  0.0884
  682SOL    HW2 2046   0.698   0.030   1.229  0.1745 -2.7225 -1.6225
  683SOL     OW 2047   1.352   0.271   2.193 -0.0999  0.6158 -0.1722
  683SOL    HW1 2048   1.346   0.306   2.292 -1.8585  2.5533  1.5394
  683SOL    HW2 2049   1.453   0.276   2.150  0.8396 -0.6753 -0.8302
  684SOL     OW 2050   1.381   2.159   0.579  0.3697 -0.3306 -0.0965
  684SOL    HW1 2051   1.438   2.092   0.632  0.3585  1.1495  3.4756
  684SOL    HW2 2052   1.296   2.120   0.534  0.5287 -1.8352  1.7197
  685SOL     OW 2053   2.249   2.080   1.975 -0.1454  0.0166  0.1270
  685SOL    HW1 2054   2.322   2.009   1.959 -3.5992 -2.0469 -1.3320
  685SOL    HW2 2055   2.243   2.119   2.070 -0.1600  0.2336 -1.7073
  686SOL     OW 2056   1.549   1.860   2.904  0.8351  0.8253  0.1689
  686SOL    HW1 2057   1.570   1.796   2.982 -1.2490 -0.1945 -0.8405
  686SOL    HW2 2058   1.454   1.845   2.860 -1.4009  2.1008  0.0055
  687SOL     OW 2059   1.402   2.448   1.974 -0.3303  0.1159  0.0456
  687SOL    HW1 2060   1.403   2.343   1.953 -0.8038 -1.8848  0.1809
  687SOL    HW2 2061   1.375   2.461   2.073 -0.7058 -0.0343 -2.5282
  688SOL     OW 2062   2.051   1.506   1.716  0.1340 -0.6121  0.1891
  688SOL    HW1 2063   2.138   1.568   1.720 -0.5844  0.7150 -0.4600
  688SOL    HW2 2064   2.035   1.458   1.625 -1.1729  0.9578 -0.2247
  689SOL     OW 2065   2.347   1.117   2.802  0.6062  0.1134 -0.0266
  689SOL    HW1 2066   2.270   1.049   2.805  0.9916  1.3250  0.0289
  689SOL    HW2 2067   2.421   1.100   2.867 -1.5314 -1.4512 -0.1362
  690SOL     OW 2068   2.219   2.763   0.033  0.0531 -0.6497  0.2155
  690SOL    HW1 2069   2.173   2.757  -0.060 -5.2088 -2.8310 -0.4387
  690SOL    HW2 2070   2.179   2.705   0.101 -2.3681  3.5577  0.2216
  691SOL     OW 2071   2.570   0.399   2.090 -0.3561 -0.5128  0.2270
  691SOL    HW1 2072   2.622   0.307   2.082  0.2703 -0.3126 -1.5846
  691SOL    HW2 2073   2.603   0.470   2.020  0.6210  2.4478 -0.3157
  692SOL     OW 2074   2.672   1.207   0.737  0.4336 -1.1026  0.3447
  692SOL    HW1 2075   2.605   1.229   0.660 -1.2739 -1.2099 -0.2625
  692SOL    HW2 2076   2.718   1.296   0.778 -0.3449  1.1366  0.9665
  693SOL     OW 2077   2.887   2.912   0.658 -0.1429  0.6574 -0.0525
  693SOL    HW1 2078   2.903   2.999   0.713 -2.8759 -0.1644 -0.9642
  693SOL    HW2 2079   2.885   2.938   0.555 -1.5794  1.7654  1.5020
  694SOL     OW 2080   2.383   2.258   0.119 -0.6894 -0.8543 -0.1323
  694SOL    HW1 2081   2.394   2.323   0.204  0.7690 -0.9900  2.0228
  694SOL    HW2 2082   2.287   2.238   0.086  2.9412  0.0588 -0.0457
  695SOL     OW 2083   0.494   3.017   1.455  0.2992  0.4363  0.2330
  695SOL    HW1 2084   0.439   2.954   1.390 -0.9371 -1.8468  0.5778
  695SOL    HW2 2085   0.442   3.036   1.542 -2.4723 -1.6472  2.1237
  696SOL     OW 2086   2.750   1.984   0.772  0.0558 -0.2083  0.2460
  696SOL    HW1 2087   2.824   1.910   0.796 -0.9635 -2.4528  0.8999
  696SOL    HW2 2088   2.687   1.947   0.695  0.2995  1.1959  0.0997
  697SOL     OW 2089   1.703   1.844   1.840 -0.1489 -0.0797 -0.9489
  697SOL    HW1 2090   1.782   1.823   1.779 -1.0929 -1.2942  2.1605
  697SOL    HW2 2091   1.695   1.944   1.865  0.7251  1.4015 -0.9192
  698SOL     OW 2092   2.908   0.396   2.680  0.0955  0.4199 -0.3504
  698SOL    HW1 2093   2.917   0.372   2.578 -0.8064 -0.8239 -1.3221
  698SOL    HW2 2094   2.975   0.344   2.741 -2.2076 -0.4103 -0.8858
  699SOL     OW 2095   1.657   0.106   2.926 -0.0467 -0.3378  0.0387
  699SOL    HW1 2096   1.630   0.018   2.874 -0.3581 -0.9373 -1.3553
  699SOL    HW2 2097   1.708   0.167   2.860 -2.8473  0.8344 -0.6724
  700SOL     OW 2098   1.009   2.273   1.347  0.2505 -0.5947 -0.5536
  700SOL    HW1 2099   1.101   2.220   1.339  4.7677  1.0249 -0.4230
  700SOL    HW2 2100   0.919   2.226   1.333  0.9622  2.4918  0.7937
  701SOL     OW 2101   1.890   2.891   0.016  0.2853 -0.5290 -0.4489
  701SOL    HW1 2102   1.892   2.844   0.103  0.0738  3.4488  0.5465
  701SOL    HW2 2103   1.929   2.987   0.022  3.5444 -0.7814  2.3602
  702SOL     OW 2104   2.110   1.374   1.950 -0.0226 -0.1619  0.1535
  702SOL    HW1 2105   2.205   1.328   1.936  0.9082  0.1538 -1.2141
  702SOL    HW2 2106   2.072   1.419   1.861 -1.1802 -0.8341 -1.0290
  703SOL     OW 2107   1.990   0.924   1.452 -0.2542 -0.4961  0.0239
  703SOL    HW1 2108   1.963   0.829   1.488 -0.6817 -0.2205 -0.6604
  703SOL    HW2 2109   2.043   0.979   1.524  1.6633 -2.6026  0.4939
  704SOL     OW 2110   0.329   2.075   1.732 -0.0801 -0.0187  0.7120
  704SOL    HW1 2111   0.377   2.035   1.813  0.3753  1.6908  0.6127
  704SOL    HW2 2112   0.392   2.139   1.674 -0.0668  0.2642 -0.9339
  705SOL     OW 2113   2.483   1.410   0.908  0.1322  0.1509 -0.6800
  705SOL    HW1 2114   2.460   1.358   0.820  0.2969 -2.4145 -0.2118
  705SOL    HW2 2115   2.580   1.402   0.936 -0.7685 -1.3671  0.6190
  706SOL     OW 2116   0.551   1.729   1.788  0.5227  0.0330  0.3608
  706SOL    HW1 2117   0.594   1.716   1.691 -0.3126 -1.7587 -4.0988
  706SOL    HW2 2118   0.609   1.688   1.859  1.2857 -0.6404 -1.3903
  707SOL     OW 2119   2.326   1.203   1.908  0.3277  0.4432  0.9439
  707SOL    HW1 2120   2.422   1.195   1.951  0.0564  1.6458  5.1325
  707SOL    HW2 2121   2.275   1.112   1.914  1.5657  1.1968  0.3363
  708SOL     OW 2122   3.038   0.516   3.006 -0.1018 -0.7448  0.9190
  708SOL    HW1 2123   3.089   0.583   2.938  1.1240  2.8530 -0.8223
  708SOL    HW2 2124   3.020   0.422   2.959 -1.8261 -1.1808  0.7290
  709SOL     OW 2125   1.857   1.906   0.419  0.3547 -0.3240 -0.8641
  709SOL    HW1 2126   1.852   2.006   0.448 -0.0431 -0.1769 -0.2682
  709SOL    HW2 2127   1.890   1.894   0.323 -0.9963 -0.2135  0.7810
  710SOL     OW 2128   1.757   1.538   2.454  0.1864 -0.2853  0.9945
  710SOL    HW1 2129   1.834   1.482   2.410  1.3750 -0.0917 -1.1043
  710SOL    HW2 2130   1.737   1.517   2.551  0.1393  0.6315 -2.0532
  711SOL     OW 2131   2.703   2.861   0.969 -0.0291  0.2615 -0.2443
  711SOL    HW1 2132   2.661   2.951   0.928  0.8668  1.7855 -1.5852
  711SOL    HW2 2133   2.809   2.876   0.987  1.9447 -0.5783  2.5707
  712SOL     OW 2134   1.365   2.138   1.938  1.0763 -1.0172  0.5393
  712SOL    HW1 2135   1.457   2.096   1.908 -2.4063 -0.4768 -1.3102
  712SOL    HW2 2136   1.288   2.120   1.868 -0.4358  1.8193  0.5321
  713SOL     OW 2137   2.785   1.441   2.531 -0.0278 -0.4615 -0.5672
  713SOL    HW1 2138   2.783   1.340   2.519 -2.4721  1.5922  2.8458
  713SOL    HW2 2139   2.701   1.473   2.585  1.2127 -0.9215  1.0793
  714SOL     OW 2140   2.670   0.457   2.355  0.1897  0.4832  0.5422
  714SOL    HW1 2141   2.617   0.416   2.429  4.6429 -1.5391 -3.0504
  714SOL    HW2 2142   2.632   0.422   2.266 -2.1363  0.9879  1.6368
  715SOL     OW 2143   1.631   2.164   1.174 -0.4755 -0.2434 -0.6218
  715SOL    HW1 2144   1.551   2.202   1.123  0.2081 -1.4763  2.8798
  715SOL    HW2 2145   1.610   2.142   1.273 -1.3920  0.4666  0.3103
  716SOL     OW 2146   1.251   0.107   1.552 -0.1043 -0.1840  0.4471
  716SOL    HW1 2147   1.146   0.121   1.529  0.3903 -1.6219  0.5357
  716SOL    HW2 2148   1.317   0.166   1.490 -1.6561 -0.1555 -0.0905
  717SOL     OW 2149   1.169   0.585   1.627 -0.2690 -0.2799 -0.0380
  717SOL    HW1 2150   1.267   0.599   1.663  2.4450  0.1647 -1.2103
  717SOL    HW2 2151   1.172   0.579   1.526 -1.3478  0.4181  0.9658
  718SOL     OW 2152   0.650   0.899   0.957  0.0707  0.2642 -0.1641
  718SOL    HW1 2153   0.636   0.889   0.855 -1.1494  1.4394  1.2048
  718SOL    HW2 2154   0.619   0.995   0.987 -1.3736  0.5742 -1.5726
  719SOL     OW 2155   0.726   1.713   2.275 -0.4831 -0.5301  0.0014
  719SOL    HW1 2156   0.792   1.763   2.342  0.4265  1.2494  1.2143
  719SOL    HW2 2157   0.662   1.651   2.323  1.4265  1.2314  0.0543
  720SOL     OW 2158   2.152   1.176   0.286 -0.6112 -0.5798 -0.2892
  720SOL    HW1 2159   2.227   1.111   0.256  0.1906  0.6824 -0.2637
  720SOL    HW2 2160   2.122   1.164   0.388  0.5613 -0.4732  2.7386
  721SOL     OW 2161   2.244   2.932   2.144  0.6995  0.4564  0.5802
  721SOL    HW1 2162   2.253   2.993   2.057 -1.0116  1.9412 -3.0747
  721SOL    HW2 2163   2.145   2.903   2.162  0.8019  0.5400 -0.9220
  722SOL     OW 2164   2.335   1.695   0.545  0.1663  0.1589 -0.6438
  722SOL    HW1 2165   2.401   1.672   0.467 -0.7517  2.0130  0.8518
  722SOL    HW2 2166   2.255   1.749   0.514  2.2219  0.1153 -0.1502
  723SOL     OW 2167   2.633   2.760   1.944  0.3337 -0.1218 -0.1719
  723SOL    HW1 2168   2.682   2.843   1.981  2.5763 -0.8490 -1.6865
  723SOL    HW2 2169   2.549   2.742   2.001  2.5523  0.0789 -0.3070
  724SOL     OW 2170   0.375   2.525   2.411 -0.8649 -0.1869 -0.1305
  724SOL    HW1 2171   0.272   2.515   2.402  0.9438  1.3067  1.1697
  724SOL    HW2 2172   0.413   2.486   2.499  1.2656  1.2111  1.9916
  725SOL     OW 2173   2.454   2.826   1.455 -0.1947 -0.1887 -0.3571
  725SOL    HW1 2174   2.515   2.844   1.370  5.6695  0.9846 -2.6758
  725SOL    HW2 2175   2.443   2.726   1.479  1.1502  0.7937  0.5873
  726SOL     OW 2176   2.493   2.333   0.727  0.5491 -0.1722 -0.2716
  726SOL    HW1 2177   2.494   2.432   0.693  0.1802  0.7782  1.4323
  726SOL    HW2 2178   2.464   2.263   0.649 -2.4759  0.9354 -0.3396
  727SOL     OW 2179   0.116   3.080   0.121  0.2618 -0.4586 -0.1027
  727SOL    HW1 2180   0.199   3.131   0.098 -2.6489 -1.6147  0.9089
  727SOL    HW2 2181   0.104   2.994   0.061 -3.7107  2.4567 -3.0659
  728SOL     OW 2182   2.923   0.742   0.956 -0.5625  0.0800  0.2946
  728SOL    HW1 2183   2.851   0.725   0.881 -0.4079 -2.0722 -0.7296
  728SOL    HW2 2184   2.889   0.698   1.047  1.0709 -0.3860  2.0620
  729SOL     OW 2185   0.016   2.551   0.781  0.3497  0.4301 -0.0069
  729SOL    HW1 2186   0.044   2.499   0.864 -2.2997  1.1730 -2.5822
  729SOL    HW2 2187   0.071   2.523   0.699 -1.0854  1.7234  1.7769
  730SOL     OW 2188   2.562   0.727   0.905 -0.0749 -0.3523 -0.6818
  730SOL    HW1 2189   2.542   0.830   0.903  3.1485 -0.1294  0.5269
  730SOL    HW2 2190   2.587   0.690   0.811 -2.0070  1.2795 -0.9075
  731SOL     OW 2191   3.082   2.237   2.350 -0.1161 -0.0777 -0.1073
  731SOL    HW1 2192   3.005   2.215   2.416 -2.7026  2.0821  1.4553
  731SOL    HW2 2193   3.064   2.318   2.288  0.6741 -1.8004 -0.7477
  732SOL     OW 2194   1.327   2.751   1.978 -0.4322  0.0396 -0.4055
  732SOL    HW1 2195   1.306   2.678   2.051 -0.8365  1.5572  2.5728
  732SOL    HW2 2196   1.317   2.714   1.882 -1.1541  0.3182  0.4748
  733SOL     OW 2197   0.013   0.627   2.241  0.5231 -0.8466  0.4164
  733SOL    HW1 2198   0.089   0.681   2.195  0.3638 -0.5054  0.2990
  733SOL    HW2 2199  -0.055   0.586   2.172  1.0343  0.5390 -0.2705
  734SOL     OW 2200   1.494   0.389   2.708 -0.6586  0.1026  0.0208
  734SOL    HW1 2201   1.501   0.456   2.784  3.0736  0.3352 -1.6642
  734SOL    HW2 2202   1.407   0.333   2.719 -0.2786  0.7693 -0.0378
  735SOL     OW 2203   2.908   2.646   2.321  0.7667 -0.4951 -0.6932
  735SOL    HW1 2204   2.882   2.653   2.223  4.1931  0.5766  1.3632
  735SOL    HW2 2205   3.010   2.648   2.329  1.9589 -2.8702 -0.7879
  736SOL     OW 2206   0.902   0.401   2.528  0.1023 -0.3042  0.2420
  736SOL    HW1 2207   0.806   0.427   2.562 -0.2577 -0.9615  0.7474
  736SOL    HW2 2208   0.906   0.333   2.447  1.7380  1.2266  0.1993
  737SOL     OW 2209   2.672   0.491   2.785  0.0380 -0.2629 -0.1392
  737SOL    HW1 2210   2.665   0.454   2.882 -0.3503 -1.5560  1.4171
  737SOL    HW2 2211   2.765   0.476   2.748 -3.8847 -0.0960 -2.6522
  738SOL     OW 2212   1.770   1.223   2.882  0.4592 -0.5038  0.7526
  738SOL    HW1 2213   1.868   1.210   2.848 -0.7890 -0.7020  1.2790
  738SOL    HW2 2214   1.707   1.141   2.865 -3.3693  0.7055  0.9529
  739SOL     OW 2215   1.843   0.713   0.617 -0.1343  0.4263 -0.0860
  739SOL    HW1 2216   1.858   0.712   0.720 -1.4288 -0.8857 -3.5862
  739SOL    HW2 2217   1.834   0.615   0.576  0.4452 -3.3579 -2.3901
  740SOL     OW 2218   1.962   1.945   2.346 -0.0687  0.5144  0.3456
  740SOL    HW1 2219   2.031   1.876   2.378 -1.7098  0.6885 -2.8907
  740SOL    HW2 2220   1.909   1.908   2.259 -2.9893 -2.4977 -3.2981
  741SOL     OW 2221   2.540   0.111   2.456 -0.3875  0.0498  0.1597
  741SOL    HW1 2222   2.643   0.113   2.438  1.0598 -2.0048  0.2277
  741SOL    HW2 2223   2.482   0.130   2.373  1.1825 -1.2511 -1.4131
  742SOL     OW 2224   2.210   1.464   0.183  0.1131 -0.0362 -0.0093
  742SOL    HW1 2225   2.130   1.524   0.198  2.6873 -2.2934 -0.1525
  742SOL    HW2 2226   2.183   1.363   0.192  0.4981 -0.4638 -0.5708
  743SOL     OW 2227   1.795   0.632   2.555  0.6940 -0.4557  0.0992
  743SOL    HW1 2228   1.790   0.558   2.481  1.4683  1.6231 -3.4345
  743SOL    HW2 2229   1.706   0.677   2.576  1.0334  1.8301 -1.7254
  744SOL     OW 2230   2.666   2.131   0.151 -0.6359 -0.0773 -0.5397
  744SOL    HW1 2231   2.599   2.164   0.222 -0.2683  0.7320 -0.6304
  744SOL    HW2 2232   2.659   2.037   0.116  0.7619  0.4807 -2.7565
  745SOL     OW 2233   2.190   2.498   2.214 -0.6852 -0.1486  0.2029
  745SOL    HW1 2234   2.102   2.521   2.165 -0.7321  1.3612 -3.2141
  745SOL    HW2 2235   2.177   2.496   2.317 -0.6308  0.4308 -1.1886
  746SOL     OW 2236   3.088   2.550   1.785  0.1473  0.1955 -0.2259
  746SOL    HW1 2237   3.168   2.528   1.722  1.3328 -1.0228 -0.8404
  746SOL    HW2 2238   3.098   2.643   1.833 -2.1638  0.4276 -0.8310
  747SOL     OW 2239   3.092   1.781   1.673  0.3652 -0.0216  0.2449
  747SOL    HW1 2240   3.020   1.721   1.638  0.2059  1.8672 -0.4369
  747SOL    HW2 2241   3.162   1.785   1.597 -1.9588 -4.2431  0.1782
  748SOL     OW 2242   1.818   2.699   2.945 -0.0992  0.1714  0.2212
  748SOL    HW1 2243   1.816   2.773   3.017 -2.5371  2.3010 -0.7058
  748SOL    HW2 2244   1.752   2.713   2.873 -0.1595  1.1343 -1.1376
  749SOL     OW 2245   1.283   2.911   0.813  0.8129  0.4037  0.0601
  749SOL    HW1 2246   1.186   2.961   0.818 -5.1153  1.6705 -0.5879
  749SOL    HW2 2247   1.349   2.966   0.758 -1.6232 -0.0564  0.1987
  750SOL     OW 2248   2.275   0.222   1.867 -0.0352 -0.4861  0.1766
  750SOL    HW1 2249   2.307   0.281   1.782 -1.8764  0.4419  2.3832
  750SOL    HW2 2250   2.272   0.285   1.952 -1.8248  1.6633 -0.3715
  751SOL     OW 2251   0.811   2.143   2.915 -0.1213  0.7168 -0.0733
  751SOL    HW1 2252   0.883   2.145   2.986 -1.3293 -0.3477 -1.7541
  751SOL    HW2 2253   0.731   2.079   2.936 -1.8625  1.1361 -0.0630
  752SOL     OW 2254   1.360   0.802   1.136  0.0150  0.5685  0.0044
  752SOL    HW1 2255   1.405   0.889   1.170 -2.7619  0.6445  0.4496
  752SOL    HW2 2256   1.410   0.720   1.179  1.2615  0.0878  0.9927
  753SOL     OW 2257   1.002   2.592   1.813 -0.2965  0.5994 -0.2269
  753SOL    HW1 2258   1.108   2.615   1.787  1.7284  1.3927 -1.6814
  753SOL    HW2 2259   0.947   2.677   1.855 -0.5867  2.5839 -0.6008
  754SOL     OW 2260   1.140   1.185   2.996  0.3326 -0.2763 -0.0223
  754SOL    HW1 2261   1.205   1.130   2.937  1.4290 -0.7648  0.7603
  754SOL    HW2 2262   1.183   1.259   3.050 -0.3396 -2.6615  2.8209
  755SOL     OW 2263   1.943   0.483   2.196  0.9202 -0.3508  0.1636
  755SOL    HW1 2264   2.021   0.428   2.228 -2.3090  2.3772 -1.6029
  755SOL    HW2 2265   1.854   0.468   2.245 -0.5281  2.5132  2.3517
  756SOL     OW 2266   2.506   0.983   2.970  0.2968  0.2828  0.2745
  756SOL    HW1 2267   2.605   0.956   2.980 -1.8058 -2.9667  0.6661
  756SOL    HW2 2268   2.445   0.904   2.996  0.2266 -1.5810 -0.2972
  757SOL     OW 2269   0.123   0.422   1.965 -0.6974  0.1637  0.2214
  757SOL    HW1 2270   0.172   0.325   1.974  4.6420 -1.7676 -0.0353
  757SOL    HW2 2271   0.023   0.426   1.986  1.3494  0.5496  1.0834
  758SOL     OW 2272   2.312   0.075   1.429 -0.1296 -0.1253  0.5780
  758SOL    HW1 2273   2.293  -0.020   1.473 -0.8618 -1.1157  1.7442
  758SOL    HW2 2274   2.293   0.077   1.328 -0.0130  1.0167  1.5148
  759SOL     OW 2275   1.718   0.121   0.087 -0.3846  0.1201  0.0543
  759SOL    HW1 2276   1.688   0.125  -0.013  1.4216 -2.9666  1.5317
  759SOL    HW2 2277   1.817   0.097   0.084 -2.1852 -1.8279  0.6639
  760SOL     OW 2278   2.717   2.059   2.837 -0.2587 -1.0918  0.3880
  760SOL    HW1 2279   2.654   2.087   2.911  0.9108 -0.8787 -1.4728
  760SOL    HW2 2280   2.792   2.126   2.812  0.1809 -0.3970 -2.2314
  761SOL     OW 2281   1.944   1.781   1.709 -0.2289  0.3337  0.1079
  761SOL    HW1 2282   1.943   1.713   1.788  1.1788  0.7517  1.7382
  761SOL    HW2 2283   1.921   1.730   1.620  0.0322  3.1419 -2.2307
  762SOL     OW 2284   0.508   2.391   0.936 -0.2038 -0.2008  0.0116
  762SOL    HW1 2285   0.560   2.432   0.855  0.3266  1.2654 -0.8396
  762SOL    HW2 2286   0.556   2.406   1.031 -0.2088  0.9821  1.5828
  763SOL     OW 2287   2.123   1.604   3.006  0.2839 -0.1787  0.2007
  763SOL    HW1 2288   2.212   1.552   3.013 -3.0554  1.1249 -1.3698
  763SOL    HW2 2289   2.044   1.553   3.049 -1.6203 -0.0662  0.8548
  764SOL     OW 2290   0.673   0.580   0.629  0.5875  0.1652  0.2869
  764SOL    HW1 2291   0.576   0.547   0.620 -1.0182  1.0214 -0.9845
  764SOL    HW2 2292   0.716   0.560   0.716 -2.3799  2.0514 -1.3764
  765SOL     OW 2293   0.816   0.273   0.710 -0.6223  0.4454  0.0758
  765SOL    HW1 2294   0.884   0.287   0.629  2.8916  0.6386 -1.9086
  765SOL    HW2 2295   0.803   0.358   0.764 -0.5780 -1.9346 -4.7269
  766SOL     OW 2296   2.903   2.180   3.058  0.1909 -0.5493  0.3140
  766SOL    HW1 2297   2.806   2.192   3.083  0.1120 -2.7778 -3.5780
  766SOL    HW2 2298   2.967   2.262   3.072  0.6015 -0.5194  0.5798
  767SOL     OW 2299   2.833   1.617   0.548 -0.1842  0.1304  0.6239
  767SOL    HW1 2300   2.768   1.663   0.615 -0.7570  1.2062 -2.2084
  767SOL    HW2 2301   2.925   1.664   0.541  0.0706 -3.2124  3.8665
  768SOL     OW 2302   1.024   0.227   0.179 -0.1507 -0.0634 -0.2358
  768SOL    HW1 2303   1.005   0.239   0.281 -0.3383 -0.0677 -0.9237
  768SOL    HW2 2304   1.089   0.151   0.162 -0.2650  0.2761  1.2789
  769SOL     OW 2305   1.126   1.808   2.292  0.3207  0.1982  0.3417
  769SOL    HW1 2306   1.045   1.829   2.354 -4.0166  1.9833  1.1943
  769SOL    HW2 2307   1.218   1.822   2.341  0.6162 -2.0127  0.0088
  770SOL     OW 2308   0.185   1.153   2.294 -0.5627  0.3023  0.6141
  770SOL    HW1 2309   0.198   1.176   2.394  0.8634 -2.4637 -1.0365
  770SOL    HW2 2310   0.087   1.138   2.269 -1.9902 -1.4504  3.4259
  771SOL     OW 2311   3.067   2.798   1.910 -0.1921 -0.2453  0.3356
  771SOL    HW1 2312   3.007   2.828   1.831  1.2842  2.9971  1.5746
  771SOL    HW2 2313   3.025   2.833   1.997 -0.0999  1.1031 -2.9638
  772SOL     OW 2314   2.364   0.206   2.828  0.4284 -0.3223 -0.1406
  772SOL    HW1 2315   2.426   0.138   2.786  0.4682  2.0621 -0.1532
  772SOL    HW2 2316   2.343   0.197   2.931  0.3086  0.6087  1.0338
  773SOL     OW 2317   0.575   2.100   2.412 -0.0437  0.4956 -0.3924
  773SOL    HW1 2318   0.577   2.187   2.352 -0.3178 -2.7075 -3.1535
  773SOL    HW2 2319   0.472   2.072   2.425 -2.2606 -2.0443 -1.6268
  774SOL     OW 2320   2.093   0.010   2.626 -0.1132  0.0992 -0.4427
  774SOL    HW1 2321   2.101   0.106   2.665 -2.2769 -0.1956 -3.5713
  774SOL    HW2 2322   2.146  -0.056   2.688 -2.3455 -0.6213  2.2956
  775SOL     OW 2323   2.546   2.878   2.272  0.7677 -0.0096 -0.2408
  775SOL    HW1 2324   2.450   2.897   2.317 -2.2947  0.2458 -0.6059
  775SOL    HW2 2325   2.610   2.834   2.338 -0.9447  3.3774  0.0302
  776SOL     OW 2326   0.017   1.217   0.201  0.0667  0.0007  0.3137
  776SOL    HW1 2327  -0.039   1.195   0.117 -0.7250  2.0579  0.5345
  776SOL    HW2 2328  -0.053   1.234   0.279 -1.5804  0.7551 -2.0293
  777SOL     OW 2329   0.350   2.990   0.491 -0.2352 -0.3481 -0.2286
  777SOL    HW1 2330   0.252   2.980   0.459  2.7454  2.4247 -0.2544
  777SOL    HW2 2331   0.400   2.912   0.451 -3.2020  1.1915  0.5399
  778SOL     OW 2332   1.369   1.991   0.290  0.3852 -0.3510  0.4574
  778SOL    HW1 2333   1.275   2.011   0.334  1.5051 -0.3997  0.8238
  778SOL    HW2 2334   1.382   2.010   0.188  0.9221  0.2589  1.9871
  779SOL     OW 2335   0.151   0.819   0.473  0.2397 -0.2831 -0.8672
  779SOL    HW1 2336   0.087   0.737   0.471  1.2633  0.7663  0.8782
  779SOL    HW2 2337   0.104   0.906   0.518 -1.3781  1.5139  1.1988
  780SOL     OW 2338   0.104   0.337   2.344 -0.0722 -0.3022 -0.2057
  780SOL    HW1 2339   0.090   0.413   2.413  0.8052 -0.6322  0.8229
  780SOL    HW2 2340   0.188   0.352   2.288 -2.2461 -0.1797 -0.7108
  781SOL     OW 2341   0.686   1.660   1.548 -0.3787 -0.3031  0.2205
  781SOL    HW1 2342   0.760   1.598   1.589 -0.7432  0.9642 -0.3211
  781SOL    HW2 2343   0.598   1.613   1.520  0.1414  0.1929 -1.7824
  782SOL     OW 2344   2.602   3.096   0.904 -0.2514  0.3665  0.1367
  782SOL    HW1 2345   2.514   3.120   0.849 -2.0015 -0.3442  1.1943
  782SOL    HW2 2346   2.591   3.129   1.003 -1.3844 -0.3287 -0.4098
  783SOL     OW 2347   2.709   0.706   2.417  0.3460  0.6404  0.3735
  783SOL    HW1 2348   2.689   0.713   2.520  0.5733 -1.1569  0.5990
  783SOL    HW2 2349   2.718   0.603   2.392 -0.8578 -0.3855  1.8775
  784SOL     OW 2350   1.428   2.107   0.034 -0.0090 -0.3285 -0.2783
  784SOL    HW1 2351   1.503   2.171   0.073 -1.1362  1.0460 -1.5259
  784SOL    HW2 2352   1.409   2.132  -0.065 -1.0460  0.1018 -3.4475
  785SOL     OW 2353   2.106   0.278   0.011 -0.3670 -0.3144 -0.5948
  785SOL    HW1 2354   2.029   0.313   0.075 -2.9275 -0.4439 -0.1740
  785SOL    HW2 2355   2.136   0.354  -0.057  3.9516 -1.4275  2.2172
  786SOL     OW 2356   2.040   2.190   2.279  0.3582  0.4994 -0.5797
  786SOL    HW1 2357   2.001   2.091   2.304 -0.0127 -2.9256 -0.8786
  786SOL    HW2 2358   2.141   2.196   2.279 -3.4145 -0.9315  1.4163
  787SOL     OW 2359   1.422   0.529   0.892 -0.5402  0.1233 -0.5301
  787SOL    HW1 2360   1.329   0.577   0.896 -0.4342 -1.3325 -1.7504
  787SOL    HW2 2361   1.446   0.510   0.794 -0.0946 -0.5819  3.8625
  788SOL     OW 2362   1.209   0.445   0.014 -0.2827  0.0003  0.3126
  788SOL    HW1 2363   1.114   0.427  -0.024 -0.9905  0.7818  1.6168
  788SOL    HW2 2364   1.202   0.505   0.096 -1.4218  1.2349 -1.4635
  789SOL     OW 2365   2.574   0.124   1.958 -0.2398  0.1189 -0.1586
  789SOL    HW1 2366   2.499   0.103   1.889  2.8154  1.2373  2.3940
  789SOL    HW2 2367   2.631   0.039   1.983  0.1559  1.2712 -1.9208
  790SOL     OW 2368   2.628   2.801   0.713  0.4286 -0.7857  0.2628
  790SOL    HW1 2369   2.676   2.879   0.662  0.3123  1.1565 -2.3695
  790SOL    HW2 2370   2.648   2.800   0.811  0.9592 -0.9518 -2.9452
  791SOL     OW 2371   1.923   1.193   0.112 -0.1984 -0.2053  0.5345
  791SOL    HW1 2372   1.855   1.141   0.165 -0.0954  0.2431 -0.3553
  791SOL    HW2 2373   2.010   1.199   0.164  4.1652 -0.5775 -2.2455
  792SOL     OW 2374   0.436   1.844   2.196 -0.0909 -0.9538 -0.0344
  792SOL    HW1 2375   0.500   1.917   2.236 -0.3330 -1.6159 -0.1359
  792SOL    HW2 2376   0.468   1.751   2.228 -3.6021  0.2154 -0.5869
  793SOL     OW 2377   2.092   1.615   2.081 -0.2938 -0.2755 -0.2127
  793SOL    HW1 2378   2.164   1.676   2.037  0.2622  1.9173  0.1911
  793SOL    HW2 2379   2.104   1.520   2.049  0.8645  2.1005 -2.1812
  794SOL     OW 2380   0.470   1.566   2.256  0.3072 -0.6358  0.1739
  794SOL    HW1 2381   0.496   1.497   2.183  2.9981  1.7087 -0.6903
  794SOL    HW2 2382   0.395   1.534   2.326  1.4394 -0.6337  2.6657
  795SOL     OW 2383   2.475   2.238   1.800  0.1900  0.2605  0.1850
  795SOL    HW1 2384   2.478   2.218   1.899  0.3345  0.3627 -0.3530
  795SOL    HW2 2385   2.419   2.172   1.744  1.5216 -3.2247 -1.7625
  796SOL     OW 2386   3.085   1.087   2.715 -0.0886  0.5190  0.1455
  796SOL    HW1 2387   2.988   1.052   2.722 -1.0976  3.0500 -0.0750
  796SOL    HW2 2388   3.132   1.112   2.806  1.7498  0.2749  2.5194
  797SOL     OW 2389   0.809   0.647   1.462 -0.1528 -0.4366 -0.1434
  797SOL    HW1 2390   0.895   0.696   1.502  0.8169  0.9985 -1.1551
  797SOL    HW2 2391   0.754   0.706   1.392 -1.9462 -1.2477 -0.4446
  798SOL     OW 2392   1.351   0.464   1.187 -0.5648 -0.5497  0.3071
  798SOL    HW1 2393   1.413   0.442   1.264 -1.9561  0.3178 -0.9541
  798SOL    HW2 2394   1.399   0.483   1.099 -1.5104 -0.2611  0.6644
  799SOL     OW 2395   1.946   2.643   1.053  0.4952  0.2962 -0.0716
  799SOL    HW1 2396   1.861   2.612   1.107  1.9313 -0.8672 -0.4454
  799SOL    HW2 2397   1.929   2.693   0.963 -3.0225 -0.0506 -2.0248
  800SOL     OW 2398   3.076   0.629   1.800  0.1508  0.0816 -0.3952
  800SOL    HW1 2399   3.025   0.704   1.855 -1.1771  1.4136 -1.0024
  800SOL    HW2 2400   3.114   0.558   1.866  1.7201  0.9865 -1.1145
  801SOL     OW 2401   1.895   2.168   0.185  0.1924 -0.6967 -0.2439
  801SOL    HW1 2402   1.829   2.148   0.107 -1.0999 -1.7986 -1.2264
  801SOL    HW2 2403   1.985   2.122   0.160 -1.4026  1.2758 -1.5630
  802SOL     OW 2404   0.732   0.810   2.575  0.5993  0.0170  0.4056
  802SOL    HW1 2405   0.799   0.793   2.497 -0.7641  1.8112  0.7282
  802SOL    HW2 2406   0.640   0.770   2.562  0.8117 -3.0853 -2.0828
  803SOL     OW 2407   0.907   0.156   0.977 -0.1901 -0.4417 -0.0410
  803SOL    HW1 2408   0.986   0.221   1.007  0.2357 -0.6405  0.0164
  803SOL    HW2 2409   0.858   0.189   0.889 -0.4445  0.4388  0.6298
  804SOL     OW 2410   0.413   3.037   2.078  0.4445 -0.8635  0.0180
  804SOL    HW1 2411   0.338   3.102   2.039 -0.2234  0.2991 -0.0620
  804SOL    HW2 2412   0.388   2.934   2.074 -0.2587 -1.2847 -1.0024
  805SOL     OW 2413   2.456   0.317   0.302  0.0506 -0.0296 -0.3131
  805SOL    HW1 2414   2.553   0.322   0.326 -0.1247  0.1487  2.8320
  805SOL    HW2 2415   2.450   0.274   0.207 -1.7712 -1.6876 -1.0640
  806SOL     OW 2416   0.702   2.398   1.671 -0.4966 -0.5192 -0.2378
  806SOL    HW1 2417   0.682   2.497   1.686 -0.8393 -2.6219 -0.9174
  806SOL    HW2 2418   0.800   2.377   1.644 -0.7089  0.4824  3.1793
  807SOL     OW 2419   2.520   0.950   0.439  0.2039 -0.6314 -0.1033
  807SOL    HW1 2420   2.606   0.907   0.481  2.7725 -0.2210 -0.0468
  807SOL    HW2 2421   2.510   0.944   0.337  3.5269 -2.7956 -0.7313
  808SOL     OW 2422   0.560   1.991   2.976 -0.1707 -0.0339  0.0364
  808SOL    HW1 2423   0.533   2.000   3.074 -2.0745 -0.3871  0.6413
  808SOL    HW2 2424   0.533   1.900   2.938 -1.2213  2.3272  0.4013
  809SOL     OW 2425   2.690   1.989   1.910  0.1209 -0.3137 -0.2680
  809SOL    HW1 2426   2.777   2.047   1.900 -1.7861  2.5282 -0.6412
  809SOL    HW2 2427   2.654   1.949   1.820 -0.1325 -0.3593  0.6664
  810SOL     OW 2428   2.104   1.127   0.547  0.0027  0.0952  0.0380
  810SOL    HW1 2429   2.093   1.033   0.602 -2.4134 -4.8065  0.2775
  810SOL    HW2 2430   2.038   1.202   0.582 -1.9718 -0.3316 -0.6276
  811SOL     OW 2431   1.310   2.346   1.217 -0.6208  0.7274 -0.0929
  811SOL    HW1 2432   1.292   2.247   1.251 -1.7184  1.6550  2.1919
  811SOL    HW2 2433   1.254   2.380   1.135  0.1368  0.9816 -0.6127
  812SOL     OW 2434   1.370   0.761   1.975 -0.0017  0.0838 -0.1406
  812SOL    HW1 2435   1.440   0.828   2.019 -0.5136  2.0770  0.5525
  812SOL    HW2 2436   1.282   0.816   1.961  1.6253  1.7184 -0.8204
  813SOL     OW 2437   1.712   2.023   2.489  0.5169  0.0647  0.1556
  813SOL    HW1 2438   1.807   1.985   2.493  3.7452 -2.5926 -2.2987
  813SOL    HW2 2439   1.686   2.037   2.387 -0.5004  0.4526 -0.7405
  814SOL     OW 2440   2.885   1.578   2.895  0.0932  0.2695 -0.2241
  814SOL    HW1 2441   2.976   1.596   2.939  0.9429 -2.0542 -0.5868
  814SOL    HW2 2442   2.853   1.664   2.845  1.2396 -0.5925  0.2398
  815SOL     OW 2443   2.262   2.882   2.702 -0.6689 -0.0237  0.4076
  815SOL    HW1 2444   2.224   2.816   2.777  0.6875 -1.5278  0.8973
  815SOL    HW2 2445   2.362   2.873   2.683 -0.3627  0.3813 -0.5568
  816SOL     OW 2446   1.750   0.337   1.670  0.1154  0.7239  0.3338
  816SOL    HW1 2447   1.653   0.365   1.685  1.2395 -1.4981  1.0676
  816SOL    HW2 2448   1.788   0.265   1.736  1.5754 -3.0713 -0.6057
  817SOL     OW 2449   0.475   1.237   2.473  0.0286  0.2233  0.2119
  817SOL    HW1 2450   0.416   1.323   2.460 -0.0150 -1.0317 -1.8845
  817SOL    HW2 2451   0.485   1.177   2.389 -2.4727 -1.0853 -1.2679
  818SOL     OW 2452   2.017   0.852   0.434 -0.0595  0.4075 -0.4371
  818SOL    HW1 2453   2.004   0.948   0.412  1.6912  0.1132  0.6986
  818SOL    HW2 2454   1.960   0.814   0.513  1.8044 -0.9672  1.2989
  819SOL     OW 2455   2.743   2.952   3.056 -0.2187 -0.5090 -0.4729
  819SOL    HW1 2456   2.830   2.898   3.034  0.0461 -4.6118 -1.9196
  819SOL    HW2 2457   2.669   2.929   2.985  0.0907 -0.4157  0.2332
  820SOL     OW 2458   1.205   1.103   0.539  0.1866  0.5107 -0.5373
  820SOL    HW1 2459   1.260   1.177   0.588 -1.0548  0.3125 -0.7463
  820SOL    HW2 2460   1.194   1.020   0.605 -1.0862 -1.4505  0.5458
  821SOL     OW 2461   3.076   1.282   0.663  0.0860 -0.1470  0.3709
  821SOL    HW1 2462   3.041   1.268   0.759 -0.6096  0.0834 -2.4441
  821SOL    HW2 2463   3.157   1.355   0.659  1.7514  0.3356 -0.5018
  822SOL     OW 2464   2.562   1.763   2.454 -0.2037 -0.4454 -0.3491
  822SOL    HW1 2465   2.586   1.846   2.513 -1.4257  0.9897 -0.1773
  822SOL    HW2 2466   2.480   1.788   2.392  0.3298  0.5253 -0.1948
  823SOL     OW 2467   2.049   0.889   1.187  0.3890 -0.2490  0.4201
  823SOL    HW1 2468   2.024   0.915   1.285  1.7686  1.0175  0.6620
  823SOL    HW2 2469   1.968   0.885   1.122 -1.4752 -0.5318  0.3185
  824SOL     OW 2470   0.190   2.040   2.710 -0.2461 -0.4369 -0.2685
  824SOL    HW1 2471   0.167   1.984   2.796  3.6633 -1.3721 -1.1224
  824SOL    HW2 2472   0.233   1.980   2.636  0.3907 -0.1160  2.9919
  825SOL     OW 2473   1.245   1.042   0.268 -0.1292 -0.1296  0.0663
  825SOL    HW1 2474   1.213   1.047   0.369 -3.8787  3.5172  0.1101
  825SOL    HW2 2475   1.271   1.137   0.233  1.0079 -0.6745  3.5077
  826SOL     OW 2476   1.918   0.664   1.551  0.0895 -0.5353 -0.0964
  826SOL    HW1 2477   1.983   0.606   1.604  1.5288 -0.4334  0.0372
  826SOL    HW2 2478   1.828   0.622   1.528 -0.5579 -0.5210  1.5939
  827SOL     OW 2479   0.770   1.401   0.239 -0.1445 -0.4812  0.1130
  827SOL    HW1 2480   0.779   1.336   0.158  0.9842 -1.9790 -1.7381
  827SOL    HW2 2481   0.702   1.372   0.312 -0.7985 -1.7537 -2.1620
  828SOL     OW 2482   2.574   0.071   1.590 -0.7365  0.5115 -0.1361
  828SOL    HW1 2483   2.491   0.092   1.537  1.5268  1.2385 -0.0303
  828SOL    HW2 2484   2.561  -0.016   1.642  1.1138  0.5637  0.2854
  829SOL     OW 2485   2.786   2.495   3.029  0.8842  0.4666  0.2318
  829SOL    HW1 2486   2.714   2.420   3.037  2.3776 -0.7302 -1.4216
  829SOL    HW2 2487   2.765   2.567   3.100 -0.7971  1.5879  0.1144
  830SOL     OW 2488   2.773   0.922   3.005 -0.1924 -0.0190  0.4900
  830SOL    HW1 2489   2.845   0.996   3.007  0.3460  0.3829  3.8971
  830SOL    HW2 2490   2.807   0.838   3.052 -0.4814 -0.0664 -0.3335
  831SOL     OW 2491   3.077   0.589   0.376  0.2177  0.4893 -0.6054
  831SOL    HW1 2492   3.021   0.544   0.456 -0.6013  0.6226  3.3505
  831SOL    HW2 2493   3.126   0.516   0.321 -1.8205  0.7217  0.3991
  832SOL     OW 2494   1.799   0.756   3.059  0.1856  0.1963  0.5598
  832SOL    HW1 2495   1.725   0.826   3.044 -0.3258  0.5158 -0.3064
  832SOL    HW2 2496   1.780   0.666   3.011 -2.3950 -0.4910  0.4879
  833SOL     OW 2497   2.449   2.125   0.530  0.6165  0.0522 -0.6667
  833SOL    HW1 2498   2.360   2.101   0.487  1.2763  0.7930  1.1309
  833SOL    HW2 2499   2.520   2.050   0.533 -1.8805  1.5110 -2.8064
  834SOL     OW 2500   0.071   0.235   0.656  0.4039  0.2878 -0.8615
  834SOL    HW1 2501   0.112   0.165   0.718  0.1283 -1.5935 -0.6652
  834SOL    HW2 2502   0.132   0.243   0.575  0.4986  0.2587  3.2073
  835SOL     OW 2503   2.431   1.489   1.192 -0.1274  0.7302  0.0019
  835SOL    HW1 2504   2.528   1.524   1.211  1.0653  1.8285  3.8609
  835SOL    HW2 2505   2.418   1.479   1.090  1.2090  1.7470  2.0067
  836SOL     OW 2506   1.526   0.860   2.598  0.0642 -0.2942  0.1380
  836SOL    HW1 2507   1.423   0.858   2.577 -1.3898  1.4649  1.4761
  836SOL    HW2 2508   1.579   0.868   2.510 -2.1568  1.3658 -1.9709
  837SOL     OW 2509   1.531   0.034   0.493  0.0549 -0.5170  0.3441
  837SOL    HW1 2510   1.490   0.120   0.542  1.0186 -0.3584  1.9302
  837SOL    HW2 2511   1.530   0.032   0.389  1.0191 -1.0625  0.3692
  838SOL     OW 2512   1.305   1.599   2.682 -0.3028 -0.3872 -0.0609
  838SOL    HW1 2513   1.356   1.539   2.748  1.5805  0.8055  0.8952
  838SOL    HW2 2514   1.224   1.546   2.638 -1.3265  0.6449 -3.1811
  839SOL     OW 2515   1.601   0.242   0.978  0.2029 -0.8084 -0.0506
  839SOL    HW1 2516   1.641   0.316   1.040 -0.1947  1.1936 -1.9293
  839SOL    HW2 2517   1.604   0.147   1.018 -1.4953  2.3522 -0.9091
  840SOL     OW 2518   2.550   2.935   1.733 -0.1492  0.9513  0.1559
  840SOL    HW1 2519   2.504   2.877   1.656  0.0651 -4.1197  0.9242
  840SOL    HW2 2520   2.575   2.879   1.817 -0.8113 -0.0634 -2.3133
  841SOL     OW 2521   1.594   0.919   3.044 -0.0726 -0.0193  0.4050
  841SOL    HW1 2522   1.501   0.905   3.077  1.0482 -1.7260 -2.2586
  841SOL    HW2 2523   1.602   0.970   2.951 -0.9706 -1.7599  1.3513
  842SOL     OW 2524   0.822   1.526   0.864 -0.1043 -0.0028 -0.3745
  842SOL    HW1 2525   0.776   1.590   0.935  0.1666  1.6523  2.1615
  842SOL    HW2 2526   0.763   1.439   0.846 -0.0830 -1.3508 -2.5460
  843SOL     OW 2527   0.183   3.060   1.388  0.6132 -0.1985  0.2732
  843SOL    HW1 2528   0.184   3.141   1.449  0.4199 -1.8090 -2.0425
  843SOL    HW2 2529   0.142   2.982   1.440 -0.9499 -0.3822 -1.2774
  844SOL     OW 2530   0.798   2.472   0.247  0.2310  0.6823  0.2184
  844SOL    HW1 2531   0.746   2.422   0.321 -0.2407 -1.3842 -0.3649
  844SOL    HW2 2532   0.764   2.568   0.225 -2.8705 -0.3086 -0.5142
  845SOL     OW 2533   1.654   2.828   1.255  0.1259  0.2999 -0.5811
  845SOL    HW1 2534   1.596   2.739   1.236 -1.6830 -1.7391  0.6310
  845SOL    HW2 2535   1.662   2.862   1.354  1.4724 -3.0247 -0.1165
  846SOL     OW 2536   1.528   3.007   0.739  0.5241 -0.1198 -0.1556
  846SOL    HW1 2537   1.535   3.044   0.642 -0.1112 -2.9610 -0.7074
  846SOL    HW2 2538   1.621   2.985   0.774 -2.3557 -1.2958  1.4358
  847SOL     OW 2539   2.080   1.759   0.466 -0.0100 -0.2335  0.3356
  847SOL    HW1 2540   2.082   1.659   0.485 -0.6930 -3.4260  0.0747
  847SOL    HW2 2541   1.989   1.793   0.466  2.4145 -2.3625  0.1542
  848SOL     OW 2542   2.416   0.888   2.651 -0.0814 -0.2154  0.5797
  848SOL    HW1 2543   2.393   0.961   2.720 -1.3605  1.2479 -2.4348
  848SOL    HW2 2544   2.331   0.832   2.635 -1.0737  0.6672 -1.1198
  849SOL     OW 2545   2.517   0.897   2.391  0.1070  0.3949  0.1624
  849SOL    HW1 2546   2.602   0.830   2.387  1.2097 -0.3890 -3.1638
  849SOL    HW2 2547   2.474   0.910   2.484  1.7509 -0.4881 -1.9813
  850SOL     OW 2548   1.576   0.076   1.309  0.4984 -0.5895 -1.0809
  850SOL    HW1 2549   1.589   0.033   1.217  0.8690  3.9823 -3.3538
  850SOL    HW2 2550   1.538   0.008   1.378  0.0462  2.1969 -0.4781
  851SOL     OW 2551   0.574   1.716   0.697 -0.6294  0.3981 -0.2989
  851SOL    HW1 2552   0.660   1.761   0.740  0.6123 -0.3747 -0.0152
  851SOL    HW2 2553   0.580   1.724   0.587  0.5605 -0.1683 -2.2719
  852SOL     OW 2554   0.866   2.101   1.670  0.2461 -0.0656  0.6638
  852SOL    HW1 2555   0.905   2.186   1.626  1.4169  0.5876  1.2430
  852SOL    HW2 2556   0.794   2.122   1.738  1.4301  2.1957 -1.2818
  853SOL     OW 2557   2.538   1.528   2.624  0.0138  0.2864 -0.1775
  853SOL    HW1 2558   2.445   1.486   2.610  0.5385 -1.0016 -0.1869
  853SOL    HW2 2559   2.560   1.608   2.559 -0.5934  0.0255 -3.4870
  854SOL     OW 2560   2.422   1.428   1.787  0.9002 -0.0359  0.0422
  854SOL    HW1 2561   2.472   1.388   1.707  0.1348  1.2447 -1.1990
  854SOL    HW2 2562   2.365   1.353   1.837 -1.9116 -1.8438 -0.5643
  855SOL     OW 2563   2.069   2.388   1.113  0.0984  0.1941 -0.3901
  855SOL    HW1 2564   2.035   2.479   1.070  2.1701  1.8295 -0.1997
  855SOL    HW2 2565   2.150   2.402   1.178  0.1371 -2.5269 -0.7592
  856SOL     OW 2566   1.333   1.435   0.903  0.2347  0.1304 -0.3400
  856SOL    HW1 2567   1.400   1.496   0.951  1.3938  0.4091  0.1286
  856SOL    HW2 2568   1.237   1.468   0.920  2.6990  0.5156 -0.8614
  857SOL     OW 2569   0.004   2.732   1.094 -0.1815 -0.1098  0.5959
  857SOL    HW1 2570   0.038   2.728   0.996  0.4815 -0.0287 -1.0174
  857SOL    HW2 2571   0.062   2.678   1.157 -0.9089  1.4125 -2.6362
  858SOL     OW 2572   2.389   2.034   1.583 -0.3840  0.2840 -0.5146
  858SOL    HW1 2573   2.291   1.991   1.605 -0.3444  1.9129 -2.1389
  858SOL    HW2 2574   2.470   1.986   1.631  1.5456 -0.4685 -0.5755
  859SOL     OW 2575   2.458   0.546   1.089  0.0810 -0.2899 -0.3808
  859SOL    HW1 2576   2.493   0.610   1.017  0.3586 -2.3493  2.9118
  859SOL    HW2 2577   2.507   0.458   1.102 -1.4859  0.9402  1.7553
  860SOL     OW 2578   1.904   2.834   0.504  0.3700  0.0788  0.2314
  860SOL    HW1 2579   1.889   2.771   0.421 -1.4514  0.4601 -1.6345
  860SOL    HW2 2580   1.918   2.933   0.482 -2.1806 -2.1560  1.3277
  861SOL     OW 2581   1.026   2.499   2.859 -0.4766  0.1640 -0.1488
  861SOL    HW1 2582   1.102   2.566   2.828 -0.0579 -0.5639 -1.8236
  861SOL    HW2 2583   1.000   2.512   2.961 -0.1681 -1.6818  0.5978
  862SOL     OW 2584   2.824   2.538   1.690  0.1758  0.2963  0.1511
  862SOL    HW1 2585   2.911   2.556   1.740 -1.6814 -2.2420 -1.7356
  862SOL    HW2 2586   2.791   2.623   1.640 -4.0049  0.2451  1.2261
  863SOL     OW 2587   1.826   2.721   0.237 -0.1109 -0.3078  0.5505
  863SOL    HW1 2588   1.858   2.618   0.241  1.9435 -1.9639  3.1057
  863SOL    HW2 2589   1.724   2.731   0.221 -0.7996 -0.2597 -0.8609
  864SOL     OW 2590   2.028   1.230   2.803 -0.4715  0.3916 -0.2015
  864SOL    HW1 2591   2.025   1.184   2.708  1.4268 -0.7036 -0.1172
  864SOL    HW2 2592   2.080   1.320   2.814  0.2380  3.0875 -0.2189
  865SOL     OW 2593   2.129   1.955   0.732  0.3802 -0.2335  0.6409
  865SOL    HW1 2594   2.203   1.904   0.780 -0.6224 -1.0397  2.5630
  865SOL    HW2 2595   2.049   1.945   0.797  0.1880 -0.1562 -0.1184
  866SOL     OW 2596   2.948   2.952   1.060 -0.6316  0.6947 -0.7020
  866SOL    HW1 2597   2.972   3.024   0.989 -1.5980 -1.4828  1.1780
  866SOL    HW2 2598   3.017   2.873   1.059  0.9006 -1.5697 -0.6199
  867SOL     OW 2599   0.312   1.383   0.866 -0.0895  0.5508  0.3204
  867SOL    HW1 2600   0.344   1.319   0.790  0.8262 -1.0325 -0.0204
  867SOL    HW2 2601   0.301   1.479   0.832  0.8769  0.7885 -0.7214
  868SOL     OW 2602   0.801   1.869   2.046  0.4224 -0.3381 -0.5191
  868SOL    HW1 2603   0.787   1.844   2.145 -0.4929 -2.9957 -0.0759
  868SOL    HW2 2604   0.741   1.950   2.004 -0.8556  2.2711 -0.2903
  869SOL     OW 2605   2.614   1.903   1.654  0.0999  0.2578  0.0694
  869SOL    HW1 2606   2.657   1.985   1.613 -2.2710 -0.8904  2.5549
  869SOL    HW2 2607   2.648   1.816   1.612  3.0724 -1.8249  1.8035
  870SOL     OW 2608   2.391   2.706   1.140  0.1875 -0.1777  0.2548
  870SOL    HW1 2609   2.390   2.620   1.198  0.4126  0.7498 -0.8835
  870SOL    HW2 2610   2.478   2.771   1.140  1.3980  2.6903  0.1850
  871SOL     OW 2611   3.058   2.266   0.536 -0.8107 -0.0736  0.0168
  871SOL    HW1 2612   2.995   2.282   0.615  0.2223  0.3929  0.0374
  871SOL    HW2 2613   3.017   2.253   0.445 -1.2860 -4.8400  1.0265
  872SOL     OW 2614   2.088   0.466   1.706  0.2533  0.0738  0.1475
  872SOL    HW1 2615   2.050   0.500   1.796 -1.1108 -0.8127 -2.3323
  872SOL    HW2 2616   2.190   0.449   1.711  1.0408 -1.7969 -2.4051
  873SOL     OW 2617   1.712   2.089   3.077  0.1818 -0.1424  0.7005
  873SOL    HW1 2618   1.621   2.048   3.050 -0.2003 -1.3169 -0.0224
  873SOL    HW2 2619   1.740   2.166   3.011  0.9156 -0.5787  1.6928
  874SOL     OW 2620   0.677   2.482   0.712 -0.1982  0.1993  0.3343
  874SOL    HW1 2621   0.674   2.575   0.754  0.6531 -1.1863 -2.3746
  874SOL    HW2 2622   0.777   2.446   0.706  2.2585 -2.7359 -0.7391
  875SOL     OW 2623   2.293   1.606   1.410 -0.5013 -0.8046  0.8415
  875SOL    HW1 2624   2.354   1.616   1.492  0.7646 -0.7848 -1.2088
  875SOL    HW2 2625   2.342   1.566   1.328 -2.2226 -0.9758 -2.6277
  876SOL     OW 2626   0.070   2.278   2.624  0.0397 -0.1387 -0.1977
  876SOL    HW1 2627   0.117   2.185   2.639  2.3712 -1.7760  0.9020
  876SOL    HW2 2628   0.130   2.350   2.655  0.0534 -1.2091 -0.0363
  877SOL     OW 2629   2.875   2.632   0.677  0.1999 -0.0069 -0.0293
  877SOL    HW1 2630   2.858   2.736   0.681  0.5013  0.2539 -3.3492
  877SOL    HW2 2631   2.968   2.596   0.697 -2.8197 -3.0143  0.1590
  878SOL     OW 2632   2.838   1.618   2.312  0.1990  0.1915  0.2300
  878SOL    HW1 2633   2.782   1.692   2.269 -1.4942 -1.1271  0.0966
  878SOL    HW2 2634   2.789   1.559   2.382 -1.6123  0.7525  0.0891
  879SOL     OW 2635   2.482   0.030   1.158  0.1105  0.5506  0.4009
  879SOL    HW1 2636   2.535  -0.028   1.227 -0.7377  0.9821  3.9372
  879SOL    HW2 2637   2.386  -0.009   1.128  0.3219 -0.4556 -1.4820
  880SOL     OW 2638   0.632   0.541   2.258  0.2813  0.1956  0.2239
  880SOL    HW1 2639   0.616   0.498   2.353  0.4642 -1.2719 -0.4931
  880SOL    HW2 2640   0.697   0.482   2.199  3.0692  2.4033  0.4266
  881SOL     OW 2641   0.843   0.084   0.422  0.7906  0.8499 -0.8863
  881SOL    HW1 2642   0.888  -0.005   0.455  0.1361 -0.5627  1.8373
  881SOL    HW2 2643   0.741   0.075   0.399  1.6818 -2.9672 -2.1584
  882SOL     OW 2644   2.737   1.602   1.715 -0.2268 -0.4294  0.3673
  882SOL    HW1 2645   2.825   1.579   1.664  0.9224 -0.9822 -1.4498
  882SOL    HW2 2646   2.735   1.568   1.814 -0.3133 -1.1166 -1.6712
  883SOL     OW 2647   0.798   0.509   0.879 -0.2788  0.0890  0.4605
  883SOL    HW1 2648   0.883   0.565   0.896 -1.8121 -0.8432  0.7565
  883SOL    HW2 2649   0.739   0.510   0.967 -2.1327 -1.2691 -0.6111
  884SOL     OW 2650   1.200   1.714   1.103  0.1077 -0.4432  0.0237
  884SOL    HW1 2651   1.150   1.630   1.073  2.0086  3.8238  2.8178
  884SOL    HW2 2652   1.200   1.787   1.025 -2.1281  1.3210 -0.1817
  885SOL     OW 2653   2.313   1.895   2.276 -0.2577  0.4440  0.2291
  885SOL    HW1 2654   2.260   1.820   2.325 -1.1317 -0.9361 -1.6561
  885SOL    HW2 2655   2.269   1.986   2.282  2.0236  1.4786 -1.3883
  886SOL     OW 2656   2.605   0.339   1.797  0.1664 -0.2143  0.0423
  886SOL    HW1 2657   2.589   0.271   1.875 -0.2587 -3.1931 -0.2137
  886SOL    HW2 2658   2.674   0.414   1.809 -2.5984 -1.1672  0.0106
  887SOL     OW 2659   0.132   2.069   1.300  0.3748  0.0218 -0.9100
  887SOL    HW1 2660   0.138   2.029   1.207  0.5096  1.4389  1.2780
  887SOL    HW2 2661   0.106   2.168   1.305  1.1206 -0.4119  0.9054
  888SOL     OW 2662   0.584   1.232   1.542  0.0648 -0.0565 -0.7954
  888SOL    HW1 2663   0.596   1.283   1.454  2.0576 -1.8383  2.6293
  888SOL    HW2 2664   0.596   1.132   1.525  0.6630 -2.5024  0.8037
  889SOL     OW 2665   0.827   2.445   2.239 -0.0128  0.1931  0.5387
  889SOL    HW1 2666   0.738   2.402   2.268  2.3564 -1.6522 -0.3973
  889SOL    HW2 2667   0.873   2.393   2.158  0.2380  1.1870 -1.9012
  890SOL     OW 2668   2.390   2.485   0.284 -0.6351  0.9847  0.0889
  890SOL    HW1 2669   2.420   2.575   0.244  0.7337  0.9721 -3.4737
  890SOL    HW2 2670   2.321   2.490   0.361  1.3975 -0.7049 -0.1430
  891SOL     OW 2671   2.619   1.695   0.703  0.1010 -0.0688 -0.0543
  891SOL    HW1 2672   2.674   1.675   0.792  1.0853 -2.7767  0.3187
  891SOL    HW2 2673   2.549   1.622   0.674 -1.1656 -2.5741 -0.6190
  892SOL     OW 2674   0.375   0.320   2.224 -0.0268  0.0649 -0.5090
  892SOL    HW1 2675   0.465   0.359   2.244 -1.2791  2.7728 -0.5543
  892SOL    HW2 2676   0.378   0.251   2.147  1.6915  0.5552  0.3772
  893SOL     OW 2677   1.742   0.263   2.691 -0.2120 -0.1868  0.3951
  893SOL    HW1 2678   1.804   0.347   2.683 -2.9546 -1.6894 -1.3761
  893SOL    HW2 2679   1.639   0.286   2.700  2.0455  0.4458 -0.8750
  894SOL     OW 2680   2.138   2.060   0.102 -0.1322 -0.1331 -0.2712
  894SOL    HW1 2681   2.136   2.003   0.019  0.3002 -0.0737  2.8533
  894SOL    HW2 2682   2.207   2.031   0.173 -0.4456  1.1918 -0.0514
  895SOL     OW 2683   2.759   1.442   0.869 -0.6100  0.5571  0.6503
  895SOL    HW1 2684   2.828   1.374   0.911  0.5203 -1.3875  0.0323
  895SOL    HW2 2685   2.758   1.531   0.921 -2.0348 -2.1267 -0.3650
  896SOL     OW 2686   1.851   1.750   1.249 -0.6666  0.7221 -0.4287
  896SOL    HW1 2687   1.943   1.704   1.262 -1.0003  0.5422  0.6560
  896SOL    HW2 2688   1.797   1.714   1.166 -3.2902 -0.7564  0.5081
  897SOL     OW 2689   0.227   0.555   3.009 -0.0557 -0.0783  0.4035
  897SOL    HW1 2690   0.166   0.588   2.930  0.6035 -1.2438  2.2137
  897SOL    HW2 2691   0.314   0.611   3.008 -1.7482  0.9581 -3.2576
  898SOL     OW 2692   0.667   2.829   1.099  0.0202 -0.1430  0.2027
  898SOL    HW1 2693   0.729   2.902   1.065  0.4688 -1.0144 -2.9318
  898SOL    HW2 2694   0.704   2.772   1.177 -0.3944 -0.0576  0.1886
  899SOL     OW 2695   2.880   0.954   1.341  0.2460  0.0646 -0.3255
  899SOL    HW1 2696   2.865   0.988   1.243 -2.3893  2.2160  0.5296
  899SOL    HW2 2697   2.975   0.971   1.386 -2.5890  1.3218 -1.2344
  900SOL     OW 2698   0.982   2.493   2.471  0.5785 -0.4644  0.0163
  900SOL    HW1 2699   0.910   2.491   2.397 -2.5331  1.1632  0.2037
  900SOL    HW2 2700   0.946   2.447   2.556  2.0449 -1.2713  0.2438
  901SOL     OW 2701   1.881   2.382   1.429 -0.3515  0.1174  0.4597
  901SOL    HW1 2702   1.900   2.297   1.364  0.8005 -0.8708  0.0685
  901SOL    HW2 2703   1.967   2.423   1.467  0.8577  1.2324 -1.1260
  902SOL     OW 2704   2.560   1.629   1.499 -0.6852 -0.1351 -0.5110
  902SOL    HW1 2705   2.619   1.632   1.587 -0.1955  0.6098  1.9857
  902SOL    HW2 2706   2.612   1.582   1.420 -1.1517 -0.6899  0.3386
  903SOL     OW 2707   0.312   2.373   1.983 -0.1337 -0.1229  0.0028
  903SOL    HW1 2708   0.241   2.299   1.978  0.7234  1.7803 -3.4837
  903SOL    HW2 2709   0.310   2.431   1.899  0.5326  2.5480  1.3125
  904SOL     OW 2710   1.976   0.821   2.455 -0.0660 -0.3794 -0.1324
  904SOL    HW1 2711   1.911   0.751   2.504  0.3395 -2.3085  1.6553
  904SOL    HW2 2712   2.026   0.784   2.368 -0.1071  0.8361 -0.7763
  905SOL     OW 2713   2.818   0.099   2.404  0.3691 -0.8961  0.2769
  905SOL    HW1 2714   2.882   0.028   2.445 -2.2832 -1.7309  2.4984
  905SOL    HW2 2715   2.852   0.192   2.437  0.3419  1.6584 -1.6829
  906SOL     OW 2716   0.144   1.742   1.894  0.1474 -0.5098 -0.5610
  906SOL    HW1 2717   0.082   1.766   1.811 -0.5714  1.1128 -3.1392
  906SOL    HW2 2718   0.243   1.772   1.877  0.5596  3.2534  0.4570
  907SOL     OW 2719   0.224   2.488   0.959 -0.2516 -0.1092 -0.2892
  907SOL    HW1 2720   0.303   2.429   0.929  0.8785 -0.1677  1.9295
  907SOL    HW2 2721   0.241   2.583   0.920 -0.5789 -1.7272 -0.6320
  908SOL     OW 2722   2.858   2.990   0.392 -0.3958  0.8131 -0.3921
  908SOL    HW1 2723   2.756   3.001   0.370  0.1794  0.5464  1.8437
  908SOL    HW2 2724   2.902   2.905   0.349  2.0240 -0.3571 -1.3761
  909SOL     OW 2725   0.890   1.026   2.666 -0.3657 -0.2689  0.4739
  909SOL    HW1 2726   0.835   0.944   2.634  1.9481  2.2952 -1.3015
  909SOL    HW2 2727   0.948   1.059   2.589  0.2651  0.3534  1.2453
  910SOL     OW 2728   1.819   1.872   2.123  0.0601 -0.1428 -0.3013
  910SOL    HW1 2729   1.882   1.907   2.051 -1.0802  3.5032  2.2418
  910SOL    HW2 2730   1.758   1.942   2.167  2.2905  0.2097 -0.7179
  911SOL     OW 2731   1.755   2.896   1.534  0.2204  0.7305 -0.3222
  911SOL    HW1 2732   1.848   2.895   1.483  0.7920 -0.5673  0.9172
  911SOL    HW2 2733   1.735   2.808   1.588 -0.0814  0.4396 -1.5808
  912SOL     OW 2734   2.863   1.009   0.752  0.2464  0.6318  0.7156
  912SOL    HW1 2735   2.929   1.020   0.833  1.7770 -1.9440 -0.0885
  912SOL    HW2 2736   2.785   1.077   0.755  0.3737  1.9310 -0.1189
  913SOL     OW 2737   2.572   1.260   1.570 -0.1999 -0.5100 -0.3156
  913SOL    HW1 2738   2.613   1.167   1.581  0.6942  1.8796  1.4465
  913SOL    HW2 2739   2.610   1.299   1.480 -0.6338 -1.7995  0.3635
  914SOL     OW 2740   2.868   0.602   1.190 -0.5018  0.5981  0.6978
  914SOL    HW1 2741   2.870   0.501   1.179  1.2269  2.9995 -0.2839
  914SOL    HW2 2742   2.816   0.640   1.269 -1.6841 -0.6970 -0.6868
  915SOL     OW 2743   1.206   0.725   0.919  0.1321  0.2083  0.1336
  915SOL    HW1 2744   1.269   0.778   0.985  1.7021  0.9412 -0.3333
  915SOL    HW2 2745   1.109   0.711   0.948  1.8399  1.8710 -0.4287
  916SOL     OW 2746   0.621   0.082   0.682  0.6391  0.0125 -0.0550
  916SOL    HW1 2747   0.690   0.166   0.677  1.4257  2.4782  1.5410
  916SOL    HW2 2748   0.549   0.082   0.606 -0.2322  3.1165  0.6305
  917SOL     OW 2749   2.855   2.622   2.039  0.3663  0.0518  0.1883
  917SOL    HW1 2750   2.770   2.668   2.007  1.9426 -1.7841  0.3421
  917SOL    HW2 2751   2.908   2.604   1.956 -0.8824 -2.3077  0.7490
  918SOL     OW 2752   1.070   2.091   3.043 -0.6291 -0.0074  0.0280
  918SOL    HW1 2753   1.064   2.163   3.120  2.8375  1.1883 -0.4613
  918SOL    HW2 2754   1.128   2.122   2.966 -1.3938 -2.8334 -1.2399
  919SOL     OW 2755   0.786   1.633   2.795  0.5221 -0.2776  0.3357
  919SOL    HW1 2756   0.835   1.722   2.794 -1.6486  1.0318  1.2668
  919SOL    HW2 2757   0.770   1.593   2.704 -1.2826  1.4386  0.0883
  920SOL     OW 2758   1.336   1.820   2.460 -0.1497  0.1074 -0.2013
  920SOL    HW1 2759   1.436   1.820   2.422  0.1768 -1.4643 -1.8572
  920SOL    HW2 2760   1.327   1.754   2.542 -0.5993  0.3452 -0.4085
  921SOL     OW 2761   1.139   0.087   2.583  0.2488 -1.0776  0.1739
  921SOL    HW1 2762   1.096   0.045   2.501  1.0723  1.0470  1.8288
  921SOL    HW2 2763   1.066   0.130   2.648 -1.5676  1.5809  1.0728
  922SOL     OW 2764   2.191   2.455   2.812  0.0157  0.0025 -0.3472
  922SOL    HW1 2765   2.206   2.350   2.815  1.6023 -3.3503  0.7300
  922SOL    HW2 2766   2.140   2.488   2.726  0.8937 -0.9804 -0.2426
  923SOL     OW 2767   1.193   2.716   0.285 -0.3925  1.1704 -0.0389
  923SOL    HW1 2768   1.264   2.788   0.302  1.5660 -0.6318  0.2720
  923SOL    HW2 2769   1.235   2.624   0.298 -1.4065  0.0952 -2.7664
  924SOL     OW 2770   2.945   1.699   0.150 -0.0273  0.1162  0.3093
  924SOL    HW1 2771   2.859   1.658   0.107  0.1563 -0.4543  0.0424
  924SOL    HW2 2772   3.033   1.635   0.150 -0.0268 -2.2398 -0.5980
  925SOL     OW 2773   0.031   2.874   1.557  0.2909 -0.4582 -0.3918
  925SOL    HW1 2774  -0.050   2.900   1.616  2.1800 -0.5913 -0.0456
  925SOL    HW2 2775   0.005   2.809   1.475 -0.7626 -2.6124 -3.1712
  926SOL     OW 2776   1.268   2.770   1.345  0.3380  0.5136 -0.0283
  926SOL    HW1 2777   1.299   2.754   1.250 -1.0821 -1.8690  0.2703
  926SOL    HW2 2778   1.315   2.847   1.391  0.7881 -1.1621  0.0794
  927SOL     OW 2779   0.353   2.592   1.785  0.1628  0.0099  0.0550
  927SOL    HW1 2780   0.313   2.534   1.706  0.7942  0.1490  0.1077
  927SOL    HW2 2781   0.326   2.692   1.770 -0.2680  0.6139  0.4737
  928SOL     OW 2782   1.668   2.087   2.229 -0.6266  0.3580  0.2957
  928SOL    HW1 2783   1.685   2.168   2.168 -0.3705 -0.2304 -0.7190
  928SOL    HW2 2784   1.566   2.069   2.232  0.7690  3.4174  0.5669
  929SOL     OW 2785   2.459   2.504   2.885  0.9216 -0.0290 -0.1089
  929SOL    HW1 2786   2.355   2.499   2.872 -2.0683 -2.3839 -4.1382
  929SOL    HW2 2787   2.517   2.501   2.794  1.0555  1.9705  2.1047
  930SOL     OW 2788   2.127   2.085   1.078  0.6080 -0.2519 -0.2278
  930SOL    HW1 2789   2.147   2.038   1.169 -1.1135 -1.3355 -1.1567
  930SOL    HW2 2790   2.122   2.186   1.088  1.1673  0.7327  3.2297
  931SOL     OW 2791   0.468   1.609   2.620 -0.2395  0.2493 -0.4181
  931SOL    HW1 2792   0.485   1.646   2.713  0.2106 -0.5443 -1.4636
  931SOL    HW2 2793   0.552   1.557   2.594  0.3318  1.2111  2.2192
  932SOL     OW 2794   0.357   0.060   3.098  0.2770  0.5798  0.2344
  932SOL    HW1 2795   0.437   0.118   3.083 -0.5336 -0.2446  1.1708
  932SOL    HW2 2796   0.372  -0.033   3.057  1.3224 -1.8040  0.8384
  933SOL     OW 2797   1.024   0.822   3.014  0.0036 -0.1220  0.5069
  933SOL    HW1 2798   1.067   0.912   3.043  2.4622  0.8130  1.7658
  933SOL    HW2 2799   0.927   0.821   3.047  0.1870  0.8793  0.3814
  934SOL     OW 2800   0.896   2.952   2.627 -0.0280  0.4410  0.0050
  934SOL    HW1 2801   0.866   2.879   2.556 -0.7949 -1.4360  0.9761
  934SOL    HW2 2802   0.938   2.903   2.713  0.1765  0.9858 -1.7890
  935SOL     OW 2803   0.018   0.592   0.771  0.7010 -0.4987  0.7589
  935SOL    HW1 2804  -0.014   0.527   0.691  0.0250 -2.5947 -3.9095
  935SOL    HW2 2805  -0.060   0.620   0.833 -1.3496 -0.7367 -2.7279
  936SOL     OW 2806   1.113   2.888   0.084  0.0176  0.0886 -0.0644
  936SOL    HW1 2807   1.209   2.916   0.055  0.4715 -0.1361  0.4811
  936SOL    HW2 2808   1.120   2.822   0.164  0.7062  0.0304 -0.5017
  937SOL     OW 2809   1.965   2.592   2.079 -0.5729  0.0798 -0.1641
  937SOL    HW1 2810   1.923   2.628   2.170 -1.5829  0.2319  2.0921
  937SOL    HW2 2811   1.958   2.658   2.002  1.0697 -0.4122  1.8086
  938SOL     OW 2812   2.764   2.114   1.552  0.0725 -0.1500  0.1549
  938SOL    HW1 2813   2.728   2.211   1.561 -0.0055  2.5754  1.8052
  938SOL    HW2 2814   2.850   2.097   1.608 -0.4630  1.2109  2.9877
  939SOL     OW 2815   2.827   1.160   2.492 -0.2066 -1.0001  0.2774
  939SOL    HW1 2816   2.911   1.112   2.454  1.8335  1.8223 -1.0684
  939SOL    HW2 2817   2.814   1.128   2.590 -1.4235 -1.1307 -0.6033
  940SOL     OW 2818   1.060   0.456   2.735  0.6888  0.3805  0.2718
  940SOL    HW1 2819   1.138   0.393   2.754 -0.1979  2.2066 -2.2154
  940SOL    HW2 2820   1.008   0.423   2.650 -2.0756 -1.9254  0.7356
  941SOL     OW 2821   0.083   2.814   2.283 -0.0357  0.2874  0.0238
  941SOL    HW1 2822   0.096   2.713   2.273 -1.1609 -0.7868  1.3090
  941SOL    HW2 2823   0.164   2.869   2.313 -0.6315 -0.0473 -0.6949
  942SOL     OW 2824   0.109   0.066   2.439 -0.2742  0.3997 -0.1583
  942SOL    HW1 2825   0.158   0.077   2.534 -1.4854  0.8306  2.7088
  942SOL    HW2 2826   0.112   0.157   2.385 -1.6069 -0.1276 -0.8087
  943SOL     OW 2827   2.144   1.694   2.339 -0.0419  0.1462 -0.2261
  943SOL    HW1 2828   2.121   1.669   2.241  2.8026  2.9302  2.4204
  943SOL    HW2 2829   2.171   1.611   2.390  0.8755  0.7537  0.9164
  944SOL     OW 2830   2.189   2.317   1.576 -0.5072  0.5173  0.1645
  944SOL    HW1 2831   2.224   2.342   1.670  0.9895  1.2746 -0.2613
  944SOL    HW2 2832   2.123   2.233   1.577  0.6684  0.9366 -2.3077
  945SOL     OW 2833   0.677   1.636   0.166  0.1758 -0.1313 -0.8957
  945SOL    HW1 2834   0.601   1.613   0.096  1.4191 -0.8810 -0.4269
  945SOL    HW2 2835   0.720   1.551   0.207  1.4755  0.7409 -1.2008
  946SOL     OW 2836   0.349   0.994   2.620 -0.3975  0.2079  0.0640
  946SOL    HW1 2837   0.299   0.964   2.533 -1.8786  1.2400  0.0300
  946SOL    HW2 2838   0.401   1.083   2.600  1.5865  0.5310  1.5368
  947SOL     OW 2839   1.466   0.533   3.033  0.2444 -0.2073  0.2583
  947SOL    HW1 2840   1.455   0.594   2.951  1.1528 -1.2463 -0.3791
  947SOL    HW2 2841   1.385   0.476   3.058  1.2125 -0.1667  1.1348
  948SOL     OW 2842   1.960   2.943   2.167 -0.6566 -0.3221  0.3377
  948SOL    HW1 2843   1.970   2.890   2.080  0.2714  0.0859 -2.3676
  948SOL    HW2 2844   1.912   2.888   2.240  0.9068  0.2627 -0.4416
  949SOL     OW 2845   0.574   2.483   0.424  0.1786 -0.3094 -0.1168
  949SOL    HW1 2846   0.565   2.588   0.406  0.4184  3.5930  2.4026
  949SOL    HW2 2847   0.621   2.458   0.513 -1.5739 -1.6768 -1.7164
  950SOL     OW 2848   0.187   2.255   2.929 -0.7404  0.1633 -0.6496
  950SOL    HW1 2849   0.187   2.349   2.886  1.1807 -2.4497  3.9263
  950SOL    HW2 2850   0.216   2.180   2.867 -1.1724 -1.4538 -0.3842
  951SOL     OW 2851   1.226   2.669   2.809 -0.5309  0.1236 -0.2489
  951SOL    HW1 2852   1.298   2.598   2.846  3.3942 -0.0548  1.6115
  951SOL    HW2 2853   1.264   2.723   2.732 -2.6707  0.0242  0.9490
  952SOL     OW 2854   0.036   1.619   0.432 -0.1313 -0.1394  0.3090
  952SOL    HW1 2855   0.076   1.714   0.415  1.5213 -0.1137  3.6420
  952SOL    HW2 2856   0.084   1.572   0.511 -0.6173  2.5348 -2.3632
  953SOL     OW 2857   2.493   1.733   0.299  0.2252  0.2822 -0.6349
  953SOL    HW1 2858   2.509   1.630   0.306  2.1320 -0.5339 -0.3091
  953SOL    HW2 2859   2.475   1.763   0.206  1.9896 -0.4390  2.1144
  954SOL     OW 2860   2.210   0.522   0.931  0.3979  0.3000 -0.1370
  954SOL    HW1 2861   2.234   0.531   0.831 -4.2491 -0.8553  0.6468
  954SOL    HW2 2862   2.286   0.538   1.000 -0.2176  0.2154  1.5989
  955SOL     OW 2863   0.181   2.595   1.385 -0.0712 -0.2237  0.1824
  955SOL    HW1 2864   0.081   2.632   1.379  0.8900  0.3993 -0.8283
  955SOL    HW2 2865   0.258   2.661   1.365 -2.8197 -0.3624  1.0547
  956SOL     OW 2866   2.801   2.500   2.513  0.1807 -0.4208 -0.6251
  956SOL    HW1 2867   2.826   2.396   2.517  2.8491 -1.6013 -0.7780
  956SOL    HW2 2868   2.848   2.553   2.437  2.5212 -2.1358 -0.1271
  957SOL     OW 2869   1.621   2.066   2.745 -0.3780 -0.0533  0.6357
  957SOL    HW1 2870   1.617   1.987   2.810  2.2726 -0.0550  1.0428
  957SOL    HW2 2871   1.643   2.029   2.647 -1.3600  1.9182  0.0738
  958SOL     OW 2872   2.609   2.272   3.032  0.0073  0.4971 -0.6669
  958SOL    HW1 2873   2.529   2.326   3.007  1.5982 -0.4361 -0.9173
  958SOL    HW2 2874   2.609   2.250   3.137 -0.1920 -0.4851  1.7692
  959SOL     OW 2875   0.398   2.811   0.135  0.1469  0.3762  0.2918
  959SOL    HW1 2876   0.317   2.864   0.171  0.6725 -2.0735 -0.0010
  959SOL    HW2 2877   0.388   2.707   0.146 -0.5088 -2.7712  0.6215
  960SOL     OW 2878   1.904   0.509   1.932  0.0115 -0.2680 -0.0177
  960SOL    HW1 2879   1.850   0.588   1.893  1.1882 -2.9496 -1.1688
  960SOL    HW2 2880   1.916   0.515   2.037 -0.4230  0.3084  0.9467
  961SOL     OW 2881   2.514   1.894   1.068  0.3665 -0.2517  0.1021
  961SOL    HW1 2882   2.536   1.981   1.014 -0.6861 -0.5296 -1.4619
  961SOL    HW2 2883   2.491   1.903   1.167  1.3920  0.2201 -1.1476
  962SOL     OW 2884   1.309   0.900   0.040 -0.2319 -0.4967  0.0707
  962SOL    HW1 2885   1.293   0.956  -0.046  0.1821 -1.6061  0.8248
  962SOL    HW2 2886   1.296   0.954   0.122  2.4614 -1.2863 -1.8404
  963SOL     OW 2887   2.324   2.581   1.820  0.0667 -0.0501 -0.1727
  963SOL    HW1 2888   2.279   2.494   1.859 -0.7093  0.6555 -0.5203
  963SOL    HW2 2889   2.367   2.636   1.893  0.4151 -1.3898 -1.8370
  964SOL     OW 2890   2.378   0.422   1.662  0.5691 -0.2455 -0.0783
  964SOL    HW1 2891   2.469   0.393   1.705 -1.2289  0.0860 -2.8315
  964SOL    HW2 2892   2.387   0.438   1.556 -0.9520  0.6634  0.9384
  965SOL     OW 2893   2.628   3.013   0.186 -0.6407  0.2593 -0.2882
  965SOL    HW1 2894   2.682   2.974   0.104 -0.6169 -0.7901  0.1553
  965SOL    HW2 2895   2.531   3.040   0.161 -1.4566 -0.4742  2.7006
  966SOL     OW 2896   2.468   2.497   2.249 -0.2750 -0.0067  0.3160
  966SOL    HW1 2897   2.502   2.582   2.199  0.3152  1.1945 -1.6800
  966SOL    HW2 2898   2.368   2.473   2.225  0.5757 -0.4111  1.6680
  967SOL     OW 2899   2.743   2.841   2.468 -0.2828  0.6792 -0.5523
  967SOL    HW1 2900   2.803   2.783   2.410  1.5344  0.0885 -0.2264
  967SOL    HW2 2901   2.768   2.942   2.466  1.3660  2.1015  1.1283
  968SOL     OW 2902   1.975   1.060   2.586  0.1070  0.1833  0.5972
  968SOL    HW1 2903   1.877   1.088   2.591  0.4346 -0.4418 -2.0883
  968SOL    HW2 2904   1.990   0.984   2.522 -1.9565  3.2060 -0.9113
  969SOL     OW 2905   2.764   2.557   1.056  0.7348 -0.1854  0.6941
  969SOL    HW1 2906   2.773   2.652   1.013  1.4594  1.2294  0.9212
  969SOL    HW2 2907   2.771   2.485   0.984  4.3007  2.0148 -0.2505
  970SOL     OW 2908   1.075   2.108   1.845  0.1324 -0.3432 -0.3388
  970SOL    HW1 2909   1.089   2.022   1.897  1.9308 -0.0238 -3.9201
  970SOL    HW2 2910   0.985   2.106   1.793 -2.0101  0.1014  1.7024
  971SOL     OW 2911   2.901   2.175   1.943 -0.3384 -0.4670 -0.1805
  971SOL    HW1 2912   2.930   2.251   2.008 -1.3957  1.3590 -1.0497
  971SOL    HW2 2913   2.945   2.184   1.847  0.5070  0.0456  0.4789
  972SOL     OW 2914   1.901   2.452   0.240  0.9239  0.2013 -0.0856
  972SOL    HW1 2915   1.872   2.353   0.234 -0.7333 -3.0218  0.8217
  972SOL    HW2 2916   1.928   2.465   0.341 -0.7065  0.9246 -1.7890
  973SOL     OW 2917   1.149   0.911   1.884 -0.4613 -0.2556  0.1261
  973SOL    HW1 2918   1.095   0.833   1.924  1.5914 -0.3735 -0.8682
  973SOL    HW2 2919   1.081   0.972   1.830  0.4923  2.4492 -0.3288
  974SOL     OW 2920   1.595   0.571   1.969  0.2072 -0.1690  0.3175
  974SOL    HW1 2921   1.654   0.624   1.903  0.3582 -2.7197 -1.4944
  974SOL    HW2 2922   1.499   0.558   1.935  0.9351  3.2962  0.5647
  975SOL     OW 2923   2.370   3.026   0.033  0.2688  0.0519 -0.2801
  975SOL    HW1 2924   2.285   2.967   0.042 -0.4531  0.7989 -0.8567
  975SOL    HW2 2925   2.412   3.017  -0.065  1.8428  2.0881  1.0382
  976SOL     OW 2926   1.920   2.711   2.342  0.5127 -0.4445  0.4733
  976SOL    HW1 2927   1.823   2.690   2.373  0.1186 -0.3985 -3.3807
  976SOL    HW2 2928   1.980   2.727   2.422 -0.5220  0.3407  0.3043
  977SOL     OW 2929   0.469   0.683   0.997 -0.6263 -0.3363  0.5188
  977SOL    HW1 2930   0.401   0.660   0.928  1.4370 -2.1102  0.9907
  977SOL    HW2 2931   0.527   0.762   0.968 -0.8502  0.8363  0.0935
   3.10000   3.10000   3.10000
