1000 SPC/Fw water molecules t=   1.06000 step= 1060
 2931
    1SOL     OW    1   2.567   0.344   2.657 -0.4718 -0.0258 -0.0900
    1SOL    HW1    2   2.607   0.259   2.611 -0.4713  1.1491 -0.5208
    1SOL    HW2    3   2.627   0.375   2.741  0.4089  0.2201  1.2106
    2SOL     OW    4   2.707   3.038   1.414  0.3138 -0.4076 -0.4401
    2SOL    HW1    5   2.793   3.055   1.351  2.5635  0.0661  0.3458
    2SOL    HW2    6   2.666   3.129   1.445 -0.1355 -0.0485  1.3101
    3SOL     OW    7   2.625   2.622   0.436 -0.5122 -0.5627  0.1812
    3SOL    HW1    8   2.613   2.518   0.453 -1.4479  1.1055  2.1123
    3SOL    HW2    9   2.690   2.664   0.504 -2.4374  0.5502 -0.7388
    4SOL     OW   10   1.227   1.552   2.311 -0.0206  0.2844  0.1452
    4SOL    HW1   11   1.141   1.565   2.250 -3.1669  0.3935  2.1184
    4SOL    HW2   12   1.218   1.467   2.378  1.4266 -0.4326  3.3662
    5SOL     OW   13   1.150   1.526   3.057 -0.3981  0.4807 -0.3326
    5SOL    HW1   14   1.221   1.598   3.087  0.8687  1.3952  0.9911
    5SOL    HW2   15   1.061   1.538   3.109 -0.8518  3.4849 -4.5427
    6SOL     OW   16   0.160   1.735   2.987 -0.5020 -0.0335 -0.1934
    6SOL    HW1   17   0.095   1.763   3.067  3.2293 -0.3366 -0.5670
    6SOL    HW2   18   0.253   1.707   3.026  0.5038  1.9321  2.4517
    7SOL     OW   19   2.589   0.899   1.080 -0.2755  0.0280 -0.4841
    7SOL    HW1   20   2.502   0.848   1.108  0.0669  1.0697 -1.2296
    7SOL    HW2   21   2.594   0.913   0.978 -0.0275 -1.1337  0.8005
    8SOL     OW   22   0.405   0.639   1.516 -0.0691 -0.8941 -0.6132
    8SOL    HW1   23   0.493   0.588   1.541  0.5770 -0.2444  1.2810
    8SOL    HW2   24   0.369   0.615   1.423  0.6613  0.7078  1.2680
    9SOL     OW   25   1.191   0.906   2.421  0.2498  0.7382 -0.2316
    9SOL    HW1   26   1.229   0.933   2.326 -0.2200  1.8891 -0.0452
    9SOL    HW2   27   1.180   0.802   2.436  0.5097  3.0141  3.5266
   10SOL     OW   28   0.679   1.371   1.305  0.0289  0.2146  0.1281
   10SOL    HW1   29   0.579   1.396   1.286 -1.1163  1.2648 -2.1691
   10SOL    HW2   30   0.730   1.456   1.305 -0.7624 -2.2716  1.9148
   11SOL     OW   31   2.298   2.789   0.875 -0.4349  0.1136  0.1075
   11SOL    HW1   32   2.258   2.800   0.970  1.7730 -3.8869  2.1692
   11SOL    HW2   33   2.393   2.747   0.873  2.9931 -0.9318 -1.8421
   12SOL     OW   34   1.520   0.893   0.352  0.2919 -0.7488  0.4632
   12SOL    HW1   35   1.424   0.931   0.359  0.5044 -0.9226 -1.9472
   12SOL    HW2   36   1.526   0.804   0.296  0.2335 -1.1123  2.7584
   13SOL     OW   37   2.478   0.716   1.779 -0.5839 -0.2806  0.2208
   13SOL    HW1   38   2.395   0.704   1.841  1.1826 -1.3762  2.1166
   13SOL    HW2   39   2.474   0.662   1.695  0.4039  2.5200 -0.1240
   14SOL     OW   40   1.858   0.103   0.674 -0.4163  0.0035 -0.1505
   14SOL    HW1   41   1.763   0.118   0.633 -1.2012 -1.4651  2.3473
   14SOL    HW2   42   1.867   0.011   0.722 -0.6648 -0.0217  1.3917
   15SOL     OW   43   1.955   2.099   2.721  0.2231 -0.2480  0.0840
   15SOL    HW1   44   1.876   2.166   2.732  0.3388  1.6226  0.4591
   15SOL    HW2   45   1.928   2.010   2.676 -2.8675 -0.3680  1.0684
   16SOL     OW   46   1.626   1.694   2.982 -0.0805 -0.0232  0.2128
   16SOL    HW1   47   1.612   1.610   3.043 -0.2378 -0.3228  2.0656
   16SOL    HW2   48   1.716   1.746   2.997  3.6045  0.5401 -0.3352
   17SOL     OW   49   0.103   0.462   0.161 -0.4244 -0.3405 -0.0322
   17SOL    HW1   50   0.189   0.492   0.125 -2.3024 -0.4977  0.6394
   17SOL    HW2   51   0.023   0.501   0.106 -1.2804  0.3356  1.3613
   18SOL     OW   52   0.946   2.933   2.157  0.0379  0.5369 -0.3611
   18SOL    HW1   53   0.862   2.872   2.161 -0.1553 -3.1703 -0.3180
   18SOL    HW2   54   0.999   2.929   2.069 -3.5827  1.3014  0.4712
   19SOL     OW   55   0.547   0.819   1.889  0.1075 -0.5313  0.2938
   19SOL    HW1   56   0.576   0.785   1.981 -2.8916  0.9300  0.9003
   19SOL    HW2   57   0.619   0.883   1.851 -0.5197  3.9457 -1.9734
   20SOL     OW   58   0.183   2.778   0.862  0.0032  0.7369  0.3812
   20SOL    HW1   59   0.118   2.854   0.846  0.4864 -0.5997 -2.2172
   20SOL    HW2   60   0.172   2.705   0.791 -0.3944 -0.6199  1.6336
   21SOL     OW   61   2.705   0.268   2.023 -0.5049  0.1974 -0.3335
   21SOL    HW1   62   2.636   0.195   1.994 -1.3055 -2.5276 -2.3985
   21SOL    HW2   63   2.796   0.224   2.055 -0.5031 -0.3648 -0.6853
   22SOL     OW   64   2.341   0.260   0.143 -0.5263  0.2986  0.1971
   22SOL    HW1   65   2.326   0.168   0.105  0.0287  0.2521  0.5824
   22SOL    HW2   66   2.260   0.325   0.126  0.0023  0.0939 -0.3416
   23SOL     OW   67   2.789   0.579   0.602  0.1526  0.3458  0.2385
   23SOL    HW1   68   2.788   0.478   0.614 -1.0806  0.8631  0.2383
   23SOL    HW2   69   2.749   0.615   0.518  1.2166 -0.9115 -1.5855
   24SOL     OW   70   0.205   1.945   0.400  0.3848  0.3276  0.2223
   24SOL    HW1   71   0.148   1.999   0.341  1.0865  2.4444  2.3056
   24SOL    HW2   72   0.295   1.923   0.358 -0.8611 -0.0337  1.8441
   25SOL     OW   73   2.236   0.613   0.241 -0.0929  0.1399  0.1652
   25SOL    HW1   74   2.256   0.612   0.143  0.1636  1.6987  1.6615
   25SOL    HW2   75   2.265   0.527   0.297  1.3130 -0.1421  2.3462
   26SOL     OW   76   2.491   2.154   2.065 -0.3793  0.3543 -0.0537
   26SOL    HW1   77   2.560   2.222   2.100  0.4174  1.5038  2.7589
   26SOL    HW2   78   2.526   2.079   2.001  1.5143 -1.9897 -0.3976
   27SOL     OW   79   0.597   2.915   0.203  0.0704 -0.0789 -0.6583
   27SOL    HW1   80   0.695   2.948   0.202 -0.4925 -0.0540  3.2552
   27SOL    HW2   81   0.552   2.907   0.109  1.2728 -1.5904 -0.0281
   28SOL     OW   82   1.576   0.192   0.283  0.5655 -0.3991 -0.0169
   28SOL    HW1   83   1.655   0.157   0.226 -2.3162 -1.0410 -0.8461
   28SOL    HW2   84   1.590   0.285   0.326  1.3173 -1.4235  1.4770
   29SOL     OW   85   1.987   0.603   0.348  0.6018 -0.3608 -0.3742
   29SOL    HW1   86   1.935   0.689   0.371 -1.5969 -2.2775 -1.8197
   29SOL    HW2   87   2.075   0.634   0.307 -2.9560  1.5051 -0.4086
   30SOL     OW   88   0.158   1.978   0.930 -0.1204  1.1693  0.0301
   30SOL    HW1   89   0.132   1.933   0.840 -1.3503  2.4000  0.0451
   30SOL    HW2   90   0.092   2.048   0.967 -1.3425  1.6020  0.0038
   31SOL     OW   91   2.139   3.090   2.364  0.2391  0.3985  0.0854
   31SOL    HW1   92   2.193   3.017   2.419  0.8174 -0.3153 -0.4304
   31SOL    HW2   93   2.042   3.060   2.341 -0.3903  0.9946  0.2773
   32SOL     OW   94   2.970   0.029   0.248 -0.5069  0.2760  0.0472
   32SOL    HW1   95   2.976  -0.071   0.230 -0.5073  2.4057  0.7104
   32SOL    HW2   96   3.061   0.074   0.221  1.4247  2.8554  0.8031
   33SOL     OW   97   0.904   0.323   0.583 -0.0098 -0.0259  0.0161
   33SOL    HW1   98   0.879   0.235   0.532  1.2778  0.2706 -0.2570
   33SOL    HW2   99   1.011   0.332   0.592  0.5201 -0.0987  1.6392
   34SOL     OW  100   0.332   2.746   1.085  0.3156 -0.4735  0.1027
   34SOL    HW1  101   0.292   2.734   0.988 -3.4709  1.1018 -0.5170
   34SOL    HW2  102   0.432   2.783   1.077  0.7691  0.0187 -0.6253
   35SOL     OW  103   0.014   0.101   1.894 -0.4716  0.3475  0.2384
   35SOL    HW1  104   0.052   0.006   1.912 -0.3777  0.7764 -0.2292
   35SOL    HW2  105  -0.009   0.115   1.791  3.3000  1.8687  0.4659
   36SOL     OW  106   1.925   1.311   1.659 -0.5441 -0.4089 -0.3575
   36SOL    HW1  107   1.978   1.226   1.641  1.3395 -1.2131 -2.9731
   36SOL    HW2  108   1.944   1.382   1.581  0.8316 -1.8822 -2.6275
   37SOL     OW  109   1.186   0.204   0.981 -0.0241 -0.0098 -0.0928
   37SOL    HW1  110   1.243   0.281   1.017 -1.8615 -2.1557 -1.0047
   37SOL    HW2  111   1.239   0.114   0.977 -0.9137  1.4186  0.2716
   38SOL     OW  112   1.142   2.841   2.454  0.5178 -0.8588 -0.6707
   38SOL    HW1  113   1.094   2.753   2.439  2.4223  1.3543  1.7868
   38SOL    HW2  114   1.084   2.920   2.420 -2.2131 -1.2394 -2.1956
   39SOL     OW  115   2.311   1.459   3.056 -0.2130  0.0305 -0.1945
   39SOL    HW1  116   2.359   1.367   3.073  2.8354 -0.9901  0.9826
   39SOL    HW2  117   2.255   1.484   3.138 -0.1478 -0.2993  0.7492
   40SOL     OW  118   2.003   2.427   2.553 -0.2376  0.0474 -0.0377
   40SOL    HW1  119   1.981   2.528   2.568 -0.1346 -1.2124 -3.9089
   40SOL    HW2  120   1.943   2.382   2.482 -1.9278 -0.9106  1.2546
   41SOL     OW  121   3.031   0.678   2.801 -0.2366 -0.3384  0.1846
   41SOL    HW1  122   2.971   0.757   2.811  2.1844 -1.8816  0.3501
   41SOL    HW2  123   2.989   0.595   2.755  1.3757  1.3760 -0.0122
   42SOL     OW  124   1.777   1.791   0.498 -0.3664 -0.1621 -1.0067
   42SOL    HW1  125   1.722   1.701   0.504  1.2210  0.6658  0.9650
   42SOL    HW2  126   1.797   1.818   0.396  0.3821  1.6008 -0.3757
   43SOL     OW  127   0.436   1.683   1.131  0.2746  0.0724 -0.1642
   43SOL    HW1  128   0.430   1.583   1.155 -0.9993  3.4351 -0.3355
   43SOL    HW2  129   0.342   1.727   1.111 -2.8694  2.0478  3.7902
   44SOL     OW  130   1.739   2.409   3.007 -0.4415 -0.8129  0.0745
   44SOL    HW1  131   1.663   2.479   3.019 -2.3609  0.7874  1.6100
   44SOL    HW2  132   1.756   2.381   2.910  2.0775  0.8054 -1.5972
   45SOL     OW  133   0.371   1.887   2.627 -0.1260  0.4355  0.3888
   45SOL    HW1  134   0.342   1.893   2.524  0.1283  0.7339  0.8328
   45SOL    HW2  135   0.428   1.801   2.647 -2.9989 -1.4196 -1.2980
   46SOL     OW  136   1.237   0.612   0.145  0.6667 -0.0914 -0.0965
   46SOL    HW1  137   1.282   0.696   0.101  0.0812  1.1976  0.8046
   46SOL    HW2  138   1.135   0.622   0.148 -1.5230  1.3065  1.7869
   47SOL     OW  139   0.212   2.547   1.539  0.2839  0.2570 -0.2856
   47SOL    HW1  140   0.239   2.446   1.558  1.2276 -3.6695 -3.4714
   47SOL    HW2  141   0.193   2.560   1.440  0.0536  0.4342 -0.4656
   48SOL     OW  142   2.637   0.630   0.136 -0.5276 -0.3590 -0.2462
   48SOL    HW1  143   2.645   0.591   0.233  0.8005  0.4999 -1.4956
   48SOL    HW2  144   2.721   0.686   0.114  0.3943  0.9125 -1.5908
   49SOL     OW  145   0.319   0.750   1.761 -0.5499 -0.1460 -0.4638
   49SOL    HW1  146   0.401   0.784   1.814 -0.9901 -1.4199  0.7501
   49SOL    HW2  147   0.355   0.712   1.670  1.9429  0.2107 -0.4055
   50SOL     OW  148   1.673   1.125   0.340  0.2577  0.3830  0.0854
   50SOL    HW1  149   1.627   1.043   0.304 -1.3844  0.9684 -0.0670
   50SOL    HW2  150   1.653   1.143   0.437 -1.2014 -1.1792  0.8193
   51SOL     OW  151   2.920   1.759   0.244  0.3760 -0.7154 -0.0145
   51SOL    HW1  152   2.887   1.665   0.209  2.6358 -3.4774  2.1867
   51SOL    HW2  153   2.986   1.757   0.320 -3.6017  1.9342  2.4229
   52SOL     OW  154   0.802   2.076   0.556  0.1716  0.3569  0.5408
   52SOL    HW1  155   0.748   2.129   0.630 -0.9512  1.0889  3.8228
   52SOL    HW2  156   0.834   1.987   0.596 -0.0788  1.4293  0.8260
   53SOL     OW  157   0.199   0.439   1.590  0.9102  0.3654  0.0625
   53SOL    HW1  158   0.265   0.517   1.601  2.1766  0.1677 -0.7145
   53SOL    HW2  159   0.109   0.471   1.548 -0.7280 -1.9446 -2.2916
   54SOL     OW  160   1.809   0.526   3.070 -0.3470 -0.2912 -0.4662
   54SOL    HW1  161   1.861   0.489   3.148  1.1777 -1.0385 -2.7724
   54SOL    HW2  162   1.711   0.504   3.089  2.4582  3.3986  0.5738
   55SOL     OW  163   0.758   2.901   0.690  0.2997 -0.1951  0.1667
   55SOL    HW1  164   0.686   2.971   0.691  0.1629 -2.3882  0.3612
   55SOL    HW2  165   0.852   2.934   0.700  0.1398 -2.2693  0.9482
   56SOL     OW  166   0.601   1.561   0.016  0.5210 -0.0952 -0.1610
   56SOL    HW1  167   0.508   1.601   0.027  1.5719  1.1013 -2.6850
   56SOL    HW2  168   0.602   1.488  -0.057  0.9141 -1.5179 -2.2163
   57SOL     OW  169   1.757   2.526   2.367  0.3339 -0.0413 -1.1055
   57SOL    HW1  170   1.795   2.432   2.370 -1.5828  1.6021  1.0475
   57SOL    HW2  171   1.668   2.534   2.425 -3.1259 -1.2300  0.4735
   58SOL     OW  172   0.711   0.251   1.068  0.2745 -0.3481 -0.3484
   58SOL    HW1  173   0.614   0.255   1.119  1.7143  0.8982  3.8200
   58SOL    HW2  174   0.736   0.152   1.037  1.4468 -2.4608  2.4764
   59SOL     OW  175   0.395   2.321   2.726 -0.2538 -0.6818 -0.0741
   59SOL    HW1  176   0.442   2.240   2.683  0.5157  0.9170 -0.1359
   59SOL    HW2  177   0.445   2.343   2.819 -0.1892 -0.9762  1.0422
   60SOL     OW  178   2.320   2.071   2.264 -0.0379  0.2076  0.0989
   60SOL    HW1  179   2.386   2.112   2.196  3.2924  0.6427  0.9615
   60SOL    HW2  180   2.326   2.098   2.365  2.4402  1.2860  1.9282
   61SOL     OW  181   1.317   0.641   0.441 -0.2345 -0.6160 -0.1056
   61SOL    HW1  182   1.214   0.648   0.451 -1.3153  0.3276 -1.8414
   61SOL    HW2  183   1.341   0.636   0.343 -1.1695  1.6217  2.7330
   62SOL     OW  184   2.708   1.819   2.931  0.1711 -0.7289 -0.1394
   62SOL    HW1  185   2.662   1.777   2.846 -1.0773 -2.4563  0.2442
   62SOL    HW2  186   2.801   1.780   2.942  2.0340  1.2570 -0.2456
   63SOL     OW  187   0.516   0.807   0.183  0.2678  0.1287 -0.5960
   63SOL    HW1  188   0.566   0.890   0.143  1.4963 -2.0626  1.7662
   63SOL    HW2  189   0.514   0.804   0.286  1.5465 -2.4742 -1.7654
   64SOL     OW  190   0.079   0.430   2.466 -0.0375 -0.0132 -0.4781
   64SOL    HW1  191   0.073   0.469   2.565 -0.6214 -0.1941  3.6064
   64SOL    HW2  192   0.036   0.490   2.394 -4.1791  1.6200  0.5671
   65SOL     OW  193   0.158   1.518   0.600  0.4786 -0.2717 -0.2709
   65SOL    HW1  194   0.211   1.562   0.684  3.5219  0.4501  1.5139
   65SOL    HW2  195   0.219   1.469   0.530 -1.8221  0.5467 -2.2178
   66SOL     OW  196   2.542   0.352   0.584  0.0949  0.0034 -0.2978
   66SOL    HW1  197   2.635   0.322   0.621 -1.6951 -1.3335  1.8893
   66SOL    HW2  198   2.468   0.330   0.658  0.9808 -0.9017  0.1116
   67SOL     OW  199   0.566   2.500   1.449  0.1418 -0.8500  0.2168
   67SOL    HW1  200   0.658   2.468   1.486  0.9399 -0.8610  1.7041
   67SOL    HW2  201   0.508   2.418   1.417  1.4271 -0.2431 -2.4870
   68SOL     OW  202   0.996   1.098   2.498 -0.4036 -0.3614  0.0135
   68SOL    HW1  203   1.068   1.026   2.479 -2.4199 -4.2200  0.4870
   68SOL    HW2  204   0.923   1.105   2.427 -1.9278  0.0112 -1.1422
   69SOL     OW  205   0.712   2.768   2.155 -0.7438  0.5302  0.4351
   69SOL    HW1  206   0.747   2.665   2.138  0.4330 -1.7979  1.3552
   69SOL    HW2  207   0.612   2.771   2.181 -1.1117  1.7802  1.0711
   70SOL     OW  208   0.474   0.231   2.634 -0.2117 -0.4159 -0.3863
   70SOL    HW1  209   0.378   0.220   2.670  1.5229 -0.6377 -0.1805
   70SOL    HW2  210   0.531   0.143   2.651 -0.1356 -2.6950 -0.6438
   71SOL     OW  211   1.129   1.775   0.431  0.3061 -0.0141 -0.3620
   71SOL    HW1  212   1.103   1.691   0.483 -0.0849  2.5612 -0.4816
   71SOL    HW2  213   1.052   1.788   0.357 -1.3335  0.3050 -2.5244
   72SOL     OW  214   1.826   0.198   2.145  0.1803 -0.2662  0.2671
   72SOL    HW1  215   1.883   0.287   2.150  0.8435  0.6758  0.9738
   72SOL    HW2  216   1.878   0.116   2.134 -2.0178 -1.4080  0.4623
   73SOL     OW  217   2.819   2.163   2.401  0.1356 -0.3392 -0.0981
   73SOL    HW1  218   2.819   2.065   2.362 -1.7955 -1.5515 -0.8822
   73SOL    HW2  219   2.855   2.169   2.503  0.8588  0.0394 -0.8139
   74SOL     OW  220   2.685   2.846   2.152 -0.0960 -0.0826  0.3676
   74SOL    HW1  221   2.633   2.845   2.245 -0.7389 -0.6707 -0.4135
   74SOL    HW2  222   2.771   2.899   2.151  3.0700 -0.6418  4.4792
   75SOL     OW  223   0.934   0.851   1.099  0.3614 -0.3431  0.3661
   75SOL    HW1  224   0.850   0.895   1.055  1.7831  0.0960  1.4347
   75SOL    HW2  225   0.954   0.872   1.200 -0.9121  1.1885 -1.1712
   76SOL     OW  226   1.723   1.207   2.513 -0.1851  0.2382 -0.0372
   76SOL    HW1  227   1.628   1.199   2.471  2.2609  0.8686  0.5688
   76SOL    HW2  228   1.745   1.298   2.557  0.3865 -0.5964 -0.9653
   77SOL     OW  229   2.934   0.942   1.000  0.0299  0.4791  0.2851
   77SOL    HW1  230   2.921   0.838   0.986  0.1780  0.1213 -0.3671
   77SOL    HW2  231   2.980   0.966   1.093 -0.6623  1.5597 -0.0606
   78SOL     OW  232   2.000   1.460   1.467  0.1525  0.1373  0.1362
   78SOL    HW1  233   2.104   1.480   1.458 -1.3259  1.1944 -1.3661
   78SOL    HW2  234   1.943   1.480   1.381 -0.4940 -1.3171  0.0400
   79SOL     OW  235   0.613   1.400   0.807  0.6814  0.5963 -0.3137
   79SOL    HW1  236   0.520   1.387   0.840  0.9295 -1.3144  0.1594
   79SOL    HW2  237   0.629   1.354   0.716 -1.7774  0.1783  0.3379
   80SOL     OW  238   0.635   0.503   1.566  0.2955 -0.4696  0.1996
   80SOL    HW1  239   0.696   0.566   1.507 -0.8647  1.6023 -1.7415
   80SOL    HW2  240   0.631   0.410   1.523  1.3824  1.9633 -0.6032
   81SOL     OW  241   1.040   1.333   2.623  0.2325 -0.4487  0.0703
   81SOL    HW1  242   1.035   1.229   2.609  0.1522 -0.9605 -2.6644
   81SOL    HW2  243   0.956   1.374   2.575 -1.3087 -3.8129 -2.4277
   82SOL     OW  244   0.969   3.011   1.553 -0.0861  0.0105  0.0122
   82SOL    HW1  245   0.866   3.033   1.557 -0.3831  1.0558 -0.5942
   82SOL    HW2  246   0.999   2.956   1.472 -0.0777  0.9429  0.2716
   83SOL     OW  247   2.653   2.402   0.852 -0.6312  0.1393  0.7279
   83SOL    HW1  248   2.609   2.322   0.794  2.5616 -1.6697 -0.8352
   83SOL    HW2  249   2.623   2.495   0.821  3.2225  1.0433 -2.2166
   84SOL     OW  250   0.636   3.047   2.357  0.2012 -0.1106  1.2432
   84SOL    HW1  251   0.593   3.068   2.452 -1.8204  1.4129  2.5462
   84SOL    HW2  252   0.699   2.966   2.354  0.5961 -2.0215 -1.4752
   85SOL     OW  253   0.278   1.608   1.437  0.2478  0.4257  0.0058
   85SOL    HW1  254   0.278   1.709   1.415 -1.3174  1.4193 -1.8324
   85SOL    HW2  255   0.334   1.579   1.517  2.8075  3.6046 -0.4364
   86SOL     OW  256   0.453   1.009   1.535  0.4495  0.6891 -0.2730
   86SOL    HW1  257   0.417   0.959   1.451  0.0828  0.2922  1.4003
   86SOL    HW2  258   0.557   0.998   1.548 -0.3986  0.0720 -2.3012
   87SOL     OW  259   1.568   0.650   0.216  0.5392 -0.0311  0.3919
   87SOL    HW1  260   1.648   0.717   0.217 -2.0542 -2.1563  0.5879
   87SOL    HW2  261   1.568   0.584   0.137 -1.8081 -0.2659  0.5312
   88SOL     OW  262   1.550   1.358   0.271 -0.8140 -0.2360 -0.0794
   88SOL    HW1  263   1.587   1.264   0.285 -1.5850  1.1814  0.4350
   88SOL    HW2  264   1.449   1.353   0.247  0.9277 -0.8504  0.6874
   89SOL     OW  265   3.074   0.457   0.590 -0.1403 -0.0348 -0.0847
   89SOL    HW1  266   3.159   0.395   0.566  1.9768 -0.4472 -2.2263
   89SOL    HW2  267   2.981   0.403   0.599 -0.1124  0.6159  0.6850
   90SOL     OW  268   0.911   1.563   0.069 -0.0086 -0.3671 -0.6144
   90SOL    HW1  269   0.856   1.532   0.152 -0.1552 -0.9537  0.7005
   90SOL    HW2  270   0.852   1.561  -0.017 -0.8393 -0.3154  1.0445
   91SOL     OW  271   1.221   1.472   1.809  0.1969  0.4923 -0.2450
   91SOL    HW1  272   1.212   1.569   1.851 -1.8633  2.5860 -1.7583
   91SOL    HW2  273   1.320   1.452   1.794  0.7498  1.3554 -3.4840
   92SOL     OW  274   3.073   0.931   1.234  0.3395  0.2412  0.0886
   92SOL    HW1  275   3.120   1.017   1.194  3.2917 -0.7892 -1.0701
   92SOL    HW2  276   3.081   0.937   1.339  1.1316  0.2566 -0.0965
   93SOL     OW  277   0.013   2.748   0.015 -0.7389  0.1855  0.5251
   93SOL    HW1  278  -0.052   2.758  -0.065 -0.4648 -0.6899 -0.9258
   93SOL    HW2  279   0.033   2.649   0.038 -2.6655 -1.9323  0.2480
   94SOL     OW  280   1.518   1.464   1.796 -0.5151  0.1644  0.3302
   94SOL    HW1  281   1.590   1.391   1.783  1.8370  1.3276  1.8589
   94SOL    HW2  282   1.549   1.528   1.876  1.8942  0.8960  2.7196
   95SOL     OW  283   1.423   2.514   3.015  0.2698 -0.0517 -0.1640
   95SOL    HW1  284   1.325   2.525   3.031  0.1072 -0.4808 -0.4962
   95SOL    HW2  285   1.442   2.418   2.978  1.0184 -0.0838  0.0756
   96SOL     OW  286   0.566   2.097   1.292  0.1691  0.2047  0.8436
   96SOL    HW1  287   0.535   2.037   1.215 -0.1103  0.0589  1.4564
   96SOL    HW2  288   0.628   2.043   1.357  0.6855 -0.8961  1.6300
   97SOL     OW  289   0.378   1.626   2.444 -0.8782 -0.7396  0.3563
   97SOL    HW1  290   0.322   1.611   2.353  0.8957  1.0884 -2.3803
   97SOL    HW2  291   0.320   1.622   2.531 -0.7200  0.8080 -0.4980
   98SOL     OW  292   2.052   1.647   1.169  0.9722 -0.4549  0.1527
   98SOL    HW1  293   1.973   1.585   1.193  1.7449  3.0671 -3.2935
   98SOL    HW2  294   2.122   1.600   1.112 -0.4496  1.8263 -1.1405
   99SOL     OW  295   2.519   2.044   1.288  0.1742  0.4244 -0.4150
   99SOL    HW1  296   2.535   2.034   1.389 -1.4641 -0.6491 -0.6241
   99SOL    HW2  297   2.517   1.953   1.242 -0.1209  2.0300 -0.6571
  100SOL     OW  298   2.341   0.370   2.085 -0.6135  0.6798  0.3531
  100SOL    HW1  299   2.272   0.335   2.151  0.6325 -0.3251 -1.4979
  100SOL    HW2  300   2.411   0.442   2.114 -1.8276  1.5982 -2.2627
  101SOL     OW  301   0.420   1.485   0.466 -0.2053  0.4447  0.4707
  101SOL    HW1  302   0.454   1.578   0.501  0.7188 -0.3208  0.1716
  101SOL    HW2  303   0.490   1.412   0.471 -0.4835  0.7350 -1.1918
  102SOL     OW  304   2.241   1.038   0.838  0.4616  0.1097 -0.0530
  102SOL    HW1  305   2.157   0.990   0.798 -0.0529 -1.0928  3.2027
  102SOL    HW2  306   2.257   1.130   0.788 -0.3285  5.6390  2.4088
  103SOL     OW  307   2.224   0.075   0.378  0.0030  0.0026 -0.2353
  103SOL    HW1  308   2.304   0.123   0.333  1.8462  0.9107 -0.1370
  103SOL    HW2  309   2.251   0.038   0.470 -1.9203 -0.8965 -1.7747
  104SOL     OW  310   0.100   1.790   2.168  0.0510  0.2498 -0.4396
  104SOL    HW1  311   0.151   1.786   2.076 -2.7415  1.8897 -1.4196
  104SOL    HW2  312   0.012   1.837   2.159  1.0216  0.9578  0.0891
  105SOL     OW  313   1.280   2.085   0.777  0.2260  0.4851  0.4250
  105SOL    HW1  314   1.343   2.108   0.697  2.6344 -2.2219  0.3053
  105SOL    HW2  315   1.267   1.982   0.784 -0.8056  0.4754  0.3132
  106SOL     OW  316   2.122   0.401   1.405  0.2064 -0.6861  0.4721
  106SOL    HW1  317   2.061   0.315   1.409 -2.0286 -0.8517  0.2955
  106SOL    HW2  318   2.124   0.447   1.499  0.9789  0.8944 -0.0340
  107SOL     OW  319   1.884   2.963   1.238  0.5762  0.3372  0.2985
  107SOL    HW1  320   1.877   3.045   1.295  0.2124 -2.4236  1.0413
  107SOL    HW2  321   1.800   2.904   1.241  2.6947 -0.8613 -0.3760
  108SOL     OW  322   0.785   2.788   1.276  0.7486  0.2596  0.1231
  108SOL    HW1  323   0.796   2.714   1.350 -0.2732 -0.8956  1.9557
  108SOL    HW2  324   0.879   2.827   1.253  2.9169 -0.3122 -0.4549
  109SOL     OW  325   2.132   0.096   0.797 -0.0661  0.2815 -0.7533
  109SOL    HW1  326   2.041   0.138   0.772 -1.0742 -0.6949 -1.2708
  109SOL    HW2  327   2.123   0.035   0.880 -1.4685  0.3334  0.5871
  110SOL     OW  328   0.444   2.838   2.772  0.8293 -0.3445  0.4727
  110SOL    HW1  329   0.422   2.800   2.678 -1.4516 -0.1916 -1.8531
  110SOL    HW2  330   0.507   2.774   2.824 -0.2133  0.4005 -0.8864
  111SOL     OW  331   1.305   0.490   2.324  0.3231 -0.1224  0.0129
  111SOL    HW1  332   1.220   0.538   2.360  1.8903 -2.9702 -0.6290
  111SOL    HW2  333   1.354   0.431   2.394  2.1350 -0.2607 -0.4357
  112SOL     OW  334   1.714   0.503   1.449  0.5299  0.2178  0.9238
  112SOL    HW1  335   1.706   0.497   1.348  0.9672 -1.2269  0.2950
  112SOL    HW2  336   1.672   0.429   1.499  2.1713 -0.3868 -2.6806
  113SOL     OW  337   2.334   1.655   1.769  0.8093 -0.3604  0.2393
  113SOL    HW1  338   2.404   1.577   1.750  1.2942 -1.0908 -2.6781
  113SOL    HW2  339   2.349   1.708   1.861  1.1193 -0.1478  0.3849
  114SOL     OW  340   0.350   0.537   1.251  0.1241 -0.5879 -0.4576
  114SOL    HW1  341   0.409   0.601   1.191  1.4340  2.9327 -1.7393
  114SOL    HW2  342   0.247   0.562   1.258 -0.2416  3.9605 -1.2558
  115SOL     OW  343   2.712   1.626   1.202  0.5775  0.0958 -0.3812
  115SOL    HW1  344   2.704   1.520   1.206  1.3729 -1.2087 -1.5958
  115SOL    HW2  345   2.796   1.648   1.156 -2.3411 -1.0628  3.3988
  116SOL     OW  346   1.794   1.016   0.594 -0.4946 -0.6544 -0.4116
  116SOL    HW1  347   1.728   0.932   0.584 -0.1539 -2.1859 -1.4942
  116SOL    HW2  348   1.760   1.088   0.662  1.6218  2.1343 -0.1765
  117SOL     OW  349   1.187   0.348   0.571 -0.3145  0.3784 -0.0848
  117SOL    HW1  350   1.245   0.427   0.564 -0.6488  2.0242 -2.1209
  117SOL    HW2  351   1.190   0.295   0.480 -2.5720  0.1063 -1.6212
  118SOL     OW  352   1.134   1.145   1.126 -0.5935  0.9955 -0.5679
  118SOL    HW1  353   1.133   1.063   1.195 -1.4187 -0.1218  1.0295
  118SOL    HW2  354   1.160   1.238   1.169 -1.3031 -0.7320 -2.6426
  119SOL     OW  355   1.813   1.577   2.168  0.0710  0.0729 -0.2722
  119SOL    HW1  356   1.776   1.674   2.185 -1.8383 -1.1296  1.7355
  119SOL    HW2  357   1.914   1.580   2.148 -0.4524  1.1154  1.6371
  120SOL     OW  358   2.926   2.865   0.197 -0.4926 -0.2022  0.8013
  120SOL    HW1  359   3.012   2.839   0.143  1.0463 -0.4102  0.0659
  120SOL    HW2  360   2.843   2.803   0.182  1.7378 -0.6245 -0.9417
  121SOL     OW  361   1.947   0.754   2.224 -0.3477  0.0640  0.3418
  121SOL    HW1  362   1.991   0.794   2.139 -1.9956 -0.1452 -0.5278
  121SOL    HW2  363   1.943   0.649   2.223 -0.2302 -1.9579  0.1693
  122SOL     OW  364   2.632   2.581   1.323  0.9089 -0.7382 -0.0739
  122SOL    HW1  365   2.682   2.523   1.253  0.1874  1.9624  0.2721
  122SOL    HW2  366   2.540   2.538   1.337 -0.4512 -0.4501 -0.6598
  123SOL     OW  367   1.730   0.037   1.702  0.5292 -0.5226  0.0018
  123SOL    HW1  368   1.760  -0.050   1.655 -1.3106  3.4774 -0.6299
  123SOL    HW2  369   1.802   0.078   1.766  0.3561 -0.1874  2.1238
  124SOL     OW  370   0.056   0.420   1.083  0.3293  0.0243 -0.7557
  124SOL    HW1  371   0.074   0.505   1.141 -1.4046  0.2635  1.8664
  124SOL    HW2  372   0.048   0.439   0.985 -1.1582  3.2229  2.3802
  125SOL     OW  373   0.860   1.849   0.710 -0.1126  0.6226  0.3316
  125SOL    HW1  374   0.961   1.831   0.730  2.2949  2.1471  2.1277
  125SOL    HW2  375   0.803   1.869   0.793 -0.5689 -0.8993 -0.5547
  126SOL     OW  376   1.821   2.261   2.404 -0.2343 -0.0937  0.6412
  126SOL    HW1  377   1.903   2.224   2.343  3.6221  2.2380  2.4114
  126SOL    HW2  378   1.758   2.189   2.449  0.5397 -1.5374  0.5201
  127SOL     OW  379   0.958   0.918   0.190 -0.7606  0.0195 -0.8662
  127SOL    HW1  380   0.983   0.968   0.281 -0.3924  1.9320 -0.0696
  127SOL    HW2  381   0.934   0.819   0.206  1.6541 -1.3208 -1.7617
  128SOL     OW  382   0.929   0.199   1.389 -0.1651  0.0806  0.4073
  128SOL    HW1  383   0.920   0.278   1.325 -1.1332 -0.1460 -3.0965
  128SOL    HW2  384   0.874   0.113   1.359 -0.7351  1.5461 -0.7662
  129SOL     OW  385   1.845   0.659   1.823 -0.0156 -0.0258  0.4419
  129SOL    HW1  386   1.858   0.682   1.723 -0.5537 -0.2621  1.1092
  129SOL    HW2  387   1.895   0.728   1.887  1.4362  2.7078  3.2936
  130SOL     OW  388   1.374   2.145   1.031  0.2532 -0.1143 -0.1585
  130SOL    HW1  389   1.331   2.107   0.940 -0.0902 -4.2190 -1.0923
  130SOL    HW2  390   1.472   2.165   1.010  0.8487  0.4472 -2.0535
  131SOL     OW  391   2.999   1.412   1.367 -0.5194 -0.2448  0.1736
  131SOL    HW1  392   2.934   1.349   1.417  0.0928 -0.8815  0.9890
  131SOL    HW2  393   3.094   1.390   1.400 -1.4940 -2.9714 -0.2908
  132SOL     OW  394   2.038   2.428   0.478 -0.0370  0.0932 -0.3506
  132SOL    HW1  395   1.951   2.476   0.491  0.7110 -1.7015 -1.4371
  132SOL    HW2  396   2.045   2.338   0.534  0.5849 -1.8662  2.9081
  133SOL     OW  397   1.796   2.349   2.737 -0.2964  0.0554 -0.1628
  133SOL    HW1  398   1.704   2.370   2.699 -2.9281 -0.0534  0.8498
  133SOL    HW2  399   1.879   2.389   2.689 -1.3304  1.9022 -4.2181
  134SOL     OW  400   2.661   2.307   1.594  0.1334 -0.0386  0.2661
  134SOL    HW1  401   2.563   2.331   1.621  0.1592  1.0255 -0.0563
  134SOL    HW2  402   2.723   2.389   1.592 -1.3107  0.5961  1.5899
  135SOL     OW  403   0.723   1.474   2.672  0.2451 -0.6280  0.2999
  135SOL    HW1  404   0.691   1.386   2.712 -2.2511  3.4049 -0.8021
  135SOL    HW2  405   0.771   1.461   2.580  0.5045 -1.8006 -0.4034
  136SOL     OW  406   1.206   2.043   0.448 -0.1428  0.0239  0.8044
  136SOL    HW1  407   1.132   2.111   0.478 -1.4065 -1.1838  1.4206
  136SOL    HW2  408   1.178   1.939   0.456 -1.6546 -1.9337 -1.5027
  137SOL     OW  409   0.437   1.209   2.213  0.2276 -0.5241  0.5532
  137SOL    HW1  410   0.331   1.179   2.223 -0.8356 -1.0977  0.8400
  137SOL    HW2  411   0.506   1.129   2.222 -1.2020  1.7568 -1.3294
  138SOL     OW  412   2.509   1.477   0.284 -0.4850  0.7566  0.0042
  138SOL    HW1  413   2.408   1.475   0.260  2.2330  0.6222  0.4628
  138SOL    HW2  414   2.542   1.402   0.348 -0.0043  0.5868 -1.5224
  139SOL     OW  415   1.889   2.620   1.352  0.4134  0.2804  0.3140
  139SOL    HW1  416   1.787   2.640   1.344 -0.7134  0.8338  1.2494
  139SOL    HW2  417   1.902   2.519   1.349  2.5996  0.2625  2.7327
  140SOL     OW  418   3.002   2.973   2.507 -0.4118  0.0194  0.0714
  140SOL    HW1  419   3.062   2.887   2.504  0.1694  0.5174 -0.4164
  140SOL    HW2  420   3.060   3.064   2.490  1.3622  0.7927 -1.1992
  141SOL     OW  421   1.329   1.687   1.589 -0.3076  0.0501  0.0804
  141SOL    HW1  422   1.232   1.722   1.571 -1.1449  0.6133  2.2454
  141SOL    HW2  423   1.338   1.652   1.686 -0.1569  2.4088  0.8839
  142SOL     OW  424   1.541   0.600   2.248 -0.5670  0.0191  0.1234
  142SOL    HW1  425   1.560   0.584   2.146 -3.6502 -2.3267 -0.6387
  142SOL    HW2  426   1.435   0.581   2.268 -2.9144 -1.5005  2.2585
  143SOL     OW  427   2.747   0.912   0.492 -0.0152 -0.0687  0.3028
  143SOL    HW1  428   2.792   0.946   0.403 -2.3779 -1.5757  1.9917
  143SOL    HW2  429   2.815   0.902   0.571 -0.5779 -3.0731  0.2014
  144SOL     OW  430   2.897   1.211   1.491 -0.2719  0.4393  0.0234
  144SOL    HW1  431   2.860   1.184   1.582 -1.0217  0.8328  1.5371
  144SOL    HW2  432   2.975   1.149   1.465  0.0397 -1.2675 -2.3151
  145SOL     OW  433   1.027   1.819   0.141  0.6278  0.6126 -0.4024
  145SOL    HW1  434   1.120   1.829   0.097  0.8342 -2.8284 -0.3972
  145SOL    HW2  435   0.983   1.729   0.126 -0.0692  1.2703 -0.3268
  146SOL     OW  436   2.450   0.656   1.487 -0.1169  0.0416  0.1586
  146SOL    HW1  437   2.415   0.562   1.444 -2.3388 -1.5870 -0.8565
  146SOL    HW2  438   2.411   0.740   1.433 -0.4238  1.3556 -0.7206
  147SOL     OW  439   1.092   2.513   0.594 -0.4226  1.0203 -0.0374
  147SOL    HW1  440   1.062   2.608   0.550  4.3406  2.7100 -1.7212
  147SOL    HW2  441   1.183   2.484   0.550  1.9307  1.9915  1.0579
  148SOL     OW  442   1.611   1.471   0.029 -0.4528  0.1510  0.2067
  148SOL    HW1  443   1.614   1.401  -0.049  1.4639 -1.5955 -0.6845
  148SOL    HW2  444   1.601   1.424   0.122  2.0597 -2.2326 -0.3380
  149SOL     OW  445   0.662   1.450   1.961 -0.4687  0.0926 -0.1058
  149SOL    HW1  446   0.569   1.419   1.995 -0.2895 -0.1547  3.3456
  149SOL    HW2  447   0.697   1.398   1.880 -0.7267 -1.1473  1.3120
  150SOL     OW  448   3.054   1.243   0.944 -0.0767 -0.6663  0.4024
  150SOL    HW1  449   3.119   1.225   1.022 -0.3456  0.7879 -1.7821
  150SOL    HW2  450   2.965   1.195   0.959  0.6056  2.6054 -1.7787
  151SOL     OW  451   0.127   0.702   2.083  0.3550 -0.5166  0.3108
  151SOL    HW1  452   0.119   0.801   2.057  0.7628 -0.5627  1.3659
  151SOL    HW2  453   0.206   0.652   2.038  0.0187 -0.7060 -0.5065
  152SOL     OW  454   1.467   1.789   1.202 -0.0187  0.4618 -0.3250
  152SOL    HW1  455   1.520   1.876   1.193 -0.4863  1.4060 -1.4364
  152SOL    HW2  456   1.362   1.797   1.174 -1.4846 -0.1714 -1.4450
  153SOL     OW  457   0.123   1.593   0.202  0.1776 -0.3250  0.3523
  153SOL    HW1  458   0.100   1.495   0.204  0.9651 -1.0828 -1.8829
  153SOL    HW2  459   0.070   1.647   0.273  1.0342  0.0730  1.8271
  154SOL     OW  460   2.372   1.870   2.843 -0.2217 -0.0120  0.8251
  154SOL    HW1  461   2.404   1.774   2.874 -0.1005 -0.5657  1.4461
  154SOL    HW2  462   2.422   1.898   2.752  1.3021 -0.2535 -3.4318
  155SOL     OW  463   2.504   1.192   0.377  0.5704 -0.3454  0.9958
  155SOL    HW1  464   2.587   1.195   0.311  0.0694 -1.3780 -1.5515
  155SOL    HW2  465   2.432   1.127   0.344  2.0639 -2.0218 -0.1021
  156SOL     OW  466   2.483   0.891   0.798 -0.7276 -0.9872 -0.2909
  156SOL    HW1  467   2.389   0.911   0.836  0.4272  1.5011 -2.8618
  156SOL    HW2  468   2.522   0.975   0.747  0.6532  0.0575  1.6674
  157SOL     OW  469   1.213   3.003   2.965 -0.2195  0.3641 -0.4092
  157SOL    HW1  470   1.300   2.947   2.945  0.8268  1.5025  0.6759
  157SOL    HW2  471   1.237   3.099   2.989 -0.7325  2.0320  2.9218
  158SOL     OW  472   0.991   1.850   1.889  0.0422  0.0501  0.3324
  158SOL    HW1  473   1.002   1.951   1.885  2.5089 -2.4618 -2.0055
  158SOL    HW2  474   0.899   1.824   1.930  0.2981  0.7764  1.9787
  159SOL     OW  475   0.895   0.407   1.204 -0.1953  0.7560 -0.0059
  159SOL    HW1  476   0.860   0.479   1.269 -1.3146  0.7388 -0.7960
  159SOL    HW2  477   0.820   0.364   1.141 -3.8035 -0.5054 -1.0326
  160SOL     OW  478   1.357   2.413   1.602 -0.2114  0.2614 -0.0145
  160SOL    HW1  479   1.329   2.322   1.640  1.3914 -0.7054 -0.8425
  160SOL    HW2  480   1.457   2.427   1.603 -2.5302  0.2222 -0.6842
  161SOL     OW  481   0.009   2.953   0.446 -0.2154 -0.8882  0.8705
  161SOL    HW1  482  -0.044   2.867   0.421 -0.0157  1.1413  2.7628
  161SOL    HW2  483  -0.031   3.049   0.427  0.1133 -0.0799  2.6587
  162SOL     OW  484   2.597   1.871   0.510  0.0866 -0.2038 -0.6321
  162SOL    HW1  485   2.569   1.817   0.422 -0.0573  1.0226 -2.3691
  162SOL    HW2  486   2.621   1.805   0.588  3.8653  2.3769  0.0960
  163SOL     OW  487   1.927   2.750   0.728 -0.0026 -0.3913  0.4269
  163SOL    HW1  488   1.931   2.781   0.630  2.4783  1.4660  0.2144
  163SOL    HW2  489   2.009   2.693   0.758  0.7825  0.4998  0.0584
  164SOL     OW  490   3.043   0.228   1.242  0.0226 -0.4101  0.2346
  164SOL    HW1  491   3.089   0.296   1.185 -2.2084 -3.6581 -0.5598
  164SOL    HW2  492   3.090   0.203   1.325 -0.1058  0.0424 -2.2043
  165SOL     OW  493   0.960   1.368   0.746  0.6974 -0.0540  0.0645
  165SOL    HW1  494   0.890   1.405   0.817 -1.6386  3.0140  1.0578
  165SOL    HW2  495   0.990   1.445   0.687 -1.8573  0.5208  2.1744
  166SOL     OW  496   1.577   1.020   1.777  0.3804 -0.7182  0.5034
  166SOL    HW1  497   1.486   1.032   1.831 -1.1601  0.5024  1.3311
  166SOL    HW2  498   1.644   1.101   1.781  0.3641  1.0627  2.2722
  167SOL     OW  499   0.748   2.000   1.465 -0.1642 -0.6183  0.1902
  167SOL    HW1  500   0.775   2.071   1.532 -1.3218  1.9110 -0.1709
  167SOL    HW2  501   0.692   1.925   1.502 -0.8551  0.5406  0.0279
  168SOL     OW  502   1.615   2.349   0.159  0.1014 -0.2566  0.1377
  168SOL    HW1  503   1.695   2.380   0.096  3.7353  1.4081  0.6868
  168SOL    HW2  504   1.625   2.343   0.264 -1.0190 -0.5306  1.9763
  169SOL     OW  505   0.182   2.580   2.224 -0.4912  0.1853  0.0692
  169SOL    HW1  506   0.216   2.559   2.123 -0.2408  0.9129 -1.5379
  169SOL    HW2  507   0.208   2.513   2.299  1.9522 -1.2577  0.3394
  170SOL     OW  508   1.093   0.233   2.017  0.0461  0.1100 -0.0518
  170SOL    HW1  509   1.155   0.171   2.080  3.4068 -3.6020  0.9095
  170SOL    HW2  510   1.127   0.230   1.919  1.6595  1.9197 -0.8797
  171SOL     OW  511   0.174   0.813   2.356  0.0342  0.2363  0.2591
  171SOL    HW1  512   0.082   0.845   2.406 -2.9834 -1.3418  0.9015
  171SOL    HW2  513   0.151   0.784   2.259 -1.3724  1.5648  1.0237
  172SOL     OW  514   0.953   0.987   2.872  0.1683 -0.3859  0.3788
  172SOL    HW1  515   0.941   1.058   2.942 -0.8625 -2.2296 -0.4580
  172SOL    HW2  516   0.870   0.975   2.807 -0.3549 -0.8194  1.2290
  173SOL     OW  517   0.577   2.585   0.128 -1.0136 -0.6872  0.0864
  173SOL    HW1  518   0.574   2.679   0.078  2.3577 -1.2364 -2.6936
  173SOL    HW2  519   0.483   2.570   0.175  0.1970 -1.2216 -0.7264
  174SOL     OW  520   1.540   2.794   1.042 -0.0960 -0.3155  0.0036
  174SOL    HW1  521   1.568   2.855   0.960  1.4210  1.8514 -3.5408
  174SOL    HW2  522   1.501   2.701   1.021  1.6941  2.4954  0.2551
  175SOL     OW  523   0.482   3.049   1.719 -0.5128  0.2290  0.0464
  175SOL    HW1  524   0.565   3.026   1.775 -0.1027  0.0960  0.7445
  175SOL    HW2  525   0.472   3.150   1.705 -0.5448  0.3048  1.5512
  176SOL     OW  526   2.563   0.401   0.014  0.0492  0.1883 -0.3193
  176SOL    HW1  527   2.580   0.481   0.087  0.2275  1.4530  1.2762
  176SOL    HW2  528   2.510   0.323   0.055  1.1255  0.9576  0.2187
  177SOL     OW  529   0.294   0.356   0.927 -0.2916 -0.0078 -0.1015
  177SOL    HW1  530   0.259   0.256   0.921  0.2529 -1.3093 -0.1382
  177SOL    HW2  531   0.323   0.392   1.020  1.9229 -1.6725  1.1884
  178SOL     OW  532   0.067   2.748   2.563 -0.0337 -0.1032 -0.3331
  178SOL    HW1  533   0.019   2.654   2.549  0.5440  0.7925 -1.2828
  178SOL    HW2  534   0.126   2.752   2.647 -1.7428 -0.9016 -0.2031
  179SOL     OW  535   3.043   1.585   1.144 -0.7069  0.1840  0.0558
  179SOL    HW1  536   3.065   1.520   1.065  0.8974 -0.6653  1.3097
  179SOL    HW2  537   3.010   1.535   1.227 -3.0462 -2.1230  1.3467
  180SOL     OW  538   0.193   1.268   1.821 -0.0200  0.0701 -0.6995
  180SOL    HW1  539   0.282   1.217   1.858 -0.4732  0.1332 -1.5078
  180SOL    HW2  540   0.185   1.363   1.865 -1.8593  2.0568 -0.5085
  181SOL     OW  541   0.004   1.886   2.467  0.8813 -0.1594  0.2430
  181SOL    HW1  542   0.059   1.965   2.441 -2.9961 -0.1376  0.2385
  181SOL    HW2  543  -0.095   1.897   2.428 -0.6680 -0.4667 -2.4079
  182SOL     OW  544   2.327   1.235   1.178 -0.3588 -0.5648  0.1549
  182SOL    HW1  545   2.255   1.182   1.133  2.0011  2.2546 -0.8072
  182SOL    HW2  546   2.323   1.339   1.166  4.7812 -1.4605  2.0895
  183SOL     OW  547   1.445   2.254   2.546 -0.1065 -0.1318 -0.4038
  183SOL    HW1  548   1.352   2.222   2.584  1.0229 -0.8442  0.9883
  183SOL    HW2  549   1.515   2.185   2.541 -4.4689 -0.1994 -2.3026
  184SOL     OW  550   2.033   0.919   0.681  0.4933  0.1844 -0.2056
  184SOL    HW1  551   1.959   0.975   0.623 -2.1437  3.2553 -0.1057
  184SOL    HW2  552   1.991   0.835   0.733 -2.3114 -1.0122  1.1018
  185SOL     OW  553   1.600   2.776   1.956 -0.9106 -0.2317 -0.0547
  185SOL    HW1  554   1.529   2.854   1.969 -0.0856  0.2111 -0.2346
  185SOL    HW2  555   1.648   2.757   2.046  0.5358  0.6898 -1.8376
  186SOL     OW  556   0.149   2.255   1.654 -0.0199  0.0118  0.3381
  186SOL    HW1  557   0.148   2.321   1.733  1.5855  0.3674  1.5114
  186SOL    HW2  558   0.234   2.190   1.662  1.2810 -0.2701 -0.1615
  187SOL     OW  559   1.361   0.679   1.652  0.7822  0.0955 -0.1746
  187SOL    HW1  560   1.442   0.739   1.618 -0.1415 -0.0525 -0.1178
  187SOL    HW2  561   1.382   0.603   1.723 -2.5740 -0.8737 -0.5975
  188SOL     OW  562   2.799   2.758   1.448  0.5888  0.2515  0.1872
  188SOL    HW1  563   2.768   2.853   1.466  2.2520  0.1530 -0.3173
  188SOL    HW2  564   2.722   2.701   1.403  1.6501 -0.4355 -0.0952
  189SOL     OW  565   0.931   1.192   1.463 -0.6442 -0.2705  0.3883
  189SOL    HW1  566   0.997   1.241   1.527  1.5678  0.7692  0.9559
  189SOL    HW2  567   0.863   1.251   1.410 -1.2202  1.5645 -3.5087
  190SOL     OW  568   1.438   1.952   1.629  0.1061  0.2005 -0.2211
  190SOL    HW1  569   1.407   1.856   1.603  1.3524 -1.4431  1.4998
  190SOL    HW2  570   1.518   1.956   1.701  1.8570 -2.5177 -2.9818
  191SOL     OW  571   0.924   0.733   1.522 -0.0536  0.6824 -0.5517
  191SOL    HW1  572   0.996   0.662   1.539  1.0424  2.8778 -0.0439
  191SOL    HW2  573   0.972   0.818   1.488 -0.4804  1.0174 -0.2215
  192SOL     OW  574   1.858   2.315   1.075 -0.0352 -0.2282  0.3260
  192SOL    HW1  575   1.780   2.364   1.037 -0.1544 -0.0698 -1.1332
  192SOL    HW2  576   1.944   2.332   1.019  0.4877  0.4066  1.0355
  193SOL     OW  577   0.530   0.563   0.437 -0.2185 -0.7032 -0.2897
  193SOL    HW1  578   0.467   0.499   0.482  2.1550  1.7185 -2.0499
  193SOL    HW2  579   0.567   0.536   0.341  1.0249  1.4809 -0.5920
  194SOL     OW  580   0.367   0.874   1.291  0.1286 -0.4354 -0.2400
  194SOL    HW1  581   0.287   0.815   1.326  1.5755 -1.1192 -0.8065
  194SOL    HW2  582   0.347   0.921   1.200 -0.5527  2.8625  1.9417
  195SOL     OW  583   1.027   2.937   0.512 -0.1983  0.0783  0.0898
  195SOL    HW1  584   1.006   2.848   0.463 -2.4351 -1.0799  0.4682
  195SOL    HW2  585   1.125   2.969   0.496 -0.6283  3.7920  2.3415
  196SOL     OW  586   0.190   1.355   1.391  0.1341 -0.7174 -0.3862
  196SOL    HW1  587   0.224   1.452   1.401  0.2440 -1.1836 -0.2540
  196SOL    HW2  588   0.207   1.295   1.473  2.2996 -1.5455 -0.8954
  197SOL     OW  589   0.836   2.045   0.246 -0.1204 -0.4419 -0.4617
  197SOL    HW1  590   0.847   2.061   0.348 -1.3246  1.1073  1.1004
  197SOL    HW2  591   0.857   1.951   0.208 -1.7471  0.3178 -0.2606
  198SOL     OW  592   0.278   1.257   0.323 -0.1981  0.2351  0.4877
  198SOL    HW1  593   0.181   1.229   0.307  1.3296  0.5252  1.5184
  198SOL    HW2  594   0.292   1.355   0.365  1.3988 -2.0410  1.3586
  199SOL     OW  595   2.327   0.378   2.521 -0.4468 -0.0762  0.5600
  199SOL    HW1  596   2.252   0.367   2.588  1.8673  3.1060  0.0642
  199SOL    HW2  597   2.422   0.362   2.559  2.7283  0.4325  1.4981
  200SOL     OW  598   3.093   2.942   0.742 -0.1806  0.0989  0.2815
  200SOL    HW1  599   3.000   2.938   0.701 -1.4007 -2.8426  2.6355
  200SOL    HW2  600   3.156   2.961   0.662 -3.1923  0.2401 -1.3469
  201SOL     OW  601   1.052   0.712   0.550  0.0432 -0.4816 -0.0217
  201SOL    HW1  602   1.072   0.793   0.621  1.8408  2.2510 -0.0945
  201SOL    HW2  603   0.959   0.663   0.560 -5.2751  0.6539 -0.9322
  202SOL     OW  604   0.398   1.111   1.945  0.2726  0.2481  0.7709
  202SOL    HW1  605   0.449   1.044   1.890 -1.1055 -0.3351 -0.5964
  202SOL    HW2  606   0.444   1.157   2.022 -1.6265  3.8071 -2.1478
  203SOL     OW  607   0.635   0.206   1.471 -0.6905 -0.0662  0.2951
  203SOL    HW1  608   0.647   0.132   1.399 -3.3239  0.5018  0.2769
  203SOL    HW2  609   0.704   0.201   1.545 -1.3133 -0.2501 -1.7520
  204SOL     OW  610   2.113   1.792   2.896 -0.4181 -0.6134  0.0833
  204SOL    HW1  611   2.113   1.685   2.897  0.7024 -4.1317 -0.9194
  204SOL    HW2  612   2.193   1.821   2.840 -0.3236 -0.5799  0.9298
  205SOL     OW  613   1.858   1.836   3.022 -0.0493 -0.1675 -0.0100
  205SOL    HW1  614   1.945   1.818   2.965  1.7480  2.0939 -0.0407
  205SOL    HW2  615   1.835   1.939   3.019  1.0808 -0.9036  1.9288
  206SOL     OW  616   2.445   2.812   0.342 -0.9503  0.1394  0.0468
  206SOL    HW1  617   2.500   2.730   0.377 -0.8052 -0.8289  0.1236
  206SOL    HW2  618   2.502   2.871   0.282  0.7548  0.4873 -0.9756
  207SOL     OW  619   0.700   1.818   2.969  0.0390 -0.0763 -0.6628
  207SOL    HW1  620   0.766   1.774   2.904 -0.4618 -1.1072 -0.1718
  207SOL    HW2  621   0.682   1.756   3.048 -2.0047  1.4330 -0.9991
  208SOL     OW  622   1.149   1.571   1.396  0.2355  0.2285  0.4532
  208SOL    HW1  623   1.128   1.672   1.390  3.5518  1.1696 -1.8538
  208SOL    HW2  624   1.235   1.553   1.443 -0.1496 -0.2915 -3.0161
  209SOL     OW  625   0.251   0.938   3.046  0.0757 -0.0524  0.1753
  209SOL    HW1  626   0.253   0.844   2.997 -0.4842  0.5798  1.4447
  209SOL    HW2  627   0.256   0.929   3.151 -0.2400  0.3078 -1.2337
  210SOL     OW  628   1.724   0.470   1.162 -0.3299  0.0689 -0.1258
  210SOL    HW1  629   1.678   0.560   1.148 -0.8542  0.0206 -2.2285
  210SOL    HW2  630   1.831   0.475   1.165  2.8467 -1.1075 -0.1849
  211SOL     OW  631   2.114   1.052   1.596  0.0920  0.1960 -0.1509
  211SOL    HW1  632   2.154   0.991   1.673  0.7236 -0.3445  0.0508
  211SOL    HW2  633   2.186   1.094   1.531  0.4531 -0.4549  3.3489
  212SOL     OW  634   0.010   0.976   1.504  0.1767 -0.4778  0.0477
  212SOL    HW1  635   0.070   1.048   1.548 -0.3138  1.2298 -2.2874
  212SOL    HW2  636   0.010   0.888   1.557  1.4158  0.0556 -0.0196
  213SOL     OW  637   2.808   0.175   0.406 -0.2632 -0.5355 -0.7487
  213SOL    HW1  638   2.867   0.113   0.338  0.0896  0.3429 -2.6788
  213SOL    HW2  639   2.745   0.226   0.345  0.4742 -6.1789 -0.5427
  214SOL     OW  640   2.164   0.279   2.319  0.5828  0.7317  0.6859
  214SOL    HW1  641   2.224   0.319   2.396  2.5483  0.3843  1.0136
  214SOL    HW2  642   2.121   0.182   2.336 -0.9646 -0.3404  0.4505
  215SOL     OW  643   1.585   2.306   2.089  0.8254  0.4247 -0.3189
  215SOL    HW1  644   1.690   2.322   2.094 -0.1429 -2.0029 -0.0617
  215SOL    HW2  645   1.526   2.387   2.120  1.7778  2.7008 -0.2278
  216SOL     OW  646   2.186   0.616   0.686  0.5537 -0.2819  0.0711
  216SOL    HW1  647   2.156   0.529   0.644 -1.8607  1.5920  0.4299
  216SOL    HW2  648   2.208   0.687   0.616  1.4447  2.7795  0.5830
  217SOL     OW  649   0.750   2.785   2.424 -0.0016  0.6376 -0.2164
  217SOL    HW1  650   0.692   2.713   2.472  1.5522  1.0582  1.8554
  217SOL    HW2  651   0.752   2.764   2.318 -1.5972 -3.3008 -1.5232
  218SOL     OW  652   1.903   1.411   0.027  0.1553  0.4021  0.1164
  218SOL    HW1  653   1.813   1.451   0.005 -1.4468 -1.0801  0.2043
  218SOL    HW2  654   1.893   1.357   0.111  0.5087 -1.2592 -3.1002
  219SOL     OW  655   2.432   1.319   2.497 -0.1863  0.1856  0.2486
  219SOL    HW1  656   2.459   1.272   2.408 -0.8696  1.3252 -1.7206
  219SOL    HW2  657   2.430   1.251   2.578 -0.1709 -0.1952  0.4603
  220SOL     OW  658   1.468   1.060   1.302  0.3212  0.3291  0.3746
  220SOL    HW1  659   1.567   1.061   1.329 -0.7496  2.2148  0.3192
  220SOL    HW2  660   1.456   1.092   1.205 -3.1133  0.3372  0.3012
  221SOL     OW  661   1.288   0.992   2.165  0.1183 -0.0715  0.0834
  221SOL    HW1  662   1.274   0.956   2.067 -1.5517  0.2726  0.1750
  221SOL    HW2  663   1.386   1.018   2.188  0.9783  0.1988  1.7496
  222SOL     OW  664   1.113   0.067   1.205  0.3167  0.3198  0.0487
  222SOL    HW1  665   1.134   0.113   1.295 -2.0997  2.8361  0.5401
  222SOL    HW2  666   1.124   0.131   1.130 -0.8238 -0.0326  1.3605
  223SOL     OW  667   2.730   0.961   2.167 -0.1906  0.0235  0.4080
  223SOL    HW1  668   2.677   1.037   2.213  0.2962 -0.5252 -1.7144
  223SOL    HW2  669   2.827   0.951   2.200  0.3394 -2.2591  0.9479
  224SOL     OW  670   1.509   1.077   2.729  0.2064  0.1235 -0.3142
  224SOL    HW1  671   1.562   0.989   2.694  1.5548 -4.8579 -3.4221
  224SOL    HW2  672   1.481   1.134   2.648 -0.6683 -0.2730  1.4097
  225SOL     OW  673   2.940   2.793   2.891  0.5749 -0.6252 -0.0923
  225SOL    HW1  674   2.852   2.760   2.837  0.5557  1.2537 -4.3969
  225SOL    HW2  675   3.021   2.787   2.826 -0.1077  0.9918  2.6363
  226SOL     OW  676   2.458   1.624   2.878 -0.4884  0.6227 -0.7388
  226SOL    HW1  677   2.462   1.585   2.780  1.5235  0.4193  2.6391
  226SOL    HW2  678   2.410   1.566   2.944  1.8642 -2.7502 -0.8214
  227SOL     OW  679   0.868   0.132   0.048 -0.2984  0.7268 -0.5817
  227SOL    HW1  680   0.921   0.215   0.022 -0.9970 -1.3465 -0.7783
  227SOL    HW2  681   0.782   0.112  -0.002  2.0188 -1.5227  0.2224
  228SOL     OW  682   2.428   0.602   2.837  0.0317 -0.6402  0.2707
  228SOL    HW1  683   2.470   0.666   2.762 -0.2275  0.1655  2.5191
  228SOL    HW2  684   2.493   0.536   2.877 -1.6846  3.2693  1.4033
  229SOL     OW  685   0.565   0.463   1.846  0.3787  0.0963 -1.0436
  229SOL    HW1  686   0.553   0.363   1.860  1.4069 -1.2758  2.7065
  229SOL    HW2  687   0.575   0.494   1.747 -0.3798  3.2657 -1.6469
  230SOL     OW  688   1.908   1.147   2.094  0.9251  0.2258 -0.2082
  230SOL    HW1  689   1.975   1.215   2.050  0.0125  0.3681 -0.0919
  230SOL    HW2  690   1.811   1.176   2.088  1.7423 -2.4418  0.4258
  231SOL     OW  691   0.626   1.015   0.059 -0.6069 -0.0800  0.4878
  231SOL    HW1  692   0.713   1.075   0.056  0.1188  1.7578 -1.0072
  231SOL    HW2  693   0.536   1.067   0.064  1.0657 -2.5755 -1.3692
  232SOL     OW  694   2.418   3.076   2.845  0.2802 -0.5888  0.8673
  232SOL    HW1  695   2.455   2.984   2.873 -0.3215 -0.9215 -0.0298
  232SOL    HW2  696   2.455   3.115   2.755 -0.0304 -0.2589  1.2199
  233SOL     OW  697   1.673   1.232   1.118 -0.0236 -0.1220  0.1037
  233SOL    HW1  698   1.702   1.175   1.034 -1.3985 -0.4078 -1.6476
  233SOL    HW2  699   1.679   1.182   1.208  0.7952 -1.4426  1.5843
  234SOL     OW  700   1.555   2.522   1.874 -0.1817 -0.4039  0.1974
  234SOL    HW1  701   1.552   2.622   1.899  3.0954 -2.4604 -1.1197
  234SOL    HW2  702   1.630   2.471   1.923  0.6754  0.0927  1.1881
  235SOL     OW  703   0.029   3.048   2.812 -0.2399  0.4545  0.0898
  235SOL    HW1  704  -0.011   3.037   2.715 -0.8225 -1.5487 -1.5619
  235SOL    HW2  705  -0.045   3.090   2.870  1.1637  0.7335 -0.0009
  236SOL     OW  706   2.873   0.733   0.089  0.6400 -0.0250 -0.3711
  236SOL    HW1  707   2.945   0.784   0.148  0.2241 -0.3798  1.7957
  236SOL    HW2  708   2.911   0.644   0.053  0.6895  0.2344  1.8697
  237SOL     OW  709   1.565   1.659   0.963 -0.0302 -0.0901 -0.3898
  237SOL    HW1  710   1.669   1.666   0.967  2.6177 -1.8272 -0.2693
  237SOL    HW2  711   1.525   1.699   1.054  1.9243 -1.3103  0.9930
  238SOL     OW  712   1.790   1.271   0.844  0.3756 -0.3607 -0.0184
  238SOL    HW1  713   1.861   1.328   0.889 -1.2026 -0.4939  0.4021
  238SOL    HW2  714   1.701   1.324   0.835 -1.9178  1.4743  2.7955
  239SOL     OW  715   2.100   0.312   2.691  0.0578  0.3051  0.2414
  239SOL    HW1  716   2.139   0.281   2.785  1.1720 -1.2555 -0.0113
  239SOL    HW2  717   2.007   0.354   2.705  1.2660  1.7833  1.3507
  240SOL     OW  718   0.935   0.663   0.276 -0.3201  0.1170 -0.1169
  240SOL    HW1  719   0.983   0.570   0.274  1.6855 -0.3604  0.2880
  240SOL    HW2  720   0.933   0.696   0.375  1.9117  0.7915  0.9897
  241SOL     OW  721   0.595   0.015   0.387  0.3385  0.5494 -0.1237
  241SOL    HW1  722   0.614   0.097   0.325  0.7132 -2.7267  3.3103
  241SOL    HW2  723   0.571  -0.068   0.328  0.3061  0.0306 -0.5517
  242SOL     OW  724   0.601   2.516   1.157 -0.2096 -0.1986 -0.0308
  242SOL    HW1  725   0.566   2.532   1.253 -0.1373  2.5052  0.0792
  242SOL    HW2  726   0.643   2.604   1.125 -0.4819  0.5421 -0.0998
  243SOL     OW  727   1.087   0.634   2.496 -0.3213 -0.6159  0.6768
  243SOL    HW1  728   0.995   0.663   2.457 -3.4974 -3.1255  1.7486
  243SOL    HW2  729   1.079   0.584   2.585 -0.6693  1.4737  0.0222
  244SOL     OW  730   2.850   1.909   2.345  0.0068  0.4509  0.4378
  244SOL    HW1  731   2.854   1.915   2.235  0.2636 -1.8027  0.7742
  244SOL    HW2  732   2.776   1.842   2.376 -0.6774 -1.2502 -1.7228
  245SOL     OW  733   2.309   0.810   2.163 -0.1125  0.7310 -0.2529
  245SOL    HW1  734   2.397   0.861   2.191  1.1004  2.2482 -0.4473
  245SOL    HW2  735   2.266   0.756   2.236 -0.1279 -0.5164  2.4743
  246SOL     OW  736   0.237   2.918   1.741  0.4512  0.4928 -0.2181
  246SOL    HW1  737   0.168   2.936   1.661 -2.9650  0.1841 -1.4312
  246SOL    HW2  738   0.328   2.974   1.737  1.2890  0.0503 -0.1449
  247SOL     OW  739   2.235   0.626   3.041 -1.0194  0.4110 -0.4947
  247SOL    HW1  740   2.273   0.617   2.945  1.7580  1.6819  2.4491
  247SOL    HW2  741   2.179   0.710   3.034  3.2015  1.6605 -0.5375
  248SOL     OW  742   2.155   1.821   1.593  0.2793 -0.2609  0.7136
  248SOL    HW1  743   2.227   1.785   1.654 -2.3403  0.0739 -1.8170
  248SOL    HW2  744   2.060   1.825   1.633 -2.1463 -0.6590 -1.3573
  249SOL     OW  745   1.852   1.940   1.920 -0.1411 -0.1391  0.3647
  249SOL    HW1  746   1.859   1.869   1.843 -0.4432  0.5783 -0.3557
  249SOL    HW2  747   1.950   1.978   1.934  0.0961  1.6251 -2.1229
  250SOL     OW  748   1.101   0.685   1.885 -0.2139  0.0115  0.0689
  250SOL    HW1  749   1.118   0.610   1.955  0.1111 -0.2015  0.5559
  250SOL    HW2  750   1.042   0.653   1.802 -0.3034 -2.7875 -0.6515
  251SOL     OW  751   0.058   1.611   2.492 -0.2582  0.6892  0.3796
  251SOL    HW1  752   0.061   1.718   2.489  1.0766 -0.0454  1.3080
  251SOL    HW2  753  -0.034   1.567   2.516 -0.1855  0.1538 -3.3401
  252SOL     OW  754   1.590   0.846   1.569  0.7333 -0.2300 -0.0187
  252SOL    HW1  755   1.678   0.792   1.550 -0.7032 -0.7650 -1.0026
  252SOL    HW2  756   1.596   0.919   1.645  1.0688 -2.6892 -2.5459
  253SOL     OW  757   1.001   1.542   0.513  0.8232  0.6694  0.5100
  253SOL    HW1  758   1.019   1.464   0.446  0.6557  2.2669  2.6825
  253SOL    HW2  759   0.900   1.566   0.519 -2.6818  0.5701 -0.0166
  254SOL     OW  760   2.053   2.147   1.624 -0.3159 -0.4885 -0.3930
  254SOL    HW1  761   1.996   2.076   1.569  0.6769 -0.9517 -1.5224
  254SOL    HW2  762   1.981   2.200   1.681  0.2904  0.9664 -1.5594
  255SOL     OW  763   0.115   1.118   2.899 -0.0660  0.0075  0.5794
  255SOL    HW1  764   0.156   1.211   2.895 -1.1271 -4.8210  3.0766
  255SOL    HW2  765   0.169   1.040   2.940 -2.8194  1.5362  1.2244
  256SOL     OW  766   2.784   1.410   1.778  0.7053  0.3100 -0.2399
  256SOL    HW1  767   2.678   1.416   1.792 -0.0231  0.8839  0.4593
  256SOL    HW2  768   2.812   1.309   1.772 -0.5485  1.0062  1.1128
  257SOL     OW  769   0.759   0.147   1.762 -0.4159 -0.2007 -0.2076
  257SOL    HW1  770   0.826   0.213   1.725  0.2769 -2.1797 -0.3102
  257SOL    HW2  771   0.812   0.063   1.792  2.3561 -0.0093  1.6719
  258SOL     OW  772   3.018   1.239   0.426  0.1605  0.1445 -0.6545
  258SOL    HW1  773   2.937   1.306   0.420  1.2239  1.2899  3.0659
  258SOL    HW2  774   3.051   1.235   0.526  0.2792  0.9070  1.6623
  259SOL     OW  775   0.459   2.931   3.051  0.2186  0.2752  0.1762
  259SOL    HW1  776   0.378   2.883   3.096 -0.3568 -0.1753 -1.2133
  259SOL    HW2  777   0.487   2.886   2.967  2.0756 -0.9660 -0.8483
  260SOL     OW  778   2.755   0.794   2.803  0.1962 -1.6730  0.0528
  260SOL    HW1  779   2.671   0.772   2.747  1.1938  0.0614 -1.7840
  260SOL    HW2  780   2.739   0.774   2.906  3.9929 -0.5511  0.3951
  261SOL     OW  781   2.731   1.372   1.255 -0.9428  0.1076  0.0231
  261SOL    HW1  782   2.704   1.293   1.195 -0.3281 -0.4002  0.1298
  261SOL    HW2  783   2.829   1.365   1.281  1.2567 -1.3291 -0.7050
  262SOL     OW  784   1.386   2.964   1.979 -0.3628 -0.8429 -0.3504
  262SOL    HW1  785   1.405   3.057   1.936 -0.1171  0.6823 -0.0690
  262SOL    HW2  786   1.284   2.937   1.967 -2.4792  3.8518 -0.4584
  263SOL     OW  787   0.851   0.699   2.360  0.2544 -0.1086 -0.2910
  263SOL    HW1  788   0.784   0.620   2.329 -1.6359  0.6387  1.6435
  263SOL    HW2  789   0.888   0.742   2.270 -1.4876  2.3733 -0.3375
  264SOL     OW  790   2.192   0.831   0.465  0.1580 -0.0520 -0.1777
  264SOL    HW1  791   2.269   0.783   0.417 -1.3347 -1.5331 -2.4534
  264SOL    HW2  792   2.232   0.916   0.513 -1.8352  0.2876  1.7847
  265SOL     OW  793   0.956   2.428   2.591  0.0047  0.4512  0.1881
  265SOL    HW1  794   1.002   2.465   2.673 -0.3686 -0.4919 -1.8501
  265SOL    HW2  795   0.908   2.339   2.614  0.8332  2.9161 -0.9673
  266SOL     OW  796   1.296   1.756   0.005 -0.0301  0.2881 -0.6671
  266SOL    HW1  797   1.310   1.829   0.086 -1.2822  0.5973 -0.1608
  266SOL    HW2  798   1.383   1.717  -0.037  1.3074  1.3175  1.2454
  267SOL     OW  799   1.015   0.010   2.336 -0.0456  0.8905  0.0808
  267SOL    HW1  800   0.997  -0.062   2.261 -1.9787 -0.2194 -1.0110
  267SOL    HW2  801   0.945   0.084   2.333  1.6608  2.6560  0.6610
  268SOL     OW  802   0.609   1.176   1.029  0.0339 -0.4386 -0.2751
  268SOL    HW1  803   0.613   1.204   1.132  0.9793  0.9224  3.7726
  268SOL    HW2  804   0.591   1.259   0.972  1.7637  0.3972  4.4728
  269SOL     OW  805   2.331   2.563   1.607 -0.4269  0.4390  0.2799
  269SOL    HW1  806   2.379   2.469   1.595 -0.1761 -0.7197  1.6239
  269SOL    HW2  807   2.266   2.557   1.692 -1.5879  0.2384  0.4274
  270SOL     OW  808   0.177   2.926   2.008  0.0372  0.2497  0.0073
  270SOL    HW1  809   0.225   2.905   1.916 -1.0936  1.7089 -0.2377
  270SOL    HW2  810   0.105   2.855   2.032  0.4262  1.3097 -0.4835
  271SOL     OW  811   0.409   1.417   1.193 -0.0689 -0.0419  0.1527
  271SOL    HW1  812   0.397   1.414   1.086  0.8506  1.5609  0.1907
  271SOL    HW2  813   0.320   1.419   1.248 -0.9094  0.6166 -1.4989
  272SOL     OW  814   1.997   2.895   1.938  0.9401  0.9551 -0.1110
  272SOL    HW1  815   1.927   2.834   1.886 -3.1207 -2.3055 -0.9204
  272SOL    HW2  816   2.075   2.940   1.882 -0.7843 -1.4651 -1.2839
  273SOL     OW  817   1.486   1.417   2.723 -0.4861  0.3287  0.2539
  273SOL    HW1  818   1.386   1.436   2.740 -1.1004  1.1166  1.8170
  273SOL    HW2  819   1.533   1.364   2.797 -0.4477  1.5148  0.7095
  274SOL     OW  820   1.178   0.488   2.071 -0.2522 -0.1383 -0.0810
  274SOL    HW1  821   1.145   0.389   2.055  1.3522 -1.3843 -0.4659
  274SOL    HW2  822   1.229   0.504   2.158  1.1157  3.8994 -1.8825
  275SOL     OW  823   0.618   2.083   1.884 -0.2809  0.4965 -0.2134
  275SOL    HW1  824   0.556   2.147   1.927  1.5369  0.3570 -0.5002
  275SOL    HW2  825   0.568   2.017   1.824  0.5228  0.2359 -1.0331
  276SOL     OW  826   2.195   0.997   2.726 -0.0734  0.5158 -0.1290
  276SOL    HW1  827   2.115   1.053   2.685 -0.5371  2.2255 -1.7467
  276SOL    HW2  828   2.164   0.944   2.807  0.0245  0.7992 -1.5803
  277SOL     OW  829   3.088   0.839   0.224 -0.1231 -0.8414 -0.3579
  277SOL    HW1  830   3.180   0.883   0.200  0.7539 -1.3498 -1.8465
  277SOL    HW2  831   3.104   0.747   0.276  1.7008 -1.1126  2.1235
  278SOL     OW  832   0.254   0.291   3.035 -0.7259  0.6427 -0.6726
  278SOL    HW1  833   0.339   0.237   3.019  0.4877  0.5333  1.0552
  278SOL    HW2  834   0.276   0.381   3.088  2.4044  1.9234 -1.6839
  279SOL     OW  835   0.175   0.087   0.869 -0.7528  0.5965  0.2448
  279SOL    HW1  836   0.192   0.034   0.955  3.6180  1.6929  1.2013
  279SOL    HW2  837   0.180   0.025   0.784  0.3242  0.3860  0.3345
  280SOL     OW  838   1.604   2.908   2.401  0.0990 -0.5641  0.0455
  280SOL    HW1  839   1.665   2.963   2.467  1.4326  1.3014 -1.5624
  280SOL    HW2  840   1.545   2.980   2.347 -0.5735  0.2943 -1.8863
  281SOL     OW  841   0.552   0.956   2.234  0.2170 -0.3503  0.3376
  281SOL    HW1  842   0.559   0.862   2.191 -1.7787 -3.1232  1.4685
  281SOL    HW2  843   0.492   0.957   2.322 -0.0711  0.0777 -0.4490
  282SOL     OW  844   1.777   2.501   0.515 -0.0327  0.0902  0.0610
  282SOL    HW1  845   1.726   2.416   0.485 -0.5816  1.5211 -0.8674
  282SOL    HW2  846   1.715   2.582   0.535  1.8543 -0.1506  0.3938
  283SOL     OW  847   1.206   0.930   0.838  0.6710 -0.2110  0.1451
  283SOL    HW1  848   1.258   0.891   0.921  1.3190 -0.1069 -1.9880
  283SOL    HW2  849   1.109   0.961   0.871  2.1315  0.9737 -0.7690
  284SOL     OW  850   2.273   2.798   2.536 -0.6328  0.3297  0.3333
  284SOL    HW1  851   2.359   2.825   2.482  0.6704  1.3966 -2.3908
  284SOL    HW2  852   2.281   2.828   2.635  2.4712  1.7848 -3.9785
  285SOL     OW  853   1.335   3.027   2.570 -0.1364 -0.0808  0.1044
  285SOL    HW1  854   1.347   3.039   2.466  2.5624  0.8944 -1.9639
  285SOL    HW2  855   1.234   3.043   2.602  2.0982  0.7219  0.5489
  286SOL     OW  856   0.451   0.425   0.722 -0.2143 -0.3182 -0.0050
  286SOL    HW1  857   0.383   0.393   0.795 -3.3124  0.2657 -1.8361
  286SOL    HW2  858   0.445   0.362   0.645  0.7464 -0.4296 -0.4882
  287SOL     OW  859   0.097   1.291   2.498 -0.1382 -0.0711 -0.0314
  287SOL    HW1  860   0.073   1.230   2.581  1.2266 -2.6448  4.3186
  287SOL    HW2  861   0.090   1.389   2.535  0.6403 -2.3074 -0.9822
  288SOL     OW  862   1.613   2.648   1.630 -0.3228  0.3120 -0.2026
  288SOL    HW1  863   1.611   2.567   1.694  2.4493  1.8014  1.9598
  288SOL    HW2  864   1.628   2.631   1.525 -1.1122  1.3096  1.7051
  289SOL     OW  865   0.631   2.723   0.895  0.0279 -0.0746 -0.5194
  289SOL    HW1  866   0.680   2.782   0.822 -2.0276  1.3347 -1.1216
  289SOL    HW2  867   0.603   2.779   0.977 -0.9856  0.9151 -1.9076
  290SOL     OW  868   2.819   1.114   1.757 -0.1219  0.3055  0.8997
  290SOL    HW1  869   2.727   1.060   1.753  0.6196  1.6675  0.0956
  290SOL    HW2  870   2.896   1.072   1.817  1.9445  1.9380  2.4301
  291SOL     OW  871   1.998   0.016   0.019  0.2556 -0.3178 -0.2134
  291SOL    HW1  872   2.018   0.044   0.119 -1.7426 -2.1068 -0.8460
  291SOL    HW2  873   2.061   0.058  -0.046 -3.2754 -2.6422 -0.7625
  292SOL     OW  874   2.992   1.180   3.098  0.0999  0.5525  0.2051
  292SOL    HW1  875   2.947   1.246   3.026  0.9794  1.8277 -0.8773
  292SOL    HW2  876   3.082   1.135   3.059  0.3553 -0.3595  0.5976
  293SOL     OW  877   0.539   2.128   0.236  0.1133 -0.7579  0.9084
  293SOL    HW1  878   0.492   2.173   0.322  0.6160  1.1173  1.3451
  293SOL    HW2  879   0.641   2.115   0.238 -2.7741  2.8362 -2.9222
  294SOL     OW  880   1.830   2.286   1.771 -0.1901  0.3627 -0.1159
  294SOL    HW1  881   1.829   2.322   1.865  0.0151 -2.1196  0.0736
  294SOL    HW2  882   1.793   2.358   1.703  1.1530  0.0623 -1.2987
  295SOL     OW  883   0.979   1.082   0.417  0.0705  0.0487 -0.0054
  295SOL    HW1  884   1.063   1.057   0.471 -4.1461  2.4945 -1.3669
  295SOL    HW2  885   0.890   1.074   0.472 -1.7620  2.1849 -0.7963
  296SOL     OW  886   1.160   2.128   2.586  0.1729 -0.1983 -0.1249
  296SOL    HW1  887   1.062   2.126   2.622 -0.0224  0.1336  4.3762
  296SOL    HW2  888   1.181   2.073   2.503 -0.2069  2.6020  1.5832
  297SOL     OW  889   1.400   0.624   1.355  0.0159  0.5580 -0.1616
  297SOL    HW1  890   1.422   0.551   1.422 -0.7785 -0.2243 -0.6190
  297SOL    HW2  891   1.485   0.646   1.294 -1.8594 -0.6749 -2.1915
  298SOL     OW  892   0.510   1.329   2.993 -0.1703  0.5859 -0.3951
  298SOL    HW1  893   0.478   1.243   3.052 -0.2079  0.3776  0.2894
  298SOL    HW2  894   0.559   1.301   2.910  0.3751  1.7721  0.0622
  299SOL     OW  895   0.465   0.294   1.221 -0.0291  0.0041 -0.5585
  299SOL    HW1  896   0.413   0.386   1.235  0.0775 -2.2437 -1.8199
  299SOL    HW2  897   0.495   0.256   1.310 -2.7455  2.6269  0.2852
  300SOL     OW  898   1.251   1.755   2.698  0.3559 -1.1877 -0.7044
  300SOL    HW1  899   1.235   1.656   2.704 -0.0443  1.3074  1.6644
  300SOL    HW2  900   1.356   1.773   2.709 -0.3272 -0.7946  1.5924
  301SOL     OW  901   0.405   0.283   0.482 -0.6555 -0.1420  0.2026
  301SOL    HW1  902   0.307   0.258   0.461 -0.4457  2.1029  0.4928
  301SOL    HW2  903   0.482   0.215   0.455  0.0656  1.3127 -1.2244
  302SOL     OW  904   1.275   2.410   2.369  0.1021 -0.4241  0.1326
  302SOL    HW1  905   1.192   2.478   2.357 -0.1216  0.6963  1.5533
  302SOL    HW2  906   1.254   2.334   2.430  0.2373  1.6877  2.0831
  303SOL     OW  907   0.946   2.392   0.802  0.1680 -0.1599  0.1424
  303SOL    HW1  908   1.010   2.424   0.727  0.9140  0.2975 -0.7184
  303SOL    HW2  909   0.977   2.430   0.897  0.3332 -1.0121  0.5115
  304SOL     OW  910   0.078   1.945   0.662  0.7291  0.0745  0.1433
  304SOL    HW1  911   0.149   1.931   0.587 -0.8345 -0.5972  1.7211
  304SOL    HW2  912   0.019   2.026   0.631  0.5136  0.6878  1.0945
  305SOL     OW  913   1.577   0.838   0.628  0.7781 -0.4822  0.6019
  305SOL    HW1  914   1.557   0.828   0.525 -3.5072 -0.4775 -0.1751
  305SOL    HW2  915   1.631   0.765   0.671  0.3384  0.9552  1.2497
  306SOL     OW  916   0.405   1.871   1.890  0.7357  0.6526 -0.5802
  306SOL    HW1  917   0.468   1.788   1.893 -3.1231  0.3439  1.1451
  306SOL    HW2  918   0.399   1.924   1.981  1.7724  1.1646 -2.0793
  307SOL     OW  919   3.041   0.895   2.495  0.4452 -0.2075  0.1851
  307SOL    HW1  920   3.056   0.966   2.572  2.4135 -0.2529  0.1821
  307SOL    HW2  921   2.979   0.815   2.522  0.0462  0.1705  3.4101
  308SOL     OW  922   1.544   2.673   2.807  0.0878 -0.0672 -0.3085
  308SOL    HW1  923   1.516   2.633   2.712 -1.8263 -1.1961 -0.8687
  308SOL    HW2  924   1.512   2.615   2.888 -0.0904 -0.9651 -2.6418
  309SOL     OW  925   1.295   0.197   1.758 -0.1825  0.0514  0.5394
  309SOL    HW1  926   1.381   0.141   1.783  2.1029 -0.6200 -1.1608
  309SOL    HW2  927   1.241   0.161   1.676  2.6693  1.2375 -0.1168
  310SOL     OW  928   1.526   2.576   0.694  0.6079  0.5641 -0.1446
  310SOL    HW1  929   1.505   2.569   0.793  0.3397 -1.5664 -2.6642
  310SOL    HW2  930   1.560   2.672   0.658  0.7197  1.3299  1.6966
  311SOL     OW  931   1.167   0.926   1.671 -0.0596 -0.3000  0.1999
  311SOL    HW1  932   1.127   0.840   1.707  0.2351  0.9365  1.4915
  311SOL    HW2  933   1.237   0.910   1.600 -2.1517 -1.3217  0.6583
  312SOL     OW  934   1.607   0.728   1.133 -1.1965  0.3511 -0.0357
  312SOL    HW1  935   1.645   0.823   1.108 -2.0976  0.3436 -1.5334
  312SOL    HW2  936   1.553   0.683   1.052  1.1288 -0.1917  2.2322
  313SOL     OW  937   1.570   1.400   0.703  0.1796  0.4238 -0.3492
  313SOL    HW1  938   1.489   1.438   0.752 -1.2448 -2.3939  2.9254
  313SOL    HW2  939   1.551   1.298   0.687  2.9651  1.6828  1.5770
  314SOL     OW  940   2.953   0.040   3.012  0.8831  0.7254  0.1391
  314SOL    HW1  941   2.970   0.069   3.111 -1.8963 -1.7580  3.4036
  314SOL    HW2  942   2.877  -0.029   3.008 -0.6844  0.5720  1.0903
  315SOL     OW  943   1.142   0.217   2.816 -0.4340  0.1520  0.6794
  315SOL    HW1  944   1.092   0.158   2.747  1.0862  0.5666 -0.3795
  315SOL    HW2  945   1.208   0.160   2.871 -1.2932  3.9052  0.4953
  316SOL     OW  946   1.766   2.055   0.938  0.2492  0.4861  0.6601
  316SOL    HW1  947   1.730   2.088   1.025  0.4243 -0.8730  1.9682
  316SOL    HW2  948   1.770   2.127   0.860  0.1373  1.4612  0.8031
  317SOL     OW  949   1.183   0.679   2.826  0.6238  0.3325 -1.1664
  317SOL    HW1  950   1.143   0.714   2.917  0.2695 -0.2927  0.4044
  317SOL    HW2  951   1.124   0.612   2.784  3.7408  0.5887 -1.2394
  318SOL     OW  952   1.388   3.036   2.283  0.3083  0.1297 -0.9677
  318SOL    HW1  953   1.353   3.135   2.270 -1.0067 -1.2756 -0.7803
  318SOL    HW2  954   1.376   2.975   2.199  0.8090 -1.2475  0.5486
  319SOL     OW  955   0.593   2.418   2.946 -0.4072  0.2719 -0.1787
  319SOL    HW1  956   0.534   2.385   3.029 -0.5010 -1.4970 -1.1317
  319SOL    HW2  957   0.660   2.340   2.920  0.9252 -1.6705 -1.1925
  320SOL     OW  958   1.666   2.256   0.412  0.1517 -0.0126 -0.4538
  320SOL    HW1  959   1.745   2.203   0.358  0.3466 -1.6704 -3.2170
  320SOL    HW2  960   1.599   2.196   0.459  0.1683  2.9882  0.1205
  321SOL     OW  961   1.656   2.780   0.566  0.1741 -0.7440  0.4741
  321SOL    HW1  962   1.581   2.824   0.515 -0.8653  2.6677  0.0807
  321SOL    HW2  963   1.750   2.818   0.546  0.4138  1.3676  1.1500
  322SOL     OW  964   2.576   1.139   2.335  0.0603  0.0052  0.3126
  322SOL    HW1  965   2.655   1.167   2.398  1.2041 -2.9254 -1.5755
  322SOL    HW2  966   2.535   1.049   2.366  0.7041  2.8321 -0.1119
  323SOL     OW  967   1.201   2.693   0.862  0.5270 -0.1376  0.8001
  323SOL    HW1  968   1.166   2.640   0.777 -1.6882 -1.9230 -1.1316
  323SOL    HW2  969   1.147   2.781   0.881 -1.8317 -0.5410  0.9258
  324SOL     OW  970   0.268   2.419   2.485  0.1136 -0.0178  0.0910
  324SOL    HW1  971   0.278   2.363   2.576 -0.3786 -3.1563  0.9313
  324SOL    HW2  972   0.218   2.509   2.502 -1.8954  2.2302 -0.8451
  325SOL     OW  973   1.266   3.050   0.448 -0.0474  0.2000 -0.1898
  325SOL    HW1  974   1.296   3.090   0.353  2.7774  1.5612 -1.4249
  325SOL    HW2  975   1.296   3.112   0.529  0.2538 -0.1626  2.5141
  326SOL     OW  976   2.457   0.788   0.011 -0.3720  0.2311  0.2961
  326SOL    HW1  977   2.388   0.723  -0.036  0.5012 -2.8321 -2.1063
  326SOL    HW2  978   2.515   0.742   0.086 -2.1840 -2.2289  1.3884
  327SOL     OW  979   2.830   0.310   0.626 -0.4344 -0.3027  0.2684
  327SOL    HW1  980   2.836   0.266   0.529  3.2487  2.2654 -3.6526
  327SOL    HW2  981   2.821   0.243   0.700  1.2359  0.7911  2.3846
  328SOL     OW  982   2.603   0.557   0.397 -0.4299  0.0389  0.2605
  328SOL    HW1  983   2.548   0.646   0.395 -0.2895  2.3061 -2.4510
  328SOL    HW2  984   2.574   0.492   0.468 -1.2992  1.2670 -0.3731
  329SOL     OW  985   2.963   2.964   2.156 -0.0756 -0.1406  0.5108
  329SOL    HW1  986   3.034   2.911   2.208 -0.4844 -0.1174  0.7456
  329SOL    HW2  987   2.977   3.065   2.169  0.2113 -0.5603 -1.2011
  330SOL     OW  988   0.519   0.209   1.903  0.1779  0.6300  0.0552
  330SOL    HW1  989   0.598   0.153   1.869 -3.3791  0.7937  0.3931
  330SOL    HW2  990   0.520   0.194   2.005  0.9504 -3.1909 -2.4522
  331SOL     OW  991   2.980   1.951   1.097  0.6954  0.2863 -0.6792
  331SOL    HW1  992   2.968   2.042   1.050 -1.8749  0.6604  3.3894
  331SOL    HW2  993   2.912   1.940   1.177 -1.9927 -1.5137 -0.8097
  332SOL     OW  994   0.401   1.159   0.077  0.5964  0.0599 -0.1482
  332SOL    HW1  995   0.311   1.132   0.036 -3.7204  1.6636  2.4999
  332SOL    HW2  996   0.393   1.214   0.168  1.7708  2.2255 -0.7021
  333SOL     OW  997   2.893   1.041   0.280  0.4346  0.7016 -0.9433
  333SOL    HW1  998   2.949   1.104   0.347 -0.2934  2.3900 -1.6829
  333SOL    HW2  999   2.954   0.974   0.223  0.7542 -3.2034 -0.8716
  334SOL     OW 1000   1.710   1.265   1.821  0.7480  0.4666 -0.1211
  334SOL    HW1 1001   1.790   1.284   1.761  0.1995  0.1296  1.0348
  334SOL    HW2 1002   1.722   1.304   1.914  2.3028  1.4098 -1.6301
  335SOL     OW 1003   1.990   2.706   2.593  0.1666  0.1985  0.5226
  335SOL    HW1 1004   1.948   2.700   2.690  0.6700 -1.6493 -0.7326
  335SOL    HW2 1005   2.088   2.746   2.587  0.3775 -2.7570 -2.2890
  336SOL     OW 1006   0.226   0.097   2.719 -0.0488 -0.5530 -0.3573
  336SOL    HW1 1007   0.297   0.123   2.788  0.2345 -0.1790 -0.0775
  336SOL    HW2 1008   0.165   0.016   2.745 -0.1531  0.0346 -0.5318
  337SOL     OW 1009   0.987   2.887   2.855  0.7811  0.1455 -0.3451
  337SOL    HW1 1010   0.953   2.802   2.907 -1.1928 -0.4382  3.0406
  337SOL    HW2 1011   1.076   2.927   2.890  2.9174 -2.5444 -0.7768
  338SOL     OW 1012   0.048   1.013   0.645  0.2637  0.1812  0.2851
  338SOL    HW1 1013  -0.048   0.986   0.670 -1.2993  0.2486  0.0679
  338SOL    HW2 1014   0.047   1.117   0.656 -1.0649  1.2618 -1.6855
  339SOL     OW 1015   1.701   1.344   2.102  0.0102 -0.2018  0.0167
  339SOL    HW1 1016   1.600   1.354   2.115  2.7956 -1.2310 -2.8331
  339SOL    HW2 1017   1.755   1.429   2.121  3.0143 -4.0184 -3.6666
  340SOL     OW 1018   2.308   0.807   1.126 -0.4326 -0.2473  0.5060
  340SOL    HW1 1019   2.207   0.809   1.100 -1.2647 -1.0212 -0.5604
  340SOL    HW2 1020   2.350   0.712   1.100 -2.3030 -0.8586  1.1621
  341SOL     OW 1021   1.900   2.097   0.285  0.5673 -0.0035  0.3885
  341SOL    HW1 1022   1.918   2.147   0.196 -0.5311 -2.4302 -1.2089
  341SOL    HW2 1023   1.980   2.100   0.347 -0.4951 -0.1332 -2.8257
  342SOL     OW 1024   2.230   2.111   2.797 -1.0903 -0.1187 -0.1356
  342SOL    HW1 1025   2.289   2.032   2.831  0.9799 -0.0347  0.2509
  342SOL    HW2 1026   2.125   2.097   2.805 -2.9002  0.3557  2.6497
  343SOL     OW 1027   0.364   0.830   2.749  0.3014  0.0239 -0.0016
  343SOL    HW1 1028   0.401   0.840   2.649  3.6226  1.9571  1.6757
  343SOL    HW2 1029   0.436   0.853   2.818 -1.4097  1.5319 -0.6953
  344SOL     OW 1030   1.938   1.453   0.429  0.2134  0.4092  0.1213
  344SOL    HW1 1031   1.921   1.370   0.369  1.7540  0.7238 -0.2011
  344SOL    HW2 1032   1.850   1.502   0.455  1.3432  0.9512  2.4313
  345SOL     OW 1033   1.398   2.242   2.924  0.0978  0.4482 -0.1975
  345SOL    HW1 1034   1.312   2.230   2.865  0.9769  0.2170 -0.6806
  345SOL    HW2 1035   1.481   2.207   2.870  1.7693  0.6941  1.0318
  346SOL     OW 1036   2.344   0.896   1.400 -0.3730  0.4378  0.3713
  346SOL    HW1 1037   2.318   0.996   1.408  0.4510 -0.1457  0.4834
  346SOL    HW2 1038   2.324   0.853   1.309  3.5542 -1.2474 -1.6056
  347SOL     OW 1039   0.735   2.735   1.596  0.1598 -0.2175  0.4701
  347SOL    HW1 1040   0.671   2.731   1.680 -3.0723  1.4975  0.6222
  347SOL    HW2 1041   0.715   2.813   1.533  0.3860 -2.7468 -0.0145
  348SOL     OW 1042   0.178   0.704   2.915 -0.6278  0.0542  0.3215
  348SOL    HW1 1043   0.077   0.689   2.881 -4.9271  1.8253 -2.2364
  348SOL    HW2 1044   0.239   0.739   2.835  2.6262 -0.8717  1.3562
  349SOL     OW 1045   1.854   0.469   2.802  0.2595 -0.1313 -0.4794
  349SOL    HW1 1046   1.855   0.565   2.759 -0.6947  2.3068  2.3000
  349SOL    HW2 1047   1.843   0.472   2.903 -0.6827 -0.2366  1.1744
  350SOL     OW 1048   1.661   0.430   0.390 -0.1651  0.3314  0.0004
  350SOL    HW1 1049   1.757   0.424   0.428 -1.2147 -0.4484 -1.2588
  350SOL    HW2 1050   1.642   0.519   0.345 -0.0052 -1.4898  1.1596
  351SOL     OW 1051   0.978   0.794   2.150 -0.3000 -0.0991 -0.3672
  351SOL    HW1 1052   1.054   0.857   2.175  1.2637 -0.9095  0.1865
  351SOL    HW2 1053   0.995   0.762   2.052  0.3444  1.1376  0.1304
  352SOL     OW 1054   2.014   1.302   0.650  0.6857  0.4243 -0.3846
  352SOL    HW1 1055   1.998   1.379   0.586 -0.5157  1.0136  2.1371
  352SOL    HW2 1056   1.932   1.272   0.707  1.3848  4.4722  0.1475
  353SOL     OW 1057   2.162   2.776   1.086  0.1073  0.3221  0.0897
  353SOL    HW1 1058   2.237   2.740   1.143 -2.2531 -2.0164 -0.7739
  353SOL    HW2 1059   2.087   2.710   1.070  1.5166 -0.2240 -0.0389
  354SOL     OW 1060   0.256   1.357   2.895  0.2119  0.2298 -0.3647
  354SOL    HW1 1061   0.249   1.425   2.817 -1.2851 -2.6116 -0.4596
  354SOL    HW2 1062   0.351   1.363   2.944 -1.0986 -0.7158  0.8919
  355SOL     OW 1063   0.705   1.592   0.597 -0.2811  0.0755 -0.0061
  355SOL    HW1 1064   0.688   1.547   0.686  1.7374 -1.6993 -0.2417
  355SOL    HW2 1065   0.691   1.526   0.520 -1.7013  1.6585  1.4562
  356SOL     OW 1066   0.818   0.342   2.048 -0.1761  0.2014 -0.5386
  356SOL    HW1 1067   0.911   0.311   2.042 -3.8837  1.5653 -0.4692
  356SOL    HW2 1068   0.781   0.373   1.957 -0.8606 -3.0840  2.0512
  357SOL     OW 1069   1.011   1.348   0.340  0.5348 -0.7616 -0.8661
  357SOL    HW1 1070   1.096   1.348   0.281 -1.3275 -1.3767 -0.3813
  357SOL    HW2 1071   0.965   1.253   0.346 -0.1283  0.5110  1.7312
  358SOL     OW 1072   1.688   1.538   0.490  0.1266  0.8123 -0.1637
  358SOL    HW1 1073   1.641   1.520   0.584 -0.1344  0.2216  1.0805
  358SOL    HW2 1074   1.634   1.482   0.414 -4.1855  0.5658 -0.9907
  359SOL     OW 1075   1.572   2.643   0.205 -0.0278  0.5572  0.3054
  359SOL    HW1 1076   1.539   2.546   0.177  0.6193 -2.8007 -1.9893
  359SOL    HW2 1077   1.522   2.685   0.281  1.6560 -0.7723 -1.4575
  360SOL     OW 1078   0.792   0.584   0.532 -0.2163  0.3640 -0.3039
  360SOL    HW1 1079   0.690   0.585   0.502 -3.0561  0.4105 -0.6333
  360SOL    HW2 1080   0.829   0.488   0.545 -0.1991 -2.1454 -1.7386
  361SOL     OW 1081   1.231   1.295   0.682  0.5781 -0.1917 -0.3283
  361SOL    HW1 1082   1.302   1.364   0.717  2.0812  1.6333 -0.8109
  361SOL    HW2 1083   1.130   1.320   0.703 -0.9646 -0.1093  0.0918
  362SOL     OW 1084   1.403   1.834   0.831 -0.7270 -0.3188  0.0225
  362SOL    HW1 1085   1.446   1.754   0.882  1.6027 -0.4460 -0.8659
  362SOL    HW2 1086   1.470   1.877   0.765  0.3239  1.2036  1.0901
  363SOL     OW 1087   1.217   1.305   2.044 -0.1326  0.7933  0.3552
  363SOL    HW1 1088   1.300   1.336   2.098  2.4306 -0.4356 -0.5913
  363SOL    HW2 1089   1.181   1.370   1.972  0.4234  0.2337 -2.5886
  364SOL     OW 1090   0.519   2.339   1.988  0.6922 -0.3263 -0.4278
  364SOL    HW1 1091   0.420   2.372   1.995 -1.0134  0.5796 -2.9404
  364SOL    HW2 1092   0.568   2.383   1.906  3.9767  0.6312  1.2924
  365SOL     OW 1093   0.999   1.960   1.350 -0.0525  0.4866 -0.4615
  365SOL    HW1 1094   0.902   1.992   1.369 -1.2540 -1.5544 -0.8985
  365SOL    HW2 1095   1.010   1.919   1.257 -2.6996 -1.6917 -0.8547
  366SOL     OW 1096   2.837   1.980   0.397  0.0560 -0.5938  0.1433
  366SOL    HW1 1097   2.740   1.987   0.422 -1.6145  0.3588  1.3149
  366SOL    HW2 1098   2.857   1.907   0.324  0.8977 -1.1149 -0.9439
  367SOL     OW 1099   0.879   1.103   0.033  0.3222  0.6295 -0.8218
  367SOL    HW1 1100   0.917   1.021   0.089  0.2752 -0.4635 -0.0052
  367SOL    HW2 1101   0.956   1.172   0.008 -0.9371  1.9910 -1.6173
  368SOL     OW 1102   1.444   0.581   0.688 -0.2799  0.0205 -0.5144
  368SOL    HW1 1103   1.402   0.635   0.608 -3.2923 -1.6142 -0.5606
  368SOL    HW2 1104   1.548   0.581   0.667  1.0454 -2.3801  2.4538
  369SOL     OW 1105   0.359   1.688   0.073  0.0059 -0.2662  0.7379
  369SOL    HW1 1106   0.413   1.747   0.142 -1.8295  0.5153 -1.6902
  369SOL    HW2 1107   0.266   1.663   0.106  2.0713 -0.6992  1.2490
  370SOL     OW 1108   0.433   2.052   0.996 -0.6677 -0.2273  0.4406
  370SOL    HW1 1109   0.418   2.155   0.986 -0.7082  0.8664  0.8373
  370SOL    HW2 1110   0.350   2.001   1.012  0.1117 -1.2279  0.5120
  371SOL     OW 1111   2.934   2.211   2.636 -0.4274 -0.1618 -0.2358
  371SOL    HW1 1112   2.875   2.181   2.714 -2.4668  0.7907  2.0616
  371SOL    HW2 1113   3.034   2.232   2.664  1.2852  1.7590 -0.7636
  372SOL     OW 1114   1.069   2.014   1.057 -0.8797  0.2752 -0.1161
  372SOL    HW1 1115   0.992   2.058   1.005  0.4261 -1.2320 -0.1825
  372SOL    HW2 1116   1.145   2.082   1.067 -2.1779 -0.1619 -1.2979
  373SOL     OW 1117   2.004   1.963   0.840 -0.0936  0.0357  0.2317
  373SOL    HW1 1118   2.081   1.972   0.911  0.2995 -0.1174 -0.8710
  373SOL    HW2 1119   1.903   1.982   0.869 -0.9734 -0.7394 -1.4684
  374SOL     OW 1120   1.876   0.395   0.575  0.2158  0.5024  0.1157
  374SOL    HW1 1121   1.862   0.319   0.644 -0.4447 -1.7450  0.0805
  374SOL    HW2 1122   1.974   0.406   0.566 -5.3375  1.4902  1.0811
  375SOL     OW 1123   2.371   2.151   1.093  0.5580 -0.5312  0.0552
  375SOL    HW1 1124   2.433   2.115   1.020  0.9840 -1.3086 -0.0215
  375SOL    HW2 1125   2.411   2.143   1.187  0.2812 -0.4444 -0.0295
  376SOL     OW 1126   3.094   0.572   1.489 -0.5194  0.0683  0.1742
  376SOL    HW1 1127   3.106   0.646   1.560  0.2350 -0.3561 -1.9959
  376SOL    HW2 1128   2.998   0.528   1.500 -0.2915 -0.0258 -0.3806
  377SOL     OW 1129   2.204   2.913   0.293 -0.2018  0.0928 -0.3480
  377SOL    HW1 1130   2.225   3.008   0.335  2.2527  1.5711  0.0924
  377SOL    HW2 1131   2.287   2.849   0.302 -0.1194  1.7587 -1.8495
  378SOL     OW 1132   1.829   1.856   2.629 -0.4736 -0.1049  0.0134
  378SOL    HW1 1133   1.827   1.770   2.689 -1.1713 -1.3900  1.5894
  378SOL    HW2 1134   1.846   1.829   2.529 -1.4410  3.5863 -0.3781
  379SOL     OW 1135   0.701   0.116   2.876 -0.0606 -0.1336  0.2978
  379SOL    HW1 1136   0.680   0.051   2.798 -2.0505 -0.4492 -3.5482
  379SOL    HW2 1137   0.756   0.197   2.840 -0.4515 -1.2439 -2.5696
  380SOL     OW 1138   1.503   1.145   0.610  0.0096  0.1500  0.3066
  380SOL    HW1 1139   1.405   1.161   0.582  0.3554 -1.0717 -0.6571
  380SOL    HW2 1140   1.520   1.045   0.644 -1.8421 -2.4018  0.7836
  381SOL     OW 1141   1.363   1.166   1.521 -0.6017  0.1590 -0.3242
  381SOL    HW1 1142   1.401   1.135   1.427  1.7410  1.3236 -0.5612
  381SOL    HW2 1143   1.416   1.138   1.603 -0.1014 -1.0788  0.4104
  382SOL     OW 1144   1.775   0.857   0.183  0.2660  0.3890 -0.0202
  382SOL    HW1 1145   1.809   0.839   0.089 -1.5294 -0.3825 -0.3618
  382SOL    HW2 1146   1.841   0.906   0.246 -1.0492  0.2802 -0.7665
  383SOL     OW 1147   2.602   1.015   1.466 -0.2497  0.7305 -0.2120
  383SOL    HW1 1148   2.516   0.985   1.412  2.6178 -0.9787  1.7393
  383SOL    HW2 1149   2.687   0.964   1.427  2.2429  0.2903  0.2861
  384SOL     OW 1150   0.962   2.290   0.134  0.8608 -0.1370 -0.1213
  384SOL    HW1 1151   0.909   2.362   0.184 -0.2181  0.1329 -4.0509
  384SOL    HW2 1152   0.921   2.197   0.149  2.1136  1.2645 -1.6140
  385SOL     OW 1153   3.042   2.046   1.645 -0.3576  0.0474 -0.3335
  385SOL    HW1 1154   3.114   2.126   1.635  2.7342  2.6940  0.0448
  385SOL    HW2 1155   3.073   1.947   1.622 -0.6363 -0.1678  1.7450
  386SOL     OW 1156   0.496   1.116   0.398 -0.4483 -0.9646  0.6619
  386SOL    HW1 1157   0.484   1.013   0.416 -1.4445 -1.4574 -1.3494
  386SOL    HW2 1158   0.406   1.159   0.367 -1.1926  3.1810  0.9455
  387SOL     OW 1159   0.953   0.302   1.633  0.4675 -0.4519  0.6074
  387SOL    HW1 1160   0.993   0.397   1.633  0.0606  1.3771 -0.7025
  387SOL    HW2 1161   0.957   0.258   1.536  1.0352 -3.1288  1.6518
  388SOL     OW 1162   1.196   2.665   1.734  0.2748  0.5705 -0.1203
  388SOL    HW1 1163   1.200   2.660   1.628 -1.3207  4.6099 -0.9722
  388SOL    HW2 1164   1.220   2.572   1.774  0.5434  0.5761 -0.4867
  389SOL     OW 1165   0.178   2.966   1.097  0.8179  0.0780  0.1549
  389SOL    HW1 1166   0.079   2.945   1.073 -0.8589  1.5161  1.5625
  389SOL    HW2 1167   0.230   2.871   1.096 -1.7518 -0.1746  1.0030
  390SOL     OW 1168   1.021   0.945   1.354 -0.2280 -0.0525  0.0490
  390SOL    HW1 1169   1.119   0.909   1.366 -0.9699 -0.5877  1.6505
  390SOL    HW2 1170   1.002   1.032   1.405  0.8489 -3.4230 -0.2080
  391SOL     OW 1171   2.124   1.086   1.073  1.3294  0.0256  0.0814
  391SOL    HW1 1172   2.044   1.020   1.097 -2.0412 -1.3766 -1.2060
  391SOL    HW2 1173   2.176   1.053   0.988 -1.4227 -1.0455  0.3494
  392SOL     OW 1174   0.869   2.740   3.083 -0.7091  0.5394  0.5166
  392SOL    HW1 1175   0.833   2.669   3.152  3.9629 -0.9329 -0.2824
  392SOL    HW2 1176   0.957   2.789   3.120  2.4853  1.8849  1.1610
  393SOL     OW 1177   0.322   0.522   1.990  0.4098  0.2727  0.6091
  393SOL    HW1 1178   0.239   0.467   1.951 -4.5099  1.0654  1.5646
  393SOL    HW2 1179   0.406   0.515   1.934 -0.9719  2.6944  1.2598
  394SOL     OW 1180   3.053   1.818   2.810  0.3995 -0.3122  0.2697
  394SOL    HW1 1181   3.117   1.794   2.887  1.8427 -0.3792  0.5134
  394SOL    HW2 1182   3.081   1.903   2.756  0.2111 -0.1755  1.8496
  395SOL     OW 1183   1.615   1.922   0.685  0.2157  0.5660 -0.1490
  395SOL    HW1 1184   1.674   1.873   0.615 -0.8534 -2.8335  2.4261
  395SOL    HW2 1185   1.661   1.927   0.776  0.4482  0.8075 -1.8540
  396SOL     OW 1186   2.818   1.886   1.318  0.3180 -0.4511 -0.8159
  396SOL    HW1 1187   2.816   1.788   1.354  1.4561 -3.1599  1.1078
  396SOL    HW2 1188   2.796   1.957   1.384  1.3651 -1.9003 -0.0281
  397SOL     OW 1189   1.036   2.246   0.510  0.4140  0.1964 -0.1303
  397SOL    HW1 1190   0.940   2.225   0.539 -2.7167  0.8534  0.2138
  397SOL    HW2 1191   1.059   2.344   0.516  1.8011 -3.0737  0.1802
  398SOL     OW 1192   2.114   3.057   1.039  0.3782 -0.2501 -0.7235
  398SOL    HW1 1193   2.112   2.955   1.071  0.0119 -1.7474  0.9958
  398SOL    HW2 1194   2.066   3.121   1.099 -0.2828 -0.6994 -1.1016
  399SOL     OW 1195   2.999   2.528   2.564  0.6753 -0.1563 -0.5383
  399SOL    HW1 1196   2.901   2.518   2.552  1.5909  0.0728  1.9957
  399SOL    HW2 1197   3.047   2.435   2.562 -0.9328  2.2231 -2.5188
  400SOL     OW 1198   0.773   1.629   1.325 -0.0370 -0.1757  0.1585
  400SOL    HW1 1199   0.786   1.692   1.405  0.5199  1.3936  2.1721
  400SOL    HW2 1200   0.790   1.673   1.232 -1.1739  2.1859  2.8190
  401SOL     OW 1201   1.804   0.079   1.384  0.1973  0.2048 -0.2317
  401SOL    HW1 1202   1.846   0.101   1.473 -0.8101 -4.8609  1.4497
  401SOL    HW2 1203   1.700   0.084   1.382 -0.1668 -1.2663  1.4949
  402SOL     OW 1204   1.315   0.135   3.027  0.1210 -0.6296 -0.0206
  402SOL    HW1 1205   1.412   0.117   3.000 -1.9419  2.0565 -0.3979
  402SOL    HW2 1206   1.298   0.238   3.046  2.5674 -0.6431  1.2918
  403SOL     OW 1207   2.312   1.797   0.885  0.2439 -0.1005  0.2890
  403SOL    HW1 1208   2.416   1.793   0.897  2.3690 -0.2522 -1.5613
  403SOL    HW2 1209   2.260   1.851   0.955 -2.6755 -1.8077 -0.7461
  404SOL     OW 1210   0.180   2.486   2.819  0.0158  0.3459  0.1474
  404SOL    HW1 1211   0.273   2.459   2.778 -1.1630  0.6172 -1.7041
  404SOL    HW2 1212   0.187   2.584   2.842  1.6149  0.2659 -1.2403
  405SOL     OW 1213   0.161   2.395   0.646 -0.2188 -0.3083  0.2789
  405SOL    HW1 1214   0.132   2.378   0.546  0.1907  0.9147  0.6337
  405SOL    HW2 1215   0.226   2.471   0.651 -1.1284 -0.3390 -1.4616
  406SOL     OW 1216   0.001   1.481   3.007 -0.2386 -0.0020  0.1589
  406SOL    HW1 1217   0.060   1.407   2.957 -1.2968  0.5013  0.7625
  406SOL    HW2 1218   0.054   1.535   3.071 -3.1263  0.9327  0.5196
  407SOL     OW 1219   1.587   0.961   0.906 -0.2219  0.2682 -0.6572
  407SOL    HW1 1220   1.534   0.902   0.839 -1.0784 -0.1831 -0.0780
  407SOL    HW2 1221   1.525   1.023   0.961 -3.4322  0.1129  2.7210
  408SOL     OW 1222   1.594   2.325   0.932 -0.1987 -0.0793 -0.0520
  408SOL    HW1 1223   1.666   2.321   0.860  0.3935  0.8229 -2.0206
  408SOL    HW2 1224   1.521   2.401   0.917 -0.0656 -1.7457  0.0264
  409SOL     OW 1225   0.679   0.836   0.696 -0.3635  0.0422 -0.4394
  409SOL    HW1 1226   0.607   0.871   0.635 -0.0227  1.0832 -1.0775
  409SOL    HW2 1227   0.654   0.745   0.746  2.2237  0.9918 -1.1715
  410SOL     OW 1228   1.245   2.048   1.442  0.3599 -0.2840  0.3710
  410SOL    HW1 1229   1.306   1.981   1.484 -1.9027  3.2386 -1.0422
  410SOL    HW2 1230   1.143   2.015   1.433  0.3700 -0.6381  0.8680
  411SOL     OW 1231   2.504   1.853   0.024 -0.0179  0.3396 -0.2116
  411SOL    HW1 1232   2.420   1.896  -0.019 -1.6746 -2.2248 -0.7543
  411SOL    HW2 1233   2.578   1.835  -0.051 -0.0624  0.4974 -1.2322
  412SOL     OW 1234   1.459   2.553   2.188 -0.1412 -0.4526 -0.0736
  412SOL    HW1 1235   1.485   2.647   2.219 -0.5002  1.0475 -1.2533
  412SOL    HW2 1236   1.405   2.499   2.259 -1.2832  1.4790  0.5770
  413SOL     OW 1237   3.080   0.284   2.959  0.1397 -0.6497  0.5091
  413SOL    HW1 1238   3.041   0.191   2.987 -0.5844 -1.3272 -2.2077
  413SOL    HW2 1239   3.180   0.291   2.981 -1.0453  0.9327 -1.7811
  414SOL     OW 1240   1.829   1.457   1.231 -0.1878  0.6831 -0.1597
  414SOL    HW1 1241   1.751   1.508   1.273  3.1088 -0.9619  0.6452
  414SOL    HW2 1242   1.797   1.385   1.170  0.4507 -0.5180  2.1467
  415SOL     OW 1243   0.304   2.180   0.740  0.1885 -0.1953 -0.2273
  415SOL    HW1 1244   0.249   2.264   0.720  2.0234  1.3485  2.6947
  415SOL    HW2 1245   0.254   2.113   0.808  0.5275  0.3039  2.9986
  416SOL     OW 1246   0.338   1.021   1.036 -0.4658 -0.5905 -0.2889
  416SOL    HW1 1247   0.311   1.002   0.938  0.1181 -0.4103  0.3464
  416SOL    HW2 1248   0.430   1.070   1.041  3.5257 -2.1479 -2.7397
  417SOL     OW 1249   2.153   2.284   1.925 -0.0126 -0.0057  0.0368
  417SOL    HW1 1250   2.166   2.202   1.985  2.6118 -0.3206  0.4913
  417SOL    HW2 1251   2.076   2.275   1.858  2.4018 -1.6577  0.2248
  418SOL     OW 1252   1.131   0.506   1.332  0.1789  0.1909 -0.1982
  418SOL    HW1 1253   1.071   0.479   1.256 -0.3969 -2.1500 -0.0927
  418SOL    HW2 1254   1.221   0.543   1.305 -3.5090 -0.7454  2.2433
  419SOL     OW 1255   0.942   0.391   3.021 -0.2190  0.2946 -0.4735
  419SOL    HW1 1256   0.961   0.382   2.917 -3.0280  1.0533 -1.0959
  419SOL    HW2 1257   0.870   0.465   3.035  0.2157  2.8146 -2.4385
  420SOL     OW 1258   0.096   2.265   0.428 -0.3440  0.2078  0.4588
  420SOL    HW1 1259   0.081   2.270   0.326  0.7772 -0.6535  0.1472
  420SOL    HW2 1260   0.009   2.231   0.477 -0.8280  0.2403  0.4924
  421SOL     OW 1261   0.348   2.940   0.702  0.4801  0.3663 -0.0333
  421SOL    HW1 1262   0.300   2.867   0.763  1.0828 -2.7685  1.5596
  421SOL    HW2 1263   0.415   3.004   0.747  2.3123  1.6338 -2.3831
  422SOL     OW 1264   1.019   2.536   1.020  0.3786 -0.6010 -0.2277
  422SOL    HW1 1265   1.077   2.598   0.961 -0.8616  1.0550  0.8099
  422SOL    HW2 1266   1.028   2.552   1.125  2.2574  0.9699 -1.1362
  423SOL     OW 1267   0.104   0.672   1.260 -1.0695  0.5379 -0.2538
  423SOL    HW1 1268   0.072   0.625   1.345  1.3459 -1.7542 -1.7105
  423SOL    HW2 1269   0.051   0.754   1.242  0.2301 -3.2251  3.1184
  424SOL     OW 1270   1.029   2.226   2.059 -0.1314 -0.1054 -0.3878
  424SOL    HW1 1271   1.003   2.318   2.021 -0.7541 -0.5089  0.5707
  424SOL    HW2 1272   1.000   2.222   2.159 -0.6735 -2.3947  0.8799
  425SOL     OW 1273   1.992   1.405   0.974 -0.4015 -0.8639 -0.0990
  425SOL    HW1 1274   2.026   1.375   1.063  0.6537 -0.8621 -0.7458
  425SOL    HW2 1275   2.070   1.441   0.917 -0.5990  0.5880  1.6114
  426SOL     OW 1276   1.554   1.586   1.376  0.0783  0.2144 -0.0894
  426SOL    HW1 1277   1.532   1.656   1.305  1.0105 -0.7939  0.5064
  426SOL    HW2 1278   1.502   1.608   1.464 -1.7530  2.5500  0.8188
  427SOL     OW 1279   1.863   2.346   2.042  0.3843  0.3819 -0.1314
  427SOL    HW1 1280   1.939   2.291   2.084 -1.5131  3.2626  0.0257
  427SOL    HW2 1281   1.885   2.449   2.053 -0.0268  1.0877  1.7115
  428SOL     OW 1282   0.842   2.987   0.191 -0.1663 -0.8225  0.2345
  428SOL    HW1 1283   0.848   3.078   0.141  1.4113  1.4005  0.6906
  428SOL    HW2 1284   0.931   2.937   0.193  1.2541  0.9707 -1.5913
  429SOL     OW 1285   1.327   0.088   0.218 -0.0338 -0.5428 -0.3636
  429SOL    HW1 1286   1.420   0.125   0.248  0.5769  0.1882  0.9010
  429SOL    HW2 1287   1.318   0.086   0.114 -1.4616 -0.5632 -0.6290
  430SOL     OW 1288   2.816   1.419   0.378  0.6054 -0.4072 -0.8064
  430SOL    HW1 1289   2.862   1.454   0.294  0.2591 -1.6552 -0.3996
  430SOL    HW2 1290   2.830   1.471   0.471  0.2142  2.5984  0.4095
  431SOL     OW 1291   2.160   1.571   0.832  0.0201  0.0476  0.2647
  431SOL    HW1 1292   2.235   1.638   0.851 -1.6701 -1.7148  0.0449
  431SOL    HW2 1293   2.096   1.608   0.757 -0.4341  0.4896  2.0102
  432SOL     OW 1294   2.901   2.250   1.215  0.1148  0.0713 -0.9195
  432SOL    HW1 1295   2.829   2.194   1.257  0.0735 -0.5386 -1.7716
  432SOL    HW2 1296   2.958   2.285   1.295  1.2875  0.2861  0.3064
  433SOL     OW 1297   1.946   0.401   0.871  0.1801  0.1523 -0.1368
  433SOL    HW1 1298   1.869   0.340   0.912 -0.3122  0.2048 -1.1008
  433SOL    HW2 1299   2.035   0.406   0.923  1.2893  2.1152  0.7013
  434SOL     OW 1300   1.537   0.289   0.780 -0.4035 -0.3636 -0.5566
  434SOL    HW1 1301   1.499   0.386   0.768  3.7105  0.1564  1.6660
  434SOL    HW2 1302   1.617   0.282   0.854  2.0533 -0.3657  0.9784
  435SOL     OW 1303   1.431   1.450   2.173  0.3998  0.1059 -0.0720
  435SOL    HW1 1304   1.354   1.511   2.219 -2.3076  2.7989  1.3717
  435SOL    HW2 1305   1.488   1.515   2.123 -1.0515 -1.8797 -1.7512
  436SOL     OW 1306   1.670   2.746   2.214 -0.3884  0.3096  0.0767
  436SOL    HW1 1307   1.637   2.799   2.298  2.5029 -0.1218 -2.4144
  436SOL    HW2 1308   1.716   2.656   2.241  0.7374  1.4749  2.0426
  437SOL     OW 1309   1.042   2.916   0.922  0.2065 -0.2702 -0.0382
  437SOL    HW1 1310   1.041   2.997   0.859  0.1620  3.3669  2.8292
  437SOL    HW2 1311   0.994   2.946   1.008  1.1867  2.0408  1.6584
  438SOL     OW 1312   1.040   2.578   1.313 -0.1575 -0.2358 -0.2646
  438SOL    HW1 1313   1.119   2.622   1.372  1.6467  0.8180 -1.9501
  438SOL    HW2 1314   1.029   2.477   1.325  0.9408  0.3005 -0.7237
  439SOL     OW 1315   0.690   1.701   1.066 -0.4773 -0.0224  0.2213
  439SOL    HW1 1316   0.699   1.794   1.017 -0.0669 -1.4353 -1.8823
  439SOL    HW2 1317   0.592   1.682   1.102 -1.5272  0.3861 -1.8144
  440SOL     OW 1318   0.995   2.498   1.963 -0.5230  0.0683  0.0676
  440SOL    HW1 1319   0.969   2.541   1.871 -0.7584 -1.6406  1.4428
  440SOL    HW2 1320   1.100   2.500   1.974  1.4902 -0.4102  0.6378
  441SOL     OW 1321   0.443   2.743   1.373  0.3036 -0.6099 -0.3658
  441SOL    HW1 1322   0.498   2.656   1.398 -1.7957 -1.1536  0.1585
  441SOL    HW2 1323   0.349   2.721   1.346 -1.8062  2.7712 -2.7583
  442SOL     OW 1324   2.343   0.655   2.457  0.5450 -0.3688 -0.5252
  442SOL    HW1 1325   2.354   0.559   2.488  2.0027  1.2905  0.6197
  442SOL    HW2 1326   2.247   0.697   2.474 -0.5032  0.1440 -2.9353
  443SOL     OW 1327   1.230   2.729   2.174  0.4919 -0.4278 -0.3131
  443SOL    HW1 1328   1.280   2.765   2.254 -0.8696  2.3699  0.8460
  443SOL    HW2 1329   1.239   2.628   2.178  0.9419  3.6620  0.9917
  444SOL     OW 1330   1.123   1.311   1.605 -0.0201 -0.5028 -0.2894
  444SOL    HW1 1331   1.209   1.266   1.574 -1.7259  0.1644 -0.8994
  444SOL    HW2 1332   1.138   1.383   1.679 -2.1999 -1.0953  1.9653
  445SOL     OW 1333   3.103   2.400   1.874  0.2866 -0.4745 -0.5145
  445SOL    HW1 1334   3.098   2.504   1.861  0.0098  0.1653  1.8937
  445SOL    HW2 1335   3.007   2.358   1.908 -0.0040 -0.8659  1.7409
  446SOL     OW 1336   0.273   1.908   2.359  0.2047  0.2879 -0.5202
  446SOL    HW1 1337   0.246   2.007   2.389  0.9127  0.3176 -1.1589
  446SOL    HW2 1338   0.202   1.856   2.295 -3.8097 -2.7705 -0.7095
  447SOL     OW 1339   1.222   1.712   1.928 -0.7002  0.0325 -0.1562
  447SOL    HW1 1340   1.128   1.759   1.923 -0.2503  0.1689 -1.3609
  447SOL    HW2 1341   1.302   1.780   1.935 -0.3489  0.9294  2.4799
  448SOL     OW 1342   0.119   1.491   1.996 -0.6030  0.5658 -0.0756
  448SOL    HW1 1343   0.098   1.588   1.960  0.2862  2.7453  0.9682
  448SOL    HW2 1344   0.100   1.485   2.103 -0.8157 -0.4556  2.7612
  449SOL     OW 1345   1.875   2.988   0.857  0.4628 -0.8039  0.0953
  449SOL    HW1 1346   1.900   2.995   0.954 -0.9877 -0.5822 -1.3646
  449SOL    HW2 1347   1.895   2.900   0.810  0.9451  0.1859 -0.4732
  450SOL     OW 1348   2.370   1.438   0.721 -0.2291 -0.3883  0.1843
  450SOL    HW1 1349   2.273   1.459   0.755 -2.2662 -1.7726  2.0177
  450SOL    HW2 1350   2.387   1.473   0.622 -0.7068  0.5003 -0.3881
  451SOL     OW 1351   1.378   2.985   1.448 -0.0928 -0.5279  0.3476
  451SOL    HW1 1352   1.307   3.064   1.452 -0.6954  0.2769  0.7798
  451SOL    HW2 1353   1.392   2.938   1.541  0.2896  2.5814  1.2686
  452SOL     OW 1354   2.700   2.301   2.169 -0.0781 -0.1048 -0.2238
  452SOL    HW1 1355   2.629   2.376   2.193 -1.7917  1.9048 -0.6939
  452SOL    HW2 1356   2.727   2.247   2.252  0.5015  2.2519  0.6777
  453SOL     OW 1357   2.489   2.647   0.020  0.3615 -0.1376  0.0660
  453SOL    HW1 1358   2.396   2.700   0.026 -2.2562  0.8816  2.0071
  453SOL    HW2 1359   2.493   2.588  -0.066 -0.0581 -0.3633 -4.2415
  454SOL     OW 1360   0.985   1.157   2.104  0.5686  0.1664  0.1043
  454SOL    HW1 1361   0.941   1.144   2.010 -1.0713  0.5532  0.7318
  454SOL    HW2 1362   1.083   1.194   2.094  1.2835 -0.0967  0.0026
  455SOL     OW 1363   0.646   2.688   2.940  0.0487 -0.1178  0.2147
  455SOL    HW1 1364   0.729   2.721   2.986 -1.7846  1.5377 -0.3359
  455SOL    HW2 1365   0.619   2.586   2.952  0.0104  0.9678 -3.5794
  456SOL     OW 1366   0.454   1.865   0.256  0.3772  0.2933  0.4617
  456SOL    HW1 1367   0.534   1.826   0.314  1.3933 -0.0660  1.7183
  456SOL    HW2 1368   0.482   1.959   0.222  0.7413  1.0666  2.5824
  457SOL     OW 1369   0.300   2.659   0.634 -0.8687  0.2649  0.3339
  457SOL    HW1 1370   0.303   2.726   0.551  0.7855 -0.9418  0.7048
  457SOL    HW2 1371   0.400   2.637   0.667  2.2610  0.2163  0.5314
  458SOL     OW 1372   2.935   3.057   1.241  0.2316 -0.4103 -0.5449
  458SOL    HW1 1373   2.964   3.160   1.234  2.2959  0.7517  2.2606
  458SOL    HW2 1374   2.951   3.012   1.148  0.7392  0.8472 -1.5263
  459SOL     OW 1375   2.170   2.572   0.801  0.7765  0.3741 -0.5170
  459SOL    HW1 1376   2.215   2.665   0.826  0.9089  1.6014  1.2970
  459SOL    HW2 1377   2.244   2.508   0.773  1.0510  0.0114 -1.6714
  460SOL     OW 1378   1.225   2.011   2.840 -0.9087 -0.4868  0.1924
  460SOL    HW1 1379   1.217   2.035   2.740  1.6076  1.5265  0.4196
  460SOL    HW2 1380   1.261   1.918   2.860  1.8488 -0.8458 -0.2918
  461SOL     OW 1381   0.553   2.097   2.653  0.0122 -0.4855  0.2516
  461SOL    HW1 1382   0.498   2.010   2.641  0.4241  0.2173  1.8148
  461SOL    HW2 1383   0.597   2.094   2.750  0.3073  0.5898 -1.2763
  462SOL     OW 1384   0.961   1.154   1.822  0.2978 -0.1603  0.1317
  462SOL    HW1 1385   1.035   1.113   1.773  0.1952  2.4661 -0.1475
  462SOL    HW2 1386   0.918   1.235   1.779  1.4455 -3.2701  1.4378
  463SOL     OW 1387   0.462   0.833   0.458 -0.2893 -0.0801  0.0462
  463SOL    HW1 1388   0.505   0.739   0.466  2.2942 -0.6522  0.3421
  463SOL    HW2 1389   0.357   0.822   0.470  0.5806  1.9035 -2.9542
  464SOL     OW 1390   0.618   2.294   2.237 -0.3199 -0.0554 -0.2099
  464SOL    HW1 1391   0.550   2.342   2.302 -0.5103 -0.3657  1.3194
  464SOL    HW2 1392   0.581   2.297   2.141 -0.0552 -3.1027  0.8772
  465SOL     OW 1393   0.299   0.929   0.778  0.5100 -0.5537  0.1647
  465SOL    HW1 1394   0.219   0.976   0.720 -0.2519 -1.7484  1.1157
  465SOL    HW2 1395   0.295   0.825   0.774  0.6616 -0.6137 -2.0054
  466SOL     OW 1396   1.404   1.121   1.024 -0.4076 -0.5420  0.5102
  466SOL    HW1 1397   1.413   1.225   1.020  1.4086  1.9167  1.3890
  466SOL    HW2 1398   1.316   1.089   0.974 -0.7886 -0.2516 -0.9480
  467SOL     OW 1399   0.483   0.352   2.396 -0.0845  0.2914 -0.8459
  467SOL    HW1 1400   0.437   0.448   2.402 -2.9397  1.4757 -2.4641
  467SOL    HW2 1401   0.482   0.292   2.484 -3.4203  0.6600  1.2663
  468SOL     OW 1402   0.464   2.289   1.680 -0.0184 -0.0251  0.1272
  468SOL    HW1 1403   0.527   2.361   1.721 -1.1959 -2.2991  2.8486
  468SOL    HW2 1404   0.461   2.287   1.572 -1.0273  1.9103 -0.8700
  469SOL     OW 1405   1.473   1.412   1.179  0.0444 -0.3367 -0.0279
  469SOL    HW1 1406   1.559   1.381   1.132 -3.0963 -0.0623  1.3047
  469SOL    HW2 1407   1.484   1.459   1.271  0.1423 -1.9156  1.9691
  470SOL     OW 1408   3.018   1.684   0.720 -0.2278 -0.2532  0.7004
  470SOL    HW1 1409   3.095   1.742   0.692  1.9402 -1.2117  0.5200
  470SOL    HW2 1410   2.992   1.696   0.820 -0.9986  0.5866  1.4561
  471SOL     OW 1411   2.716   1.303   2.110 -0.0627  0.8908 -0.2640
  471SOL    HW1 1412   2.673   1.250   2.187  2.2946  0.2583  1.8511
  471SOL    HW2 1413   2.746   1.396   2.143 -1.8752 -0.0913 -2.3925
  472SOL     OW 1414   1.162   2.472   3.093 -0.8025  0.1172 -0.4696
  472SOL    HW1 1415   1.160   2.472   3.196 -0.9400  1.2168 -1.4043
  472SOL    HW2 1416   1.108   2.388   3.066  3.1770 -1.9228  0.4214
  473SOL     OW 1417   1.106   1.551   1.017  0.7219  0.2159  0.0976
  473SOL    HW1 1418   1.003   1.548   0.994  1.9524  0.9782  1.0935
  473SOL    HW2 1419   1.141   1.471   1.071 -2.5048 -1.4422  2.2070
  474SOL     OW 1420   0.684   1.297   0.544  0.3206  0.1219 -0.5423
  474SOL    HW1 1421   0.707   1.292   0.444  1.3980  2.3160 -0.7577
  474SOL    HW2 1422   0.733   1.226   0.599 -1.2321 -1.4399 -1.6831
  475SOL     OW 1423   2.836   0.086   0.792 -0.2455  0.1220  0.0137
  475SOL    HW1 1424   2.922   0.123   0.830 -0.3059  0.4943 -0.4628
  475SOL    HW2 1425   2.753   0.129   0.833  0.2031  1.5114  2.1014
  476SOL     OW 1426   0.981   3.028   1.813 -0.5007 -0.5070  0.2352
  476SOL    HW1 1427   1.040   2.993   1.890 -0.5721 -0.0691 -1.5256
  476SOL    HW2 1428   1.018   3.005   1.721 -0.9248  0.5509  2.3601
  477SOL     OW 1429   1.457   0.326   2.485 -0.0399  0.2425 -0.0898
  477SOL    HW1 1430   1.445   0.336   2.589 -2.3785 -1.9664 -1.3023
  477SOL    HW2 1431   1.546   0.290   2.444  2.5794 -1.8971 -1.2726
  478SOL     OW 1432   2.197   1.840   0.216 -0.2431  0.4454  0.3919
  478SOL    HW1 1433   2.138   1.762   0.248  0.6705  0.7393 -3.7161
  478SOL    HW2 1434   2.295   1.815   0.225  0.3573 -2.5211 -0.0159
  479SOL     OW 1435   1.273   1.052   2.926 -0.2250  0.1645  0.0645
  479SOL    HW1 1436   1.344   1.096   2.868  0.9798  0.9452 -2.8244
  479SOL    HW2 1437   1.211   1.000   2.867  2.0147  2.8439 -0.3775
  480SOL     OW 1438   2.567   2.355   0.404 -0.0705 -0.4785  0.1112
  480SOL    HW1 1439   2.524   2.264   0.439 -1.2336 -1.2552  0.9165
  480SOL    HW2 1440   2.521   2.401   0.322 -0.3110  0.8828 -0.1759
  481SOL     OW 1441   0.990   1.125   0.873 -0.0305 -0.1544  0.2707
  481SOL    HW1 1442   0.984   1.220   0.838  2.2616 -1.3220 -0.4137
  481SOL    HW2 1443   1.038   1.121   0.963  2.6566  1.1395 -1.9464
  482SOL     OW 1444   1.557   0.269   2.047 -0.2146 -0.0180  0.4384
  482SOL    HW1 1445   1.554   0.364   1.998 -2.7357  3.4595 -1.4443
  482SOL    HW2 1446   1.633   0.263   2.118 -0.3062  0.4536 -1.6479
  483SOL     OW 1447   0.106   2.335   1.288 -0.0903  0.0700  0.4864
  483SOL    HW1 1448   0.041   2.364   1.366 -0.9376  1.8758 -0.2818
  483SOL    HW2 1449   0.133   2.411   1.222  0.5593 -2.0081 -1.1724
  484SOL     OW 1450   1.743   1.070   1.355  0.1437 -0.5322  0.4275
  484SOL    HW1 1451   1.812   0.995   1.357 -0.0364  1.0465 -2.0637
  484SOL    HW2 1452   1.756   1.142   1.426 -0.7772 -1.3586  0.3856
  485SOL     OW 1453   0.705   1.044   1.823 -0.8206  0.0261  0.1060
  485SOL    HW1 1454   0.665   1.032   1.726  1.6953  0.9803 -0.5918
  485SOL    HW2 1455   0.806   1.065   1.813  1.9243 -0.4149 -0.9114
  486SOL     OW 1456   0.832   1.934   2.472 -0.3383  0.2864 -0.3548
  486SOL    HW1 1457   0.884   1.900   2.553  2.6951 -3.4986 -4.7031
  486SOL    HW2 1458   0.794   2.031   2.472 -0.7937  0.6460 -0.7795
  487SOL     OW 1459   1.845   1.664   0.953  0.8668 -0.4149  0.0631
  487SOL    HW1 1460   1.886   1.577   0.991 -0.2672  1.8306 -0.3523
  487SOL    HW2 1461   1.876   1.696   0.856 -1.6655  0.2014 -3.0126
  488SOL     OW 1462   2.980   0.860   2.237 -0.2899  0.0111  0.2079
  488SOL    HW1 1463   2.962   0.758   2.244 -0.1768 -0.1664 -2.9782
  488SOL    HW2 1464   3.021   0.898   2.327 -1.6330 -0.3301  1.1084
  489SOL     OW 1465   2.773   0.240   1.283  0.0001 -0.7226  0.2442
  489SOL    HW1 1466   2.764   0.273   1.381 -3.5665  0.8442  1.2463
  489SOL    HW2 1467   2.866   0.228   1.252 -1.4768  0.9825  1.6950
  490SOL     OW 1468   1.486   2.977   2.785 -0.6750 -0.1561  0.6772
  490SOL    HW1 1469   1.523   2.881   2.789  1.7863  2.2519 -0.0671
  490SOL    HW2 1470   1.426   2.993   2.703 -1.7025 -0.9501 -0.2741
  491SOL     OW 1471   1.769   1.446   2.622  0.6245 -0.4115 -0.0152
  491SOL    HW1 1472   1.712   1.427   2.706  0.0370  0.4721 -1.4888
  491SOL    HW2 1473   1.868   1.479   2.641  1.9712  0.8457 -0.2055
  492SOL     OW 1474   0.519   2.013   0.677  0.0489 -1.0310  0.0074
  492SOL    HW1 1475   0.546   1.975   0.769 -2.3812 -0.1693 -2.0233
  492SOL    HW2 1476   0.438   2.074   0.676 -0.5406 -0.9439  0.7258
  493SOL     OW 1477   0.386   1.408   2.029  0.2992 -0.1288 -0.1071
  493SOL    HW1 1478   0.285   1.446   2.022 -1.1198  1.8998 -1.3111
  493SOL    HW2 1479   0.401   1.341   2.107 -1.2745  0.8581  2.4392
  494SOL     OW 1480   2.734   2.680   0.150  0.4560  0.0958 -0.1956
  494SOL    HW1 1481   2.714   2.616   0.227 -3.5173  0.1384 -0.0703
  494SOL    HW2 1482   2.650   2.696   0.088 -2.7839  2.4618 -2.4951
  495SOL     OW 1483   2.727   2.698   2.746  0.5451  0.2821 -0.0878
  495SOL    HW1 1484   2.667   2.621   2.718  2.4732  0.9326  2.3137
  495SOL    HW2 1485   2.772   2.740   2.661 -1.5950 -0.6114  1.2543
  496SOL     OW 1486   2.085   2.261   0.707 -0.4825  0.2126  0.2399
  496SOL    HW1 1487   2.138   2.264   0.799  0.3563 -0.0180  0.6142
  496SOL    HW2 1488   2.069   2.170   0.664  1.2620 -0.8932 -1.7777
  497SOL     OW 1489   0.261   2.978   2.420  0.1406 -0.4200  0.5729
  497SOL    HW1 1490   0.177   3.033   2.449 -2.5433 -1.0579  0.8463
  497SOL    HW2 1491   0.300   3.000   2.325 -0.4581 -0.7561 -0.4546
  498SOL     OW 1492   1.213   1.375   1.227  1.0865  0.8824  0.0962
  498SOL    HW1 1493   1.317   1.364   1.218  1.6292  1.2277  0.3117
  498SOL    HW2 1494   1.181   1.431   1.310 -0.6162 -0.1626 -1.3968
  499SOL     OW 1495   0.683   1.836   0.431 -0.0988  0.5789 -0.3960
  499SOL    HW1 1496   0.725   1.749   0.473  1.2701 -0.2991  1.4574
  499SOL    HW2 1497   0.708   1.919   0.485 -0.2582 -0.9454 -0.2682
  500SOL     OW 1498   1.407   2.837   1.680  0.2875 -0.2682  0.5760
  500SOL    HW1 1499   1.320   2.810   1.719  1.2539  3.5389 -2.0873
  500SOL    HW2 1500   1.471   2.756   1.688  0.1415  1.4540  0.4514
  501SOL     OW 1501   0.801   1.138   2.312  0.4691 -0.2650 -0.0011
  501SOL    HW1 1502   0.712   1.081   2.302 -1.2669  0.5752  0.9439
  501SOL    HW2 1503   0.859   1.138   2.230  1.7785 -1.4081  1.6811
  502SOL     OW 1504   2.581   0.973   1.739  0.1261 -0.4146 -0.3080
  502SOL    HW1 1505   2.587   0.991   1.634 -2.5408 -0.0003  0.7041
  502SOL    HW2 1506   2.538   0.882   1.762  0.9672 -1.9395  0.2627
  503SOL     OW 1507   1.323   0.103   0.686 -0.1440 -0.1243 -0.6638
  503SOL    HW1 1508   1.256   0.181   0.681 -0.5248  0.7332  2.5838
  503SOL    HW2 1509   1.418   0.134   0.705 -1.0600 -2.9639 -0.7640
  504SOL     OW 1510   3.003   2.315   1.462  0.4415 -0.1809  0.0117
  504SOL    HW1 1511   2.932   2.381   1.496 -2.9314 -0.2197  0.4750
  504SOL    HW2 1512   3.078   2.281   1.529  0.8749  2.3393  1.3172
  505SOL     OW 1513   2.312   1.163   1.435 -0.3074 -0.7746  0.1453
  505SOL    HW1 1514   2.314   1.166   1.335  0.2726 -0.5163  5.3922
  505SOL    HW2 1515   2.384   1.229   1.470 -0.0864 -0.0669  0.7330
  506SOL     OW 1516   1.982   0.154   1.829  0.2707 -0.2642  0.0946
  506SOL    HW1 1517   2.026   0.069   1.858 -1.7461  3.6405 -0.0825
  506SOL    HW2 1518   2.003   0.234   1.887 -3.3153 -2.4768 -0.4572
  507SOL     OW 1519   0.535   0.682   2.145 -0.1965  0.4780 -0.1150
  507SOL    HW1 1520   0.463   0.638   2.094  0.5533  0.1886  0.3152
  507SOL    HW2 1521   0.615   0.621   2.176  2.6206 -1.8222  3.0008
  508SOL     OW 1522   0.291   1.639   0.801 -0.1095  0.1161  0.3333
  508SOL    HW1 1523   0.365   1.678   0.735  2.8002  1.1556  0.7829
  508SOL    HW2 1524   0.256   1.702   0.877 -1.2314  1.4330 -0.6715
  509SOL     OW 1525   1.220   1.270   2.355 -0.2072 -0.5180 -0.1157
  509SOL    HW1 1526   1.228   1.251   2.257  0.0303  2.2117 -1.1264
  509SOL    HW2 1527   1.133   1.226   2.392  4.6197  2.6009 -0.6220
  510SOL     OW 1528   1.270   2.013   2.162  0.0986 -0.7964 -0.8395
  510SOL    HW1 1529   1.255   2.094   2.105  0.6597 -0.6769 -0.3607
  510SOL    HW2 1530   1.180   1.973   2.197  0.5470  0.3908  0.2955
  511SOL     OW 1531   3.056   2.761   1.326 -0.1156  0.3624 -0.0668
  511SOL    HW1 1532   3.014   2.731   1.233 -1.1770  1.4311  2.2511
  511SOL    HW2 1533   2.978   2.763   1.400  0.2367  0.5818  0.7141
  512SOL     OW 1534   2.408   0.398   1.381  0.4657  0.7613 -0.2065
  512SOL    HW1 1535   2.302   0.394   1.390  0.0332  1.6085  2.7357
  512SOL    HW2 1536   2.448   0.347   1.293  1.1758 -1.3429  2.4100
  513SOL     OW 1537   2.562   2.044   0.863 -0.7255 -0.1406 -0.1142
  513SOL    HW1 1538   2.528   2.120   0.803 -0.4191 -1.2528 -1.0540
  513SOL    HW2 1539   2.622   1.979   0.802  1.5855 -1.9153 -2.0792
  514SOL     OW 1540   0.614   2.742   0.429 -0.3158 -0.2214  0.4737
  514SOL    HW1 1541   0.614   2.790   0.336 -0.1986  2.0934  1.8296
  514SOL    HW2 1542   0.678   2.786   0.497  2.6567 -0.9207  0.0109
  515SOL     OW 1543   1.983   1.195   2.356  0.3654 -0.6228 -0.0899
  515SOL    HW1 1544   1.951   1.150   2.265 -2.5542  0.1932 -1.1643
  515SOL    HW2 1545   1.903   1.240   2.411 -4.2389 -3.8882 -4.3916
  516SOL     OW 1546   0.228   0.283   1.863  0.4086  0.3385 -0.0484
  516SOL    HW1 1547   0.325   0.253   1.870 -2.1218 -0.2671 -1.3740
  516SOL    HW2 1548   0.155   0.207   1.883 -0.2381 -0.7767  0.0184
  517SOL     OW 1549   0.424   0.009   1.146  0.4707  0.1647  0.6241
  517SOL    HW1 1550   0.417   0.111   1.159 -0.6067 -1.6773  0.7086
  517SOL    HW2 1551   0.331  -0.034   1.132 -0.2676  3.0505  1.8021
  518SOL     OW 1552   2.176   3.069   1.829  0.1598 -0.1211 -0.1837
  518SOL    HW1 1553   2.233   3.149   1.861 -1.3262  1.1246  0.4596
  518SOL    HW2 1554   2.196   3.036   1.734 -0.7651 -1.0638  1.8416
  519SOL     OW 1555   2.330   2.157   2.537  0.2360  0.5240  0.6949
  519SOL    HW1 1556   2.289   2.135   2.630 -2.5756 -1.6526  0.1927
  519SOL    HW2 1557   2.302   2.251   2.511 -2.5474 -0.7409 -2.5261
  520SOL     OW 1558   1.831   2.772   1.792  0.1805 -0.2409  0.2923
  520SOL    HW1 1559   1.732   2.771   1.827 -0.0633  1.0011 -0.7194
  520SOL    HW2 1560   1.866   2.683   1.758 -2.1188  0.6817 -0.9158
  521SOL     OW 1561   0.569   3.073   2.071 -0.1412 -0.1493 -0.3406
  521SOL    HW1 1562   0.468   3.086   2.061  2.2192  2.3568 -1.9099
  521SOL    HW2 1563   0.594   3.059   2.171  1.9899  0.5351  0.6053
  522SOL     OW 1564   0.232   1.874   1.471 -0.6556  0.1815 -0.2499
  522SOL    HW1 1565   0.283   1.926   1.546  0.5032  0.6312  0.3897
  522SOL    HW2 1566   0.196   1.930   1.392  0.4190  1.1869  0.6379
  523SOL     OW 1567   2.250   2.980   1.574  0.3697  0.7287  0.0319
  523SOL    HW1 1568   2.336   2.924   1.570  0.3149 -0.4774  0.3823
  523SOL    HW2 1569   2.176   2.942   1.515 -1.0898 -1.0682 -0.9290
  524SOL     OW 1570   0.187   2.796   2.806 -0.3326 -0.3783  0.6309
  524SOL    HW1 1571   0.151   2.877   2.856  0.5218  2.5512 -1.0789
  524SOL    HW2 1572   0.283   2.815   2.779 -1.4155  0.1610 -1.3653
  525SOL     OW 1573   2.164   2.043   0.419 -0.2162 -0.1397  0.4426
  525SOL    HW1 1574   2.176   1.976   0.497  0.1524 -0.8099 -1.9018
  525SOL    HW2 1575   2.154   2.004   0.322 -1.0309  0.6934 -0.5526
  526SOL     OW 1576   0.448   1.550   1.655 -0.1768  0.4019 -0.2795
  526SOL    HW1 1577   0.482   1.568   1.750  1.7915 -1.3865  2.1370
  526SOL    HW2 1578   0.490   1.463   1.615  1.2156  0.6622  0.6032
  527SOL     OW 1579   1.035   2.901   1.230 -0.2523  0.3369 -0.0930
  527SOL    HW1 1580   1.124   2.849   1.212 -0.7262  0.2775  1.1463
  527SOL    HW2 1581   1.058   3.005   1.230 -0.1528  0.9671 -1.8577
  528SOL     OW 1582   1.359   2.418   0.518 -0.6390  0.1713  0.0837
  528SOL    HW1 1583   1.385   2.317   0.512  1.0775  0.0897  1.2090
  528SOL    HW2 1584   1.422   2.471   0.582  0.5059  1.7696  1.2372
  529SOL     OW 1585   1.973   1.744   0.697 -0.2045 -0.4743 -0.6620
  529SOL    HW1 1586   1.908   1.763   0.615  3.3673  2.2182 -2.6319
  529SOL    HW2 1587   1.982   1.836   0.748  1.0590  2.4620 -0.3510
  530SOL     OW 1588   0.336   2.604   0.261 -0.1483  0.3937 -0.2918
  530SOL    HW1 1589   0.339   2.677   0.338  2.0647  1.5277  0.1879
  530SOL    HW2 1590   0.366   2.511   0.290  2.0805  0.9426  1.2160
  531SOL     OW 1591   1.850   0.976   0.964  0.3230 -0.2721 -0.7405
  531SOL    HW1 1592   1.890   1.036   0.892 -0.3713 -0.6775 -1.2039
  531SOL    HW2 1593   1.744   0.965   0.943  0.0451 -0.7178 -0.7095
  532SOL     OW 1594   0.379   1.198   0.719  0.6292  0.1372 -0.0645
  532SOL    HW1 1595   0.429   1.205   0.631 -0.6669  1.9145 -0.3200
  532SOL    HW2 1596   0.345   1.104   0.727 -0.5607 -0.6029 -0.0636
  533SOL     OW 1597   1.731   0.025   2.589 -0.0080  0.1113  0.3247
  533SOL    HW1 1598   1.838   0.012   2.591  0.0210  2.8052  0.9588
  533SOL    HW2 1599   1.699   0.082   2.674  0.8957  0.3908  0.1312
  534SOL     OW 1600   0.364   0.187   1.624  0.4750  0.0746  0.0979
  534SOL    HW1 1601   0.460   0.214   1.607  2.3047 -2.2465  0.7076
  534SOL    HW2 1602   0.299   0.263   1.645  0.9610  3.1343 -0.5402
  535SOL     OW 1603   1.930   0.384   0.187  0.3205 -0.6299 -0.3395
  535SOL    HW1 1604   1.941   0.454   0.265  1.9907 -0.3398 -0.6530
  535SOL    HW2 1605   1.923   0.280   0.220  1.3239 -2.3440  1.1580
  536SOL     OW 1606   1.417   2.538   0.958 -0.6159  0.2589 -0.3365
  536SOL    HW1 1607   1.413   2.535   1.065 -0.5182  0.9804  1.0878
  536SOL    HW2 1608   1.338   2.591   0.914 -3.2337 -0.0131 -2.5332
  537SOL     OW 1609   0.825   0.198   2.345  0.1203  0.3971  0.2284
  537SOL    HW1 1610   0.813   0.237   2.251 -1.0249 -1.4864  0.4156
  537SOL    HW2 1611   0.766   0.114   2.356  3.8729 -1.2846  3.9481
  538SOL     OW 1612   1.682   2.354   1.522 -0.4041 -0.0343  0.0846
  538SOL    HW1 1613   1.644   2.258   1.511  0.1188 -0.3419  0.9375
  538SOL    HW2 1614   1.740   2.366   1.435  1.1088 -0.7179  1.5782
  539SOL     OW 1615   0.213   1.590   2.729  0.2072  0.5332  0.1443
  539SOL    HW1 1616   0.142   1.604   2.655 -0.3839 -0.0916  1.1679
  539SOL    HW2 1617   0.220   1.668   2.795 -0.4060  1.0233  1.2955
  540SOL     OW 1618   2.715   1.662   1.946 -0.1370  0.1620 -0.7367
  540SOL    HW1 1619   2.734   1.605   2.029 -1.2936 -2.5962 -1.4183
  540SOL    HW2 1620   2.613   1.681   1.951  0.6242  0.4615 -1.6955
  541SOL     OW 1621   0.455   2.256   0.001  0.6137 -0.3907 -0.0271
  541SOL    HW1 1622   0.481   2.204   0.090  1.0577 -0.4342 -2.3409
  541SOL    HW2 1623   0.351   2.233  -0.017 -1.6562 -1.7688  2.7094
  542SOL     OW 1624   2.276   2.563   0.427 -0.6369  0.3392  0.3673
  542SOL    HW1 1625   2.294   2.665   0.434  3.2888 -0.8741  1.2928
  542SOL    HW2 1626   2.182   2.529   0.462 -0.7070  0.1331 -1.2511
  543SOL     OW 1627   1.061   1.827   1.594  0.0212  0.3286 -1.0958
  543SOL    HW1 1628   1.045   1.875   1.684 -0.0674 -0.9678 -0.7779
  543SOL    HW2 1629   1.025   1.884   1.509 -0.3460  2.4080 -1.6957
  544SOL     OW 1630   1.014   0.396   0.191 -0.2532 -0.1731 -0.2955
  544SOL    HW1 1631   1.032   0.313   0.257  1.5787 -2.0845 -2.3108
  544SOL    HW2 1632   0.993   0.368   0.092 -1.7656 -5.2354  0.6164
  545SOL     OW 1633   1.124   1.784   0.790  0.1527 -1.1630 -0.1147
  545SOL    HW1 1634   1.224   1.776   0.783 -0.2818  1.5137 -0.2502
  545SOL    HW2 1635   1.089   1.747   0.878  0.1420  0.0596  0.8921
  546SOL     OW 1636   2.674   1.491   3.097  0.3270  0.0987 -0.9377
  546SOL    HW1 1637   2.626   1.544   3.021 -0.2076 -0.0932  0.8255
  546SOL    HW2 1638   2.610   1.488   3.173  0.9094 -1.5729 -0.7534
  547SOL     OW 1639   0.593   3.068   2.671  0.7338 -0.3938 -0.5486
  547SOL    HW1 1640   0.680   3.021   2.653  0.4264 -1.4221  0.1250
  547SOL    HW2 1641   0.517   3.001   2.694 -2.0645 -1.3351  1.1097
  548SOL     OW 1642   2.092   0.867   2.992  0.2538  0.7741  0.1043
  548SOL    HW1 1643   1.989   0.830   3.009  0.8552 -0.0744  3.8724
  548SOL    HW2 1644   2.104   0.962   3.031  1.1254 -0.4995 -0.5363
  549SOL     OW 1645   0.694   0.513   0.209 -0.1777 -0.5433  0.2442
  549SOL    HW1 1646   0.651   0.557   0.123  0.9356  0.3478 -2.2796
  549SOL    HW2 1647   0.770   0.561   0.249 -2.6406  2.1888 -0.7231
  550SOL     OW 1648   2.511   2.827   2.886  0.5214  0.2394 -0.2448
  550SOL    HW1 1649   2.477   2.767   2.963  1.9094 -1.9564 -2.7940
  550SOL    HW2 1650   2.589   2.786   2.823  1.4165 -0.1308  0.9345
  551SOL     OW 1651   0.274   0.913   0.224 -0.5197 -0.6043 -0.0248
  551SOL    HW1 1652   0.358   0.858   0.200 -0.9301  0.2829  1.1260
  551SOL    HW2 1653   0.248   0.891   0.324  2.4526  1.3683  1.0192
  552SOL     OW 1654   0.702   2.973   1.863  0.2960  0.0435  1.0068
  552SOL    HW1 1655   0.664   3.007   1.952  0.2560 -1.5689 -1.4120
  552SOL    HW2 1656   0.802   2.985   1.857  1.0837  2.7068  1.8400
  553SOL     OW 1657   2.985   2.528   0.341 -0.1924 -0.1354  0.3712
  553SOL    HW1 1658   2.941   2.436   0.326 -0.7054  3.6529 -1.2256
  553SOL    HW2 1659   2.935   2.587   0.404  0.6512 -0.3573  0.4422
  554SOL     OW 1660   2.155   0.369   0.590  0.4398  0.2808 -0.6047
  554SOL    HW1 1661   2.238   0.373   0.522  0.3421  1.1058 -0.8611
  554SOL    HW2 1662   2.140   0.278   0.638  3.1032  0.5303  1.0377
  555SOL     OW 1663   0.368   2.758   2.519 -0.1700 -0.3100 -0.2582
  555SOL    HW1 1664   0.309   2.840   2.502  1.9484 -2.2469  1.8322
  555SOL    HW2 1665   0.432   2.737   2.439 -0.6613 -1.1286 -2.4879
  556SOL     OW 1666   0.815   2.398   1.503  0.1060  0.6399 -0.3886
  556SOL    HW1 1667   0.876   2.453   1.564  0.3690 -2.8606 -0.4568
  556SOL    HW2 1668   0.877   2.359   1.428  1.0686 -0.6372 -1.7356
  557SOL     OW 1669   0.065   2.055   0.190 -0.2507  0.2721  0.4025
  557SOL    HW1 1670   0.011   1.988   0.130  0.7362 -0.3620  0.0242
  557SOL    HW2 1671   0.130   2.109   0.130 -1.4153 -1.9619 -2.6438
  558SOL     OW 1672   2.880   2.276   0.296 -1.0228 -0.1400  0.4903
  558SOL    HW1 1673   2.786   2.292   0.335 -1.3430  0.3694 -1.4983
  558SOL    HW2 1674   2.908   2.176   0.281  0.7211  0.3336 -0.2116
  559SOL     OW 1675   0.386   2.295   1.393 -0.2585 -0.2081 -0.1752
  559SOL    HW1 1676   0.292   2.317   1.354  1.2257 -0.0473  0.1136
  559SOL    HW2 1677   0.422   2.221   1.333 -1.2411 -0.4973 -1.2430
  560SOL     OW 1678   2.093   1.133   3.061  0.0407 -0.5434 -0.2501
  560SOL    HW1 1679   2.060   1.157   3.156 -1.0354  1.1297 -0.2731
  560SOL    HW2 1680   2.131   1.213   3.004  0.0452 -0.1434 -1.5937
  561SOL     OW 1681   3.063   1.862   0.027  0.5170  0.0201 -0.3221
  561SOL    HW1 1682   3.013   1.796   0.090  2.5034  1.6389 -0.6353
  561SOL    HW2 1683   3.009   1.950   0.009  3.2349 -1.0106 -0.8042
  562SOL     OW 1684   0.988   2.254   2.323 -0.2048 -0.3783 -0.0439
  562SOL    HW1 1685   0.901   2.222   2.379  0.0032 -1.2682 -2.6168
  562SOL    HW2 1686   1.037   2.331   2.376  2.6394  3.0617  0.6474
  563SOL     OW 1687   0.708   2.582   2.613  0.2628 -0.0659  0.0420
  563SOL    HW1 1688   0.787   2.523   2.583  0.8100 -0.1952  0.0146
  563SOL    HW2 1689   0.706   2.600   2.718 -0.0256 -0.8714  2.6980
  564SOL     OW 1690   2.846   1.320   2.909  0.9694  0.2284 -0.3032
  564SOL    HW1 1691   2.781   1.364   2.978 -0.5430  2.2901  0.1472
  564SOL    HW2 1692   2.879   1.395   2.844 -1.7824  0.4007 -0.0702
  565SOL     OW 1693   2.538   1.972   2.640 -0.0798  1.0339 -0.0670
  565SOL    HW1 1694   2.470   2.034   2.596 -0.3982 -0.9162  0.3574
  565SOL    HW2 1695   2.605   2.029   2.695  1.0708  1.1053 -1.5661
  566SOL     OW 1696   2.073   2.822   1.383  0.0627  0.0911  0.3077
  566SOL    HW1 1697   2.019   2.731   1.387 -0.8969 -0.0139  1.4977
  566SOL    HW2 1698   2.039   2.875   1.304 -0.5685  0.6433 -0.4662
  567SOL     OW 1699   2.443   0.015   2.360 -0.7738 -0.9747 -0.2860
  567SOL    HW1 1700   2.341   0.027   2.366 -2.6960 -4.1530  1.2198
  567SOL    HW2 1701   2.484   0.019   2.264 -0.2929 -0.2826  1.6008
  568SOL     OW 1702   1.506   1.774   0.262 -0.1142 -0.5864 -0.4968
  568SOL    HW1 1703   1.441   1.851   0.239  1.3886 -0.3810  0.3899
  568SOL    HW2 1704   1.595   1.787   0.210  0.1105  2.9102  0.3270
  569SOL     OW 1705   0.268   0.667   0.808  0.4630 -0.4149  0.7633
  569SOL    HW1 1706   0.345   0.594   0.789 -1.7527 -3.1694 -0.3805
  569SOL    HW2 1707   0.180   0.616   0.836 -0.3195 -0.2597  0.5866
  570SOL     OW 1708   0.602   0.891   2.917  0.2388 -0.0340  0.2018
  570SOL    HW1 1709   0.654   0.932   2.836 -2.2672 -1.2035  2.0827
  570SOL    HW2 1710   0.626   0.927   3.012  2.0041 -2.6488 -0.9760
  571SOL     OW 1711   0.781   0.015   1.008  0.2850  0.5799  0.2894
  571SOL    HW1 1712   0.851   0.012   0.932  1.7712  2.6386  1.4004
  571SOL    HW2 1713   0.689  -0.015   0.971 -1.8693 -0.6192 -1.9143
  572SOL     OW 1714   1.615   2.584   1.318  0.1153 -0.4080  0.0446
  572SOL    HW1 1715   1.529   2.552   1.270 -1.9907  1.1647 -0.6730
  572SOL    HW2 1716   1.606   2.688   1.344  0.0819 -0.6833  0.7336
  573SOL     OW 1717   2.870   0.519   2.015  0.4454  0.8067 -0.5706
  573SOL    HW1 1718   2.791   0.452   2.020 -0.2392  0.1595  1.1600
  573SOL    HW2 1719   2.884   0.553   1.918 -0.4047 -1.2589  2.8345
  574SOL     OW 1720   0.158   1.739   1.056  0.3834  0.1130  0.5877
  574SOL    HW1 1721   0.144   1.839   1.041  0.7226 -0.6539  0.9384
  574SOL    HW2 1722   0.082   1.685   1.098 -1.0590 -0.6510  0.6027
  575SOL     OW 1723   0.867   2.154   0.921 -0.3260 -0.3520 -0.3213
  575SOL    HW1 1724   0.843   2.209   1.004  1.7119  1.2689 -0.6451
  575SOL    HW2 1725   0.913   2.212   0.846  1.5104  1.5316 -0.3551
  576SOL     OW 1726   2.923   3.032   1.724 -0.6661  0.0495 -0.2981
  576SOL    HW1 1727   2.821   3.008   1.723 -0.7593 -3.0346 -0.9286
  576SOL    HW2 1728   2.946   3.132   1.707 -2.6698 -0.6887 -3.0343
  577SOL     OW 1729   2.470   1.249   0.012 -0.2566 -0.1881 -0.1825
  577SOL    HW1 1730   2.487   1.184  -0.069 -1.8351  0.3925 -1.9839
  577SOL    HW2 1731   2.549   1.258   0.083  0.7210  0.1651  2.3816
  578SOL     OW 1732   1.387   2.740   2.427 -0.1764 -0.4913 -0.2319
  578SOL    HW1 1733   1.294   2.791   2.446  1.2110  0.0483 -0.0037
  578SOL    HW2 1734   1.465   2.811   2.422  2.7799 -1.0150  0.6662
  579SOL     OW 1735   0.082   2.507   0.143 -0.3461 -0.2603  0.0319
  579SOL    HW1 1736  -0.008   2.506   0.199 -0.0910 -0.9150  2.6006
  579SOL    HW2 1737   0.160   2.548   0.197 -0.4766 -0.6792  0.4913
  580SOL     OW 1738   0.981   2.695   0.399  0.8694 -0.0300 -0.6657
  580SOL    HW1 1739   1.064   2.691   0.335 -2.0626 -0.4027  0.9385
  580SOL    HW2 1740   0.906   2.628   0.368 -2.7766 -1.8588  1.4519
  581SOL     OW 1741   1.245   2.650   1.459 -0.5412  0.0879 -0.1664
  581SOL    HW1 1742   1.301   2.572   1.502  1.4282 -0.1538  0.2359
  581SOL    HW2 1743   1.291   2.714   1.385 -1.3577  0.6444 -0.2626
  582SOL     OW 1744   1.512   0.077   1.853 -0.2498 -0.1777 -0.3768
  582SOL    HW1 1745   1.531   0.155   1.918  1.5775 -0.4139 -0.3246
  582SOL    HW2 1746   1.590   0.060   1.787  0.5424  0.3289  0.8883
  583SOL     OW 1747   2.465   3.061   0.560 -0.1835 -0.0696 -0.1036
  583SOL    HW1 1748   2.514   2.992   0.501 -1.3532  0.6756  3.0561
  583SOL    HW2 1749   2.394   3.006   0.616 -0.6118 -1.4055 -0.0127
  584SOL     OW 1750   1.564   0.980   2.134 -0.5333  1.4328  0.1837
  584SOL    HW1 1751   1.634   0.973   2.060  0.5365  3.0428  0.2015
  584SOL    HW2 1752   1.601   0.925   2.219  0.0460 -1.2982  0.1927
  585SOL     OW 1753   2.130   2.675   2.922  0.6694 -0.0923  0.2843
  585SOL    HW1 1754   2.121   2.579   2.877 -0.9751 -1.0615  1.5640
  585SOL    HW2 1755   2.042   2.707   2.960  1.9040 -0.1775  0.9748
  586SOL     OW 1756   2.827   0.376   1.578  0.1328  0.0542  0.6985
  586SOL    HW1 1757   2.799   0.462   1.623 -0.9193 -0.9264  1.1510
  586SOL    HW2 1758   2.759   0.300   1.599 -2.4202 -1.7535  2.1989
  587SOL     OW 1759   2.040   1.556   2.633  0.9387 -0.0947 -0.5824
  587SOL    HW1 1760   2.078   1.479   2.578 -1.1016  3.5414 -1.5995
  587SOL    HW2 1761   2.060   1.539   2.732  1.1121  1.7615 -1.3549
  588SOL     OW 1762   0.468   2.686   2.263  0.4693 -0.0632 -0.4104
  588SOL    HW1 1763   0.369   2.674   2.241  1.1007  0.1790 -1.2397
  588SOL    HW2 1764   0.519   2.596   2.282 -1.2887 -1.1137  1.0189
  589SOL     OW 1765   2.164   1.355   2.497  0.4609 -0.3436 -0.2838
  589SOL    HW1 1766   2.106   1.292   2.435 -1.2867 -0.2602 -0.1381
  589SOL    HW2 1767   2.257   1.314   2.507 -0.9930 -0.4635  0.1387
  590SOL     OW 1768   2.349   1.672   2.057 -0.0446  0.0418 -0.5344
  590SOL    HW1 1769   2.405   1.585   2.067 -0.7119  2.1759  2.4038
  590SOL    HW2 1770   2.373   1.732   2.137  0.9195 -1.5975 -0.5628
  591SOL     OW 1771   1.305   2.384   0.260  0.0529 -0.4392 -0.8162
  591SOL    HW1 1772   1.313   2.288   0.227 -0.0588  1.3702  0.8625
  591SOL    HW2 1773   1.335   2.401   0.358  3.9657  2.1416 -0.8819
  592SOL     OW 1774   1.782   2.271   0.751 -0.2033 -0.0416  0.1895
  592SOL    HW1 1775   1.753   2.294   0.656  0.2970 -0.9322 -0.0981
  592SOL    HW2 1776   1.886   2.292   0.768  0.6193  0.4564  0.7051
  593SOL     OW 1777   0.700   0.239   0.240 -0.0047  0.0673 -0.0583
  593SOL    HW1 1778   0.761   0.190   0.169 -1.4967 -0.3824 -0.4951
  593SOL    HW2 1779   0.716   0.345   0.230 -0.5021  2.3474 -0.5294
  594SOL     OW 1780   0.982   1.879   2.675  0.3697 -0.5949 -0.0843
  594SOL    HW1 1781   1.085   1.841   2.679  2.3099 -0.0048  0.4782
  594SOL    HW2 1782   0.963   1.956   2.743  1.7699 -0.2262  1.2386
  595SOL     OW 1783   1.542   0.018   1.082 -0.3402 -0.4265 -0.0719
  595SOL    HW1 1784   1.589  -0.060   1.030 -0.3428 -1.6824 -0.3953
  595SOL    HW2 1785   1.439   0.009   1.074  1.3328 -1.3613 -0.1141
  596SOL     OW 1786   0.006   1.441   2.242  1.0577  0.4190 -0.4046
  596SOL    HW1 1787  -0.038   1.348   2.254 -0.2710  0.9472  0.6407
  596SOL    HW2 1788   0.041   1.483   2.331 -1.6653 -1.2443  2.9795
  597SOL     OW 1789   1.972   2.548   1.706 -0.5311  0.1502  0.2979
  597SOL    HW1 1790   2.000   2.531   1.607 -3.6986 -1.4123  0.2050
  597SOL    HW2 1791   2.044   2.553   1.778 -3.9799 -0.6010  2.9291
  598SOL     OW 1792   2.542   2.950   1.197  0.5053  0.3054 -0.4305
  598SOL    HW1 1793   2.609   2.968   1.273 -0.1437 -2.1725 -0.1167
  598SOL    HW2 1794   2.581   2.949   1.098  1.4996 -0.5730 -0.2037
  599SOL     OW 1795   2.905   0.320   2.497 -0.6138  0.1737  0.1420
  599SOL    HW1 1796   3.009   0.326   2.478  0.5476 -3.1080  1.6130
  599SOL    HW2 1797   2.856   0.408   2.472 -1.0053 -1.7253 -1.7624
  600SOL     OW 1798   2.830   1.065   2.747  0.1211  0.7450 -0.3839
  600SOL    HW1 1799   2.802   0.977   2.798  1.3348  0.9895  1.3169
  600SOL    HW2 1800   2.842   1.147   2.809  0.1661 -1.3628  0.0907
  601SOL     OW 1801   2.976   1.334   1.974  0.1968  0.3263  0.0154
  601SOL    HW1 1802   2.888   1.382   1.946 -0.7234  0.1356 -1.2478
  601SOL    HW2 1803   3.064   1.364   1.924  0.2305 -2.9439  1.4238
  602SOL     OW 1804   1.456   1.726   2.326 -1.3567  0.3130 -0.4104
  602SOL    HW1 1805   1.375   1.662   2.320 -1.0516  0.3656  0.2640
  602SOL    HW2 1806   1.541   1.679   2.364  1.0110 -0.5219 -0.6680
  603SOL     OW 1807   0.585   1.231   2.757  0.1525  0.2983  0.5412
  603SOL    HW1 1808   0.503   1.208   2.701  0.9311 -1.2914  2.1483
  603SOL    HW2 1809   0.665   1.167   2.736 -1.4718  1.2181 -1.9275
  604SOL     OW 1810   2.372   0.995   0.163 -0.2690 -0.3108 -0.3320
  604SOL    HW1 1811   2.368   1.075   0.092  0.7604 -0.3590  0.6024
  604SOL    HW2 1812   2.396   0.903   0.117 -0.0425 -1.3779  1.7031
  605SOL     OW 1813   2.545   1.155   1.958 -0.1235  0.2135 -0.0373
  605SOL    HW1 1814   2.569   1.058   1.932 -1.1419  1.0586 -0.2344
  605SOL    HW2 1815   2.626   1.203   2.000  2.3741  1.7813  2.9132
  606SOL     OW 1816   1.531   2.531   2.544 -0.2221  0.0534  0.6005
  606SOL    HW1 1817   1.473   2.607   2.505  3.6497  1.6381 -0.6552
  606SOL    HW2 1818   1.481   2.439   2.540  1.8684  0.0226 -1.4466
  607SOL     OW 1819   1.310   1.582   0.344  0.3008  0.6578  0.3128
  607SOL    HW1 1820   1.252   1.649   0.400 -1.7875  0.3441 -0.0599
  607SOL    HW2 1821   1.396   1.626   0.309 -3.0660 -1.3204 -0.7566
  608SOL     OW 1822   1.403   2.834   0.375  0.0051 -0.4603  0.4673
  608SOL    HW1 1823   1.466   2.882   0.308  0.5035 -1.1434  2.8172
  608SOL    HW2 1824   1.350   2.908   0.428  2.3069 -0.4354  0.7465
  609SOL     OW 1825   1.270   1.347   0.207  0.1632 -0.0648  0.8617
  609SOL    HW1 1826   1.292   1.434   0.248 -1.0487 -2.8840  1.4981
  609SOL    HW2 1827   1.218   1.353   0.117  0.3013 -1.2400  0.7810
  610SOL     OW 1828   2.973   1.169   2.244 -0.3440 -0.0286  0.1560
  610SOL    HW1 1829   3.003   1.072   2.231  0.7954  0.8092  0.1135
  610SOL    HW2 1830   2.914   1.204   2.167 -0.6429 -1.0567  1.5559
  611SOL     OW 1831   2.520   0.286   1.168 -0.0540 -0.1787  0.3117
  611SOL    HW1 1832   2.464   0.200   1.151 -0.6304 -0.1611  3.0089
  611SOL    HW2 1833   2.615   0.270   1.210  1.1238  1.0340 -0.2046
  612SOL     OW 1834   0.763   2.271   1.172  0.2378 -0.1019  0.3891
  612SOL    HW1 1835   0.692   2.192   1.158 -1.1188 -1.0628 -2.0668
  612SOL    HW2 1836   0.720   2.364   1.169 -1.8953 -1.4481 -1.0284
  613SOL     OW 1837   0.853   1.402   2.445  0.0140  0.2777  0.0584
  613SOL    HW1 1838   0.828   1.471   2.375 -3.5022 -1.8059  0.5514
  613SOL    HW2 1839   0.841   1.306   2.409  1.4799  1.7228  0.8588
  614SOL     OW 1840   1.565   1.666   1.958  0.0486  0.4551 -0.1888
  614SOL    HW1 1841   1.492   1.740   1.942  0.5577  0.4757  1.0904
  614SOL    HW2 1842   1.626   1.696   2.039 -0.0437  2.3718 -1.6884
  615SOL     OW 1843   0.800   1.347   1.712 -0.2366 -0.2926 -0.8738
  615SOL    HW1 1844   0.731   1.300   1.660  1.2658 -0.0528  1.0866
  615SOL    HW2 1845   0.814   1.439   1.666  1.3437 -1.1459 -0.9860
  616SOL     OW 1846   1.009   1.598   2.154  0.2794 -0.1371 -0.1940
  616SOL    HW1 1847   0.905   1.577   2.175  0.7500  0.8791  0.6194
  616SOL    HW2 1848   1.018   1.657   2.067 -0.8482 -1.0781 -0.7519
  617SOL     OW 1849   2.969   1.547   1.624 -0.0090  0.3237 -0.2905
  617SOL    HW1 1850   2.907   1.504   1.700  2.7304  0.1204  0.6812
  617SOL    HW2 1851   2.965   1.498   1.534  1.7395 -0.6920 -2.9471
  618SOL     OW 1852   1.909   1.986   1.495 -0.7348  0.3073 -0.1755
  618SOL    HW1 1853   1.984   1.999   1.422  0.2895 -0.7960  1.7100
  618SOL    HW2 1854   1.870   1.890   1.499  1.1384  1.9976  0.3470
  619SOL     OW 1855   1.751   0.496   2.396  0.5945 -0.0114 -0.0723
  619SOL    HW1 1856   1.665   0.544   2.361  0.2537  0.9429 -2.5313
  619SOL    HW2 1857   1.740   0.398   2.429  2.5793 -0.2479  0.7847
  620SOL     OW 1858   2.227   2.982   0.659 -0.3639  0.3474  0.0283
  620SOL    HW1 1859   2.172   3.057   0.702  1.8064 -1.2370 -2.0639
  620SOL    HW2 1860   2.265   2.910   0.728  0.6274 -1.4860  3.4886
  621SOL     OW 1861   2.156   1.873   1.323 -0.4148 -0.1701  0.1180
  621SOL    HW1 1862   2.168   1.843   1.420 -0.7168  1.6685 -2.9724
  621SOL    HW2 1863   2.085   1.806   1.281 -1.5812  0.3052  0.1057
  622SOL     OW 1864   2.238   0.919   1.804  0.4198 -0.4443 -0.2720
  622SOL    HW1 1865   2.318   0.912   1.740 -0.7212 -0.2134  0.7933
  622SOL    HW2 1866   2.243   0.841   1.871 -1.5067  1.2124  0.6840
  623SOL     OW 1867   1.344   0.814   2.656  0.5959 -0.4176  0.2981
  623SOL    HW1 1868   1.286   0.762   2.724 -0.9297  0.3818 -0.5090
  623SOL    HW2 1869   1.293   0.862   2.579 -0.5639 -1.0893 -1.0422
  624SOL     OW 1870   0.592   0.632   3.097 -0.0067  0.3563  0.7051
  624SOL    HW1 1871   0.615   0.689   3.014 -0.1935  0.3525 -1.9089
  624SOL    HW2 1872   0.568   0.696   3.180  0.6737 -1.2804  0.6935
  625SOL     OW 1873   2.880   1.749   0.971  0.1887  0.4613 -0.0366
  625SOL    HW1 1874   2.781   1.760   0.999 -0.9726 -0.1697 -1.9191
  625SOL    HW2 1875   2.946   1.799   1.039 -1.8820  2.7971  1.1467
  626SOL     OW 1876   0.610   2.711   1.840  0.0999 -0.0353  0.4480
  626SOL    HW1 1877   0.622   2.812   1.866  0.2986  0.7281 -1.1900
  626SOL    HW2 1878   0.515   2.691   1.797  0.1244 -2.5289 -1.2745
  627SOL     OW 1879   0.719   1.003   1.524  0.0844 -0.4719 -0.7853
  627SOL    HW1 1880   0.718   0.940   1.442  0.5469 -2.5904  0.0637
  627SOL    HW2 1881   0.801   1.070   1.533 -1.3038  0.8503  3.2773
  628SOL     OW 1882   2.387   0.185   0.730 -0.2216 -0.1152  0.1404
  628SOL    HW1 1883   2.438   0.121   0.667  1.1642  1.9000 -1.9008
  628SOL    HW2 1884   2.300   0.139   0.760  2.6962  2.6808  0.4253
  629SOL     OW 1885   1.974   0.896   1.974 -0.5137  0.3991  0.2387
  629SOL    HW1 1886   2.011   0.936   1.884  2.1875  0.1190 -0.5631
  629SOL    HW2 1887   1.947   0.975   2.036 -0.4610 -1.7181  1.6313
  630SOL     OW 1888   2.853   2.206   0.855  0.1630  0.3226  0.1865
  630SOL    HW1 1889   2.774   2.271   0.877 -1.5399 -1.4141 -0.7513
  630SOL    HW2 1890   2.824   2.107   0.829  0.1275  1.7985  1.4881
  631SOL     OW 1891   2.947   0.153   2.115 -0.2083 -0.5350 -0.6656
  631SOL    HW1 1892   3.031   0.183   2.162  1.2242 -0.8282  2.1699
  631SOL    HW2 1893   2.970   0.124   2.016  1.1259 -0.8717 -0.3568
  632SOL     OW 1894   2.442   2.518   0.650  0.2707  0.2590  0.7850
  632SOL    HW1 1895   2.476   2.611   0.669 -0.6097 -1.4787  0.6187
  632SOL    HW2 1896   2.400   2.511   0.558 -0.6915 -0.6634  0.5219
  633SOL     OW 1897   1.428   1.247   2.518  0.8258  0.3066 -0.2912
  633SOL    HW1 1898   1.446   1.332   2.573  1.0026 -0.0929  0.4316
  633SOL    HW2 1899   1.353   1.260   2.449  1.0146 -2.4483  0.6787
  634SOL     OW 1900   0.685   1.945   0.936  0.1755  0.0174  0.1493
  634SOL    HW1 1901   0.594   1.985   0.967  0.9211 -0.7247  1.4103
  634SOL    HW2 1902   0.766   2.012   0.933  0.6967  1.4648  0.0954
  635SOL     OW 1903   3.073   2.319   3.072  0.5081  0.0875 -0.5017
  635SOL    HW1 1904   3.001   2.364   3.014 -0.6810 -1.3141  1.4963
  635SOL    HW2 1905   3.109   2.379   3.145  0.6653 -0.5193  0.2408
  636SOL     OW 1906   2.266   2.720   2.098  0.3631 -0.1082  0.2079
  636SOL    HW1 1907   2.274   2.816   2.131  0.3331 -2.5191 -0.7067
  636SOL    HW2 1908   2.210   2.665   2.169 -0.3321  0.1966  4.1387
  637SOL     OW 1909   2.631   0.718   2.034 -0.6758 -0.0213 -0.2917
  637SOL    HW1 1910   2.599   0.716   1.940  1.1834  0.6983  0.3137
  637SOL    HW2 1911   2.678   0.807   2.062  1.4148  0.9438 -0.7473
  638SOL     OW 1912   2.400   1.782   1.233 -0.4910  0.7737  0.0366
  638SOL    HW1 1913   2.314   1.830   1.260  0.4760  0.0073 -0.7557
  638SOL    HW2 1914   2.459   1.752   1.316  1.1250 -0.9965  0.0244
  639SOL     OW 1915   1.291   2.184   1.721  0.4777  0.2587 -0.3608
  639SOL    HW1 1916   1.346   2.112   1.673 -3.6791 -0.8611 -0.3547
  639SOL    HW2 1917   1.188   2.160   1.722  1.2098  0.1364  1.2138
  640SOL     OW 1918   0.200   1.155   1.581  0.2210  0.4649 -0.0232
  640SOL    HW1 1919   0.193   1.200   1.675  1.4681 -1.3443 -1.2583
  640SOL    HW2 1920   0.276   1.084   1.572 -1.3782 -0.1799  1.3066
  641SOL     OW 1921   2.026   0.160   1.522 -0.0936 -0.2812 -0.3659
  641SOL    HW1 1922   2.015   0.161   1.625 -2.0318 -0.9029  0.8699
  641SOL    HW2 1923   2.122   0.128   1.492  0.4077  2.8070 -1.9268
  642SOL     OW 1924   1.956   0.122   0.296 -0.5061  0.6428 -0.0027
  642SOL    HW1 1925   2.042   0.096   0.357  1.1233 -0.6527 -0.8828
  642SOL    HW2 1926   1.865   0.079   0.325 -1.8796 -0.2560 -0.6648
  643SOL     OW 1927   2.911   1.872   2.054 -0.3790  0.0963 -0.1342
  643SOL    HW1 1928   2.876   1.784   2.011  1.3558 -0.0780  0.3862
  643SOL    HW2 1929   2.877   1.959   2.002 -2.0443 -0.6564 -2.8144
  644SOL     OW 1930   2.278   2.392   1.214 -0.2521 -0.0596  0.1288
  644SOL    HW1 1931   2.321   2.313   1.162  0.2822 -2.1817 -0.2492
  644SOL    HW2 1932   2.229   2.352   1.295 -1.2563  1.6667  3.1641
  645SOL     OW 1933   0.640   0.849   1.256  0.2092  0.0834  0.6040
  645SOL    HW1 1934   0.535   0.843   1.266 -2.8918  4.8945  1.9256
  645SOL    HW2 1935   0.659   0.896   1.167 -0.1348  3.3231  2.1865
  646SOL     OW 1936   1.404   1.924   1.943 -0.1981  0.3667 -0.6517
  646SOL    HW1 1937   1.452   2.003   1.901  0.2983 -0.7920 -0.1707
  646SOL    HW2 1938   1.350   1.951   2.029 -0.3205 -0.4064 -0.9251
  647SOL     OW 1939   0.806   1.073   0.676  0.2801 -0.3688 -0.2256
  647SOL    HW1 1940   0.859   1.094   0.762  1.0416  1.1634 -0.1017
  647SOL    HW2 1941   0.748   0.991   0.678 -1.5957  3.1316 -0.4238
  648SOL     OW 1942   0.109   0.182   0.221  0.2858 -0.3016 -0.2122
  648SOL    HW1 1943   0.122   0.109   0.146  2.9694 -0.2541  1.4084
  648SOL    HW2 1944   0.105   0.276   0.181 -0.8285  1.7075 -2.2861
  649SOL     OW 1945   3.037   0.226   0.889  0.7789 -0.3208  0.0961
  649SOL    HW1 1946   3.130   0.191   0.913  1.0540 -0.2106 -2.2697
  649SOL    HW2 1947   3.033   0.328   0.879 -2.0156 -0.6888 -3.2010
  650SOL     OW 1948   2.740   0.673   1.423 -0.5357 -0.2172 -0.2964
  650SOL    HW1 1949   2.638   0.669   1.445 -1.6323 -0.5990  3.3666
  650SOL    HW2 1950   2.767   0.751   1.361  1.1654 -0.4961  1.0482
  651SOL     OW 1951   0.925   1.564   1.591  0.3882  0.3687 -0.2794
  651SOL    HW1 1952   0.957   1.641   1.645 -3.0815 -0.3638  1.2915
  651SOL    HW2 1953   0.994   1.516   1.527  2.8864 -0.5177 -0.5035
  652SOL     OW 1954   2.314   2.454   2.499 -0.3913  0.0684  0.5265
  652SOL    HW1 1955   2.258   2.470   2.585  1.5214  1.5617  0.5198
  652SOL    HW2 1956   2.270   2.501   2.412 -2.0800 -0.6612 -1.6292
  653SOL     OW 1957   2.698   1.212   0.175 -0.0269 -0.8635 -0.1409
  653SOL    HW1 1958   2.709   1.268   0.259 -2.6185 -0.0999  0.2141
  653SOL    HW2 1959   2.765   1.137   0.166 -1.4789 -0.9179  0.5141
  654SOL     OW 1960   1.290   2.246   1.263  0.3120  0.5130 -0.0096
  654SOL    HW1 1961   1.269   2.184   1.346 -1.1838  0.0149  0.0282
  654SOL    HW2 1962   1.319   2.194   1.175  0.1619 -2.3520 -2.3852
  655SOL     OW 1963   0.164   0.946   1.892  0.1601  0.2137 -1.0788
  655SOL    HW1 1964   0.223   0.890   1.824  2.9518  0.8969 -1.5807
  655SOL    HW2 1965   0.226   1.020   1.933  1.4850 -0.5447  0.2098
  656SOL     OW 1966   2.544   2.498   2.625  0.0929  0.2662 -0.7655
  656SOL    HW1 1967   2.610   2.450   2.560 -0.1563 -2.0855  2.4569
  656SOL    HW2 1968   2.448   2.495   2.570 -2.1064 -3.1405 -0.3053
  657SOL     OW 1969   3.010   1.049   1.941  0.1671  0.1512  0.1100
  657SOL    HW1 1970   3.008   1.153   1.936  0.9307 -0.4565 -0.3764
  657SOL    HW2 1971   3.104   1.001   1.921  1.3160 -0.9840 -1.3309
  658SOL     OW 1972   1.711   0.223   2.404  0.3660  0.0367  0.2696
  658SOL    HW1 1973   1.711   0.157   2.486  1.4572 -2.5521  0.5028
  658SOL    HW2 1974   1.762   0.187   2.322  2.2433  1.4396 -1.0491
  659SOL     OW 1975   1.459   0.635   2.940  0.4614  0.2399  0.2663
  659SOL    HW1 1976   1.504   0.727   2.928 -0.2890  1.6718  0.8012
  659SOL    HW2 1977   1.353   0.645   2.930 -1.5881  0.9014  1.5604
  660SOL     OW 1978   1.400   0.363   1.449 -0.2469  0.1914  0.3345
  660SOL    HW1 1979   1.425   0.361   1.556 -2.0314 -0.5451  1.6837
  660SOL    HW2 1980   1.452   0.292   1.394  1.2530  1.4474 -0.0732
  661SOL     OW 1981   2.483   1.194   0.663  0.2772 -0.1611 -0.3346
  661SOL    HW1 1982   2.519   1.211   0.566  1.1943  1.0137 -1.6995
  661SOL    HW2 1983   2.435   1.272   0.702 -0.2968 -1.5810 -1.7764
  662SOL     OW 1984   1.385   0.461   1.812 -0.0578 -0.1435  0.6865
  662SOL    HW1 1985   1.350   0.365   1.783  0.2625 -0.8832 -0.1438
  662SOL    HW2 1986   1.326   0.502   1.888 -2.5598 -1.2241  0.1214
  663SOL     OW 1987   0.762   1.539   2.217  0.1577  0.2855 -0.7450
  663SOL    HW1 1988   0.718   1.631   2.241 -0.4532 -2.1048 -0.0797
  663SOL    HW2 1989   0.712   1.485   2.155  1.7330  3.3335  1.9446
  664SOL     OW 1990   1.630   2.089   1.461  0.1822  0.2002  0.7521
  664SOL    HW1 1991   1.571   2.063   1.539 -0.0253 -1.8942  0.4165
  664SOL    HW2 1992   1.731   2.064   1.477  2.0075 -1.8451  1.1216
  665SOL     OW 1993   2.274   0.657   1.940  0.0955 -0.0904  0.1075
  665SOL    HW1 1994   2.261   0.556   1.958 -0.2355  2.5949  1.5087
  665SOL    HW2 1995   2.252   0.718   2.024  0.5896  0.0546  1.5886
  666SOL     OW 1996   0.363   2.356   0.369 -0.0032 -0.0252  0.6661
  666SOL    HW1 1997   0.433   2.398   0.437  0.0602 -1.5226  0.8657
  666SOL    HW2 1998   0.297   2.293   0.420  1.1246 -3.2340  3.2888
  667SOL     OW 1999   1.988   0.145   1.168  0.0781 -0.5224 -0.0759
  667SOL    HW1 2000   2.008   0.242   1.143 -1.0126 -1.1502  2.5255
  667SOL    HW2 2001   1.910   0.129   1.235 -2.3576  1.4159  0.3506
  668SOL     OW 2002   2.016   0.506   1.172  0.0030  0.1650  0.3635
  668SOL    HW1 2003   2.075   0.523   1.089 -2.5240  1.4465  1.1361
  668SOL    HW2 2004   2.068   0.498   1.265 -1.5715 -0.7037 -0.2837
  669SOL     OW 2005   3.082   2.193   1.013 -0.9488  0.2846 -0.0154
  669SOL    HW1 2006   3.022   2.216   0.940  0.1197  1.4798  1.2930
  669SOL    HW2 2007   3.041   2.228   1.099 -0.2632  2.2813 -0.5979
  670SOL     OW 2008   2.846   2.326   1.943  0.3237  0.3805 -0.3247
  670SOL    HW1 2009   2.785   2.299   2.025 -0.9338 -0.5248  0.4357
  670SOL    HW2 2010   2.834   2.423   1.920 -1.0275 -3.0001 -1.1471
  671SOL     OW 2011   1.765   1.743   1.486  0.5727  0.3436 -0.1366
  671SOL    HW1 2012   1.797   1.724   1.387 -1.7164  2.1050 -2.5537
  671SOL    HW2 2013   1.674   1.709   1.510 -0.4864  1.9359  1.4958
  672SOL     OW 2014   0.389   0.620   2.385 -0.2173 -0.0364 -0.1034
  672SOL    HW1 2015   0.450   0.661   2.313 -0.1518 -1.0027 -2.6894
  672SOL    HW2 2016   0.315   0.684   2.415  1.4719  0.2540 -2.6739
  673SOL     OW 2017   0.111   1.166   1.150  0.0768  0.3835  0.8325
  673SOL    HW1 2018   0.121   1.244   1.221  0.1373 -0.8282 -0.7785
  673SOL    HW2 2019   0.197   1.133   1.104 -0.4480 -0.7727 -0.7106
  674SOL     OW 2020   1.617   2.935   0.230 -0.6046 -0.6277 -0.1866
  674SOL    HW1 2021   1.666   3.022   0.208  2.3231  0.0668  0.8788
  674SOL    HW2 2022   1.661   2.853   0.185  2.3543  2.1815  0.0409
  675SOL     OW 2023   1.702   0.822   2.318 -0.3125  0.0997 -0.1582
  675SOL    HW1 2024   1.800   0.800   2.288  0.3320  0.0058  0.4724
  675SOL    HW2 2025   1.644   0.744   2.285 -1.2415 -2.8431 -2.9069
  676SOL     OW 2026   2.485   1.443   2.004  0.1696 -0.1877  0.3397
  676SOL    HW1 2027   2.462   1.399   1.912 -0.1065 -1.5152 -1.5049
  676SOL    HW2 2028   2.548   1.390   2.067 -2.6510  1.8499 -0.0337
  677SOL     OW 2029   1.944   0.711   0.865  0.3203  0.1073  0.3698
  677SOL    HW1 2030   1.954   0.737   0.961  0.8755  0.0036 -1.8031
  677SOL    HW2 2031   2.012   0.641   0.837  0.0784  2.8817 -0.9612
  678SOL     OW 2032   0.009   0.770   1.686  0.0927  0.2642  0.5254
  678SOL    HW1 2033   0.111   0.747   1.702  2.1094  0.0437  2.2447
  678SOL    HW2 2034  -0.043   0.769   1.776  1.9335  0.1157 -1.3045
  679SOL     OW 2035   2.606   1.190   1.093  0.1554  0.3971  0.4027
  679SOL    HW1 2036   2.509   1.209   1.127  0.4482 -0.7888  0.9532
  679SOL    HW2 2037   2.635   1.092   1.078  0.5906  0.0852  0.9185
  680SOL     OW 2038   2.790   0.628   1.719 -0.1501  0.0334 -0.2117
  680SOL    HW1 2039   2.770   0.674   1.628 -1.1137  1.5337  0.4638
  680SOL    HW2 2040   2.851   0.684   1.785  0.1451 -2.2368  1.9986
  681SOL     OW 2041   3.024   0.194   1.660  0.2606 -0.1334 -0.1270
  681SOL    HW1 2042   3.102   0.171   1.593 -0.7902 -4.0091  3.1505
  681SOL    HW2 2043   2.972   0.284   1.632 -2.5293  2.9341  0.8113
  682SOL     OW 2044   0.730   0.027   1.298 -0.8065  0.6484 -0.3804
  682SOL    HW1 2045   0.700  -0.066   1.340 -0.1250 -3.5415 -0.5265
  682SOL    HW2 2046   0.741   0.022   1.192 -0.3754 -0.5261 -4.1632
  683SOL     OW 2047   1.343   0.181   2.205  0.0684 -0.0461  0.1217
  683SOL    HW1 2048   1.319   0.253   2.277 -2.2230  1.9796 -2.3172
  683SOL    HW2 2049   1.421   0.204   2.144 -1.9325  1.8136  0.2190
  684SOL     OW 2050   1.458   2.118   0.543  0.5575  0.0953  0.2849
  684SOL    HW1 2051   1.514   2.038   0.579 -0.5835 -1.1032  2.9270
  684SOL    HW2 2052   1.363   2.087   0.507 -1.6820 -0.3424  1.1345
  685SOL     OW 2053   2.148   1.984   1.979  0.4028  0.1728 -0.4777
  685SOL    HW1 2054   2.206   2.008   1.902 -0.5394  2.0519  0.7322
  685SOL    HW2 2055   2.194   1.953   2.068  1.3952  0.0814  2.0893
  686SOL     OW 2056   1.507   1.798   2.752 -0.0888  0.0627  0.3958
  686SOL    HW1 2057   1.542   1.759   2.842  0.7234 -3.6741 -1.1430
  686SOL    HW2 2058   1.549   1.763   2.663  0.0566  3.3052 -0.4640
  687SOL     OW 2059   1.258   2.489   1.992  0.5659 -0.1939 -0.1125
  687SOL    HW1 2060   1.303   2.394   1.988 -4.2718 -0.7733 -0.6092
  687SOL    HW2 2061   1.329   2.565   1.992  1.0537  2.2256 -0.1482
  688SOL     OW 2062   2.076   1.590   1.748  0.0623  0.5949  0.1454
  688SOL    HW1 2063   2.179   1.618   1.762  1.1598 -3.7946  1.3353
  688SOL    HW2 2064   2.072   1.520   1.673  1.4336  1.1801 -0.9029
  689SOL     OW 2065   2.456   1.064   2.660  0.3606  0.0168 -0.4744
  689SOL    HW1 2066   2.361   1.018   2.658 -0.0030  0.2511  0.6312
  689SOL    HW2 2067   2.511   1.066   2.746  1.8958 -0.0770  0.1604
  690SOL     OW 2068   2.250   2.806   0.035  0.2214 -0.0486  0.3239
  690SOL    HW1 2069   2.192   2.758  -0.037 -3.3891  3.1301  0.1853
  690SOL    HW2 2070   2.183   2.854   0.102 -1.1725 -0.5488  1.6370
  691SOL     OW 2071   2.588   0.487   2.208 -0.0355  0.0027 -0.9806
  691SOL    HW1 2072   2.651   0.413   2.181  1.5805 -0.9768 -0.2523
  691SOL    HW2 2073   2.601   0.573   2.148 -1.1814  1.2502 -2.8003
  692SOL     OW 2074   2.766   1.225   0.709 -0.2112 -0.3342 -0.0777
  692SOL    HW1 2075   2.663   1.210   0.708  1.1211  0.5071  0.7625
  692SOL    HW2 2076   2.791   1.314   0.757  1.1936  1.6789 -0.2330
  693SOL     OW 2077   2.791   2.948   0.658 -0.5280  0.5940  0.0833
  693SOL    HW1 2078   2.802   3.029   0.725  3.2312 -1.5271  0.6194
  693SOL    HW2 2079   2.730   2.974   0.579 -1.2389 -0.4963  1.4590
  694SOL     OW 2080   2.372   2.199   0.075  0.5347  0.0367 -0.0738
  694SOL    HW1 2081   2.363   2.290   0.129  0.0061  2.1545  0.9359
  694SOL    HW2 2082   2.280   2.151   0.057 -1.2788  1.6425  0.6742
  695SOL     OW 2083   0.592   2.941   1.481  0.3719  0.3094  0.5718
  695SOL    HW1 2084   0.516   2.891   1.426 -2.1014 -1.0733 -1.4038
  695SOL    HW2 2085   0.554   2.985   1.567 -0.2793 -0.6629  2.6670
  696SOL     OW 2086   2.834   1.939   0.782  0.2447 -0.5737 -0.2123
  696SOL    HW1 2087   2.844   1.854   0.836  3.3839 -0.3886 -1.1918
  696SOL    HW2 2088   2.879   1.939   0.689  0.7634  1.5084  0.7947
  697SOL     OW 2089   1.623   2.071   1.815  0.6274  0.4160  0.2879
  697SOL    HW1 2090   1.698   2.024   1.861 -2.3097  0.7246 -2.8541
  697SOL    HW2 2091   1.661   2.159   1.771 -0.0230  1.1557 -2.5702
  698SOL     OW 2092   2.941   0.431   2.761  0.4394 -0.3906 -0.0575
  698SOL    HW1 2093   2.908   0.390   2.671 -2.2718 -0.6416  3.2170
  698SOL    HW2 2094   2.997   0.371   2.823  0.0204 -1.6949  1.3003
  699SOL     OW 2095   1.565   0.096   2.923 -0.2473  0.3461  0.1859
  699SOL    HW1 2096   1.545   0.007   2.863  1.7383 -3.7398 -0.2288
  699SOL    HW2 2097   1.605   0.165   2.856  0.9421  0.4048  1.0431
  700SOL     OW 2098   1.014   2.295   1.315  0.1730  0.0705 -0.2430
  700SOL    HW1 2099   1.113   2.268   1.295  2.4782 -0.5746  1.0279
  700SOL    HW2 2100   0.948   2.277   1.240  0.4406  1.9703  0.9710
  701SOL     OW 2101   1.946   2.845   3.081 -0.2273  0.4460  0.4732
  701SOL    HW1 2102   1.902   2.793   3.158 -0.0890 -1.2471 -3.0949
  701SOL    HW2 2103   1.936   2.947   3.088  0.3959  0.1576 -0.8369
  702SOL     OW 2104   2.046   1.344   1.925 -0.3394 -0.2987 -0.2887
  702SOL    HW1 2105   2.134   1.288   1.901 -0.9534 -0.5431 -0.7653
  702SOL    HW2 2106   2.006   1.399   1.850 -1.7478  0.5776  1.6340
  703SOL     OW 2107   1.954   0.888   1.424 -0.1779 -0.0789 -0.0352
  703SOL    HW1 2108   1.962   0.801   1.475  2.2663  1.8532 -0.0407
  703SOL    HW2 2109   2.019   0.962   1.462 -0.3643 -0.8926 -2.6253
  704SOL     OW 2110   0.344   2.041   1.679  0.4065 -0.5059  0.9588
  704SOL    HW1 2111   0.360   1.978   1.761  1.0005 -0.1112 -1.6195
  704SOL    HW2 2112   0.384   2.138   1.676 -0.2979  1.1861 -0.2284
  705SOL     OW 2113   2.482   1.416   0.971  0.6364 -0.8132  0.1146
  705SOL    HW1 2114   2.446   1.423   0.873 -2.6166 -2.7311 -0.1182
  705SOL    HW2 2115   2.561   1.355   0.987 -2.2522 -0.4165 -0.5356
  706SOL     OW 2116   0.671   1.677   1.827 -0.1144  0.8594 -0.0274
  706SOL    HW1 2117   0.689   1.587   1.879  0.4891 -0.3221  2.5478
  706SOL    HW2 2118   0.704   1.756   1.888  0.4057  0.9578 -0.0440
  707SOL     OW 2119   2.281   1.188   1.874 -0.0170 -0.3708 -0.1088
  707SOL    HW1 2120   2.368   1.210   1.922 -2.7713 -0.3868 -0.9836
  707SOL    HW2 2121   2.258   1.089   1.881 -0.5997 -1.2061 -0.7215
  708SOL     OW 2122   2.998   0.541   3.052 -0.5784  0.6987 -0.4089
  708SOL    HW1 2123   2.980   0.607   2.968 -3.2941  4.9493  1.0170
  708SOL    HW2 2124   3.021   0.442   3.021 -2.1647 -5.1186 -0.7854
  709SOL     OW 2125   1.797   1.846   0.198 -0.3864  0.0157  0.1675
  709SOL    HW1 2126   1.826   1.942   0.230 -1.3024 -0.9349 -1.9826
  709SOL    HW2 2127   1.828   1.822   0.103 -3.4023  0.9509 -1.3626
  710SOL     OW 2128   1.712   1.624   2.414 -0.0018 -0.2910 -0.4955
  710SOL    HW1 2129   1.760   1.599   2.328  0.3165  3.6218  1.8712
  710SOL    HW2 2130   1.721   1.562   2.496 -0.6981  0.9886 -0.3257
  711SOL     OW 2131   2.683   2.983   0.973 -0.0224 -0.2105  0.4251
  711SOL    HW1 2132   2.668   3.084   0.952 -0.6655 -0.7332  0.9484
  711SOL    HW2 2133   2.786   2.961   0.971  0.6147 -1.6021  0.9279
  712SOL     OW 2134   1.350   2.220   1.977  0.0237  0.8483 -0.1275
  712SOL    HW1 2135   1.448   2.242   1.996 -1.2047 -0.3017 -0.3861
  712SOL    HW2 2136   1.322   2.224   1.876  1.7049 -1.0068  1.2350
  713SOL     OW 2137   2.947   1.438   2.576 -0.1823 -0.0281  0.4533
  713SOL    HW1 2138   2.866   1.374   2.551 -0.3674 -1.0631  0.9155
  713SOL    HW2 2139   2.928   1.513   2.651  0.7389  2.5579  0.0729
  714SOL     OW 2140   2.686   0.522   2.454 -0.0784  0.1167 -0.7436
  714SOL    HW1 2141   2.637   0.471   2.528  0.2017 -0.2378 -3.1207
  714SOL    HW2 2142   2.633   0.526   2.367 -0.5636  3.1937  0.3758
  715SOL     OW 2143   1.600   2.039   1.196 -0.3188  0.1017  0.1851
  715SOL    HW1 2144   1.537   2.110   1.160  0.5610  0.3883  1.2975
  715SOL    HW2 2145   1.609   2.049   1.302  0.1559 -0.2520  0.0665
  716SOL     OW 2146   1.209   0.130   1.457 -0.4395  0.5528  0.1456
  716SOL    HW1 2147   1.113   0.109   1.489 -1.7675  2.8759 -3.0250
  716SOL    HW2 2148   1.226   0.231   1.448 -1.7094 -0.5645  1.1945
  717SOL     OW 2149   1.119   0.551   1.594 -0.5879  0.3241  0.3720
  717SOL    HW1 2150   1.208   0.602   1.618  0.9804 -0.9174 -1.6092
  717SOL    HW2 2151   1.138   0.515   1.498  0.5469  1.9869  1.6547
  718SOL     OW 2152   0.714   0.921   0.978  0.1605 -0.0384 -1.1931
  718SOL    HW1 2153   0.714   0.872   0.885  1.6918 -0.8108  0.3808
  718SOL    HW2 2154   0.680   1.019   0.969 -0.2803 -1.0842  2.0254
  719SOL     OW 2155   0.675   1.786   2.304  0.6284  0.4921 -0.5610
  719SOL    HW1 2156   0.755   1.828   2.360 -1.4759 -0.9940  3.5197
  719SOL    HW2 2157   0.599   1.757   2.365  1.2092 -0.0246  0.9950
  720SOL     OW 2158   2.192   1.164   0.273  0.0161 -0.2269 -0.7613
  720SOL    HW1 2159   2.260   1.105   0.224 -0.4357  0.8985 -0.1927
  720SOL    HW2 2160   2.189   1.142   0.376  0.1165  0.0847 -3.3544
  721SOL     OW 2161   2.267   2.995   2.136  0.4893  0.1232 -0.2978
  721SOL    HW1 2162   2.274   3.032   2.038  1.4216  1.1506 -0.5661
  721SOL    HW2 2163   2.187   3.043   2.185 -1.6695  0.5534  2.5988
  722SOL     OW 2164   2.386   1.606   0.494 -0.1609 -0.0240  0.6142
  722SOL    HW1 2165   2.418   1.581   0.398 -1.2054  2.3946 -0.8999
  722SOL    HW2 2166   2.369   1.709   0.507 -3.4240  2.9581  2.7328
  723SOL     OW 2167   2.516   2.728   1.985  0.0314  0.1135 -0.0583
  723SOL    HW1 2168   2.571   2.784   2.053 -0.5235  0.6068 -1.2460
  723SOL    HW2 2169   2.416   2.717   2.010 -1.8639 -0.3102 -0.9432
  724SOL     OW 2170   0.540   2.467   2.425  0.1455 -0.5288 -0.2255
  724SOL    HW1 2171   0.450   2.453   2.467 -0.4823  1.3414  0.7431
  724SOL    HW2 2172   0.610   2.485   2.497  0.4424  0.1748  1.2307
  725SOL     OW 2173   2.434   2.802   1.497 -0.3424  0.0371  0.4023
  725SOL    HW1 2174   2.459   2.810   1.398 -2.5768  4.2518  0.6040
  725SOL    HW2 2175   2.381   2.711   1.518 -2.2612 -1.0155 -0.4069
  726SOL     OW 2176   2.460   2.239   0.705 -0.8076  0.1149  0.1048
  726SOL    HW1 2177   2.435   2.343   0.698  0.4981 -2.3473 -0.1427
  726SOL    HW2 2178   2.442   2.193   0.615  0.2976  1.5272 -2.4416
  727SOL     OW 2179   0.138   3.084   0.033 -0.3020  0.0608  0.2316
  727SOL    HW1 2180   0.189   3.003   0.070 -0.2271  0.8472 -1.3744
  727SOL    HW2 2181   0.133   3.093  -0.072 -0.5653 -0.1956  1.3309
  728SOL     OW 2182   2.876   0.683   0.975 -0.6711 -0.1295  0.0086
  728SOL    HW1 2183   2.791   0.653   0.930 -1.5643  2.7633 -2.0676
  728SOL    HW2 2184   2.890   0.633   1.068  0.4747 -0.8841  2.1560
  729SOL     OW 2185   3.026   2.476   0.758 -0.2019  0.2978  0.1797
  729SOL    HW1 2186   2.998   2.425   0.842 -0.8443 -2.8892  3.1383
  729SOL    HW2 2187   3.108   2.431   0.702  1.0941  1.9599 -4.2269
  730SOL     OW 2188   2.634   0.667   0.827  0.3017 -0.0282 -0.1183
  730SOL    HW1 2189   2.563   0.740   0.812 -0.2932  0.7058  2.6678
  730SOL    HW2 2190   2.693   0.635   0.751 -3.5177 -1.6686  1.4568
  731SOL     OW 2191   0.133   2.159   2.444  0.2185  0.9526 -0.4056
  731SOL    HW1 2192   0.112   2.191   2.538  2.9391 -0.1559 -0.6317
  731SOL    HW2 2193   0.115   2.239   2.380 -2.2214  1.3344  0.9919
  732SOL     OW 2194   1.145   2.844   1.947  0.2015  0.6316  0.1770
  732SOL    HW1 2195   1.158   2.801   2.043  1.0820 -1.5886  0.6522
  732SOL    HW2 2196   1.128   2.769   1.875  0.8395 -1.9469 -2.6361
  733SOL     OW 2197   3.035   0.572   2.245  0.1189 -0.1731  0.1663
  733SOL    HW1 2198   3.113   0.625   2.206 -0.9930 -0.5121  0.0405
  733SOL    HW2 2199   2.977   0.530   2.169 -1.8058 -4.9420 -2.3102
  734SOL     OW 2200   1.417   0.353   2.764  0.3341 -0.3370 -0.3758
  734SOL    HW1 2201   1.412   0.451   2.798  1.2593  1.9168  1.8653
  734SOL    HW2 2202   1.331   0.300   2.783  2.2449 -0.0968  0.9642
  735SOL     OW 2203   2.885   2.631   2.251 -0.1533  0.0394 -0.0646
  735SOL    HW1 2204   2.873   2.612   2.150 -1.0092  0.2599 -1.9579
  735SOL    HW2 2205   2.953   2.706   2.272  0.7179 -0.5285 -3.3011
  736SOL     OW 2206   0.756   0.289   2.675 -0.6499  0.0116  0.2156
  736SOL    HW1 2207   0.656   0.286   2.680  4.0391  0.6964 -2.2927
  736SOL    HW2 2208   0.794   0.271   2.582  0.7490 -0.1162  1.6128
  737SOL     OW 2209   2.685   0.430   2.872 -0.0584 -0.9342  0.1109
  737SOL    HW1 2210   2.647   0.424   2.970 -1.9612 -0.2015 -0.5394
  737SOL    HW2 2211   2.785   0.451   2.874  0.1532 -4.0255  0.9169
  738SOL     OW 2212   1.637   1.275   2.908  0.0270 -0.5146  0.2828
  738SOL    HW1 2213   1.740   1.258   2.902 -0.1214  0.0951 -0.3751
  738SOL    HW2 2214   1.591   1.189   2.876  1.9404  2.8866 -2.7780
  739SOL     OW 2215   1.743   0.609   0.692 -0.1371 -0.1036 -0.2910
  739SOL    HW1 2216   1.823   0.641   0.755  2.7807  0.2753  1.7687
  739SOL    HW2 2217   1.767   0.520   0.642 -0.7020 -1.6797  0.3324
  740SOL     OW 2218   2.000   1.921   2.221  0.2636  0.4420  0.4150
  740SOL    HW1 2219   2.053   1.866   2.290  0.5512 -0.9993  0.2941
  740SOL    HW2 2220   1.894   1.904   2.218  1.3159 -3.5801  0.1735
  741SOL     OW 2221   2.538   0.046   2.612  0.1065  0.3428  0.4703
  741SOL    HW1 2222   2.643   0.058   2.595 -0.0487 -1.7801 -1.3490
  741SOL    HW2 2223   2.486   0.032   2.525  2.2530  1.9453  0.7763
  742SOL     OW 2224   2.234   1.434   0.254  0.2582  0.2410  0.1085
  742SOL    HW1 2225   2.150   1.492   0.249  0.0928  2.2656  0.4511
  742SOL    HW2 2226   2.203   1.336   0.270 -2.8705  2.4015 -2.1015
  743SOL     OW 2227   1.847   0.674   2.629 -0.3519 -0.5800  0.2319
  743SOL    HW1 2228   1.805   0.606   2.559  0.1824  2.0677 -0.3506
  743SOL    HW2 2229   1.789   0.756   2.656 -0.2357  2.0379  1.3656
  744SOL     OW 2230   2.613   2.083   0.117  0.3699 -0.0874 -0.7496
  744SOL    HW1 2231   2.524   2.120   0.122  3.0518 -2.0249  0.6924
  744SOL    HW2 2232   2.609   1.981   0.100 -2.0495  0.9298  0.8684
  745SOL     OW 2233   2.183   2.624   2.340  0.0377  0.7024 -0.2436
  745SOL    HW1 2234   2.105   2.593   2.404  0.1515 -1.8886  0.6266
  745SOL    HW2 2235   2.217   2.720   2.363 -1.7058  1.4548 -2.9652
  746SOL     OW 2236   3.082   2.643   1.718 -0.5804  0.6820  0.2069
  746SOL    HW1 2237   3.171   2.619   1.668 -1.9601  0.0091  2.2557
  746SOL    HW2 2238   3.077   2.739   1.756 -0.0379 -1.5325  1.1988
  747SOL     OW 2239   0.002   1.788   1.631 -0.5394 -0.0689 -0.4599
  747SOL    HW1 2240  -0.040   1.689   1.639 -0.4269  1.4184 -1.2635
  747SOL    HW2 2241   0.088   1.790   1.576  0.6331 -2.0577  1.4369
  748SOL     OW 2242   1.839   2.738   2.825  0.2031  0.2100  0.0462
  748SOL    HW1 2243   1.857   2.781   2.912  1.2485 -1.9460  0.0592
  748SOL    HW2 2244   1.742   2.734   2.798  1.1763 -2.5557 -4.5071
  749SOL     OW 2245   1.278   3.064   0.960 -0.0176  0.0193 -0.0141
  749SOL    HW1 2246   1.193   3.001   0.957  2.0810 -1.1154  1.2228
  749SOL    HW2 2247   1.334   3.060   0.877 -4.0258  0.2074 -1.5643
  750SOL     OW 2248   2.344   0.186   1.866  1.1070  0.2519 -0.1904
  750SOL    HW1 2249   2.361   0.250   1.783  0.3047 -0.4343 -1.5665
  750SOL    HW2 2250   2.333   0.240   1.955  0.5863  1.8286 -3.4680
  751SOL     OW 2251   0.903   2.159   2.738  0.1004  0.8168 -0.1467
  751SOL    HW1 2252   0.957   2.176   2.826 -0.0107 -0.1673  1.3702
  751SOL    HW2 2253   0.803   2.153   2.757  1.8606 -0.7281 -0.8810
  752SOL     OW 2254   1.285   0.868   1.380 -0.7953 -0.3837  0.2963
  752SOL    HW1 2255   1.352   0.945   1.352  0.3433  2.9234  0.0237
  752SOL    HW2 2256   1.329   0.778   1.413  1.0828 -2.8144  1.7997
  753SOL     OW 2257   0.934   2.577   1.707 -0.0928  0.1968  0.3923
  753SOL    HW1 2258   1.024   2.609   1.670  1.5817  0.5083  1.3972
  753SOL    HW2 2259   0.856   2.629   1.661  2.6214  0.7194  0.0423
  754SOL     OW 2260   1.112   1.248   3.068  0.1626  0.5210  0.6688
  754SOL    HW1 2261   1.188   1.188   3.035 -2.5020  0.7037  2.0734
  754SOL    HW2 2262   1.115   1.343   3.033  2.3960 -1.5875 -1.3925
  755SOL     OW 2263   1.968   0.446   2.233 -0.7336  0.2698  0.1587
  755SOL    HW1 2264   2.039   0.402   2.290 -1.0247 -0.3350  1.1200
  755SOL    HW2 2265   1.880   0.453   2.285  0.7153 -1.4658  0.6582
  756SOL     OW 2266   2.545   1.024   2.958  0.3304 -0.0358  0.0868
  756SOL    HW1 2267   2.641   1.015   2.996 -0.4465 -0.2629  0.2180
  756SOL    HW2 2268   2.487   0.939   2.979 -1.4492 -4.3442  2.3093
  757SOL     OW 2269   3.082   0.444   1.781 -0.4762 -0.5560 -0.4228
  757SOL    HW1 2270   3.176   0.436   1.732  0.8184  0.5778  1.4033
  757SOL    HW2 2271   3.060   0.381   1.857 -3.6276  0.5524 -1.2987
  758SOL     OW 2272   2.388   0.091   1.434  0.1102 -0.2202 -0.1490
  758SOL    HW1 2273   2.354   0.010   1.484  3.7024 -0.8297 -4.0071
  758SOL    HW2 2274   2.387   0.065   1.335 -0.7052 -0.5949  0.1715
  759SOL     OW 2275   1.727   0.087   0.076  0.0495  0.1154  0.2552
  759SOL    HW1 2276   1.660   0.093  -0.003  0.9604 -0.6276 -0.0872
  759SOL    HW2 2277   1.826   0.090   0.041 -0.7144  1.5098 -0.8462
  760SOL     OW 2278   2.730   2.069   2.822  0.1490  0.4686  0.1864
  760SOL    HW1 2279   2.750   1.981   2.873 -0.3753 -0.3665  0.7680
  760SOL    HW2 2280   2.694   2.143   2.883  0.5491 -0.9762 -0.9769
  761SOL     OW 2281   1.888   1.787   1.715 -0.0585  0.5695  0.0799
  761SOL    HW1 2282   1.941   1.706   1.754  0.4564 -1.9572 -0.3665
  761SOL    HW2 2283   1.834   1.761   1.626 -0.9119  1.3017 -3.2051
  762SOL     OW 2284   0.464   2.323   0.970 -0.2900 -0.4253 -0.2832
  762SOL    HW1 2285   0.518   2.337   0.883  0.5551  0.1733  0.7341
  762SOL    HW2 2286   0.502   2.385   1.045  2.5203 -2.5279 -3.5600
  763SOL     OW 2287   2.070   1.514   2.913  0.3959  0.4714  0.4074
  763SOL    HW1 2288   2.166   1.482   2.950 -0.6870 -1.9659 -1.0245
  763SOL    HW2 2289   1.996   1.494   2.988 -0.1307  1.0755 -0.8628
  764SOL     OW 2290   0.617   0.620   0.842 -0.3471 -0.4620  0.2628
  764SOL    HW1 2291   0.561   0.547   0.795  0.8067 -0.0937  0.4146
  764SOL    HW2 2292   0.709   0.591   0.875 -0.7147 -2.7817 -2.6239
  765SOL     OW 2293   0.710   0.251   0.779  0.0024 -0.0223  0.6265
  765SOL    HW1 2294   0.779   0.309   0.730 -4.2001 -0.9124 -1.5894
  765SOL    HW2 2295   0.709   0.266   0.879  0.2574  0.3835  1.4547
  766SOL     OW 2296   2.913   2.080   0.010  0.2138 -0.1584 -0.2525
  766SOL    HW1 2297   2.811   2.084   0.012  1.2971  0.0588  1.0280
  766SOL    HW2 2298   2.959   2.172  -0.001  2.5996  2.1094  1.3006
  767SOL     OW 2299   2.796   1.564   0.604  0.4100 -0.3422 -0.2568
  767SOL    HW1 2300   2.711   1.593   0.658  0.6997  2.1033  2.6828
  767SOL    HW2 2301   2.889   1.608   0.630 -1.4440  0.1716 -1.8594
  768SOL     OW 2302   1.082   0.185   0.316  0.1193  0.8368  0.7895
  768SOL    HW1 2303   1.042   0.112   0.374 -2.1449  2.3824 -2.7203
  768SOL    HW2 2304   1.169   0.162   0.258 -0.1464 -1.6512  0.0231
  769SOL     OW 2305   0.988   1.900   2.223  0.4378 -0.1327  0.4988
  769SOL    HW1 2306   0.932   1.978   2.265 -0.2186  2.4757 -1.2611
  769SOL    HW2 2307   1.038   1.835   2.283 -0.4718 -1.8851 -0.2324
  770SOL     OW 2308   0.178   1.128   2.269 -0.5116  0.4297 -0.7372
  770SOL    HW1 2309   0.161   1.186   2.355 -0.1780  2.1058 -0.5383
  770SOL    HW2 2310   0.100   1.131   2.204  2.7395 -0.9607  0.1889
  771SOL     OW 2311   3.009   2.849   1.899 -0.2855 -0.7711 -0.3997
  771SOL    HW1 2312   2.978   2.907   1.818 -1.2020  2.5150  1.3250
  771SOL    HW2 2313   2.989   2.903   1.989  0.1265  0.7222  1.6224
  772SOL     OW 2314   2.208   0.198   2.928  0.2518 -0.8153  0.4087
  772SOL    HW1 2315   2.292   0.147   2.923 -2.9167  0.9389  0.1344
  772SOL    HW2 2316   2.194   0.270   3.001 -1.6632  0.0264 -1.5509
  773SOL     OW 2317   0.749   2.191   2.474 -1.2300 -0.0998  0.8014
  773SOL    HW1 2318   0.723   2.242   2.390 -0.8484  2.1214  1.9484
  773SOL    HW2 2319   0.671   2.166   2.532  1.4993 -0.3191 -1.9168
  774SOL     OW 2320   2.022   0.012   2.636 -0.2978  0.6121 -0.0955
  774SOL    HW1 2321   2.070   0.098   2.631 -1.5989 -2.1806  1.0110
  774SOL    HW2 2322   2.058  -0.058   2.706 -2.4724 -2.8371 -0.1286
  775SOL     OW 2323   2.532   2.842   2.424 -0.2572  0.4096  0.0930
  775SOL    HW1 2324   2.507   2.940   2.442  3.0435 -0.2544  0.0977
  775SOL    HW2 2325   2.624   2.808   2.458 -4.8052 -4.5366  0.9988
  776SOL     OW 2326   0.021   1.303   0.196  0.4094 -0.2924  0.6623
  776SOL    HW1 2327  -0.019   1.260   0.109  2.4106 -3.0711 -1.7711
  776SOL    HW2 2328  -0.008   1.258   0.283  1.3124 -1.0872 -0.9527
  777SOL     OW 2329   0.287   2.863   0.412 -0.3825  0.0109  0.2947
  777SOL    HW1 2330   0.196   2.916   0.399  0.4755  0.4084 -2.6791
  777SOL    HW2 2331   0.366   2.922   0.436 -2.3861 -0.5199  0.2586
  778SOL     OW 2332   1.302   1.960   0.183  0.0239 -0.7503 -0.2566
  778SOL    HW1 2333   1.248   1.982   0.265  0.3348  0.4991 -2.3275
  778SOL    HW2 2334   1.324   2.048   0.130  0.5181 -0.4017 -1.8720
  779SOL     OW 2335   0.189   0.848   0.481  0.1357 -0.1443  0.1793
  779SOL    HW1 2336   0.130   0.765   0.460 -0.1587  1.3967 -0.0689
  779SOL    HW2 2337   0.143   0.911   0.548 -0.6269 -0.9275  1.3131
  780SOL     OW 2338   0.091   0.240   2.221 -0.0883  0.4796  0.0881
  780SOL    HW1 2339   0.094   0.344   2.247 -0.0559  1.0618  2.4434
  780SOL    HW2 2340   0.159   0.220   2.143  2.9407  1.8454  0.6821
  781SOL     OW 2341   0.627   1.755   1.566 -0.2633 -0.1428 -0.5412
  781SOL    HW1 2342   0.655   1.735   1.663  1.0816  0.5291  1.9435
  781SOL    HW2 2343   0.556   1.694   1.529 -1.2545  2.3857 -1.4026
  782SOL     OW 2344   2.626   0.187   0.891  0.4643 -0.1763  0.1239
  782SOL    HW1 2345   2.541   0.199   0.838  1.8688 -0.1239 -0.9696
  782SOL    HW2 2346   2.623   0.223   0.990 -2.4579 -0.3665  0.6350
  783SOL     OW 2347   2.845   0.702   2.554  0.2764 -0.1528 -0.4416
  783SOL    HW1 2348   2.810   0.724   2.645  0.8406  0.9711  0.4674
  783SOL    HW2 2349   2.771   0.661   2.493 -2.8464  0.7165 -1.6461
  784SOL     OW 2350   1.422   2.191   0.091 -0.4936  0.6570  0.0387
  784SOL    HW1 2351   1.492   2.254   0.134 -2.0556 -0.7765 -0.6835
  784SOL    HW2 2352   1.406   2.214  -0.009 -0.6875 -0.5065  1.2341
  785SOL     OW 2353   2.129   0.388   0.011  0.4646  0.5902 -0.7106
  785SOL    HW1 2354   2.046   0.398   0.074 -1.5959 -1.5377 -0.2219
  785SOL    HW2 2355   2.158   0.482  -0.023  1.7808 -1.7579  1.8330
  786SOL     OW 2356   2.033   2.191   2.224 -0.6916 -0.0788  0.1532
  786SOL    HW1 2357   2.037   2.096   2.184  1.5448  2.1296  2.6502
  786SOL    HW2 2358   2.122   2.205   2.271  0.3537  1.2086 -0.3452
  787SOL     OW 2359   1.435   0.638   0.953  0.4918  0.0609 -0.4497
  787SOL    HW1 2360   1.340   0.674   0.980  1.4070 -1.9188 -1.2719
  787SOL    HW2 2361   1.439   0.617   0.852 -0.4847  0.5585  1.0536
  788SOL     OW 2362   1.251   0.397   3.082 -0.0029 -0.3275 -0.4842
  788SOL    HW1 2363   1.162   0.397   3.036 -1.0233  1.1611  0.8170
  788SOL    HW2 2364   1.266   0.463   3.160  0.8048 -1.4531 -1.1749
  789SOL     OW 2365   2.591   0.043   1.800  0.3532 -0.6304  0.2135
  789SOL    HW1 2366   2.499   0.088   1.800 -3.8359 -0.0991 -2.9787
  789SOL    HW2 2367   2.579  -0.060   1.797  0.2671  2.3580 -1.3229
  790SOL     OW 2368   2.568   2.710   0.812 -0.0310 -0.0371 -0.2057
  790SOL    HW1 2369   2.610   2.795   0.776 -2.4475 -1.1994  3.1818
  790SOL    HW2 2370   2.601   2.700   0.913 -1.6594 -2.5412 -0.7112
  791SOL     OW 2371   1.918   1.244   0.253  0.3075 -0.0050  0.2959
  791SOL    HW1 2372   1.828   1.202   0.280 -0.8250  0.0159  1.9022
  791SOL    HW2 2373   2.003   1.187   0.278 -1.7952 -2.2278  1.8357
  792SOL     OW 2374   0.437   1.995   2.138 -0.0979 -0.1212  0.2171
  792SOL    HW1 2375   0.534   2.022   2.147 -1.3631 -0.7846 -1.3462
  792SOL    HW2 2376   0.401   1.960   2.232 -2.4554  0.3112 -0.3543
  793SOL     OW 2377   2.097   1.587   2.109 -0.4264 -0.0649 -0.3044
  793SOL    HW1 2378   2.179   1.635   2.077  0.5042  2.1839 -0.2029
  793SOL    HW2 2379   2.089   1.493   2.066 -0.6071  1.4115 -2.5823
  794SOL     OW 2380   0.426   1.353   2.450  0.1969  0.4847  0.3135
  794SOL    HW1 2381   0.441   1.304   2.358  3.2115  0.2728  0.1979
  794SOL    HW2 2382   0.446   1.456   2.453 -3.6143  1.6168 -0.5192
  795SOL     OW 2383   2.391   2.305   1.688  0.3277  0.4620  0.0547
  795SOL    HW1 2384   2.358   2.352   1.778  1.9606 -0.8069  1.8785
  795SOL    HW2 2385   2.358   2.205   1.689  0.1355 -0.5955  1.9321
  796SOL     OW 2386   3.067   1.091   2.670 -0.0098 -0.0024  0.0049
  796SOL    HW1 2387   2.965   1.093   2.695 -1.5001 -2.2683  0.4512
  796SOL    HW2 2388   3.132   1.100   2.751  1.1435 -1.1866  1.9723
  797SOL     OW 2389   0.754   0.625   1.345 -0.3565 -0.4112 -0.2348
  797SOL    HW1 2390   0.823   0.671   1.410  1.2155  1.8179 -0.6454
  797SOL    HW2 2391   0.695   0.698   1.301 -1.1920  1.0766 -0.1905
  798SOL     OW 2392   1.340   0.413   1.122  0.0486  0.3135 -0.0262
  798SOL    HW1 2393   1.374   0.412   1.215 -1.0770  0.2349 -0.5009
  798SOL    HW2 2394   1.380   0.486   1.056 -0.5613  2.3955 -0.4415
  799SOL     OW 2395   1.931   2.609   1.057  0.1750  0.1527  0.2472
  799SOL    HW1 2396   1.888   2.571   1.142  1.8396 -4.3887 -0.1900
  799SOL    HW2 2397   1.876   2.624   0.968  1.9498  0.1705  0.4759
  800SOL     OW 2398   2.966   0.763   1.922 -0.2342  0.5252 -0.5538
  800SOL    HW1 2399   2.957   0.866   1.938  2.2331 -0.2555 -4.7992
  800SOL    HW2 2400   3.000   0.713   2.005  0.1505  0.1317 -1.4329
  801SOL     OW 2401   1.973   2.203   0.037  0.0245 -0.2151 -0.5147
  801SOL    HW1 2402   1.881   2.185  -0.003  1.1820  2.6193  2.0161
  801SOL    HW2 2403   2.040   2.131  -0.004  0.3052 -1.8311 -1.6545
  802SOL     OW 2404   0.602   0.816   2.590 -0.0709 -0.1037  0.0802
  802SOL    HW1 2405   0.594   0.716   2.616 -0.1232  0.6298 -0.0599
  802SOL    HW2 2406   0.544   0.840   2.510 -1.9973  1.5092  0.1993
  803SOL     OW 2407   0.958   0.069   0.804 -0.0266  0.2198  0.3841
  803SOL    HW1 2408   1.022   0.135   0.853  1.2603  2.1065 -1.6128
  803SOL    HW2 2409   0.912   0.116   0.726 -0.9126  0.9544  0.8742
  804SOL     OW 2410   0.313   3.085   2.176  0.2759  0.1022 -0.4234
  804SOL    HW1 2411   0.328   3.184   2.152 -0.9240  1.1595  1.2997
  804SOL    HW2 2412   0.250   3.037   2.112 -0.3414  0.1364  0.6826
  805SOL     OW 2413   2.347   0.413   0.389 -0.3518  0.3627 -0.0086
  805SOL    HW1 2414   2.427   0.433   0.450  0.9479 -0.9710 -0.3775
  805SOL    HW2 2415   2.370   0.359   0.300  1.0036  2.2534 -4.1100
  806SOL     OW 2416   0.655   2.443   1.770  0.4156 -0.6549  0.2664
  806SOL    HW1 2417   0.637   2.541   1.796 -0.0237  0.3100  1.8897
  806SOL    HW2 2418   0.754   2.430   1.745 -0.8538 -1.9489 -0.7152
  807SOL     OW 2419   2.506   0.817   0.379  0.4847  0.1293  0.7476
  807SOL    HW1 2420   2.582   0.877   0.424 -0.2191 -0.7041 -1.1984
  807SOL    HW2 2421   2.471   0.871   0.299  0.2119  0.8505  0.5263
  808SOL     OW 2422   0.648   2.114   2.917 -0.2836 -0.0571  0.5579
  808SOL    HW1 2423   0.577   2.152   2.984 -0.2640  0.5849  0.9507
  808SOL    HW2 2424   0.671   2.013   2.942 -0.8246 -0.4625  0.6097
  809SOL     OW 2425   2.591   1.963   1.892  0.0106  0.3394 -0.1719
  809SOL    HW1 2426   2.684   2.002   1.877 -1.5901 -1.5452  3.3254
  809SOL    HW2 2427   2.532   1.965   1.809 -0.4472 -0.6419 -0.1659
  810SOL     OW 2428   2.173   1.126   0.543  0.7118 -0.5067  0.2427
  810SOL    HW1 2429   2.130   1.054   0.611 -1.4802 -0.1076 -1.1716
  810SOL    HW2 2430   2.139   1.225   0.569  0.7319  0.7472 -1.1027
  811SOL     OW 2431   1.353   2.515   1.222  0.8102  0.3185 -0.1410
  811SOL    HW1 2432   1.352   2.420   1.264  0.2792 -1.6599  0.2637
  811SOL    HW2 2433   1.254   2.547   1.202 -1.2050  0.1817 -1.6618
  812SOL     OW 2434   1.427   0.752   1.962 -0.1783 -0.4217  0.0727
  812SOL    HW1 2435   1.442   0.851   1.984  0.7377  0.4741  2.2752
  812SOL    HW2 2436   1.338   0.746   1.910 -0.0452  0.7700  0.5521
  813SOL     OW 2437   1.649   2.069   2.517  0.2853  0.4243 -0.6050
  813SOL    HW1 2438   1.689   1.974   2.547  0.3876  1.1439  0.6286
  813SOL    HW2 2439   1.598   2.066   2.425  2.0459  0.9567 -1.5737
  814SOL     OW 2440   2.944   1.591   2.811 -0.1764  0.1197  0.3628
  814SOL    HW1 2441   2.986   1.545   2.900  2.3691 -0.0020  2.5114
  814SOL    HW2 2442   2.980   1.690   2.802  1.0215  1.1690 -1.0613
  815SOL     OW 2443   2.195   2.928   2.791  0.0563  0.3240 -0.3227
  815SOL    HW1 2444   2.192   2.842   2.848  0.9757  1.8348  1.8552
  815SOL    HW2 2445   2.274   2.995   2.825  0.0961  2.7260  2.4890
  816SOL     OW 2446   1.608   0.319   1.649 -0.4278 -0.0099  0.2722
  816SOL    HW1 2447   1.668   0.234   1.670  1.8220  1.6314  0.0614
  816SOL    HW2 2448   1.565   0.369   1.727  0.6630  2.2930  0.9729
  817SOL     OW 2449   0.345   1.155   2.617  0.5947 -0.1571 -0.0105
  817SOL    HW1 2450   0.269   1.163   2.689 -1.3127 -0.5369  1.2181
  817SOL    HW2 2451   0.349   1.244   2.558  0.0807  2.9959  1.9223
  818SOL     OW 2452   1.939   0.966   0.363  0.3582 -0.8763  1.0287
  818SOL    HW1 2453   2.030   0.930   0.385 -1.4552  0.3973  1.7761
  818SOL    HW2 2454   1.891   1.019   0.442 -1.0908 -0.7634  1.6487
  819SOL     OW 2455   2.746   2.945   2.998 -0.0111 -0.4327  0.6455
  819SOL    HW1 2456   2.831   2.895   2.967 -0.3624  1.8873 -0.8543
  819SOL    HW2 2457   2.663   2.925   2.943  1.7975  2.3399  0.6759
  820SOL     OW 2458   1.220   1.047   0.583  0.0445  0.2541 -0.5466
  820SOL    HW1 2459   1.214   1.148   0.608  2.3964  0.6093 -1.4680
  820SOL    HW2 2460   1.222   0.984   0.669  0.1234 -1.0651  3.2046
  821SOL     OW 2461   0.012   1.284   0.683 -0.2267 -0.0036  0.4885
  821SOL    HW1 2462  -0.022   1.281   0.779  4.1651  4.4785 -2.8357
  821SOL    HW2 2463   0.048   1.376   0.655  1.8573 -2.5176  0.7104
  822SOL     OW 2464   2.583   1.791   2.439  0.1427 -0.2389  0.1834
  822SOL    HW1 2465   2.577   1.867   2.511  1.5600 -1.3998  2.6279
  822SOL    HW2 2466   2.497   1.786   2.376 -1.0868 -0.4675 -0.5824
  823SOL     OW 2467   2.010   0.814   1.098 -0.2131 -0.4151 -0.3135
  823SOL    HW1 2468   2.006   0.806   1.199  1.0310 -0.7281  1.7388
  823SOL    HW2 2469   1.940   0.877   1.053 -0.3088 -3.4410  1.0463
  824SOL     OW 2470   0.220   1.990   2.846 -0.8789  0.3017 -0.7579
  824SOL    HW1 2471   0.200   1.921   2.924 -0.5085  0.2823  1.1996
  824SOL    HW2 2472   0.270   1.955   2.759 -2.3074 -1.1437 -1.1355
  825SOL     OW 2473   1.288   1.051   0.300  0.0375 -0.3329 -0.2433
  825SOL    HW1 2474   1.291   1.140   0.247  2.0442 -1.8697  0.7408
  825SOL    HW2 2475   1.241   1.059   0.391 -3.4425  0.0033  1.2936
  826SOL     OW 2476   1.935   0.650   1.556  0.7087 -0.1054 -0.3490
  826SOL    HW1 2477   2.013   0.588   1.587  0.3744 -0.3631 -0.3000
  826SOL    HW2 2478   1.849   0.604   1.515 -0.0737  1.4124  0.2997
  827SOL     OW 2479   0.728   1.222   0.287  0.7370 -0.1698 -0.0028
  827SOL    HW1 2480   0.788   1.176   0.214  0.3185 -0.3262  2.8118
  827SOL    HW2 2481   0.639   1.169   0.317  2.7358  0.6834  1.2327
  828SOL     OW 2482   2.632   0.174   1.567 -0.4384 -0.5849 -0.7649
  828SOL    HW1 2483   2.547   0.200   1.516  2.1841 -0.0173  1.0402
  828SOL    HW2 2484   2.622   0.110   1.651 -0.1405 -1.8877 -0.2870
  829SOL     OW 2485   2.870   2.443   2.942  0.8537 -0.0106 -0.6121
  829SOL    HW1 2486   2.779   2.395   2.960  0.0465  0.8741  0.4197
  829SOL    HW2 2487   2.860   2.540   2.920 -0.9600 -0.1802 -1.2078
  830SOL     OW 2488   2.813   0.965   3.049 -0.2787  0.3452  0.1076
  830SOL    HW1 2489   2.874   1.047   3.074  2.7952 -0.8441 -3.0086
  830SOL    HW2 2490   2.808   0.885   3.116 -0.0023 -1.7263 -0.9182
  831SOL     OW 2491   0.058   0.629   0.379  1.2608 -0.4475  0.0250
  831SOL    HW1 2492   0.031   0.576   0.468  0.2656 -0.0506  1.0336
  831SOL    HW2 2493   0.094   0.572   0.300  2.4344  0.0392 -0.7940
  832SOL     OW 2494   1.831   0.788   3.021 -0.3115 -0.1001 -0.2037
  832SOL    HW1 2495   1.752   0.834   2.976  1.7766  0.5090 -0.6395
  832SOL    HW2 2496   1.811   0.686   3.035  0.3685  0.5139 -2.0319
  833SOL     OW 2497   2.468   2.102   0.450  0.7768  0.0429 -0.3702
  833SOL    HW1 2498   2.372   2.095   0.414 -0.6130  1.2437  0.1791
  833SOL    HW2 2499   2.524   2.011   0.461 -1.5431 -0.9023 -3.7149
  834SOL     OW 2500   0.107   0.227   0.495  0.2580 -0.5326  0.1086
  834SOL    HW1 2501   0.011   0.190   0.521 -1.8921 -2.7322  0.0921
  834SOL    HW2 2502   0.119   0.217   0.395 -0.7988  0.3695  0.2129
  835SOL     OW 2503   2.335   1.521   1.163  0.1676 -0.7343  0.2220
  835SOL    HW1 2504   2.345   1.625   1.180 -0.0240  2.3285 -1.0735
  835SOL    HW2 2505   2.386   1.497   1.079 -0.0322  1.2921 -0.6207
  836SOL     OW 2506   1.622   0.849   2.612 -0.5011  0.3752  0.1757
  836SOL    HW1 2507   1.517   0.830   2.622 -0.8029 -2.7307  0.8904
  836SOL    HW2 2508   1.651   0.889   2.518  0.1328  1.1229 -0.2898
  837SOL     OW 2509   1.600   0.111   0.573 -0.2093  0.5692 -0.0374
  837SOL    HW1 2510   1.580   0.198   0.625  1.9062 -0.9798 -0.5836
  837SOL    HW2 2511   1.566   0.112   0.477 -0.7161  1.5397  0.2181
  838SOL     OW 2512   1.219   1.464   2.753  0.3264 -0.1464  0.4117
  838SOL    HW1 2513   1.169   1.493   2.839 -0.4302 -1.4397  0.2299
  838SOL    HW2 2514   1.146   1.421   2.687 -2.0898  2.0210 -0.4911
  839SOL     OW 2515   1.709   0.275   0.985 -1.0474 -0.1410 -0.8085
  839SOL    HW1 2516   1.713   0.352   1.055  2.1779 -1.1516 -0.4370
  839SOL    HW2 2517   1.688   0.178   1.021  0.7703 -0.4761  0.1413
  840SOL     OW 2518   2.546   2.874   1.752 -0.8238 -0.9536  0.4787
  840SOL    HW1 2519   2.503   2.831   1.662 -0.8212 -2.6828  0.1363
  840SOL    HW2 2520   2.535   2.814   1.837  0.0812 -0.2583 -0.6774
  841SOL     OW 2521   1.581   0.898   2.951  0.0251  0.5972  0.2075
  841SOL    HW1 2522   1.539   0.928   3.042  2.4253  0.5539  0.3664
  841SOL    HW2 2523   1.535   0.942   2.867 -0.9343 -3.3976  0.9462
  842SOL     OW 2524   0.821   1.509   0.917 -0.2879 -0.0097  0.3574
  842SOL    HW1 2525   0.792   1.585   0.982  0.3221  3.3833 -0.0023
  842SOL    HW2 2526   0.733   1.469   0.884 -2.0848  0.2213  1.6193
  843SOL     OW 2527   0.113   0.137   1.487  0.5136  0.4263  0.4109
  843SOL    HW1 2528   0.216   0.155   1.496  0.2662 -0.9789  0.2668
  843SOL    HW2 2529   0.096   0.035   1.479  3.0548 -0.6684 -1.0123
  844SOL     OW 2530   0.790   2.512   0.308 -0.5103 -0.3726 -0.0879
  844SOL    HW1 2531   0.755   2.457   0.389  1.6219  0.6102  0.3756
  844SOL    HW2 2532   0.705   2.538   0.251  0.0909 -0.0932  1.8559
  845SOL     OW 2533   1.631   2.869   1.378  0.2644 -0.4554 -0.2911
  845SOL    HW1 2534   1.705   2.907   1.438 -0.4541 -0.8729  1.4224
  845SOL    HW2 2535   1.540   2.910   1.406  0.9071 -0.6544  1.8781
  846SOL     OW 2536   1.583   2.974   0.838  1.2628  0.3822 -0.0338
  846SOL    HW1 2537   1.556   2.961   0.739 -1.6022 -0.3293  0.3256
  846SOL    HW2 2538   1.675   3.027   0.839  1.6532 -0.0375  0.3070
  847SOL     OW 2539   2.030   1.643   0.253  0.3254 -0.2430 -0.2968
  847SOL    HW1 2540   2.015   1.598   0.344 -0.1061  0.3650 -0.8429
  847SOL    HW2 2541   1.945   1.683   0.213 -2.3223  3.2685  1.5747
  848SOL     OW 2542   2.503   0.777   2.644  0.0173  0.1957  0.0886
  848SOL    HW1 2543   2.496   0.877   2.627 -0.9195 -0.5371  0.6035
  848SOL    HW2 2544   2.470   0.718   2.563  0.1300  5.4218  0.1981
  849SOL     OW 2545   2.530   0.843   2.326 -1.0353  0.0495 -0.0344
  849SOL    HW1 2546   2.612   0.811   2.270 -0.3244  0.0360 -1.5483
  849SOL    HW2 2547   2.471   0.766   2.364 -1.7170  0.6792 -1.6719
  850SOL     OW 2548   1.513   0.121   1.341 -0.1580 -0.2465 -0.1251
  850SOL    HW1 2549   1.549   0.102   1.248 -0.0421  0.2520 -0.5149
  850SOL    HW2 2550   1.480   0.035   1.391  0.5219 -3.8076 -2.1629
  851SOL     OW 2551   0.474   1.745   0.623 -0.2074 -0.4270  0.3377
  851SOL    HW1 2552   0.471   1.852   0.628  1.1251  1.2686  2.9358
  851SOL    HW2 2553   0.573   1.711   0.623 -1.0728 -1.4808 -0.6687
  852SOL     OW 2554   0.795   2.167   1.684  0.3142 -0.5434  0.5625
  852SOL    HW1 2555   0.765   2.230   1.607 -1.7983  1.8515 -2.2205
  852SOL    HW2 2556   0.738   2.168   1.771  2.2687 -0.0321  1.1465
  853SOL     OW 2557   2.491   1.566   2.609 -0.5490  0.1909  0.5426
  853SOL    HW1 2558   2.471   1.480   2.557  1.6759  1.6769  1.1288
  853SOL    HW2 2559   2.551   1.631   2.552  1.6437 -1.6048 -1.0143
  854SOL     OW 2560   2.519   1.354   1.738  0.2189 -0.4373  0.5199
  854SOL    HW1 2561   2.548   1.348   1.639 -1.6908 -1.5070  1.9282
  854SOL    HW2 2562   2.518   1.262   1.789  2.1460 -0.5625  1.1010
  855SOL     OW 2563   2.104   2.350   0.958 -0.1635 -0.1775  0.4177
  855SOL    HW1 2564   2.129   2.440   0.911  1.3392 -2.5109 -0.7131
  855SOL    HW2 2565   2.173   2.332   1.037  0.4765 -1.9966 -0.9115
  856SOL     OW 2566   1.359   1.490   0.852 -0.5490 -0.3927  0.2469
  856SOL    HW1 2567   1.426   1.558   0.901  0.3710  0.1030 -1.4317
  856SOL    HW2 2568   1.261   1.501   0.883 -4.4425 -0.1819  0.0855
  857SOL     OW 2569   2.971   2.660   1.030 -0.6112  0.6242 -0.3205
  857SOL    HW1 2570   2.891   2.591   1.040 -0.3180  1.9229 -0.0154
  857SOL    HW2 2571   3.065   2.611   1.028  1.1506 -2.5938  2.7093
  858SOL     OW 2572   2.285   2.041   1.720  0.1696  0.6511  0.0076
  858SOL    HW1 2573   2.205   2.082   1.672  1.4933  1.3867 -1.6759
  858SOL    HW2 2574   2.339   1.980   1.653 -1.0561 -1.7075 -2.0806
  859SOL     OW 2575   2.457   0.549   1.027 -0.9304  0.1864 -0.0943
  859SOL    HW1 2576   2.526   0.579   0.953  2.3599  1.2708 -0.8061
  859SOL    HW2 2577   2.488   0.455   1.069  2.0643 -0.7849 -0.4822
  860SOL     OW 2578   1.930   2.826   0.439  0.3457  0.5391  0.3454
  860SOL    HW1 2579   1.876   2.771   0.366 -2.0645 -1.7827  2.1436
  860SOL    HW2 2580   2.016   2.866   0.412 -2.5560 -2.4613  2.8716
  861SOL     OW 2581   1.068   2.540   2.837  0.2451  0.2584  0.1615
  861SOL    HW1 2582   1.138   2.607   2.791  1.4948  2.4828  0.0081
  861SOL    HW2 2583   1.092   2.534   2.939 -1.4130  0.4660  2.5741
  862SOL     OW 2584   2.847   2.536   1.596 -0.1554  0.0404 -0.5355
  862SOL    HW1 2585   2.899   2.537   1.685 -0.3978 -1.6077  0.6308
  862SOL    HW2 2586   2.835   2.626   1.543 -0.9933 -0.9099  1.1786
  863SOL     OW 2587   1.832   2.694   0.180  0.0597 -0.2614 -0.2206
  863SOL    HW1 2588   1.909   2.626   0.189  0.0321 -2.8972 -2.5473
  863SOL    HW2 2589   1.740   2.646   0.193  1.3607  0.8949  1.5061
  864SOL     OW 2590   1.876   1.173   2.864 -0.5297 -0.2400  0.3204
  864SOL    HW1 2591   1.905   1.139   2.770 -1.0159  2.2808 -2.0018
  864SOL    HW2 2592   1.943   1.149   2.938  0.8567 -0.8622  1.1835
  865SOL     OW 2593   2.209   1.836   0.603 -0.4381 -0.0851  0.3171
  865SOL    HW1 2594   2.250   1.830   0.698 -1.9408  0.0620  2.0766
  865SOL    HW2 2595   2.118   1.785   0.597 -2.1131 -1.7246  0.2331
  866SOL     OW 2596   2.974   2.913   0.984 -0.3985 -0.4692 -1.1164
  866SOL    HW1 2597   3.035   2.929   0.902 -0.8117  0.6152  2.3234
  866SOL    HW2 2598   2.961   2.812   1.011 -0.0640 -1.5285  0.4361
  867SOL     OW 2599   0.359   1.374   0.912 -0.5712  0.4402  0.3388
  867SOL    HW1 2600   0.341   1.286   0.852 -1.8565 -0.1880 -0.1801
  867SOL    HW2 2601   0.304   1.452   0.878 -2.5243 -0.1354  4.8844
  868SOL     OW 2602   0.721   1.871   2.025  0.2976  0.1189  0.0650
  868SOL    HW1 2603   0.724   1.861   2.128  2.2656 -0.2037 -0.1782
  868SOL    HW2 2604   0.700   1.969   1.988 -0.9253  1.4906 -1.3934
  869SOL     OW 2605   2.533   1.945   1.594 -0.0848  0.0780 -0.2190
  869SOL    HW1 2606   2.623   1.981   1.554  1.0560 -2.0858  0.4419
  869SOL    HW2 2607   2.543   1.851   1.642 -0.0093 -0.1840  1.7295
  870SOL     OW 2608   2.316   2.660   1.280 -0.4191  0.3684 -0.0162
  870SOL    HW1 2609   2.295   2.559   1.261  0.9249 -0.0929 -2.0360
  870SOL    HW2 2610   2.247   2.704   1.335  3.9542 -0.8171  1.4888
  871SOL     OW 2611   2.982   2.132   0.555 -0.5643 -0.6589 -0.2484
  871SOL    HW1 2612   2.915   2.176   0.623  0.4560 -0.5914  2.2265
  871SOL    HW2 2613   2.928   2.064   0.499 -1.6069 -1.0600  1.5279
  872SOL     OW 2614   2.122   0.472   1.675  0.1774 -0.0496 -0.3834
  872SOL    HW1 2615   2.062   0.462   1.761  0.4800 -0.4989 -1.8109
  872SOL    HW2 2616   2.220   0.446   1.697 -1.2203  1.7224 -1.8238
  873SOL     OW 2617   1.722   2.087   3.047  0.4923 -0.6072 -0.0466
  873SOL    HW1 2618   1.661   2.131   3.118 -0.0856  1.0335  0.6650
  873SOL    HW2 2619   1.688   2.107   2.951  1.3143 -1.7613 -1.6810
  874SOL     OW 2620   0.669   2.452   0.803 -0.4982  0.8911  0.2647
  874SOL    HW1 2621   0.666   2.544   0.852  0.4497 -0.9428 -0.3090
  874SOL    HW2 2622   0.761   2.409   0.801  1.4009 -0.4612  2.0394
  875SOL     OW 2623   2.263   1.538   1.438 -0.1110 -0.9806  0.3027
  875SOL    HW1 2624   2.346   1.561   1.485 -2.5368  1.9298 -1.7714
  875SOL    HW2 2625   2.278   1.521   1.335  0.8715 -1.8813  0.1008
  876SOL     OW 2626   0.076   2.255   2.743  0.0573 -0.0450 -0.3863
  876SOL    HW1 2627   0.108   2.170   2.798  2.6648 -2.2522  3.2375
  876SOL    HW2 2628   0.099   2.350   2.792  2.2105  1.2039 -1.9905
  877SOL     OW 2629   2.888   2.704   0.562  0.0122 -0.1207 -0.5120
  877SOL    HW1 2630   2.873   2.794   0.618 -0.7829  0.0586  2.5317
  877SOL    HW2 2631   2.939   2.630   0.613 -0.2866  1.2858 -2.6137
  878SOL     OW 2632   2.809   1.537   2.184 -0.4716  0.6644 -0.1354
  878SOL    HW1 2633   2.914   1.526   2.186  0.8898 -1.3064  0.2671
  878SOL    HW2 2634   2.767   1.590   2.263  0.3097 -1.3389  1.4740
  879SOL     OW 2635   2.366   0.066   1.152  0.1899 -0.6117 -0.0432
  879SOL    HW1 2636   2.407  -0.027   1.156  0.5770  1.6230 -0.5894
  879SOL    HW2 2637   2.269   0.062   1.117  0.2906  0.6629 -0.2323
  880SOL     OW 2638   0.686   0.493   2.239 -0.8335 -0.1212 -0.2687
  880SOL    HW1 2639   0.623   0.426   2.284 -0.8103  1.1886  1.4850
  880SOL    HW2 2640   0.741   0.447   2.165  0.4112 -1.9448  1.7091
  881SOL     OW 2641   0.899   0.062   0.474  0.6686  0.0015  0.5102
  881SOL    HW1 2642   0.944  -0.030   0.503 -2.4725 -2.6126  1.2095
  881SOL    HW2 2643   0.812   0.034   0.423 -1.8404 -2.2694 -1.1860
  882SOL     OW 2644   2.721   1.714   1.657 -0.0100 -0.2556 -0.0860
  882SOL    HW1 2645   2.815   1.704   1.609  1.6509 -2.1006 -1.5129
  882SOL    HW2 2646   2.722   1.694   1.758 -0.7064  0.0359  1.7626
  883SOL     OW 2647   0.878   0.612   0.980  0.0713  0.6048 -0.1589
  883SOL    HW1 2648   0.904   0.702   1.017 -2.2294 -2.0402  0.5203
  883SOL    HW2 2649   0.914   0.535   1.039  0.0286  1.2975  0.7340
  884SOL     OW 2650   1.178   1.784   1.161 -0.2057 -0.3515 -0.3897
  884SOL    HW1 2651   1.139   1.705   1.113  1.4173  2.2900 -0.6839
  884SOL    HW2 2652   1.153   1.875   1.109 -3.3463 -0.6659 -1.0476
  885SOL     OW 2653   2.363   1.812   2.293 -0.3538  0.3307  0.0040
  885SOL    HW1 2654   2.282   1.769   2.340 -1.1120 -2.7591 -1.5498
  885SOL    HW2 2655   2.337   1.910   2.280  1.1677 -0.7951  2.7083
  886SOL     OW 2656   2.589   0.410   1.798  0.0037  0.1590  0.5159
  886SOL    HW1 2657   2.624   0.346   1.871 -2.1473 -0.1873  0.7198
  886SOL    HW2 2658   2.635   0.504   1.796 -1.1714  0.0563 -0.6039
  887SOL     OW 2659   0.104   2.029   1.274  0.0650 -0.2785 -0.6315
  887SOL    HW1 2660   0.039   1.983   1.210 -0.1199 -0.4547 -1.7113
  887SOL    HW2 2661   0.098   2.130   1.262  0.3909 -1.6889  0.7518
  888SOL     OW 2662   0.580   1.300   1.551  0.0415  1.0470  0.5169
  888SOL    HW1 2663   0.633   1.325   1.463  0.5999  0.9386  1.2350
  888SOL    HW2 2664   0.527   1.207   1.545  0.6905 -1.9541  1.9486
  889SOL     OW 2665   0.800   2.514   2.159  0.3710  0.9431  0.3089
  889SOL    HW1 2666   0.782   2.415   2.187 -0.1771 -1.1734 -0.9234
  889SOL    HW2 2667   0.888   2.515   2.094  1.5156 -0.9393 -0.6071
  890SOL     OW 2668   2.409   2.455   0.207 -0.6295  0.0531 -0.0380
  890SOL    HW1 2669   2.446   2.519   0.134  1.3683 -1.7473 -0.2612
  890SOL    HW2 2670   2.360   2.507   0.282  1.2179  1.3240 -2.5541
  891SOL     OW 2671   2.599   1.678   0.764  0.3552 -0.4764  0.1186
  891SOL    HW1 2672   2.604   1.731   0.857 -1.1043  1.0396  1.2166
  891SOL    HW2 2673   2.544   1.591   0.755 -1.4711 -0.4635  1.3626
  892SOL     OW 2674   0.377   0.247   2.144  0.0917 -0.8493 -0.2622
  892SOL    HW1 2675   0.372   0.340   2.095 -1.2867  2.2045  1.3814
  892SOL    HW2 2676   0.415   0.264   2.241 -0.5857 -1.9881  0.4799
  893SOL     OW 2677   1.673   0.262   2.743 -0.2321 -0.4087 -0.2886
  893SOL    HW1 2678   1.746   0.335   2.753 -1.2327 -0.8500  1.1729
  893SOL    HW2 2679   1.575   0.302   2.739 -1.0532 -0.2766  2.1205
  894SOL     OW 2680   2.180   1.995   3.093  0.7345 -0.0906  1.2671
  894SOL    HW1 2681   2.164   1.942   3.004 -2.0624  0.1558 -2.5295
  894SOL    HW2 2682   2.173   1.938   3.182  1.0062  0.5216 -0.9064
  895SOL     OW 2683   2.839   1.421   0.927  0.2273 -0.0553 -0.4506
  895SOL    HW1 2684   2.915   1.357   0.908  1.3338  3.0225 -0.8641
  895SOL    HW2 2685   2.850   1.512   0.874  0.4119 -0.9934  1.3430
  896SOL     OW 2686   1.811   1.831   1.209  0.2054  0.5792  0.0762
  896SOL    HW1 2687   1.874   1.810   1.130  0.6525  0.8958 -0.0615
  896SOL    HW2 2688   1.742   1.901   1.182  0.0191 -1.3328  0.3298
  897SOL     OW 2689   0.315   0.588   0.045 -0.5182 -0.1746 -0.3201
  897SOL    HW1 2690   0.274   0.633  -0.041 -0.2699 -0.3601 -1.6407
  897SOL    HW2 2691   0.416   0.593   0.026  0.0771  0.0399  1.4237
  898SOL     OW 2692   0.577   2.890   1.109 -0.1859 -0.3155 -0.1120
  898SOL    HW1 2693   0.535   2.981   1.139 -0.3244  0.3025  0.4012
  898SOL    HW2 2694   0.653   2.856   1.175  0.6174 -0.6288  0.9307
  899SOL     OW 2695   2.781   0.895   1.275 -0.2745 -0.1242  0.1238
  899SOL    HW1 2696   2.706   0.898   1.200 -2.3503  0.8469  1.8106
  899SOL    HW2 2697   2.878   0.893   1.238  1.0339 -3.6205  1.3954
  900SOL     OW 2698   1.045   2.576   2.375  0.1751 -0.0109 -0.2171
  900SOL    HW1 2699   0.979   2.579   2.298 -1.7402  0.9523 -0.3460
  900SOL    HW2 2700   1.013   2.509   2.450 -3.8527  3.5342 -0.0695
  901SOL     OW 2701   1.910   2.355   1.338 -0.2215  0.3618  0.3510
  901SOL    HW1 2702   1.883   2.330   1.240 -1.3256 -2.9276 -0.8126
  901SOL    HW2 2703   1.992   2.305   1.368 -1.2177 -1.7483  1.0490
  902SOL     OW 2704   2.544   1.651   1.450 -0.5573  0.1304  0.3885
  902SOL    HW1 2705   2.594   1.680   1.536 -2.8839  1.7200 -1.4642
  902SOL    HW2 2706   2.607   1.619   1.372 -0.4908  0.5807  0.4959
  903SOL     OW 2707   0.268   2.482   1.985 -0.3719 -0.2106 -0.1742
  903SOL    HW1 2708   0.181   2.443   1.945 -0.2514 -0.0714 -0.1362
  903SOL    HW2 2709   0.317   2.547   1.919 -0.1348  0.9151  4.9813
  904SOL     OW 2710   2.075   0.774   2.494 -0.0285 -0.6957 -0.5536
  904SOL    HW1 2711   1.991   0.727   2.542 -0.9901 -0.0850  0.3743
  904SOL    HW2 2712   2.058   0.802   2.398  0.5594 -1.2298 -0.4204
  905SOL     OW 2713   2.790   0.069   2.567  0.4692 -0.0294 -0.0828
  905SOL    HW1 2714   2.849  -0.015   2.575 -1.8620  0.0276  0.0676
  905SOL    HW2 2715   2.839   0.159   2.538  2.4943 -1.2575  1.5656
  906SOL     OW 2716   0.154   1.747   1.886 -0.1185  0.2192 -0.5782
  906SOL    HW1 2717   0.096   1.781   1.808 -0.4151 -0.5199 -0.0896
  906SOL    HW2 2718   0.249   1.791   1.874 -1.4845  0.9114  0.9589
  907SOL     OW 2719   0.155   2.424   0.999 -0.6929 -0.4015 -0.3392
  907SOL    HW1 2720   0.230   2.404   0.928  2.2461  1.2336 -0.4504
  907SOL    HW2 2721   0.097   2.338   1.026 -2.0757 -2.0224  0.3990
  908SOL     OW 2722   2.702   2.965   0.369 -0.2703 -0.5910 -0.1336
  908SOL    HW1 2723   2.666   2.998   0.275  0.5627  1.3405 -0.0884
  908SOL    HW2 2724   2.791   2.920   0.362  0.4609  0.3474  1.5596
  909SOL     OW 2725   0.760   1.031   2.652 -0.1055  0.3949  0.7484
  909SOL    HW1 2726   0.699   0.953   2.612  0.3091 -1.9171 -0.1428
  909SOL    HW2 2727   0.835   1.064   2.586  0.9991 -0.4158 -1.3568
  910SOL     OW 2728   1.716   1.848   2.150  0.7133 -0.1782 -0.1249
  910SOL    HW1 2729   1.746   1.892   2.056  1.9688 -1.9406 -2.2402
  910SOL    HW2 2730   1.640   1.899   2.197 -1.1078 -0.9764  1.2895
  911SOL     OW 2731   1.827   2.918   1.546  0.5664  0.2910 -0.4916
  911SOL    HW1 2732   1.915   2.894   1.499  0.4817  1.4468  2.2542
  911SOL    HW2 2733   1.812   2.859   1.629  0.8432  1.9666  1.2686
  912SOL     OW 2734   2.895   0.976   0.720  0.3499  0.2524  0.3794
  912SOL    HW1 2735   2.916   0.933   0.811 -1.0602 -0.3181 -1.9810
  912SOL    HW2 2736   2.848   1.070   0.716  1.7343  1.3711  0.7177
  913SOL     OW 2737   2.568   1.295   1.469 -0.2637 -0.1241  0.1276
  913SOL    HW1 2738   2.595   1.194   1.472 -0.8606  0.2956 -0.9716
  913SOL    HW2 2739   2.613   1.349   1.393 -1.4728  0.0658  3.4425
  914SOL     OW 2740   2.914   0.563   1.215  0.2096  0.2691 -0.1719
  914SOL    HW1 2741   2.961   0.477   1.244 -0.2922 -0.9141  3.3666
  914SOL    HW2 2742   2.834   0.577   1.282  0.2510 -1.6473  0.6639
  915SOL     OW 2743   1.233   0.768   1.075  0.4358  0.2283  0.0752
  915SOL    HW1 2744   1.255   0.736   1.173 -2.0374 -1.7234 -2.5644
  915SOL    HW2 2745   1.142   0.815   1.077  1.1578 -2.1221 -0.7934
  916SOL     OW 2746   0.598   0.030   0.677 -0.0969  0.1535  0.0478
  916SOL    HW1 2747   0.620   0.127   0.707 -0.1873 -1.8583  1.1574
  916SOL    HW2 2748   0.609   0.014   0.576 -1.6084 -0.3033  0.1812
  917SOL     OW 2749   2.844   2.618   1.945  0.1628 -0.0553  0.1459
  917SOL    HW1 2750   2.755   2.661   1.963  3.1725  1.6238  0.1603
  917SOL    HW2 2751   2.907   2.685   1.898 -0.4951 -0.1486  0.0410
  918SOL     OW 2752   1.039   2.203   2.969 -0.3968  0.4179 -0.7715
  918SOL    HW1 2753   1.024   2.203   3.072  0.8916 -0.6502  1.6790
  918SOL    HW2 2754   1.118   2.139   2.945  2.7413  1.3752  0.5869
  919SOL     OW 2755   0.852   1.675   2.800  0.0933 -0.0249  0.0325
  919SOL    HW1 2756   0.909   1.747   2.748 -0.7709  0.0344 -0.7338
  919SOL    HW2 2757   0.803   1.601   2.743  2.6256 -0.6552  3.2603
  920SOL     OW 2758   1.234   1.875   2.440 -0.0014 -0.3239  0.3222
  920SOL    HW1 2759   1.322   1.847   2.388  2.9184 -2.0551  0.1033
  920SOL    HW2 2760   1.215   1.815   2.523  2.4903  0.3660  1.5579
  921SOL     OW 2761   1.041   0.017   2.613  0.5778  0.1117 -0.4511
  921SOL    HW1 2762   1.012   0.019   2.513  0.0088 -2.1398  1.9870
  921SOL    HW2 2763   0.986  -0.054   2.671 -0.2900 -0.2796  1.8230
  922SOL     OW 2764   2.150   2.394   2.779  0.3881  0.2550  0.1373
  922SOL    HW1 2765   2.178   2.298   2.803 -0.8672  1.0580  1.6427
  922SOL    HW2 2766   2.103   2.398   2.689  1.0521 -0.0659  4.7036
  923SOL     OW 2767   1.222   2.671   0.263 -0.6850  0.1644  0.2673
  923SOL    HW1 2768   1.295   2.730   0.304 -1.1672 -0.1989  0.0511
  923SOL    HW2 2769   1.248   2.573   0.263 -0.5613  1.2309 -0.2812
  924SOL     OW 2770   2.908   1.517   0.121 -0.2391  0.6059 -0.4390
  924SOL    HW1 2771   2.814   1.523   0.078  0.3225 -2.0580  1.6284
  924SOL    HW2 2772   2.977   1.474   0.059  0.8688  0.6041 -0.2788
  925SOL     OW 2773   0.041   2.941   1.529 -0.3806  0.2895 -0.8678
  925SOL    HW1 2774  -0.042   2.932   1.593  0.8562  2.4545  0.5766
  925SOL    HW2 2775   0.039   2.886   1.442  3.5346 -3.7642  2.9911
  926SOL     OW 2776   1.316   2.830   1.213  0.4394 -0.0621  0.0434
  926SOL    HW1 2777   1.398   2.823   1.152  0.8293 -2.3066  2.3929
  926SOL    HW2 2778   1.338   2.892   1.291 -0.7058 -0.5158  0.8946
  927SOL     OW 2779   0.353   2.667   1.746  0.2657 -0.0522  0.0237
  927SOL    HW1 2780   0.319   2.600   1.671 -2.4012  0.5116  0.6968
  927SOL    HW2 2781   0.307   2.759   1.738  1.4487 -0.6861  0.1986
  928SOL     OW 2782   1.542   2.072   2.255  0.2580 -0.2983 -0.0307
  928SOL    HW1 2783   1.578   2.151   2.191 -0.6436 -0.2431 -2.3364
  928SOL    HW2 2784   1.443   2.051   2.233 -2.8570  0.1872 -2.6530
  929SOL     OW 2785   2.451   2.465   2.897  0.6120 -0.5038  0.7790
  929SOL    HW1 2786   2.348   2.461   2.907  2.8956  1.4368  1.3417
  929SOL    HW2 2787   2.475   2.472   2.795  0.1000 -1.7649 -0.6365
  930SOL     OW 2788   2.189   1.963   1.056 -0.2448 -0.3765 -0.6147
  930SOL    HW1 2789   2.143   1.939   1.148 -0.2433 -0.2234 -1.7616
  930SOL    HW2 2790   2.246   2.052   1.061  0.7138  1.8141 -1.3428
  931SOL     OW 2791   0.557   1.715   2.702  0.3799 -0.3969  0.6207
  931SOL    HW1 2792   0.592   1.766   2.783 -0.9230  2.6286 -3.7742
  931SOL    HW2 2793   0.585   1.614   2.701 -1.9749  1.8303 -2.3546
  932SOL     OW 2794   0.435   0.098   2.962  0.0840 -0.4049  0.0933
  932SOL    HW1 2795   0.531   0.130   2.963  0.9926  0.7525  1.8324
  932SOL    HW2 2796   0.427  -0.010   2.979 -1.7415 -2.5860  2.2072
  933SOL     OW 2797   1.036   0.773   3.049  0.0806  0.1710  0.3517
  933SOL    HW1 2798   1.045   0.843   3.124  0.6302  0.2923 -0.7002
  933SOL    HW2 2799   1.003   0.815   2.963 -0.0368 -1.1308 -0.7131
  934SOL     OW 2800   0.819   2.922   2.654  0.6054 -0.1126  0.4105
  934SOL    HW1 2801   0.821   2.851   2.580  2.6835  1.4935  1.6788
  934SOL    HW2 2802   0.883   2.897   2.735  0.8290 -1.7146 -2.8239
  935SOL     OW 2803   0.013   0.558   0.851  0.4393 -0.0929  0.2236
  935SOL    HW1 2804  -0.023   0.517   0.762  1.9015 -1.2711 -0.5329
  935SOL    HW2 2805  -0.060   0.621   0.896  1.9854 -1.2383 -1.9258
  936SOL     OW 2806   1.106   2.855   0.084 -0.1263  0.4387 -0.0437
  936SOL    HW1 2807   1.164   2.917   0.021 -1.5910 -2.3275  1.5234
  936SOL    HW2 2808   1.156   2.800   0.154  0.1074  2.5889  0.1345
  937SOL     OW 2809   1.959   2.632   2.095 -0.2512 -0.1542  0.3624
  937SOL    HW1 2810   1.907   2.715   2.121 -0.6250 -0.2854  1.6268
  937SOL    HW2 2811   2.011   2.646   2.002  2.4041  0.4976 -1.8896
  938SOL     OW 2812   2.776   2.065   1.540 -0.2236 -0.5231 -0.3416
  938SOL    HW1 2813   2.752   2.162   1.563 -2.4830  0.9541 -0.4058
  938SOL    HW2 2814   2.878   2.046   1.561  0.1576 -0.7802  1.2611
  939SOL     OW 2815   2.790   1.211   2.498 -0.3098 -0.0691 -0.6146
  939SOL    HW1 2816   2.886   1.215   2.458 -1.2392 -1.4668 -0.7785
  939SOL    HW2 2817   2.771   1.136   2.566  0.6655  4.1760 -0.6254
  940SOL     OW 2818   1.022   0.460   2.734 -0.3690  0.8298  0.3529
  940SOL    HW1 2819   1.085   0.375   2.759 -1.3205 -2.9753  0.5092
  940SOL    HW2 2820   0.931   0.442   2.681 -1.0404  0.2067 -1.9694
  941SOL     OW 2821   0.060   2.819   2.272  0.2475  0.0885  0.2376
  941SOL    HW1 2822   0.097   2.731   2.251 -2.7780  4.2511  0.7613
  941SOL    HW2 2823   0.094   2.858   2.360  0.5663  1.0872  0.5604
  942SOL     OW 2824   0.070   0.070   2.471 -0.4197  0.1525  0.0192
  942SOL    HW1 2825   0.129   0.117   2.546 -1.5483  1.4316 -0.3574
  942SOL    HW2 2826   0.069   0.122   2.377 -1.3029  0.8199 -1.2444
  943SOL     OW 2827   2.123   1.725   2.405 -0.1281 -0.0224  0.2542
  943SOL    HW1 2828   2.108   1.658   2.325  0.5760 -1.7586 -0.8870
  943SOL    HW2 2829   2.088   1.683   2.498 -0.7575 -0.3937 -0.7702
  944SOL     OW 2830   2.180   2.357   1.468 -0.3921  0.2155 -0.6097
  944SOL    HW1 2831   2.239   2.434   1.508  0.6402 -1.1545  0.8617
  944SOL    HW2 2832   2.166   2.275   1.531  1.0539  1.6911  2.7935
  945SOL     OW 2833   0.715   1.491   0.279  0.3365  0.0130  0.5654
  945SOL    HW1 2834   0.680   1.519   0.181 -1.8459 -2.5882 -0.5826
  945SOL    HW2 2835   0.737   1.387   0.287  0.0777 -0.8924 -0.4459
  946SOL     OW 2836   0.400   0.935   2.455 -0.3559 -0.4576  0.2309
  946SOL    HW1 2837   0.312   0.913   2.402  1.0457 -0.2159  4.0110
  946SOL    HW2 2838   0.380   1.002   2.533 -0.2439 -1.1274  0.9099
  947SOL     OW 2839   1.548   0.457   0.008  0.3861  0.2627  0.4650
  947SOL    HW1 2840   1.504   0.529  -0.051 -1.2462 -1.1249  0.7988
  947SOL    HW2 2841   1.485   0.381   0.052  1.7792 -1.0953  0.7311
  948SOL     OW 2842   1.949   3.054   2.145  0.5969  0.3115 -0.0087
  948SOL    HW1 2843   1.954   3.000   2.059 -3.9262 -1.8471  0.4549
  948SOL    HW2 2844   1.905   2.997   2.220  1.5271  1.4037 -0.1025
  949SOL     OW 2845   0.554   2.487   0.535  0.2154 -0.1511 -0.1840
  949SOL    HW1 2846   0.583   2.571   0.484  2.3216  0.6395  1.3119
  949SOL    HW2 2847   0.595   2.480   0.628  0.9201  3.3049  1.7452
  950SOL     OW 2848   0.217   2.187   3.032 -0.1706 -0.6077  0.2480
  950SOL    HW1 2849   0.123   2.234   3.045 -0.7876  1.4942 -2.0560
  950SOL    HW2 2850   0.218   2.106   2.964 -0.4592 -0.6289  1.2675
  951SOL     OW 2851   1.229   2.732   2.736 -0.7936  0.6754 -0.3523
  951SOL    HW1 2852   1.305   2.774   2.685 -2.3361  0.3936  0.8420
  951SOL    HW2 2853   1.143   2.791   2.743 -0.8337  2.0599  1.3683
  952SOL     OW 2854   0.012   1.713   0.427  0.2284 -0.8299  0.7155
  952SOL    HW1 2855   0.062   1.805   0.444  2.6668  3.2995  1.7153
  952SOL    HW2 2856   0.039   1.652   0.507 -0.7999 -2.0567 -0.4389
  953SOL     OW 2857   2.472   1.759   0.273 -0.1561  0.3537  0.0179
  953SOL    HW1 2858   2.493   1.656   0.280 -0.3745  0.6640  0.3792
  953SOL    HW2 2859   2.485   1.797   0.180  1.0173 -0.8336  2.7167
  954SOL     OW 2860   2.190   0.552   0.963 -0.6195 -0.1973 -0.2656
  954SOL    HW1 2861   2.189   0.583   0.860 -0.2332 -0.1686 -1.0082
  954SOL    HW2 2862   2.289   0.533   0.996 -1.2042 -0.9344 -0.5354
  955SOL     OW 2863   0.189   2.622   1.285 -0.0029 -0.0783  0.6536
  955SOL    HW1 2864   0.103   2.674   1.303  1.1349 -0.7975 -2.1094
  955SOL    HW2 2865   0.253   2.671   1.213  2.5640  2.3832 -1.0551
  956SOL     OW 2866   2.751   2.437   2.442 -0.5492  0.6717  0.0156
  956SOL    HW1 2867   2.771   2.343   2.418  0.4668  0.8694  0.5588
  956SOL    HW2 2868   2.766   2.503   2.361 -2.3832 -2.4273 -2.9251
  957SOL     OW 2869   1.587   2.072   2.789 -0.0655 -0.1558 -0.2464
  957SOL    HW1 2870   1.556   1.976   2.814  1.6849  0.5644 -1.0470
  957SOL    HW2 2871   1.611   2.079   2.688 -3.0349 -1.6123  0.0390
  958SOL     OW 2872   2.639   2.300   2.997 -0.1902  0.1558 -0.3980
  958SOL    HW1 2873   2.566   2.364   2.957 -0.1585  0.6342 -3.1029
  958SOL    HW2 2874   2.615   2.264   3.088  0.1710  0.4500  0.5356
  959SOL     OW 2875   0.260   2.798   0.084  0.1264 -0.2626  0.1435
  959SOL    HW1 2876   0.157   2.776   0.067 -0.2518  1.1243 -0.7980
  959SOL    HW2 2877   0.300   2.738   0.157 -3.1564 -1.7635  0.1683
  960SOL     OW 2878   1.993   0.450   1.955 -0.7072 -0.4286 -0.4628
  960SOL    HW1 2879   1.920   0.509   1.908 -0.1804  1.1001 -1.5255
  960SOL    HW2 2880   1.990   0.447   2.055 -0.1262 -2.6892 -1.5290
  961SOL     OW 2881   2.578   1.814   0.983 -0.0223  0.1055  1.1852
  961SOL    HW1 2882   2.553   1.914   0.982  1.3727 -3.4485  0.1136
  961SOL    HW2 2883   2.538   1.765   1.066 -0.8577  1.8801  0.6639
  962SOL     OW 2884   1.313   0.881   0.080 -0.6301  0.0108 -0.3790
  962SOL    HW1 2885   1.336   0.955   0.006 -0.2056  2.6652  0.2883
  962SOL    HW2 2886   1.297   0.932   0.170 -1.9202 -1.5134  0.5142
  963SOL     OW 2887   2.208   2.558   1.861  0.4010 -0.2322  0.0464
  963SOL    HW1 2888   2.210   2.471   1.918  2.0888 -3.2832  0.1640
  963SOL    HW2 2889   2.238   2.638   1.912  0.9662 -0.1602 -1.8495
  964SOL     OW 2890   2.369   0.362   1.644 -0.0819  0.2785 -0.3320
  964SOL    HW1 2891   2.451   0.414   1.680 -0.8965  1.7312  0.5264
  964SOL    HW2 2892   2.373   0.356   1.541  0.9739  0.4166 -1.5735
  965SOL     OW 2893   2.634   3.059   0.122  0.1139 -0.1978  0.4734
  965SOL    HW1 2894   2.677   3.022   0.036 -2.3767  3.3721  1.0918
  965SOL    HW2 2895   2.535   3.089   0.096 -1.4860 -0.7501 -1.9872
  966SOL     OW 2896   2.520   2.488   2.209 -0.6679 -0.1791  0.0342
  966SOL    HW1 2897   2.468   2.538   2.284  0.2328 -1.1459 -0.5281
  966SOL    HW2 2898   2.479   2.493   2.113  0.3298 -1.5343 -0.9333
  967SOL     OW 2899   2.801   2.791   2.503  0.3553 -0.2593  0.2131
  967SOL    HW1 2900   2.832   2.701   2.464  1.8748  1.1534 -0.0811
  967SOL    HW2 2901   2.871   2.868   2.479 -0.2105 -0.5189 -0.7978
  968SOL     OW 2902   1.937   0.992   2.617  0.5036  0.8944  0.4054
  968SOL    HW1 2903   1.872   1.031   2.550  0.6959 -2.2884 -0.6960
  968SOL    HW2 2904   2.009   0.925   2.577  1.7776 -1.3976 -3.8710
  969SOL     OW 2905   2.794   2.459   1.065 -0.8853 -0.2950 -0.1946
  969SOL    HW1 2906   2.733   2.436   0.985  2.3906 -0.3851 -1.4012
  969SOL    HW2 2907   2.832   2.373   1.113 -1.3449 -1.6914  0.2858
  970SOL     OW 2908   1.037   2.128   1.773 -0.0102 -0.0039 -0.2566
  970SOL    HW1 2909   0.939   2.144   1.738  0.4067 -0.2802  0.0137
  970SOL    HW2 2910   1.037   2.160   1.872 -1.5246  0.2621 -0.5566
  971SOL     OW 2911   2.864   2.069   1.865 -0.5775 -0.1728  0.0027
  971SOL    HW1 2912   2.873   2.166   1.897  2.6270 -1.9958 -1.7242
  971SOL    HW2 2913   2.925   2.053   1.778  0.5228  2.0516  2.8903
  972SOL     OW 2914   1.988   2.467   0.203 -0.4171 -0.2432 -0.3846
  972SOL    HW1 2915   2.004   2.404   0.124 -0.5160 -1.4800 -1.6049
  972SOL    HW2 2916   1.973   2.430   0.300 -1.0588  0.1650  0.2212
  973SOL     OW 2917   1.298   1.066   1.877 -0.0610 -0.0649 -0.3858
  973SOL    HW1 2918   1.242   1.025   1.802 -2.1887  1.2507  3.3830
  973SOL    HW2 2919   1.248   1.146   1.919  0.2088  0.5761  0.5323
  974SOL     OW 2920   1.616   0.556   1.996  0.6287  0.1706 -0.2988
  974SOL    HW1 2921   1.695   0.569   1.933 -0.2806 -0.4392  1.6176
  974SOL    HW2 2922   1.529   0.601   1.968  1.7258 -3.0799  2.1576
  975SOL     OW 2923   2.354   0.007   0.063 -0.4998 -0.6190 -0.3614
  975SOL    HW1 2924   2.310  -0.052   0.131 -0.8352 -1.1107 -2.4732
  975SOL    HW2 2925   2.356  -0.034  -0.032 -0.0601 -0.9122 -0.7303
  976SOL     OW 2926   1.911   2.842   2.326 -0.0659 -0.1267 -0.3750
  976SOL    HW1 2927   1.811   2.844   2.293  2.3305 -0.9486 -1.3869
  976SOL    HW2 2928   1.919   2.797   2.418  0.4493  0.6915  0.1968
  977SOL     OW 2929   0.454   0.689   1.068 -0.2674  0.0862  0.4416
  977SOL    HW1 2930   0.373   0.741   1.025 -0.9261  0.4769  1.9214
  977SOL    HW2 2931   0.524   0.661   0.995 -0.9860  2.2048  2.6297
   3.10000   3.10000   3.10000
