1000 SPC/Fw water molecules t=   1.31000 step= 1310
 2931
    1SOL     OW    1   2.540   0.350   2.610 -0.5534 -0.2132  0.7741
    1SOL    HW1    2   2.533   0.244   2.619  1.6709  1.0072 -1.7362
    1SOL    HW2    3   2.566   0.397   2.698  1.0382  0.2537  0.6408
    2SOL     OW    4   2.758   2.991   1.367 -0.0114 -0.0201  0.0045
    2SOL    HW1    5   2.842   3.022   1.313  4.0587 -1.8629 -0.4760
    2SOL    HW2    6   2.719   3.066   1.431  0.8397  2.7722  0.2472
    3SOL     OW    7   2.625   2.572   0.425  0.4253  0.1718  0.2656
    3SOL    HW1    8   2.576   2.482   0.410  0.8342 -0.6176  0.6930
    3SOL    HW2    9   2.637   2.602   0.522  0.7017  1.5062 -1.9923
    4SOL     OW   10   1.232   1.515   2.413 -0.4347 -0.2763  0.1185
    4SOL    HW1   11   1.185   1.541   2.323 -1.0634  0.1486  0.5949
    4SOL    HW2   12   1.273   1.418   2.408  1.1027 -2.9753  0.3233
    5SOL     OW   13   1.182   1.571   2.917 -0.2805 -0.3100 -0.7410
    5SOL    HW1   14   1.233   1.648   2.966  1.1740  0.3688 -0.8633
    5SOL    HW2   15   1.089   1.603   2.880 -0.1855 -1.2164  2.5230
    6SOL     OW   16   0.268   1.845   3.024 -0.4987  0.3289 -0.1414
    6SOL    HW1   17   0.168   1.831   3.067 -2.4650 -0.3177 -0.7353
    6SOL    HW2   18   0.340   1.842   3.099  0.6396  1.8161 -3.4060
    7SOL     OW   19   2.526   0.848   1.055 -0.1330  0.8859 -0.0936
    7SOL    HW1   20   2.438   0.830   1.107 -1.3389  0.7385 -1.8940
    7SOL    HW2   21   2.510   0.854   0.955  1.0531 -2.2569  0.6492
    8SOL     OW   22   0.394   0.606   1.495  0.5015  0.2570  0.1505
    8SOL    HW1   23   0.477   0.556   1.524 -2.1890 -0.8521  0.8861
    8SOL    HW2   24   0.392   0.628   1.394 -0.4260  0.0544  2.0011
    9SOL     OW   25   1.192   0.849   2.425 -0.2591  0.1450 -0.4843
    9SOL    HW1   26   1.229   0.910   2.348  0.7752  0.4918 -0.5382
    9SOL    HW2   27   1.162   0.753   2.391 -0.0683 -0.7556 -0.6095
   10SOL     OW   28   0.673   1.389   1.303  0.1104  0.0827 -0.3153
   10SOL    HW1   29   0.588   1.406   1.255  2.6150  1.3586 -1.8496
   10SOL    HW2   30   0.736   1.474   1.318 -0.7187 -1.9922  2.6293
   11SOL     OW   31   2.314   2.824   0.820  0.1566  0.0942 -0.1387
   11SOL    HW1   32   2.280   2.831   0.921 -0.9014  1.2500  0.6947
   11SOL    HW2   33   2.405   2.781   0.819 -1.5419 -5.0159 -0.1450
   12SOL     OW   34   1.474   0.829   0.428 -0.2691  0.8593  0.0283
   12SOL    HW1   35   1.416   0.879   0.359  0.8696 -1.9116 -1.0181
   12SOL    HW2   36   1.546   0.765   0.385 -0.7114 -0.6777  1.1246
   13SOL     OW   37   2.414   0.739   1.754  0.0314 -0.2433 -0.2140
   13SOL    HW1   38   2.352   0.681   1.815 -0.9521  1.7778  0.2635
   13SOL    HW2   39   2.431   0.710   1.657 -0.0894  2.1818  2.5719
   14SOL     OW   40   1.917   0.043   0.646  0.5791 -0.5576 -0.4851
   14SOL    HW1   41   1.817   0.069   0.628 -0.6025 -1.5576  2.1206
   14SOL    HW2   42   1.928  -0.032   0.718  1.2190  1.0093 -0.7972
   15SOL     OW   43   1.901   2.100   2.660  0.1632  0.1130 -0.6213
   15SOL    HW1   44   1.847   2.165   2.721 -0.1005  0.1151  1.1145
   15SOL    HW2   45   1.837   2.032   2.618  0.2951  0.6237 -0.0572
   16SOL     OW   46   1.600   1.696   2.994 -0.0675 -0.0458 -0.3720
   16SOL    HW1   47   1.600   1.608   3.052 -0.9064 -0.0052  1.8228
   16SOL    HW2   48   1.682   1.750   3.023  1.2074  1.0671  0.9982
   17SOL     OW   49   0.129   0.438   0.182  0.1395 -0.2875  0.0409
   17SOL    HW1   50   0.207   0.470   0.128 -1.4196 -1.0879  0.2368
   17SOL    HW2   51   0.046   0.447   0.123  0.1359 -2.4356 -1.4062
   18SOL     OW   52   0.933   2.963   2.163  0.1101  0.6811  0.2114
   18SOL    HW1   53   0.857   2.901   2.147  2.3952 -1.1864 -0.6988
   18SOL    HW2   54   0.999   2.953   2.081 -0.6878  2.8283 -0.5332
   19SOL     OW   55   0.507   0.833   1.890  0.3816  0.1101 -0.1224
   19SOL    HW1   56   0.564   0.783   1.960  1.2476  0.8884 -1.3721
   19SOL    HW2   57   0.553   0.912   1.847  0.3170 -0.5829  0.9506
   20SOL     OW   58   0.220   2.815   0.851  0.1089  0.0753  0.2949
   20SOL    HW1   59   0.138   2.863   0.810 -0.1427  0.3060  2.3486
   20SOL    HW2   60   0.240   2.724   0.807 -0.2611 -1.1001 -0.4668
   21SOL     OW   61   2.744   0.254   1.947  0.5393 -0.0330  0.0819
   21SOL    HW1   62   2.698   0.190   1.881 -1.8521  0.3744  0.4193
   21SOL    HW2   63   2.815   0.204   2.007  1.2424 -0.3350 -1.3032
   22SOL     OW   64   2.345   0.194   0.122  0.4688  0.0989 -0.0641
   22SOL    HW1   65   2.361   0.109   0.076 -2.0938  1.7200 -1.2573
   22SOL    HW2   66   2.284   0.252   0.063  0.0384  0.5219 -0.3041
   23SOL     OW   67   2.806   0.552   0.663 -0.4461 -0.2550 -0.1226
   23SOL    HW1   68   2.792   0.460   0.622  1.3419  1.2992 -2.5407
   23SOL    HW2   69   2.860   0.610   0.600  0.9840 -0.8568  0.3100
   24SOL     OW   70   0.251   1.891   0.478 -0.3632 -0.3885 -0.0646
   24SOL    HW1   71   0.209   1.963   0.424  1.5367 -0.5592  0.5644
   24SOL    HW2   72   0.356   1.890   0.480 -0.1935 -3.1840  1.3050
   25SOL     OW   73   2.221   0.633   0.179 -0.1865  0.0022  0.4120
   25SOL    HW1   74   2.231   0.630   0.076  2.7248 -0.7926  2.7323
   25SOL    HW2   75   2.251   0.547   0.232  1.1793 -0.2736  1.1902
   26SOL     OW   76   2.450   2.157   2.094 -0.0034  0.0259  0.5468
   26SOL    HW1   77   2.538   2.202   2.117 -1.5761  1.4580  0.7875
   26SOL    HW2   78   2.459   2.092   2.016  3.0455  0.6405  0.1029
   27SOL     OW   79   0.642   2.932   0.271 -0.2996  0.6598 -0.4039
   27SOL    HW1   80   0.721   2.983   0.231 -1.0233 -0.7230 -2.8737
   27SOL    HW2   81   0.596   2.870   0.202 -0.0910  1.9583  0.0491
   28SOL     OW   82   1.566   0.120   0.329  0.1272 -0.0699  0.3684
   28SOL    HW1   83   1.624   0.088   0.244 -0.9802  0.2880 -1.1428
   28SOL    HW2   84   1.590   0.219   0.356  1.6366 -0.9163 -0.5607
   29SOL     OW   85   1.940   0.558   0.279  0.2222  0.0746 -0.2314
   29SOL    HW1   86   1.898   0.614   0.354  0.9594 -1.2500 -1.1228
   29SOL    HW2   87   2.025   0.608   0.246 -2.5966  2.7842  1.7903
   30SOL     OW   88   0.189   2.085   0.880 -0.1486  0.1198 -0.2305
   30SOL    HW1   89   0.142   2.003   0.831 -1.8982  0.4253 -0.2224
   30SOL    HW2   90   0.116   2.158   0.899  1.5528  1.3164 -0.7757
   31SOL     OW   91   2.155   0.121   2.422  0.7703  0.3515  0.1226
   31SOL    HW1   92   2.098   0.083   2.505  0.7298  0.7671  1.5489
   31SOL    HW2   93   2.119   0.084   2.331 -1.4538  0.7937  1.3122
   32SOL     OW   94   2.960   0.039   0.257  0.6925 -0.5625  0.0969
   32SOL    HW1   95   2.954  -0.057   0.291 -1.5397  1.0668  0.0360
   32SOL    HW2   96   3.051   0.085   0.270  1.3941  1.0675  1.9644
   33SOL     OW   97   0.895   0.291   0.606  0.1600 -0.6365 -0.0796
   33SOL    HW1   98   0.877   0.210   0.548  2.1880  2.1153 -0.0192
   33SOL    HW2   99   0.997   0.316   0.615  0.0612  2.7915  0.4182
   34SOL     OW  100   0.322   2.734   1.091 -0.5277  0.2906 -0.3552
   34SOL    HW1  101   0.286   2.778   1.006 -0.1087 -0.4325  0.1398
   34SOL    HW2  102   0.416   2.771   1.114 -0.0478  0.4725 -1.1262
   35SOL     OW  103   0.045   0.114   1.868  1.1205 -0.0730  0.4878
   35SOL    HW1  104   0.093   0.025   1.891  2.0347  0.2595  2.5284
   35SOL    HW2  105  -0.026   0.107   1.792 -2.3174 -0.2928  0.3081
   36SOL     OW  106   1.827   1.237   1.574 -0.4100 -0.5023 -0.7245
   36SOL    HW1  107   1.901   1.164   1.582 -3.3030 -1.9630  1.9278
   36SOL    HW2  108   1.865   1.320   1.523  0.3246  1.9258  1.2017
   37SOL     OW  109   1.200   0.217   0.951 -0.1429 -0.0025  0.4643
   37SOL    HW1  110   1.246   0.302   0.991 -1.7568 -3.1882 -0.0293
   37SOL    HW2  111   1.261   0.146   0.905 -1.3492 -0.3768 -0.3023
   38SOL     OW  112   1.149   2.877   2.347 -0.3223  0.3801  0.3785
   38SOL    HW1  113   1.078   2.806   2.366  1.3505  4.1088 -1.8668
   38SOL    HW2  114   1.106   2.951   2.290 -3.4092  0.7496  0.6328
   39SOL     OW  115   2.357   1.356   3.026  0.4967 -0.0532 -0.1652
   39SOL    HW1  116   2.435   1.292   3.040  1.2040 -0.0443  0.1211
   39SOL    HW2  117   2.329   1.400   3.116  0.7566 -0.2107  1.6209
   40SOL     OW  118   1.999   2.460   2.606  0.6213  0.2621  0.2758
   40SOL    HW1  119   1.959   2.558   2.587  0.7688  1.2033 -1.1876
   40SOL    HW2  120   1.984   2.398   2.527 -1.2143 -0.0231  1.6543
   41SOL     OW  121   3.039   0.650   2.798 -0.0473 -0.0129 -0.0202
   41SOL    HW1  122   2.953   0.700   2.805  2.1771  1.1749 -2.8631
   41SOL    HW2  123   3.033   0.568   2.737  1.6385  0.9846 -1.4053
   42SOL     OW  124   1.760   1.789   0.541  0.2378 -0.4266  0.5966
   42SOL    HW1  125   1.730   1.693   0.514 -0.2695  1.9175 -0.9166
   42SOL    HW2  126   1.794   1.841   0.455  3.3958  1.1911 -0.2024
   43SOL     OW  127   0.470   1.661   1.237  0.1695  0.5157  0.7708
   43SOL    HW1  128   0.472   1.564   1.194 -0.0224  0.2558  1.4434
   43SOL    HW2  129   0.406   1.660   1.319  0.6915 -0.1941  4.8008
   44SOL     OW  130   1.681   2.397   3.017 -0.4096  0.6501  0.2042
   44SOL    HW1  131   1.609   2.466   3.008 -0.0680 -0.0860 -1.4846
   44SOL    HW2  132   1.735   2.397   2.930  0.6526  1.5803  2.0171
   45SOL     OW  133   0.373   1.902   2.570  0.5535  0.0398  0.0491
   45SOL    HW1  134   0.331   1.885   2.476 -1.0578 -0.2062  1.0134
   45SOL    HW2  135   0.441   1.826   2.592  1.2071 -1.3946 -0.4045
   46SOL     OW  136   1.300   0.649   0.145  0.4823 -0.1270  0.3578
   46SOL    HW1  137   1.272   0.733   0.088  0.7491  0.3241  0.7558
   46SOL    HW2  138   1.221   0.586   0.164 -1.0693 -0.0234  1.3572
   47SOL     OW  139   0.189   2.493   1.589  0.1257  0.1860  0.0252
   47SOL    HW1  140   0.170   2.390   1.584 -1.7408  0.4540  2.0284
   47SOL    HW2  141   0.206   2.527   1.493  0.0088 -1.9173  2.0148
   48SOL     OW  142   2.626   0.610   0.141 -0.2262  0.1164 -0.0549
   48SOL    HW1  143   2.615   0.626   0.242 -1.4558  0.9626 -0.2371
   48SOL    HW2  144   2.716   0.637   0.108 -2.2447 -1.5124 -0.0279
   49SOL     OW  145   0.327   0.763   1.705  0.2603 -0.3537  0.7168
   49SOL    HW1  146   0.393   0.784   1.782 -2.4785 -0.6077  1.8442
   49SOL    HW2  147   0.369   0.717   1.623 -0.7974  1.2253 -1.6380
   50SOL     OW  148   1.708   1.129   0.316  0.4156  0.4578 -0.3000
   50SOL    HW1  149   1.732   1.033   0.281 -0.1865 -2.9855  0.8558
   50SOL    HW2  150   1.645   1.128   0.399 -0.7607  2.2936  0.4798
   51SOL     OW  151   3.012   1.735   0.255  0.2613  0.2252  0.2084
   51SOL    HW1  152   2.945   1.672   0.205 -0.3616 -2.0343  1.8341
   51SOL    HW2  153   3.072   1.681   0.319  0.9002  1.6156 -1.1412
   52SOL     OW  154   0.818   2.155   0.635  0.5371 -0.2818  0.2825
   52SOL    HW1  155   0.722   2.170   0.670 -2.6071 -0.0586 -0.2277
   52SOL    HW2  156   0.856   2.064   0.666 -0.5087  2.1341  0.1390
   53SOL     OW  157   0.182   0.474   1.561 -0.0064 -0.2798  0.3936
   53SOL    HW1  158   0.261   0.525   1.511  1.5786 -1.8154 -0.1868
   53SOL    HW2  159   0.088   0.483   1.515 -2.6085 -1.4643 -1.2704
   54SOL     OW  160   1.810   0.499   3.055 -0.4139  0.0581  0.0922
   54SOL    HW1  161   1.862   0.433   3.112 -0.2274  2.1544 -0.7486
   54SOL    HW2  162   1.710   0.506   3.077 -0.0877  1.2125 -2.1047
   55SOL     OW  163   0.741   2.891   0.716 -0.4879  0.2588 -0.3684
   55SOL    HW1  164   0.695   2.983   0.704 -0.2531 -2.4273 -0.6936
   55SOL    HW2  165   0.841   2.884   0.686 -1.9414  2.0340  2.1065
   56SOL     OW  166   0.573   1.627   0.026 -0.1030 -0.2757 -0.0595
   56SOL    HW1  167   0.503   1.688   0.073  1.2130  0.1412 -1.4573
   56SOL    HW2  168   0.526   1.544  -0.008  0.9604  1.1906 -2.1804
   57SOL     OW  169   1.745   2.507   2.408  0.2614 -0.1704  0.2169
   57SOL    HW1  170   1.809   2.427   2.387  0.0371 -0.7685  1.5540
   57SOL    HW2  171   1.671   2.486   2.479 -3.2537 -1.1289  2.7158
   58SOL     OW  172   0.652   0.249   1.124 -0.1754  0.7874  0.0895
   58SOL    HW1  173   0.564   0.262   1.184 -0.5752 -0.8994  0.5017
   58SOL    HW2  174   0.680   0.149   1.111 -0.4700  0.9897  4.4074
   59SOL     OW  175   0.413   2.399   2.739  0.0957  0.3550 -0.2279
   59SOL    HW1  176   0.397   2.308   2.701 -3.1816  1.8440 -1.2419
   59SOL    HW2  177   0.492   2.394   2.810  1.0081  0.5064  2.0785
   60SOL     OW  178   2.326   2.127   2.339 -0.4262  0.1350 -0.0313
   60SOL    HW1  179   2.388   2.136   2.260  0.6018  1.8321  2.1188
   60SOL    HW2  180   2.357   2.176   2.423 -3.0015  2.3348  0.6764
   61SOL     OW  181   1.217   0.623   0.434 -0.0222  0.5324  0.2795
   61SOL    HW1  182   1.129   0.669   0.449  0.1942  0.5996 -0.2360
   61SOL    HW2  183   1.259   0.654   0.348 -2.8084  0.7070  3.1879
   62SOL     OW  184   2.713   1.711   2.828  0.1834  0.3904 -1.1943
   62SOL    HW1  185   2.709   1.777   2.747 -2.0480  0.6802 -1.6566
   62SOL    HW2  186   2.783   1.640   2.812  1.3719  0.8006 -0.2507
   63SOL     OW  187   0.567   0.891   0.204 -0.6390  0.1910 -0.3866
   63SOL    HW1  188   0.602   0.965   0.141  2.9743 -1.5581 -0.6202
   63SOL    HW2  189   0.630   0.881   0.283 -0.6311 -0.8493 -0.5730
   64SOL     OW  190   3.041   0.543   2.379  0.4333 -0.4971 -1.1757
   64SOL    HW1  191   2.964   0.587   2.425  1.3765  0.5256 -2.1339
   64SOL    HW2  192   3.074   0.591   2.297 -1.7741  1.0826  1.7550
   65SOL     OW  193   0.220   1.450   0.690 -0.0638 -0.0373  0.4690
   65SOL    HW1  194   0.204   1.529   0.752  0.8496  1.9796 -1.3663
   65SOL    HW2  195   0.271   1.474   0.599 -1.2949  3.1968  0.7909
   66SOL     OW  196   2.516   0.383   0.529  0.9505 -0.0977  0.0633
   66SOL    HW1  197   2.614   0.365   0.557 -2.5993  0.4610  0.0026
   66SOL    HW2  198   2.450   0.337   0.599 -1.1565  0.6687  0.6799
   67SOL     OW  199   0.625   2.487   1.423  0.4580  0.2146  0.3817
   67SOL    HW1  200   0.711   2.475   1.475 -0.7308  0.6406  2.2888
   67SOL    HW2  201   0.572   2.395   1.422 -0.5917  1.3432  2.2198
   68SOL     OW  202   1.003   1.031   2.517 -0.1002  0.8236  0.1106
   68SOL    HW1  203   1.090   0.983   2.486  2.6633  1.7961 -2.1345
   68SOL    HW2  204   0.961   1.073   2.434 -2.1365  0.9410 -0.8771
   69SOL     OW  205   0.752   2.745   2.216 -0.0953 -0.4170  0.0451
   69SOL    HW1  206   0.787   2.646   2.204 -0.2973 -1.4026 -1.1564
   69SOL    HW2  207   0.648   2.756   2.222  1.3599 -1.6475 -2.2884
   70SOL     OW  208   0.456   0.117   2.536 -0.2023 -0.1054 -0.0257
   70SOL    HW1  209   0.375   0.118   2.602  2.6536 -1.8302 -1.4548
   70SOL    HW2  210   0.523   0.043   2.557 -2.3981 -0.8419 -1.5953
   71SOL     OW  211   1.155   1.789   0.343 -0.6582  0.1244 -0.0573
   71SOL    HW1  212   1.104   1.736   0.416  2.6498  2.2524 -0.3056
   71SOL    HW2  213   1.109   1.780   0.251 -2.1653 -1.5131 -2.1209
   72SOL     OW  214   1.816   0.184   2.176  0.3943 -0.1288  0.2107
   72SOL    HW1  215   1.869   0.272   2.202 -0.0737  1.2718  0.4277
   72SOL    HW2  216   1.870   0.106   2.142 -2.9417  3.8920 -1.6846
   73SOL     OW  217   2.803   2.162   2.368  0.1272  0.3857  0.3840
   73SOL    HW1  218   2.805   2.061   2.351 -3.0619  1.4740  0.7158
   73SOL    HW2  219   2.844   2.185   2.461 -0.1837 -2.3542  1.1968
   74SOL     OW  220   2.656   2.866   2.180  0.3895  0.0569 -0.5732
   74SOL    HW1  221   2.654   2.875   2.286  0.8337 -1.1617  0.4701
   74SOL    HW2  222   2.746   2.888   2.143  0.2440 -0.5174  2.6951
   75SOL     OW  223   0.954   0.853   1.067 -0.1887 -0.3279 -0.3735
   75SOL    HW1  224   0.882   0.915   1.023 -0.7404 -1.4573 -2.6348
   75SOL    HW2  225   0.981   0.896   1.161  3.2378  0.0006  0.0054
   76SOL     OW  226   1.818   1.222   2.448  0.8073  0.0511 -0.4858
   76SOL    HW1  227   1.716   1.226   2.466  2.0320  1.2523  2.8186
   76SOL    HW2  228   1.850   1.316   2.465 -1.7402  1.1345 -2.2681
   77SOL     OW  229   2.940   0.916   1.040 -0.2231  0.5645 -0.1406
   77SOL    HW1  230   2.915   0.821   1.003 -1.2915  1.0858 -2.3272
   77SOL    HW2  231   3.015   0.915   1.113  0.4221  0.4264  1.6110
   78SOL     OW  232   2.008   1.411   1.434  0.1416 -0.3166 -0.5356
   78SOL    HW1  233   2.106   1.445   1.453  0.2273  1.5477 -3.1782
   78SOL    HW2  234   1.976   1.450   1.344  0.6324 -0.1151 -1.4427
   79SOL     OW  235   0.646   1.428   0.804  0.5122 -0.3822 -0.1362
   79SOL    HW1  236   0.547   1.400   0.822  2.4190  2.0069 -2.0712
   79SOL    HW2  237   0.686   1.353   0.737  0.6686 -1.3382  1.8248
   80SOL     OW  238   0.649   0.491   1.509 -0.5667  0.5477 -0.5573
   80SOL    HW1  239   0.690   0.533   1.424 -2.0892  0.5634  0.4235
   80SOL    HW2  240   0.664   0.387   1.515 -1.6855  1.7095 -0.8571
   81SOL     OW  241   0.999   1.314   2.610 -0.0828 -0.0814 -0.2075
   81SOL    HW1  242   1.010   1.212   2.598  0.6176  1.8833  0.4967
   81SOL    HW2  243   0.925   1.352   2.544  0.1619 -0.2446  0.5139
   82SOL     OW  244   0.978   2.879   1.518  0.7851 -0.9114  0.4086
   82SOL    HW1  245   0.937   2.804   1.460  1.4766 -1.8163  2.1568
   82SOL    HW2  246   1.056   2.930   1.472 -1.6345 -0.0642  1.0788
   83SOL     OW  247   2.565   2.375   0.870 -0.7505 -0.0561  0.3113
   83SOL    HW1  248   2.494   2.297   0.892 -0.8999  1.4369 -2.6766
   83SOL    HW2  249   2.548   2.420   0.781  0.3725  1.3255  2.1065
   84SOL     OW  250   0.718   0.018   2.373  0.2240  0.0136 -0.1098
   84SOL    HW1  251   0.646  -0.004   2.445 -0.6883 -0.8097 -0.4340
   84SOL    HW2  252   0.778  -0.059   2.345 -1.0778  2.2618 -0.5510
   85SOL     OW  253   0.269   1.625   1.439  0.5427  0.4373 -0.5162
   85SOL    HW1  254   0.262   1.726   1.431  0.2152  1.2185  2.2469
   85SOL    HW2  255   0.323   1.607   1.524  0.1529  2.8436 -1.7846
   86SOL     OW  256   0.444   1.051   1.500 -0.2352 -0.3919  0.3165
   86SOL    HW1  257   0.391   1.001   1.420 -1.9019  0.4638 -1.9787
   86SOL    HW2  258   0.543   1.016   1.509  0.5648  0.3996  1.0558
   87SOL     OW  259   1.666   0.679   0.278 -0.0970 -0.4549 -0.2741
   87SOL    HW1  260   1.726   0.770   0.259 -0.9841  2.6537 -0.1983
   87SOL    HW2  261   1.631   0.629   0.191 -1.5985  0.2147 -1.0697
   88SOL     OW  262   1.532   1.353   0.259  0.4191  0.1156 -0.1415
   88SOL    HW1  263   1.585   1.266   0.276 -0.1320  0.4493 -1.4645
   88SOL    HW2  264   1.429   1.345   0.263  2.0563  2.0716 -2.2349
   89SOL     OW  265   3.075   0.304   0.612 -0.1823 -0.6852  0.3597
   89SOL    HW1  266   3.133   0.221   0.584  1.7131 -2.0597 -2.5240
   89SOL    HW2  267   2.973   0.297   0.576 -1.1481 -1.9970  0.0031
   90SOL     OW  268   0.831   1.579   0.112 -0.5644  0.3671  0.2951
   90SOL    HW1  269   0.851   1.479   0.107 -1.0091 -0.2489  0.4034
   90SOL    HW2  270   0.733   1.599   0.084  1.7173  1.3261  1.3007
   91SOL     OW  271   1.204   1.454   1.757  0.2483  0.0666  0.2130
   91SOL    HW1  272   1.194   1.526   1.828  0.3868  0.0283  0.1308
   91SOL    HW2  273   1.303   1.428   1.756 -2.4908  0.4091  1.4354
   92SOL     OW  274   0.013   0.954   1.235  0.0776  0.0529 -0.2977
   92SOL    HW1  275   0.052   1.049   1.210 -0.8962  1.4347 -3.9712
   92SOL    HW2  276  -0.022   0.951   1.335 -0.8970 -0.7850  1.4273
   93SOL     OW  277   3.083   2.710   0.036  0.1608  0.3951 -0.4879
   93SOL    HW1  278   3.042   2.715  -0.061  1.6674  0.8608 -1.9705
   93SOL    HW2  279   3.085   2.612   0.071 -0.6394 -0.4894  2.6623
   94SOL     OW  280   1.493   1.443   1.773  0.2043 -0.4445 -0.3767
   94SOL    HW1  281   1.565   1.369   1.789 -2.0877 -1.6176  0.1873
   94SOL    HW2  282   1.525   1.536   1.802 -1.0564  1.0297 -0.8182
   95SOL     OW  283   1.415   2.509   2.965 -0.3824  0.0567  0.1111
   95SOL    HW1  284   1.333   2.497   3.020  1.3018  0.0427 -1.7604
   95SOL    HW2  285   1.425   2.431   2.895 -0.5657 -0.3372 -1.5839
   96SOL     OW  286   0.568   2.097   1.316 -0.1077  0.2336 -0.4042
   96SOL    HW1  287   0.522   2.070   1.227 -0.6417 -1.4973  2.5300
   96SOL    HW2  288   0.645   2.034   1.345 -0.7039  1.6353  1.1383
   97SOL     OW  289   0.299   1.609   2.453 -0.0226  0.1685 -0.1778
   97SOL    HW1  290   0.272   1.669   2.370  1.2309 -0.7527 -2.7755
   97SOL    HW2  291   0.253   1.636   2.540 -0.1193 -0.6357 -0.9013
   98SOL     OW  292   2.162   1.599   1.204  0.2170  0.4769 -0.5260
   98SOL    HW1  293   2.069   1.555   1.182 -0.6692  0.0589  3.0828
   98SOL    HW2  294   2.240   1.576   1.140 -0.4244  0.8782  1.8036
   99SOL     OW  295   2.571   2.097   1.291 -0.0927  0.1497  0.6628
   99SOL    HW1  296   2.635   2.117   1.365 -0.2465  0.7716 -0.6012
   99SOL    HW2  297   2.524   2.004   1.301  1.7713  0.3422 -1.5426
  100SOL     OW  298   2.302   0.408   2.099  0.0008  0.0757  0.2362
  100SOL    HW1  299   2.247   0.421   2.186  0.8126 -0.4362 -1.2925
  100SOL    HW2  300   2.407   0.403   2.113 -0.6530 -0.6598  0.6127
  101SOL     OW  301   0.392   1.532   0.499  0.0335  0.2000  0.5495
  101SOL    HW1  302   0.405   1.633   0.532 -0.8901  3.8812  0.4245
  101SOL    HW2  303   0.474   1.499   0.444  0.3392 -0.5522  0.3347
  102SOL     OW  304   2.298   1.064   0.830  0.3254  0.1820 -0.2510
  102SOL    HW1  305   2.227   0.994   0.803 -1.4425  1.2185 -0.8303
  102SOL    HW2  306   2.387   1.057   0.784  1.6700 -0.5003 -1.2004
  103SOL     OW  307   2.228   0.118   0.368  0.4742 -0.7063 -0.5232
  103SOL    HW1  308   2.258   0.133   0.272 -0.8442  0.2398 -2.2421
  103SOL    HW2  309   2.306   0.082   0.429  0.3024  0.7008  0.9791
  104SOL     OW  310   0.046   1.906   2.092 -0.3051 -0.2188  0.0317
  104SOL    HW1  311   0.078   1.853   2.009  0.9588 -1.0467 -0.7823
  104SOL    HW2  312  -0.047   1.874   2.118  1.1382  0.4278 -0.8771
  105SOL     OW  313   1.258   2.109   0.813  0.7795 -0.0976 -0.8071
  105SOL    HW1  314   1.194   2.145   0.741  0.7997 -1.7227 -0.4861
  105SOL    HW2  315   1.291   2.012   0.791 -1.7639  0.7269  0.3543
  106SOL     OW  316   2.073   0.370   1.428 -0.1687  0.3782 -0.5815
  106SOL    HW1  317   1.997   0.299   1.428 -1.1270 -1.2353  0.7177
  106SOL    HW2  318   2.074   0.421   1.520 -0.6845  4.3045 -0.3469
  107SOL     OW  319   1.971   2.938   1.175  0.4135 -0.2410 -0.2082
  107SOL    HW1  320   1.924   3.023   1.204  1.9418 -0.6262  1.5857
  107SOL    HW2  321   1.909   2.863   1.139 -0.0820  0.0953  3.8183
  108SOL     OW  322   0.858   2.837   1.177  0.3401  0.2727 -0.3347
  108SOL    HW1  323   0.878   2.737   1.196 -0.2273 -0.9416 -0.5472
  108SOL    HW2  324   0.946   2.891   1.176  0.3512  0.2317 -3.7641
  109SOL     OW  325   2.157   0.149   0.779  0.3727  0.0632  0.0982
  109SOL    HW1  326   2.083   0.109   0.720 -0.2034 -0.2207  1.9092
  109SOL    HW2  327   2.166   0.105   0.871  1.0050  1.2108  0.4964
  110SOL     OW  328   0.479   2.793   2.760 -0.0459  0.1721 -0.0377
  110SOL    HW1  329   0.442   2.767   2.668  0.6768 -0.7768  4.0660
  110SOL    HW2  330   0.524   2.709   2.813 -1.3140 -1.2367  1.3752
  111SOL     OW  331   1.290   0.498   2.342  0.5816  0.2946 -0.1473
  111SOL    HW1  332   1.196   0.524   2.388 -0.1604  0.4877 -0.3776
  111SOL    HW2  333   1.343   0.429   2.400 -1.3007  2.4036 -1.9890
  112SOL     OW  334   1.769   0.437   1.482  0.0416 -0.4626 -0.2255
  112SOL    HW1  335   1.738   0.443   1.387 -1.9172 -0.5502  1.4418
  112SOL    HW2  336   1.690   0.406   1.544  1.2398  1.0200  0.9900
  113SOL     OW  337   2.375   1.702   1.725  0.3891  0.1179 -0.2394
  113SOL    HW1  338   2.421   1.613   1.761  0.4763 -0.6918 -1.0993
  113SOL    HW2  339   2.421   1.791   1.757 -0.0132 -0.4164  1.6501
  114SOL     OW  340   0.315   0.517   1.196 -0.1498 -0.2437 -0.4704
  114SOL    HW1  341   0.371   0.576   1.136 -0.7086  0.6188 -0.5091
  114SOL    HW2  342   0.230   0.568   1.232 -1.4962  1.8949  1.2923
  115SOL     OW  343   2.788   1.552   1.289 -0.0566 -0.9521 -0.1550
  115SOL    HW1  344   2.755   1.457   1.302 -1.2940  1.7317 -1.2175
  115SOL    HW2  345   2.892   1.556   1.271 -2.5692 -1.3328 -0.3621
  116SOL     OW  346   1.881   0.980   0.666  0.6848 -0.4479  0.1792
  116SOL    HW1  347   1.779   0.948   0.666 -1.7251  2.9742  2.5474
  116SOL    HW2  348   1.903   1.082   0.685  0.6445  0.2408 -0.6357
  117SOL     OW  349   1.158   0.372   0.567 -0.6884  0.2001  0.2407
  117SOL    HW1  350   1.177   0.470   0.578 -1.1476 -3.5840  1.1839
  117SOL    HW2  351   1.159   0.338   0.466 -1.6045  1.8705 -2.0495
  118SOL     OW  352   1.083   1.216   1.112  0.4476 -0.0784  0.5487
  118SOL    HW1  353   1.051   1.131   1.162  1.9679  1.1180  1.3625
  118SOL    HW2  354   1.130   1.289   1.174 -1.2396 -0.9059  1.2895
  119SOL     OW  355   1.858   1.605   2.181 -0.4054  0.1762 -0.0769
  119SOL    HW1  356   1.821   1.696   2.144  1.2590 -1.7570  0.5032
  119SOL    HW2  357   1.952   1.583   2.141  0.0571 -0.2453  0.6667
  120SOL     OW  358   2.903   2.805   0.243  0.0792 -0.2577 -0.1058
  120SOL    HW1  359   2.950   2.768   0.160  1.5138  1.4094  2.4276
  120SOL    HW2  360   2.803   2.783   0.242  1.8010  0.7175 -1.1012
  121SOL     OW  361   1.861   0.712   2.148 -0.3594  0.3575 -0.2166
  121SOL    HW1  362   1.919   0.769   2.084  1.1680 -1.3358 -0.7324
  121SOL    HW2  363   1.877   0.613   2.128 -0.1027  0.2792  0.6368
  122SOL     OW  364   2.609   2.513   1.345 -0.4533 -0.8148 -0.2060
  122SOL    HW1  365   2.619   2.507   1.244 -3.4449  3.0048 -0.0475
  122SOL    HW2  366   2.607   2.423   1.393  1.9948 -3.0917  0.6918
  123SOL     OW  367   1.738   0.113   1.705 -0.1745 -0.6248 -0.2061
  123SOL    HW1  368   1.746   0.017   1.657  1.9992  2.6872 -0.0767
  123SOL    HW2  369   1.831   0.149   1.735 -1.3515 -0.0605  0.1606
  124SOL     OW  370   3.058   0.475   1.089 -0.3932  0.3171  0.2061
  124SOL    HW1  371   2.972   0.505   1.135 -0.8086 -3.6045  0.3451
  124SOL    HW2  372   3.071   0.521   0.997 -0.8604 -0.1909  2.8057
  125SOL     OW  373   0.894   1.921   0.767 -0.1673 -0.1467 -0.1916
  125SOL    HW1  374   0.977   1.866   0.752  1.0620 -0.0340  0.5344
  125SOL    HW2  375   0.853   1.905   0.862  0.8621  2.4401 -1.5528
  126SOL     OW  376   1.944   2.283   2.402  0.3630 -0.3402  0.1186
  126SOL    HW1  377   1.969   2.229   2.318  3.1415 -0.8268 -0.4970
  126SOL    HW2  378   1.962   2.231   2.488  3.5098 -1.5525 -0.8159
  127SOL     OW  379   0.895   0.973   0.192  0.0102  0.2881 -0.2233
  127SOL    HW1  380   0.948   0.999   0.281  1.2864 -0.9420  2.9175
  127SOL    HW2  381   0.899   0.873   0.170 -3.2332  0.1389 -0.9550
  128SOL     OW  382   0.964   0.276   1.424 -0.5477  0.3257 -0.2387
  128SOL    HW1  383   0.929   0.336   1.352 -1.9376 -1.8470  0.3107
  128SOL    HW2  384   0.918   0.188   1.400 -0.6306  1.5510 -0.3061
  129SOL     OW  385   1.862   0.665   1.862  0.1172 -0.4937  0.0346
  129SOL    HW1  386   1.867   0.624   1.762  1.3337 -0.5384 -1.6441
  129SOL    HW2  387   1.905   0.760   1.869  0.4985  2.6271  0.2739
  130SOL     OW  388   1.420   2.240   1.015 -0.0521  0.6757 -0.2813
  130SOL    HW1  389   1.363   2.181   0.950 -0.0036 -0.4054 -1.5246
  130SOL    HW2  390   1.485   2.304   0.970  0.4826 -0.9883  1.0160
  131SOL     OW  391   3.039   1.351   1.350  0.5181  0.3666  0.0150
  131SOL    HW1  392   2.999   1.278   1.411  2.5179  2.0184  0.1713
  131SOL    HW2  393   3.141   1.337   1.346 -3.0677 -0.2324  0.0048
  132SOL     OW  394   2.037   2.379   0.502  0.3693  0.4251  0.3478
  132SOL    HW1  395   1.949   2.436   0.510 -0.5538 -2.6050 -1.7675
  132SOL    HW2  396   2.033   2.293   0.561  1.4042 -2.8477  1.0793
  133SOL     OW  397   1.771   2.336   2.748  0.3173  0.1793 -0.3114
  133SOL    HW1  398   1.672   2.345   2.718 -0.4379 -2.9431 -2.1673
  133SOL    HW2  399   1.846   2.389   2.700  2.1475 -2.1741 -1.6531
  134SOL     OW  400   2.675   2.357   1.587  0.0282  0.7860  0.0458
  134SOL    HW1  401   2.621   2.394   1.669 -0.4604 -0.2327  0.3049
  134SOL    HW2  402   2.768   2.405   1.579  0.2729 -1.4301 -1.2403
  135SOL     OW  403   0.694   1.466   2.644 -0.1235 -0.3066  0.6179
  135SOL    HW1  404   0.699   1.379   2.700  0.3627 -0.3795  0.8713
  135SOL    HW2  405   0.664   1.450   2.546 -1.9748  4.1809 -2.4387
  136SOL     OW  406   1.202   2.018   0.470 -0.0785 -0.0573 -0.5519
  136SOL    HW1  407   1.125   2.092   0.472 -0.7933 -1.3268  0.4472
  136SOL    HW2  408   1.166   1.928   0.437 -0.9341 -0.0088 -1.9972
  137SOL     OW  409   0.413   1.217   2.259 -0.2882 -0.2865 -0.4394
  137SOL    HW1  410   0.311   1.213   2.274 -3.0040 -1.8700  0.2800
  137SOL    HW2  411   0.463   1.123   2.266 -1.8524 -1.6275 -0.2621
  138SOL     OW  412   2.460   1.530   0.291 -0.7407  0.5228  0.1739
  138SOL    HW1  413   2.375   1.491   0.243  1.0613 -1.8185  2.3582
  138SOL    HW2  414   2.518   1.455   0.333 -1.7170  3.2359  0.5496
  139SOL     OW  415   1.870   2.620   1.500 -0.5704 -0.0145  0.0673
  139SOL    HW1  416   1.790   2.656   1.446 -0.3753 -0.5555 -1.6946
  139SOL    HW2  417   1.879   2.520   1.483 -0.6064 -0.9454  1.1374
  140SOL     OW  418   3.015   2.998   2.588 -0.5224 -0.0797  0.2585
  140SOL    HW1  419   3.062   2.910   2.553 -0.3806 -1.6590  1.4162
  140SOL    HW2  420   3.062   3.086   2.554  0.4881  2.5013 -2.3299
  141SOL     OW  421   1.323   1.633   1.583  0.6830  0.0139 -0.0887
  141SOL    HW1  422   1.249   1.705   1.575 -0.1709 -1.4200 -1.3085
  141SOL    HW2  423   1.292   1.557   1.647 -1.2626 -1.9984 -2.5945
  142SOL     OW  424   1.525   0.607   2.260 -0.9088  0.1544 -0.8146
  142SOL    HW1  425   1.516   0.606   2.157  0.3388 -0.5581  0.3819
  142SOL    HW2  426   1.433   0.582   2.306 -0.0352 -2.2486  0.6727
  143SOL     OW  427   2.767   0.828   0.550 -0.3209 -1.1291  0.1645
  143SOL    HW1  428   2.809   0.875   0.460  0.4022  0.3014 -0.8158
  143SOL    HW2  429   2.814   0.855   0.638 -1.0156 -2.4471  1.2538
  144SOL     OW  430   2.901   1.160   1.493  0.0026  0.3055 -0.1679
  144SOL    HW1  431   2.853   1.157   1.583  0.1232  0.2079 -1.4948
  144SOL    HW2  432   2.979   1.091   1.499  1.5241  1.3285  0.0457
  145SOL     OW  433   0.947   1.825   0.130 -0.1022 -0.3611  0.0093
  145SOL    HW1  434   0.965   1.892   0.050 -3.8663  1.8768 -1.1982
  145SOL    HW2  435   0.906   1.735   0.098 -1.1529 -0.5219  0.1583
  146SOL     OW  436   2.442   0.671   1.478  0.0307 -0.1106  0.2381
  146SOL    HW1  437   2.402   0.577   1.447  1.2513 -2.3887 -1.4246
  146SOL    HW2  438   2.379   0.750   1.444 -1.3862  0.1862  1.0590
  147SOL     OW  439   1.088   2.496   0.583  0.2689  0.4901  0.0278
  147SOL    HW1  440   1.029   2.558   0.519 -2.8420 -0.7761 -1.6975
  147SOL    HW2  441   1.179   2.476   0.537 -0.3666  0.0148 -0.4102
  148SOL     OW  442   1.619   1.451   0.008 -0.8075  0.1331  0.4128
  148SOL    HW1  443   1.606   1.377  -0.067 -0.3977 -0.7540  1.8776
  148SOL    HW2  444   1.588   1.422   0.105 -0.3048  2.0218  0.9225
  149SOL     OW  445   0.660   1.511   1.954  0.4840 -0.5005 -0.1953
  149SOL    HW1  446   0.564   1.475   1.965  0.9834  0.5479 -1.1033
  149SOL    HW2  447   0.715   1.447   1.895 -1.7187 -1.3033 -0.3007
  150SOL     OW  448   3.025   1.223   0.966  0.3553 -0.1471 -0.1842
  150SOL    HW1  449   3.101   1.214   1.042  2.0968  0.3025  0.9603
  150SOL    HW2  450   2.944   1.157   0.975  0.1907 -0.2353 -0.5261
  151SOL     OW  451   0.212   0.799   2.076  0.7749  0.4447 -0.1445
  151SOL    HW1  452   0.196   0.895   2.041  0.8687  1.5822 -0.1757
  151SOL    HW2  453   0.298   0.754   2.044  0.4613 -2.4751 -1.6278
  152SOL     OW  454   1.432   1.780   1.195  0.4815 -0.0716  0.1717
  152SOL    HW1  455   1.468   1.874   1.213  1.2781 -0.6173 -0.8436
  152SOL    HW2  456   1.332   1.782   1.156 -1.8314  0.8626 -0.2672
  153SOL     OW  457   0.195   1.513   0.202  0.1107  0.1581  0.1818
  153SOL    HW1  458   0.189   1.416   0.232  0.0972  1.7674 -1.4459
  153SOL    HW2  459   0.143   1.575   0.262  2.5531  0.0518 -0.1425
  154SOL     OW  460   2.310   1.903   2.791 -0.5195 -0.3561 -0.2984
  154SOL    HW1  461   2.317   1.796   2.807 -0.2874 -0.8782 -0.8194
  154SOL    HW2  462   2.383   1.929   2.724  0.5155 -1.6087 -1.6740
  155SOL     OW  463   2.494   1.252   0.366 -1.0384  0.0941 -0.1647
  155SOL    HW1  464   2.594   1.230   0.334 -0.5082  0.7809 -2.0143
  155SOL    HW2  465   2.429   1.174   0.370  0.8199 -0.9929 -0.6613
  156SOL     OW  466   2.459   0.831   0.745 -0.0387  0.0109  0.0964
  156SOL    HW1  467   2.373   0.790   0.709  0.1435  0.6256 -0.3656
  156SOL    HW2  468   2.500   0.910   0.686 -1.7238  0.2048 -1.7566
  157SOL     OW  469   1.240   2.994   2.991  0.0309 -0.3375  0.7825
  157SOL    HW1  470   1.325   2.962   2.935  2.0198 -2.1833 -1.5456
  157SOL    HW2  471   1.253   3.091   3.013 -0.3026 -0.7727 -2.2954
  158SOL     OW  472   1.001   1.868   1.840 -0.1632  0.0878  0.1010
  158SOL    HW1  473   1.050   1.955   1.806  0.8909 -0.6481  0.8095
  158SOL    HW2  474   0.930   1.883   1.916  0.6613  0.2134  0.7014
  159SOL     OW  475   0.859   0.429   1.220  0.2990 -0.5660 -0.1358
  159SOL    HW1  476   0.821   0.523   1.253  2.8871  0.0185  1.0618
  159SOL    HW2  477   0.783   0.374   1.185 -0.1646  2.1693  0.6636
  160SOL     OW  478   1.367   2.453   1.527 -0.1619 -0.1372 -0.1441
  160SOL    HW1  479   1.319   2.366   1.561 -1.3129 -0.8048  0.6911
  160SOL    HW2  480   1.468   2.427   1.535 -2.1678 -1.8295 -1.1947
  161SOL     OW  481   3.061   2.743   0.462  0.1485 -0.8658 -0.0591
  161SOL    HW1  482   3.045   2.644   0.466 -2.3129  3.1743  0.5347
  161SOL    HW2  483   3.003   2.786   0.389  0.4925 -3.9386  3.0035
  162SOL     OW  484   2.564   1.809   0.472 -0.0323 -0.1987  0.1823
  162SOL    HW1  485   2.613   1.784   0.382  0.5471 -0.4315 -2.5979
  162SOL    HW2  486   2.539   1.729   0.536  0.3692  0.3902  2.5093
  163SOL     OW  487   1.959   2.668   0.758 -0.6155 -0.1369  0.3776
  163SOL    HW1  488   1.887   2.676   0.685  1.4059 -3.0687 -1.3826
  163SOL    HW2  489   2.039   2.605   0.732  1.3719  0.9036  0.1958
  164SOL     OW  490   3.057   0.241   1.266  0.4430  0.2057 -0.1287
  164SOL    HW1  491   3.075   0.334   1.222 -0.2859 -1.5981 -1.9076
  164SOL    HW2  492   3.121   0.206   1.340 -0.8887 -2.4100 -0.6173
  165SOL     OW  493   1.082   1.432   0.668  0.5934 -0.1380 -0.1383
  165SOL    HW1  494   1.086   1.487   0.759 -1.5063  1.8721  1.1479
  165SOL    HW2  495   1.045   1.496   0.595 -1.4836 -1.1699  1.7288
  166SOL     OW  496   1.574   1.011   1.771 -0.3761 -0.2536 -0.4888
  166SOL    HW1  497   1.471   1.032   1.787 -2.3936  1.4506  1.8129
  166SOL    HW2  498   1.625   1.101   1.782 -0.0117  1.0927  2.5276
  167SOL     OW  499   0.784   1.941   1.443 -0.1618 -0.4004  0.1098
  167SOL    HW1  500   0.789   2.001   1.523  1.0970 -4.5119 -0.5036
  167SOL    HW2  501   0.724   1.860   1.465  1.7906 -0.9943 -1.0435
  168SOL     OW  502   1.588   2.350   0.171 -0.3306 -0.3435 -0.0784
  168SOL    HW1  503   1.634   2.362   0.082 -0.1776 -0.0316  0.8490
  168SOL    HW2  504   1.648   2.350   0.254 -0.6901  0.4091 -0.4285
  169SOL     OW  505   0.096   2.576   2.220 -0.8461  0.1483  0.1704
  169SOL    HW1  506   0.146   2.538   2.136  1.0555 -2.7438 -1.5104
  169SOL    HW2  507   0.150   2.551   2.305 -0.3100 -0.4637 -0.4640
  170SOL     OW  508   1.119   0.221   2.033  0.5671 -0.4187  0.1595
  170SOL    HW1  509   1.211   0.220   2.090  2.1356  0.9843  3.0625
  170SOL    HW2  510   1.136   0.195   1.931 -0.4041  0.8804  1.0350
  171SOL     OW  511   0.209   0.837   2.378  0.3588  0.1964 -0.1735
  171SOL    HW1  512   0.112   0.838   2.422 -0.4441  0.2288  2.6423
  171SOL    HW2  513   0.204   0.791   2.285 -0.8150  1.7292  1.7637
  172SOL     OW  514   0.965   0.989   2.932 -0.4408  0.2337 -0.1125
  172SOL    HW1  515   0.947   1.068   2.994  0.6108 -1.5960  0.2833
  172SOL    HW2  516   0.926   1.001   2.838 -0.9229  1.6645  0.6404
  173SOL     OW  517   0.517   2.445   0.167  0.3389  0.1419  0.3494
  173SOL    HW1  518   0.496   2.367   0.109  0.6870  0.3486 -1.0608
  173SOL    HW2  519   0.433   2.488   0.201 -0.2765  0.0771  0.0530
  174SOL     OW  520   1.479   2.847   1.076  0.1358  0.3115  0.3673
  174SOL    HW1  521   1.561   2.891   1.037  1.9370 -0.4595 -0.2832
  174SOL    HW2  522   1.449   2.769   1.013  0.5254  3.3122  0.0952
  175SOL     OW  523   0.457   3.057   1.681 -0.8776 -0.2164  0.0009
  175SOL    HW1  524   0.488   3.041   1.776 -0.8803  1.1080 -0.8856
  175SOL    HW2  525   0.444   3.156   1.662  2.0040 -0.3325  0.2871
  176SOL     OW  526   2.595   0.368   0.011  0.2403 -0.2916  0.5280
  176SOL    HW1  527   2.598   0.457   0.068  1.4173 -0.0404 -0.3402
  176SOL    HW2  528   2.569   0.285   0.068  1.8437  0.1607 -2.9341
  177SOL     OW  529   0.313   0.286   0.981  0.3889  0.4031  0.5174
  177SOL    HW1  530   0.259   0.200   0.961 -1.8286 -0.1198  2.2737
  177SOL    HW2  531   0.267   0.343   1.051 -1.5462 -0.0631 -1.1286
  178SOL     OW  532  -0.001   2.733   2.580  0.2003  0.5118 -0.6744
  178SOL    HW1  533  -0.014   2.633   2.552 -0.3731 -0.1869  1.1771
  178SOL    HW2  534   0.089   2.746   2.630 -0.8283 -2.1105 -2.1592
  179SOL     OW  535   3.037   1.556   1.123 -0.0328  0.1680 -0.6804
  179SOL    HW1  536   3.109   1.582   1.051  0.7433 -3.9439  0.3283
  179SOL    HW2  537   3.082   1.513   1.205 -0.2021  2.0574  1.9000
  180SOL     OW  538   0.196   1.365   1.782  0.3427  0.5540 -0.2365
  180SOL    HW1  539   0.288   1.320   1.817  3.0560 -3.3743  2.0392
  180SOL    HW2  540   0.129   1.389   1.856 -0.6043  2.4948 -1.6955
  181SOL     OW  541   2.995   1.932   2.507 -0.2298  0.5275  0.2356
  181SOL    HW1  542   3.064   1.996   2.472 -2.2888 -2.1836  2.5619
  181SOL    HW2  543   2.923   1.914   2.438 -2.8676 -1.3494 -0.0559
  182SOL     OW  544   2.337   1.279   1.266 -0.1995  0.3344  0.1451
  182SOL    HW1  545   2.279   1.231   1.194  3.0108 -0.1373  0.3407
  182SOL    HW2  546   2.364   1.383   1.244  2.0265  0.8869  0.3970
  183SOL     OW  547   1.393   2.239   2.502 -0.3711  0.2041 -0.5976
  183SOL    HW1  548   1.307   2.184   2.523 -1.0170  0.1100 -0.1049
  183SOL    HW2  549   1.470   2.175   2.471 -0.9946  2.2875 -0.7258
  184SOL     OW  550   2.131   0.871   0.714  0.7717 -0.8198  0.1376
  184SOL    HW1  551   2.034   0.908   0.697 -1.3113 -0.3660 -1.2901
  184SOL    HW2  552   2.140   0.773   0.736 -0.4251 -3.4741 -1.0159
  185SOL     OW  553   1.532   2.745   2.014 -0.2406  0.1163  0.4517
  185SOL    HW1  554   1.466   2.825   1.990  0.1122  0.6555 -0.2237
  185SOL    HW2  555   1.581   2.756   2.106 -0.0776  0.3715 -0.3018
  186SOL     OW  556   0.049   2.199   1.639 -0.2783 -0.1963  0.4062
  186SOL    HW1  557   0.034   2.261   1.718  0.4344 -0.9060 -1.6903
  186SOL    HW2  558   0.137   2.148   1.652  1.6820 -0.4577 -1.9142
  187SOL     OW  559   1.373   0.620   1.641 -0.3115  0.4753 -0.1322
  187SOL    HW1  560   1.470   0.661   1.646  0.5899 -0.1195  2.1452
  187SOL    HW2  561   1.368   0.528   1.696  1.8056 -3.9555  1.9843
  188SOL     OW  562   2.831   2.716   1.419 -0.4599  0.6027 -0.1648
  188SOL    HW1  563   2.800   2.817   1.413 -1.6252 -1.1417 -0.3344
  188SOL    HW2  564   2.774   2.645   1.368 -2.4973 -0.9964  0.3704
  189SOL     OW  565   0.876   1.164   1.411 -0.3485 -0.2511 -0.3554
  189SOL    HW1  566   0.950   1.197   1.475  0.7956  0.1880 -1.5304
  189SOL    HW2  567   0.833   1.242   1.357 -0.2762  4.0487  0.8946
  190SOL     OW  568   1.493   1.864   1.561 -0.3338 -0.5277 -0.6915
  190SOL    HW1  569   1.439   1.776   1.580 -1.3368 -1.5561  1.9751
  190SOL    HW2  570   1.489   1.927   1.647  0.7289  1.2436  2.6751
  191SOL     OW  571   0.926   0.823   1.524 -0.3822  0.5800  0.2041
  191SOL    HW1  572   0.991   0.777   1.591 -2.4848  0.4710  3.3540
  191SOL    HW2  573   0.965   0.882   1.448 -0.6653  0.0639  0.0445
  192SOL     OW  574   1.846   2.463   1.097 -0.1779  0.5780 -0.2832
  192SOL    HW1  575   1.753   2.455   1.056  1.2846  0.8831  0.3668
  192SOL    HW2  576   1.917   2.413   1.033  0.0532  2.3082  1.1877
  193SOL     OW  577   0.518   0.524   0.408 -0.1117 -0.6724 -0.0076
  193SOL    HW1  578   0.479   0.442   0.453 -0.9298  3.7138 -2.3713
  193SOL    HW2  579   0.553   0.506   0.311  2.3435 -0.2309 -0.5675
  194SOL     OW  580   0.308   0.917   1.319  0.0855 -0.1195  0.5152
  194SOL    HW1  581   0.243   0.837   1.309  2.5172  0.6286 -0.2533
  194SOL    HW2  582   0.349   0.945   1.229  0.3733  1.9726  0.6936
  195SOL     OW  583   0.987   2.879   0.515  0.0030  0.0187  0.2146
  195SOL    HW1  584   0.947   2.809   0.452  1.1783  0.4862  0.9565
  195SOL    HW2  585   1.080   2.918   0.493 -1.4319 -0.6531 -0.4573
  196SOL     OW  586   0.207   1.362   1.343  0.3502 -0.4584  0.2539
  196SOL    HW1  587   0.211   1.460   1.382 -0.2780 -0.1769  2.0827
  196SOL    HW2  588   0.223   1.293   1.420  2.9029 -0.6882  0.1061
  197SOL     OW  589   0.821   1.992   0.300  0.2096  0.3056  0.4026
  197SOL    HW1  590   0.786   1.954   0.392 -0.8126 -0.3622 -0.8420
  197SOL    HW2  591   0.886   1.928   0.249 -1.5429  0.7500  2.6142
  198SOL     OW  592   0.310   1.240   0.348 -0.6612 -0.1487  0.0602
  198SOL    HW1  593   0.219   1.215   0.306  2.0678  0.2865  1.3003
  198SOL    HW2  594   0.316   1.335   0.390 -2.7403 -1.8554  0.4922
  199SOL     OW  595   2.280   0.439   2.580 -0.0346  0.3614 -0.0592
  199SOL    HW1  596   2.237   0.380   2.655  1.2339  2.9204  2.5260
  199SOL    HW2  597   2.380   0.424   2.583  1.5552 -0.7734 -0.0891
  200SOL     OW  598   3.102   2.987   0.792  0.2520 -0.3756  0.7025
  200SOL    HW1  599   3.128   3.080   0.819  1.1213 -2.6822 -0.4745
  200SOL    HW2  600   3.017   2.986   0.735  1.0595 -1.8947  3.5264
  201SOL     OW  601   0.977   0.724   0.514 -0.2445  0.3974  0.2029
  201SOL    HW1  602   0.945   0.815   0.554 -0.9509  0.5068  0.3608
  201SOL    HW2  603   0.917   0.649   0.538 -0.1562  3.7380  0.0904
  202SOL     OW  604   0.400   1.203   1.860 -0.6572 -0.1046 -0.7369
  202SOL    HW1  605   0.494   1.160   1.846  1.1117  1.7522  2.6639
  202SOL    HW2  606   0.406   1.270   1.941  0.4440 -1.4804  1.1486
  203SOL     OW  607   0.570   0.205   1.553  0.8067  0.7042  0.1864
  203SOL    HW1  608   0.598   0.148   1.473  1.8847  2.1052  2.0408
  203SOL    HW2  609   0.638   0.205   1.632 -3.1087  0.0507  0.6253
  204SOL     OW  610   2.117   1.815   2.993  0.2106  0.2094  0.0710
  204SOL    HW1  611   2.125   1.716   2.982 -1.6119  0.0290 -2.4417
  204SOL    HW2  612   2.168   1.859   2.920 -1.7394  0.6746  2.1203
  205SOL     OW  613   1.841   1.834   3.066  0.0142  1.0167  0.3879
  205SOL    HW1  614   1.940   1.813   3.048 -0.3199  0.9958  3.2245
  205SOL    HW2  615   1.805   1.928   3.040 -1.6561 -0.9480  1.3005
  206SOL     OW  616   2.412   2.809   0.387 -0.2957 -0.0584  0.2409
  206SOL    HW1  617   2.400   2.716   0.438 -0.0776 -2.1004  0.7685
  206SOL    HW2  618   2.468   2.797   0.300  0.2772 -0.8106 -1.4087
  207SOL     OW  619   0.690   1.754   2.911  0.2616  0.0057 -0.8638
  207SOL    HW1  620   0.768   1.704   2.869  1.4193  0.0980 -1.3610
  207SOL    HW2  621   0.664   1.717   3.005  2.3134 -0.2606  0.7230
  208SOL     OW  622   1.129   1.675   1.296 -0.7624  0.2613 -0.9578
  208SOL    HW1  623   1.128   1.747   1.221 -2.0112  0.5680 -1.6866
  208SOL    HW2  624   1.137   1.716   1.390  1.2415  0.7454 -0.7889
  209SOL     OW  625   0.217   0.977   3.097 -0.5008  0.3636  0.0857
  209SOL    HW1  626   0.179   0.905   3.024 -1.6295 -1.1596  0.3183
  209SOL    HW2  627   0.237   0.930   3.189 -1.4463 -0.2456  0.2862
  210SOL     OW  628   1.724   0.490   1.212  0.0076 -0.3710  0.4172
  210SOL    HW1  629   1.661   0.571   1.198  2.4666 -0.8791  1.3541
  210SOL    HW2  630   1.821   0.514   1.192  1.1540  2.7415  0.2807
  211SOL     OW  631   2.030   1.030   1.569 -0.1133 -0.3892 -0.2255
  211SOL    HW1  632   2.080   0.959   1.632  2.3216 -2.7456  0.2799
  211SOL    HW2  633   2.094   1.114   1.551 -2.2005 -1.3578 -0.6247
  212SOL     OW  634   0.001   0.997   1.506  0.4319 -0.5727 -0.2071
  212SOL    HW1  635   0.085   1.052   1.527 -0.9182  1.7750  0.0981
  212SOL    HW2  636  -0.006   0.911   1.561  0.3200  0.3901  1.6801
  213SOL     OW  637   2.736   0.214   0.303 -0.0965  0.4203 -0.9334
  213SOL    HW1  638   2.823   0.167   0.268 -0.8015  2.0306 -2.3474
  213SOL    HW2  639   2.655   0.150   0.289  3.0763  4.6957  0.5547
  214SOL     OW  640   2.166   0.377   2.345 -0.2459 -0.6715 -0.0885
  214SOL    HW1  641   2.211   0.432   2.420 -3.1840 -1.7815  0.4177
  214SOL    HW2  642   2.163   0.273   2.378  0.2238 -1.6116  2.5169
  215SOL     OW  643   1.671   2.260   2.104  0.5565 -0.1293 -0.0813
  215SOL    HW1  644   1.767   2.301   2.088  0.9311  0.3213  0.2851
  215SOL    HW2  645   1.598   2.329   2.123  1.0532 -0.3603 -0.8498
  216SOL     OW  646   2.188   0.599   0.684 -0.8245  0.0806 -0.8372
  216SOL    HW1  647   2.171   0.502   0.658  0.8134  2.3714  0.2585
  216SOL    HW2  648   2.227   0.660   0.612  0.1877  0.8266 -1.0189
  217SOL     OW  649   0.858   2.797   2.504  0.9782  0.5047  0.6830
  217SOL    HW1  650   0.794   2.729   2.550  1.5451  0.3754  1.3084
  217SOL    HW2  651   0.872   2.766   2.403  0.8500  0.2876 -2.8709
  218SOL     OW  652   1.891   1.481   0.056 -0.1504 -0.4306  0.4403
  218SOL    HW1  653   1.795   1.480   0.022  1.2481  0.9911 -1.0577
  218SOL    HW2  654   1.904   1.408   0.126 -1.4856 -0.7641 -1.4199
  219SOL     OW  655   2.477   1.286   2.536  0.5592  0.2937 -0.1612
  219SOL    HW1  656   2.485   1.244   2.439  1.1709  0.4861 -0.4138
  219SOL    HW2  657   2.494   1.215   2.614 -1.3097 -0.6218  1.2567
  220SOL     OW  658   1.427   1.013   1.375 -0.0177  0.6928  0.3985
  220SOL    HW1  659   1.530   1.010   1.373 -0.3593 -3.4877 -0.7803
  220SOL    HW2  660   1.388   1.059   1.294  0.0236  2.9636  2.2172
  221SOL     OW  661   1.295   0.950   2.206  0.7977 -0.4229  0.4385
  221SOL    HW1  662   1.247   0.930   2.114  0.2306  1.5781 -0.9577
  221SOL    HW2  663   1.375   1.012   2.206 -0.5627 -2.0203  0.2810
  222SOL     OW  664   1.107   0.134   1.210 -0.3023 -0.0921  0.2261
  222SOL    HW1  665   1.053   0.213   1.250 -1.3406 -0.3494  0.3994
  222SOL    HW2  666   1.143   0.164   1.117  0.2497  0.2951  3.0041
  223SOL     OW  667   2.693   0.931   2.131  0.0343 -0.0706 -0.4988
  223SOL    HW1  668   2.653   1.024   2.163 -0.8063  0.6742  0.0959
  223SOL    HW2  669   2.795   0.918   2.151 -1.0710 -0.5423  1.5387
  224SOL     OW  670   1.463   1.071   2.717  0.4263 -0.1132 -0.2722
  224SOL    HW1  671   1.460   0.969   2.697 -0.5875 -4.7894  2.4462
  224SOL    HW2  672   1.521   1.121   2.642  0.0371 -1.1876  0.1863
  225SOL     OW  673   2.979   2.716   2.882 -0.1038 -0.3383 -0.0176
  225SOL    HW1  674   2.883   2.697   2.843 -0.1369  0.5008  0.6736
  225SOL    HW2  675   3.046   2.746   2.808 -0.9906 -3.1413  2.1484
  226SOL     OW  676   2.361   1.613   2.819  0.2429  0.0527 -1.0502
  226SOL    HW1  677   2.437   1.605   2.744  3.1983 -0.2924  2.1467
  226SOL    HW2  678   2.366   1.527   2.868  2.3654  1.2820 -2.2721
  227SOL     OW  679   0.856   0.214   3.073  0.1965  0.5374 -0.3058
  227SOL    HW1  680   0.877   0.313   3.061 -0.6647 -1.3937 -2.6205
  227SOL    HW2  681   0.813   0.174   2.990  2.4236 -0.1633 -0.2339
  228SOL     OW  682   2.419   0.588   2.825 -0.3819  0.0182  0.0427
  228SOL    HW1  683   2.430   0.670   2.761  0.7599 -0.9552 -0.4961
  228SOL    HW2  684   2.498   0.522   2.824 -2.1854  3.1323 -3.7956
  229SOL     OW  685   0.569   0.455   1.796  0.0047  0.0498 -0.2382
  229SOL    HW1  686   0.590   0.359   1.822  1.7381  2.1589 -1.0811
  229SOL    HW2  687   0.618   0.489   1.708  0.4543 -0.5750 -2.9930
  230SOL     OW  688   1.876   1.187   2.019 -0.1790  0.7784 -0.1349
  230SOL    HW1  689   1.958   1.242   1.984  1.1764 -0.2603 -1.3237
  230SOL    HW2  690   1.805   1.246   2.065 -0.8903  1.1169 -2.1409
  231SOL     OW  691   0.663   1.070   0.006  0.1378 -0.0220 -0.3705
  231SOL    HW1  692   0.757   1.105  -0.003  2.2058 -0.5150 -0.0672
  231SOL    HW2  693   0.585   1.138   0.035  2.2702  0.8080 -0.2603
  232SOL     OW  694   2.441   3.005   2.824  0.0831 -0.5775 -0.0825
  232SOL    HW1  695   2.486   2.914   2.830 -0.2757 -0.8311 -0.5099
  232SOL    HW2  696   2.481   3.057   2.746  1.5800 -2.0668 -0.3179
  233SOL     OW  697   1.770   1.244   1.230 -0.2816  0.2768 -0.0859
  233SOL    HW1  698   1.848   1.252   1.160  1.8071  0.5515  1.5687
  233SOL    HW2  699   1.757   1.145   1.264  0.1841 -1.1645 -0.8724
  234SOL     OW  700   1.600   2.530   1.842  0.4198 -0.1109 -0.1360
  234SOL    HW1  701   1.563   2.597   1.921 -2.0004 -0.3827  1.1372
  234SOL    HW2  702   1.557   2.436   1.843 -1.1916 -0.4879 -0.4076
  235SOL     OW  703   0.028   3.013   2.852  0.2061 -0.7715  0.6992
  235SOL    HW1  704  -0.024   3.011   2.766 -1.6621 -1.5898 -0.3119
  235SOL    HW2  705  -0.028   3.036   2.934  1.6791 -2.6471 -0.4324
  236SOL     OW  706   2.881   0.726   0.101  0.4817 -0.6166  0.6327
  236SOL    HW1  707   2.947   0.747   0.177  0.1831  0.0632  3.1397
  236SOL    HW2  708   2.904   0.641   0.044  0.7654  0.1823  0.6591
  237SOL     OW  709   1.506   1.633   0.959 -0.7624  0.0557 -0.0645
  237SOL    HW1  710   1.604   1.612   0.942 -1.8858  0.4216  0.5157
  237SOL    HW2  711   1.490   1.702   1.038 -3.1374  2.9669  0.1847
  238SOL     OW  712   1.883   1.237   0.758  0.1138 -0.2162  0.3573
  238SOL    HW1  713   1.928   1.260   0.850  0.0159 -2.7942 -1.8495
  238SOL    HW2  714   1.793   1.277   0.747  1.1146 -0.7399 -1.9060
  239SOL     OW  715   2.091   0.304   2.758 -0.7768 -0.1461  0.2160
  239SOL    HW1  716   2.098   0.281   2.859  1.9230 -0.8616  2.6506
  239SOL    HW2  717   2.006   0.356   2.732  2.4357  1.7058  0.5188
  240SOL     OW  718   0.923   0.669   0.231  0.3425  0.2436 -0.3735
  240SOL    HW1  719   0.981   0.588   0.210 -1.8482 -2.3601  0.4998
  240SOL    HW2  720   0.932   0.713   0.320 -1.9774  0.0323 -1.2162
  241SOL     OW  721   0.601   0.096   0.392 -0.3511 -0.5461  0.4024
  241SOL    HW1  722   0.644   0.178   0.334  0.4527  1.1241 -0.9298
  241SOL    HW2  723   0.626   0.004   0.355 -0.7505  1.2052 -0.8531
  242SOL     OW  724   0.628   2.552   1.164  0.2064  0.4219  0.1095
  242SOL    HW1  725   0.636   2.539   1.269 -0.4626  3.3648  1.1607
  242SOL    HW2  726   0.609   2.655   1.144 -3.6397  1.7947  0.1090
  243SOL     OW  727   1.048   0.561   2.428 -0.2701 -0.8686 -0.5626
  243SOL    HW1  728   0.972   0.608   2.379  2.3938  2.3215  0.8779
  243SOL    HW2  729   1.017   0.509   2.508  0.6207 -0.0137  0.1973
  244SOL     OW  730   2.774   1.871   2.328 -0.5110 -0.3545  0.4429
  244SOL    HW1  731   2.807   1.862   2.227  0.5497 -0.4976 -1.6140
  244SOL    HW2  732   2.677   1.833   2.344 -0.5808 -0.4003  1.4191
  245SOL     OW  733   2.192   0.908   2.187 -0.5499 -0.1220 -0.2702
  245SOL    HW1  734   2.278   0.892   2.245 -1.0429  1.7038  0.4413
  245SOL    HW2  735   2.136   0.990   2.209  0.8291 -0.0188  0.5696
  246SOL     OW  736   0.206   2.879   1.709  0.5059 -0.4384  0.1888
  246SOL    HW1  737   0.130   2.893   1.636 -1.9653  1.7574 -0.1256
  246SOL    HW2  738   0.301   2.924   1.684 -0.8305  2.2475 -0.3134
  247SOL     OW  739   2.218   0.653   3.017  0.1558  0.0351 -0.1495
  247SOL    HW1  740   2.279   0.618   2.933  0.8212  0.1526 -1.2856
  247SOL    HW2  741   2.173   0.749   3.006 -1.4743 -0.2339  0.6824
  248SOL     OW  742   2.205   1.824   1.549  0.4237 -0.0149  0.3508
  248SOL    HW1  743   2.288   1.810   1.614 -0.9712 -1.0642 -1.4875
  248SOL    HW2  744   2.115   1.796   1.586 -0.2349 -0.4934  0.3149
  249SOL     OW  745   1.952   1.896   1.899 -0.0132 -0.2340  0.0712
  249SOL    HW1  746   1.953   1.811   1.843 -0.6753  1.0654 -0.0551
  249SOL    HW2  747   2.042   1.948   1.901 -0.9807  2.0221 -2.6179
  250SOL     OW  748   1.090   0.703   1.873 -0.1010 -0.3567 -0.1186
  250SOL    HW1  749   1.114   0.621   1.935  3.5638  2.3346  1.1679
  250SOL    HW2  750   1.099   0.673   1.773  1.7326 -0.8523 -2.1192
  251SOL     OW  751   3.042   1.680   2.527 -0.7436 -0.9000  0.4537
  251SOL    HW1  752   3.021   1.783   2.535 -2.6512  0.3499  0.6305
  251SOL    HW2  753   2.952   1.627   2.535 -1.5799  0.4382 -3.0864
  252SOL     OW  754   1.610   0.742   1.697 -0.6211 -0.0261  0.2561
  252SOL    HW1  755   1.686   0.688   1.742  1.2175  0.8989 -0.7522
  252SOL    HW2  756   1.613   0.844   1.726  0.8834 -1.4855  2.5552
  253SOL     OW  757   0.982   1.610   0.458  0.4533  0.4201 -0.3543
  253SOL    HW1  758   1.005   1.528   0.396 -0.5400 -0.6939  0.2505
  253SOL    HW2  759   0.891   1.608   0.506 -1.8118  1.9450  0.2479
  254SOL     OW  760   2.023   2.173   1.635 -0.1029  0.2341  0.3564
  254SOL    HW1  761   1.980   2.116   1.558 -0.7115  1.3268  0.6950
  254SOL    HW2  762   1.953   2.218   1.700 -0.5257 -0.3501  0.2525
  255SOL     OW  763   0.145   1.191   2.907  0.1957  0.1740 -0.2022
  255SOL    HW1  764   0.210   1.276   2.903  0.2441 -0.7465  2.5330
  255SOL    HW2  765   0.184   1.116   2.967  0.8442 -1.3391  0.2269
  256SOL     OW  766   2.863   1.413   1.836 -0.2485 -0.1374  0.8055
  256SOL    HW1  767   2.765   1.436   1.870 -3.3496  0.0793  0.7530
  256SOL    HW2  768   2.868   1.313   1.806  1.2665  1.0108 -1.8796
  257SOL     OW  769   0.796   0.169   1.737  0.0518 -0.5031 -0.0472
  257SOL    HW1  770   0.848   0.255   1.700 -3.2513 -1.4477 -0.9374
  257SOL    HW2  771   0.856   0.081   1.738  0.8560 -2.4331 -1.1746
  258SOL     OW  772   2.990   1.228   0.476 -0.3703 -0.1779  0.5311
  258SOL    HW1  773   2.902   1.251   0.526 -0.0990  1.6502 -0.4294
  258SOL    HW2  774   3.067   1.226   0.545  2.3222 -2.5149 -0.7916
  259SOL     OW  775   0.413   2.890   3.048 -0.3899 -0.4674 -0.3105
  259SOL    HW1  776   0.350   2.843   3.118 -0.3485  0.0556  1.7964
  259SOL    HW2  777   0.428   2.839   2.965 -1.0899  0.8695  0.9249
  260SOL     OW  778   2.718   0.688   2.787 -0.3704  1.0478  0.7788
  260SOL    HW1  779   2.634   0.743   2.759 -1.4645  1.0720 -0.8585
  260SOL    HW2  780   2.698   0.613   2.859  0.3801 -1.4536  2.1477
  261SOL     OW  781   2.719   1.275   1.328 -0.3525 -0.3112 -0.9452
  261SOL    HW1  782   2.706   1.242   1.231 -1.4467  1.5398  1.1789
  261SOL    HW2  783   2.790   1.217   1.376  0.1088  1.4923  0.4302
  262SOL     OW  784   1.377   2.958   1.919 -0.8355  0.3827  0.0438
  262SOL    HW1  785   1.402   3.058   1.915  2.3302  0.2537  3.6079
  262SOL    HW2  786   1.277   2.942   1.903  0.7769  0.5040 -1.3807
  263SOL     OW  787   0.854   0.684   2.287 -0.0103  0.7047  0.1936
  263SOL    HW1  788   0.791   0.597   2.277 -1.6009 -1.7685  1.4070
  263SOL    HW2  789   0.887   0.732   2.200 -1.1190  1.7970 -1.5112
  264SOL     OW  790   2.237   0.805   0.398 -0.1136  0.2365  0.3902
  264SOL    HW1  791   2.222   0.759   0.308 -3.2054 -1.3211  1.7316
  264SOL    HW2  792   2.328   0.851   0.417  0.3933  2.1628 -3.2570
  265SOL     OW  793   0.938   2.440   2.628  0.6583  0.4721 -0.5998
  265SOL    HW1  794   0.994   2.500   2.687 -0.8068 -1.7467 -4.8843
  265SOL    HW2  795   0.935   2.340   2.659 -0.8410  0.5635  0.8461
  266SOL     OW  796   1.324   1.788   3.042 -0.2553 -0.3152  0.0683
  266SOL    HW1  797   1.343   1.826   3.136  1.5481  0.0234  0.2328
  266SOL    HW2  798   1.412   1.745   3.010  0.5047  0.9338  2.1095
  267SOL     OW  799   1.044   0.082   2.322  0.4034  0.1733 -0.0364
  267SOL    HW1  800   0.997   0.010   2.265 -0.6051 -1.1324 -1.5114
  267SOL    HW2  801   1.034   0.178   2.291  2.2157 -1.3781 -0.8199
  268SOL     OW  802   0.717   1.235   1.072  0.9759  0.4606 -0.7607
  268SOL    HW1  803   0.699   1.266   1.170  0.1711  3.0684  1.9907
  268SOL    HW2  804   0.702   1.308   1.003  1.9063 -0.4363  2.2497
  269SOL     OW  805   2.344   2.505   1.599  0.2337 -0.2002 -0.4890
  269SOL    HW1  806   2.432   2.472   1.639  0.7573 -1.7661 -1.6339
  269SOL    HW2  807   2.273   2.529   1.669 -4.0348 -1.9247 -3.4987
  270SOL     OW  808   0.142   2.986   1.964 -0.3569  0.4329 -0.0110
  270SOL    HW1  809   0.168   2.949   1.870 -0.9267 -1.7176  0.5013
  270SOL    HW2  810   0.126   2.912   2.037 -1.1055  0.8684 -0.0374
  271SOL     OW  811   0.419   1.402   1.158 -0.0547 -0.3260  0.1980
  271SOL    HW1  812   0.381   1.383   1.061 -0.4836  0.6054 -1.0357
  271SOL    HW2  813   0.355   1.364   1.235  0.3974  0.8082  0.1796
  272SOL     OW  814   2.017   2.969   1.930  0.0770  0.2946 -0.0193
  272SOL    HW1  815   1.947   2.922   1.868 -3.0608 -0.9229 -0.2275
  272SOL    HW2  816   2.093   3.015   1.866 -1.6431 -0.9030 -2.7021
  273SOL     OW  817   1.496   1.441   2.760 -0.5766  0.5473 -0.0601
  273SOL    HW1  818   1.397   1.417   2.743  0.6793 -0.9366 -0.3404
  273SOL    HW2  819   1.529   1.387   2.844  0.5734 -0.4362 -1.1595
  274SOL     OW  820   1.179   0.507   2.055 -0.2196  0.1959 -0.1838
  274SOL    HW1  821   1.107   0.434   2.056 -1.7065 -0.8907  2.4174
  274SOL    HW2  822   1.208   0.535   2.149 -0.3159 -0.5033  0.1944
  275SOL     OW  823   0.658   2.127   1.897  0.1651 -0.0003  0.2856
  275SOL    HW1  824   0.646   2.225   1.882 -0.8361  0.4913  1.3611
  275SOL    HW2  825   0.565   2.080   1.893 -0.4901 -0.8249 -1.0139
  276SOL     OW  826   2.192   1.119   2.782 -0.0323 -0.3894  0.4752
  276SOL    HW1  827   2.118   1.180   2.740 -0.4510  1.2558 -1.5825
  276SOL    HW2  828   2.158   1.027   2.812  0.0197  0.5476 -1.5354
  277SOL     OW  829  -0.001   0.785   0.241  0.2979  0.7143  0.1868
  277SOL    HW1  830   0.101   0.791   0.216  0.4456 -0.9829  0.7493
  277SOL    HW2  831  -0.018   0.715   0.317 -1.1362  0.6375  0.3477
  278SOL     OW  832   0.202   0.262   2.924  0.0023 -0.7208 -0.0860
  278SOL    HW1  833   0.269   0.185   2.933 -2.5207  0.2845  0.4284
  278SOL    HW2  834   0.245   0.353   2.954 -1.8604  0.3546  5.0020
  279SOL     OW  835   0.240   0.018   0.903  0.4840 -0.0316  0.3536
  279SOL    HW1  836   0.240  -0.045   0.980  0.5884 -0.3050 -0.4031
  279SOL    HW2  837   0.237  -0.032   0.809  0.3718 -0.0620 -0.5416
  280SOL     OW  838   1.613   2.947   2.396 -0.2843  0.2999  0.1793
  280SOL    HW1  839   1.669   3.001   2.464  2.1624 -2.8852 -0.8152
  280SOL    HW2  840   1.551   3.014   2.345 -0.8447  3.2868 -0.7123
  281SOL     OW  841   0.579   0.985   2.272 -0.3103 -0.0283  0.1777
  281SOL    HW1  842   0.545   0.908   2.213 -1.3325  1.7283 -0.0316
  281SOL    HW2  843   0.598   0.954   2.371  0.1760 -1.6804  1.4872
  282SOL     OW  844   1.785   2.477   0.498 -0.2910 -0.1647 -0.0058
  282SOL    HW1  845   1.731   2.400   0.454 -0.2548  1.1453 -1.6630
  282SOL    HW2  846   1.739   2.569   0.500 -0.2231 -1.2105  1.8401
  283SOL     OW  847   1.199   0.944   0.769 -0.4379  0.0268 -0.2913
  283SOL    HW1  848   1.238   0.894   0.852  1.0146 -0.6802 -0.1074
  283SOL    HW2  849   1.123   1.015   0.790  0.3109  2.8696 -0.5960
  284SOL     OW  850   2.254   2.804   2.490 -0.5470 -0.1593 -0.5383
  284SOL    HW1  851   2.356   2.786   2.486  1.7168 -1.3940 -0.5176
  284SOL    HW2  852   2.237   2.880   2.565 -1.3178 -0.5836  0.8136
  285SOL     OW  853   1.395   3.072   2.571  0.3350  0.2879 -0.1428
  285SOL    HW1  854   1.456   3.075   2.489  2.1097  0.2604 -0.9902
  285SOL    HW2  855   1.313   3.140   2.560 -0.1868 -0.3705  1.8692
  286SOL     OW  856   0.420   0.414   0.745 -0.0707 -0.2812 -0.1757
  286SOL    HW1  857   0.407   0.349   0.824  2.8638 -2.0494  0.8088
  286SOL    HW2  858   0.453   0.376   0.658 -0.6439  4.1611 -0.4006
  287SOL     OW  859   0.072   1.288   2.542 -0.3053  0.4676  0.7925
  287SOL    HW1  860   0.075   1.192   2.574  2.8717 -1.5001 -0.1408
  287SOL    HW2  861  -0.006   1.340   2.582  1.5096 -0.3339  0.9572
  288SOL     OW  862   1.600   2.716   1.650 -0.0004  0.4514 -0.0614
  288SOL    HW1  863   1.606   2.638   1.717  0.6419  2.4065 -0.1370
  288SOL    HW2  864   1.618   2.687   1.547 -1.2411  1.6720 -0.0283
  289SOL     OW  865   0.569   2.729   0.849  0.1783  0.5635  0.2397
  289SOL    HW1  866   0.632   2.797   0.802 -0.3262  1.2777 -0.8450
  289SOL    HW2  867   0.546   2.762   0.944  1.6526 -2.6543 -1.1396
  290SOL     OW  868   2.843   1.132   1.764 -0.3682 -0.2457 -0.5693
  290SOL    HW1  869   2.763   1.063   1.777  0.2897 -0.2520 -2.3838
  290SOL    HW2  870   2.935   1.107   1.804 -1.3391 -4.6751  1.5486
  291SOL     OW  871   1.985   3.095   0.049 -0.0742 -0.0583 -0.2570
  291SOL    HW1  872   1.985   3.116   0.156 -1.6109  0.7980  2.9346
  291SOL    HW2  873   2.046   3.154  -0.014  0.9343  0.2012  0.4622
  292SOL     OW  874   3.025   1.234   3.099 -0.0110  0.1527  0.2240
  292SOL    HW1  875   2.944   1.280   3.048 -1.0415 -0.9039  1.3724
  292SOL    HW2  876   3.119   1.248   3.046  1.9520  1.8987 -1.7587
  293SOL     OW  877   0.545   2.171   0.288  0.5897 -0.7200 -0.0803
  293SOL    HW1  878   0.476   2.229   0.341  0.8064 -0.5218  1.3682
  293SOL    HW2  879   0.638   2.180   0.326 -2.0135  0.1529 -1.2222
  294SOL     OW  880   1.823   2.322   1.786 -0.1505  0.6630  0.1530
  294SOL    HW1  881   1.843   2.385   1.859 -0.9498 -2.9377  1.2138
  294SOL    HW2  882   1.757   2.362   1.718 -1.8036  0.4326 -0.9062
  295SOL     OW  883   0.974   1.044   0.449 -0.2626 -0.4303  0.5924
  295SOL    HW1  884   1.079   1.030   0.473  0.6741  2.2200 -0.6242
  295SOL    HW2  885   0.914   1.046   0.532  2.4516  0.2093  0.1100
  296SOL     OW  886   1.188   2.134   2.707  0.0926  0.1632  0.4911
  296SOL    HW1  887   1.092   2.173   2.711 -1.2051 -1.6842 -3.6936
  296SOL    HW2  888   1.197   2.078   2.618 -1.3514  0.9505  0.1151
  297SOL     OW  889   1.361   0.576   1.296 -0.5771 -0.4825 -0.5552
  297SOL    HW1  890   1.403   0.509   1.364 -1.3802  1.6543  2.6511
  297SOL    HW2  891   1.433   0.619   1.228 -0.3435  1.4049 -2.5831
  298SOL     OW  892   0.523   1.360   2.998  0.0856  0.3341 -0.2633
  298SOL    HW1  893   0.471   1.287   3.053 -2.0187 -0.9316  1.2883
  298SOL    HW2  894   0.599   1.327   2.938 -0.3223  1.9644  0.9639
  299SOL     OW  895   0.437   0.296   1.290 -0.0876 -0.5268  0.3751
  299SOL    HW1  896   0.384   0.376   1.245 -1.4743  1.8049  1.1885
  299SOL    HW2  897   0.433   0.302   1.390 -2.1927 -0.8371 -0.0224
  300SOL     OW  898   1.264   1.726   2.569  0.0660  0.2246 -0.4013
  300SOL    HW1  899   1.241   1.633   2.530  0.1520  1.8083  1.8381
  300SOL    HW2  900   1.351   1.726   2.626  1.7190  1.3804 -0.5347
  301SOL     OW  901   0.437   0.282   0.522  0.5139 -0.0612  0.1300
  301SOL    HW1  902   0.348   0.241   0.559  1.4913  1.9604 -0.2044
  301SOL    HW2  903   0.495   0.214   0.460  0.6692  1.7936 -1.3495
  302SOL     OW  904   1.225   2.442   2.314 -0.2379  0.4050 -0.1569
  302SOL    HW1  905   1.147   2.495   2.360 -1.6556 -0.8314  1.7374
  302SOL    HW2  906   1.242   2.353   2.357 -0.9410  1.3117 -1.5941
  303SOL     OW  907   0.912   2.429   0.819  0.0539  0.2125 -0.0581
  303SOL    HW1  908   0.963   2.433   0.733 -0.4783  2.5646  1.7981
  303SOL    HW2  909   0.963   2.477   0.896  2.9442  1.7747  0.0336
  304SOL     OW  910   0.075   1.906   0.682 -0.4735  0.1066 -0.4260
  304SOL    HW1  911   0.154   1.881   0.610  0.1848 -2.9180 -1.1686
  304SOL    HW2  912   0.014   1.983   0.656  1.0611 -0.4540  1.7996
  305SOL     OW  913   1.604   0.893   0.689  0.1666  0.1518  0.6175
  305SOL    HW1  914   1.524   0.869   0.631 -1.6417 -2.4406  0.6095
  305SOL    HW2  915   1.648   0.805   0.709 -2.9580 -0.3925 -2.2878
  306SOL     OW  916   0.431   1.951   1.867 -0.1280  0.3518 -0.0784
  306SOL    HW1  917   0.496   1.874   1.841 -2.0990  2.0371  0.5954
  306SOL    HW2  918   0.427   1.971   1.969 -1.4409 -0.6387 -2.2579
  307SOL     OW  919   3.006   0.861   2.512  0.2471  0.3395 -0.4385
  307SOL    HW1  920   3.047   0.916   2.590  0.7636  0.6447  0.7973
  307SOL    HW2  921   2.927   0.802   2.540  1.1750 -0.3918 -0.7584
  308SOL     OW  922   1.589   2.668   2.814 -0.3864  0.2795  1.0586
  308SOL    HW1  923   1.610   2.600   2.738  0.7382 -1.3332 -0.0911
  308SOL    HW2  924   1.516   2.631   2.879 -1.6588 -0.8354 -2.8719
  309SOL     OW  925   1.226   0.158   1.782  0.2168 -0.2867  0.0784
  309SOL    HW1  926   1.319   0.122   1.804  1.3807 -0.2110  2.5269
  309SOL    HW2  927   1.214   0.165   1.679  3.0835 -0.5996 -0.9752
  310SOL     OW  928   1.516   2.555   0.680 -0.3507  0.3243  0.1406
  310SOL    HW1  929   1.457   2.556   0.764  2.2125  0.0440 -4.8103
  310SOL    HW2  930   1.570   2.645   0.679  0.2845  2.3754  1.7310
  311SOL     OW  931   1.142   0.963   1.749  0.0484  0.7531 -0.4883
  311SOL    HW1  932   1.093   0.887   1.798  1.2113  0.5773 -0.4558
  311SOL    HW2  933   1.197   0.929   1.669  0.2306  1.7339  1.9231
  312SOL     OW  934   1.545   0.678   1.120 -0.1431  0.0695 -0.1568
  312SOL    HW1  935   1.544   0.783   1.120 -0.4570 -0.0036 -1.2578
  312SOL    HW2  936   1.545   0.642   1.021  1.7870  2.5191  1.0163
  313SOL     OW  937   1.597   1.357   0.731  0.0506 -0.1026  0.0518
  313SOL    HW1  938   1.507   1.356   0.775 -0.8883  2.7447  0.1097
  313SOL    HW2  939   1.606   1.287   0.654 -0.0444 -2.0331  0.8391
  314SOL     OW  940   2.994   3.086   3.085 -0.3701 -0.1045  0.4503
  314SOL    HW1  941   2.997   3.101   3.189  1.5820  0.1633 -0.5027
  314SOL    HW2  942   2.907   3.033   3.065  1.5603  1.9464  1.0678
  315SOL     OW  943   1.189   0.254   2.765  0.0654 -0.1361 -0.0960
  315SOL    HW1  944   1.155   0.190   2.690  0.5535  0.8805 -0.6530
  315SOL    HW2  945   1.175   0.214   2.861 -1.8314 -0.6148  0.1863
  316SOL     OW  946   1.745   2.091   0.886  0.1956  0.2300 -0.1018
  316SOL    HW1  947   1.702   2.085   0.975 -0.3218 -1.4524 -2.4836
  316SOL    HW2  948   1.753   2.189   0.847 -0.5746  0.6580 -0.1094
  317SOL     OW  949   1.174   0.643   2.768  0.2052 -0.2763 -0.7177
  317SOL    HW1  950   1.129   0.707   2.837  1.6078  3.3897  0.1215
  317SOL    HW2  951   1.114   0.584   2.712  2.1976  0.0211  3.2415
  318SOL     OW  952   1.423   0.000   2.229  0.1142  0.1552 -0.1106
  318SOL    HW1  953   1.411   0.102   2.230 -2.2166 -1.4787  0.6889
  318SOL    HW2  954   1.395  -0.047   2.143 -0.6502  1.6146  1.6107
  319SOL     OW  955   0.640   2.326   2.905  0.5857  0.0584  0.4272
  319SOL    HW1  956   0.583   2.312   2.994  2.1155  1.6406  0.7166
  319SOL    HW2  957   0.689   2.237   2.881  1.2566  1.2350 -2.5566
  320SOL     OW  958   1.678   2.248   0.398 -0.9182  0.4753  0.0965
  320SOL    HW1  959   1.759   2.179   0.376 -0.6364  1.8674 -1.8835
  320SOL    HW2  960   1.592   2.210   0.441  3.4327  0.7901 -1.2700
  321SOL     OW  961   1.678   2.764   0.581 -0.0387  0.0252  0.1824
  321SOL    HW1  962   1.599   2.781   0.520 -0.2628  0.3743  0.4961
  321SOL    HW2  963   1.767   2.807   0.541  0.7356  0.4670 -2.9816
  322SOL     OW  964   2.598   1.125   2.318  0.0444 -0.0249 -0.4040
  322SOL    HW1  965   2.679   1.135   2.383 -0.1158 -1.6094  0.3808
  322SOL    HW2  966   2.549   1.031   2.325  1.1945  1.4535  0.8521
  323SOL     OW  967   1.166   2.652   0.823 -0.0917 -0.2070  0.0852
  323SOL    HW1  968   1.151   2.589   0.745  0.8271 -3.3735 -3.0598
  323SOL    HW2  969   1.126   2.745   0.797  1.7839  1.5888 -1.8803
  324SOL     OW  970   0.251   2.531   2.454 -0.5786  0.6693 -0.1144
  324SOL    HW1  971   0.158   2.511   2.501  0.3581  0.3313  0.0528
  324SOL    HW2  972   0.292   2.622   2.488  0.5074  2.2852 -0.5969
  325SOL     OW  973   1.244   2.998   0.467 -0.8515  0.3740 -0.4562
  325SOL    HW1  974   1.267   3.039   0.371  0.0696  0.4758 -2.8555
  325SOL    HW2  975   1.259   3.061   0.548  0.2184  0.7400  0.2323
  326SOL     OW  976   2.465   0.785   0.014  0.5100 -0.1403  0.3568
  326SOL    HW1  977   2.378   0.727   0.015 -1.8538 -1.4338  1.2922
  326SOL    HW2  978   2.535   0.740   0.082  2.3881 -1.9963  0.1804
  327SOL     OW  979   2.798   0.318   0.536 -0.2511  0.6893  0.5246
  327SOL    HW1  980   2.780   0.272   0.442  0.4243 -2.3759  0.7725
  327SOL    HW2  981   2.791   0.242   0.609  2.3118 -0.5552 -2.4916
  328SOL     OW  982   2.623   0.629   0.409  0.2422  0.4859 -0.0467
  328SOL    HW1  983   2.667   0.669   0.494  0.7036  0.5139  0.9279
  328SOL    HW2  984   2.586   0.534   0.425  2.1193  0.9676 -0.6599
  329SOL     OW  985   2.899   2.935   2.116  0.2448  0.2822 -0.1524
  329SOL    HW1  986   2.978   2.894   2.164 -2.8635 -0.2483  1.1654
  329SOL    HW2  987   2.897   3.038   2.128  0.1871 -0.3580 -1.2112
  330SOL     OW  988   0.594   0.178   1.933  0.1440 -0.0148  0.2894
  330SOL    HW1  989   0.653   0.126   1.863 -0.0119  3.2257 -1.3926
  330SOL    HW2  990   0.571   0.127   2.023 -0.7365  1.1023  0.5222
  331SOL     OW  991   3.012   1.921   1.089 -0.2628 -0.3540  0.3660
  331SOL    HW1  992   2.975   1.934   0.993  2.5417 -1.3621  1.3886
  331SOL    HW2  993   2.940   1.915   1.161  2.0221  0.0360  0.8998
  332SOL     OW  994   0.393   1.189   0.067  0.3253  0.0430 -0.0714
  332SOL    HW1  995   0.340   1.109   0.035  0.3819 -2.0419  1.2170
  332SOL    HW2  996   0.386   1.203   0.169  0.8265 -4.0885 -0.0575
  333SOL     OW  997   2.944   0.998   0.334  0.0045  0.1395  1.0175
  333SOL    HW1  998   2.980   1.084   0.386  0.3610  1.2758  0.6332
  333SOL    HW2  999   3.018   0.936   0.283  2.7517 -1.2302 -3.1914
  334SOL     OW 1000   1.722   1.277   1.808 -0.1118 -0.1225  0.6437
  334SOL    HW1 1001   1.755   1.274   1.712  0.5944  1.2217  2.6559
  334SOL    HW2 1002   1.788   1.234   1.870  0.8427 -0.0663 -0.0548
  335SOL     OW 1003   1.974   2.755   2.588 -0.2815 -0.0927 -0.1784
  335SOL    HW1 1004   1.951   2.757   2.691 -1.5198 -0.7533 -0.5650
  335SOL    HW2 1005   2.078   2.742   2.568  1.6779  0.2775  3.3791
  336SOL     OW 1006   0.245   0.021   2.714 -0.4115 -0.0890 -0.4937
  336SOL    HW1 1007   0.332   0.015   2.768 -1.9468 -1.1029 -1.7000
  336SOL    HW2 1008   0.166   0.003   2.781 -0.4199 -0.6281  0.4234
  337SOL     OW 1009   0.958   2.935   2.950 -0.9379  0.2860 -0.1537
  337SOL    HW1 1010   0.937   2.840   2.991 -2.4951 -3.9213  1.4586
  337SOL    HW2 1011   1.050   2.974   2.983  1.2323 -2.1887 -0.3080
  338SOL     OW 1012   0.058   0.986   0.687 -0.4438 -0.4849 -0.5684
  338SOL    HW1 1013  -0.035   0.965   0.721  1.5460 -1.1482  1.1957
  338SOL    HW2 1014   0.072   1.090   0.685  0.4768  0.3684  0.9063
  339SOL     OW 1015   1.713   1.366   2.169 -0.1680  0.4432  0.1343
  339SOL    HW1 1016   1.647   1.405   2.096  0.8492 -2.0400  0.9805
  339SOL    HW2 1017   1.759   1.437   2.232 -1.3316 -3.1902  2.4605
  340SOL     OW 1018   2.252   0.765   1.173 -0.5925  0.3623  0.1612
  340SOL    HW1 1019   2.152   0.789   1.158 -1.6745  0.3760  1.3969
  340SOL    HW2 1020   2.272   0.662   1.157 -2.3646  0.1290 -0.6319
  341SOL     OW 1021   1.926   2.118   0.337 -0.3430 -0.0697  0.3012
  341SOL    HW1 1022   1.938   2.139   0.236  0.0617 -0.4231  0.1260
  341SOL    HW2 1023   2.018   2.096   0.383 -2.3542 -2.7959 -1.1892
  342SOL     OW 1024   2.162   2.139   2.767  0.2927  0.1610 -0.4529
  342SOL    HW1 1025   2.215   2.051   2.784  0.3198  1.3654  1.8986
  342SOL    HW2 1026   2.067   2.120   2.723 -0.9695 -2.7226  0.7316
  343SOL     OW 1027   0.417   0.786   2.770  0.3860 -0.3441  0.0825
  343SOL    HW1 1028   0.443   0.843   2.684  0.3022  2.7418  0.0855
  343SOL    HW2 1029   0.497   0.779   2.832  0.8681 -0.4264 -0.6656
  344SOL     OW 1030   1.889   1.497   0.394  0.1134 -0.0119 -0.6935
  344SOL    HW1 1031   1.914   1.410   0.341 -1.6738 -1.2009  0.3339
  344SOL    HW2 1032   1.791   1.502   0.431  1.2563  2.4585  0.3198
  345SOL     OW 1033   1.405   2.246   2.871  0.4083 -0.4705 -0.0255
  345SOL    HW1 1034   1.323   2.236   2.808  0.2423  2.5593  0.1238
  345SOL    HW2 1035   1.476   2.177   2.845  0.9973 -1.9716  2.0796
  346SOL     OW 1036   2.333   0.918   1.398  0.1935 -0.3834  0.1089
  346SOL    HW1 1037   2.294   0.997   1.451 -0.2304 -0.1137 -0.8808
  346SOL    HW2 1038   2.285   0.893   1.312 -0.4688 -0.6635 -0.8312
  347SOL     OW 1039   0.727   2.726   1.620 -0.3994 -0.2239 -0.6838
  347SOL    HW1 1040   0.678   2.755   1.706 -1.4115 -0.3702  0.7121
  347SOL    HW2 1041   0.670   2.746   1.537 -0.5844 -0.7765  1.4887
  348SOL     OW 1042   0.172   0.786   2.902 -0.1721  0.0553 -0.6796
  348SOL    HW1 1043   0.091   0.736   2.864 -2.6965  0.7569 -0.6997
  348SOL    HW2 1044   0.257   0.776   2.837  1.5478  1.3423 -2.1097
  349SOL     OW 1045   1.825   0.438   2.784 -0.2621  0.6875  0.2372
  349SOL    HW1 1046   1.821   0.518   2.715 -0.9055  0.5013 -0.2867
  349SOL    HW2 1047   1.828   0.475   2.878 -1.6070 -1.3931 -0.2339
  350SOL     OW 1048   1.663   0.378   0.360  0.4197 -0.5124 -0.1959
  350SOL    HW1 1049   1.726   0.383   0.443 -1.4235  1.4242 -0.0415
  350SOL    HW2 1050   1.665   0.469   0.306  0.8975 -2.4923  0.2151
  351SOL     OW 1051   0.939   0.841   2.089 -0.2469 -0.2171 -0.0709
  351SOL    HW1 1052   0.982   0.930   2.101 -1.8086 -0.6634  0.0536
  351SOL    HW2 1053   0.974   0.791   2.004  0.1002 -2.0409  1.4322
  352SOL     OW 1054   2.086   1.374   0.569  0.0708  0.1491 -0.3195
  352SOL    HW1 1055   2.051   1.461   0.529  0.5359 -0.9183  0.6515
  352SOL    HW2 1056   2.012   1.343   0.637  0.9909 -2.1117  0.5812
  353SOL     OW 1057   2.203   2.821   1.054  0.1549 -0.7995  0.2681
  353SOL    HW1 1058   2.261   2.763   1.119 -1.2564  0.5590  0.0086
  353SOL    HW2 1059   2.103   2.799   1.075  2.6695  0.8998  1.0668
  354SOL     OW 1060   0.278   1.443   2.861 -0.2000  0.3812  0.1318
  354SOL    HW1 1061   0.271   1.514   2.782  0.9238  2.7570  1.9144
  354SOL    HW2 1062   0.375   1.427   2.901  0.7881 -1.5273  2.0517
  355SOL     OW 1063   0.740   1.589   0.582 -0.0585 -0.0710  0.4873
  355SOL    HW1 1064   0.716   1.550   0.674 -0.4619  2.1495  0.1058
  355SOL    HW2 1065   0.705   1.524   0.507 -1.0127  0.2598  1.1613
  356SOL     OW 1066   0.856   0.309   2.033 -0.1723 -0.3881 -0.0940
  356SOL    HW1 1067   0.945   0.263   2.034 -2.8784  1.8452  0.7916
  356SOL    HW2 1068   0.798   0.288   1.951  0.2402  0.4499 -0.3718
  357SOL     OW 1069   1.035   1.325   0.361  0.0815  0.1040  0.1762
  357SOL    HW1 1070   1.129   1.306   0.314 -1.3419  2.1402 -4.2516
  357SOL    HW2 1071   0.982   1.236   0.384 -2.1070 -0.7167  1.0567
  358SOL     OW 1072   1.638   1.530   0.493 -0.2833 -0.3087  0.2997
  358SOL    HW1 1073   1.627   1.495   0.596 -2.1198 -1.8488  1.7988
  358SOL    HW2 1074   1.557   1.509   0.427 -1.8151  0.6494  0.2083
  359SOL     OW 1075   1.589   2.607   0.267 -0.4069 -0.0422  0.7856
  359SOL    HW1 1076   1.556   2.513   0.234  1.3099 -1.3998 -1.3557
  359SOL    HW2 1077   1.526   2.659   0.334 -0.8614 -1.6057 -0.5253
  360SOL     OW 1078   0.766   0.537   0.553  0.5569 -0.4999  0.4778
  360SOL    HW1 1079   0.688   0.535   0.484 -5.0047  0.7066  1.0132
  360SOL    HW2 1080   0.799   0.441   0.570  0.5017  0.1745  0.3263
  361SOL     OW 1081   1.310   1.275   0.645  0.0679  0.0180 -0.5151
  361SOL    HW1 1082   1.304   1.258   0.747  1.1636  0.1039  2.6515
  361SOL    HW2 1083   1.250   1.353   0.618  0.2388  1.3966  0.9876
  362SOL     OW 1084   1.379   1.751   0.727  0.0596 -0.0707 -0.1843
  362SOL    HW1 1085   1.425   1.709   0.811  1.5068 -2.6741 -1.8024
  362SOL    HW2 1086   1.445   1.788   0.658 -0.4762  2.1122 -1.0990
  363SOL     OW 1087   1.225   1.305   2.070 -0.2179 -0.3523 -0.0977
  363SOL    HW1 1088   1.321   1.330   2.081 -2.5733 -0.7607 -2.5532
  363SOL    HW2 1089   1.164   1.384   2.092  1.1306 -1.9908  1.1135
  364SOL     OW 1090   0.510   2.362   2.032  0.0582  0.0187  0.2706
  364SOL    HW1 1091   0.408   2.372   2.041  0.8905  1.4799  2.5677
  364SOL    HW2 1092   0.550   2.419   1.955  0.6124 -1.6658 -1.1375
  365SOL     OW 1093   1.044   1.970   1.340  0.5432  0.2996  0.0258
  365SOL    HW1 1094   0.944   1.962   1.372  0.0361  2.1876  0.0612
  365SOL    HW2 1095   1.057   2.038   1.264  0.0088  0.2138 -0.1812
  366SOL     OW 1096   2.853   1.946   0.369 -0.0742  0.0721  0.2182
  366SOL    HW1 1097   2.764   1.946   0.324  2.4241  2.0651 -1.7868
  366SOL    HW2 1098   2.913   1.866   0.340  2.2740 -0.0410 -1.5168
  367SOL     OW 1099   0.962   1.186   0.033 -0.7596 -0.2012 -0.0605
  367SOL    HW1 1100   0.948   1.130   0.119  0.6302  0.1786  0.5940
  367SOL    HW2 1101   1.060   1.217   0.013  1.1329 -1.0618  1.4755
  368SOL     OW 1102   1.448   0.520   0.608  0.8922 -0.3152 -0.3335
  368SOL    HW1 1103   1.365   0.540   0.546 -2.4452 -1.0800 -2.0683
  368SOL    HW2 1104   1.535   0.578   0.593  2.5217  0.4262 -3.0242
  369SOL     OW 1105   0.379   1.742   0.185  0.1660 -0.2902  0.2226
  369SOL    HW1 1106   0.403   1.807   0.267 -2.3253 -1.0993  1.0687
  369SOL    HW2 1107   0.317   1.666   0.217  1.9237 -1.8587 -0.9786
  370SOL     OW 1108   0.433   2.094   1.036 -0.3754  0.3254 -0.1672
  370SOL    HW1 1109   0.450   2.195   1.023 -3.9778  1.5916  0.9453
  370SOL    HW2 1110   0.350   2.058   0.990  3.3981  0.6576  0.4029
  371SOL     OW 1111   2.864   2.214   2.622  0.0004  0.2861  0.1282
  371SOL    HW1 1112   2.791   2.154   2.661 -2.4899 -0.2059 -0.3580
  371SOL    HW2 1113   2.893   2.292   2.684 -0.6965 -1.0099  2.9820
  372SOL     OW 1114   1.070   2.073   1.024 -0.2614  0.6845  0.9426
  372SOL    HW1 1115   0.979   2.109   0.993  0.7516  0.0454 -1.0931
  372SOL    HW2 1116   1.143   2.086   0.952 -0.4867 -1.4390  2.3868
  373SOL     OW 1117   1.924   1.915   0.983  0.0899 -0.3987  0.8183
  373SOL    HW1 1118   2.024   1.949   0.984  0.1982  0.7492 -0.0043
  373SOL    HW2 1119   1.869   1.998   0.945  0.2588  0.7473  1.7141
  374SOL     OW 1120   1.864   0.399   0.564  0.2400  0.4102 -0.0544
  374SOL    HW1 1121   1.851   0.386   0.666 -2.4730  0.0773  1.4926
  374SOL    HW2 1122   1.958   0.411   0.529 -2.9814 -1.1483  0.4145
  375SOL     OW 1123   2.402   2.169   1.076  0.0390  0.4384 -0.3485
  375SOL    HW1 1124   2.435   2.125   0.989 -2.1416 -0.6028  0.9782
  375SOL    HW2 1125   2.478   2.171   1.149 -0.7409  0.2356 -1.5739
  376SOL     OW 1126   3.044   0.520   1.450  0.2925  0.6433 -0.8639
  376SOL    HW1 1127   3.048   0.611   1.494  0.9014 -0.7315 -4.0592
  376SOL    HW2 1128   2.958   0.463   1.478 -0.6407 -0.6346 -3.2045
  377SOL     OW 1129   2.174   2.921   0.308 -0.1483  0.2533 -0.0824
  377SOL    HW1 1130   2.149   3.016   0.337  0.3512  0.6591  0.0743
  377SOL    HW2 1131   2.267   2.891   0.352 -0.0297 -1.2027  0.2893
  378SOL     OW 1132   1.748   1.829   2.525 -0.3716 -0.2529 -0.2437
  378SOL    HW1 1133   1.827   1.865   2.470  4.6905 -1.3616  0.7754
  378SOL    HW2 1134   1.692   1.762   2.471  2.2756 -3.9700  1.0009
  379SOL     OW 1135   0.705   0.148   2.840  0.4812  0.2929 -0.2355
  379SOL    HW1 1136   0.767   0.089   2.779  0.6813 -2.3430 -0.0359
  379SOL    HW2 1137   0.663   0.227   2.784 -1.4138 -1.7704  1.3098
  380SOL     OW 1138   1.579   1.143   0.553  0.0772  0.1117 -0.7171
  380SOL    HW1 1139   1.482   1.175   0.543  1.4737  0.6693 -0.1002
  380SOL    HW2 1140   1.591   1.046   0.593  1.6048 -0.4922 -2.0867
  381SOL     OW 1141   1.351   1.201   1.574 -0.1732  0.1985  0.0241
  381SOL    HW1 1142   1.403   1.142   1.503  0.5170 -0.8114 -0.0776
  381SOL    HW2 1143   1.410   1.272   1.617  2.4064 -0.2459 -2.3998
  382SOL     OW 1144   1.832   0.888   0.213  0.2785  0.3449  0.2141
  382SOL    HW1 1145   1.866   0.851   0.122 -1.5327 -0.7923  0.4316
  382SOL    HW2 1146   1.895   0.874   0.296 -2.4655 -0.6313  0.5431
  383SOL     OW 1147   2.592   1.005   1.479  0.2140  0.0919  0.2528
  383SOL    HW1 1148   2.495   0.982   1.435  1.0477  2.5753  0.1288
  383SOL    HW2 1149   2.668   0.994   1.409  0.0854 -0.9877  1.6785
  384SOL     OW 1150   0.901   2.232   0.179 -0.8770 -0.1591  0.2042
  384SOL    HW1 1151   0.855   2.322   0.200  1.2170  2.0023 -0.9432
  384SOL    HW2 1152   0.867   2.152   0.235 -0.2414  2.7695  2.0233
  385SOL     OW 1153   2.969   2.000   1.661  0.0348 -0.2469  0.1180
  385SOL    HW1 1154   3.026   2.081   1.648  1.6546  0.1259 -0.5457
  385SOL    HW2 1155   3.026   1.913   1.656  2.6121 -0.2540 -3.9207
  386SOL     OW 1156   0.499   1.072   0.468 -0.8857  0.6722 -0.1505
  386SOL    HW1 1157   0.473   0.974   0.499 -0.5271 -3.4760  1.6350
  386SOL    HW2 1158   0.423   1.116   0.414  0.1892 -1.5100 -0.1598
  387SOL     OW 1159   0.914   0.412   1.671  0.0759  0.1274 -0.6158
  387SOL    HW1 1160   0.964   0.499   1.673 -1.9149  1.5412  1.2492
  387SOL    HW2 1161   0.927   0.364   1.579  2.1644 -1.4255 -0.1743
  388SOL     OW 1162   1.193   2.721   1.727 -0.3937  0.6216  0.0255
  388SOL    HW1 1163   1.214   2.702   1.627  4.2272  1.9303  0.2100
  388SOL    HW2 1164   1.247   2.662   1.795 -0.9799 -0.8875  3.3398
  389SOL     OW 1165   0.148   2.992   1.242 -0.6917 -0.8996  0.6116
  389SOL    HW1 1166   0.051   3.016   1.230  1.3699  0.1661  0.9462
  389SOL    HW2 1167   0.162   2.890   1.250 -0.5382  1.3960  0.6770
  390SOL     OW 1168   1.046   0.968   1.302  0.4445 -0.0015  0.0677
  390SOL    HW1 1169   1.135   0.930   1.333  0.6998 -0.6441  0.0506
  390SOL    HW2 1170   1.005   1.043   1.363 -0.5695  0.2774 -3.0606
  391SOL     OW 1171   2.192   1.118   1.083 -0.1871 -0.1354 -0.0585
  391SOL    HW1 1172   2.121   1.041   1.092 -1.8317 -2.0706  2.8691
  391SOL    HW2 1173   2.245   1.114   0.990  0.2320 -0.7928  0.2012
  392SOL     OW 1174   0.868   2.660   3.056  0.6736 -0.2792 -0.6197
  392SOL    HW1 1175   0.957   2.603   3.054 -2.6455  0.3899 -1.1087
  392SOL    HW2 1176   0.811   2.649   3.145 -1.3431 -2.6249 -0.1792
  393SOL     OW 1177   0.380   0.568   1.975 -0.6708 -0.5923  0.1443
  393SOL    HW1 1178   0.292   0.518   1.976 -1.3159 -2.0399 -0.9345
  393SOL    HW2 1179   0.452   0.527   1.910 -3.7060 -1.0639  1.5239
  394SOL     OW 1180   2.962   1.911   2.793  0.3201  0.5892  0.1732
  394SOL    HW1 1181   3.050   1.929   2.839  2.3326  0.5482 -0.6631
  394SOL    HW2 1182   2.970   1.918   2.689  0.4977  0.2470 -0.1856
  395SOL     OW 1183   1.598   1.988   0.665 -0.0903  0.0608 -0.0145
  395SOL    HW1 1184   1.646   1.916   0.609  0.2122  2.2504 -0.9447
  395SOL    HW2 1185   1.657   2.037   0.734 -0.7089  0.2230 -0.3330
  396SOL     OW 1186   2.810   1.854   1.275  0.0064 -0.0976 -0.2098
  396SOL    HW1 1187   2.819   1.753   1.264  1.3100 -1.3430  1.4795
  396SOL    HW2 1188   2.774   1.873   1.368  2.0061 -0.1725 -1.4047
  397SOL     OW 1189   1.045   2.221   0.492 -0.2788 -0.3107  0.1435
  397SOL    HW1 1190   0.947   2.196   0.500 -1.8827  0.8504 -1.9406
  397SOL    HW2 1191   1.062   2.317   0.526  0.7324 -1.5567  0.2548
  398SOL     OW 1192   2.169   3.095   1.017 -0.2953  0.5271 -0.6116
  398SOL    HW1 1193   2.165   3.006   1.068  2.6321 -0.2685  0.9207
  398SOL    HW2 1194   2.082   3.151   1.027  1.2077 -0.4058  2.8095
  399SOL     OW 1195   3.069   2.452   2.550  0.6624 -0.5782  0.8110
  399SOL    HW1 1196   2.971   2.464   2.541  0.3335  0.0539  0.0719
  399SOL    HW2 1197   3.096   2.371   2.611  0.3345 -0.1549 -0.0959
  400SOL     OW 1198   0.788   1.626   1.333  0.6404  0.3498  0.2444
  400SOL    HW1 1199   0.747   1.652   1.424 -0.1857  1.1392  0.2765
  400SOL    HW2 1200   0.829   1.710   1.284 -0.7689 -0.0350  0.3208
  401SOL     OW 1201   1.862   0.090   1.300  0.0149  0.4847 -0.6783
  401SOL    HW1 1202   1.919   0.096   1.384  0.7294 -0.4706 -4.7690
  401SOL    HW2 1203   1.760   0.084   1.317  0.7060  0.3008  0.0461
  402SOL     OW 1204   1.301   0.143   3.090 -0.2223 -0.2922  0.3514
  402SOL    HW1 1205   1.389   0.128   3.030 -1.8300 -1.2893  0.1813
  402SOL    HW2 1206   1.273   0.245   3.086 -0.1889 -0.4990 -2.1094
  403SOL     OW 1207   2.293   1.762   0.974 -0.2281  0.2982  0.0619
  403SOL    HW1 1208   2.399   1.758   0.981  2.2206 -1.6187  0.6022
  403SOL    HW2 1209   2.250   1.851   1.016 -0.0600  0.4937 -1.1723
  404SOL     OW 1210   0.162   2.493   2.793  0.0432 -0.7672  0.1607
  404SOL    HW1 1211   0.261   2.464   2.778 -0.9888  0.8996 -2.6024
  404SOL    HW2 1212   0.159   2.594   2.801  0.2865 -3.5250 -0.1561
  405SOL     OW 1213   0.137   2.441   0.711 -0.2435  0.4454 -0.6734
  405SOL    HW1 1214   0.108   2.374   0.635  0.2735 -2.1819 -4.0515
  405SOL    HW2 1215   0.196   2.517   0.683  1.4701  0.9413  1.9067
  406SOL     OW 1216   0.097   1.521   3.039 -0.0992 -0.1420 -0.5336
  406SOL    HW1 1217   0.172   1.485   2.968  2.4431  1.4370 -1.3065
  406SOL    HW2 1218   0.131   1.531   3.133 -1.8872  1.3291 -0.9305
  407SOL     OW 1219   1.529   0.923   1.013  0.3142 -0.3161 -0.0050
  407SOL    HW1 1220   1.514   0.896   0.911  0.1406 -1.7698  0.3052
  407SOL    HW2 1221   1.477   1.006   1.037 -1.1638 -0.1313  1.8878
  408SOL     OW 1222   1.615   2.432   0.951 -0.1927  0.4320  0.3137
  408SOL    HW1 1223   1.674   2.398   0.874 -1.4069  1.3863  0.9767
  408SOL    HW2 1224   1.583   2.531   0.941  0.1912  1.2272  0.7987
  409SOL     OW 1225   0.615   0.824   0.747  0.2661  0.1242  0.3850
  409SOL    HW1 1226   0.565   0.795   0.661  4.1390 -0.5594  0.4651
  409SOL    HW2 1227   0.648   0.738   0.799  0.2602 -2.5332 -2.2162
  410SOL     OW 1228   1.318   2.044   1.399  0.0210 -0.9544 -0.2818
  410SOL    HW1 1229   1.384   1.978   1.431 -2.6787  0.8246 -0.5585
  410SOL    HW2 1230   1.223   2.002   1.386 -0.2796  0.4060 -0.3772
  411SOL     OW 1231   2.609   1.897   3.056  0.5169 -0.1259  0.1222
  411SOL    HW1 1232   2.513   1.930   3.041  1.1435  0.1679  0.0953
  411SOL    HW2 1233   2.654   1.866   2.967 -0.4373  1.2617  0.3234
  412SOL     OW 1234   1.475   2.472   2.168  0.2943  0.2558 -0.0054
  412SOL    HW1 1235   1.533   2.546   2.208  0.1438  1.5464  1.4756
  412SOL    HW2 1236   1.388   2.463   2.224  0.6411 -0.3930  0.7898
  413SOL     OW 1237   3.039   0.218   2.926  0.0365  0.3177 -0.6468
  413SOL    HW1 1238   3.005   0.130   2.969  0.6649  1.2390  0.6220
  413SOL    HW2 1239   3.141   0.229   2.929 -1.7292 -2.2031  1.6303
  414SOL     OW 1240   1.894   1.531   1.196  0.8316  0.5216  0.0341
  414SOL    HW1 1241   1.851   1.614   1.140 -0.4277 -0.4065 -0.8959
  414SOL    HW2 1242   1.830   1.469   1.244  1.7481  1.2940  3.1407
  415SOL     OW 1243   0.339   2.245   0.691  0.2083  0.0576  0.5236
  415SOL    HW1 1244   0.291   2.336   0.695 -1.1224 -1.3866  2.3190
  415SOL    HW2 1245   0.283   2.172   0.748 -4.0188 -1.6463  0.5768
  416SOL     OW 1246   0.380   1.071   1.060 -0.2086  0.5817 -0.0490
  416SOL    HW1 1247   0.347   1.018   0.973  0.3119 -0.9575 -2.7591
  416SOL    HW2 1248   0.479   1.101   1.046  2.5356  2.0672 -1.0404
  417SOL     OW 1249   2.234   2.311   2.021 -0.0415 -0.5659  0.0557
  417SOL    HW1 1250   2.328   2.281   2.052 -0.4750  0.1107 -0.4914
  417SOL    HW2 1251   2.154   2.260   2.064  1.4198  3.9134  1.1586
  418SOL     OW 1252   1.087   0.554   1.351  0.5094  0.4567 -0.4412
  418SOL    HW1 1253   1.032   0.521   1.274 -2.1128 -0.0489  0.2541
  418SOL    HW2 1254   1.188   0.561   1.336 -1.2358 -0.3144  1.3941
  419SOL     OW 1255   0.945   0.496   3.000  0.6126  0.4065 -0.3850
  419SOL    HW1 1256   0.862   0.502   2.935  1.3889 -0.4761  1.7407
  419SOL    HW2 1257   0.990   0.591   3.017 -3.5016  0.7885  0.3602
  420SOL     OW 1258   0.107   2.260   0.500 -0.0492  0.2290  0.5866
  420SOL    HW1 1259   0.145   2.261   0.404  1.6386 -1.3501  2.3034
  420SOL    HW2 1260   0.021   2.202   0.513 -0.9296  0.6037  1.1606
  421SOL     OW 1261   0.324   3.009   0.646 -0.3599 -0.0986 -0.2090
  421SOL    HW1 1262   0.292   2.927   0.706 -3.4215  0.4061  2.3875
  421SOL    HW2 1263   0.427   3.031   0.650 -0.2386 -2.3489 -1.2163
  422SOL     OW 1264   1.046   2.526   1.048 -0.1481  0.5317 -0.4972
  422SOL    HW1 1265   1.109   2.590   0.998 -0.1669  1.6408  1.3075
  422SOL    HW2 1266   1.038   2.557   1.149 -3.9668  1.3157 -1.0265
  423SOL     OW 1267   0.120   0.696   1.298  0.0881  0.2895 -0.2061
  423SOL    HW1 1268   0.049   0.629   1.314  2.3919 -0.6916 -1.0255
  423SOL    HW2 1269   0.090   0.784   1.255  2.3088  0.2280  2.5292
  424SOL     OW 1270   1.002   2.256   2.044  0.3510 -0.1893  0.0812
  424SOL    HW1 1271   1.011   2.360   2.035  0.4620 -0.3886 -0.9581
  424SOL    HW2 1272   0.988   2.224   2.139 -0.8147 -0.8013 -1.4312
  425SOL     OW 1273   1.996   1.311   1.007 -0.4272 -0.6655  0.0893
  425SOL    HW1 1274   2.076   1.257   1.040 -0.6700  1.6428 -0.6182
  425SOL    HW2 1275   2.030   1.407   0.981  1.0105  0.2240  0.3384
  426SOL     OW 1276   1.492   1.591   1.360  0.4372  0.8427 -0.2445
  426SOL    HW1 1277   1.474   1.667   1.289 -0.3814 -0.7722  2.0019
  426SOL    HW2 1278   1.427   1.607   1.442 -2.2701 -1.2649  1.9430
  427SOL     OW 1279   1.919   2.359   2.066  0.3858 -0.2926  0.3784
  427SOL    HW1 1280   1.978   2.288   2.111 -1.8865  2.4715  0.1611
  427SOL    HW2 1281   1.951   2.457   2.082  1.2627  1.0971 -1.7598
  428SOL     OW 1282   0.847   3.097   0.162  0.2754 -0.7155  0.4049
  428SOL    HW1 1283   0.848   3.187   0.108 -1.4496  0.2436 -0.9741
  428SOL    HW2 1284   0.939   3.043   0.148  3.3304  0.7735 -1.1953
  429SOL     OW 1285   1.295   0.073   0.260 -0.1050  0.1228  0.2553
  429SOL    HW1 1286   1.393   0.100   0.286  1.0197 -1.1435  0.2254
  429SOL    HW2 1287   1.271   0.090   0.160  0.6622  1.2379 -0.5775
  430SOL     OW 1288   2.783   1.430   0.319  0.5703 -0.2626 -0.0986
  430SOL    HW1 1289   2.842   1.469   0.240 -0.9635 -0.5229  1.7253
  430SOL    HW2 1290   2.830   1.449   0.409  2.2492  0.2060  0.8854
  431SOL     OW 1291   2.120   1.559   0.865  0.5056 -0.0655  0.0297
  431SOL    HW1 1292   2.188   1.620   0.916 -2.1971 -1.0181  2.0174
  431SOL    HW2 1293   2.060   1.608   0.794 -1.7772  0.5937 -0.3746
  432SOL     OW 1294   2.869   2.239   1.214  0.6181 -0.0347 -1.0720
  432SOL    HW1 1295   2.889   2.141   1.196  2.0238  2.7811 -2.1229
  432SOL    HW2 1296   2.953   2.283   1.258 -0.3244 -2.2944  0.3437
  433SOL     OW 1297   1.836   0.361   0.838 -0.4124 -0.4886 -0.0638
  433SOL    HW1 1298   1.755   0.395   0.900  2.0746  0.2897 -0.7722
  433SOL    HW2 1299   1.903   0.304   0.886 -1.5374  1.4364 -0.7569
  434SOL     OW 1300   1.506   0.266   0.709 -0.0313  0.9347 -0.8217
  434SOL    HW1 1301   1.473   0.345   0.645 -0.7306 -1.7010 -0.9892
  434SOL    HW2 1302   1.535   0.308   0.800  1.0895  1.5816  0.1669
  435SOL     OW 1303   1.453   1.495   2.077 -0.2259  0.2561 -0.1359
  435SOL    HW1 1304   1.429   1.546   2.161 -2.0933  0.1262 -0.6875
  435SOL    HW2 1305   1.497   1.558   2.012 -3.5277 -0.6956  2.8835
  436SOL     OW 1306   1.706   2.733   2.255 -0.2304  0.1707  0.6273
  436SOL    HW1 1307   1.665   2.816   2.307 -0.4096 -0.2185  0.6384
  436SOL    HW2 1308   1.728   2.658   2.322  1.5626  1.2762  0.5312
  437SOL     OW 1309   1.103   2.951   0.956 -0.5091 -0.0284 -0.3171
  437SOL    HW1 1310   1.068   3.045   0.928 -0.1749  0.1337  1.1131
  437SOL    HW2 1311   1.087   2.939   1.060  0.7661 -1.7834  0.5430
  438SOL     OW 1312   0.997   2.591   1.308  0.0385  0.0282  0.2228
  438SOL    HW1 1313   1.067   2.622   1.376 -0.3515 -1.1543  1.7789
  438SOL    HW2 1314   0.969   2.491   1.321 -0.8490  2.3469  1.0657
  439SOL     OW 1315   0.678   1.773   1.092  0.2094  0.2227  0.2056
  439SOL    HW1 1316   0.660   1.849   1.024 -1.5666 -0.5702  1.0758
  439SOL    HW2 1317   0.593   1.748   1.149 -0.6464 -0.6738 -0.3702
  440SOL     OW 1318   1.017   2.496   1.949  0.5918  0.6763 -0.0572
  440SOL    HW1 1319   0.982   2.531   1.858 -2.0492 -1.6743  0.8102
  440SOL    HW2 1320   1.117   2.497   1.948  0.6959 -2.5034 -0.5919
  441SOL     OW 1321   0.511   2.735   1.432  0.1633 -0.2916 -0.0624
  441SOL    HW1 1322   0.570   2.648   1.418 -0.2388 -0.5016 -0.1349
  441SOL    HW2 1323   0.418   2.708   1.454 -1.3505  0.4984 -2.0324
  442SOL     OW 1324   2.270   0.710   2.508 -0.1411  0.2036  0.3111
  442SOL    HW1 1325   2.271   0.613   2.545 -0.3268  1.8752 -0.7597
  442SOL    HW2 1326   2.178   0.741   2.471 -0.9580  0.1181  1.5514
  443SOL     OW 1327   1.231   2.719   2.137 -0.4133  0.2067 -0.5685
  443SOL    HW1 1328   1.221   2.768   2.228  2.1214 -0.3336  1.4752
  443SOL    HW2 1329   1.240   2.618   2.161 -3.8042  2.6284  0.2260
  444SOL     OW 1330   1.079   1.266   1.587  0.5332  0.0964 -0.0083
  444SOL    HW1 1331   1.160   1.206   1.590 -0.5930  0.5659  2.6793
  444SOL    HW2 1332   1.098   1.349   1.643  3.1693  0.1884 -1.2159
  445SOL     OW 1333   0.014   2.348   1.868  0.1702 -0.4677  0.1304
  445SOL    HW1 1334  -0.004   2.450   1.842 -0.1830 -0.5144 -1.9202
  445SOL    HW2 1335  -0.050   2.315   1.946  0.7365 -0.6655  2.7534
  446SOL     OW 1336   0.215   1.924   2.321 -0.2251 -0.0785  0.3747
  446SOL    HW1 1337   0.184   2.012   2.361 -0.8408  0.8953 -1.6357
  446SOL    HW2 1338   0.169   1.908   2.231 -1.4187  2.0220 -0.9063
  447SOL     OW 1339   1.169   1.693   1.936  0.2940 -0.1433  0.2270
  447SOL    HW1 1340   1.100   1.771   1.913  1.8840  0.1766 -0.4634
  447SOL    HW2 1341   1.255   1.733   1.973  2.2356 -0.8163 -2.2178
  448SOL     OW 1342   0.167   1.549   2.041 -0.0902  0.0960  0.2803
  448SOL    HW1 1343   0.166   1.628   1.976  3.0816 -2.3882 -0.9585
  448SOL    HW2 1344   0.122   1.570   2.130 -0.7837 -0.0337  3.5912
  449SOL     OW 1345   1.974   2.946   0.824 -0.0893  0.3395 -0.3378
  449SOL    HW1 1346   2.044   2.960   0.899  0.5746 -1.4762 -0.7973
  449SOL    HW2 1347   1.967   2.845   0.812  2.1003  0.8775  3.4561
  450SOL     OW 1348   2.340   1.342   0.760 -0.4505 -0.1055  0.2988
  450SOL    HW1 1349   2.293   1.253   0.771  1.1523 -0.0153  1.7443
  450SOL    HW2 1350   2.293   1.406   0.692  0.0546 -3.4717 -0.4264
  451SOL     OW 1351   1.342   3.095   1.431  1.0678  0.5687 -0.0680
  451SOL    HW1 1352   1.296   3.186   1.453  1.3199 -0.2847  0.6045
  451SOL    HW2 1353   1.394   3.054   1.515  1.1832 -0.9149 -0.9413
  452SOL     OW 1354   2.667   2.292   2.175 -0.7357  0.0282  0.0287
  452SOL    HW1 1355   2.609   2.370   2.210 -0.2523 -0.0155  0.1575
  452SOL    HW2 1356   2.712   2.232   2.247  1.1923  1.8678 -0.9620
  453SOL     OW 1357   2.446   2.668   3.053 -0.2300  0.2908  0.0124
  453SOL    HW1 1358   2.353   2.699   3.078 -1.8790 -0.4487 -2.3735
  453SOL    HW2 1359   2.437   2.595   2.982  1.8467 -0.5254  0.6731
  454SOL     OW 1360   1.044   1.109   2.072 -0.0923 -0.0957  0.3386
  454SOL    HW1 1361   0.996   1.102   1.977 -1.3616 -0.1794  0.7335
  454SOL    HW2 1362   1.117   1.187   2.075  0.1997  0.1517  3.6732
  455SOL     OW 1363   0.620   2.609   2.900  0.4624  0.1113  0.1303
  455SOL    HW1 1364   0.716   2.638   2.919 -0.7982  0.3624 -0.2596
  455SOL    HW2 1365   0.607   2.505   2.907  2.2872 -0.7631  0.2178
  456SOL     OW 1366   0.504   1.912   0.373  0.0919  0.2218  0.4075
  456SOL    HW1 1367   0.596   1.879   0.418  1.0183 -2.3654  2.2042
  456SOL    HW2 1368   0.517   2.003   0.320 -0.5415 -1.0967  0.2687
  457SOL     OW 1369   0.356   2.626   0.732 -0.1804  0.1421 -0.1425
  457SOL    HW1 1370   0.330   2.662   0.636  2.1956 -1.6431  1.4368
  457SOL    HW2 1371   0.454   2.656   0.765  1.3567  1.5337  1.7719
  458SOL     OW 1372   2.954   3.092   1.205 -0.0832 -1.1362 -0.2403
  458SOL    HW1 1373   2.951   3.196   1.223 -0.7153  0.9909  2.5305
  458SOL    HW2 1374   2.957   3.057   1.105  0.0259 -0.3303 -0.5739
  459SOL     OW 1375   2.199   2.524   0.818  0.5555  0.1981 -0.4843
  459SOL    HW1 1376   2.226   2.590   0.891 -1.0399  0.1190  2.5559
  459SOL    HW2 1377   2.277   2.502   0.756  1.7085 -0.2839  2.1235
  460SOL     OW 1378   1.132   1.952   2.926  0.3351 -0.5776  0.6116
  460SOL    HW1 1379   1.170   2.025   2.863 -1.3361  0.7325  0.3703
  460SOL    HW2 1380   1.199   1.887   2.964  2.8102 -0.3502  0.6369
  461SOL     OW 1381   0.494   2.123   2.681 -0.4577  0.3628 -0.1319
  461SOL    HW1 1382   0.448   2.044   2.633 -0.4904  1.9064 -2.4108
  461SOL    HW2 1383   0.548   2.089   2.765  1.1861 -0.3565  0.8596
  462SOL     OW 1384   0.922   1.137   1.826  0.0834  0.4758  0.0120
  462SOL    HW1 1385   0.987   1.103   1.758 -0.3797  2.1240 -0.7747
  462SOL    HW2 1386   0.884   1.233   1.792  2.4463  1.7092  0.5512
  463SOL     OW 1387   0.457   0.768   0.525  0.1649  0.2704  0.5561
  463SOL    HW1 1388   0.489   0.677   0.486 -0.8435  0.9785  0.8448
  463SOL    HW2 1389   0.352   0.776   0.547 -2.3246 -2.0817 -1.2256
  464SOL     OW 1390   0.584   2.227   2.276  0.0721 -0.4360  0.0138
  464SOL    HW1 1391   0.533   2.285   2.342  1.6558  0.8611  0.3637
  464SOL    HW2 1392   0.576   2.263   2.178  0.8844 -1.4956  2.5464
  465SOL     OW 1393   0.291   0.930   0.819 -0.3152 -0.6297  0.3027
  465SOL    HW1 1394   0.199   0.963   0.776 -0.3719  0.8888 -0.4650
  465SOL    HW2 1395   0.293   0.828   0.817 -0.7197  1.9942 -0.0350
  466SOL     OW 1396   1.353   1.152   1.156 -0.2528 -0.6997  0.7891
  466SOL    HW1 1397   1.402   1.227   1.209  2.1306 -0.3906  1.5956
  466SOL    HW2 1398   1.284   1.191   1.086 -0.4265 -1.8080  0.3667
  467SOL     OW 1399   0.499   0.318   2.342  0.4380  0.4343 -0.7107
  467SOL    HW1 1400   0.458   0.405   2.380 -2.2080 -0.0967 -0.9779
  467SOL    HW2 1401   0.493   0.246   2.417  0.1216  0.8088 -0.5247
  468SOL     OW 1402   0.466   2.310   1.694 -0.3292  0.0028  0.0052
  468SOL    HW1 1403   0.539   2.361   1.748 -2.2436 -0.8461  0.6292
  468SOL    HW2 1404   0.448   2.354   1.598  0.6882  1.6312  0.8782
  469SOL     OW 1405   1.500   1.350   1.272 -0.2238 -0.3015  0.5372
  469SOL    HW1 1406   1.596   1.324   1.238  0.3783 -0.0702  2.8556
  469SOL    HW2 1407   1.505   1.440   1.318  1.7099 -0.1248 -2.4631
  470SOL     OW 1408   3.043   1.686   0.778  0.0393  0.1106 -0.4711
  470SOL    HW1 1409   3.084   1.771   0.736  0.6475  0.4710 -1.6894
  470SOL    HW2 1410   2.939   1.699   0.789 -1.0663  1.8857  0.0360
  471SOL     OW 1411   2.640   1.353   2.150 -0.0982  0.5692 -0.4460
  471SOL    HW1 1412   2.620   1.268   2.205 -1.7910  1.3526  1.2800
  471SOL    HW2 1413   2.729   1.404   2.175 -0.1450 -0.4102 -0.3741
  472SOL     OW 1414   1.135   2.486   3.062 -0.2835 -0.5870  0.2502
  472SOL    HW1 1415   1.169   2.479   3.157  0.8688 -0.0618 -1.1546
  472SOL    HW2 1416   1.096   2.400   3.021  1.6841  0.4770 -2.3589
  473SOL     OW 1417   1.067   1.506   0.958  0.1609  0.3480 -0.7052
  473SOL    HW1 1418   0.962   1.524   0.970 -1.0070  0.8712 -0.1165
  473SOL    HW2 1419   1.104   1.462   1.039  0.0403 -1.8127 -5.0485
  474SOL     OW 1420   0.721   1.231   0.620  0.6489  0.2035  0.1853
  474SOL    HW1 1421   0.715   1.235   0.519 -0.3537  0.3662  2.1822
  474SOL    HW2 1422   0.769   1.146   0.655  0.3172  1.5762  0.0039
  475SOL     OW 1423   2.833   0.168   0.777  0.4178  0.2553  0.0793
  475SOL    HW1 1424   2.918   0.170   0.837 -0.3888 -2.0342 -1.3342
  475SOL    HW2 1425   2.740   0.175   0.821  1.5821  0.2938 -1.7879
  476SOL     OW 1426   0.873   2.970   1.774  0.5280  0.1591  0.2911
  476SOL    HW1 1427   0.955   2.963   1.842  1.0975  0.7026 -0.8681
  476SOL    HW2 1428   0.890   2.912   1.688  0.1959  1.7673  1.4292
  477SOL     OW 1429   1.437   0.340   2.499 -0.1951 -0.0764  0.3721
  477SOL    HW1 1430   1.432   0.356   2.603  1.8344 -2.6151  0.4689
  477SOL    HW2 1431   1.508   0.271   2.478  0.5719  1.5675  0.8307
  478SOL     OW 1432   2.245   1.835   0.265  0.1074  0.5986 -0.1170
  478SOL    HW1 1433   2.190   1.746   0.245  0.0882  0.2385 -1.3718
  478SOL    HW2 1434   2.343   1.819   0.247 -2.3051 -1.8730  1.0988
  479SOL     OW 1435   1.297   1.083   2.942 -0.3952 -0.1923 -0.4403
  479SOL    HW1 1436   1.359   1.104   2.865  1.2169 -2.2397  2.2227
  479SOL    HW2 1437   1.200   1.077   2.908  1.7919 -2.1072  4.4009
  480SOL     OW 1438   2.505   2.324   0.384 -0.2087 -0.1905 -0.2394
  480SOL    HW1 1439   2.475   2.228   0.412 -2.2564 -1.5228  1.3689
  480SOL    HW2 1440   2.441   2.352   0.307  0.2401 -2.2280  0.0716
  481SOL     OW 1441   1.031   1.153   0.833  0.1596  0.2640 -0.1636
  481SOL    HW1 1442   1.033   1.247   0.788  0.8029 -0.0331 -0.0878
  481SOL    HW2 1443   1.022   1.166   0.938  1.5082  3.3136  0.0456
  482SOL     OW 1444   1.599   0.300   2.040 -0.0946  0.1889 -0.3852
  482SOL    HW1 1445   1.616   0.399   2.014 -3.1399  1.5522  0.0705
  482SOL    HW2 1446   1.691   0.249   2.072  0.1101  1.2643 -0.8088
  483SOL     OW 1447   0.178   2.359   1.259  0.2017  0.7596  0.2801
  483SOL    HW1 1448   0.085   2.359   1.308 -0.0117 -2.1798 -0.8508
  483SOL    HW2 1449   0.174   2.388   1.157  0.8864  2.2076  0.6107
  484SOL     OW 1450   1.700   1.009   1.374 -0.5123 -0.9023  0.2951
  484SOL    HW1 1451   1.751   0.919   1.376 -2.3092 -0.5381 -1.8218
  484SOL    HW2 1452   1.706   1.069   1.457 -0.2219 -2.4479 -0.1559
  485SOL     OW 1453   0.652   1.061   1.802  0.3131  0.6867  0.1305
  485SOL    HW1 1454   0.672   1.035   1.699 -0.6037 -0.0424  2.8393
  485SOL    HW2 1455   0.740   1.090   1.844 -0.6713 -0.9642  1.9786
  486SOL     OW 1456   0.930   1.923   2.451  0.6249  0.1740 -0.7727
  486SOL    HW1 1457   0.983   1.885   2.534 -1.5230  1.8146 -1.4486
  486SOL    HW2 1458   0.848   1.985   2.482  0.4756 -2.4191  2.0090
  487SOL     OW 1459   1.757   1.562   0.912 -0.3542 -0.4701  0.0436
  487SOL    HW1 1460   1.800   1.493   0.973 -1.2454 -0.2824 -4.5845
  487SOL    HW2 1461   1.826   1.611   0.855  0.0493  0.1805 -0.2381
  488SOL     OW 1462   2.951   0.876   2.241  0.4971  0.0738 -0.5511
  488SOL    HW1 1463   2.990   0.794   2.196  0.8472  0.8906  1.7323
  488SOL    HW2 1464   2.967   0.871   2.346  0.5784  1.3640 -0.6178
  489SOL     OW 1465   2.787   0.251   1.316 -0.1938  0.0680  0.1308
  489SOL    HW1 1466   2.768   0.175   1.383  3.5812 -2.0908  0.2869
  489SOL    HW2 1467   2.891   0.263   1.305 -3.3863  0.2206  0.1101
  490SOL     OW 1468   1.444   2.916   2.790 -0.0971  0.4893 -0.2130
  490SOL    HW1 1469   1.492   2.824   2.782  1.9301  1.2830 -0.3701
  490SOL    HW2 1470   1.426   2.971   2.708  0.2960  0.8737  1.8691
  491SOL     OW 1471   1.789   1.473   2.642 -0.4135 -0.0261  0.8376
  491SOL    HW1 1472   1.756   1.429   2.730  1.2834  0.8680 -0.0992
  491SOL    HW2 1473   1.897   1.485   2.638  1.2087  0.7332  1.5611
  492SOL     OW 1474   0.525   2.007   0.678  0.1965  0.2583  0.0629
  492SOL    HW1 1475   0.579   2.031   0.768 -0.0483  0.5281  0.6795
  492SOL    HW2 1476   0.468   2.089   0.652 -1.6041  0.8084  2.4822
  493SOL     OW 1477   0.422   1.408   2.061  0.8938  0.0799 -0.4128
  493SOL    HW1 1478   0.336   1.470   2.050 -0.4701  2.8859  0.1907
  493SOL    HW2 1479   0.421   1.346   2.145  0.8877  2.3230  0.9751
  494SOL     OW 1480   2.628   2.728   0.203  0.0737 -0.5413 -0.3768
  494SOL    HW1 1481   2.618   2.668   0.288 -0.4117 -0.0639 -0.5995
  494SOL    HW2 1482   2.580   2.690   0.120 -1.1904 -3.0994 -1.6217
  495SOL     OW 1483   2.756   2.677   2.684 -0.7555  0.2762  0.3854
  495SOL    HW1 1484   2.698   2.595   2.663 -0.0899  0.0746  0.9796
  495SOL    HW2 1485   2.798   2.719   2.598  0.6902 -1.9850  0.2367
  496SOL     OW 1486   2.036   2.197   0.713 -0.0502 -0.5990  0.0384
  496SOL    HW1 1487   2.048   2.239   0.809  2.7035 -0.4346 -2.1165
  496SOL    HW2 1488   2.093   2.117   0.696  0.2043 -1.2525  1.0343
  497SOL     OW 1489   0.214   2.993   2.436 -0.6260 -0.1955 -0.5042
  497SOL    HW1 1490   0.261   3.053   2.504  0.9450 -0.5059 -2.7905
  497SOL    HW2 1491   0.252   3.004   2.339  0.4323 -1.5009  1.5121
  498SOL     OW 1492   1.221   1.435   1.204 -0.4238  0.2906 -0.7580
  498SOL    HW1 1493   1.319   1.422   1.235  0.0481  1.4450  1.4037
  498SOL    HW2 1494   1.192   1.538   1.222 -0.6780  0.5747  1.8567
  499SOL     OW 1495   0.715   1.858   0.516  0.1799  0.0262  0.5939
  499SOL    HW1 1496   0.743   1.762   0.550 -0.6729 -2.0769 -0.0501
  499SOL    HW2 1497   0.675   1.912   0.598  0.1294 -1.5993  0.0080
  500SOL     OW 1498   1.475   2.961   1.638  0.0410  0.3140  0.1890
  500SOL    HW1 1499   1.446   2.972   1.737 -0.3624  0.1246 -1.0331
  500SOL    HW2 1500   1.524   2.871   1.616 -0.8453 -0.8710  0.2443
  501SOL     OW 1501   0.847   1.114   2.291  0.1972  0.1658  0.1769
  501SOL    HW1 1502   0.761   1.067   2.260  0.4109 -0.3484  0.7307
  501SOL    HW2 1503   0.909   1.136   2.214 -5.5064  4.4345 -0.0254
  502SOL     OW 1504   2.632   0.954   1.762 -0.3393 -0.1743  0.0596
  502SOL    HW1 1505   2.647   0.974   1.657  2.0114 -2.9612 -2.1430
  502SOL    HW2 1506   2.576   0.871   1.772 -0.5353  0.8882  2.3531
  503SOL     OW 1507   1.280   0.130   0.666  0.7659 -0.0299 -0.1229
  503SOL    HW1 1508   1.228   0.184   0.599  0.5702 -0.2528  1.0438
  503SOL    HW2 1509   1.360   0.177   0.713 -2.0287 -0.7965  0.0642
  504SOL     OW 1510   3.050   2.332   1.410 -0.1069 -0.2196 -0.3392
  504SOL    HW1 1511   3.001   2.386   1.477  1.5432 -0.5856  0.8170
  504SOL    HW2 1512   3.065   2.236   1.450 -3.2908 -0.6164  1.3647
  505SOL     OW 1513   2.268   1.169   1.517  0.0452  0.2396  0.1595
  505SOL    HW1 1514   2.298   1.204   1.424  0.6562 -2.3479  2.8884
  505SOL    HW2 1515   2.297   1.231   1.593  0.7314  1.5721  1.6612
  506SOL     OW 1516   1.996   0.196   1.773  0.4542  0.8800 -0.2822
  506SOL    HW1 1517   2.049   0.110   1.792 -1.8506  4.8546  0.0640
  506SOL    HW2 1518   1.993   0.264   1.852 -0.1488 -0.3737  0.5419
  507SOL     OW 1519   0.536   0.683   2.173 -0.2869 -0.1908  0.2592
  507SOL    HW1 1520   0.476   0.643   2.099  3.9424  3.1021  1.3083
  507SOL    HW2 1521   0.630   0.641   2.183  0.5849 -0.0630 -0.1199
  508SOL     OW 1522   0.262   1.635   0.886 -0.1352 -0.8211  0.0051
  508SOL    HW1 1523   0.278   1.708   0.817 -1.2005 -0.3639  1.6303
  508SOL    HW2 1524   0.236   1.671   0.980  1.3379  0.3022  1.0314
  509SOL     OW 1525   1.333   1.255   2.346  0.7660 -0.3475 -0.0666
  509SOL    HW1 1526   1.243   1.222   2.315 -2.1109 -1.4269  1.6944
  509SOL    HW2 1527   1.422   1.207   2.304  0.6224  1.8509 -0.0293
  510SOL     OW 1528   1.302   2.033   2.055 -0.1826  0.0256 -0.2104
  510SOL    HW1 1529   1.256   2.114   2.018 -0.6762 -0.0957  1.5582
  510SOL    HW2 1530   1.238   1.985   2.125 -1.3953  0.1564  1.4991
  511SOL     OW 1531   3.084   2.718   1.357  0.1181 -0.8527  0.0561
  511SOL    HW1 1532   3.108   2.711   1.254  2.6548 -1.4628  0.9880
  511SOL    HW2 1533   2.985   2.694   1.377  0.4959 -0.6007  0.0146
  512SOL     OW 1534   2.359   0.407   1.404  0.0831  0.1323 -0.0726
  512SOL    HW1 1535   2.255   0.393   1.411 -1.0855 -0.6318 -1.6064
  512SOL    HW2 1536   2.398   0.365   1.315 -1.0901  0.2974 -1.1866
  513SOL     OW 1537   2.487   2.073   0.845 -0.5901  0.2109  0.1701
  513SOL    HW1 1538   2.422   2.120   0.775 -2.9526 -0.6908  2.4843
  513SOL    HW2 1539   2.556   2.005   0.806  0.4523 -2.3833  0.1927
  514SOL     OW 1540   0.567   2.782   0.518  0.6735  0.4642  0.1616
  514SOL    HW1 1541   0.604   2.828   0.431  1.2613  0.8617  0.3056
  514SOL    HW2 1542   0.627   2.808   0.600 -1.1591  0.3362  0.1973
  515SOL     OW 1543   2.031   1.119   2.262 -0.8169  0.3387 -0.1569
  515SOL    HW1 1544   1.982   1.143   2.176  3.5760  1.8270 -1.3851
  515SOL    HW2 1545   1.963   1.145   2.332  2.3671  1.2647  0.9019
  516SOL     OW 1546   0.272   0.255   1.920 -0.5695 -0.6012  0.2764
  516SOL    HW1 1547   0.333   0.261   1.836 -0.9266 -0.9333  3.2086
  516SOL    HW2 1548   0.187   0.191   1.902 -0.5935 -2.6342  0.9567
  517SOL     OW 1549   0.427   3.049   1.175 -0.0558 -0.4240 -0.1098
  517SOL    HW1 1550   0.449   3.153   1.158 -0.6364 -0.8464 -0.1409
  517SOL    HW2 1551   0.327   3.041   1.210  1.4135 -1.7811  2.5922
  518SOL     OW 1552   2.203   0.001   1.778 -0.2980 -0.5258 -0.9536
  518SOL    HW1 1553   2.266   0.075   1.811 -0.3635 -1.0598  0.3283
  518SOL    HW2 1554   2.247  -0.053   1.700  0.8641 -0.8299  3.5532
  519SOL     OW 1555   2.357   2.238   2.591 -0.0604  0.3044  0.2685
  519SOL    HW1 1556   2.272   2.202   2.635  0.9991 -1.6328 -0.1272
  519SOL    HW2 1557   2.373   2.338   2.594 -0.4036 -0.8948  0.3903
  520SOL     OW 1558   1.757   2.870   1.875 -0.5416  0.3970  0.0161
  520SOL    HW1 1559   1.657   2.866   1.889 -0.3687  0.8853  0.5744
  520SOL    HW2 1560   1.796   2.776   1.864 -2.0475  0.5631 -0.1540
  521SOL     OW 1561   0.565   0.000   2.152 -0.4596 -0.6670 -0.3221
  521SOL    HW1 1562   0.460  -0.012   2.165 -0.4686 -0.8082 -2.9994
  521SOL    HW2 1563   0.617   0.015   2.242  0.2646  0.3094 -0.8475
  522SOL     OW 1564   0.206   1.899   1.434 -0.0907 -0.5269 -0.1883
  522SOL    HW1 1565   0.248   1.961   1.507  1.5130 -1.7280 -1.1424
  522SOL    HW2 1566   0.177   1.958   1.351  0.8555 -1.3188  0.5856
  523SOL     OW 1567   2.264   2.970   1.544 -0.2655 -0.6291  0.4713
  523SOL    HW1 1568   2.344   2.901   1.554  1.3455 -1.7173 -2.5367
  523SOL    HW2 1569   2.174   2.928   1.522 -1.4036 -1.8584  0.5233
  524SOL     OW 1570   0.170   2.778   2.802  0.3617  0.4218 -0.3228
  524SOL    HW1 1571   0.126   2.862   2.842 -0.5514 -2.5636 -0.4205
  524SOL    HW2 1572   0.271   2.800   2.788 -1.2574 -1.3130 -0.4775
  525SOL     OW 1573   2.146   1.981   0.462  0.3598 -0.5979 -0.0524
  525SOL    HW1 1574   2.142   1.926   0.551 -0.3432  1.5703  0.2654
  525SOL    HW2 1575   2.196   1.924   0.390 -1.1230 -1.3301  1.8279
  526SOL     OW 1576   0.394   1.551   1.678 -0.3930 -0.4799 -0.4308
  526SOL    HW1 1577   0.310   1.521   1.729 -1.5164  1.2641  0.6038
  526SOL    HW2 1578   0.450   1.465   1.650 -1.7878 -0.8616  0.0776
  527SOL     OW 1579   1.105   2.972   1.241  0.1040  0.3291  0.5055
  527SOL    HW1 1580   1.199   2.952   1.282 -1.9109  1.2696  2.1390
  527SOL    HW2 1581   1.090   3.075   1.229 -0.4589  1.2688 -0.3465
  528SOL     OW 1582   1.343   2.426   0.501  0.3460 -0.0130  0.0577
  528SOL    HW1 1583   1.359   2.323   0.516 -0.4149 -1.8007  2.2774
  528SOL    HW2 1584   1.416   2.482   0.548  1.7143 -0.8410 -0.4208
  529SOL     OW 1585   1.933   1.750   0.736  0.1000  0.0947  0.4205
  529SOL    HW1 1586   1.864   1.760   0.656  0.1420 -0.8984 -0.6481
  529SOL    HW2 1587   1.914   1.807   0.817 -1.5167 -0.6116  1.0371
  530SOL     OW 1588   0.293   2.540   0.310 -0.1542 -1.0152  0.0587
  530SOL    HW1 1589   0.280   2.624   0.371  0.7731  1.4202 -0.2037
  530SOL    HW2 1590   0.342   2.465   0.365 -0.4243 -1.2385 -2.5472
  531SOL     OW 1591   1.803   1.013   0.981 -0.0187  0.3629  0.2155
  531SOL    HW1 1592   1.803   1.094   0.921  2.2590 -2.9823 -0.2408
  531SOL    HW2 1593   1.719   0.951   0.975  1.3403 -1.7581 -0.5816
  532SOL     OW 1594   0.500   1.112   0.762  0.2166 -0.3034  0.8800
  532SOL    HW1 1595   0.566   1.115   0.681 -0.6864 -0.2199 -0.7909
  532SOL    HW2 1596   0.447   1.026   0.759  1.3627 -0.3128  0.1314
  533SOL     OW 1597   1.747   0.041   2.590 -0.0881 -0.1347 -0.2855
  533SOL    HW1 1598   1.844   0.001   2.609  1.4573  0.4017 -0.7291
  533SOL    HW2 1599   1.722   0.112   2.664  1.9164 -0.3980  0.7406
  534SOL     OW 1600   0.306   0.226   1.633 -0.0546 -0.2985  0.0355
  534SOL    HW1 1601   0.406   0.230   1.622 -0.5609  1.1570  2.2772
  534SOL    HW2 1602   0.265   0.314   1.604 -1.0253 -2.2996 -1.8733
  535SOL     OW 1603   1.953   0.339   0.128  0.2144 -0.1913  0.2103
  535SOL    HW1 1604   1.946   0.423   0.194  1.8164  1.4499  0.9429
  535SOL    HW2 1605   1.959   0.246   0.185 -0.0491 -3.2747  2.4781
  536SOL     OW 1606   1.407   2.613   0.927 -0.0584  0.4251  0.0959
  536SOL    HW1 1607   1.397   2.567   1.020  0.3344 -1.5854 -0.0912
  536SOL    HW2 1608   1.317   2.642   0.889  0.8843 -0.4417  3.0174
  537SOL     OW 1609   0.835   0.269   2.410  0.0020  0.5239 -0.1118
  537SOL    HW1 1610   0.812   0.310   2.318 -0.7190 -0.3503  1.1126
  537SOL    HW2 1611   0.818   0.165   2.420 -0.5933  0.4939  0.7527
  538SOL     OW 1612   1.654   2.341   1.505  0.9141 -0.4165 -0.7049
  538SOL    HW1 1613   1.644   2.244   1.474 -2.0365 -0.0554  0.6620
  538SOL    HW2 1614   1.724   2.393   1.454 -0.1457 -1.4020 -0.0784
  539SOL     OW 1615   0.165   1.640   2.698 -0.2187 -0.2387 -0.1070
  539SOL    HW1 1616   0.081   1.662   2.640  0.0809  0.5075 -0.2841
  539SOL    HW2 1617   0.184   1.726   2.754  1.5614  0.4309  1.1552
  540SOL     OW 1618   2.678   1.753   1.920 -0.6289 -0.5659 -0.5482
  540SOL    HW1 1619   2.612   1.694   1.967  2.8842  0.1509 -0.2291
  540SOL    HW2 1620   2.650   1.847   1.885  2.0183 -0.7088 -2.1351
  541SOL     OW 1621   0.496   2.199   0.010  0.8635  0.0317 -0.1136
  541SOL    HW1 1622   0.519   2.165   0.108  1.5768 -0.1277  0.7523
  541SOL    HW2 1623   0.396   2.189  -0.020 -1.4679 -0.5276  0.1062
  542SOL     OW 1624   2.229   2.564   0.421 -0.1967 -0.4305 -0.1556
  542SOL    HW1 1625   2.182   2.650   0.387  1.0689  0.3713  0.6568
  542SOL    HW2 1626   2.161   2.485   0.447  0.3439 -0.9494 -1.0008
  543SOL     OW 1627   1.121   1.830   1.566  0.1913 -0.2606 -0.1777
  543SOL    HW1 1628   1.063   1.799   1.643  1.8685 -1.0180  0.1650
  543SOL    HW2 1629   1.072   1.901   1.503 -1.9329 -1.8026 -1.2600
  544SOL     OW 1630   1.093   0.455   0.168 -0.1157  0.2506 -0.0814
  544SOL    HW1 1631   1.101   0.367   0.231 -0.3190 -2.2774  0.6377
  544SOL    HW2 1632   1.149   0.441   0.079  1.0634  0.8140 -0.4513
  545SOL     OW 1633   1.116   1.727   0.807 -0.0769 -0.3710  0.0892
  545SOL    HW1 1634   1.206   1.730   0.756 -1.3493 -0.8880  2.5103
  545SOL    HW2 1635   1.103   1.639   0.856 -0.5362 -0.3394 -0.6593
  546SOL     OW 1636   2.645   1.530   3.035 -0.2342  0.0130  0.2397
  546SOL    HW1 1637   2.650   1.611   2.968 -0.9895 -2.2929  1.0113
  546SOL    HW2 1638   2.548   1.512   3.055  0.5034 -0.9968 -1.7473
  547SOL     OW 1639   0.617   3.004   2.615  0.3534  0.1112 -0.4778
  547SOL    HW1 1640   0.714   2.999   2.651  0.9118 -0.0850  0.4459
  547SOL    HW2 1641   0.562   2.932   2.659 -0.7007 -0.1686  2.6692
  548SOL     OW 1642   2.089   0.881   2.987  0.2584 -0.2175  0.3041
  548SOL    HW1 1643   1.990   0.840   2.994 -1.0606 -2.7074  0.6046
  548SOL    HW2 1644   2.095   0.976   3.036  1.2347  0.0427 -0.7675
  549SOL     OW 1645   0.684   0.537   0.170 -0.0976  0.1967  0.1752
  549SOL    HW1 1646   0.612   0.588   0.115 -2.1876  0.9313 -1.9677
  549SOL    HW2 1647   0.768   0.585   0.154 -3.6878  0.4793  1.9691
  550SOL     OW 1648   2.623   2.806   2.883 -0.0526 -0.0321  0.2009
  550SOL    HW1 1649   2.573   2.741   2.949 -0.1545  0.8886 -1.2059
  550SOL    HW2 1650   2.674   2.747   2.810  2.3721 -2.0644  0.2427
  551SOL     OW 1651   0.294   0.852   0.232  0.4277  0.2370  0.4612
  551SOL    HW1 1652   0.398   0.866   0.221  1.1242 -1.2166 -2.3004
  551SOL    HW2 1653   0.266   0.842   0.334 -0.7592 -0.7291  1.8457
  552SOL     OW 1654   0.613   2.975   1.897  0.3025  0.4957  0.4265
  552SOL    HW1 1655   0.610   3.014   1.994  0.1145 -0.9018  0.2134
  552SOL    HW2 1656   0.702   2.972   1.848 -3.4350  1.7273 -1.1438
  553SOL     OW 1657   2.908   2.465   0.361 -0.2899 -0.4287  0.0255
  553SOL    HW1 1658   2.866   2.367   0.371  1.0504 -0.0065 -0.9508
  553SOL    HW2 1659   2.868   2.537   0.417  1.3386  0.4248 -2.7942
  554SOL     OW 1660   2.155   0.368   0.539 -0.3562  0.1071  0.2899
  554SOL    HW1 1661   2.193   0.373   0.442 -1.6806 -1.3939 -2.4171
  554SOL    HW2 1662   2.146   0.275   0.571 -0.4108 -0.4377 -2.6429
  555SOL     OW 1663   0.379   2.777   2.510 -0.1601 -0.4208  0.0911
  555SOL    HW1 1664   0.320   2.860   2.489  0.9688 -2.8808 -1.2163
  555SOL    HW2 1665   0.421   2.742   2.426 -0.9640  0.5134 -0.2015
  556SOL     OW 1666   0.867   2.364   1.552  0.0065  0.3884  0.2779
  556SOL    HW1 1667   0.907   2.436   1.620 -0.4869 -0.7584 -0.6236
  556SOL    HW2 1668   0.918   2.352   1.462  0.5315  0.8058 -0.8371
  557SOL     OW 1669   0.151   2.058   0.220  0.0000 -0.6537 -0.0250
  557SOL    HW1 1670   0.071   1.992   0.204 -0.9880  1.3349  1.3425
  557SOL    HW2 1671   0.182   2.099   0.127 -2.1887 -1.1270 -0.1443
  558SOL     OW 1672   2.782   2.229   0.413 -0.0157 -0.6929  0.2210
  558SOL    HW1 1673   2.686   2.250   0.381  2.2865 -0.7157  1.2831
  558SOL    HW2 1674   2.807   2.126   0.410  0.1787  0.4350 -0.4535
  559SOL     OW 1675   0.408   2.319   1.414  0.5495 -0.2532 -0.1389
  559SOL    HW1 1676   0.320   2.339   1.360  0.2995  0.7349 -0.9169
  559SOL    HW2 1677   0.450   2.229   1.387  0.9174  1.9819  0.0204
  560SOL     OW 1678   2.116   1.144   3.071  0.0218 -0.8840 -0.1022
  560SOL    HW1 1679   2.116   1.156   3.173 -1.4024 -0.8757 -0.0587
  560SOL    HW2 1680   2.189   1.196   3.016  1.1529  2.7308  0.2907
  561SOL     OW 1681   3.102   1.851   0.003  0.9321  0.4560 -0.3506
  561SOL    HW1 1682   3.080   1.807   0.095 -1.4380  0.5879 -1.1026
  561SOL    HW2 1683   3.038   1.934  -0.012 -3.0447 -1.8910  1.3773
  562SOL     OW 1684   0.989   2.163   2.296  0.4352 -0.1334  0.0878
  562SOL    HW1 1685   0.990   2.233   2.370 -0.2199 -2.2347 -2.4588
  562SOL    HW2 1686   0.960   2.077   2.337  1.7891 -1.5878 -0.1290
  563SOL     OW 1687   0.698   2.582   2.616 -0.0005 -0.8330  0.4454
  563SOL    HW1 1688   0.779   2.513   2.618 -0.4191 -1.1132 -1.0937
  563SOL    HW2 1689   0.665   2.601   2.714  1.2116 -0.8526  2.3662
  564SOL     OW 1690   2.823   1.349   2.896  0.3873  0.4822  0.1460
  564SOL    HW1 1691   2.744   1.394   2.939  0.9750  0.9164  0.9789
  564SOL    HW2 1692   2.891   1.422   2.864  1.3507  0.4054  1.3490
  565SOL     OW 1693   2.527   2.016   2.655 -0.6046 -0.5431 -0.0244
  565SOL    HW1 1694   2.454   2.087   2.635  0.2854 -1.9365 -1.8847
  565SOL    HW2 1695   2.608   2.045   2.710 -1.4878 -1.7002 -0.9506
  566SOL     OW 1696   2.022   2.852   1.447 -0.7876  0.5432  0.0714
  566SOL    HW1 1697   1.978   2.760   1.476  0.0688  0.4502  1.6442
  566SOL    HW2 1698   2.011   2.874   1.348  0.3675  0.4455  2.8617
  567SOL     OW 1699   2.401   3.037   2.353 -0.2694  0.2458 -0.3222
  567SOL    HW1 1700   2.355   3.113   2.403  0.4069  0.9519 -1.1775
  567SOL    HW2 1701   2.377   3.029   2.251  1.0182  1.3830  1.6447
  568SOL     OW 1702   1.532   1.767   0.226 -0.0849  0.3173  0.5300
  568SOL    HW1 1703   1.474   1.853   0.220 -2.3270 -2.1903 -1.0898
  568SOL    HW2 1704   1.629   1.787   0.256  0.2395  2.4728 -1.1359
  569SOL     OW 1705   0.256   0.637   0.780  0.0079  0.5165 -0.5155
  569SOL    HW1 1706   0.318   0.549   0.754  4.0082 -1.0229  2.6322
  569SOL    HW2 1707   0.152   0.616   0.775  0.0718 -1.6619  2.6481
  570SOL     OW 1708   0.647   0.824   2.923 -0.1359  0.2143  0.0946
  570SOL    HW1 1709   0.739   0.834   2.872 -1.6300  1.5301 -1.1852
  570SOL    HW2 1710   0.626   0.908   2.976 -1.0190 -0.4610 -0.4535
  571SOL     OW 1711   0.766   3.080   1.070  0.2096 -0.4258 -0.0460
  571SOL    HW1 1712   0.819   3.114   0.990  3.0135  0.2901  0.9554
  571SOL    HW2 1713   0.800   2.986   1.089  1.8920 -1.2536  1.5043
  572SOL     OW 1714   1.632   2.670   1.333  0.1352  0.1039  0.2327
  572SOL    HW1 1715   1.563   2.629   1.272 -0.7734 -0.0169  2.1686
  572SOL    HW2 1716   1.630   2.778   1.331  1.0566  2.4721  1.7792
  573SOL     OW 1717   2.930   0.485   2.036  0.3488 -0.0044 -0.3191
  573SOL    HW1 1718   2.869   0.406   2.045 -0.4999  0.1968  0.4774
  573SOL    HW2 1719   2.980   0.484   1.944  1.0033 -2.5298  4.1726
  574SOL     OW 1720   0.145   1.749   1.121  0.0071  0.2083 -0.2192
  574SOL    HW1 1721   0.211   1.774   1.194 -0.6781 -1.9323  1.2974
  574SOL    HW2 1722   0.061   1.804   1.116 -0.4656 -0.2788  0.8292
  575SOL     OW 1723   0.805   2.203   0.937  0.1718 -0.3848  0.7045
  575SOL    HW1 1724   0.766   2.253   1.020  2.0356  0.4341 -0.0994
  575SOL    HW2 1725   0.858   2.271   0.882  0.2915  0.5608 -1.5412
  576SOL     OW 1726   2.859   2.984   1.666  0.2770 -0.1905 -0.2180
  576SOL    HW1 1727   2.759   2.981   1.668 -0.4102  0.4840 -0.1318
  576SOL    HW2 1728   2.896   3.075   1.637 -1.9512  1.2354  0.7246
  577SOL     OW 1729   2.562   1.168   0.003  0.7410  0.1833  0.1297
  577SOL    HW1 1730   2.564   1.088  -0.062  3.2435 -0.4644 -1.2904
  577SOL    HW2 1731   2.651   1.176   0.053  2.2853 -1.2655 -2.0594
  578SOL     OW 1732   1.415   2.759   2.458 -0.3035  0.3318  0.2792
  578SOL    HW1 1733   1.321   2.805   2.473 -1.8826  0.7566 -1.3275
  578SOL    HW2 1734   1.483   2.828   2.421  0.3555  0.2501 -0.7053
  579SOL     OW 1735   0.043   2.473   0.198 -0.2972 -0.4520  0.4064
  579SOL    HW1 1736  -0.042   2.455   0.256  0.3440  0.6581  1.7013
  579SOL    HW2 1737   0.124   2.506   0.256 -1.1592  0.8366 -1.4005
  580SOL     OW 1738   0.965   2.662   0.348 -0.4434 -0.5029  0.4103
  580SOL    HW1 1739   1.063   2.663   0.302  1.7913  3.1111  0.3664
  580SOL    HW2 1740   0.899   2.597   0.304 -0.6651  1.1457 -1.2681
  581SOL     OW 1741   1.220   2.667   1.468  0.1700 -0.1687 -0.3203
  581SOL    HW1 1742   1.287   2.588   1.485 -0.0094 -0.8182 -1.0296
  581SOL    HW2 1743   1.271   2.740   1.409  1.6794 -1.2612 -0.0081
  582SOL     OW 1744   1.487   0.108   1.874  0.0876  0.4028  0.0764
  582SOL    HW1 1745   1.501   0.175   1.953 -1.6529 -1.4842  1.4911
  582SOL    HW2 1746   1.581   0.097   1.832 -1.3534  0.5684  1.4541
  583SOL     OW 1747   2.420   3.074   0.514 -0.2005 -0.3383  0.6160
  583SOL    HW1 1748   2.503   3.015   0.501  0.3837  4.5284  0.3725
  583SOL    HW2 1749   2.341   3.025   0.560 -0.7313  1.3372  1.4040
  584SOL     OW 1750   1.547   1.096   2.257 -0.2963  0.1866  0.5991
  584SOL    HW1 1751   1.624   1.160   2.239 -2.3896  2.5427 -1.7929
  584SOL    HW2 1752   1.576   1.000   2.293 -0.4041 -2.8620  1.4226
  585SOL     OW 1753   2.115   2.671   2.893 -0.1407 -0.0151 -0.3705
  585SOL    HW1 1754   2.119   2.571   2.934  0.4596 -2.9579 -0.5746
  585SOL    HW2 1755   2.018   2.707   2.896  0.2414 -2.2516 -1.5283
  586SOL     OW 1756   2.850   0.349   1.579  0.8247  0.1626 -0.4408
  586SOL    HW1 1757   2.857   0.433   1.633 -1.5547 -2.4213 -2.7095
  586SOL    HW2 1758   2.749   0.333   1.563 -1.0764 -0.8177 -0.2906
  587SOL     OW 1759   2.075   1.498   2.643 -0.3594 -0.1039 -0.2172
  587SOL    HW1 1760   2.110   1.417   2.584 -0.5240  0.5612 -0.5239
  587SOL    HW2 1761   2.131   1.519   2.729  1.0383 -0.5593 -0.5086
  588SOL     OW 1762   0.466   2.691   2.247  0.4016  0.4378  0.3327
  588SOL    HW1 1763   0.434   2.674   2.154  0.9563 -0.4141  2.8426
  588SOL    HW2 1764   0.504   2.600   2.288  0.6487 -0.4510  0.4665
  589SOL     OW 1765   2.184   1.314   2.475  0.2042 -0.3826  0.0389
  589SOL    HW1 1766   2.150   1.248   2.403  0.1639 -1.0421 -1.9642
  589SOL    HW2 1767   2.284   1.312   2.498 -0.5874 -0.9757  1.3744
  590SOL     OW 1768   2.297   1.768   2.027  0.2407 -0.5165  0.3434
  590SOL    HW1 1769   2.363   1.683   2.019 -0.4518 -2.7304 -3.1138
  590SOL    HW2 1770   2.298   1.818   2.121 -0.0692  3.7481 -0.1477
  591SOL     OW 1771   1.263   2.418   0.244 -0.3132  0.1632 -0.5702
  591SOL    HW1 1772   1.294   2.337   0.184 -0.0078  2.6883  1.5619
  591SOL    HW2 1773   1.304   2.418   0.336  0.0348  0.2494 -0.9514
  592SOL     OW 1774   1.766   2.332   0.755  0.0619  0.1949 -0.2733
  592SOL    HW1 1775   1.716   2.372   0.678  1.1230  1.0261  0.3599
  592SOL    HW2 1776   1.871   2.320   0.736  0.9510  0.2970  0.8992
  593SOL     OW 1777   0.702   0.283   0.222 -0.0262  0.5845  0.0634
  593SOL    HW1 1778   0.727   0.239   0.132 -0.6881  0.2919 -0.7442
  593SOL    HW2 1779   0.702   0.390   0.225 -0.0260  3.9953  1.8502
  594SOL     OW 1780   1.033   1.807   2.693 -0.1255 -0.0507  0.3145
  594SOL    HW1 1781   1.127   1.784   2.649  3.9137  2.3752  1.0560
  594SOL    HW2 1782   1.035   1.858   2.785  1.1509  0.3880  0.1216
  595SOL     OW 1783   1.547   0.085   1.016  0.3536 -0.5416  0.0212
  595SOL    HW1 1784   1.631   0.035   0.986 -0.8222 -1.1325 -0.1805
  595SOL    HW2 1785   1.464   0.043   0.967  2.4401  0.6651 -0.6719
  596SOL     OW 1786   0.041   1.565   2.287 -0.4328 -0.1883 -0.0071
  596SOL    HW1 1787   0.109   1.486   2.302  1.6750 -0.0215 -2.1850
  596SOL    HW2 1788   0.009   1.617   2.369  1.2979 -1.5443  3.5207
  597SOL     OW 1789   1.920   2.648   1.799 -0.0622  0.1633 -0.1282
  597SOL    HW1 1790   1.892   2.621   1.700  0.7802 -0.6352 -0.1814
  597SOL    HW2 1791   2.023   2.651   1.820  0.0307  4.3794  1.5424
  598SOL     OW 1792   2.534   2.912   1.240  0.0106 -0.1419  0.1289
  598SOL    HW1 1793   2.618   2.960   1.272 -0.3638  0.4846  0.3135
  598SOL    HW2 1794   2.556   2.857   1.154  2.1098 -0.1425 -1.6572
  599SOL     OW 1795   2.894   0.303   2.464 -0.0947 -0.4787  0.5039
  599SOL    HW1 1796   2.976   0.264   2.412 -0.9036 -1.0369 -0.0657
  599SOL    HW2 1797   2.833   0.371   2.409 -0.5643 -0.2209  1.4135
  600SOL     OW 1798   2.809   1.119   2.726  0.4373  0.6389 -0.2733
  600SOL    HW1 1799   2.713   1.082   2.713 -1.8543 -1.0143  1.4583
  600SOL    HW2 1800   2.808   1.199   2.793 -1.9017  0.3323  0.1600
  601SOL     OW 1801   3.071   1.337   2.002  0.2174  0.2744  0.2741
  601SOL    HW1 1802   2.988   1.391   1.978 -0.3405  1.1753  1.3921
  601SOL    HW2 1803   3.132   1.386   2.074  2.6464  0.2849 -2.3391
  602SOL     OW 1804   1.448   1.690   2.321  0.1119 -0.3467 -0.0163
  602SOL    HW1 1805   1.376   1.639   2.376 -0.5315 -1.4156  0.9975
  602SOL    HW2 1806   1.541   1.662   2.347 -0.9727 -1.5706  0.5721
  603SOL     OW 1807   0.662   1.174   2.781  0.7972 -0.3859 -0.3927
  603SOL    HW1 1808   0.560   1.164   2.791  1.8941  0.1346  2.5451
  603SOL    HW2 1809   0.702   1.077   2.761  0.7263 -0.5717 -1.9254
  604SOL     OW 1810   2.432   0.999   0.176  0.0624 -0.2946 -0.2581
  604SOL    HW1 1811   2.489   1.075   0.128  1.6422 -0.4698  1.2643
  604SOL    HW2 1812   2.433   0.910   0.122  1.2745  2.1589 -3.3337
  605SOL     OW 1813   2.509   1.166   1.958 -0.2893  0.4385  0.8222
  605SOL    HW1 1814   2.572   1.104   1.902 -0.0408  0.7043 -0.0423
  605SOL    HW2 1815   2.559   1.231   2.017  0.9050  2.3419  0.4385
  606SOL     OW 1816   1.538   2.504   2.572  0.1334  0.7891 -0.6411
  606SOL    HW1 1817   1.491   2.593   2.557  0.8870 -0.6473 -0.5473
  606SOL    HW2 1818   1.484   2.426   2.531 -3.4980  1.6030  1.0529
  607SOL     OW 1819   1.340   1.599   0.313  0.7086 -0.0178 -0.1795
  607SOL    HW1 1820   1.269   1.671   0.338  1.5384  0.3657  1.3723
  607SOL    HW2 1821   1.427   1.646   0.272 -0.8230 -0.7075  1.3056
  608SOL     OW 1822   1.462   2.817   0.387  0.1305 -0.2498 -0.3900
  608SOL    HW1 1823   1.494   2.854   0.293  0.4271 -1.6901 -0.0517
  608SOL    HW2 1824   1.408   2.884   0.443 -1.7202 -2.6247 -0.9621
  609SOL     OW 1825   1.269   1.326   0.241  0.5295  0.4221 -0.3151
  609SOL    HW1 1826   1.289   1.417   0.285 -1.0691 -3.0162  0.1359
  609SOL    HW2 1827   1.259   1.334   0.134  1.5650  0.7026 -2.5834
  610SOL     OW 1828   2.965   1.146   2.213  0.3792  0.1616 -0.0331
  610SOL    HW1 1829   2.954   1.042   2.226 -0.3630 -0.0037  0.9758
  610SOL    HW2 1830   2.944   1.181   2.119  1.2143 -0.4098  0.6426
  611SOL     OW 1831   2.532   0.270   1.178  0.2589 -0.1171 -0.1124
  611SOL    HW1 1832   2.468   0.187   1.172 -0.3061 -0.9850 -1.8519
  611SOL    HW2 1833   2.608   0.255   1.244 -2.4792 -0.9452  3.1124
  612SOL     OW 1834   0.711   2.296   1.178 -0.0386  0.2972 -0.2961
  612SOL    HW1 1835   0.647   2.237   1.239 -2.5943 -2.5883  1.4338
  612SOL    HW2 1836   0.674   2.392   1.172  0.2859  0.0090  1.1493
  613SOL     OW 1837   0.823   1.386   2.385  0.8676 -0.1272 -0.1472
  613SOL    HW1 1838   0.829   1.460   2.309  0.2341 -0.4262 -0.8806
  613SOL    HW2 1839   0.826   1.290   2.342 -0.5484  1.4754 -1.3435
  614SOL     OW 1840   1.579   1.675   1.895 -0.1410  0.2809 -0.9946
  614SOL    HW1 1841   1.542   1.762   1.852  0.7556 -1.3564 -1.6498
  614SOL    HW2 1842   1.644   1.702   1.973 -0.6135 -1.4209 -1.1647
  615SOL     OW 1843   0.800   1.352   1.734 -0.7374  0.4052  0.0083
  615SOL    HW1 1844   0.712   1.357   1.688  1.9841 -2.4971  0.5873
  615SOL    HW2 1845   0.866   1.428   1.705 -0.2367  3.3100  2.8379
  616SOL     OW 1846   1.105   1.582   2.180  0.6655 -0.1190  0.0121
  616SOL    HW1 1847   1.002   1.565   2.195 -2.0475 -0.5116  0.4618
  616SOL    HW2 1848   1.128   1.629   2.087  2.2662 -0.3226 -1.5687
  617SOL     OW 1849   2.978   1.539   1.602 -0.0355  0.1318  0.3266
  617SOL    HW1 1850   2.953   1.486   1.692  0.6692 -3.3277 -0.5263
  617SOL    HW2 1851   3.030   1.490   1.531  0.9568  2.4034  0.6331
  618SOL     OW 1852   1.938   2.022   1.444  0.3234 -0.5734 -0.1113
  618SOL    HW1 1853   2.028   2.011   1.395 -1.0834 -0.9683  0.2058
  618SOL    HW2 1854   1.896   1.930   1.463  0.9200  1.6769  0.7260
  619SOL     OW 1855   1.720   0.473   2.402 -0.2189 -0.2830  0.1420
  619SOL    HW1 1856   1.653   0.529   2.352 -1.5002 -2.3687  0.1633
  619SOL    HW2 1857   1.681   0.378   2.421 -2.4552 -1.3111 -2.0149
  620SOL     OW 1858   2.209   2.935   0.607 -0.0215 -0.2055 -0.3252
  620SOL    HW1 1859   2.106   2.945   0.605  2.5063  1.2636  0.2347
  620SOL    HW2 1860   2.242   2.890   0.696 -1.1654 -0.7905  2.3464
  621SOL     OW 1861   2.157   1.856   1.294  0.2411 -0.3293  0.0975
  621SOL    HW1 1862   2.180   1.842   1.400  0.9785  1.2890  1.5632
  621SOL    HW2 1863   2.146   1.765   1.244  1.3672 -1.4687 -1.0810
  622SOL     OW 1864   2.141   0.837   1.732  0.1014 -0.0327 -0.5451
  622SOL    HW1 1865   2.244   0.831   1.742  1.1325  0.5400 -0.9934
  622SOL    HW2 1866   2.082   0.775   1.794 -0.2732 -0.8093  0.4801
  623SOL     OW 1867   1.370   0.766   2.599  0.3487 -0.3569  0.5624
  623SOL    HW1 1868   1.317   0.700   2.658  0.1281 -0.6157 -0.7266
  623SOL    HW2 1869   1.303   0.796   2.527  0.9926  0.8958 -0.1411
  624SOL     OW 1870   0.507   0.679   0.026 -0.1897  0.7740 -0.0521
  624SOL    HW1 1871   0.550   0.711  -0.062 -1.2245 -0.5398  1.1202
  624SOL    HW2 1872   0.502   0.755   0.104 -0.6924  1.0551 -0.8096
  625SOL     OW 1873   2.796   1.745   0.928  0.1954  0.0535 -0.5841
  625SOL    HW1 1874   2.706   1.773   0.972  0.4172  0.3878 -2.1240
  625SOL    HW2 1875   2.849   1.676   0.986 -1.2907 -0.5343 -0.5342
  626SOL     OW 1876   0.544   2.721   1.834 -0.4844 -0.0766  0.3053
  626SOL    HW1 1877   0.555   2.822   1.865 -2.4030 -0.0875  0.8931
  626SOL    HW2 1878   0.444   2.691   1.821  0.0108  0.2326 -3.5636
  627SOL     OW 1879   0.701   0.990   1.548  0.1579 -0.2677 -0.8401
  627SOL    HW1 1880   0.769   0.915   1.523  1.1321 -0.5595 -1.0795
  627SOL    HW2 1881   0.718   1.083   1.505  2.0414 -1.7368  0.3948
  628SOL     OW 1882   2.402   0.191   0.685  0.2519 -0.2290  0.0693
  628SOL    HW1 1883   2.424   0.106   0.633 -1.3820  0.3389 -0.5769
  628SOL    HW2 1884   2.299   0.190   0.719 -0.5890 -1.6579 -0.0358
  629SOL     OW 1885   1.964   0.918   1.979  0.2812 -0.1407  0.0077
  629SOL    HW1 1886   2.054   0.923   2.035  3.0153  0.0739  0.5737
  629SOL    HW2 1887   1.905   1.004   1.975 -2.5629 -1.2399  1.7616
  630SOL     OW 1888   2.788   2.200   0.777  0.3340 -0.4191 -0.0710
  630SOL    HW1 1889   2.704   2.252   0.808 -0.0413 -3.1470  1.1106
  630SOL    HW2 1890   2.764   2.098   0.747 -2.2930 -2.2194  0.6729
  631SOL     OW 1891   2.969   0.117   2.110  0.1879  0.1819  0.4165
  631SOL    HW1 1892   3.012   0.189   2.165 -1.0519  0.8065  0.8512
  631SOL    HW2 1893   3.028   0.104   2.024  1.8199  1.2371 -0.4691
  632SOL     OW 1894   2.396   2.516   0.638 -0.5581  0.9302  0.5652
  632SOL    HW1 1895   2.435   2.604   0.682 -1.9147  2.2349  0.5577
  632SOL    HW2 1896   2.333   2.526   0.556 -0.5386 -1.0643 -0.1754
  633SOL     OW 1897   1.573   1.284   2.538  0.4865  0.0451  0.0874
  633SOL    HW1 1898   1.559   1.361   2.605  0.0548 -0.0451 -1.5626
  633SOL    HW2 1899   1.510   1.281   2.456  2.3725 -1.1286 -0.0009
  634SOL     OW 1900   0.650   1.998   0.902 -0.4571 -0.3638  0.5061
  634SOL    HW1 1901   0.570   2.021   0.966  0.8940 -0.4005 -0.1169
  634SOL    HW2 1902   0.725   2.069   0.910 -1.3955 -0.1317 -1.4962
  635SOL     OW 1903   0.017   2.322   3.057 -0.1936 -0.0270 -0.1180
  635SOL    HW1 1904  -0.024   2.363   2.971 -1.7494 -0.9358 -0.2270
  635SOL    HW2 1905   0.035   2.387   3.133  1.3772 -0.5192 -0.1426
  636SOL     OW 1906   2.293   2.775   2.042  0.2960  0.6847  0.0042
  636SOL    HW1 1907   2.309   2.875   2.040 -1.8446 -2.2333 -1.8359
  636SOL    HW2 1908   2.258   2.742   2.131  2.3159  0.8405  2.4922
  637SOL     OW 1909   2.579   0.674   2.052 -0.4769 -0.5030 -0.1262
  637SOL    HW1 1910   2.514   0.701   1.979  0.1907 -1.9978  1.7768
  637SOL    HW2 1911   2.637   0.754   2.081  0.0180  0.2230 -3.7580
  638SOL     OW 1912   2.452   1.846   1.293  0.6673  0.4193 -0.2164
  638SOL    HW1 1913   2.351   1.863   1.322  0.2157 -0.5010 -1.5865
  638SOL    HW2 1914   2.502   1.761   1.336  1.1210 -2.0434  2.5258
  639SOL     OW 1915   1.276   2.213   1.656 -0.2305  0.6454  0.0267
  639SOL    HW1 1916   1.283   2.140   1.579  0.0029  0.1084  0.9418
  639SOL    HW2 1917   1.182   2.199   1.711 -1.1515 -1.6776  0.8263
  640SOL     OW 1918   0.210   1.190   1.565 -0.2735  0.2172 -0.1842
  640SOL    HW1 1919   0.213   1.253   1.648 -2.6180  1.6084 -2.3079
  640SOL    HW2 1920   0.298   1.134   1.554  1.2168  0.8403 -1.0894
  641SOL     OW 1921   2.028   0.070   1.524 -0.1263  0.0685  0.7302
  641SOL    HW1 1922   2.015   0.115   1.619  0.9349 -0.8568  3.0343
  641SOL    HW2 1923   2.125   0.037   1.506 -1.8632 -0.5257 -2.3451
  642SOL     OW 1924   1.944   0.108   0.289 -0.3073  0.2263  0.3720
  642SOL    HW1 1925   2.031   0.123   0.351  0.9737 -0.0445  0.5281
  642SOL    HW2 1926   1.864   0.068   0.341 -2.1439  1.8751  0.2348
  643SOL     OW 1927   2.852   1.901   2.073  0.6041  0.3678  0.0760
  643SOL    HW1 1928   2.811   1.818   2.028  0.1143  0.4426 -0.4207
  643SOL    HW2 1929   2.843   1.984   2.008 -2.8318  2.0648 -2.9424
  644SOL     OW 1930   2.190   2.334   1.194 -0.3085 -0.6458  0.3255
  644SOL    HW1 1931   2.261   2.283   1.142 -2.6571  2.4390 -1.2256
  644SOL    HW2 1932   2.183   2.310   1.293 -1.5449  3.5032 -2.3053
  645SOL     OW 1933   0.617   0.827   1.183 -0.3570 -0.6128 -0.3650
  645SOL    HW1 1934   0.543   0.772   1.134 -1.9750 -2.5536 -0.8390
  645SOL    HW2 1935   0.656   0.900   1.118 -2.5406 -0.5015 -3.7689
  646SOL     OW 1936   1.467   1.938   1.844  0.8453 -0.2030 -0.3543
  646SOL    HW1 1937   1.557   1.990   1.860 -0.9204 -1.1436 -0.7725
  646SOL    HW2 1938   1.394   1.966   1.913  1.0662  0.8148  1.0491
  647SOL     OW 1939   0.853   0.994   0.683 -0.1156 -0.7330 -0.5923
  647SOL    HW1 1940   0.912   1.057   0.742 -0.0445 -1.0390  0.8817
  647SOL    HW2 1941   0.815   0.913   0.736  0.9301  2.6223  0.1824
  648SOL     OW 1942   0.083   0.163   0.264 -0.2863 -0.4478  0.2061
  648SOL    HW1 1943   0.144   0.098   0.208 -0.7452  0.7804  1.2795
  648SOL    HW2 1944   0.099   0.257   0.237 -1.0141 -1.7879  2.0770
  649SOL     OW 1945   3.067   0.160   0.918 -0.0859 -0.1139  0.0531
  649SOL    HW1 1946   3.108   0.234   0.857  1.3856 -1.5282 -0.5601
  649SOL    HW2 1947   3.056   0.190   1.016 -0.4731 -0.1410 -0.4471
  650SOL     OW 1948   2.719   0.719   1.409 -0.0330  0.0038 -0.5293
  650SOL    HW1 1949   2.620   0.718   1.427 -0.4142  2.6853 -0.0222
  650SOL    HW2 1950   2.755   0.789   1.339  0.8658  0.5424  0.3910
  651SOL     OW 1951   0.915   1.567   1.646 -0.2935  0.4181  0.0195
  651SOL    HW1 1952   0.964   1.641   1.695 -0.4311 -3.3420 -0.6183
  651SOL    HW2 1953   0.912   1.575   1.541 -0.9618 -1.6138  1.1644
  652SOL     OW 1954   2.260   2.515   2.477 -0.2351 -0.5914 -0.1661
  652SOL    HW1 1955   2.183   2.495   2.542  0.8164 -1.2274 -1.8866
  652SOL    HW2 1956   2.231   2.580   2.398  0.7599  1.3756 -3.8976
  653SOL     OW 1957   2.730   1.169   0.232  0.0826 -0.0799  0.3290
  653SOL    HW1 1958   2.746   1.267   0.259  0.6552  0.4138  0.9660
  653SOL    HW2 1959   2.798   1.096   0.263 -1.5031  0.0541 -1.4160
  654SOL     OW 1960   1.247   2.266   1.221  0.0475  0.2939  0.2898
  654SOL    HW1 1961   1.271   2.184   1.280 -0.4313 -0.7220 -0.8212
  654SOL    HW2 1962   1.308   2.262   1.139  0.1096  2.1080  1.2316
  655SOL     OW 1963   0.219   0.984   1.843  0.1769  1.5182  0.0733
  655SOL    HW1 1964   0.246   0.901   1.792 -0.3497  0.0631  1.1655
  655SOL    HW2 1965   0.288   1.059   1.841 -3.4036  3.7091 -0.5357
  656SOL     OW 1966   2.523   2.478   2.606  0.2609 -0.4973 -0.4718
  656SOL    HW1 1967   2.598   2.433   2.549  1.9874 -0.6564  0.0944
  656SOL    HW2 1968   2.442   2.509   2.547 -2.1899  3.4374 -3.3972
  657SOL     OW 1969   3.076   1.079   1.889 -0.4163 -0.0774 -0.2450
  657SOL    HW1 1970   3.084   1.172   1.937 -0.6327  0.8047 -0.7106
  657SOL    HW2 1971   3.171   1.041   1.873  1.3345 -1.8254  2.3848
  658SOL     OW 1972   1.657   0.202   2.406 -0.4740 -0.1948 -0.4672
  658SOL    HW1 1973   1.698   0.142   2.483 -3.5439 -2.1769 -0.1015
  658SOL    HW2 1974   1.698   0.198   2.311  1.5084 -3.2494  1.9300
  659SOL     OW 1975   1.418   0.626   2.912 -0.8410  0.2175 -0.3054
  659SOL    HW1 1976   1.482   0.708   2.908  0.3059 -1.3115 -0.0135
  659SOL    HW2 1977   1.327   0.652   2.866 -1.9823 -1.0350  0.2929
  660SOL     OW 1978   1.445   0.359   1.447  0.4260 -0.3201 -0.4819
  660SOL    HW1 1979   1.499   0.379   1.539  0.8483  0.7782  1.0473
  660SOL    HW2 1980   1.489   0.282   1.394 -1.6092  2.3162 -1.9509
  661SOL     OW 1981   2.513   1.164   0.636  0.0514  0.0599 -0.1240
  661SOL    HW1 1982   2.519   1.155   0.536  0.4947  0.5221 -0.6215
  661SOL    HW2 1983   2.460   1.245   0.666  2.2393  0.4245 -1.0691
  662SOL     OW 1984   1.336   0.438   1.833 -0.0995  0.0001 -0.1997
  662SOL    HW1 1985   1.300   0.343   1.812 -2.0289 -0.6051  0.7211
  662SOL    HW2 1986   1.296   0.480   1.920  1.2566 -0.4451  0.7286
  663SOL     OW 1987   0.838   1.572   2.180  0.1559 -0.8901  0.2971
  663SOL    HW1 1988   0.793   1.660   2.212 -1.5537 -0.4180  2.3052
  663SOL    HW2 1989   0.781   1.529   2.109  1.7217  1.4554  3.4375
  664SOL     OW 1990   1.659   2.074   1.432  0.1980 -0.6946 -0.5133
  664SOL    HW1 1991   1.621   2.008   1.499 -1.2215 -0.6904 -1.1825
  664SOL    HW2 1992   1.762   2.069   1.431 -0.8691  0.1447  1.3480
  665SOL     OW 1993   2.200   0.682   2.026 -0.3399  0.4502  0.2682
  665SOL    HW1 1994   2.244   0.595   2.069 -3.3070 -0.0496  0.6763
  665SOL    HW2 1995   2.191   0.761   2.096  0.6333  1.3467 -0.4587
  666SOL     OW 1996   0.438   2.370   0.464  0.2988 -0.2256  0.4897
  666SOL    HW1 1997   0.524   2.435   0.463 -0.6487 -1.6682 -1.7617
  666SOL    HW2 1998   0.398   2.361   0.558 -0.5311 -0.5944  0.6295
  667SOL     OW 1999   1.961   0.191   1.050 -0.3953  0.1629 -0.8682
  667SOL    HW1 2000   1.984   0.289   1.079  1.6995 -0.6007  0.1307
  667SOL    HW2 2001   1.900   0.156   1.125 -0.4051  0.0495  0.3222
  668SOL     OW 2002   1.975   0.536   1.167  0.3607  0.2474 -0.0001
  668SOL    HW1 2003   2.060   0.544   1.106 -2.2923  1.3521  1.2358
  668SOL    HW2 2004   1.993   0.484   1.257  0.0887  1.2035  2.3348
  669SOL     OW 2005   3.023   2.238   0.970 -0.0089 -1.1602 -0.1622
  669SOL    HW1 2006   2.958   2.226   0.891  0.6598 -1.1668  0.6466
  669SOL    HW2 2007   2.970   2.278   1.050 -2.0402  1.2347 -4.8256
  670SOL     OW 2008   2.884   2.336   2.011 -0.4269  0.1418  0.5135
  670SOL    HW1 2009   2.810   2.294   2.067 -2.4288  0.6651  0.1164
  670SOL    HW2 2010   2.869   2.439   2.001 -0.1371 -1.0755  0.5255
  671SOL     OW 2011   1.771   1.759   1.426 -0.3695 -0.1374 -0.0015
  671SOL    HW1 2012   1.784   1.762   1.322 -3.4614 -0.5547 -1.1969
  671SOL    HW2 2013   1.679   1.732   1.453 -0.0605 -1.8604  0.1977
  672SOL     OW 2014   0.444   0.568   2.396  0.4636  0.3521  0.4706
  672SOL    HW1 2015   0.476   0.617   2.315 -0.3528 -0.5638  1.5972
  672SOL    HW2 2016   0.353   0.606   2.427  1.9735 -0.7275 -0.4075
  673SOL     OW 2017   0.142   1.176   1.142 -0.0957 -0.1504  0.1088
  673SOL    HW1 2018   0.174   1.266   1.184 -0.6130  0.3553 -0.6643
  673SOL    HW2 2019   0.218   1.129   1.093 -0.7955  0.6961  0.0072
  674SOL     OW 2020   1.572   2.892   0.156 -0.6912 -0.3399 -0.0693
  674SOL    HW1 2021   1.615   2.983   0.128  1.2951  2.7112 -1.1635
  674SOL    HW2 2022   1.609   2.812   0.097  0.9281 -0.0361 -0.4214
  675SOL     OW 2023   1.639   0.843   2.303  0.1249 -0.0561  0.3924
  675SOL    HW1 2024   1.730   0.810   2.267 -3.0704  0.7260 -0.9792
  675SOL    HW2 2025   1.580   0.761   2.291  3.8499  0.2777  0.8596
  676SOL     OW 2026   2.485   1.559   2.021 -0.0519 -0.0247 -0.2267
  676SOL    HW1 2027   2.478   1.501   1.934  1.1811 -0.0178  0.5314
  676SOL    HW2 2028   2.530   1.500   2.101 -0.1825  0.0290 -0.3581
  677SOL     OW 2029   1.860   0.626   0.903 -0.8393 -0.4762  0.0843
  677SOL    HW1 2030   1.910   0.643   0.993  0.5840  2.5881  0.3606
  677SOL    HW2 2031   1.863   0.530   0.863 -0.0290 -0.8446 -0.5899
  678SOL     OW 2032   0.018   0.732   1.667 -0.0816  0.2465 -0.0282
  678SOL    HW1 2033   0.121   0.712   1.688  0.5157  0.6869  1.4076
  678SOL    HW2 2034  -0.031   0.770   1.754 -0.6921  1.0887 -1.7663
  679SOL     OW 2035   2.551   1.151   1.096 -0.0338  0.3558 -0.4193
  679SOL    HW1 2036   2.488   1.194   1.169 -1.5885 -0.5263  0.7935
  679SOL    HW2 2037   2.530   1.051   1.083 -1.7420 -0.1440  1.0179
  680SOL     OW 2038   2.833   0.632   1.648 -0.0560  0.2403 -0.2604
  680SOL    HW1 2039   2.788   0.675   1.564 -2.2208  2.3550  2.0931
  680SOL    HW2 2040   2.894   0.702   1.693 -1.4036  2.4099 -0.9582
  681SOL     OW 2041   2.992   0.121   1.623 -0.1687 -0.4360 -0.5351
  681SOL    HW1 2042   3.079   0.134   1.564 -0.2260  2.7539  0.3028
  681SOL    HW2 2043   2.926   0.200   1.612 -1.1858  2.0239 -0.6464
  682SOL     OW 2044   0.786   0.055   1.366  0.4322 -0.1016  0.6669
  682SOL    HW1 2045   0.741  -0.026   1.411  0.0185  1.8044  2.4334
  682SOL    HW2 2046   0.781   0.045   1.265 -1.2261  0.5655 -0.0061
  683SOL     OW 2047   1.361   0.279   2.165  0.3838 -0.0545  0.6081
  683SOL    HW1 2048   1.352   0.350   2.241 -0.7123  2.3063  0.2031
  683SOL    HW2 2049   1.452   0.282   2.115 -2.0286  2.5624 -2.6314
  684SOL     OW 2050   1.438   2.162   0.527 -0.3977 -0.8034 -0.6477
  684SOL    HW1 2051   1.493   2.119   0.601 -2.0853  0.8632  0.6781
  684SOL    HW2 2052   1.354   2.105   0.508 -0.6267 -0.4144 -2.6059
  685SOL     OW 2053   2.194   2.005   1.909 -0.5712  0.1144  0.6365
  685SOL    HW1 2054   2.225   2.101   1.923 -0.7329 -2.0449 -3.2842
  685SOL    HW2 2055   2.255   1.924   1.939  0.9803 -0.9358  0.2067
  686SOL     OW 2056   1.516   1.751   2.669  0.2941 -0.2608 -0.6447
  686SOL    HW1 2057   1.510   1.667   2.724  3.8568  0.2339 -1.2486
  686SOL    HW2 2058   1.611   1.769   2.642 -1.6411  0.1610 -0.3616
  687SOL     OW 2059   1.297   2.525   1.906  0.1752  0.2973 -0.2863
  687SOL    HW1 2060   1.350   2.448   1.852 -0.7530 -0.7156 -2.1338
  687SOL    HW2 2061   1.349   2.546   1.992  0.7193 -1.2714  1.6603
  688SOL     OW 2062   2.082   1.483   1.681 -0.0963 -0.9635 -0.1370
  688SOL    HW1 2063   2.173   1.524   1.642  1.8469 -1.9750 -2.8527
  688SOL    HW2 2064   2.032   1.439   1.601 -2.9216 -0.4668  0.2041
  689SOL     OW 2065   2.466   1.085   2.742 -0.0784  0.0182  0.7251
  689SOL    HW1 2066   2.363   1.088   2.767 -1.4678 -0.1714  2.1133
  689SOL    HW2 2067   2.513   1.044   2.820 -3.2668  0.4828 -0.5373
  690SOL     OW 2068   2.203   2.752   0.094 -0.1840  0.0275  0.3843
  690SOL    HW1 2069   2.108   2.744   0.063  3.0121  0.7983 -1.7766
  690SOL    HW2 2070   2.204   2.809   0.181  0.5769  0.9823 -1.1705
  691SOL     OW 2071   2.575   0.415   2.106  0.3859  0.3378  0.3726
  691SOL    HW1 2072   2.614   0.354   2.032  2.8729  1.6664  1.4066
  691SOL    HW2 2073   2.583   0.518   2.082  2.4175  1.3779  0.0445
  692SOL     OW 2074   2.780   1.213   0.717  0.5771 -0.0442  0.2601
  692SOL    HW1 2075   2.675   1.204   0.701  1.6254 -1.3616 -0.7516
  692SOL    HW2 2076   2.804   1.296   0.773  0.3433  0.0950  0.0919
  693SOL     OW 2077   2.854   2.985   0.673  0.3502  0.2797 -0.0095
  693SOL    HW1 2078   2.820   3.075   0.716  1.4840  1.0220 -1.0350
  693SOL    HW2 2079   2.802   2.968   0.582  0.4403 -0.1326  1.4857
  694SOL     OW 2080   2.450   2.234   0.065  0.2442  0.0443 -0.4415
  694SOL    HW1 2081   2.402   2.323   0.093 -0.6876 -0.2710  3.4155
  694SOL    HW2 2082   2.376   2.161   0.030 -1.0905 -1.0325 -0.1864
  695SOL     OW 2083   0.620   2.966   1.470 -0.4071  0.0218  0.3429
  695SOL    HW1 2084   0.577   2.881   1.434 -0.2948  0.3677 -0.0986
  695SOL    HW2 2085   0.554   3.002   1.541 -0.3535  1.1797 -1.6645
  696SOL     OW 2086   2.680   1.926   0.720 -0.1717 -0.0444 -0.0470
  696SOL    HW1 2087   2.717   1.837   0.755 -0.6275  0.4502 -1.0144
  696SOL    HW2 2088   2.631   1.912   0.627 -0.2099  0.8660 -2.7152
  697SOL     OW 2089   1.719   2.068   1.846  1.0494 -0.5839 -0.5998
  697SOL    HW1 2090   1.805   2.010   1.860 -0.8127  2.2425  1.5961
  697SOL    HW2 2091   1.737   2.168   1.822 -0.1686  1.1631  2.1956
  698SOL     OW 2092   2.893   0.366   2.737 -0.3459  0.2214 -0.0427
  698SOL    HW1 2093   2.902   0.355   2.631 -2.0019 -0.5709  1.3134
  698SOL    HW2 2094   2.950   0.301   2.788 -4.1924 -1.6519 -2.0066
  699SOL     OW 2095   1.503   0.053   2.928 -0.2130 -0.0096 -0.1177
  699SOL    HW1 2096   1.487  -0.039   2.878 -1.2005 -1.3281 -0.6205
  699SOL    HW2 2097   1.556   0.130   2.881  2.2503 -1.2617  1.2558
  700SOL     OW 2098   0.988   2.311   1.312 -0.1672 -0.1020 -0.1754
  700SOL    HW1 2099   1.082   2.318   1.273  0.1581 -0.9050 -0.3799
  700SOL    HW2 2100   0.919   2.261   1.253  1.4434  0.4078  1.6384
  701SOL     OW 2101   1.920   2.821  -0.002 -0.5079 -0.2769 -0.1798
  701SOL    HW1 2102   1.901   2.751   0.076  0.3166  2.0971 -0.3258
  701SOL    HW2 2103   1.945   2.918   0.030  1.8385 -0.7096 -0.2764
  702SOL     OW 2104   2.086   1.323   1.930 -0.2005 -0.2366 -0.0478
  702SOL    HW1 2105   2.165   1.252   1.919  0.1617 -1.4815 -2.1324
  702SOL    HW2 2106   2.069   1.372   1.840 -1.2780 -2.5450  2.0652
  703SOL     OW 2107   1.916   0.836   1.400 -0.1868  0.2209  0.3102
  703SOL    HW1 2108   1.910   0.752   1.465 -0.7335  1.3825 -1.0221
  703SOL    HW2 2109   1.943   0.925   1.452 -0.4666  1.5057  0.0207
  704SOL     OW 2110   0.316   2.082   1.667  0.0135  0.3954  0.2014
  704SOL    HW1 2111   0.354   2.044   1.760  1.2888  1.1576  0.7410
  704SOL    HW2 2112   0.360   2.175   1.650  2.3956  1.4868  0.0027
  705SOL     OW 2113   2.537   1.390   0.945  0.0240 -0.3830  0.3675
  705SOL    HW1 2114   2.458   1.379   0.880 -0.5424 -0.0313  2.9671
  705SOL    HW2 2115   2.574   1.299   0.982  2.8827  0.9105 -3.8631
  706SOL     OW 2116   0.657   1.764   1.854  0.0911  0.3404 -0.1271
  706SOL    HW1 2117   0.644   1.666   1.883 -1.5161 -0.9434 -0.6534
  706SOL    HW2 2118   0.690   1.836   1.927 -1.5299  3.4488 -0.6766
  707SOL     OW 2119   2.242   1.110   1.883  0.4804  0.0822 -0.2555
  707SOL    HW1 2120   2.331   1.102   1.936 -2.3709  1.5925 -0.1005
  707SOL    HW2 2121   2.211   1.029   1.834 -0.7451  1.5199 -0.5442
  708SOL     OW 2122   2.983   0.504   3.060  0.1705 -0.5113  0.3835
  708SOL    HW1 2123   3.033   0.571   2.994  2.3838 -1.2537  0.0252
  708SOL    HW2 2124   2.981   0.405   3.031  3.6307  0.6368 -0.5944
  709SOL     OW 2125   1.808   1.883   0.256  0.2719 -0.7481  0.2023
  709SOL    HW1 2126   1.861   1.971   0.289  1.7981 -0.6400 -0.3798
  709SOL    HW2 2127   1.824   1.868   0.156  0.6763 -0.6929 -0.1484
  710SOL     OW 2128   1.688   1.588   2.410  0.3809  0.1785  0.2354
  710SOL    HW1 2129   1.765   1.589   2.340 -2.1108  1.9752  1.8597
  710SOL    HW2 2130   1.710   1.547   2.503 -1.6280 -2.8061 -4.1496
  711SOL     OW 2131   2.671   2.924   0.973 -0.0971 -0.2180 -0.3777
  711SOL    HW1 2132   2.625   3.018   0.954 -3.8252 -1.1097  2.3532
  711SOL    HW2 2133   2.774   2.929   0.988 -0.4107  0.3538  3.7172
  712SOL     OW 2134   1.445   2.269   1.856  0.6626  0.4810 -1.1019
  712SOL    HW1 2135   1.528   2.216   1.880  0.0246  0.3528 -1.2724
  712SOL    HW2 2136   1.396   2.224   1.773  0.0847 -3.6560 -0.2418
  713SOL     OW 2137   2.796   1.527   2.508 -0.6294 -0.0945 -0.7531
  713SOL    HW1 2138   2.835   1.432   2.499 -3.6781 -1.6513  1.2768
  713SOL    HW2 2139   2.714   1.538   2.566  1.2541  0.5062  0.4168
  714SOL     OW 2140   2.667   0.446   2.395 -0.4815  0.0429 -0.1162
  714SOL    HW1 2141   2.639   0.389   2.475 -0.6061 -0.5402 -2.4978
  714SOL    HW2 2142   2.609   0.423   2.315  3.4317 -1.1660 -0.6682
  715SOL     OW 2143   1.592   2.038   1.156 -0.3538  0.0392 -0.2577
  715SOL    HW1 2144   1.520   2.103   1.125  1.7380 -1.4490  2.2021
  715SOL    HW2 2145   1.614   2.063   1.257  1.4219  1.1556 -1.3263
  716SOL     OW 2146   1.228   0.223   1.518  0.0807  0.2187  0.0764
  716SOL    HW1 2147   1.139   0.249   1.472  1.2761  0.6760 -0.7541
  716SOL    HW2 2148   1.303   0.291   1.492  0.9025 -0.3324 -1.0944
  717SOL     OW 2149   1.093   0.615   1.614 -0.2439  0.1852  0.2949
  717SOL    HW1 2150   1.195   0.632   1.641  2.0353 -0.6726  0.4647
  717SOL    HW2 2151   1.078   0.584   1.511 -3.0476 -1.2159 -1.6684
  718SOL     OW 2152   0.736   0.992   0.963 -0.0321 -0.0482  0.6557
  718SOL    HW1 2153   0.668   0.972   0.885 -1.5781 -0.0130 -1.3070
  718SOL    HW2 2154   0.738   1.089   1.006  0.0362  2.0550  1.7637
  719SOL     OW 2155   0.738   1.817   2.284  0.6134  0.8214  0.4406
  719SOL    HW1 2156   0.803   1.839   2.370  0.1449 -0.4457  4.1311
  719SOL    HW2 2157   0.637   1.808   2.305 -1.5858  0.0966 -0.3063
  720SOL     OW 2158   2.186   1.119   0.230  0.3474 -0.6140  0.5763
  720SOL    HW1 2159   2.268   1.065   0.196  0.2104 -1.8519 -0.1056
  720SOL    HW2 2160   2.165   1.099   0.334 -1.2004  0.3023  2.0307
  721SOL     OW 2161   2.301   3.052   2.093 -0.0508  0.8093 -0.1087
  721SOL    HW1 2162   2.320   3.140   2.048  1.6274 -0.4888  1.5294
  721SOL    HW2 2163   2.201   3.047   2.123 -2.1297  1.3018  0.6189
  722SOL     OW 2164   2.372   1.625   0.568  0.4263  0.1695 -0.5250
  722SOL    HW1 2165   2.379   1.590   0.468 -0.0409 -0.6410 -1.2902
  722SOL    HW2 2166   2.292   1.689   0.580 -2.7511 -1.0420  1.6381
  723SOL     OW 2167   2.556   2.732   1.975 -0.2092  0.6252 -0.1717
  723SOL    HW1 2168   2.603   2.787   2.055 -1.5025  1.1488  1.7997
  723SOL    HW2 2169   2.455   2.729   1.993  1.5252  1.1071  1.4332
  724SOL     OW 2170   0.532   2.484   2.400 -0.3471  0.2490 -0.0549
  724SOL    HW1 2171   0.434   2.474   2.424  0.8248 -2.9368  0.5803
  724SOL    HW2 2172   0.590   2.500   2.481  0.4192  0.1226  0.8714
  725SOL     OW 2173   2.475   2.759   1.557  0.4614  0.4037  0.1567
  725SOL    HW1 2174   2.538   2.749   1.475  1.2438  1.3928  1.5859
  725SOL    HW2 2175   2.400   2.683   1.550  0.1647 -2.2450  0.6300
  726SOL     OW 2176   2.364   2.222   0.670 -0.1199 -0.6604  0.1395
  726SOL    HW1 2177   2.395   2.325   0.658  0.4842  1.6080  1.7864
  726SOL    HW2 2178   2.365   2.171   0.584 -0.5176  2.7162  1.2745
  727SOL     OW 2179   0.199   3.096   0.071  0.7826  0.4349  0.3455
  727SOL    HW1 2180   0.285   3.051   0.050 -1.2592  0.5682  0.7239
  727SOL    HW2 2181   0.129   3.096  -0.006 -1.1080 -1.7648  1.7214
  728SOL     OW 2182   2.853   0.668   0.965 -0.2848 -0.1099 -0.2656
  728SOL    HW1 2183   2.765   0.658   0.914  1.2753  0.7418  0.4376
  728SOL    HW2 2184   2.861   0.628   1.062 -1.5972 -2.6413 -0.9223
  729SOL     OW 2185   2.926   2.445   0.710 -0.6629  0.0532 -0.6671
  729SOL    HW1 2186   2.850   2.377   0.720 -0.3423 -2.9306  0.9606
  729SOL    HW2 2187   3.013   2.432   0.769  0.9114  1.0793  1.9148
  730SOL     OW 2188   2.613   0.593   0.852  0.1487 -0.3424 -0.8042
  730SOL    HW1 2189   2.564   0.673   0.815  2.5785 -3.1598 -1.3804
  730SOL    HW2 2190   2.686   0.563   0.784 -1.5714  0.2318  1.4854
  731SOL     OW 2191   0.104   2.125   2.449 -0.3151 -0.0280 -0.0798
  731SOL    HW1 2192   0.120   2.163   2.541 -2.5848  0.0099 -3.3667
  731SOL    HW2 2193   0.112   2.205   2.383 -1.3872  0.7844  0.1702
  732SOL     OW 2194   1.112   2.877   1.944  0.5359 -0.9784  0.4288
  732SOL    HW1 2195   1.168   2.824   2.016  0.3958  0.2122  0.6932
  732SOL    HW2 2196   1.123   2.823   1.858  0.0293 -0.9721  1.9222
  733SOL     OW 2197   0.002   0.665   2.163  0.5168  1.0469 -0.5564
  733SOL    HW1 2198   0.090   0.694   2.112  0.8454  1.0800 -0.0131
  733SOL    HW2 2199  -0.063   0.602   2.116 -1.3108 -0.4449  0.3193
  734SOL     OW 2200   1.436   0.388   2.772  0.1142 -0.3108 -0.4478
  734SOL    HW1 2201   1.432   0.484   2.812 -1.4333  0.6082  0.9517
  734SOL    HW2 2202   1.339   0.351   2.750  2.0856 -1.1483  0.5007
  735SOL     OW 2203   2.920   2.601   2.255 -0.0917  0.5798 -0.5869
  735SOL    HW1 2204   2.887   2.611   2.158 -1.2348 -1.8958 -2.2240
  735SOL    HW2 2205   3.022   2.575   2.256 -0.0584  1.0421 -1.2368
  736SOL     OW 2206   0.704   0.421   2.613  0.2852  0.6117 -0.5963
  736SOL    HW1 2207   0.623   0.478   2.585  4.5388  0.6596  3.9432
  736SOL    HW2 2208   0.759   0.384   2.539 -0.3663  3.2580  0.6548
  737SOL     OW 2209   2.662   0.421   2.861  0.0335  0.3756 -0.0864
  737SOL    HW1 2210   2.666   0.372   2.955 -0.4889  0.0040  2.7555
  737SOL    HW2 2211   2.752   0.417   2.805  1.0889  1.4852 -0.4231
  738SOL     OW 2212   1.593   1.248   2.912 -0.6489 -0.4170  0.2686
  738SOL    HW1 2213   1.688   1.211   2.927 -2.5744  1.3838 -0.6216
  738SOL    HW2 2214   1.539   1.213   2.829 -0.5664  3.1790  0.9540
  739SOL     OW 2215   1.710   0.623   0.659  0.7390 -0.1589  0.6958
  739SOL    HW1 2216   1.756   0.635   0.750 -1.0458 -2.1748  2.8974
  739SOL    HW2 2217   1.769   0.577   0.588  0.2338 -0.2264  1.9553
  740SOL     OW 2218   1.946   1.898   2.347  0.4611 -0.6647 -0.3933
  740SOL    HW1 2219   2.001   1.813   2.357 -2.7858 -1.8261  1.0298
  740SOL    HW2 2220   1.866   1.887   2.277 -2.6390 -0.8657 -0.0882
  741SOL     OW 2221   2.549   0.059   2.612  0.0038 -0.5677 -0.5754
  741SOL    HW1 2222   2.653   0.060   2.621  1.3554 -0.9831 -1.1268
  741SOL    HW2 2223   2.526   0.046   2.512 -2.4765  0.3763  1.5658
  742SOL     OW 2224   2.254   1.410   0.170 -0.0393  0.3409 -0.0039
  742SOL    HW1 2225   2.195   1.481   0.215  2.6668  0.0841 -1.1606
  742SOL    HW2 2226   2.234   1.316   0.210  1.0785  2.2018 -0.0393
  743SOL     OW 2227   1.806   0.645   2.591  0.0389 -0.5621 -0.0698
  743SOL    HW1 2228   1.766   0.568   2.530 -1.4579 -0.4229  0.8389
  743SOL    HW2 2229   1.744   0.725   2.588 -1.1394 -2.6955  0.9806
  744SOL     OW 2230   2.693   2.147   0.061 -0.1091  0.0471 -0.3080
  744SOL    HW1 2231   2.592   2.182   0.068  1.7501 -1.7456 -1.4301
  744SOL    HW2 2232   2.687   2.044   0.031 -1.4486 -0.1575  0.4746
  745SOL     OW 2233   2.143   2.677   2.271  0.0782  0.3175 -0.4752
  745SOL    HW1 2234   2.069   2.676   2.195 -1.0825 -1.4732 -3.7181
  745SOL    HW2 2235   2.153   2.766   2.327 -1.6626  0.5313  1.4688
  746SOL     OW 2236   3.094   2.608   1.804 -0.0373 -0.0118  0.5988
  746SOL    HW1 2237   3.185   2.613   1.751  0.8196 -1.2215  0.6341
  746SOL    HW2 2238   3.057   2.700   1.840 -1.3025 -0.0390  1.4540
  747SOL     OW 2239   0.032   1.772   1.621  0.0955  0.1161  0.2900
  747SOL    HW1 2240  -0.032   1.687   1.631  0.4496 -1.1118  2.9025
  747SOL    HW2 2241   0.080   1.783   1.532 -3.5036  0.3997  0.3636
  748SOL     OW 2242   1.848   2.776   2.837 -0.2267  0.3043  0.2947
  748SOL    HW1 2243   1.869   2.806   2.932 -2.5126 -1.3759  1.5413
  748SOL    HW2 2244   1.750   2.744   2.831 -1.3118  1.7717  3.0377
  749SOL     OW 2245   1.334   3.087   0.888  0.4118  0.2899 -0.0726
  749SOL    HW1 2246   1.249   3.025   0.916 -1.1311 -1.9760 -1.4655
  749SOL    HW2 2247   1.334   3.102   0.785  0.1921 -0.8028 -1.9769
  750SOL     OW 2248   2.348   0.230   1.866 -0.5423 -0.5540  0.1824
  750SOL    HW1 2249   2.340   0.309   1.797 -1.9148  1.1794  0.2267
  750SOL    HW2 2250   2.379   0.267   1.959 -0.3979  0.4576 -3.6412
  751SOL     OW 2251   0.934   2.188   2.722 -0.7273  0.4769  0.3379
  751SOL    HW1 2252   0.928   2.198   2.827 -1.2956 -1.7892  0.5254
  751SOL    HW2 2253   0.850   2.143   2.680  1.1421  2.0912 -0.7489
  752SOL     OW 2254   1.267   0.857   1.510  0.2124 -0.3229 -0.1032
  752SOL    HW1 2255   1.341   0.919   1.469  2.1109 -0.1093  1.9284
  752SOL    HW2 2256   1.306   0.772   1.551  1.6630  1.1179  3.4620
  753SOL     OW 2257   0.954   2.589   1.698 -0.6128  0.1815 -0.6999
  753SOL    HW1 2258   1.051   2.617   1.681  1.8286 -3.9362  0.3548
  753SOL    HW2 2259   0.875   2.652   1.667  0.2689 -0.8178 -1.4913
  754SOL     OW 2260   1.224   1.325   3.077  0.3441  0.1786 -0.9096
  754SOL    HW1 2261   1.264   1.258   3.009 -2.1337  1.7479  0.1760
  754SOL    HW2 2262   1.208   1.415   3.033 -0.7096 -0.1180  1.4843
  755SOL     OW 2263   1.940   0.425   2.198 -0.4806  0.0642 -0.1327
  755SOL    HW1 2264   2.027   0.426   2.254 -0.9163  0.9300 -1.6573
  755SOL    HW2 2265   1.861   0.445   2.264  1.0354 -0.6219 -0.1979
  756SOL     OW 2266   2.611   0.951   2.929  0.5991  0.1401 -0.1788
  756SOL    HW1 2267   2.714   0.962   2.949 -0.3194 -0.4567  3.1702
  756SOL    HW2 2268   2.567   0.880   2.985 -2.4076  1.5375  3.5067
  757SOL     OW 2269   3.059   0.455   1.790  0.6588 -0.4765  0.0349
  757SOL    HW1 2270   3.097   0.529   1.727 -1.6605  1.3038  0.8304
  757SOL    HW2 2271   3.130   0.389   1.817 -0.2511 -0.0654 -1.9651
  758SOL     OW 2272   2.389   0.088   1.437  0.5988 -0.5333  0.2429
  758SOL    HW1 2273   2.356  -0.005   1.470 -0.8914  2.6731  2.2835
  758SOL    HW2 2274   2.393   0.100   1.334 -0.1427  2.5567  1.0195
  759SOL     OW 2275   1.691   0.042   0.089 -0.1595  0.3146  0.1119
  759SOL    HW1 2276   1.648   0.051  -0.001 -0.1966  2.3156  3.0633
  759SOL    HW2 2277   1.795   0.026   0.079 -0.1011 -3.2948 -0.8227
  760SOL     OW 2278   2.738   2.078   2.822 -0.4304 -0.4021  0.0670
  760SOL    HW1 2279   2.827   2.031   2.825 -0.8994 -0.3571  1.6663
  760SOL    HW2 2280   2.739   2.159   2.888  3.1416 -0.2274 -2.0564
  761SOL     OW 2281   1.948   1.733   1.642 -0.3630 -0.1994 -0.6253
  761SOL    HW1 2282   1.981   1.639   1.667  0.5070  0.6882  1.0203
  761SOL    HW2 2283   1.865   1.733   1.581 -1.7739 -1.9229 -2.7236
  762SOL     OW 2284   0.472   2.346   0.990  0.2270  0.4803  0.5036
  762SOL    HW1 2285   0.505   2.377   0.896  1.3194  2.4702 -1.2940
  762SOL    HW2 2286   0.492   2.417   1.064  1.4583  2.1924 -0.5294
  763SOL     OW 2287   2.094   1.521   2.987 -0.1331 -0.5621  0.4554
  763SOL    HW1 2288   2.171   1.450   2.986  1.1086  1.3813 -0.9020
  763SOL    HW2 2289   2.008   1.490   3.042  1.4345 -0.0587  1.3925
  764SOL     OW 2290   0.685   0.599   0.874  0.5690 -0.0563  0.4414
  764SOL    HW1 2291   0.650   0.558   0.785  0.3867 -1.1275  0.6827
  764SOL    HW2 2292   0.789   0.593   0.883 -0.0793 -1.6885 -1.2549
  765SOL     OW 2293   0.694   0.217   0.852 -0.0916  0.3153 -0.1459
  765SOL    HW1 2294   0.723   0.309   0.810  1.9701  1.2598 -0.4579
  765SOL    HW2 2295   0.661   0.223   0.950 -0.1773 -2.4215  0.3236
  766SOL     OW 2296   2.954   2.098   3.092  0.0764  0.1248 -0.0922
  766SOL    HW1 2297   2.889   2.130   3.171  0.8074 -1.4325  0.6111
  766SOL    HW2 2298   3.028   2.167   3.072  1.3090  0.9961  2.2979
  767SOL     OW 2299   2.889   1.569   0.524  0.8698  0.2021 -0.3899
  767SOL    HW1 2300   2.807   1.540   0.579  0.5056 -2.7144 -0.7552
  767SOL    HW2 2301   2.933   1.657   0.564 -3.1539  1.3463  1.0686
  768SOL     OW 2302   1.095   0.219   0.339 -0.1585 -0.1432 -0.2138
  768SOL    HW1 2303   1.020   0.163   0.372  3.9167  0.0727 -1.9064
  768SOL    HW2 2304   1.174   0.158   0.307  0.5286  0.0754 -0.9605
  769SOL     OW 2305   1.109   1.873   2.255  0.1230 -0.5974 -0.3934
  769SOL    HW1 2306   1.032   1.895   2.325  1.1003 -2.9813  0.4123
  769SOL    HW2 2307   1.136   1.777   2.249 -2.4729  1.5274  2.6004
  770SOL     OW 2308   0.143   1.302   2.267  0.2216  0.1857  0.6267
  770SOL    HW1 2309   0.131   1.297   2.370  0.0755 -0.4952  1.5092
  770SOL    HW2 2310   0.082   1.234   2.216  1.5376  1.8810  1.1681
  771SOL     OW 2311   2.967   2.829   1.866  0.4963 -0.5574 -0.4294
  771SOL    HW1 2312   2.895   2.863   1.796  2.8811 -0.4466 -0.4499
  771SOL    HW2 2313   2.964   2.885   1.957  0.4177 -1.9551  3.4672
  772SOL     OW 2314   2.180   0.118   2.971  0.2731 -0.1059 -0.4044
  772SOL    HW1 2315   2.253   0.062   2.926 -1.2549  1.1599  1.0839
  772SOL    HW2 2316   2.207   0.218   2.990 -1.1808  1.9519  1.2920
  773SOL     OW 2317   0.720   2.089   2.525 -0.6904 -0.6603  0.1904
  773SOL    HW1 2318   0.685   2.115   2.433 -0.7762 -1.7516  0.3139
  773SOL    HW2 2319   0.647   2.099   2.599  0.9674  1.0710 -0.0082
  774SOL     OW 2320   2.042   0.018   2.657 -0.0026  0.3246 -0.4064
  774SOL    HW1 2321   2.054   0.114   2.693  0.0758 -0.9831 -1.8414
  774SOL    HW2 2322   2.072  -0.066   2.715  0.0385 -2.3563  2.7890
  775SOL     OW 2323   2.522   2.836   2.493  0.6521  0.7385 -0.3218
  775SOL    HW1 2324   2.487   2.931   2.469  0.2294  0.2542  2.3999
  775SOL    HW2 2325   2.624   2.815   2.474 -0.4427 -1.2367 -0.6934
  776SOL     OW 2326   0.045   1.244   0.255 -0.0704  0.0102  0.4111
  776SOL    HW1 2327  -0.010   1.226   0.170 -1.2021 -1.4984  0.1592
  776SOL    HW2 2328  -0.028   1.244   0.331  0.8608  0.1796  0.1721
  777SOL     OW 2329   0.235   2.733   0.486 -0.1784 -0.3581  0.2118
  777SOL    HW1 2330   0.130   2.745   0.493  0.0353 -1.1833  5.8798
  777SOL    HW2 2331   0.285   2.821   0.506 -0.6678 -1.4399  0.5376
  778SOL     OW 2332   1.352   1.996   0.176 -0.3149  0.2336  0.4760
  778SOL    HW1 2333   1.298   1.997   0.264 -1.5849 -0.7332 -0.8309
  778SOL    HW2 2334   1.362   2.091   0.130  1.4186  1.6593  0.0968
  779SOL     OW 2335   0.181   0.784   0.511 -0.5094 -0.0977  0.2389
  779SOL    HW1 2336   0.130   0.695   0.516  0.2271 -0.3756  0.9382
  779SOL    HW2 2337   0.144   0.851   0.579 -0.6423 -0.7414 -2.5748
  780SOL     OW 2338   0.037   0.293   2.301 -0.3262  0.7484  0.4486
  780SOL    HW1 2339   0.013   0.393   2.323 -0.9002  0.7128  2.7730
  780SOL    HW2 2340   0.135   0.287   2.264 -0.2144  0.1363 -1.8518
  781SOL     OW 2341   0.646   1.721   1.559 -0.7867  0.3274  0.1085
  781SOL    HW1 2342   0.682   1.733   1.654  0.4163  0.3973 -1.9947
  781SOL    HW2 2343   0.546   1.703   1.554  3.9616 -1.5555  0.8354
  782SOL     OW 2344   2.586   0.149   0.884 -0.7264 -0.0066  0.1650
  782SOL    HW1 2345   2.520   0.172   0.809  0.8867  1.6012  1.8278
  782SOL    HW2 2346   2.566   0.205   0.971 -2.3877 -0.7907  0.7855
  783SOL     OW 2347   2.821   0.665   2.529 -0.3223 -0.2435 -0.4759
  783SOL    HW1 2348   2.779   0.660   2.622  0.7552  1.7561 -1.7684
  783SOL    HW2 2349   2.755   0.629   2.463  0.4299  1.4187 -0.3054
  784SOL     OW 2350   1.359   2.251   0.055  0.0373  0.0924  0.0073
  784SOL    HW1 2351   1.451   2.278   0.097 -1.0990 -0.1609  0.5218
  784SOL    HW2 2352   1.360   2.259  -0.048 -2.6058  5.2193  3.1150
  785SOL     OW 2353   2.194   0.373   3.061 -0.1182 -0.2212  0.1326
  785SOL    HW1 2354   2.113   0.354   3.123 -2.1385  1.6948 -0.9252
  785SOL    HW2 2355   2.211   0.476   3.039 -1.5863  0.9855 -2.1350
  786SOL     OW 2356   2.049   2.127   2.207  0.2603 -0.2167  0.2701
  786SOL    HW1 2357   2.003   2.035   2.212 -0.4607  2.0980  0.7109
  786SOL    HW2 2358   2.141   2.128   2.245 -0.3945  1.0781 -0.0198
  787SOL     OW 2359   1.397   0.604   0.877  0.1314 -0.2379  0.0834
  787SOL    HW1 2360   1.324   0.678   0.888 -0.7975 -0.1490 -3.1838
  787SOL    HW2 2361   1.418   0.576   0.779  1.8222 -0.2655  1.0828
  788SOL     OW 2362   1.220   0.401   3.035  0.1729  0.1739 -0.1907
  788SOL    HW1 2363   1.132   0.441   3.007  0.4120 -3.4936  0.4362
  788SOL    HW2 2364   1.308   0.436   2.990 -0.8011 -4.0520 -1.7859
  789SOL     OW 2365   2.591   0.086   1.783 -0.5705  0.3233 -0.2870
  789SOL    HW1 2366   2.502   0.128   1.797 -0.7772  1.2076  0.8225
  789SOL    HW2 2367   2.580  -0.021   1.786  0.8886 -1.3330  0.5971
  790SOL     OW 2368   2.535   2.678   0.842 -0.0953 -0.1866 -0.2347
  790SOL    HW1 2369   2.604   2.741   0.814 -3.0169 -3.6545 -2.5453
  790SOL    HW2 2370   2.564   2.631   0.929  0.4659  0.2657 -0.9962
  791SOL     OW 2371   1.938   1.269   0.245  0.1989  0.1792 -0.3539
  791SOL    HW1 2372   1.854   1.224   0.283  0.9972  0.1697 -2.3572
  791SOL    HW2 2373   2.018   1.209   0.268 -0.6031 -1.1099  2.1319
  792SOL     OW 2374   0.446   2.021   2.164 -0.1194 -0.1205  0.6118
  792SOL    HW1 2375   0.497   2.083   2.229  0.2730  0.9822 -0.4936
  792SOL    HW2 2376   0.363   1.972   2.204 -4.2659  0.8356  0.5102
  793SOL     OW 2377   2.105   1.558   2.090  0.9096  0.3996  0.2829
  793SOL    HW1 2378   2.174   1.631   2.071  2.0890  0.9470 -1.1321
  793SOL    HW2 2379   2.106   1.477   2.018  0.3198 -0.7565 -3.4101
  794SOL     OW 2380   0.467   1.376   2.474 -0.2827  0.1281  0.3859
  794SOL    HW1 2381   0.457   1.324   2.385  0.0439 -0.4060 -1.8848
  794SOL    HW2 2382   0.420   1.468   2.470 -0.4760  2.3232 -0.1105
  795SOL     OW 2383   2.486   2.349   1.803  0.5658 -0.6297  0.2416
  795SOL    HW1 2384   2.456   2.400   1.893 -0.6702  1.8907 -1.1328
  795SOL    HW2 2385   2.413   2.278   1.772  0.2214 -0.1758  0.9891
  796SOL     OW 2386   3.096   1.059   2.703 -0.2244 -0.5510  0.1015
  796SOL    HW1 2387   2.998   1.075   2.717  0.5318  2.8247 -1.1532
  796SOL    HW2 2388   3.149   1.102   2.778 -4.1687  1.1627  1.6029
  797SOL     OW 2389   0.775   0.664   1.343 -0.0174  0.1950  0.4667
  797SOL    HW1 2390   0.842   0.712   1.402  0.6321 -1.9761  0.0686
  797SOL    HW2 2391   0.712   0.727   1.292  0.4760 -2.2244  0.4990
  798SOL     OW 2392   1.312   0.427   1.067 -0.9750 -0.2874  0.5212
  798SOL    HW1 2393   1.323   0.474   1.158  0.6640  0.9653 -2.5314
  798SOL    HW2 2394   1.365   0.477   0.989  0.0699  2.0026 -0.8413
  799SOL     OW 2395   1.925   2.710   1.029 -0.4303  0.2666 -0.4624
  799SOL    HW1 2396   1.893   2.630   1.087  0.7664  2.1062  0.9124
  799SOL    HW2 2397   1.933   2.688   0.923 -2.1578  2.5067  0.0693
  800SOL     OW 2398   2.943   0.820   1.869  0.5817  0.0842  0.0638
  800SOL    HW1 2399   2.990   0.912   1.852  0.6436  0.5333  0.2500
  800SOL    HW2 2400   2.847   0.828   1.905  0.0615 -2.1110  1.1392
  801SOL     OW 2401   1.972   2.138   0.050 -0.1787 -0.0211 -0.1183
  801SOL    HW1 2402   1.910   2.127  -0.032  1.1774 -2.5359  1.5014
  801SOL    HW2 2403   2.071   2.112   0.034  2.6285 -1.8687  2.1109
  802SOL     OW 2404   0.707   0.725   2.507  0.1911 -0.4407 -0.0655
  802SOL    HW1 2405   0.767   0.735   2.420  0.9423  0.2516 -2.6580
  802SOL    HW2 2406   0.609   0.749   2.498 -0.2268  0.4991  0.6093
  803SOL     OW 2407   0.965   0.082   0.895 -0.2863 -0.2599 -0.0816
  803SOL    HW1 2408   1.040   0.151   0.925  1.9042 -0.7668 -2.1390
  803SOL    HW2 2409   0.907   0.130   0.823  2.2886  0.0736 -1.0788
  804SOL     OW 2410   0.289   3.059   2.179  0.0656  0.6297 -0.4982
  804SOL    HW1 2411   0.269   3.154   2.214 -0.2957  0.7962  0.1666
  804SOL    HW2 2412   0.248   3.044   2.085 -0.8772 -2.4856  0.5367
  805SOL     OW 2413   2.335   0.419   0.323 -0.1482 -0.1228 -0.5866
  805SOL    HW1 2414   2.392   0.389   0.407 -0.6699  2.3514 -0.2536
  805SOL    HW2 2415   2.349   0.355   0.240 -0.0787 -2.7491 -2.4642
  806SOL     OW 2416   0.655   2.484   1.792 -1.0095  0.2325 -0.1526
  806SOL    HW1 2417   0.612   2.576   1.819 -0.1847  2.6105  0.1571
  806SOL    HW2 2418   0.724   2.492   1.716  0.5614 -1.8329  0.9469
  807SOL     OW 2419   2.497   0.939   0.434 -0.2752  0.1568 -0.0377
  807SOL    HW1 2420   2.565   0.858   0.441 -1.0465 -1.0735  2.1731
  807SOL    HW2 2421   2.493   0.993   0.348 -1.6951  3.0182  0.7093
  808SOL     OW 2422   0.640   2.028   2.887 -0.2290 -0.7527 -0.2089
  808SOL    HW1 2423   0.585   2.058   2.970 -1.5725 -2.1712 -0.8177
  808SOL    HW2 2424   0.659   1.923   2.885 -0.5069 -3.1799  0.7656
  809SOL     OW 2425   2.559   1.991   1.864 -0.0251  0.2135  0.4425
  809SOL    HW1 2426   2.653   2.043   1.882 -1.4408  0.8891  0.7240
  809SOL    HW2 2427   2.529   1.991   1.765 -0.9304  3.6520  2.2485
  810SOL     OW 2428   2.165   1.103   0.504 -0.3754 -0.1593  0.0926
  810SOL    HW1 2429   2.180   1.021   0.567 -1.9534 -0.1895 -0.2130
  810SOL    HW2 2430   2.166   1.201   0.551 -0.9979 -0.5306  0.8790
  811SOL     OW 2431   1.386   2.553   1.195 -0.2651  0.1620 -0.1236
  811SOL    HW1 2432   1.349   2.457   1.203 -3.1066  1.1329  1.6200
  811SOL    HW2 2433   1.348   2.604   1.277  1.5192  0.9047  0.6479
  812SOL     OW 2434   1.407   0.775   1.972  0.1128  0.2596 -0.4011
  812SOL    HW1 2435   1.328   0.756   1.907 -0.6236  2.4714  0.5187
  812SOL    HW2 2436   1.429   0.877   1.972 -1.9913 -1.7922 -0.8830
  813SOL     OW 2437   1.598   2.070   2.433 -0.4315  0.1786 -0.1186
  813SOL    HW1 2438   1.635   1.990   2.490 -0.0191 -1.5651  0.1065
  813SOL    HW2 2439   1.591   2.050   2.331 -1.2299  1.2540  1.0055
  814SOL     OW 2440   3.000   1.608   2.867 -0.2781  0.1700  0.5239
  814SOL    HW1 2441   3.075   1.568   2.930  2.0552 -0.1763  4.5009
  814SOL    HW2 2442   2.983   1.708   2.886 -2.1679  0.0521 -0.4845
  815SOL     OW 2443   2.203   2.894   2.765  0.2265  0.0147  0.5504
  815SOL    HW1 2444   2.189   2.802   2.815  0.0351 -0.5969 -0.8371
  815SOL    HW2 2445   2.291   2.944   2.796  2.8576  0.7246  0.4123
  816SOL     OW 2446   1.578   0.350   1.673 -0.4667  0.0734  0.3093
  816SOL    HW1 2447   1.632   0.258   1.678 -1.2102  0.4674  0.4035
  816SOL    HW2 2448   1.537   0.380   1.760  0.0761  0.2672 -1.1588
  817SOL     OW 2449   0.387   1.174   2.663 -0.2399  0.1179 -0.1674
  817SOL    HW1 2450   0.296   1.192   2.710 -1.5826 -0.7009 -0.6067
  817SOL    HW2 2451   0.411   1.255   2.602  0.7367  0.8007  0.4298
  818SOL     OW 2452   1.962   0.820   0.436  0.9586 -0.2537 -0.1189
  818SOL    HW1 2453   2.066   0.811   0.435 -0.1042 -2.1187  0.7092
  818SOL    HW2 2454   1.930   0.857   0.529  3.1983 -0.4060  2.3707
  819SOL     OW 2455   2.743   2.967   3.067 -0.4657  0.5046 -0.7344
  819SOL    HW1 2456   2.753   2.905   3.147 -0.6221  0.4923  0.7512
  819SOL    HW2 2457   2.704   2.914   2.986 -1.7585 -3.1057  0.2072
  820SOL     OW 2458   1.246   1.034   0.514 -0.0301 -0.2875  0.2919
  820SOL    HW1 2459   1.278   1.127   0.547  2.6703 -0.8025 -0.5289
  820SOL    HW2 2460   1.229   0.974   0.597 -0.3009 -3.4469  1.1423
  821SOL     OW 2461   0.037   1.252   0.722 -0.2827 -0.0753  0.0911
  821SOL    HW1 2462  -0.011   1.242   0.819 -1.6869  0.2633 -0.2097
  821SOL    HW2 2463   0.107   1.327   0.724 -2.0313 -2.5305 -2.3043
  822SOL     OW 2464   2.525   1.805   2.467 -0.2959  0.0539  0.0677
  822SOL    HW1 2465   2.532   1.887   2.533 -0.4561 -0.0330  0.6815
  822SOL    HW2 2466   2.459   1.821   2.388 -2.2985  0.1693  0.0242
  823SOL     OW 2467   2.009   0.885   1.141 -0.2730  0.1920  0.0694
  823SOL    HW1 2468   1.969   0.863   1.233 -2.4660 -1.0432 -0.6205
  823SOL    HW2 2469   1.931   0.916   1.073 -0.6350  2.5332  1.0929
  824SOL     OW 2470   0.211   1.991   2.795 -0.0831  0.3959 -0.1287
  824SOL    HW1 2471   0.226   1.934   2.880  2.4912 -0.4318  0.6578
  824SOL    HW2 2472   0.278   1.960   2.726  0.3607 -1.7012  2.1103
  825SOL     OW 2473   1.318   1.044   0.265  0.4338  0.1613  0.1457
  825SOL    HW1 2474   1.334   1.144   0.231 -2.2265  1.4117  0.3171
  825SOL    HW2 2475   1.290   1.036   0.363 -0.7629  1.2713 -0.1361
  826SOL     OW 2476   1.927   0.625   1.596  0.3898 -0.2684  0.2086
  826SOL    HW1 2477   2.024   0.606   1.632 -0.4492  0.6183  0.9249
  826SOL    HW2 2478   1.882   0.540   1.549  0.8260 -1.6119  1.0724
  827SOL     OW 2479   0.650   1.230   0.301  0.5000  0.1472  0.2277
  827SOL    HW1 2480   0.736   1.196   0.257 -0.6880 -0.0506  0.3068
  827SOL    HW2 2481   0.605   1.160   0.363  0.5377  1.1956 -2.4956
  828SOL     OW 2482   2.658   0.113   1.524 -0.3583 -0.0111 -0.5545
  828SOL    HW1 2483   2.564   0.111   1.477  1.2475 -0.3167  1.9453
  828SOL    HW2 2484   2.645   0.099   1.627 -0.8154  2.8432  0.9326
  829SOL     OW 2485   2.957   2.378   2.823  0.2161  0.7367 -0.1352
  829SOL    HW1 2486   2.871   2.355   2.879  3.0455 -0.5438  1.5882
  829SOL    HW2 2487   2.976   2.477   2.829  0.2768 -1.3808  1.0523
  830SOL     OW 2488   2.883   0.962   3.056 -0.0121 -0.1504 -0.2865
  830SOL    HW1 2489   2.960   1.027   3.053 -0.3970 -2.0088  0.8437
  830SOL    HW2 2490   2.890   0.889   3.126  1.3358 -2.4405 -2.2821
  831SOL     OW 2491   0.035   0.549   0.426 -0.5176  0.0042 -0.3863
  831SOL    HW1 2492  -0.009   0.481   0.491 -0.4424 -0.1988  1.2534
  831SOL    HW2 2493   0.085   0.500   0.351 -1.3700 -2.6908  1.4870
  832SOL     OW 2494   1.839   0.771   3.044  0.1971 -0.2424 -0.1568
  832SOL    HW1 2495   1.750   0.809   3.005  0.2864  2.4452  3.7775
  832SOL    HW2 2496   1.839   0.666   3.053  1.7315 -1.6924  2.1862
  833SOL     OW 2497   2.425   2.056   0.462  0.0243 -0.1332 -0.1470
  833SOL    HW1 2498   2.330   2.021   0.462  1.2335 -1.3753 -2.6352
  833SOL    HW2 2499   2.486   1.972   0.437  3.0298 -1.2450 -0.8113
  834SOL     OW 2500   0.152   0.106   0.546  0.2278  0.1068  0.2375
  834SOL    HW1 2501   0.216   0.030   0.573  4.2028  0.7029 -0.1596
  834SOL    HW2 2502   0.142   0.115   0.444  1.1454  2.0462  0.3867
  835SOL     OW 2503   2.420   1.516   1.163  1.1385  0.0075 -0.1842
  835SOL    HW1 2504   2.470   1.595   1.209 -0.6460  3.7161  1.3614
  835SOL    HW2 2505   2.466   1.480   1.077 -0.6022 -1.7704  1.2218
  836SOL     OW 2506   1.615   0.842   2.567 -0.1277 -0.2681 -0.0611
  836SOL    HW1 2507   1.517   0.808   2.589 -1.7657 -1.0542 -1.5060
  836SOL    HW2 2508   1.631   0.845   2.463 -0.7450 -1.6489  0.0611
  837SOL     OW 2509   1.640   0.048   0.593  0.2828  0.1140  0.3350
  837SOL    HW1 2510   1.603   0.132   0.646 -0.2120  0.7569 -0.2324
  837SOL    HW2 2511   1.602   0.043   0.498 -0.5361 -0.8080  0.2313
  838SOL     OW 2512   1.228   1.365   2.749  0.1371 -0.2840 -0.7515
  838SOL    HW1 2513   1.202   1.437   2.819 -0.2931  1.7218 -1.6316
  838SOL    HW2 2514   1.148   1.331   2.695  1.5159 -1.8145 -1.2362
  839SOL     OW 2515   1.609   0.360   1.010 -0.0588  0.6457 -0.5749
  839SOL    HW1 2516   1.656   0.409   1.088  1.1166  0.1692 -1.9608
  839SOL    HW2 2517   1.569   0.267   1.029 -0.8458  0.6123  2.1049
  840SOL     OW 2518   2.573   2.921   1.770  0.4590  0.1554 -0.7725
  840SOL    HW1 2519   2.569   2.864   1.682 -0.3783 -2.1569  0.5592
  840SOL    HW2 2520   2.564   2.859   1.856  3.8881  0.8154 -0.1746
  841SOL     OW 2521   1.561   0.869   2.969 -0.4316 -0.3145  0.0671
  841SOL    HW1 2522   1.510   0.863   3.057 -0.2635  1.5052  0.6596
  841SOL    HW2 2523   1.526   0.949   2.911  1.5100 -0.2996 -2.1142
  842SOL     OW 2524   0.791   1.537   0.996 -0.6567  0.1020 -0.2413
  842SOL    HW1 2525   0.744   1.608   1.049  1.0569 -0.2806 -2.0847
  842SOL    HW2 2526   0.729   1.498   0.924 -0.7496  1.8499 -0.6871
  843SOL     OW 2527   0.121   0.130   1.452 -0.3803  0.3120 -0.4095
  843SOL    HW1 2528   0.191   0.139   1.532 -0.2228  0.1750 -2.7169
  843SOL    HW2 2529   0.140   0.048   1.392 -0.7907  1.6247 -1.2414
  844SOL     OW 2530   0.778   2.478   0.256 -0.5389 -0.4137 -0.4018
  844SOL    HW1 2531   0.757   2.479   0.358  0.5954  0.0650 -2.5253
  844SOL    HW2 2532   0.701   2.441   0.200  0.3710  2.6578 -1.3042
  845SOL     OW 2533   1.692   2.926   1.369  0.4155 -0.2410  0.3068
  845SOL    HW1 2534   1.706   2.956   1.466 -1.1892 -1.1165 -1.1687
  845SOL    HW2 2535   1.645   3.000   1.311 -0.1081 -2.1993 -2.6842
  846SOL     OW 2536   1.700   2.959   0.912  0.1887 -0.1021  0.0611
  846SOL    HW1 2537   1.645   2.912   0.841 -0.1282  1.1892 -0.0372
  846SOL    HW2 2538   1.804   2.956   0.891  1.0833  1.0492  1.1016
  847SOL     OW 2539   2.066   1.618   0.226  0.7979 -0.6833 -0.0498
  847SOL    HW1 2540   1.994   1.613   0.303  1.7127  0.4101 -0.6273
  847SOL    HW2 2541   2.018   1.605   0.136 -1.6920 -1.0743 -0.9896
  848SOL     OW 2542   2.467   0.827   2.671  0.0334 -0.0566  0.0741
  848SOL    HW1 2543   2.466   0.927   2.694 -0.5648 -0.9201 -1.6060
  848SOL    HW2 2544   2.381   0.805   2.608  1.2937  0.3492 -1.1099
  849SOL     OW 2545   2.446   0.843   2.301  0.0121 -0.1978  0.3247
  849SOL    HW1 2546   2.498   0.811   2.216  0.4241 -1.6138 -2.2197
  849SOL    HW2 2547   2.409   0.765   2.361 -3.4846  1.0701 -0.7088
  850SOL     OW 2548   1.567   0.080   1.275 -0.2148  0.6566 -0.2137
  850SOL    HW1 2549   1.556   0.069   1.173  0.2047  0.0894 -1.1277
  850SOL    HW2 2550   1.471   0.072   1.318 -4.6217  1.7364 -2.0690
  851SOL     OW 2551   0.461   1.720   0.681  0.2068 -0.1280 -0.2901
  851SOL    HW1 2552   0.489   1.821   0.674 -2.8677  0.6171 -1.7751
  851SOL    HW2 2553   0.530   1.655   0.725  1.6664  4.1800  0.2010
  852SOL     OW 2554   0.812   2.121   1.659  0.3574 -0.1476  0.1653
  852SOL    HW1 2555   0.825   2.205   1.603 -2.3134 -0.0549  1.8833
  852SOL    HW2 2556   0.742   2.131   1.741  2.1963 -0.9367 -0.3896
  853SOL     OW 2557   2.535   1.560   2.593  0.5918 -0.3734 -0.3912
  853SOL    HW1 2558   2.528   1.471   2.540 -1.0900  1.1806  2.1532
  853SOL    HW2 2559   2.543   1.647   2.534  0.7513  0.8837 -0.8096
  854SOL     OW 2560   2.470   1.409   1.786 -0.5992  0.2127  0.0736
  854SOL    HW1 2561   2.513   1.391   1.691 -2.3698  1.1484 -1.5575
  854SOL    HW2 2562   2.428   1.324   1.828 -3.2021 -0.8467 -0.4864
  855SOL     OW 2563   2.061   2.333   0.942 -0.3840  0.0174  0.1119
  855SOL    HW1 2564   2.109   2.405   0.882 -0.8322 -3.4937 -1.3377
  855SOL    HW2 2565   2.109   2.320   1.037 -2.8540  0.1264  1.8502
  856SOL     OW 2566   1.395   1.377   0.919  0.1727 -0.2104  0.1026
  856SOL    HW1 2567   1.449   1.462   0.892 -0.8636  0.8443 -0.1868
  856SOL    HW2 2568   1.352   1.385   1.007  1.6456  1.8408  0.2245
  857SOL     OW 2569   2.979   2.616   1.082 -0.2931  0.8708 -0.2505
  857SOL    HW1 2570   2.890   2.555   1.086  0.1231 -1.1638 -0.7004
  857SOL    HW2 2571   3.068   2.565   1.063  2.4017  0.4632 -0.4571
  858SOL     OW 2572   2.316   2.172   1.695  0.0103  0.0645 -0.4508
  858SOL    HW1 2573   2.215   2.174   1.681  1.7048 -0.3293  1.6294
  858SOL    HW2 2574   2.350   2.084   1.650  2.0937 -0.9732 -0.1745
  859SOL     OW 2575   2.445   0.496   1.063  0.1748  0.1308 -0.1282
  859SOL    HW1 2576   2.524   0.524   1.003  0.9956 -1.6782 -1.6348
  859SOL    HW2 2577   2.465   0.400   1.111 -1.5220 -2.6208  2.9184
  860SOL     OW 2578   1.935   2.776   0.458  0.7876  0.0253  0.5043
  860SOL    HW1 2579   1.888   2.708   0.391 -4.8285  0.6466 -1.0079
  860SOL    HW2 2580   2.022   2.821   0.423 -1.1867  0.3610  1.0952
  861SOL     OW 2581   1.112   2.596   2.770 -0.4342 -0.3660 -0.3645
  861SOL    HW1 2582   1.154   2.686   2.728  0.2166  1.9724 -2.2179
  861SOL    HW2 2583   1.125   2.584   2.873 -1.3887 -0.3939  0.6875
  862SOL     OW 2584   2.910   2.511   1.606  0.4533  0.5009 -0.3282
  862SOL    HW1 2585   2.967   2.518   1.690 -2.9414  1.0462 -1.3117
  862SOL    HW2 2586   2.905   2.599   1.544  1.0552 -3.0004 -0.2113
  863SOL     OW 2587   1.872   2.633   0.209 -0.0187 -0.5807 -0.2438
  863SOL    HW1 2588   1.912   2.541   0.189  1.8888  2.1410 -0.5697
  863SOL    HW2 2589   1.766   2.634   0.215 -0.4518  0.6493  3.1037
  864SOL     OW 2590   1.853   1.173   2.919  0.4657  0.2234  0.1233
  864SOL    HW1 2591   1.875   1.110   2.834  0.4223  0.4521 -1.4885
  864SOL    HW2 2592   1.931   1.199   2.977  2.1717 -1.8842 -0.9086
  865SOL     OW 2593   2.203   1.806   0.690 -0.1672 -0.8018  0.0736
  865SOL    HW1 2594   2.278   1.786   0.755 -0.9426  0.2279  1.2761
  865SOL    HW2 2595   2.107   1.805   0.724 -2.0370  0.6013  0.1582
  866SOL     OW 2596   2.940   2.903   0.989  0.4828 -0.4014  0.5034
  866SOL    HW1 2597   2.991   2.933   0.902  1.8749  0.4240  1.1226
  866SOL    HW2 2598   2.960   2.808   1.018  2.1939 -0.1581  0.0600
  867SOL     OW 2599   0.396   1.343   0.884  0.4892 -0.2803 -0.7168
  867SOL    HW1 2600   0.426   1.246   0.861  1.6895 -1.3664  1.4303
  867SOL    HW2 2601   0.328   1.381   0.817  1.0210 -1.6811  0.7675
  868SOL     OW 2602   0.796   1.923   2.015  0.5792 -0.0141 -0.4596
  868SOL    HW1 2603   0.777   1.919   2.118  2.4030 -1.0397  0.0453
  868SOL    HW2 2604   0.773   2.012   1.973  0.1862  2.2327 -1.0452
  869SOL     OW 2605   2.480   1.944   1.586 -0.0085  0.6793 -0.0859
  869SOL    HW1 2606   2.575   1.985   1.564  0.6616  0.3818  0.8880
  869SOL    HW2 2607   2.450   1.865   1.524 -0.9926  1.0406 -1.7323
  870SOL     OW 2608   2.262   2.605   1.239 -0.3420  0.4388 -0.1930
  870SOL    HW1 2609   2.230   2.508   1.223  1.0101 -0.1516 -1.1021
  870SOL    HW2 2610   2.284   2.627   1.333  2.1316 -0.1190 -3.9139
  871SOL     OW 2611   2.989   2.085   0.566 -0.1656 -0.5779 -0.0119
  871SOL    HW1 2612   2.926   2.163   0.586  0.1963  2.3109 -1.0748
  871SOL    HW2 2613   2.948   2.000   0.526  3.1338 -1.2883  0.4396
  872SOL     OW 2614   2.141   0.487   1.699  0.2051  0.0305 -0.3126
  872SOL    HW1 2615   2.102   0.449   1.789 -0.0716  1.0874  0.2760
  872SOL    HW2 2616   2.236   0.455   1.677  1.1473  1.1471  2.5991
  873SOL     OW 2617   1.714   2.084   2.957  0.0646 -0.2948  0.0223
  873SOL    HW1 2618   1.674   2.174   2.991  0.0117  1.8649 -0.8109
  873SOL    HW2 2619   1.662   2.037   2.879  0.0307 -0.8753  0.4745
  874SOL     OW 2620   0.652   2.450   0.775  0.7247 -0.1884 -0.3323
  874SOL    HW1 2621   0.609   2.540   0.809  2.1125  0.9806 -0.6040
  874SOL    HW2 2622   0.751   2.446   0.797 -0.3591 -2.2674 -1.0522
  875SOL     OW 2623   2.253   1.525   1.451  0.0269  0.9426  0.8367
  875SOL    HW1 2624   2.352   1.527   1.472  0.2301  1.4312 -2.4137
  875SOL    HW2 2625   2.238   1.559   1.352 -0.0976  2.0606 -2.0947
  876SOL     OW 2626   0.135   2.230   2.681  0.5087 -0.0986 -0.3729
  876SOL    HW1 2627   0.143   2.139   2.727  1.2099  0.3076  2.1150
  876SOL    HW2 2628   0.146   2.317   2.743 -0.9486 -0.1716  1.1325
  877SOL     OW 2629   2.783   2.670   0.656 -0.5531 -0.1979  0.0676
  877SOL    HW1 2630   2.838   2.754   0.676  1.3337  1.7299  0.0055
  877SOL    HW2 2631   2.841   2.581   0.679 -1.1393 -1.1755  1.3443
  878SOL     OW 2632   2.871   1.486   2.239  0.2157 -1.0877  0.8593
  878SOL    HW1 2633   2.967   1.507   2.213 -0.7374  0.5058  1.4711
  878SOL    HW2 2634   2.845   1.513   2.335 -0.5029 -0.7661 -1.0379
  879SOL     OW 2635   2.391   0.039   1.174  0.2060 -0.0473  0.3609
  879SOL    HW1 2636   2.441  -0.055   1.186 -1.3902 -0.0302 -0.4236
  879SOL    HW2 2637   2.304   0.037   1.113  0.0434  0.0736  1.5025
  880SOL     OW 2638   0.699   0.464   2.208  0.0496 -0.8303 -0.0889
  880SOL    HW1 2639   0.630   0.409   2.264  2.0215 -0.5173 -2.2681
  880SOL    HW2 2640   0.750   0.408   2.139 -3.7612  2.5326  0.0459
  881SOL     OW 2641   0.889   0.049   0.450 -0.5276 -0.2021 -0.7207
  881SOL    HW1 2642   0.919  -0.047   0.482  1.2276  2.6218 -0.7580
  881SOL    HW2 2643   0.831   0.042   0.367 -0.1212 -0.4592 -1.6096
  882SOL     OW 2644   2.692   1.616   1.684  0.0294  0.0917  0.4193
  882SOL    HW1 2645   2.790   1.585   1.653  1.6973 -0.4561 -0.0877
  882SOL    HW2 2646   2.689   1.659   1.776  1.5063  1.4426 -0.5999
  883SOL     OW 2647   0.939   0.590   0.948  0.0209  0.4892  0.5452
  883SOL    HW1 2648   0.930   0.685   0.983  1.3356 -2.0481  0.1688
  883SOL    HW2 2649   1.008   0.535   0.999  2.6039  0.2513 -0.6918
  884SOL     OW 2650   1.186   1.830   1.078 -0.3843 -0.0091 -0.5406
  884SOL    HW1 2651   1.183   1.782   0.990  1.0709  3.0837  1.8051
  884SOL    HW2 2652   1.125   1.916   1.079  0.9864  0.7063  3.9480
  885SOL     OW 2653   2.313   1.848   2.285 -0.1276  0.0337  0.3807
  885SOL    HW1 2654   2.251   1.803   2.349  2.3038  0.4286 -0.4278
  885SOL    HW2 2655   2.317   1.950   2.294 -0.9400 -0.6167 -2.0981
  886SOL     OW 2656   2.648   0.466   1.773  0.4232  0.2619 -0.0757
  886SOL    HW1 2657   2.688   0.401   1.847  0.2468 -0.3349  0.5704
  886SOL    HW2 2658   2.708   0.546   1.743 -0.8579 -1.5639 -0.8047
  887SOL     OW 2659   0.130   2.058   1.227 -0.2465 -0.2138  0.4590
  887SOL    HW1 2660   0.054   2.043   1.162 -0.7656 -0.8504  0.3842
  887SOL    HW2 2661   0.159   2.156   1.237 -0.3020 -1.8820 -0.6666
  888SOL     OW 2662   0.553   1.333   1.551 -0.0538 -0.4632  0.3114
  888SOL    HW1 2663   0.602   1.359   1.460 -1.3480 -2.4120  0.2822
  888SOL    HW2 2664   0.489   1.251   1.543 -1.9412  1.0238 -0.1432
  889SOL     OW 2665   0.827   2.481   2.157  0.1894 -0.4669 -0.5217
  889SOL    HW1 2666   0.772   2.399   2.146 -0.6188 -0.4202  2.4052
  889SOL    HW2 2667   0.882   2.502   2.075  1.4430  0.2560  0.0451
  890SOL     OW 2668   2.360   2.463   0.197 -0.2368  0.2083  0.1807
  890SOL    HW1 2669   2.342   2.521   0.115  0.5476  1.0709  0.6465
  890SOL    HW2 2670   2.335   2.509   0.286  0.5559  0.8316 -0.3779
  891SOL     OW 2671   2.643   1.527   0.674 -0.3420 -0.3029 -0.3814
  891SOL    HW1 2672   2.679   1.489   0.764 -1.8255  2.4135  0.0578
  891SOL    HW2 2673   2.545   1.544   0.667  2.5693  0.5194 -2.4765
  892SOL     OW 2674   0.275   0.225   2.195 -0.0550  0.4913  0.4866
  892SOL    HW1 2675   0.278   0.223   2.089 -0.9217  0.8415 -1.5382
  892SOL    HW2 2676   0.366   0.250   2.239  0.1103 -1.2632  0.1560
  893SOL     OW 2677   1.649   0.236   2.772  0.6502  0.1021  0.0132
  893SOL    HW1 2678   1.723   0.308   2.773  0.6481 -1.2040 -1.2226
  893SOL    HW2 2679   1.559   0.287   2.772  0.2564 -0.7841 -4.4307
  894SOL     OW 2680   2.257   2.019   0.035 -0.5651 -0.0002  0.3257
  894SOL    HW1 2681   2.216   1.954  -0.031  0.3703 -4.3933  2.2077
  894SOL    HW2 2682   2.252   1.982   0.133 -0.7735  1.0360 -0.9969
  895SOL     OW 2683   2.852   1.438   0.863  0.2117 -0.6821 -0.1552
  895SOL    HW1 2684   2.889   1.385   0.940 -1.6332  0.1452 -0.7588
  895SOL    HW2 2685   2.924   1.505   0.826 -1.2923  1.9285  1.0667
  896SOL     OW 2686   1.774   1.788   1.153 -0.6981 -0.0475  0.2582
  896SOL    HW1 2687   1.846   1.819   1.084 -1.0728 -0.6995  0.4479
  896SOL    HW2 2688   1.708   1.861   1.177 -2.4126 -1.8382 -0.0540
  897SOL     OW 2689   0.273   0.556   3.035  0.4972  0.3696 -0.0898
  897SOL    HW1 2690   0.215   0.629   2.987 -3.0268 -1.6450  0.8682
  897SOL    HW2 2691   0.368   0.582   3.071 -2.1521  0.2355  0.9547
  898SOL     OW 2692   0.588   2.828   1.115 -0.5677  0.1922  0.0828
  898SOL    HW1 2693   0.546   2.921   1.122 -1.2895 -0.8139  2.6650
  898SOL    HW2 2694   0.684   2.835   1.151  0.1882 -0.0683  1.6783
  899SOL     OW 2695   2.740   0.932   1.235 -0.0567  0.3535  0.3057
  899SOL    HW1 2696   2.655   0.914   1.172 -1.6213  3.4388 -2.2939
  899SOL    HW2 2697   2.832   0.941   1.183 -0.0608  1.6085 -0.7819
  900SOL     OW 2698   0.978   2.569   2.373  0.1695 -0.7667  0.4051
  900SOL    HW1 2699   0.924   2.522   2.296  3.0178  0.1961  1.8695
  900SOL    HW2 2700   0.974   2.519   2.466 -2.3785  0.6886  2.2361
  901SOL     OW 2701   1.898   2.386   1.381  0.6522  0.6302 -0.2697
  901SOL    HW1 2702   1.880   2.410   1.284  2.9252  0.9588  1.5782
  901SOL    HW2 2703   1.997   2.371   1.390 -1.7208  1.9661  0.4670
  902SOL     OW 2704   2.591   1.650   1.424  0.1216 -0.2159 -0.0003
  902SOL    HW1 2705   2.612   1.640   1.525  1.6254  0.9597 -1.8070
  902SOL    HW2 2706   2.673   1.608   1.369  1.4630  0.2607  0.9443
  903SOL     OW 2707   0.247   2.466   1.996  0.1333 -0.3167  0.1844
  903SOL    HW1 2708   0.176   2.398   1.964  1.6661 -0.2809 -0.2581
  903SOL    HW2 2709   0.275   2.539   1.923 -2.0890  0.6544  0.1190
  904SOL     OW 2710   2.007   0.730   2.380 -0.5733  0.4712  0.1521
  904SOL    HW1 2711   1.943   0.686   2.451 -2.9588  0.0670  0.9729
  904SOL    HW2 2712   1.964   0.749   2.287  1.9863  1.0593  0.0767
  905SOL     OW 2713   2.814   0.079   2.585 -0.1335  0.0402 -0.1849
  905SOL    HW1 2714   2.890   0.013   2.612  0.9244  1.9077  1.8134
  905SOL    HW2 2715   2.852   0.166   2.546  0.9497 -0.2630 -0.7674
  906SOL     OW 2716   0.155   1.759   1.864  0.2282  0.3835 -0.6911
  906SOL    HW1 2717   0.118   1.760   1.768  0.0317 -0.6668 -1.0655
  906SOL    HW2 2718   0.250   1.799   1.872  0.3249  0.3652  0.2598
  907SOL     OW 2719   0.153   2.480   1.006  0.6714 -0.0661 -0.0926
  907SOL    HW1 2720   0.236   2.542   1.031 -0.8070  1.5049 -1.8799
  907SOL    HW2 2721   0.122   2.484   0.905  0.0054  1.7626  1.2114
  908SOL     OW 2722   2.706   2.964   0.451 -0.0021  0.1767  0.2228
  908SOL    HW1 2723   2.667   3.026   0.375 -2.9092  1.6026  0.1113
  908SOL    HW2 2724   2.726   2.867   0.430 -1.3036  1.0295 -2.3116
  909SOL     OW 2725   0.789   0.949   2.693  0.6174 -0.5197 -0.1953
  909SOL    HW1 2726   0.765   0.853   2.658  1.3265 -0.1044  0.2481
  909SOL    HW2 2727   0.867   0.989   2.638 -2.4692  0.8041 -1.9173
  910SOL     OW 2728   1.767   1.832   2.090  0.6303 -0.2875 -0.5281
  910SOL    HW1 2729   1.832   1.858   2.013 -0.1164  0.3429 -2.5845
  910SOL    HW2 2730   1.694   1.905   2.107 -2.0746 -0.0252 -1.7092
  911SOL     OW 2731   1.791   2.967   1.619 -0.2951  0.4695 -0.1836
  911SOL    HW1 2732   1.875   2.930   1.570 -1.3453  3.3938  0.1372
  911SOL    HW2 2733   1.770   2.915   1.706 -1.0322 -0.8450 -1.3422
  912SOL     OW 2734   2.885   0.969   0.774 -0.2670  0.0087  0.2844
  912SOL    HW1 2735   2.891   0.953   0.878 -2.2356 -0.3825 -0.4498
  912SOL    HW2 2736   2.847   1.065   0.755 -0.0766  0.5098  1.2714
  913SOL     OW 2737   2.569   1.269   1.565 -0.2386 -0.1514  0.1210
  913SOL    HW1 2738   2.549   1.173   1.542 -0.8605  1.4788 -0.1495
  913SOL    HW2 2739   2.628   1.317   1.490  1.0667 -0.6703  0.1840
  914SOL     OW 2740   2.800   0.523   1.200 -0.1475 -0.0463  0.8713
  914SOL    HW1 2741   2.787   0.430   1.239  0.2595  1.0089 -1.0572
  914SOL    HW2 2742   2.738   0.589   1.252  2.6572 -0.1077 -0.2736
  915SOL     OW 2743   1.247   0.804   0.998 -0.6032  0.4730 -0.1057
  915SOL    HW1 2744   1.301   0.865   1.065  0.9817  0.5507 -0.5808
  915SOL    HW2 2745   1.146   0.787   1.024 -2.1531  0.0343 -0.9200
  916SOL     OW 2746   0.601   0.015   0.676 -0.0396 -0.4188 -0.0900
  916SOL    HW1 2747   0.636   0.089   0.744 -1.0604 -0.5367  0.5374
  916SOL    HW2 2748   0.624   0.046   0.579  1.5033 -0.8300  1.4319
  917SOL     OW 2749   2.812   2.597   1.991 -0.0571 -0.1206  0.2329
  917SOL    HW1 2750   2.721   2.637   1.974  2.8022 -1.9933 -1.3486
  917SOL    HW2 2751   2.885   2.649   1.942  0.3449  1.2170  2.0917
  918SOL     OW 2752   1.028   2.217   3.008 -0.3831  0.0114  0.3579
  918SOL    HW1 2753   1.000   2.238   3.106 -2.2208  0.9895 -1.2205
  918SOL    HW2 2754   1.080   2.127   2.998  0.6873  0.7734 -0.6999
  919SOL     OW 2755   0.909   1.606   2.812  0.2530 -0.1801 -0.1805
  919SOL    HW1 2756   0.937   1.667   2.733  0.2617 -1.1713  0.7286
  919SOL    HW2 2757   0.829   1.542   2.788  0.8201  0.6101 -0.4894
  920SOL     OW 2758   1.281   1.985   2.483 -0.0280  0.7293  0.4518
  920SOL    HW1 2759   1.222   1.978   2.396  0.6674 -3.0991 -1.7342
  920SOL    HW2 2760   1.303   1.886   2.521  0.6732  0.8794  1.9238
  921SOL     OW 2761   1.102   0.064   2.589 -0.2831 -0.1106 -0.6611
  921SOL    HW1 2762   1.079   0.088   2.486  1.2798 -1.1007 -1.1916
  921SOL    HW2 2763   1.045  -0.016   2.619  0.5046 -0.0032  0.2793
  922SOL     OW 2764   2.141   2.391   2.879 -0.0823 -0.6760 -1.0436
  922SOL    HW1 2765   2.159   2.291   2.884  2.3428  1.4857 -1.8891
  922SOL    HW2 2766   2.093   2.421   2.794  0.4386 -1.5521  2.4487
  923SOL     OW 2767   1.248   2.689   0.259  0.5048 -0.0395  0.0236
  923SOL    HW1 2768   1.326   2.729   0.311  0.8815  0.5981 -2.3577
  923SOL    HW2 2769   1.242   2.584   0.255  0.9983  0.0019  0.6674
  924SOL     OW 2770   2.878   1.567   0.091  0.5495  0.2394  0.0390
  924SOL    HW1 2771   2.784   1.546   0.049  3.2997 -0.3135 -0.7513
  924SOL    HW2 2772   2.958   1.531   0.040  0.8789  1.3862  1.3812
  925SOL     OW 2773   3.096   2.914   1.533  0.1349  0.1487  0.9489
  925SOL    HW1 2774   2.999   2.928   1.574 -1.9910 -0.3071  0.0469
  925SOL    HW2 2775   3.096   2.849   1.453  0.4382 -1.4929  2.2655
  926SOL     OW 2776   1.347   2.834   1.305 -0.3231  0.4904  0.1576
  926SOL    HW1 2777   1.400   2.829   1.218 -0.1703 -1.8141  1.4290
  926SOL    HW2 2778   1.366   2.919   1.361 -0.0095  0.0850  0.5231
  927SOL     OW 2779   0.283   2.640   1.799 -0.1463 -0.2330 -0.0007
  927SOL    HW1 2780   0.270   2.584   1.711 -0.1299  0.3493 -1.8867
  927SOL    HW2 2781   0.242   2.733   1.779 -0.1968 -1.3392  1.0362
  928SOL     OW 2782   1.569   2.027   2.147 -0.0075 -0.2782 -0.4311
  928SOL    HW1 2783   1.615   2.115   2.110  2.1158  2.5408 -1.7722
  928SOL    HW2 2784   1.471   2.036   2.123 -0.5003  1.2710  0.4419
  929SOL     OW 2785   2.419   2.484   2.861 -0.3486  0.1872 -0.0920
  929SOL    HW1 2786   2.330   2.432   2.870  0.9416  1.8982  0.4728
  929SOL    HW2 2787   2.452   2.490   2.766 -1.3568 -2.1715  0.6489
  930SOL     OW 2788   2.170   2.003   1.062 -0.1938  0.4963 -0.1718
  930SOL    HW1 2789   2.132   1.969   1.156 -1.0514  0.9556  1.5723
  930SOL    HW2 2790   2.241   2.079   1.061 -0.2205  1.1958 -0.8503
  931SOL     OW 2791   0.541   1.709   2.683  0.0181  0.1731 -0.4788
  931SOL    HW1 2792   0.589   1.720   2.779  0.2926 -0.7590  1.9515
  931SOL    HW2 2793   0.542   1.606   2.649 -1.5908 -1.4314 -3.8949
  932SOL     OW 2794   0.453   0.042   2.916  0.5131  0.5995 -0.0676
  932SOL    HW1 2795   0.547   0.078   2.908 -0.4824 -3.0652  1.8238
  932SOL    HW2 2796   0.447  -0.047   2.972  1.0832 -1.4249  1.2598
  933SOL     OW 2797   1.068   0.756   2.998 -0.0431  0.7777 -0.0575
  933SOL    HW1 2798   1.130   0.817   3.056  0.6116 -2.1767  0.7724
  933SOL    HW2 2799   0.987   0.809   2.964  0.1437  0.6330  1.1315
  934SOL     OW 2800   0.889   3.012   2.704  0.1483  0.2543  0.5078
  934SOL    HW1 2801   0.897   2.943   2.628  0.2370  1.7056  2.1270
  934SOL    HW2 2802   0.924   2.968   2.795 -2.2437  1.6740  1.1134
  935SOL     OW 2803   3.098   0.548   0.801 -0.2073 -0.4148 -0.3588
  935SOL    HW1 2804   3.098   0.459   0.750  0.1666 -1.4345 -1.4004
  935SOL    HW2 2805   3.001   0.591   0.824 -0.6842  0.5542  0.4144
  936SOL     OW 2806   1.116   2.913   0.144 -0.0289 -0.1809  0.1145
  936SOL    HW1 2807   1.176   2.948   0.063  0.9917  0.0635  0.3349
  936SOL    HW2 2808   1.155   2.826   0.181  1.0873  2.2741 -2.7811
  937SOL     OW 2809   1.919   2.641   2.103 -0.6720 -0.5275  0.4013
  937SOL    HW1 2810   1.841   2.678   2.157  0.8613 -2.3391  0.1711
  937SOL    HW2 2811   1.896   2.660   2.002  1.0373  1.0082 -1.6999
  938SOL     OW 2812   2.720   2.083   1.576 -0.0710  0.4722  0.5088
  938SOL    HW1 2813   2.695   2.178   1.603  1.6159 -1.3311  1.4625
  938SOL    HW2 2814   2.814   2.049   1.600 -1.4457 -1.2220 -0.9263
  939SOL     OW 2815   2.859   1.238   2.466 -0.1887  0.5584  0.0810
  939SOL    HW1 2816   2.926   1.199   2.397 -1.3770 -1.6776  1.2913
  939SOL    HW2 2817   2.854   1.182   2.554 -0.4903  0.7890 -0.7768
  940SOL     OW 2818   0.992   0.452   2.691 -0.1050  0.3435 -0.3919
  940SOL    HW1 2819   1.044   0.366   2.723  0.1038 -1.5898 -0.8823
  940SOL    HW2 2820   0.892   0.418   2.680  0.0537 -2.9097 -0.6424
  941SOL     OW 2821   0.050   2.858   2.200 -0.1819  0.1131  0.0136
  941SOL    HW1 2822   0.045   2.753   2.203 -1.5051  4.8077 -1.1286
  941SOL    HW2 2823   0.083   2.907   2.284 -1.8344  2.3277 -0.9282
  942SOL     OW 2824   0.042   0.131   2.537 -0.0478  0.0415  0.7537
  942SOL    HW1 2825   0.120   0.129   2.605  1.3487 -0.3165 -1.4368
  942SOL    HW2 2826   0.056   0.192   2.454  0.8765 -0.1520 -1.4517
  943SOL     OW 2827   2.124   1.654   2.415 -0.2238  0.2367  0.6524
  943SOL    HW1 2828   2.126   1.589   2.336 -1.5284  0.9070  2.4146
  943SOL    HW2 2829   2.103   1.600   2.507 -1.2935  4.5318  2.0050
  944SOL     OW 2830   2.176   2.321   1.462  0.3006  0.1606  0.2980
  944SOL    HW1 2831   2.246   2.381   1.515  1.6494 -0.6737 -0.4108
  944SOL    HW2 2832   2.121   2.266   1.533 -0.2267 -0.0407  0.9810
  945SOL     OW 2833   0.644   1.499   0.359 -0.5432 -0.5701  0.5077
  945SOL    HW1 2834   0.695   1.578   0.310 -0.7717  0.6140  0.1392
  945SOL    HW2 2835   0.645   1.404   0.308  2.7754 -1.2362 -1.5575
  946SOL     OW 2836   0.439   0.937   2.538  0.2856 -0.3604 -0.6655
  946SOL    HW1 2837   0.347   0.918   2.491 -1.7282  1.9676  1.4307
  946SOL    HW2 2838   0.427   1.021   2.596  0.4236  0.1733  2.4458
  947SOL     OW 2839   1.539   0.571   0.054  0.2749  0.3180 -0.6819
  947SOL    HW1 2840   1.547   0.561  -0.046 -0.2780  1.5492  1.7995
  947SOL    HW2 2841   1.441   0.608   0.087 -2.2999 -1.2762  0.8620
  948SOL     OW 2842   2.032   3.062   2.186  0.4939 -0.0150  0.4735
  948SOL    HW1 2843   2.023   3.028   2.089  2.1604  3.0192  0.9779
  948SOL    HW2 2844   1.987   3.000   2.259 -1.9589  0.2890  1.5110
  949SOL     OW 2845   0.668   2.523   0.502  0.5940  0.8401  0.0237
  949SOL    HW1 2846   0.628   2.616   0.493 -0.0260 -1.6568 -2.4754
  949SOL    HW2 2847   0.688   2.497   0.598  1.0109 -0.8860 -1.3191
  950SOL     OW 2848   0.225   2.139   3.049  0.2707  0.0019 -0.2802
  950SOL    HW1 2849   0.153   2.215   3.053  0.3110 -0.7464  0.5792
  950SOL    HW2 2850   0.217   2.096   2.953 -0.4346 -2.7919  0.6312
  951SOL     OW 2851   1.196   2.860   2.687 -0.0255  0.2176  0.5479
  951SOL    HW1 2852   1.170   2.948   2.647 -0.3982  0.6548 -0.1356
  951SOL    HW2 2853   1.289   2.860   2.734  2.2889  0.6680 -0.9206
  952SOL     OW 2854   0.108   1.639   0.437 -0.3677  0.1280  0.3096
  952SOL    HW1 2855   0.177   1.715   0.452  2.3700  1.3337 -2.5944
  952SOL    HW2 2856   0.093   1.567   0.513 -1.4354 -1.1356 -3.0039
  953SOL     OW 2857   2.493   1.779   0.168  0.4891  0.0953 -0.3466
  953SOL    HW1 2858   2.492   1.674   0.176  3.6134 -2.7575 -3.8733
  953SOL    HW2 2859   2.559   1.814   0.094 -3.0135  1.1997 -0.1748
  954SOL     OW 2860   2.177   0.529   0.990 -0.1861 -0.1586  0.2707
  954SOL    HW1 2861   2.156   0.539   0.890 -0.7423  0.8160 -1.7104
  954SOL    HW2 2862   2.280   0.510   1.008  0.6375  1.1290  1.5190
  955SOL     OW 2863   0.251   2.662   1.378 -0.0122  0.4802  0.3275
  955SOL    HW1 2864   0.146   2.675   1.365  0.2200  1.8593  0.2439
  955SOL    HW2 2865   0.303   2.657   1.291  1.4917  0.2308 -0.7560
  956SOL     OW 2866   2.771   2.431   2.434 -0.4858 -0.5966  0.4077
  956SOL    HW1 2867   2.773   2.337   2.402 -1.9010  3.3239 -1.2356
  956SOL    HW2 2868   2.824   2.493   2.366  2.6825  1.8972  1.1827
  957SOL     OW 2869   1.541   2.037   2.756  0.2059 -0.1137 -0.0661
  957SOL    HW1 2870   1.510   1.935   2.752  1.2271  2.0646  1.3189
  957SOL    HW2 2871   1.520   2.082   2.665 -1.7242  0.3122  2.0713
  958SOL     OW 2872   2.726   2.312   2.950  0.2126 -0.2238  0.1410
  958SOL    HW1 2873   2.639   2.367   2.929  0.1080 -0.1701  0.8834
  958SOL    HW2 2874   2.727   2.255   3.039  1.3189  2.3783 -0.0678
  959SOL     OW 2875   0.250   2.753   0.121 -0.0432 -0.2874  0.4474
  959SOL    HW1 2876   0.149   2.765   0.104 -0.6321  0.7060  0.5636
  959SOL    HW2 2877   0.268   2.665   0.168 -3.6255  0.7564 -2.9425
  960SOL     OW 2878   1.992   0.417   1.930 -0.0632 -0.2925  0.3581
  960SOL    HW1 2879   1.958   0.511   1.898 -0.6111  1.4821 -0.6191
  960SOL    HW2 2880   1.984   0.399   2.033 -0.3398 -0.3799 -1.4923
  961SOL     OW 2881   2.544   1.830   1.035 -0.0520 -0.3568  0.3369
  961SOL    HW1 2882   2.536   1.922   0.987  0.5509 -0.9189  1.2391
  961SOL    HW2 2883   2.514   1.843   1.136  0.8104  2.9900  0.7794
  962SOL     OW 2884   1.252   0.907   0.041  0.0438  0.1277 -0.5282
  962SOL    HW1 2885   1.279   0.967  -0.042 -0.5573  0.9382  0.0618
  962SOL    HW2 2886   1.274   0.956   0.131 -0.8074 -0.5423 -0.6875
  963SOL     OW 2887   2.197   2.558   1.838  0.1377 -0.0811  0.0377
  963SOL    HW1 2888   2.183   2.476   1.895 -2.4037 -0.2269  0.5201
  963SOL    HW2 2889   2.220   2.644   1.887  0.5066 -1.8248 -0.5121
  964SOL     OW 2890   2.405   0.408   1.679 -0.1893  0.3936  0.4280
  964SOL    HW1 2891   2.503   0.432   1.711  1.9207  0.5640  2.2490
  964SOL    HW2 2892   2.385   0.420   1.579 -1.2063  1.2136 -0.6471
  965SOL     OW 2893   2.592   3.086   0.220  0.4261 -0.3690 -0.0150
  965SOL    HW1 2894   2.650   3.065   0.132  1.2303 -0.7410  1.9361
  965SOL    HW2 2895   2.491   3.061   0.204 -1.7285 -1.3782  1.9405
  966SOL     OW 2896   2.469   2.461   2.261  0.1508 -0.1616  0.8162
  966SOL    HW1 2897   2.382   2.430   2.311  1.3008 -1.4822 -1.7162
  966SOL    HW2 2898   2.477   2.561   2.259 -1.8909 -0.4219  1.5236
  967SOL     OW 2899   2.805   2.799   2.428  0.2200 -0.4753  0.0879
  967SOL    HW1 2900   2.864   2.739   2.369 -0.8759 -1.3632  2.8258
  967SOL    HW2 2901   2.861   2.874   2.474 -1.0903  1.3876  1.3465
  968SOL     OW 2902   1.922   1.094   2.674 -0.1175  0.0245  0.3516
  968SOL    HW1 2903   1.884   1.152   2.595 -3.7734  1.6879  1.8227
  968SOL    HW2 2904   1.912   0.991   2.650 -0.2764 -3.8538 -2.2188
  969SOL     OW 2905   2.749   2.459   1.076 -0.5365  0.0427  0.2406
  969SOL    HW1 2906   2.678   2.437   1.004  1.5660  0.8284 -1.0187
  969SOL    HW2 2907   2.778   2.376   1.130  0.9181  0.6414  2.2389
  970SOL     OW 2908   1.055   2.139   1.798 -0.5834  0.1194 -0.2181
  970SOL    HW1 2909   0.974   2.122   1.732 -1.5409 -0.5959  1.2614
  970SOL    HW2 2910   1.027   2.189   1.884  2.9822 -0.2191 -0.1912
  971SOL     OW 2911   2.811   2.094   1.867 -0.3379 -0.1292  0.0221
  971SOL    HW1 2912   2.851   2.182   1.910 -1.2283  0.6588  0.2605
  971SOL    HW2 2913   2.870   2.069   1.781  0.6484  1.4212 -1.5297
  972SOL     OW 2914   1.982   2.383   0.206  0.8376 -0.9766 -0.0201
  972SOL    HW1 2915   1.958   2.299   0.156  1.5340 -1.4416  1.6479
  972SOL    HW2 2916   2.000   2.362   0.305  0.8619 -1.5976 -1.1993
  973SOL     OW 2917   1.322   1.067   1.930  0.2216 -0.0278  0.6577
  973SOL    HW1 2918   1.246   1.030   1.874  2.1101  0.9697  2.2836
  973SOL    HW2 2919   1.302   1.157   1.975  1.4790 -0.0596 -0.8338
  974SOL     OW 2920   1.618   0.579   1.974 -0.3376  0.2263  0.3663
  974SOL    HW1 2921   1.704   0.635   1.968 -0.3198 -1.5965  1.4916
  974SOL    HW2 2922   1.535   0.635   1.959  2.4102  1.1262 -1.8917
  975SOL     OW 2923   2.368   3.010   0.034 -0.4346  0.0429  0.2494
  975SOL    HW1 2924   2.294   2.941   0.058  1.7778  1.1312  0.6934
  975SOL    HW2 2925   2.403   3.005  -0.065  2.0995 -1.5010 -1.3291
  976SOL     OW 2926   1.931   2.901   2.365  0.4101  0.0651  0.3449
  976SOL    HW1 2927   1.868   2.836   2.313 -0.8519 -0.7674 -2.9741
  976SOL    HW2 2928   1.935   2.879   2.466  2.2651  1.9147 -1.0220
  977SOL     OW 2929   0.448   0.665   1.023 -0.1868 -0.4854  0.2140
  977SOL    HW1 2930   0.384   0.652   0.945  1.7393  0.0482 -0.0668
  977SOL    HW2 2931   0.542   0.619   1.003 -2.0608 -1.2794 -1.1254
   3.10000   3.10000   3.10000
