1000 SPC/Fw water molecules t=   1.63000 step= 1630
 2931
    1SOL     OW    1   2.456   0.400   2.660  0.5287  0.0321  0.0220
    1SOL    HW1    2   2.449   0.302   2.619  0.5525  2.4402 -0.2896
    1SOL    HW2    3   2.548   0.416   2.705  0.4278  4.7237  0.5173
    2SOL     OW    4   2.730   2.982   1.377 -0.4481 -0.0248  0.1879
    2SOL    HW1    5   2.822   2.986   1.335  1.4382  1.7013  0.2844
    2SOL    HW2    6   2.720   3.038   1.462 -0.7417 -1.5641  0.1678
    3SOL     OW    7   2.692   2.492   0.374  0.4474 -0.2826  0.1455
    3SOL    HW1    8   2.609   2.432   0.398  0.9828 -0.6897  0.5274
    3SOL    HW2    9   2.733   2.542   0.455 -0.7121 -1.1919 -0.1161
    4SOL     OW   10   1.301   1.574   2.446  0.6445  0.5667 -0.3215
    4SOL    HW1   11   1.230   1.544   2.379  0.9880 -0.0312  2.1688
    4SOL    HW2   12   1.289   1.527   2.538  3.7654  0.8971  1.1768
    5SOL     OW   13   1.117   1.540   3.010 -0.2878 -0.3456  0.3166
    5SOL    HW1   14   1.179   1.616   3.049 -1.2104  2.0793 -0.1823
    5SOL    HW2   15   1.048   1.581   2.941 -0.4904  1.6389  2.1176
    6SOL     OW   16   0.270   1.830   3.070  0.2587 -0.4660  0.4486
    6SOL    HW1   17   0.176   1.870   3.109 -1.9596  0.2384  4.5332
    6SOL    HW2   18   0.301   1.741   3.112 -1.6994 -2.7491 -1.1490
    7SOL     OW   19   2.494   0.930   0.994 -0.0289 -0.2042  0.2005
    7SOL    HW1   20   2.403   0.900   1.030  0.6707 -0.2481 -0.3102
    7SOL    HW2   21   2.512   0.908   0.895 -0.2832 -0.3895 -1.0044
    8SOL     OW   22   0.375   0.685   1.547  0.5634  0.1555 -0.5660
    8SOL    HW1   23   0.468   0.636   1.544  1.9616  0.4865  0.0164
    8SOL    HW2   24   0.365   0.745   1.461  2.2232  0.6731 -0.2757
    9SOL     OW   25   1.149   0.874   2.325 -0.4340  0.3238  0.0943
    9SOL    HW1   26   1.229   0.882   2.256  0.8882 -2.8459  2.4214
    9SOL    HW2   27   1.117   0.771   2.338  0.8624  1.4221  0.1711
   10SOL     OW   28   0.724   1.417   1.243  0.1229  0.0233  0.0544
   10SOL    HW1   29   0.634   1.419   1.199  0.5712  1.6881  1.2707
   10SOL    HW2   30   0.743   1.511   1.286  1.3173 -1.4512 -1.5171
   11SOL     OW   31   2.361   2.873   0.919 -0.5242 -0.0037 -0.0659
   11SOL    HW1   32   2.296   2.834   0.997 -2.4983  1.1968  0.2656
   11SOL    HW2   33   2.450   2.905   0.957 -0.4287  1.4641  1.8953
   12SOL     OW   34   1.499   0.907   0.434 -0.0024 -0.4820  0.4545
   12SOL    HW1   35   1.406   0.933   0.395  0.7387 -2.2567  0.7746
   12SOL    HW2   36   1.539   0.814   0.408  2.5101  1.3603  0.9401
   13SOL     OW   37   2.474   0.742   1.804  0.1537 -0.0020  0.4357
   13SOL    HW1   38   2.400   0.681   1.853  1.5497  0.1102 -0.2002
   13SOL    HW2   39   2.487   0.706   1.706  1.0319  0.5735  0.4082
   14SOL     OW   40   1.963   3.100   0.609  0.2285  0.3339  0.2329
   14SOL    HW1   41   1.870   3.133   0.581 -2.7136  0.9334  0.0754
   14SOL    HW2   42   1.960   3.053   0.702 -2.4856  1.8728 -0.7617
   15SOL     OW   43   1.910   2.079   2.667  0.5877  0.1096  0.0005
   15SOL    HW1   44   1.835   2.069   2.738  1.0177  0.8501  2.2742
   15SOL    HW2   45   1.902   2.010   2.593 -0.5145 -0.8020  2.0807
   16SOL     OW   46   1.633   1.718   3.038 -0.2777 -0.2967  0.0113
   16SOL    HW1   47   1.614   1.626   3.084 -0.1575 -0.6494  2.1695
   16SOL    HW2   48   1.715   1.768   3.076  0.4557  2.2734  2.1328
   17SOL     OW   49   0.122   0.461   0.178 -0.0367  0.3697  0.4435
   17SOL    HW1   50   0.215   0.485   0.133  0.6045 -0.2761 -0.2684
   17SOL    HW2   51   0.039   0.456   0.107 -1.9890 -1.6987 -1.6063
   18SOL     OW   52   0.911   2.921   2.138  0.3766 -0.1279  0.0013
   18SOL    HW1   53   0.861   2.833   2.156  2.0590 -1.3851 -1.9042
   18SOL    HW2   54   0.985   2.904   2.065 -1.1597 -1.3710 -0.2450
   19SOL     OW   55   0.606   0.894   1.929 -0.6990  0.1972 -0.1419
   19SOL    HW1   56   0.666   0.866   2.009 -2.0445 -0.4155  0.6806
   19SOL    HW2   57   0.657   0.954   1.863  0.4178  0.5179  0.5310
   20SOL     OW   58   0.191   2.838   0.822  0.1309 -0.2257 -0.7503
   20SOL    HW1   59   0.087   2.852   0.807  2.6281  1.1859  0.2848
   20SOL    HW2   60   0.229   2.754   0.775  3.4018 -2.3202 -0.9384
   21SOL     OW   61   2.710   0.311   2.043  0.7441 -0.3587  0.0078
   21SOL    HW1   62   2.683   0.230   1.985 -0.8307 -1.9158  2.6555
   21SOL    HW2   63   2.799   0.298   2.095 -1.5784 -0.8891  2.0291
   22SOL     OW   64   2.345   0.209   0.130  0.2132  0.0624 -0.1784
   22SOL    HW1   65   2.379   0.127   0.079 -1.7360  0.5501  4.5012
   22SOL    HW2   66   2.280   0.270   0.074 -0.0126 -0.1770  1.4041
   23SOL     OW   67   2.800   0.558   0.671  0.1836 -0.1798  0.3049
   23SOL    HW1   68   2.846   0.480   0.624 -1.0600  1.0923 -0.5090
   23SOL    HW2   69   2.788   0.646   0.616  0.7981 -0.9430 -1.8049
   24SOL     OW   70   0.308   1.857   0.441  0.5977  0.4234  0.6518
   24SOL    HW1   71   0.274   1.931   0.380 -2.3454  0.3648 -0.1637
   24SOL    HW2   72   0.403   1.821   0.412  0.9016 -1.3653 -1.2847
   25SOL     OW   73   2.299   0.605   0.179 -0.1298 -0.0841 -0.2381
   25SOL    HW1   74   2.275   0.600   0.078 -0.8776  1.3879  0.9472
   25SOL    HW2   75   2.358   0.528   0.216 -0.4863 -0.5909  0.6771
   26SOL     OW   76   2.445   2.128   2.099  0.2466 -0.2371 -0.1482
   26SOL    HW1   77   2.532   2.170   2.137 -0.3393 -0.3790  2.1038
   26SOL    HW2   78   2.466   2.052   2.031  0.9057 -1.2405  0.0566
   27SOL     OW   79   0.612   2.965   0.180 -0.2222  0.5925 -0.4256
   27SOL    HW1   80   0.696   3.004   0.139 -0.5044  0.6731 -1.7554
   27SOL    HW2   81   0.537   2.938   0.117  2.6646 -1.4068  1.6372
   28SOL     OW   82   1.575   0.145   0.296 -0.3231 -0.0195  0.1890
   28SOL    HW1   83   1.603   0.081   0.215 -0.6136 -1.3890 -1.8316
   28SOL    HW2   84   1.623   0.236   0.297  0.0169 -1.0528  3.2166
   29SOL     OW   85   2.011   0.615   0.289  0.1694 -0.1908 -0.0792
   29SOL    HW1   86   2.014   0.651   0.383 -0.3624 -0.9607  0.1395
   29SOL    HW2   87   2.103   0.584   0.247  0.6891 -3.1132 -0.2195
   30SOL     OW   88   0.189   2.085   0.929  0.1468 -0.4350 -0.3728
   30SOL    HW1   89   0.225   2.020   0.857 -2.6078 -1.0558 -2.1023
   30SOL    HW2   90   0.087   2.085   0.933 -1.9484  0.7231  0.3455
   31SOL     OW   91   2.140   0.051   2.384 -0.2653 -0.1795  0.4266
   31SOL    HW1   92   2.107   0.017   2.479 -0.2669  0.4289  0.9210
   31SOL    HW2   93   2.068   0.036   2.311  0.6201 -0.2867 -0.8047
   32SOL     OW   94   3.084   3.056   0.287  0.2082  0.2504 -0.4785
   32SOL    HW1   95   3.044   2.960   0.281  0.4478  1.0335 -0.1202
   32SOL    HW2   96   3.172   3.073   0.229  1.4743 -2.1844 -3.9234
   33SOL     OW   97   0.921   0.195   0.642  0.0959 -0.1857  0.3431
   33SOL    HW1   98   0.912   0.155   0.549 -0.9946  1.2387  0.8198
   33SOL    HW2   99   1.006   0.259   0.642  2.0988  1.6740  0.7984
   34SOL     OW  100   0.345   2.689   1.034  0.4169 -0.1155  0.2645
   34SOL    HW1  101   0.280   2.734   0.966  1.5207 -2.5981  1.3407
   34SOL    HW2  102   0.416   2.756   1.071 -3.8138  2.6519 -0.9311
   35SOL     OW  103   0.044   0.133   1.919  0.0658  0.0966 -0.3398
   35SOL    HW1  104   0.084   0.047   1.953 -0.1655  2.9307  1.9888
   35SOL    HW2  105   0.002   0.122   1.826  1.1890  1.1124  0.5719
   36SOL     OW  106   1.937   1.148   1.519  0.3450 -0.4627  0.1436
   36SOL    HW1  107   2.025   1.095   1.531 -0.4108 -0.9286  1.3739
   36SOL    HW2  108   1.946   1.207   1.437  2.1170  0.3540 -0.8103
   37SOL     OW  109   1.119   0.240   0.990 -0.3332 -0.0165 -0.1856
   37SOL    HW1  110   1.123   0.343   0.969  1.6961  0.1752  1.1907
   37SOL    HW2  111   1.182   0.180   0.936  0.8175  0.8941 -1.3924
   38SOL     OW  112   1.164   2.869   2.441  0.1250 -0.7451 -0.1686
   38SOL    HW1  113   1.107   2.796   2.485  0.5192  0.6440 -2.5198
   38SOL    HW2  114   1.112   2.954   2.403 -2.4574 -0.8797 -1.0194
   39SOL     OW  115   2.475   1.403   3.022  0.0703  0.5092 -0.5822
   39SOL    HW1  116   2.544   1.343   3.072 -1.4821  1.4831  0.6369
   39SOL    HW2  117   2.385   1.410   3.078 -2.4185  0.6125 -0.0305
   40SOL     OW  118   2.008   2.549   2.565  0.4860  0.1424 -0.4658
   40SOL    HW1  119   1.968   2.649   2.580  0.1255  4.1904  1.6595
   40SOL    HW2  120   1.938   2.476   2.537 -0.9267 -0.5719 -1.8008
   41SOL     OW  121   3.042   0.764   2.802  0.5674 -0.2548 -0.5335
   41SOL    HW1  122   2.982   0.831   2.851 -1.5995 -1.8634 -2.9102
   41SOL    HW2  123   2.982   0.712   2.735  0.3399 -0.5182 -1.1641
   42SOL     OW  124   1.790   1.712   0.536 -0.1588  0.1922 -0.5853
   42SOL    HW1  125   1.762   1.616   0.510  1.1480  1.2743 -0.1075
   42SOL    HW2  126   1.803   1.768   0.448 -2.0437  1.3084 -1.2209
   43SOL     OW  127   0.461   1.664   1.135  0.4637 -0.2311 -0.2993
   43SOL    HW1  128   0.477   1.560   1.120 -3.7773  0.0962 -2.6121
   43SOL    HW2  129   0.390   1.690   1.204 -1.0440 -1.5710  0.6317
   44SOL     OW  130   1.656   2.346   2.975  0.1244 -0.4741  0.0630
   44SOL    HW1  131   1.558   2.374   2.991  0.0288 -0.6853 -1.6023
   44SOL    HW2  132   1.695   2.387   2.886 -2.0365 -0.5953  1.4258
   45SOL     OW  133   0.354   1.895   2.564  0.0493  0.2382  0.1246
   45SOL    HW1  134   0.310   1.885   2.467  2.9412 -0.1786  1.3863
   45SOL    HW2  135   0.436   1.829   2.580 -0.0055  0.9301 -0.7697
   46SOL     OW  136   1.240   0.756   0.275  1.0824 -0.3307 -0.2439
   46SOL    HW1  137   1.228   0.829   0.200  0.1460  1.8177 -0.5484
   46SOL    HW2  138   1.182   0.672   0.254 -3.3968 -2.0339 -0.1996
   47SOL     OW  139   0.130   2.424   1.576 -0.6268 -0.3252 -0.0390
   47SOL    HW1  140   0.112   2.355   1.651 -0.8469  1.4143 -1.6506
   47SOL    HW2  141   0.138   2.383   1.484 -1.7555  3.1245  1.6158
   48SOL     OW  142   2.658   0.681   0.128  0.2547 -0.0102 -0.1744
   48SOL    HW1  143   2.641   0.679   0.230  0.8851 -0.0763 -1.6232
   48SOL    HW2  144   2.756   0.696   0.105 -4.6350  2.5148 -2.4200
   49SOL     OW  145   0.369   0.821   1.782  0.1150 -0.2166 -0.0754
   49SOL    HW1  146   0.457   0.830   1.841  1.2709 -0.8027 -0.8102
   49SOL    HW2  147   0.378   0.755   1.701 -3.3119 -1.1570 -1.2310
   50SOL     OW  148   1.742   1.105   0.307 -0.2786 -0.4566  0.3323
   50SOL    HW1  149   1.755   1.000   0.291  0.0261 -1.5453 -2.2903
   50SOL    HW2  150   1.688   1.126   0.394 -0.1138 -1.1155  0.3358
   51SOL     OW  151   2.993   1.785   0.338 -0.7257  0.5850  0.4142
   51SOL    HW1  152   2.906   1.728   0.339 -0.9865 -1.2442  0.3843
   51SOL    HW2  153   3.076   1.737   0.378 -0.2939 -0.0302 -1.3569
   52SOL     OW  154   0.754   2.169   0.553 -0.5552  0.5322 -0.4457
   52SOL    HW1  155   0.664   2.223   0.533 -2.0695  0.0393 -1.8788
   52SOL    HW2  156   0.763   2.130   0.647 -0.2535  0.4729 -2.7226
   53SOL     OW  157   0.271   0.398   1.486  0.2071 -0.0866 -0.5716
   53SOL    HW1  158   0.295   0.493   1.523 -0.9917 -1.0271  0.0939
   53SOL    HW2  159   0.250   0.396   1.383  1.9069  1.8160 -2.6040
   54SOL     OW  160   1.735   0.439   0.003 -0.4916 -0.8472 -0.0763
   54SOL    HW1  161   1.797   0.403   0.076  0.1445  1.1518 -3.4985
   54SOL    HW2  162   1.635   0.446   0.035  0.2300  0.8018 -0.3612
   55SOL     OW  163   0.725   2.940   0.604  0.4641  1.2743  0.0722
   55SOL    HW1  164   0.659   3.022   0.603 -3.5850  0.0012 -1.3304
   55SOL    HW2  165   0.820   2.961   0.639 -0.0315  1.0412  1.4925
   56SOL     OW  166   0.575   1.539   3.063  0.2955 -0.2874  0.1211
   56SOL    HW1  167   0.501   1.552   3.137  1.5509  0.4819  0.0145
   56SOL    HW2  168   0.542   1.463   2.996  0.6222 -0.0896  2.6435
   57SOL     OW  169   1.687   2.475   2.343 -0.4203 -0.2374  0.0658
   57SOL    HW1  170   1.761   2.402   2.353 -2.7446 -2.1760 -0.2512
   57SOL    HW2  171   1.632   2.484   2.430 -1.9059  1.1794  0.5001
   58SOL     OW  172   0.671   0.233   1.079 -0.3334 -0.1339 -0.5112
   58SOL    HW1  173   0.596   0.270   1.143  1.3559 -0.9962  0.2412
   58SOL    HW2  174   0.703   0.136   1.099 -1.1684 -0.7223  0.6381
   59SOL     OW  175   0.445   2.388   2.693 -0.1324 -0.5654 -0.7624
   59SOL    HW1  176   0.456   2.289   2.705 -0.6831 -1.3637 -2.0700
   59SOL    HW2  177   0.539   2.438   2.684  1.0262  0.2985  1.0982
   60SOL     OW  178   2.292   2.041   2.339 -0.4416  0.0894 -0.6943
   60SOL    HW1  179   2.311   2.085   2.246 -0.7202  0.1828  1.0328
   60SOL    HW2  180   2.327   2.100   2.417 -1.4251  1.2226 -1.4439
   61SOL     OW  181   1.181   0.638   0.508 -0.0043 -0.0016 -0.1888
   61SOL    HW1  182   1.096   0.685   0.547  0.1583  0.9910 -1.8312
   61SOL    HW2  183   1.223   0.688   0.425 -2.6923 -0.6814  2.8144
   62SOL     OW  184   2.767   1.733   2.705  0.1125  0.3753 -0.3598
   62SOL    HW1  185   2.727   1.650   2.657  2.9328 -1.4518 -0.1405
   62SOL    HW2  186   2.839   1.710   2.772  2.4749  2.1654  0.5250
   63SOL     OW  187   0.525   0.935   0.202  0.4935  0.2569  0.3680
   63SOL    HW1  188   0.562   0.987   0.118  2.4279  1.7151  0.2411
   63SOL    HW2  189   0.526   0.992   0.287  0.2097  0.0170  1.0715
   64SOL     OW  190   2.997   0.565   2.318 -0.5782  0.4212  0.0679
   64SOL    HW1  191   2.931   0.611   2.392  1.4358 -0.7728  3.5950
   64SOL    HW2  192   3.001   0.619   2.228  0.9549 -0.3128 -0.3212
   65SOL     OW  193   0.234   1.439   0.741  0.2911 -0.1580 -0.1440
   65SOL    HW1  194   0.210   1.527   0.787 -2.9785 -1.5062 -0.2492
   65SOL    HW2  195   0.279   1.461   0.647 -0.6092  1.8251 -1.0702
   66SOL     OW  196   2.574   0.334   0.557 -0.0415  0.1752  0.1731
   66SOL    HW1  197   2.675   0.330   0.542 -1.4559  0.3593 -0.3801
   66SOL    HW2  198   2.542   0.284   0.644 -0.4946 -2.1973  2.7974
   67SOL     OW  199   0.609   2.529   1.471 -0.3402  0.0420  0.3360
   67SOL    HW1  200   0.687   2.494   1.526 -0.4091 -0.5386  1.8115
   67SOL    HW2  201   0.527   2.459   1.467  0.2227 -0.1942 -1.0373
   68SOL     OW  202   0.901   0.984   2.433 -0.3085 -0.0355  0.2436
   68SOL    HW1  203   0.988   0.938   2.391  0.7849 -2.0118 -1.1665
   68SOL    HW2  204   0.858   1.038   2.359 -2.0836 -4.0615 -2.3438
   69SOL     OW  205   0.798   2.686   2.335 -0.2647 -0.7706  0.1592
   69SOL    HW1  206   0.850   2.637   2.260 -1.3251 -3.1464  2.3720
   69SOL    HW2  207   0.694   2.676   2.328  1.0728 -1.9697 -1.6750
   70SOL     OW  208   0.446   0.148   2.536  0.0245  0.5201  0.4025
   70SOL    HW1  209   0.375   0.135   2.615 -2.1853  0.0934  0.9274
   70SOL    HW2  210   0.522   0.073   2.529  2.3569 -1.8128 -0.4134
   71SOL     OW  211   1.071   1.770   0.331 -0.0075 -0.7291 -0.2833
   71SOL    HW1  212   1.026   1.740   0.417  1.0390  0.5933 -2.4628
   71SOL    HW2  213   1.009   1.782   0.251 -2.9879 -0.1326  0.9875
   72SOL     OW  214   1.855   0.255   2.164 -0.1485  0.3041  0.0440
   72SOL    HW1  215   1.931   0.318   2.128  1.1723 -1.3683  0.9095
   72SOL    HW2  216   1.883   0.157   2.161 -1.5645  2.8998  1.3632
   73SOL     OW  217   2.784   2.183   2.507 -0.0256  0.2569  0.0437
   73SOL    HW1  218   2.763   2.092   2.456 -0.6190  1.2401 -0.3522
   73SOL    HW2  219   2.826   2.180   2.603  0.1514  0.5637  0.3427
   74SOL     OW  220   2.694   2.896   2.143 -0.2801  0.4502 -0.3158
   74SOL    HW1  221   2.622   2.857   2.212 -1.2497 -1.3252  1.2450
   74SOL    HW2  222   2.782   2.931   2.181  2.7119 -0.0331 -1.7483
   75SOL     OW  223   0.966   0.808   1.150  0.0063  0.0061  0.6597
   75SOL    HW1  224   0.869   0.843   1.142  1.5894 -0.3447  0.7707
   75SOL    HW2  225   0.999   0.833   1.248 -1.1300 -1.9559  0.6835
   76SOL     OW  226   1.857   1.275   2.566  0.1726 -0.0580  0.0528
   76SOL    HW1  227   1.756   1.262   2.599  0.4103 -0.2022 -1.9951
   76SOL    HW2  228   1.889   1.377   2.576 -2.2062  0.8520 -0.9364
   77SOL     OW  229   2.909   0.966   1.044  0.1647  0.3261  0.0029
   77SOL    HW1  230   2.867   0.875   1.067 -0.4964  0.6451 -0.1936
   77SOL    HW2  231   2.989   0.993   1.104 -0.9543  1.8587 -2.9195
   78SOL     OW  232   2.002   1.371   1.332 -0.1486  1.0328 -0.1490
   78SOL    HW1  233   2.095   1.399   1.294  0.3942 -0.9024  0.3372
   78SOL    HW2  234   1.919   1.430   1.295  0.4223  2.7144 -2.3790
   79SOL     OW  235   0.707   1.437   0.830 -0.0768  0.2109  0.1413
   79SOL    HW1  236   0.611   1.395   0.840  1.2075  2.7221  3.8734
   79SOL    HW2  237   0.784   1.364   0.811  1.4717 -0.1401 -1.7736
   80SOL     OW  238   0.574   0.450   1.561  0.1288 -0.1267  0.3929
   80SOL    HW1  239   0.628   0.504   1.487  1.5598 -1.0522 -0.7476
   80SOL    HW2  240   0.626   0.357   1.581 -0.0264 -2.1745  1.7678
   81SOL     OW  241   1.071   1.254   2.547  0.0503  0.0083 -0.2465
   81SOL    HW1  242   1.030   1.162   2.569  0.4853  2.4603  0.1699
   81SOL    HW2  243   1.009   1.336   2.556  0.3520 -1.1306 -2.3973
   82SOL     OW  244   0.918   2.891   1.514  0.0826  0.7984 -0.3752
   82SOL    HW1  245   0.926   2.798   1.461 -2.7289 -1.8699  0.3681
   82SOL    HW2  246   0.863   2.964   1.464 -2.6782 -0.6979 -0.7482
   83SOL     OW  247   2.614   2.336   0.884  0.3642  0.0464 -0.4717
   83SOL    HW1  248   2.528   2.285   0.843  0.5635  2.0681  0.3090
   83SOL    HW2  249   2.615   2.436   0.860  0.6900  1.1617 -2.5228
   84SOL     OW  250   0.767   0.047   2.278  0.1593  0.0395 -0.3729
   84SOL    HW1  251   0.737  -0.012   2.360 -0.1534 -0.2252  1.4723
   84SOL    HW2  252   0.829  -0.006   2.214 -0.4795  1.0621 -0.1506
   85SOL     OW  253   0.294   1.686   1.375 -0.2592 -0.1843 -0.5406
   85SOL    HW1  254   0.252   1.762   1.430  1.3980 -0.2414  1.0520
   85SOL    HW2  255   0.337   1.615   1.439 -0.7189  3.0123 -1.7869
   86SOL     OW  256   0.395   1.046   1.495  0.0857  0.4321 -0.1206
   86SOL    HW1  257   0.378   0.956   1.440  1.1751 -2.1240 -1.8417
   86SOL    HW2  258   0.434   1.025   1.589  1.3123  0.4722 -0.6132
   87SOL     OW  259   1.623   0.657   0.297  0.4264  0.4773  0.0209
   87SOL    HW1  260   1.693   0.733   0.272  2.8263  1.0339 -1.0780
   87SOL    HW2  261   1.574   0.631   0.213 -3.0213  1.8158 -1.7139
   88SOL     OW  262   1.594   1.361   0.270 -0.0855 -0.2954 -0.0734
   88SOL    HW1  263   1.657   1.282   0.259 -1.3462 -3.2679  1.8076
   88SOL    HW2  264   1.499   1.340   0.237  0.1192 -0.2122  0.5838
   89SOL     OW  265   0.023   0.398   0.614 -0.1312  0.5740  0.2241
   89SOL    HW1  266   0.093   0.324   0.612  1.8711  0.4363  0.9474
   89SOL    HW2  267  -0.073   0.358   0.620  1.0865 -1.7426  0.1677
   90SOL     OW  268   0.771   1.509   0.152 -0.2358  0.3290  0.0153
   90SOL    HW1  269   0.848   1.439   0.145  0.4241 -1.2859 -1.7934
   90SOL    HW2  270   0.705   1.503   0.071 -0.8002  0.2085  1.9121
   91SOL     OW  271   1.251   1.486   1.765  0.4320 -0.1061 -0.0387
   91SOL    HW1  272   1.203   1.549   1.834  1.6312  1.9155 -0.5274
   91SOL    HW2  273   1.234   1.384   1.775  4.7850 -0.3293 -1.9663
   92SOL     OW  274   0.004   1.002   1.219  0.3613  0.3419  0.1737
   92SOL    HW1  275   0.062   1.079   1.179 -0.3162  1.2064  1.0224
   92SOL    HW2  276  -0.005   1.018   1.323  1.1381  1.0758  0.0495
   93SOL     OW  277   0.013   2.693   0.082 -0.1398  0.1122  0.1495
   93SOL    HW1  278  -0.015   2.695  -0.020 -0.9034 -0.8923 -2.0268
   93SOL    HW2  279   0.018   2.593   0.122  1.4274 -2.8757  1.8364
   94SOL     OW  280   1.514   1.284   1.674  0.0363 -0.1151  0.1921
   94SOL    HW1  281   1.595   1.217   1.688 -0.4256  0.3916 -1.7921
   94SOL    HW2  282   1.535   1.377   1.713 -0.3599  2.1887 -1.9898
   95SOL     OW  283   1.327   2.471   2.917 -0.3098 -0.1471  0.2927
   95SOL    HW1  284   1.237   2.478   2.962 -0.9404  1.7617 -3.4234
   95SOL    HW2  285   1.348   2.379   2.865  0.9726 -0.9569  1.3644
   96SOL     OW  286   0.600   2.188   1.322  0.1188  0.1195  0.1548
   96SOL    HW1  287   0.541   2.159   1.242  0.2543 -2.0500  2.7488
   96SOL    HW2  288   0.608   2.114   1.396  1.6404 -0.6572 -0.2234
   97SOL     OW  289   0.247   1.607   2.433 -0.4092 -0.3554 -0.1866
   97SOL    HW1  290   0.202   1.694   2.392  1.4538 -1.1741  0.9280
   97SOL    HW2  291   0.233   1.604   2.536 -0.6319  2.8833 -1.1407
   98SOL     OW  292   2.164   1.668   1.218 -0.0180 -0.0414  0.0064
   98SOL    HW1  293   2.122   1.699   1.126 -2.8176 -3.2775 -2.2955
   98SOL    HW2  294   2.264   1.647   1.197  0.5383  0.8142  1.6266
   99SOL     OW  295   2.651   2.066   1.246  0.3405 -0.6055  0.4375
   99SOL    HW1  296   2.720   2.087   1.317  1.6150  2.2404 -0.5933
   99SOL    HW2  297   2.565   2.020   1.283  0.4337  0.2129 -1.1934
  100SOL     OW  298   2.332   0.369   2.128  0.2165  0.3159  0.5909
  100SOL    HW1  299   2.268   0.336   2.203 -0.9339 -1.8028  0.1313
  100SOL    HW2  300   2.419   0.421   2.165  1.1372  1.5508  3.1505
  101SOL     OW  301   0.361   1.518   0.503 -0.7390 -0.7065 -0.6778
  101SOL    HW1  302   0.396   1.599   0.560  2.4424 -1.1560  2.5585
  101SOL    HW2  303   0.427   1.484   0.435  2.7999  1.3272 -0.5144
  102SOL     OW  304   2.235   1.069   0.823 -0.3561 -0.1322  0.0019
  102SOL    HW1  305   2.222   0.963   0.834  0.0867  1.2013 -1.3001
  102SOL    HW2  306   2.309   1.093   0.758  0.7577  0.2417  2.2453
  103SOL     OW  307   2.284   0.065   0.355  0.2371  0.6171  0.0347
  103SOL    HW1  308   2.290   0.131   0.274 -0.5253  0.5259 -0.0254
  103SOL    HW2  309   2.370   0.059   0.413  0.7787 -1.4791  2.4820
  104SOL     OW  310   3.076   1.793   2.219 -0.2461 -0.2060  0.3965
  104SOL    HW1  311   3.118   1.726   2.152 -1.0222  0.0412 -0.1482
  104SOL    HW2  312   2.976   1.807   2.184  0.7554  0.4418 -0.2246
  105SOL     OW  313   1.382   2.110   0.769 -0.5443 -0.3256  0.1841
  105SOL    HW1  314   1.357   2.145   0.675  0.1712  2.1025 -0.6045
  105SOL    HW2  315   1.391   2.007   0.771 -0.5041  0.5034  1.8291
  106SOL     OW  316   2.152   0.408   1.413 -0.0651  0.2228 -0.0472
  106SOL    HW1  317   2.090   0.330   1.402  0.3405  0.8786  1.7408
  106SOL    HW2  318   2.157   0.443   1.508 -0.7443 -3.6057 -0.3086
  107SOL     OW  319   1.930   2.887   1.183 -0.5718 -0.5986 -0.8099
  107SOL    HW1  320   1.852   2.939   1.232 -3.1637  1.5528  0.2443
  107SOL    HW2  321   1.892   2.825   1.106  1.7508 -0.6375 -2.2570
  108SOL     OW  322   0.824   2.814   1.188  0.1502  0.1340 -0.4612
  108SOL    HW1  323   0.844   2.728   1.135  0.6351  1.9387 -1.3382
  108SOL    HW2  324   0.912   2.859   1.219 -1.7291  0.5801  0.5371
  109SOL     OW  325   2.144   0.203   0.718  0.4930 -0.4410 -0.0226
  109SOL    HW1  326   2.081   0.129   0.689  1.8412 -0.5237 -1.7198
  109SOL    HW2  327   2.139   0.219   0.821  1.6658 -1.8158 -0.0894
  110SOL     OW  328   0.515   2.764   2.761 -0.1713  0.4827 -0.6814
  110SOL    HW1  329   0.500   2.776   2.660  0.8493 -1.1507 -0.4373
  110SOL    HW2  330   0.597   2.700   2.779  3.0482 -2.3624 -1.7829
  111SOL     OW  331   1.298   0.527   2.283 -0.0239  0.3157 -0.0591
  111SOL    HW1  332   1.212   0.557   2.332 -1.4806  2.3827 -0.5150
  111SOL    HW2  333   1.348   0.452   2.342  1.4081  0.4049 -0.8438
  112SOL     OW  334   1.746   0.418   1.517  0.3258  0.4479  0.4332
  112SOL    HW1  335   1.742   0.473   1.431  1.2089  0.0344 -0.9740
  112SOL    HW2  336   1.651   0.396   1.565 -1.4388 -0.9449 -1.2334
  113SOL     OW  337   2.379   1.728   1.784  0.2469 -0.6512 -0.0839
  113SOL    HW1  338   2.393   1.627   1.764 -0.1496 -0.6216  1.7509
  113SOL    HW2  339   2.350   1.737   1.886 -0.4495 -0.7113 -0.3604
  114SOL     OW  340   0.317   0.425   1.158 -0.1786 -0.3109  0.2390
  114SOL    HW1  341   0.290   0.519   1.141 -3.4793  0.2672 -1.0366
  114SOL    HW2  342   0.349   0.374   1.070  4.3840 -1.2023  0.3106
  115SOL     OW  343   2.716   1.557   1.235  0.2263 -0.3495  0.4505
  115SOL    HW1  344   2.686   1.457   1.234  1.7340 -0.9420  1.3952
  115SOL    HW2  345   2.820   1.571   1.209  1.1968  2.4771 -0.4180
  116SOL     OW  346   1.920   0.907   0.757 -0.1321 -0.8494 -0.1045
  116SOL    HW1  347   1.824   0.885   0.733 -2.0190 -0.2476 -0.3427
  116SOL    HW2  348   1.932   1.008   0.767  1.1972 -0.3837  0.1952
  117SOL     OW  349   1.130   0.359   0.557  0.3689  0.2791  0.3975
  117SOL    HW1  350   1.156   0.461   0.571  1.7077 -1.0688  2.3301
  117SOL    HW2  351   1.085   0.339   0.459 -0.9479 -2.4046 -1.4479
  118SOL     OW  352   1.127   1.218   1.075 -0.1494 -0.1447  0.1857
  118SOL    HW1  353   1.050   1.187   1.133  0.2465  1.9596 -0.4625
  118SOL    HW2  354   1.154   1.318   1.086  3.7464  1.8241  1.0596
  119SOL     OW  355   1.845   1.579   2.197 -0.0541 -0.1384 -0.0887
  119SOL    HW1  356   1.802   1.642   2.126  0.2535 -0.5430  0.9524
  119SOL    HW2  357   1.944   1.558   2.170  2.3711  1.1245 -2.2820
  120SOL     OW  358   2.947   2.824   0.258  0.7442 -0.1558 -0.1052
  120SOL    HW1  359   2.997   2.773   0.180 -0.7687  0.5987 -0.0571
  120SOL    HW2  360   2.848   2.835   0.230 -0.7561  0.0495  0.0428
  121SOL     OW  361   2.001   0.798   2.314 -0.4498  0.6326  0.3391
  121SOL    HW1  362   2.063   0.861   2.254  1.5988  1.3994  1.0219
  121SOL    HW2  363   2.027   0.699   2.309 -0.6230  0.9349 -3.1711
  122SOL     OW  364   2.634   2.499   1.325 -0.2601  0.2147 -0.1463
  122SOL    HW1  365   2.672   2.417   1.280 -1.1878 -0.1746 -1.5403
  122SOL    HW2  366   2.614   2.474   1.425 -1.3860  0.4121  1.8439
  123SOL     OW  367   1.664   0.131   1.714 -0.3205  0.1357 -0.2730
  123SOL    HW1  368   1.705   0.064   1.641 -2.2679 -1.8667 -1.4724
  123SOL    HW2  369   1.736   0.196   1.757  0.0737  2.6251  1.9175
  124SOL     OW  370   3.062   0.386   1.118 -0.2548 -0.0704  0.2414
  124SOL    HW1  371   3.058   0.465   1.185 -1.0453 -2.3581  1.3175
  124SOL    HW2  372   3.085   0.421   1.023  1.2671  1.9280  1.1267
  125SOL     OW  373   0.845   1.995   0.766  0.1163  0.5158  0.1638
  125SOL    HW1  374   0.936   1.946   0.774  0.9653 -1.5177 -0.6379
  125SOL    HW2  375   0.811   2.040   0.855 -0.1430  0.5752 -3.1437
  126SOL     OW  376   1.897   2.320   2.473 -0.0349 -0.1396 -0.3566
  126SOL    HW1  377   1.945   2.258   2.401  0.7961 -2.4134 -0.9705
  126SOL    HW2  378   1.886   2.282   2.568 -3.0800  2.9299 -0.5803
  127SOL     OW  379   0.895   0.975   0.205 -0.0071 -0.1685  0.0861
  127SOL    HW1  380   0.936   0.997   0.299  0.5650  2.7541  1.5808
  127SOL    HW2  381   0.891   0.874   0.188  2.2051  0.8011  0.3391
  128SOL     OW  382   0.946   0.246   1.429 -0.1850 -0.1445  0.2165
  128SOL    HW1  383   0.859   0.299   1.387 -0.8357 -1.0263 -4.1707
  128SOL    HW2  384   0.948   0.147   1.385  1.1810 -0.3934  0.1112
  129SOL     OW  385   1.871   0.723   1.820 -0.3401 -0.4930 -0.4683
  129SOL    HW1  386   1.886   0.721   1.717  1.7382  1.4772  1.3885
  129SOL    HW2  387   1.895   0.810   1.870  1.0885  1.5623  1.0636
  130SOL     OW  388   1.343   2.285   0.983  0.6207 -0.2261  0.2133
  130SOL    HW1  389   1.341   2.218   0.900  0.5460 -3.5285  0.8473
  130SOL    HW2  390   1.426   2.349   0.981  0.6038 -1.5882 -1.2860
  131SOL     OW  391   3.073   1.436   1.391 -0.0186 -0.0630 -0.0705
  131SOL    HW1  392   2.998   1.363   1.410 -2.3147  1.0964  0.4286
  131SOL    HW2  393   3.158   1.401   1.347  0.4979  3.8839 -1.3290
  132SOL     OW  394   2.056   2.401   0.565  0.5193  0.5204  0.1700
  132SOL    HW1  395   1.951   2.410   0.545 -0.8415  1.9168  0.2919
  132SOL    HW2  396   2.076   2.316   0.618 -1.6047  0.9997 -0.7196
  133SOL     OW  397   1.734   2.496   2.755  0.5315  0.3210  0.2083
  133SOL    HW1  398   1.660   2.477   2.681  2.0366  1.1225  0.4801
  133SOL    HW2  399   1.762   2.595   2.760 -0.4223  1.4487 -1.7576
  134SOL     OW  400   2.677   2.388   1.589 -0.3113  0.2698 -0.0021
  134SOL    HW1  401   2.654   2.363   1.687  0.0132  1.0638  0.7591
  134SOL    HW2  402   2.702   2.488   1.570  1.3462  1.5812  1.4426
  135SOL     OW  403   0.804   1.447   2.666  0.3324 -0.7637 -0.3797
  135SOL    HW1  404   0.754   1.377   2.721 -1.5171  1.4889  0.1079
  135SOL    HW2  405   0.779   1.433   2.562  0.6328 -0.6039 -3.4549
  136SOL     OW  406   1.174   2.001   0.399  0.0772  0.3408  0.1652
  136SOL    HW1  407   1.113   2.071   0.446  1.4086 -1.5522 -0.5380
  136SOL    HW2  408   1.126   1.915   0.369  1.0669  0.4017  2.5078
  137SOL     OW  409   0.420   1.215   2.318  0.2118 -0.0163  0.8701
  137SOL    HW1  410   0.321   1.202   2.341 -1.6127 -0.3964 -0.2604
  137SOL    HW2  411   0.472   1.126   2.296  0.6251 -0.2421 -0.0275
  138SOL     OW  412   2.432   1.526   0.246  0.4690 -0.2946 -0.4426
  138SOL    HW1  413   2.366   1.466   0.191  2.0301  0.0316 -3.6127
  138SOL    HW2  414   2.453   1.479   0.334 -0.0677  0.2227  0.5900
  139SOL     OW  415   1.887   2.668   1.587 -0.2884  0.5461  0.7844
  139SOL    HW1  416   1.804   2.726   1.602 -0.5470 -1.7999 -0.2060
  139SOL    HW2  417   1.882   2.587   1.517  2.6349 -1.0810 -0.1937
  140SOL     OW  418   2.953   2.951   2.568  0.3132 -0.0513 -0.3332
  140SOL    HW1  419   3.018   2.873   2.581 -3.2675 -0.6726 -0.4278
  140SOL    HW2  420   2.985   3.026   2.508  1.0020  0.3889  0.4767
  141SOL     OW  421   1.300   1.658   1.513  0.0721 -0.1907 -0.9092
  141SOL    HW1  422   1.224   1.727   1.520  1.4167 -1.7333  0.4215
  141SOL    HW2  423   1.292   1.587   1.589 -0.4282  1.2248  0.8853
  142SOL     OW  424   1.548   0.686   2.246  0.8046  0.6610  0.2113
  142SOL    HW1  425   1.556   0.726   2.148  2.8941  0.8560 -1.3685
  142SOL    HW2  426   1.457   0.633   2.259 -1.0252 -1.1530  0.2709
  143SOL     OW  427   2.754   0.823   0.558 -0.3957 -0.2968 -0.4169
  143SOL    HW1  428   2.831   0.865   0.497  2.9429  2.6296  1.3127
  143SOL    HW2  429   2.764   0.844   0.657 -0.7092 -2.2185  1.4023
  144SOL     OW  430   2.893   1.173   1.459 -0.2661 -0.7265 -0.2440
  144SOL    HW1  431   2.855   1.169   1.555  0.3232 -0.0547 -0.8459
  144SOL    HW2  432   2.984   1.120   1.459  2.1678  0.4868  4.6574
  145SOL     OW  433   0.871   1.802   0.099  0.2942 -0.8235 -0.0297
  145SOL    HW1  434   0.869   1.830  -0.002  0.9883 -1.2308  0.3769
  145SOL    HW2  435   0.824   1.710   0.116 -2.4940 -1.2212 -0.6016
  146SOL     OW  436   2.461   0.661   1.517 -0.7283  0.4166 -0.4865
  146SOL    HW1  437   2.444   0.569   1.467  0.5056 -1.8508 -1.1551
  146SOL    HW2  438   2.396   0.737   1.483  0.6079  0.0949 -1.4779
  147SOL     OW  439   1.082   2.500   0.564 -0.4603 -0.3568 -0.1546
  147SOL    HW1  440   1.001   2.549   0.521 -0.7355 -1.6050  0.2978
  147SOL    HW2  441   1.157   2.488   0.495 -0.6012  2.4099 -0.9424
  148SOL     OW  442   1.575   1.470   0.007 -0.0476 -0.1082 -0.2121
  148SOL    HW1  443   1.611   1.383  -0.044  1.5584  0.3490 -2.4799
  148SOL    HW2  444   1.556   1.446   0.107 -1.3852  0.2202  1.4463
  149SOL     OW  445   0.651   1.495   1.982 -0.1964 -0.0359 -0.0572
  149SOL    HW1  446   0.573   1.449   2.036 -0.7821  0.4401 -0.2140
  149SOL    HW2  447   0.660   1.445   1.888  0.5903  2.6370 -0.3208
  150SOL     OW  448   3.052   1.200   0.930 -0.7656 -0.7637 -0.1883
  150SOL    HW1  449   3.124   1.217   1.010 -0.1047  0.4661  1.4301
  150SOL    HW2  450   3.005   1.110   0.941  2.7860 -0.2851  0.4951
  151SOL     OW  451   0.162   0.914   2.085 -0.7550  0.4533  0.6152
  151SOL    HW1  452   0.171   0.981   2.003 -0.6186 -0.3062 -0.0349
  151SOL    HW2  453   0.227   0.835   2.067  0.5896 -1.0176 -0.4328
  152SOL     OW  454   1.474   1.859   1.090 -0.1914  0.4227  0.0766
  152SOL    HW1  455   1.519   1.950   1.109  0.0057  1.3570  1.9634
  152SOL    HW2  456   1.368   1.866   1.072 -4.3287 -1.6579 -0.1699
  153SOL     OW  457   0.160   1.496   0.229  0.0523 -0.1399  0.1761
  153SOL    HW1  458   0.148   1.392   0.221 -3.3331 -0.3500  2.8495
  153SOL    HW2  459   0.133   1.533   0.320  0.4444  0.9812 -1.9840
  154SOL     OW  460   2.327   1.788   2.764 -0.0825  0.6233  0.6989
  154SOL    HW1  461   2.354   1.684   2.751  0.5153 -0.0880 -1.5432
  154SOL    HW2  462   2.382   1.848   2.700 -0.7007  1.5926  0.2119
  155SOL     OW  463   2.434   1.310   0.427  1.0335  0.5961  0.0435
  155SOL    HW1  464   2.512   1.249   0.394  0.8844  0.7438  0.3685
  155SOL    HW2  465   2.346   1.259   0.433  1.0902  0.7179  2.9152
  156SOL     OW  466   2.471   0.831   0.746 -0.2622  0.1132  0.9657
  156SOL    HW1  467   2.373   0.840   0.774 -1.2416 -2.8950  3.2928
  156SOL    HW2  468   2.480   0.854   0.642 -0.2587 -1.7196  0.7350
  157SOL     OW  469   1.257   3.063   3.078  0.5822  0.3044 -0.0656
  157SOL    HW1  470   1.317   3.012   3.007 -0.6347  0.0827 -1.1958
  157SOL    HW2  471   1.283   3.154   3.118 -2.0799  1.4704 -0.6478
  158SOL     OW  472   1.098   1.921   1.814 -0.1899  0.4089  0.4722
  158SOL    HW1  473   1.152   2.002   1.774  2.7482 -0.4258  0.3380
  158SOL    HW2  474   1.014   1.953   1.860  1.0683 -0.7578 -2.5713
  159SOL     OW  475   0.791   0.404   1.292 -0.5834  0.3348  0.0258
  159SOL    HW1  476   0.740   0.499   1.295  1.7401  0.8877 -1.9643
  159SOL    HW2  477   0.786   0.360   1.200  1.3489 -1.2655  1.3435
  160SOL     OW  478   1.416   2.475   1.442  0.1997  0.1909  0.1967
  160SOL    HW1  479   1.352   2.414   1.499 -0.5374  0.0007  0.7613
  160SOL    HW2  480   1.500   2.417   1.420  0.1393 -0.9152  1.4067
  161SOL     OW  481   3.101   2.625   0.452  0.7046 -0.4287 -0.1320
  161SOL    HW1  482   3.051   2.532   0.445 -0.2000 -1.6019  1.0621
  161SOL    HW2  483   3.055   2.702   0.388 -0.6842  1.7838 -0.4826
  162SOL     OW  484   2.533   1.890   0.489 -0.2876 -0.2437 -0.0120
  162SOL    HW1  485   2.583   1.900   0.400  1.3359  0.0308 -1.0210
  162SOL    HW2  486   2.472   1.809   0.505 -1.5695  0.5202  6.2049
  163SOL     OW  487   1.969   2.754   0.758  0.0654  0.3661  0.0616
  163SOL    HW1  488   1.954   2.772   0.656  2.2682  0.3546 -2.7458
  163SOL    HW2  489   2.023   2.668   0.782  1.4991 -0.1246  1.4585
  164SOL     OW  490   3.079   0.131   1.215  0.1537  0.2771  0.1090
  164SOL    HW1  491   3.048   0.221   1.170 -1.6613  0.6168 -2.7809
  164SOL    HW2  492   3.165   0.143   1.273  2.9813 -1.2653  2.1502
  165SOL     OW  493   1.121   1.452   0.635 -0.2040  0.0556 -0.7596
  165SOL    HW1  494   1.094   1.496   0.728  0.0174 -1.8996  2.1565
  165SOL    HW2  495   1.062   1.493   0.562  1.2658  2.4486  0.7009
  166SOL     OW  496   1.508   0.991   1.817 -0.4296 -0.0371  0.6676
  166SOL    HW1  497   1.435   1.058   1.852  0.5651  2.9877  0.9501
  166SOL    HW2  498   1.590   1.036   1.768  0.7803  0.1350 -0.6325
  167SOL     OW  499   0.660   2.008   1.523  0.1434  0.4781 -0.0563
  167SOL    HW1  500   0.720   2.066   1.586 -3.1440 -0.2306  2.3120
  167SOL    HW2  501   0.613   1.931   1.580 -0.1744 -0.7391 -0.9709
  168SOL     OW  502   1.617   2.301   0.139  0.7816 -0.2817  0.1588
  168SOL    HW1  503   1.686   2.325   0.067 -0.5796  2.3843  1.0862
  168SOL    HW2  504   1.664   2.285   0.232  0.2755 -0.8277  1.5007
  169SOL     OW  505   0.007   2.569   2.195 -0.0866  0.2354 -0.6080
  169SOL    HW1  506   0.032   2.496   2.123  0.4001 -2.7271 -0.3032
  169SOL    HW2  507   0.050   2.560   2.287 -2.5206  0.9980 -0.8290
  170SOL     OW  508   1.150   0.146   2.060 -0.0174 -0.2740  0.1216
  170SOL    HW1  509   1.239   0.183   2.101  0.8617  1.5971  0.7912
  170SOL    HW2  510   1.153   0.152   1.955 -0.1254  0.6883  1.3905
  171SOL     OW  511   0.183   0.857   2.421 -0.4570  0.1012 -0.0761
  171SOL    HW1  512   0.081   0.857   2.457 -2.1494  0.2340 -1.3336
  171SOL    HW2  513   0.193   0.940   2.363  0.5845  0.8645  2.0214
  172SOL     OW  514   1.002   1.015   2.853  0.1039 -0.8081 -0.2815
  172SOL    HW1  515   0.950   1.055   2.933  0.8744  2.1561  0.0251
  172SOL    HW2  516   0.955   1.008   2.764  2.2014 -1.3029 -1.5660
  173SOL     OW  517   0.404   2.573   0.038 -0.3251 -0.0430 -0.2623
  173SOL    HW1  518   0.478   2.517  -0.017 -1.4164 -0.7644 -1.0834
  173SOL    HW2  519   0.397   2.555   0.145  0.0244  3.6054 -0.4778
  174SOL     OW  520   1.476   2.873   1.047 -0.7609 -0.3307 -0.1833
  174SOL    HW1  521   1.562   2.890   0.991  1.9701 -0.2710  0.5366
  174SOL    HW2  522   1.423   2.790   1.017  1.3423 -0.0601 -0.1577
  175SOL     OW  523   0.452   3.059   1.716  0.6587 -0.3165 -0.0234
  175SOL    HW1  524   0.486   3.070   1.812 -1.2052  0.6334 -1.8906
  175SOL    HW2  525   0.422   3.146   1.672  3.0036 -1.6418  0.2411
  176SOL     OW  526   2.661   0.413   3.072 -0.2387  0.5939 -0.6892
  176SOL    HW1  527   2.661   0.508   3.115 -1.4466 -0.0840 -0.2423
  176SOL    HW2  528   2.651   0.335   3.137  1.5723  2.0847  0.6461
  177SOL     OW  529   0.380   0.282   0.889  0.2272 -0.2857 -0.2426
  177SOL    HW1  530   0.327   0.194   0.898  2.5935  1.7360 -0.0034
  177SOL    HW2  531   0.480   0.270   0.886 -2.2114 -2.5063 -1.9271
  178SOL     OW  532   0.037   2.725   2.631 -0.6108  0.1425  0.5715
  178SOL    HW1  533   0.004   2.627   2.625  1.2005 -1.6202  4.6136
  178SOL    HW2  534   0.107   2.735   2.710 -0.8668  0.5547  1.7938
  179SOL     OW  535   2.982   1.580   1.188  0.0042  0.4341  0.1304
  179SOL    HW1  536   3.051   1.618   1.122  1.3539  0.0927  4.9468
  179SOL    HW2  537   3.023   1.528   1.272  0.0626 -0.6374  1.4959
  180SOL     OW  538   0.252   1.367   1.763  0.2290  0.2003 -0.7708
  180SOL    HW1  539   0.338   1.313   1.798  3.1275 -0.9854  1.2084
  180SOL    HW2  540   0.188   1.399   1.840  0.5917  0.1703 -1.8955
  181SOL     OW  541   2.979   1.820   2.504  0.4504 -0.7174 -0.5985
  181SOL    HW1  542   3.033   1.810   2.416 -3.8233 -2.2343 -0.0707
  181SOL    HW2  543   2.876   1.832   2.484  0.1611 -1.4256 -1.8669
  182SOL     OW  544   2.256   1.366   1.188 -0.1454 -0.1784  0.1636
  182SOL    HW1  545   2.236   1.271   1.153 -2.6108 -0.9079  3.1848
  182SOL    HW2  546   2.298   1.432   1.117  2.7629  1.6186 -0.6956
  183SOL     OW  547   1.418   2.251   2.422 -0.0169 -0.2526 -0.1383
  183SOL    HW1  548   1.366   2.175   2.470  0.0428  0.1454 -0.9550
  183SOL    HW2  549   1.499   2.219   2.366 -2.3049 -0.6933 -0.4600
  184SOL     OW  550   2.173   0.795   0.760  0.1322 -0.7888 -0.3695
  184SOL    HW1  551   2.075   0.827   0.765  3.1133 -0.0720 -0.5456
  184SOL    HW2  552   2.181   0.693   0.748  0.4194  3.1397 -0.2516
  185SOL     OW  553   1.576   2.793   1.992  0.3276 -0.0543  0.4029
  185SOL    HW1  554   1.494   2.849   2.026 -0.0687 -1.2805  0.6056
  185SOL    HW2  555   1.631   2.753   2.070 -1.2286  0.7872 -0.2277
  186SOL     OW  556   0.094   2.214   1.755 -0.6510 -0.2326  0.6946
  186SOL    HW1  557   0.076   2.256   1.847  4.1646 -1.0966 -0.8031
  186SOL    HW2  558   0.183   2.163   1.768  1.8692  2.8166  0.9799
  187SOL     OW  559   1.343   0.681   1.665 -0.1792  0.3924 -0.0536
  187SOL    HW1  560   1.433   0.724   1.659 -1.0232 -0.7020 -2.3862
  187SOL    HW2  561   1.327   0.611   1.743  1.8189 -2.7680  1.0476
  188SOL     OW  562   2.712   2.673   1.539  0.1187 -0.3266  0.7371
  188SOL    HW1  563   2.704   2.773   1.562 -2.2536 -0.8091  2.6443
  188SOL    HW2  564   2.674   2.647   1.444 -0.1780 -0.5498 -2.5973
  189SOL     OW  565   0.953   1.210   1.341  0.1939 -0.8601 -0.1221
  189SOL    HW1  566   0.990   1.272   1.417  1.1439  1.2686 -1.1728
  189SOL    HW2  567   0.883   1.266   1.286  0.4348  0.1947 -1.0823
  190SOL     OW  568   1.470   1.879   1.501  0.5623  0.9712 -0.4009
  190SOL    HW1  569   1.428   1.783   1.502 -1.9135  0.9740  2.2136
  190SOL    HW2  570   1.464   1.927   1.592  1.3436  0.4047  0.5360
  191SOL     OW  571   0.847   0.763   1.513 -0.5283  0.0691 -0.0517
  191SOL    HW1  572   0.922   0.716   1.578  2.3702  0.7060  1.6620
  191SOL    HW2  573   0.895   0.843   1.463 -0.1089  0.1618 -0.1004
  192SOL     OW  574   1.831   2.441   1.110 -0.6761  0.3828 -0.9685
  192SOL    HW1  575   1.733   2.412   1.089 -2.0725 -3.6199 -1.1464
  192SOL    HW2  576   1.905   2.386   1.064 -3.7742 -3.5112  0.3190
  193SOL     OW  577   0.569   0.579   0.451 -0.5354 -0.2940 -0.2909
  193SOL    HW1  578   0.503   0.496   0.444  0.4817 -0.0619  0.4752
  193SOL    HW2  579   0.618   0.597   0.357  0.3376  3.1606 -2.5958
  194SOL     OW  580   0.371   0.827   1.325  0.3108 -0.6850  0.3435
  194SOL    HW1  581   0.293   0.785   1.265  1.3803 -1.0935  2.7567
  194SOL    HW2  582   0.459   0.824   1.270  1.1458 -1.4564 -2.2124
  195SOL     OW  583   1.030   2.940   0.509  0.0205 -0.0370 -0.8127
  195SOL    HW1  584   1.000   2.840   0.510 -1.9305  0.1453  0.9107
  195SOL    HW2  585   1.133   2.962   0.505  1.1880 -0.0662  0.0040
  196SOL     OW  586   0.252   1.417   1.301 -0.4844  0.7255  0.0962
  196SOL    HW1  587   0.255   1.520   1.330  1.1874  1.5280 -0.2996
  196SOL    HW2  588   0.260   1.351   1.382  3.0768  2.9411  0.4850
  197SOL     OW  589   0.841   2.006   0.316 -0.0197 -0.1882 -0.6255
  197SOL    HW1  590   0.851   1.950   0.401  0.6568 -1.0683  0.8683
  197SOL    HW2  591   0.894   1.972   0.232 -1.4401 -0.5173 -0.5698
  198SOL     OW  592   0.286   1.224   0.347 -0.2104 -0.3619 -0.0152
  198SOL    HW1  593   0.184   1.210   0.325 -3.1299 -1.7173 -0.5080
  198SOL    HW2  594   0.309   1.281   0.431  1.7673  0.4118  1.6035
  199SOL     OW  595   2.215   0.463   2.599  0.5419 -0.1240  0.0084
  199SOL    HW1  596   2.144   0.443   2.671 -0.0662 -2.7057 -2.4530
  199SOL    HW2  597   2.313   0.446   2.627  1.5661 -1.9883  1.0586
  200SOL     OW  598   3.030   2.905   0.803 -0.2106 -0.7343  0.5665
  200SOL    HW1  599   3.037   2.995   0.851 -0.5934 -1.4672 -1.0974
  200SOL    HW2  600   3.012   2.916   0.702 -0.3961 -1.3212  0.3580
  201SOL     OW  601   0.903   0.691   0.507  0.2708  0.2351 -0.2344
  201SOL    HW1  602   0.870   0.786   0.543 -1.3882  2.5195 -0.1026
  201SOL    HW2  603   0.855   0.608   0.553  0.0821 -0.7198 -3.4439
  202SOL     OW  604   0.454   1.234   1.840  0.1033 -0.0374  0.2974
  202SOL    HW1  605   0.545   1.198   1.808 -0.1524  0.3882  0.2835
  202SOL    HW2  606   0.456   1.263   1.936  1.3607 -1.9392 -2.0893
  203SOL     OW  607   0.678   0.202   1.596  0.1245  0.1726 -0.4869
  203SOL    HW1  608   0.689   0.167   1.501 -3.0561 -1.2413  2.5112
  203SOL    HW2  609   0.751   0.167   1.663  0.6288 -0.8143 -1.3443
  204SOL     OW  610   2.110   1.822   2.916  0.4853  0.0138 -0.0426
  204SOL    HW1  611   2.055   1.737   2.919  1.3160  2.2490 -2.3503
  204SOL    HW2  612   2.204   1.812   2.875 -3.2864  0.5187  0.0203
  205SOL     OW  613   1.837   1.901   3.076  0.0673  0.0932 -0.4967
  205SOL    HW1  614   1.930   1.868   3.039  1.0600 -2.8141  1.0899
  205SOL    HW2  615   1.785   1.964   3.009 -1.7031 -0.8686  0.3623
  206SOL     OW  616   2.357   2.720   0.272 -0.6892 -0.1072  0.2590
  206SOL    HW1  617   2.340   2.659   0.352  2.6294  1.8935  0.9657
  206SOL    HW2  618   2.451   2.723   0.237  0.1932 -0.8466  0.2938
  207SOL     OW  619   0.700   1.747   2.910  0.3885  0.0891  0.1700
  207SOL    HW1  620   0.789   1.709   2.876 -0.4752 -2.0419 -0.0990
  207SOL    HW2  621   0.651   1.675   2.968 -0.6463 -0.7175  0.6017
  208SOL     OW  622   1.000   1.549   1.273 -0.2619 -0.1449  0.2454
  208SOL    HW1  623   0.944   1.574   1.186 -1.3957 -0.2020 -1.1471
  208SOL    HW2  624   0.953   1.568   1.362  0.3415  1.7612  1.0816
  209SOL     OW  625   0.268   0.963   3.050  0.0092 -0.0761 -0.7564
  209SOL    HW1  626   0.284   0.912   2.957 -0.6854  0.7597 -0.8792
  209SOL    HW2  627   0.210   0.922   3.123  0.5167  1.1716 -0.4681
  210SOL     OW  628   1.699   0.559   1.261 -0.2753  0.2894  0.2096
  210SOL    HW1  629   1.644   0.595   1.178  2.7426  0.3149  1.3829
  210SOL    HW2  630   1.801   0.550   1.243  0.9291 -0.6887 -0.1771
  211SOL     OW  631   2.176   1.026   1.578  0.9682  0.2341 -0.3740
  211SOL    HW1  632   2.214   1.021   1.678  1.5363 -0.5749  2.9875
  211SOL    HW2  633   2.220   1.108   1.532 -4.1211  1.1186  0.4181
  212SOL     OW  634   0.053   1.029   1.478 -0.2493  0.1910  0.0486
  212SOL    HW1  635   0.126   1.100   1.486 -0.5259 -2.3109 -0.0639
  212SOL    HW2  636   0.069   0.956   1.548 -1.1948  0.9255 -0.0224
  213SOL     OW  637   2.814   0.092   0.350 -0.1920 -0.6294  0.6990
  213SOL    HW1  638   2.911   0.052   0.350  2.4137 -1.4624  0.6795
  213SOL    HW2  639   2.755   0.043   0.286  2.4279 -2.8131 -1.0090
  214SOL     OW  640   2.158   0.325   2.352  0.2102  1.0699 -0.0534
  214SOL    HW1  641   2.177   0.372   2.441 -0.5776 -2.2600  1.0395
  214SOL    HW2  642   2.152   0.220   2.363 -0.6864 -3.5165  0.3044
  215SOL     OW  643   1.657   2.228   2.045  0.1346  0.5556  0.4284
  215SOL    HW1  644   1.758   2.265   2.053 -0.3452  1.5249 -0.6524
  215SOL    HW2  645   1.581   2.299   2.064  1.5451 -0.1114  0.9564
  216SOL     OW  646   2.209   0.533   0.727  0.0570 -0.4542 -0.1069
  216SOL    HW1  647   2.174   0.474   0.657  1.4840  2.3291  2.4700
  216SOL    HW2  648   2.298   0.498   0.772  2.5713  2.8283 -0.3112
  217SOL     OW  649   0.930   2.734   2.575  0.5565 -0.3524  0.0311
  217SOL    HW1  650   0.902   2.658   2.632 -2.0762  0.3957 -1.7839
  217SOL    HW2  651   0.884   2.731   2.479 -1.4277  0.2883 -1.3822
  218SOL     OW  652   1.864   1.443   0.033  0.2714 -0.4229 -0.3145
  218SOL    HW1  653   1.772   1.485   0.051  0.1796 -0.2678  1.1491
  218SOL    HW2  654   1.874   1.340   0.048 -0.3685 -0.4009 -0.9084
  219SOL     OW  655   2.463   1.286   2.521  0.0019  0.7398 -0.0090
  219SOL    HW1  656   2.530   1.252   2.447  0.3953 -0.4051  0.7070
  219SOL    HW2  657   2.437   1.211   2.591 -0.6278 -1.1814  0.0378
  220SOL     OW  658   1.384   1.027   1.336 -0.1525 -0.4052 -0.4807
  220SOL    HW1  659   1.480   0.996   1.356 -0.2657  2.0968 -1.4256
  220SOL    HW2  660   1.382   1.064   1.239  0.4393  0.4069  0.9970
  221SOL     OW  661   1.397   0.972   2.178 -0.0725 -0.5782  0.2250
  221SOL    HW1  662   1.334   1.017   2.103 -1.5857  0.7847 -0.8391
  221SOL    HW2  663   1.475   1.026   2.209 -2.4031 -2.3393  1.8573
  222SOL     OW  664   1.168   0.078   1.227  0.2819  0.1924  0.0088
  222SOL    HW1  665   1.202   0.126   1.315  0.7907 -0.0244  1.0054
  222SOL    HW2  666   1.160   0.143   1.147  1.5830  0.7454  1.5097
  223SOL     OW  667   2.720   0.956   2.115  0.3854 -0.2885  0.5384
  223SOL    HW1  668   2.683   1.052   2.091  1.1738 -0.8539  0.1156
  223SOL    HW2  669   2.807   0.960   2.173  0.3023 -0.7194 -0.0743
  224SOL     OW  670   1.558   1.021   2.769 -0.1488  0.1710  0.0126
  224SOL    HW1  671   1.601   0.950   2.704 -0.8917 -2.5496 -3.7631
  224SOL    HW2  672   1.573   1.118   2.730 -2.7614 -0.5091  1.9454
  225SOL     OW  673   2.948   2.673   2.919  0.2244  0.2006  0.1912
  225SOL    HW1  674   2.878   2.616   2.859  0.3492  0.8054 -0.7775
  225SOL    HW2  675   3.005   2.734   2.858 -1.7997 -2.0847  0.4279
  226SOL     OW  676   2.397   1.527   2.784  0.3339  0.3586 -0.6385
  226SOL    HW1  677   2.488   1.522   2.731  2.7442  2.5430 -0.8218
  226SOL    HW2  678   2.418   1.497   2.882  4.6661  2.0976  1.3144
  227SOL     OW  679   0.844   0.242   3.063  0.4313  0.3010 -0.0591
  227SOL    HW1  680   0.888   0.333   3.062 -2.1402  1.7468 -0.3898
  227SOL    HW2  681   0.823   0.206   2.970  2.0721 -1.1654  0.6025
  228SOL     OW  682   2.454   0.665   2.846  0.0854  0.0153 -0.2908
  228SOL    HW1  683   2.466   0.754   2.794 -0.5615  2.6977  1.8271
  228SOL    HW2  684   2.519   0.588   2.815 -0.5924 -0.1899 -0.7341
  229SOL     OW  685   0.470   0.533   1.823  0.8466  1.0973  0.0399
  229SOL    HW1  686   0.557   0.580   1.809  0.7540  0.0092  0.4314
  229SOL    HW2  687   0.462   0.453   1.753  1.1832 -1.2535 -1.7488
  230SOL     OW  688   1.873   1.207   1.948 -0.5085 -0.1868 -0.3682
  230SOL    HW1  689   1.961   1.260   1.926 -0.3724 -2.5945 -1.2360
  230SOL    HW2  690   1.816   1.258   2.017 -2.3696  1.8901 -0.8936
  231SOL     OW  691   0.620   1.070   3.086 -0.2152  0.4556 -0.2272
  231SOL    HW1  692   0.717   1.096   3.097  0.7892  0.6390 -0.4720
  231SOL    HW2  693   0.545   1.145   3.098 -0.3899 -3.8083 -0.2499
  232SOL     OW  694   2.405   3.056   2.789 -0.5397 -0.3999 -0.2942
  232SOL    HW1  695   2.477   2.984   2.802 -1.3691  0.2513  1.4224
  232SOL    HW2  696   2.437   3.138   2.734  0.9283 -2.2789  1.1416
  233SOL     OW  697   1.775   1.160   1.082  0.6720 -0.0889 -0.0705
  233SOL    HW1  698   1.850   1.235   1.086  0.1605  0.6963 -1.3538
  233SOL    HW2  699   1.797   1.080   1.146  0.2964 -0.8288 -0.5291
  234SOL     OW  700   1.648   2.544   1.836 -0.2108 -0.7481 -0.1059
  234SOL    HW1  701   1.613   2.602   1.917 -2.9083  0.9362  0.5310
  234SOL    HW2  702   1.596   2.459   1.834  0.1181 -2.0888  2.6023
  235SOL     OW  703   3.094   2.974   2.847  0.1604 -0.0434 -0.5602
  235SOL    HW1  704   3.044   2.993   2.759 -2.6604  2.1595 -0.7875
  235SOL    HW2  705   3.079   3.045   2.922  1.5452 -0.9777  0.9384
  236SOL     OW  706   2.916   0.685   0.055 -0.3672  0.0995  0.4183
  236SOL    HW1  707   2.974   0.731   0.129 -2.3305  1.6952 -1.3586
  236SOL    HW2  708   2.964   0.602   0.005 -1.1035 -0.1996  0.9325
  237SOL     OW  709   1.461   1.666   0.893  0.3401  0.0179 -0.3411
  237SOL    HW1  710   1.547   1.608   0.896  0.0629  3.3778 -0.9367
  237SOL    HW2  711   1.463   1.736   0.969  1.7972  2.1265  0.9790
  238SOL     OW  712   1.894   1.202   0.762 -0.6737  0.1139 -0.2631
  238SOL    HW1  713   1.939   1.225   0.858  1.2922  1.9358 -0.8798
  238SOL    HW2  714   1.790   1.206   0.765  3.0240  0.9014 -2.2045
  239SOL     OW  715   2.015   0.211   2.753 -0.3250  0.1556  0.2087
  239SOL    HW1  716   2.059   0.167   2.839  1.3102 -2.2540  3.9715
  239SOL    HW2  717   1.961   0.294   2.782  1.0326 -0.8938  0.0390
  240SOL     OW  718   0.942   0.705   0.234 -0.0877 -0.4183  0.3522
  240SOL    HW1  719   0.999   0.621   0.201 -1.3910 -0.6735  0.5665
  240SOL    HW2  720   0.941   0.716   0.341  3.5242  0.1970 -1.3232
  241SOL     OW  721   0.558   0.133   0.321 -0.1091  0.0564 -0.4473
  241SOL    HW1  722   0.651   0.169   0.279  2.2178 -0.0902 -1.1438
  241SOL    HW2  723   0.515   0.057   0.268  2.2079  0.1432 -0.7989
  242SOL     OW  724   0.648   2.565   1.180  0.0460 -0.0420  0.2061
  242SOL    HW1  725   0.651   2.544   1.280 -2.3560  2.1652 -3.6943
  242SOL    HW2  726   0.600   2.654   1.154 -0.3174 -1.1253 -2.3001
  243SOL     OW  727   1.060   0.606   2.376  0.0310  0.2853 -0.0748
  243SOL    HW1  728   0.970   0.607   2.329  3.0767  1.1528  3.5261
  243SOL    HW2  729   1.050   0.570   2.471  2.7049  1.8524  2.5937
  244SOL     OW  730   2.674   1.958   2.352 -0.2825  0.3538  0.1906
  244SOL    HW1  731   2.723   1.928   2.264  0.5007 -2.1204 -1.4588
  244SOL    HW2  732   2.612   1.883   2.394  0.1657 -0.8075  1.2236
  245SOL     OW  733   2.149   1.011   2.209 -0.7444  0.0418  0.4165
  245SOL    HW1  734   2.237   0.965   2.237 -0.9704  0.2979  0.4368
  245SOL    HW2  735   2.115   1.089   2.272 -2.6344 -1.5727  0.7361
  246SOL     OW  736   0.302   2.840   1.801  0.6434 -0.1398  0.0382
  246SOL    HW1  737   0.216   2.831   1.743 -1.5228  1.4824 -0.1640
  246SOL    HW2  738   0.381   2.895   1.756 -0.7048 -0.0942 -1.1545
  247SOL     OW  739   2.234   0.585   3.009  0.0910 -0.2311 -0.2290
  247SOL    HW1  740   2.322   0.616   2.962  0.5120 -0.5857  0.2213
  247SOL    HW2  741   2.159   0.650   3.012  3.5898 -0.9756 -0.8083
  248SOL     OW  742   2.197   1.801   1.591 -0.2012 -0.1784 -0.0162
  248SOL    HW1  743   2.263   1.757   1.663 -2.1105 -0.5627 -1.1738
  248SOL    HW2  744   2.109   1.760   1.580  1.9085 -0.9777 -0.7879
  249SOL     OW  745   1.870   1.901   1.801  0.1233  0.3767 -0.4510
  249SOL    HW1  746   1.885   1.835   1.720  0.2269  0.2931 -0.6522
  249SOL    HW2  747   1.959   1.940   1.838 -0.4812 -0.0833 -1.1787
  250SOL     OW  748   0.952   0.725   1.886 -0.4559  0.2307 -0.1271
  250SOL    HW1  749   1.003   0.658   1.949 -0.2373 -0.5842 -3.4739
  250SOL    HW2  750   0.979   0.700   1.788  0.0542 -0.3783 -2.6480
  251SOL     OW  751   3.034   1.545   2.532 -0.3521 -0.0228  0.3081
  251SOL    HW1  752   3.010   1.640   2.498 -1.6426 -0.5640 -1.1731
  251SOL    HW2  753   2.957   1.477   2.507  0.3224  0.5975  1.0042
  252SOL     OW  754   1.567   0.858   1.578  0.4772 -0.2493 -0.2854
  252SOL    HW1  755   1.632   0.917   1.521  0.2466  0.2341  0.8634
  252SOL    HW2  756   1.523   0.906   1.659  1.2172  0.5238 -0.3893
  253SOL     OW  757   0.928   1.527   0.425 -0.3660  0.1662 -0.6384
  253SOL    HW1  758   0.892   1.514   0.327  1.0464 -1.8017 -0.1210
  253SOL    HW2  759   0.865   1.521   0.504  0.6646  1.7511  0.6940
  254SOL     OW  760   2.058   2.195   1.614  0.4495 -0.4004  0.6380
  254SOL    HW1  761   2.021   2.124   1.551  0.5448  0.3260  3.4979
  254SOL    HW2  762   1.981   2.253   1.661  1.5370 -0.4438  1.2774
  255SOL     OW  763   0.127   1.161   2.906 -0.4755  0.8222 -0.2813
  255SOL    HW1  764   0.151   1.261   2.907  1.3670 -2.0076  1.0751
  255SOL    HW2  765   0.198   1.090   2.934  0.3133 -2.5897  1.0740
  256SOL     OW  766   2.824   1.421   1.774  0.0705  0.1563 -0.2163
  256SOL    HW1  767   2.767   1.494   1.721 -5.6359  0.6156 -0.1976
  256SOL    HW2  768   2.801   1.325   1.747 -0.0926  1.7416  0.3595
  257SOL     OW  769   0.866   0.251   1.882  0.5775  0.3717 -0.0810
  257SOL    HW1  770   0.924   0.310   1.812  2.2157  0.0348  0.0682
  257SOL    HW2  771   0.892   0.153   1.875  4.8493 -2.4821  1.1009
  258SOL     OW  772   2.970   1.156   0.527  0.1062 -0.0450 -0.5975
  258SOL    HW1  773   2.882   1.179   0.577  0.7304 -1.4843  1.3392
  258SOL    HW2  774   3.039   1.222   0.556  0.3562  0.1787 -1.0196
  259SOL     OW  775   0.473   2.941   2.994 -0.0849 -0.2630  0.2564
  259SOL    HW1  776   0.389   2.908   3.046 -1.2280  0.0835  0.6469
  259SOL    HW2  777   0.499   2.890   2.910  2.5312  5.9565  0.0560
  260SOL     OW  778   2.725   0.754   2.740  0.5774  0.1251 -0.3574
  260SOL    HW1  779   2.633   0.801   2.719 -2.3449  1.5476 -1.3329
  260SOL    HW2  780   2.707   0.651   2.743 -1.6437 -2.0849 -1.8133
  261SOL     OW  781   2.695   1.300   1.311 -0.2177 -0.1361  0.3243
  261SOL    HW1  782   2.663   1.221   1.249 -2.1550 -0.3312  0.8792
  261SOL    HW2  783   2.792   1.273   1.350  1.1283 -1.4889  0.1493
  262SOL     OW  784   1.365   2.968   2.071 -0.6570 -0.4992 -0.3795
  262SOL    HW1  785   1.406   3.048   2.015  0.4649  0.0305 -1.7862
  262SOL    HW2  786   1.282   2.934   2.019  1.6012  1.3174 -1.0600
  263SOL     OW  787   0.809   0.636   2.287 -0.0200  0.2522  0.6649
  263SOL    HW1  788   0.737   0.572   2.239  0.1413 -0.4957  0.4779
  263SOL    HW2  789   0.828   0.721   2.236  0.8696 -0.2744  1.3652
  264SOL     OW  790   2.268   0.815   0.381  0.1876  0.4429  0.3480
  264SOL    HW1  791   2.272   0.741   0.310 -0.4733 -2.9891  2.7899
  264SOL    HW2  792   2.359   0.856   0.403 -0.1737 -0.1229  2.9335
  265SOL     OW  793   0.923   2.404   2.586  0.2371  0.2062 -0.2566
  265SOL    HW1  794   0.986   2.460   2.647 -0.0144 -1.2694 -2.8923
  265SOL    HW2  795   0.876   2.326   2.642 -2.4285 -2.2301  0.3184
  266SOL     OW  796   1.298   1.773   3.047  0.3146  0.2266  0.2106
  266SOL    HW1  797   1.262   1.827   3.127 -1.2175 -2.2966 -0.7168
  266SOL    HW2  798   1.395   1.743   3.057 -2.4062  2.0384 -0.4032
  267SOL     OW  799   1.060   0.048   2.328  0.4229 -0.1741  0.1049
  267SOL    HW1  800   0.962   0.076   2.305 -1.6260  1.1945 -0.1371
  267SOL    HW2  801   1.135   0.044   2.259  1.3722 -0.6516  2.9582
  268SOL     OW  802   0.845   1.252   1.041 -0.0288  0.2082 -0.0876
  268SOL    HW1  803   0.801   1.324   1.105  1.8273  0.7451  3.1798
  268SOL    HW2  804   0.924   1.284   0.986 -0.2302 -1.6592  0.9679
  269SOL     OW  805   2.371   2.536   1.595 -0.0443  0.3142 -0.7293
  269SOL    HW1  806   2.422   2.455   1.628  1.4624  1.0606 -1.8310
  269SOL    HW2  807   2.348   2.592   1.677 -0.7620  1.6447 -2.9135
  270SOL     OW  808   0.163   2.993   1.984  0.0581 -0.1692 -0.3200
  270SOL    HW1  809   0.222   2.959   1.908  2.3582  0.8848 -0.4378
  270SOL    HW2  810   0.084   2.926   2.011 -0.5708 -1.3014 -1.3456
  271SOL     OW  811   0.488   1.393   1.125 -0.2894  0.3129 -0.0614
  271SOL    HW1  812   0.521   1.318   1.058  1.5796 -2.1969 -0.2544
  271SOL    HW2  813   0.413   1.358   1.191  0.3160  1.2545 -0.4837
  272SOL     OW  814   1.908   3.097   1.924 -0.0938 -0.0362  0.2012
  272SOL    HW1  815   1.847   3.026   1.878  0.4964 -0.5850 -3.0549
  272SOL    HW2  816   1.893   3.194   1.890 -2.6281 -1.2644 -1.0948
  273SOL     OW  817   1.480   1.490   2.808 -0.7945 -0.1416  0.1330
  273SOL    HW1  818   1.386   1.466   2.769  0.1393 -2.0898 -0.2785
  273SOL    HW2  819   1.480   1.522   2.907 -1.6796  0.2877 -0.9466
  274SOL     OW  820   1.107   0.517   2.017  0.4349  0.2569  0.1384
  274SOL    HW1  821   1.049   0.443   2.053 -2.2582  0.3398  0.6140
  274SOL    HW2  822   1.163   0.568   2.085 -1.7530 -0.2640  0.4867
  275SOL     OW  823   0.648   2.139   1.896  0.1160 -0.3915  0.1028
  275SOL    HW1  824   0.631   2.239   1.909 -0.6307  0.2294  1.1432
  275SOL    HW2  825   0.577   2.080   1.941 -0.0641 -0.1486 -2.1334
  276SOL     OW  826   2.240   0.934   2.847 -0.3472 -0.0947  0.1062
  276SOL    HW1  827   2.165   0.969   2.787 -0.6411 -2.9567 -0.6818
  276SOL    HW2  828   2.203   0.870   2.916  1.8909 -1.7677 -1.3202
  277SOL     OW  829   3.082   0.776   0.270 -0.1059 -0.2750 -0.0478
  277SOL    HW1  830   3.170   0.828   0.249  0.4574 -0.2812 -0.6007
  277SOL    HW2  831   3.101   0.705   0.345  1.3432 -2.9159 -1.5408
  278SOL     OW  832   0.258   0.235   3.055  0.0330  0.1367 -0.5804
  278SOL    HW1  833   0.349   0.204   3.012  0.5417  1.1428  1.4067
  278SOL    HW2  834   0.264   0.337   3.083 -1.3797  2.5512 -1.8957
  279SOL     OW  835   0.260   0.011   0.882  0.3977 -0.8260 -0.1057
  279SOL    HW1  836   0.284  -0.015   0.977  1.4552 -2.5188  0.1913
  279SOL    HW2  837   0.256  -0.066   0.813 -0.7369 -0.0057  2.5592
  280SOL     OW  838   1.637   2.924   2.444  0.3306 -0.1602  0.2790
  280SOL    HW1  839   1.710   2.990   2.471 -0.9343 -1.9944 -2.9167
  280SOL    HW2  840   1.556   2.983   2.411 -0.7231  2.5022 -1.2040
  281SOL     OW  841   0.519   0.947   2.280  0.2366 -0.4622  0.4595
  281SOL    HW1  842   0.563   0.857   2.263 -1.5257  0.1999  1.4268
  281SOL    HW2  843   0.457   0.953   2.362  0.5724 -0.1985 -1.8633
  282SOL     OW  844   1.791   2.452   0.527  0.1974  0.0777  0.9351
  282SOL    HW1  845   1.754   2.387   0.455  2.1277 -2.3846 -3.3823
  282SOL    HW2  846   1.746   2.547   0.530 -1.4622  0.5848 -0.9332
  283SOL     OW  847   1.160   0.883   0.741  0.0168  0.4793  0.5062
  283SOL    HW1  848   1.199   0.866   0.835  0.5370 -0.4860 -0.2481
  283SOL    HW2  849   1.144   0.982   0.728  0.2956  0.4866  0.3156
  284SOL     OW  850   2.229   2.810   2.470 -0.1476 -0.3328 -0.4432
  284SOL    HW1  851   2.327   2.812   2.436  3.7969  1.9768  0.2701
  284SOL    HW2  852   2.209   2.811   2.572  0.0039 -0.6098 -0.0757
  285SOL     OW  853   1.325   3.079   2.611  0.1028 -0.5148  0.3478
  285SOL    HW1  854   1.351   3.053   2.512 -2.3909  0.9698 -1.3300
  285SOL    HW2  855   1.232   3.120   2.618 -0.5946 -2.0395  0.7820
  286SOL     OW  856   0.337   0.456   0.676 -0.7328 -0.4634 -0.9060
  286SOL    HW1  857   0.367   0.388   0.754  0.1215  0.5873 -0.5527
  286SOL    HW2  858   0.368   0.443   0.580 -0.2388  3.0554 -1.4412
  287SOL     OW  859   0.093   1.306   2.612  0.2759  0.4935 -0.3924
  287SOL    HW1  860   0.043   1.226   2.666 -0.5786 -2.2803 -0.7699
  287SOL    HW2  861   0.022   1.379   2.596  0.6381 -0.0819  0.2260
  288SOL     OW  862   1.524   2.745   1.663  0.2919 -0.0971  0.4117
  288SOL    HW1  863   1.565   2.688   1.735 -1.2351  1.9663  1.3510
  288SOL    HW2  864   1.553   2.709   1.568 -1.0082 -1.4844  0.1458
  289SOL     OW  865   0.637   2.767   0.820 -0.1159  0.6125 -0.3056
  289SOL    HW1  866   0.665   2.839   0.751  1.2960  0.6324  0.0734
  289SOL    HW2  867   0.587   2.810   0.900  0.8229 -4.9861 -0.3127
  290SOL     OW  868   2.826   1.159   1.722  0.0471 -0.3939 -0.6225
  290SOL    HW1  869   2.758   1.081   1.743  3.8034 -0.6216  1.6766
  290SOL    HW2  870   2.922   1.136   1.744 -1.4042  0.9745  1.7416
  291SOL     OW  871   1.944   3.071   0.045  0.4828  0.1680 -0.3858
  291SOL    HW1  872   1.944   3.136   0.125 -2.8603 -0.0492  0.8658
  291SOL    HW2  873   1.991   3.099  -0.040 -1.7390 -1.4903 -1.9740
  292SOL     OW  874   2.987   1.166   3.061  0.1267  0.1451 -0.2191
  292SOL    HW1  875   2.957   1.259   3.029  1.4940  0.5757  2.4935
  292SOL    HW2  876   3.086   1.139   3.025  0.3449  0.4915  0.1759
  293SOL     OW  877   0.585   2.068   0.294  0.2501  0.0284 -0.2304
  293SOL    HW1  878   0.556   2.142   0.360 -0.0012  0.3839 -0.6276
  293SOL    HW2  879   0.684   2.042   0.296 -1.0181  0.3677 -0.8417
  294SOL     OW  880   1.877   2.341   1.751 -0.0131 -0.0139 -0.3129
  294SOL    HW1  881   1.912   2.337   1.847  0.2711 -0.5588 -0.5515
  294SOL    HW2  882   1.873   2.440   1.720  0.5649  2.2098 -0.1975
  295SOL     OW  883   1.004   1.045   0.446 -1.1067  0.0828  0.4884
  295SOL    HW1  884   1.102   1.069   0.475 -1.1579  3.9074  0.7413
  295SOL    HW2  885   0.941   1.006   0.516  1.1234 -2.2520 -3.1519
  296SOL     OW  886   1.087   2.164   2.740 -0.0008  0.0616  0.2767
  296SOL    HW1  887   0.987   2.188   2.764 -2.1129  1.9924 -2.9049
  296SOL    HW2  888   1.105   2.154   2.640  1.0613  3.5727  0.5177
  297SOL     OW  889   1.273   0.530   1.165 -0.0486 -0.1383 -0.0829
  297SOL    HW1  890   1.316   0.510   1.257  0.6698 -1.1269  1.4784
  297SOL    HW2  891   1.307   0.620   1.133 -1.8630  2.3467 -1.4757
  298SOL     OW  892   0.490   1.320   2.916 -0.5829 -0.6741 -0.0424
  298SOL    HW1  893   0.455   1.264   2.993  0.6338  1.5317  0.7254
  298SOL    HW2  894   0.558   1.270   2.855 -0.0176 -0.1755 -0.2223
  299SOL     OW  895   0.440   0.204   1.262  0.1723 -0.3022 -0.0915
  299SOL    HW1  896   0.398   0.297   1.237 -0.6474 -0.9988 -0.7831
  299SOL    HW2  897   0.451   0.182   1.360 -0.0586  1.8214 -1.0538
  300SOL     OW  898   1.357   1.803   2.581  0.1400  0.3185  0.2243
  300SOL    HW1  899   1.342   1.725   2.520  2.7284  1.3864  1.9202
  300SOL    HW2  900   1.406   1.773   2.665 -0.1094  0.5779  0.4884
  301SOL     OW  901   0.408   0.363   0.436  0.3940 -0.2838 -0.4568
  301SOL    HW1  902   0.312   0.350   0.394 -0.5046 -0.1561 -0.7668
  301SOL    HW2  903   0.481   0.300   0.391  1.9556  1.2437  0.9560
  302SOL     OW  904   1.261   2.456   2.303  0.7479 -0.3984  0.1064
  302SOL    HW1  905   1.169   2.420   2.338 -1.1118 -0.8802  0.5629
  302SOL    HW2  906   1.326   2.377   2.285  1.6853 -0.2624  2.7456
  303SOL     OW  907   0.949   2.447   0.838 -0.6014  0.3260 -0.0651
  303SOL    HW1  908   1.017   2.451   0.760 -0.5217  1.5818  3.2269
  303SOL    HW2  909   0.966   2.515   0.917  2.1256 -0.0482 -1.2758
  304SOL     OW  910   0.146   1.922   0.671 -0.2670  0.1973  0.0310
  304SOL    HW1  911   0.234   1.904   0.612  0.5497  2.3836 -0.9469
  304SOL    HW2  912   0.070   1.963   0.621  2.8378  1.2238  0.7298
  305SOL     OW  913   1.613   0.870   0.687  0.6090  0.3658  0.1204
  305SOL    HW1  914   1.560   0.880   0.595 -0.5083  1.1234 -0.2888
  305SOL    HW2  915   1.676   0.790   0.666 -0.0481  2.4076 -0.1440
  306SOL     OW  916   0.398   1.847   1.959 -0.1402 -0.1959  0.0707
  306SOL    HW1  917   0.484   1.788   1.949 -0.2831  1.2534  0.7339
  306SOL    HW2  918   0.399   1.907   2.046  1.6803  0.4503  0.1585
  307SOL     OW  919   2.998   0.894   2.513  0.2416 -0.3803  0.4985
  307SOL    HW1  920   3.017   0.940   2.607 -0.1227  0.2711  1.3376
  307SOL    HW2  921   2.946   0.805   2.510 -0.4342 -1.3276  1.2340
  308SOL     OW  922   1.489   2.686   2.819 -1.0731  0.0636 -0.3406
  308SOL    HW1  923   1.480   2.677   2.713 -1.4078 -0.6125 -0.6121
  308SOL    HW2  924   1.434   2.613   2.868  2.5958  1.1044 -1.3651
  309SOL     OW  925   1.259   0.173   1.778 -0.3008  0.0580  0.2350
  309SOL    HW1  926   1.339   0.122   1.812 -1.3487 -0.6914  0.3042
  309SOL    HW2  927   1.232   0.144   1.685 -2.2305 -0.6995  1.5062
  310SOL     OW  928   1.477   2.550   0.676  0.1640 -0.9388  0.0155
  310SOL    HW1  929   1.452   2.594   0.767  1.5588 -0.8809 -3.9168
  310SOL    HW2  930   1.566   2.589   0.636  2.3994 -0.4410  0.0516
  311SOL     OW  931   1.042   0.968   1.754 -0.2859  0.0746  0.0912
  311SOL    HW1  932   0.994   0.890   1.800  1.6712 -0.2873 -0.1575
  311SOL    HW2  933   1.106   0.939   1.677 -2.2738 -0.6723  1.2363
  312SOL     OW  934   1.547   0.629   1.049 -0.0639 -0.3863 -0.1105
  312SOL    HW1  935   1.560   0.732   1.026 -3.6613  1.1004  1.5217
  312SOL    HW2  936   1.503   0.580   0.969 -1.3383  3.2686  0.3907
  313SOL     OW  937   1.620   1.234   0.765  0.1375  0.1201  0.4619
  313SOL    HW1  938   1.529   1.250   0.812 -0.6403 -0.6176  0.7464
  313SOL    HW2  939   1.616   1.201   0.663 -2.7337  2.5365  0.4664
  314SOL     OW  940   2.973   3.086   3.075  0.2252  0.3263 -0.1582
  314SOL    HW1  941   3.012   3.090   3.174  1.9912  0.1918 -0.4698
  314SOL    HW2  942   2.896   3.015   3.067  1.7655  0.4727  0.9907
  315SOL     OW  943   1.186   0.205   2.796  0.1148  0.0023  0.2962
  315SOL    HW1  944   1.137   0.175   2.711  1.4442 -1.0895  0.2256
  315SOL    HW2  945   1.170   0.145   2.881 -1.4799 -0.1893  0.1767
  316SOL     OW  946   1.744   2.082   0.882  0.6631  0.0169  0.1649
  316SOL    HW1  947   1.685   2.074   0.964 -0.4945 -3.4756  1.9336
  316SOL    HW2  948   1.755   2.182   0.852  1.7524 -1.1187 -1.6793
  317SOL     OW  949   1.170   0.701   2.769  0.0838  0.1949 -0.0932
  317SOL    HW1  950   1.105   0.715   2.849 -2.0492 -0.8997 -2.7065
  317SOL    HW2  951   1.142   0.624   2.708  0.3389  1.9248 -0.1960
  318SOL     OW  952   1.427   3.086   2.322 -0.5483  0.2173 -0.1070
  318SOL    HW1  953   1.482   3.170   2.300 -0.6621 -0.3521  2.9842
  318SOL    HW2  954   1.366   3.052   2.247  0.1826  1.1992  2.7711
  319SOL     OW  955   0.672   2.397   3.022 -0.3561  0.5080  0.1940
  319SOL    HW1  956   0.626   2.309   3.052 -1.5782 -1.4700  0.3868
  319SOL    HW2  957   0.737   2.379   2.942  0.9314 -0.2852 -0.6978
  320SOL     OW  958   1.678   2.225   0.402 -0.1971 -0.0274 -0.4823
  320SOL    HW1  959   1.767   2.165   0.416  2.0446 -0.1044  1.2403
  320SOL    HW2  960   1.593   2.172   0.372 -2.1242  2.1707 -0.3869
  321SOL     OW  961   1.674   2.713   0.563 -0.4937 -0.0644 -0.0440
  321SOL    HW1  962   1.579   2.749   0.555 -0.9590  1.2057  0.4481
  321SOL    HW2  963   1.752   2.771   0.520 -1.0063  0.6689 -1.1370
  322SOL     OW  964   2.571   1.138   2.318 -0.2758 -0.1123 -0.3581
  322SOL    HW1  965   2.644   1.101   2.385  2.3965  0.5051  2.9667
  322SOL    HW2  966   2.541   1.074   2.240  1.1680 -0.5510  0.9503
  323SOL     OW  967   1.147   2.690   0.795 -0.3819  1.0987 -0.1615
  323SOL    HW1  968   1.150   2.649   0.701  0.2028 -1.3725 -0.3529
  323SOL    HW2  969   1.141   2.792   0.811 -1.2975 -1.9509  0.4022
  324SOL     OW  970   0.156   2.538   2.427 -0.7310  0.1296 -0.4490
  324SOL    HW1  971   0.083   2.503   2.491  1.3411  2.1047  0.8428
  324SOL    HW2  972   0.171   2.640   2.441  1.2308  0.8808  0.9021
  325SOL     OW  973   1.251   3.079   0.452  0.3505 -0.0665  0.0610
  325SOL    HW1  974   1.254   3.130   0.361 -0.4686 -3.5129 -1.1118
  325SOL    HW2  975   1.278   3.139   0.531 -1.3553 -1.1808  1.2473
  326SOL     OW  976   2.489   0.862   0.013 -0.3375  0.4706  0.5645
  326SOL    HW1  977   2.416   0.841  -0.055  0.1339 -0.3726 -0.9090
  326SOL    HW2  978   2.546   0.778   0.047 -1.5094  0.3575  1.5234
  327SOL     OW  979   2.872   0.295   0.561  0.3689  0.2644  0.0512
  327SOL    HW1  980   2.865   0.262   0.463  0.0577 -0.5685 -3.0700
  327SOL    HW2  981   2.874   0.210   0.627 -0.4878 -3.5611 -0.8592
  328SOL     OW  982   2.584   0.628   0.392  0.2124 -0.6796 -0.4324
  328SOL    HW1  983   2.617   0.658   0.485  0.3597 -2.4024 -0.2255
  328SOL    HW2  984   2.521   0.545   0.399  0.7520 -1.3001  0.6797
  329SOL     OW  985   2.941   3.011   2.210  0.0833 -0.0219  0.8123
  329SOL    HW1  986   3.021   2.942   2.204  0.8308  0.5617  0.0076
  329SOL    HW2  987   2.980   3.109   2.209 -0.5962 -0.6524 -1.2190
  330SOL     OW  988   0.535   0.200   1.849  0.1313  0.4988  0.4091
  330SOL    HW1  989   0.625   0.241   1.828  0.1936  0.6615 -0.6815
  330SOL    HW2  990   0.524   0.192   1.952  0.7715  0.3606  3.7358
  331SOL     OW  991   3.071   1.865   1.134  0.4490 -0.0136 -0.2098
  331SOL    HW1  992   3.035   1.940   1.067  0.3486 -1.6050 -2.4594
  331SOL    HW2  993   3.007   1.861   1.216  0.3558 -0.2139 -1.0391
  332SOL     OW  994   0.373   1.191   0.053 -0.2192  0.0368 -0.2899
  332SOL    HW1  995   0.336   1.096   0.033  1.4868 -0.8394  1.2020
  332SOL    HW2  996   0.351   1.229   0.143  0.6891  1.3352 -0.3921
  333SOL     OW  997   2.891   0.958   0.363  0.3175  0.4496  0.0987
  333SOL    HW1  998   2.927   1.034   0.415 -0.7107  0.0383  2.0409
  333SOL    HW2  999   2.959   0.887   0.325  3.3998 -1.4435 -3.0975
  334SOL     OW 1000   1.745   1.144   1.722  0.2408 -0.2800  0.3602
  334SOL    HW1 1001   1.812   1.165   1.646 -3.3051  0.4926  1.3470
  334SOL    HW2 1002   1.781   1.163   1.818 -0.5941  3.0939 -1.1965
  335SOL     OW 1003   1.895   2.783   2.624  0.7610 -0.0443 -0.4769
  335SOL    HW1 1004   1.817   2.823   2.680  0.5083  2.3040 -0.3733
  335SOL    HW2 1005   1.986   2.832   2.647  0.0264  0.5670 -2.3677
  336SOL     OW 1006   0.279   0.045   2.735 -0.0726  0.5510  0.7345
  336SOL    HW1 1007   0.338   0.073   2.811 -0.1706 -3.6104  1.5351
  336SOL    HW2 1008   0.232  -0.045   2.754 -0.8702  1.5741 -2.4074
  337SOL     OW 1009   0.908   2.865   2.994  0.5326  0.3656  0.6379
  337SOL    HW1 1010   0.899   2.787   3.061  0.4096 -3.4888  2.7286
  337SOL    HW2 1011   0.968   2.940   3.032 -2.7386  0.3911 -0.8748
  338SOL     OW 1012   3.091   0.940   0.719  0.2723  0.2659  0.4237
  338SOL    HW1 1013   2.996   0.942   0.758  0.3542  0.4856 -0.2209
  338SOL    HW2 1014   3.120   1.039   0.691  0.1701  1.1463  2.6073
  339SOL     OW 1015   1.752   1.313   2.179  0.7279 -0.4311  0.4188
  339SOL    HW1 1016   1.659   1.332   2.131 -1.3354  2.8690  0.5065
  339SOL    HW2 1017   1.810   1.402   2.194  0.0670  3.0961 -0.8490
  340SOL     OW 1018   2.230   0.819   1.071  0.2478  0.3933 -0.3484
  340SOL    HW1 1019   2.147   0.848   1.127 -0.6362 -1.1443 -0.7408
  340SOL    HW2 1020   2.214   0.730   1.027  0.7681  3.6042  0.8823
  341SOL     OW 1021   1.930   2.107   0.397  0.0907 -0.1926  0.1232
  341SOL    HW1 1022   1.952   2.143   0.301  4.1123  1.9567 -1.5750
  341SOL    HW2 1023   1.993   2.026   0.419  0.8390  0.4116  1.3755
  342SOL     OW 1024   2.171   2.103   2.720 -0.0382  0.1341  0.1632
  342SOL    HW1 1025   2.217   2.027   2.773  0.5435  1.4686  1.6899
  342SOL    HW2 1026   2.063   2.090   2.715 -2.1015  0.2281 -0.3270
  343SOL     OW 1027   0.365   0.877   2.802 -0.6171  0.5933  0.8362
  343SOL    HW1 1028   0.363   0.924   2.710  2.4217 -0.8896  2.4285
  343SOL    HW2 1029   0.462   0.877   2.838 -0.9746  0.0925  0.5058
  344SOL     OW 1030   1.940   1.464   0.370  0.0060 -0.2186 -0.4829
  344SOL    HW1 1031   1.956   1.372   0.319 -2.2803  0.4882  0.4401
  344SOL    HW2 1032   1.854   1.463   0.427 -2.0331  1.9154 -2.4134
  345SOL     OW 1033   1.342   2.200   2.844 -0.4090  0.1020  0.1214
  345SOL    HW1 1034   1.247   2.168   2.824 -0.0500  2.0188  1.7154
  345SOL    HW2 1035   1.399   2.160   2.767  0.7316 -0.1903 -1.4382
  346SOL     OW 1036   2.295   0.848   1.397  0.3248 -0.4006  0.2611
  346SOL    HW1 1037   2.233   0.922   1.434 -2.0184  1.0415 -1.7886
  346SOL    HW2 1038   2.270   0.809   1.306 -1.8048 -4.1831  2.0244
  347SOL     OW 1039   0.728   2.768   1.661  0.1737 -0.2160  0.5823
  347SOL    HW1 1040   0.809   2.821   1.620  2.9160  0.3165 -0.3886
  347SOL    HW2 1041   0.638   2.799   1.625  2.5895 -0.1446  0.3333
  348SOL     OW 1042   0.181   0.676   2.913  0.0491 -0.3949 -0.5542
  348SOL    HW1 1043   0.094   0.722   2.884  0.0941 -1.4392  1.6402
  348SOL    HW2 1044   0.257   0.702   2.848 -0.7439 -1.7895 -1.7055
  349SOL     OW 1045   1.813   0.436   2.835 -0.6230  0.2026  0.3120
  349SOL    HW1 1046   1.784   0.527   2.786  0.1035  0.8209  0.0650
  349SOL    HW2 1047   1.783   0.432   2.934 -2.1396  1.4833  0.0214
  350SOL     OW 1048   1.682   0.389   0.363  0.0334  0.0701  0.0244
  350SOL    HW1 1049   1.735   0.392   0.450 -0.8084 -2.0771 -0.0534
  350SOL    HW2 1050   1.662   0.486   0.333 -1.9162 -2.4490 -0.9694
  351SOL     OW 1051   0.827   0.847   2.110  0.2747 -0.1623  0.4415
  351SOL    HW1 1052   0.860   0.942   2.114  0.5499  0.7567  2.2702
  351SOL    HW2 1053   0.876   0.800   2.030  1.1201 -0.1018  3.0093
  352SOL     OW 1054   2.065   1.321   0.593  0.2598 -0.0862  0.3489
  352SOL    HW1 1055   2.017   1.381   0.524 -0.8529 -2.0108 -0.5896
  352SOL    HW2 1056   1.990   1.274   0.654  0.0947 -0.7025  2.1961
  353SOL     OW 1057   2.218   2.737   1.102  0.1423 -0.6804  0.3656
  353SOL    HW1 1058   2.283   2.672   1.146  2.3125  3.5757 -3.6989
  353SOL    HW2 1059   2.143   2.773   1.162  1.9244 -1.7565  0.0686
  354SOL     OW 1060   0.219   1.436   2.892  0.5443 -0.4621 -0.1042
  354SOL    HW1 1061   0.190   1.514   2.829 -1.3779 -0.5243  0.7827
  354SOL    HW2 1062   0.313   1.402   2.871  0.3749 -1.9085 -0.6287
  355SOL     OW 1063   0.705   1.565   0.589  0.4021  0.6114 -0.1933
  355SOL    HW1 1064   0.718   1.493   0.661  2.4466  0.9650 -0.6624
  355SOL    HW2 1065   0.653   1.528   0.510 -0.5873  1.5978 -1.9200
  356SOL     OW 1066   0.927   0.293   2.136  0.2569  0.2197  0.3875
  356SOL    HW1 1067   1.007   0.231   2.134 -1.5545  0.7289 -0.2196
  356SOL    HW2 1068   0.886   0.299   2.040 -1.7823 -1.6217 -0.7150
  357SOL     OW 1069   0.993   1.376   0.182 -0.6781 -0.1541 -0.6682
  357SOL    HW1 1070   1.046   1.309   0.126  0.5561  0.2278 -1.4855
  357SOL    HW2 1071   1.048   1.437   0.247  2.7472  1.3647 -2.3462
  358SOL     OW 1072   1.700   1.454   0.501 -0.2607 -0.1701 -0.2029
  358SOL    HW1 1073   1.647   1.413   0.583 -1.0931 -1.4286  1.9987
  358SOL    HW2 1074   1.647   1.446   0.412 -1.8136  1.0161 -1.9106
  359SOL     OW 1075   1.590   2.591   0.217  0.1561  0.0488 -0.1833
  359SOL    HW1 1076   1.556   2.502   0.174  0.0679 -0.8231 -1.2879
  359SOL    HW2 1077   1.516   2.649   0.260 -0.2030 -0.4711 -1.3850
  360SOL     OW 1078   0.764   0.453   0.585 -0.3225  0.1814  0.1706
  360SOL    HW1 1079   0.664   0.481   0.556 -5.5450  0.9274 -0.0096
  360SOL    HW2 1080   0.799   0.381   0.518 -1.4306  0.1902 -0.2646
  361SOL     OW 1081   1.336   1.297   0.618  0.0081 -0.5062 -0.1379
  361SOL    HW1 1082   1.365   1.320   0.716  1.4364 -2.1631  1.7030
  361SOL    HW2 1083   1.266   1.364   0.584  1.2252 -2.6137  0.1590
  362SOL     OW 1084   1.374   1.825   0.692  0.3544  0.1633 -0.2251
  362SOL    HW1 1085   1.403   1.742   0.752  0.1130 -0.8653 -1.1009
  362SOL    HW2 1086   1.444   1.839   0.615 -0.3869  0.6574 -1.7819
  363SOL     OW 1087   1.301   1.330   2.040 -0.2550  0.5098 -0.7820
  363SOL    HW1 1088   1.392   1.370   2.010  0.4009 -1.3738  2.6908
  363SOL    HW2 1089   1.274   1.360   2.134 -1.1675 -1.9912 -1.3906
  364SOL     OW 1090   0.529   2.377   1.982 -0.3041  0.3016 -0.6258
  364SOL    HW1 1091   0.430   2.348   1.970  1.2436 -0.3901  0.1767
  364SOL    HW2 1092   0.554   2.453   1.915  1.2277 -0.6383  0.9224
  365SOL     OW 1093   0.925   1.976   1.411  0.4258 -0.1447  0.1156
  365SOL    HW1 1094   0.826   1.985   1.447  0.1566  2.9286 -0.6606
  365SOL    HW2 1095   0.941   2.005   1.313 -0.6536  1.2643  0.8249
  366SOL     OW 1096   2.764   1.946   0.230 -0.5197 -0.5096  0.1124
  366SOL    HW1 1097   2.702   1.867   0.216 -0.2343 -3.2150  0.7530
  366SOL    HW2 1098   2.865   1.921   0.215  1.6736 -0.4077 -1.0082
  367SOL     OW 1099   0.878   1.140   3.084  0.0851  0.0463 -0.3622
  367SOL    HW1 1100   0.888   1.067   3.154 -0.6803 -0.3201 -0.6958
  367SOL    HW2 1101   0.958   1.208   3.081  1.3562 -0.8415  0.3157
  368SOL     OW 1102   1.463   0.559   0.526 -0.2694 -0.0147 -0.6755
  368SOL    HW1 1103   1.362   0.568   0.510 -1.5701  0.9005 -0.2059
  368SOL    HW2 1104   1.524   0.555   0.446  0.3688 -0.7235  0.3699
  369SOL     OW 1105   0.404   1.565   0.165  0.3295  0.2738  0.1484
  369SOL    HW1 1106   0.462   1.636   0.217 -0.8331 -0.7299  0.3340
  369SOL    HW2 1107   0.312   1.548   0.212 -1.6735  1.0525  1.2879
  370SOL     OW 1108   0.409   2.182   1.082  0.6375  0.4192  0.4708
  370SOL    HW1 1109   0.429   2.274   1.039  0.9502  0.0478 -0.1786
  370SOL    HW2 1110   0.320   2.138   1.046  2.8949  0.8080 -0.5811
  371SOL     OW 1111   2.916   2.218   2.748 -0.5626 -0.1305 -0.1013
  371SOL    HW1 1112   2.969   2.127   2.744  2.0390 -1.9775 -1.4859
  371SOL    HW2 1113   2.944   2.278   2.830  0.5725 -1.6961  1.3665
  372SOL     OW 1114   1.012   2.050   1.155 -0.5294 -0.3636  0.6738
  372SOL    HW1 1115   0.952   2.076   1.077  1.3273 -1.1354 -0.2582
  372SOL    HW2 1116   1.084   2.125   1.175 -0.1582  0.3495 -0.8169
  373SOL     OW 1117   1.938   1.914   1.023  0.2736 -0.0697  0.0698
  373SOL    HW1 1118   2.025   1.960   1.058  1.0752  1.1348  0.6533
  373SOL    HW2 1119   1.880   1.990   0.975  1.0102 -0.8913 -1.0440
  374SOL     OW 1120   1.896   0.400   0.583  0.7598  0.0908 -0.0694
  374SOL    HW1 1121   1.857   0.315   0.636 -1.2666 -2.3832  0.8332
  374SOL    HW2 1122   1.989   0.391   0.538 -1.5335 -0.1382  0.7089
  375SOL     OW 1123   2.430   2.178   1.108 -0.1158 -0.1178  0.2674
  375SOL    HW1 1124   2.438   2.241   1.026 -0.5244 -0.6038  0.1808
  375SOL    HW2 1125   2.523   2.174   1.164  0.3645 -0.1530 -0.4613
  376SOL     OW 1126   0.014   0.645   1.415  0.4999 -0.3362  0.2000
  376SOL    HW1 1127  -0.024   0.727   1.470 -1.0644  2.6407  0.4137
  376SOL    HW2 1128  -0.028   0.554   1.458 -2.9152 -0.5036  0.2666
  377SOL     OW 1129   2.180   2.916   0.220  0.6826 -0.0639 -0.1415
  377SOL    HW1 1130   2.170   2.987   0.293 -3.4013  0.1528 -0.3988
  377SOL    HW2 1131   2.242   2.833   0.247  0.0943 -1.7174  1.1812
  378SOL     OW 1132   1.887   1.905   2.440  0.6514 -0.2406  0.9835
  378SOL    HW1 1133   1.934   1.919   2.351 -0.5146 -0.2081 -0.2936
  378SOL    HW2 1134   1.868   1.806   2.454  0.0550  1.1546  3.4338
  379SOL     OW 1135   0.768   0.151   2.837 -0.0778  0.7180 -0.4920
  379SOL    HW1 1136   0.806   0.061   2.797  0.7067 -1.3659  0.7847
  379SOL    HW2 1137   0.765   0.219   2.759  0.6903 -0.4426  3.2026
  380SOL     OW 1138   1.568   1.176   0.512 -0.3065 -0.0399 -0.2293
  380SOL    HW1 1139   1.495   1.242   0.537  0.1676 -1.1092 -2.1013
  380SOL    HW2 1140   1.532   1.083   0.471  1.7572 -0.5201  0.8149
  381SOL     OW 1141   1.279   1.252   1.521 -0.3511  1.0563  0.0085
  381SOL    HW1 1142   1.321   1.208   1.433  0.1566  0.4392 -1.9513
  381SOL    HW2 1143   1.356   1.270   1.587  0.5605 -1.8577  0.8757
  382SOL     OW 1144   1.821   0.837   0.258 -0.3807 -0.3705 -0.2466
  382SOL    HW1 1145   1.853   0.784   0.175  0.7190 -1.6059  1.1975
  382SOL    HW2 1146   1.900   0.849   0.321 -1.6884  0.0688 -0.9541
  383SOL     OW 1147   2.563   0.992   1.455  0.1557 -0.4724 -0.4497
  383SOL    HW1 1148   2.463   0.955   1.439  0.9222  0.1775  1.9636
  383SOL    HW2 1149   2.620   0.986   1.371 -0.5933 -1.4751  3.0814
  384SOL     OW 1150   0.896   2.313   0.217  0.5235 -0.3994  0.5920
  384SOL    HW1 1151   0.831   2.397   0.230 -1.2122  0.7628  1.1615
  384SOL    HW2 1152   0.909   2.256   0.301  1.2815  0.8009  2.4231
  385SOL     OW 1153   2.976   2.080   1.670  0.1617 -0.4392 -0.2208
  385SOL    HW1 1154   3.056   2.137   1.694 -1.2117 -2.2197 -0.1326
  385SOL    HW2 1155   3.000   1.979   1.685  1.1743  1.0389  2.0649
  386SOL     OW 1156   0.460   1.021   0.445  0.4447  0.3719 -0.0695
  386SOL    HW1 1157   0.460   0.925   0.493 -0.3625 -1.1867  0.0227
  386SOL    HW2 1158   0.376   1.073   0.439  1.2969 -1.9548  0.6095
  387SOL     OW 1159   1.014   0.359   1.682 -0.3312 -0.3776 -0.0724
  387SOL    HW1 1160   1.082   0.434   1.672 -0.4801  0.5959 -0.0365
  387SOL    HW2 1161   0.992   0.323   1.587  0.1584 -1.6809 -0.0864
  388SOL     OW 1162   1.196   2.684   1.737  0.2756  0.2674  0.0264
  388SOL    HW1 1163   1.236   2.734   1.656  2.5288  1.3430 -0.0534
  388SOL    HW2 1164   1.262   2.621   1.790  1.2667 -2.1766 -0.5111
  389SOL     OW 1165   0.168   2.913   1.358  0.0785 -0.2699 -0.0863
  389SOL    HW1 1166   0.067   2.909   1.337 -1.4827  0.4909  0.0267
  389SOL    HW2 1167   0.220   2.835   1.312 -1.4589 -1.1725 -0.3361
  390SOL     OW 1168   1.030   0.948   1.380 -0.1970  0.5918 -0.7205
  390SOL    HW1 1169   1.107   0.927   1.447  0.9005  0.0910  0.4881
  390SOL    HW2 1170   1.028   1.050   1.359 -0.9496  0.6363  2.3443
  391SOL     OW 1171   2.183   1.134   1.078  0.2892 -0.4661  0.2335
  391SOL    HW1 1172   2.129   1.072   1.138  1.0651 -2.4140  2.9570
  391SOL    HW2 1173   2.191   1.098   0.980  0.5773 -4.5142  1.9211
  392SOL     OW 1174   0.896   2.643   0.059 -0.2298 -0.1722  0.7213
  392SOL    HW1 1175   0.970   2.584   0.019 -2.3510  1.2172  1.0983
  392SOL    HW2 1176   0.820   2.592   0.114 -3.2985  0.8160  1.0365
  393SOL     OW 1177   0.281   0.637   2.013 -0.0078  0.5837 -0.6902
  393SOL    HW1 1178   0.196   0.580   2.034 -0.4011 -2.2023 -0.6071
  393SOL    HW2 1179   0.331   0.610   1.928  1.2791  2.2454  1.1110
  394SOL     OW 1180   3.023   1.969   2.735  0.3584  0.1017 -0.5964
  394SOL    HW1 1181   3.124   1.967   2.754  0.5032  0.4699  0.7419
  394SOL    HW2 1182   2.992   1.905   2.654  0.9810 -0.4257 -0.2509
  395SOL     OW 1183   1.621   1.941   0.564 -0.0826 -0.1338  0.6234
  395SOL    HW1 1184   1.680   1.857   0.553  0.0102  0.5934  2.1174
  395SOL    HW2 1185   1.663   2.011   0.626  0.7536  0.8479 -0.1701
  396SOL     OW 1186   2.834   1.842   1.296  0.0673  0.1880 -0.0337
  396SOL    HW1 1187   2.868   1.743   1.280 -0.8620 -0.0910  1.5146
  396SOL    HW2 1188   2.753   1.849   1.357 -1.2780 -1.1828 -1.6608
  397SOL     OW 1189   1.014   2.211   0.513  0.0836  0.0704 -0.0537
  397SOL    HW1 1190   0.910   2.201   0.507 -1.0691 -2.1610 -0.7173
  397SOL    HW2 1191   1.052   2.304   0.540  0.4799  0.1972  0.0038
  398SOL     OW 1192   2.122   3.097   1.093  0.2477 -0.4028  0.1955
  398SOL    HW1 1193   2.040   3.047   1.133 -0.9053 -2.7277 -1.5709
  398SOL    HW2 1194   2.107   3.200   1.081 -1.4456 -1.1500 -1.9939
  399SOL     OW 1195   3.041   2.474   2.599  0.3244 -0.3995  0.9711
  399SOL    HW1 1196   2.942   2.448   2.576 -1.7026  0.9078  0.6629
  399SOL    HW2 1197   3.097   2.395   2.638 -1.9113  0.5884  0.5556
  400SOL     OW 1198   0.725   1.665   1.376 -0.7040 -0.5801 -0.5114
  400SOL    HW1 1199   0.673   1.682   1.466  0.7407  1.7263  3.1139
  400SOL    HW2 1200   0.724   1.749   1.318 -0.6054 -0.0655  1.6176
  401SOL     OW 1201   1.880   0.237   1.155 -0.6918  0.3461  0.5248
  401SOL    HW1 1202   1.906   0.242   1.255  0.4266  0.5814 -3.4601
  401SOL    HW2 1203   1.796   0.293   1.136  0.7462 -0.1043 -1.8834
  402SOL     OW 1204   1.350   0.229   3.085  0.0815  0.3198  0.4935
  402SOL    HW1 1205   1.430   0.208   3.022 -0.8789  1.5413 -2.5950
  402SOL    HW2 1206   1.294   0.307   3.045  1.3213  1.4343 -0.2658
  403SOL     OW 1207   2.292   1.809   0.910 -0.4453  0.4433 -0.0944
  403SOL    HW1 1208   2.374   1.850   0.852  0.3808  2.0189  0.6907
  403SOL    HW2 1209   2.263   1.879   0.984  2.1516 -1.4406 -1.4192
  404SOL     OW 1210   0.197   2.470   2.764 -0.2612  0.2539 -0.3779
  404SOL    HW1 1211   0.298   2.440   2.760 -0.8735  1.1706  0.4712
  404SOL    HW2 1212   0.200   2.573   2.772  3.0149 -0.5699 -0.9455
  405SOL     OW 1213   0.082   2.472   0.743  0.4453 -0.3343  0.1624
  405SOL    HW1 1214   0.107   2.395   0.684 -1.6423  0.4140  1.8261
  405SOL    HW2 1215   0.163   2.530   0.752  1.1883 -4.9337 -0.9548
  406SOL     OW 1216   0.044   1.580   3.086  0.0919  0.2573  0.2382
  406SOL    HW1 1217   0.109   1.536   3.016 -0.8130 -1.1462  0.5990
  406SOL    HW2 1218   0.066   1.556   3.183  1.9789  0.6716 -0.6646
  407SOL     OW 1219   1.555   0.885   0.963  0.1412 -0.7647 -0.3900
  407SOL    HW1 1220   1.584   0.890   0.861  3.8585  2.2828  1.0759
  407SOL    HW2 1221   1.505   0.966   0.998 -1.2288  0.8472 -0.2030
  408SOL     OW 1222   1.587   2.413   0.987  0.1566 -0.4297  0.1551
  408SOL    HW1 1223   1.647   2.396   0.903 -1.2891 -0.8667  0.2023
  408SOL    HW2 1224   1.549   2.509   0.990 -1.1317  1.3840 -1.3908
  409SOL     OW 1225   0.653   0.774   0.772 -0.3066  0.9462  0.0610
  409SOL    HW1 1226   0.581   0.782   0.695  0.3663 -0.3194 -2.3284
  409SOL    HW2 1227   0.660   0.676   0.799  0.2938 -0.0025  0.3257
  410SOL     OW 1228   1.248   2.032   1.415  0.1668 -0.1618 -0.4945
  410SOL    HW1 1229   1.321   1.959   1.411 -0.4897 -3.1510 -3.9143
  410SOL    HW2 1230   1.154   1.985   1.413  1.1695  0.9523  3.4771
  411SOL     OW 1231   2.554   1.835   3.015 -1.1171 -0.2983  0.3853
  411SOL    HW1 1232   2.591   1.930   3.043  1.3070  0.1169 -1.1238
  411SOL    HW2 1233   2.490   1.836   2.933  0.7715 -0.7915 -0.7745
  412SOL     OW 1234   1.502   2.459   2.143 -0.4702 -0.1023  0.0959
  412SOL    HW1 1235   1.582   2.472   2.207 -1.8164  0.8575  2.2503
  412SOL    HW2 1236   1.420   2.496   2.193  0.1038 -0.7457  0.3619
  413SOL     OW 1237   0.006   0.187   2.937 -0.3400 -0.0727  0.4870
  413SOL    HW1 1238  -0.055   0.112   2.980 -1.7056 -0.4762 -1.0877
  413SOL    HW2 1239   0.101   0.201   2.984 -0.1764 -0.9628  0.2650
  414SOL     OW 1240   1.787   1.500   1.200 -0.7226 -0.0303  0.3464
  414SOL    HW1 1241   1.792   1.601   1.227 -2.8813 -0.4163  0.1130
  414SOL    HW2 1242   1.784   1.483   1.098  1.4015 -2.8484 -0.7084
  415SOL     OW 1243   0.337   2.233   0.690 -0.0451 -0.4424 -0.1413
  415SOL    HW1 1244   0.328   2.246   0.788 -0.0658 -1.2346 -3.4225
  415SOL    HW2 1245   0.254   2.202   0.635 -0.4578  2.9185  1.0216
  416SOL     OW 1246   0.348   1.048   1.057 -0.2021 -0.2206 -0.2727
  416SOL    HW1 1247   0.315   0.977   0.985 -3.9256  0.8841 -1.6722
  416SOL    HW2 1248   0.452   1.055   1.059 -0.2813 -0.3718 -1.9228
  417SOL     OW 1249   2.299   2.409   2.049  0.3687  1.0107  0.0602
  417SOL    HW1 1250   2.351   2.319   2.027 -1.2646 -1.4893  2.4536
  417SOL    HW2 1251   2.272   2.409   2.147  1.1607 -1.4704 -0.8085
  418SOL     OW 1252   1.064   0.522   1.347  0.0631 -0.9327 -0.5578
  418SOL    HW1 1253   0.980   0.464   1.332  0.5457  0.9521  2.1456
  418SOL    HW2 1254   1.129   0.519   1.270 -1.4084  2.5562  3.0791
  419SOL     OW 1255   0.933   0.525   2.963  0.0759 -0.2031 -0.1482
  419SOL    HW1 1256   0.881   0.537   2.875 -0.7175  0.9491 -2.1417
  419SOL    HW2 1257   0.915   0.610   3.028 -1.3679 -0.7653  5.9118
  420SOL     OW 1258   0.117   2.205   0.540  0.4095 -0.0180 -0.5552
  420SOL    HW1 1259   0.126   2.210   0.438 -0.5750  0.3104  1.7586
  420SOL    HW2 1260   0.033   2.147   0.563  0.9404 -1.5536 -4.6922
  421SOL     OW 1261   0.338   2.947   0.596 -0.2940 -0.3462 -0.1231
  421SOL    HW1 1262   0.302   2.901   0.683 -1.8840 -0.7012  0.4293
  421SOL    HW2 1263   0.399   3.029   0.616  1.5522 -2.6962  1.4596
  422SOL     OW 1264   0.990   2.622   1.034  0.4060 -0.3259 -0.0967
  422SOL    HW1 1265   1.034   2.660   0.948 -0.5953  1.9814 -0.2640
  422SOL    HW2 1266   1.054   2.624   1.119 -2.6007 -1.3344 -1.2189
  423SOL     OW 1267   0.145   0.758   1.195 -0.6364  0.1102  0.7229
  423SOL    HW1 1268   0.090   0.697   1.256 -2.2404  0.9278 -2.6403
  423SOL    HW2 1269   0.097   0.848   1.179  2.0990 -2.3755  0.2595
  424SOL     OW 1270   1.165   2.201   2.032  0.3383  0.7838  0.3566
  424SOL    HW1 1271   1.134   2.302   2.026 -0.8204 -0.1662 -2.1116
  424SOL    HW2 1272   1.153   2.167   2.131 -0.7592 -0.9753 -0.8465
  425SOL     OW 1273   2.000   1.308   0.997  0.2911 -0.1552 -0.2143
  425SOL    HW1 1274   2.086   1.262   1.030  0.7706 -1.5625 -2.0684
  425SOL    HW2 1275   2.025   1.402   0.957  1.7283  1.8902 -0.7088
  426SOL     OW 1276   1.424   1.614   1.241  0.0861  0.2569 -0.5623
  426SOL    HW1 1277   1.460   1.692   1.186  2.5067 -3.4223  0.8393
  426SOL    HW2 1278   1.373   1.645   1.327 -3.0959 -0.1650  1.8863
  427SOL     OW 1279   1.905   2.339   2.052  0.3675  0.2798  0.5572
  427SOL    HW1 1280   1.948   2.284   2.127  0.2360  1.7064 -3.5753
  427SOL    HW2 1281   1.902   2.444   2.072  1.6353  1.3798  3.0340
  428SOL     OW 1282   0.856   3.093   0.104 -0.0827  0.5344 -0.1241
  428SOL    HW1 1283   0.880   3.176   0.045  2.4784  0.7495 -1.2710
  428SOL    HW2 1284   0.932   3.021   0.126  1.0753  2.0945 -1.1560
  429SOL     OW 1285   1.316   0.143   0.238 -0.0068  0.2639  0.0604
  429SOL    HW1 1286   1.409   0.118   0.280  1.0445 -0.7062 -0.8893
  429SOL    HW2 1287   1.331   0.189   0.149 -2.1732  2.7936  0.3318
  430SOL     OW 1288   2.912   1.390   0.299 -0.0478 -0.1390 -0.1434
  430SOL    HW1 1289   2.875   1.459   0.221  0.6662  1.8866  1.5216
  430SOL    HW2 1290   2.916   1.447   0.390  3.3465  2.0030  2.9598
  431SOL     OW 1291   2.056   1.603   0.938 -0.2941  0.0353 -0.5673
  431SOL    HW1 1292   2.139   1.662   0.944 -0.1455 -0.7396 -0.9492
  431SOL    HW2 1293   1.969   1.653   0.904 -1.6093  1.1223  0.2331
  432SOL     OW 1294   2.946   2.148   1.201  0.0582 -0.0931  0.6497
  432SOL    HW1 1295   2.910   2.091   1.281 -1.6528  1.2265  0.1388
  432SOL    HW2 1296   2.990   2.240   1.226  1.6064  1.0271 -0.5007
  433SOL     OW 1297   1.841   0.232   0.810 -0.1786 -0.6754 -0.4297
  433SOL    HW1 1298   1.808   0.329   0.840  1.4960 -2.7583 -2.1348
  433SOL    HW2 1299   1.862   0.171   0.891 -0.7177 -4.2076 -1.3157
  434SOL     OW 1300   1.600   0.337   0.674  0.1127 -0.0527 -0.2029
  434SOL    HW1 1301   1.556   0.423   0.633  2.0918 -1.3443  2.0353
  434SOL    HW2 1302   1.617   0.356   0.774 -0.3257 -1.6480  0.5016
  435SOL     OW 1303   1.568   1.441   2.031  0.0190 -0.2888 -0.2314
  435SOL    HW1 1304   1.533   1.475   2.122  2.3754  0.8037 -0.9522
  435SOL    HW2 1305   1.585   1.522   1.963  2.5565 -0.4253  2.6501
  436SOL     OW 1306   1.705   2.736   2.227  0.0273 -0.4537  0.0868
  436SOL    HW1 1307   1.681   2.813   2.295 -2.6616  0.6522 -0.8187
  436SOL    HW2 1308   1.708   2.646   2.274 -1.9217  2.8195 -2.0254
  437SOL     OW 1309   1.090   2.940   0.930  0.1525 -0.8714 -0.6963
  437SOL    HW1 1310   1.031   3.023   0.919 -0.4840  0.2697  0.6785
  437SOL    HW2 1311   1.095   2.904   1.029 -0.8786 -2.4713  0.4292
  438SOL     OW 1312   1.010   2.671   1.384  0.4280  0.4986  0.9036
  438SOL    HW1 1313   1.111   2.671   1.393  1.1105 -2.2038 -2.3773
  438SOL    HW2 1314   0.974   2.576   1.369  3.5627  1.7667  4.6891
  439SOL     OW 1315   0.676   1.827   1.074 -0.1172  0.2201 -0.5314
  439SOL    HW1 1316   0.657   1.929   1.052  1.4380  1.6648  2.2882
  439SOL    HW2 1317   0.590   1.770   1.101 -2.7984  0.0565 -2.9322
  440SOL     OW 1318   1.095   2.458   1.978  0.1796  0.1557 -0.1200
  440SOL    HW1 1319   1.026   2.491   1.904  0.6375  0.5885 -0.0980
  440SOL    HW2 1320   1.195   2.481   1.951  0.8237  0.0396  0.2352
  441SOL     OW 1321   0.409   2.704   1.531  0.1442 -0.3483  0.0758
  441SOL    HW1 1322   0.501   2.653   1.507 -0.0363 -0.4955 -2.3760
  441SOL    HW2 1323   0.347   2.702   1.449 -0.7854  0.3386  2.4679
  442SOL     OW 1324   2.239   0.732   2.506  0.4939 -0.3755  0.6601
  442SOL    HW1 1325   2.229   0.633   2.539  2.2410 -2.5401 -0.2940
  442SOL    HW2 1326   2.155   0.793   2.525 -0.9047  1.1311  0.9484
  443SOL     OW 1327   1.188   2.685   2.189 -0.2178  0.2381  0.0617
  443SOL    HW1 1328   1.245   2.752   2.247  0.8972 -0.2871  3.0955
  443SOL    HW2 1329   1.200   2.586   2.221  0.6643  0.7872  0.8757
  444SOL     OW 1330   1.011   1.323   1.587 -0.6607 -0.1924  0.2270
  444SOL    HW1 1331   1.112   1.301   1.573 -0.4666  0.0550  2.6655
  444SOL    HW2 1332   0.987   1.425   1.594 -1.1260 -1.1074  1.3928
  445SOL     OW 1333   3.067   2.369   1.973 -0.2410  0.4387  0.5180
  445SOL    HW1 1334   3.073   2.457   1.918  1.5950 -0.1889 -1.8014
  445SOL    HW2 1335   2.969   2.345   1.998 -0.3364 -2.0937  1.1920
  446SOL     OW 1336   0.192   1.914   2.345  0.8184 -0.0120  0.1603
  446SOL    HW1 1337   0.158   2.011   2.341 -0.8935 -1.4212  1.5873
  446SOL    HW2 1338   0.117   1.853   2.299 -0.5274  0.6730 -0.2017
  447SOL     OW 1339   1.197   1.698   1.962 -0.4134 -0.5582 -0.4207
  447SOL    HW1 1340   1.149   1.784   1.924 -0.4068 -1.7861 -0.7533
  447SOL    HW2 1341   1.296   1.721   1.977  0.5452 -0.0825 -0.2565
  448SOL     OW 1342   0.093   1.467   1.965 -0.3376  0.6784 -0.0233
  448SOL    HW1 1343   0.086   1.571   1.960 -1.4236 -2.2171 -1.3241
  448SOL    HW2 1344   0.142   1.441   2.049 -0.4524  0.3517  0.3437
  449SOL     OW 1345   1.995   2.995   0.855 -0.2082 -0.1018 -0.1014
  449SOL    HW1 1346   2.057   3.013   0.941  0.4854 -1.3109 -0.8498
  449SOL    HW2 1347   1.988   2.895   0.827  0.9902  1.3638  2.2749
  450SOL     OW 1348   2.268   1.364   0.842  0.4307  0.4381  0.7967
  450SOL    HW1 1349   2.227   1.271   0.855 -1.5626  1.5815 -1.7930
  450SOL    HW2 1350   2.204   1.429   0.792 -0.8959 -2.9435  2.4599
  451SOL     OW 1351   1.440   0.029   1.461 -0.2651  0.0578 -0.3039
  451SOL    HW1 1352   1.363   0.101   1.461  0.6153  0.6656  0.7834
  451SOL    HW2 1353   1.452  -0.018   1.555  1.0973  0.0775  0.7170
  452SOL     OW 1354   2.660   2.318   2.247  0.1644 -0.1730  0.2670
  452SOL    HW1 1355   2.644   2.421   2.270  0.2521 -2.0235 -2.4262
  452SOL    HW2 1356   2.693   2.260   2.328  0.3985  1.4794  2.4005
  453SOL     OW 1357   2.434   2.614   3.057  0.2230 -0.1161  0.0999
  453SOL    HW1 1358   2.345   2.663   3.080 -0.2412  0.0402  0.3032
  453SOL    HW2 1359   2.421   2.564   2.966 -1.9980  2.6421  0.3074
  454SOL     OW 1360   0.962   1.114   2.100 -0.7301 -0.2233 -0.4255
  454SOL    HW1 1361   0.939   1.165   2.009 -0.2137 -0.0698  0.4988
  454SOL    HW2 1362   1.064   1.111   2.128 -1.9482  0.3682 -1.2148
  455SOL     OW 1363   0.731   2.651   2.888 -0.4439 -0.7578  0.5071
  455SOL    HW1 1364   0.803   2.717   2.924  0.6351  1.5138  2.0318
  455SOL    HW2 1365   0.696   2.582   2.959  0.0088 -1.0576 -1.2249
  456SOL     OW 1366   0.543   1.781   0.278  0.1134 -0.2430 -0.7249
  456SOL    HW1 1367   0.587   1.737   0.364  2.0633 -0.8964  2.6574
  456SOL    HW2 1368   0.552   1.883   0.270  1.1902 -0.0687  0.9088
  457SOL     OW 1369   0.315   2.602   0.738 -0.2010 -0.3662 -0.6988
  457SOL    HW1 1370   0.326   2.603   0.637 -0.0971  1.6277 -1.1173
  457SOL    HW2 1371   0.400   2.559   0.783  1.3789 -0.3861  1.2656
  458SOL     OW 1372   2.971   3.000   1.260 -0.1560 -0.6221 -0.3101
  458SOL    HW1 1373   3.030   3.085   1.260  3.0469 -0.3180 -1.8931
  458SOL    HW2 1374   2.907   3.001   1.180 -0.6164 -1.4987 -0.0840
  459SOL     OW 1375   2.095   2.520   0.918 -0.2334 -0.3241  0.1382
  459SOL    HW1 1376   2.120   2.592   0.989  1.4087 -0.2820 -0.5124
  459SOL    HW2 1377   2.176   2.502   0.859  0.2807 -0.3752 -1.7858
  460SOL     OW 1378   1.088   1.928   2.918 -0.7151 -0.0873 -0.4469
  460SOL    HW1 1379   1.108   2.027   2.912  0.5814 -0.9225 -2.8520
  460SOL    HW2 1380   1.162   1.871   2.962 -0.6928 -0.3485  1.9695
  461SOL     OW 1381   0.486   2.110   2.706  0.5917  0.2185  0.1956
  461SOL    HW1 1382   0.444   2.039   2.646 -1.2148  1.1862  2.8513
  461SOL    HW2 1383   0.533   2.066   2.787  1.6147 -0.5502 -2.0608
  462SOL     OW 1384   0.939   1.206   1.854  0.1383 -0.1112 -0.0812
  462SOL    HW1 1385   0.975   1.115   1.810  0.2688 -3.6794 -0.2234
  462SOL    HW2 1386   0.932   1.282   1.777 -1.3180 -1.1371  1.0061
  463SOL     OW 1387   0.463   0.797   0.586  0.1667  0.4402 -0.7453
  463SOL    HW1 1388   0.498   0.723   0.522 -1.1636 -0.6365  0.0186
  463SOL    HW2 1389   0.360   0.798   0.606 -1.7469 -1.3004  2.2017
  464SOL     OW 1390   0.513   2.232   2.248 -0.3262  0.1711 -0.9135
  464SOL    HW1 1391   0.484   2.284   2.332  0.3136 -1.0217 -0.1871
  464SOL    HW2 1392   0.520   2.297   2.169 -0.9940  1.0929  2.6483
  465SOL     OW 1393   0.228   0.877   0.870  0.2684  0.3722  0.7016
  465SOL    HW1 1394   0.142   0.895   0.817 -0.2312 -0.5267 -0.3049
  465SOL    HW2 1395   0.239   0.776   0.881 -0.2131 -1.2080 -0.6168
  466SOL     OW 1396   1.377   1.105   1.072 -0.2045 -0.3751 -0.4209
  466SOL    HW1 1397   1.452   1.177   1.066  1.9259 -0.8896 -1.5135
  466SOL    HW2 1398   1.283   1.151   1.061  0.6534 -0.5014  0.0293
  467SOL     OW 1399   0.456   0.368   2.371 -0.0147  0.3235  0.1670
  467SOL    HW1 1400   0.440   0.455   2.421 -1.0995 -0.6371  1.3657
  467SOL    HW2 1401   0.453   0.284   2.436 -0.0626 -0.4066  1.4996
  468SOL     OW 1402   0.474   2.249   1.673  0.2267 -0.1989  0.3465
  468SOL    HW1 1403   0.538   2.300   1.733 -0.4079 -0.7116  1.3977
  468SOL    HW2 1404   0.453   2.293   1.580 -1.0244 -0.6086 -0.3630
  469SOL     OW 1405   1.545   1.325   1.123 -0.0031 -0.4286 -0.1393
  469SOL    HW1 1406   1.632   1.270   1.098  1.3281  1.3106  1.6502
  469SOL    HW2 1407   1.569   1.392   1.195  1.7970 -2.3847  1.0593
  470SOL     OW 1408   3.023   1.669   0.726  0.1861 -0.2163  0.1360
  470SOL    HW1 1409   3.111   1.700   0.773  1.9447  1.9271  1.6860
  470SOL    HW2 1410   2.940   1.689   0.793 -1.3131 -1.1669  2.4792
  471SOL     OW 1411   2.693   1.306   2.119  0.2700 -0.2646 -0.0151
  471SOL    HW1 1412   2.643   1.257   2.193 -1.2094  0.0873 -1.8482
  471SOL    HW2 1413   2.744   1.392   2.151 -0.9823 -0.2923 -0.1319
  472SOL     OW 1414   1.099   2.467   3.086  0.3016 -0.1065  0.1278
  472SOL    HW1 1415   1.166   2.454   3.165 -0.4676  1.0554  0.4723
  472SOL    HW2 1416   1.041   2.380   3.067 -0.1782 -1.2815  0.0347
  473SOL     OW 1417   1.090   1.575   0.900  0.0745  0.1035 -0.4579
  473SOL    HW1 1418   0.998   1.609   0.945 -0.2447  1.4833  1.8068
  473SOL    HW2 1419   1.161   1.551   0.969 -0.9987 -2.1542  0.4484
  474SOL     OW 1420   0.831   1.198   0.725 -0.1446 -0.4985  0.0299
  474SOL    HW1 1421   0.782   1.206   0.633 -0.2422 -0.8931 -0.3624
  474SOL    HW2 1422   0.882   1.106   0.732  0.6156  0.3516  0.5955
  475SOL     OW 1423   2.886   0.081   0.746 -0.3743  0.2679 -0.7633
  475SOL    HW1 1424   2.968   0.066   0.809  0.4494 -2.9854  1.6376
  475SOL    HW2 1425   2.797   0.097   0.793 -0.4870 -1.9606 -0.4198
  476SOL     OW 1426   0.889   3.071   1.815 -0.2574  0.5590  0.1473
  476SOL    HW1 1427   0.973   3.020   1.855 -2.1069 -2.2813  0.3582
  476SOL    HW2 1428   0.859   3.037   1.720  0.0831  0.7834 -0.3492
  477SOL     OW 1429   1.417   0.323   2.431  0.5414 -0.2115 -0.0537
  477SOL    HW1 1430   1.388   0.323   2.533 -0.1328  1.4593  0.8061
  477SOL    HW2 1431   1.519   0.316   2.422  0.5208 -0.3042  0.4380
  478SOL     OW 1432   2.304   1.807   0.232  0.9890  0.6066 -0.1647
  478SOL    HW1 1433   2.242   1.720   0.230  0.7384 -1.9811  0.9996
  478SOL    HW2 1434   2.402   1.790   0.212  0.6337 -0.6393  0.1038
  479SOL     OW 1435   1.305   1.073   2.888 -0.9918  0.3524  0.5805
  479SOL    HW1 1436   1.381   1.051   2.817 -0.1089 -0.7809  0.6871
  479SOL    HW2 1437   1.214   1.027   2.863  0.9533  1.4859  2.0861
  480SOL     OW 1438   2.471   2.350   0.385 -0.1952  0.1584  0.0522
  480SOL    HW1 1439   2.428   2.272   0.438  1.3477 -0.8074 -0.6146
  480SOL    HW2 1440   2.423   2.359   0.290  1.1641 -0.2867  0.7924
  481SOL     OW 1441   1.134   1.158   0.772  0.2872 -0.0375 -0.0161
  481SOL    HW1 1442   1.129   1.248   0.721 -1.0852  2.4629  2.5127
  481SOL    HW2 1443   1.116   1.171   0.873 -0.8137  0.8447  0.4934
  482SOL     OW 1444   1.603   0.314   2.047  0.2881 -0.3784 -0.3984
  482SOL    HW1 1445   1.608   0.397   1.985  1.7216  3.3650  1.4075
  482SOL    HW2 1446   1.702   0.277   2.068 -1.3153  1.0526 -0.3956
  483SOL     OW 1447   0.140   2.334   1.293  0.1055  0.2440  0.4404
  483SOL    HW1 1448   0.039   2.347   1.317 -1.0012  0.8869 -1.2236
  483SOL    HW2 1449   0.168   2.373   1.199  4.3330 -1.5547 -2.6208
  484SOL     OW 1450   1.734   0.990   1.397 -0.0110 -0.0566 -0.2269
  484SOL    HW1 1451   1.748   0.891   1.374 -1.1611  1.0224  1.4978
  484SOL    HW2 1452   1.810   1.025   1.455 -1.3049 -0.6558 -2.6079
  485SOL     OW 1453   0.697   1.103   1.783  0.4041  0.1460 -0.7291
  485SOL    HW1 1454   0.718   1.094   1.678  1.3511  0.6536  1.3311
  485SOL    HW2 1455   0.782   1.142   1.832  2.0964  1.3415 -0.7703
  486SOL     OW 1456   0.912   1.946   2.464  0.1004 -0.6475  0.0342
  486SOL    HW1 1457   0.965   1.906   2.546 -0.8292  0.5753  2.1748
  486SOL    HW2 1458   0.815   1.981   2.492 -2.1269 -2.1879  2.9709
  487SOL     OW 1459   1.740   1.492   0.925  0.5712 -0.0418 -0.4220
  487SOL    HW1 1460   1.738   1.398   0.878  1.2562  2.6965 -0.2096
  487SOL    HW2 1461   1.807   1.560   0.879 -0.6987 -3.3234 -1.9907
  488SOL     OW 1462   2.974   0.934   2.231  0.1502 -0.1659 -0.0280
  488SOL    HW1 1463   2.982   0.850   2.175 -0.1527 -1.0016  1.0458
  488SOL    HW2 1464   3.011   0.920   2.329  0.0382  3.1973  0.3196
  489SOL     OW 1465   2.764   0.271   1.325  0.7130 -0.4249 -0.4035
  489SOL    HW1 1466   2.711   0.211   1.393 -0.3460 -1.2709  0.3939
  489SOL    HW2 1467   2.865   0.239   1.320 -0.3422 -0.4855 -0.8108
  490SOL     OW 1468   1.416   2.968   2.852  0.0636  0.0229  0.4829
  490SOL    HW1 1469   1.486   2.889   2.842 -0.4652 -0.4861  2.1200
  490SOL    HW2 1470   1.364   2.996   2.765 -2.4859  2.3814  2.6069
  491SOL     OW 1471   1.865   1.585   2.700  0.3085 -0.0241 -0.4489
  491SOL    HW1 1472   1.811   1.552   2.781 -2.8370  3.3751  0.4657
  491SOL    HW2 1473   1.966   1.561   2.721  1.8025 -0.1641  1.0879
  492SOL     OW 1474   0.459   1.974   0.744 -0.0856 -1.0926 -0.3812
  492SOL    HW1 1475   0.520   1.997   0.824  0.7191 -3.1644  0.7762
  492SOL    HW2 1476   0.442   2.057   0.681  0.6338  1.8392  0.0403
  493SOL     OW 1477   0.422   1.394   2.102  0.1759  0.5031  0.1546
  493SOL    HW1 1478   0.377   1.486   2.083  0.7923  1.4845 -0.7239
  493SOL    HW2 1479   0.424   1.359   2.201  0.3624  0.6566  0.2581
  494SOL     OW 1480   2.643   2.658   0.123 -0.2404 -0.1519 -0.2892
  494SOL    HW1 1481   2.658   2.578   0.192 -0.5777 -0.1162  1.3387
  494SOL    HW2 1482   2.571   2.635   0.053 -0.2539 -1.1557  0.7890
  495SOL     OW 1483   2.738   2.676   2.686  0.1153  0.4112  0.0507
  495SOL    HW1 1484   2.756   2.585   2.641  1.2118 -0.8531  0.2516
  495SOL    HW2 1485   2.773   2.759   2.633 -0.0822 -1.9646 -0.4284
  496SOL     OW 1486   2.106   2.208   0.741  0.0133  0.2969  0.2333
  496SOL    HW1 1487   2.073   2.220   0.835 -1.3800 -3.6956 -4.5266
  496SOL    HW2 1488   2.143   2.113   0.735  0.9919 -1.1312 -1.4671
  497SOL     OW 1489   0.226   2.984   2.400  0.4712  0.1012 -0.1230
  497SOL    HW1 1490   0.177   3.054   2.459 -0.9643 -0.3399  2.7959
  497SOL    HW2 1491   0.267   3.025   2.311 -0.0647 -0.7540 -2.5420
  498SOL     OW 1492   1.216   1.482   1.127 -0.7611  0.2994 -0.3578
  498SOL    HW1 1493   1.303   1.520   1.175  2.3188 -0.9042  4.1963
  498SOL    HW2 1494   1.137   1.495   1.195 -1.7578 -1.5552 -2.0074
  499SOL     OW 1495   0.848   1.804   0.539  0.1120 -0.5996 -0.3471
  499SOL    HW1 1496   0.805   1.709   0.564 -1.2385 -3.5390 -0.2071
  499SOL    HW2 1497   0.835   1.875   0.613  0.9233 -1.5040  1.8496
  500SOL     OW 1498   1.400   2.982   1.750  0.3279  0.2103  0.2151
  500SOL    HW1 1499   1.432   3.037   1.831 -0.8551  0.1406  0.6123
  500SOL    HW2 1500   1.443   2.888   1.738  2.5961 -0.4330 -2.2359
  501SOL     OW 1501   0.741   1.145   2.252  0.3458 -0.0617 -0.3611
  501SOL    HW1 1502   0.667   1.076   2.247  0.6718  1.7244  0.0182
  501SOL    HW2 1503   0.824   1.125   2.193  1.6134 -1.9153 -1.4778
  502SOL     OW 1504   2.613   0.955   1.734 -0.1446  0.4158  0.0812
  502SOL    HW1 1505   2.585   0.970   1.633 -0.0448 -3.6826 -3.8218
  502SOL    HW2 1506   2.583   0.862   1.767  0.2139 -0.2212  1.1521
  503SOL     OW 1507   1.354   0.191   0.609 -0.4248 -0.1690  0.4376
  503SOL    HW1 1508   1.267   0.247   0.608 -0.6067  0.1050 -2.0823
  503SOL    HW2 1509   1.443   0.236   0.632 -1.0461 -1.3455 -0.9147
  504SOL     OW 1510   2.977   2.360   1.388 -0.6907 -0.2047  0.0291
  504SOL    HW1 1511   2.981   2.434   1.460 -1.7788  2.3188  2.9616
  504SOL    HW2 1512   2.904   2.284   1.410 -1.9258  2.2862  1.5969
  505SOL     OW 1513   2.285   1.230   1.445 -0.0652  0.0978 -0.6032
  505SOL    HW1 1514   2.260   1.284   1.365 -0.8891  1.3646  3.1987
  505SOL    HW2 1515   2.373   1.266   1.485  1.7760  1.1529 -1.0855
  506SOL     OW 1516   1.906   0.264   1.819 -0.2737 -0.2579  0.2641
  506SOL    HW1 1517   2.003   0.232   1.799  0.1709  3.3774  1.3011
  506SOL    HW2 1518   1.898   0.367   1.845  0.1644  0.6732  0.3719
  507SOL     OW 1519   0.497   0.639   2.173  0.3071  0.1985 -0.0289
  507SOL    HW1 1520   0.409   0.653   2.116  0.7734  0.4339  0.0005
  507SOL    HW2 1521   0.551   0.548   2.154  2.0388 -2.0456  2.1520
  508SOL     OW 1522   0.234   1.675   0.872 -0.6476 -0.0019 -0.1568
  508SOL    HW1 1523   0.301   1.729   0.816 -2.8915  0.1602  0.3059
  508SOL    HW2 1524   0.252   1.667   0.976 -0.2118 -2.6513 -0.2434
  509SOL     OW 1525   1.349   1.195   2.532  0.7486 -0.3014  0.6616
  509SOL    HW1 1526   1.247   1.176   2.537 -0.7122  1.8891  1.3275
  509SOL    HW2 1527   1.400   1.113   2.519 -1.4365  3.9337  0.1277
  510SOL     OW 1528   1.340   1.965   2.064  0.3824  0.3750 -0.8574
  510SOL    HW1 1529   1.289   2.047   2.042  1.1498 -1.2490  0.9253
  510SOL    HW2 1530   1.291   1.909   2.142 -0.0466  2.9944  0.4459
  511SOL     OW 1531   0.029   2.644   1.327 -0.0116  0.0110 -0.3399
  511SOL    HW1 1532  -0.026   2.614   1.243  1.8446  0.4203 -0.9662
  511SOL    HW2 1533  -0.027   2.630   1.415 -2.5836 -0.3029 -0.0593
  512SOL     OW 1534   2.414   0.432   1.351 -0.1429 -0.1365 -0.0568
  512SOL    HW1 1535   2.309   0.435   1.344 -0.5720 -1.3981 -0.3216
  512SOL    HW2 1536   2.464   0.359   1.300 -1.3322  2.1743  0.7348
  513SOL     OW 1537   2.490   1.994   0.844 -0.0482  0.1209  0.1014
  513SOL    HW1 1538   2.436   2.072   0.805  2.3577 -0.6720 -0.4777
  513SOL    HW2 1539   2.573   1.970   0.785  1.2591  2.1043  1.1898
  514SOL     OW 1540   0.683   2.772   0.375 -0.0789  0.0334 -0.1037
  514SOL    HW1 1541   0.639   2.819   0.295 -3.4902  0.3783 -0.1269
  514SOL    HW2 1542   0.687   2.836   0.458 -2.2455  1.3046  0.9722
  515SOL     OW 1543   1.973   1.202   2.324 -0.9418  0.6985  0.8884
  515SOL    HW1 1544   1.924   1.226   2.237  3.0919 -0.3081 -0.5749
  515SOL    HW2 1545   1.917   1.220   2.406  2.4379  0.3275  0.8138
  516SOL     OW 1546   0.264   0.297   1.949 -0.2454 -0.0236  0.2525
  516SOL    HW1 1547   0.350   0.295   1.897 -2.4835 -0.5541  0.1924
  516SOL    HW2 1548   0.183   0.253   1.897  0.5501 -1.9063  2.0186
  517SOL     OW 1549   0.347   3.041   1.182  0.2438 -0.1452 -0.5365
  517SOL    HW1 1550   0.385   3.136   1.207 -0.0980  0.2124 -1.3685
  517SOL    HW2 1551   0.295   2.998   1.263  0.4500  0.2718  4.3998
  518SOL     OW 1552   2.143   0.135   1.720  0.0960  0.5855 -1.2582
  518SOL    HW1 1553   2.234   0.170   1.759  0.4756  1.1603  0.1150
  518SOL    HW2 1554   2.142   0.034   1.702  2.5364  3.4966 -1.3483
  519SOL     OW 1555   2.408   2.187   2.567 -0.3302  0.0842 -0.7508
  519SOL    HW1 1556   2.323   2.182   2.630 -0.1326  0.7489  0.0450
  519SOL    HW2 1557   2.462   2.277   2.588 -1.6534  2.3119  2.6828
  520SOL     OW 1558   1.768   2.888   1.806 -0.0100  0.0048 -0.5397
  520SOL    HW1 1559   1.706   2.863   1.886 -2.3472  1.4572  2.2996
  520SOL    HW2 1560   1.855   2.831   1.808  0.3448 -2.0456  1.5727
  521SOL     OW 1561   0.552   0.134   2.130  0.2631  0.6267  0.1795
  521SOL    HW1 1562   0.458   0.102   2.166  0.0527  0.3149  1.9686
  521SOL    HW2 1563   0.627   0.106   2.199  2.3288  0.0931  0.7207
  522SOL     OW 1564   0.193   1.913   1.569  0.5862  0.1459  0.4998
  522SOL    HW1 1565   0.246   1.960   1.647  0.5782 -1.3780  0.6846
  522SOL    HW2 1566   0.198   1.971   1.480  0.1493  0.6660  0.0111
  523SOL     OW 1567   2.189   2.944   1.618 -0.2046  0.1637  0.1172
  523SOL    HW1 1568   2.252   2.870   1.581  1.7985  0.2765 -0.0685
  523SOL    HW2 1569   2.100   2.942   1.568 -0.6094  1.6819 -0.7741
  524SOL     OW 1570   0.234   2.734   2.837  0.1935  0.0491  0.1594
  524SOL    HW1 1571   0.209   2.783   2.928 -1.2320  1.5610 -0.4176
  524SOL    HW2 1572   0.341   2.727   2.821  3.8230 -1.2268  2.5282
  525SOL     OW 1573   2.158   1.926   0.455 -0.7716  0.4147 -0.1355
  525SOL    HW1 1574   2.142   1.852   0.530 -1.1337  0.5626  1.4508
  525SOL    HW2 1575   2.196   1.883   0.368 -2.3537  1.8237  1.4291
  526SOL     OW 1576   0.397   1.523   1.542  0.3894  0.2727 -0.6345
  526SOL    HW1 1577   0.333   1.494   1.621 -1.0773 -1.2317  0.4255
  526SOL    HW2 1578   0.481   1.459   1.533 -0.9976 -1.9652 -1.9042
  527SOL     OW 1579   1.112   2.904   1.192 -0.3703 -1.0167 -0.2290
  527SOL    HW1 1580   1.176   2.842   1.246 -1.4634  1.5867  0.5663
  527SOL    HW2 1581   1.119   3.005   1.220 -1.2002  0.6711  0.8334
  528SOL     OW 1582   1.341   2.376   0.456  0.0357  0.3329  0.1020
  528SOL    HW1 1583   1.379   2.278   0.473  0.4790 -0.7896 -0.4866
  528SOL    HW2 1584   1.380   2.445   0.522  2.1783 -0.7369 -1.3045
  529SOL     OW 1585   1.853   1.733   0.815 -0.4349  0.2355 -0.0543
  529SOL    HW1 1586   1.822   1.743   0.714  2.5951  0.6265 -0.1532
  529SOL    HW2 1587   1.852   1.819   0.868 -0.8349  0.6865 -1.4246
  530SOL     OW 1588   0.314   2.444   0.335  0.4469 -0.4015 -0.4472
  530SOL    HW1 1589   0.293   2.537   0.372 -0.8848  4.1440 -2.5281
  530SOL    HW2 1590   0.327   2.373   0.409  1.5673  1.3622 -0.3607
  531SOL     OW 1591   1.821   0.837   1.045  0.3981 -0.8313 -0.4645
  531SOL    HW1 1592   1.867   0.857   0.961 -2.1887 -1.4085  1.5341
  531SOL    HW2 1593   1.721   0.859   1.043  3.5400  0.2961 -1.4679
  532SOL     OW 1594   0.495   1.074   0.721 -0.0420  0.1519 -0.1397
  532SOL    HW1 1595   0.505   1.074   0.618 -2.7876  0.8974  1.6047
  532SOL    HW2 1596   0.423   1.013   0.759  1.7000  1.2792  2.8315
  533SOL     OW 1597   1.775   0.042   2.550 -0.0584 -0.0799 -0.0568
  533SOL    HW1 1598   1.880   0.025   2.551  0.1681  2.5648 -0.8344
  533SOL    HW2 1599   1.748   0.114   2.623  2.5390 -0.6067 -0.2834
  534SOL     OW 1600   0.409   0.175   1.535 -0.3610 -0.6072  0.2026
  534SOL    HW1 1601   0.506   0.193   1.565 -1.5919  1.2440  1.1524
  534SOL    HW2 1602   0.360   0.268   1.527  0.9233  0.0184  0.7490
  535SOL     OW 1603   1.918   0.358   0.189  0.0753 -0.3653  0.6818
  535SOL    HW1 1604   1.915   0.442   0.247  1.3701 -1.0494  1.5736
  535SOL    HW2 1605   1.908   0.277   0.253  0.2034 -1.9790 -1.9567
  536SOL     OW 1606   1.378   2.640   0.926  0.0457  0.1100  0.0907
  536SOL    HW1 1607   1.368   2.592   1.022 -2.2242 -1.9055  0.5238
  536SOL    HW2 1608   1.281   2.645   0.876 -0.7084  0.2859  1.9771
  537SOL     OW 1609   0.840   0.276   2.397 -0.1625  0.4656  0.2450
  537SOL    HW1 1610   0.874   0.329   2.312 -3.7704  1.3947  0.2290
  537SOL    HW2 1611   0.781   0.190   2.363 -0.6735  1.2230  1.0389
  538SOL     OW 1612   1.628   2.338   1.348  0.3348  0.3894  0.2133
  538SOL    HW1 1613   1.630   2.237   1.380  2.9542  1.5117  1.0761
  538SOL    HW2 1614   1.724   2.379   1.350 -1.6854  1.0383  0.6300
  539SOL     OW 1615   0.144   1.621   2.690  0.8414 -0.2323 -0.1140
  539SOL    HW1 1616   0.069   1.567   2.643  2.3850 -1.0814  2.3245
  539SOL    HW2 1617   0.117   1.719   2.716 -0.8690 -0.5524  0.6462
  540SOL     OW 1618   2.672   1.705   1.935 -0.3895  0.0283 -0.2991
  540SOL    HW1 1619   2.621   1.632   1.988 -2.4913  0.4039 -4.4205
  540SOL    HW2 1620   2.616   1.794   1.930  2.6709  1.2930 -1.0540
  541SOL     OW 1621   0.558   2.150   0.017  0.0527 -0.1956  0.1148
  541SOL    HW1 1622   0.569   2.121   0.116  0.9315 -1.0499 -1.3113
  541SOL    HW2 1623   0.461   2.164  -0.011 -0.3070  1.3611  1.5010
  542SOL     OW 1624   2.237   2.606   0.506  0.0082  0.3053 -0.1257
  542SOL    HW1 1625   2.219   2.707   0.524 -2.3536 -0.1917  1.2805
  542SOL    HW2 1626   2.147   2.550   0.505  0.5832 -0.5560 -0.5655
  543SOL     OW 1627   1.093   1.810   1.566 -0.1399  0.0202 -0.3878
  543SOL    HW1 1628   1.080   1.840   1.662  1.1488  1.0509  0.8176
  543SOL    HW2 1629   1.029   1.862   1.499  2.0937  1.1218 -0.2873
  544SOL     OW 1630   1.114   0.515   0.172  0.3852  0.2255  0.0045
  544SOL    HW1 1631   1.105   0.436   0.245 -0.0410 -1.8001  0.6796
  544SOL    HW2 1632   1.146   0.476   0.079  4.6128 -0.6668 -0.6126
  545SOL     OW 1633   1.092   1.828   0.788  0.1850  0.4475 -0.3210
  545SOL    HW1 1634   1.166   1.846   0.716 -0.0019  0.0031 -0.9998
  545SOL    HW2 1635   1.098   1.727   0.817  0.1973  0.5817 -1.5247
  546SOL     OW 1636   2.700   1.582   2.971  0.3627  0.2688 -0.3446
  546SOL    HW1 1637   2.662   1.677   2.984 -0.0019 -3.6403  0.0419
  546SOL    HW2 1638   2.629   1.511   3.005 -0.7228  1.6757  1.8542
  547SOL     OW 1639   0.658   3.055   2.520  0.4412 -0.5750  0.3033
  547SOL    HW1 1640   0.706   3.024   2.608 -1.2134  1.4763 -1.2970
  547SOL    HW2 1641   0.587   2.992   2.487  0.2608 -2.5195  1.2314
  548SOL     OW 1642   2.052   0.790   3.076 -0.1282 -0.3750 -0.1711
  548SOL    HW1 1643   1.952   0.763   3.075  0.0825 -1.1679 -0.5023
  548SOL    HW2 1644   2.060   0.888   3.110 -1.5700 -0.4777  0.0452
  549SOL     OW 1645   0.701   0.587   0.219  0.2933 -0.2766  0.2563
  549SOL    HW1 1646   0.640   0.603   0.133  0.5746  0.3720 -1.5213
  549SOL    HW2 1647   0.793   0.633   0.209 -3.1260 -0.8169 -2.7875
  550SOL     OW 1648   2.563   2.822   2.849 -0.0134 -0.4182 -0.4278
  550SOL    HW1 1649   2.504   2.750   2.896  0.3758  0.5395 -0.9317
  550SOL    HW2 1650   2.638   2.772   2.790  0.2817 -2.5887  0.5350
  551SOL     OW 1651   0.237   0.892   0.266 -0.0789 -0.3083  0.1147
  551SOL    HW1 1652   0.334   0.907   0.237 -0.5992 -0.4192 -0.6867
  551SOL    HW2 1653   0.226   0.863   0.367 -4.1097  0.9463  2.0504
  552SOL     OW 1654   0.579   2.991   1.965 -0.1493  0.2569  0.1376
  552SOL    HW1 1655   0.564   3.085   2.010 -1.0885  0.1757  0.6146
  552SOL    HW2 1656   0.670   2.980   1.924 -0.3550 -0.2943  1.2762
  553SOL     OW 1657   2.943   2.400   0.354  0.2876 -0.1493  0.8303
  553SOL    HW1 1658   2.929   2.296   0.380  1.3798 -0.8421 -3.7729
  553SOL    HW2 1659   2.857   2.451   0.359  0.8568  1.4254 -1.1179
  554SOL     OW 1660   2.171   0.382   0.495  0.9674  0.3984  0.7817
  554SOL    HW1 1661   2.242   0.387   0.415  0.6341 -0.3999 -0.0988
  554SOL    HW2 1662   2.178   0.298   0.551 -0.2994  0.8769 -1.7052
  555SOL     OW 1663   0.461   2.844   2.494  0.6546  0.0658 -0.1124
  555SOL    HW1 1664   0.359   2.882   2.489 -1.5516 -0.4167 -1.8544
  555SOL    HW2 1665   0.493   2.781   2.422 -0.0190 -0.2653  0.5944
  556SOL     OW 1666   0.834   2.432   1.611 -0.9392  0.3982  0.1090
  556SOL    HW1 1667   0.878   2.506   1.676 -2.6654  0.8979  0.1504
  556SOL    HW2 1668   0.890   2.409   1.525  3.8542  0.7721  0.5539
  557SOL     OW 1669   0.209   2.085   0.256  0.3281  0.3217  0.5019
  557SOL    HW1 1670   0.153   2.023   0.193  4.2029  2.2163  2.4276
  557SOL    HW2 1671   0.287   2.135   0.209  1.1314 -1.7636  1.3911
  558SOL     OW 1672   2.819   2.159   0.408  0.7111 -0.0584 -0.0495
  558SOL    HW1 1673   2.755   2.205   0.476 -1.2482 -0.6482  1.6116
  558SOL    HW2 1674   2.758   2.111   0.332 -1.7909  1.2362 -4.0347
  559SOL     OW 1675   0.399   2.348   1.423  0.2769  0.0852  0.4037
  559SOL    HW1 1676   0.319   2.372   1.360 -1.1626  3.6724 -3.3741
  559SOL    HW2 1677   0.468   2.278   1.382 -1.1597 -2.2356  1.7764
  560SOL     OW 1678   2.138   1.058   3.094  0.1306  0.1155  0.6670
  560SOL    HW1 1679   2.189   1.065   3.186  1.0783  1.7264 -1.4982
  560SOL    HW2 1680   2.211   1.059   3.018  0.1181 -3.6672  2.7224
  561SOL     OW 1681   0.047   1.906   0.104  0.0933  0.1518  0.8184
  561SOL    HW1 1682  -0.002   1.833   0.158 -3.1039  0.3434  0.9338
  561SOL    HW2 1683  -0.024   1.972   0.065 -2.4595  3.1390  3.3727
  562SOL     OW 1684   1.115   2.119   2.284  0.2287 -0.3145 -0.2487
  562SOL    HW1 1685   1.067   2.212   2.294  1.6511 -4.4131  0.6328
  562SOL    HW2 1686   1.052   2.042   2.309 -1.3143  0.0789  0.1012
  563SOL     OW 1687   0.689   2.533   2.645 -0.5323  0.1212  0.0356
  563SOL    HW1 1688   0.762   2.496   2.582 -0.4050 -1.2679 -0.8790
  563SOL    HW2 1689   0.734   2.571   2.730  1.2057  0.8503 -0.2396
  564SOL     OW 1690   2.889   1.387   2.889 -0.7645 -0.0518 -0.1054
  564SOL    HW1 1691   2.823   1.462   2.919 -0.9357  2.5607 -0.6557
  564SOL    HW2 1692   2.944   1.411   2.804 -0.2115 -0.1645  2.2839
  565SOL     OW 1693   2.520   1.949   2.635  0.4177  0.4093  0.0701
  565SOL    HW1 1694   2.480   2.037   2.596 -1.9590 -0.4607 -0.7965
  565SOL    HW2 1695   2.594   1.959   2.705  0.1789  0.8266  0.6175
  566SOL     OW 1696   1.968   2.894   1.453  0.0392  0.5563  0.8832
  566SOL    HW1 1697   1.946   2.796   1.487 -1.3352 -1.6002 -1.7776
  566SOL    HW2 1698   1.990   2.888   1.352 -1.8288  1.3380  1.2516
  567SOL     OW 1699   2.400   0.031   2.311 -0.2046 -0.1035  0.0047
  567SOL    HW1 1700   2.299   0.025   2.346 -2.3038  1.0034  2.3848
  567SOL    HW2 1701   2.409   0.031   2.208 -1.1826  0.6136 -0.3341
  568SOL     OW 1702   1.481   1.742   0.298  0.0749 -0.7017 -0.3164
  568SOL    HW1 1703   1.421   1.818   0.263  0.7854  1.6545 -1.3404
  568SOL    HW2 1704   1.581   1.768   0.293  1.7426 -0.4864  0.6613
  569SOL     OW 1705   0.259   0.622   0.885  0.0827 -0.1917  0.3442
  569SOL    HW1 1706   0.303   0.570   0.801 -0.6553 -1.6033 -2.2681
  569SOL    HW2 1707   0.177   0.577   0.926  2.7431 -1.0770 -0.1683
  570SOL     OW 1708   0.627   0.880   2.892  0.8009  0.3248 -0.2716
  570SOL    HW1 1709   0.674   0.896   2.795 -1.5771  0.5708 -0.3988
  570SOL    HW2 1710   0.635   0.965   2.952  1.2992  1.7057 -0.9653
  571SOL     OW 1711   0.769   3.078   1.102 -0.3876 -0.2154 -0.4717
  571SOL    HW1 1712   0.824   3.114   1.022  0.0137  0.8686  0.3803
  571SOL    HW2 1713   0.804   2.987   1.126  1.4157  0.1334 -1.4946
  572SOL     OW 1714   1.624   2.694   1.405 -0.2571  0.0347  0.1507
  572SOL    HW1 1715   1.624   2.601   1.366  2.5853 -1.1328 -1.6839
  572SOL    HW2 1716   1.561   2.764   1.360  0.6429 -1.4547 -1.5166
  573SOL     OW 1717   0.001   0.501   1.972 -0.7424 -0.1298 -0.2216
  573SOL    HW1 1718  -0.052   0.415   1.974 -0.3042  1.2271 -0.0174
  573SOL    HW2 1719   0.048   0.515   1.876 -3.8279 -0.5261  0.2670
  574SOL     OW 1720   0.143   1.655   1.142  0.7065 -1.0052 -0.0131
  574SOL    HW1 1721   0.202   1.678   1.223 -1.2509  0.2435  1.3206
  574SOL    HW2 1722   0.068   1.726   1.129 -1.4702 -1.8408 -0.3777
  575SOL     OW 1723   0.885   2.220   0.980 -0.5557  0.3205  1.0486
  575SOL    HW1 1724   0.867   2.281   1.062 -1.1314 -0.4733 -0.4875
  575SOL    HW2 1725   0.916   2.274   0.898 -0.9316  1.3084 -0.8007
  576SOL     OW 1726   2.920   2.999   1.722  0.6610  0.2651  0.3265
  576SOL    HW1 1727   2.828   2.984   1.687  4.4695 -0.4684 -1.1730
  576SOL    HW2 1728   2.963   3.091   1.693  1.0829 -0.3761 -0.9308
  577SOL     OW 1729   2.667   1.224   0.005  0.4481 -0.0595  0.6601
  577SOL    HW1 1730   2.678   1.147  -0.062 -0.7581 -0.5489  2.9561
  577SOL    HW2 1731   2.727   1.219   0.087  1.9711 -2.1624 -4.1189
  578SOL     OW 1732   1.429   2.756   2.551 -0.4805 -0.1408  0.3794
  578SOL    HW1 1733   1.337   2.810   2.559 -1.0546 -0.0334 -0.6286
  578SOL    HW2 1734   1.507   2.811   2.513 -2.0810 -0.3975 -0.4686
  579SOL     OW 1735   0.060   2.404   0.179  0.0745 -0.0130 -0.0957
  579SOL    HW1 1736  -0.014   2.379   0.246  0.2384  0.9561  0.5250
  579SOL    HW2 1737   0.149   2.429   0.226  0.0615 -1.7408 -1.3716
  580SOL     OW 1738   0.946   2.695   0.431  0.5648  0.7936 -0.1090
  580SOL    HW1 1739   1.030   2.712   0.366  1.3023  0.8375  0.9361
  580SOL    HW2 1740   0.855   2.721   0.389 -0.8434 -1.6622  1.3077
  581SOL     OW 1741   1.266   2.686   1.429 -0.6586 -0.3845 -0.0431
  581SOL    HW1 1742   1.324   2.600   1.452  3.1696 -1.9336  0.7696
  581SOL    HW2 1743   1.330   2.762   1.395 -0.8062  0.1315 -0.4670
  582SOL     OW 1744   1.483   0.073   1.924  0.1427 -0.2777 -0.3358
  582SOL    HW1 1745   1.522   0.145   1.989  1.4016  2.3234  0.2073
  582SOL    HW2 1746   1.536   0.072   1.837  0.3356  0.5357  0.5042
  583SOL     OW 1747   2.478   3.060   0.551 -0.2405 -0.5209 -0.0525
  583SOL    HW1 1748   2.543   2.991   0.507 -1.3079  0.5330  2.5674
  583SOL    HW2 1749   2.397   3.014   0.599 -0.5980 -0.3078 -0.6833
  584SOL     OW 1750   1.614   1.081   2.296  0.1744 -0.2072 -0.5380
  584SOL    HW1 1751   1.665   1.164   2.285 -2.1412  1.8330 -0.2798
  584SOL    HW2 1752   1.674   0.999   2.314 -0.6014  1.1875 -1.5147
  585SOL     OW 1753   2.058   2.659   2.873 -0.1284 -0.0097 -0.3044
  585SOL    HW1 1754   2.066   2.569   2.820 -0.9832 -0.4810 -1.1958
  585SOL    HW2 1755   1.967   2.700   2.879 -0.6466 -0.1734  0.5142
  586SOL     OW 1756   2.928   0.391   1.580  0.5940 -0.2382  0.6028
  586SOL    HW1 1757   2.936   0.472   1.641  1.7017  0.8745  0.7890
  586SOL    HW2 1758   2.832   0.383   1.530 -2.6077 -0.7673 -1.1874
  587SOL     OW 1759   2.145   1.466   2.702  0.0558 -0.4173  0.2221
  587SOL    HW1 1760   2.156   1.378   2.648  1.1430 -0.2208 -1.2485
  587SOL    HW2 1761   2.233   1.494   2.748  1.1803 -0.3226 -0.9782
  588SOL     OW 1762   0.503   2.644   2.274 -0.0085 -0.5022  0.4008
  588SOL    HW1 1763   0.487   2.673   2.179  1.1194 -0.3211  2.7640
  588SOL    HW2 1764   0.453   2.553   2.303 -1.6328  0.5853 -1.1919
  589SOL     OW 1765   2.182   1.304   2.484  0.1945  0.6488  0.3393
  589SOL    HW1 1766   2.115   1.266   2.412 -1.2379  0.3779  0.4067
  589SOL    HW2 1767   2.277   1.284   2.465  0.0155 -0.0556 -0.2426
  590SOL     OW 1768   2.314   1.700   2.070 -0.1945 -0.2058  0.2541
  590SOL    HW1 1769   2.386   1.628   2.074  1.2591 -0.3777 -1.6001
  590SOL    HW2 1770   2.286   1.746   2.160 -3.1024  0.1022  0.1275
  591SOL     OW 1771   1.278   2.400   0.182  0.9477  0.4905 -0.5968
  591SOL    HW1 1772   1.314   2.318   0.123  0.0645  2.7821  0.5475
  591SOL    HW2 1773   1.296   2.387   0.282  1.2823 -1.6264  0.2021
  592SOL     OW 1774   1.791   2.368   0.792 -0.2684  0.1938 -0.0846
  592SOL    HW1 1775   1.772   2.391   0.693 -0.0143  2.0590  0.0193
  592SOL    HW2 1776   1.894   2.358   0.806 -1.9056  1.3261  0.9986
  593SOL     OW 1777   0.777   0.299   0.250  0.1462 -0.1536 -0.3830
  593SOL    HW1 1778   0.771   0.282   0.150 -0.1426 -1.7383 -0.9254
  593SOL    HW2 1779   0.774   0.400   0.277  0.0640 -1.5359  0.9201
  594SOL     OW 1780   1.060   1.799   2.651  0.2755 -0.1071  0.2295
  594SOL    HW1 1781   1.148   1.760   2.612 -1.1610  0.0227 -1.3595
  594SOL    HW2 1782   1.066   1.852   2.742  1.2318 -1.3584 -2.1550
  595SOL     OW 1783   1.511   0.117   0.984  0.0092  0.2473  0.1398
  595SOL    HW1 1784   1.566   0.029   0.979 -2.1089 -0.0139  0.7801
  595SOL    HW2 1785   1.415   0.087   0.964  1.9542  1.5844  1.0749
  596SOL     OW 1786   0.119   1.470   2.248  0.5625 -0.6310 -0.4505
  596SOL    HW1 1787   0.057   1.389   2.262  1.7763 -0.1215 -0.4339
  596SOL    HW2 1788   0.146   1.522   2.334  0.3505  1.3804  1.1185
  597SOL     OW 1789   2.026   2.669   1.820  0.6508  0.3362 -0.5516
  597SOL    HW1 1790   1.992   2.673   1.719  1.9635 -1.9268  2.4840
  597SOL    HW2 1791   2.128   2.681   1.830  0.0412 -1.6649  1.3438
  598SOL     OW 1792   2.503   2.848   1.275 -0.7532 -0.1124  0.8380
  598SOL    HW1 1793   2.567   2.896   1.336 -0.3009 -3.5680  2.9184
  598SOL    HW2 1794   2.550   2.809   1.192 -0.2193  0.8366 -0.1683
  599SOL     OW 1795   2.853   0.251   2.514  0.6478  0.6244 -0.4369
  599SOL    HW1 1796   2.950   0.262   2.470  3.6145 -0.1956  2.3968
  599SOL    HW2 1797   2.776   0.287   2.450 -0.7828 -2.0066 -1.6941
  600SOL     OW 1798   2.788   1.154   2.773  0.3886  0.1768  0.2562
  600SOL    HW1 1799   2.717   1.096   2.824 -2.2817  0.9613  0.7090
  600SOL    HW2 1800   2.812   1.238   2.825 -2.7528  0.1000 -0.8527
  601SOL     OW 1801   2.965   1.344   2.003  0.2526  0.1794 -0.1834
  601SOL    HW1 1802   2.901   1.381   1.934 -2.4870  0.0774  2.1074
  601SOL    HW2 1803   3.064   1.378   1.988 -1.0344 -0.7696  0.6005
  602SOL     OW 1804   1.541   1.556   2.287  0.6239  0.1800  0.4838
  602SOL    HW1 1805   1.457   1.543   2.348 -0.4609 -2.1969  1.0766
  602SOL    HW2 1806   1.630   1.556   2.335 -0.4499 -1.2068  1.2448
  603SOL     OW 1807   0.622   1.209   2.714 -0.4397  0.5163 -0.0990
  603SOL    HW1 1808   0.537   1.250   2.670 -2.6840 -2.3540 -0.2807
  603SOL    HW2 1809   0.643   1.115   2.681 -0.3853  0.5740  0.5471
  604SOL     OW 1810   2.496   1.045   0.206 -0.0183  0.8878  0.0140
  604SOL    HW1 1811   2.584   1.102   0.210 -0.2634  0.0124 -0.9918
  604SOL    HW2 1812   2.503   0.968   0.135  0.9452 -1.0318 -0.4091
  605SOL     OW 1813   2.556   1.142   1.953  0.5971  0.6179 -0.9210
  605SOL    HW1 1814   2.590   1.069   1.890  2.6754 -0.4831  3.1436
  605SOL    HW2 1815   2.623   1.208   1.988 -1.4964 -0.0372  0.2441
  606SOL     OW 1816   1.513   2.466   2.551  0.4720 -0.2600 -0.2222
  606SOL    HW1 1817   1.454   2.550   2.528  0.5406 -2.6695 -2.4711
  606SOL    HW2 1818   1.460   2.379   2.529  0.5877 -2.5025  1.4549
  607SOL     OW 1819   1.261   1.595   0.228 -0.5457  0.2512  0.3384
  607SOL    HW1 1820   1.180   1.643   0.272 -1.2544 -0.2909  1.6757
  607SOL    HW2 1821   1.355   1.643   0.245  0.0342 -0.0075  1.2462
  608SOL     OW 1822   1.381   2.824   0.362 -0.3966 -0.5129 -0.6698
  608SOL    HW1 1823   1.437   2.838   0.274 -0.5659 -2.1989 -1.4313
  608SOL    HW2 1824   1.356   2.912   0.407  0.0786 -2.3710 -0.2830
  609SOL     OW 1825   1.339   1.324   0.174 -0.5196  0.0691  0.4066
  609SOL    HW1 1826   1.317   1.420   0.211  1.2709  0.3940 -0.7297
  609SOL    HW2 1827   1.312   1.314   0.072 -0.9960  0.3517 -4.1458
  610SOL     OW 1828   3.007   1.225   2.259 -0.1285  0.0626 -0.4465
  610SOL    HW1 1829   2.976   1.123   2.248 -0.2849 -1.7390  1.4111
  610SOL    HW2 1830   2.963   1.286   2.185  0.9585 -0.3174 -0.2971
  611SOL     OW 1831   2.561   0.241   1.127  0.3587 -0.4106  0.4043
  611SOL    HW1 1832   2.506   0.158   1.147  1.3202 -2.4908  0.3769
  611SOL    HW2 1833   2.631   0.255   1.197  1.7129 -1.8253 -0.5913
  612SOL     OW 1834   0.789   2.336   1.216 -0.5157  0.2286 -0.3343
  612SOL    HW1 1835   0.711   2.266   1.240 -2.2187 -1.6007 -0.5533
  612SOL    HW2 1836   0.753   2.430   1.186  1.1919  0.0444 -0.0616
  613SOL     OW 1837   0.785   1.396   2.379 -0.3197  0.1349  1.0457
  613SOL    HW1 1838   0.825   1.450   2.298 -1.7213  0.1891 -1.9146
  613SOL    HW2 1839   0.756   1.299   2.348 -0.3974 -2.2099  0.0686
  614SOL     OW 1840   1.537   1.663   1.853 -0.3826 -0.5470  0.7323
  614SOL    HW1 1841   1.478   1.699   1.772 -1.9164 -0.0549 -1.8335
  614SOL    HW2 1842   1.589   1.737   1.902  0.3620  2.3336  0.5053
  615SOL     OW 1843   0.725   1.429   1.709 -0.0494  0.5008  0.0858
  615SOL    HW1 1844   0.700   1.368   1.632  0.7027  0.8860  3.0469
  615SOL    HW2 1845   0.790   1.508   1.676  3.3992  1.8764 -1.7743
  616SOL     OW 1846   1.135   1.562   2.223 -0.2624 -0.2796  0.0626
  616SOL    HW1 1847   1.034   1.575   2.230 -0.1271  0.6013  0.6889
  616SOL    HW2 1848   1.167   1.587   2.126  0.2324  0.5274  0.9643
  617SOL     OW 1849   3.036   1.549   1.631 -0.2719  0.4852  0.1386
  617SOL    HW1 1850   2.980   1.485   1.689  1.1946  2.2746  1.4543
  617SOL    HW2 1851   3.060   1.510   1.540 -1.6458  1.3379  0.3847
  618SOL     OW 1852   1.922   1.973   1.478 -0.7019 -0.1939  0.0750
  618SOL    HW1 1853   1.987   1.957   1.403 -3.0611 -0.4770  1.5413
  618SOL    HW2 1854   1.911   1.889   1.538 -0.7421  0.1155  0.4863
  619SOL     OW 1855   1.747   0.498   2.344  0.9439 -0.0132  0.3168
  619SOL    HW1 1856   1.667   0.549   2.302 -0.1006  0.8516  1.3169
  619SOL    HW2 1857   1.738   0.391   2.355 -1.2599 -1.4672 -1.9033
  620SOL     OW 1858   2.252   2.922   0.654  0.1673 -0.2137  0.5155
  620SOL    HW1 1859   2.158   2.961   0.652  3.0929  0.6712 -0.0834
  620SOL    HW2 1860   2.279   2.894   0.750 -0.3421  1.4115  2.4036
  621SOL     OW 1861   2.184   1.901   1.343 -0.2260  0.0376 -0.0257
  621SOL    HW1 1862   2.205   1.897   1.445  1.1339  0.9155 -0.7835
  621SOL    HW2 1863   2.167   1.807   1.305 -1.2458  2.4661 -0.3860
  622SOL     OW 1864   2.210   0.987   1.840  0.1364  0.6701  0.2826
  622SOL    HW1 1865   2.291   0.928   1.861  1.6574 -0.0540 -0.4006
  622SOL    HW2 1866   2.128   0.962   1.899 -1.0052  2.0939 -3.0463
  623SOL     OW 1867   1.279   0.865   2.571  0.0044  0.7858  0.0745
  623SOL    HW1 1868   1.241   0.795   2.634 -2.3466  1.7153 -4.1343
  623SOL    HW2 1869   1.228   0.870   2.484  2.1880  0.6586  0.0987
  624SOL     OW 1870   0.525   0.704   0.051  0.2422 -0.1484 -0.1403
  624SOL    HW1 1871   0.517   0.768  -0.032 -0.5938 -1.9489 -4.0484
  624SOL    HW2 1872   0.512   0.763   0.142  2.2698 -3.0167  3.4629
  625SOL     OW 1873   2.757   1.720   0.834  0.2518  0.5365 -0.5046
  625SOL    HW1 1874   2.735   1.759   0.925  3.8687 -0.5350 -0.3034
  625SOL    HW2 1875   2.691   1.648   0.800  0.0320  1.3285 -2.1137
  626SOL     OW 1876   0.479   2.760   2.033 -0.7091  0.4315  0.0684
  626SOL    HW1 1877   0.521   2.859   2.037  0.2973  1.6983  0.5446
  626SOL    HW2 1878   0.402   2.754   1.962 -1.5387 -0.8516 -0.7511
  627SOL     OW 1879   0.751   1.061   1.521  0.0495 -0.2500  0.3371
  627SOL    HW1 1880   0.734   0.961   1.490 -1.3520 -3.3554  0.6549
  627SOL    HW2 1881   0.822   1.110   1.471 -1.3240  0.8872 -0.3546
  628SOL     OW 1882   2.433   0.173   0.732  0.2889 -0.1728 -0.0509
  628SOL    HW1 1883   2.464   0.103   0.664 -1.9297 -0.4598 -0.7733
  628SOL    HW2 1884   2.327   0.182   0.730 -3.5353 -2.0515 -1.2099
  629SOL     OW 1885   1.988   0.951   1.996 -0.2297  0.1679  0.1032
  629SOL    HW1 1886   2.035   0.957   2.090 -0.8379  0.5860 -0.1027
  629SOL    HW2 1887   1.930   1.031   1.968  1.1499 -0.2139 -5.0171
  630SOL     OW 1888   2.813   2.206   0.746 -0.0470 -0.1563  0.0111
  630SOL    HW1 1889   2.745   2.247   0.809 -2.3889 -0.0153 -2.5025
  630SOL    HW2 1890   2.784   2.115   0.696 -0.2243 -1.0692 -0.9880
  631SOL     OW 1891   3.017   0.231   2.122 -0.7019  0.0370 -0.1563
  631SOL    HW1 1892   3.052   0.299   2.192 -2.2458 -1.4475  2.1832
  631SOL    HW2 1893   3.085   0.199   2.045 -1.6123 -0.5069  1.4271
  632SOL     OW 1894   2.298   2.540   0.765  0.2254 -0.7467  0.1012
  632SOL    HW1 1895   2.335   2.633   0.801  0.2323  0.5811  1.8965
  632SOL    HW2 1896   2.276   2.533   0.666  0.2262 -2.8415  0.2630
  633SOL     OW 1897   1.595   1.254   2.665  0.0441 -0.2428  0.1955
  633SOL    HW1 1898   1.578   1.341   2.720  0.7250 -1.1038  2.2116
  633SOL    HW2 1899   1.521   1.247   2.593 -2.0341 -0.7360  2.9702
  634SOL     OW 1900   0.635   2.063   0.976  0.6256  0.3580 -0.4557
  634SOL    HW1 1901   0.543   2.105   1.017 -0.7131 -2.1564 -3.0977
  634SOL    HW2 1902   0.712   2.129   0.979  0.0939  0.9519 -2.0782
  635SOL     OW 1903   0.072   2.239   3.041 -0.0932  0.0186 -0.6670
  635SOL    HW1 1904   0.030   2.325   3.010  0.1328 -2.6685  1.2885
  635SOL    HW2 1905   0.118   2.255   3.131  1.1515 -0.2890 -2.9573
  636SOL     OW 1906   2.324   2.874   2.042  0.1604  0.5758  0.1743
  636SOL    HW1 1907   2.307   2.971   2.060  0.9004 -2.3727 -1.6829
  636SOL    HW2 1908   2.279   2.809   2.110 -0.5070  1.8249  1.2244
  637SOL     OW 1909   2.603   0.712   2.056  0.2700 -0.2434  0.1750
  637SOL    HW1 1910   2.561   0.691   1.964  0.0386  0.6518 -1.5045
  637SOL    HW2 1911   2.651   0.805   2.061 -0.2351  0.7344 -1.8317
  638SOL     OW 1912   2.482   1.895   1.402 -0.6113  0.0540  0.4663
  638SOL    HW1 1913   2.383   1.890   1.377  0.1381  1.2806  1.9820
  638SOL    HW2 1914   2.507   1.805   1.432 -1.4744 -1.3035  0.7130
  639SOL     OW 1915   1.306   2.250   1.566  0.5437  0.9625 -0.3214
  639SOL    HW1 1916   1.295   2.178   1.492  0.2392  0.5817  2.1459
  639SOL    HW2 1917   1.239   2.228   1.645  0.5191 -1.3587  1.5590
  640SOL     OW 1918   0.217   1.235   1.535  0.3795  0.2422  0.2263
  640SOL    HW1 1919   0.228   1.297   1.615 -3.2783 -2.0820 -0.7093
  640SOL    HW2 1920   0.283   1.157   1.529 -0.3479 -0.7697 -0.4788
  641SOL     OW 1921   1.930   0.227   1.448 -0.2800  0.5521 -0.2794
  641SOL    HW1 1922   1.858   0.308   1.472 -1.9788  0.6765  0.7988
  641SOL    HW2 1923   1.952   0.170   1.529 -0.5743  0.3271 -0.5158
  642SOL     OW 1924   1.988   0.096   0.293  0.2779  0.0605 -0.0222
  642SOL    HW1 1925   2.093   0.083   0.296 -0.6506  1.6102  1.3768
  642SOL    HW2 1926   1.950   0.083   0.389 -2.1800  1.0316  1.1199
  643SOL     OW 1927   2.819   1.840   2.111 -0.1288  0.5087  0.3682
  643SOL    HW1 1928   2.767   1.778   2.046 -1.7310  2.2608  0.5699
  643SOL    HW2 1929   2.845   1.931   2.070 -1.1420  1.0190 -1.1144
  644SOL     OW 1930   2.167   2.262   1.238  0.1561 -0.2002  0.0103
  644SOL    HW1 1931   2.237   2.186   1.234  1.7548 -1.5781  1.0727
  644SOL    HW2 1932   2.154   2.308   1.332 -3.7488 -0.4904  1.8696
  645SOL     OW 1933   0.646   0.875   1.164  0.5096 -0.6365 -0.2546
  645SOL    HW1 1934   0.613   0.804   1.095  1.0178 -1.4276  0.9826
  645SOL    HW2 1935   0.656   0.961   1.109  0.9175 -0.6655  2.0883
  646SOL     OW 1936   1.458   1.955   1.775  0.1285 -0.3551  0.0872
  646SOL    HW1 1937   1.544   2.019   1.763 -1.8487  2.2964 -0.5597
  646SOL    HW2 1938   1.412   1.964   1.869 -2.8727  0.0408  1.1547
  647SOL     OW 1939   0.877   0.925   0.662  0.2672  0.8841  0.2306
  647SOL    HW1 1940   0.957   0.873   0.710  1.5422 -1.9663  0.4853
  647SOL    HW2 1941   0.780   0.908   0.698  1.1619 -0.3556  1.1754
  648SOL     OW 1942   0.186   0.229   0.330 -1.0029  0.3938  0.1430
  648SOL    HW1 1943   0.227   0.145   0.272 -3.0759 -0.5639 -1.9736
  648SOL    HW2 1944   0.149   0.304   0.265  0.2311 -0.8848 -1.6526
  649SOL     OW 1945   3.088   0.032   0.940 -0.1521 -0.2624  0.6502
  649SOL    HW1 1946   3.188   0.046   0.901  2.1724  0.2622  1.2487
  649SOL    HW2 1947   3.083   0.088   1.027 -1.1498 -0.6702  0.6282
  650SOL     OW 1948   2.724   0.728   1.442 -0.3977  0.3303  0.1009
  650SOL    HW1 1949   2.635   0.682   1.455  2.6772  0.1274 -1.2362
  650SOL    HW2 1950   2.714   0.810   1.382  2.5641 -1.1186  1.9478
  651SOL     OW 1951   0.911   1.589   1.567 -0.0252 -0.4564 -0.5264
  651SOL    HW1 1952   0.990   1.650   1.599  1.5434  3.7359  1.7402
  651SOL    HW2 1953   0.855   1.641   1.493  0.2514  0.7667 -0.8386
  652SOL     OW 1954   2.308   2.518   2.392 -0.3899 -0.0035  0.3179
  652SOL    HW1 1955   2.227   2.535   2.448  0.0201 -0.7614 -1.2835
  652SOL    HW2 1956   2.333   2.598   2.326 -0.6259  0.9795 -2.5963
  653SOL     OW 1957   2.730   1.162   0.281  0.6272 -0.1046 -0.1733
  653SOL    HW1 1958   2.810   1.228   0.289  1.6765 -0.1863 -1.0826
  653SOL    HW2 1959   2.758   1.066   0.312 -1.3431  1.3915 -1.5311
  654SOL     OW 1960   1.209   2.243   1.219  0.0813 -0.5616  0.2426
  654SOL    HW1 1961   1.236   2.160   1.279  0.9554  0.1423  1.6318
  654SOL    HW2 1962   1.246   2.243   1.122 -0.7958  1.2183  1.6586
  655SOL     OW 1963   0.229   1.050   1.840  0.3687  0.1801  0.2172
  655SOL    HW1 1964   0.273   0.956   1.838 -1.2517 -0.9539 -1.9242
  655SOL    HW2 1965   0.297   1.129   1.838 -3.1358 -2.4288  0.6687
  656SOL     OW 1966   2.505   2.448   2.564 -0.1424 -0.7586  0.4512
  656SOL    HW1 1967   2.598   2.460   2.519  0.3438  0.4856  1.2498
  656SOL    HW2 1968   2.425   2.473   2.500 -1.9319 -0.3693 -3.2341
  657SOL     OW 1969   3.068   1.117   1.845 -0.0265  0.2134  0.2094
  657SOL    HW1 1970   3.062   1.198   1.913 -2.4310  0.6684  0.0168
  657SOL    HW2 1971   3.165   1.086   1.828  0.4486  0.8319  1.1861
  658SOL     OW 1972   1.692   0.247   2.380  0.3212  0.3953 -0.1912
  658SOL    HW1 1973   1.712   0.178   2.458 -0.7180 -3.4592  2.2382
  658SOL    HW2 1974   1.744   0.238   2.289 -1.3359  1.3584  0.8682
  659SOL     OW 1975   1.411   0.582   2.867 -0.0407  0.0704 -0.2066
  659SOL    HW1 1976   1.456   0.653   2.927 -2.9056  1.3419  1.7842
  659SOL    HW2 1977   1.359   0.627   2.786 -1.0335 -0.0623 -1.4503
  660SOL     OW 1978   1.408   0.395   1.394 -0.1776  0.4347  0.3505
  660SOL    HW1 1979   1.455   0.408   1.489 -0.4127 -0.5573  1.1017
  660SOL    HW2 1980   1.473   0.348   1.330 -0.9245 -2.0793  0.8246
  661SOL     OW 1981   2.465   1.158   0.677 -0.0021 -0.2158 -0.0236
  661SOL    HW1 1982   2.458   1.100   0.592  1.9347 -0.3402 -0.9269
  661SOL    HW2 1983   2.439   1.258   0.664  0.6776 -0.4668 -0.8837
  662SOL     OW 1984   1.283   0.459   1.830 -0.1117  0.0748  0.2134
  662SOL    HW1 1985   1.278   0.360   1.813 -0.7000  3.5457 -1.0282
  662SOL    HW2 1986   1.216   0.491   1.902  0.3365 -2.6520 -2.0719
  663SOL     OW 1987   0.838   1.585   2.164  0.5836 -0.3828 -0.2008
  663SOL    HW1 1988   0.838   1.685   2.164 -0.5214 -1.6791 -1.6856
  663SOL    HW2 1989   0.764   1.548   2.102 -0.7166  0.7122  2.3823
  664SOL     OW 1990   1.659   2.052   1.405 -0.2767  0.3489  0.1545
  664SOL    HW1 1991   1.595   1.987   1.459  1.2047 -1.6269  2.1983
  664SOL    HW2 1992   1.756   2.050   1.440 -0.8450  2.1716 -0.3498
  665SOL     OW 1993   2.292   0.618   1.989  0.0934 -0.2829 -0.1958
  665SOL    HW1 1994   2.321   0.526   2.025 -1.9479 -1.0808  1.4587
  665SOL    HW2 1995   2.219   0.664   2.046  0.1196 -1.8766  2.0144
  666SOL     OW 1996   0.511   2.271   0.496  0.0896 -0.7183  0.7628
  666SOL    HW1 1997   0.536   2.372   0.474  1.3520  0.2135 -0.6972
  666SOL    HW2 1998   0.435   2.262   0.565 -2.4205  1.4974  1.1468
  667SOL     OW 1999   2.086   0.264   0.984  0.3498 -0.1117  0.3270
  667SOL    HW1 2000   2.113   0.360   0.970 -0.1176 -2.7897 -2.0697
  667SOL    HW2 2001   2.003   0.254   1.047 -2.5033  2.8787 -1.8086
  668SOL     OW 2002   1.950   0.518   1.220 -0.3176  1.0280  0.8179
  668SOL    HW1 2003   2.029   0.526   1.154 -3.2764  3.7634  1.7982
  668SOL    HW2 2004   1.986   0.505   1.317 -0.1156  2.1099  1.8884
  669SOL     OW 2005   2.987   2.076   0.943  0.0363 -0.1315  0.1405
  669SOL    HW1 2006   2.948   2.139   0.865 -0.1801  2.7549 -3.7964
  669SOL    HW2 2007   2.955   2.101   1.041 -1.7329  1.0476  3.7163
  670SOL     OW 2008   2.783   2.345   2.009 -0.5173  0.0030 -0.1724
  670SOL    HW1 2009   2.748   2.349   2.105  2.2786  1.9406  0.8012
  670SOL    HW2 2010   2.789   2.441   1.961  0.3154 -0.1814 -1.0023
  671SOL     OW 2011   1.702   1.673   1.457 -0.1993  0.5800 -0.1706
  671SOL    HW1 2012   1.696   1.727   1.369  1.7768 -0.8234  3.7158
  671SOL    HW2 2013   1.659   1.576   1.456 -2.8896  1.4038  0.9376
  672SOL     OW 2014   0.423   0.685   2.441 -0.4266  0.0697  0.1923
  672SOL    HW1 2015   0.446   0.662   2.343 -0.5442  0.4624 -0.8454
  672SOL    HW2 2016   0.339   0.749   2.448 -0.2321 -3.2373 -0.6363
  673SOL     OW 2017   0.156   1.212   1.149 -0.3144 -0.3001  0.0577
  673SOL    HW1 2018   0.185   1.306   1.174 -0.8033  0.0145  0.8197
  673SOL    HW2 2019   0.231   1.150   1.118 -0.8582  0.9613 -1.0435
  674SOL     OW 2020   1.535   2.857   0.141 -0.0658  0.5926  0.5138
  674SOL    HW1 2021   1.572   2.943   0.093  0.9056  1.5623 -2.9309
  674SOL    HW2 2022   1.601   2.779   0.133 -0.8581  1.2364 -1.9123
  675SOL     OW 2023   1.742   0.868   2.332  0.5820  0.2404  0.1374
  675SOL    HW1 2024   1.842   0.836   2.324 -2.6806 -0.2191  0.8311
  675SOL    HW2 2025   1.671   0.792   2.324  1.2133  0.5221 -1.1265
  676SOL     OW 2026   2.513   1.495   2.038 -0.1285  0.0475  0.2209
  676SOL    HW1 2027   2.488   1.468   1.941 -2.3393 -0.7911 -0.2352
  676SOL    HW2 2028   2.578   1.419   2.079  1.4026 -2.4960  0.6413
  677SOL     OW 2029   1.854   0.545   0.953  0.6144  0.4408 -0.0827
  677SOL    HW1 2030   1.869   0.614   1.033  0.5597  0.3093  1.2635
  677SOL    HW2 2031   1.766   0.489   0.964  0.7516  1.3574  0.5911
  678SOL     OW 2032   0.103   0.827   1.670 -0.3054  0.5096 -0.5139
  678SOL    HW1 2033   0.201   0.836   1.699  1.1022  0.6595  0.8229
  678SOL    HW2 2034   0.031   0.870   1.731 -0.2809  1.3107 -0.5674
  679SOL     OW 2035   2.532   1.148   1.137 -0.4596  0.3522  0.1959
  679SOL    HW1 2036   2.440   1.195   1.155 -3.4313  0.4690 -0.2316
  679SOL    HW2 2037   2.524   1.063   1.073  0.5617 -1.6842 -1.0219
  680SOL     OW 2038   2.841   0.650   1.672  0.0657  0.0444 -0.1152
  680SOL    HW1 2039   2.804   0.683   1.576  1.2001 -0.0560 -0.2615
  680SOL    HW2 2040   2.881   0.730   1.730  0.8177  1.1889  1.2005
  681SOL     OW 2041   3.049   0.132   1.649 -0.0302 -0.4584  0.2271
  681SOL    HW1 2042   3.127   0.096   1.587 -1.6667 -0.4524 -0.9933
  681SOL    HW2 2043   3.024   0.226   1.619 -1.0634 -0.4745  0.7350
  682SOL     OW 2044   0.711   0.019   1.363  0.4525 -0.4138  0.1400
  682SOL    HW1 2045   0.638  -0.050   1.405  0.3349 -1.3022 -0.5920
  682SOL    HW2 2046   0.732  -0.004   1.262 -1.1224 -3.9022 -1.3096
  683SOL     OW 2047   1.370   0.238   2.170 -0.2337 -0.2308 -0.3356
  683SOL    HW1 2048   1.363   0.274   2.266 -0.4931  0.7343  1.0400
  683SOL    HW2 2049   1.441   0.286   2.109 -0.3372 -1.5476 -2.1342
  684SOL     OW 2050   1.414   2.106   0.470 -0.2539 -0.3635 -0.3598
  684SOL    HW1 2051   1.492   2.038   0.487 -0.1354 -0.8886 -2.8377
  684SOL    HW2 2052   1.325   2.059   0.444 -0.8382  0.8620 -0.3871
  685SOL     OW 2053   2.127   1.929   1.957 -0.1030  0.7690 -0.2094
  685SOL    HW1 2054   2.175   2.002   1.898 -2.1926  0.4559  1.5865
  685SOL    HW2 2055   2.180   1.841   1.971 -0.6826  0.6137  2.3467
  686SOL     OW 2056   1.544   1.758   2.772 -0.3402 -0.3224 -0.1465
  686SOL    HW1 2057   1.528   1.653   2.773 -2.1694 -0.3764  0.6255
  686SOL    HW2 2058   1.587   1.795   2.858 -1.0745 -0.2321 -3.4372
  687SOL     OW 2059   1.347   2.502   1.908  0.0277  0.3286 -0.0802
  687SOL    HW1 2060   1.398   2.426   1.859 -0.9414  3.5026 -0.9059
  687SOL    HW2 2061   1.387   2.521   1.997  1.7595 -3.2128 -1.3134
  688SOL     OW 2062   2.090   1.495   1.606  0.6573  0.8387 -0.4672
  688SOL    HW1 2063   2.180   1.519   1.557  0.9887 -0.4104  1.1377
  688SOL    HW2 2064   2.036   1.419   1.558 -0.6528 -0.8501 -0.4571
  689SOL     OW 2065   2.443   1.104   2.739  0.0228  0.1029 -0.7122
  689SOL    HW1 2066   2.364   1.052   2.786  0.5869 -0.8876 -0.0901
  689SOL    HW2 2067   2.527   1.103   2.798 -3.2112 -0.7923 -1.5596
  690SOL     OW 2068   2.207   2.752   3.083  0.1942 -0.2363 -0.2415
  690SOL    HW1 2069   2.129   2.720   3.021  0.2060 -1.4392  0.0432
  690SOL    HW2 2070   2.163   2.820   3.155 -0.7932 -2.0844 -0.6219
  691SOL     OW 2071   2.562   0.481   2.195 -0.1229 -0.3664  0.5586
  691SOL    HW1 2072   2.610   0.407   2.135  4.3799  1.2466  1.5852
  691SOL    HW2 2073   2.557   0.577   2.148  0.8470  0.7817 -0.2277
  692SOL     OW 2074   2.734   1.222   0.688  0.2254 -0.7036 -0.1044
  692SOL    HW1 2075   2.628   1.218   0.702 -1.5694  0.2173 -0.6132
  692SOL    HW2 2076   2.773   1.309   0.727 -2.9311 -0.0270  1.2375
  693SOL     OW 2077   2.860   2.961   0.571  0.1051 -0.1814  0.2981
  693SOL    HW1 2078   2.861   3.057   0.618 -1.7727  2.1135 -1.0359
  693SOL    HW2 2079   2.762   2.936   0.535 -0.9107  0.4331 -0.3226
  694SOL     OW 2080   2.360   2.119   0.071 -0.1202 -0.4538  0.0959
  694SOL    HW1 2081   2.337   2.208   0.116  1.8779  2.1922  1.8394
  694SOL    HW2 2082   2.266   2.075   0.039 -1.6866 -0.4241 -0.6209
  695SOL     OW 2083   0.551   2.949   1.491 -0.0213 -0.8285  0.0977
  695SOL    HW1 2084   0.493   2.861   1.490 -5.0227  0.0062  0.5013
  695SOL    HW2 2085   0.512   3.014   1.568  0.3024 -0.5687 -0.2327
  696SOL     OW 2086   2.696   1.960   0.682  0.6131  0.4460 -0.3190
  696SOL    HW1 2087   2.742   1.879   0.723 -1.1212 -1.6774 -0.2974
  696SOL    HW2 2088   2.639   1.934   0.598 -2.5632 -0.4683 -0.2022
  697SOL     OW 2089   1.690   2.102   1.748 -0.5012 -1.1191 -0.2291
  697SOL    HW1 2090   1.763   2.028   1.761 -0.4066  2.8974 -1.0756
  697SOL    HW2 2091   1.730   2.198   1.755  0.6723 -2.1711 -1.1624
  698SOL     OW 2092   2.928   0.329   2.779  0.2198 -0.7159  0.5318
  698SOL    HW1 2093   2.908   0.293   2.681  2.0484  0.3655  2.3324
  698SOL    HW2 2094   2.998   0.273   2.822 -0.9464  1.6853  1.4147
  699SOL     OW 2095   1.552   0.104   2.936 -0.5782  0.4347 -0.0285
  699SOL    HW1 2096   1.487   0.029   2.899 -0.0756  2.0032 -1.0841
  699SOL    HW2 2097   1.620   0.144   2.865 -0.5180 -2.1017 -0.6262
  700SOL     OW 2098   0.979   2.359   1.394 -0.2952 -0.2816  0.0299
  700SOL    HW1 2099   1.059   2.296   1.367  1.7198 -0.4722  0.5613
  700SOL    HW2 2100   0.894   2.348   1.338  0.7958  0.2230  3.5640
  701SOL     OW 2101   1.853   2.799   0.049  0.3535  0.0338 -0.2343
  701SOL    HW1 2102   1.887   2.718   0.106 -0.4195 -0.1523 -0.9865
  701SOL    HW2 2103   1.882   2.893   0.082 -1.3840  2.4541 -0.2551
  702SOL     OW 2104   2.090   1.399   1.880  0.2166  0.1484 -0.4429
  702SOL    HW1 2105   2.182   1.354   1.916  2.9502 -1.2051 -1.1215
  702SOL    HW2 2106   2.105   1.428   1.783  1.0492 -1.9233 -0.8022
  703SOL     OW 2107   1.969   0.842   1.473  0.2127 -0.1166 -0.1080
  703SOL    HW1 2108   1.948   0.746   1.513 -0.2326  0.0664 -0.3221
  703SOL    HW2 2109   2.040   0.886   1.533  0.8904  1.5799  0.9987
  704SOL     OW 2110   0.337   2.024   1.755 -0.6613  0.1516  0.2470
  704SOL    HW1 2111   0.383   1.953   1.819  1.2154 -1.2284 -0.1133
  704SOL    HW2 2112   0.403   2.097   1.723  2.8793  1.2998 -0.7220
  705SOL     OW 2113   2.548   1.404   0.868 -0.1869 -0.0545 -0.2893
  705SOL    HW1 2114   2.444   1.385   0.873 -0.4154  0.9457  0.4175
  705SOL    HW2 2115   2.604   1.362   0.948 -0.8284  2.7025 -0.1640
  706SOL     OW 2116   0.636   1.749   1.895 -0.3560  0.0179  0.3592
  706SOL    HW1 2117   0.652   1.648   1.917  2.1455 -0.5173  1.4256
  706SOL    HW2 2118   0.718   1.812   1.929 -1.8253  1.1614  3.0086
  707SOL     OW 2119   2.295   1.230   1.944  0.1726  0.3490  0.5683
  707SOL    HW1 2120   2.399   1.211   1.945 -1.7483  1.0986 -1.3061
  707SOL    HW2 2121   2.244   1.143   1.928  0.9344  0.3551 -1.2105
  708SOL     OW 2122   3.075   0.464   3.027  0.0735  0.5444 -0.2081
  708SOL    HW1 2123   3.122   0.543   2.972 -0.9133  3.2834 -0.0988
  708SOL    HW2 2124   3.007   0.403   2.971 -2.0835 -3.0478  1.9605
  709SOL     OW 2125   1.787   1.866   0.299 -0.5211 -0.0164  0.1092
  709SOL    HW1 2126   1.810   1.967   0.317 -2.1454 -0.2515 -0.8499
  709SOL    HW2 2127   1.798   1.836   0.202  1.2618 -0.3679 -2.4310
  710SOL     OW 2128   1.758   1.628   2.454  0.1646  0.3089  0.3015
  710SOL    HW1 2129   1.810   1.597   2.366 -1.9044  0.1726 -0.5087
  710SOL    HW2 2130   1.811   1.621   2.543 -0.4335 -2.2207 -2.7043
  711SOL     OW 2131   2.635   2.945   0.966  0.9215  0.8079 -0.0786
  711SOL    HW1 2132   2.626   3.044   0.938 -0.5724 -2.8389  1.8637
  711SOL    HW2 2133   2.731   2.914   0.998  0.3275 -0.7944 -4.0598
  712SOL     OW 2134   1.462   2.295   1.791 -0.2486 -0.6150 -0.7302
  712SOL    HW1 2135   1.537   2.228   1.810  0.3351  0.1706  0.9918
  712SOL    HW2 2136   1.409   2.283   1.700 -1.4407 -2.1192 -0.5618
  713SOL     OW 2137   2.827   1.362   2.495  0.1193 -1.4645 -0.5149
  713SOL    HW1 2138   2.825   1.254   2.497 -0.9380 -2.8918 -0.7848
  713SOL    HW2 2139   2.738   1.409   2.528 -0.6335  2.8248 -0.4694
  714SOL     OW 2140   2.637   0.471   2.441 -0.1983 -0.7700 -0.4761
  714SOL    HW1 2141   2.556   0.466   2.508  0.1385  0.9070 -0.4472
  714SOL    HW2 2142   2.609   0.484   2.340 -0.8750 -1.4324 -0.4917
  715SOL     OW 2143   1.598   2.102   1.134  0.4930  0.3958 -0.4817
  715SOL    HW1 2144   1.563   2.198   1.119  1.5293  0.8010  0.3295
  715SOL    HW2 2145   1.641   2.093   1.232 -0.8850  2.7347  1.1020
  716SOL     OW 2146   1.225   0.211   1.459  0.0090  0.1228 -0.0758
  716SOL    HW1 2147   1.124   0.238   1.449 -0.6229  0.0554  1.3154
  716SOL    HW2 2148   1.290   0.291   1.442 -0.0714  0.4171 -4.1248
  717SOL     OW 2149   1.082   0.627   1.590 -0.6219 -0.0029 -0.0957
  717SOL    HW1 2150   1.178   0.650   1.613  0.1807 -0.9674  0.5980
  717SOL    HW2 2151   1.077   0.586   1.496 -0.4067 -1.0559  2.1014
  718SOL     OW 2152   0.642   1.082   0.977  0.8294  0.4888 -0.0507
  718SOL    HW1 2153   0.630   1.047   0.883  0.2362  1.1288  0.9657
  718SOL    HW2 2154   0.729   1.128   0.995  0.2250 -1.1381  0.5981
  719SOL     OW 2155   0.779   1.848   2.250 -0.5430  0.1407  0.2232
  719SOL    HW1 2156   0.844   1.880   2.322 -0.1149 -1.2094 -1.4405
  719SOL    HW2 2157   0.685   1.839   2.284 -4.5324 -2.8236 -0.1026
  720SOL     OW 2158   2.240   1.108   0.222  0.3713 -0.2342 -0.0688
  720SOL    HW1 2159   2.344   1.084   0.207  2.6974  3.1531 -0.3267
  720SOL    HW2 2160   2.217   1.106   0.325  1.9032 -0.6596  0.9214
  721SOL     OW 2161   2.207   0.059   2.084 -0.4022 -0.2446 -0.7300
  721SOL    HW1 2162   2.234   0.125   2.008  0.4437 -0.3631  0.7121
  721SOL    HW2 2163   2.106   0.032   2.084 -1.6901  1.8712  1.7075
  722SOL     OW 2164   2.339   1.659   0.508  0.0342  0.1234 -0.0803
  722SOL    HW1 2165   2.341   1.625   0.408  1.0551  4.3054 -0.2853
  722SOL    HW2 2166   2.245   1.657   0.549  0.2164  0.3362 -1.7343
  723SOL     OW 2167   2.579   2.836   1.893 -0.6694  0.1225 -0.1318
  723SOL    HW1 2168   2.637   2.840   1.986  1.3950 -2.8856  2.2864
  723SOL    HW2 2169   2.480   2.851   1.915  1.5541 -0.9372 -0.7765
  724SOL     OW 2170   0.399   2.431   2.405 -0.5944  0.3295  0.2818
  724SOL    HW1 2171   0.301   2.461   2.393  0.8473  1.0517  0.1287
  724SOL    HW2 2172   0.442   2.441   2.500 -1.3672 -0.9893 -1.3129
  725SOL     OW 2173   2.291   2.757   1.432 -0.4646  0.0521  0.4197
  725SOL    HW1 2174   2.363   2.790   1.372  0.9126 -4.1799 -0.0251
  725SOL    HW2 2175   2.311   2.660   1.457 -1.4609  1.0145  0.5689
  726SOL     OW 2176   2.389   2.258   0.774  0.2765 -0.2593  0.3594
  726SOL    HW1 2177   2.342   2.352   0.794 -0.4135  0.7860  3.9493
  726SOL    HW2 2178   2.349   2.211   0.692 -2.8516  0.8201  2.9042
  727SOL     OW 2179   0.221   0.023   0.144 -0.0973 -0.7497  0.6931
  727SOL    HW1 2180   0.252  -0.072   0.124  0.3570 -0.7798  0.7586
  727SOL    HW2 2181   0.222   0.085   0.058 -1.1579 -3.0598 -1.7364
  728SOL     OW 2182   2.776   0.720   1.043  0.5047 -0.1811  0.0990
  728SOL    HW1 2183   2.711   0.699   0.968  2.2922 -1.3356  0.7020
  728SOL    HW2 2184   2.783   0.645   1.117  2.3744  1.5598  2.0348
  729SOL     OW 2185   2.916   2.467   0.736 -0.1488  0.2587  0.6256
  729SOL    HW1 2186   2.881   2.371   0.739 -3.4157  1.4143  0.9975
  729SOL    HW2 2187   3.018   2.472   0.723 -3.3836 -1.1850  0.0382
  730SOL     OW 2188   2.603   0.568   0.870 -0.2219 -0.7441  0.3587
  730SOL    HW1 2189   2.537   0.649   0.854  2.6344  0.6226  1.6664
  730SOL    HW2 2190   2.664   0.558   0.783 -0.1857  0.2532  4.0652
  731SOL     OW 2191   0.041   2.122   2.453  0.1261  0.2094  0.5248
  731SOL    HW1 2192   0.113   2.140   2.524  0.2493  3.6106 -1.7653
  731SOL    HW2 2193  -0.053   2.084   2.489  1.4791 -1.9258 -2.2787
  732SOL     OW 2194   1.138   2.846   1.947  0.2119 -0.2817  0.2231
  732SOL    HW1 2195   1.148   2.773   2.021  0.8178 -0.5940  1.9968
  732SOL    HW2 2196   1.147   2.804   1.853 -0.9739  0.1179  0.0838
  733SOL     OW 2197   3.034   0.721   2.090 -0.7225 -0.2218  0.6099
  733SOL    HW1 2198   3.120   0.784   2.100 -0.5788  1.2150  2.5154
  733SOL    HW2 2199   3.053   0.624   2.055 -0.4480 -0.6972 -0.3084
  734SOL     OW 2200   1.391   0.358   2.701  0.3656  0.1536 -0.1347
  734SOL    HW1 2201   1.408   0.437   2.763  0.1429 -0.0554  2.3215
  734SOL    HW2 2202   1.310   0.299   2.737 -0.7402  1.3161 -1.4478
  735SOL     OW 2203   2.835   2.596   2.275 -0.4016 -0.3094  0.0459
  735SOL    HW1 2204   2.768   2.596   2.193 -0.2154 -0.8046  1.0960
  735SOL    HW2 2205   2.931   2.602   2.248 -2.9173 -1.1454  0.7651
  736SOL     OW 2206   0.799   0.379   2.635 -0.2238 -0.5967 -0.7930
  736SOL    HW1 2207   0.726   0.450   2.647  0.4420 -4.4600 -1.5195
  736SOL    HW2 2208   0.810   0.346   2.538  1.3488 -2.8008 -0.2679
  737SOL     OW 2209   2.682   0.465   2.801 -0.1846 -0.3562  0.0253
  737SOL    HW1 2210   2.669   0.442   2.901  0.2089  0.8478  3.1694
  737SOL    HW2 2211   2.770   0.427   2.762  0.7926 -0.1887  0.9609
  738SOL     OW 2212   1.655   1.215   3.030  0.4946 -0.4705  0.0393
  738SOL    HW1 2213   1.754   1.195   3.011  0.8838  0.2034  1.0981
  738SOL    HW2 2214   1.588   1.147   2.987 -2.7254  2.3472  0.8572
  739SOL     OW 2215   1.762   0.628   0.701 -0.3066 -0.1047 -0.1569
  739SOL    HW1 2216   1.804   0.623   0.795 -2.3231 -0.3761 -0.6062
  739SOL    HW2 2217   1.809   0.562   0.633 -1.5106 -0.3950 -1.4590
  740SOL     OW 2218   1.940   1.946   2.170 -0.4424  0.8037 -0.6453
  740SOL    HW1 2219   2.006   1.963   2.094  1.1391  1.5062  1.1691
  740SOL    HW2 2220   1.862   1.886   2.134  1.8585  1.2197 -1.9291
  741SOL     OW 2221   2.495   0.122   2.577  0.1535  0.4728 -0.3600
  741SOL    HW1 2222   2.590   0.090   2.608  0.6389  1.9203 -1.3375
  741SOL    HW2 2223   2.472   0.089   2.478  0.2719 -0.5733 -1.3620
  742SOL     OW 2224   2.249   1.374   0.109  0.3709  0.4989 -0.3794
  742SOL    HW1 2225   2.170   1.435   0.115 -0.9438 -3.0895  0.5926
  742SOL    HW2 2226   2.222   1.274   0.118  0.8607 -0.0666  1.4823
  743SOL     OW 2227   1.746   0.601   2.603  0.0955  0.5107 -0.2748
  743SOL    HW1 2228   1.752   0.568   2.506  0.6055  0.2851  1.5621
  743SOL    HW2 2229   1.662   0.653   2.627 -0.5662  0.7306 -2.3877
  744SOL     OW 2230   2.640   2.093   0.038 -0.3207  0.0554 -0.7081
  744SOL    HW1 2231   2.538   2.099   0.060  0.2513  0.5735  1.0594
  744SOL    HW2 2232   2.690   2.043   0.114  1.9232 -0.9367  1.0256
  745SOL     OW 2233   2.158   2.715   2.216 -0.1919  0.1572 -0.0910
  745SOL    HW1 2234   2.074   2.662   2.182  1.2252 -0.8320  1.5174
  745SOL    HW2 2235   2.137   2.775   2.295  2.5690 -0.9443 -1.0377
  746SOL     OW 2236   3.085   2.615   1.826  0.1290  0.3363  0.5067
  746SOL    HW1 2237   3.189   2.607   1.806  1.6282 -1.1022  0.2784
  746SOL    HW2 2238   3.063   2.716   1.847 -0.3907  2.1441 -2.6923
  747SOL     OW 2239   3.079   1.804   1.708  0.5201 -0.2429  0.1241
  747SOL    HW1 2240   3.059   1.705   1.678  1.5723 -0.1779  0.6569
  747SOL    HW2 2241   3.169   1.841   1.668  1.5658  0.4900  1.5495
  748SOL     OW 2242   1.744   2.770   2.877  0.1601  0.1679  0.5534
  748SOL    HW1 2243   1.767   2.811   2.968 -1.3185  2.0598  1.4169
  748SOL    HW2 2244   1.640   2.762   2.871  1.3520  0.2051 -1.5470
  749SOL     OW 2245   1.268   0.070   0.842  0.1014  0.5278  0.3964
  749SOL    HW1 2246   1.227  -0.026   0.839  0.1855  0.3281  1.5520
  749SOL    HW2 2247   1.297   0.113   0.748  0.5114 -2.5876 -3.1783
  750SOL     OW 2248   2.374   0.215   1.900 -0.0847  0.4572 -0.2529
  750SOL    HW1 2249   2.396   0.266   1.809 -0.1108  0.8922 -0.4447
  750SOL    HW2 2250   2.387   0.280   1.981 -2.0001 -1.7699 -3.7601
  751SOL     OW 2251   0.845   2.234   2.841  0.2256 -0.0750  0.6425
  751SOL    HW1 2252   0.883   2.239   2.938  3.3195 -0.1709  1.4827
  751SOL    HW2 2253   0.779   2.153   2.825 -1.1201  0.4543  0.4246
  752SOL     OW 2254   1.238   0.922   1.566 -0.0151  0.5697 -0.3713
  752SOL    HW1 2255   1.300   0.965   1.495 -1.4891 -1.9067 -1.9382
  752SOL    HW2 2256   1.277   0.834   1.604  0.1613  1.6456 -1.3403
  753SOL     OW 2257   0.938   2.629   1.782 -0.6227 -0.2895  0.5905
  753SOL    HW1 2258   1.035   2.647   1.752 -0.4221  2.7338 -0.8687
  753SOL    HW2 2259   0.873   2.702   1.745  0.8138 -1.7749 -2.5292
  754SOL     OW 2260   1.126   1.249   3.067  0.4309  0.1347 -0.1877
  754SOL    HW1 2261   1.187   1.199   3.001 -0.4856  3.7429  1.6385
  754SOL    HW2 2262   1.112   1.348   3.039 -2.8145  0.2877  0.2645
  755SOL     OW 2263   1.997   0.520   2.226  0.1609  0.4832 -0.1109
  755SOL    HW1 2264   2.051   0.441   2.259 -1.5662 -0.3270 -0.5794
  755SOL    HW2 2265   1.903   0.524   2.276 -0.8398 -3.1835 -1.2516
  756SOL     OW 2266   2.636   0.995   2.919 -0.1226 -0.6901 -0.4063
  756SOL    HW1 2267   2.723   0.939   2.905 -1.5853  0.3512  1.8852
  756SOL    HW2 2268   2.576   0.955   2.989  0.2541  1.3787 -0.1247
  757SOL     OW 2269   0.128   0.547   1.713 -0.2435  0.0142 -0.6183
  757SOL    HW1 2270   0.115   0.643   1.669 -0.2177  1.8859 -1.6670
  757SOL    HW2 2271   0.167   0.480   1.648  0.2922  1.1668 -1.2951
  758SOL     OW 2272   2.410   3.086   1.542  0.3038  0.0434 -0.1171
  758SOL    HW1 2273   2.336   3.044   1.603  0.1792  1.7147 -0.3179
  758SOL    HW2 2274   2.378   3.093   1.439 -0.3978  1.4540 -1.0536
  759SOL     OW 2275   1.674   3.091   0.067 -0.2935  0.2818  0.2407
  759SOL    HW1 2276   1.633   3.127  -0.018  1.3992 -1.0914  2.3121
  759SOL    HW2 2277   1.770   3.063   0.044 -2.0520 -0.5599 -1.2342
  760SOL     OW 2278   2.720   2.007   2.809  0.6464 -0.0755  0.0220
  760SOL    HW1 2279   2.789   1.941   2.766  1.1126  0.2666 -1.9780
  760SOL    HW2 2280   2.760   2.105   2.827 -3.2010 -0.2363  2.2474
  761SOL     OW 2281   1.931   1.702   1.603 -0.3871  0.6715 -0.1414
  761SOL    HW1 2282   1.986   1.615   1.600 -2.3275  1.1407 -0.2236
  761SOL    HW2 2283   1.840   1.696   1.550 -0.7580  2.5687 -1.2038
  762SOL     OW 2284   0.529   2.404   0.943  0.0088  0.4556  0.1368
  762SOL    HW1 2285   0.600   2.398   0.867  1.8866 -0.6375 -0.2094
  762SOL    HW2 2286   0.555   2.462   1.020  2.8780 -2.3029 -0.8144
  763SOL     OW 2287   2.058   1.552   2.972 -0.7592  0.3896 -0.1519
  763SOL    HW1 2288   2.101   1.513   2.885 -2.1583 -1.5011 -1.0606
  763SOL    HW2 2289   1.968   1.502   3.003 -1.3961 -0.8587 -2.0270
  764SOL     OW 2290   0.683   0.531   0.883 -0.4152  0.0565 -0.3118
  764SOL    HW1 2291   0.691   0.476   0.795 -0.5277 -1.7523 -1.4742
  764SOL    HW2 2292   0.771   0.551   0.934  0.6747 -1.5206  2.3638
  765SOL     OW 2293   0.667   0.231   0.783 -0.3493 -0.6470  0.3278
  765SOL    HW1 2294   0.757   0.244   0.733  1.4294  1.2217  1.1460
  765SOL    HW2 2295   0.676   0.255   0.885 -0.5763 -1.4351  1.1335
  766SOL     OW 2296   2.942   2.053   3.101 -0.0031 -0.4949 -0.7277
  766SOL    HW1 2297   2.844   2.026   3.073 -0.2303 -1.8352  0.3691
  766SOL    HW2 2298   2.978   2.132   3.045  0.2786  1.7993 -1.1991
  767SOL     OW 2299   2.859   1.566   0.506 -0.4606  0.0819 -0.2594
  767SOL    HW1 2300   2.758   1.554   0.532 -2.3076 -1.2901 -1.2298
  767SOL    HW2 2301   2.914   1.623   0.578 -0.5102 -2.8774  2.0836
  768SOL     OW 2302   1.064   0.275   0.298 -0.9288  0.0083 -0.5367
  768SOL    HW1 2303   0.991   0.209   0.286  0.3688  0.3225 -0.3860
  768SOL    HW2 2304   1.157   0.230   0.294 -0.1507  1.2741 -1.9054
  769SOL     OW 2305   1.209   1.821   2.266  0.3085  0.0213  1.0562
  769SOL    HW1 2306   1.297   1.814   2.329  0.4444 -0.6418  0.3096
  769SOL    HW2 2307   1.153   1.735   2.254 -0.9959 -3.1715  1.8895
  770SOL     OW 2308   0.153   1.145   2.382 -0.8255 -0.5781 -0.9242
  770SOL    HW1 2309   0.135   1.197   2.470  1.8140 -0.7918 -1.6394
  770SOL    HW2 2310   0.072   1.132   2.321  3.3484  0.3639  2.3811
  771SOL     OW 2311   2.921   2.837   1.948  0.5153  0.2142 -0.5826
  771SOL    HW1 2312   2.908   2.898   1.866  1.1792 -2.0862  0.6140
  771SOL    HW2 2313   2.868   2.873   2.035 -1.6943 -0.5804  3.2600
  772SOL     OW 2314   2.142   0.110   2.976 -0.3863 -0.5170  0.0737
  772SOL    HW1 2315   2.222   0.058   3.015 -1.3260 -0.4867  0.5617
  772SOL    HW2 2316   2.140   0.206   3.021  1.5895  2.4914 -0.7049
  773SOL     OW 2317   0.670   2.086   2.470  0.0742  0.5973  0.3636
  773SOL    HW1 2318   0.635   2.121   2.378 -1.7083 -2.2182  0.1485
  773SOL    HW2 2319   0.594   2.070   2.541 -0.9788 -0.6751 -0.6250
  774SOL     OW 2320   2.036   3.083   2.619 -0.4978 -0.0275  0.6455
  774SOL    HW1 2321   2.024   3.177   2.668 -1.0248 -2.5247  0.8210
  774SOL    HW2 2322   2.094   3.012   2.666  0.6328 -1.2137 -0.4454
  775SOL     OW 2323   2.494   2.850   2.333  0.3363  0.5024  0.8773
  775SOL    HW1 2324   2.480   2.950   2.340  0.3919  0.0288  0.5598
  775SOL    HW2 2325   2.568   2.817   2.399  0.5165 -1.7827 -1.9024
  776SOL     OW 2326   0.032   1.239   0.217 -0.3304 -0.3972  0.1227
  776SOL    HW1 2327  -0.012   1.178   0.147 -3.1536 -4.0588  2.3648
  776SOL    HW2 2328  -0.047   1.296   0.259 -1.4982  0.3421  0.1110
  777SOL     OW 2329   0.263   2.694   0.454  0.2314  0.6067 -0.1054
  777SOL    HW1 2330   0.160   2.665   0.454 -0.8391  0.7059  1.2690
  777SOL    HW2 2331   0.273   2.791   0.488 -0.2784  0.0017  0.1955
  778SOL     OW 2332   1.354   1.944   0.189 -0.2258  0.3565 -0.1043
  778SOL    HW1 2333   1.297   1.978   0.271 -1.0848  0.4759  1.0644
  778SOL    HW2 2334   1.366   2.023   0.119  0.5624  1.0583 -1.3303
  779SOL     OW 2335   0.189   0.806   0.543 -0.1420 -0.4345 -0.3006
  779SOL    HW1 2336   0.166   0.710   0.516 -0.1732  0.0010  1.6876
  779SOL    HW2 2337   0.115   0.852   0.596  3.6433  0.6011 -2.1081
  780SOL     OW 2338   0.005   0.327   2.387 -0.0973 -0.5112 -0.0564
  780SOL    HW1 2339  -0.040   0.423   2.381 -1.1913 -1.6528  0.9839
  780SOL    HW2 2340   0.096   0.329   2.343 -0.5006 -1.6434  1.4302
  781SOL     OW 2341   0.590   1.717   1.630 -0.2169  0.4738  0.0599
  781SOL    HW1 2342   0.605   1.704   1.735  1.3591 -0.9563  1.7942
  781SOL    HW2 2343   0.499   1.677   1.602  1.2259  1.8878  0.1709
  782SOL     OW 2344   2.640   0.107   0.895 -0.1336 -0.1637 -0.2414
  782SOL    HW1 2345   2.561   0.138   0.831  1.5129 -0.2537 -1.8850
  782SOL    HW2 2346   2.630   0.140   0.996 -3.2562  0.2303 -1.4307
  783SOL     OW 2347   2.816   0.676   2.489 -0.1732  0.2237  0.5359
  783SOL    HW1 2348   2.789   0.711   2.582  2.4757 -2.0157 -0.3613
  783SOL    HW2 2349   2.744   0.600   2.465  0.1360  1.7353 -0.9631
  784SOL     OW 2350   1.396   2.171   0.046 -0.6362 -0.3858 -0.1586
  784SOL    HW1 2351   1.486   2.206   0.095  1.4000  1.1620  2.8607
  784SOL    HW2 2352   1.400   2.188  -0.056 -1.2784 -2.4812  0.7608
  785SOL     OW 2353   2.127   0.343   0.017 -0.1807  0.1855  0.0642
  785SOL    HW1 2354   2.052   0.336   0.081  2.7140  0.0982  0.3725
  785SOL    HW2 2355   2.146   0.433  -0.022  1.1598 -2.4201  0.4288
  786SOL     OW 2356   2.028   2.151   2.314  0.6186 -0.0801 -0.0340
  786SOL    HW1 2357   1.992   2.064   2.259  1.4075  1.2581  0.0035
  786SOL    HW2 2358   2.125   2.131   2.348 -0.4436 -1.2193 -2.3651
  787SOL     OW 2359   1.416   0.613   0.811  0.4185 -0.2308 -0.2544
  787SOL    HW1 2360   1.387   0.715   0.828 -0.4384  2.3618 -1.4148
  787SOL    HW2 2361   1.451   0.589   0.718  3.7263 -1.1611  1.0900
  788SOL     OW 2362   1.217   0.457   3.023  0.3952  0.3433 -0.3721
  788SOL    HW1 2363   1.121   0.464   2.998  0.1529 -1.5770 -0.5518
  788SOL    HW2 2364   1.280   0.512   2.959 -2.9409  0.7795  0.1373
  789SOL     OW 2365   2.638   0.109   1.876  0.4272 -0.2237  0.2800
  789SOL    HW1 2366   2.541   0.097   1.895  0.3580 -3.4579 -1.0854
  789SOL    HW2 2367   2.682   0.023   1.834  1.8225  0.6610 -0.1174
  790SOL     OW 2368   2.600   2.668   0.803  0.2137  0.0755  0.0733
  790SOL    HW1 2369   2.682   2.670   0.744  1.3138  2.1318  0.9372
  790SOL    HW2 2370   2.575   2.769   0.825  3.4460 -0.1491  0.9969
  791SOL     OW 2371   1.978   1.244   0.241 -0.5179  0.0241 -0.1194
  791SOL    HW1 2372   1.891   1.197   0.258  3.0925  0.3394  1.8962
  791SOL    HW2 2373   2.057   1.179   0.262 -0.0115 -3.5980 -1.8559
  792SOL     OW 2374   0.427   1.989   2.192 -0.0426 -0.4101 -0.2849
  792SOL    HW1 2375   0.482   2.078   2.213  1.5887  0.5058 -0.9622
  792SOL    HW2 2376   0.348   1.977   2.260 -0.2267 -1.5773 -0.6136
  793SOL     OW 2377   2.094   1.518   2.156 -0.5576 -0.2655 -0.5412
  793SOL    HW1 2378   2.189   1.546   2.150  0.1733 -2.4932 -0.9151
  793SOL    HW2 2379   2.081   1.468   2.062 -1.5705 -2.1601 -0.5127
  794SOL     OW 2380   0.515   1.491   2.469  0.5972  0.3462 -0.2173
  794SOL    HW1 2381   0.546   1.437   2.391 -0.7643  3.1680 -1.5700
  794SOL    HW2 2382   0.431   1.545   2.437  1.2922  0.0016 -0.3410
  795SOL     OW 2383   2.518   2.308   1.800 -0.3306 -0.2522  0.1864
  795SOL    HW1 2384   2.570   2.292   1.888 -1.5443 -0.2035 -2.0384
  795SOL    HW2 2385   2.433   2.250   1.784 -1.8954 -1.1308 -0.8736
  796SOL     OW 2386   3.054   1.074   2.720  0.0462  0.2409  0.2954
  796SOL    HW1 2387   2.948   1.091   2.733 -1.7337 -1.0554 -0.2336
  796SOL    HW2 2388   3.116   1.113   2.799 -1.0411  0.4617  0.8653
  797SOL     OW 2389   0.656   0.656   1.348 -0.4965  0.1299 -0.0852
  797SOL    HW1 2390   0.745   0.689   1.397  1.7871 -1.2882  0.0154
  797SOL    HW2 2391   0.624   0.709   1.264 -0.6357  0.7553 -1.7122
  798SOL     OW 2392   1.166   0.504   0.911 -0.0030  0.2687 -0.1926
  798SOL    HW1 2393   1.202   0.530   1.002 -0.9985  2.0693 -0.7826
  798SOL    HW2 2394   1.221   0.545   0.831  2.3269  0.3242 -0.6866
  799SOL     OW 2395   1.820   2.694   1.003  0.0676 -0.1484 -0.0379
  799SOL    HW1 2396   1.831   2.603   1.050  3.1920  0.8752  2.5721
  799SOL    HW2 2397   1.831   2.687   0.899  3.2063  1.9241 -1.6646
  800SOL     OW 2398   2.966   0.849   1.838  0.6708 -0.3259  0.4238
  800SOL    HW1 2399   2.979   0.952   1.853  0.4161  1.2414  0.5235
  800SOL    HW2 2400   2.943   0.805   1.929  0.2974 -0.3020  2.1007
  801SOL     OW 2401   1.962   2.165   0.112  0.0206  0.2513 -0.2802
  801SOL    HW1 2402   1.877   2.170   0.057 -0.2511  0.2896  1.2921
  801SOL    HW2 2403   2.034   2.101   0.070  0.8151  1.5154 -2.5727
  802SOL     OW 2404   0.666   0.608   2.521  0.6750  0.1648 -0.1417
  802SOL    HW1 2405   0.734   0.610   2.442  2.1227  0.1241 -1.1521
  802SOL    HW2 2406   0.573   0.644   2.489 -0.9512  1.3981  1.3344
  803SOL     OW 2407   0.933   0.063   0.896 -0.3698  0.3123  0.0276
  803SOL    HW1 2408   0.997   0.133   0.944  0.3358  1.4017  0.2408
  803SOL    HW2 2409   0.909   0.098   0.800  3.8153  0.9832  0.9593
  804SOL     OW 2410   0.311   0.022   2.188 -0.5640 -0.3183  0.1621
  804SOL    HW1 2411   0.262   0.111   2.203  0.4180 -0.0534 -0.2302
  804SOL    HW2 2412   0.260  -0.032   2.118 -0.1718 -0.1894 -0.4334
  805SOL     OW 2413   2.420   0.374   0.347 -0.2115  0.0795 -0.0920
  805SOL    HW1 2414   2.483   0.350   0.430  0.7429  0.5445  0.5989
  805SOL    HW2 2415   2.431   0.308   0.262  0.7290 -1.7633 -2.4484
  806SOL     OW 2416   0.593   2.593   1.830 -0.5525  0.3373  0.2483
  806SOL    HW1 2417   0.554   2.674   1.887 -2.1047  1.9092  1.8675
  806SOL    HW2 2418   0.653   2.626   1.754 -2.3745  2.4257  0.3261
  807SOL     OW 2419   2.516   0.940   0.469  0.3248  0.1139 -0.1885
  807SOL    HW1 2420   2.613   0.900   0.483 -3.1430 -1.1858  0.0320
  807SOL    HW2 2421   2.507   0.987   0.375 -0.7061  2.4240  0.4852
  808SOL     OW 2422   0.647   2.015   2.901 -0.1211  0.2352  0.2169
  808SOL    HW1 2423   0.608   2.052   2.989  0.2017 -3.0884 -1.0634
  808SOL    HW2 2424   0.661   1.911   2.904  1.2265  0.6299  2.1972
  809SOL     OW 2425   2.577   1.972   1.902  0.1868 -0.0940  0.1670
  809SOL    HW1 2426   2.674   2.016   1.914  2.6613  1.6605  4.3473
  809SOL    HW2 2427   2.546   1.987   1.806 -1.7302 -0.3047 -0.0682
  810SOL     OW 2428   2.212   1.123   0.494 -0.1698 -0.1682 -0.0654
  810SOL    HW1 2429   2.209   1.032   0.540 -1.7329 -1.4540 -1.4003
  810SOL    HW2 2430   2.151   1.191   0.545 -1.2304  0.7893 -3.7060
  811SOL     OW 2431   1.293   2.533   1.180 -0.2071 -0.4136 -0.7457
  811SOL    HW1 2432   1.264   2.433   1.179  1.4758 -0.8944  1.1255
  811SOL    HW2 2433   1.327   2.563   1.274  3.8403 -5.0640  0.3068
  812SOL     OW 2434   1.456   0.742   1.923  0.3828  0.2254  0.0381
  812SOL    HW1 2435   1.394   0.781   1.998 -2.9114  0.2746  1.1443
  812SOL    HW2 2436   1.504   0.822   1.877  3.3289 -0.7640 -0.9364
  813SOL     OW 2437   1.648   2.076   2.380  0.4243  0.2106  0.2927
  813SOL    HW1 2438   1.741   2.048   2.420  1.4856 -3.2151 -1.9496
  813SOL    HW2 2439   1.637   2.044   2.281  0.4296 -0.3954  1.6347
  814SOL     OW 2440   3.000   1.689   2.876 -0.5360 -0.8664  0.5006
  814SOL    HW1 2441   3.070   1.664   2.946  1.3938 -4.2466  0.3563
  814SOL    HW2 2442   2.996   1.789   2.851 -0.2883 -1.2151  2.3118
  815SOL     OW 2443   2.177   2.871   2.741  0.2066 -0.2837  0.2281
  815SOL    HW1 2444   2.162   2.795   2.809 -0.1572  1.8367  1.9600
  815SOL    HW2 2445   2.269   2.922   2.752  0.8027  0.9833  0.0685
  816SOL     OW 2446   1.502   0.345   1.679 -0.5383  0.4376 -0.3842
  816SOL    HW1 2447   1.546   0.251   1.685 -1.6597 -0.8810 -1.6426
  816SOL    HW2 2448   1.451   0.368   1.767 -0.7779  3.1673 -0.1310
  817SOL     OW 2449   0.375   1.321   2.623 -0.3658  0.1504 -0.2496
  817SOL    HW1 2450   0.274   1.335   2.636  1.9913  3.6905  0.0676
  817SOL    HW2 2451   0.410   1.402   2.570 -1.8157 -0.2005 -0.6086
  818SOL     OW 2452   2.018   0.862   0.468  0.1331  0.1376  0.1461
  818SOL    HW1 2453   2.109   0.820   0.437 -1.8665  2.0652 -0.7932
  818SOL    HW2 2454   1.991   0.849   0.569 -0.0565 -0.6390 -0.1138
  819SOL     OW 2455   2.789   2.886   3.036  0.4596  0.5137 -0.4681
  819SOL    HW1 2456   2.846   2.798   3.028 -0.3481 -1.5192 -0.1343
  819SOL    HW2 2457   2.698   2.887   2.978 -0.1087 -0.6805 -0.5676
  820SOL     OW 2458   1.266   1.045   0.532 -0.1954  0.1224  0.2336
  820SOL    HW1 2459   1.304   1.122   0.589 -3.4415 -2.2548  1.6053
  820SOL    HW2 2460   1.260   0.960   0.592  3.1187  0.7213 -0.4911
  821SOL     OW 2461   0.074   1.218   0.692  0.0337  0.7166 -0.2690
  821SOL    HW1 2462   0.017   1.226   0.784 -4.2701  0.0228  1.9735
  821SOL    HW2 2463   0.147   1.286   0.683 -1.0983 -0.3311 -2.1410
  822SOL     OW 2464   2.527   1.735   2.472  0.4539 -0.8651  0.3974
  822SOL    HW1 2465   2.527   1.819   2.536  1.8713  0.6581  0.5415
  822SOL    HW2 2466   2.433   1.730   2.421  0.1258  0.0428  0.0967
  823SOL     OW 2467   2.019   0.933   1.217  0.3121 -0.4076  0.2740
  823SOL    HW1 2468   2.000   0.903   1.312 -1.9637 -1.2840 -0.2488
  823SOL    HW2 2469   1.929   0.916   1.165  0.5320  0.9472 -0.6405
  824SOL     OW 2470   0.184   1.888   2.785 -0.3549 -0.1761  0.0617
  824SOL    HW1 2471   0.229   1.872   2.880  0.6797 -1.4213  0.0054
  824SOL    HW2 2472   0.257   1.888   2.709  1.9617 -2.7297  3.5314
  825SOL     OW 2473   1.301   1.078   0.269 -0.3207 -0.2772 -0.2193
  825SOL    HW1 2474   1.340   1.170   0.237  1.7639  1.0399  1.2917
  825SOL    HW2 2475   1.274   1.075   0.366  4.1898 -2.2345 -1.7300
  826SOL     OW 2476   1.935   0.598   1.590  0.1186  0.2520  0.1239
  826SOL    HW1 2477   2.019   0.562   1.638 -0.2080 -0.1791 -1.9298
  826SOL    HW2 2478   1.863   0.525   1.583 -0.8225  1.0426  0.1903
  827SOL     OW 2479   0.705   1.194   0.440 -0.2363 -0.4519  0.6941
  827SOL    HW1 2480   0.784   1.145   0.393 -0.1108 -1.3103  2.1302
  827SOL    HW2 2481   0.618   1.143   0.428  1.4489  2.1224 -2.3604
  828SOL     OW 2482   2.632   0.153   1.527  0.1565  0.2316 -0.1227
  828SOL    HW1 2483   2.554   0.087   1.530  1.3923  1.0502 -0.6196
  828SOL    HW2 2484   2.657   0.188   1.620  0.0949  0.4836  2.7088
  829SOL     OW 2485   2.931   2.392   2.968 -0.1827 -0.0674  0.2339
  829SOL    HW1 2486   2.829   2.377   2.992 -2.7767 -2.9907  1.0392
  829SOL    HW2 2487   2.964   2.488   2.984  1.4792 -1.9883  0.0047
  830SOL     OW 2488   2.899   0.897   2.981  0.9808  0.6168  0.6471
  830SOL    HW1 2489   2.925   0.989   3.019  1.6685  0.0567 -1.4909
  830SOL    HW2 2490   2.919   0.813   3.038 -2.2463 -0.1382  1.4269
  831SOL     OW 2491   0.129   0.566   0.429 -0.0314 -0.1612  0.5506
  831SOL    HW1 2492   0.086   0.503   0.500  0.7748  0.4348  1.0302
  831SOL    HW2 2493   0.130   0.530   0.332 -3.0322 -0.8097  2.0031
  832SOL     OW 2494   1.792   0.705   3.051  0.0312  0.6454  0.3184
  832SOL    HW1 2495   1.714   0.736   2.991  0.6313 -0.3023  0.0001
  832SOL    HW2 2496   1.774   0.606   3.085  2.7061 -1.9131  1.1531
  833SOL     OW 2497   2.360   2.115   0.515 -0.0431  0.3025  0.2059
  833SOL    HW1 2498   2.276   2.087   0.462 -1.7681  1.4130  2.0500
  833SOL    HW2 2499   2.429   2.034   0.525 -0.4077 -3.5648  0.7512
  834SOL     OW 2500   0.156   0.059   0.561 -0.3866 -0.4363 -0.2191
  834SOL    HW1 2501   0.201  -0.028   0.548 -1.7671 -0.1195 -2.3587
  834SOL    HW2 2502   0.161   0.121   0.476  0.6211  1.9359  1.0953
  835SOL     OW 2503   2.430   1.606   1.135  0.1099  0.3726  0.4283
  835SOL    HW1 2504   2.505   1.537   1.167  0.8275 -1.7726  1.4968
  835SOL    HW2 2505   2.471   1.683   1.081 -0.6115  3.7281  2.5852
  836SOL     OW 2506   1.557   0.812   2.588  0.2214 -0.1683  0.0389
  836SOL    HW1 2507   1.457   0.838   2.566 -2.3043 -0.0692 -2.2144
  836SOL    HW2 2508   1.627   0.865   2.529 -0.6599  1.4677  0.9462
  837SOL     OW 2509   1.701   0.123   0.528 -0.0371  0.1559 -0.2173
  837SOL    HW1 2510   1.684   0.208   0.588 -0.8518 -0.6164  0.9735
  837SOL    HW2 2511   1.631   0.117   0.455 -0.5323 -0.3114 -1.4146
  838SOL     OW 2512   1.227   1.462   2.687  0.2294  0.3460  0.3934
  838SOL    HW1 2513   1.151   1.476   2.758 -1.0516  2.2275 -0.1578
  838SOL    HW2 2514   1.220   1.380   2.624  0.9200 -0.2355  1.0166
  839SOL     OW 2515   1.624   0.373   0.969  0.6465  0.5596  0.0316
  839SOL    HW1 2516   1.578   0.448   1.023  0.9424  0.9926 -0.2180
  839SOL    HW2 2517   1.580   0.277   0.957  0.0064 -3.1571  0.6821
  840SOL     OW 2518   2.657   2.961   1.658  0.0221  0.1377 -0.2730
  840SOL    HW1 2519   2.577   2.973   1.593 -0.2452  3.1851 -1.5540
  840SOL    HW2 2520   2.632   2.924   1.754  1.6254  0.3206  0.4812
  841SOL     OW 2521   1.521   0.826   2.978  0.4258  0.0975  0.6590
  841SOL    HW1 2522   1.469   0.859   3.057  2.2894 -0.7110  4.4204
  841SOL    HW2 2523   1.518   0.879   2.893 -2.2813  0.9130  2.3304
  842SOL     OW 2524   0.847   1.624   1.003 -0.6450  0.2837 -0.0595
  842SOL    HW1 2525   0.797   1.706   1.037 -0.1663 -2.5959  0.4641
  842SOL    HW2 2526   0.793   1.585   0.923 -2.7215 -0.1139 -1.2387
  843SOL     OW 2527   0.144   0.061   1.472  0.5541 -0.5146  0.1722
  843SOL    HW1 2528   0.227   0.103   1.518  0.0692  1.5382 -0.1859
  843SOL    HW2 2529   0.162  -0.037   1.433 -1.1498 -1.7798 -3.8753
  844SOL     OW 2530   0.710   2.499   0.211 -0.1747 -0.3743 -0.1456
  844SOL    HW1 2531   0.679   2.522   0.308 -1.6917  0.2566 -1.2531
  844SOL    HW2 2532   0.633   2.505   0.144 -0.1903 -0.5133  0.0955
  845SOL     OW 2533   1.723   3.063   1.263  0.0394  1.3483 -0.3757
  845SOL    HW1 2534   1.698   3.064   1.362 -4.3521  1.4801 -2.1343
  845SOL    HW2 2535   1.723   3.160   1.223 -0.1959  2.2945 -2.2086
  846SOL     OW 2536   1.700   3.020   0.920  0.2849  0.2216  0.2300
  846SOL    HW1 2537   1.725   3.100   0.854  0.7940  0.5995 -0.0033
  846SOL    HW2 2538   1.780   2.955   0.932  0.4431  2.6457  0.3157
  847SOL     OW 2539   2.096   1.616   0.204 -0.0364  0.2992 -0.0014
  847SOL    HW1 2540   2.018   1.587   0.267  1.9434 -2.2964 -2.5259
  847SOL    HW2 2541   2.078   1.590   0.101  0.9973 -2.7348 -2.5960
  848SOL     OW 2542   2.491   0.833   2.613  0.4530 -0.9121  0.1462
  848SOL    HW1 2543   2.469   0.931   2.629 -4.0078 -1.9291  0.5993
  848SOL    HW2 2544   2.407   0.777   2.582  0.2772  0.0369 -0.5937
  849SOL     OW 2545   2.360   0.832   2.270  0.1683 -0.4595  0.6369
  849SOL    HW1 2546   2.426   0.771   2.217  0.7787 -1.0299 -1.0027
  849SOL    HW2 2547   2.314   0.787   2.349  1.2906  2.5887 -0.9470
  850SOL     OW 2548   1.563   0.196   1.242  0.2150 -0.1967 -0.2909
  850SOL    HW1 2549   1.546   0.176   1.142 -0.1785 -1.4878  0.9611
  850SOL    HW2 2550   1.536   0.117   1.304 -0.6793 -0.5203  0.2578
  851SOL     OW 2551   0.475   1.727   0.651 -0.2129 -0.1603 -0.1450
  851SOL    HW1 2552   0.470   1.827   0.677 -2.3152  1.0200 -2.4388
  851SOL    HW2 2553   0.566   1.683   0.654 -1.1172  0.6414  1.6021
  852SOL     OW 2554   0.842   2.204   1.715 -0.1404  0.4610 -0.2501
  852SOL    HW1 2555   0.823   2.299   1.678 -0.5892  1.2356 -1.4527
  852SOL    HW2 2556   0.778   2.168   1.797 -2.6320 -0.9313 -0.4358
  853SOL     OW 2557   2.613   1.508   2.579 -0.4180 -0.3755  0.3019
  853SOL    HW1 2558   2.544   1.431   2.554 -0.5630 -1.3055  0.8400
  853SOL    HW2 2559   2.592   1.602   2.537 -0.5027  3.5370 -1.8141
  854SOL     OW 2560   2.410   1.444   1.780  0.5140  0.0079  0.5097
  854SOL    HW1 2561   2.474   1.383   1.724  1.7439 -0.4860 -1.0994
  854SOL    HW2 2562   2.332   1.383   1.815 -1.5916 -1.3738  1.4349
  855SOL     OW 2563   2.017   2.270   0.995 -0.2169  0.3539 -0.1767
  855SOL    HW1 2564   2.059   2.359   0.963 -0.1760  1.3270 -1.1160
  855SOL    HW2 2565   2.063   2.238   1.083  2.9604 -0.3211  2.7629
  856SOL     OW 2566   1.403   1.390   0.889  0.1134  0.9503 -0.2847
  856SOL    HW1 2567   1.362   1.484   0.884 -0.6601 -0.0079 -1.4366
  856SOL    HW2 2568   1.436   1.362   0.981 -0.9074 -0.4562  0.8269
  857SOL     OW 2569   2.893   2.555   1.018 -0.2177 -0.1909 -0.3013
  857SOL    HW1 2570   2.817   2.512   1.075 -1.0452  1.9256  1.3151
  857SOL    HW2 2571   2.889   2.530   0.916  1.9486 -2.9551 -2.0673
  858SOL     OW 2572   2.255   2.088   1.790 -0.0772 -0.2709  0.0370
  858SOL    HW1 2573   2.181   2.125   1.724  0.4805  0.3473  1.2680
  858SOL    HW2 2574   2.325   2.037   1.729  0.9609  0.5008 -1.0812
  859SOL     OW 2575   2.399   0.429   0.972 -0.1484 -0.5209 -0.5499
  859SOL    HW1 2576   2.474   0.475   0.924  2.6201  1.0847  2.0915
  859SOL    HW2 2577   2.431   0.345   1.021  1.9501  0.5913 -1.3102
  860SOL     OW 2578   1.958   2.824   0.490 -0.0138  0.5773  0.7050
  860SOL    HW1 2579   1.945   2.768   0.398  1.5625 -1.0129 -2.7835
  860SOL    HW2 2580   1.967   2.927   0.472  0.4279  1.9814 -1.2536
  861SOL     OW 2581   1.020   2.564   2.798  0.2104  0.0260  0.3554
  861SOL    HW1 2582   1.094   2.639   2.782  1.3726  1.3797 -1.7828
  861SOL    HW2 2583   1.026   2.524   2.893 -3.1390  0.9543  3.0601
  862SOL     OW 2584   2.973   2.601   1.553  0.0238  0.3653  0.5433
  862SOL    HW1 2585   3.012   2.573   1.646  0.9962  0.2705  0.3191
  862SOL    HW2 2586   2.872   2.638   1.557 -0.3910 -0.8335 -1.5261
  863SOL     OW 2587   1.922   2.642   0.271 -0.3602 -0.4408  0.2775
  863SOL    HW1 2588   1.946   2.543   0.276  0.3841  0.4034 -0.3995
  863SOL    HW2 2589   1.815   2.651   0.276 -1.1625  1.2902 -1.0901
  864SOL     OW 2590   1.906   1.126   2.958 -0.2385  0.2138  0.0872
  864SOL    HW1 2591   1.922   1.134   2.855  1.5225 -0.5794 -1.5049
  864SOL    HW2 2592   1.988   1.104   3.013 -1.0475  0.2927  2.1371
  865SOL     OW 2593   2.125   1.680   0.665 -0.5059 -0.3626 -0.2015
  865SOL    HW1 2594   2.159   1.717   0.752 -1.2345  3.0826  0.4001
  865SOL    HW2 2595   2.030   1.649   0.672 -0.4814  1.9565  0.3295
  866SOL     OW 2596   2.859   2.817   1.005  0.1174 -0.1370  0.0175
  866SOL    HW1 2597   2.904   2.853   0.915 -0.8218  2.0775  0.4989
  866SOL    HW2 2598   2.868   2.715   1.017  1.1300  2.4276 -1.9924
  867SOL     OW 2599   0.455   1.321   0.862 -0.1721  0.5622 -0.4495
  867SOL    HW1 2600   0.482   1.224   0.823  1.1496 -0.5479 -1.8011
  867SOL    HW2 2601   0.366   1.353   0.825  0.8614  1.4131 -0.1149
  868SOL     OW 2602   0.842   1.960   1.996  0.1854 -0.3643 -0.1012
  868SOL    HW1 2603   0.825   1.930   2.095  0.1350 -0.8273 -0.2521
  868SOL    HW2 2604   0.780   2.034   1.975 -1.5793 -1.5613  0.6652
  869SOL     OW 2605   2.525   2.039   1.637 -0.1431 -0.1329  0.4763
  869SOL    HW1 2606   2.606   2.089   1.590 -0.7650 -0.8558  0.0265
  869SOL    HW2 2607   2.498   1.959   1.578 -0.5123  3.0308  0.4611
  870SOL     OW 2608   2.389   2.523   1.180  0.1255  0.2621  0.0254
  870SOL    HW1 2609   2.333   2.434   1.178  0.1078 -1.3259  0.4044
  870SOL    HW2 2610   2.481   2.522   1.224 -0.4729  3.2831  0.0031
  871SOL     OW 2611   3.008   1.999   0.516  0.4679 -0.9393 -0.3721
  871SOL    HW1 2612   2.936   2.074   0.486 -0.9088  1.4715 -1.7029
  871SOL    HW2 2613   3.030   1.936   0.438 -0.9814  1.0431  0.0360
  872SOL     OW 2614   2.171   0.497   1.683  0.0071 -0.4843 -0.4046
  872SOL    HW1 2615   2.141   0.482   1.778 -1.5139  0.7715 -2.2498
  872SOL    HW2 2616   2.272   0.503   1.672 -0.3042 -0.6317  1.6588
  873SOL     OW 2617   1.709   2.085   2.887  0.2987 -0.1738 -0.1206
  873SOL    HW1 2618   1.675   2.173   2.937  1.2266  1.2849  0.7524
  873SOL    HW2 2619   1.649   2.074   2.796 -0.7547 -0.8181 -2.3747
  874SOL     OW 2620   0.707   2.510   0.744 -0.5842 -0.3548 -0.0459
  874SOL    HW1 2621   0.682   2.613   0.768 -0.1341 -0.2130  1.6920
  874SOL    HW2 2622   0.808   2.502   0.765 -0.8650  0.6609 -0.2197
  875SOL     OW 2623   2.313   1.523   1.452 -0.3349  0.4057 -0.0280
  875SOL    HW1 2624   2.401   1.568   1.465 -3.6907  0.0704 -1.3778
  875SOL    HW2 2625   2.269   1.538   1.359  1.2627  2.3298 -1.0193
  876SOL     OW 2626   0.174   2.211   2.706  0.0080 -0.1457 -0.4016
  876SOL    HW1 2627   0.207   2.137   2.771  0.1806 -1.4670  1.1541
  876SOL    HW2 2628   0.186   2.313   2.747 -0.5248  1.6919  0.0453
  877SOL     OW 2629   2.796   2.653   0.584 -0.0309 -0.4733 -0.1706
  877SOL    HW1 2630   2.838   2.749   0.584  1.0452  1.9316  1.0836
  877SOL    HW2 2631   2.861   2.589   0.640 -1.6497 -0.2686 -0.3020
  878SOL     OW 2632   2.761   1.543   2.240 -0.0732 -0.0366  0.8911
  878SOL    HW1 2633   2.769   1.642   2.233 -2.0893 -1.0759 -1.5796
  878SOL    HW2 2634   2.789   1.504   2.329  1.3032  0.7645 -0.5320
  879SOL     OW 2635   2.385   0.007   1.222  0.3769  0.0943  0.2164
  879SOL    HW1 2636   2.429  -0.085   1.244  1.1893 -0.1511  0.8880
  879SOL    HW2 2637   2.287   0.005   1.188  0.1627 -0.0000  0.5623
  880SOL     OW 2638   0.669   0.419   2.191 -0.3823  0.3437 -0.0581
  880SOL    HW1 2639   0.586   0.385   2.251 -2.3992 -3.8208 -1.2203
  880SOL    HW2 2640   0.715   0.338   2.146 -3.4360 -3.1014 -0.3076
  881SOL     OW 2641   0.922   0.056   0.375  0.5331 -0.2138  0.6156
  881SOL    HW1 2642   0.967  -0.034   0.411 -1.6769 -0.5686  1.5037
  881SOL    HW2 2643   0.873   0.037   0.284 -2.2604 -1.9060  0.5847
  882SOL     OW 2644   2.755   1.668   1.655 -0.0153  0.7706 -0.4198
  882SOL    HW1 2645   2.861   1.661   1.662  0.7434  3.2012 -1.4705
  882SOL    HW2 2646   2.715   1.677   1.746 -0.8570  0.3201 -1.2470
  883SOL     OW 2647   0.926   0.617   0.951 -0.2039  0.4783  0.5721
  883SOL    HW1 2648   0.942   0.700   1.011  0.1571 -0.1470 -3.4214
  883SOL    HW2 2649   1.009   0.557   0.927  1.3279  0.3880 -0.2793
  884SOL     OW 2650   1.222   1.850   1.046  0.0432 -0.5485  0.6364
  884SOL    HW1 2651   1.197   1.862   0.945 -0.6499  1.0945  0.2363
  884SOL    HW2 2652   1.159   1.906   1.108 -3.1071 -0.4014  0.0411
  885SOL     OW 2653   2.277   1.759   2.348 -0.3435 -0.5550  0.2658
  885SOL    HW1 2654   2.189   1.723   2.384 -1.4536  1.0926 -3.7505
  885SOL    HW2 2655   2.273   1.864   2.349  0.0047 -3.8250  1.8046
  886SOL     OW 2656   2.665   0.471   1.780  0.4234  0.2338  0.3446
  886SOL    HW1 2657   2.675   0.428   1.880 -0.5717 -1.4520  1.5613
  886SOL    HW2 2658   2.729   0.551   1.759 -0.4534 -0.1991 -1.5034
  887SOL     OW 2659   0.173   2.036   1.306  0.4402 -0.6041  0.2927
  887SOL    HW1 2660   0.097   1.996   1.245 -1.4508  0.9336 -2.5967
  887SOL    HW2 2661   0.177   2.139   1.303  2.8992 -0.9131  2.3451
  888SOL     OW 2662   0.605   1.336   1.482 -0.2647 -0.0207  0.1676
  888SOL    HW1 2663   0.654   1.342   1.387 -0.5734  5.4515  1.1464
  888SOL    HW2 2664   0.546   1.248   1.490 -1.1885 -3.0769 -1.4161
  889SOL     OW 2665   0.868   2.512   2.144 -0.1480 -0.3450  0.4620
  889SOL    HW1 2666   0.796   2.540   2.074 -1.5185 -0.3847 -1.9158
  889SOL    HW2 2667   0.962   2.501   2.092  0.5666  0.7332 -0.3914
  890SOL     OW 2668   2.331   2.383   0.133 -0.4745 -0.5049 -0.6087
  890SOL    HW1 2669   2.404   2.442   0.083  1.5619  0.4745 -1.9129
  890SOL    HW2 2670   2.256   2.434   0.181 -0.8510 -1.2479 -0.1287
  891SOL     OW 2671   2.590   1.535   0.603  0.7912  0.0497  0.0475
  891SOL    HW1 2672   2.560   1.485   0.689 -1.3760  1.1313 -2.0250
  891SOL    HW2 2673   2.509   1.584   0.561  2.8857  0.4147  1.1246
  892SOL     OW 2674   0.227   0.308   2.217 -0.3105  0.4094  0.1296
  892SOL    HW1 2675   0.239   0.328   2.117  4.0512  1.9352 -0.0606
  892SOL    HW2 2676   0.312   0.337   2.268 -0.9809  0.2424 -2.2989
  893SOL     OW 2677   1.668   0.244   2.704 -0.4026 -0.0352 -0.1634
  893SOL    HW1 2678   1.732   0.319   2.732  0.0428 -1.1609  1.4292
  893SOL    HW2 2679   1.578   0.277   2.665 -0.7921 -1.1455 -1.1996
  894SOL     OW 2680   2.143   1.966   0.051  0.0279  0.1374  0.1332
  894SOL    HW1 2681   2.125   1.914  -0.034 -0.1913 -1.8953  1.2090
  894SOL    HW2 2682   2.200   1.914   0.120 -1.4628  0.0227 -0.5101
  895SOL     OW 2683   2.891   1.406   0.816 -0.0104  0.7869  0.2836
  895SOL    HW1 2684   2.945   1.328   0.854 -1.1383  0.3912 -2.1708
  895SOL    HW2 2685   2.950   1.489   0.796  0.4405  0.5932 -3.6966
  896SOL     OW 2686   1.737   1.783   1.209  0.4029 -0.4894  0.5300
  896SOL    HW1 2687   1.814   1.838   1.166  0.0753  0.0776 -0.4370
  896SOL    HW2 2688   1.645   1.812   1.182 -0.0340 -2.1764  1.0721
  897SOL     OW 2689   0.332   0.515   3.079 -0.1759 -0.3159 -0.4667
  897SOL    HW1 2690   0.264   0.556   3.011 -0.9085 -3.4312 -0.5164
  897SOL    HW2 2691   0.397   0.587   3.123 -1.5863 -0.5913  0.5700
  898SOL     OW 2692   0.543   2.844   1.148  0.0252  0.7677 -0.2357
  898SOL    HW1 2693   0.485   2.917   1.194 -1.6787 -1.0423  0.2954
  898SOL    HW2 2694   0.646   2.849   1.161 -1.5492 -0.3469  2.6577
  899SOL     OW 2695   2.692   0.918   1.229  0.1777  0.1612  0.1370
  899SOL    HW1 2696   2.630   0.897   1.147 -1.9611 -0.1880  0.3364
  899SOL    HW2 2697   2.778   0.960   1.195 -0.3876  1.3243  1.3883
  900SOL     OW 2698   1.001   2.344   2.323 -0.8340 -0.1223 -0.0940
  900SOL    HW1 2699   0.923   2.384   2.262  1.1681  0.1587  0.5967
  900SOL    HW2 2700   0.982   2.366   2.427 -2.6444  0.8883  0.4592
  901SOL     OW 2701   1.899   2.443   1.383 -0.0538 -0.6537  0.5280
  901SOL    HW1 2702   1.904   2.456   1.279 -0.1626 -0.3852  0.2034
  901SOL    HW2 2703   1.997   2.428   1.419 -1.2731 -0.2169 -2.6525
  902SOL     OW 2704   2.560   1.634   1.476 -0.3278  0.3813  0.1448
  902SOL    HW1 2705   2.634   1.635   1.547 -0.5134 -3.8134 -1.2150
  902SOL    HW2 2706   2.595   1.593   1.384  0.4695 -1.1006 -0.3300
  903SOL     OW 2707   0.274   2.323   1.964  0.3268 -0.0032 -0.0293
  903SOL    HW1 2708   0.199   2.298   2.028 -0.6957 -0.3725 -1.0997
  903SOL    HW2 2709   0.259   2.414   1.906  2.3928  3.6463  0.4711
  904SOL     OW 2710   1.968   0.785   2.590 -0.1609 -0.0926 -0.1875
  904SOL    HW1 2711   1.906   0.710   2.627 -1.8225  0.7556  2.2477
  904SOL    HW2 2712   1.957   0.796   2.492  0.1757  0.9109  2.2870
  905SOL     OW 2713   2.735   0.032   2.647 -0.0876  0.2377 -0.1652
  905SOL    HW1 2714   2.795  -0.055   2.641 -0.2568 -1.3077  1.8004
  905SOL    HW2 2715   2.781   0.113   2.605  2.5440 -1.1219  1.4214
  906SOL     OW 2716   0.110   1.739   1.976 -0.3880 -0.4728  0.3402
  906SOL    HW1 2717   0.059   1.769   1.889  0.5075 -0.3289 -1.9970
  906SOL    HW2 2718   0.215   1.763   1.969 -0.0127  1.3485  0.7975
  907SOL     OW 2719   0.182   2.464   1.051  0.3007  0.0502 -0.0600
  907SOL    HW1 2720   0.241   2.550   1.043 -0.8078  2.9160 -0.3717
  907SOL    HW2 2721   0.139   2.439   0.963 -1.4549 -0.5594  0.5609
  908SOL     OW 2722   2.631   2.876   0.423 -0.3978 -0.2221  0.1577
  908SOL    HW1 2723   2.656   2.914   0.333 -1.8005 -3.4631 -1.3653
  908SOL    HW2 2724   2.680   2.790   0.438 -0.5927  0.1276 -0.9902
  909SOL     OW 2725   0.728   0.899   2.655 -0.8470 -0.1835 -0.5623
  909SOL    HW1 2726   0.697   0.800   2.642  0.1367  1.3982  2.6351
  909SOL    HW2 2727   0.756   0.942   2.565  0.4572  2.3719  1.4415
  910SOL     OW 2728   1.763   1.785   2.007  0.1458 -0.4218  0.4010
  910SOL    HW1 2729   1.812   1.831   1.928  0.4533 -3.3812 -0.6845
  910SOL    HW2 2730   1.699   1.851   2.059 -1.4650 -0.0202 -1.8202
  911SOL     OW 2731   1.764   3.045   1.547  0.6733 -0.7597 -0.2830
  911SOL    HW1 2732   1.846   2.993   1.504  2.5189 -2.1363 -1.0579
  911SOL    HW2 2733   1.737   2.990   1.635 -0.5839 -2.8281  1.1696
  912SOL     OW 2734   2.809   0.954   0.791 -0.1227  0.7947  0.0732
  912SOL    HW1 2735   2.854   0.954   0.886 -0.3317  1.7905 -0.4633
  912SOL    HW2 2736   2.751   1.039   0.775 -2.7912 -0.6662  0.8846
  913SOL     OW 2737   2.551   1.262   1.548  0.2595  0.2844 -0.2169
  913SOL    HW1 2738   2.555   1.164   1.521  0.2312  0.4453  0.5556
  913SOL    HW2 2739   2.591   1.327   1.472  0.6955  0.5870 -0.2917
  914SOL     OW 2740   2.798   0.519   1.252 -0.0519  0.0378 -0.4039
  914SOL    HW1 2741   2.761   0.425   1.285 -1.9300 -1.3562  3.0125
  914SOL    HW2 2742   2.787   0.600   1.320  0.8981 -0.5619  3.7800
  915SOL     OW 2743   1.227   0.841   0.999 -0.4193  0.6885 -0.2164
  915SOL    HW1 2744   1.297   0.897   1.053  0.2487  0.5476  0.2314
  915SOL    HW2 2745   1.137   0.838   1.047 -1.3212  0.1919 -0.5390
  916SOL     OW 2746   0.525   0.040   0.595  0.5207 -0.2896  0.3285
  916SOL    HW1 2747   0.553   0.123   0.652  1.6291  1.2632  0.7338
  916SOL    HW2 2748   0.535   0.065   0.493  2.3216 -0.4073 -0.9943
  917SOL     OW 2749   2.768   2.601   1.924 -0.0892 -0.7094 -0.2369
  917SOL    HW1 2750   2.679   2.648   1.903  1.5578 -1.7399  1.8150
  917SOL    HW2 2751   2.857   2.661   1.922  3.8231 -1.2775  0.4925
  918SOL     OW 2752   0.983   2.214   3.072 -0.1258  0.0523 -0.0900
  918SOL    HW1 2753   0.939   2.262   3.156 -0.2782  1.6086  0.0776
  918SOL    HW2 2754   0.985   2.111   3.086  1.4810 -0.2515 -0.4322
  919SOL     OW 2755   0.942   1.639   2.844 -0.5552  0.3932 -0.3086
  919SOL    HW1 2756   0.974   1.706   2.772  0.9183  2.2507  3.8886
  919SOL    HW2 2757   0.898   1.552   2.810  0.8467  0.5688  0.0052
  920SOL     OW 2758   1.265   2.064   2.519  0.3967 -0.2171 -0.3163
  920SOL    HW1 2759   1.210   2.082   2.432 -3.8514  1.2354 -1.9244
  920SOL    HW2 2760   1.287   1.964   2.539  1.5312 -1.4497  3.7343
  921SOL     OW 2761   1.033   0.147   2.577  0.0808 -0.3967  0.5130
  921SOL    HW1 2762   1.063   0.105   2.485 -0.5301 -0.4900  0.4033
  921SOL    HW2 2763   0.956   0.211   2.560  0.4758  4.0581 -2.6672
  922SOL     OW 2764   2.129   2.413   2.772 -0.8718  0.0198  0.1339
  922SOL    HW1 2765   2.145   2.311   2.760 -1.1413 -0.6844 -0.6926
  922SOL    HW2 2766   2.085   2.464   2.690 -1.9421  3.9471 -0.1183
  923SOL     OW 2767   1.173   2.687   0.252 -0.6193  0.7390 -0.4174
  923SOL    HW1 2768   1.251   2.747   0.282  0.1026  1.8072  0.4559
  923SOL    HW2 2769   1.203   2.601   0.197 -0.0330 -1.8294 -0.9116
  924SOL     OW 2770   2.888   1.568   0.097 -0.8162 -0.3046  0.2695
  924SOL    HW1 2771   2.812   1.594   0.031  1.4563  3.3163  1.6677
  924SOL    HW2 2772   2.983   1.577   0.053 -0.7908 -0.6994 -0.2849
  925SOL     OW 2773   0.065   2.851   1.665  0.0666  0.2392 -0.4192
  925SOL    HW1 2774  -0.004   2.925   1.674  1.3473 -0.7609 -0.0132
  925SOL    HW2 2775   0.035   2.787   1.589  0.1880  2.3012 -2.5713
  926SOL     OW 2776   1.437   2.877   1.327  0.4065 -0.2997 -0.2167
  926SOL    HW1 2777   1.465   2.897   1.231  1.8586 -3.2862  0.6770
  926SOL    HW2 2778   1.429   2.964   1.384 -1.3769 -0.7630  1.4385
  927SOL     OW 2779   0.295   2.529   1.766  0.0406  0.1039  0.4823
  927SOL    HW1 2780   0.260   2.510   1.670  1.2742  1.4710 -0.2922
  927SOL    HW2 2781   0.371   2.598   1.765 -1.6248  0.0044 -0.4847
  928SOL     OW 2782   1.610   1.962   2.128 -0.1444  0.0721 -0.5544
  928SOL    HW1 2783   1.642   2.050   2.083 -0.4024  1.8943  1.6292
  928SOL    HW2 2784   1.512   1.944   2.099  1.2216 -0.7260  2.4197
  929SOL     OW 2785   2.396   2.469   2.819 -0.5860 -0.0098  0.0102
  929SOL    HW1 2786   2.286   2.459   2.821 -0.8305 -0.9885  0.9523
  929SOL    HW2 2787   2.438   2.482   2.723  1.3869  0.0965  0.3249
  930SOL     OW 2788   2.220   2.000   1.095 -0.0024  0.4398  0.0477
  930SOL    HW1 2789   2.222   1.964   1.188 -0.3935  0.6391 -1.2941
  930SOL    HW2 2790   2.299   2.061   1.076 -0.8542  0.4332 -0.3666
  931SOL     OW 2791   0.563   1.720   2.607  0.2681  0.1681  0.1374
  931SOL    HW1 2792   0.591   1.725   2.703 -0.0281 -3.6976 -0.2492
  931SOL    HW2 2793   0.570   1.628   2.564  0.6029  0.6278  2.7191
  932SOL     OW 2794   0.461   0.104   2.932  0.1210  0.3475 -0.5439
  932SOL    HW1 2795   0.550   0.154   2.922 -0.7323 -0.7895 -1.0227
  932SOL    HW2 2796   0.472   0.002   2.949  2.8391 -0.0210 -0.4412
  933SOL     OW 2797   1.056   0.781   3.013  0.0449 -0.1188  0.2276
  933SOL    HW1 2798   1.126   0.807   3.089  0.0826  2.5370 -0.9655
  933SOL    HW2 2799   1.029   0.869   2.960  0.0681 -0.7151 -1.6339
  934SOL     OW 2800   0.803   2.972   2.741 -0.5821 -0.4689 -0.2604
  934SOL    HW1 2801   0.851   2.907   2.683 -2.1123  1.2812  0.9297
  934SOL    HW2 2802   0.798   2.930   2.837  0.7064  1.4731  1.0209
  935SOL     OW 2803   3.080   0.498   0.873 -0.1711  0.1308  0.4851
  935SOL    HW1 2804   3.112   0.476   0.782  0.7851  1.3852 -0.9024
  935SOL    HW2 2805   2.999   0.560   0.868  0.9600  0.6345  1.0012
  936SOL     OW 2806   1.071   2.952   0.149  0.6146 -0.5667 -0.2050
  936SOL    HW1 2807   1.158   3.000   0.108  0.6712  1.0622 -1.0720
  936SOL    HW2 2808   1.082   2.852   0.174  3.1190  1.4941 -2.4665
  937SOL     OW 2809   1.939   2.621   2.066  0.2183 -0.2735  0.3032
  937SOL    HW1 2810   1.846   2.663   2.079  0.7240 -0.5455 -1.5039
  937SOL    HW2 2811   1.977   2.635   1.968  0.1252  0.4217 -1.8052
  938SOL     OW 2812   2.787   2.170   1.470  0.0304  0.1348  0.2505
  938SOL    HW1 2813   2.734   2.236   1.529  0.2410  1.4742 -3.5311
  938SOL    HW2 2814   2.861   2.119   1.523 -2.0117 -0.4206  0.6454
  939SOL     OW 2815   2.771   1.092   2.496 -0.5208  0.4244  0.2203
  939SOL    HW1 2816   2.846   1.020   2.498 -2.8599 -0.1304 -2.6840
  939SOL    HW2 2817   2.735   1.121   2.591  0.3438  1.1515  2.1933
  940SOL     OW 2818   1.072   0.478   2.626  0.3092 -0.1666 -0.4450
  940SOL    HW1 2819   1.128   0.388   2.621  0.1727 -3.5748 -0.5697
  940SOL    HW2 2820   0.966   0.458   2.647 -4.0112 -1.3174  3.3610
  941SOL     OW 2821   0.044   2.850   2.200  0.0080 -0.0979  0.1976
  941SOL    HW1 2822   0.022   2.746   2.193 -0.3869  2.7291 -0.9598
  941SOL    HW2 2823   0.132   2.870   2.252 -0.1373 -0.6857  1.5644
  942SOL     OW 2824   0.058   0.083   2.538  0.0947  0.3074  0.7057
  942SOL    HW1 2825   0.102   0.088   2.627  0.5766 -0.7292 -1.1550
  942SOL    HW2 2826   0.036   0.176   2.496 -1.0316  0.0307 -0.6837
  943SOL     OW 2827   2.067   1.593   2.412 -0.0543  0.5182  0.6504
  943SOL    HW1 2828   2.077   1.557   2.317  0.6933 -1.1567 -2.6365
  943SOL    HW2 2829   2.069   1.514   2.479 -2.7367 -1.9825 -0.4687
  944SOL     OW 2830   2.152   2.417   1.484  0.1897  0.2017 -0.4048
  944SOL    HW1 2831   2.241   2.466   1.521  1.5326  0.2972  0.6418
  944SOL    HW2 2832   2.132   2.327   1.531  0.0554 -2.7457  2.6696
  945SOL     OW 2833   0.607   1.421   0.350  0.3125  0.6614  0.0933
  945SOL    HW1 2834   0.661   1.463   0.270  2.1349 -0.5326 -0.1086
  945SOL    HW2 2835   0.645   1.328   0.382 -1.3651 -1.6933  1.8168
  946SOL     OW 2836   0.381   1.012   2.544 -0.2663  0.0301  0.3867
  946SOL    HW1 2837   0.285   0.974   2.525  2.1816  0.7190 -1.9409
  946SOL    HW2 2838   0.381   1.112   2.525 -2.2014  1.1441  0.7060
  947SOL     OW 2839   1.467   0.480   0.116 -0.1652 -0.9008 -0.2438
  947SOL    HW1 2840   1.376   0.516   0.133 -0.4039 -0.1374  0.0439
  947SOL    HW2 2841   1.469   0.375   0.110 -0.5554 -0.9828 -1.2303
  948SOL     OW 2842   1.947   3.096   2.192  0.2426  0.5161 -0.4100
  948SOL    HW1 2843   1.919   3.092   2.094 -0.4771  0.0928  2.2012
  948SOL    HW2 2844   1.929   3.012   2.253 -1.3145 -1.1682  1.0480
  949SOL     OW 2845   0.629   2.527   0.482 -0.0212 -0.2450 -0.0327
  949SOL    HW1 2846   0.639   2.622   0.442 -0.2600  0.2708  0.7143
  949SOL    HW2 2847   0.651   2.529   0.585  0.7706 -3.2490  0.6270
  950SOL     OW 2848   0.304   2.094   3.048  0.0120  0.6270 -0.6389
  950SOL    HW1 2849   0.215   2.131   3.012  0.8156 -0.1573 -1.2112
  950SOL    HW2 2850   0.294   1.994   3.074 -1.8793  0.3274  0.5285
  951SOL     OW 2851   1.202   2.762   2.770 -0.2809 -0.6740  0.0967
  951SOL    HW1 2852   1.136   2.822   2.715 -2.1211  2.5652 -1.4409
  951SOL    HW2 2853   1.240   2.811   2.854 -1.0749  0.7693  0.5566
  952SOL     OW 2854   0.084   1.651   0.476 -0.2643 -0.0813  0.5296
  952SOL    HW1 2855   0.180   1.703   0.485 -1.0139  1.1644  0.7907
  952SOL    HW2 2856   0.046   1.631   0.571 -0.7390 -1.6685 -2.3080
  953SOL     OW 2857   2.568   1.733   0.148 -0.3843 -0.2917 -0.1516
  953SOL    HW1 2858   2.527   1.637   0.170 -0.4606 -4.2930 -0.5845
  953SOL    HW2 2859   2.567   1.755   0.045 -1.4023 -1.1070  1.0638
  954SOL     OW 2860   2.158   0.550   1.022  0.6477 -0.4211  0.1839
  954SOL    HW1 2861   2.121   0.561   0.925 -0.0414  2.7056 -3.2319
  954SOL    HW2 2862   2.255   0.513   1.018 -0.3931  0.3518 -0.4265
  955SOL     OW 2863   0.285   2.682   1.292  0.3622 -0.0456 -0.0899
  955SOL    HW1 2864   0.182   2.647   1.301 -2.4031  0.5564  0.6939
  955SOL    HW2 2865   0.317   2.679   1.192  1.5046  0.8439  0.2130
  956SOL     OW 2866   2.766   2.458   2.502  0.4335 -0.0342 -0.2620
  956SOL    HW1 2867   2.760   2.358   2.501  1.1651  3.9273 -0.5415
  956SOL    HW2 2868   2.806   2.495   2.411  1.0462 -0.1398 -0.2598
  957SOL     OW 2869   1.531   2.059   2.655 -0.0439  0.5126 -0.5493
  957SOL    HW1 2870   1.532   1.958   2.694 -0.6983  0.8154 -1.8103
  957SOL    HW2 2871   1.532   2.049   2.551  1.2725 -0.7746 -1.9713
  958SOL     OW 2872   2.659   2.342   3.003  0.5415  0.0528  0.2363
  958SOL    HW1 2873   2.580   2.390   2.951 -1.2609  0.5578 -1.9817
  958SOL    HW2 2874   2.640   2.262   3.064  1.6710 -1.0587  0.8416
  959SOL     OW 2875   0.232   2.800   0.004 -0.4546  0.1606 -0.0830
  959SOL    HW1 2876   0.137   2.788   0.050 -1.4220 -0.7181 -3.0790
  959SOL    HW2 2877   0.287   2.710   0.003 -0.9340  1.6446 -0.0386
  960SOL     OW 2878   2.009   0.498   1.921  0.4734  0.1226  0.5303
  960SOL    HW1 2879   1.968   0.585   1.891  0.4819  0.4286 -2.3215
  960SOL    HW2 2880   2.006   0.484   2.023  2.1625  1.6230 -0.3749
  961SOL     OW 2881   2.581   1.839   1.068  0.3670  0.3963 -0.6335
  961SOL    HW1 2882   2.539   1.920   1.020  1.7208 -1.1875 -1.0546
  961SOL    HW2 2883   2.655   1.860   1.139 -2.0531  2.6072 -1.3474
  962SOL     OW 2884   1.254   0.934   0.045 -0.1997  0.8725 -0.3589
  962SOL    HW1 2885   1.277   0.993  -0.043  0.7959  1.8092 -1.5221
  962SOL    HW2 2886   1.271   0.996   0.126  0.2662  1.8925 -0.8910
  963SOL     OW 2887   2.304   2.632   1.863 -0.4099  0.3246  0.6068
  963SOL    HW1 2888   2.309   2.547   1.923 -0.8941  0.8278  0.0115
  963SOL    HW2 2889   2.323   2.715   1.921 -0.2255 -1.4233 -1.7664
  964SOL     OW 2890   2.434   0.382   1.659 -0.3143 -0.0054  0.0200
  964SOL    HW1 2891   2.523   0.421   1.696 -1.4112 -0.8479  4.3915
  964SOL    HW2 2892   2.441   0.329   1.575 -1.1116 -1.2080  2.5941
  965SOL     OW 2893   2.630   3.000   0.144  0.5671  0.3897 -1.0061
  965SOL    HW1 2894   2.669   2.937   0.080 -1.7865  0.9335 -0.1054
  965SOL    HW2 2895   2.529   2.991   0.145 -2.9737 -3.6470 -0.5083
  966SOL     OW 2896   2.568   2.584   2.198  0.0288  0.0791 -0.5217
  966SOL    HW1 2897   2.509   2.530   2.132  2.0234  0.7264 -1.6213
  966SOL    HW2 2898   2.519   2.664   2.238 -2.2836 -0.6852 -1.3024
  967SOL     OW 2899   2.758   2.806   2.439 -0.4704  0.6950 -0.0143
  967SOL    HW1 2900   2.797   2.734   2.379  0.0642  0.0518  2.0810
  967SOL    HW2 2901   2.826   2.885   2.458  2.9361  2.3184 -0.7047
  968SOL     OW 2902   2.034   1.057   2.669  0.2392 -0.4213  0.0765
  968SOL    HW1 2903   1.998   1.135   2.617  1.1694  0.5658 -0.6738
  968SOL    HW2 2904   1.978   0.968   2.658 -0.6212 -5.1100  0.1579
  969SOL     OW 2905   2.741   2.333   1.114  0.1038 -0.0479  0.3835
  969SOL    HW1 2906   2.688   2.334   1.022 -2.5140 -1.2901  0.2344
  969SOL    HW2 2907   2.812   2.258   1.119  0.6883  0.4963  1.0613
  970SOL     OW 2908   1.106   2.212   1.740  0.4357  0.4964 -0.3771
  970SOL    HW1 2909   1.005   2.187   1.733  0.2267 -2.6028  0.0598
  970SOL    HW2 2910   1.134   2.258   1.829 -1.8223 -0.1321  2.6668
  971SOL     OW 2911   2.826   2.093   1.941  0.0094 -0.1261  0.3562
  971SOL    HW1 2912   2.807   2.186   1.982  1.7441  1.0529  1.7392
  971SOL    HW2 2913   2.897   2.094   1.868 -1.2810  1.7616 -1.9446
  972SOL     OW 2914   2.011   2.391   0.255  0.0220  0.1617 -0.0435
  972SOL    HW1 2915   1.990   2.311   0.193  0.4885  1.9704 -0.3216
  972SOL    HW2 2916   2.068   2.365   0.334  0.7556  0.4636 -3.2239
  973SOL     OW 2917   1.237   1.076   1.980  0.1510  0.0358 -0.1012
  973SOL    HW1 2918   1.147   1.058   1.926  0.3298 -1.5760 -3.8210
  973SOL    HW2 2919   1.254   1.177   2.006  4.0401  1.0998  1.7432
  974SOL     OW 2920   1.661   0.536   1.897  0.3564 -0.3884 -0.0141
  974SOL    HW1 2921   1.745   0.582   1.860 -0.4737  0.3054  0.9154
  974SOL    HW2 2922   1.588   0.603   1.907  0.4793 -0.7811 -2.4182
  975SOL     OW 2923   2.330   3.053   3.078  0.2536 -0.2286 -0.0710
  975SOL    HW1 2924   2.270   2.980   3.127  2.5588  1.1778 -0.9678
  975SOL    HW2 2925   2.365   3.022   2.982  0.1225  0.8650 -0.9417
  976SOL     OW 2926   1.925   2.877   2.354 -0.2521  0.0020  0.1645
  976SOL    HW1 2927   1.895   2.803   2.281 -1.8495 -2.1579 -2.3035
  976SOL    HW2 2928   1.917   2.843   2.451  0.7471 -0.2696 -2.0438
  977SOL     OW 2929   0.508   0.686   1.038  0.0202  0.4463 -0.0699
  977SOL    HW1 2930   0.420   0.676   0.993  1.5471  1.3899  0.1597
  977SOL    HW2 2931   0.577   0.628   0.984 -0.6626  1.5503  1.1112
   3.10000   3.10000   3.10000
