1000 SPC/Fw water molecules t=   1.22000 step= 1220
 2931
    1SOL     OW    1   2.544   0.350   2.598 -0.2281 -0.4246  0.1913
    1SOL    HW1    2   2.515   0.254   2.587 -1.4865  1.3465  2.0797
    1SOL    HW2    3   2.588   0.372   2.690  1.8764  1.7543  0.4558
    2SOL     OW    4   2.766   2.984   1.379  0.0427 -0.2638  0.1193
    2SOL    HW1    5   2.862   3.014   1.354 -1.4118  1.1057 -1.4774
    2SOL    HW2    6   2.712   3.059   1.425  0.7318 -1.7456 -0.7927
    3SOL     OW    7   2.634   2.605   0.429 -0.0558 -0.4990  0.1902
    3SOL    HW1    8   2.597   2.510   0.459 -1.7479 -0.7875  1.9291
    3SOL    HW2    9   2.721   2.633   0.478  0.7409 -0.6434  0.6827
    4SOL     OW   10   1.254   1.533   2.370  0.2031 -0.1994 -0.0848
    4SOL    HW1   11   1.172   1.561   2.322  1.9491 -1.8251  0.2986
    4SOL    HW2   12   1.259   1.428   2.378  0.0870  0.7419  2.4854
    5SOL     OW   13   1.165   1.579   3.006  0.3899  0.1488 -1.0337
    5SOL    HW1   14   1.214   1.665   3.039  1.5915  0.0981 -0.0988
    5SOL    HW2   15   1.086   1.597   2.946  1.8694 -0.0138 -0.0998
    6SOL     OW   16   0.234   1.808   3.017  0.9234  0.8677  0.1158
    6SOL    HW1   17   0.136   1.827   3.042  1.0807 -2.6601 -1.7636
    6SOL    HW2   18   0.291   1.786   3.095  2.5880  1.5608  0.3072
    7SOL     OW   19   2.529   0.850   1.061 -0.0147 -0.2643  0.3678
    7SOL    HW1   20   2.431   0.821   1.087 -0.9437 -1.8893 -0.0747
    7SOL    HW2   21   2.577   0.775   1.008  0.8259 -1.0257  0.3864
    8SOL     OW   22   0.441   0.599   1.453 -0.4251  0.1619 -0.2119
    8SOL    HW1   23   0.524   0.540   1.482  1.8074 -2.8784 -0.7291
    8SOL    HW2   24   0.413   0.589   1.353 -0.6488  1.1767  0.3055
    9SOL     OW   25   1.173   0.856   2.409 -0.4646 -0.8598 -0.2580
    9SOL    HW1   26   1.223   0.875   2.322  0.7524 -2.8311  0.7707
    9SOL    HW2   27   1.144   0.759   2.428  0.9479  1.7749  0.9765
   10SOL     OW   28   0.660   1.361   1.307 -0.2142 -0.0861 -0.0253
   10SOL    HW1   29   0.568   1.366   1.251 -1.5641  0.3227 -3.7760
   10SOL    HW2   30   0.710   1.454   1.316 -2.0580 -0.9506 -2.1527
   11SOL     OW   31   2.306   2.802   0.835  0.0193  0.2997 -0.2407
   11SOL    HW1   32   2.256   2.816   0.927  0.8223 -0.3055 -4.3011
   11SOL    HW2   33   2.403   2.763   0.849  0.9885 -0.8708 -2.2741
   12SOL     OW   34   1.465   0.823   0.425  0.4439 -0.4943  0.5315
   12SOL    HW1   35   1.382   0.858   0.378  0.7246 -1.1106  1.1806
   12SOL    HW2   36   1.524   0.768   0.362  1.5653  1.1213 -0.3035
   13SOL     OW   37   2.434   0.743   1.756 -0.1738  0.1448 -0.2304
   13SOL    HW1   38   2.379   0.683   1.826 -2.5067 -2.5078 -1.6329
   13SOL    HW2   39   2.425   0.714   1.656  1.1061 -3.4161 -0.1386
   14SOL     OW   40   1.870   0.066   0.691  0.4522 -0.1169 -0.4983
   14SOL    HW1   41   1.776   0.053   0.649  0.6596 -2.6030 -0.8354
   14SOL    HW2   42   1.905  -0.024   0.730  0.1205  0.3269  1.9410
   15SOL     OW   43   1.876   2.098   2.706  0.2084 -0.0500 -0.5301
   15SOL    HW1   44   1.843   2.197   2.703  0.3698 -0.5930 -2.3834
   15SOL    HW2   45   1.798   2.033   2.705  2.2071 -0.8046 -0.2666
   16SOL     OW   46   1.581   1.691   3.001  0.1565 -0.0457 -0.2005
   16SOL    HW1   47   1.588   1.592   3.036 -0.3028  3.6904  2.4813
   16SOL    HW2   48   1.674   1.739   3.021 -1.1282  1.4242  1.9077
   17SOL     OW   49   0.090   0.470   0.155  0.8518  0.0704  0.2035
   17SOL    HW1   50   0.164   0.455   0.079  0.8642 -1.7408 -0.2512
   17SOL    HW2   51  -0.006   0.493   0.110 -1.0270  0.4682  0.7908
   18SOL     OW   52   0.941   2.965   2.158 -0.0251 -0.2092 -0.2240
   18SOL    HW1   53   0.867   2.898   2.191 -0.1477 -1.4019  2.2342
   18SOL    HW2   54   0.965   2.945   2.056 -0.4547  0.6018  1.9063
   19SOL     OW   55   0.480   0.842   1.891 -0.0926 -0.1946  0.0842
   19SOL    HW1   56   0.502   0.772   1.966  1.7748  3.0021  1.1309
   19SOL    HW2   57   0.543   0.925   1.895  2.1640  0.4103  0.4283
   20SOL     OW   58   0.199   2.825   0.862 -0.0127  0.2278 -0.2140
   20SOL    HW1   59   0.103   2.859   0.834 -0.1009 -0.9365  1.9173
   20SOL    HW2   60   0.219   2.726   0.830  1.2522 -0.6602  1.6757
   21SOL     OW   61   2.749   0.254   1.969  0.5842 -0.2218  0.0515
   21SOL    HW1   62   2.692   0.199   1.901 -1.4906  0.8356 -0.6987
   21SOL    HW2   63   2.817   0.196   2.021 -0.4797  1.3421 -2.1078
   22SOL     OW   64   2.323   0.200   0.151  0.2326  0.1919  0.0889
   22SOL    HW1   65   2.365   0.109   0.116  0.8807 -1.2746 -0.4399
   22SOL    HW2   66   2.288   0.260   0.067 -1.7655 -1.0292 -0.8117
   23SOL     OW   67   2.806   0.586   0.679  0.4302 -0.2328  0.2312
   23SOL    HW1   68   2.831   0.493   0.634 -0.4530 -1.4678  0.0235
   23SOL    HW2   69   2.787   0.658   0.603  2.4127  0.5309 -1.6930
   24SOL     OW   70   0.226   1.921   0.445  0.3975 -0.0962  0.5242
   24SOL    HW1   71   0.170   1.999   0.402 -1.1364  0.5961 -0.7695
   24SOL    HW2   72   0.333   1.930   0.429 -0.4667  2.3501 -2.4419
   25SOL     OW   73   2.216   0.629   0.202 -0.1855 -0.0985  0.1747
   25SOL    HW1   74   2.214   0.638   0.101 -0.7925 -2.2509 -0.1043
   25SOL    HW2   75   2.284   0.555   0.239 -0.1012 -1.6710 -0.5232
   26SOL     OW   76   2.471   2.160   2.035  0.5595 -0.4056 -0.0092
   26SOL    HW1   77   2.550   2.190   2.099  0.8942 -4.6589  1.9012
   26SOL    HW2   78   2.503   2.075   1.978  0.1123 -2.4634  1.6028
   27SOL     OW   79   0.654   2.911   0.283  0.1054 -0.4281  0.4965
   27SOL    HW1   80   0.730   2.970   0.241  0.6192  1.2044 -1.6648
   27SOL    HW2   81   0.602   2.862   0.207  0.8641  0.7545 -0.6753
   28SOL     OW   82   1.580   0.156   0.294 -0.2651 -0.6833  0.4669
   28SOL    HW1   83   1.609   0.129   0.198  0.7255  0.5505  0.9813
   28SOL    HW2   84   1.613   0.250   0.319 -1.5555  1.0908  0.5430
   29SOL     OW   85   1.970   0.562   0.288 -0.2548 -0.1254 -0.1947
   29SOL    HW1   86   1.942   0.639   0.354 -2.4635  0.9090  1.4477
   29SOL    HW2   87   2.075   0.565   0.278  1.8016  1.1293 -4.0161
   30SOL     OW   88   0.202   2.083   0.912 -0.3278 -0.0781 -0.2194
   30SOL    HW1   89   0.176   2.024   0.830  1.7437 -0.4669 -0.3005
   30SOL    HW2   90   0.126   2.147   0.932  1.1953  1.4375 -1.2667
   31SOL     OW   91   2.114   0.089   2.388 -0.1893  0.1327 -0.0197
   31SOL    HW1   92   2.067   0.077   2.478 -0.0793 -2.8720 -1.7977
   31SOL    HW2   93   2.065   0.044   2.312  1.2094 -0.3127 -1.3660
   32SOL     OW   94   2.968   0.033   0.236 -0.8131 -0.0666  0.2272
   32SOL    HW1   95   2.966  -0.069   0.252 -1.3634  2.4508  0.6214
   32SOL    HW2   96   3.062   0.085   0.248  1.3203  1.9719 -0.0193
   33SOL     OW   97   0.881   0.318   0.624 -0.4896  0.0522 -0.5163
   33SOL    HW1   98   0.873   0.230   0.571 -0.9480 -0.5798 -1.5569
   33SOL    HW2   99   0.978   0.362   0.617  1.8029 -1.1466  0.1859
   34SOL     OW  100   0.339   2.714   1.101 -0.1211  0.0629  0.5526
   34SOL    HW1  101   0.296   2.752   1.015  0.9060 -2.2913 -0.6809
   34SOL    HW2  102   0.435   2.749   1.123 -1.2473 -0.6764  2.4176
   35SOL     OW  103   0.028   0.130   1.882 -0.7526  0.0247 -0.0847
   35SOL    HW1  104   0.076   0.044   1.911  0.8256  1.3314  0.8618
   35SOL    HW2  105   0.000   0.141   1.782 -2.2685 -0.1175  1.5360
   36SOL     OW  106   1.856   1.239   1.577  0.1968 -0.6536 -0.7814
   36SOL    HW1  107   1.913   1.160   1.601 -1.8313  0.4333  1.2786
   36SOL    HW2  108   1.911   1.322   1.542 -3.3655  0.5848 -2.7239
   37SOL     OW  109   1.192   0.244   0.947  0.0649 -0.3767 -0.0698
   37SOL    HW1  110   1.244   0.317   1.000  2.0628  1.6951  0.1830
   37SOL    HW2  111   1.250   0.186   0.880  1.6269 -1.6504 -1.3084
   38SOL     OW  112   1.154   2.825   2.383  0.1768  0.6611 -0.3240
   38SOL    HW1  113   1.082   2.752   2.368  1.5025 -0.4085  2.4426
   38SOL    HW2  114   1.110   2.922   2.369 -0.5621  4.2911 -2.7501
   39SOL     OW  115   2.319   1.392   3.037 -0.2112 -0.6112 -0.4207
   39SOL    HW1  116   2.386   1.310   3.036  0.7004  1.3441 -0.7325
   39SOL    HW2  117   2.277   1.408   3.135  0.6117 -1.2289 -1.8080
   40SOL     OW  118   1.981   2.467   2.640 -0.2575  0.3483 -0.2470
   40SOL    HW1  119   1.978   2.566   2.608 -0.5353 -1.0361  1.3634
   40SOL    HW2  120   1.967   2.402   2.561 -1.4784 -0.4924 -1.0410
   41SOL     OW  121   3.014   0.649   2.808  0.3725  0.1114  0.4023
   41SOL    HW1  122   2.911   0.668   2.818 -1.4063 -1.8404 -1.2041
   41SOL    HW2  123   3.035   0.552   2.766  1.4415 -1.8475  0.8588
   42SOL     OW  124   1.727   1.795   0.487 -0.0152  0.1379  0.0976
   42SOL    HW1  125   1.679   1.710   0.468  2.3398 -0.1216 -1.6091
   42SOL    HW2  126   1.744   1.849   0.398 -1.0473  1.5850 -0.1955
   43SOL     OW  127   0.435   1.686   1.180  0.3999 -0.5554  0.2781
   43SOL    HW1  128   0.447   1.591   1.150 -0.2779  3.0656 -0.8269
   43SOL    HW2  129   0.362   1.689   1.256  0.3137 -0.6059  2.7253
   44SOL     OW  130   1.692   2.340   3.003 -0.1836  0.1961  0.0272
   44SOL    HW1  131   1.631   2.428   3.010  1.3479  1.7494  3.4340
   44SOL    HW2  132   1.733   2.333   2.906  0.8179  1.6536  2.2289
   45SOL     OW  133   0.345   1.882   2.588  0.0126  0.3203 -0.4679
   45SOL    HW1  134   0.310   1.876   2.491 -0.8126  2.1445  1.2152
   45SOL    HW2  135   0.406   1.801   2.613 -1.6789  0.0531  0.3810
   46SOL     OW  136   1.271   0.634   0.143 -0.2119  0.5445 -0.3039
   46SOL    HW1  137   1.241   0.719   0.091 -0.9236  0.5622  2.8408
   46SOL    HW2  138   1.197   0.562   0.149 -1.2245 -0.4489  1.1230
   47SOL     OW  139   0.208   2.507   1.590 -0.3089 -0.2820 -0.0627
   47SOL    HW1  140   0.175   2.408   1.580 -1.0128 -0.8031  2.1854
   47SOL    HW2  141   0.227   2.550   1.500  2.3126  1.2292  2.8068
   48SOL     OW  142   2.621   0.618   0.141  0.2265 -0.4850  0.1179
   48SOL    HW1  143   2.608   0.626   0.249 -0.0393 -1.3763  0.2976
   48SOL    HW2  144   2.705   0.671   0.105  1.3146  0.3335 -0.7624
   49SOL     OW  145   0.317   0.745   1.647 -0.0982  0.2724  0.1024
   49SOL    HW1  146   0.382   0.777   1.721 -1.7332  0.3637  0.0986
   49SOL    HW2  147   0.361   0.704   1.559 -1.1065  0.6486 -2.2466
   50SOL     OW  148   1.691   1.104   0.328  0.2459  0.2789 -0.1516
   50SOL    HW1  149   1.731   1.027   0.266 -1.9469  2.6856 -2.2372
   50SOL    HW2  150   1.624   1.065   0.399  1.3204 -0.6382 -2.3712
   51SOL     OW  151   2.985   1.733   0.261  0.2097  0.0815 -0.1487
   51SOL    HW1  152   2.962   1.656   0.190  0.3759  0.8780 -2.0519
   51SOL    HW2  153   3.049   1.697   0.332 -1.0420 -0.0930 -0.2826
   52SOL     OW  154   0.808   2.139   0.622  0.3371  0.0886  0.0963
   52SOL    HW1  155   0.754   2.192   0.697  0.5156  1.9400  1.8742
   52SOL    HW2  156   0.849   2.051   0.657 -2.7918 -0.3060 -2.4102
   53SOL     OW  157   0.178   0.469   1.587 -0.0790 -0.1069 -0.0622
   53SOL    HW1  158   0.257   0.535   1.579 -1.2942 -2.3803 -1.7156
   53SOL    HW2  159   0.092   0.492   1.532  0.7875 -1.6071 -1.2202
   54SOL     OW  160   1.795   0.502   3.033  0.0272  0.1337  0.1578
   54SOL    HW1  161   1.869   0.441   3.077  1.3284 -1.7330  1.1858
   54SOL    HW2  162   1.705   0.516   3.092 -0.4796  0.6144  1.7655
   55SOL     OW  163   0.766   2.868   0.685  0.2769 -0.2598  1.1010
   55SOL    HW1  164   0.706   2.951   0.672  1.3670  1.8652 -2.0377
   55SOL    HW2  165   0.850   2.872   0.625 -1.4782 -0.7572 -2.0669
   56SOL     OW  166   0.588   1.592   0.028 -0.7619 -0.1798  0.4020
   56SOL    HW1  167   0.506   1.621   0.086 -0.6087  0.0201  0.0725
   56SOL    HW2  168   0.568   1.502  -0.027  2.6675 -1.8913 -0.6816
   57SOL     OW  169   1.728   2.521   2.362  0.8987 -0.5538  0.4019
   57SOL    HW1  170   1.773   2.431   2.366 -0.1150  4.1686  0.2239
   57SOL    HW2  171   1.659   2.531   2.443  0.5298 -1.1125  0.4838
   58SOL     OW  172   0.677   0.271   1.091 -0.4377 -0.4317  0.8687
   58SOL    HW1  173   0.590   0.277   1.145  0.6939 -0.9536  1.3503
   58SOL    HW2  174   0.721   0.181   1.104 -1.2916 -1.3264  2.2392
   59SOL     OW  175   0.381   2.353   2.724  0.3222  0.3821  0.3355
   59SOL    HW1  176   0.394   2.277   2.659 -1.2498  1.2372 -1.2352
   59SOL    HW2  177   0.448   2.356   2.806  0.2246  2.1181 -0.4444
   60SOL     OW  178   2.320   2.100   2.316  0.1534  0.0798  0.3134
   60SOL    HW1  179   2.352   2.153   2.231 -1.2157 -1.0618 -0.2902
   60SOL    HW2  180   2.350   2.150   2.407  2.3208  0.8750 -0.9357
   61SOL     OW  181   1.263   0.593   0.420 -0.0172 -0.0687  0.1739
   61SOL    HW1  182   1.176   0.656   0.436 -3.9833  1.5838  0.1871
   61SOL    HW2  183   1.282   0.585   0.316  2.2754 -2.1096  1.2342
   62SOL     OW  184   2.739   1.741   2.889  0.1051 -0.3133 -0.6452
   62SOL    HW1  185   2.700   1.728   2.793 -1.7161  1.4866  0.7240
   62SOL    HW2  186   2.834   1.704   2.904  0.8913 -0.3623 -0.0402
   63SOL     OW  187   0.563   0.842   0.203  0.4844  0.7552  0.4675
   63SOL    HW1  188   0.615   0.910   0.143 -0.0836  0.2506 -1.4023
   63SOL    HW2  189   0.604   0.842   0.299  1.6682  1.6679  1.4610
   64SOL     OW  190   3.082   0.516   2.468 -0.5957  0.7042 -0.3504
   64SOL    HW1  191   3.020   0.571   2.534 -2.6827  2.5676 -3.4762
   64SOL    HW2  192   3.082   0.563   2.376 -1.3395  1.8862  2.3636
   65SOL     OW  193   0.217   1.498   0.659  0.5097 -0.7120  0.4576
   65SOL    HW1  194   0.217   1.570   0.736  3.0060  1.5971  1.8050
   65SOL    HW2  195   0.305   1.502   0.609 -1.7838  2.5974  1.7480
   66SOL     OW  196   2.518   0.378   0.555 -0.2400  0.1669 -0.1317
   66SOL    HW1  197   2.616   0.370   0.575  0.0744 -0.6435 -1.4683
   66SOL    HW2  198   2.459   0.351   0.637 -1.8583 -0.3326  0.7622
   67SOL     OW  199   0.616   2.457   1.415  0.1885  0.0293  0.1836
   67SOL    HW1  200   0.705   2.433   1.463  1.6195  0.7400  1.6736
   67SOL    HW2  201   0.533   2.403   1.446  0.1017 -0.2458 -1.8409
   68SOL     OW  202   0.970   1.032   2.521  0.1897 -0.5188  0.1945
   68SOL    HW1  203   1.050   0.965   2.493 -2.1570 -1.6887  2.7537
   68SOL    HW2  204   0.914   1.059   2.432  3.6525  1.0441 -0.4222
   69SOL     OW  205   0.709   2.779   2.201  0.5157 -0.4491  0.6193
   69SOL    HW1  206   0.750   2.687   2.173  0.2744  1.2313  0.0507
   69SOL    HW2  207   0.610   2.776   2.192  3.3539 -1.9391 -2.9364
   70SOL     OW  208   0.459   0.137   2.574 -0.5502 -0.4048 -0.0599
   70SOL    HW1  209   0.376   0.147   2.632 -0.2905 -1.1647 -0.0300
   70SOL    HW2  210   0.520   0.058   2.606  1.0717 -2.5573  1.3501
   71SOL     OW  211   1.108   1.803   0.376  0.2955 -0.5861 -0.1734
   71SOL    HW1  212   1.081   1.713   0.416  0.7317  1.6802  1.0900
   71SOL    HW2  213   1.059   1.828   0.282 -0.6796  0.0763 -1.9860
   72SOL     OW  214   1.830   0.181   2.171 -0.1984 -0.7919  0.0011
   72SOL    HW1  215   1.885   0.274   2.154  2.6685  0.2473  2.3966
   72SOL    HW2  216   1.888   0.098   2.189  2.4081  0.3423  1.7399
   73SOL     OW  217   2.808   2.172   2.359  0.0487 -0.5584 -0.3889
   73SOL    HW1  218   2.782   2.078   2.325 -1.9108 -2.5153  1.4550
   73SOL    HW2  219   2.842   2.165   2.460 -0.2935 -0.1329  0.0029
   74SOL     OW  220   2.626   2.861   2.193 -0.2146  0.0619 -0.0353
   74SOL    HW1  221   2.624   2.791   2.273  0.2186  1.1062 -0.8070
   74SOL    HW2  222   2.724   2.884   2.170  2.4542 -0.8252  0.1237
   75SOL     OW  223   0.981   0.846   1.064  0.0703  0.2618  0.2695
   75SOL    HW1  224   0.897   0.889   1.030  2.6000 -1.3491 -2.0090
   75SOL    HW2  225   1.000   0.881   1.159 -0.2284 -2.4748 -0.6845
   76SOL     OW  226   1.786   1.219   2.472  0.4603 -0.0470 -0.4207
   76SOL    HW1  227   1.686   1.207   2.436 -0.7885 -0.8672 -0.3442
   76SOL    HW2  228   1.794   1.317   2.514  0.1585  0.3661  3.8605
   77SOL     OW  229   2.949   0.934   1.022  0.1592 -0.3521  0.0846
   77SOL    HW1  230   2.913   0.838   1.012 -1.1954  1.4467 -1.8952
   77SOL    HW2  231   3.003   0.951   1.109 -1.1056 -0.4923  1.0637
   78SOL     OW  232   1.987   1.460   1.451  0.0319 -0.5653 -0.4318
   78SOL    HW1  233   2.082   1.464   1.410 -0.4459 -2.9946  0.0740
   78SOL    HW2  234   1.920   1.488   1.377  0.9163  0.4077 -1.9080
   79SOL     OW  235   0.629   1.429   0.789 -0.4716 -0.1387 -0.2221
   79SOL    HW1  236   0.540   1.401   0.830 -0.0489  0.0804  2.2898
   79SOL    HW2  237   0.648   1.363   0.708  1.1608  1.0441 -0.5783
   80SOL     OW  238   0.654   0.460   1.543  0.0108 -0.0520  0.0918
   80SOL    HW1  239   0.710   0.527   1.489  0.0872  1.3024 -0.9437
   80SOL    HW2  240   0.668   0.362   1.517  0.0310  0.2835  1.8649
   81SOL     OW  241   1.010   1.285   2.605 -0.5443  0.1901  0.0285
   81SOL    HW1  242   1.013   1.185   2.583  1.8421  0.3279 -0.5916
   81SOL    HW2  243   0.933   1.332   2.558 -0.6490  1.8068 -0.3500
   82SOL     OW  244   0.912   2.976   1.492  0.3972 -1.0041 -0.1406
   82SOL    HW1  245   0.825   2.986   1.438  0.5134  0.7102 -2.0004
   82SOL    HW2  246   0.990   2.946   1.435  0.9975 -0.3172 -0.6640
   83SOL     OW  247   2.588   2.372   0.858 -0.0203 -0.1190  0.2817
   83SOL    HW1  248   2.586   2.429   0.945 -2.5839 -0.8344 -0.8332
   83SOL    HW2  249   2.527   2.406   0.786 -2.0552  0.6942 -1.3998
   84SOL     OW  250   0.732   3.080   2.390  0.1397  0.0229 -0.0788
   84SOL    HW1  251   0.672   3.078   2.476  3.5220 -1.4309  1.4960
   84SOL    HW2  252   0.810   3.017   2.400  0.2031 -0.5867  0.0428
   85SOL     OW  253   0.257   1.631   1.458 -0.1927 -0.6622  0.2156
   85SOL    HW1  254   0.252   1.740   1.453  1.4331  2.0067 -1.1815
   85SOL    HW2  255   0.319   1.603   1.540 -2.2217 -0.9193  1.0717
   86SOL     OW  256   0.467   1.091   1.473 -0.3489 -0.3359  0.2846
   86SOL    HW1  257   0.406   1.038   1.411  1.2958  1.3229 -0.3954
   86SOL    HW2  258   0.545   1.037   1.505 -1.0183  2.0809  0.8116
   87SOL     OW  259   1.661   0.666   0.279 -0.0367  0.2726  0.2828
   87SOL    HW1  260   1.720   0.748   0.261 -0.0280 -1.8291 -0.2913
   87SOL    HW2  261   1.632   0.614   0.199 -2.6720  1.0862 -1.1732
   88SOL     OW  262   1.589   1.351   0.266 -0.2450 -0.3024 -0.1358
   88SOL    HW1  263   1.640   1.275   0.316  0.9300 -0.4957  1.1881
   88SOL    HW2  264   1.486   1.335   0.253 -2.7196 -0.8297  1.3790
   89SOL     OW  265   3.092   0.388   0.602 -0.2928 -0.2434  0.0450
   89SOL    HW1  266   3.141   0.298   0.592 -1.3483 -0.3657  0.5058
   89SOL    HW2  267   2.994   0.373   0.589  3.5667  0.3948  1.5581
   90SOL     OW  268   0.849   1.568   0.079 -0.4733 -0.1790  0.5318
   90SOL    HW1  269   0.887   1.478   0.114  2.7096 -1.5697  0.2696
   90SOL    HW2  270   0.749   1.565   0.046 -0.0663 -0.5638 -0.8990
   91SOL     OW  271   1.222   1.456   1.782  0.0697  0.1209 -0.1317
   91SOL    HW1  272   1.175   1.530   1.843 -2.0452 -0.4506  1.7341
   91SOL    HW2  273   1.326   1.451   1.798 -0.9248 -2.1001 -0.4224
   92SOL     OW  274   0.008   0.954   1.256  0.4036  0.0637 -0.1635
   92SOL    HW1  275   0.087   0.999   1.209  0.3702 -0.4505  0.7570
   92SOL    HW2  276   0.003   0.959   1.360 -0.7617 -2.6195 -1.6443
   93SOL     OW  277   3.048   2.717   0.048 -0.0439 -0.4096  0.2515
   93SOL    HW1  278   3.016   2.723  -0.051  0.4864  1.9858  2.4336
   93SOL    HW2  279   3.053   2.621   0.087  1.9013  1.1923  0.7065
   94SOL     OW  280   1.484   1.456   1.795  0.1014 -0.3807 -0.4534
   94SOL    HW1  281   1.560   1.389   1.774 -0.7655 -0.2637 -1.3568
   94SOL    HW2  282   1.512   1.550   1.830 -2.4563  1.9415 -0.8292
   95SOL     OW  283   1.475   2.507   2.962 -0.5199 -0.0001  0.0338
   95SOL    HW1  284   1.411   2.549   3.030 -2.3435 -1.5807  0.6751
   95SOL    HW2  285   1.438   2.414   2.921  1.2016 -0.1627 -0.5736
   96SOL     OW  286   0.555   2.105   1.309 -0.0152  0.0672  0.2593
   96SOL    HW1  287   0.508   2.071   1.224  0.7882  0.7492 -0.1701
   96SOL    HW2  288   0.624   2.038   1.355  1.8417 -0.7128  0.1944
   97SOL     OW  289   0.314   1.601   2.458 -0.0816 -0.4779  0.2328
   97SOL    HW1  290   0.275   1.657   2.379  2.3417 -0.7733 -0.9236
   97SOL    HW2  291   0.287   1.627   2.552  0.3361  0.9078  0.2380
   98SOL     OW  292   2.110   1.593   1.219  0.5427  0.1492  0.3816
   98SOL    HW1  293   2.009   1.566   1.207 -0.4421 -0.9781 -2.1495
   98SOL    HW2  294   2.178   1.556   1.153  2.1678  1.4969 -0.1274
   99SOL     OW  295   2.565   2.068   1.287  0.1977  0.1161 -0.1041
   99SOL    HW1  296   2.619   2.071   1.379  4.2038 -1.8104  1.6920
   99SOL    HW2  297   2.487   1.998   1.286 -0.0708  0.3927 -0.4844
  100SOL     OW  298   2.282   0.406   2.071 -0.4450  0.0312  0.1243
  100SOL    HW1  299   2.246   0.366   2.159 -1.6892 -1.2218  1.5819
  100SOL    HW2  300   2.384   0.428   2.080  1.0958  1.4921  3.6107
  101SOL     OW  301   0.444   1.506   0.449 -0.4150  0.0358 -0.1075
  101SOL    HW1  302   0.456   1.591   0.509 -0.7316 -1.5351  0.4786
  101SOL    HW2  303   0.510   1.506   0.371 -2.3109  2.0260 -0.5919
  102SOL     OW  304   2.285   1.088   0.834  0.0072 -0.3526  0.1514
  102SOL    HW1  305   2.210   1.027   0.792  2.5009  3.0271 -0.2126
  102SOL    HW2  306   2.375   1.095   0.777  0.4975 -0.8188 -0.9340
  103SOL     OW  307   2.221   0.120   0.390 -0.0583 -0.1825  0.0908
  103SOL    HW1  308   2.234   0.153   0.290 -0.5587  0.6927 -1.3604
  103SOL    HW2  309   2.302   0.069   0.428 -1.6273  2.2205  1.8737
  104SOL     OW  310   0.053   1.892   2.110 -0.3851  0.4728 -0.4777
  104SOL    HW1  311   0.094   1.846   2.023 -0.5026 -0.2874  0.1397
  104SOL    HW2  312  -0.049   1.892   2.106  1.2257  0.9548  1.9255
  105SOL     OW  313   1.265   2.121   0.807 -0.3384 -0.0509  0.0118
  105SOL    HW1  314   1.268   2.203   0.746 -2.4305  0.5829 -0.9001
  105SOL    HW2  315   1.272   2.035   0.752  0.6921 -0.3596  1.9356
  106SOL     OW  316   2.115   0.352   1.443 -0.5994  0.2576  0.7614
  106SOL    HW1  317   2.085   0.254   1.433  2.2665  1.0140  0.1772
  106SOL    HW2  318   2.114   0.387   1.540  0.3267 -0.0056 -1.6255
  107SOL     OW  319   1.920   2.942   1.216  0.3724 -0.0731 -0.5448
  107SOL    HW1  320   1.899   3.042   1.249  0.3653  3.1165 -1.7252
  107SOL    HW2  321   1.833   2.884   1.205 -0.8103  0.8480 -0.6441
  108SOL     OW  322   0.843   2.808   1.237  0.7729  0.1190 -0.5233
  108SOL    HW1  323   0.888   2.713   1.234 -2.1231 -0.3826  0.8291
  108SOL    HW2  324   0.910   2.885   1.231  0.3086 -1.4770 -0.3904
  109SOL     OW  325   2.129   0.142   0.751  0.1801  0.2227  0.1878
  109SOL    HW1  326   2.028   0.140   0.721 -0.9784  0.3482  1.5165
  109SOL    HW2  327   2.148   0.082   0.836  1.8382 -0.5732 -0.0064
  110SOL     OW  328   0.442   2.799   2.773 -0.2443  0.1671  0.1254
  110SOL    HW1  329   0.419   2.769   2.678  0.8061 -1.8653 -1.8426
  110SOL    HW2  330   0.517   2.738   2.818  0.4454  1.5626 -0.6736
  111SOL     OW  331   1.265   0.464   2.318  0.1123  0.4178 -0.4936
  111SOL    HW1  332   1.187   0.521   2.360  0.1603 -0.6027  0.0952
  111SOL    HW2  333   1.324   0.422   2.391  1.0906 -1.1570  0.7061
  112SOL     OW  334   1.768   0.464   1.492 -0.2728 -0.6275 -0.0877
  112SOL    HW1  335   1.731   0.458   1.392  1.8718  1.5389 -2.6543
  112SOL    HW2  336   1.701   0.420   1.561 -0.6037  1.5132 -0.8556
  113SOL     OW  337   2.348   1.643   1.722  0.1293  0.8262 -0.2160
  113SOL    HW1  338   2.425   1.578   1.728 -0.0800  1.6652  1.0563
  113SOL    HW2  339   2.329   1.687   1.810 -0.8231  0.4769 -0.1996
  114SOL     OW  340   0.330   0.558   1.215 -0.3276 -0.4149  0.1335
  114SOL    HW1  341   0.380   0.616   1.144 -1.6258  0.1242 -0.1864
  114SOL    HW2  342   0.229   0.593   1.225  3.2288  0.9283  1.7507
  115SOL     OW  343   2.780   1.595   1.294  0.9953 -0.3670 -0.1173
  115SOL    HW1  344   2.750   1.496   1.317 -1.0516 -3.6705  3.1062
  115SOL    HW2  345   2.864   1.598   1.233  0.2394 -1.6898 -0.3483
  116SOL     OW  346   1.830   1.020   0.631  0.3188 -0.7429  0.2675
  116SOL    HW1  347   1.743   0.971   0.648  2.0340  3.6344  0.7980
  116SOL    HW2  348   1.841   1.106   0.681  0.2801 -3.1905 -2.1583
  117SOL     OW  349   1.158   0.354   0.577  0.6642  0.3777 -0.3620
  117SOL    HW1  350   1.200   0.445   0.580  0.2512  0.2325 -1.9635
  117SOL    HW2  351   1.134   0.321   0.478  0.6570 -0.2190  0.1491
  118SOL     OW  352   1.062   1.199   1.115 -0.1629  0.5379 -0.7857
  118SOL    HW1  353   1.048   1.114   1.170  0.2179  0.2495  0.9372
  118SOL    HW2  354   1.126   1.260   1.162  0.1757 -0.0608 -0.8308
  119SOL     OW  355   1.832   1.588   2.188 -0.0306  0.2276  0.0230
  119SOL    HW1  356   1.813   1.684   2.153  2.0915  2.5364  2.7549
  119SOL    HW2  357   1.928   1.558   2.157  2.4057  0.5897  2.0071
  120SOL     OW  358   2.893   2.840   0.222 -0.2308 -0.2365 -0.1311
  120SOL    HW1  359   2.965   2.795   0.157  3.0102 -1.0754  0.4627
  120SOL    HW2  360   2.798   2.790   0.211 -1.1421 -0.1881  0.5708
  121SOL     OW  361   1.885   0.713   2.196 -0.4492  0.3441 -0.9973
  121SOL    HW1  362   1.912   0.790   2.129 -0.0407 -0.7161 -2.4822
  121SOL    HW2  363   1.884   0.619   2.148 -2.2663 -1.7895  0.6915
  122SOL     OW  364   2.647   2.556   1.334  0.1134 -0.1046  0.2475
  122SOL    HW1  365   2.646   2.593   1.237 -0.7156  1.3128  1.7255
  122SOL    HW2  366   2.621   2.454   1.349 -2.3084 -1.8395  0.8087
  123SOL     OW  367   1.721   0.086   1.704 -0.4133  0.8809  0.1004
  123SOL    HW1  368   1.720   0.002   1.649 -0.4072  0.9166  2.5559
  123SOL    HW2  369   1.818   0.113   1.732  4.3727  1.3304 -0.3050
  124SOL     OW  370   0.007   0.437   1.077 -0.2231  0.2480 -0.0032
  124SOL    HW1  371  -0.062   0.492   1.136 -4.2518  0.3511  0.9549
  124SOL    HW2  372   0.020   0.482   0.985  1.4320 -1.8028 -0.1983
  125SOL     OW  373   0.908   1.931   0.755 -0.1693  0.2357  0.4307
  125SOL    HW1  374   0.995   1.874   0.781  2.4437 -0.6877  0.0514
  125SOL    HW2  375   0.835   1.926   0.826  1.7912  0.6899 -0.9367
  126SOL     OW  376   1.873   2.285   2.403  0.6284  0.3622 -0.1151
  126SOL    HW1  377   1.921   2.227   2.329  1.2139 -1.7246  2.2571
  126SOL    HW2  378   1.793   2.228   2.434  1.4542 -1.2052 -1.8593
  127SOL     OW  379   0.913   0.947   0.194 -0.2572 -0.1296  0.2648
  127SOL    HW1  380   0.923   0.997   0.286 -1.3562 -1.2790 -0.6254
  127SOL    HW2  381   0.917   0.844   0.200 -0.1136  1.7420 -0.2198
  128SOL     OW  382   0.932   0.269   1.420 -0.0188 -0.8666 -0.0902
  128SOL    HW1  383   0.898   0.343   1.351  1.5856  1.5998  1.2225
  128SOL    HW2  384   0.873   0.180   1.407  2.4457  1.3125 -0.9518
  129SOL     OW  385   1.852   0.686   1.843 -0.0969  0.2732 -0.7497
  129SOL    HW1  386   1.879   0.687   1.746 -0.9901  1.4471  3.0020
  129SOL    HW2  387   1.879   0.772   1.892  0.4675 -1.0781  0.2353
  130SOL     OW  388   1.437   2.173   1.019  0.3702  0.6088  0.0064
  130SOL    HW1  389   1.369   2.161   0.935 -0.2839  0.3822  0.1451
  130SOL    HW2  390   1.509   2.249   1.008 -2.3383  2.6165  0.7670
  131SOL     OW  391   3.018   1.347   1.370 -0.1946  0.2798 -0.4719
  131SOL    HW1  392   2.960   1.267   1.410 -3.7144  0.5488  0.8431
  131SOL    HW2  393   3.115   1.314   1.348  1.3465  0.6983 -1.5138
  132SOL     OW  394   2.035   2.404   0.461  0.1203 -0.4128  0.2643
  132SOL    HW1  395   1.942   2.444   0.470  1.9330 -1.3490 -0.0363
  132SOL    HW2  396   2.067   2.358   0.553  1.1374  0.3763  1.2506
  133SOL     OW  397   1.747   2.360   2.721  0.3792  0.0339  0.5702
  133SOL    HW1  398   1.668   2.400   2.661 -0.6600 -3.4782  1.1824
  133SOL    HW2  399   1.841   2.405   2.703 -2.6159  1.9485 -3.9124
  134SOL     OW  400   2.672   2.302   1.601 -0.2509  0.7757 -0.1120
  134SOL    HW1  401   2.599   2.307   1.674  0.7961 -1.6054  1.2310
  134SOL    HW2  402   2.734   2.385   1.604  2.6824 -0.4164 -0.2922
  135SOL     OW  403   0.723   1.474   2.656 -0.1829 -0.2124 -0.1147
  135SOL    HW1  404   0.676   1.403   2.713 -1.4561  0.1863 -1.7464
  135SOL    HW2  405   0.740   1.453   2.553  2.0128  1.4566 -2.0190
  136SOL     OW  406   1.244   2.032   0.496  0.5716  0.0764  0.3212
  136SOL    HW1  407   1.157   2.090   0.499  2.8172  0.3660 -0.7204
  136SOL    HW2  408   1.217   1.932   0.487 -0.8458 -0.3475 -0.6020
  137SOL     OW  409   0.436   1.206   2.249  0.2878  0.1364  0.2381
  137SOL    HW1  410   0.333   1.198   2.257 -1.5338 -1.6820 -0.2626
  137SOL    HW2  411   0.474   1.112   2.254 -0.5842  3.3003  1.6278
  138SOL     OW  412   2.503   1.493   0.275 -0.2188  0.1587  0.1078
  138SOL    HW1  413   2.426   1.430   0.255 -0.7457 -1.9245  0.4253
  138SOL    HW2  414   2.593   1.444   0.289  0.6781 -1.2619 -0.4330
  139SOL     OW  415   1.893   2.619   1.487 -0.4658  0.2015  0.2660
  139SOL    HW1  416   1.802   2.672   1.496  0.3342  1.3146 -0.2915
  139SOL    HW2  417   1.882   2.526   1.437  0.1310  0.9143 -0.8629
  140SOL     OW  418   3.015   2.973   2.550  0.4698 -0.2011  0.2360
  140SOL    HW1  419   3.063   2.889   2.579 -2.6673  2.1259  0.2164
  140SOL    HW2  420   3.077   3.052   2.524 -0.7613 -1.9615  1.0658
  141SOL     OW  421   1.313   1.689   1.620 -0.2342 -0.7758 -1.0044
  141SOL    HW1  422   1.233   1.754   1.634  1.0380 -0.0221 -0.5902
  141SOL    HW2  423   1.302   1.600   1.674 -0.2340 -0.1340 -1.4272
  142SOL     OW  424   1.530   0.582   2.260 -0.2396 -0.0377  0.2541
  142SOL    HW1  425   1.552   0.573   2.161 -0.4607  1.1745  0.6636
  142SOL    HW2  426   1.436   0.550   2.292 -0.6909  1.9237  3.5260
  143SOL     OW  427   2.791   0.900   0.499  0.1901 -0.1463  0.0251
  143SOL    HW1  428   2.842   0.934   0.418 -1.4760 -0.4555  2.0686
  143SOL    HW2  429   2.823   0.923   0.593  1.4400 -0.3597  1.5794
  144SOL     OW  430   2.885   1.145   1.522 -0.3583  0.0696  0.4386
  144SOL    HW1  431   2.836   1.162   1.611 -1.7794 -1.2288 -1.3394
  144SOL    HW2  432   2.968   1.079   1.534 -1.0841  0.3435 -1.2823
  145SOL     OW  433   1.005   1.808   0.114 -0.6015  0.2697  0.0381
  145SOL    HW1  434   0.970   1.885   0.052  1.1124  0.0781  1.4032
  145SOL    HW2  435   0.957   1.718   0.092  0.5152  1.1300 -2.2312
  146SOL     OW  436   2.445   0.670   1.485 -0.1349  0.6644 -0.6475
  146SOL    HW1  437   2.412   0.581   1.447  0.3322  1.0959  2.8160
  146SOL    HW2  438   2.407   0.752   1.437  1.3278 -1.6066  0.1292
  147SOL     OW  439   1.075   2.539   0.588 -0.0072 -1.0320 -0.1135
  147SOL    HW1  440   1.013   2.584   0.517 -1.0118 -1.3035  2.6555
  147SOL    HW2  441   1.157   2.496   0.549 -2.1914 -1.7378  0.5047
  148SOL     OW  442   1.627   1.429   0.004  0.2996 -0.3574 -0.2204
  148SOL    HW1  443   1.598   1.351  -0.058 -1.1171  0.9348 -1.3330
  148SOL    HW2  444   1.598   1.419   0.104 -2.0357  0.7154 -1.2802
  149SOL     OW  445   0.628   1.467   1.949 -0.1294  0.6530  0.8885
  149SOL    HW1  446   0.542   1.448   2.008 -0.9462 -0.6173  0.5007
  149SOL    HW2  447   0.662   1.378   1.903  0.2950 -0.8109  1.3122
  150SOL     OW  448   3.010   1.229   0.995 -0.1861 -0.0988  0.0646
  150SOL    HW1  449   3.105   1.211   1.031 -1.0117 -0.2661 -0.4516
  150SOL    HW2  450   2.942   1.154   0.998  1.8735 -0.1404  0.5100
  151SOL     OW  451   0.190   0.752   2.078  0.2243  1.1705 -0.2920
  151SOL    HW1  452   0.159   0.832   2.016 -1.4110 -0.1103 -0.1161
  151SOL    HW2  453   0.242   0.676   2.027 -0.3850 -0.1882 -0.4836
  152SOL     OW  454   1.459   1.804   1.170 -0.3813  0.4196  0.2832
  152SOL    HW1  455   1.523   1.882   1.163 -1.2486  1.1507  0.9945
  152SOL    HW2  456   1.360   1.834   1.156  0.1731 -0.3347  1.0194
  153SOL     OW  457   0.170   1.518   0.229  0.0932 -0.8231 -0.2439
  153SOL    HW1  458   0.147   1.416   0.216  0.0147 -0.5276  0.0642
  153SOL    HW2  459   0.169   1.550   0.331  0.9946 -1.0191  2.1857
  154SOL     OW  460   2.354   1.895   2.827 -0.4776 -0.7432 -0.1528
  154SOL    HW1  461   2.383   1.797   2.845  2.6769  3.6968 -0.8390
  154SOL    HW2  462   2.417   1.939   2.755 -0.5730  2.5084 -0.1822
  155SOL     OW  463   2.525   1.197   0.406  0.2550  1.2481 -0.2849
  155SOL    HW1  464   2.613   1.181   0.355 -1.8988  1.1235 -0.0679
  155SOL    HW2  465   2.450   1.140   0.371  0.5950  2.0020 -2.3567
  156SOL     OW  466   2.480   0.828   0.743  0.3256 -0.1898  0.3302
  156SOL    HW1  467   2.383   0.830   0.773  0.3450 -2.1205  1.1668
  156SOL    HW2  468   2.497   0.910   0.681 -3.9855 -0.9979 -0.6665
  157SOL     OW  469   1.241   3.011   2.981  0.2563  0.1686 -0.0933
  157SOL    HW1  470   1.304   2.969   2.903 -3.3038 -0.9554 -1.4493
  157SOL    HW2  471   1.278   3.103   3.009  1.8009  0.6825 -2.1519
  158SOL     OW  472   0.969   1.873   1.836  0.0394  0.3909 -0.3429
  158SOL    HW1  473   1.017   1.965   1.827  0.2789  0.0998  1.3384
  158SOL    HW2  474   0.900   1.869   1.914 -0.7861  1.4195 -0.6733
  159SOL     OW  475   0.857   0.431   1.208 -0.6582  0.0154  0.4879
  159SOL    HW1  476   0.828   0.516   1.264  0.8566 -2.4178 -1.3208
  159SOL    HW2  477   0.774   0.386   1.162  0.6576 -2.0234 -1.8575
  160SOL     OW  478   1.360   2.460   1.551  0.3596  0.3661 -0.4100
  160SOL    HW1  479   1.332   2.372   1.604 -1.0090 -1.0975 -3.1081
  160SOL    HW2  480   1.464   2.462   1.550 -1.4722  1.3350 -1.1690
  161SOL     OW  481   3.061   2.795   0.455  0.2102 -0.8537  0.0973
  161SOL    HW1  482   2.990   2.805   0.528 -5.1056 -1.2921 -0.8211
  161SOL    HW2  483   3.016   2.797   0.360 -0.3138 -0.5576 -3.8259
  162SOL     OW  484   2.567   1.828   0.476 -0.1059 -0.2435 -0.0801
  162SOL    HW1  485   2.554   1.834   0.373  0.8063  0.7189  1.5147
  162SOL    HW2  486   2.588   1.736   0.514 -4.3552  0.3812 -2.3044
  163SOL     OW  487   1.965   2.692   0.728  0.0897 -0.5064  0.4412
  163SOL    HW1  488   1.935   2.703   0.631  0.8890 -0.1099 -0.1553
  163SOL    HW2  489   2.053   2.634   0.730 -0.0477  0.7529 -0.0057
  164SOL     OW  490   3.079   0.253   1.271 -0.3245  0.5873 -0.3201
  164SOL    HW1  491   3.103   0.328   1.198  0.0929  1.1093 -0.4066
  164SOL    HW2  492   3.158   0.218   1.334  2.7268  1.4883  0.0874
  165SOL     OW  493   1.056   1.405   0.721  0.7107  0.4682 -0.6688
  165SOL    HW1  494   1.025   1.456   0.807 -2.2285  0.5391 -0.9145
  165SOL    HW2  495   1.063   1.473   0.645  1.9795 -2.5652 -1.1303
  166SOL     OW  496   1.587   1.014   1.791 -0.1617  0.4865 -0.1846
  166SOL    HW1  497   1.494   1.031   1.837  1.6179 -1.0656 -0.7255
  166SOL    HW2  498   1.636   1.105   1.791 -1.2921 -1.3615  1.9133
  167SOL     OW  499   0.751   1.963   1.449  0.5157 -0.1404 -0.0273
  167SOL    HW1  500   0.783   2.043   1.513  1.7223  2.1126  1.1509
  167SOL    HW2  501   0.726   1.875   1.507 -1.1210 -1.2494  0.6674
  168SOL     OW  502   1.602   2.341   0.184 -0.4478  0.3122 -0.5515
  168SOL    HW1  503   1.678   2.350   0.110  1.4218 -2.2072  0.1208
  168SOL    HW2  504   1.640   2.285   0.265  0.6121 -0.6687 -1.3112
  169SOL     OW  505   0.161   2.564   2.238 -0.6157  0.1993 -0.4438
  169SOL    HW1  506   0.211   2.519   2.155  1.6453 -0.9751  0.9796
  169SOL    HW2  507   0.203   2.530   2.326 -0.6409  1.0530 -0.0354
  170SOL     OW  508   1.098   0.251   2.014  0.0783 -0.0571 -0.2298
  170SOL    HW1  509   1.173   0.223   2.082 -1.5802  0.5039  1.6571
  170SOL    HW2  510   1.116   0.219   1.921 -2.1870 -3.1267  3.2315
  171SOL     OW  511   0.199   0.810   2.381  0.3291  0.4434 -0.0083
  171SOL    HW1  512   0.108   0.847   2.417 -0.1721 -0.3885  0.6351
  171SOL    HW2  513   0.205   0.806   2.282  0.7403 -0.7400  1.5429
  172SOL     OW  514   0.989   0.985   2.909 -0.4231  0.0791  0.4422
  172SOL    HW1  515   0.983   1.062   2.981  2.2389  1.3921  0.8471
  172SOL    HW2  516   0.923   1.001   2.827 -1.6413  1.0134 -0.2480
  173SOL     OW  517   0.527   2.482   0.116 -0.6537 -0.8390  0.3985
  173SOL    HW1  518   0.506   2.378   0.113 -0.3724 -1.1178 -1.7480
  173SOL    HW2  519   0.468   2.545   0.179  2.6102  0.3277 -0.1743
  174SOL     OW  520   1.493   2.828   1.042 -0.4396 -0.1425  0.2248
  174SOL    HW1  521   1.574   2.889   1.008  0.8626  3.1454 -1.8252
  174SOL    HW2  522   1.492   2.741   0.986 -0.6049  3.4714 -0.0959
  175SOL     OW  523   0.465   3.034   1.695  0.0977  0.2054 -0.3517
  175SOL    HW1  524   0.517   3.020   1.787 -0.0893 -0.3157  1.1762
  175SOL    HW2  525   0.438   3.135   1.679  1.0761  0.8564 -1.7605
  176SOL     OW  526   2.558   0.376   0.006  0.1547 -0.2344  0.2816
  176SOL    HW1  527   2.596   0.465   0.042  2.0986  1.2521 -1.4471
  176SOL    HW2  528   2.523   0.315   0.075  2.0453  0.2038 -0.4752
  177SOL     OW  529   0.298   0.286   0.939 -0.0091 -0.2322 -0.0098
  177SOL    HW1  530   0.255   0.190   0.930  0.8985 -0.6292  1.6969
  177SOL    HW2  531   0.311   0.302   1.040  1.8222 -2.4502  0.1207
  178SOL     OW  532   0.014   2.726   2.608 -0.4945  0.1045  0.0216
  178SOL    HW1  533  -0.001   2.629   2.568 -0.1286 -1.1645 -0.7906
  178SOL    HW2  534   0.098   2.727   2.666 -0.0791 -0.3375  0.2816
  179SOL     OW  535   3.031   1.557   1.151 -0.0370 -0.1200 -0.2393
  179SOL    HW1  536   3.095   1.564   1.070 -0.7586  2.1262  1.3604
  179SOL    HW2  537   3.073   1.509   1.233 -0.5381 -3.0397  0.9732
  180SOL     OW  538   0.207   1.310   1.804  0.0021  0.4858  0.2543
  180SOL    HW1  539   0.286   1.246   1.835 -2.2066  1.0875 -1.1549
  180SOL    HW2  540   0.190   1.393   1.856  0.7650  0.3748 -1.7364
  181SOL     OW  541   3.034   1.935   2.515 -0.5593  1.2242 -0.2125
  181SOL    HW1  542   3.083   2.022   2.495  0.0549 -0.8888 -0.4002
  181SOL    HW2  543   2.940   1.924   2.465 -1.4990 -2.8638 -0.4923
  182SOL     OW  544   2.341   1.230   1.236  0.3261  0.3426  0.4340
  182SOL    HW1  545   2.284   1.180   1.169 -0.5677 -0.8364 -1.4615
  182SOL    HW2  546   2.345   1.335   1.229 -3.3094  0.9689  0.5885
  183SOL     OW  547   1.431   2.237   2.535  0.2977 -0.1602 -0.1186
  183SOL    HW1  548   1.353   2.189   2.589  0.1336 -0.2120  1.8172
  183SOL    HW2  549   1.493   2.171   2.491  1.0295  2.2942 -0.8408
  184SOL     OW  550   2.079   0.929   0.724  0.6669 -0.2754 -0.2487
  184SOL    HW1  551   1.996   0.970   0.676  2.1786 -3.9126  2.3822
  184SOL    HW2  552   2.052   0.833   0.757 -0.2013  0.3193 -0.1276
  185SOL     OW  553   1.570   2.736   1.986 -0.1896  0.0947  0.6336
  185SOL    HW1  554   1.500   2.809   1.961 -0.2604  0.2101  0.5901
  185SOL    HW2  555   1.598   2.739   2.084  0.4422  0.0960  1.0055
  186SOL     OW  556   0.089   2.212   1.632 -0.1924  0.0733  0.3184
  186SOL    HW1  557   0.057   2.260   1.716 -3.6794 -1.2564 -1.2424
  186SOL    HW2  558   0.184   2.164   1.644 -0.8704 -0.5149 -0.1453
  187SOL     OW  559   1.395   0.629   1.649 -0.3490 -0.2153 -0.2195
  187SOL    HW1  560   1.482   0.679   1.657  0.0863 -2.5945 -1.8225
  187SOL    HW2  561   1.393   0.567   1.732  2.4236  2.1020 -0.2095
  188SOL     OW  562   2.841   2.741   1.476 -0.4944 -0.7535 -0.3222
  188SOL    HW1  563   2.837   2.839   1.455 -0.3356 -3.5586 -1.3458
  188SOL    HW2  564   2.774   2.684   1.417  0.7987 -0.2910 -2.0317
  189SOL     OW  565   0.865   1.196   1.423  0.2867 -0.9385 -0.0595
  189SOL    HW1  566   0.916   1.247   1.496 -3.1639  0.5029 -0.3722
  189SOL    HW2  567   0.830   1.267   1.354  1.5734  1.3648  0.6407
  190SOL     OW  568   1.490   1.910   1.584  0.3642 -0.0986  0.0658
  190SOL    HW1  569   1.452   1.815   1.572  0.6896  1.3447  1.4503
  190SOL    HW2  570   1.468   1.935   1.684  2.0072  0.1384 -2.4731
  191SOL     OW  571   0.932   0.771   1.494 -0.0382  0.2299 -0.2257
  191SOL    HW1  572   0.999   0.709   1.546  0.7983  1.0267  1.5489
  191SOL    HW2  573   0.969   0.861   1.450 -1.6438  1.5966  1.1988
  192SOL     OW  574   1.844   2.380   1.118  0.4340  0.6335 -0.0735
  192SOL    HW1  575   1.765   2.379   1.050 -1.4001  1.2423 -0.2790
  192SOL    HW2  576   1.935   2.358   1.071  0.9775  1.7221  2.7780
  193SOL     OW  577   0.524   0.514   0.398 -0.1024  0.4052  0.0836
  193SOL    HW1  578   0.480   0.428   0.425  0.5964 -0.1564 -0.2900
  193SOL    HW2  579   0.553   0.516   0.293  1.1396  0.1860 -1.8858
  194SOL     OW  580   0.321   0.909   1.302 -0.6961 -0.0224 -0.4119
  194SOL    HW1  581   0.263   0.827   1.326  0.7632 -0.9776 -1.4751
  194SOL    HW2  582   0.322   0.935   1.202  0.0795  1.9442 -1.4369
  195SOL     OW  583   0.995   2.899   0.522 -0.6422  0.0259 -0.1403
  195SOL    HW1  584   0.986   2.820   0.453  2.4690  0.0857 -0.2892
  195SOL    HW2  585   1.093   2.930   0.532 -1.1021 -3.0214 -2.5293
  196SOL     OW  586   0.203   1.360   1.349  0.0261  0.1525 -0.0469
  196SOL    HW1  587   0.204   1.464   1.370  0.5480  0.2834 -1.7266
  196SOL    HW2  588   0.204   1.308   1.439 -1.7636  1.1721  0.5731
  197SOL     OW  589   0.814   2.024   0.257 -0.0684 -0.0849  0.2780
  197SOL    HW1  590   0.782   2.021   0.357 -1.7661 -3.2257  2.5281
  197SOL    HW2  591   0.831   1.931   0.219  1.3701 -0.3552  0.9833
  198SOL     OW  592   0.343   1.260   0.340 -0.1290 -0.1085 -0.2678
  198SOL    HW1  593   0.244   1.249   0.358 -1.5456  0.1205  0.7621
  198SOL    HW2  594   0.381   1.349   0.379 -0.6422  1.2098  2.4728
  199SOL     OW  595   2.295   0.445   2.592 -0.0851 -0.2739 -0.0308
  199SOL    HW1  596   2.237   0.397   2.666  0.0291  1.2224 -1.5410
  199SOL    HW2  597   2.396   0.405   2.592  1.6254 -0.4321  1.7218
  200SOL     OW  598   3.088   2.997   0.736  0.1513  0.7125  0.3447
  200SOL    HW1  599   3.154   3.078   0.728  2.7930  1.6227 -1.9007
  200SOL    HW2  600   2.994   3.009   0.687 -2.4399 -0.6792 -1.0046
  201SOL     OW  601   0.994   0.695   0.514 -0.3443  0.3365 -0.5415
  201SOL    HW1  602   1.040   0.744   0.596 -2.1852 -1.3603  0.6601
  201SOL    HW2  603   0.902   0.658   0.545  0.7394 -0.6111  1.9691
  202SOL     OW  604   0.418   1.189   1.887 -0.2393  0.7369 -0.3415
  202SOL    HW1  605   0.513   1.148   1.875  2.1680 -0.0566  2.4512
  202SOL    HW2  606   0.420   1.252   1.968  1.5872  0.8026 -0.0451
  203SOL     OW  607   0.590   0.175   1.506 -0.8416  0.0780  0.0003
  203SOL    HW1  608   0.613   0.101   1.437  1.0858 -2.4174  1.0347
  203SOL    HW2  609   0.649   0.172   1.594  2.2225  1.2927 -0.3701
  204SOL     OW  610   2.121   1.811   2.950  0.1676 -0.1758  0.3040
  204SOL    HW1  611   2.125   1.705   2.974 -0.5654 -1.0680  3.3489
  204SOL    HW2  612   2.185   1.840   2.873 -1.7790  2.6271  2.4573
  205SOL     OW  613   1.835   1.839   3.032 -0.0097 -0.3648  0.0920
  205SOL    HW1  614   1.932   1.821   2.994  0.3983 -1.1667 -2.3410
  205SOL    HW2  615   1.800   1.938   3.021  0.7589 -0.2690  1.0882
  206SOL     OW  616   2.414   2.816   0.367  0.2626 -0.1109 -0.0574
  206SOL    HW1  617   2.446   2.730   0.414 -1.9307  1.6606 -0.2885
  206SOL    HW2  618   2.484   2.851   0.303 -0.4298 -0.8685  1.2174
  207SOL     OW  619   0.686   1.792   2.948 -0.1609  0.1270 -0.1710
  207SOL    HW1  620   0.774   1.737   2.934  1.0357  1.8900  1.1820
  207SOL    HW2  621   0.614   1.734   2.998  1.6612 -1.0440 -1.3456
  208SOL     OW  622   1.168   1.654   1.348 -0.0295  0.2870  0.2101
  208SOL    HW1  623   1.150   1.709   1.260 -1.4973 -0.8259 -0.7511
  208SOL    HW2  624   1.169   1.713   1.432  0.7826  0.4434 -0.9186
  209SOL     OW  625   0.260   0.972   3.083 -0.0237  0.3808 -0.1708
  209SOL    HW1  626   0.215   0.905   3.022  0.8835  1.4871  1.5840
  209SOL    HW2  627   0.248   0.944   3.180 -1.1500  1.2115 -0.0207
  210SOL     OW  628   1.700   0.492   1.212 -0.1796 -0.1506  0.8108
  210SOL    HW1  629   1.662   0.585   1.189  4.2377 -1.1930 -1.2855
  210SOL    HW2  630   1.806   0.494   1.193  0.5413  0.7301 -2.7106
  211SOL     OW  631   2.066   1.009   1.586 -0.5311  0.8401 -0.3590
  211SOL    HW1  632   2.093   0.957   1.671 -4.3486 -0.3341  1.1066
  211SOL    HW2  633   2.140   1.072   1.560 -0.2541 -0.7445  1.8036
  212SOL     OW  634   0.017   0.975   1.530  0.4081 -0.1925  0.5378
  212SOL    HW1  635   0.101   1.035   1.553  0.4405  0.6359  0.0080
  212SOL    HW2  636   0.014   0.882   1.579  3.0052 -1.7616 -2.0112
  213SOL     OW  637   2.702   0.160   0.356 -0.0992  0.2837 -0.4511
  213SOL    HW1  638   2.798   0.133   0.318  4.2722  1.1702 -0.4920
  213SOL    HW2  639   2.628   0.128   0.298 -0.8147 -1.0129 -1.6460
  214SOL     OW  640   2.191   0.353   2.340 -0.1175  1.1522 -0.0736
  214SOL    HW1  641   2.250   0.409   2.401 -0.4662  2.1954 -0.2824
  214SOL    HW2  642   2.172   0.261   2.385  3.5152  0.7656  0.6374
  215SOL     OW  643   1.630   2.269   2.102  0.1797  0.3159  0.2560
  215SOL    HW1  644   1.724   2.292   2.066 -0.7102 -0.6013 -0.6555
  215SOL    HW2  645   1.582   2.349   2.145  0.7814  1.5056 -1.4825
  216SOL     OW  646   2.235   0.611   0.701 -0.0100 -0.7506  0.7176
  216SOL    HW1  647   2.184   0.532   0.657 -1.2114  2.7501  0.9185
  216SOL    HW2  648   2.228   0.699   0.642 -2.2999 -0.9879  0.0181
  217SOL     OW  649   0.798   2.819   2.459  0.5598  0.1772  0.5758
  217SOL    HW1  650   0.773   2.741   2.518  2.9680  1.5893  0.3200
  217SOL    HW2  651   0.755   2.811   2.362 -2.1451  2.6983  1.5936
  218SOL     OW  652   1.913   1.470   0.049  0.0003  0.4099  0.0896
  218SOL    HW1  653   1.811   1.485   0.020 -1.0244  1.8368 -2.6169
  218SOL    HW2  654   1.927   1.373   0.091  1.4493  0.3104 -1.3477
  219SOL     OW  655   2.440   1.291   2.504 -0.2450 -0.2733  0.2275
  219SOL    HW1  656   2.463   1.232   2.426 -1.2673  0.5901 -0.2029
  219SOL    HW2  657   2.464   1.253   2.597 -0.6010 -1.2742 -1.1516
  220SOL     OW  658   1.448   1.004   1.327 -0.1066 -0.3571  0.1790
  220SOL    HW1  659   1.547   1.038   1.349 -0.1652  1.6173  0.5331
  220SOL    HW2  660   1.414   1.025   1.230 -0.1838 -0.1810 -0.7791
  221SOL     OW  661   1.287   0.992   2.180 -0.3904 -0.3831  0.2737
  221SOL    HW1  662   1.208   1.048   2.143  2.3321  0.3582 -0.8395
  221SOL    HW2  663   1.376   1.038   2.167 -1.2319 -0.3120 -0.4052
  222SOL     OW  664   1.131   0.110   1.200 -0.1465  0.6250 -0.4220
  222SOL    HW1  665   1.067   0.188   1.229  1.0607  0.6821  2.7689
  222SOL    HW2  666   1.180   0.134   1.114  1.9523  0.0488  0.7457
  223SOL     OW  667   2.708   0.941   2.147 -0.1704 -0.2932  0.3115
  223SOL    HW1  668   2.656   1.022   2.184  0.9879 -0.3869 -0.7791
  223SOL    HW2  669   2.798   0.921   2.194  0.9455  1.1113 -1.1506
  224SOL     OW  670   1.477   1.086   2.721 -0.2628  0.9601  0.0072
  224SOL    HW1  671   1.521   1.014   2.657 -1.1924 -1.9889 -0.9096
  224SOL    HW2  672   1.474   1.178   2.679 -3.8355 -3.6419  1.4127
  225SOL     OW  673   2.968   2.719   2.890 -0.0025  0.3055 -0.4509
  225SOL    HW1  674   2.878   2.712   2.840 -1.9845  0.0408 -2.5414
  225SOL    HW2  675   3.045   2.730   2.827  0.6120 -0.8205  0.9997
  226SOL     OW  676   2.386   1.638   2.869 -1.0716  0.0450 -0.3277
  226SOL    HW1  677   2.393   1.618   2.763 -2.7070  2.2190 -1.2686
  226SOL    HW2  678   2.355   1.553   2.917 -0.7062 -2.2388  1.4003
  227SOL     OW  679   0.837   0.202   3.064  0.2337  0.2278  0.1943
  227SOL    HW1  680   0.874   0.301   3.049  0.2576  2.8166  1.1086
  227SOL    HW2  681   0.766   0.180   2.987  1.2016  0.1304 -3.7206
  228SOL     OW  682   2.451   0.583   2.849 -0.6664  0.3787 -0.1079
  228SOL    HW1  683   2.473   0.648   2.767  1.2772  1.0604 -3.5385
  228SOL    HW2  684   2.515   0.507   2.855  1.3419  0.0623 -0.4261
  229SOL     OW  685   0.576   0.449   1.811 -0.0937 -0.6185  0.2998
  229SOL    HW1  686   0.578   0.355   1.852 -0.7078 -3.2974 -2.1544
  229SOL    HW2  687   0.620   0.453   1.715  1.7153 -2.4275  0.7533
  230SOL     OW  688   1.914   1.176   2.041 -0.4083  0.0680 -0.4912
  230SOL    HW1  689   1.983   1.236   1.985 -0.0117  1.8175  2.4246
  230SOL    HW2  690   1.826   1.227   2.064 -0.1922  0.5546  2.0284
  231SOL     OW  691   0.619   1.056   0.026  0.1640  0.4075  0.3390
  231SOL    HW1  692   0.677   1.102  -0.047 -0.6021  1.3311 -3.4378
  231SOL    HW2  693   0.539   1.116   0.051  2.6394 -1.5284 -2.2300
  232SOL     OW  694   2.426   3.055   2.866 -0.1367 -0.2583 -0.1515
  232SOL    HW1  695   2.514   2.998   2.878 -0.1701 -1.7471 -0.8236
  232SOL    HW2  696   2.425   3.091   2.766  0.1043 -1.2953 -0.8393
  233SOL     OW  697   1.782   1.240   1.171 -0.0053  0.6908  1.0738
  233SOL    HW1  698   1.810   1.185   1.088  0.7028  3.9159  1.7186
  233SOL    HW2  699   1.781   1.181   1.255  0.5141 -1.3054 -0.4906
  234SOL     OW  700   1.595   2.483   1.847 -0.0492  0.6405  0.4933
  234SOL    HW1  701   1.578   2.573   1.890  0.8564 -0.3114 -2.4898
  234SOL    HW2  702   1.510   2.426   1.846 -1.5760  0.9296 -0.6116
  235SOL     OW  703   0.019   3.036   2.813  0.4286 -0.0628  0.4004
  235SOL    HW1  704  -0.049   3.028   2.728 -1.1541 -0.6310 -1.8374
  235SOL    HW2  705  -0.023   3.079   2.900  1.8145  0.6238 -0.4188
  236SOL     OW  706   2.877   0.740   0.055 -0.2157 -0.2098  0.0122
  236SOL    HW1  707   2.961   0.769   0.117  1.2840  1.9424 -0.1055
  236SOL    HW2  708   2.897   0.655  -0.001 -0.4694  0.5163  3.3240
  237SOL     OW  709   1.539   1.630   0.961 -0.5389  0.0695  0.1125
  237SOL    HW1  710   1.637   1.630   0.929 -1.1235 -1.3090 -2.4019
  237SOL    HW2  711   1.521   1.667   1.058  0.7043  0.1559 -1.3841
  238SOL     OW  712   1.864   1.280   0.773  0.2817  0.3718 -0.0721
  238SOL    HW1  713   1.921   1.298   0.859  2.1000 -1.1749 -2.0549
  238SOL    HW2  714   1.776   1.340   0.763 -3.6474  1.4748 -1.5292
  239SOL     OW  715   2.102   0.291   2.738 -0.4050  0.0766  0.0186
  239SOL    HW1  716   2.148   0.291   2.833  1.7334  3.4419  1.8567
  239SOL    HW2  717   2.010   0.338   2.732  0.0885  0.5697 -0.6962
  240SOL     OW  718   0.936   0.676   0.238 -0.0440 -0.1882  0.0455
  240SOL    HW1  719   0.980   0.579   0.215  1.1469 -0.1717  1.0556
  240SOL    HW2  720   0.938   0.701   0.343 -1.8121  0.1773  0.2158
  241SOL     OW  721   0.600   0.072   0.402 -0.4173  0.8074  0.2957
  241SOL    HW1  722   0.639   0.142   0.335  1.4948 -0.0928  2.6262
  241SOL    HW2  723   0.611  -0.023   0.368  3.7041 -0.7334  0.8737
  242SOL     OW  724   0.597   2.504   1.134  0.3315  0.6757 -0.0399
  242SOL    HW1  725   0.581   2.516   1.235 -2.0560 -0.1545 -1.7575
  242SOL    HW2  726   0.610   2.597   1.091 -0.5415  0.1921 -0.5389
  243SOL     OW  727   1.060   0.613   2.486 -0.2471  0.2379 -0.3075
  243SOL    HW1  728   0.989   0.661   2.426 -0.1189  1.1509 -0.5527
  243SOL    HW2  729   1.019   0.545   2.557  2.5492 -2.3076 -0.2195
  244SOL     OW  730   2.812   1.867   2.352 -0.4787  0.2357 -0.2482
  244SOL    HW1  731   2.826   1.846   2.253 -1.3814  2.2379  1.2235
  244SOL    HW2  732   2.730   1.826   2.393  3.2578  0.2432  0.8610
  245SOL     OW  733   2.207   0.895   2.156  0.3096  0.0674  0.4667
  245SOL    HW1  734   2.308   0.875   2.162 -2.0687  4.0400  2.4696
  245SOL    HW2  735   2.178   0.957   2.232  1.6291 -0.1917  1.6478
  246SOL     OW  736   0.222   2.915   1.688 -0.4675 -0.1765 -0.0689
  246SOL    HW1  737   0.156   2.946   1.618 -1.0900  2.4944  2.0376
  246SOL    HW2  738   0.310   2.967   1.688 -2.6983 -3.0171 -1.9805
  247SOL     OW  739   2.211   0.645   2.980  0.4384 -0.0603 -0.3323
  247SOL    HW1  740   2.291   0.631   2.915  1.4428  1.8356  0.1119
  247SOL    HW2  741   2.156   0.730   2.976  1.1592  0.6409  0.9064
  248SOL     OW  742   2.182   1.830   1.570  0.2514 -0.0658 -0.4164
  248SOL    HW1  743   2.241   1.750   1.590 -2.2531  0.7708  0.2162
  248SOL    HW2  744   2.092   1.837   1.627 -3.3301 -1.6574  0.4120
  249SOL     OW  745   1.904   1.933   1.916  0.4883 -0.9501 -0.6446
  249SOL    HW1  746   1.899   1.876   1.828  1.5472 -3.1222  0.0726
  249SOL    HW2  747   2.003   1.967   1.938  1.9731 -1.2791  0.2006
  250SOL     OW  748   1.083   0.678   1.890 -0.0324  0.1204  0.3818
  250SOL    HW1  749   1.130   0.627   1.965 -3.0180  2.6731  1.3218
  250SOL    HW2  750   1.084   0.630   1.800  1.0342 -0.1746  0.7438
  251SOL     OW  751   3.088   1.664   2.527 -0.2446 -0.2687 -0.3176
  251SOL    HW1  752   3.068   1.767   2.523  1.1630  0.0697 -2.4469
  251SOL    HW2  753   2.997   1.616   2.534 -0.7949  2.2021 -1.5020
  252SOL     OW  754   1.615   0.778   1.665  0.1223 -0.6093  0.8263
  252SOL    HW1  755   1.699   0.758   1.610  1.8974 -2.1694 -0.3243
  252SOL    HW2  756   1.612   0.877   1.692  2.0785 -0.3014 -0.0215
  253SOL     OW  757   0.999   1.572   0.474  0.1609 -0.3416 -1.1854
  253SOL    HW1  758   0.977   1.485   0.423  0.9591  1.5996  0.2152
  253SOL    HW2  759   0.917   1.610   0.531 -2.4363 -0.9095 -0.0213
  254SOL     OW  760   2.045   2.177   1.644  0.1291  0.2164  0.5091
  254SOL    HW1  761   1.998   2.107   1.585  0.5742 -0.6326 -0.0316
  254SOL    HW2  762   1.978   2.230   1.706 -1.2661 -0.6030 -1.2505
  255SOL     OW  763   0.139   1.166   2.924  0.0976  0.5781 -0.1935
  255SOL    HW1  764   0.200   1.246   2.907 -1.0836 -0.8459 -1.1914
  255SOL    HW2  765   0.190   1.098   2.984 -0.0405 -1.4613  2.1670
  256SOL     OW  766   2.877   1.424   1.798 -0.0447 -0.1132  0.0210
  256SOL    HW1  767   2.798   1.491   1.805 -0.4875 -1.3173  2.2665
  256SOL    HW2  768   2.853   1.327   1.792  2.9342 -0.0114  0.6249
  257SOL     OW  769   0.779   0.160   1.723  0.1372  0.8541  0.5651
  257SOL    HW1  770   0.852   0.226   1.702 -0.2765 -0.1620  2.6056
  257SOL    HW2  771   0.812   0.062   1.740 -1.3211 -1.7353  1.5174
  258SOL     OW  772   3.007   1.227   0.455 -0.5901  0.2544  0.5919
  258SOL    HW1  773   2.917   1.275   0.451  1.3063  1.7213  2.0041
  258SOL    HW2  774   3.048   1.215   0.551  3.8539 -1.3599  0.4664
  259SOL     OW  775   0.450   2.909   3.057 -0.4527 -0.1345  0.1602
  259SOL    HW1  776   0.380   2.845   3.109  0.7524  0.9412 -0.4095
  259SOL    HW2  777   0.466   2.882   2.959 -0.0567  0.4617 -1.0821
  260SOL     OW  778   2.738   0.674   2.797 -0.5098 -0.5566 -0.4658
  260SOL    HW1  779   2.670   0.749   2.778  1.8990  0.0413  1.2073
  260SOL    HW2  780   2.702   0.582   2.830 -1.6839  2.6064  1.2389
  261SOL     OW  781   2.702   1.337   1.311  0.8018 -0.6992  0.2559
  261SOL    HW1  782   2.678   1.288   1.225 -0.7964  2.2213  0.5543
  261SOL    HW2  783   2.774   1.290   1.369  1.1293 -1.1670  2.1309
  262SOL     OW  784   1.396   2.954   1.936  0.1926 -0.1081 -0.6105
  262SOL    HW1  785   1.426   3.054   1.918  1.0078  1.7420  3.5036
  262SOL    HW2  786   1.313   2.919   1.888 -0.2240 -2.1138  1.4312
  263SOL     OW  787   0.878   0.674   2.288 -0.1231 -0.0448 -0.4774
  263SOL    HW1  788   0.821   0.589   2.267  2.6313  1.0297 -0.2938
  263SOL    HW2  789   0.898   0.745   2.214 -1.1176 -0.9305  0.3734
  264SOL     OW  790   2.227   0.801   0.430  0.1288  0.0344 -1.0046
  264SOL    HW1  791   2.225   0.742   0.341  2.2713 -1.2775 -0.6783
  264SOL    HW2  792   2.319   0.851   0.450  0.8540 -2.5517  1.5652
  265SOL     OW  793   0.925   2.468   2.654 -0.4761  0.0336 -0.0083
  265SOL    HW1  794   0.996   2.518   2.711  1.1290  1.0528  2.0308
  265SOL    HW2  795   0.908   2.367   2.687 -0.7180 -2.9212  1.0887
  266SOL     OW  796   1.331   1.828   3.024  0.1873 -0.0148  0.5258
  266SOL    HW1  797   1.354   1.866   3.120  1.9977 -2.0144  1.3105
  266SOL    HW2  798   1.410   1.768   2.996 -0.3682  0.2727 -0.1594
  267SOL     OW  799   1.020   0.043   2.343  0.1206  0.5447 -0.4064
  267SOL    HW1  800   0.981  -0.028   2.271 -1.3564  0.0260  0.8649
  267SOL    HW2  801   0.994   0.140   2.321 -1.9977 -1.7857 -0.9665
  268SOL     OW  802   0.628   1.174   1.061  1.0060  0.9783  0.2496
  268SOL    HW1  803   0.614   1.167   1.167 -0.7471  2.0349  1.2558
  268SOL    HW2  804   0.652   1.267   1.038  0.7310 -1.6466  1.9254
  269SOL     OW  805   2.304   2.532   1.619  0.5791 -0.1203  0.1171
  269SOL    HW1  806   2.394   2.483   1.632  1.6285 -1.6058 -0.8310
  269SOL    HW2  807   2.251   2.562   1.705 -2.0335  2.5456 -0.7080
  270SOL     OW  808   0.155   2.959   1.960 -0.1491 -0.0762 -0.0517
  270SOL    HW1  809   0.174   2.934   1.862  0.5001 -0.3097 -0.3627
  270SOL    HW2  810   0.161   2.877   2.023  1.8935  0.0725 -0.1301
  271SOL     OW  811   0.419   1.382   1.184  0.2791  0.1711 -0.3347
  271SOL    HW1  812   0.388   1.367   1.086  1.6830  0.0043 -1.2043
  271SOL    HW2  813   0.342   1.370   1.248  1.9170 -1.8660 -1.6559
  272SOL     OW  814   2.030   2.943   1.934 -0.0849  0.4025 -0.2407
  272SOL    HW1  815   1.932   2.924   1.901 -0.1900 -2.6442 -2.8471
  272SOL    HW2  816   2.078   3.000   1.864 -1.0595 -0.4036  4.8605
  273SOL     OW  817   1.491   1.460   2.743  0.0941 -0.1680  0.1612
  273SOL    HW1  818   1.388   1.454   2.762  0.0191 -0.7808  0.8618
  273SOL    HW2  819   1.545   1.401   2.811  1.2022  0.3466 -0.6476
  274SOL     OW  820   1.184   0.509   2.067  0.0371  0.1918 -0.3577
  274SOL    HW1  821   1.116   0.432   2.044 -0.5658 -0.1651  1.0071
  274SOL    HW2  822   1.212   0.500   2.168 -2.1429 -0.5810  0.5965
  275SOL     OW  823   0.631   2.130   1.879  0.3748  0.6845 -0.1462
  275SOL    HW1  824   0.602   2.228   1.904 -1.4871 -0.2797  1.7541
  275SOL    HW2  825   0.547   2.064   1.873  2.3094 -1.9344 -1.4987
  276SOL     OW  826   2.219   1.093   2.769 -0.2592  0.7950  0.1733
  276SOL    HW1  827   2.147   1.111   2.694 -0.4908  0.6532 -0.0351
  276SOL    HW2  828   2.192   1.020   2.833  0.3877  1.0510 -1.3781
  277SOL     OW  829   3.082   0.756   0.248  0.3677 -0.3325 -0.0763
  277SOL    HW1  830   3.171   0.780   0.208 -1.1943 -1.4004  0.7127
  277SOL    HW2  831   3.086   0.671   0.304  0.2378  0.9807  0.7582
  278SOL     OW  832   0.217   0.299   2.930  0.2180 -0.0001  0.0546
  278SOL    HW1  833   0.296   0.238   2.924 -2.4519 -1.2658 -3.8115
  278SOL    HW2  834   0.241   0.396   2.968  1.4368  1.7620 -2.1914
  279SOL     OW  835   0.235   0.023   0.891 -0.3378  0.0882 -0.0351
  279SOL    HW1  836   0.201  -0.054   0.951  0.0697 -0.6282  1.1919
  279SOL    HW2  837   0.282  -0.011   0.803  1.4745  0.5670  2.5140
  280SOL     OW  838   1.607   2.941   2.391  0.5638  0.3630 -0.1888
  280SOL    HW1  839   1.648   2.985   2.473 -2.3268  0.2047 -1.4490
  280SOL    HW2  840   1.551   3.004   2.326 -1.2286 -3.8540 -2.2933
  281SOL     OW  841   0.594   0.968   2.278  0.0615  0.2079 -0.3195
  281SOL    HW1  842   0.575   0.880   2.230 -2.0826  2.5449 -2.5800
  281SOL    HW2  843   0.562   0.967   2.377  0.8748 -0.9047 -0.9484
  282SOL     OW  844   1.783   2.490   0.496 -0.0650  0.0275 -0.0539
  282SOL    HW1  845   1.754   2.416   0.426 -2.5074 -2.0520 -1.0666
  282SOL    HW2  846   1.702   2.524   0.553 -0.5151  1.7598 -0.9329
  283SOL     OW  847   1.226   0.936   0.793 -0.1399  0.0669 -0.4341
  283SOL    HW1  848   1.227   0.880   0.879 -0.1705 -0.4149 -1.4102
  283SOL    HW2  849   1.148   1.004   0.780 -0.0396 -0.6566 -0.2467
  284SOL     OW  850   2.234   2.839   2.503 -0.0092 -0.3270  0.2574
  284SOL    HW1  851   2.332   2.806   2.497  2.1775 -0.8360 -0.3574
  284SOL    HW2  852   2.215   2.887   2.588 -0.6721 -1.6366 -3.4476
  285SOL     OW  853   1.360   3.049   2.584 -0.2764  0.5759 -0.2118
  285SOL    HW1  854   1.408   3.057   2.493  1.3005  0.1250 -1.9550
  285SOL    HW2  855   1.261   3.071   2.586  2.1164 -1.9224  0.4879
  286SOL     OW  856   0.437   0.430   0.754 -0.3943 -0.3239  0.4639
  286SOL    HW1  857   0.401   0.367   0.836  0.1099 -1.1486  0.7491
  286SOL    HW2  858   0.448   0.382   0.663  1.2864  1.1293 -1.4271
  287SOL     OW  859   0.075   1.257   2.503  0.0421  0.4344  0.1101
  287SOL    HW1  860  -0.001   1.196   2.547 -1.4936 -3.5192 -1.3889
  287SOL    HW2  861   0.107   1.340   2.554 -1.0502 -2.2694  0.0864
  288SOL     OW  862   1.592   2.680   1.604  0.2569  0.4480 -0.0480
  288SOL    HW1  863   1.578   2.598   1.661 -0.4033 -2.1664  2.2937
  288SOL    HW2  864   1.609   2.658   1.503  4.0064 -0.3495  2.1462
  289SOL     OW  865   0.595   2.736   0.852 -0.4398 -0.4383  0.2283
  289SOL    HW1  866   0.644   2.800   0.784  1.6111 -0.1819 -1.1087
  289SOL    HW2  867   0.577   2.780   0.942 -1.2135 -1.5088 -0.0849
  290SOL     OW  868   2.838   1.146   1.805  0.2522  0.5467 -0.5996
  290SOL    HW1  869   2.770   1.073   1.792  2.5882  0.9324  2.9465
  290SOL    HW2  870   2.927   1.107   1.840 -0.0293 -1.0345  0.0404
  291SOL     OW  871   1.976   3.088   0.034  0.1694 -0.4977 -0.1500
  291SOL    HW1  872   1.977   3.112   0.135  0.5435  1.2646 -2.3613
  291SOL    HW2  873   2.047   3.127  -0.027  0.9672 -3.2366  1.3156
  292SOL     OW  874   3.018   1.225   3.073 -0.0775  0.1124  0.0030
  292SOL    HW1  875   2.958   1.289   3.027  2.0273 -1.2838  1.0796
  292SOL    HW2  876   3.089   1.185   3.011 -0.4341  0.6217  1.7108
  293SOL     OW  877   0.540   2.174   0.275 -0.2030 -0.4663 -0.3680
  293SOL    HW1  878   0.485   2.248   0.330 -3.1422  0.4190  0.8306
  293SOL    HW2  879   0.636   2.174   0.305  0.4470  1.7722  1.7350
  294SOL     OW  880   1.823   2.299   1.778  0.4196  0.0717 -0.3005
  294SOL    HW1  881   1.854   2.348   1.865 -1.0385 -2.0501  3.0430
  294SOL    HW2  882   1.748   2.350   1.718 -0.7715 -0.8204 -1.5068
  295SOL     OW  883   0.977   1.061   0.440  0.2850  0.3369  0.1841
  295SOL    HW1  884   1.075   1.038   0.458 -1.0354  1.2505 -0.4158
  295SOL    HW2  885   0.916   1.033   0.519 -0.7454 -1.1229  3.6894
  296SOL     OW  886   1.217   2.122   2.663  0.9055 -0.3165  0.4001
  296SOL    HW1  887   1.112   2.133   2.671 -2.8503 -2.2674 -0.3287
  296SOL    HW2  888   1.234   2.040   2.602 -0.0301 -1.1260 -0.5085
  297SOL     OW  889   1.347   0.601   1.311  0.4344 -0.3822  0.3001
  297SOL    HW1  890   1.370   0.549   1.396  0.5213 -0.3503  1.2782
  297SOL    HW2  891   1.428   0.651   1.266 -1.0020 -0.3822 -0.3400
  298SOL     OW  892   0.510   1.377   3.009  0.9493 -0.2397  0.1306
  298SOL    HW1  893   0.470   1.318   3.091 -0.5955  1.5001  0.5600
  298SOL    HW2  894   0.556   1.325   2.935 -1.8348 -0.1851  0.6187
  299SOL     OW  895   0.464   0.290   1.273  0.1938  0.0543  0.2244
  299SOL    HW1  896   0.412   0.382   1.265  1.3341 -0.3345 -0.0979
  299SOL    HW2  897   0.489   0.275   1.371 -1.7203  0.1343  2.3149
  300SOL     OW  898   1.268   1.700   2.616 -0.3215  0.2787 -0.3464
  300SOL    HW1  899   1.265   1.608   2.575 -0.1777  1.4159 -3.3931
  300SOL    HW2  900   1.355   1.718   2.679  1.1690 -0.7933  0.5687
  301SOL     OW  901   0.375   0.267   0.491  0.6390 -0.3479  0.3379
  301SOL    HW1  902   0.283   0.243   0.526 -1.2890 -1.8793 -0.5023
  301SOL    HW2  903   0.414   0.212   0.413  1.7511 -1.5266  0.4549
  302SOL     OW  904   1.246   2.427   2.343  0.0760  0.0991 -0.8546
  302SOL    HW1  905   1.160   2.480   2.379 -0.0534 -0.2357  1.0967
  302SOL    HW2  906   1.249   2.331   2.378  2.1505 -0.2793 -0.1325
  303SOL     OW  907   0.922   2.433   0.791  0.2702  0.3334  0.4162
  303SOL    HW1  908   0.971   2.477   0.712  1.7742 -0.0791  1.8880
  303SOL    HW2  909   0.983   2.448   0.880  0.2067 -0.6660 -1.4152
  304SOL     OW  910   0.086   1.934   0.697  0.0978 -0.3611  0.2282
  304SOL    HW1  911   0.154   1.912   0.620  0.0218 -0.3709  0.9407
  304SOL    HW2  912  -0.005   1.971   0.671 -1.6037 -0.0193 -1.9290
  305SOL     OW  913   1.590   0.868   0.673  0.1944  0.6190 -0.1489
  305SOL    HW1  914   1.528   0.853   0.582 -1.3619 -1.6529 -3.0001
  305SOL    HW2  915   1.633   0.774   0.687 -0.9240 -0.6456 -2.1465
  306SOL     OW  916   0.417   1.891   1.870  0.6649  0.2484  0.2357
  306SOL    HW1  917   0.502   1.839   1.847  2.0670 -0.6552  1.0124
  306SOL    HW2  918   0.419   1.931   1.966  0.3790  2.3571  2.1523
  307SOL     OW  919   3.040   0.884   2.520 -0.7524 -0.4744 -0.1515
  307SOL    HW1  920   3.055   0.956   2.596 -0.9675  0.4672 -1.6120
  307SOL    HW2  921   2.984   0.804   2.553 -1.4546  0.8106 -0.3903
  308SOL     OW  922   1.605   2.673   2.783 -0.2834 -0.4603 -0.4740
  308SOL    HW1  923   1.591   2.600   2.707  1.1333 -3.1350  0.1790
  308SOL    HW2  924   1.560   2.632   2.865  1.5452 -0.2578 -0.8463
  309SOL     OW  925   1.247   0.181   1.781 -0.4301  0.1520  0.2171
  309SOL    HW1  926   1.341   0.133   1.795  0.3520 -0.8611 -1.7686
  309SOL    HW2  927   1.225   0.190   1.678 -1.8607  1.8432  2.5335
  310SOL     OW  928   1.540   2.554   0.678 -0.4041 -0.3511 -0.1502
  310SOL    HW1  929   1.500   2.578   0.768  0.7088 -2.1273 -0.0344
  310SOL    HW2  930   1.590   2.642   0.636  1.1165  0.4321 -2.3654
  311SOL     OW  931   1.124   0.929   1.743  0.0348  0.2056  0.1348
  311SOL    HW1  932   1.125   0.833   1.789  0.9796 -1.1776  1.0947
  311SOL    HW2  933   1.125   0.923   1.638 -1.2233 -0.9682 -0.3624
  312SOL     OW  934   1.551   0.717   1.101 -0.4072 -0.9136 -0.4074
  312SOL    HW1  935   1.571   0.814   1.071  0.3909  1.7606  2.0217
  312SOL    HW2  936   1.499   0.671   1.026 -0.8518  1.2500 -3.1419
  313SOL     OW  937   1.621   1.392   0.708  0.5364 -0.6204 -0.2279
  313SOL    HW1  938   1.548   1.385   0.785  1.4283  0.4142  3.6278
  313SOL    HW2  939   1.630   1.302   0.650 -0.4994  1.5601  0.5253
  314SOL     OW  940   2.978   3.093   3.048  0.1707 -0.4282  0.6181
  314SOL    HW1  941   2.991   3.121   3.148  2.6808  0.2321  0.1049
  314SOL    HW2  942   2.892   3.039   3.037  1.0319 -1.0556 -1.2299
  315SOL     OW  943   1.146   0.256   2.793  0.7812  0.4218 -0.1825
  315SOL    HW1  944   1.159   0.181   2.723  1.2369 -0.9586 -0.4648
  315SOL    HW2  945   1.131   0.222   2.890  1.8784  0.6839 -0.6670
  316SOL     OW  946   1.713   2.077   0.920 -0.1188  0.3935 -0.1559
  316SOL    HW1  947   1.641   2.080   0.992 -2.5084  0.7382  0.0347
  316SOL    HW2  948   1.725   2.171   0.873 -1.7902  0.2073  0.6321
  317SOL     OW  949   1.208   0.634   2.806 -0.1092  0.0526 -0.7815
  317SOL    HW1  950   1.145   0.653   2.895 -1.7753 -0.1569  0.3528
  317SOL    HW2  951   1.157   0.621   2.720 -0.3239  0.9949 -0.0532
  318SOL     OW  952   1.434   3.084   2.241  0.3741  0.3372 -0.0472
  318SOL    HW1  953   1.400   3.182   2.229 -2.1848  0.1102 -1.1703
  318SOL    HW2  954   1.413   3.030   2.156 -2.6402 -0.4838  0.7639
  319SOL     OW  955   0.589   2.350   2.932  0.1700 -0.5867  0.2949
  319SOL    HW1  956   0.520   2.317   2.995  0.2722  1.4599 -0.6861
  319SOL    HW2  957   0.666   2.287   2.921  0.1199 -1.6549 -2.7665
  320SOL     OW  958   1.720   2.237   0.407  0.1025 -0.0789  0.2880
  320SOL    HW1  959   1.794   2.173   0.368  0.4014 -1.8781  1.2350
  320SOL    HW2  960   1.641   2.194   0.448  1.1305 -1.1817  0.4016
  321SOL     OW  961   1.674   2.754   0.556  0.1746 -0.2072  0.2427
  321SOL    HW1  962   1.604   2.808   0.502  0.6821  0.0611 -0.5745
  321SOL    HW2  963   1.769   2.774   0.519 -2.4533  2.3870  2.9862
  322SOL     OW  964   2.608   1.112   2.353 -0.2858 -0.0176 -0.1141
  322SOL    HW1  965   2.665   1.160   2.425  0.2340  2.2017  1.7296
  322SOL    HW2  966   2.566   1.027   2.389  0.1339  0.9841  0.4303
  323SOL     OW  967   1.154   2.690   0.851 -0.2165  0.4230 -0.3436
  323SOL    HW1  968   1.124   2.674   0.750  0.2850 -1.7144 -0.0197
  323SOL    HW2  969   1.134   2.787   0.886 -0.6602 -4.0773 -0.7766
  324SOL     OW  970   0.274   2.496   2.483 -0.1099 -0.1306 -0.4472
  324SOL    HW1  971   0.238   2.457   2.569  0.3207  0.6981 -2.7298
  324SOL    HW2  972   0.289   2.598   2.486 -0.6195 -0.8267 -2.1862
  325SOL     OW  973   1.261   2.993   0.489  0.2500  0.5368  0.9039
  325SOL    HW1  974   1.271   3.044   0.398  1.5697 -0.0205  3.1935
  325SOL    HW2  975   1.269   3.058   0.569  1.6239 -0.8267  0.5872
  326SOL     OW  976   2.446   0.783   0.003 -0.0615  0.0862  0.0177
  326SOL    HW1  977   2.367   0.743  -0.050  0.5287  1.1678  0.5244
  326SOL    HW2  978   2.496   0.708   0.056 -1.8806  4.5241 -0.9624
  327SOL     OW  979   2.820   0.319   0.561  0.0618  0.0166 -0.1405
  327SOL    HW1  980   2.782   0.263   0.478 -0.8436 -4.3142 -0.9715
  327SOL    HW2  981   2.844   0.249   0.632 -1.8332 -2.1465 -0.6443
  328SOL     OW  982   2.606   0.630   0.415  0.3236  0.1281  0.3526
  328SOL    HW1  983   2.541   0.710   0.437 -3.6451 -2.6381 -1.1558
  328SOL    HW2  984   2.586   0.549   0.476 -0.8085 -1.8523 -3.5004
  329SOL     OW  985   2.922   2.954   2.153 -0.1898  0.1672 -0.5765
  329SOL    HW1  986   3.016   2.909   2.170  1.5872 -0.7760 -1.9779
  329SOL    HW2  987   2.924   3.060   2.142 -1.2252  0.2877  2.8823
  330SOL     OW  988   0.579   0.197   1.918  0.2492  0.2398 -0.2236
  330SOL    HW1  989   0.654   0.190   1.846  1.3234 -2.3912 -3.4105
  330SOL    HW2  990   0.590   0.142   2.007 -0.3684 -0.9808  2.1842
  331SOL     OW  991   3.012   1.944   1.090  0.1688  0.0036 -0.5007
  331SOL    HW1  992   2.970   1.926   0.998  2.0691  0.0831 -0.5223
  331SOL    HW2  993   2.950   1.923   1.173 -1.4126  0.9486  1.3713
  332SOL     OW  994   0.403   1.203   0.075 -0.2262 -0.1440 -0.5428
  332SOL    HW1  995   0.345   1.121   0.048 -2.2967 -1.6584  4.0913
  332SOL    HW2  996   0.381   1.226   0.174  0.5597 -1.2064 -1.5843
  333SOL     OW  997   2.921   0.987   0.289 -0.2888 -0.3957  0.5550
  333SOL    HW1  998   2.943   1.063   0.349 -1.6197 -2.8595  0.4558
  333SOL    HW2  999   2.985   0.907   0.289 -0.1170  2.0342 -0.0548
  334SOL     OW 1000   1.693   1.267   1.799 -0.3961  0.0982  0.1479
  334SOL    HW1 1001   1.757   1.249   1.715 -0.4309  1.2066 -1.1996
  334SOL    HW2 1002   1.744   1.256   1.893  1.4503 -0.3398  2.0484
  335SOL     OW 1003   1.975   2.729   2.574  0.2310 -0.0574  0.0201
  335SOL    HW1 1004   1.956   2.768   2.666  1.3580  2.2044 -1.0487
  335SOL    HW2 1005   2.072   2.742   2.548  1.3401 -1.7294  1.2430
  336SOL     OW 1006   0.246   0.054   2.722  0.3574 -0.5306 -0.3841
  336SOL    HW1 1007   0.307   0.075   2.804  0.5006  0.5164  0.7463
  336SOL    HW2 1008   0.158   0.007   2.761 -0.1212  0.9379 -0.6884
  337SOL     OW 1009   0.974   2.911   2.903  0.3318  0.6886  0.3824
  337SOL    HW1 1010   0.934   2.858   2.984  0.7290  1.9798  1.7117
  337SOL    HW2 1011   1.070   2.938   2.920 -3.4682 -1.1858 -1.8384
  338SOL     OW 1012   0.078   0.988   0.691 -0.2262  0.0178  0.2514
  338SOL    HW1 1013  -0.022   0.962   0.703 -0.6337 -0.9009  0.7743
  338SOL    HW2 1014   0.095   1.092   0.696  1.1491  0.2080  1.9595
  339SOL     OW 1015   1.701   1.325   2.131  0.3590  0.2941  0.0399
  339SOL    HW1 1016   1.619   1.381   2.100  0.6957  2.4225 -0.8300
  339SOL    HW2 1017   1.766   1.371   2.195 -1.3892  2.8450  2.8039
  340SOL     OW 1018   2.295   0.747   1.163  0.2181  0.0528 -0.0390
  340SOL    HW1 1019   2.210   0.746   1.107 -0.5849 -0.6736  0.3194
  340SOL    HW2 1020   2.335   0.653   1.174 -0.2972  2.6815  1.1698
  341SOL     OW 1021   1.939   2.109   0.309  0.2997  0.2219  0.4557
  341SOL    HW1 1022   1.985   2.126   0.217  1.0323 -0.0953 -2.0390
  341SOL    HW2 1023   2.007   2.101   0.386  0.7857  2.4930  0.7056
  342SOL     OW 1024   2.155   2.140   2.788 -0.2271 -0.2377 -0.0747
  342SOL    HW1 1025   2.217   2.063   2.810 -1.6391 -1.0195 -1.3360
  342SOL    HW2 1026   2.058   2.108   2.771  0.3454  0.7664  0.2060
  343SOL     OW 1027   0.399   0.804   2.787 -0.1032 -0.2484 -0.2451
  343SOL    HW1 1028   0.390   0.846   2.692  1.0637  0.1084  1.6732
  343SOL    HW2 1029   0.494   0.815   2.822  0.2546 -1.5213  1.1047
  344SOL     OW 1030   1.920   1.494   0.440  0.4913  0.2611 -0.2953
  344SOL    HW1 1031   1.918   1.417   0.368  0.4391 -0.4701 -0.2464
  344SOL    HW2 1032   1.826   1.516   0.477 -1.0297 -2.1597 -1.8671
  345SOL     OW 1033   1.376   2.257   2.863 -0.4697 -0.1042 -0.3236
  345SOL    HW1 1034   1.285   2.231   2.822  0.1014 -0.0128 -0.0014
  345SOL    HW2 1035   1.461   2.208   2.827  3.0799  1.6005  1.1198
  346SOL     OW 1036   2.338   0.902   1.384  0.0338  0.3409  0.3032
  346SOL    HW1 1037   2.284   0.991   1.405 -1.1467 -1.1558 -0.4356
  346SOL    HW2 1038   2.299   0.851   1.300 -1.9798  1.0959 -0.1425
  347SOL     OW 1039   0.742   2.737   1.628 -0.2200 -0.0861  0.2543
  347SOL    HW1 1040   0.658   2.739   1.693 -1.6539  1.1614  1.5042
  347SOL    HW2 1041   0.751   2.826   1.578  1.1729 -0.6419  3.0808
  348SOL     OW 1042   0.155   0.748   2.923  0.6230  0.5872 -0.2947
  348SOL    HW1 1043   0.059   0.732   2.889  0.1064 -0.4303  1.6829
  348SOL    HW2 1044   0.228   0.735   2.855 -1.9909  0.8296  2.8022
  349SOL     OW 1045   1.866   0.428   2.769  0.1213 -0.2455 -0.0403
  349SOL    HW1 1046   1.862   0.516   2.710 -0.7886 -2.1092 -1.1493
  349SOL    HW2 1047   1.824   0.443   2.863 -1.7592 -3.6638  0.7554
  350SOL     OW 1048   1.647   0.405   0.389 -0.1251  0.0957 -0.2358
  350SOL    HW1 1049   1.719   0.380   0.461  0.9354 -1.7279  1.7208
  350SOL    HW2 1050   1.649   0.505   0.370  2.8327 -0.1812 -1.9447
  351SOL     OW 1051   0.967   0.838   2.103 -0.0498  0.1753 -0.5024
  351SOL    HW1 1052   1.018   0.927   2.085 -0.8163  4.1021  1.5940
  351SOL    HW2 1053   0.973   0.769   2.024  0.1560  1.1093  0.2480
  352SOL     OW 1054   2.063   1.335   0.620 -0.5370  0.7232 -0.6650
  352SOL    HW1 1055   2.056   1.431   0.590  1.9994 -0.7460 -1.4421
  352SOL    HW2 1056   1.980   1.309   0.680  2.3639 -1.4378 -0.8469
  353SOL     OW 1057   2.193   2.797   1.089 -0.0741 -0.0252  0.0912
  353SOL    HW1 1058   2.256   2.737   1.147  1.2860 -0.6617 -0.1453
  353SOL    HW2 1059   2.098   2.757   1.099 -2.7818  1.4240 -2.1469
  354SOL     OW 1060   0.280   1.393   2.840  0.2091  0.1635 -0.2843
  354SOL    HW1 1061   0.254   1.474   2.785  0.9356 -1.0644  0.3716
  354SOL    HW2 1062   0.364   1.405   2.899 -0.6960  2.2964  0.8562
  355SOL     OW 1063   0.727   1.601   0.596  0.2303 -0.2705  0.0300
  355SOL    HW1 1064   0.707   1.542   0.680  1.0235  2.6153  3.2754
  355SOL    HW2 1065   0.694   1.557   0.509  1.3801 -0.5833  0.9959
  356SOL     OW 1066   0.838   0.319   2.048  0.6079  0.2585  0.2369
  356SOL    HW1 1067   0.943   0.305   2.030  3.5948 -0.5768 -1.3078
  356SOL    HW2 1068   0.780   0.337   1.957 -1.8419 -1.6942 -1.3234
  357SOL     OW 1069   0.970   1.326   0.364  0.3904  0.3758  0.3721
  357SOL    HW1 1070   1.065   1.329   0.329  0.8543 -1.0804  3.2170
  357SOL    HW2 1071   0.932   1.233   0.383 -0.6205  0.5627  3.6278
  358SOL     OW 1072   1.630   1.541   0.489 -0.2669 -0.2327  0.3294
  358SOL    HW1 1073   1.628   1.495   0.578  0.3378  2.4100 -1.5037
  358SOL    HW2 1074   1.576   1.493   0.418 -0.8593 -0.8864  2.8528
  359SOL     OW 1075   1.596   2.621   0.236  0.2961  0.5256  0.2937
  359SOL    HW1 1076   1.584   2.518   0.220 -0.6030 -0.4007 -1.1133
  359SOL    HW2 1077   1.550   2.660   0.316  2.1259 -2.0890  0.1091
  360SOL     OW 1078   0.756   0.557   0.541  0.2072 -0.7291  0.0518
  360SOL    HW1 1079   0.661   0.530   0.498 -0.5320  1.6372  1.9628
  360SOL    HW2 1080   0.801   0.477   0.585 -1.3923  3.7217  0.4654
  361SOL     OW 1081   1.295   1.293   0.665 -0.0874 -0.0893 -0.2211
  361SOL    HW1 1082   1.329   1.299   0.765 -1.1861 -0.8554  0.2471
  361SOL    HW2 1083   1.205   1.343   0.656  0.7234 -1.4072  0.4105
  362SOL     OW 1084   1.376   1.761   0.768  0.0778 -0.3011 -0.3783
  362SOL    HW1 1085   1.416   1.715   0.853 -0.4518  0.0931 -0.7756
  362SOL    HW2 1086   1.450   1.809   0.712  0.1388 -1.5826 -1.5419
  363SOL     OW 1087   1.256   1.338   2.076 -0.1413 -0.3787  0.5439
  363SOL    HW1 1088   1.354   1.382   2.086  1.3255  1.7723  0.4585
  363SOL    HW2 1089   1.185   1.416   2.064  0.5221  1.2122 -1.4804
  364SOL     OW 1090   0.527   2.363   1.995  0.1750  0.1959  0.6243
  364SOL    HW1 1091   0.432   2.386   1.959 -1.7049 -1.8117  0.6442
  364SOL    HW2 1092   0.606   2.406   1.938 -0.8122 -0.3129 -0.7960
  365SOL     OW 1093   1.022   1.967   1.328  0.1219  0.1397  0.1707
  365SOL    HW1 1094   0.919   1.956   1.327  1.1450 -2.0304 -0.1659
  365SOL    HW2 1095   1.056   2.003   1.238  0.3051 -2.7101 -1.0443
  366SOL     OW 1096   2.846   1.947   0.374 -0.1150 -0.1256 -0.6581
  366SOL    HW1 1097   2.745   1.933   0.366 -0.3144 -2.9119  1.9123
  366SOL    HW2 1098   2.902   1.863   0.333  0.1336 -0.4297  1.4625
  367SOL     OW 1099   0.944   1.171   0.009  0.5804  0.5968  0.2125
  367SOL    HW1 1100   0.949   1.090   0.070  2.4750  2.6565 -0.9263
  367SOL    HW2 1101   1.019   1.240   0.030  0.9636 -1.3592 -0.1175
  368SOL     OW 1102   1.424   0.557   0.628 -0.5709 -0.1058 -0.1942
  368SOL    HW1 1103   1.379   0.577   0.534  2.5851  1.7887  1.4297
  368SOL    HW2 1104   1.527   0.567   0.630 -3.9380 -2.5637 -0.6614
  369SOL     OW 1105   0.369   1.721   0.151 -0.0674  1.0326  0.3415
  369SOL    HW1 1106   0.409   1.797   0.213  0.6305  2.2531 -0.3593
  369SOL    HW2 1107   0.314   1.652   0.207  0.7410 -1.8232  1.2544
  370SOL     OW 1108   0.426   2.057   1.066 -0.0293 -0.4384 -0.0071
  370SOL    HW1 1109   0.446   2.157   1.031  0.9234  0.3695 -1.7399
  370SOL    HW2 1110   0.328   2.034   1.046 -0.1291  3.1105 -3.4555
  371SOL     OW 1111   2.906   2.216   2.615 -0.5008 -0.3783 -0.4459
  371SOL    HW1 1112   2.858   2.145   2.677  0.0634  0.5333  0.0430
  371SOL    HW2 1113   2.962   2.278   2.677 -3.9816 -1.7032  0.1334
  372SOL     OW 1114   1.023   2.030   1.028  0.3100  0.2456 -0.5445
  372SOL    HW1 1115   0.934   2.076   0.993 -1.3510 -1.9004 -1.0634
  372SOL    HW2 1116   1.105   2.062   0.974  1.2865  2.6139 -1.0113
  373SOL     OW 1117   1.966   1.937   0.888 -0.1377 -0.3557  0.7599
  373SOL    HW1 1118   2.039   1.968   0.956 -0.7637 -0.9256  0.6732
  373SOL    HW2 1119   1.888   2.007   0.900 -0.3170 -1.5155  0.4881
  374SOL     OW 1120   1.864   0.385   0.557  0.1724  0.0982 -0.3643
  374SOL    HW1 1121   1.858   0.330   0.652  0.1041 -1.7906  2.7456
  374SOL    HW2 1122   1.961   0.404   0.524 -0.6353  0.6032  0.1866
  375SOL     OW 1123   2.414   2.147   1.080 -0.4104  0.0823 -0.0120
  375SOL    HW1 1124   2.461   2.135   0.986 -0.5315  2.3748 -1.5197
  375SOL    HW2 1125   2.483   2.139   1.161  0.6178  0.2822  0.0881
  376SOL     OW 1126   3.020   0.528   1.478  0.1631 -0.3004  0.1533
  376SOL    HW1 1127   3.036   0.599   1.548 -2.8234 -0.1291  1.1677
  376SOL    HW2 1128   2.959   0.446   1.503 -0.0776 -1.3914 -1.7769
  377SOL     OW 1129   2.161   2.903   0.302  0.9002  0.0994  0.1115
  377SOL    HW1 1130   2.137   2.994   0.344 -3.5805  0.2341  1.1124
  377SOL    HW2 1131   2.245   2.862   0.345 -2.9886 -0.2752  2.8803
  378SOL     OW 1132   1.739   1.836   2.555 -0.1764  0.1972 -0.3604
  378SOL    HW1 1133   1.845   1.832   2.571  0.7175  5.6079 -1.5408
  378SOL    HW2 1134   1.695   1.757   2.504  0.4644  0.8408  0.2660
  379SOL     OW 1135   0.686   0.152   2.847 -0.2104  0.4566 -0.2384
  379SOL    HW1 1136   0.704   0.062   2.799  2.2490 -0.1286 -0.7781
  379SOL    HW2 1137   0.701   0.235   2.787 -0.4584  0.6598  2.7774
  380SOL     OW 1138   1.518   1.138   0.608  0.4252 -0.4632 -0.4117
  380SOL    HW1 1139   1.430   1.181   0.633  1.7013 -0.3257 -0.3626
  380SOL    HW2 1140   1.528   1.039   0.640  2.0207 -0.0533  0.1020
  381SOL     OW 1141   1.339   1.184   1.568 -0.1598  0.4697  0.2665
  381SOL    HW1 1142   1.383   1.129   1.492  0.0872  0.2277  1.8393
  381SOL    HW2 1143   1.409   1.248   1.607  0.8130 -0.2660  1.2963
  382SOL     OW 1144   1.799   0.898   0.183  0.2992  0.0518  0.3114
  382SOL    HW1 1145   1.826   0.874   0.085 -0.1977  2.1558 -2.0797
  382SOL    HW2 1146   1.869   0.879   0.257  3.1092 -2.5601 -1.4394
  383SOL     OW 1147   2.586   1.007   1.472 -0.3526 -0.1182 -0.0975
  383SOL    HW1 1148   2.495   0.972   1.443  0.4572  0.8266 -0.2122
  383SOL    HW2 1149   2.654   1.009   1.397  1.6835  0.4550 -1.0719
  384SOL     OW 1150   0.960   2.226   0.152 -0.3317 -0.0027 -0.4978
  384SOL    HW1 1151   0.965   2.303   0.224 -0.0275  0.6373  0.9467
  384SOL    HW2 1152   0.908   2.141   0.187 -0.2600 -1.0768 -0.3176
  385SOL     OW 1153   2.969   2.020   1.647 -0.2024 -0.5421  0.5506
  385SOL    HW1 1154   3.046   2.089   1.624  1.4009 -1.9824 -1.6371
  385SOL    HW2 1155   3.017   1.926   1.652  0.8723  2.2466 -1.6225
  386SOL     OW 1156   0.521   1.049   0.448 -0.1157 -0.9714  0.6968
  386SOL    HW1 1157   0.496   0.946   0.449  1.6091  0.5455  0.5813
  386SOL    HW2 1158   0.441   1.110   0.441  1.1846 -1.3061 -0.4268
  387SOL     OW 1159   0.952   0.373   1.679 -0.3382  1.1565  0.0513
  387SOL    HW1 1160   1.021   0.450   1.686 -1.2184  4.5203  1.0179
  387SOL    HW2 1161   0.935   0.335   1.581  0.4155  0.1217  0.9434
  388SOL     OW 1162   1.215   2.708   1.753 -0.1046  0.2338  0.0629
  388SOL    HW1 1163   1.252   2.708   1.657 -1.4479  0.1307  1.2028
  388SOL    HW2 1164   1.246   2.626   1.813 -1.1269  0.7234 -1.7036
  389SOL     OW 1165   0.161   3.034   1.188  0.1484  0.0159  0.8008
  389SOL    HW1 1166   0.100   3.115   1.175 -2.0352  2.2498 -1.8057
  389SOL    HW2 1167   0.114   2.952   1.229  1.2507 -2.6164 -1.3324
  390SOL     OW 1168   1.037   0.990   1.327  0.0651 -0.0717  0.0247
  390SOL    HW1 1169   1.112   0.955   1.393  0.7116 -2.6227  1.8588
  390SOL    HW2 1170   0.970   1.061   1.364 -1.9416 -2.5074 -0.5930
  391SOL     OW 1171   2.155   1.112   1.071  0.4855  0.2266  0.1003
  391SOL    HW1 1172   2.111   1.025   1.114 -2.4620 -0.7763  1.2072
  391SOL    HW2 1173   2.196   1.098   0.979 -0.5439  1.2701  2.6367
  392SOL     OW 1174   0.845   2.695  -0.002  0.1728 -0.6266 -0.2936
  392SOL    HW1 1175   0.902   2.616  -0.009 -2.5413  0.9478 -0.8859
  392SOL    HW2 1176   0.861   2.751   0.083  2.4675 -0.8119  1.2555
  393SOL     OW 1177   0.367   0.554   1.984  0.7665  0.8525 -0.4272
  393SOL    HW1 1178   0.302   0.471   1.969 -1.3546 -2.0303 -1.0692
  393SOL    HW2 1179   0.445   0.544   1.919 -1.0069 -2.9567 -0.6532
  394SOL     OW 1180   2.979   1.868   2.760 -0.8685  0.4555  0.2241
  394SOL    HW1 1181   3.054   1.855   2.832 -0.0964 -1.9626  1.1038
  394SOL    HW2 1182   3.019   1.894   2.665 -1.1092 -2.9252  1.7283
  395SOL     OW 1183   1.629   1.984   0.669 -0.7024  0.2353 -0.1791
  395SOL    HW1 1184   1.698   1.936   0.605 -0.1714 -0.6477 -0.3314
  395SOL    HW2 1185   1.665   2.009   0.765 -0.1062  0.6326  0.1278
  396SOL     OW 1186   2.832   1.873   1.280 -0.5418 -0.2072  0.1633
  396SOL    HW1 1187   2.813   1.767   1.266 -0.3934 -2.3983  0.0428
  396SOL    HW2 1188   2.766   1.913   1.348  1.0867  0.6350 -1.4479
  397SOL     OW 1189   1.037   2.223   0.496 -0.2901  0.4987 -0.0952
  397SOL    HW1 1190   0.949   2.175   0.535 -2.5287 -0.9208 -0.6703
  397SOL    HW2 1191   1.041   2.322   0.521  1.4807 -2.1634  1.8826
  398SOL     OW 1192   2.141   3.100   1.012  0.2911  0.3471  0.0593
  398SOL    HW1 1193   2.133   3.006   1.064 -0.4202 -2.1852  0.6458
  398SOL    HW2 1194   2.075   3.171   1.048  0.6017 -0.8875 -1.3327
  399SOL     OW 1195   3.045   2.472   2.509  0.1932 -0.0193 -0.1862
  399SOL    HW1 1196   2.941   2.482   2.517 -2.7865  0.8978 -1.0407
  399SOL    HW2 1197   3.076   2.372   2.517 -0.8462  1.5764  2.7155
  400SOL     OW 1198   0.767   1.616   1.328  0.5452  0.1701 -0.2006
  400SOL    HW1 1199   0.731   1.680   1.403 -2.2555 -0.4692  3.0243
  400SOL    HW2 1200   0.797   1.669   1.245 -2.3966  0.5847  1.6770
  401SOL     OW 1201   1.825   0.080   1.312  0.9078 -0.2293 -0.1929
  401SOL    HW1 1202   1.859   0.097   1.408  0.2618  0.5878  1.2555
  401SOL    HW2 1203   1.719   0.094   1.302  0.4575  0.2654 -1.4827
  402SOL     OW 1204   1.323   0.166   3.065 -0.0259 -0.2400  0.1242
  402SOL    HW1 1205   1.421   0.169   3.044 -0.9292 -1.2092  0.5045
  402SOL    HW2 1206   1.285   0.262   3.082 -1.8549  0.7005  2.1228
  403SOL     OW 1207   2.290   1.749   0.915 -0.7625 -0.4162  0.4226
  403SOL    HW1 1208   2.385   1.753   0.958 -1.1174 -0.7218  2.7909
  403SOL    HW2 1209   2.226   1.815   0.956  1.6915 -0.7033 -0.0213
  404SOL     OW 1210   0.176   2.517   2.784 -0.2931 -0.2515  0.0443
  404SOL    HW1 1211   0.260   2.451   2.781 -1.0942 -3.2053 -0.1500
  404SOL    HW2 1212   0.198   2.607   2.830  2.0151  1.9003  0.2736
  405SOL     OW 1213   0.138   2.398   0.713 -0.1028  0.6735  0.8548
  405SOL    HW1 1214   0.103   2.340   0.630 -0.1534 -0.2761  2.7699
  405SOL    HW2 1215   0.198   2.477   0.685 -0.9090  0.7923  0.4097
  406SOL     OW 1216   0.068   1.529   3.036  0.8399  0.0957  0.2809
  406SOL    HW1 1217   0.127   1.474   2.969 -3.9944  0.2846  1.7486
  406SOL    HW2 1218   0.105   1.532   3.132  1.4762 -3.6886  1.6881
  407SOL     OW 1219   1.540   0.964   0.971 -0.8681  0.0513  0.6628
  407SOL    HW1 1220   1.530   0.909   0.883 -0.3210  1.7706  3.5589
  407SOL    HW2 1221   1.458   1.023   0.996 -0.6090  0.8738  5.3297
  408SOL     OW 1222   1.619   2.375   0.958 -0.4868  0.5358  0.2258
  408SOL    HW1 1223   1.657   2.374   0.860  0.9270  2.2208 -0.1182
  408SOL    HW2 1224   1.557   2.461   0.976  2.1124  0.7460  0.9633
  409SOL     OW 1225   0.624   0.864   0.733 -0.6336  0.2908  0.2718
  409SOL    HW1 1226   0.568   0.869   0.650 -0.3664 -1.4326 -2.1700
  409SOL    HW2 1227   0.640   0.761   0.756 -1.0157 -1.1374 -0.4107
  410SOL     OW 1228   1.316   2.059   1.420  0.2127  0.5840 -0.1872
  410SOL    HW1 1229   1.401   2.007   1.444  2.7905 -1.2197 -1.1024
  410SOL    HW2 1230   1.227   1.999   1.427 -1.6625  0.3196  0.3882
  411SOL     OW 1231   2.580   1.891   3.046  0.4140  0.0815 -0.4089
  411SOL    HW1 1232   2.490   1.928   3.012  0.5839  2.7621 -1.4425
  411SOL    HW2 1233   2.631   1.836   2.973  1.0906  0.0689 -0.3914
  412SOL     OW 1234   1.458   2.483   2.169 -0.4590 -0.6501 -0.0251
  412SOL    HW1 1235   1.514   2.565   2.200  2.5074 -2.1845 -0.3018
  412SOL    HW2 1236   1.378   2.463   2.236  1.5056  0.2425 -0.1690
  413SOL     OW 1237   3.054   0.268   2.969 -0.5935 -0.4967 -0.5379
  413SOL    HW1 1238   3.024   0.168   2.983  1.4730 -1.9961 -0.9405
  413SOL    HW2 1239   3.155   0.277   2.938 -0.0813 -2.6992 -1.0253
  414SOL     OW 1240   1.841   1.521   1.211 -0.3095 -0.4195 -0.6607
  414SOL    HW1 1241   1.787   1.575   1.139 -0.9678 -2.7353  1.2814
  414SOL    HW2 1242   1.848   1.418   1.195 -1.4812 -2.0200 -1.0174
  415SOL     OW 1243   0.358   2.201   0.691  0.0996  0.7523 -0.2292
  415SOL    HW1 1244   0.279   2.261   0.702  0.3715 -1.8196 -0.1071
  415SOL    HW2 1245   0.384   2.172   0.789 -1.0467 -0.4149 -0.6445
  416SOL     OW 1246   0.380   1.016   1.059 -0.0035  0.0492  0.1525
  416SOL    HW1 1247   0.359   0.980   0.964  1.0809 -0.5310  4.1421
  416SOL    HW2 1248   0.471   1.068   1.059 -0.8412 -1.3840  0.8279
  417SOL     OW 1249   2.231   2.331   1.986 -0.5239  0.8480  0.1855
  417SOL    HW1 1250   2.309   2.268   2.015  0.3216  0.2775  2.6730
  417SOL    HW2 1251   2.138   2.289   1.982  1.5235 -0.6383  2.1212
  418SOL     OW 1252   1.093   0.521   1.355 -0.0843  0.3952 -0.1825
  418SOL    HW1 1253   1.032   0.481   1.276 -1.2451 -1.1034 -3.0352
  418SOL    HW2 1254   1.186   0.559   1.325 -0.4327  0.4102  0.1577
  419SOL     OW 1255   0.914   0.458   3.007 -0.1242  0.0979  0.1513
  419SOL    HW1 1256   0.883   0.466   2.912 -0.9952 -2.3442  0.4756
  419SOL    HW2 1257   0.910   0.547   3.055  3.2945  2.4761 -1.4046
  420SOL     OW 1258   0.090   2.265   0.447  0.1175 -0.1912 -0.0488
  420SOL    HW1 1259   0.117   2.237   0.353  1.2284  0.2515  0.5931
  420SOL    HW2 1260   0.027   2.197   0.495 -0.4801 -0.8949 -1.4370
  421SOL     OW 1261   0.360   3.021   0.666  0.4334  0.2460 -0.4585
  421SOL    HW1 1262   0.342   2.936   0.723 -1.0835  0.8392 -1.0821
  421SOL    HW2 1263   0.457   3.050   0.659 -0.1316 -0.8322  3.5473
  422SOL     OW 1264   1.064   2.486   1.019 -0.0468  0.0279  0.3890
  422SOL    HW1 1265   1.108   2.568   0.977 -3.3234 -0.7479 -0.4230
  422SOL    HW2 1266   1.064   2.495   1.121 -1.6536 -0.4447 -0.9824
  423SOL     OW 1267   0.078   0.669   1.307  0.2925  0.2205 -0.1928
  423SOL    HW1 1268   0.013   0.622   1.378 -2.5193 -0.3979  3.7370
  423SOL    HW2 1269   0.044   0.762   1.270  1.7579  0.7927 -0.3117
  424SOL     OW 1270   0.984   2.205   2.045  0.0929  0.4430 -0.2321
  424SOL    HW1 1271   0.949   2.294   2.000  0.9106 -1.0017 -1.6215
  424SOL    HW2 1272   0.974   2.203   2.150 -1.5126 -1.1194  1.1871
  425SOL     OW 1273   2.021   1.320   0.977  0.2978  0.4323 -0.1616
  425SOL    HW1 1274   2.068   1.248   1.035 -0.6323 -0.8224  0.3215
  425SOL    HW2 1275   2.088   1.401   0.956  1.6685  0.8118  0.0539
  426SOL     OW 1276   1.480   1.600   1.388 -0.3305 -0.1025  0.1717
  426SOL    HW1 1277   1.479   1.658   1.305  1.8458 -3.8703  0.7888
  426SOL    HW2 1278   1.395   1.619   1.450 -1.6461 -0.0716 -0.1545
  427SOL     OW 1279   1.897   2.362   2.037  0.3012 -0.1542  0.4007
  427SOL    HW1 1280   1.936   2.297   2.106  0.7312  0.3568  0.5102
  427SOL    HW2 1281   1.923   2.463   2.053 -1.1455  2.9547  0.0849
  428SOL     OW 1282   0.864   3.044   0.185 -0.3570  1.1312 -0.4275
  428SOL    HW1 1283   0.873   3.133   0.134 -0.1284 -0.9110 -1.6224
  428SOL    HW2 1284   0.949   2.987   0.166 -4.0054  1.1737  0.5288
  429SOL     OW 1285   1.312   0.056   0.259 -0.0460 -0.1293 -0.2239
  429SOL    HW1 1286   1.406   0.090   0.283 -1.3510  0.8048 -1.5815
  429SOL    HW2 1287   1.292   0.066   0.158  0.5904  0.8547  0.4735
  430SOL     OW 1288   2.767   1.436   0.312 -0.3845  0.0822 -0.6558
  430SOL    HW1 1289   2.823   1.479   0.238  1.3247 -1.2411  1.6052
  430SOL    HW2 1290   2.795   1.478   0.406 -0.8018 -0.2587  2.1478
  431SOL     OW 1291   2.104   1.564   0.877 -0.2215 -0.3285  0.3652
  431SOL    HW1 1292   2.165   1.640   0.910 -1.5971  0.4988  1.2749
  431SOL    HW2 1293   2.059   1.576   0.782 -1.6444  0.9913 -0.4159
  432SOL     OW 1294   2.834   2.240   1.255 -0.0168 -0.0661 -0.3091
  432SOL    HW1 1295   2.830   2.143   1.289 -2.3287 -0.5747 -0.0750
  432SOL    HW2 1296   2.881   2.302   1.326  0.5724  2.3838 -0.7750
  433SOL     OW 1297   1.872   0.367   0.840 -1.0803 -0.1594  0.3345
  433SOL    HW1 1298   1.790   0.348   0.900  0.9122  2.3331  1.7408
  433SOL    HW2 1299   1.959   0.327   0.873  0.4253 -3.4087  0.5553
  434SOL     OW 1300   1.507   0.243   0.756  0.2866  0.0806  0.2266
  434SOL    HW1 1301   1.465   0.330   0.734 -0.2528 -3.7789  0.6064
  434SOL    HW2 1302   1.564   0.250   0.843  2.9561 -0.4355  0.1809
  435SOL     OW 1303   1.482   1.483   2.130 -0.2402  0.2214  0.1596
  435SOL    HW1 1304   1.454   1.517   2.230 -2.1500 -0.0185  2.8433
  435SOL    HW2 1305   1.498   1.564   2.067 -0.6115 -1.7217 -3.3317
  436SOL     OW 1306   1.694   2.750   2.222  0.0603 -0.0390 -0.0728
  436SOL    HW1 1307   1.651   2.812   2.294 -0.7291  0.6810 -2.4481
  436SOL    HW2 1308   1.712   2.655   2.262 -0.3937 -1.5876 -0.4778
  437SOL     OW 1309   1.079   2.925   0.934  0.7370  0.0476  0.4226
  437SOL    HW1 1310   1.030   3.007   0.899 -0.0296 -0.4386  1.0010
  437SOL    HW2 1311   1.079   2.926   1.038  3.3557 -3.3302  0.0769
  438SOL     OW 1312   0.996   2.589   1.302 -0.3668  0.3130  0.0038
  438SOL    HW1 1313   1.062   2.633   1.372  2.8463 -1.3612  2.1647
  438SOL    HW2 1314   1.000   2.485   1.308 -0.1882  1.2114 -1.0448
  439SOL     OW 1315   0.685   1.753   1.082 -0.0359  0.2932 -0.3372
  439SOL    HW1 1316   0.663   1.835   1.025 -0.8067 -0.0575 -0.8268
  439SOL    HW2 1317   0.599   1.721   1.132 -0.3856 -0.0941 -0.4336
  440SOL     OW 1318   1.009   2.503   1.987 -0.0171  0.1149 -0.3604
  440SOL    HW1 1319   0.964   2.526   1.895 -0.1931  0.0971  1.1614
  440SOL    HW2 1320   1.112   2.522   1.993  1.8553 -1.1383  1.9801
  441SOL     OW 1321   0.499   2.728   1.425  0.2047 -0.3137  0.2236
  441SOL    HW1 1322   0.538   2.630   1.421 -0.3186  2.5856  0.1795
  441SOL    HW2 1323   0.396   2.734   1.429 -1.9356  0.8784  3.2257
  442SOL     OW 1324   2.314   0.684   2.471 -0.4762  0.2582  0.9744
  442SOL    HW1 1325   2.307   0.587   2.508 -2.5988  0.4058  1.7143
  442SOL    HW2 1326   2.217   0.715   2.440 -2.2263 -0.6127 -1.5046
  443SOL     OW 1327   1.264   2.700   2.140 -0.0194 -0.5244 -0.3342
  443SOL    HW1 1328   1.291   2.769   2.217  0.0935  2.1803  2.2395
  443SOL    HW2 1329   1.206   2.628   2.185  2.0731 -0.9770 -2.7203
  444SOL     OW 1330   1.084   1.275   1.599 -0.3786 -0.6044 -0.5233
  444SOL    HW1 1331   1.166   1.218   1.564  1.7488 -0.3361  0.8531
  444SOL    HW2 1332   1.113   1.326   1.688  1.2306  2.1804  0.7638
  445SOL     OW 1333   0.029   2.369   1.847  0.4739 -0.3625 -0.0291
  445SOL    HW1 1334   0.025   2.457   1.800  1.3910 -1.2314  2.1593
  445SOL    HW2 1335  -0.058   2.349   1.902  0.4003 -1.1143 -0.9830
  446SOL     OW 1336   0.257   1.904   2.303  0.1174 -0.3467 -0.1650
  446SOL    HW1 1337   0.229   1.985   2.360 -0.1152 -0.8418 -2.5046
  446SOL    HW2 1338   0.174   1.888   2.240 -1.6203  3.7564  1.3949
  447SOL     OW 1339   1.181   1.685   1.931 -0.1260 -0.2597  0.1785
  447SOL    HW1 1340   1.103   1.736   1.887  0.5254  0.2634  1.9062
  447SOL    HW2 1341   1.267   1.686   1.874  0.6857 -2.3587 -0.5192
  448SOL     OW 1342   0.147   1.538   2.006  0.3592  0.3419  1.2168
  448SOL    HW1 1343   0.130   1.627   1.961 -0.4908 -2.2752  0.2114
  448SOL    HW2 1344   0.120   1.537   2.109 -0.7062 -3.9483  0.0398
  449SOL     OW 1345   1.947   2.954   0.835  0.3771  0.0277 -0.2326
  449SOL    HW1 1346   2.007   2.996   0.912  1.4005 -1.0532  2.4751
  449SOL    HW2 1347   1.978   2.854   0.816  0.9232 -2.1076 -1.8201
  450SOL     OW 1348   2.338   1.369   0.739  0.4394 -0.2117  0.1478
  450SOL    HW1 1349   2.236   1.350   0.729 -1.0149 -1.5256  0.4187
  450SOL    HW2 1350   2.359   1.468   0.716 -1.6490 -1.6359 -2.5362
  451SOL     OW 1351   1.318   3.049   1.455 -0.0649 -0.0891 -0.3499
  451SOL    HW1 1352   1.251   3.122   1.484 -0.9372  1.1157 -1.8074
  451SOL    HW2 1353   1.360   2.997   1.534 -0.1036  1.3048  0.0329
  452SOL     OW 1354   2.666   2.289   2.157  0.2155 -0.2832 -0.0108
  452SOL    HW1 1355   2.605   2.374   2.178 -1.7988 -1.7691  1.8625
  452SOL    HW2 1356   2.734   2.263   2.233 -0.2472  1.5079 -1.0599
  453SOL     OW 1357   2.478   2.664   3.099 -0.7035  0.4239 -0.4309
  453SOL    HW1 1358   2.391   2.727   3.109  1.5847 -0.1649  2.0112
  453SOL    HW2 1359   2.466   2.586   3.026 -1.6169  0.2409  1.2952
  454SOL     OW 1360   1.030   1.132   2.076  0.1512 -0.6129 -0.0906
  454SOL    HW1 1361   0.973   1.100   1.996 -0.4347 -1.2286  0.1783
  454SOL    HW2 1362   1.076   1.224   2.067  0.6440 -0.1911 -1.2634
  455SOL     OW 1363   0.636   2.620   2.883 -0.2267 -0.8132 -0.4259
  455SOL    HW1 1364   0.698   2.672   2.944  0.0711 -1.1704  1.4217
  455SOL    HW2 1365   0.640   2.516   2.902  0.1135 -1.3525  0.5267
  456SOL     OW 1366   0.489   1.909   0.324  0.3414  0.7273  0.2333
  456SOL    HW1 1367   0.565   1.876   0.385 -0.9468 -0.5905  0.7534
  456SOL    HW2 1368   0.499   2.005   0.294  0.5736  1.0296 -0.0013
  457SOL     OW 1369   0.317   2.612   0.683  0.6292 -0.2393  0.1876
  457SOL    HW1 1370   0.284   2.677   0.617  1.4046 -0.7288  2.8844
  457SOL    HW2 1371   0.420   2.616   0.693  1.8129  0.5477  1.4334
  458SOL     OW 1372   2.970   3.091   1.210 -0.2947  0.4191 -0.2181
  458SOL    HW1 1373   2.991   3.191   1.192  0.7848 -0.2388 -0.5675
  458SOL    HW2 1374   2.962   3.025   1.133 -0.0008  2.3727  1.8125
  459SOL     OW 1375   2.206   2.563   0.801 -0.0245 -0.1006  0.2684
  459SOL    HW1 1376   2.229   2.669   0.797 -0.7643  0.6139  0.3901
  459SOL    HW2 1377   2.276   2.504   0.750  0.8548 -1.3441  2.1448
  460SOL     OW 1378   1.151   1.965   2.891 -0.7916  0.1042 -0.2860
  460SOL    HW1 1379   1.203   2.021   2.818 -0.0964 -1.4821  1.0334
  460SOL    HW2 1380   1.218   1.915   2.960 -1.0018  1.1056  1.5779
  461SOL     OW 1381   0.523   2.089   2.662 -0.2262  0.2948  0.1250
  461SOL    HW1 1382   0.462   2.016   2.624 -1.4718  2.0656 -1.4248
  461SOL    HW2 1383   0.555   2.079   2.761 -0.5138 -0.0388 -0.2848
  462SOL     OW 1384   0.915   1.075   1.819 -0.6500 -0.0116 -0.3689
  462SOL    HW1 1385   0.995   1.016   1.784  2.1655 -0.3624 -1.1507
  462SOL    HW2 1386   0.892   1.150   1.747 -1.2711  0.4686  2.6762
  463SOL     OW 1387   0.462   0.776   0.496 -0.0278  0.6634  0.0036
  463SOL    HW1 1388   0.497   0.681   0.487 -0.1114  0.9199  1.2736
  463SOL    HW2 1389   0.357   0.782   0.496  2.9318 -3.3836 -0.1076
  464SOL     OW 1390   0.587   2.268   2.243 -0.3181 -0.3129  0.2455
  464SOL    HW1 1391   0.575   2.336   2.325 -0.7049  2.7679  0.1567
  464SOL    HW2 1392   0.547   2.302   2.153  0.0535 -0.9671 -0.1146
  465SOL     OW 1393   0.316   0.918   0.809 -0.1724 -0.1274  0.0869
  465SOL    HW1 1394   0.231   0.932   0.748  0.3397 -0.5376 -0.4425
  465SOL    HW2 1395   0.329   0.820   0.825  1.4844 -0.5969  1.8745
  466SOL     OW 1396   1.344   1.144   1.081  0.3528  0.1014  0.2156
  466SOL    HW1 1397   1.375   1.236   1.117  2.2693  0.1360 -0.7065
  466SOL    HW2 1398   1.259   1.141   1.024  3.0464 -1.3169  1.4314
  467SOL     OW 1399   0.489   0.316   2.353 -0.0063 -0.6654 -0.1839
  467SOL    HW1 1400   0.440   0.401   2.395  2.8388  0.1813  1.6807
  467SOL    HW2 1401   0.498   0.243   2.429  0.8579 -1.4267 -1.3925
  468SOL     OW 1402   0.466   2.299   1.675  0.0394  0.1750  0.2594
  468SOL    HW1 1403   0.557   2.336   1.696  0.7494 -0.4553 -0.1020
  468SOL    HW2 1404   0.436   2.314   1.577  0.5606  0.3511 -0.5380
  469SOL     OW 1405   1.520   1.354   1.217  0.0497 -0.5809  0.2104
  469SOL    HW1 1406   1.609   1.302   1.198  0.7611  3.1738 -1.0160
  469SOL    HW2 1407   1.534   1.419   1.300  0.1050 -0.5963  4.0347
  470SOL     OW 1408   3.029   1.665   0.797 -0.4908 -0.1558  0.1629
  470SOL    HW1 1409   3.099   1.741   0.803  0.5310 -0.6617 -1.9424
  470SOL    HW2 1410   2.937   1.696   0.836  2.2471 -0.6082  2.3757
  471SOL     OW 1411   2.649   1.321   2.150 -0.0695  0.2202  0.1961
  471SOL    HW1 1412   2.643   1.256   2.233  1.5705 -1.4765  0.9061
  471SOL    HW2 1413   2.731   1.385   2.148 -1.6828 -0.6927  0.4626
  472SOL     OW 1414   1.141   2.504   3.067  0.0621  0.3699 -0.2100
  472SOL    HW1 1415   1.156   2.504   3.172  1.0973 -0.3583  2.3240
  472SOL    HW2 1416   1.111   2.411   3.023 -0.9933 -0.4539 -0.8956
  473SOL     OW 1417   1.106   1.508   1.003 -0.5225 -0.4968 -0.3314
  473SOL    HW1 1418   1.005   1.475   1.022 -0.6093  2.3713 -0.7407
  473SOL    HW2 1419   1.168   1.472   1.075 -0.0028  1.0551  2.1790
  474SOL     OW 1420   0.704   1.265   0.590  0.0525 -0.5243  0.5271
  474SOL    HW1 1421   0.689   1.292   0.491 -0.7830  0.2592 -1.5374
  474SOL    HW2 1422   0.739   1.166   0.598  2.4910 -1.1266  0.2002
  475SOL     OW 1423   2.842   0.113   0.772  0.1781  0.3175 -0.7364
  475SOL    HW1 1424   2.934   0.138   0.823  1.4154 -1.0013  1.2747
  475SOL    HW2 1425   2.752   0.149   0.817 -2.1524  2.2510  0.0974
  476SOL     OW 1426   0.886   2.996   1.765 -0.7203 -0.8787  0.1829
  476SOL    HW1 1427   0.965   2.942   1.807 -0.8156 -1.7064  1.3348
  476SOL    HW2 1428   0.888   2.989   1.662 -2.4204 -1.9211 -0.7417
  477SOL     OW 1429   1.435   0.347   2.489 -0.0976  0.0332  0.3000
  477SOL    HW1 1430   1.419   0.363   2.593  2.3727 -0.4852  0.4879
  477SOL    HW2 1431   1.530   0.299   2.479  2.4233 -3.3355  1.0958
  478SOL     OW 1432   2.211   1.854   0.265 -0.2050 -0.5583  0.5797
  478SOL    HW1 1433   2.144   1.772   0.254  1.1926 -0.7001  0.8802
  478SOL    HW2 1434   2.311   1.825   0.249  2.9896  0.6420 -3.5925
  479SOL     OW 1435   1.254   1.089   2.934  0.7903  0.2759  0.0015
  479SOL    HW1 1436   1.323   1.112   2.861  5.2930  3.3158  0.0138
  479SOL    HW2 1437   1.163   1.056   2.901  0.0423 -0.7345  2.5206
  480SOL     OW 1438   2.512   2.307   0.373  0.0732 -0.1059  0.1119
  480SOL    HW1 1439   2.472   2.209   0.388 -1.3395  1.1663  3.3862
  480SOL    HW2 1440   2.449   2.353   0.304 -0.7654 -2.0403  0.7025
  481SOL     OW 1441   1.035   1.146   0.823 -0.1603  0.3067  0.2701
  481SOL    HW1 1442   1.041   1.233   0.767  0.5308  1.3926  2.3070
  481SOL    HW2 1443   1.013   1.171   0.922 -0.7593 -2.9875  1.9049
  482SOL     OW 1444   1.586   0.286   2.038  0.5230  0.0411  0.2178
  482SOL    HW1 1445   1.601   0.388   2.018  1.2967  2.7415 -0.6996
  482SOL    HW2 1446   1.670   0.236   2.064 -2.1666  0.7012 -1.1026
  483SOL     OW 1447   0.147   2.324   1.240  0.4138  0.1479 -0.4005
  483SOL    HW1 1448   0.068   2.340   1.303 -0.3921  2.0726 -0.9307
  483SOL    HW2 1449   0.148   2.389   1.161  2.1806 -1.6137 -2.3148
  484SOL     OW 1450   1.752   1.066   1.398 -0.2031  0.0415  0.2638
  484SOL    HW1 1451   1.809   0.980   1.378  0.2947 -1.9016  1.7210
  484SOL    HW2 1452   1.790   1.129   1.473  3.4468  1.0498 -0.9064
  485SOL     OW 1453   0.652   1.057   1.837  0.0994  0.0835 -0.3295
  485SOL    HW1 1454   0.657   1.026   1.741 -0.5759 -0.2183  1.9098
  485SOL    HW2 1455   0.747   1.071   1.876  1.3705 -0.0549  3.9934
  486SOL     OW 1456   0.875   1.918   2.455  0.4086 -0.5681 -0.1624
  486SOL    HW1 1457   0.925   1.889   2.537 -1.4508  1.4369  3.2577
  486SOL    HW2 1458   0.816   1.999   2.472  0.1250  1.4990  0.6717
  487SOL     OW 1459   1.823   1.597   0.926  0.1037 -0.4500 -0.0845
  487SOL    HW1 1460   1.867   1.506   0.930 -0.3362  0.1664  0.8605
  487SOL    HW2 1461   1.854   1.649   0.837  2.8841  0.7456 -1.9356
  488SOL     OW 1462   2.941   0.855   2.265 -0.2742 -0.2151 -0.0540
  488SOL    HW1 1463   2.975   0.759   2.247  0.7875 -1.2454  1.3377
  488SOL    HW2 1464   2.960   0.886   2.364 -0.7211  0.0791 -0.1954
  489SOL     OW 1465   2.770   0.251   1.295  0.3374  0.6744 -0.5195
  489SOL    HW1 1466   2.735   0.232   1.394 -0.5031 -1.3162  3.0559
  489SOL    HW2 1467   2.868   0.281   1.298 -1.3598  2.6432  1.0742
  490SOL     OW 1468   1.455   2.918   2.808 -0.1053 -0.5132  0.3460
  490SOL    HW1 1469   1.539   2.854   2.790 -1.2638 -0.0231 -1.8646
  490SOL    HW2 1470   1.423   2.972   2.724 -0.1602  0.2721  0.0624
  491SOL     OW 1471   1.829   1.466   2.590 -0.0468  0.2101  0.0774
  491SOL    HW1 1472   1.792   1.443   2.679 -0.2406  2.6099 -0.4280
  491SOL    HW2 1473   1.929   1.493   2.594  0.1532  0.0179  1.5442
  492SOL     OW 1474   0.520   1.980   0.644 -0.2710  0.3622  0.1433
  492SOL    HW1 1475   0.569   1.966   0.736  0.7753 -1.0539 -2.3698
  492SOL    HW2 1476   0.460   2.064   0.651  0.5426  2.0013 -1.3090
  493SOL     OW 1477   0.399   1.403   2.062  0.2877  0.1250 -0.2656
  493SOL    HW1 1478   0.307   1.449   2.041  2.3265 -0.6429 -0.3804
  493SOL    HW2 1479   0.400   1.350   2.148 -1.6192 -1.8982 -2.7706
  494SOL     OW 1480   2.645   2.734   0.192 -0.3876  0.6893  0.4058
  494SOL    HW1 1481   2.639   2.682   0.281 -2.4388  2.6528 -1.4418
  494SOL    HW2 1482   2.585   2.688   0.118  0.6473 -0.3284  0.7315
  495SOL     OW 1483   2.797   2.660   2.682  0.0862 -0.0394 -0.2429
  495SOL    HW1 1484   2.729   2.586   2.661  0.0959  0.3488 -1.0718
  495SOL    HW2 1485   2.830   2.709   2.596 -1.4702  0.6333 -0.5678
  496SOL     OW 1486   2.044   2.232   0.708 -0.7994  0.1414 -0.0622
  496SOL    HW1 1487   2.053   2.249   0.810  1.3131 -1.5924 -1.1147
  496SOL    HW2 1488   2.077   2.138   0.683  1.5931 -1.2304  1.3729
  497SOL     OW 1489   0.239   2.988   2.472 -0.4419  0.6438 -0.0956
  497SOL    HW1 1490   0.239   3.051   2.556  1.1085  2.5756  0.7033
  497SOL    HW2 1491   0.268   3.041   2.388  0.0769  1.6208  0.0128
  498SOL     OW 1492   1.237   1.414   1.223 -0.0897  0.2663  0.0989
  498SOL    HW1 1493   1.340   1.405   1.223  1.2779 -0.9940  1.1249
  498SOL    HW2 1494   1.211   1.493   1.285  1.0817 -1.7341 -0.1239
  499SOL     OW 1495   0.715   1.866   0.479  0.3347  0.0225  0.7984
  499SOL    HW1 1496   0.752   1.774   0.512  0.7283 -1.6862 -0.9566
  499SOL    HW2 1497   0.659   1.912   0.549 -1.3856 -1.5659 -1.2742
  500SOL     OW 1498   1.460   2.918   1.649 -0.1275  1.1681 -0.6079
  500SOL    HW1 1499   1.469   2.937   1.749 -0.5948 -1.7094 -0.6858
  500SOL    HW2 1500   1.507   2.828   1.618  0.4203  0.2214  1.6394
  501SOL     OW 1501   0.851   1.111   2.298  0.2418 -0.2520  0.0104
  501SOL    HW1 1502   0.750   1.078   2.274 -1.3100 -0.0876 -3.1643
  501SOL    HW2 1503   0.915   1.100   2.219  1.2260 -0.8950 -0.6551
  502SOL     OW 1504   2.629   0.945   1.743  0.3126  0.2502  0.4770
  502SOL    HW1 1505   2.628   0.979   1.643  0.5442  0.0812  1.5924
  502SOL    HW2 1506   2.588   0.851   1.748 -2.9070  0.1505  0.9399
  503SOL     OW 1507   1.256   0.114   0.656 -0.2886 -1.1530 -0.1900
  503SOL    HW1 1508   1.201   0.195   0.613  0.4986  1.8735 -0.1990
  503SOL    HW2 1509   1.341   0.147   0.706 -1.9258  1.3201 -1.1780
  504SOL     OW 1510   3.047   2.350   1.446  0.3493  0.0480 -0.3386
  504SOL    HW1 1511   2.971   2.397   1.504 -2.7058 -1.4638  3.1138
  504SOL    HW2 1512   3.106   2.290   1.512 -0.1064  2.0125 -0.5483
  505SOL     OW 1513   2.269   1.172   1.497 -0.2523 -0.1163 -0.1304
  505SOL    HW1 1514   2.273   1.198   1.396 -1.0907 -0.2697 -0.7931
  505SOL    HW2 1515   2.299   1.255   1.560  2.4168  3.2628  2.0115
  506SOL     OW 1516   1.994   0.149   1.804 -0.1552 -0.3008 -0.3899
  506SOL    HW1 1517   2.093   0.120   1.814  1.5999  0.9366  0.6081
  506SOL    HW2 1518   1.974   0.246   1.845 -0.7297  2.0945  1.4017
  507SOL     OW 1519   0.552   0.716   2.152  0.0861  0.2514  0.1339
  507SOL    HW1 1520   0.468   0.663   2.123  1.6304 -1.9596  1.4754
  507SOL    HW2 1521   0.631   0.653   2.194  0.1926 -3.0288  1.4513
  508SOL     OW 1522   0.230   1.661   0.868  0.2468 -0.1722 -0.2117
  508SOL    HW1 1523   0.333   1.670   0.874  0.5121 -0.4269 -0.3480
  508SOL    HW2 1524   0.187   1.706   0.956  2.7728 -0.0883  0.1005
  509SOL     OW 1525   1.302   1.255   2.319  0.9443  0.0850  0.6957
  509SOL    HW1 1526   1.278   1.272   2.215  0.1836 -0.4063 -3.4020
  509SOL    HW2 1527   1.278   1.165   2.364  2.2802  3.7583 -2.0533
  510SOL     OW 1528   1.289   2.021   2.079  0.0520  0.0662 -0.1832
  510SOL    HW1 1529   1.251   2.111   2.045  0.4950  0.7131 -0.4649
  510SOL    HW2 1530   1.223   1.974   2.150  2.3080  1.1200  0.4988
  511SOL     OW 1531   3.075   2.756   1.286  0.5724 -0.8187 -0.4751
  511SOL    HW1 1532   3.052   2.721   1.192  2.6186 -2.8546  0.2418
  511SOL    HW2 1533   3.017   2.716   1.360 -1.8246  0.5229  1.7387
  512SOL     OW 1534   2.361   0.438   1.363 -0.3868 -0.7612  0.5441
  512SOL    HW1 1535   2.284   0.378   1.390 -0.1686 -0.7998 -1.0768
  512SOL    HW2 1536   2.416   0.393   1.289 -1.3795 -0.6359  1.3968
  513SOL     OW 1537   2.512   2.065   0.846 -0.5203  0.3636  0.3356
  513SOL    HW1 1538   2.450   2.133   0.799  0.8535 -0.3176  0.5732
  513SOL    HW2 1539   2.602   2.032   0.798  1.7797 -1.4650  2.1005
  514SOL     OW 1540   0.570   2.766   0.510 -0.5540  0.0312 -0.3263
  514SOL    HW1 1541   0.587   2.811   0.417 -2.4055  0.9907 -0.1410
  514SOL    HW2 1542   0.643   2.795   0.576 -1.8455  0.9473  0.8203
  515SOL     OW 1543   2.033   1.116   2.304 -0.3865  0.1504 -0.6814
  515SOL    HW1 1544   1.999   1.127   2.210  3.7235 -2.8768  1.2223
  515SOL    HW2 1545   1.961   1.117   2.374  5.4353 -2.8429  0.1870
  516SOL     OW 1546   0.255   0.327   1.911  1.1448 -0.8197  0.1275
  516SOL    HW1 1547   0.315   0.289   1.841 -0.2787  1.9808 -0.1104
  516SOL    HW2 1548   0.162   0.283   1.913  0.9088 -0.0260 -0.2979
  517SOL     OW 1549   0.454   3.083   1.169 -0.5401  0.1039 -0.0808
  517SOL    HW1 1550   0.471   3.182   1.170  0.6340 -1.6928  0.1349
  517SOL    HW2 1551   0.354   3.064   1.173 -1.2379 -1.7082  1.0927
  518SOL     OW 1552   2.245   0.022   1.820 -0.2962  0.3050 -0.2697
  518SOL    HW1 1553   2.330   0.083   1.836  3.8512  1.9692  0.9209
  518SOL    HW2 1554   2.251  -0.025   1.728  0.7108 -0.1581 -0.0829
  519SOL     OW 1555   2.362   2.231   2.582  0.1986 -0.0677 -0.0261
  519SOL    HW1 1556   2.285   2.205   2.652 -1.1497  1.8304  0.6767
  519SOL    HW2 1557   2.385   2.334   2.578 -0.5902  0.2593  1.2687
  520SOL     OW 1558   1.799   2.814   1.863 -0.4662  0.5842  0.6893
  520SOL    HW1 1559   1.711   2.786   1.918 -2.2797 -0.2042  0.6419
  520SOL    HW2 1560   1.849   2.725   1.832 -1.5065  0.7915  0.1512
  521SOL     OW 1561   0.578   0.025   2.134 -0.2098  0.2097  0.0397
  521SOL    HW1 1562   0.489  -0.018   2.165 -0.2444  0.6311 -1.5691
  521SOL    HW2 1563   0.658   0.017   2.198 -0.0373 -0.3905  1.7537
  522SOL     OW 1564   0.206   1.905   1.442  0.0458  0.7666 -0.2277
  522SOL    HW1 1565   0.257   1.973   1.502 -0.2540  0.4720  1.7872
  522SOL    HW2 1566   0.190   1.946   1.346 -0.8447  1.2321  0.2007
  523SOL     OW 1567   2.261   2.985   1.550  0.2104 -0.4472 -0.3966
  523SOL    HW1 1568   2.341   2.925   1.582 -1.8862  1.1324  0.4682
  523SOL    HW2 1569   2.204   2.931   1.477  1.4026 -2.6552 -0.6584
  524SOL     OW 1570   0.185   2.823   2.832  0.1272  0.0063 -0.3934
  524SOL    HW1 1571   0.140   2.916   2.838 -0.6908  0.0866  2.4570
  524SOL    HW2 1572   0.285   2.829   2.805  0.4006 -4.5335 -0.8906
  525SOL     OW 1573   2.152   2.019   0.467 -0.5311 -0.5086  0.0313
  525SOL    HW1 1574   2.166   1.958   0.551 -0.2448 -1.5838 -1.2825
  525SOL    HW2 1575   2.180   1.962   0.382  2.0914  2.4373 -3.1897
  526SOL     OW 1576   0.415   1.552   1.671  0.0554 -0.4355  0.0851
  526SOL    HW1 1577   0.427   1.552   1.773 -2.9270  1.5504  1.3753
  526SOL    HW2 1578   0.449   1.463   1.631 -0.4849  1.5898  0.2608
  527SOL     OW 1579   1.098   2.951   1.231  0.1887 -0.0515  0.1074
  527SOL    HW1 1580   1.174   2.885   1.248  0.9762  1.8862 -1.5570
  527SOL    HW2 1581   1.123   3.053   1.238 -0.3639  1.2986 -1.3886
  528SOL     OW 1582   1.336   2.414   0.540  0.4070  0.0646 -0.1719
  528SOL    HW1 1583   1.399   2.332   0.555 -1.1101  1.8153 -1.2260
  528SOL    HW2 1584   1.376   2.497   0.586  0.7748 -0.9514 -0.9428
  529SOL     OW 1585   1.947   1.724   0.700 -0.2758  0.2526  0.6839
  529SOL    HW1 1586   1.895   1.739   0.610  1.8161 -0.0211  3.2159
  529SOL    HW2 1587   1.947   1.802   0.770  1.3343  0.0041  0.7370
  530SOL     OW 1588   0.297   2.595   0.291 -0.0922 -0.4001  0.1877
  530SOL    HW1 1589   0.295   2.679   0.356 -0.3413  0.2681 -0.3765
  530SOL    HW2 1590   0.308   2.507   0.342 -0.9856 -0.8658 -3.2591
  531SOL     OW 1591   1.812   1.001   0.988 -0.4081  0.1506 -0.0463
  531SOL    HW1 1592   1.834   0.980   0.891 -0.8948  1.7511 -2.3181
  531SOL    HW2 1593   1.709   0.994   1.011 -1.0685 -0.1521  0.8931
  532SOL     OW 1594   0.445   1.161   0.744  0.4497  0.0994  0.3642
  532SOL    HW1 1595   0.521   1.165   0.671  0.2054  0.3403  2.6802
  532SOL    HW2 1596   0.412   1.062   0.763 -2.5026  0.0042  0.5242
  533SOL     OW 1597   1.756   0.021   2.613  0.3886  0.1527  0.2806
  533SOL    HW1 1598   1.854   0.039   2.637 -1.1886 -0.5839  2.1209
  533SOL    HW2 1599   1.696   0.088   2.660 -0.1418 -0.9474  0.2498
  534SOL     OW 1600   0.347   0.226   1.634 -0.9083  0.6645 -0.2478
  534SOL    HW1 1601   0.451   0.237   1.609  0.9557 -0.1797 -1.1000
  534SOL    HW2 1602   0.295   0.320   1.628 -0.2655  1.4024  0.6150
  535SOL     OW 1603   1.979   0.343   0.136 -0.2665 -0.1726 -0.3136
  535SOL    HW1 1604   1.959   0.420   0.199  3.3091 -3.3457  1.0271
  535SOL    HW2 1605   1.960   0.253   0.183  0.1096  1.4805 -2.9722
  536SOL     OW 1606   1.401   2.581   0.924  0.4213  0.2685  0.1316
  536SOL    HW1 1607   1.384   2.546   1.024 -0.9799 -1.9207 -0.3867
  536SOL    HW2 1608   1.315   2.624   0.885 -0.1097  1.8123  0.7014
  537SOL     OW 1609   0.805   0.252   2.403  0.5947  0.5552  0.2646
  537SOL    HW1 1610   0.775   0.312   2.323  1.1759 -1.8733 -2.3110
  537SOL    HW2 1611   0.779   0.149   2.398 -1.9020  1.7395  2.6173
  538SOL     OW 1612   1.642   2.374   1.556 -0.4649  0.0202 -0.3639
  538SOL    HW1 1613   1.627   2.271   1.532  1.6350 -2.8672  0.3405
  538SOL    HW2 1614   1.724   2.421   1.509 -0.2860  1.9926 -0.2966
  539SOL     OW 1615   0.199   1.638   2.725 -0.5177  0.6127 -0.3341
  539SOL    HW1 1616   0.117   1.650   2.663  2.7954 -2.3365 -1.4652
  539SOL    HW2 1617   0.230   1.727   2.767  0.3609 -0.4787  0.0207
  540SOL     OW 1618   2.658   1.731   1.914 -0.2026  0.0737  0.3661
  540SOL    HW1 1619   2.612   1.651   1.969 -0.6298 -3.2158  1.0557
  540SOL    HW2 1620   2.600   1.823   1.901 -1.2565  2.3448  1.5448
  541SOL     OW 1621   0.480   2.203   0.023  0.0188 -0.0254  0.1173
  541SOL    HW1 1622   0.515   2.168   0.114 -0.2747  0.7785 -2.2241
  541SOL    HW2 1623   0.378   2.193   0.006  0.1187  0.8873  0.6167
  542SOL     OW 1624   2.233   2.583   0.434 -0.2523 -0.3072 -0.4256
  542SOL    HW1 1625   2.208   2.682   0.439 -1.7305 -0.1697  3.2078
  542SOL    HW2 1626   2.155   2.515   0.437 -0.0097 -0.1150 -0.3722
  543SOL     OW 1627   1.090   1.852   1.571  0.4639 -0.3158  0.0696
  543SOL    HW1 1628   1.055   1.913   1.643 -2.3109 -1.3550  0.6839
  543SOL    HW2 1629   1.061   1.882   1.474  3.1823  0.3541  0.7283
  544SOL     OW 1630   1.057   0.443   0.208  0.8123  0.0654  0.1223
  544SOL    HW1 1631   1.071   0.367   0.277  1.0473  1.8547 -2.5296
  544SOL    HW2 1632   1.064   0.404   0.116  1.4017  2.7426  2.1559
  545SOL     OW 1633   1.112   1.738   0.817  0.1065  0.4803 -0.0706
  545SOL    HW1 1634   1.209   1.746   0.776 -0.2319 -0.2813  0.5162
  545SOL    HW2 1635   1.106   1.662   0.892  0.1880 -1.5989  1.5881
  546SOL     OW 1636   2.611   1.483   3.030  0.3172  0.8558  0.4259
  546SOL    HW1 1637   2.593   1.567   2.969  2.9283  0.5071 -1.3167
  546SOL    HW2 1638   2.520   1.439   3.053 -1.6655 -2.1146 -1.2073
  547SOL     OW 1639   0.617   3.016   2.655  0.0312 -0.1371 -0.5579
  547SOL    HW1 1640   0.720   2.988   2.657 -3.1262  0.0012  0.5745
  547SOL    HW2 1641   0.555   2.932   2.678 -0.5381 -0.8399  0.3872
  548SOL     OW 1642   2.071   0.925   2.954 -0.3137  0.0131  0.4700
  548SOL    HW1 1643   1.984   0.868   2.962 -0.7358 -1.0352 -0.4650
  548SOL    HW2 1644   2.067   1.013   2.998  0.5688 -2.3045  1.5150
  549SOL     OW 1645   0.698   0.517   0.191  0.2295 -0.0362 -0.2714
  549SOL    HW1 1646   0.648   0.558   0.103 -1.0001 -1.9102  0.5211
  549SOL    HW2 1647   0.771   0.580   0.225  1.4778 -3.9178 -2.6124
  550SOL     OW 1648   2.603   2.832   2.887  0.2321 -0.4416 -0.3507
  550SOL    HW1 1649   2.558   2.761   2.943  1.4960  1.6732 -0.4968
  550SOL    HW2 1650   2.641   2.787   2.801  1.1541  0.4716  0.0801
  551SOL     OW 1651   0.274   0.854   0.240  0.0402 -0.5139  0.3346
  551SOL    HW1 1652   0.374   0.832   0.231 -0.1759  1.0297 -0.2167
  551SOL    HW2 1653   0.237   0.861   0.338 -0.3304  2.4909 -0.5605
  552SOL     OW 1654   0.634   2.971   1.916 -0.3251  0.2608 -0.3921
  552SOL    HW1 1655   0.608   3.026   2.005 -0.7388 -0.0285  0.4421
  552SOL    HW2 1656   0.738   2.963   1.897  3.2175 -1.2938  1.2216
  553SOL     OW 1657   2.949   2.500   0.366 -0.0108 -0.2575  0.0649
  553SOL    HW1 1658   2.891   2.410   0.371 -1.8901 -0.3630  1.7873
  553SOL    HW2 1659   2.919   2.579   0.427 -2.7553  3.4518 -1.9778
  554SOL     OW 1660   2.143   0.385   0.559  0.1047 -0.1346 -0.1410
  554SOL    HW1 1661   2.205   0.365   0.474  0.9109 -0.1129 -0.4030
  554SOL    HW2 1662   2.140   0.296   0.612  0.8316 -3.0472 -1.8634
  555SOL     OW 1663   0.388   2.753   2.481  0.2631  0.3683  0.0942
  555SOL    HW1 1664   0.327   2.840   2.474 -0.5069  0.0014  0.8149
  555SOL    HW2 1665   0.442   2.741   2.388  1.4373  2.3458 -3.9069
  556SOL     OW 1666   0.855   2.387   1.533  0.4719  0.3142  0.5385
  556SOL    HW1 1667   0.893   2.461   1.594  1.3471 -3.5447  0.7149
  556SOL    HW2 1668   0.920   2.351   1.456 -0.1069 -0.3853 -1.3388
  557SOL     OW 1669   0.148   2.091   0.242  0.3011 -0.1064 -0.1067
  557SOL    HW1 1670   0.062   2.043   0.213  1.4233 -2.5810  1.2483
  557SOL    HW2 1671   0.197   2.120   0.158  0.9449 -0.0041  0.2330
  558SOL     OW 1672   2.791   2.267   0.370 -0.3819 -0.2848  0.5674
  558SOL    HW1 1673   2.693   2.284   0.349 -1.9583 -1.3170 -0.0620
  558SOL    HW2 1674   2.813   2.166   0.381 -0.8116 -1.4136  0.0944
  559SOL     OW 1675   0.381   2.277   1.406  0.1265  0.4965  0.1900
  559SOL    HW1 1676   0.321   2.310   1.326  0.4920  2.0623 -0.4133
  559SOL    HW2 1677   0.456   2.210   1.379  0.6483 -2.2939  1.5134
  560SOL     OW 1678   2.115   1.195   3.062 -0.5440 -0.2524 -0.6778
  560SOL    HW1 1679   2.124   1.185   3.165  0.7498  1.0919 -1.7695
  560SOL    HW2 1680   2.203   1.234   3.019 -0.8978  0.2405  0.8624
  561SOL     OW 1681   3.084   1.846   0.013 -0.2003 -0.0414 -0.0508
  561SOL    HW1 1682   3.067   1.812   0.108 -1.1766 -1.1880  0.6213
  561SOL    HW2 1683   3.036   1.938   0.001 -0.0579  2.6193  2.4469
  562SOL     OW 1684   0.953   2.212   2.334 -0.2413 -0.3695  0.0994
  562SOL    HW1 1685   0.893   2.261   2.402  5.4771  1.5036  0.0914
  562SOL    HW2 1686   0.960   2.107   2.343  2.1704 -3.8908 -1.3121
  563SOL     OW 1687   0.686   2.583   2.625 -0.0279  0.0477 -0.2212
  563SOL    HW1 1688   0.779   2.541   2.625 -1.1884  0.8828  0.1398
  563SOL    HW2 1689   0.653   2.593   2.724 -0.8243  0.1853 -0.8950
  564SOL     OW 1690   2.823   1.332   2.896 -0.1192 -0.1511 -0.1160
  564SOL    HW1 1691   2.740   1.339   2.959 -3.3590  0.1233 -1.1403
  564SOL    HW2 1692   2.867   1.425   2.877  0.5832 -2.5261 -1.1832
  565SOL     OW 1693   2.532   2.010   2.642  0.0993  0.5663  0.0081
  565SOL    HW1 1694   2.473   2.088   2.600  0.2111  0.9007  1.6708
  565SOL    HW2 1695   2.614   2.040   2.706  1.7271  1.2122  1.4788
  566SOL     OW 1696   2.077   2.828   1.414  0.0210  0.3788  0.5919
  566SOL    HW1 1697   2.037   2.742   1.461 -1.4634 -0.5018 -0.8036
  566SOL    HW2 1698   2.018   2.867   1.338  1.0335  0.0372 -2.3085
  567SOL     OW 1699   2.426   3.052   2.398 -0.0653 -0.0418 -0.6583
  567SOL    HW1 1700   2.325   3.065   2.417 -3.0849 -2.0087 -0.8746
  567SOL    HW2 1701   2.445   3.022   2.302 -2.6709 -2.2565  0.9506
  568SOL     OW 1702   1.534   1.740   0.207 -0.2560  0.0761  0.0193
  568SOL    HW1 1703   1.480   1.819   0.167 -2.5283 -1.4636 -2.3899
  568SOL    HW2 1704   1.635   1.759   0.224  1.3442  1.9183  2.3563
  569SOL     OW 1705   0.270   0.660   0.831  0.3182  0.1868 -0.0700
  569SOL    HW1 1706   0.329   0.589   0.784 -0.8589  1.8661 -0.5021
  569SOL    HW2 1707   0.178   0.633   0.858 -1.7694  3.2031 -4.5951
  570SOL     OW 1708   0.650   0.843   2.935  0.2662 -0.8531 -0.0323
  570SOL    HW1 1709   0.715   0.891   2.869 -1.1518 -0.7852  0.1747
  570SOL    HW2 1710   0.628   0.904   3.017 -0.8430  0.4758  1.9839
  571SOL     OW 1711   0.783   3.079   1.066 -0.4931  0.2775  0.1803
  571SOL    HW1 1712   0.854   3.123   1.000 -1.1548  0.8363  2.9691
  571SOL    HW2 1713   0.720   3.007   1.018 -0.3224 -0.8649  1.3376
  572SOL     OW 1714   1.642   2.629   1.346 -0.1288  1.2299 -0.1638
  572SOL    HW1 1715   1.588   2.586   1.274 -0.7165  0.6741  0.4936
  572SOL    HW2 1716   1.654   2.732   1.340  0.2523 -0.1958  1.4272
  573SOL     OW 1717   2.890   0.481   2.010  0.3774  0.0470  0.2195
  573SOL    HW1 1718   2.838   0.390   2.028 -2.5173 -2.6854 -0.5614
  573SOL    HW2 1719   2.944   0.477   1.922 -0.7802  2.1212  0.9740
  574SOL     OW 1720   0.148   1.784   1.104  0.1464 -0.1537  0.3514
  574SOL    HW1 1721   0.207   1.852   1.160 -1.8190 -1.0706  3.0578
  574SOL    HW2 1722   0.044   1.807   1.112 -0.6160  0.5803  1.7948
  575SOL     OW 1723   0.827   2.197   0.928 -0.2722  0.6111  0.5267
  575SOL    HW1 1724   0.794   2.219   1.023  1.9125 -1.5845 -1.3922
  575SOL    HW2 1725   0.861   2.286   0.880 -0.2284  0.5192  0.5934
  576SOL     OW 1726   2.849   3.003   1.676 -0.0622 -0.3735 -0.1041
  576SOL    HW1 1727   2.760   3.013   1.620 -1.7955  2.6561 -1.3672
  576SOL    HW2 1728   2.905   3.093   1.670 -0.7539  0.3183  0.3708
  577SOL     OW 1729   2.524   1.189   3.095 -0.0394 -0.3084 -0.0358
  577SOL    HW1 1730   2.568   1.127   3.023  0.6435 -1.1858  1.4423
  577SOL    HW2 1731   2.604   1.215   3.160  2.2153 -2.1978 -0.8827
  578SOL     OW 1732   1.460   2.693   2.460 -0.4110  0.4244  0.1324
  578SOL    HW1 1733   1.364   2.730   2.449  1.0721 -1.6619 -1.0162
  578SOL    HW2 1734   1.534   2.763   2.446 -0.1305 -0.5886  0.8305
  579SOL     OW 1735   0.052   2.484   0.190  0.0299 -0.1715 -0.0446
  579SOL    HW1 1736  -0.016   2.498   0.270 -1.7205  2.5863 -0.7858
  579SOL    HW2 1737   0.148   2.503   0.218 -1.0479 -1.2431  0.9153
  580SOL     OW 1738   0.963   2.669   0.372  0.4099  0.1339 -0.9054
  580SOL    HW1 1739   1.050   2.674   0.318 -1.9280  0.9562  2.7547
  580SOL    HW2 1740   0.889   2.605   0.336 -0.3967 -1.9866 -2.0475
  581SOL     OW 1741   1.222   2.659   1.455 -0.0255 -0.0836  0.0156
  581SOL    HW1 1742   1.280   2.576   1.485  0.4310 -0.5176  0.5182
  581SOL    HW2 1743   1.280   2.712   1.387 -0.5195 -1.7452  0.1945
  582SOL     OW 1744   1.490   0.102   1.857  0.2568 -0.0871 -0.1606
  582SOL    HW1 1745   1.516   0.175   1.927 -2.6850 -0.0183 -0.0662
  582SOL    HW2 1746   1.568   0.087   1.790 -1.2886 -2.2428  0.3838
  583SOL     OW 1747   2.427   3.093   0.503 -0.2191  0.5976 -0.5549
  583SOL    HW1 1748   2.519   3.048   0.499  0.5700  0.4475  0.8878
  583SOL    HW2 1749   2.342   3.033   0.525 -4.6312  0.0742 -0.6474
  584SOL     OW 1750   1.537   1.103   2.209  0.3474  0.2764  0.7138
  584SOL    HW1 1751   1.564   1.200   2.198 -2.0760  1.8974 -0.3045
  584SOL    HW2 1752   1.612   1.029   2.234 -0.7092 -0.5390  2.4445
  585SOL     OW 1753   2.137   2.698   2.921 -0.4124  0.0722 -0.0268
  585SOL    HW1 1754   2.141   2.593   2.909 -0.4757  0.5411  1.6104
  585SOL    HW2 1755   2.044   2.726   2.949  0.1172  1.3490 -0.9670
  586SOL     OW 1756   2.827   0.340   1.627  0.0554 -0.0171 -0.1049
  586SOL    HW1 1757   2.817   0.427   1.682  4.7208 -1.5870 -0.7305
  586SOL    HW2 1758   2.736   0.282   1.628 -0.2291 -2.6625 -0.2329
  587SOL     OW 1759   2.088   1.524   2.663 -0.3806 -0.3255 -0.3354
  587SOL    HW1 1760   2.129   1.444   2.613  1.0638 -0.8962  3.6138
  587SOL    HW2 1761   2.091   1.518   2.766  0.9996 -0.1192  0.1214
  588SOL     OW 1762   0.458   2.678   2.224  0.0008  0.2518  0.2080
  588SOL    HW1 1763   0.360   2.656   2.216 -0.5159  0.2668 -1.6207
  588SOL    HW2 1764   0.511   2.596   2.268  0.8618  1.3727 -0.4857
  589SOL     OW 1765   2.167   1.331   2.471  0.7556 -0.1206  0.0692
  589SOL    HW1 1766   2.105   1.266   2.413  1.7360 -1.7196  0.8694
  589SOL    HW2 1767   2.270   1.320   2.457  0.4163  0.1642 -0.2180
  590SOL     OW 1768   2.316   1.746   2.041 -0.8216  1.0963 -0.1851
  590SOL    HW1 1769   2.378   1.663   2.040  0.8551  1.0277 -1.8328
  590SOL    HW2 1770   2.295   1.794   2.131 -1.2682  2.1014  1.5091
  591SOL     OW 1771   1.262   2.427   0.218  0.0806  0.2271  0.2575
  591SOL    HW1 1772   1.275   2.340   0.164 -0.9380  0.4638  1.0015
  591SOL    HW2 1773   1.228   2.408   0.316 -0.2973 -1.9553  3.6077
  592SOL     OW 1774   1.768   2.310   0.724  0.5222 -0.1372  0.0701
  592SOL    HW1 1775   1.740   2.364   0.642 -0.0258  1.9333  0.1548
  592SOL    HW2 1776   1.863   2.267   0.713 -0.2582  1.1759 -0.4125
  593SOL     OW 1777   0.703   0.247   0.218  0.1082  0.6011 -0.4621
  593SOL    HW1 1778   0.735   0.196   0.136 -0.3645 -0.2007  0.9182
  593SOL    HW2 1779   0.717   0.352   0.222  1.3841 -1.6075  0.6415
  594SOL     OW 1780   1.017   1.823   2.691  0.2312 -0.0295  0.1019
  594SOL    HW1 1781   1.107   1.779   2.662  1.0230  3.5025  0.3571
  594SOL    HW2 1782   1.039   1.890   2.763  0.5050 -2.0871 -1.5865
  595SOL     OW 1783   1.547   0.046   1.042 -0.1389  0.5046 -1.1303
  595SOL    HW1 1784   1.622  -0.015   0.999  0.3861 -2.0815 -1.4667
  595SOL    HW2 1785   1.465   0.043   0.979 -1.1887 -0.4824 -0.8277
  596SOL     OW 1786   0.051   1.554   2.266  0.3537  0.7225  0.0352
  596SOL    HW1 1787   0.058   1.460   2.307 -1.6492  4.1870  0.2201
  596SOL    HW2 1788   0.037   1.622   2.343 -0.9114 -0.8166 -1.2221
  597SOL     OW 1789   1.941   2.608   1.770  0.4444  0.3500  1.1285
  597SOL    HW1 1790   1.937   2.612   1.668 -0.8771 -0.3151  3.4800
  597SOL    HW2 1791   2.028   2.574   1.815  0.9842  0.0243 -1.0616
  598SOL     OW 1792   2.535   2.914   1.219 -0.4712 -0.1242  0.2523
  598SOL    HW1 1793   2.625   2.917   1.269 -0.4051  0.5314 -0.8530
  598SOL    HW2 1794   2.553   2.911   1.115 -0.9636  0.8218 -0.3057
  599SOL     OW 1795   2.886   0.307   2.470  0.2727 -0.3505 -0.4961
  599SOL    HW1 1796   2.976   0.350   2.489 -1.6765  1.3096  0.0113
  599SOL    HW2 1797   2.830   0.351   2.397  0.6727 -0.6117  0.0458
  600SOL     OW 1798   2.820   1.093   2.731  0.0440 -0.0394  0.2320
  600SOL    HW1 1799   2.746   1.028   2.768 -1.6106  0.2165 -2.0467
  600SOL    HW2 1800   2.820   1.176   2.792 -1.3816 -1.8549 -0.3103
  601SOL     OW 1801   3.051   1.324   2.008  0.5057  0.0725 -0.0745
  601SOL    HW1 1802   3.009   1.378   1.929 -2.0119  2.7606 -0.0466
  601SOL    HW2 1803   3.140   1.366   2.039 -0.5670 -1.3468 -1.0515
  602SOL     OW 1804   1.444   1.697   2.282 -0.2293 -0.5524  0.0705
  602SOL    HW1 1805   1.352   1.661   2.318  2.9515 -0.4549  0.6429
  602SOL    HW2 1806   1.519   1.699   2.356  1.4552 -3.3639 -0.1828
  603SOL     OW 1807   0.614   1.211   2.808  0.0596 -0.1359  0.0408
  603SOL    HW1 1808   0.528   1.191   2.753 -1.5018  1.0696  0.4240
  603SOL    HW2 1809   0.682   1.134   2.789  1.3090  1.1144  1.0647
  604SOL     OW 1810   2.399   0.995   0.173  0.1685  0.1720  0.3198
  604SOL    HW1 1811   2.447   1.071   0.122  0.4825 -2.1093 -1.3746
  604SOL    HW2 1812   2.391   0.916   0.110 -1.9955 -0.2060  0.2655
  605SOL     OW 1813   2.516   1.141   1.908  0.3333  0.2654 -0.1769
  605SOL    HW1 1814   2.554   1.058   1.858 -0.9783  4.2232 -1.2453
  605SOL    HW2 1815   2.572   1.171   1.991  1.1517  0.0816  0.9840
  606SOL     OW 1816   1.545   2.486   2.588 -0.3756 -0.1636  0.3693
  606SOL    HW1 1817   1.507   2.554   2.520 -4.0698 -0.1093  2.9577
  606SOL    HW2 1818   1.478   2.404   2.594 -1.6841  0.7506 -0.2088
  607SOL     OW 1819   1.339   1.591   0.307  0.0475 -0.3112 -0.2657
  607SOL    HW1 1820   1.276   1.651   0.363 -1.8616  3.0658  0.2203
  607SOL    HW2 1821   1.415   1.645   0.263  1.8982 -1.0506  1.5185
  608SOL     OW 1822   1.465   2.825   0.404  0.3904  0.2554 -0.0715
  608SOL    HW1 1823   1.506   2.866   0.315  0.3114  1.0996 -1.2439
  608SOL    HW2 1824   1.390   2.883   0.449 -1.2877  0.3565  1.4921
  609SOL     OW 1825   1.270   1.308   0.273  0.1601  0.1891 -0.0538
  609SOL    HW1 1826   1.286   1.405   0.297  0.2229  1.7120 -1.9131
  609SOL    HW2 1827   1.223   1.296   0.176 -5.0086 -1.5978  0.1177
  610SOL     OW 1828   2.952   1.149   2.212  0.1981  0.3958  0.0116
  610SOL    HW1 1829   2.964   1.047   2.193 -0.1297 -0.5220  2.2559
  610SOL    HW2 1830   2.922   1.205   2.131  0.3750 -1.9869 -1.9240
  611SOL     OW 1831   2.519   0.284   1.173  0.2338 -0.5664  0.2733
  611SOL    HW1 1832   2.444   0.212   1.186  0.1150  0.8800  2.4699
  611SOL    HW2 1833   2.600   0.269   1.237  1.9860 -1.2359 -0.0445
  612SOL     OW 1834   0.755   2.257   1.193 -0.1935  0.2212 -0.2040
  612SOL    HW1 1835   0.677   2.205   1.246  0.2751  2.5947  0.7627
  612SOL    HW2 1836   0.714   2.340   1.153  2.9665 -0.6122  0.2050
  613SOL     OW 1837   0.791   1.369   2.392 -0.1443  0.0972  0.0049
  613SOL    HW1 1838   0.800   1.435   2.313  0.6711  1.7916  0.4362
  613SOL    HW2 1839   0.801   1.273   2.356 -1.2812 -0.3110 -0.0179
  614SOL     OW 1840   1.573   1.713   1.958  0.5368  0.0782 -0.3044
  614SOL    HW1 1841   1.519   1.791   1.915 -0.8944  0.0268 -3.5784
  614SOL    HW2 1842   1.636   1.743   2.033 -1.5443 -0.0455  0.4323
  615SOL     OW 1843   0.777   1.348   1.734 -0.2024 -0.4944 -0.4093
  615SOL    HW1 1844   0.689   1.350   1.679 -1.7029  4.1379 -0.1295
  615SOL    HW2 1845   0.850   1.426   1.710  3.6103 -0.0960  0.6069
  616SOL     OW 1846   1.075   1.612   2.175  0.1526 -0.6124  0.1471
  616SOL    HW1 1847   0.973   1.588   2.161 -0.4338  1.0149  1.5599
  616SOL    HW2 1848   1.124   1.651   2.096 -0.4190 -0.3230  2.5858
  617SOL     OW 1849   2.963   1.551   1.544  0.0415 -0.7374  0.4263
  617SOL    HW1 1850   2.950   1.502   1.633  1.7522  0.4329 -1.4120
  617SOL    HW2 1851   2.972   1.486   1.467 -0.8671 -3.8463  1.6234
  618SOL     OW 1852   1.917   2.027   1.414 -0.0774 -0.6165  0.1134
  618SOL    HW1 1853   2.002   2.026   1.354  0.6294 -0.1969 -1.6732
  618SOL    HW2 1854   1.871   1.934   1.421 -1.4648 -1.6991 -0.5599
  619SOL     OW 1855   1.768   0.500   2.397  0.7609 -0.0982 -0.0764
  619SOL    HW1 1856   1.677   0.529   2.356 -1.6853 -0.9728 -0.9987
  619SOL    HW2 1857   1.757   0.397   2.419 -1.0723 -0.1299 -1.2528
  620SOL     OW 1858   2.187   2.969   0.608 -0.2440 -0.2868 -0.0589
  620SOL    HW1 1859   2.146   3.039   0.667  1.7901 -2.5204 -1.0756
  620SOL    HW2 1860   2.221   2.888   0.667 -0.0125 -1.1643  0.7813
  621SOL     OW 1861   2.124   1.850   1.297  0.0486  0.0726 -0.0705
  621SOL    HW1 1862   2.116   1.859   1.398 -0.7714  0.2388 -1.8296
  621SOL    HW2 1863   2.104   1.755   1.258  1.2424 -3.0220 -0.3143
  622SOL     OW 1864   2.178   0.863   1.785 -0.8237 -0.1078 -0.4852
  622SOL    HW1 1865   2.277   0.860   1.754 -1.5056 -0.5255  1.3335
  622SOL    HW2 1866   2.155   0.797   1.861 -0.5204  2.2158 -1.1813
  623SOL     OW 1867   1.378   0.783   2.634 -0.4195 -0.6738  0.0690
  623SOL    HW1 1868   1.320   0.719   2.695  1.5003  0.1361 -1.0370
  623SOL    HW2 1869   1.317   0.836   2.567  1.5341  0.4394 -0.3082
  624SOL     OW 1870   0.527   0.655   0.012 -0.3582  0.3523  0.0521
  624SOL    HW1 1871   0.551   0.693  -0.077  0.4752  1.0724 -0.6557
  624SOL    HW2 1872   0.533   0.722   0.089 -0.2860  0.1260 -3.0637
  625SOL     OW 1873   2.812   1.748   0.957 -0.3481 -0.0131  0.0275
  625SOL    HW1 1874   2.729   1.789   1.004  0.5766  1.0228  3.0454
  625SOL    HW2 1875   2.808   1.644   0.950 -2.4255 -0.0145 -1.9968
  626SOL     OW 1876   0.576   2.683   1.846 -0.2799  0.5237 -0.4418
  626SOL    HW1 1877   0.599   2.772   1.893  0.1438 -0.5910 -0.5707
  626SOL    HW2 1878   0.477   2.679   1.816  0.0026  1.6786  0.7325
  627SOL     OW 1879   0.727   0.986   1.544  0.0083  0.2853 -0.1926
  627SOL    HW1 1880   0.779   0.897   1.537  1.8249 -0.4958 -2.1019
  627SOL    HW2 1881   0.784   1.067   1.518  2.3460 -0.2389  4.5883
  628SOL     OW 1882   2.393   0.170   0.708  0.0206  0.2938 -0.6047
  628SOL    HW1 1883   2.425   0.104   0.632 -0.1129 -2.4437 -1.7804
  628SOL    HW2 1884   2.290   0.172   0.716  2.9106 -1.2856 -0.7494
  629SOL     OW 1885   1.959   0.899   1.996 -0.2952 -0.1473 -0.2203
  629SOL    HW1 1886   2.052   0.878   2.042 -1.4846  1.9906 -0.4607
  629SOL    HW2 1887   1.926   0.998   2.001 -2.3174 -2.5278  1.4347
  630SOL     OW 1888   2.825   2.219   0.768 -0.5223  0.2857  0.0593
  630SOL    HW1 1889   2.729   2.249   0.779 -1.9833  0.3964 -0.0546
  630SOL    HW2 1890   2.826   2.115   0.771 -1.1712  1.3921  1.1505
  631SOL     OW 1891   2.938   0.138   2.103 -0.0251 -0.5434 -0.9188
  631SOL    HW1 1892   3.016   0.139   2.172  1.2441  0.7724 -1.4345
  631SOL    HW2 1893   2.976   0.134   2.004 -2.8335 -0.7038  0.8169
  632SOL     OW 1894   2.430   2.509   0.639  0.1899 -0.3856 -0.4050
  632SOL    HW1 1895   2.507   2.557   0.690 -0.4087 -1.6934 -1.6220
  632SOL    HW2 1896   2.400   2.553   0.550 -0.3298  2.4816  0.5785
  633SOL     OW 1897   1.483   1.277   2.531  0.3935 -0.3055  0.1518
  633SOL    HW1 1898   1.494   1.370   2.578  1.3514  1.5903 -0.3331
  633SOL    HW2 1899   1.418   1.272   2.448  0.0753  1.2657 -1.5265
  634SOL     OW 1900   0.661   1.979   0.916 -0.0678 -0.0114  0.0004
  634SOL    HW1 1901   0.576   1.996   0.975 -0.3506 -0.7125  1.3015
  634SOL    HW2 1902   0.723   2.064   0.912  0.5413  1.7077 -1.2978
  635SOL     OW 1903   0.003   2.328   3.052  0.3033  0.1499 -0.0691
  635SOL    HW1 1904  -0.047   2.388   2.979  0.0184  0.7095  1.3366
  635SOL    HW2 1905   0.021   2.378   3.144  1.3890 -1.1488  1.5713
  636SOL     OW 1906   2.281   2.721   2.064 -0.2420  0.3124 -0.8732
  636SOL    HW1 1907   2.302   2.825   2.057 -3.7545  0.2627 -2.3629
  636SOL    HW2 1908   2.228   2.695   2.156 -1.2703 -2.5655  1.7459
  637SOL     OW 1909   2.589   0.699   2.044  0.1281  0.0655  0.2931
  637SOL    HW1 1910   2.540   0.718   1.956 -0.1397 -0.1103  0.4563
  637SOL    HW2 1911   2.647   0.784   2.075  1.9841  1.2506  0.6617
  638SOL     OW 1912   2.415   1.852   1.273  0.3200  0.2961  0.2733
  638SOL    HW1 1913   2.317   1.865   1.288  3.5260 -0.3551  1.1112
  638SOL    HW2 1914   2.453   1.772   1.325 -0.6783  0.6260  0.7806
  639SOL     OW 1915   1.313   2.217   1.678 -0.4049 -0.3920 -0.6353
  639SOL    HW1 1916   1.338   2.166   1.595 -1.1319  0.4438 -1.0391
  639SOL    HW2 1917   1.221   2.184   1.711  1.1136 -0.6739  1.2550
  640SOL     OW 1918   0.190   1.188   1.561  0.2795 -0.3419  0.1577
  640SOL    HW1 1919   0.187   1.221   1.658 -1.6087 -1.1003 -0.6067
  640SOL    HW2 1920   0.288   1.176   1.528  0.8261  1.9055 -1.5879
  641SOL     OW 1921   2.050   0.091   1.510 -0.0301 -0.4267 -0.4224
  641SOL    HW1 1922   2.005   0.137   1.592 -1.2411 -1.1408  0.4591
  641SOL    HW2 1923   2.107   0.010   1.532 -1.6065  1.1874 -0.9775
  642SOL     OW 1924   1.965   0.113   0.287  0.5946 -0.3077  0.3578
  642SOL    HW1 1925   2.052   0.097   0.334 -1.8519 -0.4183  0.5791
  642SOL    HW2 1926   1.886   0.122   0.347 -0.1308  1.8671 -0.5239
  643SOL     OW 1927   2.888   1.886   2.065 -0.2682  0.4208 -0.1592
  643SOL    HW1 1928   2.843   1.809   2.015 -0.1747  2.5131  0.0024
  643SOL    HW2 1929   2.867   1.974   2.013  0.8713 -1.5236 -1.4333
  644SOL     OW 1930   2.252   2.340   1.191 -0.3556 -0.3672 -0.2924
  644SOL    HW1 1931   2.322   2.266   1.152  1.3037 -2.2779 -3.7387
  644SOL    HW2 1932   2.227   2.332   1.293 -2.2674  1.4557  2.0001
  645SOL     OW 1933   0.638   0.875   1.193  0.1078  0.0958 -0.5034
  645SOL    HW1 1934   0.534   0.868   1.187  0.4252 -1.4756 -0.4657
  645SOL    HW2 1935   0.679   0.897   1.102 -0.8566  1.1616  1.9769
  646SOL     OW 1936   1.440   1.921   1.861  0.4953 -0.1562 -0.5245
  646SOL    HW1 1937   1.524   1.980   1.858 -0.8111  1.0839  0.4261
  646SOL    HW2 1938   1.385   1.946   1.948 -1.5871  2.1221 -0.0631
  647SOL     OW 1939   0.829   1.016   0.646  0.5121 -0.2263  0.0253
  647SOL    HW1 1940   0.888   1.044   0.730  0.7457  0.1597  2.7681
  647SOL    HW2 1941   0.752   0.956   0.677  2.0834 -2.2670  1.4476
  648SOL     OW 1942   0.137   0.180   0.243 -0.2277 -0.1564 -0.0627
  648SOL    HW1 1943   0.165   0.120   0.160  0.4353  0.4083  1.2891
  648SOL    HW2 1944   0.150   0.283   0.226 -0.1153  2.6058  0.8302
  649SOL     OW 1945   3.060   0.208   0.903  0.2215 -1.0380  0.2452
  649SOL    HW1 1946   3.151   0.246   0.872 -2.0710  2.5067 -1.6634
  649SOL    HW2 1947   3.019   0.261   0.983  0.2122 -1.9198  1.8220
  650SOL     OW 1948   2.719   0.686   1.434  0.1117  0.4824  0.0891
  650SOL    HW1 1949   2.620   0.658   1.454 -0.4581  0.0945  1.4151
  650SOL    HW2 1950   2.723   0.780   1.385 -4.8510 -1.0656  1.7572
  651SOL     OW 1951   0.951   1.570   1.619 -0.2056  0.2398  0.5594
  651SOL    HW1 1952   0.963   1.662   1.653  0.6962  1.5601 -1.0629
  651SOL    HW2 1953   0.982   1.556   1.521  0.0454  0.8133 -0.3585
  652SOL     OW 1954   2.269   2.503   2.508  0.0235  0.6032 -0.0909
  652SOL    HW1 1955   2.197   2.504   2.577  0.7757 -1.5291 -2.3000
  652SOL    HW2 1956   2.245   2.550   2.417  0.3769 -0.3120 -0.5790
  653SOL     OW 1957   2.729   1.182   0.185  0.1812 -0.3182  0.5689
  653SOL    HW1 1958   2.763   1.268   0.239  2.7089 -0.4161  1.0265
  653SOL    HW2 1959   2.799   1.108   0.175  0.1259  1.1842  2.6140
  654SOL     OW 1960   1.255   2.259   1.232 -0.3422 -0.3704 -0.0165
  654SOL    HW1 1961   1.272   2.186   1.307 -1.2361  1.2958 -0.3823
  654SOL    HW2 1962   1.287   2.222   1.140 -0.9288  0.8245  0.8726
  655SOL     OW 1963   0.220   0.939   1.857 -0.0214 -0.1224  0.0275
  655SOL    HW1 1964   0.249   0.876   1.777 -2.6740 -2.7693 -0.4841
  655SOL    HW2 1965   0.293   1.000   1.898 -0.5911  0.4305 -0.7441
  656SOL     OW 1966   2.540   2.503   2.594 -0.1597 -0.0579 -0.4951
  656SOL    HW1 1967   2.615   2.483   2.527 -1.1005  1.8125  3.9615
  656SOL    HW2 1968   2.450   2.545   2.560 -0.2344 -2.1462 -0.0888
  657SOL     OW 1969   3.071   1.045   1.906  0.7621  0.3497 -0.3131
  657SOL    HW1 1970   3.077   1.139   1.948 -1.5648 -2.0737 -1.8476
  657SOL    HW2 1971   3.168   1.013   1.878  1.1674  0.8612  2.3446
  658SOL     OW 1972   1.702   0.226   2.418 -0.5690  0.1270 -0.4104
  658SOL    HW1 1973   1.748   0.154   2.477  0.7033  0.8184 -3.3465
  658SOL    HW2 1974   1.725   0.215   2.318 -1.2111 -0.6800  1.3156
  659SOL     OW 1975   1.457   0.646   2.929 -0.1583  0.2574 -0.5770
  659SOL    HW1 1976   1.507   0.732   2.955  1.8719 -1.5332 -0.4245
  659SOL    HW2 1977   1.365   0.661   2.882 -0.0156 -0.9162  0.0436
  660SOL     OW 1978   1.439   0.337   1.450  0.0407  0.4086 -0.1406
  660SOL    HW1 1979   1.480   0.363   1.543 -0.2600 -1.7997  1.3891
  660SOL    HW2 1980   1.500   0.286   1.390 -0.3036  3.1178 -1.6248
  661SOL     OW 1981   2.495   1.150   0.670  0.3080  0.0641 -0.0947
  661SOL    HW1 1982   2.506   1.130   0.565 -0.7978 -0.6451 -2.1833
  661SOL    HW2 1983   2.428   1.231   0.685 -1.3847 -1.8009 -0.2288
  662SOL     OW 1984   1.354   0.422   1.837 -0.5829 -0.2830  0.1639
  662SOL    HW1 1985   1.311   0.332   1.808 -0.9016  1.6847 -1.0701
  662SOL    HW2 1986   1.296   0.471   1.905 -0.3030 -1.6139 -1.4543
  663SOL     OW 1987   0.808   1.575   2.144  0.3486  0.0476 -0.2644
  663SOL    HW1 1988   0.756   1.654   2.198  3.0403  3.6459  0.6014
  663SOL    HW2 1989   0.749   1.542   2.065 -1.2599  0.3334 -0.3659
  664SOL     OW 1990   1.633   2.104   1.459  0.0986 -0.4345  0.0799
  664SOL    HW1 1991   1.594   2.030   1.521  0.3286  0.3479 -0.6806
  664SOL    HW2 1992   1.739   2.106   1.454  0.7281  0.5577 -3.0261
  665SOL     OW 1993   2.232   0.666   1.968 -0.2827 -0.2520  1.0242
  665SOL    HW1 1994   2.240   0.572   2.006  1.5569 -0.5701 -1.1166
  665SOL    HW2 1995   2.224   0.736   2.041 -1.3330  0.1141  1.5360
  666SOL     OW 1996   0.405   2.363   0.442  0.5365  0.5713  0.1860
  666SOL    HW1 1997   0.484   2.420   0.473 -1.6658  1.5621 -1.6588
  666SOL    HW2 1998   0.359   2.315   0.519 -1.2161 -1.2772  1.4202
  667SOL     OW 1999   1.990   0.202   1.127 -0.5883 -0.2085 -0.4462
  667SOL    HW1 2000   1.996   0.306   1.123  2.5652 -3.0211  0.8448
  667SOL    HW2 2001   1.917   0.172   1.198 -0.6501 -2.5114 -1.2594
  668SOL     OW 2002   1.998   0.475   1.166 -0.0981  1.2284 -0.4070
  668SOL    HW1 2003   2.056   0.503   1.088  0.5679  0.2960 -0.1029
  668SOL    HW2 2004   2.050   0.450   1.254  0.8628 -2.4377 -0.6271
  669SOL     OW 2005   3.013   2.276   0.989 -0.1102  0.1784 -0.1999
  669SOL    HW1 2006   2.962   2.222   0.914  0.9335 -1.2620 -4.0278
  669SOL    HW2 2007   2.972   2.249   1.082 -0.9292  1.6580  2.0537
  670SOL     OW 2008   2.870   2.353   1.977  0.0497  0.1452  0.3433
  670SOL    HW1 2009   2.808   2.312   2.054  1.4093 -1.6358  3.3051
  670SOL    HW2 2010   2.856   2.457   1.970 -2.0461 -1.4073  1.8699
  671SOL     OW 2011   1.797   1.763   1.455  0.4756  0.7600 -0.0280
  671SOL    HW1 2012   1.844   1.751   1.359 -1.8277  0.9667  0.0800
  671SOL    HW2 2013   1.704   1.720   1.450  0.2467  0.3002 -0.6474
  672SOL     OW 2014   0.387   0.593   2.384  0.2253 -0.3177  0.1907
  672SOL    HW1 2015   0.458   0.629   2.314  2.3983  0.4901 -1.7820
  672SOL    HW2 2016   0.303   0.657   2.393  0.3575 -1.3355  1.4968
  673SOL     OW 2017   0.147   1.180   1.125 -0.1651  0.3076  0.1167
  673SOL    HW1 2018   0.166   1.248   1.203  0.1848  1.9294 -1.8254
  673SOL    HW2 2019   0.234   1.136   1.091  0.2139 -3.2314  1.4899
  674SOL     OW 2020   1.592   2.919   0.193  0.0567 -0.7899 -0.6475
  674SOL    HW1 2021   1.644   2.995   0.145 -1.0153 -0.3323  0.4405
  674SOL    HW2 2022   1.633   2.829   0.169  0.0883  3.6271  1.2725
  675SOL     OW 2023   1.671   0.864   2.276  0.0851 -0.5192 -0.3381
  675SOL    HW1 2024   1.770   0.825   2.265  1.1104  1.5282  1.3139
  675SOL    HW2 2025   1.602   0.792   2.244 -3.7530 -0.1454 -1.0576
  676SOL     OW 2026   2.486   1.533   2.031  0.4356  0.7759 -0.2290
  676SOL    HW1 2027   2.491   1.494   1.936 -1.0729 -1.7132 -1.3609
  676SOL    HW2 2028   2.523   1.462   2.097  0.4177  2.4829 -1.1785
  677SOL     OW 2029   1.909   0.664   0.859 -0.4554 -0.1337  0.7040
  677SOL    HW1 2030   1.966   0.689   0.943  0.1684 -1.0305  0.6394
  677SOL    HW2 2031   1.908   0.562   0.831 -1.4365 -0.5505  2.4791
  678SOL     OW 2032   0.046   0.745   1.658 -0.3565  0.0591  0.1051
  678SOL    HW1 2033   0.149   0.739   1.657  0.8178  1.1623 -0.5763
  678SOL    HW2 2034   0.007   0.749   1.750 -0.1454 -0.6192 -2.3712
  679SOL     OW 2035   2.582   1.157   1.136 -0.5018 -0.1477 -0.2017
  679SOL    HW1 2036   2.488   1.168   1.181 -0.9602  1.4077 -0.6334
  679SOL    HW2 2037   2.579   1.068   1.082 -2.6416 -2.2201  1.0936
  680SOL     OW 2038   2.809   0.635   1.695  0.2107 -0.3159 -0.6745
  680SOL    HW1 2039   2.809   0.659   1.593  2.2866  0.1126 -0.5883
  680SOL    HW2 2040   2.864   0.709   1.748  0.3810  0.9746 -0.0370
  681SOL     OW 2041   2.990   0.126   1.606  0.1574  0.3121  0.0405
  681SOL    HW1 2042   3.058   0.136   1.533 -4.2376 -0.6498  1.2182
  681SOL    HW2 2043   2.927   0.209   1.612  1.0972  0.7692 -2.5113
  682SOL     OW 2044   0.785   0.057   1.324  0.2322  0.8340  0.1755
  682SOL    HW1 2045   0.713  -0.006   1.361  1.7501  3.3126  1.5319
  682SOL    HW2 2046   0.820   0.028   1.229  2.6683 -0.5641  2.3047
  683SOL     OW 2047   1.343   0.226   2.162  0.1784  0.6664 -0.4607
  683SOL    HW1 2048   1.325   0.277   2.253 -2.3891 -0.0134 -0.0376
  683SOL    HW2 2049   1.423   0.266   2.109  1.4086  2.3513  2.8582
  684SOL     OW 2050   1.474   2.174   0.577 -0.4100 -0.0338 -0.3392
  684SOL    HW1 2051   1.541   2.109   0.627  0.8858  1.1648 -1.7669
  684SOL    HW2 2052   1.391   2.120   0.536 -1.3556  1.0601  1.7993
  685SOL     OW 2053   2.196   1.998   1.912  0.6101 -0.0811 -0.1897
  685SOL    HW1 2054   2.246   2.052   1.842 -0.7437 -1.6423 -1.1947
  685SOL    HW2 2055   2.247   1.912   1.949  3.6651  0.2442 -1.1843
  686SOL     OW 2056   1.509   1.767   2.751 -0.3311 -0.2915 -0.8374
  686SOL    HW1 2057   1.512   1.741   2.855  1.8182 -0.9190  1.4085
  686SOL    HW2 2058   1.594   1.723   2.706  2.5190 -0.2752  0.0248
  687SOL     OW 2059   1.274   2.501   1.933  0.1214  0.2708 -0.1267
  687SOL    HW1 2060   1.295   2.403   1.916 -1.1007  4.5771 -1.0591
  687SOL    HW2 2061   1.333   2.546   2.004 -0.0674 -1.0595  0.5737
  688SOL     OW 2062   2.110   1.547   1.733 -0.0134 -0.3219 -0.0973
  688SOL    HW1 2063   2.201   1.598   1.727 -2.3638  0.0536  2.2684
  688SOL    HW2 2064   2.091   1.496   1.647  0.2735 -0.5774  1.2911
  689SOL     OW 2065   2.482   1.091   2.721  0.0214  0.3925  0.0393
  689SOL    HW1 2066   2.378   1.090   2.755 -0.5932 -2.4684 -1.6097
  689SOL    HW2 2067   2.537   1.053   2.802  0.0790 -0.7058  1.8479
  690SOL     OW 2068   2.244   2.780   0.066 -0.8407 -0.9219  0.0674
  690SOL    HW1 2069   2.192   2.754  -0.019 -0.2225 -1.1831 -1.7880
  690SOL    HW2 2070   2.187   2.814   0.148  1.5097  0.1007  2.2606
  691SOL     OW 2071   2.568   0.433   2.114  0.1536 -0.9041 -0.3453
  691SOL    HW1 2072   2.625   0.361   2.069 -0.3269 -0.4982 -0.4241
  691SOL    HW2 2073   2.577   0.529   2.069  0.9501 -1.0920 -0.7812
  692SOL     OW 2074   2.775   1.210   0.712 -0.3745 -0.0975  0.0685
  692SOL    HW1 2075   2.675   1.188   0.698  1.3793 -0.2528 -1.3820
  692SOL    HW2 2076   2.796   1.308   0.736  0.9857  2.4642 -3.6261
  693SOL     OW 2077   2.803   2.967   0.666  0.5445  0.6961  0.5741
  693SOL    HW1 2078   2.812   3.054   0.724  1.9170  2.1261 -0.4598
  693SOL    HW2 2079   2.742   2.980   0.587  1.0879  0.8243  1.6679
  694SOL     OW 2080   2.434   2.227   0.086 -0.1667 -0.0261 -0.1768
  694SOL    HW1 2081   2.391   2.312   0.124 -0.0851  1.7294 -1.2232
  694SOL    HW2 2082   2.365   2.155   0.065  1.9778  0.9246  1.5990
  695SOL     OW 2083   0.636   2.975   1.477  0.0221  0.0014  0.0344
  695SOL    HW1 2084   0.597   2.881   1.446  1.5027  0.0043 -1.9719
  695SOL    HW2 2085   0.588   3.011   1.563  3.5485 -1.7197  1.3587
  696SOL     OW 2086   2.734   1.916   0.734 -0.3139 -0.3668 -0.4821
  696SOL    HW1 2087   2.762   1.852   0.808 -2.1804 -0.5203 -0.2268
  696SOL    HW2 2088   2.677   1.864   0.662 -3.8456  2.2485  1.9584
  697SOL     OW 2089   1.665   2.073   1.860 -0.0921 -0.2369  0.0528
  697SOL    HW1 2090   1.746   2.016   1.889  0.1267  3.2753  2.5548
  697SOL    HW2 2091   1.691   2.173   1.830  0.7825  2.5762 -0.3048
  698SOL     OW 2092   2.951   0.379   2.739 -0.5077 -0.2313 -0.2822
  698SOL    HW1 2093   2.923   0.320   2.658 -0.9510 -1.2449  1.6094
  698SOL    HW2 2094   2.984   0.321   2.823 -1.1026 -2.0005  3.9221
  699SOL     OW 2095   1.546   0.038   2.944 -0.2044  0.2466  0.5977
  699SOL    HW1 2096   1.510  -0.057   2.909  0.3461  0.1824  0.1931
  699SOL    HW2 2097   1.589   0.102   2.874  0.2090 -2.6143  1.4770
  700SOL     OW 2098   0.990   2.329   1.303 -0.3906  0.0422 -0.0240
  700SOL    HW1 2099   1.087   2.291   1.280  0.1514 -3.5342 -1.0370
  700SOL    HW2 2100   0.914   2.294   1.241  1.3700  0.4828  1.0382
  701SOL     OW 2101   1.931   2.830   3.073  0.2622 -0.2469  0.4421
  701SOL    HW1 2102   1.897   2.786   3.162 -0.7402  0.4713  1.1509
  701SOL    HW2 2103   1.927   2.935   3.075  0.8213  1.7884  2.8748
  702SOL     OW 2104   2.084   1.325   1.910 -0.0265  0.1151 -0.0372
  702SOL    HW1 2105   2.158   1.248   1.903  1.2518 -0.8789  0.0334
  702SOL    HW2 2106   2.107   1.401   1.851  1.2565  0.1361  0.6917
  703SOL     OW 2107   1.951   0.865   1.396 -0.5818 -0.7254  0.0052
  703SOL    HW1 2108   1.938   0.772   1.433 -1.3683 -0.7241 -0.2581
  703SOL    HW2 2109   2.000   0.927   1.466 -1.0321 -0.1323  1.0683
  704SOL     OW 2110   0.316   2.058   1.671 -0.3337  0.2108  0.0194
  704SOL    HW1 2111   0.362   1.999   1.744 -0.2594  4.1359 -0.9703
  704SOL    HW2 2112   0.387   2.126   1.635 -0.4338 -1.2649 -5.3956
  705SOL     OW 2113   2.522   1.389   0.942  0.2865  0.4055  0.2894
  705SOL    HW1 2114   2.442   1.380   0.873 -1.1238  0.5280 -2.7481
  705SOL    HW2 2115   2.542   1.300   0.993 -2.3035 -0.1913 -0.4778
  706SOL     OW 2116   0.668   1.750   1.835 -0.0907  0.5135 -0.1993
  706SOL    HW1 2117   0.636   1.654   1.865 -2.9827 -0.1087 -1.0923
  706SOL    HW2 2118   0.732   1.803   1.898 -3.0951 -0.3264 -0.1631
  707SOL     OW 2119   2.229   1.104   1.892 -0.0348 -0.1993 -0.0020
  707SOL    HW1 2120   2.330   1.117   1.918 -0.3709 -2.2399  1.0576
  707SOL    HW2 2121   2.197   1.004   1.879 -2.5879 -3.4339 -1.0755
  708SOL     OW 2122   2.966   0.503   3.043 -0.0359  0.6353 -0.1674
  708SOL    HW1 2123   2.980   0.556   2.957 -0.3644 -1.8498  0.6186
  708SOL    HW2 2124   2.977   0.406   3.022  0.2749  1.6605 -2.2665
  709SOL     OW 2125   1.771   1.898   0.231  0.4155  0.2293  0.8101
  709SOL    HW1 2126   1.830   1.981   0.253 -1.8169 -0.2808 -0.0140
  709SOL    HW2 2127   1.786   1.873   0.133 -0.1308 -0.5457 -0.5005
  710SOL     OW 2128   1.676   1.611   2.421 -0.2825 -0.4383 -0.3463
  710SOL    HW1 2129   1.719   1.622   2.325  3.2038 -0.7176 -1.4341
  710SOL    HW2 2130   1.730   1.545   2.481  1.0912 -2.6454  1.1143
  711SOL     OW 2131   2.623   2.956   0.962  0.3471 -0.3830  0.1692
  711SOL    HW1 2132   2.593   3.053   0.941  0.6002 -1.3867  1.6888
  711SOL    HW2 2133   2.722   2.941   0.983  0.9175 -2.8870 -0.2909
  712SOL     OW 2134   1.397   2.264   1.939  0.5589  0.1525 -0.7659
  712SOL    HW1 2135   1.480   2.249   2.000  1.2769  0.9886  0.4358
  712SOL    HW2 2136   1.423   2.242   1.839  0.8982 -2.1568 -0.7905
  713SOL     OW 2137   2.868   1.503   2.554 -0.6222  0.8520 -0.1822
  713SOL    HW1 2138   2.876   1.409   2.509 -2.1541  0.1496  1.2289
  713SOL    HW2 2139   2.809   1.488   2.635 -1.6739 -2.1500 -1.1629
  714SOL     OW 2140   2.670   0.478   2.355  0.4912  0.0049  0.2136
  714SOL    HW1 2141   2.622   0.436   2.440  2.7852  1.1035  4.3448
  714SOL    HW2 2142   2.610   0.473   2.267 -2.7226  1.0442  0.3063
  715SOL     OW 2143   1.598   2.035   1.193  0.0172 -0.0295 -0.6675
  715SOL    HW1 2144   1.517   2.078   1.141 -0.1679 -0.3598 -4.5323
  715SOL    HW2 2145   1.604   2.079   1.291 -1.8551 -0.6625  0.6187
  716SOL     OW 2146   1.200   0.191   1.511  0.0956  0.5635  0.4109
  716SOL    HW1 2147   1.108   0.227   1.477  1.4910 -0.8627 -1.8099
  716SOL    HW2 2148   1.277   0.249   1.473  0.7620 -0.2273 -0.1759
  717SOL     OW 2149   1.127   0.604   1.629 -0.1192 -0.0774 -0.0235
  717SOL    HW1 2150   1.225   0.616   1.652 -0.3034 -0.5508 -1.1265
  717SOL    HW2 2151   1.098   0.559   1.539 -2.1654  0.5193  1.0887
  718SOL     OW 2152   0.734   0.954   0.961 -0.4580  0.5266  0.1060
  718SOL    HW1 2153   0.682   0.919   0.878  0.8548  4.4861 -0.1018
  718SOL    HW2 2154   0.700   1.040   1.006 -0.2566 -2.6181 -0.4552
  719SOL     OW 2155   0.688   1.814   2.287  0.6820 -0.0216  0.1465
  719SOL    HW1 2156   0.758   1.865   2.340 -3.0435 -1.6378  0.0087
  719SOL    HW2 2157   0.598   1.824   2.331  0.7912 -1.4748 -1.3266
  720SOL     OW 2158   2.176   1.154   0.233  0.4402 -0.1218  0.0968
  720SOL    HW1 2159   2.249   1.087   0.204 -0.0402 -2.1997 -0.1067
  720SOL    HW2 2160   2.173   1.164   0.337 -0.3489 -1.1350 -0.7456
  721SOL     OW 2161   2.294   2.992   2.087  0.1758  0.5072  0.1883
  721SOL    HW1 2162   2.267   3.057   2.012 -0.8015 -1.7830 -0.0988
  721SOL    HW2 2163   2.256   3.014   2.183  1.3281  0.1615  2.1232
  722SOL     OW 2164   2.374   1.605   0.594 -0.1659  0.0753 -0.2715
  722SOL    HW1 2165   2.417   1.593   0.501 -1.7617 -0.5033  1.9304
  722SOL    HW2 2166   2.357   1.704   0.621  1.7183 -0.6480  1.9116
  723SOL     OW 2167   2.543   2.677   2.014  0.6282  0.2869 -0.3850
  723SOL    HW1 2168   2.574   2.756   2.077 -0.5896 -0.4863  0.1291
  723SOL    HW2 2169   2.439   2.672   2.021 -1.0882  0.6633  0.1403
  724SOL     OW 2170   0.537   2.468   2.426 -0.1470  0.0655  0.1920
  724SOL    HW1 2171   0.435   2.452   2.448  0.6913  1.5175 -1.1066
  724SOL    HW2 2172   0.584   2.533   2.500  0.4553  0.8550 -0.6984
  725SOL     OW 2173   2.431   2.777   1.526  0.1047 -0.3196  0.0639
  725SOL    HW1 2174   2.480   2.754   1.442 -0.0998  0.4413  2.1345
  725SOL    HW2 2175   2.375   2.698   1.563  2.0359  0.1732  1.5260
  726SOL     OW 2176   2.375   2.224   0.687 -0.4273  0.4128 -0.2228
  726SOL    HW1 2177   2.376   2.327   0.663  1.2866 -0.6408  0.3704
  726SOL    HW2 2178   2.409   2.167   0.611  1.1483 -2.4282 -0.3435
  727SOL     OW 2179   0.159   3.079   0.052  0.0168  0.1871  0.0037
  727SOL    HW1 2180   0.243   3.019   0.056  1.6859 -0.6320  0.3976
  727SOL    HW2 2181   0.112   3.071  -0.042  1.2734  0.2388 -1.2624
  728SOL     OW 2182   2.872   0.662   0.971  0.1814 -0.2418 -0.1391
  728SOL    HW1 2183   2.801   0.648   0.898 -1.2102 -0.0278  2.4644
  728SOL    HW2 2184   2.853   0.613   1.061 -2.3934 -0.0630 -3.1281
  729SOL     OW 2185   2.966   2.478   0.748  0.2573 -0.8376 -0.1160
  729SOL    HW1 2186   2.916   2.392   0.752  0.2918 -0.0615 -1.6534
  729SOL    HW2 2187   3.067   2.461   0.749 -3.9913 -3.2420  1.9565
  730SOL     OW 2188   2.607   0.621   0.865 -0.3169 -0.2974  0.3441
  730SOL    HW1 2189   2.554   0.704   0.821 -0.5881  5.1041 -0.8699
  730SOL    HW2 2190   2.676   0.587   0.790  0.9493 -0.8265 -1.5611
  731SOL     OW 2191   0.126   2.141   2.433 -0.3519 -0.3619 -0.0958
  731SOL    HW1 2192   0.121   2.169   2.534  0.2351 -2.3771  2.5649
  731SOL    HW2 2193   0.091   2.217   2.367 -0.2849  0.2891 -1.0837
  732SOL     OW 2194   1.089   2.885   1.915  0.2033  0.1844 -0.2257
  732SOL    HW1 2195   1.132   2.841   1.999 -1.4432  2.4276  0.9327
  732SOL    HW2 2196   1.130   2.844   1.829 -0.8972 -0.2202 -1.1431
  733SOL     OW 2197   3.059   0.624   2.204  0.6234  0.6556 -0.6007
  733SOL    HW1 2198   3.151   0.647   2.161 -3.9279  1.9438  0.4330
  733SOL    HW2 2199   2.986   0.576   2.140 -0.7008 -2.4100  0.3571
  734SOL     OW 2200   1.417   0.393   2.758 -0.3953  0.1202  0.3892
  734SOL    HW1 2201   1.432   0.488   2.799  0.6253  1.7966  0.4425
  734SOL    HW2 2202   1.326   0.351   2.778  2.1365 -0.0346  1.5192
  735SOL     OW 2203   2.924   2.601   2.240  0.3061 -0.3744  0.4149
  735SOL    HW1 2204   2.912   2.620   2.138  1.3797  0.7356  0.6754
  735SOL    HW2 2205   3.006   2.543   2.255 -1.7899  2.0437  0.5629
  736SOL     OW 2206   0.721   0.331   2.665 -0.7522  0.5871  0.0490
  736SOL    HW1 2207   0.624   0.360   2.647 -0.3438  2.3069 -2.5294
  736SOL    HW2 2208   0.768   0.282   2.581  0.4159 -2.4410 -4.8941
  737SOL     OW 2209   2.658   0.389   2.858  0.0886  0.3874 -0.5301
  737SOL    HW1 2210   2.616   0.386   2.956 -0.0632  2.4120 -1.4069
  737SOL    HW2 2211   2.733   0.319   2.839 -2.5575 -0.4816 -0.5739
  738SOL     OW 2212   1.606   1.235   2.910 -0.7015  0.2187 -0.1297
  738SOL    HW1 2213   1.708   1.206   2.919  2.9773 -0.5932 -0.2339
  738SOL    HW2 2214   1.546   1.174   2.849  0.0484 -1.5682 -0.5487
  739SOL     OW 2215   1.706   0.604   0.650 -0.3460  0.6182 -0.6542
  739SOL    HW1 2216   1.737   0.591   0.749 -0.3289 -0.5482  0.6641
  739SOL    HW2 2217   1.765   0.552   0.583 -0.5822  2.2440 -0.3685
  740SOL     OW 2218   1.951   1.922   2.320 -0.5062 -0.1055  0.4796
  740SOL    HW1 2219   1.988   1.835   2.351 -0.1122 -0.9562 -1.9392
  740SOL    HW2 2220   1.880   1.904   2.243  0.7578  2.1024  1.6134
  741SOL     OW 2221   2.527   0.070   2.616  0.1484  0.4223 -0.0225
  741SOL    HW1 2222   2.629   0.049   2.625  0.6383 -1.0094  3.9701
  741SOL    HW2 2223   2.487   0.029   2.532 -0.0877  1.8675  1.4590
  742SOL     OW 2224   2.220   1.432   0.186  0.1587 -0.7570 -0.2166
  742SOL    HW1 2225   2.150   1.503   0.219 -0.2900  1.4643  1.4580
  742SOL    HW2 2226   2.192   1.334   0.211  2.5760 -2.2628 -0.0858
  743SOL     OW 2227   1.847   0.661   2.602 -0.3103 -0.0045 -0.4356
  743SOL    HW1 2228   1.804   0.617   2.516 -1.2345  0.8623  0.7972
  743SOL    HW2 2229   1.784   0.733   2.639 -1.5322  1.2923  0.6282
  744SOL     OW 2230   2.691   2.113   0.076  0.1506  0.5766  0.1636
  744SOL    HW1 2231   2.610   2.174   0.089  0.5247  2.4396  1.0230
  744SOL    HW2 2232   2.650   2.021   0.040  2.1578 -3.3385 -0.5380
  745SOL     OW 2233   2.165   2.656   2.293 -0.1568  0.5547  0.1638
  745SOL    HW1 2234   2.074   2.656   2.242  1.6055 -1.7430  0.5283
  745SOL    HW2 2235   2.193   2.739   2.343 -1.4305 -0.7401 -2.4841
  746SOL     OW 2236   3.074   2.629   1.733  0.0951  0.0008  0.5003
  746SOL    HW1 2237   3.144   2.657   1.661  0.6315 -1.0642  0.7079
  746SOL    HW2 2238   3.038   2.706   1.794 -0.0557  1.8277 -0.5111
  747SOL     OW 2239   0.009   1.785   1.626  0.3958  0.0751 -0.0693
  747SOL    HW1 2240  -0.035   1.701   1.577 -0.1388  0.6507 -0.0576
  747SOL    HW2 2241   0.078   1.833   1.569  2.8714 -2.4269 -0.4030
  748SOL     OW 2242   1.868   2.752   2.837  0.4089  0.4450  0.3873
  748SOL    HW1 2243   1.858   2.787   2.936 -4.2798 -1.7126  2.5278
  748SOL    HW2 2244   1.774   2.715   2.809 -1.5559  1.5374  1.5119
  749SOL     OW 2245   1.313   3.081   0.877  0.3474  0.1266  0.0210
  749SOL    HW1 2246   1.278   2.992   0.916  0.2648  1.6544 -3.2513
  749SOL    HW2 2247   1.265   3.092   0.786  1.1765  0.8734 -1.1362
  750SOL     OW 2248   2.406   0.241   1.890 -0.7366 -0.3939 -0.2236
  750SOL    HW1 2249   2.407   0.291   1.798 -0.0700  0.2873 -0.6034
  750SOL    HW2 2250   2.352   0.297   1.957  2.8592  1.2554 -1.0056
  751SOL     OW 2251   0.943   2.170   2.724 -0.0643 -0.2208  0.6242
  751SOL    HW1 2252   0.930   2.194   2.824 -1.0594 -1.4923  1.5492
  751SOL    HW2 2253   0.858   2.157   2.669  1.5468  1.3181 -0.8994
  752SOL     OW 2254   1.238   0.875   1.480 -0.4971 -0.0995  0.7410
  752SOL    HW1 2255   1.325   0.930   1.456 -0.2022 -3.0589  1.0642
  752SOL    HW2 2256   1.272   0.790   1.529  1.4703  1.5289  0.3108
  753SOL     OW 2257   0.952   2.579   1.695 -0.2946  0.0180 -0.2842
  753SOL    HW1 2258   1.054   2.605   1.707  3.0744 -0.1640 -0.7370
  753SOL    HW2 2259   0.883   2.653   1.662 -0.2914  0.2123  0.0442
  754SOL     OW 2260   1.210   1.321   3.102  0.2858 -0.0565 -0.2273
  754SOL    HW1 2261   1.217   1.254   3.023  1.6039 -2.0563  1.2823
  754SOL    HW2 2262   1.198   1.421   3.068 -0.0283  2.3806 -0.7730
  755SOL     OW 2263   1.955   0.425   2.204 -0.4544  0.2262  0.5205
  755SOL    HW1 2264   2.055   0.436   2.231  1.1050  1.0725 -0.7997
  755SOL    HW2 2265   1.895   0.462   2.282 -1.6130 -3.4534  0.6415
  756SOL     OW 2266   2.595   0.973   2.940  0.8654 -0.0933  0.0563
  756SOL    HW1 2267   2.698   0.972   2.961 -3.2675 -0.4438  1.7290
  756SOL    HW2 2268   2.543   0.903   3.000  0.5240 -3.8555 -2.2039
  757SOL     OW 2269   3.064   0.442   1.800 -0.6750  0.4960  0.0111
  757SOL    HW1 2270   3.145   0.508   1.806 -0.0315  1.3037 -0.4877
  757SOL    HW2 2271   3.045   0.404   1.707 -0.4910 -0.8969 -2.0203
  758SOL     OW 2272   2.393   0.114   1.415  0.1008  0.2507  0.4824
  758SOL    HW1 2273   2.344   0.053   1.484  0.9802 -0.9422  2.2329
  758SOL    HW2 2274   2.381   0.089   1.312  0.4303 -1.7536 -3.8762
  759SOL     OW 2275   1.706   0.037   0.060 -0.7196 -0.3066 -0.6081
  759SOL    HW1 2276   1.643   0.023  -0.021 -0.8345  1.6297 -1.9275
  759SOL    HW2 2277   1.807   0.050   0.030  0.3169  0.6487  1.9985
  760SOL     OW 2278   2.748   2.076   2.824 -0.0811  0.2959  0.0371
  760SOL    HW1 2279   2.822   2.007   2.857  3.6788 -0.3312 -1.6865
  760SOL    HW2 2280   2.738   2.154   2.894  0.0422 -0.6694  1.1881
  761SOL     OW 2281   1.927   1.766   1.691  0.6655 -0.3255 -0.4236
  761SOL    HW1 2282   1.963   1.677   1.728 -0.8188  2.1735 -0.7518
  761SOL    HW2 2283   1.868   1.752   1.603  0.7007 -0.3412  1.0206
  762SOL     OW 2284   0.459   2.322   0.981  0.2432  0.6949 -0.1962
  762SOL    HW1 2285   0.509   2.324   0.890  0.3471  1.4313 -0.3523
  762SOL    HW2 2286   0.515   2.384   1.042 -1.0879  1.3903 -3.4485
  763SOL     OW 2287   2.098   1.519   2.951  0.3276  0.2168  0.6112
  763SOL    HW1 2288   2.186   1.472   2.973 -0.2335 -0.3019  2.2202
  763SOL    HW2 2289   2.018   1.496   3.010 -0.9445  0.8704 -1.1364
  764SOL     OW 2290   0.652   0.601   0.830  0.6572 -0.4200  0.5382
  764SOL    HW1 2291   0.583   0.531   0.794 -1.3863  1.2011  1.7719
  764SOL    HW2 2292   0.743   0.557   0.850  1.0706 -2.1133 -0.7525
  765SOL     OW 2293   0.721   0.230   0.820 -0.3616 -0.5202  0.5775
  765SOL    HW1 2294   0.780   0.282   0.747  0.5062 -0.5812  1.5650
  765SOL    HW2 2295   0.707   0.275   0.913  0.6975 -0.5390  1.0419
  766SOL     OW 2296   2.960   2.094   3.083  0.0908 -0.3865  0.2136
  766SOL    HW1 2297   2.865   2.097   3.122  2.2145  1.6428 -0.7858
  766SOL    HW2 2298   2.997   2.190   3.062  0.2547  0.7526 -2.2944
  767SOL     OW 2299   2.850   1.560   0.542  0.4650  0.3891  0.0057
  767SOL    HW1 2300   2.811   1.565   0.638 -0.3412  0.2594  0.5718
  767SOL    HW2 2301   2.918   1.637   0.528 -1.9800 -1.8505  0.8900
  768SOL     OW 2302   1.090   0.209   0.340 -0.5847  0.7491  0.4149
  768SOL    HW1 2303   1.023   0.149   0.388 -3.6256  0.5678 -1.4885
  768SOL    HW2 2304   1.170   0.149   0.298  0.7888 -1.1650  0.8083
  769SOL     OW 2305   1.106   1.894   2.234  0.7379  0.5273  0.3424
  769SOL    HW1 2306   1.023   1.903   2.292  1.5916 -2.6184  2.5981
  769SOL    HW2 2307   1.118   1.798   2.210 -2.4274 -0.6705  0.5939
  770SOL     OW 2308   0.136   1.237   2.226 -0.6032  0.5962  0.3131
  770SOL    HW1 2309   0.131   1.232   2.331 -2.4043  0.8664  1.4353
  770SOL    HW2 2310   0.046   1.219   2.184  2.4483  1.3699  0.5638
  771SOL     OW 2311   2.937   2.837   1.881  0.0920 -0.0256 -0.1695
  771SOL    HW1 2312   2.898   2.907   1.820 -1.5014 -3.3814  1.0915
  771SOL    HW2 2313   2.925   2.854   1.983  0.3538 -1.9288  0.8309
  772SOL     OW 2314   2.178   0.104   2.966 -0.3077 -0.2785 -0.0519
  772SOL    HW1 2315   2.263   0.052   2.947  0.1707  1.1727  0.9787
  772SOL    HW2 2316   2.191   0.203   3.001  0.0685  2.0808  1.0230
  773SOL     OW 2317   0.729   2.172   2.508  0.1802 -0.8052  0.2194
  773SOL    HW1 2318   0.695   2.225   2.423  0.1248 -0.7174 -3.2287
  773SOL    HW2 2319   0.649   2.138   2.567 -1.0326 -1.1811 -0.9455
  774SOL     OW 2320   2.024   0.038   2.664 -0.0732 -0.3183  0.2752
  774SOL    HW1 2321   2.056   0.132   2.681  0.7841 -3.4675 -0.2883
  774SOL    HW2 2322   2.072  -0.034   2.728  2.3107  0.8451 -1.5238
  775SOL     OW 2323   2.533   2.800   2.471 -0.0873 -0.2336  0.6139
  775SOL    HW1 2324   2.499   2.896   2.458  0.2211  1.6553  0.9576
  775SOL    HW2 2325   2.636   2.791   2.480  0.0581 -0.4463 -1.5850
  776SOL     OW 2326   0.064   1.262   0.223  0.1205  0.0251  0.3032
  776SOL    HW1 2327   0.015   1.244   0.130  1.1843  1.9661 -1.0637
  776SOL    HW2 2328   0.005   1.225   0.302  2.4218  1.1540 -1.0306
  777SOL     OW 2329   0.250   2.822   0.476  0.1354 -0.8440  0.1886
  777SOL    HW1 2330   0.147   2.818   0.457 -0.1427 -0.0702 -4.7750
  777SOL    HW2 2331   0.276   2.904   0.531 -2.7443 -1.2843  1.4515
  778SOL     OW 2332   1.360   1.954   0.156  0.1285  0.2341 -0.0535
  778SOL    HW1 2333   1.295   1.943   0.234  1.1127  1.4832 -1.1322
  778SOL    HW2 2334   1.392   2.053   0.137  0.4900 -0.2572 -2.3411
  779SOL     OW 2335   0.185   0.826   0.494  0.0765 -0.5920 -0.1469
  779SOL    HW1 2336   0.142   0.730   0.492  0.8697 -2.4793 -1.1975
  779SOL    HW2 2337   0.145   0.887   0.567  1.0746  0.0151  0.2651
  780SOL     OW 2338   0.047   0.252   2.248  0.1151  0.5736  0.7251
  780SOL    HW1 2339   0.013   0.341   2.286 -2.3221 -2.6858  1.4736
  780SOL    HW2 2340   0.143   0.253   2.210 -1.7446  1.1543  0.3442
  781SOL     OW 2341   0.657   1.734   1.564  0.3148 -0.0251 -0.2077
  781SOL    HW1 2342   0.678   1.755   1.666 -1.2214  0.5388  2.4774
  781SOL    HW2 2343   0.586   1.662   1.554  1.8168 -1.4403  3.7455
  782SOL     OW 2344   2.578   0.137   0.911 -0.0807  0.2802 -0.2651
  782SOL    HW1 2345   2.518   0.145   0.826  0.2103  2.1521 -1.6315
  782SOL    HW2 2346   2.535   0.191   0.991  0.3081  0.7154  0.8080
  783SOL     OW 2347   2.820   0.661   2.516 -0.4860 -0.4398  0.0680
  783SOL    HW1 2348   2.762   0.666   2.603  1.7207 -0.0693 -0.0115
  783SOL    HW2 2349   2.774   0.601   2.440  2.0218 -2.5138 -1.2440
  784SOL     OW 2350   1.384   2.211   0.050 -0.2195  0.1394 -0.0802
  784SOL    HW1 2351   1.460   2.271   0.091 -0.6213  2.2044  1.9549
  784SOL    HW2 2352   1.372   2.222  -0.052  0.2491  0.6136 -2.1116
  785SOL     OW 2353   2.180   0.359   3.070  0.2625  0.2832  0.4454
  785SOL    HW1 2354   2.103   0.360   3.136  0.9838  1.7754 -0.4786
  785SOL    HW2 2355   2.202   0.450   3.027 -1.5569 -1.7281  0.5523
  786SOL     OW 2356   2.046   2.175   2.197  0.0941 -0.5269 -0.0721
  786SOL    HW1 2357   2.046   2.109   2.280 -0.1576  0.4885  1.2749
  786SOL    HW2 2358   2.125   2.153   2.132  3.7281 -1.1410 -1.8766
  787SOL     OW 2359   1.419   0.616   0.887  0.0443 -0.1831 -0.2756
  787SOL    HW1 2360   1.348   0.685   0.916 -1.1572  0.5726 -0.2892
  787SOL    HW2 2361   1.411   0.594   0.787 -0.0804 -0.5330 -0.0531
  788SOL     OW 2362   1.221   0.428   3.039 -0.0386 -0.4975 -0.0839
  788SOL    HW1 2363   1.143   0.448   2.974 -1.2252  2.2834 -3.5280
  788SOL    HW2 2364   1.295   0.504   3.044 -0.2098  0.6761 -2.3437
  789SOL     OW 2365   2.592   0.068   1.810 -0.0590 -0.1584  0.1595
  789SOL    HW1 2366   2.522   0.124   1.863 -0.8531  3.4298 -1.6282
  789SOL    HW2 2367   2.572  -0.035   1.808  2.3605  3.8076  1.2472
  790SOL     OW 2368   2.575   2.706   0.873 -0.4085 -0.2736 -0.1463
  790SOL    HW1 2369   2.599   2.798   0.916  0.2561  1.1928  3.1364
  790SOL    HW2 2370   2.661   2.650   0.841  0.2964 -3.1050 -0.6110
  791SOL     OW 2371   1.908   1.272   0.252 -0.0543 -0.1354  0.0655
  791SOL    HW1 2372   1.820   1.215   0.266 -0.5733  0.0434 -1.6936
  791SOL    HW2 2373   1.990   1.206   0.235  1.5948 -0.0945  1.7888
  792SOL     OW 2374   0.458   2.007   2.143 -0.2241  0.1402 -0.0677
  792SOL    HW1 2375   0.484   2.106   2.150  0.3956 -1.1433 -0.1686
  792SOL    HW2 2376   0.390   1.966   2.215 -0.5814  0.0400 -2.1551
  793SOL     OW 2377   2.096   1.567   2.095  0.0392 -0.2370  0.2364
  793SOL    HW1 2378   2.168   1.613   2.038 -0.7419 -0.3958 -0.0922
  793SOL    HW2 2379   2.078   1.470   2.058 -0.0195  2.7733 -0.4877
  794SOL     OW 2380   0.462   1.387   2.489 -0.3206  0.0453  0.1809
  794SOL    HW1 2381   0.490   1.352   2.396 -0.7661  1.8926  1.0841
  794SOL    HW2 2382   0.416   1.480   2.482 -0.7977 -2.7777  0.9453
  795SOL     OW 2383   2.478   2.368   1.780 -0.0081  0.2221  0.4181
  795SOL    HW1 2384   2.501   2.384   1.878 -0.2582 -0.2531 -1.1721
  795SOL    HW2 2385   2.393   2.314   1.770  1.4391 -2.5238 -0.3469
  796SOL     OW 2386   3.074   1.086   2.704  0.2509 -0.2284 -0.2864
  796SOL    HW1 2387   2.971   1.092   2.730  0.9005  3.0157  2.1334
  796SOL    HW2 2388   3.132   1.121   2.787 -0.5316  0.7418  1.1135
  797SOL     OW 2389   0.748   0.652   1.333  0.7602  0.7808  0.1008
  797SOL    HW1 2390   0.824   0.701   1.390  2.9338 -0.2600  1.2404
  797SOL    HW2 2391   0.690   0.718   1.276  0.8755 -0.6022 -1.4873
  798SOL     OW 2392   1.341   0.433   1.091  0.0252 -0.0391 -0.4334
  798SOL    HW1 2393   1.340   0.490   1.172 -1.8829  1.2158 -1.8215
  798SOL    HW2 2394   1.384   0.486   1.009  1.6309  1.6007  0.8495
  799SOL     OW 2395   1.945   2.656   1.048  0.2917  1.2802 -0.1145
  799SOL    HW1 2396   1.901   2.568   1.079  2.0837 -3.9108  0.6589
  799SOL    HW2 2397   1.959   2.669   0.947 -2.1294  1.5313 -0.3730
  800SOL     OW 2398   2.911   0.836   1.843  0.2383 -0.2261  0.3372
  800SOL    HW1 2399   2.972   0.921   1.849  1.0509 -1.5502 -0.2258
  800SOL    HW2 2400   2.824   0.834   1.899 -1.4292  1.9038 -0.0352
  801SOL     OW 2401   1.983   2.171   0.044 -0.5364 -0.3950  0.2114
  801SOL    HW1 2402   1.901   2.163  -0.015  1.0527  0.8716  2.0139
  801SOL    HW2 2403   2.078   2.160  -0.003  1.2537 -0.5222 -0.6645
  802SOL     OW 2404   0.674   0.784   2.538  0.3772 -0.7374 -0.4094
  802SOL    HW1 2405   0.728   0.754   2.452 -0.5329  2.9546 -0.0917
  802SOL    HW2 2406   0.572   0.792   2.524  0.6528 -2.6578 -0.2919
  803SOL     OW 2407   0.950   0.084   0.893 -0.2114  0.5855 -0.1810
  803SOL    HW1 2408   1.039   0.138   0.902 -1.0337  1.9539  0.6578
  803SOL    HW2 2409   0.874   0.147   0.866 -2.0373 -3.1613 -0.3367
  804SOL     OW 2410   0.308   3.050   2.199 -0.2341 -0.5505  0.1825
  804SOL    HW1 2411   0.300   3.154   2.178  0.2843  0.5363  0.5926
  804SOL    HW2 2412   0.242   2.989   2.144  0.8063 -0.8466 -1.9728
  805SOL     OW 2413   2.334   0.411   0.313 -0.0507  0.2263 -0.3720
  805SOL    HW1 2414   2.401   0.392   0.384 -2.5560  1.3907 -1.0064
  805SOL    HW2 2415   2.328   0.335   0.241 -0.7758  0.6138  1.4758
  806SOL     OW 2416   0.700   2.437   1.815 -0.1053  0.1507 -0.3418
  806SOL    HW1 2417   0.654   2.532   1.810  0.0053  0.2377  0.4374
  806SOL    HW2 2418   0.801   2.440   1.790 -0.2924  2.2806  3.3373
  807SOL     OW 2419   2.524   0.886   0.449  0.4052  0.8214 -0.1140
  807SOL    HW1 2420   2.626   0.895   0.479  0.8911 -2.2646 -0.7696
  807SOL    HW2 2421   2.493   0.922   0.356 -2.2641  1.5816 -2.7855
  808SOL     OW 2422   0.670   2.062   2.938  0.1433 -0.6541 -0.2693
  808SOL    HW1 2423   0.619   2.107   3.010  0.6011 -2.1445 -1.7589
  808SOL    HW2 2424   0.675   1.959   2.949 -1.2712  0.8428 -0.9261
  809SOL     OW 2425   2.573   1.986   1.864 -0.1583  0.6054  0.1003
  809SOL    HW1 2426   2.675   2.001   1.870 -1.1667  1.1029 -1.6759
  809SOL    HW2 2427   2.532   1.974   1.770  0.5744 -2.2637 -1.9264
  810SOL     OW 2428   2.192   1.141   0.501 -0.0830 -0.1867 -0.4029
  810SOL    HW1 2429   2.191   1.060   0.559 -0.5339 -0.4646 -0.0013
  810SOL    HW2 2430   2.154   1.223   0.546 -1.1563 -1.8969 -0.9975
  811SOL     OW 2431   1.401   2.525   1.197  0.0069  0.1636 -0.0139
  811SOL    HW1 2432   1.345   2.441   1.223 -0.0779  0.9541 -1.2742
  811SOL    HW2 2433   1.388   2.606   1.264  1.6140  0.9106 -2.0111
  812SOL     OW 2434   1.415   0.740   1.982  0.2455  0.6496  0.0136
  812SOL    HW1 2435   1.326   0.745   2.034 -2.3004 -2.5249 -0.5443
  812SOL    HW2 2436   1.443   0.833   1.952 -0.4315  0.1563 -0.7556
  813SOL     OW 2437   1.622   2.075   2.452 -0.3868 -0.1836 -0.3068
  813SOL    HW1 2438   1.682   1.995   2.484 -1.0374 -0.9062 -1.3023
  813SOL    HW2 2439   1.580   2.059   2.360  1.2641  3.1275 -1.5089
  814SOL     OW 2440   2.967   1.575   2.853  0.5513  0.7527 -0.4687
  814SOL    HW1 2441   3.046   1.581   2.923 -1.1050  0.3780 -0.4984
  814SOL    HW2 2442   2.962   1.656   2.792  1.0499 -1.4320  1.8910
  815SOL     OW 2443   2.189   2.938   2.799 -0.2134 -0.9902 -0.6109
  815SOL    HW1 2444   2.153   2.861   2.849  2.6088 -0.6214 -0.1911
  815SOL    HW2 2445   2.284   2.966   2.830 -0.5218  1.5671 -3.3753
  816SOL     OW 2446   1.593   0.374   1.683  0.6344 -0.0808 -0.3942
  816SOL    HW1 2447   1.634   0.279   1.692  1.3549 -0.0582  1.4245
  816SOL    HW2 2448   1.521   0.391   1.754 -0.3803 -1.6544  2.1254
  817SOL     OW 2449   0.372   1.191   2.652  0.6360  0.9358  0.1747
  817SOL    HW1 2450   0.281   1.210   2.698  0.3550 -1.2583 -1.4134
  817SOL    HW2 2451   0.403   1.267   2.592  0.2056 -2.6653 -1.6023
  818SOL     OW 2452   1.951   0.835   0.421 -0.3502 -0.0818  0.5483
  818SOL    HW1 2453   2.053   0.825   0.425 -0.2445 -0.7608  0.3187
  818SOL    HW2 2454   1.921   0.905   0.495 -0.2889 -0.0379  2.4359
  819SOL     OW 2455   2.760   2.942   0.014 -0.0491 -0.2598  0.6653
  819SOL    HW1 2456   2.839   2.892   0.065  1.0171  0.1967  0.6267
  819SOL    HW2 2457   2.724   2.883  -0.067  0.1289  0.6132 -0.0682
  820SOL     OW 2458   1.232   1.050   0.540 -0.0091  0.2865 -0.2155
  820SOL    HW1 2459   1.240   1.149   0.564 -0.9090 -2.2716 -2.8729
  820SOL    HW2 2460   1.244   0.985   0.622  2.6349 -0.9598 -1.1822
  821SOL     OW 2461   0.036   1.270   0.713 -0.0148 -0.0649  0.2283
  821SOL    HW1 2462   0.004   1.253   0.809  0.4939 -2.4335 -1.1101
  821SOL    HW2 2463   0.099   1.350   0.707  0.2488  2.7711 -1.9653
  822SOL     OW 2464   2.560   1.818   2.449 -0.4344  0.0267 -0.0260
  822SOL    HW1 2465   2.544   1.884   2.527 -0.7568 -0.5938 -1.7029
  822SOL    HW2 2466   2.481   1.817   2.380 -0.6265 -1.0105  0.7773
  823SOL     OW 2467   2.031   0.885   1.123  0.5909  0.3887 -0.2545
  823SOL    HW1 2468   2.006   0.887   1.224  0.7691  1.1656  2.0188
  823SOL    HW2 2469   1.954   0.929   1.067  0.1045 -2.8127  1.9343
  824SOL     OW 2470   0.205   1.971   2.818  0.1693 -0.2524  0.0945
  824SOL    HW1 2471   0.227   1.894   2.892  3.7331 -1.5734 -0.1879
  824SOL    HW2 2472   0.240   1.936   2.726  1.3272 -1.5264  1.3518
  825SOL     OW 2473   1.319   1.040   0.280  0.1758  0.2519 -0.3715
  825SOL    HW1 2474   1.338   1.141   0.262 -1.8455 -2.3820  0.8926
  825SOL    HW2 2475   1.269   1.032   0.372 -1.4542  0.7175 -0.3070
  826SOL     OW 2476   1.937   0.644   1.583 -0.4671  0.0755  0.4661
  826SOL    HW1 2477   2.020   0.591   1.612 -0.5155 -2.0422 -0.7911
  826SOL    HW2 2478   1.865   0.579   1.544 -1.7178  0.8873 -0.2179
  827SOL     OW 2479   0.661   1.223   0.298 -0.6050  0.3774  0.1576
  827SOL    HW1 2480   0.703   1.197   0.206  0.1999  1.0301 -2.2565
  827SOL    HW2 2481   0.604   1.146   0.337 -1.2709 -2.0241 -0.7528
  828SOL     OW 2482   2.639   0.099   1.515  0.0306  0.4315 -0.3737
  828SOL    HW1 2483   2.548   0.110   1.468 -0.1595 -0.4029  0.4995
  828SOL    HW2 2484   2.622   0.080   1.616  0.5734 -0.9142  1.1558
  829SOL     OW 2485   2.939   2.402   2.843  0.6002 -0.8137 -0.3142
  829SOL    HW1 2486   2.846   2.406   2.891 -0.5955 -2.1804 -0.6551
  829SOL    HW2 2487   2.984   2.493   2.828  3.7765 -1.0235 -0.7064
  830SOL     OW 2488   2.829   1.008   3.035  0.4879 -0.1573 -0.1797
  830SOL    HW1 2489   2.917   1.061   3.047  1.3690 -1.0483  1.0505
  830SOL    HW2 2490   2.825   0.930   3.107  1.7707 -0.5791  2.6119
  831SOL     OW 2491   0.107   0.574   0.428 -0.9209 -0.4286  0.3997
  831SOL    HW1 2492   0.067   0.510   0.499  0.2104 -1.8657 -0.8627
  831SOL    HW2 2493   0.112   0.524   0.336 -0.3505 -0.7870  0.2069
  832SOL     OW 2494   1.836   0.784   3.019 -0.2318  0.0050  0.2214
  832SOL    HW1 2495   1.750   0.835   2.999  0.4444  1.2819  1.3518
  832SOL    HW2 2496   1.831   0.679   3.018  0.3434 -1.0155  1.6195
  833SOL     OW 2497   2.427   2.063   0.450 -0.0159 -0.1903  0.0218
  833SOL    HW1 2498   2.323   2.059   0.460 -0.3015  1.4395 -0.3280
  833SOL    HW2 2499   2.467   1.965   0.455 -1.0076  2.3188 -0.9814
  834SOL     OW 2500   0.123   0.136   0.509  0.0127 -0.7916  0.1909
  834SOL    HW1 2501   0.158   0.038   0.531  1.8992 -0.8645  1.3215
  834SOL    HW2 2502   0.123   0.158   0.406 -0.2199 -0.1198  2.1261
  835SOL     OW 2503   2.397   1.506   1.161  0.4335 -0.2815 -0.4275
  835SOL    HW1 2504   2.430   1.604   1.187 -0.1704  1.9520  3.0240
  835SOL    HW2 2505   2.438   1.464   1.076 -0.3911 -1.5531 -1.1217
  836SOL     OW 2506   1.625   0.882   2.585  0.0962 -0.2418 -0.0683
  836SOL    HW1 2507   1.535   0.830   2.593  1.4134  0.3673 -1.8285
  836SOL    HW2 2508   1.649   0.898   2.486 -0.6408 -0.0465  0.7085
  837SOL     OW 2509   1.627   0.067   0.565  0.3058 -0.2981  0.2747
  837SOL    HW1 2510   1.577   0.125   0.635 -1.5012 -2.8650 -1.1502
  837SOL    HW2 2511   1.611   0.107   0.469 -2.4898 -1.0065 -1.6343
  838SOL     OW 2512   1.231   1.394   2.785 -0.0040 -0.5093  0.1681
  838SOL    HW1 2513   1.207   1.459   2.864  0.9351 -0.7704  0.3362
  838SOL    HW2 2514   1.152   1.350   2.732 -0.2523  1.4144 -3.6463
  839SOL     OW 2515   1.651   0.322   0.992 -0.4411  0.7262 -0.1869
  839SOL    HW1 2516   1.651   0.384   1.076  0.6444 -1.2413 -0.2810
  839SOL    HW2 2517   1.634   0.222   1.021  0.1481  0.7829  1.3842
  840SOL     OW 2518   2.535   2.880   1.773  0.4891  0.4627  0.3765
  840SOL    HW1 2519   2.519   2.837   1.682 -0.4585  0.0957  0.2451
  840SOL    HW2 2520   2.519   2.815   1.848 -1.5834  1.4222 -0.1041
  841SOL     OW 2521   1.579   0.890   2.982 -0.1681 -0.7202 -0.0867
  841SOL    HW1 2522   1.533   0.953   3.050  0.6716  0.8646  1.2750
  841SOL    HW2 2523   1.591   0.925   2.885 -0.5977 -1.4960 -0.0434
  842SOL     OW 2524   0.804   1.524   0.991 -0.1083  0.4126  0.6460
  842SOL    HW1 2525   0.774   1.613   1.040  1.5572  1.8922  1.9465
  842SOL    HW2 2526   0.749   1.504   0.902 -0.7094  0.3630 -0.0672
  843SOL     OW 2527   0.133   0.113   1.477  0.1011 -0.0240  0.2319
  843SOL    HW1 2528   0.204   0.139   1.546  0.1369 -1.4842  0.0875
  843SOL    HW2 2529   0.102   0.015   1.483 -1.8200 -1.1720 -2.4764
  844SOL     OW 2530   0.777   2.478   0.292  0.4153 -0.0512 -0.2132
  844SOL    HW1 2531   0.721   2.465   0.381  2.0806  2.5049  2.5173
  844SOL    HW2 2532   0.721   2.485   0.204 -2.4966  1.5912 -0.6092
  845SOL     OW 2533   1.676   2.893   1.385  0.2038  0.3790 -0.3641
  845SOL    HW1 2534   1.733   2.922   1.466  1.9758 -2.6301  0.9567
  845SOL    HW2 2535   1.613   2.967   1.351 -1.0856 -0.0359  1.3513
  846SOL     OW 2536   1.686   2.972   0.885  0.1234 -0.1721  0.6037
  846SOL    HW1 2537   1.629   2.985   0.802 -0.3106  0.8945  1.2356
  846SOL    HW2 2538   1.789   2.954   0.871 -1.3162  1.3379  1.6828
  847SOL     OW 2539   2.022   1.649   0.228  0.1405 -0.1227  0.5809
  847SOL    HW1 2540   1.972   1.624   0.314 -1.4716  1.9410 -2.8195
  847SOL    HW2 2541   1.987   1.589   0.147  0.9996 -1.3900 -0.8819
  848SOL     OW 2542   2.476   0.777   2.667 -0.6331 -0.2842 -0.1419
  848SOL    HW1 2543   2.459   0.877   2.684  0.1048  2.4020  0.5147
  848SOL    HW2 2544   2.409   0.744   2.594 -0.6297 -0.8326  2.0079
  849SOL     OW 2545   2.462   0.872   2.324 -0.2324 -0.1330 -0.8162
  849SOL    HW1 2546   2.537   0.841   2.259  1.0638 -1.8917 -0.1313
  849SOL    HW2 2547   2.419   0.797   2.379  0.6720  2.4085  0.0625
  850SOL     OW 2548   1.536   0.089   1.325  0.6478 -0.4909 -0.2795
  850SOL    HW1 2549   1.506   0.081   1.225 -0.1750  0.2787  1.5923
  850SOL    HW2 2550   1.464   0.039   1.388  0.5064  2.4480  0.7602
  851SOL     OW 2551   0.465   1.707   0.684 -0.1300 -0.0214  0.4801
  851SOL    HW1 2552   0.469   1.810   0.680 -2.6431  1.0118  2.1297
  851SOL    HW2 2553   0.556   1.666   0.671  0.6068  4.0807  0.1218
  852SOL     OW 2554   0.814   2.149   1.664 -0.2993 -1.0340 -0.1619
  852SOL    HW1 2555   0.797   2.246   1.629 -2.2728  1.8842 -0.6410
  852SOL    HW2 2556   0.756   2.126   1.745  0.4586  1.3447 -1.6593
  853SOL     OW 2557   2.488   1.562   2.627  0.2413 -0.1331 -0.2061
  853SOL    HW1 2558   2.478   1.472   2.586  3.1226 -0.2468  1.3818
  853SOL    HW2 2559   2.519   1.637   2.560  1.2774  2.2444 -0.2036
  854SOL     OW 2560   2.512   1.392   1.799 -0.1376 -0.0933  0.2195
  854SOL    HW1 2561   2.549   1.367   1.706  0.4166 -0.7387  2.4341
  854SOL    HW2 2562   2.509   1.307   1.860 -2.2424  0.4097  0.1062
  855SOL     OW 2563   2.079   2.336   0.968 -0.5562 -0.5004  0.1308
  855SOL    HW1 2564   2.102   2.426   0.924 -2.1969  0.9356  0.0399
  855SOL    HW2 2565   2.139   2.310   1.051  0.2181 -0.4428  2.3067
  856SOL     OW 2566   1.388   1.406   0.891  0.0691 -0.8607  0.3282
  856SOL    HW1 2567   1.464   1.474   0.920 -3.6548  0.4080 -1.6256
  856SOL    HW2 2568   1.298   1.452   0.907 -0.1380  0.0867  2.2598
  857SOL     OW 2569   2.985   2.599   1.071  0.3046 -0.5595  0.9696
  857SOL    HW1 2570   2.911   2.529   1.062  3.6012  1.0152 -0.9110
  857SOL    HW2 2571   3.076   2.565   1.034  1.6773  1.2619 -0.1462
  858SOL     OW 2572   2.314   2.149   1.694 -0.3180  0.3916 -0.0666
  858SOL    HW1 2573   2.213   2.147   1.678  0.0743  2.4694  1.8624
  858SOL    HW2 2574   2.368   2.078   1.637  1.9533  2.9375 -1.2514
  859SOL     OW 2575   2.443   0.526   1.067 -0.0905 -0.3933  0.1205
  859SOL    HW1 2576   2.503   0.537   0.986 -1.8294 -0.0060 -1.6523
  859SOL    HW2 2577   2.460   0.440   1.121 -3.3690  2.0894 -2.4499
  860SOL     OW 2578   1.934   2.811   0.451 -0.3095 -0.6086 -0.5347
  860SOL    HW1 2579   1.886   2.755   0.374 -2.4011  0.5470 -2.9261
  860SOL    HW2 2580   2.019   2.859   0.428 -1.3977 -1.6186 -0.7609
  861SOL     OW 2581   1.106   2.591   2.791  0.5234  0.1657 -0.3844
  861SOL    HW1 2582   1.122   2.689   2.761 -1.7626 -1.7509  0.7757
  861SOL    HW2 2583   1.159   2.555   2.870 -2.3362  1.7714  0.9754
  862SOL     OW 2584   2.865   2.500   1.608  0.3751 -0.1209 -0.0911
  862SOL    HW1 2585   2.944   2.522   1.673  3.8637  1.6671  2.3775
  862SOL    HW2 2586   2.832   2.582   1.555  2.0443  1.0344  1.4758
  863SOL     OW 2587   1.866   2.688   0.194  0.0058  0.0992  0.2747
  863SOL    HW1 2588   1.939   2.615   0.180  2.4592 -0.5405 -2.2882
  863SOL    HW2 2589   1.770   2.649   0.211 -0.1093  0.8336  0.1022
  864SOL     OW 2590   1.869   1.148   2.915  0.5534  0.3301  0.4901
  864SOL    HW1 2591   1.887   1.101   2.824  1.1495 -0.6902  4.6854
  864SOL    HW2 2592   1.957   1.174   2.962  1.3126 -2.6388  0.5456
  865SOL     OW 2593   2.195   1.862   0.689  0.3657 -0.1614 -0.0566
  865SOL    HW1 2594   2.238   1.854   0.784 -1.1374 -0.1967 -1.5086
  865SOL    HW2 2595   2.104   1.805   0.681 -0.5179  1.8178  1.6168
  866SOL     OW 2596   2.954   2.901   0.980 -0.3452 -0.0051 -0.1540
  866SOL    HW1 2597   3.008   2.942   0.898  1.2522 -0.6189  1.5651
  866SOL    HW2 2598   2.980   2.802   0.997  1.1189 -0.0665  0.1517
  867SOL     OW 2599   0.351   1.347   0.912  0.7087 -0.4511 -0.4239
  867SOL    HW1 2600   0.376   1.273   0.837  2.3067 -1.9484 -0.0665
  867SOL    HW2 2601   0.295   1.425   0.880 -0.4171 -2.0804 -1.1789
  868SOL     OW 2602   0.767   1.908   2.023  0.3154 -0.0468  0.4294
  868SOL    HW1 2603   0.743   1.879   2.117  0.2847  1.7042 -2.0761
  868SOL    HW2 2604   0.731   2.006   1.997  0.3829  1.5781 -1.1576
  869SOL     OW 2605   2.504   1.915   1.597  0.0056  0.0226 -0.0692
  869SOL    HW1 2606   2.589   1.949   1.550  0.1123 -1.6354  1.1261
  869SOL    HW2 2607   2.459   1.838   1.544 -1.1456  1.7099 -1.2070
  870SOL     OW 2608   2.279   2.611   1.264 -0.0427 -0.0858 -0.3186
  870SOL    HW1 2609   2.267   2.503   1.250 -1.8524 -2.2447 -0.2059
  870SOL    HW2 2610   2.230   2.652   1.343 -2.5352 -0.2085 -1.1380
  871SOL     OW 2611   2.991   2.094   0.587  0.3367  0.0859  0.0261
  871SOL    HW1 2612   2.937   2.171   0.638 -1.6985  0.9738  1.6731
  871SOL    HW2 2613   2.936   2.028   0.524  1.7875 -0.3430 -1.2973
  872SOL     OW 2614   2.134   0.476   1.683 -0.0289 -0.1178 -0.0327
  872SOL    HW1 2615   2.097   0.457   1.779  1.6866 -0.3647  0.7208
  872SOL    HW2 2616   2.237   0.468   1.671  0.2250 -0.1029  0.3206
  873SOL     OW 2617   1.743   2.074   2.987 -0.1454  0.2307 -0.4464
  873SOL    HW1 2618   1.705   2.164   3.028  0.4163 -0.5965 -0.0818
  873SOL    HW2 2619   1.678   2.031   2.920 -1.6287  0.9867  2.0116
  874SOL     OW 2620   0.638   2.460   0.804 -0.8923  0.2272 -0.1481
  874SOL    HW1 2621   0.609   2.560   0.829  1.5356 -0.0370 -3.4015
  874SOL    HW2 2622   0.742   2.450   0.803  0.0546 -2.9409 -0.3708
  875SOL     OW 2623   2.289   1.467   1.431 -0.1755  0.0579  0.0106
  875SOL    HW1 2624   2.380   1.468   1.476 -0.4800  0.4999  0.3145
  875SOL    HW2 2625   2.298   1.514   1.335 -1.2229  1.6752  1.1828
  876SOL     OW 2626   0.088   2.249   2.708  0.3599  0.4059  0.4360
  876SOL    HW1 2627   0.126   2.179   2.772  1.6658  1.5822  0.7079
  876SOL    HW2 2628   0.117   2.343   2.739  2.0066 -3.0284 -0.2641
  877SOL     OW 2629   2.829   2.680   0.592 -0.9111 -0.3631  0.8811
  877SOL    HW1 2630   2.815   2.778   0.627 -2.0148  1.6178  1.7708
  877SOL    HW2 2631   2.894   2.626   0.650 -0.4718  2.4411 -4.1518
  878SOL     OW 2632   2.845   1.574   2.194  0.1211 -0.6810  0.0528
  878SOL    HW1 2633   2.943   1.580   2.159  2.9216  0.5562  2.9548
  878SOL    HW2 2634   2.838   1.599   2.294 -0.1115 -2.2635  0.6154
  879SOL     OW 2635   2.394   0.049   1.139  0.3502  0.2244  0.2013
  879SOL    HW1 2636   2.449  -0.030   1.174  0.4070  0.7830 -1.0599
  879SOL    HW2 2637   2.324   0.028   1.067  0.6330 -2.1442  0.0186
  880SOL     OW 2638   0.672   0.459   2.227  0.2127 -0.1568 -0.3625
  880SOL    HW1 2639   0.608   0.396   2.281  1.4554 -2.0971 -0.1474
  880SOL    HW2 2640   0.728   0.409   2.152  2.8747 -1.5316 -2.2117
  881SOL     OW 2641   0.912   0.067   0.501  0.7582 -0.5518 -0.1598
  881SOL    HW1 2642   0.950  -0.026   0.527  1.9191  1.0194 -1.1255
  881SOL    HW2 2643   0.845   0.067   0.421 -2.0264  2.6617 -1.7914
  882SOL     OW 2644   2.709   1.644   1.670 -0.2274 -0.5767 -0.0416
  882SOL    HW1 2645   2.801   1.645   1.620 -1.3981  0.6931  2.1798
  882SOL    HW2 2646   2.711   1.698   1.759  0.5879 -0.5612  0.6169
  883SOL     OW 2647   0.913   0.589   0.944  0.3845  0.1428 -0.4634
  883SOL    HW1 2648   0.929   0.689   0.961  0.2107  0.4587 -0.7009
  883SOL    HW2 2649   0.926   0.532   1.034  1.3727 -1.2385  2.0407
  884SOL     OW 2650   1.172   1.804   1.090  0.0634  0.3087 -0.8296
  884SOL    HW1 2651   1.176   1.720   1.038  1.8984 -0.4125 -1.6130
  884SOL    HW2 2652   1.113   1.883   1.049 -1.2393  2.7896 -1.5829
  885SOL     OW 2653   2.335   1.825   2.304 -0.4266  0.3665 -0.0969
  885SOL    HW1 2654   2.248   1.767   2.327 -2.9975 -2.2128 -1.4828
  885SOL    HW2 2655   2.321   1.932   2.304 -2.4776 -0.1618 -0.9454
  886SOL     OW 2656   2.624   0.462   1.799  0.2734  0.0710 -0.4046
  886SOL    HW1 2657   2.662   0.406   1.877  2.6957 -0.2995 -2.0817
  886SOL    HW2 2658   2.684   0.538   1.768  1.4536 -0.8411 -0.4867
  887SOL     OW 2659   0.151   2.035   1.211  0.1583  0.5464 -0.1973
  887SOL    HW1 2660   0.074   1.985   1.154 -1.3819 -2.4115 -0.6930
  887SOL    HW2 2661   0.129   2.137   1.227 -1.0574 -0.1839 -0.2498
  888SOL     OW 2662   0.551   1.348   1.573  0.1819  0.5847  0.0639
  888SOL    HW1 2663   0.617   1.383   1.502  0.1767 -0.9222 -0.8763
  888SOL    HW2 2664   0.535   1.248   1.558  0.3445 -0.8219 -0.0079
  889SOL     OW 2665   0.802   2.523   2.167  0.1236 -0.5894 -0.5396
  889SOL    HW1 2666   0.734   2.446   2.149 -0.9370 -1.4039  1.8599
  889SOL    HW2 2667   0.889   2.531   2.103  0.7650  3.0703  0.6586
  890SOL     OW 2668   2.353   2.484   0.198 -0.1155 -0.4098 -0.1998
  890SOL    HW1 2669   2.386   2.558   0.130  1.7801  0.2344 -0.1218
  890SOL    HW2 2670   2.310   2.526   0.285 -0.3611  1.0500 -0.6257
  891SOL     OW 2671   2.617   1.579   0.721  1.0299 -0.4757 -0.4918
  891SOL    HW1 2672   2.644   1.514   0.802 -0.7593 -3.8308 -1.1620
  891SOL    HW2 2673   2.519   1.563   0.692 -0.0510 -1.7370  0.9555
  892SOL     OW 2674   0.315   0.218   2.160 -0.2049  0.1781  0.3252
  892SOL    HW1 2675   0.322   0.270   2.070 -1.0147 -0.9478 -0.5012
  892SOL    HW2 2676   0.378   0.251   2.235 -1.5377  1.0001 -1.1600
  893SOL     OW 2677   1.645   0.240   2.765 -0.2318  0.0683  0.2089
  893SOL    HW1 2678   1.730   0.295   2.792 -0.1866 -0.9440  0.9564
  893SOL    HW2 2679   1.556   0.299   2.765 -1.8955 -0.5739 -1.8174
  894SOL     OW 2680   2.254   2.001   0.031  0.7071  0.5151 -0.1616
  894SOL    HW1 2681   2.203   1.944  -0.041  0.2272 -4.7770 -0.6671
  894SOL    HW2 2682   2.246   1.951   0.120  1.8494  1.9671 -1.3543
  895SOL     OW 2683   2.872   1.449   0.874  0.0909  0.7176 -0.2493
  895SOL    HW1 2684   2.910   1.404   0.958  2.3360 -1.9618 -0.5412
  895SOL    HW2 2685   2.947   1.499   0.819 -1.6418 -0.0021 -2.2721
  896SOL     OW 2686   1.805   1.827   1.169 -0.0735 -0.9643 -0.3382
  896SOL    HW1 2687   1.839   1.804   1.074  2.8608  0.8573  0.0915
  896SOL    HW2 2688   1.744   1.912   1.177 -1.1051  0.6571 -0.8505
  897SOL     OW 2689   0.286   0.533   3.066 -0.7190 -0.4655 -0.4048
  897SOL    HW1 2690   0.219   0.613   3.035  0.6649  2.4409 -1.4765
  897SOL    HW2 2691   0.378   0.561   3.111  0.1994  0.8446 -0.2209
  898SOL     OW 2692   0.591   2.835   1.110  0.0604 -0.4116 -0.2996
  898SOL    HW1 2693   0.549   2.920   1.153 -0.6222 -1.6844 -0.5446
  898SOL    HW2 2694   0.691   2.817   1.146  0.4253 -0.6745 -2.8047
  899SOL     OW 2695   2.729   0.882   1.242 -0.3857  0.4781 -0.8788
  899SOL    HW1 2696   2.651   0.864   1.178  1.9848 -1.5119 -0.2914
  899SOL    HW2 2697   2.804   0.938   1.204 -2.5935 -1.2877 -1.8892
  900SOL     OW 2698   1.020   2.587   2.367 -0.7287  0.1373 -0.5304
  900SOL    HW1 2699   0.951   2.561   2.297 -1.2157 -0.0570 -0.0291
  900SOL    HW2 2700   0.991   2.564   2.465 -0.2425  0.6452  0.9552
  901SOL     OW 2701   1.862   2.359   1.390  0.0563 -0.4093 -0.3897
  901SOL    HW1 2702   1.838   2.367   1.285 -2.5334  0.1348 -1.7027
  901SOL    HW2 2703   1.961   2.329   1.406  0.9178  0.2021  0.5123
  902SOL     OW 2704   2.544   1.650   1.424  0.4409  0.2562  0.3923
  902SOL    HW1 2705   2.561   1.637   1.525 -0.6514 -1.9756  1.6418
  902SOL    HW2 2706   2.633   1.621   1.375  1.1479 -2.9675  0.3397
  903SOL     OW 2707   0.251   2.470   1.986 -0.7172  0.0425  0.4751
  903SOL    HW1 2708   0.182   2.404   1.952 -1.9553 -0.2405  0.2063
  903SOL    HW2 2709   0.272   2.548   1.922 -1.1155 -3.2964 -1.1311
  904SOL     OW 2710   2.046   0.691   2.422 -0.1215  0.0497 -0.6119
  904SOL    HW1 2711   1.990   0.675   2.511 -0.3968 -0.0312 -0.2470
  904SOL    HW2 2712   1.987   0.697   2.339  0.8316  3.0419  1.2152
  905SOL     OW 2713   2.809   0.069   2.597  0.0288  0.0098 -0.0418
  905SOL    HW1 2714   2.896   0.019   2.572  0.0563  1.0181  0.7172
  905SOL    HW2 2715   2.810   0.162   2.546  1.7403  2.2807  1.3201
  906SOL     OW 2716   0.162   1.785   1.871 -0.4862 -0.2976  0.2283
  906SOL    HW1 2717   0.105   1.765   1.784  1.7228 -2.1714 -2.1133
  906SOL    HW2 2718   0.258   1.829   1.856 -1.4442  0.2687  2.4040
  907SOL     OW 2719   0.133   2.485   1.017 -0.4884  0.3247  0.5595
  907SOL    HW1 2720   0.232   2.493   1.004 -2.3715  1.2341 -3.2051
  907SOL    HW2 2721   0.096   2.402   0.975  2.0055  0.8276 -0.0882
  908SOL     OW 2722   2.680   2.950   0.415  0.6367 -0.3814  0.5907
  908SOL    HW1 2723   2.667   3.016   0.333  0.3040 -2.1974 -0.2597
  908SOL    HW2 2724   2.742   2.875   0.386 -1.5835  0.8774 -2.1242
  909SOL     OW 2725   0.769   0.972   2.723  0.4082 -0.0364 -0.7426
  909SOL    HW1 2726   0.718   0.888   2.691  1.9897 -2.0036  2.2346
  909SOL    HW2 2727   0.839   0.998   2.652 -1.3717 -0.0134 -1.9203
  910SOL     OW 2728   1.772   1.851   2.130 -0.1082 -0.4968 -0.4143
  910SOL    HW1 2729   1.818   1.877   2.040 -0.7404 -2.0166  1.1437
  910SOL    HW2 2730   1.698   1.919   2.156  3.4495  0.2253 -2.3595
  911SOL     OW 2731   1.843   2.943   1.591 -0.5972  0.1708  0.1969
  911SOL    HW1 2732   1.929   2.902   1.552 -1.6692 -0.4173 -1.0405
  911SOL    HW2 2733   1.819   2.904   1.687 -0.9666  0.6496  3.3171
  912SOL     OW 2734   2.904   0.978   0.751 -0.1857 -0.2932  0.1729
  912SOL    HW1 2735   2.930   0.956   0.850 -0.7435 -1.1656 -0.5754
  912SOL    HW2 2736   2.875   1.080   0.744 -1.3099  0.9769  1.7677
  913SOL     OW 2737   2.563   1.274   1.557  0.1629  0.1380  0.2427
  913SOL    HW1 2738   2.567   1.172   1.536  1.9029 -2.7130 -1.6466
  913SOL    HW2 2739   2.590   1.330   1.472  0.9250 -0.6328  1.8199
  914SOL     OW 2740   2.817   0.525   1.207 -0.5879 -0.7842 -0.0249
  914SOL    HW1 2741   2.752   0.454   1.171 -2.3442 -0.8166 -3.8583
  914SOL    HW2 2742   2.786   0.572   1.293  2.4724 -0.8965 -0.0254
  915SOL     OW 2743   1.235   0.797   1.031  0.2402  0.0527 -0.2249
  915SOL    HW1 2744   1.260   0.792   1.130 -0.5943 -0.0825 -1.0607
  915SOL    HW2 2745   1.136   0.815   1.010 -0.3591 -0.2139 -0.1422
  916SOL     OW 2746   0.612   0.023   0.667 -0.6417  0.4317 -0.2401
  916SOL    HW1 2747   0.654   0.093   0.733  0.0411  0.9866  0.2003
  916SOL    HW2 2748   0.611   0.061   0.571 -0.1087  0.1639 -1.6644
  917SOL     OW 2749   2.831   2.612   1.976  0.0303 -0.2671 -0.1499
  917SOL    HW1 2750   2.726   2.607   1.975 -1.4823 -1.8406  1.3032
  917SOL    HW2 2751   2.867   2.690   1.911  0.6664  2.2016  0.5864
  918SOL     OW 2752   1.049   2.224   2.991 -0.5194 -0.4384  0.6452
  918SOL    HW1 2753   1.019   2.230   3.091  1.2295 -0.2459  2.2660
  918SOL    HW2 2754   1.084   2.130   2.961  0.1085  1.1406 -2.0145
  919SOL     OW 2755   0.875   1.624   2.833  0.0516 -0.4737 -0.1919
  919SOL    HW1 2756   0.916   1.706   2.788  2.2390 -1.2568 -2.3492
  919SOL    HW2 2757   0.823   1.566   2.763 -0.1385 -1.1395 -0.2026
  920SOL     OW 2758   1.267   1.926   2.469 -0.3672  0.9383  0.1839
  920SOL    HW1 2759   1.245   1.921   2.369  1.8291  0.7376 -0.9821
  920SOL    HW2 2760   1.271   1.832   2.510  1.0622  2.9957 -1.1552
  921SOL     OW 2761   1.103   0.044   2.601  0.4516  0.2431 -0.1935
  921SOL    HW1 2762   1.075   0.054   2.503  2.4424  2.3945  1.2141
  921SOL    HW2 2763   1.026   0.015   2.660 -1.4054 -1.1298  0.7587
  922SOL     OW 2764   2.150   2.417   2.882 -0.1071  0.3042  0.9815
  922SOL    HW1 2765   2.162   2.313   2.879 -0.0181 -2.9462  0.3007
  922SOL    HW2 2766   2.103   2.452   2.797 -2.6660 -1.5039 -0.6256
  923SOL     OW 2767   1.246   2.706   0.259 -0.3614 -0.6227 -0.1305
  923SOL    HW1 2768   1.323   2.758   0.305 -0.4106  0.2560  2.7481
  923SOL    HW2 2769   1.272   2.608   0.231  1.6688 -0.6696  1.5297
  924SOL     OW 2770   2.864   1.531   0.077 -0.4136  0.3976  0.5125
  924SOL    HW1 2771   2.769   1.506   0.041 -0.4545 -1.6273 -0.7933
  924SOL    HW2 2772   2.939   1.526   0.004  1.2311 -0.1784 -1.7737
  925SOL     OW 2773   0.006   2.953   1.508 -0.0111 -0.5789  0.1651
  925SOL    HW1 2774  -0.075   2.948   1.573  2.3189  1.6585  0.4059
  925SOL    HW2 2775  -0.017   2.909   1.419 -3.7881 -1.0004  1.7665
  926SOL     OW 2776   1.354   2.823   1.272 -0.1353  0.3224  0.6871
  926SOL    HW1 2777   1.420   2.833   1.188  1.4733  0.3015  1.0357
  926SOL    HW2 2778   1.333   2.915   1.321  1.1068  0.6787  3.0967
  927SOL     OW 2779   0.310   2.666   1.777 -0.2893 -0.3072 -0.1719
  927SOL    HW1 2780   0.276   2.587   1.711 -0.7224 -1.0784  0.2593
  927SOL    HW2 2781   0.260   2.753   1.755  0.5508  0.1398  2.7951
  928SOL     OW 2782   1.551   2.034   2.188 -0.0255 -0.1712 -0.0570
  928SOL    HW1 2783   1.587   2.125   2.145 -0.7606 -2.6734  2.5151
  928SOL    HW2 2784   1.455   2.017   2.155  1.7270 -0.3546  0.0329
  929SOL     OW 2785   2.443   2.458   2.898 -0.2703 -0.1752 -0.0107
  929SOL    HW1 2786   2.342   2.426   2.908 -0.3238 -0.9687 -2.8117
  929SOL    HW2 2787   2.480   2.456   2.799  3.3355  0.4162 -1.3082
  930SOL     OW 2788   2.194   1.973   1.047 -0.0178  0.1823  0.2057
  930SOL    HW1 2789   2.162   1.941   1.139 -0.1664  2.5527 -0.6427
  930SOL    HW2 2790   2.255   2.056   1.048 -0.9814  0.9675  0.4230
  931SOL     OW 2791   0.528   1.708   2.698  0.2156 -0.2937  0.1672
  931SOL    HW1 2792   0.562   1.772   2.767 -1.1938 -1.4801 -1.7016
  931SOL    HW2 2793   0.586   1.630   2.671 -0.1083  3.6252 -0.5775
  932SOL     OW 2794   0.439   0.068   2.936  0.0092 -0.7349 -0.3131
  932SOL    HW1 2795   0.522   0.088   2.884  1.1746 -1.5574  1.0781
  932SOL    HW2 2796   0.459  -0.013   3.006  2.6514 -0.3495 -1.6075
  933SOL     OW 2797   1.043   0.725   3.037  0.5864 -0.0534  0.2673
  933SOL    HW1 2798   1.111   0.798   3.070  0.3118  0.8311 -1.4813
  933SOL    HW2 2799   0.962   0.768   2.987  1.3699  0.3913 -2.1204
  934SOL     OW 2800   0.882   2.976   2.676  0.1441 -0.2858  0.1932
  934SOL    HW1 2801   0.886   2.906   2.602 -2.9171 -1.0891 -1.8811
  934SOL    HW2 2802   0.929   2.939   2.763 -1.2934  0.4005  1.3300
  935SOL     OW 2803   3.092   0.556   0.834 -0.7818 -0.0364  0.0879
  935SOL    HW1 2804   3.108   0.517   0.739  1.0572  0.2631 -1.4627
  935SOL    HW2 2805   2.999   0.603   0.853  1.1157 -0.6417 -2.6474
  936SOL     OW 2806   1.085   2.926   0.122  0.1808  0.2338  0.3710
  936SOL    HW1 2807   1.138   2.941   0.031  0.9030  1.3417  0.7837
  936SOL    HW2 2808   1.142   2.865   0.181 -0.3746 -2.5580  1.8882
  937SOL     OW 2809   1.971   2.667   2.093 -0.5510  0.2882 -0.7052
  937SOL    HW1 2810   1.881   2.671   2.136  2.8160 -0.9518  2.9036
  937SOL    HW2 2811   1.980   2.711   1.999 -0.6933 -0.7592  0.5401
  938SOL     OW 2812   2.736   2.058   1.493 -1.3360  0.1834  0.3416
  938SOL    HW1 2813   2.700   2.153   1.529 -0.6192  0.7308  4.2928
  938SOL    HW2 2814   2.815   2.020   1.557 -0.3386  0.3601 -0.5748
  939SOL     OW 2815   2.830   1.225   2.466  0.5963 -0.2694 -0.1850
  939SOL    HW1 2816   2.879   1.196   2.378  0.3702 -1.1982 -1.9757
  939SOL    HW2 2817   2.853   1.159   2.542  1.7884  0.2520  0.3842
  940SOL     OW 2818   0.979   0.452   2.690  0.2412  0.0230  0.0394
  940SOL    HW1 2819   1.030   0.360   2.709 -0.6795  0.0333 -1.1345
  940SOL    HW2 2820   0.877   0.421   2.678  0.2323  1.3258 -1.7058
  941SOL     OW 2821   0.068   2.830   2.217 -0.3122 -0.2640 -0.6192
  941SOL    HW1 2822   0.091   2.729   2.227  0.7624 -0.2542  1.8737
  941SOL    HW2 2823   0.103   2.897   2.292  2.1929  2.2396  3.2590
  942SOL     OW 2824   0.065   0.125   2.500  0.0678  0.0125  0.4235
  942SOL    HW1 2825   0.137   0.152   2.566 -2.4669  1.5780 -0.4354
  942SOL    HW2 2826   0.073   0.178   2.412  1.8314 -0.9634  1.2046
  943SOL     OW 2827   2.128   1.650   2.339  0.5306 -0.2739  0.1031
  943SOL    HW1 2828   2.108   1.624   2.243 -2.6849  0.5205 -1.0784
  943SOL    HW2 2829   2.111   1.575   2.407  1.9228  2.0298  1.8730
  944SOL     OW 2830   2.152   2.350   1.450  0.3531 -0.4837 -0.1639
  944SOL    HW1 2831   2.213   2.421   1.494 -0.6953 -1.9246 -1.1464
  944SOL    HW2 2832   2.131   2.275   1.520 -2.9227  0.0021 -1.4895
  945SOL     OW 2833   0.662   1.503   0.304 -0.7146  0.1209 -0.2118
  945SOL    HW1 2834   0.736   1.532   0.242 -0.4977  0.8180  3.1518
  945SOL    HW2 2835   0.661   1.401   0.307  2.3549  0.9283  0.1848
  946SOL     OW 2836   0.405   0.930   2.506  0.2230  0.0007  0.3791
  946SOL    HW1 2837   0.324   0.900   2.449  2.4568  0.1719  0.6487
  946SOL    HW2 2838   0.379   1.017   2.560 -1.7360 -0.7274  2.6230
  947SOL     OW 2839   1.557   0.532   0.057  0.1712  0.6643  0.7118
  947SOL    HW1 2840   1.509   0.554  -0.028 -0.1993 -0.1243 -0.5848
  947SOL    HW2 2841   1.494   0.485   0.130 -0.6039 -0.4957 -0.9478
  948SOL     OW 2842   1.993   3.057   2.175  0.3836  0.6257  0.2155
  948SOL    HW1 2843   2.002   3.025   2.076  2.8608  1.5867 -1.1038
  948SOL    HW2 2844   1.967   2.980   2.246 -1.0931  0.6640  1.6556
  949SOL     OW 2845   0.628   2.503   0.527  0.4748  0.0659  0.4216
  949SOL    HW1 2846   0.614   2.608   0.514 -2.5525  1.3432 -0.9288
  949SOL    HW2 2847   0.649   2.472   0.628  0.5872 -5.0527  1.8054
  950SOL     OW 2848   0.210   2.139   3.059 -0.0242  0.2449 -0.4245
  950SOL    HW1 2849   0.131   2.205   3.061  1.8614  0.8000  1.6244
  950SOL    HW2 2850   0.220   2.097   2.965 -0.3018 -0.0156  0.9214
  951SOL     OW 2851   1.177   2.812   2.650  0.0887  0.8276  0.3016
  951SOL    HW1 2852   1.169   2.791   2.549 -0.7618  1.9428 -0.2490
  951SOL    HW2 2853   1.277   2.831   2.680  0.5205 -1.9945 -1.3213
  952SOL     OW 2854   0.118   1.661   0.454  0.0209 -0.9199 -0.2045
  952SOL    HW1 2855   0.154   1.766   0.452  0.5791  2.7466  1.0870
  952SOL    HW2 2856   0.138   1.599   0.537 -0.2875  0.6134 -2.1229
  953SOL     OW 2857   2.505   1.771   0.223  0.0133  0.2236 -0.5456
  953SOL    HW1 2858   2.491   1.665   0.233 -2.1519 -2.0184  2.4453
  953SOL    HW2 2859   2.518   1.795   0.125 -0.9131 -4.1985  1.0575
  954SOL     OW 2860   2.179   0.532   0.967  0.3489 -0.1619 -0.0159
  954SOL    HW1 2861   2.197   0.573   0.872 -0.0376  1.4545 -0.3188
  954SOL    HW2 2862   2.263   0.528   1.023 -1.7525 -0.5990 -0.7880
  955SOL     OW 2863   0.220   2.623   1.339  0.2989  0.5619  0.1457
  955SOL    HW1 2864   0.127   2.665   1.338  2.1744 -2.1099 -0.2825
  955SOL    HW2 2865   0.267   2.634   1.244  1.5498  0.3767 -0.4194
  956SOL     OW 2866   2.750   2.453   2.452  0.3171 -0.2587 -0.1507
  956SOL    HW1 2867   2.767   2.355   2.434 -1.7172 -1.0737  0.4487
  956SOL    HW2 2868   2.799   2.516   2.379  1.7038 -0.2114  2.7012
  957SOL     OW 2869   1.544   2.042   2.738 -0.4946 -0.5068 -0.4935
  957SOL    HW1 2870   1.539   1.940   2.734 -0.4185 -0.2127  0.5112
  957SOL    HW2 2871   1.563   2.082   2.646  0.1513  2.2198 -0.5958
  958SOL     OW 2872   2.674   2.343   2.965  0.3137 -0.1274 -0.4085
  958SOL    HW1 2873   2.586   2.391   2.936  0.9682  0.8244 -0.2989
  958SOL    HW2 2874   2.675   2.315   3.063 -3.0809  1.2884 -0.3119
  959SOL     OW 2875   0.253   2.769   0.081  0.4576 -0.2203  0.5046
  959SOL    HW1 2876   0.153   2.765   0.044 -1.2434 -1.7906  1.3016
  959SOL    HW2 2877   0.266   2.703   0.159  2.0124 -1.0666  0.8291
  960SOL     OW 2878   1.966   0.433   1.919  0.6393 -0.2156  0.1491
  960SOL    HW1 2879   1.925   0.521   1.879  2.0005  2.1821  1.8735
  960SOL    HW2 2880   1.964   0.427   2.020 -0.1232  0.0392 -1.5932
  961SOL     OW 2881   2.540   1.860   1.025  0.5476  0.1728 -0.3746
  961SOL    HW1 2882   2.531   1.947   0.970 -0.8852  0.8039 -0.2785
  961SOL    HW2 2883   2.474   1.866   1.106 -1.3779 -2.9251 -0.3588
  962SOL     OW 2884   1.261   0.900   0.038 -0.1679 -0.4315 -0.1411
  962SOL    HW1 2885   1.264   0.967  -0.043 -0.9797  1.1243 -0.0192
  962SOL    HW2 2886   1.292   0.940   0.127 -1.6055 -0.4271  0.8845
  963SOL     OW 2887   2.171   2.556   1.869 -0.1955  0.2319  0.0294
  963SOL    HW1 2888   2.189   2.463   1.923  3.2433  0.1087  1.6109
  963SOL    HW2 2889   2.206   2.638   1.925 -0.9714 -1.0346 -0.9674
  964SOL     OW 2890   2.396   0.392   1.661  0.3811 -0.1142 -0.0202
  964SOL    HW1 2891   2.490   0.424   1.697 -3.2523  2.5539  0.5974
  964SOL    HW2 2892   2.385   0.383   1.557  0.2171 -0.1647  0.4225
  965SOL     OW 2893   2.586   3.059   0.168 -0.1372  0.6968  0.0351
  965SOL    HW1 2894   2.668   3.027   0.119 -1.5463 -0.5645  2.0658
  965SOL    HW2 2895   2.498   3.052   0.115 -3.0918 -2.1907 -0.5278
  966SOL     OW 2896   2.483   2.477   2.210 -0.1270  0.1750  0.5208
  966SOL    HW1 2897   2.408   2.462   2.279  0.2876 -0.8803 -0.2508
  966SOL    HW2 2898   2.456   2.541   2.133 -3.3924 -0.7961 -2.5847
  967SOL     OW 2899   2.817   2.823   2.453 -0.0923  0.1510 -0.4390
  967SOL    HW1 2900   2.868   2.787   2.374  0.6186  1.7118 -0.6698
  967SOL    HW2 2901   2.869   2.897   2.506 -3.2230  1.5841  1.6208
  968SOL     OW 2902   1.952   1.072   2.661 -0.3618  0.4262 -0.1334
  968SOL    HW1 2903   1.883   1.135   2.621  4.0309 -0.5109  0.9199
  968SOL    HW2 2904   1.943   0.978   2.618 -1.8770  0.9315  2.9040
  969SOL     OW 2905   2.773   2.431   1.085 -0.1064 -0.0521 -0.0703
  969SOL    HW1 2906   2.774   2.382   0.996  1.1025  0.4691  0.0029
  969SOL    HW2 2907   2.780   2.367   1.171  0.6424 -0.0400  1.8601
  970SOL     OW 2908   1.066   2.136   1.770  0.0917  0.0144  0.4235
  970SOL    HW1 2909   0.976   2.135   1.716  0.3358 -0.9408 -0.8360
  970SOL    HW2 2910   1.059   2.160   1.872 -0.8101 -1.1478  3.0809
  971SOL     OW 2911   2.822   2.089   1.883 -0.0903  0.1349  0.3125
  971SOL    HW1 2912   2.828   2.185   1.914  0.0341 -0.7727  0.5020
  971SOL    HW2 2913   2.895   2.074   1.814 -2.0443 -0.9299  0.7154
  972SOL     OW 2914   1.941   2.421   0.196  0.0152 -0.0080  0.4594
  972SOL    HW1 2915   1.947   2.327   0.148 -1.0794 -1.8838  0.2688
  972SOL    HW2 2916   1.977   2.411   0.296  1.8405 -0.9553  0.1141
  973SOL     OW 2917   1.345   1.061   1.874 -0.0698 -0.0034  0.4567
  973SOL    HW1 2918   1.251   1.029   1.841 -1.4628 -0.0059 -0.1264
  973SOL    HW2 2919   1.351   1.165   1.891  1.3197  2.3802  0.6335
  974SOL     OW 2920   1.624   0.556   1.985 -0.0723 -0.0632 -0.0072
  974SOL    HW1 2921   1.716   0.582   1.939  0.5290  3.3996  0.6786
  974SOL    HW2 2922   1.546   0.623   1.955 -2.7908 -0.7933 -3.9802
  975SOL     OW 2923   2.361   3.019   0.019  0.6746 -0.3154 -0.1213
  975SOL    HW1 2924   2.291   2.946   0.019  1.5422  2.0585 -0.7848
  975SOL    HW2 2925   2.407   3.038  -0.076  1.0332 -1.2019 -0.5388
  976SOL     OW 2926   1.904   2.872   2.344 -0.2718  0.4930  0.3020
  976SOL    HW1 2927   1.824   2.838   2.283  0.9900 -1.2107 -1.6943
  976SOL    HW2 2928   1.912   2.834   2.437  0.5406  1.1009  0.5767
  977SOL     OW 2929   0.462   0.701   1.027 -0.0531 -0.3087 -0.6848
  977SOL    HW1 2930   0.385   0.687   0.960 -1.3163 -1.1206 -3.6492
  977SOL    HW2 2931   0.550   0.725   0.979 -1.3247 -0.5639 -1.8724
   3.10000   3.10000   3.10000
