1000 SPC/Fw water molecules t=   1.23000 step= 1230
 2931
    1SOL     OW    1   2.542   0.348   2.600 -0.0243 -0.1433  0.3501
    1SOL    HW1    2   2.518   0.246   2.611  0.9879 -2.7453  1.4826
    1SOL    HW2    3   2.603   0.378   2.682  1.2957  1.0079 -1.0200
    2SOL     OW    4   2.767   2.982   1.380  0.2855  0.0022  0.0006
    2SOL    HW1    5   2.840   3.024   1.319 -3.2052 -0.4873 -4.1349
    2SOL    HW2    6   2.707   3.054   1.420 -1.1943 -0.4175  0.1583
    3SOL     OW    7   2.632   2.599   0.432 -0.3304 -0.7394  0.2859
    3SOL    HW1    8   2.589   2.508   0.458 -0.4410  0.3026 -2.4344
    3SOL    HW2    9   2.712   2.626   0.497 -1.0385  0.3433  2.5797
    4SOL     OW   10   1.256   1.530   2.371  0.2047 -0.3396  0.4207
    4SOL    HW1   11   1.177   1.550   2.305 -0.8191 -1.0785 -3.7293
    4SOL    HW2   12   1.264   1.430   2.392  0.3975  0.5569 -0.1580
    5SOL     OW   13   1.170   1.579   2.995  0.5645  0.0793 -1.0920
    5SOL    HW1   14   1.221   1.663   3.032  0.6796 -0.7792 -0.9209
    5SOL    HW2   15   1.084   1.607   2.946 -1.8068  1.2468  0.0563
    6SOL     OW   16   0.244   1.815   3.018  1.0419  0.6964  0.1057
    6SOL    HW1   17   0.146   1.798   3.045 -0.0327 -2.8272  0.5022
    6SOL    HW2   18   0.307   1.791   3.104  3.7808 -0.7039  3.1113
    7SOL     OW   19   2.529   0.846   1.064  0.0058 -0.4088  0.2935
    7SOL    HW1   20   2.433   0.816   1.095  0.7966  0.0339  1.0994
    7SOL    HW2   21   2.581   0.775   1.007 -0.3691 -0.4492 -0.8270
    8SOL     OW   22   0.437   0.600   1.453 -0.4459  0.1263 -0.0331
    8SOL    HW1   23   0.521   0.536   1.474 -0.6197  0.7433  0.3520
    8SOL    HW2   24   0.404   0.593   1.355 -1.0450 -0.1164  0.5994
    9SOL     OW   25   1.169   0.849   2.408 -0.2451 -0.6870  0.0748
    9SOL    HW1   26   1.224   0.856   2.319  0.2027  0.4749 -1.9098
    9SOL    HW2   27   1.144   0.754   2.434 -1.5087 -0.9378  1.2653
   10SOL     OW   28   0.656   1.362   1.305 -0.3162  0.2991 -0.3891
   10SOL    HW1   29   0.568   1.357   1.245  0.4061 -1.5092  1.9998
   10SOL    HW2   30   0.705   1.450   1.301  0.5451 -1.4975 -0.4492
   11SOL     OW   31   2.307   2.806   0.829  0.1093  0.3392 -0.5423
   11SOL    HW1   32   2.269   2.814   0.921  2.4549 -0.1374 -0.6406
   11SOL    HW2   33   2.405   2.769   0.838 -0.4293  2.0532 -0.6061
   12SOL     OW   34   1.470   0.819   0.431  0.6306 -0.4125  0.6993
   12SOL    HW1   35   1.387   0.857   0.382  0.1148  0.4153 -1.1887
   12SOL    HW2   36   1.541   0.773   0.368  1.7808 -0.4623  0.4502
   13SOL     OW   37   2.430   0.741   1.754 -0.4665 -0.4597 -0.1429
   13SOL    HW1   38   2.362   0.686   1.810 -0.1912  2.6637 -1.1526
   13SOL    HW2   39   2.456   0.707   1.656  3.9534  1.4716 -0.5825
   14SOL     OW   40   1.875   0.064   0.686  0.5602 -0.1105 -0.5052
   14SOL    HW1   41   1.786   0.052   0.631  1.0304  0.4216 -1.6130
   14SOL    HW2   42   1.902  -0.014   0.751 -1.6272  0.0699  1.2762
   15SOL     OW   43   1.880   2.098   2.700  0.4620  0.0732 -0.6229
   15SOL    HW1   44   1.835   2.189   2.689 -1.2483 -1.7693 -0.1286
   15SOL    HW2   45   1.810   2.022   2.704  0.5115 -1.1320  0.2205
   16SOL     OW   46   1.583   1.691   2.999  0.2946  0.1667 -0.0489
   16SOL    HW1   47   1.577   1.611   3.059 -0.0845  2.4688  1.5386
   16SOL    HW2   48   1.656   1.757   3.029 -2.3344 -0.6769  0.0109
   17SOL     OW   49   0.097   0.469   0.157  0.5793 -0.1604  0.2204
   17SOL    HW1   50   0.168   0.462   0.082 -0.9087  2.8542  1.3571
   17SOL    HW2   51   0.006   0.491   0.118  4.2630 -0.7666  1.1687
   18SOL     OW   52   0.939   2.962   2.158 -0.1678 -0.3447  0.0570
   18SOL    HW1   53   0.869   2.891   2.189  0.7042 -0.3572 -3.1301
   18SOL    HW2   54   0.965   2.950   2.063 -1.1005 -0.1620  2.0282
   19SOL     OW   55   0.482   0.841   1.893  0.4177 -0.0374  0.2415
   19SOL    HW1   56   0.504   0.786   1.976 -0.4802  1.4586  0.0199
   19SOL    HW2   57   0.545   0.923   1.870 -0.7294 -0.9824 -3.1296
   20SOL     OW   58   0.200   2.826   0.860  0.1406 -0.0356 -0.1594
   20SOL    HW1   59   0.104   2.850   0.839  1.5729 -0.5192 -0.2794
   20SOL    HW2   60   0.221   2.729   0.836 -0.7250  1.8949 -0.1712
   21SOL     OW   61   2.750   0.254   1.967 -0.1275  0.0207 -0.3935
   21SOL    HW1   62   2.693   0.190   1.907  1.0360 -1.6148  1.3764
   21SOL    HW2   63   2.816   0.200   2.023 -0.5404  0.8401  1.5488
   22SOL     OW   64   2.326   0.201   0.149  0.2167  0.0071 -0.4234
   22SOL    HW1   65   2.360   0.105   0.122 -1.5720  1.4569  0.2475
   22SOL    HW2   66   2.269   0.246   0.077  0.5160 -2.8231  3.0855
   23SOL     OW   67   2.810   0.583   0.679  0.4137 -0.3725 -0.0324
   23SOL    HW1   68   2.818   0.487   0.642 -1.8428  1.7852 -0.1312
   23SOL    HW2   69   2.811   0.659   0.607  1.9337 -1.5446  0.9244
   24SOL     OW   70   0.231   1.922   0.450  0.5668  0.2794  0.3387
   24SOL    HW1   71   0.164   1.984   0.396 -1.2398 -2.5768  0.3684
   24SOL    HW2   72   0.325   1.925   0.412 -2.1118 -3.8031  1.1029
   25SOL     OW   73   2.216   0.627   0.203  0.2000 -0.2658  0.0349
   25SOL    HW1   74   2.201   0.622   0.099 -1.6213 -0.5938 -1.1734
   25SOL    HW2   75   2.266   0.544   0.242 -3.0589  0.4222  1.1017
   26SOL     OW   76   2.475   2.155   2.037  0.0482 -0.6416  0.4891
   26SOL    HW1   77   2.553   2.178   2.101  0.4029  0.0139 -2.6614
   26SOL    HW2   78   2.491   2.076   1.971 -0.1618  2.8937 -0.8627
   27SOL     OW   79   0.655   2.908   0.285  0.0601 -0.2353  0.2190
   27SOL    HW1   80   0.738   2.968   0.252  1.1532 -0.8898  0.9544
   27SOL    HW2   81   0.599   2.864   0.210 -0.2204  0.5423  0.0897
   28SOL     OW   82   1.577   0.151   0.298 -0.3774 -0.6160  0.4737
   28SOL    HW1   83   1.626   0.122   0.211  2.4001 -0.5858  1.4575
   28SOL    HW2   84   1.588   0.253   0.327 -1.8950  1.0313  0.4838
   29SOL     OW   85   1.969   0.561   0.288 -0.1869 -0.1547 -0.0017
   29SOL    HW1   86   1.925   0.636   0.347  0.1258 -0.1202 -1.4448
   29SOL    HW2   87   2.057   0.600   0.242 -3.3078  5.3890 -1.1842
   30SOL     OW   88   0.200   2.082   0.909 -0.0478 -0.1125 -0.2858
   30SOL    HW1   89   0.174   2.018   0.831 -3.2409 -0.0558  0.0822
   30SOL    HW2   90   0.130   2.157   0.922 -1.3951  0.4311 -1.8552
   31SOL     OW   91   2.113   0.090   2.388 -0.0361  0.0501  0.1152
   31SOL    HW1   92   2.067   0.049   2.471 -0.1828 -2.6993 -0.1114
   31SOL    HW2   93   2.080   0.046   2.296  0.4737 -0.1603 -2.6286
   32SOL     OW   94   2.960   0.036   0.238 -0.4271  0.3172  0.2332
   32SOL    HW1   95   2.960  -0.062   0.263 -2.1489  0.4764  0.9010
   32SOL    HW2   96   3.056   0.077   0.249 -3.5095 -0.7705 -0.2030
   33SOL     OW   97   0.878   0.319   0.618 -0.0196  0.1279 -0.5816
   33SOL    HW1   98   0.865   0.225   0.570 -1.5242 -1.3990  0.2552
   33SOL    HW2   99   0.979   0.340   0.629 -2.1519 -1.3849  1.8514
   34SOL     OW  100   0.337   2.713   1.107 -0.0865 -0.1084  0.5375
   34SOL    HW1  101   0.310   2.748   1.013  0.5302  0.4323  0.5185
   34SOL    HW2  102   0.425   2.755   1.135 -1.8509  0.1471  0.9691
   35SOL     OW  103   0.020   0.131   1.882 -0.7288  0.0180 -0.0911
   35SOL    HW1  104   0.080   0.048   1.903  0.5770 -0.0137  0.6785
   35SOL    HW2  105  -0.019   0.123   1.789 -2.3801 -0.6266  1.1196
   36SOL     OW  106   1.856   1.233   1.570 -0.0614 -0.5035 -0.6193
   36SOL    HW1  107   1.935   1.175   1.605  4.3044  1.7476  0.2424
   36SOL    HW2  108   1.899   1.313   1.520 -0.4592 -1.5372 -1.5517
   37SOL     OW  109   1.194   0.240   0.946  0.3466 -0.4111 -0.0844
   37SOL    HW1  110   1.250   0.321   0.992 -0.3462  1.1375 -0.0580
   37SOL    HW2  111   1.254   0.178   0.887 -1.2195 -0.9616  1.6597
   38SOL     OW  112   1.156   2.834   2.380  0.4608  1.0476 -0.3103
   38SOL    HW1  113   1.090   2.752   2.378 -1.2765  0.4175 -0.7878
   38SOL    HW2  114   1.110   2.922   2.343 -0.8671 -3.5333 -1.8926
   39SOL     OW  115   2.319   1.385   3.033  0.1489 -0.7651 -0.3148
   39SOL    HW1  116   2.394   1.316   3.033 -0.4979  0.7319  0.0151
   39SOL    HW2  117   2.287   1.406   3.127  2.0734  0.0569 -2.1465
   40SOL     OW  118   1.980   2.469   2.636 -0.0227  0.0728 -0.3604
   40SOL    HW1  119   1.962   2.568   2.619 -1.7468  0.0443  0.5324
   40SOL    HW2  120   1.956   2.407   2.554 -0.7712  1.1621 -1.3427
   41SOL     OW  121   3.016   0.648   2.812  0.1581 -0.3676  0.3366
   41SOL    HW1  122   2.913   0.666   2.794  1.0203  1.5471 -2.1364
   41SOL    HW2  123   3.047   0.556   2.774  1.1047  2.5372  1.0409
   42SOL     OW  124   1.728   1.798   0.487  0.3162  0.5402  0.1043
   42SOL    HW1  125   1.693   1.698   0.474  0.1599 -3.2780  0.6119
   42SOL    HW2  126   1.736   1.853   0.399 -0.6006 -1.7314 -0.1478
   43SOL     OW  127   0.439   1.681   1.184  0.4237 -0.3254  0.5255
   43SOL    HW1  128   0.440   1.588   1.143 -2.0750 -2.8028 -0.1124
   43SOL    HW2  129   0.378   1.684   1.268  2.3620 -1.4083 -0.2201
   44SOL     OW  130   1.691   2.343   3.005 -0.0167  0.3989  0.3075
   44SOL    HW1  131   1.643   2.430   3.030  1.1208 -1.8188 -0.1211
   44SOL    HW2  132   1.735   2.353   2.914 -1.1949  2.2266  1.2161
   45SOL     OW  133   0.344   1.887   2.585 -0.1171  0.5189 -0.2809
   45SOL    HW1  134   0.309   1.880   2.490  0.9297 -1.2965 -0.3836
   45SOL    HW2  135   0.399   1.802   2.611 -0.0406  0.6011 -1.0700
   46SOL     OW  136   1.269   0.638   0.141 -0.2140  0.2139 -0.1729
   46SOL    HW1  137   1.242   0.734   0.118  1.1493  1.5313  2.3261
   46SOL    HW2  138   1.185   0.574   0.156 -1.3857  1.8698  0.4317
   47SOL     OW  139   0.205   2.504   1.592 -0.3231 -0.2896  0.2996
   47SOL    HW1  140   0.175   2.406   1.579  0.5242  0.3283 -0.7584
   47SOL    HW2  141   0.235   2.539   1.498 -0.0913 -1.8863 -2.6999
   48SOL     OW  142   2.624   0.615   0.141  0.4189 -0.2715  0.2036
   48SOL    HW1  143   2.622   0.608   0.243  1.1602 -1.9746 -3.0068
   48SOL    HW2  144   2.713   0.664   0.112 -0.0914 -1.4174  0.3573
   49SOL     OW  145   0.315   0.749   1.648  0.0045  0.4183  0.0984
   49SOL    HW1  146   0.388   0.769   1.717 -0.1274 -1.0500  1.0538
   49SOL    HW2  147   0.365   0.716   1.563 -1.6544  0.6968  1.1523
   50SOL     OW  148   1.694   1.107   0.326  0.1973  0.1615 -0.3434
   50SOL    HW1  149   1.715   1.047   0.248 -1.4466  2.1529  1.1570
   50SOL    HW2  150   1.629   1.066   0.391  1.4236  1.0340 -0.9013
   51SOL     OW  151   2.988   1.733   0.259  0.2051  0.0766 -0.2481
   51SOL    HW1  152   2.957   1.671   0.184 -0.5511  1.3685  2.2197
   51SOL    HW2  153   3.055   1.688   0.324  1.5836 -2.3021 -1.8373
   52SOL     OW  154   0.809   2.142   0.622 -0.0147  0.4257  0.0157
   52SOL    HW1  155   0.777   2.196   0.704  3.4877 -0.9291 -1.2252
   52SOL    HW2  156   0.833   2.045   0.649 -0.1847 -0.8114  0.0585
   53SOL     OW  157   0.178   0.467   1.586  0.0176 -0.1991 -0.2487
   53SOL    HW1  158   0.255   0.526   1.561  1.0343 -1.0503 -0.3325
   53SOL    HW2  159   0.102   0.476   1.518  0.1389 -2.9714  0.3335
   54SOL     OW  160   1.796   0.502   3.036  0.0803 -0.0918  0.5672
   54SOL    HW1  161   1.865   0.439   3.088  0.1488  0.5562 -0.1486
   54SOL    HW2  162   1.710   0.517   3.093  1.1035  0.3845 -2.7476
   55SOL     OW  163   0.767   2.869   0.692  0.0089  0.1092  0.5210
   55SOL    HW1  164   0.723   2.966   0.683  1.5144  2.6143  2.4223
   55SOL    HW2  165   0.849   2.848   0.630  1.0308 -2.4759  1.8887
   56SOL     OW  166   0.582   1.591   0.031 -0.5565  0.0995  0.2386
   56SOL    HW1  167   0.495   1.621   0.078 -0.7551  0.5771 -1.2434
   56SOL    HW2  168   0.563   1.500  -0.020 -2.4260  0.9694  1.2970
   57SOL     OW  169   1.735   2.518   2.366  0.4732 -0.1912  0.4935
   57SOL    HW1  170   1.800   2.440   2.366  3.7413 -0.3732  0.1806
   57SOL    HW2  171   1.670   2.517   2.444  2.5670 -2.3126 -1.6494
   58SOL     OW  172   0.672   0.265   1.100 -0.4699 -0.5605  0.8621
   58SOL    HW1  173   0.590   0.287   1.160 -0.6481  1.2496  2.4209
   58SOL    HW2  174   0.714   0.167   1.114 -0.4997 -3.2086  1.2144
   59SOL     OW  175   0.383   2.358   2.728  0.3981  0.4165  0.5650
   59SOL    HW1  176   0.405   2.280   2.660  0.8394 -0.5574 -0.8292
   59SOL    HW2  177   0.464   2.364   2.788  0.0384  1.7362 -2.1718
   60SOL     OW  178   2.322   2.102   2.319  0.2369  0.2503  0.3330
   60SOL    HW1  179   2.348   2.137   2.227  0.6349 -1.8273  1.0016
   60SOL    HW2  180   2.361   2.152   2.398 -0.5576 -1.0095 -2.8493
   61SOL     OW  181   1.260   0.593   0.422 -0.5477  0.0912  0.1937
   61SOL    HW1  182   1.166   0.641   0.423  2.1392 -3.3957 -2.1882
   61SOL    HW2  183   1.296   0.584   0.326 -0.0361  1.8306  0.8514
   62SOL     OW  184   2.737   1.738   2.884 -0.2905 -0.4343 -0.5388
   62SOL    HW1  185   2.704   1.738   2.788  1.1197  1.6316 -0.0884
   62SOL    HW2  186   2.834   1.699   2.885 -0.2629 -0.3197 -1.6714
   63SOL     OW  187   0.569   0.850   0.208  0.4523  0.7197  0.4046
   63SOL    HW1  188   0.606   0.920   0.140 -0.5056  1.9957  1.5862
   63SOL    HW2  189   0.616   0.856   0.301  1.6253  1.8554 -0.6388
   64SOL     OW  190   3.074   0.526   2.464 -1.0212  1.0097 -0.4076
   64SOL    HW1  191   3.001   0.569   2.522 -0.5977 -1.0978 -1.7149
   64SOL    HW2  192   3.095   0.563   2.371  1.7227 -0.4318 -0.6583
   65SOL     OW  193   0.222   1.493   0.666  0.4249 -0.5556  0.6220
   65SOL    HW1  194   0.213   1.563   0.748 -0.1103 -0.4951  0.9526
   65SOL    HW2  195   0.299   1.499   0.599  0.8879 -0.8090 -1.6384
   66SOL     OW  196   2.515   0.382   0.553 -0.4816  0.5208 -0.2785
   66SOL    HW1  197   2.617   0.350   0.563  1.9809 -3.3791 -0.4306
   66SOL    HW2  198   2.457   0.338   0.628  1.0023 -2.0151 -1.8243
   67SOL     OW  199   0.617   2.459   1.416 -0.0124  0.3066  0.0864
   67SOL    HW1  200   0.704   2.437   1.474 -0.1470  0.1154  1.1489
   67SOL    HW2  201   0.544   2.388   1.429  1.8670 -1.9920 -1.8352
   68SOL     OW  202   0.972   1.025   2.524  0.2995 -0.6725  0.2306
   68SOL    HW1  203   1.034   0.948   2.513 -2.9162  0.6466  0.3520
   68SOL    HW2  204   0.946   1.066   2.435  3.0448 -1.7780  2.3323
   69SOL     OW  205   0.716   2.775   2.206  0.9133 -0.3683  0.4231
   69SOL    HW1  206   0.770   2.690   2.185  1.3298  0.2233  2.4043
   69SOL    HW2  207   0.616   2.772   2.176 -2.2356 -0.3612 -1.2964
   70SOL     OW  208   0.456   0.132   2.574 -0.0369 -0.4759 -0.0717
   70SOL    HW1  209   0.363   0.129   2.624 -2.9587 -2.1793 -1.1579
   70SOL    HW2  210   0.519   0.050   2.604  0.2090 -0.3431 -1.0238
   71SOL     OW  211   1.112   1.799   0.373  0.3897 -0.3205 -0.4954
   71SOL    HW1  212   1.070   1.718   0.423 -1.4117 -0.4923  1.9823
   71SOL    HW2  213   1.068   1.807   0.279  3.1802 -1.8500  1.5563
   72SOL     OW  214   1.830   0.176   2.171  0.2690 -0.2092  0.1246
   72SOL    HW1  215   1.881   0.264   2.186 -3.9457 -2.4680  2.0003
   72SOL    HW2  216   1.888   0.085   2.184 -1.4161 -4.1173 -2.0359
   73SOL     OW  217   2.808   2.165   2.356 -0.0030 -0.5897 -0.0727
   73SOL    HW1  218   2.774   2.066   2.339  0.2532 -1.6372  2.1305
   73SOL    HW2  219   2.847   2.181   2.450  0.4807  0.8446 -2.6888
   74SOL     OW  220   2.627   2.861   2.193  0.0705 -0.0583 -0.0625
   74SOL    HW1  221   2.611   2.807   2.275 -0.3434  2.8340 -0.5829
   74SOL    HW2  222   2.728   2.893   2.173  0.5088  1.3550  1.5834
   75SOL     OW  223   0.982   0.847   1.065  0.1369  0.0142  0.0232
   75SOL    HW1  224   0.900   0.893   1.021 -1.9455  2.2215  0.3250
   75SOL    HW2  225   0.984   0.873   1.164 -3.5610  0.8109  0.5724
   76SOL     OW  226   1.789   1.220   2.468  0.3811 -0.0855 -0.3063
   76SOL    HW1  227   1.691   1.200   2.445  1.8640  1.2485  2.6160
   76SOL    HW2  228   1.799   1.303   2.531 -0.5756 -1.3526 -0.6681
   77SOL     OW  229   2.950   0.932   1.023 -0.0230 -0.2156  0.1983
   77SOL    HW1  230   2.915   0.837   1.002  1.0046 -1.4410 -0.9888
   77SOL    HW2  231   3.000   0.931   1.114  0.9123 -1.9112 -0.2422
   78SOL     OW  232   1.987   1.453   1.446 -0.0862 -0.7963 -0.2222
   78SOL    HW1  233   2.087   1.440   1.423  0.3158 -1.0893  0.0445
   78SOL    HW2  234   1.928   1.495   1.370  2.2775  0.9592 -1.6755
   79SOL     OW  235   0.625   1.429   0.788 -0.2072  0.2869 -0.0761
   79SOL    HW1  236   0.543   1.391   0.842 -0.7959 -3.2619 -0.2637
   79SOL    HW2  237   0.655   1.359   0.718 -1.7702 -1.7846  2.6883
   80SOL     OW  238   0.654   0.460   1.544  0.0771  0.0371  0.0879
   80SOL    HW1  239   0.707   0.528   1.480  0.2273  0.3342 -1.2681
   80SOL    HW2  240   0.675   0.362   1.520  1.1786 -0.7530 -0.6838
   81SOL     OW  241   1.006   1.289   2.606 -0.2909  0.5134  0.2158
   81SOL    HW1  242   1.014   1.189   2.572 -0.8739 -1.0494 -1.3576
   81SOL    HW2  243   0.931   1.339   2.553 -0.8150  0.5626 -0.9853
   82SOL     OW  244   0.918   2.965   1.491  0.6296 -1.1830  0.0057
   82SOL    HW1  245   0.833   2.989   1.434  0.2227 -0.0627  0.3047
   82SOL    HW2  246   1.003   2.944   1.433  2.4019 -0.3177 -0.6268
   83SOL     OW  247   2.588   2.372   0.859  0.0192  0.0981  0.1094
   83SOL    HW1  248   2.565   2.414   0.950 -1.5905 -1.9900  1.1368
   83SOL    HW2  249   2.513   2.389   0.782 -2.4143 -2.3068 -1.2882
   84SOL     OW  250   0.733   3.081   2.391 -0.0106  0.2307  0.2653
   84SOL    HW1  251   0.683   3.072   2.480  0.1530 -0.5770 -1.0758
   84SOL    HW2  252   0.815   3.014   2.378  1.4819 -0.9823 -3.1812
   85SOL     OW  253   0.256   1.626   1.459 -0.1207 -0.4061 -0.0216
   85SOL    HW1  254   0.254   1.730   1.447 -0.0694 -4.0162  1.3148
   85SOL    HW2  255   0.294   1.596   1.550 -2.1917  1.3630 -0.2819
   86SOL     OW  256   0.462   1.090   1.477 -0.5431 -0.0893  0.3938
   86SOL    HW1  257   0.419   1.032   1.402  0.7795 -1.7137 -1.0401
   86SOL    HW2  258   0.552   1.046   1.505  2.6882  0.2935 -0.1249
   87SOL     OW  259   1.660   0.668   0.281 -0.1275  0.2452  0.1572
   87SOL    HW1  260   1.724   0.744   0.258  1.3506  1.3906  1.0859
   87SOL    HW2  261   1.607   0.631   0.194 -4.1946 -0.0801 -1.1220
   88SOL     OW  262   1.583   1.348   0.266 -0.7358 -0.3869  0.0869
   88SOL    HW1  263   1.639   1.269   0.309  0.5637 -0.2193 -2.0501
   88SOL    HW2  264   1.480   1.331   0.274 -0.3170  0.9909  1.4229
   89SOL     OW  265   3.091   0.385   0.603  0.1005 -0.1947  0.1517
   89SOL    HW1  266   3.142   0.294   0.593 -0.1514 -1.2829 -0.6206
   89SOL    HW2  267   2.991   0.378   0.591 -2.4322 -0.8527 -1.1508
   90SOL     OW  268   0.846   1.566   0.086 -0.0001 -0.1967  0.7507
   90SOL    HW1  269   0.892   1.472   0.094 -0.4561  0.1559 -2.6886
   90SOL    HW2  270   0.750   1.557   0.045 -0.3601 -0.1015  0.3944
   91SOL     OW  271   1.220   1.456   1.780 -0.4952  0.0264 -0.2350
   91SOL    HW1  272   1.178   1.512   1.856  2.7742 -2.5102 -0.1025
   91SOL    HW2  273   1.320   1.435   1.800 -0.5917 -0.3663  0.5812
   92SOL     OW  274   0.011   0.952   1.253  0.3840 -0.2123 -0.2151
   92SOL    HW1  275   0.089   1.014   1.228 -0.7809  2.1856 -0.0602
   92SOL    HW2  276   0.004   0.951   1.356 -1.6953 -0.9087 -0.2030
   93SOL     OW  277   3.049   2.715   0.052  0.2103 -0.2791  0.4714
   93SOL    HW1  278   3.018   2.716  -0.045  0.1448 -1.1657 -0.0987
   93SOL    HW2  279   3.076   2.619   0.076  2.8445  0.0182 -1.4973
   94SOL     OW  280   1.484   1.454   1.790  0.2124 -0.1689 -0.3975
   94SOL    HW1  281   1.569   1.396   1.780 -0.0838 -0.9627  1.3511
   94SOL    HW2  282   1.518   1.549   1.817  0.1045 -0.0803 -1.1558
   95SOL     OW  283   1.469   2.507   2.963 -0.7141 -0.1614  0.1304
   95SOL    HW1  284   1.391   2.532   3.030 -2.3154 -0.9453 -0.0512
   95SOL    HW2  285   1.450   2.421   2.914  1.1679  3.1051  0.1961
   96SOL     OW  286   0.557   2.105   1.312  0.2954 -0.1757  0.2649
   96SOL    HW1  287   0.510   2.070   1.225 -1.2660  0.0265 -0.2046
   96SOL    HW2  288   0.628   2.036   1.349  0.0118  0.6797  0.3598
   97SOL     OW  289   0.313   1.597   2.460 -0.1468 -0.2071  0.0600
   97SOL    HW1  290   0.290   1.656   2.380  1.6627 -0.8638  0.0205
   97SOL    HW2  291   0.281   1.639   2.551 -0.7691  0.6091  1.6231
   98SOL     OW  292   2.115   1.595   1.221  0.5123  0.0589  0.0223
   98SOL    HW1  293   2.020   1.562   1.188  0.0499  0.3958  0.0696
   98SOL    HW2  294   2.192   1.568   1.153  3.0941  1.0490 -0.0588
   99SOL     OW  295   2.568   2.071   1.288  0.2787  0.3218  0.0378
   99SOL    HW1  296   2.644   2.057   1.362  0.9341  0.7885 -1.9377
   99SOL    HW2  297   2.506   1.987   1.285  2.7720 -1.0554 -0.6535
  100SOL     OW  298   2.280   0.406   2.075 -0.0210  0.0975  0.4829
  100SOL    HW1  299   2.221   0.364   2.154 -2.9555 -0.0379 -0.0450
  100SOL    HW2  300   2.377   0.437   2.107 -0.4666  0.3857  2.2151
  101SOL     OW  301   0.438   1.506   0.449 -0.9135  0.1584  0.2239
  101SOL    HW1  302   0.444   1.580   0.518 -0.9637 -1.3769  0.3978
  101SOL    HW2  303   0.503   1.521   0.368  1.1701  1.1513 -0.4771
  102SOL     OW  304   2.286   1.084   0.835  0.1072 -0.4916 -0.0453
  102SOL    HW1  305   2.212   1.040   0.785 -0.1237  0.9753  0.5561
  102SOL    HW2  306   2.376   1.092   0.784 -0.9862 -0.1692  2.9107
  103SOL     OW  307   2.217   0.119   0.389 -0.3260 -0.0344 -0.1829
  103SOL    HW1  308   2.249   0.153   0.296  0.5138 -0.3649  1.4158
  103SOL    HW2  309   2.303   0.094   0.441 -0.1376  1.9415  2.3434
  104SOL     OW  310   0.052   1.896   2.107  0.1438  0.3169 -0.3040
  104SOL    HW1  311   0.082   1.853   2.020 -2.5661  2.2476  0.9206
  104SOL    HW2  312  -0.052   1.900   2.110 -1.2827  0.4847 -1.0380
  105SOL     OW  313   1.262   2.121   0.808 -0.3683  0.0849  0.3383
  105SOL    HW1  314   1.244   2.197   0.737 -2.3573 -0.9810 -2.0414
  105SOL    HW2  315   1.277   2.029   0.763  0.6033 -0.9397 -0.2335
  106SOL     OW  316   2.110   0.354   1.447 -0.4692  0.1361  0.2122
  106SOL    HW1  317   2.098   0.252   1.453  0.6738 -0.8088  2.5399
  106SOL    HW2  318   2.105   0.395   1.540 -1.5379  2.2751  0.1147
  107SOL     OW  319   1.924   2.943   1.210  0.2927  0.1762 -0.6163
  107SOL    HW1  320   1.905   3.045   1.231  0.9065 -1.8624 -0.9222
  107SOL    HW2  321   1.836   2.890   1.200  1.7396  0.4267 -0.1422
  108SOL     OW  322   0.848   2.809   1.230  0.5743  0.0677 -0.7757
  108SOL    HW1  323   0.879   2.716   1.261 -1.5634  1.7788  3.5831
  108SOL    HW2  324   0.932   2.868   1.225  2.2324 -1.5633 -0.8144
  109SOL     OW  325   2.130   0.143   0.753  0.0271  0.0785  0.2938
  109SOL    HW1  326   2.027   0.134   0.736  0.5479 -0.9508  0.5796
  109SOL    HW2  327   2.160   0.092   0.838  0.5617  2.1312  0.2200
  110SOL     OW  328   0.442   2.799   2.772  0.3180 -0.0718 -0.1554
  110SOL    HW1  329   0.427   2.764   2.670  0.2753 -0.2343 -2.0493
  110SOL    HW2  330   0.515   2.749   2.822 -1.6389  1.0176  0.4087
  111SOL     OW  331   1.266   0.469   2.316 -0.0198  0.5379 -0.0906
  111SOL    HW1  332   1.189   0.513   2.366  0.9418 -1.1658  0.7312
  111SOL    HW2  333   1.333   0.414   2.384  1.9658 -1.0409  0.2877
  112SOL     OW  334   1.766   0.458   1.489 -0.2310 -0.5022 -0.3692
  112SOL    HW1  335   1.739   0.469   1.389 -0.5718  0.1515  1.9403
  112SOL    HW2  336   1.685   0.439   1.548 -0.5421  2.0464 -3.0328
  113SOL     OW  337   2.351   1.652   1.721  0.2891  0.9344 -0.1096
  113SOL    HW1  338   2.431   1.586   1.732  1.8003 -0.4605  0.3375
  113SOL    HW2  339   2.330   1.707   1.809  0.5457  3.7477  1.2794
  114SOL     OW  340   0.327   0.554   1.216 -0.3605 -0.4350  0.1435
  114SOL    HW1  341   0.376   0.608   1.140 -1.4404 -0.2138 -0.5657
  114SOL    HW2  342   0.241   0.591   1.249  2.7336 -0.9974  0.0651
  115SOL     OW  343   2.789   1.590   1.292  0.8700 -0.6457 -0.2090
  115SOL    HW1  344   2.755   1.490   1.324  0.5721 -0.0449 -0.2747
  115SOL    HW2  345   2.873   1.577   1.232  1.8218 -0.9490 -0.3685
  116SOL     OW  346   1.835   1.012   0.635  0.5908 -0.7593  0.5046
  116SOL    HW1  347   1.740   0.979   0.643 -1.7569 -1.5674 -1.9252
  116SOL    HW2  348   1.850   1.110   0.662  1.6775  2.7259 -2.6968
  117SOL     OW  349   1.163   0.358   0.573  0.4246  0.2446 -0.6811
  117SOL    HW1  350   1.213   0.451   0.562  2.7573  2.2616 -1.4804
  117SOL    HW2  351   1.142   0.315   0.483  0.9779 -0.2922  2.4488
  118SOL     OW  352   1.060   1.203   1.108 -0.1406  0.2933 -0.8241
  118SOL    HW1  353   1.042   1.121   1.173 -0.7423  0.1922  1.7658
  118SOL    HW2  354   1.123   1.278   1.149  0.1670  3.3413 -0.1007
  119SOL     OW  355   1.833   1.592   2.188  0.2375  0.3130  0.1857
  119SOL    HW1  356   1.816   1.696   2.183 -0.7722  1.2078  1.5943
  119SOL    HW2  357   1.934   1.565   2.178 -0.4018  1.0968  0.8104
  120SOL     OW  358   2.893   2.836   0.223  0.0859 -0.3870  0.2560
  120SOL    HW1  359   2.967   2.785   0.166 -2.0553 -1.1297  0.2769
  120SOL    HW2  360   2.799   2.792   0.206  1.4718  0.3312 -1.0580
  121SOL     OW  361   1.882   0.716   2.186 -0.2473  0.3922 -1.0464
  121SOL    HW1  362   1.903   0.772   2.100 -1.3937 -3.4713 -2.6296
  121SOL    HW2  363   1.862   0.616   2.166 -1.4633  1.1365  1.7050
  122SOL     OW  364   2.649   2.555   1.338  0.0329 -0.1961  0.2861
  122SOL    HW1  365   2.636   2.589   1.244 -0.0439  0.4029  1.1561
  122SOL    HW2  366   2.604   2.462   1.346 -0.2118  2.5168  2.0616
  123SOL     OW  367   1.720   0.096   1.705  0.0065  1.1393  0.1612
  123SOL    HW1  368   1.713   0.000   1.664 -0.6157 -2.2028  0.1777
  123SOL    HW2  369   1.821   0.122   1.737 -0.4032  0.8676  1.4001
  124SOL     OW  370   3.103   0.440   1.080 -0.5105  0.1949  0.3395
  124SOL    HW1  371   3.019   0.492   1.120 -0.3547  0.2408 -2.3685
  124SOL    HW2  372   3.123   0.479   0.984 -0.2664  1.1265 -0.6714
  125SOL     OW  373   0.909   1.932   0.758  0.1554 -0.0417  0.4099
  125SOL    HW1  374   0.993   1.869   0.773 -1.9855  0.0344 -1.3362
  125SOL    HW2  375   0.841   1.921   0.833  0.4358 -1.3146  1.0947
  126SOL     OW  376   1.878   2.286   2.401  0.5696  0.2131 -0.1233
  126SOL    HW1  377   1.953   2.243   2.347  0.7680  2.0501  2.4272
  126SOL    HW2  378   1.799   2.228   2.435  1.3727 -1.7086 -0.7599
  127SOL     OW  379   0.910   0.947   0.196 -0.2872  0.1170  0.2453
  127SOL    HW1  380   0.919   0.986   0.289  0.2022 -0.4673 -0.6453
  127SOL    HW2  381   0.922   0.845   0.194  0.5540 -0.6522 -1.8128
  128SOL     OW  382   0.933   0.262   1.420  0.1822 -0.6972  0.0847
  128SOL    HW1  383   0.917   0.341   1.356  1.2256 -2.8741  0.7168
  128SOL    HW2  384   0.887   0.182   1.383  1.3839  3.2316 -2.4562
  129SOL     OW  385   1.852   0.688   1.839 -0.0474  0.1066 -0.0343
  129SOL    HW1  386   1.877   0.692   1.740  0.5226 -0.1226 -2.7888
  129SOL    HW2  387   1.883   0.770   1.894  0.4709  0.8365 -0.0913
  130SOL     OW  388   1.439   2.179   1.019  0.0884  0.6878 -0.2086
  130SOL    HW1  389   1.377   2.158   0.941  2.1540 -1.2223  2.5105
  130SOL    HW2  390   1.485   2.271   1.009 -1.5420  0.8284  0.3934
  131SOL     OW  391   3.015   1.350   1.366 -0.4051  0.2102 -0.4794
  131SOL    HW1  392   2.962   1.274   1.417  3.3413  0.5086  0.2279
  131SOL    HW2  393   3.112   1.316   1.347 -1.1804 -0.6707  0.7839
  132SOL     OW  394   2.038   2.400   0.465  0.3539 -0.4870  0.5945
  132SOL    HW1  395   1.940   2.436   0.476 -1.7529 -0.3459  0.6799
  132SOL    HW2  396   2.069   2.351   0.549 -1.0145 -0.9346 -2.5400
  133SOL     OW  397   1.751   2.360   2.726  0.2772 -0.0074  0.2924
  133SOL    HW1  398   1.658   2.366   2.686  0.5705 -3.1144  4.2305
  133SOL    HW2  399   1.821   2.421   2.685 -1.4469  0.4822  0.6769
  134SOL     OW  400   2.671   2.308   1.599 -0.0909  0.4883 -0.2289
  134SOL    HW1  401   2.610   2.316   1.684  0.2915  2.6534  0.6823
  134SOL    HW2  402   2.751   2.375   1.611  1.5403 -0.1494  0.6319
  135SOL     OW  403   0.721   1.473   2.654 -0.1689 -0.2263 -0.4129
  135SOL    HW1  404   0.662   1.394   2.685 -1.9033 -0.3282 -0.4955
  135SOL    HW2  405   0.746   1.453   2.554  1.0676  1.7428  0.8080
  136SOL     OW  406   1.249   2.032   0.500  0.5102 -0.0752  0.4000
  136SOL    HW1  407   1.181   2.107   0.486  1.7884  0.9630 -1.6577
  136SOL    HW2  408   1.211   1.940   0.470 -1.0154  2.3594 -1.9614
  137SOL     OW  409   0.436   1.208   2.251 -0.1742  0.4552  0.2057
  137SOL    HW1  410   0.332   1.192   2.253  0.8778 -2.7085  0.2582
  137SOL    HW2  411   0.497   1.128   2.266  1.9149 -0.3900  1.4363
  138SOL     OW  412   2.500   1.494   0.277 -0.4729  0.3385  0.1603
  138SOL    HW1  413   2.421   1.424   0.263 -0.9061 -1.2927  0.6222
  138SOL    HW2  414   2.598   1.453   0.288  1.4495  0.8067 -0.0948
  139SOL     OW  415   1.890   2.622   1.491 -0.3171  0.2802  0.3286
  139SOL    HW1  416   1.804   2.676   1.485  1.4802 -0.5357 -1.3993
  139SOL    HW2  417   1.883   2.538   1.433  0.6084  2.2694  1.1523
  140SOL     OW  418   3.018   2.975   2.554  0.3269  0.4042  0.5306
  140SOL    HW1  419   3.056   2.881   2.571 -0.2841 -2.6302 -1.6781
  140SOL    HW2  420   3.090   3.038   2.521  1.2988 -1.3364 -1.1246
  141SOL     OW  421   1.311   1.681   1.611 -0.0463 -0.7773 -0.9589
  141SOL    HW1  422   1.234   1.750   1.620 -0.5231 -0.9817 -1.7988
  141SOL    HW2  423   1.288   1.590   1.652 -2.2319 -0.4012 -2.8046
  142SOL     OW  424   1.529   0.583   2.265 -0.0940  0.0857  0.4678
  142SOL    HW1  425   1.530   0.577   2.160 -0.8991  0.5708 -1.0814
  142SOL    HW2  426   1.432   0.563   2.295 -0.0110  0.9845  0.7024
  143SOL     OW  427   2.790   0.897   0.503 -0.0621 -0.3354  0.6728
  143SOL    HW1  428   2.838   0.930   0.419 -0.8686 -1.1023 -2.9705
  143SOL    HW2  429   2.842   0.924   0.594  1.1660 -0.0652  2.0973
  144SOL     OW  430   2.881   1.146   1.523 -0.2854  0.1489  0.0130
  144SOL    HW1  431   2.831   1.145   1.614  0.6922 -1.4670  0.8323
  144SOL    HW2  432   2.957   1.080   1.528 -2.2764  1.1770 -0.5370
  145SOL     OW  433   0.998   1.811   0.115 -0.7340  0.3949  0.1227
  145SOL    HW1  434   0.988   1.890   0.055  2.0563 -1.1304 -0.1289
  145SOL    HW2  435   0.960   1.722   0.076 -0.2726  0.6907 -1.1907
  146SOL     OW  436   2.446   0.675   1.481  0.0989  0.3274 -0.2775
  146SOL    HW1  437   2.401   0.589   1.450 -1.7864  0.4187 -1.1837
  146SOL    HW2  438   2.404   0.756   1.434 -0.7777  1.9789  0.1684
  147SOL     OW  439   1.074   2.528   0.589 -0.3143 -1.0628  0.2139
  147SOL    HW1  440   1.018   2.577   0.520  2.0839 -0.7552 -0.6016
  147SOL    HW2  441   1.157   2.484   0.545  2.1954 -0.8240 -0.9586
  148SOL     OW  442   1.629   1.428   0.001  0.1965  0.0047 -0.2927
  148SOL    HW1  443   1.596   1.355  -0.068  0.8422 -0.1939 -1.7955
  148SOL    HW2  444   1.591   1.412   0.097  0.9210 -1.0615  0.2080
  149SOL     OW  445   0.628   1.474   1.958  0.1165  0.7004  0.8087
  149SOL    HW1  446   0.535   1.449   2.003  0.2699 -0.6697 -1.4107
  149SOL    HW2  447   0.675   1.397   1.907  0.2257  3.4654  0.8581
  150SOL     OW  448   3.009   1.228   0.995  0.0629 -0.2285 -0.0465
  150SOL    HW1  449   3.100   1.215   1.043  0.5521  3.1149  1.7928
  150SOL    HW2  450   2.950   1.143   1.001 -2.0352 -1.3951 -0.7006
  151SOL     OW  451   0.191   0.762   2.076 -0.0088  0.9008 -0.2843
  151SOL    HW1  452   0.164   0.833   2.008  2.0278  0.1913  0.3042
  151SOL    HW2  453   0.251   0.690   2.030  1.6997  2.4343  2.0481
  152SOL     OW  454   1.455   1.806   1.173 -0.5077  0.0132  0.2823
  152SOL    HW1  455   1.514   1.895   1.185 -0.9460  2.8726  2.8891
  152SOL    HW2  456   1.355   1.823   1.161  0.3206 -0.9322  0.0215
  153SOL     OW  457   0.172   1.509   0.227  0.2502 -0.9336 -0.1715
  153SOL    HW1  458   0.140   1.411   0.223 -0.7551  0.1563  0.5437
  153SOL    HW2  459   0.164   1.551   0.324 -1.3202  1.2421 -3.2824
  154SOL     OW  460   2.350   1.893   2.823 -0.4615  0.1830 -0.4020
  154SOL    HW1  461   2.392   1.804   2.848  0.0730 -0.3275  0.1802
  154SOL    HW2  462   2.407   1.954   2.760 -0.1031 -0.7909  0.5901
  155SOL     OW  463   2.527   1.208   0.401  0.2385  1.0186 -0.5342
  155SOL    HW1  464   2.613   1.201   0.348  0.1328  2.4218 -1.1464
  155SOL    HW2  465   2.442   1.168   0.355 -2.1267  2.5886 -1.9059
  156SOL     OW  466   2.481   0.827   0.747  0.2794 -0.1396  0.4014
  156SOL    HW1  467   2.390   0.800   0.790 -0.6567 -1.8521  0.8136
  156SOL    HW2  468   2.481   0.895   0.670 -2.1747 -1.7467 -1.0315
  157SOL     OW  469   1.243   3.013   2.979 -0.0107 -0.0982 -0.2970
  157SOL    HW1  470   1.281   2.961   2.904 -0.9376  1.4198  2.9943
  157SOL    HW2  471   1.290   3.107   2.993  1.5706  0.5773 -1.3590
  158SOL     OW  472   0.970   1.878   1.834  0.1827  0.4864 -0.0674
  158SOL    HW1  473   1.026   1.965   1.832  1.7420 -0.2064 -0.9294
  158SOL    HW2  474   0.891   1.879   1.902 -1.0606 -0.2235 -1.6434
  159SOL     OW  475   0.853   0.431   1.212 -0.2521  0.1439  0.5175
  159SOL    HW1  476   0.805   0.512   1.246 -3.0957 -2.0423 -3.3910
  159SOL    HW2  477   0.786   0.375   1.152  0.8359 -0.6140  0.1529
  160SOL     OW  478   1.363   2.463   1.548  0.2706  0.1910 -0.2980
  160SOL    HW1  479   1.328   2.370   1.572  2.3810  1.0635 -2.6304
  160SOL    HW2  480   1.464   2.459   1.534 -0.2428 -3.0650 -0.7679
  161SOL     OW  481   3.060   2.788   0.454 -0.0210 -0.6811 -0.2374
  161SOL    HW1  482   2.973   2.784   0.519 -1.8177 -2.3315 -0.3988
  161SOL    HW2  483   3.040   2.792   0.349  1.5452 -0.3721 -0.1311
  162SOL     OW  484   2.566   1.826   0.476 -0.1056 -0.3152 -0.2327
  162SOL    HW1  485   2.558   1.829   0.373  0.0012  0.9632 -0.2043
  162SOL    HW2  486   2.560   1.730   0.509 -1.5157 -0.8008  2.9528
  163SOL     OW  487   1.967   2.687   0.732  0.2315 -0.3496  0.6314
  163SOL    HW1  488   1.936   2.707   0.633  1.0060 -0.5070 -0.9213
  163SOL    HW2  489   2.050   2.629   0.742 -1.4728 -0.8066  0.0495
  164SOL     OW  490   3.077   0.258   1.269  0.1537  0.6326 -0.2960
  164SOL    HW1  491   3.098   0.333   1.199 -2.7478 -0.6777  0.5700
  164SOL    HW2  492   3.159   0.234   1.329 -2.6984  0.0179  0.3124
  165SOL     OW  493   1.063   1.410   0.715  0.5815  0.3123 -0.5643
  165SOL    HW1  494   1.011   1.460   0.787 -0.4567  1.3582 -3.5656
  165SOL    HW2  495   1.067   1.465   0.627 -1.3577  1.9271 -1.9884
  166SOL     OW  496   1.587   1.018   1.789  0.1470  0.1487 -0.2915
  166SOL    HW1  497   1.492   1.015   1.822  0.6678  0.8661 -1.8862
  166SOL    HW2  498   1.633   1.108   1.804 -2.2022  1.3738  1.5110
  167SOL     OW  499   0.757   1.963   1.450  0.5590 -0.0544  0.0827
  167SOL    HW1  500   0.790   2.035   1.520 -0.2297 -2.8922  0.6261
  167SOL    HW2  501   0.715   1.880   1.497  0.0161  2.5932 -2.0155
  168SOL     OW  502   1.600   2.343   0.178 -0.1541  0.1997 -0.6473
  168SOL    HW1  503   1.667   2.341   0.099 -2.3264 -1.1771  0.1400
  168SOL    HW2  504   1.625   2.294   0.266 -0.9434  1.9617 -0.7714
  169SOL     OW  505   0.157   2.566   2.233 -0.3575  0.3049 -0.5261
  169SOL    HW1  506   0.199   2.515   2.154 -2.6036 -0.2051  1.6427
  169SOL    HW2  507   0.181   2.533   2.331 -1.5168 -1.9078 -0.0447
  170SOL     OW  508   1.098   0.250   2.013 -0.0651 -0.1135  0.1100
  170SOL    HW1  509   1.169   0.230   2.085 -0.0109  1.8802 -0.0063
  170SOL    HW2  510   1.116   0.187   1.933  0.8258 -3.4618 -1.8409
  171SOL     OW  511   0.202   0.815   2.381  0.2674  0.4767  0.0936
  171SOL    HW1  512   0.107   0.835   2.420  0.1706 -1.7007  0.9272
  171SOL    HW2  513   0.196   0.800   2.277 -1.3356 -1.0270 -3.5337
  172SOL     OW  514   0.985   0.987   2.913 -0.4065  0.2890  0.2308
  172SOL    HW1  515   0.985   1.065   2.984 -1.5392 -0.3461 -0.0875
  172SOL    HW2  516   0.914   1.002   2.839  0.4353 -0.5391  2.7372
  173SOL     OW  517   0.523   2.475   0.119 -0.4548 -0.7985  0.5198
  173SOL    HW1  518   0.484   2.381   0.108 -0.3700  2.2871 -1.3218
  173SOL    HW2  519   0.466   2.523   0.184  0.3458 -2.7029 -1.0739
  174SOL     OW  520   1.491   2.829   1.043 -0.0278  0.2527  0.1927
  174SOL    HW1  521   1.554   2.902   0.998 -2.9366 -1.7667 -1.2297
  174SOL    HW2  522   1.469   2.751   0.984 -2.1856  0.9919 -0.2680
  175SOL     OW  523   0.466   3.037   1.692  0.1948  0.3460 -0.2180
  175SOL    HW1  524   0.514   3.021   1.784 -0.6716  0.8479 -1.9736
  175SOL    HW2  525   0.451   3.137   1.672  1.5139 -1.0110  0.5308
  176SOL     OW  526   2.560   0.375   0.007  0.3857  0.0348  0.0376
  176SOL    HW1  527   2.600   0.466   0.046 -0.2687  1.1701  1.0516
  176SOL    HW2  528   2.538   0.312   0.087  0.2065 -2.6106  2.6870
  177SOL     OW  529   0.297   0.282   0.942 -0.1058 -0.4602  0.1556
  177SOL    HW1  530   0.276   0.184   0.919  2.8437  0.4468  0.8367
  177SOL    HW2  531   0.336   0.303   1.035  1.6171 -1.0513 -0.6398
  178SOL     OW  532   0.010   2.726   2.608 -0.5083  0.0191 -0.0741
  178SOL    HW1  533  -0.008   2.632   2.564  0.2507  0.4537  0.7958
  178SOL    HW2  534   0.094   2.730   2.673  0.7646 -0.6600  1.5826
  179SOL     OW  535   3.029   1.556   1.151 -0.2766 -0.0556 -0.0239
  179SOL    HW1  536   3.100   1.580   1.083  1.3507  0.8266  2.1918
  179SOL    HW2  537   3.059   1.483   1.220 -1.4175 -2.3025 -2.5636
  180SOL     OW  538   0.204   1.315   1.804 -0.3651  0.4959  0.0824
  180SOL    HW1  539   0.286   1.264   1.833 -0.6554  1.1407 -1.9037
  180SOL    HW2  540   0.200   1.406   1.852 -0.9050  3.1631 -0.4576
  181SOL     OW  541   3.028   1.944   2.512 -0.7117  0.6673 -0.4614
  181SOL    HW1  542   3.074   2.028   2.469  0.1657  1.5431 -2.8839
  181SOL    HW2  543   2.948   1.922   2.450  2.2326  0.5180 -0.3086
  182SOL     OW  544   2.343   1.234   1.239  0.0058  0.5087  0.2104
  182SOL    HW1  545   2.278   1.179   1.169 -1.7906 -2.6996 -0.4391
  182SOL    HW2  546   2.326   1.336   1.237  0.6557  0.1629  2.1223
  183SOL     OW  547   1.432   2.239   2.535 -0.0884  0.4154  0.1095
  183SOL    HW1  548   1.365   2.183   2.592  1.7228 -0.7289 -1.1449
  183SOL    HW2  549   1.503   2.175   2.489  1.5064 -1.7422 -0.2190
  184SOL     OW  550   2.085   0.924   0.722  0.5932 -0.5560 -0.2320
  184SOL    HW1  551   2.004   0.966   0.684  0.8544 -0.7095  1.3613
  184SOL    HW2  552   2.073   0.834   0.767  2.0424  1.5121  0.5448
  185SOL     OW  553   1.567   2.737   1.991 -0.4022  0.0787  0.3397
  185SOL    HW1  554   1.495   2.811   1.975 -0.9673  0.4687  1.5090
  185SOL    HW2  555   1.614   2.744   2.086  2.6707  0.5362  0.7869
  186SOL     OW  556   0.086   2.212   1.633 -0.1892 -0.1238  0.0526
  186SOL    HW1  557   0.048   2.251   1.723 -0.0432  0.5363  1.7268
  186SOL    HW2  558   0.168   2.158   1.658 -3.2071  0.0005  0.5261
  187SOL     OW  559   1.392   0.626   1.648 -0.6087 -0.3245 -0.2423
  187SOL    HW1  560   1.480   0.681   1.624  1.9590  1.4497 -1.2882
  187SOL    HW2  561   1.394   0.564   1.729  1.3934 -0.3477 -0.4904
  188SOL     OW  562   2.836   2.731   1.470 -0.5169 -1.1739 -0.8386
  188SOL    HW1  563   2.821   2.832   1.452 -2.5804  1.9591  0.7172
  188SOL    HW2  564   2.779   2.669   1.411  0.4944 -2.3656  1.4098
  189SOL     OW  565   0.869   1.189   1.423  0.4205 -0.6898 -0.0680
  189SOL    HW1  566   0.912   1.232   1.506  0.8957 -0.2622  0.0884
  189SOL    HW2  567   0.820   1.248   1.352 -1.1352 -2.2606  2.0345
  190SOL     OW  568   1.493   1.908   1.584  0.4157 -0.0742 -0.0268
  190SOL    HW1  569   1.456   1.813   1.575 -0.1782 -0.6250  1.8593
  190SOL    HW2  570   1.489   1.943   1.677  1.2078 -1.5258 -1.0397
  191SOL     OW  571   0.931   0.774   1.493  0.1442  0.5070 -0.0091
  191SOL    HW1  572   1.005   0.732   1.554 -1.5443  0.5201  0.8613
  191SOL    HW2  573   0.964   0.862   1.453 -2.1449 -1.1059 -1.3872
  192SOL     OW  574   1.848   2.388   1.118  0.4193  0.9280  0.1444
  192SOL    HW1  575   1.766   2.377   1.050  0.3929 -1.1648 -0.2918
  192SOL    HW2  576   1.935   2.360   1.069 -1.4908 -1.2494 -2.2905
  193SOL     OW  577   0.522   0.518   0.398 -0.1277  0.4536  0.0091
  193SOL    HW1  578   0.476   0.424   0.421 -2.0899 -2.2795  0.0405
  193SOL    HW2  579   0.575   0.516   0.309  1.9393  0.2721  4.8144
  194SOL     OW  580   0.314   0.909   1.299 -0.6851  0.1224 -0.2841
  194SOL    HW1  581   0.270   0.816   1.301  0.6616 -1.1671 -2.8535
  194SOL    HW2  582   0.330   0.944   1.199  1.3850  0.4330 -0.0802
  195SOL     OW  583   0.991   2.898   0.519 -0.2647 -0.2416 -0.4110
  195SOL    HW1  584   0.965   2.816   0.459 -3.8053  0.2575  1.4780
  195SOL    HW2  585   1.089   2.928   0.526 -0.4843  0.9612  0.1461
  196SOL     OW  586   0.203   1.362   1.349 -0.0460  0.3109 -0.2059
  196SOL    HW1  587   0.212   1.464   1.361  0.9082 -1.0628  1.0441
  196SOL    HW2  588   0.182   1.312   1.438 -2.0737  0.8974 -0.0615
  197SOL     OW  589   0.813   2.021   0.262 -0.2325 -0.4733  0.7319
  197SOL    HW1  590   0.778   1.998   0.360  0.0532 -1.1121  0.0880
  197SOL    HW2  591   0.852   1.938   0.210  2.9338  0.8499 -2.6491
  198SOL     OW  592   0.341   1.260   0.340 -0.0754  0.0296  0.0752
  198SOL    HW1  593   0.235   1.244   0.345 -2.2516 -0.6033 -2.3489
  198SOL    HW2  594   0.378   1.345   0.392 -0.0455 -0.4186  0.7026
  199SOL     OW  595   2.296   0.443   2.591  0.0174 -0.1652 -0.0527
  199SOL    HW1  596   2.225   0.399   2.647  0.7147 -0.8420 -3.0668
  199SOL    HW2  597   2.393   0.410   2.609 -3.4848  0.2222  1.5055
  200SOL     OW  598   3.089   3.003   0.740  0.0939  0.6678  0.3367
  200SOL    HW1  599   3.151   3.084   0.712 -1.2726 -0.1537 -0.3100
  200SOL    HW2  600   2.998   3.007   0.687  1.7374 -0.7588  0.9443
  201SOL     OW  601   0.990   0.699   0.511 -0.3395  0.4267 -0.2040
  201SOL    HW1  602   1.038   0.739   0.589 -1.8953 -1.5303 -1.7454
  201SOL    HW2  603   0.903   0.639   0.526  0.5307 -1.4028 -1.8016
  202SOL     OW  604   0.420   1.194   1.887  0.1546  0.3487 -0.0675
  202SOL    HW1  605   0.511   1.139   1.871  0.4882 -0.1973 -0.2871
  202SOL    HW2  606   0.418   1.270   1.960  1.6036  2.2186 -0.3376
  203SOL     OW  607   0.585   0.176   1.509 -0.3702 -0.0128  0.4119
  203SOL    HW1  608   0.602   0.095   1.445 -3.1568  0.4557 -0.0229
  203SOL    HW2  609   0.660   0.189   1.582  0.0809  2.2645 -0.5142
  204SOL     OW  610   2.119   1.810   2.956 -0.1035 -0.2181  0.6414
  204SOL    HW1  611   2.134   1.709   2.971 -0.4277  3.0289 -1.7470
  204SOL    HW2  612   2.194   1.835   2.891  0.9635 -1.3115  2.5528
  205SOL     OW  613   1.836   1.834   3.033  0.2001 -0.5104  0.0887
  205SOL    HW1  614   1.925   1.812   2.983 -1.0655 -2.3018  0.7480
  205SOL    HW2  615   1.812   1.934   3.024 -0.1530 -0.9406  0.5271
  206SOL     OW  616   2.415   2.815   0.367  0.0084 -0.1032  0.1628
  206SOL    HW1  617   2.443   2.731   0.415  0.7292 -0.3072 -0.4605
  206SOL    HW2  618   2.489   2.850   0.305  1.2523  0.1723 -0.5319
  207SOL     OW  619   0.684   1.793   2.947 -0.2317 -0.1399 -0.1063
  207SOL    HW1  620   0.780   1.758   2.930 -0.6839  1.8549 -1.5133
  207SOL    HW2  621   0.628   1.726   2.999  2.3302  0.2099  0.5883
  208SOL     OW  622   1.167   1.656   1.349 -0.0824  0.2076 -0.0263
  208SOL    HW1  623   1.139   1.706   1.262 -0.5293  0.2629  1.1821
  208SOL    HW2  624   1.174   1.718   1.430  0.1375  0.7296  0.1384
  209SOL     OW  625   0.258   0.977   3.083 -0.2659  0.6089 -0.0072
  209SOL    HW1  626   0.231   0.901   3.018  2.0588 -2.1138 -1.4369
  209SOL    HW2  627   0.251   0.945   3.184  0.7753 -1.7192  1.6862
  210SOL     OW  628   1.703   0.493   1.218  0.5643  0.0190  0.5124
  210SOL    HW1  629   1.654   0.576   1.182 -1.9510 -0.8408 -1.1207
  210SOL    HW2  630   1.799   0.469   1.186 -2.9875 -1.1899  0.9618
  211SOL     OW  631   2.059   1.018   1.583 -1.0200  0.9023 -0.2585
  211SOL    HW1  632   2.062   0.956   1.667 -0.9576 -0.1538 -0.4571
  211SOL    HW2  633   2.149   1.073   1.574  3.2902  1.3004  1.3680
  212SOL     OW  634   0.020   0.974   1.534  0.3535 -0.0765  0.2820
  212SOL    HW1  635   0.094   1.045   1.551 -2.1611  0.9485 -0.5018
  212SOL    HW2  636   0.047   0.878   1.564  2.0508  1.0646 -0.5613
  213SOL     OW  637   2.704   0.163   0.351  0.5022  0.4079 -0.4793
  213SOL    HW1  638   2.802   0.143   0.314 -1.3261  0.4263 -0.2088
  213SOL    HW2  639   2.632   0.112   0.286 -1.3063 -3.0949 -2.5899
  214SOL     OW  640   2.191   0.365   2.339  0.0424  1.0854 -0.3536
  214SOL    HW1  641   2.235   0.433   2.407 -1.2616  1.6882  3.0391
  214SOL    HW2  642   2.189   0.266   2.370  1.0887  1.2095 -1.1415
  215SOL     OW  643   1.632   2.273   2.105  0.2860  0.4688  0.2512
  215SOL    HW1  644   1.722   2.292   2.058  0.3503  0.1094 -0.6001
  215SOL    HW2  645   1.578   2.362   2.125 -1.9347  1.0972 -1.8997
  216SOL     OW  646   2.233   0.606   0.707 -0.4573 -0.3067  0.4648
  216SOL    HW1  647   2.187   0.522   0.671  1.8776 -2.1873  1.5463
  216SOL    HW2  648   2.226   0.691   0.652  0.9439 -2.2247  2.1004
  217SOL     OW  649   0.804   2.821   2.465  0.6330  0.2095  0.5361
  217SOL    HW1  650   0.784   2.737   2.521  0.1886 -2.1270  0.9655
  217SOL    HW2  651   0.740   2.822   2.385  0.2351  0.3516  2.9486
  218SOL     OW  652   1.913   1.475   0.048 -0.1538  0.4135 -0.2614
  218SOL    HW1  653   1.815   1.485   0.012  1.5949 -0.8767  0.9285
  218SOL    HW2  654   1.921   1.382   0.090 -1.7517  2.5340  0.7534
  219SOL     OW  655   2.438   1.289   2.507 -0.0915 -0.3116  0.3238
  219SOL    HW1  656   2.460   1.236   2.419  0.4024  0.9180 -2.7005
  219SOL    HW2  657   2.453   1.230   2.591 -1.7134 -1.8481  0.7725
  220SOL     OW  658   1.447   1.001   1.330  0.0229 -0.0898  0.1773
  220SOL    HW1  659   1.540   1.041   1.351 -1.8177 -1.5184  0.5926
  220SOL    HW2  660   1.413   1.030   1.236 -0.6247  0.6110  1.8825
  221SOL     OW  661   1.282   0.988   2.183 -0.5339 -0.3517  0.2100
  221SOL    HW1  662   1.214   1.043   2.132  0.9676 -1.1226 -1.2143
  221SOL    HW2  663   1.383   1.020   2.181  1.8101 -1.6417  1.7577
  222SOL     OW  664   1.129   0.116   1.197 -0.1310  0.6157 -0.2014
  222SOL    HW1  665   1.087   0.194   1.247  2.7810 -0.0685  0.2149
  222SOL    HW2  666   1.186   0.154   1.117 -0.6160  3.5854 -0.4185
  223SOL     OW  667   2.706   0.937   2.148 -0.1884 -0.2616  0.0545
  223SOL    HW1  668   2.665   1.019   2.193  0.2729 -0.9849  1.6834
  223SOL    HW2  669   2.802   0.913   2.185  0.6599 -2.9724 -0.5294
  224SOL     OW  670   1.474   1.092   2.723 -0.3177  0.3925  0.2312
  224SOL    HW1  671   1.506   1.010   2.665 -0.8858 -0.1033  2.9966
  224SOL    HW2  672   1.444   1.163   2.657 -2.5666 -0.2357 -3.3648
  225SOL     OW  673   2.967   2.722   2.886 -0.2445  0.2530 -0.4454
  225SOL    HW1  674   2.886   2.705   2.816  1.0205 -1.1674 -2.4437
  225SOL    HW2  675   3.058   2.729   2.834  3.4437  0.7211  0.3053
  226SOL     OW  676   2.376   1.636   2.866 -0.9557 -0.1617 -0.2317
  226SOL    HW1  677   2.379   1.623   2.765 -0.6686 -2.3166  2.4475
  226SOL    HW2  678   2.351   1.545   2.917 -0.8384 -1.4077 -1.2609
  227SOL     OW  679   0.838   0.206   3.066  0.1713  0.2021  0.2381
  227SOL    HW1  680   0.872   0.306   3.069 -1.0264 -0.4056  0.4418
  227SOL    HW2  681   0.795   0.177   2.974  3.0734  1.0805  0.8089
  228SOL     OW  682   2.445   0.587   2.846 -0.6547  0.5016 -0.2169
  228SOL    HW1  683   2.460   0.654   2.762 -1.2969  0.2005  0.3433
  228SOL    HW2  684   2.514   0.504   2.857  1.0613 -2.2170 -0.3695
  229SOL     OW  685   0.575   0.441   1.813 -0.0333 -0.5935  0.1632
  229SOL    HW1  686   0.558   0.341   1.849 -1.5710 -2.2054  0.4214
  229SOL    HW2  687   0.625   0.456   1.725 -0.8824  0.3865  1.8654
  230SOL     OW  688   1.909   1.176   2.037 -0.6437  0.0526 -0.2218
  230SOL    HW1  689   1.980   1.243   2.003 -1.1587 -1.2297  0.8006
  230SOL    HW2  690   1.832   1.224   2.090  0.8990 -0.8798  2.0465
  231SOL     OW  691   0.623   1.060   0.026  0.5468  0.3360 -0.1095
  231SOL    HW1  692   0.676   1.098  -0.058  0.5091 -0.2427  0.0512
  231SOL    HW2  693   0.535   1.106   0.047 -1.2882 -0.5937 -0.0085
  232SOL     OW  694   2.427   3.052   2.862  0.1599 -0.3961 -0.5677
  232SOL    HW1  695   2.499   2.977   2.876 -2.1801 -1.0912 -2.1162
  232SOL    HW2  696   2.430   3.098   2.770  2.6885  0.7481  2.1984
  233SOL     OW  697   1.782   1.247   1.182 -0.0321  0.8022  1.0867
  233SOL    HW1  698   1.819   1.215   1.093  1.3261  1.9118  0.5517
  233SOL    HW2  699   1.778   1.171   1.255 -0.7972 -1.6501  0.2978
  234SOL     OW  700   1.594   2.489   1.850 -0.0628  0.5264  0.2137
  234SOL    HW1  701   1.588   2.585   1.886  0.1340  2.3205  1.5302
  234SOL    HW2  702   1.502   2.439   1.849 -1.1911  1.8843  1.0666
  235SOL     OW  703   0.022   3.037   2.816  0.0849  0.2709  0.1909
  235SOL    HW1  704  -0.045   3.018   2.738  3.5464 -1.3221  2.4687
  235SOL    HW2  705  -0.029   3.069   2.899 -0.5094 -2.6026  0.1374
  236SOL     OW  706   2.875   0.740   0.056 -0.0822  0.0016  0.2666
  236SOL    HW1  707   2.951   0.775   0.117 -3.6859 -0.5402 -0.6666
  236SOL    HW2  708   2.897   0.645   0.025 -0.3947 -0.9512  1.8455
  237SOL     OW  709   1.533   1.629   0.961 -0.4795 -0.0162  0.0742
  237SOL    HW1  710   1.632   1.621   0.925  0.1064 -1.3631 -0.5681
  237SOL    HW2  711   1.532   1.684   1.045 -0.7747  1.5861 -2.8798
  238SOL     OW  712   1.863   1.282   0.770 -0.2226  0.0138 -0.3304
  238SOL    HW1  713   1.921   1.302   0.856 -0.0990  0.6449  0.8250
  238SOL    HW2  714   1.776   1.344   0.773  1.5724 -0.7545  0.5291
  239SOL     OW  715   2.099   0.293   2.739 -0.1280  0.4041  0.3022
  239SOL    HW1  716   2.145   0.315   2.830  0.0290 -0.1744 -1.9057
  239SOL    HW2  717   2.007   0.344   2.732 -1.6822 -0.1308 -1.2898
  240SOL     OW  718   0.934   0.674   0.240 -0.0933 -0.4083  0.5096
  240SOL    HW1  719   0.992   0.590   0.226 -0.9080  3.6269 -0.4058
  240SOL    HW2  720   0.930   0.698   0.339 -0.6858  0.4284 -3.0707
  241SOL     OW  721   0.597   0.079   0.404 -0.1964  0.7471  0.2492
  241SOL    HW1  722   0.643   0.153   0.349 -0.6334  1.4767 -0.2590
  241SOL    HW2  723   0.630  -0.020   0.379  1.2315 -1.3745 -0.2479
  242SOL     OW  724   0.600   2.510   1.133  0.3626  0.4550 -0.3162
  242SOL    HW1  725   0.574   2.512   1.232  0.4358  0.9280  0.9661
  242SOL    HW2  726   0.605   2.603   1.090 -0.7866  1.2972  1.7408
  243SOL     OW  727   1.060   0.616   2.483 -0.0088  0.1596 -0.3832
  243SOL    HW1  728   0.975   0.643   2.426 -0.4657 -2.6361 -0.2325
  243SOL    HW2  729   1.030   0.539   2.547  1.1934  0.7150 -0.7473
  244SOL     OW  730   2.810   1.871   2.351  0.0153  0.4122 -0.1029
  244SOL    HW1  731   2.807   1.862   2.249 -1.2489  2.0382 -1.3351
  244SOL    HW2  732   2.725   1.828   2.392 -3.3732  0.4075  0.5138
  245SOL     OW  733   2.211   0.897   2.162  0.3639  0.1997  0.7094
  245SOL    HW1  734   2.311   0.896   2.172  1.1024  1.2878  0.6675
  245SOL    HW2  735   2.155   0.954   2.231 -3.9515 -0.1875 -0.9109
  246SOL     OW  736   0.216   2.913   1.689 -0.6731 -0.2626  0.2539
  246SOL    HW1  737   0.140   2.954   1.628 -2.3575 -0.2282 -0.7291
  246SOL    HW2  738   0.311   2.944   1.667  1.4008 -1.8665 -2.5891
  247SOL     OW  739   2.216   0.644   2.978  0.5824  0.1218 -0.1122
  247SOL    HW1  740   2.298   0.637   2.913  1.4790 -3.0781 -0.3831
  247SOL    HW2  741   2.164   0.736   2.968 -1.7720  1.3686 -0.4667
  248SOL     OW  742   2.181   1.830   1.567 -0.3756 -0.1738 -0.2126
  248SOL    HW1  743   2.243   1.754   1.597  2.8923  0.5787  0.5465
  248SOL    HW2  744   2.083   1.825   1.610  0.3348  0.5402 -2.8583
  249SOL     OW  745   1.911   1.923   1.909  0.9334 -1.0472 -0.6946
  249SOL    HW1  746   1.911   1.854   1.830 -0.1875 -1.1725 -0.1606
  249SOL    HW2  747   2.007   1.957   1.930 -1.5238 -0.3007 -1.2080
  250SOL     OW  748   1.082   0.683   1.894 -0.2433  0.6549  0.2501
  250SOL    HW1  749   1.111   0.626   1.976 -1.3028 -1.8861  1.5303
  250SOL    HW2  750   1.098   0.628   1.806  1.3999  0.3173 -0.1485
  251SOL     OW  751   3.086   1.663   2.523  0.0491  0.0263 -0.3548
  251SOL    HW1  752   3.086   1.763   2.499 -1.0380 -1.4398 -1.6633
  251SOL    HW2  753   2.993   1.615   2.527 -1.6216  0.7374 -0.2654
  252SOL     OW  754   1.618   0.771   1.671  0.1516 -0.7639  0.3759
  252SOL    HW1  755   1.707   0.737   1.624  1.9918 -0.5225  2.1348
  252SOL    HW2  756   1.623   0.868   1.714  1.8749 -0.0674  3.0859
  253SOL     OW  757   0.999   1.570   0.465 -0.2408 -0.1221 -0.6974
  253SOL    HW1  758   0.991   1.481   0.416  2.2012 -0.7736 -1.3005
  253SOL    HW2  759   0.914   1.595   0.520  1.5099 -1.2682 -1.8716
  254SOL     OW  760   2.045   2.179   1.648 -0.1940  0.1345  0.2961
  254SOL    HW1  761   2.010   2.103   1.584  1.6013 -1.0404 -0.3449
  254SOL    HW2  762   1.968   2.227   1.698 -0.0379  0.1658  0.0156
  255SOL     OW  763   0.139   1.170   2.922 -0.2009  0.3599 -0.1995
  255SOL    HW1  764   0.202   1.246   2.892  2.4378 -0.0038 -0.6934
  255SOL    HW2  765   0.190   1.099   2.986  1.8563  1.2661 -0.4577
  256SOL     OW  766   2.878   1.424   1.799  0.0309  0.1214  0.1516
  256SOL    HW1  767   2.788   1.466   1.819  0.2008 -1.9070  0.4120
  256SOL    HW2  768   2.868   1.319   1.798  1.8867 -3.3263 -0.0229
  257SOL     OW  769   0.778   0.166   1.728 -0.1258  0.3616  0.5914
  257SOL    HW1  770   0.860   0.233   1.734  1.4460  3.3516  3.0416
  257SOL    HW2  771   0.811   0.068   1.751  0.0488  0.7914  0.3580
  258SOL     OW  772   3.002   1.228   0.461 -0.4740  0.0312  0.6612
  258SOL    HW1  773   2.932   1.298   0.487  0.9833  2.2285  2.2826
  258SOL    HW2  774   3.068   1.224   0.544  2.1818  0.3577 -1.6586
  259SOL     OW  775   0.446   2.908   3.058 -0.4755 -0.1308  0.1192
  259SOL    HW1  776   0.381   2.850   3.105  1.4616  2.2207 -0.6885
  259SOL    HW2  777   0.456   2.880   2.956 -0.8474 -0.1476 -0.7040
  260SOL     OW  778   2.734   0.669   2.792 -0.5760 -0.4821 -0.4245
  260SOL    HW1  779   2.675   0.752   2.788  1.2685  1.5326  0.0725
  260SOL    HW2  780   2.690   0.594   2.841  1.6571 -0.1768  0.5209
  261SOL     OW  781   2.710   1.332   1.317  0.8330 -0.5390  0.6868
  261SOL    HW1  782   2.674   1.283   1.232 -1.2959 -1.3026 -0.3390
  261SOL    HW2  783   2.775   1.264   1.364 -0.3146 -2.2465 -0.8394
  262SOL     OW  784   1.400   2.952   1.932  0.3450 -0.1787 -0.3818
  262SOL    HW1  785   1.409   3.056   1.930 -0.2692 -0.7326  0.4000
  262SOL    HW2  786   1.304   2.932   1.896 -1.2619  0.8496  0.9992
  263SOL     OW  787   0.876   0.673   2.286 -0.4281 -0.2349 -0.2807
  263SOL    HW1  788   0.835   0.590   2.250  1.3418 -0.1422  0.4905
  263SOL    HW2  789   0.899   0.741   2.211  2.3275  1.5099  1.5903
  264SOL     OW  790   2.230   0.801   0.420  0.5843 -0.1355 -1.0270
  264SOL    HW1  791   2.238   0.735   0.341 -1.3130  0.3332  0.6233
  264SOL    HW2  792   2.319   0.823   0.463 -2.6002 -1.7197  1.1440
  265SOL     OW  793   0.920   2.466   2.654 -0.4929 -0.4683  0.0094
  265SOL    HW1  794   0.997   2.519   2.713  0.9573  1.1068 -0.0121
  265SOL    HW2  795   0.917   2.365   2.681  1.1595  2.1415 -1.8103
  266SOL     OW  796   1.334   1.826   3.030  0.0822 -0.2819  0.5060
  266SOL    HW1  797   1.345   1.866   3.126 -0.1072 -0.2452 -0.7692
  266SOL    HW2  798   1.411   1.767   2.993  1.9669  0.1040  2.2278
  267SOL     OW  799   1.021   0.048   2.338 -0.0109  0.3842 -0.6734
  267SOL    HW1  800   0.987  -0.026   2.276  2.7018  1.5206  1.1434
  267SOL    HW2  801   0.977   0.139   2.321 -1.3040  0.6513  1.4411
  268SOL     OW  802   0.636   1.183   1.067  0.6757  0.7069  0.8304
  268SOL    HW1  803   0.615   1.180   1.166  1.6267  2.2768 -1.9685
  268SOL    HW2  804   0.672   1.274   1.031  3.1843  2.9898 -1.2839
  269SOL     OW  805   2.310   2.532   1.618  0.5954  0.0301  0.0804
  269SOL    HW1  806   2.388   2.472   1.658 -0.7685 -1.1459  1.3793
  269SOL    HW2  807   2.254   2.556   1.703 -0.6857 -0.9409 -1.7705
  270SOL     OW  808   0.154   2.958   1.959  0.0315  0.0513 -0.0368
  270SOL    HW1  809   0.176   2.938   1.858  0.2064 -0.1252 -1.1130
  270SOL    HW2  810   0.157   2.875   2.022 -2.1365 -1.0753 -0.5522
  271SOL     OW  811   0.423   1.384   1.178  0.5724  0.3039 -0.7088
  271SOL    HW1  812   0.402   1.359   1.077  0.0277 -1.4113 -1.2160
  271SOL    HW2  813   0.348   1.353   1.243 -1.2703 -1.9722  0.2778
  272SOL     OW  814   2.027   2.946   1.933 -0.1984  0.1868  0.1019
  272SOL    HW1  815   1.949   2.899   1.880  3.1673  0.1108 -2.4758
  272SOL    HW2  816   2.079   3.011   1.881 -1.6293  1.1993 -1.4455
  273SOL     OW  817   1.493   1.458   2.745  0.2593 -0.2171  0.1796
  273SOL    HW1  818   1.392   1.439   2.763  1.0822 -2.2041  0.0645
  273SOL    HW2  819   1.554   1.405   2.806 -0.6441  0.4911 -0.3751
  274SOL     OW  820   1.182   0.510   2.065 -0.1962  0.0796 -0.1801
  274SOL    HW1  821   1.126   0.428   2.034  2.5105 -0.5766 -0.9514
  274SOL    HW2  822   1.218   0.506   2.163  1.5949  0.2086 -1.5437
  275SOL     OW  823   0.635   2.136   1.877  0.3640  0.3672 -0.0760
  275SOL    HW1  824   0.585   2.214   1.923 -1.0616 -2.8117  1.1730
  275SOL    HW2  825   0.573   2.058   1.858  3.2499  1.5287 -1.3016
  276SOL     OW  826   2.216   1.100   2.770 -0.3999  0.6449 -0.0971
  276SOL    HW1  827   2.143   1.124   2.703  0.6147  2.2438  1.9487
  276SOL    HW2  828   2.184   1.025   2.835 -1.1362 -0.2069  2.3035
  277SOL     OW  829   3.085   0.753   0.246  0.2753 -0.1795 -0.1838
  277SOL    HW1  830   3.180   0.775   0.212  2.2936  0.5164 -0.1364
  277SOL    HW2  831   3.089   0.682   0.323 -0.3274  0.9561  2.9345
  278SOL     OW  832   0.218   0.300   2.929  0.0909  0.1570 -0.1030
  278SOL    HW1  833   0.292   0.231   2.904  1.3268 -2.1262 -1.4592
  278SOL    HW2  834   0.262   0.391   2.952  0.8009 -1.8346 -0.4031
  279SOL     OW  835   0.230   0.024   0.892 -0.3366  0.1127  0.0165
  279SOL    HW1  836   0.211  -0.055   0.959  0.9878  0.0292  1.0696
  279SOL    HW2  837   0.299  -0.002   0.823  0.6598  1.7377  1.9754
  280SOL     OW  838   1.611   2.941   2.389  0.1268  0.0904 -0.2608
  280SOL    HW1  839   1.637   3.012   2.460  1.1221  2.7001 -0.4055
  280SOL    HW2  840   1.548   2.990   2.325  0.9398 -1.3576  0.6769
  281SOL     OW  841   0.594   0.971   2.275  0.0154  0.4898 -0.2494
  281SOL    HW1  842   0.562   0.897   2.207 -0.9905  0.1540 -2.6414
  281SOL    HW2  843   0.565   0.950   2.370 -0.0172 -2.0026 -1.3122
  282SOL     OW  844   1.780   2.489   0.494 -0.3133 -0.1906 -0.1628
  282SOL    HW1  845   1.742   2.405   0.440 -0.4580 -0.2964  2.7580
  282SOL    HW2  846   1.710   2.553   0.536  1.7636  2.8653 -2.7932
  283SOL     OW  847   1.224   0.937   0.787 -0.2920  0.0943 -0.5013
  283SOL    HW1  848   1.233   0.879   0.874  3.0583 -1.1336 -0.5137
  283SOL    HW2  849   1.147   1.005   0.796  0.6007  1.4309  0.3712
  284SOL     OW  850   2.235   2.834   2.503  0.1653 -0.5411 -0.0891
  284SOL    HW1  851   2.337   2.804   2.504  0.2874 -0.2020  1.3660
  284SOL    HW2  852   2.210   2.885   2.587 -0.3274  0.6661  2.5647
  285SOL     OW  853   1.361   3.053   2.582  0.2502  0.2962 -0.2846
  285SOL    HW1  854   1.396   3.065   2.483 -0.5821  1.0995 -0.7128
  285SOL    HW2  855   1.261   3.071   2.585 -1.6143  1.1952  1.6940
  286SOL     OW  856   0.434   0.428   0.758 -0.2840 -0.3491  0.4261
  286SOL    HW1  857   0.393   0.361   0.823 -0.8504  2.7736 -2.3458
  286SOL    HW2  858   0.447   0.382   0.664 -0.4425  0.3983 -0.0579
  287SOL     OW  859   0.074   1.260   2.501 -0.2505  0.1773  0.0291
  287SOL    HW1  860   0.020   1.182   2.545  4.6260 -0.1607 -1.9532
  287SOL    HW2  861   0.093   1.327   2.574 -0.5193 -0.2563  0.8128
  288SOL     OW  862   1.594   2.683   1.606  0.2474  0.3378  0.2616
  288SOL    HW1  863   1.588   2.599   1.677  1.1697 -0.8866  3.4018
  288SOL    HW2  864   1.631   2.653   1.515  0.2190 -0.2815 -0.3318
  289SOL     OW  865   0.589   2.731   0.852 -0.4784 -0.5416 -0.2106
  289SOL    HW1  866   0.667   2.782   0.802  1.7863 -2.9645  2.7522
  289SOL    HW2  867   0.577   2.775   0.948  0.1633  0.1440  2.2902
  290SOL     OW  868   2.841   1.150   1.800  0.2499  0.4080 -0.4935
  290SOL    HW1  869   2.764   1.083   1.807 -1.7004  0.0133  1.2648
  290SOL    HW2  870   2.937   1.120   1.834  1.3811  1.0044 -1.1863
  291SOL     OW  871   1.978   3.084   0.032  0.3115 -0.1863  0.0321
  291SOL    HW1  872   1.982   3.129   0.123 -1.3377  0.5712 -0.4228
  291SOL    HW2  873   2.061   3.103  -0.029  1.6587 -2.4663 -3.7639
  292SOL     OW  874   3.018   1.225   3.075  0.1655 -0.1427  0.3547
  292SOL    HW1  875   2.953   1.284   3.020 -3.3584  0.2682 -2.2642
  292SOL    HW2  876   3.103   1.199   3.021  2.7014  1.7269  0.5829
  293SOL     OW  877   0.538   2.172   0.275 -0.4075 -0.2083  0.0782
  293SOL    HW1  878   0.467   2.230   0.327  0.7758 -2.0652  0.0792
  293SOL    HW2  879   0.639   2.186   0.309  1.4679  1.9825  0.8216
  294SOL     OW  880   1.827   2.298   1.774  0.1558  0.1052 -0.3987
  294SOL    HW1  881   1.830   2.331   1.875 -0.5012 -2.1140  0.3106
  294SOL    HW2  882   1.755   2.352   1.727  3.2247 -1.2225  1.6023
  295SOL     OW  883   0.978   1.063   0.441  0.1437  0.2331 -0.1084
  295SOL    HW1  884   1.079   1.056   0.462  1.4913  1.7981  1.3104
  295SOL    HW2  885   0.916   1.038   0.530 -1.1641  0.2773  1.4630
  296SOL     OW  886   1.222   2.117   2.666  0.5172 -0.5406  0.4949
  296SOL    HW1  887   1.116   2.136   2.679  0.9884 -0.3499 -0.2623
  296SOL    HW2  888   1.251   2.045   2.592 -0.7119  0.3885 -2.0536
  297SOL     OW  889   1.351   0.597   1.314  0.5030 -0.2788  0.2062
  297SOL    HW1  890   1.388   0.547   1.400  1.6670 -1.3814  1.0506
  297SOL    HW2  891   1.427   0.649   1.269 -0.8055 -0.0996 -0.1618
  298SOL     OW  892   0.518   1.374   3.009  0.6518 -0.5437  0.1026
  298SOL    HW1  893   0.465   1.322   3.078  0.8405  2.1285 -3.1980
  298SOL    HW2  894   0.549   1.309   2.933  1.2057 -1.3826 -2.2185
  299SOL     OW  895   0.466   0.292   1.275  0.1685  0.1893 -0.0262
  299SOL    HW1  896   0.418   0.379   1.257  0.5559 -1.0290  1.5358
  299SOL    HW2  897   0.474   0.262   1.378 -1.8638 -0.5469  1.2708
  300SOL     OW  898   1.266   1.703   2.614 -0.0827  0.2774 -0.1241
  300SOL    HW1  899   1.266   1.626   2.541 -0.2245  1.2857 -4.3041
  300SOL    HW2  900   1.353   1.705   2.669 -2.2882 -0.7484 -2.0935
  301SOL     OW  901   0.381   0.265   0.493  0.6186 -0.3701  0.1549
  301SOL    HW1  902   0.284   0.225   0.517 -1.3140 -0.4632  0.7385
  301SOL    HW2  903   0.438   0.196   0.437  5.1474 -0.7951  2.9161
  302SOL     OW  904   1.247   2.428   2.335  0.1016  0.2143 -0.8252
  302SOL    HW1  905   1.165   2.473   2.375  1.5526 -2.0474 -1.7128
  302SOL    HW2  906   1.272   2.335   2.379  1.8893  0.2229  1.0707
  303SOL     OW  907   0.925   2.436   0.796  0.2221  0.1904  0.6985
  303SOL    HW1  908   0.979   2.471   0.713  1.2808 -0.4443 -0.1806
  303SOL    HW2  909   0.973   2.440   0.884 -1.8027 -0.0983 -1.7149
  304SOL     OW  910   0.087   1.930   0.699  0.0815 -0.4549 -0.0403
  304SOL    HW1  911   0.157   1.912   0.627  1.8484 -0.3686  2.6731
  304SOL    HW2  912   0.001   1.981   0.656 -0.8533  2.6069  0.9167
  305SOL     OW  913   1.590   0.871   0.667 -0.1652  0.4042 -0.6299
  305SOL    HW1  914   1.529   0.869   0.581  2.8474 -0.3670  2.4044
  305SOL    HW2  915   1.642   0.783   0.688  0.5618  0.7569 -1.1139
  306SOL     OW  916   0.425   1.895   1.874  0.8120  0.5412  0.4739
  306SOL    HW1  917   0.511   1.834   1.858  1.4968 -1.3043  0.5375
  306SOL    HW2  918   0.422   1.937   1.974  0.5465  0.1350  1.3364
  307SOL     OW  919   3.033   0.879   2.518 -0.7262 -0.3287 -0.2147
  307SOL    HW1  920   3.051   0.954   2.586 -0.2055 -2.0027 -0.9710
  307SOL    HW2  921   2.966   0.809   2.554 -1.7946  0.5700  0.4027
  308SOL     OW  922   1.602   2.667   2.777 -0.0280 -0.3932 -0.6215
  308SOL    HW1  923   1.604   2.594   2.703 -0.2156 -0.3462  1.2000
  308SOL    HW2  924   1.567   2.634   2.870 -0.5688 -1.7281  0.4712
  309SOL     OW  925   1.242   0.182   1.783 -0.6288  0.0706  0.1390
  309SOL    HW1  926   1.334   0.134   1.787 -2.0019  1.3025 -0.9642
  309SOL    HW2  927   1.205   0.193   1.689 -0.3374 -1.5076  1.2099
  310SOL     OW  928   1.537   2.552   0.675 -0.1304 -0.2266 -0.6389
  310SOL    HW1  929   1.504   2.564   0.775 -0.1313  0.2920  2.3956
  310SOL    HW2  930   1.585   2.637   0.640 -2.6610 -1.7115  3.9970
  311SOL     OW  931   1.124   0.929   1.744 -0.0054 -0.0924  0.2327
  311SOL    HW1  932   1.130   0.840   1.799 -0.0688  2.1097  0.2826
  311SOL    HW2  933   1.136   0.917   1.642  2.9039 -0.4640  0.9482
  312SOL     OW  934   1.548   0.709   1.097 -0.2585 -0.9366 -0.0544
  312SOL    HW1  935   1.568   0.814   1.101 -1.1273  0.1990  1.5453
  312SOL    HW2  936   1.506   0.677   1.003  0.6868  0.7369 -3.8968
  313SOL     OW  937   1.627   1.385   0.709  0.3686 -0.8497  0.1758
  313SOL    HW1  938   1.565   1.386   0.793  1.9470  0.7273 -0.9101
  313SOL    HW2  939   1.604   1.305   0.653 -2.5650  2.1817  1.0822
  314SOL     OW  940   2.982   3.091   3.052  0.5615 -0.0569  0.2611
  314SOL    HW1  941   2.999   3.113   3.152 -0.3252 -1.2813  0.2749
  314SOL    HW2  942   2.895   3.032   3.050 -0.8204 -0.5853  2.5424
  315SOL     OW  943   1.154   0.259   2.790  0.8937  0.1956 -0.2315
  315SOL    HW1  944   1.163   0.178   2.722 -0.1910 -0.0452 -1.0627
  315SOL    HW2  945   1.153   0.228   2.887  2.2232  1.4135 -0.5787
  316SOL     OW  946   1.712   2.082   0.918 -0.0489  0.5466 -0.4004
  316SOL    HW1  947   1.635   2.073   0.992 -0.5126 -0.7316  0.8896
  316SOL    HW2  948   1.717   2.172   0.872 -0.5344 -0.8382  0.2709
  317SOL     OW  949   1.205   0.636   2.800 -0.5856  0.2720 -0.3383
  317SOL    HW1  950   1.146   0.656   2.881  3.7338  0.4340 -2.9591
  317SOL    HW2  951   1.148   0.618   2.713 -0.7072 -1.6032 -2.6285
  318SOL     OW  952   1.436   3.087   2.239  0.0848  0.1998 -0.2035
  318SOL    HW1  953   1.395   3.183   2.226  0.4953  0.6130 -0.7524
  318SOL    HW2  954   1.401   3.015   2.172 -0.6608 -1.8234  1.0167
  319SOL     OW  955   0.592   2.346   2.930  0.3290 -0.2425 -0.4458
  319SOL    HW1  956   0.536   2.313   3.015  1.2399 -1.0616  4.8772
  319SOL    HW2  957   0.657   2.266   2.904  0.2751 -3.0883 -2.2283
  320SOL     OW  958   1.720   2.234   0.409  0.0579 -0.2748  0.0017
  320SOL    HW1  959   1.804   2.176   0.387  1.6887  2.3319  1.5569
  320SOL    HW2  960   1.643   2.186   0.467 -2.6819 -1.2661  4.4604
  321SOL     OW  961   1.675   2.753   0.558  0.2189 -0.1053  0.4322
  321SOL    HW1  962   1.597   2.795   0.501 -0.5761 -1.1593 -0.8994
  321SOL    HW2  963   1.765   2.795   0.548 -1.6252  2.3262  1.6635
  322SOL     OW  964   2.605   1.115   2.352 -0.2546  0.4577 -0.2393
  322SOL    HW1  965   2.668   1.163   2.425  1.0699 -1.3623  0.8500
  322SOL    HW2  966   2.559   1.026   2.384 -1.1399 -1.6467  0.1674
  323SOL     OW  967   1.153   2.690   0.847 -0.0783 -0.0596 -0.5972
  323SOL    HW1  968   1.121   2.663   0.755  0.7859 -1.0347  2.4900
  323SOL    HW2  969   1.111   2.776   0.873 -1.4963 -1.8439 -1.7790
  324SOL     OW  970   0.272   2.495   2.476 -0.2417  0.0412 -0.7644
  324SOL    HW1  971   0.236   2.462   2.566 -0.5779 -0.4729  0.9546
  324SOL    HW2  972   0.295   2.596   2.482  1.8416 -0.0954 -0.3026
  325SOL     OW  973   1.264   2.998   0.498  0.4015  0.3906  0.7090
  325SOL    HW1  974   1.282   3.045   0.410  0.1137 -0.7635  0.7965
  325SOL    HW2  975   1.274   3.061   0.579 -1.1108  0.8958  0.9763
  326SOL     OW  976   2.445   0.786   0.002 -0.1939  0.4305 -0.1239
  326SOL    HW1  977   2.370   0.737  -0.047  1.0419 -2.1762  1.1595
  326SOL    HW2  978   2.498   0.725   0.058  0.2026  0.9961 -0.7959
  327SOL     OW  979   2.820   0.314   0.559 -0.1163 -0.4790 -0.2037
  327SOL    HW1  980   2.774   0.274   0.470 -0.1568  1.2329  1.0744
  327SOL    HW2  981   2.831   0.251   0.644 -1.6763 -1.2012  0.6314
  328SOL     OW  982   2.607   0.629   0.419  0.0644 -0.2739  0.2707
  328SOL    HW1  983   2.531   0.697   0.429  0.9708 -0.7710  0.2293
  328SOL    HW2  984   2.581   0.531   0.440 -0.8984 -1.4332 -2.6870
  329SOL     OW  985   2.920   2.954   2.146 -0.1506 -0.0375 -0.6117
  329SOL    HW1  986   3.018   2.917   2.156 -0.8971  1.0744 -0.7696
  329SOL    HW2  987   2.916   3.055   2.168 -0.8806 -1.8834  1.3800
  330SOL     OW  988   0.583   0.199   1.915  0.5288 -0.0407 -0.3132
  330SOL    HW1  989   0.651   0.153   1.845 -0.8325 -1.8349 -1.2557
  330SOL    HW2  990   0.580   0.142   2.005 -3.0097  1.3494  0.5707
  331SOL     OW  991   3.014   1.944   1.087  0.1169 -0.0076 -0.2425
  331SOL    HW1  992   2.977   1.916   0.995  1.2933 -1.3504 -1.2059
  331SOL    HW2  993   2.938   1.929   1.161 -0.0651  0.3891 -0.6030
  332SOL     OW  994   0.398   1.199   0.073 -0.5490 -0.3822 -0.1701
  332SOL    HW1  995   0.338   1.114   0.051 -0.9524 -0.1209 -0.0657
  332SOL    HW2  996   0.398   1.240   0.167  0.5810  0.7143 -0.3630
  333SOL     OW  997   2.919   0.984   0.293 -0.1024 -0.2349  0.3739
  333SOL    HW1  998   2.946   1.058   0.360  1.0759  2.4390  1.8737
  333SOL    HW2  999   2.990   0.912   0.279  0.0442 -0.9658 -2.6244
  334SOL     OW 1000   1.691   1.267   1.801 -0.0638  0.1201  0.2076
  334SOL    HW1 1001   1.748   1.271   1.714 -1.3718  1.9791  1.4098
  334SOL    HW2 1002   1.749   1.260   1.887 -0.5686  0.8337 -2.9717
  335SOL     OW 1003   1.979   2.729   2.575  0.2959 -0.0280 -0.0123
  335SOL    HW1 1004   1.950   2.779   2.663 -0.6318  1.2366  1.3775
  335SOL    HW2 1005   2.081   2.736   2.549  2.0261  1.1220  0.1511
  336SOL     OW 1006   0.249   0.049   2.720  0.2754 -0.3875 -0.2689
  336SOL    HW1 1007   0.314   0.062   2.803 -0.4621 -3.5407  0.8029
  336SOL    HW2 1008   0.156   0.016   2.745  2.1199  1.1472  0.0082
  337SOL     OW 1009   0.976   2.917   2.909  0.1140  0.3865  0.7947
  337SOL    HW1 1010   0.940   2.874   2.995  1.5414  1.6128  0.3628
  337SOL    HW2 1011   1.073   2.943   2.914  2.1844  1.1694  0.9112
  338SOL     OW 1012   0.076   0.988   0.693 -0.1856  0.0901  0.1824
  338SOL    HW1 1013  -0.025   0.966   0.714 -0.3646  0.0336  0.8983
  338SOL    HW2 1014   0.091   1.088   0.713 -0.4867 -1.4084  0.5920
  339SOL     OW 1015   1.705   1.330   2.132  0.4005  0.7127  0.2323
  339SOL    HW1 1016   1.622   1.386   2.093 -1.9663 -1.7881 -2.6693
  339SOL    HW2 1017   1.753   1.385   2.211  1.6945 -0.0160  2.6212
  340SOL     OW 1018   2.296   0.749   1.163  0.1333  0.3209  0.0682
  340SOL    HW1 1019   2.201   0.744   1.119 -1.7153 -0.8161  1.2102
  340SOL    HW2 1020   2.342   0.660   1.176  0.1030 -0.7410 -1.3692
  341SOL     OW 1021   1.942   2.111   0.313  0.1634  0.2016  0.2895
  341SOL    HW1 1022   1.977   2.124   0.213 -1.3256  0.1521 -0.0069
  341SOL    HW2 1023   2.020   2.114   0.385  2.6891  0.3043  0.2745
  342SOL     OW 1024   2.153   2.138   2.787 -0.2034 -0.1247 -0.0593
  342SOL    HW1 1025   2.208   2.050   2.801 -0.7536 -2.6818 -0.4729
  342SOL    HW2 1026   2.054   2.123   2.763 -0.1749  1.2845 -1.2996
  343SOL     OW 1027   0.398   0.801   2.785 -0.1871 -0.3655 -0.2647
  343SOL    HW1 1028   0.401   0.849   2.696  2.7627 -0.0074  0.8080
  343SOL    HW2 1029   0.490   0.802   2.837  0.5554 -0.2858  1.0047
  344SOL     OW 1030   1.922   1.496   0.436  0.0201  0.0810 -0.5508
  344SOL    HW1 1031   1.938   1.415   0.371  2.8338  0.5702  0.7304
  344SOL    HW2 1032   1.822   1.509   0.464 -0.7351  0.8295 -0.5262
  345SOL     OW 1033   1.373   2.257   2.863 -0.1689 -0.0712 -0.1812
  345SOL    HW1 1034   1.299   2.220   2.802  0.5250  0.3607 -1.3484
  345SOL    HW2 1035   1.461   2.210   2.827  0.2337  0.3072  1.3459
  346SOL     OW 1036   2.337   0.906   1.386 -0.2006  0.4606  0.1519
  346SOL    HW1 1037   2.284   0.986   1.420  0.9462 -1.4841  1.4866
  346SOL    HW2 1038   2.302   0.856   1.300  1.0312  1.3307  0.2447
  347SOL     OW 1039   0.740   2.737   1.632 -0.1217 -0.1259  0.4528
  347SOL    HW1 1040   0.659   2.734   1.698  1.1934 -0.1141 -0.7311
  347SOL    HW2 1041   0.764   2.827   1.589 -0.0058  1.1475  0.4457
  348SOL     OW 1042   0.159   0.754   2.924  0.3503  0.5453  0.2051
  348SOL    HW1 1043   0.068   0.723   2.884  0.8308 -0.7687 -0.9410
  348SOL    HW2 1044   0.232   0.753   2.854  1.9816  3.1987 -0.9900
  349SOL     OW 1045   1.866   0.423   2.769 -0.0400 -0.4261 -0.0538
  349SOL    HW1 1046   1.850   0.504   2.709 -0.8896 -1.5145  1.1365
  349SOL    HW2 1047   1.821   0.443   2.863  0.9714  2.4771 -0.0064
  350SOL     OW 1048   1.647   0.406   0.387 -0.0573 -0.1093 -0.1581
  350SOL    HW1 1049   1.719   0.375   0.459  0.5129  0.8357 -0.5354
  350SOL    HW2 1050   1.671   0.500   0.346  2.2270  0.7581 -2.7415
  351SOL     OW 1051   0.966   0.841   2.097 -0.1122  0.3531 -0.6399
  351SOL    HW1 1052   1.003   0.941   2.097 -1.3979  0.5341  1.2431
  351SOL    HW2 1053   0.994   0.794   2.011  2.7229  3.6716 -0.9317
  352SOL     OW 1054   2.063   1.341   0.614  0.4158  0.4751 -0.5939
  352SOL    HW1 1055   2.038   1.430   0.565 -4.3950  0.1899 -3.3531
  352SOL    HW2 1056   1.981   1.317   0.669 -0.3597  2.6612 -1.7421
  353SOL     OW 1057   2.192   2.798   1.088 -0.0804  0.4083 -0.3208
  353SOL    HW1 1058   2.246   2.730   1.148 -3.4375 -1.5457  0.8728
  353SOL    HW2 1059   2.089   2.766   1.083 -0.7556 -1.3181 -0.1129
  354SOL     OW 1060   0.281   1.396   2.839  0.1100  0.3136  0.0601
  354SOL    HW1 1061   0.257   1.479   2.780 -1.0836  1.8238 -2.2536
  354SOL    HW2 1062   0.360   1.415   2.905  0.3892 -0.8095  0.9784
  355SOL     OW 1063   0.730   1.600   0.596  0.3728  0.0705 -0.0481
  355SOL    HW1 1064   0.713   1.552   0.689 -0.2189 -0.5602  0.0660
  355SOL    HW2 1065   0.702   1.535   0.522  0.5029 -2.6446  1.9062
  356SOL     OW 1066   0.844   0.322   2.049  0.4955  0.3516 -0.1365
  356SOL    HW1 1067   0.943   0.289   2.026 -1.8483 -1.1755  1.3075
  356SOL    HW2 1068   0.782   0.313   1.967  1.7802 -1.7444  4.0782
  357SOL     OW 1069   0.974   1.330   0.367  0.4768  0.1523  0.3588
  357SOL    HW1 1070   1.078   1.317   0.359  3.0796  0.8865  1.5296
  357SOL    HW2 1071   0.936   1.244   0.416 -1.8530  1.2900  2.7373
  358SOL     OW 1072   1.628   1.540   0.490 -0.0213  0.0124  0.0964
  358SOL    HW1 1073   1.625   1.506   0.587 -0.5200  0.0318  2.8946
  358SOL    HW2 1074   1.567   1.486   0.425 -1.5150 -1.0933 -1.6231
  359SOL     OW 1075   1.600   2.624   0.238  0.4437  0.1019  0.0937
  359SOL    HW1 1076   1.578   2.526   0.211  0.3539  1.2504 -1.6401
  359SOL    HW2 1077   1.561   2.651   0.330  0.2594  1.4085  3.0515
  360SOL     OW 1078   0.758   0.553   0.542  0.1238 -0.2459  0.0441
  360SOL    HW1 1079   0.664   0.540   0.509  3.3261  0.4710  0.9611
  360SOL    HW2 1080   0.789   0.472   0.592 -1.9806 -2.3348 -0.3394
  361SOL     OW 1081   1.294   1.290   0.663  0.0011 -0.4653 -0.0800
  361SOL    HW1 1082   1.335   1.304   0.756  0.9230  1.6195 -3.1999
  361SOL    HW2 1083   1.202   1.334   0.656 -0.2889 -0.5023  0.4539
  362SOL     OW 1084   1.378   1.759   0.764  0.2208 -0.2215 -0.4005
  362SOL    HW1 1085   1.424   1.712   0.844  1.2914 -0.1407 -1.4419
  362SOL    HW2 1086   1.445   1.793   0.695 -1.4525 -1.5719 -1.4431
  363SOL     OW 1087   1.255   1.338   2.079 -0.1148  0.0075  0.1712
  363SOL    HW1 1088   1.353   1.374   2.092 -1.8987 -1.1395  0.5599
  363SOL    HW2 1089   1.184   1.409   2.052  0.5924 -1.1357 -0.3886
  364SOL     OW 1090   0.527   2.365   2.002 -0.0249  0.1249  0.5855
  364SOL    HW1 1091   0.425   2.374   1.977 -1.0153 -0.6236  3.0025
  364SOL    HW2 1092   0.588   2.400   1.926 -2.0081 -1.3453  0.0087
  365SOL     OW 1093   1.024   1.968   1.329  0.2331  0.0069  0.1006
  365SOL    HW1 1094   0.925   1.943   1.340  0.8025 -0.2712  2.0932
  365SOL    HW2 1095   1.054   1.974   1.229 -0.6623 -2.6785 -1.2627
  366SOL     OW 1096   2.845   1.945   0.368  0.0016 -0.3248 -0.4430
  366SOL    HW1 1097   2.747   1.914   0.388  0.2638 -1.3377  2.3662
  366SOL    HW2 1098   2.905   1.871   0.336 -1.3856  3.3866 -0.4161
  367SOL     OW 1099   0.951   1.177   0.011  0.8096  0.6027  0.2265
  367SOL    HW1 1100   0.948   1.095   0.074 -1.0810  0.1524  1.7530
  367SOL    HW2 1101   1.030   1.241   0.016  1.1405 -0.3865 -1.2794
  368SOL     OW 1102   1.419   0.555   0.627 -0.2624 -0.2500 -0.1550
  368SOL    HW1 1103   1.376   0.594   0.544 -2.2949  0.5756  2.8092
  368SOL    HW2 1104   1.518   0.549   0.625 -0.4564 -1.3119 -0.1271
  369SOL     OW 1105   0.368   1.731   0.155 -0.0147  0.9414  0.2173
  369SOL    HW1 1106   0.409   1.805   0.218 -0.2951 -0.3206  2.0105
  369SOL    HW2 1107   0.320   1.654   0.209  0.0911  1.3504  0.6251
  370SOL     OW 1108   0.427   2.056   1.063  0.3101  0.1514 -0.4315
  370SOL    HW1 1109   0.464   2.151   1.043  0.6531 -2.1515  3.0430
  370SOL    HW2 1110   0.328   2.039   1.029 -1.1150 -0.8101 -0.9990
  371SOL     OW 1111   2.900   2.211   2.613 -0.6594 -0.5114 -0.1783
  371SOL    HW1 1112   2.844   2.140   2.660 -0.8689  0.4204 -2.3145
  371SOL    HW2 1113   2.939   2.282   2.673 -2.4265 -0.1384 -0.2103
  372SOL     OW 1114   1.027   2.033   1.022  0.5232  0.3051 -0.6392
  372SOL    HW1 1115   0.934   2.060   0.985  1.0514 -1.1969 -0.4517
  372SOL    HW2 1116   1.104   2.084   0.969 -0.2004  1.7791 -0.3740
  373SOL     OW 1117   1.963   1.933   0.896 -0.3207 -0.6731  0.4851
  373SOL    HW1 1118   2.041   1.957   0.959 -1.8599  1.7611  0.7250
  373SOL    HW2 1119   1.877   1.988   0.907  1.2845 -0.1966  3.5713
  374SOL     OW 1120   1.864   0.385   0.555  0.1416 -0.2212  0.0555
  374SOL    HW1 1121   1.858   0.343   0.650 -1.2811  3.5051 -3.4517
  374SOL    HW2 1122   1.963   0.407   0.531  0.1664  0.3829 -0.0636
  375SOL     OW 1123   2.410   2.150   1.081 -0.4045  0.4077  0.1747
  375SOL    HW1 1124   2.449   2.149   0.983 -1.5575  0.0992  0.5061
  375SOL    HW2 1125   2.484   2.131   1.153 -0.8474 -1.2976 -1.3152
  376SOL     OW 1126   3.022   0.525   1.481  0.0748 -0.4473  0.3910
  376SOL    HW1 1127   3.001   0.594   1.559 -2.5921  1.6633  1.7034
  376SOL    HW2 1128   2.955   0.447   1.483  0.5845  0.7180 -3.5459
  377SOL     OW 1129   2.167   2.905   0.305  0.2957  0.1282  0.2071
  377SOL    HW1 1130   2.120   2.988   0.347 -0.0840 -0.0551  0.3304
  377SOL    HW2 1131   2.249   2.872   0.359  2.9023  2.0652  0.4628
  378SOL     OW 1132   1.738   1.841   2.553  0.0634  0.4779 -0.3010
  378SOL    HW1 1133   1.835   1.868   2.539 -3.4708  3.6512 -2.5994
  378SOL    HW2 1134   1.723   1.752   2.502  1.9209 -0.0130  0.4515
  379SOL     OW 1135   0.684   0.153   2.846 -0.1723 -0.0863 -0.0671
  379SOL    HW1 1136   0.727   0.075   2.792  1.7304  0.7734  0.0985
  379SOL    HW2 1137   0.697   0.241   2.793 -1.1318  1.5345 -0.3919
  380SOL     OW 1138   1.525   1.134   0.604  0.9290 -0.4197 -0.4299
  380SOL    HW1 1139   1.432   1.178   0.626 -1.4054  0.1212 -0.8647
  380SOL    HW2 1140   1.535   1.040   0.644 -0.0353  0.6305  0.4397
  381SOL     OW 1141   1.339   1.189   1.570 -0.1169  0.4134  0.0955
  381SOL    HW1 1142   1.380   1.124   1.504  1.1465  0.4141  1.9674
  381SOL    HW2 1143   1.406   1.245   1.627  1.0488 -0.9684  1.4272
  382SOL     OW 1144   1.804   0.898   0.186  0.5953 -0.0916  0.0928
  382SOL    HW1 1145   1.817   0.891   0.081 -1.6019  1.2789 -0.2998
  382SOL    HW2 1146   1.885   0.860   0.243  1.0338 -0.8461  0.7454
  383SOL     OW 1147   2.584   1.007   1.471 -0.1540  0.0926  0.0546
  383SOL    HW1 1148   2.491   0.973   1.436 -2.2069 -0.7206 -0.9335
  383SOL    HW2 1149   2.658   1.002   1.392  1.6130 -1.3963 -1.6489
  384SOL     OW 1150   0.957   2.226   0.148 -0.2449  0.0973 -0.1783
  384SOL    HW1 1151   0.959   2.298   0.222 -0.8122 -0.9635 -1.8688
  384SOL    HW2 1152   0.905   2.141   0.181 -0.6933  0.2154 -0.8595
  385SOL     OW 1153   2.970   2.015   1.652  0.1008 -0.4246  0.4291
  385SOL    HW1 1154   3.030   2.091   1.615 -1.9110 -1.6518  0.1573
  385SOL    HW2 1155   3.002   1.920   1.645 -0.7238  0.9457 -0.6714
  386SOL     OW 1156   0.521   1.039   0.454  0.0172 -1.0805  0.6495
  386SOL    HW1 1157   0.496   0.942   0.464 -0.1651  1.2543  2.1155
  386SOL    HW2 1158   0.438   1.098   0.432 -1.5125 -0.4263 -1.3995
  387SOL     OW 1159   0.949   0.385   1.680 -0.2410  1.0793 -0.0887
  387SOL    HW1 1160   0.995   0.480   1.685 -2.9519  2.6155  0.5730
  387SOL    HW2 1161   0.953   0.348   1.586  1.4877  1.1276  1.9666
  388SOL     OW 1162   1.213   2.710   1.753 -0.1807  0.1015 -0.1231
  388SOL    HW1 1163   1.241   2.707   1.655 -1.1808  0.2830 -0.1581
  388SOL    HW2 1164   1.243   2.629   1.807 -0.2725  1.7069 -0.0387
  389SOL     OW 1165   0.164   3.035   1.195  0.2853  0.0234  0.6119
  389SOL    HW1 1166   0.084   3.104   1.173 -1.6388 -1.0503  0.7303
  389SOL    HW2 1167   0.122   2.941   1.212  0.9989 -1.0519 -1.2801
  390SOL     OW 1168   1.038   0.988   1.326 -0.0390 -0.3493 -0.0447
  390SOL    HW1 1169   1.112   0.955   1.397  1.0726  0.8994 -1.0555
  390SOL    HW2 1170   0.966   1.048   1.371  0.3221  0.3009  0.2569
  391SOL     OW 1171   2.160   1.114   1.075  0.4228  0.2419  0.4867
  391SOL    HW1 1172   2.104   1.026   1.096  0.3236  1.0365 -1.6787
  391SOL    HW2 1173   2.209   1.103   0.986  3.5132  1.2752 -0.5695
  392SOL     OW 1174   0.846   2.691   3.096  0.0507 -0.2172 -0.2031
  392SOL    HW1 1175   0.896   2.603   3.074  0.9332 -4.1514 -2.8582
  392SOL    HW2 1176   0.879   2.738   3.184  1.4077 -1.1232  0.3129
  393SOL     OW 1177   0.373   0.560   1.978  0.5158  0.5628 -0.5034
  393SOL    HW1 1178   0.301   0.481   1.979  1.4234  1.7177  0.7716
  393SOL    HW2 1179   0.458   0.541   1.918  2.8702  0.1269 -0.6016
  394SOL     OW 1180   2.971   1.870   2.766 -0.7904  0.0333  0.6846
  394SOL    HW1 1181   3.046   1.856   2.836 -0.8017  2.1347 -1.0745
  394SOL    HW2 1182   3.002   1.888   2.671 -1.5706  1.1051  2.1584
  395SOL     OW 1183   1.623   1.986   0.668 -0.3573  0.1430  0.0225
  395SOL    HW1 1184   1.678   1.917   0.610 -3.6846 -2.2293  0.7505
  395SOL    HW2 1185   1.666   2.008   0.760 -0.6995 -0.3387 -1.4148
  396SOL     OW 1186   2.828   1.869   1.280 -0.4720 -0.5028 -0.0730
  396SOL    HW1 1187   2.809   1.767   1.286 -0.0308  3.3606  3.1294
  396SOL    HW2 1188   2.770   1.922   1.345  0.2562  0.0368  0.2194
  397SOL     OW 1189   1.034   2.226   0.496 -0.4087  0.3019 -0.0775
  397SOL    HW1 1190   0.941   2.185   0.524  1.4609  2.0998 -1.4251
  397SOL    HW2 1191   1.051   2.312   0.547  0.8220 -1.1435  2.8535
  398SOL     OW 1192   2.143   3.100   1.012  0.1777 -0.2158 -0.0328
  398SOL    HW1 1193   2.139   3.012   1.067  1.2949  2.8636 -0.3213
  398SOL    HW2 1194   2.084   3.175   1.053  1.1663  1.2083  1.5313
  399SOL     OW 1195   3.045   2.472   2.507 -0.1069 -0.0749 -0.1072
  399SOL    HW1 1196   2.940   2.487   2.508  1.4175  0.1891 -0.6879
  399SOL    HW2 1197   3.071   2.385   2.550 -0.4886  2.5817  3.1987
  400SOL     OW 1198   0.772   1.618   1.328  0.3924  0.1193  0.0681
  400SOL    HW1 1199   0.725   1.658   1.416  0.7153 -1.8107  0.2653
  400SOL    HW2 1200   0.770   1.685   1.252 -3.5456  2.1897  1.1341
  401SOL     OW 1201   1.833   0.079   1.310  0.5348  0.0052 -0.2708
  401SOL    HW1 1202   1.868   0.096   1.408  1.4734 -0.5588 -0.5394
  401SOL    HW2 1203   1.731   0.091   1.301  2.7272 -0.8786  1.4515
  402SOL     OW 1204   1.320   0.164   3.068 -0.5481 -0.3498  0.4630
  402SOL    HW1 1205   1.421   0.159   3.039  1.6551 -0.1561 -1.4455
  402SOL    HW2 1206   1.286   0.263   3.082  2.1795  0.8973 -1.5476
  403SOL     OW 1207   2.284   1.746   0.923 -0.4374 -0.1699  0.9695
  403SOL    HW1 1208   2.381   1.735   0.958  0.1168 -2.8638 -2.4204
  403SOL    HW2 1209   2.234   1.828   0.964 -0.2187  3.2788  1.4321
  404SOL     OW 1210   0.173   2.515   2.785 -0.1844 -0.2583  0.0684
  404SOL    HW1 1211   0.251   2.444   2.778 -0.4460  1.6291 -0.0930
  404SOL    HW2 1212   0.210   2.605   2.827  0.4925 -0.5265 -0.1338
  405SOL     OW 1213   0.137   2.403   0.722 -0.2608  0.2944  0.6645
  405SOL    HW1 1214   0.105   2.353   0.641  1.0282  3.7603  2.0017
  405SOL    HW2 1215   0.196   2.485   0.694  0.6822  0.9643  1.3556
  406SOL     OW 1216   0.075   1.530   3.041  0.6547 -0.1510  0.4716
  406SOL    HW1 1217   0.111   1.471   2.971 -1.2653  0.9349 -0.0172
  406SOL    HW2 1218   0.118   1.511   3.137  0.9992 -0.1963  1.1316
  407SOL     OW 1219   1.533   0.966   0.980 -0.6535  0.0948  0.9621
  407SOL    HW1 1220   1.501   0.932   0.893 -3.1523  3.0283  1.2369
  407SOL    HW2 1221   1.453   1.023   1.023 -0.5637  0.6904  2.1413
  408SOL     OW 1222   1.614   2.382   0.959 -0.3801  0.8013  0.0693
  408SOL    HW1 1223   1.664   2.383   0.867  0.1185  0.0517  0.9972
  408SOL    HW2 1224   1.571   2.468   0.985  1.6208 -0.6918 -0.0605
  409SOL     OW 1225   0.617   0.863   0.734 -0.5749 -0.1331  0.0942
  409SOL    HW1 1226   0.562   0.869   0.641 -2.1426 -0.9557 -1.8750
  409SOL    HW2 1227   0.638   0.767   0.770 -0.7313  0.8976  0.7689
  410SOL     OW 1228   1.318   2.065   1.418 -0.0908  0.5282 -0.2104
  410SOL    HW1 1229   1.405   2.003   1.439  0.8217 -0.9693  0.6812
  410SOL    HW2 1230   1.231   2.013   1.430  2.6776  2.4177 -0.1231
  411SOL     OW 1231   2.582   1.892   3.043  0.1782  0.1441 -0.0988
  411SOL    HW1 1232   2.508   1.947   2.992  1.7293  1.5238 -2.7948
  411SOL    HW2 1233   2.648   1.841   2.978  2.0189  0.3382  0.4632
  412SOL     OW 1234   1.455   2.476   2.169 -0.1369 -0.7076  0.0020
  412SOL    HW1 1235   1.527   2.542   2.199 -0.2469 -2.4271  0.2902
  412SOL    HW2 1236   1.383   2.462   2.240  0.9999  0.2507 -0.1049
  413SOL     OW 1237   3.049   0.259   2.962 -0.5331 -1.2087 -0.7932
  413SOL    HW1 1238   3.022   0.163   2.993 -0.5689  1.1519  1.8239
  413SOL    HW2 1239   3.152   0.278   2.947 -0.5512  1.0740  2.0428
  414SOL     OW 1240   1.839   1.514   1.205 -0.3113 -0.8814 -0.8051
  414SOL    HW1 1241   1.779   1.570   1.148  0.9200  1.7315  2.2681
  414SOL    HW2 1242   1.824   1.408   1.195 -1.7590 -1.3253  1.8171
  415SOL     OW 1243   0.360   2.209   0.691  0.3211  0.7257 -0.0507
  415SOL    HW1 1244   0.268   2.258   0.687 -2.7882  0.5065 -0.4760
  415SOL    HW2 1245   0.374   2.159   0.778 -2.9005 -0.2645 -1.4912
  416SOL     OW 1246   0.379   1.017   1.062 -0.0696  0.1842  0.3860
  416SOL    HW1 1247   0.361   0.969   0.976  0.4389 -0.6857  0.1389
  416SOL    HW2 1248   0.468   1.065   1.060 -0.9682 -0.2175 -1.1319
  417SOL     OW 1249   2.228   2.337   1.990 -0.1507  0.3325  0.6404
  417SOL    HW1 1250   2.314   2.284   2.020  1.1353  1.8965 -1.1034
  417SOL    HW2 1251   2.139   2.284   1.992 -1.4524 -0.1910 -0.1920
  418SOL     OW 1252   1.090   0.524   1.352 -0.3015  0.2666 -0.3971
  418SOL    HW1 1253   1.038   0.485   1.270  0.6942  1.5477  1.9542
  418SOL    HW2 1254   1.184   0.562   1.328 -0.0043  0.2357  1.4685
  419SOL     OW 1255   0.913   0.460   3.009 -0.0341  0.1538  0.3622
  419SOL    HW1 1256   0.878   0.451   2.911 -0.6773 -0.4204 -1.8089
  419SOL    HW2 1257   0.949   0.558   3.032  4.2225  1.9921 -2.8853
  420SOL     OW 1258   0.091   2.263   0.449  0.0407 -0.3136  0.3858
  420SOL    HW1 1259   0.130   2.234   0.356  2.0562 -0.3095 -1.0184
  420SOL    HW2 1260   0.017   2.199   0.481 -1.3756  1.8355 -0.3226
  421SOL     OW 1261   0.362   3.022   0.662  0.0353 -0.1343 -0.2806
  421SOL    HW1 1262   0.335   2.939   0.716 -0.9862  0.4509 -0.8728
  421SOL    HW2 1263   0.459   3.059   0.683  1.4843  2.9390  0.9657
  422SOL     OW 1264   1.063   2.485   1.022 -0.1274 -0.2522  0.2791
  422SOL    HW1 1265   1.082   2.573   0.971 -1.8796  1.5521  0.1654
  422SOL    HW2 1266   1.045   2.503   1.121 -1.4157  2.6369 -0.1854
  423SOL     OW 1267   0.081   0.672   1.306  0.2318  0.3772 -0.0083
  423SOL    HW1 1268   0.008   0.629   1.373  1.5042 -0.0204 -2.4472
  423SOL    HW2 1269   0.051   0.764   1.272  0.9165 -0.6102  0.0603
  424SOL     OW 1270   0.985   2.208   2.042  0.0236  0.3580 -0.2811
  424SOL    HW1 1271   0.963   2.299   2.005  2.7186 -0.0763  1.4433
  424SOL    HW2 1272   0.962   2.208   2.145  0.0785  0.0707 -1.5712
  425SOL     OW 1273   2.024   1.326   0.977  0.1271  0.6587  0.0006
  425SOL    HW1 1274   2.071   1.243   1.025  2.5665 -0.0119 -1.3807
  425SOL    HW2 1275   2.089   1.403   0.953 -1.0255 -1.5610  0.0917
  426SOL     OW 1276   1.477   1.597   1.390 -0.3177 -0.3811  0.4273
  426SOL    HW1 1277   1.484   1.647   1.301 -0.8825  1.0922 -1.4458
  426SOL    HW2 1278   1.392   1.620   1.440  2.1450  0.1663 -2.4705
  427SOL     OW 1279   1.899   2.362   2.041  0.1657  0.1059  0.4558
  427SOL    HW1 1280   1.953   2.306   2.112  2.4835  0.5226  0.9490
  427SOL    HW2 1281   1.916   2.465   2.052 -0.0989 -1.4100 -0.5367
  428SOL     OW 1282   0.858   3.057   0.181 -0.6696  1.3292 -0.3451
  428SOL    HW1 1283   0.863   3.134   0.113 -0.8988  0.1180 -2.7167
  428SOL    HW2 1284   0.935   2.992   0.171 -0.0394  1.7889 -0.0176
  429SOL     OW 1285   1.312   0.056   0.256 -0.0774  0.0923 -0.2586
  429SOL    HW1 1286   1.405   0.093   0.283  0.8754 -0.2406  0.5761
  429SOL    HW2 1287   1.291   0.063   0.155 -0.4822 -1.3028 -0.5371
  430SOL     OW 1288   2.765   1.435   0.308 -0.2963 -0.3328 -0.0353
  430SOL    HW1 1289   2.828   1.477   0.235  0.7043  1.5862 -1.1882
  430SOL    HW2 1290   2.781   1.475   0.405 -0.2599  0.7410 -2.3623
  431SOL     OW 1291   2.101   1.560   0.880 -0.3355 -0.2856  0.0492
  431SOL    HW1 1292   2.171   1.635   0.909  3.6756 -1.7868  1.2305
  431SOL    HW2 1293   2.049   1.591   0.796 -1.4185 -0.7994  2.3735
  432SOL     OW 1294   2.835   2.240   1.252  0.2380  0.0982 -0.2616
  432SOL    HW1 1295   2.805   2.149   1.295 -2.2492  1.3237  1.7498
  432SOL    HW2 1296   2.890   2.296   1.321  0.8453 -3.3783  0.1075
  433SOL     OW 1297   1.864   0.366   0.844 -0.6732  0.0100  0.3530
  433SOL    HW1 1298   1.785   0.366   0.911 -2.2885  1.1091  0.5345
  433SOL    HW2 1299   1.945   0.299   0.872 -0.4758 -3.4812  0.1551
  434SOL     OW 1300   1.510   0.241   0.759  0.2205 -0.4270  0.2834
  434SOL    HW1 1301   1.462   0.328   0.733 -0.8626  2.5362 -0.8575
  434SOL    HW2 1302   1.583   0.264   0.831  1.2816  2.3564 -1.3893
  435SOL     OW 1303   1.479   1.483   2.130 -0.3820 -0.0997 -0.0229
  435SOL    HW1 1304   1.448   1.535   2.215  1.1232  1.0545 -5.1350
  435SOL    HW2 1305   1.494   1.557   2.057  0.3716 -0.1324 -0.4351
  436SOL     OW 1306   1.694   2.747   2.221  0.1430 -0.3887 -0.2017
  436SOL    HW1 1307   1.653   2.823   2.278  1.1493  0.7544 -0.4672
  436SOL    HW2 1308   1.702   2.657   2.278 -1.4366  1.3709  3.1562
  437SOL     OW 1309   1.087   2.926   0.939  0.8411  0.0000  0.4654
  437SOL    HW1 1310   1.024   3.009   0.921 -1.0906  1.5681  2.9128
  437SOL    HW2 1311   1.095   2.912   1.041  0.2443  0.1555  1.1352
  438SOL     OW 1312   0.995   2.593   1.303  0.0852  0.5119  0.1655
  438SOL    HW1 1313   1.072   2.620   1.371 -0.0564 -1.1324 -1.3424
  438SOL    HW2 1314   0.976   2.491   1.297 -2.9154  0.1606 -0.2569
  439SOL     OW 1315   0.684   1.755   1.080  0.0237  0.2220 -0.1834
  439SOL    HW1 1316   0.674   1.834   1.011  0.9956  0.0542 -1.4086
  439SOL    HW2 1317   0.594   1.729   1.128 -1.7683  2.2751 -1.0098
  440SOL     OW 1318   1.008   2.504   1.985 -0.1406  0.2238 -0.3916
  440SOL    HW1 1319   0.983   2.537   1.892  1.6091  1.1025  0.6269
  440SOL    HW2 1320   1.114   2.499   1.984 -0.9034 -3.0818 -0.3869
  441SOL     OW 1321   0.500   2.727   1.427  0.0488 -0.0649  0.2244
  441SOL    HW1 1322   0.541   2.637   1.428  0.7994  1.7460  1.1503
  441SOL    HW2 1323   0.397   2.723   1.453  0.8817 -1.4686  1.4236
  442SOL     OW 1324   2.306   0.686   2.479 -0.7986  0.3040  0.7825
  442SOL    HW1 1325   2.303   0.595   2.534  0.3610  0.0181  2.7157
  442SOL    HW2 1326   2.215   0.709   2.431  0.1117 -1.0094 -0.0266
  443SOL     OW 1327   1.264   2.698   2.138  0.0098  0.1198 -0.2899
  443SOL    HW1 1328   1.275   2.766   2.216 -3.5811 -3.9514 -0.1921
  443SOL    HW2 1329   1.224   2.608   2.167  1.7971 -1.5551  1.0808
  444SOL     OW 1330   1.082   1.269   1.597 -0.1682 -0.4980 -0.0388
  444SOL    HW1 1331   1.172   1.224   1.566 -0.2456  1.1339  0.2649
  444SOL    HW2 1332   1.100   1.353   1.659 -2.4377  1.1348 -5.1385
  445SOL     OW 1333   0.033   2.364   1.848  0.2243 -0.5118  0.1672
  445SOL    HW1 1334   0.032   2.463   1.815  0.5084  2.6751  0.5370
  445SOL    HW2 1335  -0.057   2.342   1.895  0.1313 -0.5977 -0.4361
  446SOL     OW 1336   0.254   1.903   2.302 -0.3908 -0.0329  0.0286
  446SOL    HW1 1337   0.251   1.990   2.356  0.7998  0.6897 -1.4726
  446SOL    HW2 1338   0.185   1.888   2.225  2.1527  0.2664 -0.9938
  447SOL     OW 1339   1.180   1.682   1.933 -0.2309 -0.3610  0.2395
  447SOL    HW1 1340   1.112   1.752   1.899  0.8970  2.3915  0.6787
  447SOL    HW2 1341   1.268   1.687   1.876  0.1240  1.4387  0.5087
  448SOL     OW 1342   0.152   1.537   2.018  0.4984 -0.3062  1.2551
  448SOL    HW1 1343   0.128   1.628   1.973  0.7766  1.6196  0.2892
  448SOL    HW2 1344   0.106   1.540   2.109  0.0193  2.2797 -1.1357
  449SOL     OW 1345   1.953   2.953   0.834  0.6568 -0.1264 -0.0857
  449SOL    HW1 1346   2.010   2.975   0.920  0.4809 -4.4595 -1.0128
  449SOL    HW2 1347   1.966   2.857   0.793 -0.5155  1.9404 -0.2425
  450SOL     OW 1348   2.340   1.368   0.740  0.0924 -0.0064  0.0156
  450SOL    HW1 1349   2.244   1.323   0.737  1.8283 -2.8078  1.3589
  450SOL    HW2 1350   2.344   1.451   0.679 -1.3889 -2.0949 -3.9441
  451SOL     OW 1351   1.317   3.048   1.450  0.0037 -0.1301 -0.6287
  451SOL    HW1 1352   1.253   3.130   1.469 -0.0864  1.5548 -0.8660
  451SOL    HW2 1353   1.361   3.011   1.539  0.7359  0.7333  1.1648
  452SOL     OW 1354   2.670   2.288   2.158  0.3791 -0.0206  0.3797
  452SOL    HW1 1355   2.592   2.351   2.187 -0.1155 -2.1183 -1.0196
  452SOL    HW2 1356   2.732   2.259   2.235 -0.3112 -2.1916 -0.1336
  453SOL     OW 1357   2.472   2.667   3.093 -0.7489  0.2198 -0.6181
  453SOL    HW1 1358   2.392   2.716   3.130  1.6548 -2.8063  1.0368
  453SOL    HW2 1359   2.440   2.591   3.035 -1.2758  2.0760  1.4462
  454SOL     OW 1360   1.031   1.125   2.075  0.1006 -0.6666 -0.3012
  454SOL    HW1 1361   0.975   1.101   1.989 -0.7229 -1.4703 -0.8674
  454SOL    HW2 1362   1.087   1.213   2.056  2.9089 -0.9274  1.4375
  455SOL     OW 1363   0.635   2.612   2.881 -0.1348 -0.8175 -0.1097
  455SOL    HW1 1364   0.693   2.662   2.956  0.1335 -0.4469  2.0691
  455SOL    HW2 1365   0.614   2.512   2.905 -3.5704  0.5811  0.1044
  456SOL     OW 1366   0.490   1.915   0.326  0.0501  0.4916  0.2561
  456SOL    HW1 1367   0.569   1.878   0.384  1.1534 -0.4960 -0.3540
  456SOL    HW2 1368   0.514   2.016   0.298  1.3898  3.1215 -0.5294
  457SOL     OW 1369   0.324   2.609   0.686  0.7422 -0.2895  0.4059
  457SOL    HW1 1370   0.292   2.684   0.619  0.3396  2.8894 -2.8287
  457SOL    HW2 1371   0.424   2.618   0.711 -0.0979  0.0426  2.0129
  458SOL     OW 1372   2.967   3.094   1.209 -0.2801  0.4419 -0.1664
  458SOL    HW1 1373   2.994   3.192   1.193 -0.1962  0.3682  3.3256
  458SOL    HW2 1374   2.959   3.038   1.124 -0.9455 -1.0818 -1.4389
  459SOL     OW 1375   2.204   2.561   0.803 -0.1687 -0.1175  0.1640
  459SOL    HW1 1376   2.238   2.657   0.815 -0.2161 -3.9045  2.6523
  459SOL    HW2 1377   2.283   2.503   0.769 -0.6037 -0.3807  1.6290
  460SOL     OW 1378   1.143   1.967   2.890 -0.6139  0.3490 -0.0387
  460SOL    HW1 1379   1.200   2.009   2.817 -1.9219 -1.5944 -0.0290
  460SOL    HW2 1380   1.200   1.918   2.961 -2.9655 -0.0643 -1.7650
  461SOL     OW 1381   0.521   2.093   2.663 -0.2790  0.3095  0.1796
  461SOL    HW1 1382   0.446   2.026   2.630 -2.4208  0.5363 -0.5805
  461SOL    HW2 1383   0.547   2.068   2.758  0.7503  0.1606 -0.5292
  462SOL     OW 1384   0.911   1.075   1.817 -0.2799  0.1353 -0.0484
  462SOL    HW1 1385   1.000   1.030   1.776 -0.3147  2.6637 -1.5594
  462SOL    HW2 1386   0.886   1.161   1.771  1.2685 -0.3066  2.2359
  463SOL     OW 1387   0.462   0.781   0.497  0.0021  0.4652  0.0984
  463SOL    HW1 1388   0.513   0.689   0.484  3.0720 -0.0008 -1.6602
  463SOL    HW2 1389   0.362   0.777   0.499 -0.0230  1.9526  0.5521
  464SOL     OW 1390   0.583   2.266   2.247 -0.4687  0.0648  0.5215
  464SOL    HW1 1391   0.568   2.348   2.311 -0.0114 -1.6281 -1.3596
  464SOL    HW2 1392   0.561   2.290   2.146  2.3209 -1.5320 -1.5655
  465SOL     OW 1393   0.316   0.919   0.809  0.0054  0.4273  0.0021
  465SOL    HW1 1394   0.228   0.935   0.758  0.0065  0.8029  2.2276
  465SOL    HW2 1395   0.325   0.813   0.831 -1.3568 -3.0645  0.0516
  466SOL     OW 1396   1.350   1.142   1.085  0.7497 -0.1235  0.2995
  466SOL    HW1 1397   1.389   1.237   1.099  2.5249 -0.9876 -1.3653
  466SOL    HW2 1398   1.264   1.149   1.033 -0.7313  0.3875  1.1664
  467SOL     OW 1399   0.489   0.309   2.353 -0.0050 -0.5716 -0.0305
  467SOL    HW1 1400   0.466   0.398   2.397  2.0264 -3.2024  0.3501
  467SOL    HW2 1401   0.495   0.229   2.418 -2.3240  1.0067  0.5437
  468SOL     OW 1402   0.467   2.300   1.676  0.0233  0.1343  0.2269
  468SOL    HW1 1403   0.564   2.339   1.698  2.4301  1.6435  0.2535
  468SOL    HW2 1404   0.432   2.316   1.578 -0.7099  0.5739 -0.4583
  469SOL     OW 1405   1.521   1.350   1.221  0.0205 -0.4006  0.4665
  469SOL    HW1 1406   1.612   1.329   1.182 -0.2777  2.9962  0.3016
  469SOL    HW2 1407   1.522   1.404   1.313 -0.1689 -1.7685 -0.4538
  470SOL     OW 1408   3.025   1.664   0.798 -0.4644 -0.0335  0.0253
  470SOL    HW1 1409   3.107   1.725   0.780  0.0528 -1.4140 -1.4933
  470SOL    HW2 1410   2.962   1.700   0.869  4.6765  1.2479  2.5237
  471SOL     OW 1411   2.648   1.322   2.153 -0.0040  0.0748  0.3315
  471SOL    HW1 1412   2.653   1.250   2.229 -0.5127 -0.4921 -1.3088
  471SOL    HW2 1413   2.722   1.391   2.155 -1.0785  1.4385  0.0965
  472SOL     OW 1414   1.141   2.507   3.066 -0.0047 -0.0239 -0.0186
  472SOL    HW1 1415   1.172   2.494   3.165  1.8122  0.7512 -2.5072
  472SOL    HW2 1416   1.105   2.417   3.026 -0.2928  2.3935 -0.2672
  473SOL     OW 1417   1.101   1.504   1.000 -0.6829 -0.2985 -0.3912
  473SOL    HW1 1418   1.002   1.506   1.013  1.9984  3.0807 -1.3557
  473SOL    HW2 1419   1.150   1.481   1.094 -1.5794  0.0329  2.6840
  474SOL     OW 1420   0.704   1.259   0.594  0.0718 -0.6356  0.3075
  474SOL    HW1 1421   0.684   1.278   0.490 -0.7700 -2.2465 -0.3326
  474SOL    HW2 1422   0.763   1.173   0.606  1.6554  1.1357  1.1385
  475SOL     OW 1423   2.843   0.118   0.766 -0.0039  0.7383 -0.3470
  475SOL    HW1 1424   2.929   0.129   0.826 -0.3111 -0.9697 -1.9518
  475SOL    HW2 1425   2.756   0.150   0.817  0.7182 -1.9181 -1.3500
  476SOL     OW 1426   0.877   2.987   1.766 -1.0206 -0.7614  0.2695
  476SOL    HW1 1427   0.956   2.941   1.819  0.0145  0.5731  0.6233
  476SOL    HW2 1428   0.885   2.968   1.661  1.8712 -2.0625 -0.8106
  477SOL     OW 1429   1.438   0.345   2.493  0.2470 -0.2411  0.3206
  477SOL    HW1 1430   1.428   0.370   2.593  2.0115 -0.2061 -1.0067
  477SOL    HW2 1431   1.521   0.284   2.464 -1.7421  0.2134 -0.1301
  478SOL     OW 1432   2.213   1.848   0.270  0.2918 -0.6439  0.3089
  478SOL    HW1 1433   2.147   1.770   0.258  0.8983  1.0722 -0.1098
  478SOL    HW2 1434   2.310   1.828   0.226 -0.5841 -1.3237 -1.3710
  479SOL     OW 1435   1.263   1.092   2.937  1.0243  0.4040  0.3228
  479SOL    HW1 1436   1.328   1.121   2.854  0.1454  0.3739 -1.1483
  479SOL    HW2 1437   1.179   1.050   2.889  0.4726 -1.1389 -2.6232
  480SOL     OW 1438   2.512   2.306   0.374  0.1774  0.0147  0.3002
  480SOL    HW1 1439   2.478   2.222   0.422 -0.2241  2.4601 -0.4101
  480SOL    HW2 1440   2.447   2.350   0.306 -1.2570 -1.8844  0.5080
  481SOL     OW 1441   1.032   1.148   0.826 -0.3119  0.0619  0.3076
  481SOL    HW1 1442   1.045   1.247   0.794  0.2046  1.6756  3.8595
  481SOL    HW2 1443   1.018   1.143   0.930  1.2321 -0.5766  0.3745
  482SOL     OW 1444   1.590   0.288   2.039  0.3650  0.3373  0.1040
  482SOL    HW1 1445   1.612   0.391   2.014  0.6484  0.1501 -0.5128
  482SOL    HW2 1446   1.674   0.237   2.068  1.9176 -0.7994  1.5274
  483SOL     OW 1447   0.151   2.324   1.236  0.3541 -0.0840 -0.2554
  483SOL    HW1 1448   0.073   2.363   1.296  0.4873  2.3863 -0.0275
  483SOL    HW2 1449   0.162   2.381   1.148  0.9321  0.6177 -1.7272
  484SOL     OW 1450   1.751   1.065   1.399  0.0123 -0.1303  0.0237
  484SOL    HW1 1451   1.800   0.972   1.401 -1.7085 -0.7018  1.5897
  484SOL    HW2 1452   1.798   1.140   1.457 -1.8020  1.4985 -1.1113
  485SOL     OW 1453   0.651   1.058   1.837 -0.3925  0.0160  0.1295
  485SOL    HW1 1454   0.664   1.022   1.741  0.9240 -0.6254 -2.2331
  485SOL    HW2 1455   0.750   1.062   1.879  0.5144 -0.7648 -0.8621
  486SOL     OW 1456   0.879   1.916   2.456  0.3732 -0.0264  0.0333
  486SOL    HW1 1457   0.920   1.875   2.548  1.0413 -3.3803  2.6230
  486SOL    HW2 1458   0.822   2.007   2.463  0.1257  1.6330 -0.5806
  487SOL     OW 1459   1.823   1.594   0.923 -0.1536 -0.2397 -0.4828
  487SOL    HW1 1460   1.872   1.506   0.950  1.7752  0.0916  2.4027
  487SOL    HW2 1461   1.873   1.645   0.846  0.5944 -2.0728  2.6798
  488SOL     OW 1462   2.938   0.855   2.265 -0.2828  0.1302  0.0924
  488SOL    HW1 1463   2.979   0.758   2.243  0.0596  0.0046 -2.1583
  488SOL    HW2 1464   2.958   0.883   2.362 -0.0189 -0.8364 -0.5293
  489SOL     OW 1465   2.772   0.258   1.294 -0.0840  0.5163 -0.0189
  489SOL    HW1 1466   2.743   0.209   1.385  2.5873 -1.5989 -2.3807
  489SOL    HW2 1467   2.866   0.301   1.294  0.8320  1.3173 -0.1192
  490SOL     OW 1468   1.454   2.914   2.809 -0.0495 -0.4127 -0.1114
  490SOL    HW1 1469   1.518   2.839   2.784 -3.5899 -1.6325  1.6390
  490SOL    HW2 1470   1.423   2.976   2.729 -0.2869  0.6562  0.9007
  491SOL     OW 1471   1.829   1.467   2.591  0.0617  0.0883  0.2027
  491SOL    HW1 1472   1.774   1.470   2.681 -3.4741  2.9891  1.5033
  491SOL    HW2 1473   1.929   1.496   2.604  0.5879  0.4043  0.7021
  492SOL     OW 1474   0.518   1.982   0.645 -0.1744  0.0253  0.0982
  492SOL    HW1 1475   0.578   1.978   0.727 -0.3899  4.2635 -0.2745
  492SOL    HW2 1476   0.472   2.077   0.639  1.8226  1.5554  0.3378
  493SOL     OW 1477   0.401   1.404   2.059 -0.0190  0.1834 -0.3343
  493SOL    HW1 1478   0.315   1.455   2.044  0.9695  0.9192  1.4848
  493SOL    HW2 1479   0.393   1.329   2.132  0.1183 -2.8977  0.3257
  494SOL     OW 1480   2.641   2.740   0.197 -0.3101  0.5591  0.4120
  494SOL    HW1 1481   2.619   2.692   0.285 -1.9847 -0.9233  0.4615
  494SOL    HW2 1482   2.591   2.706   0.114  1.0560  3.0214  1.0575
  495SOL     OW 1483   2.796   2.660   2.679 -0.1181  0.0686 -0.3146
  495SOL    HW1 1484   2.728   2.583   2.659 -0.7424 -0.9440 -0.0045
  495SOL    HW2 1485   2.817   2.721   2.598 -1.2398  1.2859  0.4579
  496SOL     OW 1486   2.036   2.231   0.709 -0.7204 -0.1792  0.0398
  496SOL    HW1 1487   2.061   2.265   0.804  0.6802  2.3054 -0.4552
  496SOL    HW2 1488   2.088   2.145   0.673  1.0517  1.2317 -1.5921
  497SOL     OW 1489   0.236   2.996   2.472 -0.2603  0.5786 -0.0111
  497SOL    HW1 1490   0.245   3.058   2.558  0.5074  1.2931 -0.3910
  497SOL    HW2 1491   0.266   3.037   2.380 -0.1335 -0.4413 -0.8091
  498SOL     OW 1492   1.238   1.416   1.224  0.0681  0.1645 -0.1076
  498SOL    HW1 1493   1.339   1.386   1.234  0.1549 -1.1734  2.0443
  498SOL    HW2 1494   1.208   1.485   1.292  0.7651 -0.4435  1.3282
  499SOL     OW 1495   0.719   1.865   0.485  0.3552 -0.0648  0.5036
  499SOL    HW1 1496   0.750   1.770   0.515 -0.6412 -0.0199  1.5397
  499SOL    HW2 1497   0.644   1.902   0.549 -2.2305 -0.3760  1.5873
  500SOL     OW 1498   1.460   2.928   1.644  0.1537  0.7558 -0.3374
  500SOL    HW1 1499   1.450   2.942   1.746 -2.9089  2.0786  0.2376
  500SOL    HW2 1500   1.507   2.840   1.614 -0.5525  1.9787 -1.8313
  501SOL     OW 1501   0.851   1.108   2.296 -0.1827 -0.2507 -0.3988
  501SOL    HW1 1502   0.759   1.071   2.263  2.7723 -1.1603  0.5416
  501SOL    HW2 1503   0.931   1.102   2.224  1.8967  0.7499 -0.0560
  502SOL     OW 1504   2.632   0.946   1.748  0.2660  0.2788  0.4138
  502SOL    HW1 1505   2.631   0.978   1.652  0.3282 -1.0308  1.2484
  502SOL    HW2 1506   2.558   0.870   1.763 -2.9666  2.0772  1.6616
  503SOL     OW 1507   1.254   0.107   0.654 -0.0798 -0.3363 -0.1867
  503SOL    HW1 1508   1.193   0.185   0.615 -1.8177 -2.8988  0.3741
  503SOL    HW2 1509   1.344   0.136   0.693  1.3098 -2.4702 -1.8190
  504SOL     OW 1510   3.047   2.352   1.445  0.0268  0.0629 -0.1997
  504SOL    HW1 1511   2.964   2.388   1.502  1.2770 -0.3821 -0.0355
  504SOL    HW2 1512   3.116   2.298   1.495 -1.2546  1.5522 -1.6516
  505SOL     OW 1513   2.266   1.173   1.497 -0.2225  0.2325  0.0977
  505SOL    HW1 1514   2.280   1.195   1.394  1.6242 -0.4329 -0.3651
  505SOL    HW2 1515   2.317   1.245   1.555  0.2603 -3.9949 -1.7269
  506SOL     OW 1516   1.993   0.149   1.800 -0.1932  0.2304 -0.3938
  506SOL    HW1 1517   2.093   0.118   1.820  0.3294 -1.2016  0.3360
  506SOL    HW2 1518   1.966   0.239   1.849 -0.6021 -2.0396 -0.5590
  507SOL     OW 1519   0.553   0.715   2.156  0.1252 -0.6001  0.4986
  507SOL    HW1 1520   0.473   0.666   2.110 -0.2105  2.0937 -3.0879
  507SOL    HW2 1521   0.630   0.654   2.188 -1.2509  3.4177 -2.1441
  508SOL     OW 1522   0.234   1.660   0.869  0.3943 -0.0913  0.2492
  508SOL    HW1 1523   0.336   1.669   0.846  0.0560  0.8910 -2.8531
  508SOL    HW2 1524   0.202   1.707   0.954  2.6769 -0.2953 -1.5200
  509SOL     OW 1525   1.311   1.258   2.326  0.6921  0.1097  0.5960
  509SOL    HW1 1526   1.292   1.272   2.220  2.7356  3.8348  2.3758
  509SOL    HW2 1527   1.293   1.165   2.351  2.5173 -0.4809  1.1391
  510SOL     OW 1528   1.290   2.022   2.076  0.2086  0.0351 -0.1712
  510SOL    HW1 1529   1.260   2.116   2.045  1.0157  0.6764  0.2740
  510SOL    HW2 1530   1.228   1.984   2.146  0.2196  1.6267 -2.8038
  511SOL     OW 1531   3.080   2.748   1.283  0.4366 -0.8305 -0.1660
  511SOL    HW1 1532   3.066   2.684   1.202  1.0243 -3.7572  0.4125
  511SOL    HW2 1533   3.003   2.728   1.355 -1.4181  1.7752  0.1236
  512SOL     OW 1534   2.358   0.430   1.369 -0.1299 -0.6964  0.7453
  512SOL    HW1 1535   2.261   0.390   1.384 -3.6050  1.0295 -1.3549
  512SOL    HW2 1536   2.418   0.386   1.298 -0.3368 -2.2180  0.6931
  513SOL     OW 1537   2.509   2.067   0.850  0.0420  0.1510  0.1819
  513SOL    HW1 1538   2.464   2.131   0.782 -0.9852  0.4985 -0.8767
  513SOL    HW2 1539   2.595   2.028   0.808 -2.0054 -0.8514  2.8918
  514SOL     OW 1540   0.565   2.766   0.507 -0.5535 -0.0989 -0.2840
  514SOL    HW1 1541   0.568   2.827   0.423 -0.8214  1.6201  1.1911
  514SOL    HW2 1542   0.625   2.807   0.582 -0.9852  1.8618  0.6433
  515SOL     OW 1543   2.035   1.117   2.299  0.4692  0.0103 -0.4376
  515SOL    HW1 1544   1.989   1.111   2.209 -2.6875 -0.5323 -1.2512
  515SOL    HW2 1545   1.961   1.098   2.364 -2.1533 -1.1450 -1.0373
  516SOL     OW 1546   0.265   0.318   1.913  0.8088 -0.8703  0.2988
  516SOL    HW1 1547   0.321   0.297   1.826  2.3802  0.2110 -3.7124
  516SOL    HW2 1548   0.169   0.278   1.905 -0.4607 -0.8132 -0.7297
  517SOL     OW 1549   0.448   3.081   1.168 -0.3646 -0.3612 -0.1219
  517SOL    HW1 1550   0.466   3.182   1.177 -1.8973  1.4939  1.3817
  517SOL    HW2 1551   0.345   3.060   1.187 -2.7253  0.7963  1.8829
  518SOL     OW 1552   2.244   0.025   1.817 -0.2485  0.3013 -0.2052
  518SOL    HW1 1553   2.325   0.091   1.847 -2.1979  0.4571 -0.3243
  518SOL    HW2 1554   2.261  -0.029   1.729  2.4552  0.1654 -0.2827
  519SOL     OW 1555   2.363   2.231   2.584 -0.0704  0.0704  0.3220
  519SOL    HW1 1556   2.281   2.211   2.643  1.3097 -0.8511 -2.6361
  519SOL    HW2 1557   2.388   2.331   2.574  1.0990 -1.3500 -1.6156
  520SOL     OW 1558   1.794   2.819   1.870 -0.5609  0.4871  0.5266
  520SOL    HW1 1559   1.700   2.798   1.911  0.9963  1.1700 -1.7188
  520SOL    HW2 1560   1.838   2.736   1.827 -2.0756  1.4575  0.4137
  521SOL     OW 1561   0.577   0.026   2.135 -0.0031 -0.0095  0.2370
  521SOL    HW1 1562   0.480  -0.006   2.157 -2.2574  1.9325 -1.7617
  521SOL    HW2 1563   0.639   0.013   2.220 -0.8559  0.3628  2.0002
  522SOL     OW 1564   0.207   1.912   1.441  0.1462  0.5852 -0.0626
  522SOL    HW1 1565   0.245   1.971   1.518 -1.4963  0.2100  1.3139
  522SOL    HW2 1566   0.181   1.970   1.358 -0.2395  3.0000  2.2700
  523SOL     OW 1567   2.262   2.982   1.546  0.0507 -0.3108 -0.3615
  523SOL    HW1 1568   2.340   2.931   1.581 -0.4762  0.9555 -1.4365
  523SOL    HW2 1569   2.204   2.923   1.482 -0.4918  1.2257  2.1673
  524SOL     OW 1570   0.184   2.819   2.829 -0.2824 -0.7433 -0.3453
  524SOL    HW1 1571   0.152   2.917   2.846  2.1285 -0.0421 -0.6353
  524SOL    HW2 1572   0.288   2.823   2.811  0.8371  2.1485  1.2318
  525SOL     OW 1573   2.148   2.015   0.467 -0.3495 -0.1245  0.1295
  525SOL    HW1 1574   2.165   1.944   0.540  0.5544 -2.0925 -2.3395
  525SOL    HW2 1575   2.175   1.977   0.371 -1.7464 -2.2322  0.4716
  526SOL     OW 1576   0.415   1.551   1.672 -0.2100  0.1159  0.1440
  526SOL    HW1 1577   0.399   1.553   1.774 -2.1737 -1.4640 -0.4144
  526SOL    HW2 1578   0.460   1.462   1.644  2.1855 -0.6901  2.6402
  527SOL     OW 1579   1.099   2.950   1.232  0.0896 -0.1003  0.0125
  527SOL    HW1 1580   1.191   2.902   1.237  1.9854  0.6430 -0.3414
  527SOL    HW2 1581   1.111   3.054   1.218 -2.5764 -0.2365 -1.8986
  528SOL     OW 1582   1.338   2.416   0.538  0.2054  0.1077 -0.2846
  528SOL    HW1 1583   1.388   2.329   0.539 -2.0860  0.2113 -1.5729
  528SOL    HW2 1584   1.395   2.491   0.580  2.7986 -1.1931 -0.1673
  529SOL     OW 1585   1.946   1.727   0.708 -0.2223  0.5551  0.8577
  529SOL    HW1 1586   1.892   1.745   0.627 -0.2986 -1.2175  1.6791
  529SOL    HW2 1587   1.949   1.809   0.771  0.1133 -0.4247  0.7142
  530SOL     OW 1588   0.296   2.591   0.291 -0.0741 -0.2277  0.0948
  530SOL    HW1 1589   0.294   2.664   0.364  0.1630 -3.3399  0.1712
  530SOL    HW2 1590   0.311   2.500   0.339  1.3025 -1.1331  1.7285
  531SOL     OW 1591   1.808   1.002   0.987 -0.4879  0.1210 -0.0776
  531SOL    HW1 1592   1.824   1.001   0.881  0.5625  2.1292 -1.5674
  531SOL    HW2 1593   1.706   0.992   1.008  0.4126 -0.0756  0.0898
  532SOL     OW 1594   0.449   1.162   0.748  0.3862 -0.0149  0.3020
  532SOL    HW1 1595   0.528   1.155   0.689 -1.1366 -2.0846  2.4730
  532SOL    HW2 1596   0.401   1.069   0.758  0.6836  1.2022 -1.1152
  533SOL     OW 1597   1.758   0.023   2.615  0.1221  0.1318 -0.0034
  533SOL    HW1 1598   1.854   0.015   2.654  0.2410 -2.4222  1.9606
  533SOL    HW2 1599   1.695   0.085   2.670  0.6132  1.2980  2.6721
  534SOL     OW 1600   0.339   0.234   1.633 -0.7401  0.8208 -0.0940
  534SOL    HW1 1601   0.433   0.232   1.589 -4.9374  0.1097 -1.6282
  534SOL    HW2 1602   0.291   0.324   1.624  0.6761 -1.7499 -1.3730
  535SOL     OW 1603   1.975   0.341   0.132 -0.4259 -0.1939 -0.5261
  535SOL    HW1 1604   1.981   0.411   0.209  1.1270  0.3970  2.0796
  535SOL    HW2 1605   1.964   0.247   0.165  0.4691 -0.6031 -0.4773
  536SOL     OW 1606   1.404   2.584   0.926  0.3226  0.3070  0.2532
  536SOL    HW1 1607   1.388   2.537   1.016  1.1432  0.7492 -1.8626
  536SOL    HW2 1608   1.318   2.635   0.890 -0.1904  0.3289  0.2591
  537SOL     OW 1609   0.810   0.257   2.406  0.3420  0.3032  0.1671
  537SOL    HW1 1610   0.797   0.296   2.310  3.3158  0.1888 -0.1716
  537SOL    HW2 1611   0.768   0.164   2.418  0.6157  1.5867  2.4758
  538SOL     OW 1612   1.636   2.374   1.553 -0.3129 -0.2276 -0.4278
  538SOL    HW1 1613   1.641   2.271   1.532 -1.5518  1.2244  1.0809
  538SOL    HW2 1614   1.712   2.420   1.499 -2.4221  0.4267 -0.3698
  539SOL     OW 1615   0.195   1.641   2.721 -0.2604  0.1398 -0.3996
  539SOL    HW1 1616   0.124   1.653   2.649 -0.2852  2.4028 -0.5325
  539SOL    HW2 1617   0.216   1.730   2.765 -3.1812  0.1374 -0.8657
  540SOL     OW 1618   2.656   1.732   1.919 -0.4843  0.1447  0.7587
  540SOL    HW1 1619   2.607   1.653   1.971  1.2410  1.1755 -0.9506
  540SOL    HW2 1620   2.602   1.820   1.928  3.6958 -1.7494  1.0855
  541SOL     OW 1621   0.478   2.203   0.022 -0.3854 -0.0919 -0.0678
  541SOL    HW1 1622   0.511   2.177   0.115  1.0503  1.6438  0.5865
  541SOL    HW2 1623   0.377   2.184   0.009 -0.0879 -1.5903 -1.9486
  542SOL     OW 1624   2.231   2.581   0.430 -0.2161 -0.0436 -0.3432
  542SOL    HW1 1625   2.191   2.672   0.464 -0.7721  0.3556  1.9664
  542SOL    HW2 1626   2.159   2.504   0.433  1.2120 -3.4755 -0.6825
  543SOL     OW 1627   1.096   1.849   1.571  0.5738 -0.2560 -0.0709
  543SOL    HW1 1628   1.031   1.885   1.648 -2.6719 -3.4059  1.3291
  543SOL    HW2 1629   1.077   1.895   1.481  0.4626  1.4821  1.2807
  544SOL     OW 1630   1.066   0.445   0.208  0.9793  0.3699  0.0035
  544SOL    HW1 1631   1.076   0.362   0.266 -0.1767 -1.8246 -1.9639
  544SOL    HW2 1632   1.074   0.425   0.109  0.9529  0.7615 -2.0971
  545SOL     OW 1633   1.112   1.741   0.817 -0.0319  0.1671  0.1010
  545SOL    HW1 1634   1.209   1.750   0.781 -0.3484  0.3307  0.9698
  545SOL    HW2 1635   1.096   1.656   0.876 -0.7193  0.6641 -3.8885
  546SOL     OW 1636   2.614   1.491   3.035  0.5510  0.6692  0.4097
  546SOL    HW1 1637   2.617   1.568   2.966  0.3934 -0.0832  0.7112
  546SOL    HW2 1638   2.519   1.442   3.035 -0.3516  2.3483 -2.3374
  547SOL     OW 1639   0.615   3.014   2.649 -0.2361 -0.2770 -0.5478
  547SOL    HW1 1640   0.712   2.995   2.668 -2.1037  0.8779  1.4324
  547SOL    HW2 1641   0.550   2.943   2.683  1.4318  3.1367  0.1534
  548SOL     OW 1642   2.069   0.922   2.958 -0.1346 -0.4705  0.3184
  548SOL    HW1 1643   1.977   0.870   2.966 -0.9134 -0.2237  0.6422
  548SOL    HW2 1644   2.070   1.006   3.020  1.1589  2.0745  3.4435
  549SOL     OW 1645   0.700   0.516   0.188  0.0902 -0.1080 -0.5298
  549SOL    HW1 1646   0.647   0.550   0.111  2.4618 -0.4211  3.3132
  549SOL    HW2 1647   0.791   0.564   0.191  1.3591 -0.2186 -4.4932
  550SOL     OW 1648   2.606   2.829   2.884  0.3905  0.0011 -0.4096
  550SOL    HW1 1649   2.566   2.761   2.950  0.7222 -2.7376  0.1629
  550SOL    HW2 1650   2.651   2.786   2.804 -0.1137 -2.1557  2.0400
  551SOL     OW 1651   0.274   0.850   0.241 -0.0228 -0.2369  0.0214
  551SOL    HW1 1652   0.377   0.841   0.240  1.0581  0.4842 -0.4418
  551SOL    HW2 1653   0.243   0.867   0.339 -0.8784 -0.7974  0.1594
  552SOL     OW 1654   0.632   2.973   1.913 -0.0953  0.1588 -0.1825
  552SOL    HW1 1655   0.607   3.025   1.998 -0.3507 -0.8008 -2.5473
  552SOL    HW2 1656   0.737   2.963   1.900 -1.7039  0.3532 -1.7454
  553SOL     OW 1657   2.947   2.499   0.368 -0.4073 -0.1297  0.2070
  553SOL    HW1 1658   2.888   2.414   0.382  1.8792 -0.2080 -0.4847
  553SOL    HW2 1659   2.901   2.589   0.402 -0.5621  1.2000 -2.2671
  554SOL     OW 1660   2.146   0.381   0.557  0.2483 -0.2874 -0.2545
  554SOL    HW1 1661   2.201   0.390   0.471 -1.4888  0.4946  1.7953
  554SOL    HW2 1662   2.138   0.287   0.604  1.2736 -1.0037 -2.3718
  555SOL     OW 1663   0.391   2.758   2.480  0.1964  0.6108 -0.0457
  555SOL    HW1 1664   0.324   2.837   2.493  0.7169 -0.3734  0.8668
  555SOL    HW2 1665   0.439   2.757   2.385 -2.1546  1.3085  1.9536
  556SOL     OW 1666   0.859   2.388   1.538  0.4124 -0.1508  0.2577
  556SOL    HW1 1667   0.915   2.448   1.599  1.2226  0.4206  1.4509
  556SOL    HW2 1668   0.910   2.364   1.451 -2.6701  1.5392  0.6076
  557SOL     OW 1669   0.150   2.090   0.240  0.2425 -0.0336 -0.0412
  557SOL    HW1 1670   0.076   2.020   0.221  0.9155 -2.4050 -1.0218
  557SOL    HW2 1671   0.204   2.110   0.152  0.2090 -1.7721 -2.8639
  558SOL     OW 1672   2.786   2.263   0.376 -0.4246 -0.4231  0.6824
  558SOL    HW1 1673   2.681   2.280   0.357 -2.6887  0.5178  0.8997
  558SOL    HW2 1674   2.815   2.162   0.370  1.0020 -0.3230 -2.0987
  559SOL     OW 1675   0.384   2.283   1.409  0.2940  0.6996  0.2949
  559SOL    HW1 1676   0.320   2.313   1.332 -1.5671  0.2117  2.3141
  559SOL    HW2 1677   0.438   2.197   1.374 -1.3488 -1.2815 -0.4967
  560SOL     OW 1678   2.110   1.191   3.056 -0.4429 -0.3702 -0.6153
  560SOL    HW1 1679   2.121   1.185   3.159 -0.4028 -0.2158 -0.0068
  560SOL    HW2 1680   2.182   1.242   3.007 -4.0803  0.3005 -1.2176
  561SOL     OW 1681   3.081   1.847   0.014 -0.1972  0.0909 -0.0228
  561SOL    HW1 1682   3.057   1.794   0.102 -2.1057 -0.6434  0.2539
  561SOL    HW2 1683   3.043   1.948   0.007 -0.6330  1.0306  0.8178
  562SOL     OW 1684   0.953   2.208   2.331  0.0413 -0.6429 -0.1789
  562SOL    HW1 1685   0.936   2.251   2.421  4.2193 -0.7588  1.1415
  562SOL    HW2 1686   0.968   2.106   2.354  0.6556  2.2023 -0.2214
  563SOL     OW 1687   0.685   2.585   2.622 -0.1365  0.3693 -0.5208
  563SOL    HW1 1688   0.777   2.537   2.627  0.4352 -1.4608  0.9426
  563SOL    HW2 1689   0.647   2.599   2.717  0.5503  0.5057 -0.7723
  564SOL     OW 1690   2.821   1.329   2.895 -0.2522 -0.1546 -0.1161
  564SOL    HW1 1691   2.726   1.358   2.932 -0.0802  2.0228 -2.7490
  564SOL    HW2 1692   2.872   1.412   2.865  0.5447 -1.6518 -1.0536
  565SOL     OW 1693   2.534   2.017   2.643  0.2597  0.9802  0.3527
  565SOL    HW1 1694   2.478   2.100   2.619  0.1039 -0.5225  1.1594
  565SOL    HW2 1695   2.616   2.040   2.706 -0.7578 -2.4772 -0.9565
  566SOL     OW 1696   2.075   2.831   1.420 -0.4053  0.0354  0.5017
  566SOL    HW1 1697   2.025   2.744   1.442  0.1878  1.3960 -1.1582
  566SOL    HW2 1698   2.047   2.869   1.323  3.7079  1.8216 -1.2851
  567SOL     OW 1699   2.422   3.051   2.391 -0.5316 -0.2366 -0.6763
  567SOL    HW1 1700   2.318   3.055   2.416 -0.4823 -0.3353 -0.0884
  567SOL    HW2 1701   2.449   3.006   2.302  1.8329 -1.2642 -1.0568
  568SOL     OW 1702   1.533   1.740   0.207  0.0993  0.1389 -0.0179
  568SOL    HW1 1703   1.469   1.810   0.162 -1.9139 -0.6878  0.3790
  568SOL    HW2 1704   1.620   1.792   0.239 -2.1931  2.3943  1.3027
  569SOL     OW 1705   0.273   0.661   0.830  0.2470 -0.2343 -0.1479
  569SOL    HW1 1706   0.319   0.584   0.782  1.1871 -0.8685  0.6672
  569SOL    HW2 1707   0.168   0.655   0.811 -2.8968  3.4230 -3.4031
  570SOL     OW 1708   0.652   0.835   2.936  0.0970 -0.7176  0.0508
  570SOL    HW1 1709   0.707   0.885   2.868 -0.9807 -0.5466  0.6929
  570SOL    HW2 1710   0.626   0.898   3.019  0.3963 -0.3556 -0.0613
  571SOL     OW 1711   0.777   3.082   1.069 -0.5649  0.2272  0.2167
  571SOL    HW1 1712   0.848   3.116   1.006 -1.6397 -2.0656  1.1517
  571SOL    HW2 1713   0.727   3.005   1.026  1.8519  1.9247  1.9544
  572SOL     OW 1714   1.641   2.639   1.345 -0.0243  0.9534 -0.0818
  572SOL    HW1 1715   1.579   2.601   1.268 -1.7348  0.2997 -2.0279
  572SOL    HW2 1716   1.646   2.742   1.339 -0.8861  1.4253  0.0295
  573SOL     OW 1717   2.893   0.481   2.014  0.2644  0.0045  0.4912
  573SOL    HW1 1718   2.832   0.393   2.010  0.8081  1.9720 -1.7093
  573SOL    HW2 1719   2.951   0.489   1.929  1.7275  0.5507  0.3095
  574SOL     OW 1720   0.148   1.782   1.108 -0.1295 -0.2915  0.4701
  574SOL    HW1 1721   0.205   1.835   1.174 -0.2914 -2.1254 -0.6411
  574SOL    HW2 1722   0.046   1.799   1.112  1.8792 -1.0900 -0.6913
  575SOL     OW 1723   0.823   2.203   0.932 -0.4181  0.5931  0.2323
  575SOL    HW1 1724   0.812   2.217   1.032  2.0463  1.4804  1.1818
  575SOL    HW2 1725   0.866   2.283   0.887  0.1421 -1.5949  2.4505
  576SOL     OW 1726   2.848   3.001   1.674 -0.0798 -0.0246 -0.1821
  576SOL    HW1 1727   2.756   3.008   1.626  1.2810 -1.1967  1.3976
  576SOL    HW2 1728   2.906   3.086   1.675 -1.4354 -1.3392 -0.6330
  577SOL     OW 1729   2.527   1.186   3.095  0.2155 -0.2385 -0.0431
  577SOL    HW1 1730   2.538   1.108   3.028 -2.4876 -1.1014  2.2855
  577SOL    HW2 1731   2.601   1.200   3.169 -0.1709 -2.7988 -0.0497
  578SOL     OW 1732   1.456   2.698   2.461 -0.4628  0.5770 -0.0471
  578SOL    HW1 1733   1.364   2.727   2.435  0.0408 -0.8099 -1.3497
  578SOL    HW2 1734   1.522   2.777   2.456 -1.0229  2.1841  1.2097
  579SOL     OW 1735   0.051   2.483   0.188 -0.1970 -0.0852 -0.2966
  579SOL    HW1 1736  -0.029   2.498   0.255 -0.3306 -2.1805 -1.0530
  579SOL    HW2 1737   0.143   2.501   0.233 -0.3028  0.7954  2.2621
  580SOL     OW 1738   0.965   2.670   0.364  0.3001  0.0499 -0.8600
  580SOL    HW1 1739   1.054   2.676   0.319  1.6815  0.7079 -0.0498
  580SOL    HW2 1740   0.904   2.594   0.317  0.3100 -1.1152 -1.1410
  581SOL     OW 1741   1.221   2.658   1.455 -0.4046  0.0720  0.0487
  581SOL    HW1 1742   1.273   2.575   1.496  1.8320  0.9961 -1.0085
  581SOL    HW2 1743   1.272   2.715   1.387  1.0551 -0.8509  1.1270
  582SOL     OW 1744   1.491   0.100   1.855 -0.0581 -0.3333 -0.1585
  582SOL    HW1 1745   1.511   0.176   1.923  0.9215  0.2138 -0.5785
  582SOL    HW2 1746   1.579   0.083   1.803  2.2874  1.0481  1.9282
  583SOL     OW 1747   2.423   3.098   0.499 -0.3523  0.1991 -0.2602
  583SOL    HW1 1748   2.510   3.038   0.495  0.9634 -0.1375 -1.6517
  583SOL    HW2 1749   2.340   3.032   0.516 -0.2312  1.4893 -0.8495
  584SOL     OW 1750   1.538   1.105   2.216  0.2411  0.1630  0.7423
  584SOL    HW1 1751   1.585   1.198   2.196  2.2085  0.2802 -1.2946
  584SOL    HW2 1752   1.611   1.043   2.250 -2.7746  0.4921  0.1915
  585SOL     OW 1753   2.134   2.698   2.921 -0.1296 -0.0141  0.1342
  585SOL    HW1 1754   2.138   2.597   2.927 -1.1029  1.2860  1.7643
  585SOL    HW2 1755   2.036   2.737   2.933 -2.9825  0.3720 -2.2240
  586SOL     OW 1756   2.829   0.338   1.623  0.2226 -0.3634 -0.5048
  586SOL    HW1 1757   2.832   0.419   1.686 -0.2235 -0.2006  0.9259
  586SOL    HW2 1758   2.741   0.290   1.641  2.3663  3.6728  1.4833
  587SOL     OW 1759   2.085   1.519   2.661 -0.3274 -0.5378 -0.0332
  587SOL    HW1 1760   2.140   1.441   2.621  1.0859 -0.2368 -1.4940
  587SOL    HW2 1761   2.095   1.538   2.764  0.0567  3.1793 -0.0183
  588SOL     OW 1762   0.458   2.680   2.227  0.1167  0.3184  0.2497
  588SOL    HW1 1763   0.361   2.652   2.194 -0.4659 -1.9548 -2.5190
  588SOL    HW2 1764   0.509   2.601   2.261 -2.6136  0.7522 -1.4067
  589SOL     OW 1765   2.173   1.329   2.471  0.5609 -0.3611 -0.1461
  589SOL    HW1 1766   2.130   1.253   2.421  2.3080  0.7807  1.4992
  589SOL    HW2 1767   2.277   1.326   2.471  0.5837  1.7002  3.3100
  590SOL     OW 1768   2.307   1.757   2.037 -0.7308  1.0150 -0.1661
  590SOL    HW1 1769   2.385   1.684   2.036  1.0277  0.2006 -3.9731
  590SOL    HW2 1770   2.309   1.795   2.137 -0.5807  2.4220 -0.3184
  591SOL     OW 1771   1.261   2.428   0.223 -0.2343 -0.0267  0.6168
  591SOL    HW1 1772   1.279   2.347   0.161  1.1386  0.4466 -1.0196
  591SOL    HW2 1773   1.252   2.403   0.327  3.3777  0.3831 -0.2109
  592SOL     OW 1774   1.772   2.309   0.725  0.5447 -0.1533  0.1824
  592SOL    HW1 1775   1.741   2.377   0.650 -0.4403  1.4538  0.3845
  592SOL    HW2 1776   1.869   2.279   0.712  0.2762  1.0138  0.6327
  593SOL     OW 1777   0.704   0.250   0.216  0.3467  0.3616 -0.3436
  593SOL    HW1 1778   0.738   0.213   0.126 -0.4952 -0.1726 -1.3224
  593SOL    HW2 1779   0.721   0.350   0.215 -2.5931 -0.1796  1.6125
  594SOL     OW 1780   1.021   1.823   2.692  0.2520 -0.1060 -0.1494
  594SOL    HW1 1781   1.107   1.787   2.648  0.3242  0.2219 -0.8405
  594SOL    HW2 1782   1.031   1.887   2.773  0.4547  0.6323  2.8783
  595SOL     OW 1783   1.546   0.051   1.029 -0.1297  0.6405 -1.1508
  595SOL    HW1 1784   1.616  -0.021   0.995 -1.7787  0.2344 -1.1095
  595SOL    HW2 1785   1.450   0.039   0.985 -1.1259 -1.2330  0.1858
  596SOL     OW 1786   0.054   1.561   2.267  0.1779  0.6698  0.0437
  596SOL    HW1 1787   0.052   1.468   2.301  0.0670  0.7418 -0.4282
  596SOL    HW2 1788   0.029   1.634   2.334 -0.3870  0.5960 -0.2251
  597SOL     OW 1789   1.943   2.612   1.781 -0.0001  0.5273  0.7626
  597SOL    HW1 1790   1.924   2.599   1.681 -3.5394 -1.3589  0.6277
  597SOL    HW2 1791   2.039   2.579   1.809  0.9913  0.9166  2.5206
  598SOL     OW 1792   2.531   2.914   1.221 -0.4625  0.0167  0.1478
  598SOL    HW1 1793   2.619   2.926   1.274 -0.4400  0.7845 -0.0484
  598SOL    HW2 1794   2.542   2.915   1.118  0.7544 -0.3033  1.7404
  599SOL     OW 1795   2.888   0.304   2.465  0.2820 -0.1439 -0.4317
  599SOL    HW1 1796   2.967   0.368   2.484  0.5552  1.3363  0.2473
  599SOL    HW2 1797   2.822   0.342   2.394 -3.0310 -2.0416 -0.8300
  600SOL     OW 1798   2.817   1.093   2.734 -0.3044  0.0470  0.1776
  600SOL    HW1 1799   2.740   1.027   2.737  0.0920  1.9494 -1.6762
  600SOL    HW2 1800   2.807   1.176   2.794 -3.1467 -0.7661  1.3975
  601SOL     OW 1801   3.054   1.325   2.006  0.2290 -0.0562 -0.2711
  601SOL    HW1 1802   2.994   1.389   1.944 -1.0472  0.5114  1.3341
  601SOL    HW2 1803   3.146   1.365   2.023  0.6225  0.5990 -2.6175
  602SOL     OW 1804   1.444   1.694   2.286 -0.0121 -0.1859  0.7127
  602SOL    HW1 1805   1.364   1.645   2.322  1.6940 -1.0540 -0.8344
  602SOL    HW2 1806   1.534   1.667   2.331  0.5389 -1.9532 -4.2014
  603SOL     OW 1807   0.614   1.211   2.809  0.0418  0.0625  0.3212
  603SOL    HW1 1808   0.526   1.197   2.752  0.6615 -1.2408 -1.7744
  603SOL    HW2 1809   0.685   1.142   2.782 -2.0195  0.0527 -3.1292
  604SOL     OW 1810   2.401   0.998   0.175  0.1151  0.3535  0.3503
  604SOL    HW1 1811   2.456   1.063   0.116  1.1598 -0.8271 -1.2824
  604SOL    HW2 1812   2.381   0.903   0.129  0.3074 -2.5298  0.7916
  605SOL     OW 1813   2.518   1.145   1.908  0.2494  0.3240  0.1987
  605SOL    HW1 1814   2.558   1.085   1.839  0.1717  2.7265 -1.3721
  605SOL    HW2 1815   2.583   1.163   1.988  0.2740 -0.9310 -1.2010
  606SOL     OW 1816   1.539   2.483   2.591 -0.5904 -0.4629  0.2788
  606SOL    HW1 1817   1.488   2.572   2.564 -1.5429  1.5721  4.0555
  606SOL    HW2 1818   1.485   2.393   2.592  1.0326 -0.4827 -1.7885
  607SOL     OW 1819   1.338   1.588   0.306 -0.3148 -0.4032  0.0187
  607SOL    HW1 1820   1.271   1.663   0.343 -0.4081  0.5491 -2.5012
  607SOL    HW2 1821   1.432   1.628   0.277  2.4021 -1.1749  0.5141
  608SOL     OW 1822   1.466   2.828   0.403 -0.0426  0.3915 -0.0383
  608SOL    HW1 1823   1.507   2.880   0.320  0.7362  0.1333  0.5881
  608SOL    HW2 1824   1.393   2.886   0.453  0.6795  0.0246  0.5855
  609SOL     OW 1825   1.270   1.312   0.271 -0.1688  0.3774 -0.2390
  609SOL    HW1 1826   1.295   1.417   0.277  1.7193  2.7654 -1.3901
  609SOL    HW2 1827   1.209   1.293   0.189  1.9140  0.6056  1.7957
  610SOL     OW 1828   2.953   1.152   2.213  0.0132  0.1574  0.1121
  610SOL    HW1 1829   2.964   1.049   2.220  0.2341  0.8422  2.8306
  610SOL    HW2 1830   2.938   1.188   2.116  2.3487 -0.9466 -1.4990
  611SOL     OW 1831   2.522   0.281   1.178  0.2939 -0.1507  0.5952
  611SOL    HW1 1832   2.457   0.200   1.187  2.6598 -2.0406 -1.5047
  611SOL    HW2 1833   2.620   0.256   1.210  1.5691 -0.7093 -3.5887
  612SOL     OW 1834   0.753   2.259   1.189 -0.2914  0.0840 -0.3799
  612SOL    HW1 1835   0.687   2.225   1.256  2.3150  3.0505 -1.3903
  612SOL    HW2 1836   0.732   2.358   1.165 -0.0427  2.9814  2.2611
  613SOL     OW 1837   0.790   1.371   2.392 -0.1311  0.3586  0.2669
  613SOL    HW1 1838   0.806   1.443   2.319  0.5116 -1.0005 -0.8736
  613SOL    HW2 1839   0.797   1.273   2.355  0.4751  0.0020 -1.9259
  614SOL     OW 1840   1.577   1.712   1.954  0.3691 -0.4037 -0.4035
  614SOL    HW1 1841   1.526   1.789   1.899  0.4967  0.4552 -1.3158
  614SOL    HW2 1842   1.621   1.754   2.037 -1.0400  1.0745  0.5915
  615SOL     OW 1843   0.777   1.345   1.729  0.2387 -0.1328 -0.4506
  615SOL    HW1 1844   0.690   1.386   1.685 -0.2679  1.2847  0.7774
  615SOL    HW2 1845   0.858   1.406   1.713 -1.5590 -4.0419  0.7003
  616SOL     OW 1846   1.076   1.606   2.178  0.0654 -0.4855  0.2999
  616SOL    HW1 1847   0.974   1.600   2.167  0.5836 -0.2105  1.8460
  616SOL    HW2 1848   1.118   1.639   2.089  1.2572 -1.8790 -2.2578
  617SOL     OW 1849   2.963   1.543   1.549  0.0494 -0.6626  0.6232
  617SOL    HW1 1850   2.962   1.508   1.645  0.6435  0.1290  2.5955
  617SOL    HW2 1851   2.975   1.469   1.472  1.1437 -1.7838 -1.3048
  618SOL     OW 1852   1.916   2.021   1.415 -0.0200 -0.6022  0.1705
  618SOL    HW1 1853   1.989   2.017   1.340 -2.2141 -1.3358 -0.8994
  618SOL    HW2 1854   1.861   1.931   1.421 -0.6852 -0.2553  0.8177
  619SOL     OW 1855   1.771   0.497   2.395  0.2868 -0.2892 -0.2049
  619SOL    HW1 1856   1.687   0.544   2.347  0.7873  0.0864 -0.6959
  619SOL    HW2 1857   1.761   0.397   2.422 -1.8190  0.6632  0.3151
  620SOL     OW 1858   2.187   2.964   0.608  0.1109 -0.7345 -0.1124
  620SOL    HW1 1859   2.146   3.043   0.657 -0.8989  1.6998 -0.2802
  620SOL    HW2 1860   2.224   2.889   0.669 -0.1587  1.9876  0.7626
  621SOL     OW 1861   2.125   1.851   1.295  0.0965 -0.0304 -0.2254
  621SOL    HW1 1862   2.122   1.858   1.398  1.8662  1.8063  1.8514
  621SOL    HW2 1863   2.122   1.746   1.267  1.5916 -0.0336 -1.2774
  622SOL     OW 1864   2.170   0.863   1.780 -0.7001 -0.1954 -0.3187
  622SOL    HW1 1865   2.268   0.851   1.753 -0.9820 -0.5030 -1.8152
  622SOL    HW2 1866   2.141   0.796   1.851 -2.5556 -0.5042 -1.7548
  623SOL     OW 1867   1.375   0.777   2.633 -0.1898 -0.5149 -0.1820
  623SOL    HW1 1868   1.316   0.719   2.691 -1.0015  0.9972 -1.1011
  623SOL    HW2 1869   1.318   0.831   2.569 -0.8141 -1.8432  1.1445
  624SOL     OW 1870   0.524   0.658   0.011 -0.3323  0.2987 -0.0048
  624SOL    HW1 1871   0.559   0.695  -0.084  1.9681  0.1048 -2.7922
  624SOL    HW2 1872   0.528   0.727   0.087 -0.8548  0.0816  2.0265
  625SOL     OW 1873   2.807   1.748   0.956 -0.5416 -0.0532 -0.1186
  625SOL    HW1 1874   2.742   1.792   1.028  0.9610  0.6848  2.3004
  625SOL    HW2 1875   2.784   1.648   0.940 -1.7700  0.2247 -0.6324
  626SOL     OW 1876   0.573   2.689   1.842 -0.2963  0.5866 -0.3963
  626SOL    HW1 1877   0.602   2.775   1.891  0.0858  1.0932 -0.0480
  626SOL    HW2 1878   0.470   2.684   1.821 -1.3113 -0.4157  0.2922
  627SOL     OW 1879   0.728   0.987   1.544 -0.0211  0.0620  0.1615
  627SOL    HW1 1880   0.774   0.895   1.519 -0.6779 -0.2234 -1.7781
  627SOL    HW2 1881   0.787   1.074   1.541  0.6850  1.5223  0.1657
  628SOL     OW 1882   2.395   0.171   0.701  0.2865  0.1289 -0.7109
  628SOL    HW1 1883   2.423   0.102   0.623 -0.1265  0.9018 -0.8891
  628SOL    HW2 1884   2.297   0.169   0.725  0.2570  0.4157  1.6564
  629SOL     OW 1885   1.956   0.897   1.996 -0.1143 -0.0758  0.2182
  629SOL    HW1 1886   2.047   0.906   2.036 -0.9332  0.9607 -2.0445
  629SOL    HW2 1887   1.903   0.985   2.005 -3.8546 -1.4079 -1.8692
  630SOL     OW 1888   2.818   2.221   0.769 -0.5051  0.1862  0.0882
  630SOL    HW1 1889   2.724   2.272   0.784 -2.0602  2.1671  1.5205
  630SOL    HW2 1890   2.815   2.119   0.777 -3.1957  0.3711  0.6529
  631SOL     OW 1891   2.939   0.130   2.095  0.4133 -0.8661 -0.8210
  631SOL    HW1 1892   3.014   0.171   2.158 -1.7261  3.9482 -1.2962
  631SOL    HW2 1893   2.974   0.128   2.002  1.1373 -0.8958  1.4789
  632SOL     OW 1894   2.433   2.505   0.636  0.3583 -0.3017 -0.3266
  632SOL    HW1 1895   2.509   2.558   0.676  0.0548  0.0434 -0.8333
  632SOL    HW2 1896   2.380   2.557   0.561 -3.8785 -2.2226  1.0226
  633SOL     OW 1897   1.487   1.276   2.531  0.3480  0.1428 -0.2075
  633SOL    HW1 1898   1.502   1.369   2.579  1.0831 -1.3662  1.8015
  633SOL    HW2 1899   1.429   1.282   2.443  1.5099 -1.0757 -0.2160
  634SOL     OW 1900   0.660   1.979   0.916 -0.1953  0.0804 -0.0666
  634SOL    HW1 1901   0.578   1.993   0.980  0.4624  0.6721 -0.1329
  634SOL    HW2 1902   0.717   2.068   0.907 -1.4345  0.3177  0.6849
  635SOL     OW 1903   0.008   2.329   3.054  0.5192  0.2028  0.2883
  635SOL    HW1 1904  -0.049   2.384   2.990  0.6276 -2.6636  1.6224
  635SOL    HW2 1905   0.023   2.377   3.146 -0.6970  0.2006 -1.2249
  636SOL     OW 1906   2.279   2.724   2.055 -0.3049  0.2229 -0.8425
  636SOL    HW1 1907   2.255   2.824   2.050 -3.5193 -0.9045  0.0007
  636SOL    HW2 1908   2.234   2.683   2.141  2.2357 -0.1323 -3.8168
  637SOL     OW 1909   2.591   0.701   2.047  0.2189  0.2077  0.3555
  637SOL    HW1 1910   2.542   0.720   1.957  0.7314  1.2417 -0.2121
  637SOL    HW2 1911   2.653   0.779   2.078 -1.2526 -1.2658 -0.7516
  638SOL     OW 1912   2.417   1.852   1.276  0.2600 -0.1416  0.3259
  638SOL    HW1 1913   2.317   1.868   1.297 -2.7098  0.3653  1.1884
  638SOL    HW2 1914   2.466   1.781   1.334  2.0192  0.7833  1.3004
  639SOL     OW 1915   1.309   2.213   1.671 -0.1770 -0.2394 -0.7092
  639SOL    HW1 1916   1.324   2.163   1.579 -2.5204 -2.3059 -2.8784
  639SOL    HW2 1917   1.225   2.179   1.723 -0.9243 -1.4764  0.0323
  640SOL     OW 1918   0.194   1.184   1.561  0.4119 -0.4160 -0.1254
  640SOL    HW1 1919   0.182   1.226   1.656  0.2663  1.8355  0.7768
  640SOL    HW2 1920   0.295   1.182   1.535  0.7591 -0.7304  2.1506
  641SOL     OW 1921   2.048   0.089   1.507 -0.2675 -0.2338 -0.1247
  641SOL    HW1 1922   2.003   0.117   1.596  0.2196 -1.8190 -0.0702
  641SOL    HW2 1923   2.106   0.005   1.517  1.2116 -1.4982 -2.9405
  642SOL     OW 1924   1.969   0.110   0.290  0.3225 -0.4347  0.1786
  642SOL    HW1 1925   2.054   0.106   0.351  2.8304  1.8824  2.2469
  642SOL    HW2 1926   1.883   0.136   0.345 -2.0544  1.5522  0.2236
  643SOL     OW 1927   2.884   1.890   2.062 -0.4654  0.3986 -0.1397
  643SOL    HW1 1928   2.836   1.808   2.025 -1.4220 -0.0343  0.2285
  643SOL    HW2 1929   2.879   1.976   2.007  0.1054 -0.7769 -1.0373
  644SOL     OW 1930   2.248   2.336   1.187 -0.4014 -0.4435 -0.3985
  644SOL    HW1 1931   2.315   2.259   1.157 -1.8865  1.3348  1.3342
  644SOL    HW2 1932   2.222   2.316   1.290 -0.5288 -1.7246 -0.5041
  645SOL     OW 1933   0.638   0.874   1.191 -0.0336 -0.1325  0.0603
  645SOL    HW1 1934   0.539   0.851   1.183  1.4391 -1.4237 -1.3775
  645SOL    HW2 1935   0.680   0.906   1.104 -0.6996  0.2233 -0.7401
  646SOL     OW 1936   1.444   1.922   1.858  0.1445  0.1484 -0.2694
  646SOL    HW1 1937   1.528   1.988   1.855  1.9730  1.8442  0.6841
  646SOL    HW2 1938   1.366   1.954   1.921 -0.5488  0.5393 -3.1941
  647SOL     OW 1939   0.834   1.014   0.651  0.5612 -0.1389  0.6699
  647SOL    HW1 1940   0.895   1.053   0.728 -0.3015 -0.2004 -0.5993
  647SOL    HW2 1941   0.766   0.936   0.675  0.8442 -2.1270  0.7560
  648SOL     OW 1942   0.134   0.181   0.243 -0.2856  0.0779  0.1059
  648SOL    HW1 1943   0.166   0.122   0.166 -0.8011  0.6099  0.8809
  648SOL    HW2 1944   0.141   0.284   0.220 -1.3431 -1.3136 -1.3488
  649SOL     OW 1945   3.062   0.199   0.906  0.1535 -0.7992  0.3402
  649SOL    HW1 1946   3.129   0.259   0.857 -1.8361 -0.0736 -1.8460
  649SOL    HW2 1947   3.032   0.240   0.997  1.6850 -2.3075  1.5232
  650SOL     OW 1948   2.717   0.690   1.435 -0.2414  0.3866  0.1215
  650SOL    HW1 1949   2.629   0.654   1.478  1.4521  0.3652  2.0199
  650SOL    HW2 1950   2.712   0.775   1.381  1.2285 -1.5371 -1.1275
  651SOL     OW 1951   0.949   1.573   1.624 -0.1546  0.2096  0.3877
  651SOL    HW1 1952   0.963   1.676   1.651 -0.2325  3.4789  1.3283
  651SOL    HW2 1953   0.976   1.550   1.526 -1.0042 -1.7014  0.9307
  652SOL     OW 1954   2.270   2.509   2.506  0.0984  0.6844 -0.4242
  652SOL    HW1 1955   2.188   2.487   2.565 -1.9080 -2.8817  1.2489
  652SOL    HW2 1956   2.239   2.551   2.417  0.5494  0.7013  0.3776
  653SOL     OW 1957   2.732   1.180   0.193  0.3927  0.0215  0.8710
  653SOL    HW1 1958   2.765   1.270   0.233 -1.9335 -0.1619 -1.9561
  653SOL    HW2 1959   2.797   1.099   0.196 -0.6197 -2.3972  1.8384
  654SOL     OW 1960   1.251   2.256   1.232 -0.5614 -0.2708  0.0885
  654SOL    HW1 1961   1.277   2.194   1.307  1.5729  1.1949 -1.8846
  654SOL    HW2 1962   1.295   2.226   1.145  1.9298 -0.1562  1.3931
  655SOL     OW 1963   0.217   0.939   1.857 -0.2764 -0.0918 -0.1276
  655SOL    HW1 1964   0.242   0.868   1.786 -2.3771 -0.0346  1.9177
  655SOL    HW2 1965   0.304   0.992   1.872  0.2442 -0.2919 -1.5101
  656SOL     OW 1966   2.536   2.503   2.595 -0.6354  0.0009  0.0379
  656SOL    HW1 1967   2.616   2.494   2.533  1.8770  0.0069  0.8829
  656SOL    HW2 1968   2.454   2.523   2.540  0.8979 -2.2890  0.6886
  657SOL     OW 1969   3.078   1.049   1.903  0.6964  0.3191 -0.3016
  657SOL    HW1 1970   3.071   1.143   1.939  1.4162  1.6586 -0.6605
  657SOL    HW2 1971   3.176   1.017   1.897 -0.4966  1.1516  1.2706
  658SOL     OW 1972   1.697   0.227   2.413 -0.4309  0.0700 -0.4950
  658SOL    HW1 1973   1.741   0.157   2.473 -1.7251  0.3331  1.3135
  658SOL    HW2 1974   1.708   0.214   2.312 -1.8622 -0.0136 -1.2407
  659SOL     OW 1975   1.455   0.645   2.923 -0.1863 -0.2263 -0.5321
  659SOL    HW1 1976   1.508   0.734   2.944  0.6138  1.3060 -0.5674
  659SOL    HW2 1977   1.365   0.673   2.883 -0.1619  0.6489  0.1554
  660SOL     OW 1978   1.438   0.342   1.449 -0.1835  0.4988  0.1593
  660SOL    HW1 1979   1.486   0.344   1.541  0.4203 -1.2490 -1.0986
  660SOL    HW2 1980   1.502   0.308   1.373  1.3877  1.2631 -3.5481
  661SOL     OW 1981   2.497   1.149   0.668  0.0553 -0.0375 -0.2951
  661SOL    HW1 1982   2.511   1.141   0.564  0.8829  2.5402  1.8764
  661SOL    HW2 1983   2.431   1.224   0.694  2.5287 -0.6103  0.5157
  662SOL     OW 1984   1.348   0.420   1.838 -0.5244  0.0041 -0.0232
  662SOL    HW1 1985   1.304   0.332   1.805 -0.4726 -0.8016  0.6368
  662SOL    HW2 1986   1.298   0.463   1.916  0.6745 -0.5815  2.8409
  663SOL     OW 1987   0.810   1.577   2.142  0.3377  0.3713  0.0617
  663SOL    HW1 1988   0.790   1.668   2.185  1.4964 -1.8598 -3.5128
  663SOL    HW2 1989   0.737   1.548   2.070 -2.2937  1.0646  0.8858
  664SOL     OW 1990   1.635   2.102   1.458  0.3402 -0.1503 -0.0794
  664SOL    HW1 1991   1.608   2.021   1.517  1.1208 -0.8758 -0.7652
  664SOL    HW2 1992   1.736   2.095   1.435 -1.0983 -1.4116 -1.1560
  665SOL     OW 1993   2.229   0.664   1.977 -0.2374 -0.0814  0.8458
  665SOL    HW1 1994   2.248   0.564   2.005  0.4042 -2.0965  1.3611
  665SOL    HW2 1995   2.213   0.724   2.063 -0.9470 -1.4893  3.4655
  666SOL     OW 1996   0.408   2.367   0.442  0.2094  0.4590 -0.1738
  666SOL    HW1 1997   0.482   2.432   0.476  1.4176  1.0180  1.5759
  666SOL    HW2 1998   0.369   2.311   0.525  1.6724 -0.7484  1.5134
  667SOL     OW 1999   1.984   0.197   1.121 -0.4933 -0.5176 -0.7480
  667SOL    HW1 2000   2.003   0.293   1.146 -1.3706 -1.9668  3.1342
  667SOL    HW2 2001   1.920   0.157   1.191  1.7208  0.3020 -0.8216
  668SOL     OW 2002   1.998   0.486   1.163 -0.0875  0.8994 -0.1059
  668SOL    HW1 2003   2.065   0.509   1.083  2.0336  1.5210 -2.6629
  668SOL    HW2 2004   2.043   0.442   1.245 -2.0840  0.9625 -0.2625
  669SOL     OW 2005   3.013   2.277   0.987  0.2383  0.1934 -0.2409
  669SOL    HW1 2006   2.967   2.225   0.905 -1.4267  0.1243  1.7819
  669SOL    HW2 2007   2.960   2.259   1.076 -2.2457 -1.0175 -2.8228
  670SOL     OW 2008   2.870   2.352   1.982  0.0857 -0.3756  0.5881
  670SOL    HW1 2009   2.825   2.306   2.065  1.1344  0.5460 -0.6147
  670SOL    HW2 2010   2.849   2.453   1.976  0.5909 -0.0689 -0.3720
  671SOL     OW 2011   1.801   1.769   1.452  0.3663  0.6045 -0.5317
  671SOL    HW1 2012   1.833   1.767   1.357 -2.9784  0.9566  1.2109
  671SOL    HW2 2013   1.704   1.731   1.468  0.3516  1.2933  1.7306
  672SOL     OW 2014   0.391   0.589   2.385  0.4910 -0.3858  0.0642
  672SOL    HW1 2015   0.455   0.635   2.315 -2.0144  0.2848  1.4822
  672SOL    HW2 2016   0.311   0.650   2.407  1.6892 -0.8520  1.1127
  673SOL     OW 2017   0.147   1.182   1.126 -0.1003  0.2059  0.1400
  673SOL    HW1 2018   0.172   1.263   1.185  1.2205  0.6464 -1.7485
  673SOL    HW2 2019   0.229   1.117   1.107  0.8234 -1.3020  1.1364
  674SOL     OW 2020   1.592   2.913   0.187 -0.0898 -0.3922 -0.5708
  674SOL    HW1 2021   1.633   2.998   0.147 -0.2233 -1.3593 -0.8152
  674SOL    HW2 2022   1.643   2.829   0.171  2.2141 -0.2747 -1.1139
  675SOL     OW 2023   1.671   0.860   2.274 -0.0524 -0.2094  0.0102
  675SOL    HW1 2024   1.761   0.812   2.260 -3.8014 -2.6612 -1.9670
  675SOL    HW2 2025   1.597   0.793   2.239  1.3448 -0.2499 -0.2691
  676SOL     OW 2026   2.490   1.540   2.027  0.4180  0.8548 -0.3988
  676SOL    HW1 2027   2.480   1.483   1.935 -0.4463 -2.2743 -0.4810
  676SOL    HW2 2028   2.532   1.485   2.102  1.1643  1.2629  0.7364
  677SOL     OW 2029   1.906   0.661   0.866 -0.1964 -0.5124  0.9356
  677SOL    HW1 2030   1.961   0.684   0.949 -1.7071  1.6857 -0.4951
  677SOL    HW2 2031   1.893   0.560   0.854 -2.3741  1.2025  0.5059
  678SOL     OW 2032   0.042   0.744   1.657 -0.3693 -0.2764 -0.2105
  678SOL    HW1 2033   0.149   0.745   1.658  0.5637 -0.2999  0.8672
  678SOL    HW2 2034   0.001   0.751   1.751 -1.1629  0.8902  2.2169
  679SOL     OW 2035   2.576   1.154   1.132 -0.5287 -0.1557 -0.4255
  679SOL    HW1 2036   2.494   1.193   1.184  0.3940 -0.0757 -0.3242
  679SOL    HW2 2037   2.566   1.054   1.099 -3.0359 -1.0940  2.6344
  680SOL     OW 2038   2.813   0.632   1.688  0.4903 -0.4048 -0.6501
  680SOL    HW1 2039   2.804   0.657   1.587 -1.6816  1.3552  0.3680
  680SOL    HW2 2040   2.850   0.709   1.750 -2.0954 -0.2469 -1.6297
  681SOL     OW 2041   2.990   0.130   1.608 -0.1077  0.4131  0.3228
  681SOL    HW1 2042   3.056   0.118   1.531  1.9391 -2.0622 -1.1148
  681SOL    HW2 2043   2.928   0.213   1.605  0.0070  0.2472 -0.2899
  682SOL     OW 2044   0.788   0.067   1.326  0.2540  0.7484  0.2021
  682SOL    HW1 2045   0.723   0.002   1.370  0.5118  0.4232  1.4397
  682SOL    HW2 2046   0.826   0.019   1.243 -0.6215  0.8016  0.7104
  683SOL     OW 2047   1.344   0.234   2.159  0.0353  0.7997 -0.0684
  683SOL    HW1 2048   1.300   0.281   2.238 -1.5216  0.6425 -3.4375
  683SOL    HW2 2049   1.436   0.275   2.129  1.2605 -0.0869  0.9673
  684SOL     OW 2050   1.469   2.175   0.572 -0.5868  0.1481 -0.5724
  684SOL    HW1 2051   1.538   2.108   0.609 -1.6882  0.0765 -1.6764
  684SOL    HW2 2052   1.382   2.123   0.553  0.6969  0.6102  1.3013
  685SOL     OW 2053   2.203   1.996   1.911  0.8457 -0.3916 -0.0528
  685SOL    HW1 2054   2.235   2.051   1.828 -1.7383  1.7299 -2.1771
  685SOL    HW2 2055   2.267   1.923   1.944 -0.5592  1.5702  0.4577
  686SOL     OW 2056   1.509   1.763   2.745  0.0275 -0.4447 -0.6490
  686SOL    HW1 2057   1.520   1.740   2.848  1.6929 -0.9488 -2.3616
  686SOL    HW2 2058   1.591   1.739   2.684 -1.9514  2.1268 -1.9154
  687SOL     OW 2059   1.275   2.507   1.931  0.1943  0.4817 -0.2015
  687SOL    HW1 2060   1.298   2.411   1.912  0.1217 -0.9139 -1.2722
  687SOL    HW2 2061   1.331   2.539   2.014 -0.6310  1.4706  1.4455
  688SOL     OW 2062   2.106   1.543   1.733 -0.4524 -0.5078  0.1449
  688SOL    HW1 2063   2.197   1.588   1.731 -0.1887 -2.3826 -0.6586
  688SOL    HW2 2064   2.091   1.494   1.643 -0.4971 -0.1369 -1.6125
  689SOL     OW 2065   2.482   1.094   2.723 -0.0406  0.2482 -0.0757
  689SOL    HW1 2066   2.382   1.086   2.722  4.0107  0.5827 -0.1964
  689SOL    HW2 2067   2.530   1.053   2.809 -3.5821  0.1185  1.3462
  690SOL     OW 2068   2.237   2.771   0.066 -0.6335 -0.8505  0.0503
  690SOL    HW1 2069   2.164   2.747  -0.009 -3.4474 -1.0028  1.0261
  690SOL    HW2 2070   2.187   2.811   0.148  0.2294 -0.4042 -0.3406
  691SOL     OW 2071   2.568   0.424   2.109 -0.1959 -0.6559 -0.6593
  691SOL    HW1 2072   2.629   0.349   2.071  0.8898 -1.8469  0.4786
  691SOL    HW2 2073   2.594   0.519   2.078  1.5295 -2.1354  2.3458
  692SOL     OW 2074   2.773   1.210   0.712 -0.1981  0.0965 -0.0718
  692SOL    HW1 2075   2.673   1.192   0.691 -1.2682 -0.4174 -0.1211
  692SOL    HW2 2076   2.794   1.313   0.711  0.2259  0.3587 -0.9609
  693SOL     OW 2077   2.809   2.973   0.672  0.7149  0.6027  0.6449
  693SOL    HW1 2078   2.826   3.068   0.715  0.6182  1.3195 -1.0994
  693SOL    HW2 2079   2.750   2.978   0.585  0.0268 -0.6901 -2.4306
  694SOL     OW 2080   2.434   2.228   0.085  0.1160  0.2091 -0.1472
  694SOL    HW1 2081   2.386   2.321   0.105 -1.7790  0.9129 -1.8271
  694SOL    HW2 2082   2.368   2.151   0.072 -1.3936 -0.9591  0.1068
  695SOL     OW 2083   0.637   2.975   1.476  0.0062 -0.0194 -0.0801
  695SOL    HW1 2084   0.603   2.887   1.436  0.4700  2.0206 -0.4150
  695SOL    HW2 2085   0.602   2.980   1.572  0.3863 -3.0122 -1.1259
  696SOL     OW 2086   2.730   1.913   0.730 -0.5554 -0.1394 -0.4390
  696SOL    HW1 2087   2.745   1.846   0.809 -1.6678 -1.8451  0.0015
  696SOL    HW2 2088   2.650   1.892   0.674 -0.4395  1.9037  1.6056
  697SOL     OW 2089   1.666   2.074   1.861  0.2340  0.3521  0.0162
  697SOL    HW1 2090   1.748   2.029   1.907 -0.0025 -1.7328  1.3219
  697SOL    HW2 2091   1.687   2.170   1.825 -2.2660 -2.4280 -1.0717
  698SOL     OW 2092   2.947   0.375   2.739 -0.4422 -0.3696  0.0606
  698SOL    HW1 2093   2.914   0.313   2.664 -0.5344 -0.7473  0.4451
  698SOL    HW2 2094   2.971   0.326   2.832 -0.7695  0.7979 -0.8687
  699SOL     OW 2095   1.544   0.040   2.949 -0.1871  0.0015  0.0812
  699SOL    HW1 2096   1.511  -0.050   2.914 -0.2884  1.7982  3.3296
  699SOL    HW2 2097   1.593   0.095   2.880  0.1641  1.6043  2.0820
  700SOL     OW 2098   0.990   2.328   1.302  0.1126 -0.3767 -0.1367
  700SOL    HW1 2099   1.077   2.274   1.277 -1.5048  0.3553  0.3864
  700SOL    HW2 2100   0.902   2.295   1.257 -2.2692 -0.2780  2.4164
  701SOL     OW 2101   1.932   2.830   3.081  0.0961  0.0761  0.9756
  701SOL    HW1 2102   1.901   2.775   3.167  0.8316 -2.3053  0.5617
  701SOL    HW2 2103   1.955   2.933   3.101  3.1906 -0.5972  1.4793
  702SOL     OW 2104   2.086   1.328   1.911  0.1646  0.2134  0.3246
  702SOL    HW1 2105   2.146   1.241   1.899 -1.6937  0.5702 -1.6664
  702SOL    HW2 2106   2.108   1.409   1.843  1.0297  2.3317 -4.0079
  703SOL     OW 2107   1.945   0.858   1.396 -0.5992 -0.6274 -0.0637
  703SOL    HW1 2108   1.929   0.762   1.435 -0.7990 -2.6883  0.6597
  703SOL    HW2 2109   1.989   0.921   1.469 -0.5655  0.0824 -0.2891
  704SOL     OW 2110   0.313   2.061   1.668 -0.5808  0.1656 -0.4358
  704SOL    HW1 2111   0.359   2.021   1.748  1.0715  2.5501 -0.5166
  704SOL    HW2 2112   0.375   2.116   1.605  0.3857 -0.7949  0.0690
  705SOL     OW 2113   2.522   1.392   0.944 -0.0956  0.2829  0.1670
  705SOL    HW1 2114   2.458   1.386   0.858  1.9444  0.3731 -0.8156
  705SOL    HW2 2115   2.540   1.300   0.990  1.2125  0.0440 -0.2184
  706SOL     OW 2116   0.664   1.753   1.832 -0.5137  0.2004  0.0042
  706SOL    HW1 2117   0.633   1.658   1.862  0.5599  0.0978 -2.5515
  706SOL    HW2 2118   0.703   1.801   1.912 -2.4241  1.4993 -0.4661
  707SOL     OW 2119   2.229   1.101   1.893  0.0443 -0.3765  0.1679
  707SOL    HW1 2120   2.329   1.092   1.918  0.0290 -1.2245 -0.6288
  707SOL    HW2 2121   2.187   1.009   1.857 -0.7245  2.3749 -2.7668
  708SOL     OW 2122   2.965   0.509   3.040 -0.2114  0.8135 -0.0662
  708SOL    HW1 2123   2.983   0.572   2.961  0.9600  2.3096 -0.2907
  708SOL    HW2 2124   2.990   0.406   3.030  2.7099 -2.3249  0.5333
  709SOL     OW 2125   1.775   1.900   0.238  0.1710  0.1279  0.6952
  709SOL    HW1 2126   1.829   1.984   0.261  1.3849 -0.0170 -0.3935
  709SOL    HW2 2127   1.791   1.866   0.139  2.3617  0.0271  0.2347
  710SOL     OW 2128   1.676   1.606   2.416  0.0694 -0.4991 -0.5895
  710SOL    HW1 2129   1.733   1.606   2.325  0.0584 -1.9136 -0.2376
  710SOL    HW2 2130   1.718   1.540   2.492 -1.7113 -0.3500  2.1198
  711SOL     OW 2131   2.627   2.951   0.965  0.5709 -0.3557  0.3873
  711SOL    HW1 2132   2.612   3.051   0.951  0.3121 -0.0117  0.0153
  711SOL    HW2 2133   2.731   2.934   0.969  1.3816 -1.5951 -1.9082
  712SOL     OW 2134   1.404   2.265   1.931  0.5295  0.1536 -0.8172
  712SOL    HW1 2135   1.486   2.260   1.996  1.9140 -0.1329 -2.3353
  712SOL    HW2 2136   1.413   2.214   1.841  0.0860 -2.8033  1.9341
  713SOL     OW 2137   2.860   1.507   2.552 -0.7577  0.4783 -0.2566
  713SOL    HW1 2138   2.871   1.422   2.495 -1.4247  0.7377 -0.5128
  713SOL    HW2 2139   2.795   1.509   2.634 -1.7048  1.7632 -0.0157
  714SOL     OW 2140   2.676   0.478   2.360  0.5811  0.0431  0.7137
  714SOL    HW1 2141   2.639   0.447   2.453  0.2416  0.5901 -1.0587
  714SOL    HW2 2142   2.601   0.468   2.287  0.9524 -1.4534  2.5413
  715SOL     OW 2143   1.597   2.034   1.186 -0.0056 -0.1354 -0.6934
  715SOL    HW1 2144   1.531   2.087   1.120  0.9456  2.9564  0.5540
  715SOL    HW2 2145   1.588   2.070   1.282 -1.8935 -0.1594 -3.1053
  716SOL     OW 2146   1.201   0.198   1.515  0.0883  0.6697  0.2945
  716SOL    HW1 2147   1.114   0.214   1.462  1.4561 -0.7282 -0.8437
  716SOL    HW2 2148   1.285   0.245   1.476 -0.2849  0.5260  0.2081
  717SOL     OW 2149   1.124   0.602   1.629 -0.2383 -0.2805 -0.3864
  717SOL    HW1 2150   1.229   0.606   1.629  2.2028  0.2426  1.2928
  717SOL    HW2 2151   1.096   0.564   1.537 -3.2469  0.8176  0.0297
  718SOL     OW 2152   0.731   0.958   0.961 -0.3462  0.6089 -0.1623
  718SOL    HW1 2153   0.694   0.946   0.867  2.3434 -0.4092 -1.5290
  718SOL    HW2 2154   0.701   1.046   1.005  1.9135  1.8374  1.0575
  719SOL     OW 2155   0.694   1.812   2.287  0.6978 -0.1507 -0.3481
  719SOL    HW1 2156   0.757   1.846   2.359  0.1241 -2.6533  3.7013
  719SOL    HW2 2157   0.594   1.805   2.315 -1.0004 -1.6400 -0.5957
  720SOL     OW 2158   2.180   1.152   0.234  0.4204 -0.1537  0.0316
  720SOL    HW1 2159   2.243   1.072   0.203  0.1764 -1.0639 -1.4219
  720SOL    HW2 2160   2.170   1.147   0.337 -0.3568 -1.2325  0.4883
  721SOL     OW 2161   2.297   2.996   2.090  0.1904  0.5064  0.4971
  721SOL    HW1 2162   2.252   3.046   2.011 -0.9569 -1.1610 -1.3723
  721SOL    HW2 2163   2.257   3.030   2.178  0.7010  1.0610 -2.3311
  722SOL     OW 2164   2.372   1.605   0.594 -0.0644 -0.0861  0.0650
  722SOL    HW1 2165   2.396   1.596   0.497 -3.2367  0.5798 -0.9974
  722SOL    HW2 2166   2.365   1.703   0.623 -0.3305 -0.2111 -0.8473
  723SOL     OW 2167   2.547   2.681   2.010  0.4893  0.3406 -0.5308
  723SOL    HW1 2168   2.587   2.750   2.075  0.2620 -0.9777 -0.5048
  723SOL    HW2 2169   2.440   2.681   2.007 -0.1653  2.3938 -0.8660
  724SOL     OW 2170   0.537   2.469   2.427 -0.0211  0.2164  0.0013
  724SOL    HW1 2171   0.436   2.472   2.447  1.3771  2.1647  0.3690
  724SOL    HW2 2172   0.592   2.521   2.496 -0.4140 -4.0174 -1.5696
  725SOL     OW 2173   2.433   2.773   1.530  0.2591 -0.4340  0.5385
  725SOL    HW1 2174   2.483   2.753   1.441  1.0003  0.0105 -2.2498
  725SOL    HW2 2175   2.392   2.686   1.567  1.3552 -1.7042 -0.2604
  726SOL     OW 2176   2.372   2.228   0.683 -0.2689  0.5190 -0.3213
  726SOL    HW1 2177   2.386   2.324   0.653  0.3303 -1.1830 -1.5560
  726SOL    HW2 2178   2.406   2.158   0.608 -0.8806 -1.5830 -2.2019
  727SOL     OW 2179   0.161   3.081   0.051  0.2116  0.1966 -0.1105
  727SOL    HW1 2180   0.246   3.018   0.067  0.1735 -0.7214  0.4782
  727SOL    HW2 2181   0.120   3.074  -0.042  1.4643 -0.3218  1.3561
  728SOL     OW 2182   2.871   0.660   0.970 -0.3073 -0.2404  0.0323
  728SOL    HW1 2183   2.794   0.664   0.900 -0.2892  2.6110 -1.2109
  728SOL    HW2 2184   2.855   0.615   1.059  2.6068  1.0218  0.7351
  729SOL     OW 2185   2.967   2.470   0.746  0.1249 -0.7179 -0.1957
  729SOL    HW1 2186   2.897   2.392   0.738 -2.6015 -1.5201 -1.2030
  729SOL    HW2 2187   3.062   2.445   0.765  0.0893 -1.6616  1.3476
  730SOL     OW 2188   2.604   0.621   0.865 -0.2214 -0.0129  0.0129
  730SOL    HW1 2189   2.561   0.715   0.829  1.1161 -0.8861 -0.6255
  730SOL    HW2 2190   2.671   0.580   0.793 -1.8893  0.5340  0.3412
  731SOL     OW 2191   0.123   2.136   2.433 -0.3474 -0.3790 -0.0235
  731SOL    HW1 2192   0.117   2.162   2.536 -0.6753  0.6000 -0.8460
  731SOL    HW2 2193   0.093   2.215   2.377  1.0759 -1.9930  3.1988
  732SOL     OW 2194   1.091   2.888   1.913  0.0857  0.2829 -0.1433
  732SOL    HW1 2195   1.128   2.854   2.002 -0.0161  0.6600 -0.2939
  732SOL    HW2 2196   1.128   2.821   1.838  0.3537 -3.1848  2.0693
  733SOL     OW 2197   3.062   0.628   2.199  0.3660  0.1534 -0.6845
  733SOL    HW1 2198   3.131   0.673   2.143 -2.1760  3.0452 -0.7848
  733SOL    HW2 2199   3.004   0.564   2.141  2.3123  0.5943  1.7145
  734SOL     OW 2200   1.414   0.395   2.762 -0.2111  0.3269  0.4610
  734SOL    HW1 2201   1.430   0.490   2.803  0.1255 -0.6679  0.0368
  734SOL    HW2 2202   1.327   0.353   2.799 -1.3575 -0.6810  2.0123
  735SOL     OW 2203   2.926   2.598   2.245  0.0290 -0.2742  0.6175
  735SOL    HW1 2204   2.913   2.621   2.145  0.4265 -1.3712  1.2102
  735SOL    HW2 2205   3.015   2.555   2.266  2.1420  1.6350 -0.0498
  736SOL     OW 2206   0.715   0.337   2.660 -0.6069  0.6385 -0.9113
  736SOL    HW1 2207   0.627   0.389   2.638 -0.0184  3.6009  0.7865
  736SOL    HW2 2208   0.760   0.290   2.572 -0.2740  2.1299  0.9858
  737SOL     OW 2209   2.657   0.394   2.852 -0.1426  0.4023 -0.4288
  737SOL    HW1 2210   2.623   0.390   2.949  0.1411  0.8631 -1.4525
  737SOL    HW2 2211   2.718   0.315   2.838 -0.7532  0.9550 -1.6883
  738SOL     OW 2212   1.601   1.236   2.909 -0.3139 -0.0595 -0.2328
  738SOL    HW1 2213   1.707   1.213   2.920 -0.7347  2.0836  1.0718
  738SOL    HW2 2214   1.552   1.169   2.845 -0.5821  1.2539 -0.5975
  739SOL     OW 2215   1.701   0.610   0.645 -0.4826  0.6325 -0.3523
  739SOL    HW1 2216   1.734   0.593   0.743 -0.3826  1.1906 -1.2484
  739SOL    HW2 2217   1.763   0.565   0.576 -0.1407  0.6503 -1.2546
  740SOL     OW 2218   1.947   1.921   2.326 -0.4079  0.0463  0.6343
  740SOL    HW1 2219   1.999   1.829   2.336  1.8807 -1.8307 -1.9159
  740SOL    HW2 2220   1.880   1.920   2.252  1.0382 -0.1087  1.6728
  741SOL     OW 2221   2.528   0.075   2.619  0.0541  0.4277  0.4883
  741SOL    HW1 2222   2.627   0.047   2.637 -0.1953  0.6810 -0.5468
  741SOL    HW2 2223   2.501   0.037   2.525  1.8692  0.3261 -2.4738
  742SOL     OW 2224   2.221   1.424   0.184  0.2621 -0.7571 -0.2524
  742SOL    HW1 2225   2.157   1.494   0.232  0.5044 -1.4309  1.0713
  742SOL    HW2 2226   2.205   1.328   0.223  0.2642 -0.2615  1.7259
  743SOL     OW 2227   1.842   0.662   2.599 -0.4575  0.1165 -0.1634
  743SOL    HW1 2228   1.803   0.607   2.521 -0.2372 -0.8445  1.1346
  743SOL    HW2 2229   1.778   0.738   2.639 -1.8996  0.3013 -1.2500
  744SOL     OW 2230   2.693   2.118   0.077  0.5852  0.5070  0.0325
  744SOL    HW1 2231   2.600   2.167   0.101 -4.0682 -3.4371  0.7909
  744SOL    HW2 2232   2.670   2.020   0.043 -0.8825  2.0463  0.7653
  745SOL     OW 2233   2.164   2.659   2.295 -0.1807  0.3274  0.1738
  745SOL    HW1 2234   2.080   2.650   2.237  0.9686 -2.1338 -1.6839
  745SOL    HW2 2235   2.167   2.751   2.339 -1.2737  1.6546  2.0084
  746SOL     OW 2236   3.075   2.629   1.739  0.2272  0.0936  0.6344
  746SOL    HW1 2237   3.150   2.644   1.671  0.3858 -2.4833  0.9444
  746SOL    HW2 2238   3.037   2.719   1.779 -1.0976  0.4661 -0.8786
  747SOL     OW 2239   0.014   1.785   1.624  0.4356 -0.1577 -0.2974
  747SOL    HW1 2240  -0.040   1.706   1.588 -0.1629  1.3186  2.4867
  747SOL    HW2 2241   0.100   1.807   1.564  2.6042 -1.4388 -1.4377
  748SOL     OW 2242   1.866   2.755   2.840 -0.2182  0.2646  0.0522
  748SOL    HW1 2243   1.875   2.780   2.945  1.4878 -0.0034 -0.4924
  748SOL    HW2 2244   1.776   2.728   2.795 -0.4131  1.6089  0.5536
  749SOL     OW 2245   1.317   3.082   0.877  0.7207  0.1707  0.1638
  749SOL    HW1 2246   1.273   2.995   0.906 -2.5847  0.2691 -2.6290
  749SOL    HW2 2247   1.286   3.119   0.784  0.4905  0.8686  0.4422
  750SOL     OW 2248   2.398   0.238   1.886 -0.6522 -0.4238 -0.5325
  750SOL    HW1 2249   2.405   0.289   1.795 -0.8995  0.5256  0.3577
  750SOL    HW2 2250   2.370   0.300   1.966  0.7389  1.0383  2.3183
  751SOL     OW 2251   0.944   2.169   2.729  0.0448 -0.0650  0.4731
  751SOL    HW1 2252   0.918   2.170   2.831 -0.6174 -2.7633  0.3390
  751SOL    HW2 2253   0.860   2.167   2.668 -1.0724  0.3188 -0.3484
  752SOL     OW 2254   1.236   0.873   1.489 -0.2296 -0.0411  0.8440
  752SOL    HW1 2255   1.307   0.924   1.437 -2.7811 -2.2364 -1.8496
  752SOL    HW2 2256   1.262   0.786   1.537 -0.2139 -0.3694  0.2161
  753SOL     OW 2257   0.952   2.579   1.695  0.2334  0.2136  0.0664
  753SOL    HW1 2258   1.050   2.619   1.686 -1.1134 -0.3447 -1.4944
  753SOL    HW2 2259   0.882   2.650   1.663 -2.6263 -2.8884  0.2774
  754SOL     OW 2260   1.211   1.321   3.101 -0.0760 -0.1118 -0.0162
  754SOL    HW1 2261   1.244   1.250   3.031  3.1550  0.9920 -0.0066
  754SOL    HW2 2262   1.206   1.418   3.056  1.1960 -1.2919 -1.7913
  755SOL     OW 2263   1.951   0.428   2.208 -0.4488  0.2479  0.1616
  755SOL    HW1 2264   2.050   0.432   2.244 -1.2868 -1.0703  3.0077
  755SOL    HW2 2265   1.888   0.434   2.289  0.2974 -1.1854  0.5644
  756SOL     OW 2266   2.600   0.969   2.940  0.3353 -0.5253 -0.1066
  756SOL    HW1 2267   2.690   0.985   2.983 -1.8329  1.4651  1.7261
  756SOL    HW2 2268   2.549   0.883   2.966  2.0305  0.1047 -2.4891
  757SOL     OW 2269   3.057   0.448   1.799 -0.5560  0.7617 -0.2475
  757SOL    HW1 2270   3.144   0.505   1.797 -0.4361 -0.9122  0.1522
  757SOL    HW2 2271   3.049   0.393   1.707 -0.3842 -2.6107  0.3565
  758SOL     OW 2272   2.394   0.115   1.418 -0.1330 -0.1831  0.1339
  758SOL    HW1 2273   2.350   0.046   1.485  0.2047  0.5439  1.4528
  758SOL    HW2 2274   2.380   0.076   1.318  0.6162  1.3495  0.4315
  759SOL     OW 2275   1.698   0.034   0.055 -0.6888 -0.1329 -0.1671
  759SOL    HW1 2276   1.647   0.046  -0.038  0.6378  2.0029 -1.8908
  759SOL    HW2 2277   1.801   0.039   0.044 -1.7758 -2.5799  0.0631
  760SOL     OW 2278   2.748   2.078   2.824  0.0586  0.1614 -0.1492
  760SOL    HW1 2279   2.835   2.018   2.832 -0.4879  2.6702 -1.0617
  760SOL    HW2 2280   2.737   2.147   2.900  1.3131 -1.7927  0.3358
  761SOL     OW 2281   1.934   1.764   1.688  0.6466 -0.1304 -0.3086
  761SOL    HW1 2282   1.968   1.674   1.722  0.8868 -1.4400 -1.2442
  761SOL    HW2 2283   1.874   1.757   1.606  1.9430  1.0577  1.4057
  762SOL     OW 2284   0.464   2.328   0.977  0.4583  0.4309 -0.3952
  762SOL    HW1 2285   0.493   2.343   0.880 -1.5417  3.8143  0.3556
  762SOL    HW2 2286   0.488   2.405   1.040 -2.4624  2.0270 -0.5681
  763SOL     OW 2287   2.101   1.522   2.955  0.2151  0.3225  0.4165
  763SOL    HW1 2288   2.179   1.464   2.996  1.3169 -1.1285  1.1049
  763SOL    HW2 2289   2.012   1.506   3.010 -2.0908  1.9527  0.6184
  764SOL     OW 2290   0.658   0.598   0.835  0.3643 -0.1100  0.3919
  764SOL    HW1 2291   0.577   0.535   0.818  1.2030 -1.1831  2.5871
  764SOL    HW2 2292   0.750   0.548   0.850  0.7308 -1.3581  0.3812
  765SOL     OW 2293   0.718   0.224   0.826 -0.1072 -0.4421  0.5227
  765SOL    HW1 2294   0.779   0.278   0.764 -1.6470 -1.7654  1.1104
  765SOL    HW2 2295   0.703   0.267   0.921 -2.0756 -1.9018  1.4162
  766SOL     OW 2296   2.961   2.091   3.085  0.1791 -0.3036  0.1270
  766SOL    HW1 2297   2.869   2.108   3.126 -0.7603  1.4013  1.0693
  766SOL    HW2 2298   3.009   2.177   3.045  1.3039 -1.6838 -0.7365
  767SOL     OW 2299   2.854   1.562   0.543  0.2866  0.1014  0.0115
  767SOL    HW1 2300   2.795   1.566   0.629 -1.3467  1.5452 -1.7429
  767SOL    HW2 2301   2.921   1.635   0.536  0.2838  0.3014  2.4947
  768SOL     OW 2302   1.086   0.215   0.344 -0.1652  0.6080  0.3444
  768SOL    HW1 2303   0.999   0.163   0.379 -1.9255  0.0808  0.1729
  768SOL    HW2 2304   1.164   0.151   0.319 -3.0341  0.9554  2.8281
  769SOL     OW 2305   1.111   1.896   2.239  0.3945  0.2862  0.6377
  769SOL    HW1 2306   1.047   1.911   2.321  2.0242  1.2037  3.5994
  769SOL    HW2 2307   1.120   1.797   2.197  0.6358 -2.8242 -2.3048
  770SOL     OW 2308   0.131   1.243   2.232 -0.3646  0.6514  0.7630
  770SOL    HW1 2309   0.112   1.244   2.335 -0.8895  1.4322 -0.2855
  770SOL    HW2 2310   0.048   1.225   2.176 -1.1884 -0.0605 -2.0611
  771SOL     OW 2311   2.939   2.834   1.880  0.2135 -0.2551  0.0699
  771SOL    HW1 2312   2.878   2.891   1.818 -2.4052 -0.6322 -2.6316
  771SOL    HW2 2313   2.929   2.865   1.979  1.2876  2.4434 -1.1134
  772SOL     OW 2314   2.175   0.103   2.967 -0.2922  0.0231  0.2187
  772SOL    HW1 2315   2.268   0.059   2.951  1.5765 -0.2846 -0.3595
  772SOL    HW2 2316   2.179   0.201   3.006 -2.1023 -0.9131 -0.1424
  773SOL     OW 2317   0.730   2.164   2.508  0.0689 -0.8439 -0.0346
  773SOL    HW1 2318   0.705   2.199   2.411  1.4397 -2.7689 -0.2240
  773SOL    HW2 2319   0.644   2.136   2.562 -0.1877  0.3453  0.6189
  774SOL     OW 2320   2.025   0.034   2.667  0.3784 -0.6283  0.3157
  774SOL    HW1 2321   2.057   0.131   2.685 -0.5976  2.4621  1.0218
  774SOL    HW2 2322   2.080  -0.039   2.710 -1.8848 -0.2769 -2.3504
  775SOL     OW 2323   2.532   2.800   2.477 -0.0400  0.0938  0.5819
  775SOL    HW1 2324   2.507   2.902   2.464 -1.0806  0.9399  0.3283
  775SOL    HW2 2325   2.635   2.785   2.467  0.4301 -2.5116 -0.4767
  776SOL     OW 2326   0.066   1.263   0.225  0.3351  0.0425  0.1203
  776SOL    HW1 2327   0.014   1.258   0.136 -1.0806  0.1596  3.0743
  776SOL    HW2 2328   0.005   1.239   0.300 -0.9758  2.0478 -2.0626
  777SOL     OW 2329   0.249   2.813   0.478 -0.1605 -1.1309  0.0805
  777SOL    HW1 2330   0.159   2.816   0.425  0.9154  0.1757 -1.2168
  777SOL    HW2 2331   0.265   2.896   0.539 -0.3384  0.6781  0.7000
  778SOL     OW 2332   1.363   1.956   0.156  0.3572  0.4430 -0.0024
  778SOL    HW1 2333   1.297   1.964   0.234 -0.2560  1.0539  1.0557
  778SOL    HW2 2334   1.376   2.049   0.112 -1.9698 -2.0351 -2.7286
  779SOL     OW 2335   0.187   0.821   0.493  0.2950 -0.5759 -0.1090
  779SOL    HW1 2336   0.148   0.724   0.481  0.0062  0.6524 -0.7509
  779SOL    HW2 2337   0.139   0.872   0.572 -2.0634 -2.0625  0.8672
  780SOL     OW 2338   0.047   0.255   2.256 -0.0627  0.2764  0.8263
  780SOL    HW1 2339   0.005   0.338   2.295 -0.1954  0.1248  0.6487
  780SOL    HW2 2340   0.137   0.278   2.213  0.0331  2.1436  0.2356
  781SOL     OW 2341   0.660   1.733   1.566  0.1808 -0.1555  0.3050
  781SOL    HW1 2342   0.681   1.769   1.664  1.3015  1.5735 -1.6833
  781SOL    HW2 2343   0.596   1.649   1.563 -0.4349 -1.9373 -1.1308
  782SOL     OW 2344   2.578   0.140   0.907  0.0761  0.3634 -0.2655
  782SOL    HW1 2345   2.514   0.165   0.825 -1.8687  2.1295  0.8037
  782SOL    HW2 2346   2.550   0.186   0.995  1.3770 -1.3196 -1.6038
  783SOL     OW 2347   2.818   0.657   2.516 -0.1202 -0.4312 -0.0969
  783SOL    HW1 2348   2.769   0.651   2.605  0.6242 -2.4988 -0.7214
  783SOL    HW2 2349   2.780   0.586   2.451 -0.2902  0.8947  3.1851
  784SOL     OW 2350   1.382   2.214   0.049 -0.1390  0.3825  0.0551
  784SOL    HW1 2351   1.449   2.279   0.097 -0.6791 -0.4927  0.0302
  784SOL    HW2 2352   1.381   2.230  -0.058  0.6114  0.6953 -1.2813
  785SOL     OW 2353   2.184   0.362   3.073  0.5212  0.4090  0.1468
  785SOL    HW1 2354   2.100   0.359   3.138 -1.9522 -2.0570  1.1599
  785SOL    HW2 2355   2.196   0.451   3.024  0.7676  0.5290 -0.8878
  786SOL     OW 2356   2.049   2.169   2.196  0.3535 -0.6330 -0.0527
  786SOL    HW1 2357   2.044   2.104   2.277 -0.9793 -1.0690 -1.6130
  786SOL    HW2 2358   2.133   2.143   2.136 -0.8873 -0.6068  0.4916
  787SOL     OW 2359   1.418   0.615   0.886 -0.1478 -0.0837  0.0061
  787SOL    HW1 2360   1.340   0.682   0.912 -1.5735 -0.0952 -0.5244
  787SOL    HW2 2361   1.415   0.588   0.783  0.2470 -0.2853 -1.8694
  788SOL     OW 2362   1.220   0.425   3.036 -0.0576 -0.0977 -0.4142
  788SOL    HW1 2363   1.140   0.442   2.966 -1.2372 -2.6748  0.0657
  788SOL    HW2 2364   1.293   0.498   3.040 -0.5549 -2.0467  1.5079
  789SOL     OW 2365   2.594   0.069   1.810  0.2302  0.1651 -0.0951
  789SOL    HW1 2366   2.512   0.129   1.843 -0.8708 -0.7498 -1.7314
  789SOL    HW2 2367   2.576  -0.025   1.832 -0.0816  1.6326  2.5298
  790SOL     OW 2368   2.571   2.702   0.871 -0.2980 -0.6315 -0.3289
  790SOL    HW1 2369   2.599   2.793   0.923 -0.7877  0.1089 -0.3909
  790SOL    HW2 2370   2.656   2.645   0.853 -2.3013  1.3380  2.2484
  791SOL     OW 2371   1.909   1.270   0.252  0.2526 -0.1393 -0.0400
  791SOL    HW1 2372   1.820   1.217   0.261  1.7858 -0.7266  0.5836
  791SOL    HW2 2373   1.993   1.210   0.263 -2.4944  0.1743  2.8571
  792SOL     OW 2374   0.457   2.007   2.140 -0.3576  0.0832 -0.2756
  792SOL    HW1 2375   0.489   2.099   2.174  1.9775 -1.1935  2.4773
  792SOL    HW2 2376   0.380   1.974   2.196  0.6239 -0.3216 -3.8480
  793SOL     OW 2377   2.096   1.563   2.095 -0.1748 -0.4925 -0.0919
  793SOL    HW1 2378   2.164   1.628   2.049 -0.3930  1.4926  1.3310
  793SOL    HW2 2379   2.077   1.478   2.046  1.2336  1.7978 -1.8284
  794SOL     OW 2380   0.460   1.386   2.491 -0.1354 -0.2360  0.1547
  794SOL    HW1 2381   0.489   1.355   2.399 -0.2713  0.0450  0.5891
  794SOL    HW2 2382   0.398   1.467   2.489 -1.4717 -1.2680 -0.2187
  795SOL     OW 2383   2.476   2.370   1.783 -0.1429  0.2495  0.3232
  795SOL    HW1 2384   2.503   2.378   1.881  0.4472 -1.0160  1.1069
  795SOL    HW2 2385   2.417   2.282   1.765  2.0879 -4.6551 -0.5427
  796SOL     OW 2386   3.078   1.085   2.704  0.5485  0.0734 -0.1082
  796SOL    HW1 2387   2.975   1.095   2.723  1.7891 -1.1304  0.2077
  796SOL    HW2 2388   3.147   1.110   2.778 -0.5548 -2.1143 -0.9615
  797SOL     OW 2389   0.756   0.658   1.334  0.8848  0.5488  0.0994
  797SOL    HW1 2390   0.831   0.705   1.392 -0.9638 -0.5927 -0.0435
  797SOL    HW2 2391   0.711   0.731   1.275  2.1441  1.4047  0.7486
  798SOL     OW 2392   1.342   0.434   1.085  0.0814 -0.0069 -0.8353
  798SOL    HW1 2393   1.320   0.486   1.175 -1.5605  0.7428  2.2774
  798SOL    HW2 2394   1.393   0.485   1.012 -0.1086 -0.2704  1.3488
  799SOL     OW 2395   1.947   2.667   1.047  0.2591  0.9521 -0.2659
  799SOL    HW1 2396   1.934   2.565   1.081  2.5298  0.3695  1.9610
  799SOL    HW2 2397   1.928   2.679   0.945 -3.3966  1.9756 -0.3879
  800SOL     OW 2398   2.913   0.833   1.846  0.1951 -0.1463  0.4745
  800SOL    HW1 2399   2.985   0.905   1.862  2.5965 -2.7163  0.4915
  800SOL    HW2 2400   2.824   0.858   1.894 -0.3968  0.4743 -1.3001
  801SOL     OW 2401   1.980   2.168   0.047 -0.1094 -0.2819  0.0932
  801SOL    HW1 2402   1.901   2.159  -0.017 -1.6059 -1.1212 -0.2910
  801SOL    HW2 2403   2.068   2.150  -0.002 -2.1577 -0.9918  2.9251
  802SOL     OW 2404   0.678   0.776   2.534  0.3572 -0.8185 -0.4825
  802SOL    HW1 2405   0.730   0.782   2.449 -0.1959  2.6584  1.2985
  802SOL    HW2 2406   0.575   0.770   2.523  0.4293 -1.7773  0.0388
  803SOL     OW 2407   0.950   0.090   0.891  0.0527  0.3600 -0.0759
  803SOL    HW1 2408   1.020   0.166   0.906 -3.1815  3.4229 -0.1061
  803SOL    HW2 2409   0.860   0.125   0.851 -0.6670 -0.2532 -2.4583
  804SOL     OW 2410   0.305   3.045   2.201 -0.3086 -0.3198  0.0004
  804SOL    HW1 2411   0.304   3.148   2.187  0.8932 -1.6579  2.4850
  804SOL    HW2 2412   0.256   2.999   2.122  1.9516  1.1554 -1.1487
  805SOL     OW 2413   2.333   0.415   0.310 -0.1740  0.3047 -0.3290
  805SOL    HW1 2414   2.397   0.403   0.392  1.6162  1.1609  3.1304
  805SOL    HW2 2415   2.326   0.329   0.255  0.5294  0.1574  1.5905
  806SOL     OW 2416   0.700   2.440   1.812  0.0198  0.6302 -0.3847
  806SOL    HW1 2417   0.648   2.530   1.814 -0.7705 -1.1783 -0.0071
  806SOL    HW2 2418   0.801   2.453   1.809 -0.4325  0.1339  0.4448
  807SOL     OW 2419   2.524   0.895   0.447  0.0821  0.9562 -0.4908
  807SOL    HW1 2420   2.626   0.877   0.454 -1.4117 -2.2411  0.9043
  807SOL    HW2 2421   2.506   0.935   0.349 -0.7853  1.4736  0.2012
  808SOL     OW 2422   0.671   2.057   2.934  0.0163 -0.4367 -0.5236
  808SOL    HW1 2423   0.613   2.096   3.011 -1.7164 -0.1735  2.0421
  808SOL    HW2 2424   0.677   1.953   2.935  1.3191 -0.9055 -1.6450
  809SOL     OW 2425   2.570   1.989   1.862 -0.1931  0.0450 -0.4368
  809SOL    HW1 2426   2.664   2.036   1.864 -1.0558  4.9299  1.5252
  809SOL    HW2 2427   2.538   1.954   1.766 -0.9569 -1.9827 -0.4383
  810SOL     OW 2428   2.192   1.137   0.497  0.0287 -0.3332 -0.4322
  810SOL    HW1 2429   2.184   1.047   0.553 -0.6354 -3.7175  0.1427
  810SOL    HW2 2430   2.135   1.217   0.536 -2.8847  1.5383 -0.2982
  811SOL     OW 2431   1.402   2.527   1.196  0.1118  0.1412 -0.1945
  811SOL    HW1 2432   1.341   2.451   1.228 -0.0068  1.6481  1.3114
  811SOL    HW2 2433   1.386   2.610   1.249 -1.3468 -0.9431 -1.8767
  812SOL     OW 2434   1.417   0.745   1.982  0.2572  0.3430  0.0243
  812SOL    HW1 2435   1.319   0.731   2.018 -0.9116  0.6003 -1.8730
  812SOL    HW2 2436   1.430   0.841   1.945 -2.7681  2.1055 -0.4128
  813SOL     OW 2437   1.619   2.073   2.449 -0.0287 -0.2722 -0.3564
  813SOL    HW1 2438   1.662   1.983   2.474 -3.0441 -0.6066 -0.2339
  813SOL    HW2 2439   1.598   2.076   2.345  1.1795  0.7728 -2.4087
  814SOL     OW 2440   2.972   1.581   2.850  0.4905  0.6286 -0.1292
  814SOL    HW1 2441   3.046   1.578   2.918 -0.6164 -0.5832 -1.9127
  814SOL    HW2 2442   2.979   1.660   2.787  2.6160  0.9212 -1.5948
  815SOL     OW 2443   2.187   2.929   2.791 -0.2206 -0.7296 -1.1008
  815SOL    HW1 2444   2.181   2.840   2.848  2.5074 -4.4817  0.4595
  815SOL    HW2 2445   2.275   2.979   2.810 -1.0591  1.3254 -1.0009
  816SOL     OW 2446   1.598   0.370   1.681  0.3945 -0.5394 -0.2015
  816SOL    HW1 2447   1.657   0.286   1.698  2.5636  0.8675  0.4877
  816SOL    HW2 2448   1.528   0.395   1.760  0.1878  1.3442  1.1104
  817SOL     OW 2449   0.379   1.196   2.654  0.7270  0.2022  0.2134
  817SOL    HW1 2450   0.284   1.215   2.684  0.5024  1.5340 -1.0287
  817SOL    HW2 2451   0.404   1.262   2.577  0.9879  1.1509 -1.7599
  818SOL     OW 2452   1.948   0.835   0.427 -0.4403 -0.1027  0.4505
  818SOL    HW1 2453   2.052   0.821   0.431  0.7582  1.0963  2.4180
  818SOL    HW2 2454   1.908   0.894   0.503  0.0410 -1.6019 -0.0574
  819SOL     OW 2455   2.760   2.940   0.016  0.0519 -0.0630 -0.0042
  819SOL    HW1 2456   2.830   2.891   0.075 -3.0227 -0.5758 -0.1551
  819SOL    HW2 2457   2.724   2.885  -0.061  1.1567 -0.4805  2.1290
  820SOL     OW 2458   1.231   1.050   0.536 -0.0611 -0.1152 -0.3810
  820SOL    HW1 2459   1.246   1.147   0.559  1.2085  0.4788  0.0070
  820SOL    HW2 2460   1.269   0.994   0.613  0.7207  1.2384 -1.7607
  821SOL     OW 2461   0.037   1.268   0.713  0.0823 -0.3694 -0.0665
  821SOL    HW1 2462   0.006   1.257   0.810 -0.0155  2.6558  0.8000
  821SOL    HW2 2463   0.085   1.366   0.702 -0.7909  2.7752  0.6997
  822SOL     OW 2464   2.556   1.817   2.449 -0.4077 -0.3035  0.0287
  822SOL    HW1 2465   2.544   1.892   2.520  0.6581  1.5304 -0.0699
  822SOL    HW2 2466   2.472   1.806   2.388 -0.6780 -0.7532  0.9017
  823SOL     OW 2467   2.035   0.888   1.123  0.2838  0.2525  0.0145
  823SOL    HW1 2468   2.022   0.876   1.229  0.4589 -1.7601  0.3623
  823SOL    HW2 2469   1.948   0.902   1.073 -0.5750 -2.4291  1.4716
  824SOL     OW 2470   0.208   1.967   2.817  0.3215 -0.2027 -0.0918
  824SOL    HW1 2471   0.239   1.915   2.903 -0.0847  2.5760 -2.0126
  824SOL    HW2 2472   0.254   1.948   2.726  2.1165  0.7358  1.3383
  825SOL     OW 2473   1.319   1.041   0.277 -0.0341  0.0342 -0.3214
  825SOL    HW1 2474   1.327   1.138   0.254 -1.2684 -0.6311 -0.9033
  825SOL    HW2 2475   1.272   1.024   0.369  1.6742 -1.0144 -0.2455
  826SOL     OW 2476   1.932   0.645   1.587 -0.5778  0.1272  0.2314
  826SOL    HW1 2477   2.017   0.585   1.611  0.9981 -0.8234  0.7595
  826SOL    HW2 2478   1.855   0.585   1.546 -0.3980 -0.8076  0.4229
  827SOL     OW 2479   0.656   1.227   0.298 -0.4731  0.4548 -0.0217
  827SOL    HW1 2480   0.699   1.207   0.203 -0.4456 -0.1627 -0.1238
  827SOL    HW2 2481   0.605   1.143   0.340  0.5190 -0.3249  0.9220
  828SOL     OW 2482   2.640   0.103   1.514  0.3054  0.3265 -0.0111
  828SOL    HW1 2483   2.544   0.110   1.469 -2.1371  0.6051  0.9039
  828SOL    HW2 2484   2.635   0.080   1.616  0.1741  0.8152 -0.5155
  829SOL     OW 2485   2.946   2.393   2.839  0.6717 -0.9012 -0.3703
  829SOL    HW1 2486   2.847   2.400   2.875  0.3752 -0.0577 -1.8259
  829SOL    HW2 2487   2.985   2.490   2.826 -1.5039  0.6218 -0.3253
  830SOL     OW 2488   2.838   1.005   3.037  0.9207 -0.4776  0.4003
  830SOL    HW1 2489   2.917   1.073   3.043 -0.5561  1.7972  0.0538
  830SOL    HW2 2490   2.837   0.924   3.104  2.5297 -0.0330 -1.9207
  831SOL     OW 2491   0.097   0.568   0.431 -1.0444 -0.6203  0.3019
  831SOL    HW1 2492   0.069   0.496   0.501  0.1784 -1.8933 -1.1465
  831SOL    HW2 2493   0.121   0.532   0.336  0.7909  0.1023  0.9394
  832SOL     OW 2494   1.836   0.785   3.021 -0.1397 -0.0431  0.2867
  832SOL    HW1 2495   1.739   0.826   3.010 -2.0717  0.4654  0.5932
  832SOL    HW2 2496   1.823   0.681   3.029  1.2786  0.2902  0.7491
  833SOL     OW 2497   2.425   2.064   0.451 -0.0855  0.1054  0.2161
  833SOL    HW1 2498   2.321   2.061   0.454  0.1279 -2.2418 -0.6154
  833SOL    HW2 2499   2.466   1.974   0.456 -2.1412  2.4053  0.7068
  834SOL     OW 2500   0.123   0.128   0.513  0.1286 -0.8758  0.4563
  834SOL    HW1 2501   0.177   0.044   0.534  1.0399  2.5397  0.0436
  834SOL    HW2 2502   0.123   0.147   0.412 -0.4283 -1.3204  0.6994
  835SOL     OW 2503   2.399   1.504   1.158  0.1948  0.0714 -0.2916
  835SOL    HW1 2504   2.446   1.591   1.191  0.7145 -3.2349  0.7896
  835SOL    HW2 2505   2.455   1.474   1.072  1.5156 -0.5506 -0.9330
  836SOL     OW 2506   1.626   0.879   2.583  0.1671 -0.2280 -0.1543
  836SOL    HW1 2507   1.540   0.825   2.598  0.4164 -0.6244  0.6918
  836SOL    HW2 2508   1.652   0.900   2.485 -0.1456 -0.5170 -0.8296
  837SOL     OW 2509   1.629   0.065   0.566  0.1263 -0.3138  0.0615
  837SOL    HW1 2510   1.567   0.108   0.635 -0.4849 -0.3197 -0.2317
  837SOL    HW2 2511   1.596   0.075   0.466 -0.7921 -3.0772  0.7539
  838SOL     OW 2512   1.231   1.389   2.786 -0.2253 -0.4626  0.0300
  838SOL    HW1 2513   1.199   1.448   2.862  0.4271 -1.4327 -0.3876
  838SOL    HW2 2514   1.154   1.379   2.715  1.4674  1.7628 -1.3552
  839SOL     OW 2515   1.647   0.327   0.993 -0.4209  0.3061  0.1738
  839SOL    HW1 2516   1.654   0.395   1.069 -0.4573  1.4036 -0.6413
  839SOL    HW2 2517   1.628   0.229   1.020 -1.3508  1.7935 -0.7194
  840SOL     OW 2518   2.539   2.885   1.776  0.4058  0.7210  0.3054
  840SOL    HW1 2519   2.518   2.841   1.682 -0.2917 -0.9257 -1.0314
  840SOL    HW2 2520   2.515   2.826   1.858  0.0891 -0.4673  2.1403
  841SOL     OW 2521   1.578   0.883   2.981 -0.0854 -0.4751 -0.1945
  841SOL    HW1 2522   1.543   0.954   3.050  0.8862 -1.2438  0.9040
  841SOL    HW2 2523   1.573   0.920   2.886 -1.7463 -1.5943  0.3002
  842SOL     OW 2524   0.805   1.527   0.997  0.0336  0.4084  0.4727
  842SOL    HW1 2525   0.779   1.620   1.038 -0.2340 -0.5688 -1.0898
  842SOL    HW2 2526   0.740   1.504   0.920  0.0295 -0.3622  3.6673
  843SOL     OW 2527   0.133   0.112   1.478 -0.1271  0.0417 -0.0108
  843SOL    HW1 2528   0.213   0.120   1.544  1.8848 -1.6145 -0.0991
  843SOL    HW2 2529   0.103   0.011   1.463  0.9318 -1.7099 -1.8839
  844SOL     OW 2530   0.780   2.478   0.290  0.1489  0.1328 -0.2242
  844SOL    HW1 2531   0.744   2.492   0.388  3.3873  1.7946  0.1704
  844SOL    HW2 2532   0.701   2.491   0.221 -0.3154 -0.5086  1.0568
  845SOL     OW 2533   1.678   2.896   1.380  0.0811  0.3807 -0.6172
  845SOL    HW1 2534   1.739   2.909   1.468  1.0665 -0.3399  0.9170
  845SOL    HW2 2535   1.611   2.976   1.379  0.2795  1.1867  2.7991
  846SOL     OW 2536   1.685   2.970   0.893  0.0197 -0.1694  0.6269
  846SOL    HW1 2537   1.637   2.989   0.802 -0.7954  0.3465 -0.2911
  846SOL    HW2 2538   1.785   2.965   0.876 -0.5109  0.4402  2.3874
  847SOL     OW 2539   2.025   1.647   0.232  0.3855 -0.2580  0.2359
  847SOL    HW1 2540   1.957   1.639   0.307 -1.4386  0.7164 -0.1578
  847SOL    HW2 2541   1.993   1.596   0.145 -0.2952  1.7676  1.5368
  848SOL     OW 2542   2.471   0.776   2.667 -0.3657 -0.0463  0.1342
  848SOL    HW1 2543   2.465   0.883   2.676 -0.4461  1.0693 -2.3113
  848SOL    HW2 2544   2.402   0.740   2.598 -1.1190  1.5278 -1.2122
  849SOL     OW 2545   2.460   0.871   2.315 -0.0557 -0.2298 -0.9383
  849SOL    HW1 2546   2.540   0.825   2.267 -0.3671 -0.7265  0.8013
  849SOL    HW2 2547   2.416   0.809   2.384 -1.4642  0.7716  1.0209
  850SOL     OW 2548   1.542   0.083   1.323  0.6234 -0.5694 -0.0986
  850SOL    HW1 2549   1.512   0.084   1.226  0.7530 -0.2842  0.7269
  850SOL    HW2 2550   1.468   0.069   1.388  1.4994  2.8331 -3.0858
  851SOL     OW 2551   0.464   1.708   0.689 -0.1501  0.0153  0.4361
  851SOL    HW1 2552   0.431   1.807   0.690 -3.4226 -0.4063  0.0313
  851SOL    HW2 2553   0.567   1.696   0.674  2.4518  2.9371  0.1782
  852SOL     OW 2554   0.810   2.141   1.661 -0.4139 -0.8373 -0.2539
  852SOL    HW1 2555   0.806   2.238   1.613  2.1804 -1.0210 -1.8732
  852SOL    HW2 2556   0.749   2.130   1.743 -1.5550  0.7276  0.4999
  853SOL     OW 2557   2.491   1.562   2.625  0.4312  0.2364 -0.2519
  853SOL    HW1 2558   2.500   1.467   2.579  1.2752 -2.6771 -2.1049
  853SOL    HW2 2559   2.521   1.638   2.559 -0.4147 -0.3267 -0.0647
  854SOL     OW 2560   2.510   1.392   1.802 -0.1965 -0.0371  0.2832
  854SOL    HW1 2561   2.549   1.362   1.711 -0.4116 -0.0230 -0.6234
  854SOL    HW2 2562   2.482   1.309   1.857 -2.3875  0.5286 -0.7582
  855SOL     OW 2563   2.074   2.331   0.971 -0.3533 -0.3389  0.4186
  855SOL    HW1 2564   2.091   2.426   0.923 -1.3635  0.4129 -2.4934
  855SOL    HW2 2565   2.138   2.325   1.055 -0.7983  0.0963 -0.2383
  856SOL     OW 2566   1.388   1.400   0.896  0.0105 -0.4911  0.5493
  856SOL    HW1 2567   1.452   1.476   0.911 -2.8178  0.1949  0.1007
  856SOL    HW2 2568   1.286   1.418   0.918 -0.9080 -3.5454  0.9783
  857SOL     OW 2569   2.991   2.596   1.079  0.7506  0.0211  0.7448
  857SOL    HW1 2570   2.919   2.527   1.065 -1.0216 -0.7599  1.2043
  857SOL    HW2 2571   3.087   2.566   1.046  1.0108 -1.3467  1.8819
  858SOL     OW 2572   2.312   2.153   1.696  0.0463  0.4563  0.2036
  858SOL    HW1 2573   2.210   2.161   1.670 -1.2493  1.3066 -1.9184
  858SOL    HW2 2574   2.359   2.102   1.621 -2.4929  2.4746 -0.6756
  859SOL     OW 2575   2.440   0.523   1.067 -0.4275 -0.3948  0.1281
  859SOL    HW1 2576   2.493   0.543   0.976  0.0949  2.6483 -1.9073
  859SOL    HW2 2577   2.458   0.430   1.095  1.0252 -1.1249 -2.5917
  860SOL     OW 2578   1.929   2.803   0.445 -0.6524 -0.9430 -0.9546
  860SOL    HW1 2579   1.881   2.773   0.358 -1.4694  0.5372  1.7392
  860SOL    HW2 2580   2.019   2.850   0.419  2.8841  1.0100  1.3719
  861SOL     OW 2581   1.111   2.591   2.788  0.5623  0.1283 -0.0250
  861SOL    HW1 2582   1.120   2.687   2.757 -0.2870 -0.2038 -3.0052
  861SOL    HW2 2583   1.135   2.581   2.889 -3.3690  1.0570  2.2425
  862SOL     OW 2584   2.872   2.500   1.609  0.7930  0.0931  0.1335
  862SOL    HW1 2585   2.952   2.521   1.681  0.6016 -1.8336  1.4961
  862SOL    HW2 2586   2.840   2.588   1.562 -1.1509  0.0526 -1.0139
  863SOL     OW 2587   1.867   2.689   0.197  0.0167  0.0386  0.3127
  863SOL    HW1 2588   1.927   2.606   0.168 -1.3657 -0.8221 -0.1354
  863SOL    HW2 2589   1.771   2.652   0.211 -0.2381  1.7732  0.5901
  864SOL     OW 2590   1.875   1.151   2.921  0.5952  0.2522  0.5981
  864SOL    HW1 2591   1.893   1.093   2.842  0.6104  0.2754  0.8188
  864SOL    HW2 2592   1.957   1.170   2.984 -0.2927  1.2199  2.6269
  865SOL     OW 2593   2.198   1.861   0.687  0.0642 -0.1634 -0.2479
  865SOL    HW1 2594   2.249   1.846   0.772  1.5588 -1.4028 -2.3431
  865SOL    HW2 2595   2.105   1.821   0.686  2.6578  1.6108 -0.1696
  866SOL     OW 2596   2.952   2.900   0.979 -0.2105  0.0468 -0.1385
  866SOL    HW1 2597   3.010   2.944   0.908 -1.0627 -0.9651  1.3464
  866SOL    HW2 2598   2.975   2.803   1.007 -0.9298  0.4580  0.7117
  867SOL     OW 2599   0.359   1.343   0.909  0.8539 -0.3221 -0.3930
  867SOL    HW1 2600   0.392   1.264   0.849  1.3908  0.3541  3.2607
  867SOL    HW2 2601   0.286   1.396   0.857 -1.3786 -2.6915 -2.1058
  868SOL     OW 2602   0.771   1.910   2.026  0.2820  0.3422  0.2601
  868SOL    HW1 2603   0.736   1.890   2.120 -0.9137  0.3851  1.3643
  868SOL    HW2 2604   0.742   2.004   1.993  1.9630 -1.8655  0.1262
  869SOL     OW 2605   2.504   1.916   1.597 -0.1169  0.1470  0.0768
  869SOL    HW1 2606   2.597   1.940   1.559  0.9751 -0.7774  0.1150
  869SOL    HW2 2607   2.448   1.853   1.539 -0.1555  1.6874 -0.1662
  870SOL     OW 2608   2.278   2.608   1.261 -0.1458 -0.5802 -0.2146
  870SOL    HW1 2609   2.257   2.510   1.236  1.2413  3.9209 -1.8600
  870SOL    HW2 2610   2.210   2.652   1.328 -1.6138  1.1276 -0.7705
  871SOL     OW 2611   2.994   2.095   0.587  0.0123  0.1107 -0.1332
  871SOL    HW1 2612   2.924   2.157   0.633  1.8765 -1.6719 -0.4128
  871SOL    HW2 2613   2.946   2.041   0.512  2.8256  0.9685 -1.2717
  872SOL     OW 2614   2.135   0.475   1.685  0.1703 -0.1271  0.3396
  872SOL    HW1 2615   2.098   0.457   1.780 -2.4827  0.2298 -0.6416
  872SOL    HW2 2616   2.238   0.461   1.675  0.5057 -1.1201 -0.9610
  873SOL     OW 2617   1.740   2.078   2.983 -0.5352  0.4796 -0.2123
  873SOL    HW1 2618   1.719   2.172   3.016  2.7007  0.4952 -2.4716
  873SOL    HW2 2619   1.664   2.039   2.924 -0.8581  0.1619 -0.8567
  874SOL     OW 2620   0.631   2.462   0.801 -0.5764  0.2613 -0.4248
  874SOL    HW1 2621   0.624   2.563   0.808  1.5169 -1.2182 -0.5306
  874SOL    HW2 2622   0.732   2.430   0.806 -0.9361 -1.0191  0.8786
  875SOL     OW 2623   2.287   1.468   1.431 -0.4024  0.1319 -0.0275
  875SOL    HW1 2624   2.377   1.474   1.482  0.6649  1.5219 -0.3722
  875SOL    HW2 2625   2.281   1.526   1.350 -0.4375 -0.2361  3.6753
  876SOL     OW 2626   0.093   2.252   2.712  0.5985  0.2242  0.1031
  876SOL    HW1 2627   0.124   2.171   2.771 -0.2963 -0.5792  0.8525
  876SOL    HW2 2628   0.117   2.346   2.738 -0.7838  0.2197  1.9168
  877SOL     OW 2629   2.820   2.680   0.600 -0.8964  0.1468  0.7285
  877SOL    HW1 2630   2.801   2.770   0.651 -0.5824 -1.6580  2.7133
  877SOL    HW2 2631   2.897   2.628   0.639  0.4322 -0.8982  0.6401
  878SOL     OW 2632   2.848   1.567   2.196  0.4401 -0.7341  0.2574
  878SOL    HW1 2633   2.951   1.579   2.178 -0.0004 -0.3367  1.6689
  878SOL    HW2 2634   2.816   1.574   2.294 -2.6586 -2.2862 -0.6125
  879SOL     OW 2635   2.397   0.049   1.142  0.1578 -0.1898  0.2635
  879SOL    HW1 2636   2.457  -0.031   1.171  2.1231 -0.9244  1.3191
  879SOL    HW2 2637   2.319   0.023   1.075 -2.4433  1.5953  0.5087
  880SOL     OW 2638   0.677   0.457   2.222  0.7211 -0.2328 -0.5835
  880SOL    HW1 2639   0.608   0.390   2.267 -1.3263  0.3040 -1.5462
  880SOL    HW2 2640   0.739   0.411   2.145  0.4315  0.8554 -0.5671
  881SOL     OW 2641   0.918   0.065   0.498  0.4698 -0.2205 -0.4812
  881SOL    HW1 2642   0.953  -0.033   0.505  0.0840 -1.1749 -1.5763
  881SOL    HW2 2643   0.840   0.063   0.426 -0.1524 -0.9794  1.3112
  882SOL     OW 2644   2.707   1.639   1.669 -0.2436 -0.5491 -0.2177
  882SOL    HW1 2645   2.796   1.641   1.625 -0.9572 -0.8846  1.2060
  882SOL    HW2 2646   2.697   1.681   1.766 -1.3042 -1.8048  0.6102
  883SOL     OW 2647   0.918   0.589   0.941  0.4637 -0.1453 -0.1609
  883SOL    HW1 2648   0.933   0.691   0.960  0.6305  0.2100  0.6976
  883SOL    HW2 2649   0.932   0.530   1.026 -0.0283  1.2936 -2.8545
  884SOL     OW 2650   1.173   1.808   1.084  0.0873  0.5152 -0.4330
  884SOL    HW1 2651   1.185   1.727   1.014  1.7216 -1.1192 -3.4404
  884SOL    HW2 2652   1.109   1.881   1.040  0.4091  0.1261  0.7785
  885SOL     OW 2653   2.328   1.828   2.302 -0.8925  0.4376 -0.2513
  885SOL    HW1 2654   2.249   1.757   2.318  1.6760 -0.0903  0.1144
  885SOL    HW2 2655   2.300   1.926   2.307 -0.3690 -2.7115  1.3964
  886SOL     OW 2656   2.628   0.462   1.796  0.4636  0.0761 -0.3456
  886SOL    HW1 2657   2.679   0.398   1.859  0.5425 -1.8037 -0.9939
  886SOL    HW2 2658   2.687   0.541   1.756  0.0000  2.3653 -2.4529
  887SOL     OW 2659   0.150   2.040   1.209 -0.2960  0.4920 -0.1335
  887SOL    HW1 2660   0.072   1.995   1.155  1.5006  3.3243  0.6902
  887SOL    HW2 2661   0.136   2.142   1.220  2.4796  0.3171 -1.0289
  888SOL     OW 2662   0.555   1.351   1.572  0.4440  0.2260 -0.1569
  888SOL    HW1 2663   0.606   1.379   1.484 -1.5425 -0.6563 -3.2690
  888SOL    HW2 2664   0.516   1.252   1.565 -2.9155  0.1206  0.8107
  889SOL     OW 2665   0.804   2.519   2.164  0.2942 -0.4271 -0.5051
  889SOL    HW1 2666   0.754   2.429   2.149  1.4797 -0.7360  1.4706
  889SOL    HW2 2667   0.879   2.517   2.093 -2.0630 -1.3361  0.6509
  890SOL     OW 2668   2.353   2.481   0.196  0.0389 -0.2749 -0.1311
  890SOL    HW1 2669   2.399   2.547   0.131  0.4929 -1.8143  0.7542
  890SOL    HW2 2670   2.301   2.525   0.274 -0.7752 -1.0267 -1.9303
  891SOL     OW 2671   2.626   1.571   0.719  0.9942 -0.9208 -0.1944
  891SOL    HW1 2672   2.652   1.497   0.786  0.6914  0.2942 -1.8186
  891SOL    HW2 2673   2.528   1.574   0.681  1.2445  1.8767 -1.3033
  892SOL     OW 2674   0.312   0.220   2.163 -0.3495  0.2187  0.2897
  892SOL    HW1 2675   0.313   0.257   2.066 -1.6373 -2.1726 -0.6655
  892SOL    HW2 2676   0.381   0.268   2.224  0.9426  1.3052 -0.1396
  893SOL     OW 2677   1.642   0.238   2.767 -0.3874 -0.2499  0.2734
  893SOL    HW1 2678   1.724   0.298   2.783 -1.2081  0.5001 -2.4151
  893SOL    HW2 2679   1.558   0.298   2.749  1.7575 -0.2659 -0.6964
  894SOL     OW 2680   2.259   2.004   0.027  0.5566  0.3783 -0.4528
  894SOL    HW1 2681   2.225   1.927  -0.040  1.9249 -1.1870  1.2716
  894SOL    HW2 2682   2.260   1.981   0.126 -0.0128  1.9847  0.9870
  895SOL     OW 2683   2.873   1.456   0.872  0.0306  0.6797 -0.3167
  895SOL    HW1 2684   2.924   1.381   0.930  0.5495 -2.9853 -2.9367
  895SOL    HW2 2685   2.937   1.503   0.808 -1.2236  1.1608  0.5867
  896SOL     OW 2686   1.804   1.819   1.165 -0.1136 -0.6797 -0.4442
  896SOL    HW1 2687   1.862   1.814   1.080  2.6542 -0.2055  1.1358
  896SOL    HW2 2688   1.741   1.903   1.166 -0.7137 -1.5026  0.1090
  897SOL     OW 2689   0.279   0.531   3.062 -0.5937  0.3612 -0.5356
  897SOL    HW1 2690   0.233   0.612   3.017 -0.7042 -4.4041 -1.6232
  897SOL    HW2 2691   0.376   0.554   3.095  0.1228 -3.9939 -1.3239
  898SOL     OW 2692   0.592   2.830   1.106  0.2232 -0.4706 -0.3426
  898SOL    HW1 2693   0.548   2.914   1.149  0.1930 -0.1184 -0.6929
  898SOL    HW2 2694   0.688   2.822   1.141 -2.4466  0.9509  0.6701
  899SOL     OW 2695   2.726   0.887   1.234 -0.3325  0.5278 -0.7457
  899SOL    HW1 2696   2.649   0.853   1.174 -2.2781 -0.8226  0.3548
  899SOL    HW2 2697   2.799   0.937   1.183  1.5493  0.9204 -1.8628
  900SOL     OW 2698   1.012   2.588   2.363 -0.8430  0.1274 -0.1394
  900SOL    HW1 2699   0.934   2.556   2.298 -2.5434 -0.8337 -1.3553
  900SOL    HW2 2700   0.988   2.568   2.462 -0.0025  0.3498 -0.8888
  901SOL     OW 2701   1.862   2.356   1.386  0.0693 -0.1758 -0.4653
  901SOL    HW1 2702   1.837   2.358   1.284  1.7915 -1.2861  1.6446
  901SOL    HW2 2703   1.964   2.335   1.395 -0.5037  0.8499 -2.1230
  902SOL     OW 2704   2.549   1.651   1.429  0.2855  0.1884  0.3012
  902SOL    HW1 2705   2.559   1.633   1.534  2.3477 -0.2676  1.5276
  902SOL    HW2 2706   2.630   1.615   1.372  0.3445  0.4312  0.9980
  903SOL     OW 2707   0.244   2.470   1.990 -0.6710 -0.0551  0.2894
  903SOL    HW1 2708   0.163   2.405   1.962 -3.0621 -1.0728  1.5538
  903SOL    HW2 2709   0.274   2.533   1.914  1.7036  0.0949 -0.0498
  904SOL     OW 2710   2.045   0.693   2.417 -0.0963  0.2106 -0.4490
  904SOL    HW1 2711   1.986   0.673   2.499  0.4268 -0.2797 -2.0121
  904SOL    HW2 2712   1.989   0.721   2.335  0.0807  1.9126 -2.3705
  905SOL     OW 2713   2.810   0.071   2.596  0.0404  0.2590  0.0555
  905SOL    HW1 2714   2.890   0.008   2.580 -0.9170 -0.8427  0.0329
  905SOL    HW2 2715   2.824   0.168   2.558  2.3209 -1.5806 -0.1478
  906SOL     OW 2716   0.156   1.781   1.873 -0.4715 -0.4188  0.0372
  906SOL    HW1 2717   0.128   1.762   1.775  0.2156  0.4466  0.9304
  906SOL    HW2 2718   0.245   1.830   1.877 -2.0672 -0.4863  3.2130
  907SOL     OW 2719   0.130   2.488   1.021 -0.3265  0.2182  0.3805
  907SOL    HW1 2720   0.220   2.523   0.984  0.7154  3.9681 -2.3998
  907SOL    HW2 2721   0.085   2.408   0.970 -2.7352 -0.4830 -1.6804
  908SOL     OW 2722   2.687   2.947   0.419  0.5943 -0.0895  0.3131
  908SOL    HW1 2723   2.645   3.009   0.349 -1.7219 -1.4219  3.0345
  908SOL    HW2 2724   2.736   2.863   0.385 -0.0862 -1.9323 -0.0922
  909SOL     OW 2725   0.774   0.972   2.716  0.5391 -0.0960 -0.6280
  909SOL    HW1 2726   0.735   0.878   2.692  1.3177 -0.8570 -2.1150
  909SOL    HW2 2727   0.829   1.008   2.634 -0.3915  1.6792 -1.8133
  910SOL     OW 2728   1.770   1.847   2.126 -0.2254 -0.3823 -0.4061
  910SOL    HW1 2729   1.827   1.859   2.041  0.7398 -1.1465  0.1175
  910SOL    HW2 2730   1.704   1.921   2.147 -0.8645 -0.4994 -0.9629
  911SOL     OW 2731   1.836   2.944   1.595 -0.7778  0.1231  0.5289
  911SOL    HW1 2732   1.918   2.900   1.549  0.1157 -0.1642  0.0625
  911SOL    HW2 2733   1.823   2.909   1.695  0.9006  0.0400 -0.2380
  912SOL     OW 2734   2.903   0.976   0.752  0.0050 -0.1992  0.0789
  912SOL    HW1 2735   2.916   0.942   0.849 -1.9472 -0.1626  0.4686
  912SOL    HW2 2736   2.848   1.067   0.748 -2.7978 -2.6550  0.3077
  913SOL     OW 2737   2.566   1.274   1.558  0.2813  0.0039  0.0232
  913SOL    HW1 2738   2.573   1.168   1.536 -0.3133 -0.4060  0.5055
  913SOL    HW2 2739   2.604   1.331   1.484  1.3733 -0.1286  1.3028
  914SOL     OW 2740   2.813   0.517   1.204 -0.3236 -0.6216 -0.5252
  914SOL    HW1 2741   2.727   0.459   1.175 -2.8370 -0.1529  1.6393
  914SOL    HW2 2742   2.791   0.559   1.296  0.0311 -0.4945  1.0820
  915SOL     OW 2743   1.238   0.797   1.027  0.2083 -0.0371 -0.2284
  915SOL    HW1 2744   1.271   0.790   1.124  4.7402 -0.6703 -0.7910
  915SOL    HW2 2745   1.133   0.808   1.026 -1.0471 -0.6777  0.1184
  916SOL     OW 2746   0.607   0.027   0.665 -0.3638  0.1939  0.0262
  916SOL    HW1 2747   0.644   0.103   0.729 -1.3483  1.9301 -1.5329
  916SOL    HW2 2748   0.601   0.057   0.563 -1.3268  0.7876 -1.1932
  917SOL     OW 2749   2.829   2.610   1.975 -0.2290 -0.0893 -0.1415
  917SOL    HW1 2750   2.724   2.611   1.985  0.2858  1.8002  0.4266
  917SOL    HW2 2751   2.861   2.698   1.929 -1.2191 -1.4268  2.2120
  918SOL     OW 2752   1.044   2.221   2.997 -0.3927 -0.3125  0.6121
  918SOL    HW1 2753   1.026   2.209   3.101 -0.9090 -1.1529  0.7233
  918SOL    HW2 2754   1.082   2.134   2.958 -0.2605  0.4992 -0.5530
  919SOL     OW 2755   0.876   1.620   2.829  0.2665 -0.2922 -0.2808
  919SOL    HW1 2756   0.939   1.682   2.769  2.2558 -2.2519 -2.8314
  919SOL    HW2 2757   0.822   1.549   2.775 -0.2878 -1.5857  1.0915
  920SOL     OW 2758   1.263   1.937   2.471 -0.3177  1.2735  0.2044
  920SOL    HW1 2759   1.259   1.931   2.366  1.0254  0.0391 -0.7596
  920SOL    HW2 2760   1.283   1.847   2.516  1.1717  0.2658  0.9025
  921SOL     OW 2761   1.107   0.047   2.602  0.4041  0.4090  0.1581
  921SOL    HW1 2762   1.088   0.067   2.502  0.6230  0.9072 -1.4135
  921SOL    HW2 2763   1.024  -0.008   2.643 -0.3440 -3.5630 -1.9276
  922SOL     OW 2764   2.148   2.417   2.888 -0.1534 -0.1285  0.3809
  922SOL    HW1 2765   2.160   2.311   2.898  0.2738  0.3570  2.8551
  922SOL    HW2 2766   2.074   2.444   2.816 -3.1531  0.5131  2.3452
  923SOL     OW 2767   1.243   2.700   0.259 -0.2801 -0.5851  0.0995
  923SOL    HW1 2768   1.307   2.755   0.323 -1.6230  0.3631  1.1644
  923SOL    HW2 2769   1.275   2.603   0.242 -1.4270 -0.4038  0.1000
  924SOL     OW 2770   2.861   1.534   0.079 -0.1835  0.2952  0.1382
  924SOL    HW1 2771   2.768   1.508   0.039 -0.3203  1.3747  0.0606
  924SOL    HW2 2772   2.942   1.532   0.010  0.3669  0.8243  1.1653
  925SOL     OW 2773   3.105   2.947   1.509 -0.0275 -0.3720  0.3233
  925SOL    HW1 2774   3.041   2.965   1.584  0.9530  0.8853 -0.1754
  925SOL    HW2 2775   3.065   2.895   1.428 -1.6950 -2.1363 -0.1371
  926SOL     OW 2776   1.352   2.828   1.280 -0.1267  0.5518  0.8658
  926SOL    HW1 2777   1.418   2.836   1.199 -1.9950 -0.3376  1.2774
  926SOL    HW2 2778   1.361   2.907   1.348  2.6727 -2.3275  1.9025
  927SOL     OW 2779   0.307   2.662   1.778 -0.2323 -0.5536  0.1985
  927SOL    HW1 2780   0.270   2.597   1.706 -0.1950  3.5003 -0.0761
  927SOL    HW2 2781   0.268   2.757   1.761  0.4045  0.6187 -1.3991
  928SOL     OW 2782   1.551   2.030   2.188  0.2410 -0.3135  0.0580
  928SOL    HW1 2783   1.583   2.119   2.160 -2.3411 -1.7085  0.8986
  928SOL    HW2 2784   1.458   2.010   2.151  0.1270 -0.1333 -0.9224
  929SOL     OW 2785   2.441   2.457   2.896 -0.3171 -0.0976 -0.4188
  929SOL    HW1 2786   2.344   2.427   2.880  1.0181  1.2182 -1.5581
  929SOL    HW2 2787   2.494   2.467   2.804  0.1264  1.8631  0.8406
  930SOL     OW 2788   2.192   1.975   1.049 -0.2385  0.2866  0.2983
  930SOL    HW1 2789   2.157   1.953   1.143 -0.9192 -0.5824  0.6961
  930SOL    HW2 2790   2.260   2.056   1.047  1.9686 -0.2793 -1.0648
  931SOL     OW 2791   0.529   1.707   2.698  0.1806 -0.1328  0.0025
  931SOL    HW1 2792   0.568   1.760   2.776 -0.1377  0.3607  3.3366
  931SOL    HW2 2793   0.597   1.640   2.665  0.4651 -2.0011 -2.6789
  932SOL     OW 2794   0.440   0.059   2.932  0.0489 -0.9937 -0.3779
  932SOL    HW1 2795   0.529   0.107   2.896  1.8238  3.0643  1.9972
  932SOL    HW2 2796   0.450  -0.016   2.999 -2.0851  1.6368 -2.1761
  933SOL     OW 2797   1.049   0.726   3.037  0.5872  0.1269 -0.2005
  933SOL    HW1 2798   1.119   0.794   3.072  1.2241 -1.7048  1.6386
  933SOL    HW2 2799   0.978   0.770   2.976  1.2856  0.2074 -0.0848
  934SOL     OW 2800   0.882   2.975   2.675 -0.1879  0.1916 -0.3006
  934SOL    HW1 2801   0.869   2.895   2.603 -0.3952 -2.5527  0.3771
  934SOL    HW2 2802   0.914   2.936   2.768 -0.7986 -1.6334  0.0304
  935SOL     OW 2803   3.087   0.556   0.833 -0.4056 -0.0119 -0.4080
  935SOL    HW1 2804   3.104   0.513   0.737  0.1549 -2.0092  0.0902
  935SOL    HW2 2805   3.000   0.603   0.840  0.6974  0.2328  1.5508
  936SOL     OW 2806   1.089   2.926   0.125  0.2600  0.0213  0.2593
  936SOL    HW1 2807   1.148   2.959   0.048  1.8936  0.5377  3.3108
  936SOL    HW2 2808   1.137   2.848   0.184  2.1568 -2.3954 -0.8562
  937SOL     OW 2809   1.967   2.667   2.089 -0.3783 -0.0299 -0.4708
  937SOL    HW1 2810   1.881   2.687   2.143 -2.0087  2.3252  1.2957
  937SOL    HW2 2811   1.956   2.717   2.002 -1.6905 -0.0855  0.7855
  938SOL     OW 2812   2.723   2.061   1.500 -0.9379  0.1554  1.0200
  938SOL    HW1 2813   2.696   2.152   1.547 -1.1514 -0.2722 -0.7934
  938SOL    HW2 2814   2.813   2.023   1.531 -2.1378  1.0322 -3.9644
  939SOL     OW 2815   2.838   1.222   2.464  0.6819 -0.0708 -0.2826
  939SOL    HW1 2816   2.880   1.190   2.372  1.3428 -1.6965  0.5130
  939SOL    HW2 2817   2.862   1.163   2.547  1.2332 -0.7693  0.1931
  940SOL     OW 2818   0.980   0.452   2.690  0.1440  0.2523 -0.0674
  940SOL    HW1 2819   1.037   0.370   2.711 -3.2014  0.7849  0.2449
  940SOL    HW2 2820   0.883   0.435   2.664  3.2815 -3.0810  0.0807
  941SOL     OW 2821   0.067   2.829   2.214  0.1268  0.0190  0.0190
  941SOL    HW1 2822   0.086   2.726   2.230 -1.6755 -2.1827 -2.4955
  941SOL    HW2 2823   0.103   2.893   2.292 -1.5181  0.2119 -2.3500
  942SOL     OW 2824   0.065   0.125   2.505 -0.1181 -0.1702  0.4643
  942SOL    HW1 2825   0.121   0.167   2.579 -0.6302  2.7988  1.3531
  942SOL    HW2 2826   0.072   0.166   2.410 -0.3893 -0.4054 -0.3832
  943SOL     OW 2827   2.133   1.651   2.342  0.3798  0.3020  0.4713
  943SOL    HW1 2828   2.099   1.604   2.250  0.1268 -3.8331 -0.9019
  943SOL    HW2 2829   2.131   1.581   2.418  2.2071 -0.5636  1.7080
  944SOL     OW 2830   2.155   2.344   1.447  0.2979 -0.6189 -0.2790
  944SOL    HW1 2831   2.209   2.412   1.500 -0.6738 -1.2481  1.3888
  944SOL    HW2 2832   2.104   2.284   1.514 -1.5131  1.9069  0.3009
  945SOL     OW 2833   0.657   1.503   0.303 -0.4541  0.1389  0.0711
  945SOL    HW1 2834   0.729   1.561   0.258 -0.0924  2.5218 -0.0394
  945SOL    HW2 2835   0.673   1.399   0.302  1.9680 -1.6869 -2.0912
  946SOL     OW 2836   0.408   0.932   2.512  0.5468  0.1486  0.6457
  946SOL    HW1 2837   0.334   0.886   2.457 -0.7144 -0.6723  2.1146
  946SOL    HW2 2838   0.375   1.008   2.574 -0.7026 -0.7131 -0.5750
  947SOL     OW 2839   1.557   0.537   0.065  0.0289  0.3549  0.8639
  947SOL    HW1 2840   1.519   0.573  -0.031  0.5694  3.6841 -1.8865
  947SOL    HW2 2841   1.490   0.487   0.121  0.7364  1.5049 -1.4536
  948SOL     OW 2842   1.998   3.065   2.178  0.4925  0.5361  0.4505
  948SOL    HW1 2843   2.023   3.020   2.085  1.2974 -0.2979  0.4880
  948SOL    HW2 2844   1.954   2.991   2.236 -0.5789  3.5536 -1.3138
  949SOL     OW 2845   0.633   2.502   0.530  0.4066 -0.0388  0.3653
  949SOL    HW1 2846   0.594   2.600   0.539 -0.5768 -2.1126  1.6164
  949SOL    HW2 2847   0.637   2.465   0.628 -1.3886  0.6753 -1.9181
  950SOL     OW 2848   0.211   2.143   3.056  0.3698  0.3996 -0.1413
  950SOL    HW1 2849   0.133   2.212   3.057 -1.3061  1.0269 -1.9369
  950SOL    HW2 2850   0.203   2.084   2.972 -2.7759 -1.7903  0.8416
  951SOL     OW 2851   1.179   2.820   2.654  0.3392  0.7147  0.3578
  951SOL    HW1 2852   1.154   2.830   2.552 -0.8646  4.9488  1.3129
  951SOL    HW2 2853   1.277   2.817   2.674 -1.9642 -0.8666 -0.8841
  952SOL     OW 2854   0.118   1.655   0.452  0.1753 -0.2270  0.1147
  952SOL    HW1 2855   0.156   1.752   0.463 -1.6621 -3.9198 -2.9323
  952SOL    HW2 2856   0.137   1.599   0.533 -1.8798 -2.5015 -1.6751
  953SOL     OW 2857   2.503   1.770   0.218 -0.4151 -0.1414 -0.3566
  953SOL    HW1 2858   2.491   1.672   0.254  1.6520  1.5554 -0.9520
  953SOL    HW2 2859   2.527   1.774   0.118  2.1317 -2.2382 -1.7727
  954SOL     OW 2860   2.181   0.532   0.967  0.2111  0.0958 -0.1164
  954SOL    HW1 2861   2.196   0.569   0.870 -0.7406 -1.7033  0.0999
  954SOL    HW2 2862   2.272   0.517   1.012  2.1810 -1.4188 -1.0142
  955SOL     OW 2863   0.225   2.629   1.340  0.6584  0.4817  0.1067
  955SOL    HW1 2864   0.128   2.659   1.329 -0.6209  0.3405 -1.0646
  955SOL    HW2 2865   0.278   2.644   1.252  0.2221  1.3746  2.3100
  956SOL     OW 2866   2.755   2.451   2.450  0.6627  0.0894 -0.2749
  956SOL    HW1 2867   2.760   2.347   2.429  0.2466 -1.7087 -1.7030
  956SOL    HW2 2868   2.812   2.503   2.387 -1.0014 -3.9367  0.5398
  957SOL     OW 2869   1.541   2.039   2.735 -0.3056 -0.1834 -0.0655
  957SOL    HW1 2870   1.524   1.936   2.724 -2.2128 -1.2816 -1.9970
  957SOL    HW2 2871   1.559   2.081   2.639 -0.1652 -1.3495 -2.5702
  958SOL     OW 2872   2.677   2.342   2.962  0.3592  0.0368 -0.2887
  958SOL    HW1 2873   2.595   2.393   2.923  0.8495 -0.2909 -1.9956
  958SOL    HW2 2874   2.664   2.309   3.061  0.5935 -2.4378  0.9649
  959SOL     OW 2875   0.255   2.767   0.086  0.1439 -0.2648  0.4180
  959SOL    HW1 2876   0.156   2.752   0.061  1.8592 -0.8898  2.2840
  959SOL    HW2 2877   0.291   2.698   0.159  1.9759 -0.9801  0.3319
  960SOL     OW 2878   1.972   0.432   1.919  0.5910  0.0800  0.0235
  960SOL    HW1 2879   1.944   0.528   1.890  1.5043 -0.6812 -0.2628
  960SOL    HW2 2880   1.968   0.415   2.022  0.8165 -2.5731  1.6697
  961SOL     OW 2881   2.545   1.860   1.021  0.5510 -0.2436 -0.3325
  961SOL    HW1 2882   2.520   1.947   0.965 -2.6913  0.6296  0.4353
  961SOL    HW2 2883   2.487   1.848   1.108  1.7638  1.4128  0.5436
  962SOL     OW 2884   1.259   0.896   0.036 -0.2932 -0.2364 -0.1508
  962SOL    HW1 2885   1.258   0.973  -0.036 -0.2492 -0.1600 -0.0181
  962SOL    HW2 2886   1.273   0.936   0.133 -1.6070 -0.7009  1.3464
  963SOL     OW 2887   2.173   2.558   1.871  0.5941  0.1865  0.1246
  963SOL    HW1 2888   2.210   2.469   1.910 -0.2749  1.8310 -2.7321
  963SOL    HW2 2889   2.195   2.642   1.924 -1.3358 -0.2537  0.4986
  964SOL     OW 2890   2.398   0.391   1.660  0.3641  0.0361 -0.1597
  964SOL    HW1 2891   2.471   0.449   1.698 -2.4285  0.7978  1.1792
  964SOL    HW2 2892   2.406   0.386   1.558  1.4624 -0.4563  0.8935
  965SOL     OW 2893   2.582   3.067   0.170 -0.5254  0.7879  0.2792
  965SOL    HW1 2894   2.660   3.016   0.122  2.5122 -0.8739 -0.3439
  965SOL    HW2 2895   2.489   3.028   0.130 -2.6458 -0.4667  2.6209
  966SOL     OW 2896   2.480   2.479   2.214 -0.3485  0.0940  0.4567
  966SOL    HW1 2897   2.409   2.456   2.284 -0.3881 -0.2274  1.3307
  966SOL    HW2 2898   2.442   2.522   2.125 -0.0640 -1.5261 -0.1100
  967SOL     OW 2899   2.814   2.823   2.449 -0.3662  0.0105 -0.3121
  967SOL    HW1 2900   2.878   2.806   2.367  1.0658  0.7018 -2.1619
  967SOL    HW2 2901   2.851   2.906   2.499 -1.3803  0.4609 -1.1788
  968SOL     OW 2902   1.950   1.075   2.660 -0.1599  0.2082  0.0533
  968SOL    HW1 2903   1.900   1.143   2.604  0.7049  0.2402 -3.8609
  968SOL    HW2 2904   1.923   0.981   2.640 -2.4780  1.8552  1.7121
  969SOL     OW 2905   2.770   2.431   1.084 -0.2807 -0.0686 -0.1359
  969SOL    HW1 2906   2.783   2.381   0.994  0.4078  0.6680 -1.5526
  969SOL    HW2 2907   2.787   2.364   1.163 -0.0154  1.0635 -1.5556
  970SOL     OW 2908   1.067   2.135   1.776 -0.0730 -0.1375  0.7848
  970SOL    HW1 2909   0.979   2.140   1.719  1.0710  0.9660 -1.0385
  970SOL    HW2 2910   1.042   2.152   1.879 -0.1560 -0.0411  0.7086
  971SOL     OW 2911   2.822   2.089   1.887 -0.0428 -0.1554  0.4332
  971SOL    HW1 2912   2.830   2.191   1.912  1.7340  2.6957 -1.6066
  971SOL    HW2 2913   2.876   2.065   1.803 -1.3566  0.7413 -2.3206
  972SOL     OW 2914   1.942   2.418   0.201  0.1439 -0.3249  0.4621
  972SOL    HW1 2915   1.938   2.332   0.143  0.4052  1.6322  0.8809
  972SOL    HW2 2916   1.994   2.409   0.290  0.6522 -1.2826 -2.2822
  973SOL     OW 2917   1.343   1.062   1.880 -0.3714  0.2067  0.6679
  973SOL    HW1 2918   1.253   1.033   1.832  0.9550  0.3442 -1.4355
  973SOL    HW2 2919   1.350   1.166   1.893 -0.8046 -1.3870  0.1384
  974SOL     OW 2920   1.623   0.557   1.983 -0.0267  0.2089 -0.2874
  974SOL    HW1 2921   1.707   0.609   1.948 -2.0177  1.8378  0.6727
  974SOL    HW2 2922   1.532   0.594   1.943 -0.0289 -2.7996  0.7267
  975SOL     OW 2923   2.369   3.019   0.018  0.8478  0.0012 -0.2328
  975SOL    HW1 2924   2.299   2.944   0.032  0.4922 -1.5616  3.4275
  975SOL    HW2 2925   2.403   3.027  -0.078 -1.3526 -0.1225  1.9206
  976SOL     OW 2926   1.903   2.877   2.346 -0.1614  0.4234  0.0274
  976SOL    HW1 2927   1.835   2.824   2.290  1.4372  0.7331  0.7263
  976SOL    HW2 2928   1.910   2.832   2.442  1.4387 -0.2022  3.0823
  977SOL     OW 2929   0.459   0.699   1.018 -0.2949 -0.1860 -0.8707
  977SOL    HW1 2930   0.378   0.671   0.950 -1.2295 -1.8089 -0.8780
  977SOL    HW2 2931   0.553   0.704   0.974  1.2599 -3.1248 -0.1119
   3.10000   3.10000   3.10000
